1000 SPC/Fw water molecules t= 300.00000 step= 300000
 3000
    1SOL     OW    1   2.481   3.067   0.853  0.5016  0.0142  0.1016
    1SOL    HW1    2   2.492   2.998   0.779 -3.2638 -0.6377  0.2371
    1SOL    HW2    3   2.568   0.007   0.909  1.6177  0.3936  0.8214
    2SOL     OW    4   2.994   2.437   0.991  0.3537  0.0325 -0.2742
    2SOL    HW1    5   2.999   2.357   0.929 -1.2529  0.1245 -1.4911
    2SOL    HW2    6   3.073   2.491   0.972 -3.4568  0.6047 -0.8834
    3SOL     OW    7   0.803   2.671   2.870  0.2857  0.1115  0.5839
    3SOL    HW1    8   0.767   2.623   2.954 -0.0387 -0.1137  3.4527
    3SOL    HW2    9   0.735   2.713   2.803  0.0749 -0.6365  0.9671
    4SOL     OW   10   2.158   2.355   1.667  0.3477 -0.1948 -0.5098
    4SOL    HW1   11   2.229   2.415   1.617  1.9028  5.3839 -0.9764
    4SOL    HW2   12   2.159   2.254   1.657 -0.2655 -2.6833  1.7322
    5SOL     OW   13   1.623   0.786   1.504 -0.1000  0.8823  0.8301
    5SOL    HW1   14   1.565   0.802   1.422  0.3844 -1.7976  1.8311
    5SOL    HW2   15   1.620   0.869   1.559  1.8273 -0.3949 -0.7009
    6SOL     OW   16   1.852   2.797   0.071 -0.2912 -0.3232 -0.3840
    6SOL    HW1   17   1.903   2.876   0.098 -4.0355 -1.7296 -1.6004
    6SOL    HW2   18   1.763   2.786   0.124 -4.7670  1.3438  2.0946
    7SOL     OW   19   2.869   1.314   1.189 -0.0997  0.0888  0.4818
    7SOL    HW1   20   2.923   1.384   1.234 -0.3890 -2.4319 -2.4921
    7SOL    HW2   21   2.780   1.298   1.236  2.6344  0.1097  3.7842
    8SOL     OW   22   1.476   2.434   1.091 -0.4130  0.4327  0.2399
    8SOL    HW1   23   1.516   2.486   1.169  0.0121 -0.6297 -0.3275
    8SOL    HW2   24   1.447   2.341   1.116 -1.3272  0.1812 -0.5830
    9SOL     OW   25   1.341   2.977   2.287  0.3153  1.0136 -0.4978
    9SOL    HW1   26   1.333   2.925   2.371  0.5515  1.8097  0.6889
    9SOL    HW2   27   1.321   2.929   2.199  3.2361 -0.0321 -0.6687
   10SOL     OW   28   0.684   2.122   1.176 -0.0152  0.4280  0.0543
   10SOL    HW1   29   0.755   2.062   1.217  2.7977  2.9473  0.5522
   10SOL    HW2   30   0.727   2.195   1.120  0.9979 -0.0881  1.2589
   11SOL     OW   31   1.884   1.485   1.184  0.0542 -0.5523 -0.0153
   11SOL    HW1   32   1.952   1.553   1.223 -1.2195  0.2382 -0.1667
   11SOL    HW2   33   1.797   1.508   1.223 -0.4955 -0.9266 -0.4452
   12SOL     OW   34   2.447   2.713   1.642  0.0988 -0.2791 -0.0799
   12SOL    HW1   35   2.545   2.686   1.671 -1.3300 -0.4588 -0.0972
   12SOL    HW2   36   2.397   2.766   1.713 -1.7296 -1.6455 -1.6255
   13SOL     OW   37   2.177   2.782   0.249  0.1618  0.0764 -0.1469
   13SOL    HW1   38   2.152   2.727   0.329 -0.9218 -1.7002  3.0137
   13SOL    HW2   39   2.254   2.844   0.269 -1.2960 -2.3891 -0.2344
   14SOL     OW   40   1.855   2.316   0.752 -1.0613  0.3950  0.1476
   14SOL    HW1   41   1.755   2.319   0.769 -0.9606 -0.0642  0.6537
   14SOL    HW2   42   1.887   2.230   0.712  0.0204  0.6652 -0.0010
   15SOL     OW   43   3.002   1.981   1.965 -0.1876  0.1023  0.0277
   15SOL    HW1   44   0.024   2.008   1.978  1.0943  1.4772  0.5441
   15SOL    HW2   45   2.978   1.916   2.044 -1.3252 -2.1964  3.4266
   16SOL     OW   46   1.935   2.785   0.572 -0.2730  0.2005  0.0101
   16SOL    HW1   47   1.951   2.872   0.514  1.4214 -0.8314 -1.1311
   16SOL    HW2   48   1.959   2.810   0.668 -1.1455 -2.2775 -1.0000
   17SOL     OW   49   0.662   0.065   1.147 -0.1743 -0.3724 -0.5179
   17SOL    HW1   50   0.567   0.052   1.121  1.5311 -0.2470  2.9580
   17SOL    HW2   51   0.678   0.071   1.246 -2.7798  0.6646  0.1323
   18SOL     OW   52   1.656   1.131   0.036  0.1622 -0.4395  0.0696
   18SOL    HW1   53   1.599   1.163   0.114 -0.6764  0.9954 -0.2133
   18SOL    HW2   54   1.642   1.033   0.015  0.1979  0.6294 -1.3153
   19SOL     OW   55   1.733   1.929   0.329 -0.0168  0.1770 -0.1420
   19SOL    HW1   56   1.820   1.976   0.353  0.6380  1.6522 -0.2604
   19SOL    HW2   57   1.721   1.833   0.357  1.0932  2.5600  0.0420
   20SOL     OW   58   2.663   1.820   2.101  0.2292  0.0338  0.3735
   20SOL    HW1   59   2.586   1.885   2.122  1.4714  0.3208 -2.1620
   20SOL    HW2   60   2.744   1.836   2.161  1.4276  0.4565 -0.8300
   21SOL     OW   61   1.479   1.146   0.673 -0.3520 -0.0430 -0.0239
   21SOL    HW1   62   1.406   1.195   0.618 -1.2528 -0.8004 -2.0198
   21SOL    HW2   63   1.524   1.083   0.610 -0.7824 -1.4880  1.4082
   22SOL     OW   64   2.097   2.949   1.433  0.9190  0.4967 -0.2801
   22SOL    HW1   65   2.102   2.956   1.531 -0.2496  0.9614 -1.1780
   22SOL    HW2   66   2.058   3.034   1.397  0.0447 -0.8874  0.7212
   23SOL     OW   67   2.967   0.728   1.841  0.0944  0.2234  0.4335
   23SOL    HW1   68   2.896   0.776   1.895  3.2379  0.4914  0.4086
   23SOL    HW2   69   3.006   0.787   1.764  1.1905  1.0243  0.0254
   24SOL     OW   70   2.400   2.608   0.312  0.4749  0.1308 -0.1861
   24SOL    HW1   71   2.342   2.632   0.395 -0.3354 -0.9803  2.9893
   24SOL    HW2   72   2.352   2.620   0.226 -1.1682  1.8098  1.2720
   25SOL     OW   73   1.018   0.070   2.270  0.0334 -0.7628 -0.2456
   25SOL    HW1   74   1.044   0.068   2.367  1.3411 -1.6493 -2.6110
   25SOL    HW2   75   1.106   0.057   2.219 -0.0211 -0.5493 -0.3884
   26SOL     OW   76   1.788   2.349   0.472  0.2126  0.5153  0.6220
   26SOL    HW1   77   1.811   2.346   0.575 -2.0910  0.8878  3.0080
   26SOL    HW2   78   1.731   2.268   0.448 -0.9804  0.2122 -2.4719
   27SOL     OW   79   2.253   1.552   0.078  0.0604  0.3041  0.2325
   27SOL    HW1   80   2.165   1.595   0.108 -2.3490  2.8462 -2.0669
   27SOL    HW2   81   2.234   1.461   0.032 -1.9123  1.8408  0.1001
   28SOL     OW   82   0.619   1.578   1.650 -0.2404  0.0505  0.4619
   28SOL    HW1   83   0.677   1.563   1.732 -0.8306 -0.2939  0.2948
   28SOL    HW2   84   0.668   1.566   1.559 -1.1485 -0.9061 -0.6372
   29SOL     OW   85   2.453   2.297   1.386  0.6642  0.3135  0.3933
   29SOL    HW1   86   2.478   2.334   1.297 -1.0206 -0.2111 -0.2809
   29SOL    HW2   87   2.391   2.366   1.431  1.3599  0.7507 -0.4836
   30SOL     OW   88   1.429   0.488   0.854  0.7976  0.0962  0.4222
   30SOL    HW1   89   1.327   0.485   0.863  2.6448  2.3227 -2.3615
   30SOL    HW2   90   1.460   0.585   0.866 -3.0545  0.4080  0.5888
   31SOL     OW   91   1.896   2.731   1.802  0.0619  0.1107 -0.3407
   31SOL    HW1   92   1.795   2.747   1.815 -2.0119  0.4482 -0.2605
   31SOL    HW2   93   1.920   2.629   1.811 -1.1990  0.9641  0.0431
   32SOL     OW   94   1.042   1.760   0.948  0.1181 -0.0971 -0.1062
   32SOL    HW1   95   0.964   1.813   0.913  1.4001 -0.4935 -0.0357
   32SOL    HW2   96   1.063   1.694   0.871  1.3651  0.5626 -1.3715
   33SOL     OW   97   0.296   0.463   2.486 -0.1314 -0.2939 -0.5262
   33SOL    HW1   98   0.293   0.393   2.558 -0.1114  0.6793 -0.3236
   33SOL    HW2   99   0.333   0.424   2.400  2.4984  0.0971 -2.4023
   34SOL     OW  100   2.012   3.018   0.379 -0.8224 -0.0761  0.0424
   34SOL    HW1  101   1.976   0.021   0.432  4.4620 -0.8247  1.2698
   34SOL    HW2  102   1.959   2.998   0.297  0.7392 -1.5581  0.6069
   35SOL     OW  103   2.193   2.552   1.241  0.0937 -0.2808  0.3273
   35SOL    HW1  104   2.206   2.654   1.264  1.8887  0.9672  1.9221
   35SOL    HW2  105   2.097   2.515   1.257  0.3599 -0.4907 -2.8871
   36SOL     OW  106   1.750   2.387   2.647 -0.1263  0.3085  0.2988
   36SOL    HW1  107   1.722   2.290   2.682  0.8939  0.1475  1.1486
   36SOL    HW2  108   1.827   2.385   2.583  3.5244 -0.2470 -1.9193
   37SOL     OW  109   0.627   3.073   1.921 -0.4014  0.7856 -0.2492
   37SOL    HW1  110   0.556   3.010   1.949 -0.9332  4.0466 -3.5152
   37SOL    HW2  111   0.711   3.069   1.982  1.0527 -1.1580  0.2866
   38SOL     OW  112   3.032   0.169   2.567  0.4223 -0.0304  0.7074
   38SOL    HW1  113   2.981   0.095   2.615 -2.0814 -0.2408  1.6822
   38SOL    HW2  114   0.045   0.133   2.531  0.8670 -1.8828  0.3369
   39SOL     OW  115   2.263   0.928   1.511 -0.1404 -0.0472  1.0459
   39SOL    HW1  116   2.257   0.907   1.607  1.6319  3.1176 -1.5856
   39SOL    HW2  117   2.277   1.026   1.508 -0.1687 -2.3513  0.2907
   40SOL     OW  118   1.198   2.805   3.018  0.5212  0.6007 -0.4187
   40SOL    HW1  119   1.128   2.824   2.947 -0.9584 -1.1654  1.8945
   40SOL    HW2  120   1.257   2.889   3.025  1.9493  0.6390  0.4667
   41SOL     OW  121   2.387   1.482   1.025  0.0720 -0.0136 -0.6235
   41SOL    HW1  122   2.425   1.502   1.116  1.6667  1.9098 -1.5169
   41SOL    HW2  123   2.448   1.411   0.983  0.3837 -0.5744  0.5700
   42SOL     OW  124   0.321   0.296   1.073  0.2496 -0.4282  0.2893
   42SOL    HW1  125   0.394   0.363   1.045 -1.2993 -4.3835  0.4387
   42SOL    HW2  126   0.277   0.272   0.983  2.0761  1.0539 -0.0755
   43SOL     OW  127   2.633   1.600   2.323 -0.2897 -0.0904 -0.0863
   43SOL    HW1  128   2.624   1.677   2.387  1.3390  0.8744  1.0751
   43SOL    HW2  129   2.541   1.565   2.304 -2.8126  2.1501 -1.1722
   44SOL     OW  130   2.452   3.072   1.854  0.5365 -0.0760 -0.6481
   44SOL    HW1  131   2.458   0.014   1.755 -0.4473 -0.3000  0.8786
   44SOL    HW2  132   2.508   0.066   1.901  2.0855 -0.9210  0.2431
   45SOL     OW  133   0.776   2.913   1.748 -0.1071  0.1018  0.0693
   45SOL    HW1  134   0.782   2.809   1.764  0.4597  0.2275 -1.7136
   45SOL    HW2  135   0.703   2.954   1.808  0.6580 -0.7411  1.8618
   46SOL     OW  136   1.305   2.833   2.530 -1.0728 -0.2583  0.2331
   46SOL    HW1  137   1.221   2.781   2.527  3.9667  0.8425  0.2617
   46SOL    HW2  138   1.290   2.920   2.582 -1.3815 -1.0546  1.1242
   47SOL     OW  139   1.701   1.927   0.649  0.7892  0.3152 -0.4010
   47SOL    HW1  140   1.626   1.990   0.629  1.7589 -3.1970 -2.6565
   47SOL    HW2  141   1.664   1.841   0.690  1.2875  0.1396 -1.3127
   48SOL     OW  142   0.953   2.193   0.692 -0.3323 -0.2636 -0.2996
   48SOL    HW1  143   0.939   2.271   0.628  1.7771 -1.4761 -0.4966
   48SOL    HW2  144   0.869   2.138   0.708  0.8922  2.2861 -0.7031
   49SOL     OW  145   2.177   2.758   2.582 -0.3237  0.8902 -0.9765
   49SOL    HW1  146   2.269   2.799   2.564  1.5827 -0.7957  1.0058
   49SOL    HW2  147   2.191   2.701   2.667  0.2931 -1.9615  1.0220
   50SOL     OW  148   1.605   0.115   0.266  0.5315 -0.2463  0.5668
   50SOL    HW1  149   1.616   0.208   0.310 -3.8593 -0.3207  1.4654
   50SOL    HW2  150   1.503   0.110   0.240  2.3999 -0.2142 -0.2889
   51SOL     OW  151   2.156   0.779   0.620  0.6296 -0.2911  0.3186
   51SOL    HW1  152   2.080   0.850   0.605  0.9301 -1.6532  0.6763
   51SOL    HW2  153   2.123   0.685   0.635  1.0560 -1.6756 -1.9704
   52SOL     OW  154   1.172   1.446   1.153 -0.0653 -0.6509 -0.4636
   52SOL    HW1  155   1.215   1.414   1.237 -1.7105 -1.2777 -0.6635
   52SOL    HW2  156   1.125   1.371   1.102 -4.0839  0.0775 -1.2502
   53SOL     OW  157   1.012   1.555   2.464  0.0958  0.3019  0.0381
   53SOL    HW1  158   0.966   1.581   2.374 -1.8859 -0.0219 -1.4571
   53SOL    HW2  159   1.028   1.643   2.513  0.0581 -0.9005 -0.7833
   54SOL     OW  160   2.667   0.436   1.577  0.4437  0.0961  0.4120
   54SOL    HW1  161   2.724   0.352   1.602 -0.5336  0.4195  1.1251
   54SOL    HW2  162   2.599   0.417   1.505 -4.0251  2.4082 -0.5253
   55SOL     OW  163   2.763   2.101   0.709  0.8219  0.2932  0.2361
   55SOL    HW1  164   2.732   2.051   0.796  0.9376  0.4954  0.7761
   55SOL    HW2  165   2.684   2.099   0.639 -1.2206  1.4378 -2.7162
   56SOL     OW  166   1.099   0.577   2.193 -0.4522  0.2122  0.0109
   56SOL    HW1  167   1.107   0.485   2.238  0.7438  1.4195  2.8485
   56SOL    HW2  168   1.074   0.561   2.094  2.0503 -1.7158  0.5804
   57SOL     OW  169   1.230   1.347   3.023  0.3463 -0.2291  0.2215
   57SOL    HW1  170   1.326   1.385   3.007  0.9684  1.4941  1.0404
   57SOL    HW2  171   1.201   1.283   2.947 -1.1724 -4.1677 -1.5499
   58SOL     OW  172   0.182   0.757   1.573 -0.4693  0.2791 -0.3490
   58SOL    HW1  173   0.126   0.830   1.610  1.3527  0.1463 -3.6069
   58SOL    HW2  174   0.199   0.776   1.476 -1.6891 -0.9929  2.1127
   59SOL     OW  175   1.348   3.006   3.050 -0.1343  0.3873  0.0326
   59SOL    HW1  176   1.445   2.988   3.022 -0.9557 -0.7136 -3.1561
   59SOL    HW2  177   1.353   3.062   0.056  1.8870 -0.9171 -2.1654
   60SOL     OW  178   3.057   1.864   0.291  0.5642  0.0330  0.7836
   60SOL    HW1  179   3.042   1.852   0.391  0.4428  4.3332 -0.8811
   60SOL    HW2  180   3.053   1.780   0.231 -0.7746 -2.4945 -1.6055
   61SOL     OW  181   1.158   2.853   0.844  0.3024  0.6752 -0.8875
   61SOL    HW1  182   1.258   2.861   0.824  2.8344 -0.3713  0.4674
   61SOL    HW2  183   1.137   2.760   0.886  0.0440  1.1514  0.9792
   62SOL     OW  184   2.009   1.834   2.547  0.1963  0.8952  0.2495
   62SOL    HW1  185   2.042   1.769   2.474 -0.1175  0.0236 -0.8687
   62SOL    HW2  186   2.080   1.908   2.552 -0.1176  2.0776  0.3803
   63SOL     OW  187   2.491   2.556   0.644 -0.2129 -0.3940 -0.1507
   63SOL    HW1  188   2.402   2.581   0.602 -0.8411  0.5910  0.0703
   63SOL    HW2  189   2.550   2.505   0.581  0.4647 -0.1432 -0.8140
   64SOL     OW  190   1.746   0.944   2.417  0.0338  0.3274 -0.5621
   64SOL    HW1  191   1.687   1.022   2.400  3.1947 -0.5792 -0.7373
   64SOL    HW2  192   1.693   0.855   2.398 -4.3797  1.4684 -0.5877
   65SOL     OW  193   1.671   1.538   2.633 -0.3016 -0.1287  0.0270
   65SOL    HW1  194   1.624   1.443   2.616  0.0020 -3.4407 -2.7320
   65SOL    HW2  195   1.657   1.596   2.551 -0.1051 -0.3851  1.9973
   66SOL     OW  196   0.402   0.748   1.727  0.7796 -0.9394  0.0050
   66SOL    HW1  197   0.335   0.735   1.658  0.5360 -0.0409  0.4997
   66SOL    HW2  198   0.479   0.683   1.719 -0.8168  0.3996 -1.9593
   67SOL     OW  199   2.320   2.713   2.849 -0.5371 -0.1255  0.4569
   67SOL    HW1  200   2.276   2.734   2.939 -0.4814 -2.0215  0.0656
   67SOL    HW2  201   2.372   2.797   2.818  1.9747  1.0694  0.3554
   68SOL     OW  202   1.186   2.678   1.271  0.3009  0.5235 -0.1498
   68SOL    HW1  203   1.082   2.681   1.259 -0.5872  1.5194  0.4318
   68SOL    HW2  204   1.241   2.704   1.186 -0.0639 -0.1392  0.6966
   69SOL     OW  205   0.532   2.612   0.158  0.3375 -0.5466 -0.8144
   69SOL    HW1  206   0.623   2.566   0.142  0.6283 -0.7003 -0.1650
   69SOL    HW2  207   0.466   2.556   0.220 -3.5154 -2.3674  1.4416
   70SOL     OW  208   2.377   0.065   2.579 -0.1018  0.2479 -0.3833
   70SOL    HW1  209   2.347   0.162   2.596 -0.7765  2.8950 -0.2272
   70SOL    HW2  210   2.332   0.023   2.497  1.0682 -0.4344  0.2865
   71SOL     OW  211   0.653   1.224   2.433 -0.1086 -0.0457 -0.0775
   71SOL    HW1  212   0.582   1.214   2.509 -0.7324 -1.5454  0.4144
   71SOL    HW2  213   0.650   1.320   2.396 -0.4185  0.9936 -0.4150
   72SOL     OW  214   3.018   1.981   0.026  0.1644  0.3698 -0.1326
   72SOL    HW1  215   3.062   1.910   0.084  0.8960 -0.4920 -0.5561
   72SOL    HW2  216   2.918   1.959   0.020  0.9381  2.2444  1.7070
   73SOL     OW  217   1.342   1.337   0.530  0.3819 -0.3633  0.3603
   73SOL    HW1  218   1.415   1.384   0.576 -1.8655 -0.5922  0.3427
   73SOL    HW2  219   1.352   1.371   0.435  1.5836  0.9456 -3.7597
   74SOL     OW  220   2.188   2.499   2.765  0.0271  0.0104 -0.0251
   74SOL    HW1  221   2.138   2.422   2.808 -2.6145 -0.5975 -0.5284
   74SOL    HW2  222   2.242   2.554   2.824  1.3387 -0.4933 -0.9298
   75SOL     OW  223   2.330   1.953   0.740  0.2135 -0.1638 -0.0022
   75SOL    HW1  224   2.364   2.039   0.777  0.1482 -2.3803 -0.4566
   75SOL    HW2  225   2.363   1.876   0.800  0.1720 -1.6828  1.2978
   76SOL     OW  226   1.887   2.400   1.512  0.5256 -0.3060  0.7281
   76SOL    HW1  227   1.907   2.427   1.415 -0.5004 -0.0588  1.2559
   76SOL    HW2  228   1.949   2.441   1.582  2.2691  0.8196  0.0155
   77SOL     OW  229   2.247   2.828   2.154 -0.3736  0.3222 -0.0263
   77SOL    HW1  230   2.151   2.802   2.132 -1.5729 -0.2515 -0.1518
   77SOL    HW2  231   2.296   2.843   2.068 -0.1302 -2.3708 -1.2495
   78SOL     OW  232   1.584   0.888   3.004  0.2485  0.5355  0.0892
   78SOL    HW1  233   1.506   0.827   2.974 -0.2864 -2.4527 -0.0032
   78SOL    HW2  234   1.668   0.846   2.975  0.7169 -0.5503  1.7598
   79SOL     OW  235   2.306   1.630   2.516 -0.2140  0.1747  0.3484
   79SOL    HW1  236   2.280   1.716   2.471  0.4295 -4.8985 -1.5004
   79SOL    HW2  237   2.338   1.637   2.617  0.5241 -0.9301 -0.3935
   80SOL     OW  238   1.717   1.522   1.509 -0.4279  0.1315 -0.3555
   80SOL    HW1  239   1.804   1.570   1.502 -0.1362  1.7667  0.9699
   80SOL    HW2  240   1.728   1.430   1.469 -1.8662  2.4456  2.5212
   81SOL     OW  241   1.457   0.587   1.307 -0.1425 -0.4808  0.5494
   81SOL    HW1  242   1.418   0.617   1.397  0.5251  1.7697 -0.5835
   81SOL    HW2  243   1.386   0.550   1.243 -0.5464 -0.2804 -2.7304
   82SOL     OW  244   1.580   2.323   1.799  0.1234 -0.0122  0.2460
   82SOL    HW1  245   1.674   2.304   1.835 -0.4955  0.1164  1.6664
   82SOL    HW2  246   1.520   2.367   1.868  1.2122 -3.7009 -2.1073
   83SOL     OW  247   0.236   0.231   0.581  0.1571 -1.0045 -0.0544
   83SOL    HW1  248   0.299   0.251   0.508 -1.8307 -1.1198  2.3609
   83SOL    HW2  249   0.140   0.213   0.546  0.3763 -0.7465 -0.3891
   84SOL     OW  250   0.703   1.049   0.181  0.1098 -0.3403 -0.0423
   84SOL    HW1  251   0.730   1.052   0.085  2.8884 -1.4219 -0.3643
   84SOL    HW2  252   0.632   0.975   0.202 -1.1449 -1.4220 -1.9780
   85SOL     OW  253   2.736   2.038   1.500  0.2017 -0.2128  0.2260
   85SOL    HW1  254   2.747   2.138   1.488  3.4130 -1.9466  0.3100
   85SOL    HW2  255   2.791   1.998   1.579 -1.4155  2.4134 -1.6538
   86SOL     OW  256   0.176   2.629   1.439 -0.3725  1.2415 -0.1100
   86SOL    HW1  257   0.126   2.557   1.487  0.2143  0.1970 -1.1776
   86SOL    HW2  258   0.133   2.718   1.447  0.1352 -1.4054  0.9406
   87SOL     OW  259   0.426   0.268   2.289 -0.3606  0.2870 -0.1482
   87SOL    HW1  260   0.525   0.255   2.304 -2.4287  0.2359 -3.8354
   87SOL    HW2  261   0.388   0.180   2.255 -0.0726 -0.9044 -0.8947
   88SOL     OW  262   0.420   2.145   1.110 -0.4786 -0.4038  0.1511
   88SOL    HW1  263   0.522   2.161   1.109 -1.1858 -2.1639  0.6587
   88SOL    HW2  264   0.365   2.230   1.115 -1.6546 -0.2921 -1.5940
   89SOL     OW  265   1.081   0.587   1.528 -0.0678 -0.4175  0.2790
   89SOL    HW1  266   1.180   0.599   1.549  0.3768 -0.7081 -1.7225
   89SOL    HW2  267   1.074   0.506   1.462  1.8642  0.0364  1.8784
   90SOL     OW  268   2.722   1.136   1.585 -0.0452  0.2190  0.2859
   90SOL    HW1  269   2.724   1.040   1.549  2.7754  1.0262  1.1376
   90SOL    HW2  270   2.681   1.144   1.672  0.8865 -0.9105 -4.3838
   91SOL     OW  271   1.422   0.887   1.220 -0.4667 -0.3304 -0.4061
   91SOL    HW1  272   1.361   0.822   1.174 -1.9393  0.8665  1.0912
   91SOL    HW2  273   1.472   0.934   1.142 -0.2797  0.5159 -0.1854
   92SOL     OW  274   2.416   1.097   0.929 -0.2819  0.1535 -0.0375
   92SOL    HW1  275   2.473   1.178   0.908 -2.5586  1.7293  1.0998
   92SOL    HW2  276   2.374   1.062   0.841 -2.4081  0.9442 -1.8633
   93SOL     OW  277   2.403   0.707   2.472 -0.2252 -0.0601  0.0197
   93SOL    HW1  278   2.464   0.690   2.388  0.9473 -0.7410 -3.4177
   93SOL    HW2  279   2.367   0.802   2.473 -0.3873  0.3157  1.1492
   94SOL     OW  280   2.368   1.893   2.436  0.5004 -0.1436 -0.4706
   94SOL    HW1  281   2.400   1.929   2.346 -0.0526 -1.1692  0.3691
   94SOL    HW2  282   2.304   1.958   2.479  0.3130 -2.0530 -1.2107
   95SOL     OW  283   2.124   0.602   0.968  0.0165  0.3811 -0.0923
   95SOL    HW1  284   2.108   0.517   1.026  0.3943 -1.0063 -0.2314
   95SOL    HW2  285   2.216   0.645   0.985  1.0549  0.9755 -0.2990
   96SOL     OW  286   2.510   2.831   2.018 -0.2239 -0.4282 -0.0956
   96SOL    HW1  287   2.445   2.766   1.979  2.5222  0.8679  0.5488
   96SOL    HW2  288   2.524   2.910   1.955 -2.5088 -0.1956 -1.5722
   97SOL     OW  289   2.538   0.857   1.216 -0.0953 -0.5831  0.0391
   97SOL    HW1  290   2.605   0.826   1.145 -1.2822 -3.0378  1.7689
   97SOL    HW2  291   2.499   0.788   1.279 -2.0897 -1.4641  2.4287
   98SOL     OW  292   1.459   2.137   1.615  0.0029  0.6400  0.1595
   98SOL    HW1  293   1.548   2.093   1.600  2.8422  0.1796  4.9725
   98SOL    HW2  294   1.477   2.220   1.669 -0.4739 -1.3484  2.0808
   99SOL     OW  295   2.468   2.159   1.718  0.1650 -0.1920  0.7443
   99SOL    HW1  296   2.547   2.101   1.742 -0.2482 -0.0796 -2.4827
   99SOL    HW2  297   2.449   2.166   1.622 -1.9371 -0.0552 -1.7881
  100SOL     OW  298   0.866   0.833   2.750 -0.4449  0.3553 -0.3808
  100SOL    HW1  299   0.824   0.869   2.668  0.9703 -1.3302  1.3492
  100SOL    HW2  300   0.959   0.876   2.756  3.0333  0.8762 -3.5533
  101SOL     OW  301   2.098   0.320   2.882  0.2690 -0.0180 -0.0126
  101SOL    HW1  302   1.994   0.307   2.871  0.8002 -1.5460 -0.5355
  101SOL    HW2  303   2.114   0.406   2.941 -1.0152  1.1944  1.4767
  102SOL     OW  304   0.502   0.375   1.588  0.9144 -0.1852  0.0621
  102SOL    HW1  305   0.555   0.461   1.614  4.1219 -0.4450 -0.6233
  102SOL    HW2  306   0.414   0.380   1.637 -0.6633  2.6823 -1.2157
  103SOL     OW  307   0.310   0.547   2.878 -0.7194  0.0153  0.4393
  103SOL    HW1  308   0.402   0.507   2.852  0.7588  1.2497 -0.0425
  103SOL    HW2  309   0.271   0.584   2.796  1.3488 -1.4619 -0.5166
  104SOL     OW  310   0.789   0.474   2.560 -0.2792 -0.1823  0.0801
  104SOL    HW1  311   0.876   0.515   2.532 -1.3631  2.0193 -1.1997
  104SOL    HW2  312   0.796   0.419   2.644  2.2642  0.3737  0.2635
  105SOL     OW  313   2.369   1.808   1.829  0.2576  1.1791  0.0746
  105SOL    HW1  314   2.303   1.874   1.868  0.0782  1.4458 -3.4765
  105SOL    HW2  315   2.466   1.843   1.834 -2.4390 -0.2982  2.0356
  106SOL     OW  316   1.848   0.604   0.361 -0.0419  0.4598  0.1726
  106SOL    HW1  317   1.839   0.539   0.439  0.0794 -1.6597  0.9008
  106SOL    HW2  318   1.947   0.607   0.326  0.6233 -0.7484 -0.3244
  107SOL     OW  319   2.966   1.892   0.904  0.1674 -0.4046  0.6534
  107SOL    HW1  320   3.027   1.969   0.926 -0.5510  0.3942  0.1729
  107SOL    HW2  321   3.025   1.817   0.871  2.9305 -1.0775  0.1072
  108SOL     OW  322   2.690   2.652   1.742  0.1751 -0.2446 -0.4329
  108SOL    HW1  323   2.722   2.657   1.838 -2.5032  3.2328 -3.5248
  108SOL    HW2  324   2.748   2.594   1.682 -0.6092 -0.0151  0.8516
  109SOL     OW  325   1.943   2.853   1.027  0.2913  0.2694 -0.3694
  109SOL    HW1  326   1.988   2.921   0.967 -0.9486  0.6864  0.2039
  109SOL    HW2  327   1.956   2.755   0.998  0.9022 -0.3761 -1.3524
  110SOL     OW  328   0.586   1.905   2.490  0.1840  0.3625 -0.5787
  110SOL    HW1  329   0.539   1.949   2.567 -1.5557 -0.7839 -2.5082
  110SOL    HW2  330   0.647   1.974   2.452 -2.2748 -0.1618 -1.4707
  111SOL     OW  331   1.503   2.394   2.130  0.3768 -0.4067 -0.0947
  111SOL    HW1  332   1.428   2.417   2.066 -0.0475  4.1352  2.0138
  111SOL    HW2  333   1.587   2.450   2.110  0.3343 -1.3714  0.5687
  112SOL     OW  334   2.055   2.015   3.045 -0.1431  0.2885 -0.4301
  112SOL    HW1  335   2.126   2.074   0.014  0.8829  0.5783  3.1252
  112SOL    HW2  336   1.995   2.078   2.993 -0.1554 -0.4458 -0.2756
  113SOL     OW  337   1.480   1.938   1.241  0.6155  0.1657  0.0313
  113SOL    HW1  338   1.414   1.860   1.253 -2.4244 -0.7569  0.2252
  113SOL    HW2  339   1.563   1.920   1.297 -0.4917  0.0723 -1.7276
  114SOL     OW  340   2.917   1.018   0.837  0.3277 -0.2718 -0.2691
  114SOL    HW1  341   2.908   1.052   0.739 -1.2133 -0.2734  0.0368
  114SOL    HW2  342   2.924   1.098   0.904 -0.6437 -1.8912 -0.3350
  115SOL     OW  343   0.842   0.793   0.362  0.6602 -0.4962  0.5267
  115SOL    HW1  344   0.875   0.874   0.411 -0.3608 -3.2777 -4.7767
  115SOL    HW2  345   0.747   0.814   0.326 -2.7336  0.7308 -1.3108
  116SOL     OW  346   2.678   1.420   2.539 -0.0101  0.0942 -0.1389
  116SOL    HW1  347   2.774   1.392   2.538 -0.6961 -1.9400  1.4871
  116SOL    HW2  348   2.653   1.460   2.447  0.2493 -0.5254 -0.8126
  117SOL     OW  349   0.061   3.000   0.796 -0.7579 -0.0858 -0.2874
  117SOL    HW1  350   0.150   2.966   0.762 -2.2522  0.1397  0.7196
  117SOL    HW2  351   3.057   2.948   0.763 -1.2779  1.1002 -0.1458
  118SOL     OW  352   1.007   1.812   2.581 -0.0775  0.1949  0.5362
  118SOL    HW1  353   1.074   1.876   2.626 -0.0381 -2.4448 -1.4500
  118SOL    HW2  354   0.952   1.778   2.657 -0.3339  1.4744  0.2100
  119SOL     OW  355   0.386   2.431   0.282 -0.3168  0.1639 -0.1635
  119SOL    HW1  356   0.424   2.359   0.219 -0.1546 -0.1922  0.7672
  119SOL    HW2  357   0.289   2.452   0.258  0.3363  0.9563  0.7790
  120SOL     OW  358   1.366   0.745   2.907  0.1490 -0.4213  0.3942
  120SOL    HW1  359   1.402   0.673   2.843 -3.3561  0.0785 -1.1381
  120SOL    HW2  360   1.271   0.768   2.875 -2.0515  1.2293  0.3757
  121SOL     OW  361   1.415   2.823   0.804 -0.6606 -0.5394 -0.0398
  121SOL    HW1  362   1.438   2.765   0.728 -0.8311  0.1877 -0.7748
  121SOL    HW2  363   1.504   2.865   0.845  2.7473  0.7858  0.3668
  122SOL     OW  364   2.311   2.501   1.510  0.0162  0.1364  0.3672
  122SOL    HW1  365   2.368   2.572   1.566  0.0200  0.6699 -0.3797
  122SOL    HW2  366   2.277   2.548   1.424 -0.1971  1.0185 -0.1136
  123SOL     OW  367   0.480   2.256   0.736 -0.5022 -0.6171  0.0083
  123SOL    HW1  368   0.459   2.307   0.822  1.6063 -3.2937  0.4968
  123SOL    HW2  369   0.438   2.307   0.653  0.5939 -0.7268 -1.7868
  124SOL     OW  370   2.538   0.588   0.097 -0.9747 -0.3931 -0.6835
  124SOL    HW1  371   2.503   0.494   0.076  0.7366 -0.8426 -1.4130
  124SOL    HW2  372   2.622   0.586   0.160  5.2971 -1.4879  1.9489
  125SOL     OW  373   0.509   1.184   0.338 -0.8454  0.6121  0.2041
  125SOL    HW1  374   0.509   1.129   0.422 -0.0073 -1.1334  0.3749
  125SOL    HW2  375   0.559   1.134   0.264 -2.2066  0.7818  0.5998
  126SOL     OW  376   0.269   1.643   0.989  0.2653  0.0946 -0.0097
  126SOL    HW1  377   0.356   1.595   0.968  1.2396  1.3298  0.6399
  126SOL    HW2  378   0.304   1.738   1.003 -0.6008  0.3025  1.6255
  127SOL     OW  379   0.945   1.964   2.354  0.0060 -0.4401  0.2697
  127SOL    HW1  380   1.035   1.954   2.307 -0.1648 -1.9815  1.0929
  127SOL    HW2  381   0.941   1.893   2.429 -2.4056  2.0839 -1.6646
  128SOL     OW  382   0.995   1.102   3.040  0.2498 -0.2031  0.1592
  128SOL    HW1  383   1.064   1.098   0.037 -1.3022 -1.3176  0.8481
  128SOL    HW2  384   0.930   1.179   3.042 -0.1778  1.2379  2.6228
  129SOL     OW  385   2.374   1.609   0.642 -0.2687 -0.2589 -0.8878
  129SOL    HW1  386   2.425   1.679   0.698  0.2931  1.9265  1.1823
  129SOL    HW2  387   2.292   1.572   0.694 -0.8578  1.0915 -3.3040
  130SOL     OW  388   2.500   1.524   1.272 -0.6881  0.1804  0.3639
  130SOL    HW1  389   2.577   1.587   1.257 -0.5803  0.3821 -3.1333
  130SOL    HW2  390   2.536   1.442   1.322 -0.3269  0.8947 -1.7514
  131SOL     OW  391   3.015   2.837   2.893  0.0063 -0.1273  0.2933
  131SOL    HW1  392   2.965   2.917   2.933  1.7478 -2.4909  0.9138
  131SOL    HW2  393   0.029   2.831   2.943  2.2043  0.0519 -0.1502
  132SOL     OW  394   0.479   1.524   0.669  0.4318 -0.3178 -0.0329
  132SOL    HW1  395   0.539   1.484   0.599 -0.4412  0.2009  3.7371
  132SOL    HW2  396   0.389   1.478   0.661  0.5648  1.5818  0.1636
  133SOL     OW  397   0.723   0.357   1.253 -0.3132  0.4507  0.2486
  133SOL    HW1  398   0.809   0.395   1.292  0.8073 -1.4002 -0.1673
  133SOL    HW2  399   0.688   0.281   1.311 -3.5556 -1.5900  0.1044
  134SOL     OW  400   0.147   1.816   2.760  0.4603 -0.1750 -0.0074
  134SOL    HW1  401   0.075   1.746   2.791 -2.3853  1.3105  0.3635
  134SOL    HW2  402   0.148   1.892   2.831  0.7982  3.2791  1.9429
  135SOL     OW  403   1.696   0.555   1.643 -0.2781  0.0835  0.5971
  135SOL    HW1  404   1.646   0.628   1.594  0.6703  1.0084 -0.8060
  135SOL    HW2  405   1.651   0.468   1.609 -1.0161 -0.5577 -0.8902
  136SOL     OW  406   0.075   1.444   0.221  0.3001  0.0847  0.1417
  136SOL    HW1  407   0.145   1.375   0.246  1.3871  2.3872 -1.9361
  136SOL    HW2  408   3.065   1.402   0.253  0.9008  0.6133 -1.5389
  137SOL     OW  409   0.031   1.220   1.012 -0.0168  0.3584 -0.0359
  137SOL    HW1  410   0.053   1.191   0.919 -0.7603  0.7779  1.1777
  137SOL    HW2  411   0.018   1.321   1.016 -0.1612  0.4248  0.4381
  138SOL     OW  412   1.938   0.806   0.934 -0.4968  0.1880  0.5252
  138SOL    HW1  413   1.992   0.721   0.954  1.8345 -0.4686  1.4990
  138SOL    HW2  414   1.914   0.861   1.016 -1.3909  1.7276 -2.1246
  139SOL     OW  415   1.617   2.542   0.422 -0.3927  0.3699 -0.0086
  139SOL    HW1  416   1.580   2.545   0.517 -0.5041  0.4689 -2.4230
  139SOL    HW2  417   1.697   2.477   0.428  0.0600  0.2128 -0.5340
  140SOL     OW  418   1.186   1.598   1.738  0.0523 -0.4822 -0.0809
  140SOL    HW1  419   1.217   1.672   1.807  0.7726 -0.3974  2.0785
  140SOL    HW2  420   1.167   1.509   1.786  0.6733 -2.4153  1.9292
  141SOL     OW  421   1.612   2.157   0.392  0.3929 -0.4573 -0.2173
  141SOL    HW1  422   1.641   2.071   0.346 -1.0278  1.8365  0.8197
  141SOL    HW2  423   1.526   2.137   0.449  0.5653 -1.9381  1.6902
  142SOL     OW  424   0.922   0.673   2.978  0.5212 -0.0286  0.3235
  142SOL    HW1  425   0.967   0.719   3.056 -0.4086 -1.3416 -0.3411
  142SOL    HW2  426   0.905   0.732   2.899  2.9141 -2.4376  1.0553
  143SOL     OW  427   0.392   1.983   2.937 -0.3816 -0.5894 -0.5908
  143SOL    HW1  428   0.292   2.008   2.929 -1.9578 -0.7149  0.2939
  143SOL    HW2  429   0.425   2.011   3.030  2.7585 -1.1629 -1.2091
  144SOL     OW  430   1.425   2.819   1.372  0.1339  0.2320  0.2911
  144SOL    HW1  431   1.336   2.785   1.337 -0.8896 -0.1227  1.4701
  144SOL    HW2  432   1.481   2.844   1.290 -2.5315 -1.0127 -0.4919
  145SOL     OW  433   1.988   1.060   2.910  0.0180 -0.2196 -0.5024
  145SOL    HW1  434   1.947   1.026   2.995 -0.6013  0.9706  2.3977
  145SOL    HW2  435   1.957   1.161   2.908 -2.4266  3.2068  1.7526
  146SOL     OW  436   0.100   2.658   0.962  0.3405 -0.4621  0.1907
  146SOL    HW1  437   0.045   2.730   1.014 -1.2668  3.4177  0.7246
  146SOL    HW2  438   0.080   2.657   0.858  1.4274 -1.3527 -2.3389
  147SOL     OW  439   2.194   3.026   1.904 -0.6237 -0.0378 -0.0311
  147SOL    HW1  440   2.158   0.030   1.952 -0.5647 -0.0342  1.2072
  147SOL    HW2  441   2.289   3.050   1.880 -4.7612  0.6807 -2.2088
  148SOL     OW  442   1.031   2.944   1.995 -0.0302 -0.0383 -0.2509
  148SOL    HW1  443   1.029   2.996   1.908  0.7578 -0.3416  0.4369
  148SOL    HW2  444   0.955   2.977   2.053  0.4215 -2.3907 -0.2782
  149SOL     OW  445   1.923   0.261   2.416  0.5315  0.1062  0.3567
  149SOL    HW1  446   1.858   0.324   2.368  2.2631  1.2452  0.9800
  149SOL    HW2  447   1.951   0.185   2.351  0.4775 -1.0991 -0.7451
  150SOL     OW  448   3.076   0.037   0.289 -0.1216 -0.0469  0.0571
  150SOL    HW1  449   0.049   0.104   0.229  0.2977 -0.6620 -3.3439
  150SOL    HW2  450   3.062   0.081   0.378  3.9374 -0.3440 -2.4521
  151SOL     OW  451   0.391   2.164   0.141 -0.9119  0.1163  0.1304
  151SOL    HW1  452   0.448   2.103   0.200 -1.1493 -0.6022 -0.8232
  151SOL    HW2  453   0.296   2.175   0.176  1.7279 -1.6977  1.7206
  152SOL     OW  454   2.972   0.426   0.648 -0.5062  0.0310  0.3394
  152SOL    HW1  455   2.961   0.399   0.743  1.4055 -0.7417 -3.0669
  152SOL    HW2  456   2.887   0.483   0.620  0.3973  2.9645  2.7488
  153SOL     OW  457   2.423   0.409   0.966 -0.1258 -0.0656  0.6565
  153SOL    HW1  458   2.417   0.439   0.870  0.8155 -0.7115  1.4073
  153SOL    HW2  459   2.523   0.381   0.985  0.7035 -2.2373  1.0657
  154SOL     OW  460   0.709   0.259   2.397 -0.0226 -0.1555 -0.4335
  154SOL    HW1  461   0.689   0.343   2.452  0.6774 -0.4423  0.8861
  154SOL    HW2  462   0.805   0.268   2.373 -1.7365  0.5190 -0.4310
  155SOL     OW  463   0.533   1.855   1.081  0.4665 -0.1405  0.2519
  155SOL    HW1  464   0.485   1.937   1.130 -0.7573  2.3797  1.6517
  155SOL    HW2  465   0.588   1.801   1.146  1.6726 -3.4276  0.6409
  156SOL     OW  466   2.449   2.016   0.085  0.5389  0.2024 -0.5160
  156SOL    HW1  467   2.380   2.074   0.042  1.0947 -3.4092 -0.9277
  156SOL    HW2  468   2.403   1.937   0.128  0.4463  1.9098 -2.3553
  157SOL     OW  469   0.961   0.562   0.455  0.3696  0.3454  0.5676
  157SOL    HW1  470   0.887   0.521   0.516  0.2387 -0.9579  1.9121
  157SOL    HW2  471   0.935   0.655   0.435  0.9862 -4.3902 -1.0565
  158SOL     OW  472   2.362   2.987   2.796  0.1345  0.1569  0.2056
  158SOL    HW1  473   2.381   3.041   2.715 -0.2015 -0.6206  0.1667
  158SOL    HW2  474   2.278   3.026   2.838  0.7526  0.0298  0.5775
  159SOL     OW  475   0.442   0.346   0.759 -0.2128  0.6278 -0.1646
  159SOL    HW1  476   0.357   0.314   0.713  1.5317 -0.4825 -3.9210
  159SOL    HW2  477   0.502   0.261   0.783  2.1952 -1.8852  0.9816
  160SOL     OW  478   1.281   1.550   2.476 -0.6795 -0.1415 -0.3365
  160SOL    HW1  479   1.182   1.530   2.466  0.0676 -2.6919  0.3550
  160SOL    HW2  480   1.310   1.518   2.569  1.4221 -3.0483  1.0115
  161SOL     OW  481   0.065   1.214   2.647 -0.1747  0.0493  0.0260
  161SOL    HW1  482   0.118   1.285   2.698 -2.8216 -2.8475 -2.1928
  161SOL    HW2  483   3.046   1.232   2.649  2.4425 -1.1514  0.8906
  162SOL     OW  484   0.645   2.282   1.388 -0.1495  0.0765  0.6452
  162SOL    HW1  485   0.680   2.247   1.475 -0.0983  1.1043 -1.6081
  162SOL    HW2  486   0.650   2.214   1.312 -0.2804  1.7205 -0.6412
  163SOL     OW  487   2.044   0.078   2.266 -0.1483  0.1788  0.7781
  163SOL    HW1  488   2.126   0.020   2.284  1.0571 -2.7053 -0.6996
  163SOL    HW2  489   2.058   0.126   2.172  0.9148  0.3632 -2.5074
  164SOL     OW  490   1.986   1.620   0.479  0.0930  0.2812 -0.5689
  164SOL    HW1  491   1.919   1.660   0.417 -1.6472 -0.1157 -2.1196
  164SOL    HW2  492   2.079   1.607   0.441 -0.0416 -0.0497 -0.5659
  165SOL     OW  493   2.811   0.215   1.670 -0.2105 -0.5620 -0.5329
  165SOL    HW1  494   2.861   0.213   1.758 -1.2274 -1.3969  1.0881
  165SOL    HW2  495   2.861   0.160   1.599  1.8226  0.3477  1.7324
  166SOL     OW  496   2.026   1.038   0.140  0.3308 -0.4171 -0.1812
  166SOL    HW1  497   2.121   1.064   0.145 -0.6878 -3.4679 -2.8600
  166SOL    HW2  498   1.973   1.102   0.198  2.1641  1.2270 -0.7157
  167SOL     OW  499   2.800   0.746   0.134 -0.2424  0.2526  0.2678
  167SOL    HW1  500   2.802   0.645   0.123  0.3367  1.7897  2.5950
  167SOL    HW2  501   2.885   0.787   0.092  1.0100  0.3215 -3.7690
  168SOL     OW  502   1.584   2.765   2.516  0.4187 -0.1376  0.2153
  168SOL    HW1  503   1.483   2.769   2.494 -0.6034 -1.6109  0.2807
  168SOL    HW2  504   1.595   2.710   2.602  1.4551 -0.2517 -1.0749
  169SOL     OW  505   0.718   1.674   0.400 -0.0098 -0.1051 -0.1288
  169SOL    HW1  506   0.754   1.685   0.307 -0.4844 -1.3742  1.5544
  169SOL    HW2  507   0.664   1.589   0.410 -0.7893 -0.4647  0.1034
  170SOL     OW  508   0.091   0.185   1.174 -0.2384  0.9283  1.0307
  170SOL    HW1  509   0.188   0.221   1.150  0.9387  1.2832 -0.6067
  170SOL    HW2  510   0.098   0.082   1.162 -0.5553 -0.8123 -0.1316
  171SOL     OW  511   1.458   2.227   2.840  0.2241  0.3542  0.0108
  171SOL    HW1  512   1.534   2.167   2.865 -2.8970 -0.2629  1.2014
  171SOL    HW2  513   1.450   2.242   2.738  1.8891  0.5800  0.3129
  172SOL     OW  514   2.693   2.934   1.230  0.1151  0.5364 -0.4393
  172SOL    HW1  515   2.643   2.898   1.310  1.2779 -0.5919 -0.8422
  172SOL    HW2  516   2.784   2.968   1.262  0.3168 -1.3938 -2.0371
  173SOL     OW  517   1.664   0.649   2.719 -0.3695 -0.2763  0.1369
  173SOL    HW1  518   1.717   0.697   2.793  3.9240 -0.0862  0.8539
  173SOL    HW2  519   1.729   0.599   2.651  2.1950  1.6763 -1.8516
  174SOL     OW  520   1.532   0.001   2.744 -0.4139  0.4227  0.0070
  174SOL    HW1  521   1.543   0.100   2.777 -1.3530 -0.4306  3.5545
  174SOL    HW2  522   1.587   3.062   2.657  0.9489  1.8743  2.1438
  175SOL     OW  523   2.137   2.270   0.700 -0.4655  0.5450 -0.2169
  175SOL    HW1  524   2.210   2.252   0.772  1.8972 -2.5824 -0.3554
  175SOL    HW2  525   2.045   2.306   0.735 -0.2782  0.3142  1.0239
  176SOL     OW  526   1.570   0.265   2.801 -0.4508 -0.4061  0.7468
  176SOL    HW1  527   1.495   0.298   2.858  0.1434 -1.6268 -0.1731
  176SOL    HW2  528   1.661   0.305   2.830  2.6497  0.0221  3.3817
  177SOL     OW  529   1.046   1.744   0.272 -0.3629  0.5176  0.2216
  177SOL    HW1  530   1.022   1.842   0.268 -1.9951 -1.3733 -1.5895
  177SOL    HW2  531   0.964   1.687   0.284  2.0054 -2.9975  3.2755
  178SOL     OW  532   2.580   2.293   0.042 -0.3458  0.7764 -0.1177
  178SOL    HW1  533   2.563   2.193   0.063 -1.1708  0.2141 -1.1095
  178SOL    HW2  534   2.507   2.341   0.088 -1.1772 -0.4677 -1.1096
  179SOL     OW  535   2.951   2.625   2.744 -0.2964 -0.0180  0.0586
  179SOL    HW1  536   2.982   2.704   2.805 -1.9751  2.0004  1.2109
  179SOL    HW2  537   2.911   2.654   2.654  1.4520  0.7757  0.8715
  180SOL     OW  538   1.776   1.424   0.929 -0.7364  0.6092 -0.3862
  180SOL    HW1  539   1.800   1.440   1.023 -2.4965 -1.3214 -1.4904
  180SOL    HW2  540   1.678   1.435   0.919  2.9155 -0.9153 -0.3007
  181SOL     OW  541   1.850   0.658   2.038 -0.1471  0.1347  0.1292
  181SOL    HW1  542   1.840   0.720   2.118  0.0406  3.0614  1.8953
  181SOL    HW2  543   1.781   0.686   1.966  0.9620 -4.0106  2.1239
  182SOL     OW  544   2.412   2.838   2.512 -0.5528  0.1476 -0.0408
  182SOL    HW1  545   2.476   2.824   2.588  1.3741  1.0992 -0.9862
  182SOL    HW2  546   2.444   2.783   2.433 -0.0127  3.3876 -1.7733
  183SOL     OW  547   1.536   0.588   2.084  0.4251  0.3452 -0.3160
  183SOL    HW1  548   1.545   0.678   2.041  2.6028  2.5335 -2.7468
  183SOL    HW2  549   1.573   0.513   2.024 -1.4666 -1.1980 -0.9056
  184SOL     OW  550   0.220   1.127   1.184  0.1074  0.4192  0.5899
  184SOL    HW1  551   0.137   1.158   1.127  1.7723  1.6486 -3.0535
  184SOL    HW2  552   0.194   1.083   1.274  2.2919  1.0706  4.8249
  185SOL     OW  553   1.837   0.522   0.662 -0.3589  0.1529 -0.1836
  185SOL    HW1  554   1.937   0.498   0.685  2.3663  0.3131  1.6103
  185SOL    HW2  555   1.759   0.463   0.694  1.2876  1.1918  0.1666
  186SOL     OW  556   0.497   2.768   2.984 -0.0678 -0.2645  0.0973
  186SOL    HW1  557   0.446   2.712   2.914  0.5219 -0.9085 -1.3943
  186SOL    HW2  558   0.493   2.730   0.003  0.9741  0.6366  2.3038
  187SOL     OW  559   2.565   0.931   2.916  0.3554 -0.4469  0.0574
  187SOL    HW1  560   2.543   0.927   2.816 -0.2014  0.8389 -0.6075
  187SOL    HW2  561   2.649   0.875   2.938 -1.2349 -3.2269  1.3935
  188SOL     OW  562   0.091   1.500   1.501 -0.0470 -0.2355 -0.3350
  188SOL    HW1  563   0.073   1.451   1.583  1.5008 -0.4805 -1.3763
  188SOL    HW2  564   0.175   1.463   1.456 -0.4480  0.3883  0.4147
  189SOL     OW  565   2.480   0.318   0.027 -0.5456 -0.0562  0.5910
  189SOL    HW1  566   2.562   0.271   0.059 -1.0599  0.7483 -1.0177
  189SOL    HW2  567   2.488   0.364   3.013 -1.5914  0.4459  2.7546
  190SOL     OW  568   1.315   1.130   2.040 -0.4870  0.2097  0.0091
  190SOL    HW1  569   1.319   1.178   2.128  2.3430 -0.6235 -2.9709
  190SOL    HW2  570   1.391   1.168   1.980 -2.2450  0.7225 -0.2529
  191SOL     OW  571   2.866   0.426   1.849 -0.0958 -0.1858  0.1858
  191SOL    HW1  572   2.769   0.416   1.878  0.9926 -1.0995  0.6323
  191SOL    HW2  573   2.900   0.524   1.864 -0.0309  0.6033  1.6633
  192SOL     OW  574   2.015   1.254   1.114 -0.5086 -0.2010  0.5104
  192SOL    HW1  575   2.030   1.231   1.016 -0.6400 -1.1759 -0.7188
  192SOL    HW2  576   1.981   1.349   1.128 -2.0951 -1.0327  1.6969
  193SOL     OW  577   1.249   0.754   1.082  0.1704 -0.1124  0.1296
  193SOL    HW1  578   1.228   0.782   0.985 -3.0030  1.8349 -1.2063
  193SOL    HW2  579   1.169   0.724   1.138  1.2100  1.3506 -2.1606
  194SOL     OW  580   1.068   2.537   1.786  0.3451 -0.5433 -0.0697
  194SOL    HW1  581   1.120   2.607   1.734  0.3536  0.4581  0.0064
  194SOL    HW2  582   1.049   2.574   1.881  1.3616 -0.3362 -0.2546
  195SOL     OW  583   1.823   0.289   2.883  0.2002 -0.0698  0.6971
  195SOL    HW1  584   1.842   0.222   2.807  3.4591 -1.5647 -2.8407
  195SOL    HW2  585   1.832   0.242   2.975 -0.3296  0.9934  2.0177
  196SOL     OW  586   1.034   2.280   1.817  0.6334 -0.0696 -0.7253
  196SOL    HW1  587   0.984   2.241   1.738  0.0529  0.3677  1.1691
  196SOL    HW2  588   1.038   2.385   1.811  0.4572  2.3990  0.6707
  197SOL     OW  589   0.909   2.817   1.072 -0.3272  0.5598 -0.1418
  197SOL    HW1  590   0.931   2.740   1.008 -1.5819  0.8977 -1.4523
  197SOL    HW2  591   0.981   2.892   1.069  2.3084  3.2267  1.8229
  198SOL     OW  592   0.922   0.913   0.840  0.5279  0.2647  0.2175
  198SOL    HW1  593   0.937   0.951   0.935  0.3716  2.7424 -0.4786
  198SOL    HW2  594   0.837   0.953   0.793 -0.0534  2.9777  0.8851
  199SOL     OW  595   0.020   2.532   1.852  0.4228 -0.2073  0.2686
  199SOL    HW1  596   0.044   2.626   1.826 -2.1081  0.8417  0.7654
  199SOL    HW2  597   3.062   2.535   1.950  0.4011 -0.0056 -1.1643
  200SOL     OW  598   2.039   2.196   2.081 -0.1411  0.2744 -0.2571
  200SOL    HW1  599   2.123   2.223   2.030  0.8166  2.7239  2.1949
  200SOL    HW2  600   2.035   2.241   2.172  0.0553 -4.4103 -0.4229
  201SOL     OW  601   0.337   1.650   1.928 -0.2039 -0.0289  0.1898
  201SOL    HW1  602   0.361   1.664   1.831 -0.8503  0.2585  0.8296
  201SOL    HW2  603   0.309   1.552   1.939  1.8124 -0.0092 -1.3540
  202SOL     OW  604   2.257   0.333   0.244 -0.3267 -0.2680 -0.0937
  202SOL    HW1  605   2.323   0.340   0.168 -1.2404 -0.9465 -0.1703
  202SOL    HW2  606   2.295   0.274   0.318 -1.0348  0.2446  0.8917
  203SOL     OW  607   1.093   2.240   2.086  0.7488  0.2406 -0.3046
  203SOL    HW1  608   1.062   2.337   2.105  4.0463  2.2835  0.3200
  203SOL    HW2  609   1.063   2.209   1.993  0.7642  3.4239 -1.0244
  204SOL     OW  610   1.264   2.136   1.820  0.6749  0.4358 -0.5974
  204SOL    HW1  611   1.337   2.142   1.749  0.5298  0.0792  2.4132
  204SOL    HW2  612   1.187   2.206   1.807 -3.1207 -0.3854 -0.0857
  205SOL     OW  613   1.503   1.761   2.071  0.8760 -0.0421 -0.0610
  205SOL    HW1  614   1.540   1.792   2.162  1.6899  4.3867  1.9631
  205SOL    HW2  615   1.509   1.835   2.000 -0.8965  1.2826 -2.5680
  206SOL     OW  616   0.399   0.829   2.397 -0.0718  0.3360 -0.1469
  206SOL    HW1  617   0.454   0.760   2.448 -0.4011 -2.0817  2.5952
  206SOL    HW2  618   0.455   0.902   2.356 -3.3073  0.3546  1.5894
  207SOL     OW  619   1.039   3.045   1.727  0.0881 -0.3139  0.3429
  207SOL    HW1  620   0.988   0.060   1.714 -2.5585  4.3308  0.2294
  207SOL    HW2  621   1.051   2.993   1.643  0.5570 -0.3540  0.4475
  208SOL     OW  622   0.463   2.865   1.953  0.0317  0.6633  0.2425
  208SOL    HW1  623   0.422   2.812   2.031  0.5734  1.4662 -1.3235
  208SOL    HW2  624   0.468   2.811   1.869 -2.3894  2.9141 -2.2571
  209SOL     OW  625   1.398   0.619   0.124  0.0752  0.2005 -0.4044
  209SOL    HW1  626   1.489   0.599   0.165  0.6477  1.1736 -0.2043
  209SOL    HW2  627   1.403   0.647   0.022  1.1554  0.5831 -3.4249
  210SOL     OW  628   2.717   0.492   0.546  0.0444 -0.1208 -0.3821
  210SOL    HW1  629   2.655   0.507   0.628 -0.7577 -0.5710 -1.2910
  210SOL    HW2  630   2.737   0.576   0.489 -0.3614 -0.9074 -3.3638
  211SOL     OW  631   0.536   0.481   1.102  0.1383  0.6118 -0.1966
  211SOL    HW1  632   0.539   0.575   1.146  0.3805 -0.9654  1.6889
  211SOL    HW2  633   0.608   0.430   1.151 -0.4792 -1.6180 -1.2386
  212SOL     OW  634   1.304   1.731   1.305  0.0573 -0.2593  0.2568
  212SOL    HW1  635   1.249   1.733   1.219 -0.1868 -1.3283  1.2824
  212SOL    HW2  636   1.249   1.690   1.378  0.4188 -0.3287  1.0586
  213SOL     OW  637   2.341   0.317   1.644  0.2313  0.1213  0.2342
  213SOL    HW1  638   2.404   0.262   1.588 -1.8026  1.6250  1.9883
  213SOL    HW2  639   2.385   0.364   1.717 -3.3860 -0.3542 -2.0779
  214SOL     OW  640   1.022   2.480   2.486  0.3140 -0.0499 -0.0667
  214SOL    HW1  641   1.058   2.421   2.407 -0.6515  1.8290 -3.3063
  214SOL    HW2  642   0.984   2.421   2.563  0.3771 -0.6530  0.6819
  215SOL     OW  643   2.813   1.671   1.622 -0.0172  0.0159  0.7735
  215SOL    HW1  644   2.815   1.647   1.723 -0.9012  0.9047  0.3843
  215SOL    HW2  645   2.742   1.618   1.571 -0.0655 -0.4038 -0.8282
  216SOL     OW  646   0.489   0.965   1.417 -0.2663 -0.5334  0.2465
  216SOL    HW1  647   0.439   1.023   1.485  1.9214 -0.8353  2.7501
  216SOL    HW2  648   0.427   0.915   1.350 -2.9260 -1.6026 -1.4332
  217SOL     OW  649   3.052   0.202   0.521  0.2656 -0.2180  0.3653
  217SOL    HW1  650   2.974   0.153   0.564 -1.2730 -0.6661 -1.5664
  217SOL    HW2  651   3.035   0.300   0.526  0.4410 -0.2405  0.1100
  218SOL     OW  652   1.642   1.718   0.897 -0.2329  0.4019 -0.7442
  218SOL    HW1  653   1.701   1.790   0.940 -0.0040  0.6257  2.1511
  218SOL    HW2  654   1.700   1.632   0.898  4.3953 -0.4811 -0.1745
  219SOL     OW  655   1.606   0.348   0.425 -0.0672 -0.5053 -0.1019
  219SOL    HW1  656   1.521   0.361   0.488 -0.6856 -2.1245  2.5553
  219SOL    HW2  657   1.603   0.422   0.351 -1.5139 -1.1501 -3.0596
  220SOL     OW  658   1.399   1.791   0.810 -0.5172  0.4923  1.1443
  220SOL    HW1  659   1.491   1.760   0.840 -0.8486  0.2428 -0.4432
  220SOL    HW2  660   1.323   1.742   0.863  1.7208 -0.8233  0.7497
  221SOL     OW  661   2.988   1.020   0.279 -0.7563  0.2295 -0.1025
  221SOL    HW1  662   2.916   1.069   0.230  0.3266 -0.6078 -0.7387
  221SOL    HW2  663   2.969   0.925   0.311  0.7472 -3.8370 -2.5377
  222SOL     OW  664   0.900   2.564   1.506 -0.2204 -0.5192  0.2793
  222SOL    HW1  665   0.825   2.546   1.439  0.8272 -1.1355  1.0847
  222SOL    HW2  666   0.967   2.490   1.500 -0.1766 -0.2874 -0.3116
  223SOL     OW  667   1.326   0.340   0.124 -0.1717 -0.2631  0.0537
  223SOL    HW1  668   1.361   0.354   0.028 -0.2076 -0.3411 -0.5869
  223SOL    HW2  669   1.321   0.434   0.174 -1.1803  0.6428  2.0921
  224SOL     OW  670   2.751   0.547   0.949  0.0608 -0.0389  0.6693
  224SOL    HW1  671   2.772   0.649   0.945 -1.6858  1.3603 -1.3436
  224SOL    HW2  672   2.704   0.514   1.035 -0.0719 -0.6285  1.1782
  225SOL     OW  673   0.717   1.533   1.406  0.4434  0.2306 -0.1897
  225SOL    HW1  674   0.821   1.525   1.409  1.4902  0.0047 -1.7475
  225SOL    HW2  675   0.690   1.467   1.331  1.5446  0.3739 -3.3698
  226SOL     OW  676   0.845   2.606   0.702  0.4698 -0.2488  0.3160
  226SOL    HW1  677   0.764   2.666   0.703  0.7696  0.7241  0.8339
  226SOL    HW2  678   0.919   2.646   0.646 -2.8758  1.8776  4.2310
  227SOL     OW  679   1.180   1.854   1.836  0.2777  0.2650  0.0324
  227SOL    HW1  680   1.079   1.852   1.812 -1.4046  0.9757 -0.4156
  227SOL    HW2  681   1.209   1.952   1.834 -2.0374 -0.3441  1.7482
  228SOL     OW  682   0.668   0.253   1.775 -0.8598 -0.2850  0.3416
  228SOL    HW1  683   0.600   0.276   1.707  1.9351 -0.4872  1.4268
  228SOL    HW2  684   0.673   0.151   1.795  1.4174  0.4544  1.5663
  229SOL     OW  685   2.852   0.554   2.901 -0.8017  0.7307 -0.2176
  229SOL    HW1  686   2.846   0.656   2.910 -0.8491  0.2667  1.3742
  229SOL    HW2  687   2.862   0.504   2.986 -0.5321  3.6946 -0.3473
  230SOL     OW  688   3.066   0.573   1.568  0.4316 -0.0009 -0.3723
  230SOL    HW1  689   0.025   0.476   1.555  1.0792 -0.8587 -0.5909
  230SOL    HW2  690   0.063   0.641   1.558 -1.3594  0.4554 -0.0922
  231SOL     OW  691   0.980   2.980   1.318 -0.2807 -0.2915 -0.4315
  231SOL    HW1  692   0.976   2.922   1.398 -2.3911 -2.0841 -1.7746
  231SOL    HW2  693   0.919   2.946   1.243  0.7137 -0.0824  2.4276
  232SOL     OW  694   2.951   2.540   0.357 -0.1303 -0.2686 -0.2328
  232SOL    HW1  695   2.953   2.462   0.285  1.3274 -0.9010  0.0476
  232SOL    HW2  696   2.863   2.593   0.355  1.3141 -0.1956 -1.9956
  233SOL     OW  697   1.345   2.463   2.930  0.0368  0.1821 -0.4671
  233SOL    HW1  698   1.383   2.380   2.874 -0.4662 -2.2527 -1.2606
  233SOL    HW2  699   1.253   2.491   2.896  2.7989 -3.3311 -0.6091
  234SOL     OW  700   0.838   1.295   1.765  0.4283 -0.3390  0.4574
  234SOL    HW1  701   0.818   1.391   1.799  2.6982  0.8236  0.1774
  234SOL    HW2  702   0.854   1.235   1.850 -0.2127 -0.2398 -1.0194
  235SOL     OW  703   0.032   2.250   2.804 -0.5520  0.1765  0.2016
  235SOL    HW1  704   0.084   2.282   2.723 -3.2255 -2.1508 -0.8572
  235SOL    HW2  705   3.074   2.329   2.860 -1.2176  0.5397  2.2285
  236SOL     OW  706   1.692   2.127   2.714 -0.1279  0.1676  0.4796
  236SOL    HW1  707   1.726   2.026   2.711  0.1159 -4.6094  0.1907
  236SOL    HW2  708   1.628   2.147   2.639 -1.1709  4.7989 -2.2038
  237SOL     OW  709   2.107   1.015   0.840 -0.8147 -0.2709 -0.3881
  237SOL    HW1  710   2.060   0.931   0.859  0.9795  2.8969 -2.0976
  237SOL    HW2  711   2.045   1.093   0.840  2.8470 -0.9566  2.4812
  238SOL     OW  712   1.254   2.852   2.068  0.6166  0.2337 -0.2158
  238SOL    HW1  713   1.227   2.783   2.138  2.0127  1.1473 -0.0555
  238SOL    HW2  714   1.167   2.882   2.021 -1.5281 -2.1300 -0.7291
  239SOL     OW  715   0.597   2.298   1.927 -0.1806  0.8684 -0.5625
  239SOL    HW1  716   0.552   2.225   1.870 -0.7819 -2.9501  0.6877
  239SOL    HW2  717   0.646   2.364   1.866  1.2710 -0.1295 -1.6931
  240SOL     OW  718   2.819   0.116   0.640 -0.4626  0.4766  0.1454
  240SOL    HW1  719   2.749   0.042   0.628  0.1629 -1.4465  0.4860
  240SOL    HW2  720   2.864   0.102   0.728  0.3051  1.4121 -0.8070
  241SOL     OW  721   1.182   1.875   2.788  0.2558 -0.8624 -0.2601
  241SOL    HW1  722   1.151   1.837   2.880 -1.5260 -0.5372  1.1094
  241SOL    HW2  723   1.222   1.969   2.798 -1.4720  1.4165  0.4159
  242SOL     OW  724   2.404   0.831   0.033 -0.0246  0.3062  0.3598
  242SOL    HW1  725   2.465   0.763   0.071 -0.6808  3.6363 -3.7022
  242SOL    HW2  726   2.446   0.900   3.056 -1.8380 -0.0971  3.0181
  243SOL     OW  727   0.741   0.441   1.965  0.4547 -0.2822  0.7667
  243SOL    HW1  728   0.841   0.436   1.966 -0.8908 -0.4054 -2.7978
  243SOL    HW2  729   0.701   0.362   1.917  2.3830  0.4379  0.9156
  244SOL     OW  730   1.639   2.492   3.042 -0.2301  0.1085 -0.1972
  244SOL    HW1  731   1.560   2.552   3.060  1.3315 -1.6680 -1.8881
  244SOL    HW2  732   1.634   2.412   0.030  1.0596  2.3366 -0.8814
  245SOL     OW  733   1.892   2.287   0.107 -0.2741  0.0490  0.3033
  245SOL    HW1  734   1.792   2.300   0.126 -2.7754  0.0386  0.9507
  245SOL    HW2  735   1.935   2.377   0.118 -1.5556 -4.3005 -1.0796
  246SOL     OW  736   1.143   0.992   2.409 -0.0508  0.4531 -0.1959
  246SOL    HW1  737   1.129   0.935   2.322  1.5284 -1.9410 -1.1788
  246SOL    HW2  738   1.063   1.055   2.416  1.6268  0.8428 -2.1603
  247SOL     OW  739   3.076   0.760   2.800 -0.4334 -0.6630 -0.7731
  247SOL    HW1  740   0.035   0.818   2.723 -0.5055  2.6432 -0.6043
  247SOL    HW2  741   3.038   0.675   2.763 -0.0892 -1.2711 -0.8987
  248SOL     OW  742   3.027   1.083   1.867  0.4169  0.0416  0.3966
  248SOL    HW1  743   2.945   1.087   1.921  4.6959 -0.0782  0.3164
  248SOL    HW2  744   0.016   1.044   1.931 -1.9882 -0.6747 -2.1927
  249SOL     OW  745   3.044   0.495   0.276  0.9423  0.2623  0.1254
  249SOL    HW1  746   0.022   0.519   0.190  2.1123 -2.3719 -0.1033
  249SOL    HW2  747   0.018   0.531   0.358  2.7477  0.9993  2.3913
  250SOL     OW  748   2.726   0.205   0.142  0.2429  0.0801 -0.7455
  250SOL    HW1  749   2.762   0.117   0.106  0.1087 -2.0352 -0.6498
  250SOL    HW2  750   2.718   0.204   0.241 -0.0079 -1.5747  1.1630
  251SOL     OW  751   1.009   1.545   2.025 -0.0306  0.0712  0.3023
  251SOL    HW1  752   1.091   1.613   2.025 -0.4348  4.7123 -0.1966
  251SOL    HW2  753   1.038   1.458   1.985  0.5650  3.4698  1.3275
  252SOL     OW  754   1.895   1.710   1.448  0.2089 -0.6706 -0.1947
  252SOL    HW1  755   1.923   1.756   1.538 -0.0669 -1.4545  0.6283
  252SOL    HW2  756   1.970   1.724   1.379  1.7680  0.5034 -2.1567
  253SOL     OW  757   1.822   2.257   1.948 -0.1300 -0.2539 -0.0996
  253SOL    HW1  758   1.906   2.219   1.996 -0.1080  0.1805 -0.0390
  253SOL    HW2  759   1.772   2.317   2.017 -0.2159 -0.8013  2.0175
  254SOL     OW  760   0.724   2.125   2.387  0.1215 -0.2421  0.1797
  254SOL    HW1  761   0.748   2.220   2.367  1.0126 -0.7040  0.6453
  254SOL    HW2  762   0.795   2.065   2.353  1.3476 -1.8641 -3.3133
  255SOL     OW  763   1.651   0.361   0.775 -0.2043  0.1823 -0.0659
  255SOL    HW1  764   1.711   0.327   0.844  0.7432  1.6646 -1.3271
  255SOL    HW2  765   1.560   0.395   0.809 -1.0696  0.4042 -0.4039
  256SOL     OW  766   1.890   2.137   1.398  0.0267  0.1771 -0.0118
  256SOL    HW1  767   1.918   2.198   1.472  1.3580 -1.7268 -0.7246
  256SOL    HW2  768   1.971   2.098   1.347  1.4627  0.9056  0.2148
  257SOL     OW  769   0.415   2.535   2.848 -0.5193  0.0863  0.5183
  257SOL    HW1  770   0.476   2.451   2.848  4.7021 -1.0267  1.4830
  257SOL    HW2  771   0.328   2.531   2.900  0.1792  1.5521 -2.0159
  258SOL     OW  772   0.536   0.977   1.807  0.0859 -0.6393 -0.4182
  258SOL    HW1  773   0.480   0.898   1.783  0.5254 -1.5977 -1.9014
  258SOL    HW2  774   0.597   0.960   1.887 -0.5544  1.3869  3.1496
  259SOL     OW  775   1.242   0.761   2.509 -0.4761  0.2118 -0.2107
  259SOL    HW1  776   1.324   0.733   2.460  0.2332  1.0654 -1.7156
  259SOL    HW2  777   1.233   0.863   2.498  1.4565 -0.2268  1.1627
  260SOL     OW  778   2.290   0.876   0.415  0.1446 -0.0818  0.1370
  260SOL    HW1  779   2.256   0.856   0.507  2.1640  3.3299 -1.6984
  260SOL    HW2  780   2.229   0.838   0.342 -0.4187 -1.7172 -1.1748
  261SOL     OW  781   1.165   0.219   0.720  0.9283 -0.1942  0.4496
  261SOL    HW1  782   1.153   0.281   0.639  2.3605  1.5998 -3.0208
  261SOL    HW2  783   1.114   0.247   0.802 -2.2713 -1.7728 -1.3230
  262SOL     OW  784   2.023   2.438   2.539  0.7713  0.0018 -0.0908
  262SOL    HW1  785   2.067   2.457   2.631  1.6309 -1.2745  0.6465
  262SOL    HW2  786   2.005   2.527   2.497  1.4232  0.1235 -1.3936
  263SOL     OW  787   0.389   1.713   2.939  0.5983  0.6763 -0.2285
  263SOL    HW1  788   0.320   1.683   2.867 -0.5185  0.2617  0.7332
  263SOL    HW2  789   0.381   1.812   2.955 -1.6585 -1.0048 -0.2022
  264SOL     OW  790   0.357   1.677   1.634 -0.1255 -0.5874 -0.0032
  264SOL    HW1  791   0.441   1.621   1.651  0.0590  4.3361  1.2465
  264SOL    HW2  792   0.332   1.681   1.537 -0.1438 -1.0915 -1.5520
  265SOL     OW  793   1.125   1.012   0.442  0.1106 -0.1044 -0.3513
  265SOL    HW1  794   1.033   1.047   0.423  0.3268 -0.6291  1.3505
  265SOL    HW2  795   1.166   0.965   0.363  0.4252 -2.0594  1.5089
  266SOL     OW  796   1.605   1.673   0.064  0.5858 -0.1879 -0.3536
  266SOL    HW1  797   1.613   1.726   3.056  1.0969  0.4344  0.3275
  266SOL    HW2  798   1.518   1.696   0.115  1.0543 -1.4702  1.4089
  267SOL     OW  799   0.162   0.280   2.927 -0.2996 -0.1714 -0.3010
  267SOL    HW1  800   0.082   0.319   2.876 -1.0566  0.0186 -2.4706
  267SOL    HW2  801   0.233   0.351   2.911  1.6042  0.3607  0.1894
  268SOL     OW  802   1.144   0.298   2.852 -0.6064 -0.2207  0.9260
  268SOL    HW1  803   1.069   0.343   2.899  2.3017 -0.2479 -0.5352
  268SOL    HW2  804   1.142   0.200   2.881  1.7240  1.2732  0.1866
  269SOL     OW  805   1.707   0.379   2.297 -0.2193  0.1999  0.3558
  269SOL    HW1  806   1.707   0.408   2.197  1.3864 -1.1496  0.1279
  269SOL    HW2  807   1.620   0.332   2.324  1.7271  0.5854  0.8456
  270SOL     OW  808   0.735   0.859   2.491  0.3481  0.2200 -0.0089
  270SOL    HW1  809   0.799   0.795   2.440 -1.4461  3.2827  0.7099
  270SOL    HW2  810   0.653   0.798   2.510 -2.2446 -2.2613  0.2801
  271SOL     OW  811   0.100   1.022   0.087  0.0121 -0.1912  0.9887
  271SOL    HW1  812   0.145   1.110   0.050 -1.0760  1.4471  1.6600
  271SOL    HW2  813   0.061   1.039   0.178 -0.1125 -1.4460 -0.0399
  272SOL     OW  814   2.270   1.073   2.919  0.4483  1.0130 -0.3925
  272SOL    HW1  815   2.309   1.001   2.858  1.6318 -0.8473  2.3237
  272SOL    HW2  816   2.169   1.059   2.931  2.8937  0.6838 -1.0874
  273SOL     OW  817   2.998   0.204   2.295  0.5110  0.7564 -0.0653
  273SOL    HW1  818   0.010   0.231   2.255 -2.0585 -1.8050 -2.0560
  273SOL    HW2  819   3.009   0.185   2.391  0.1830 -1.2813  1.3961
  274SOL     OW  820   2.537   0.111   1.617 -0.0589 -0.1350  0.0907
  274SOL    HW1  821   2.515   0.057   1.531 -0.4413  1.5909 -0.0834
  274SOL    HW2  822   2.633   0.139   1.622  0.1591  0.6068 -1.7909
  275SOL     OW  823   1.743   1.423   0.259  0.1049  0.8314 -0.2685
  275SOL    HW1  824   1.826   1.439   0.205  2.0475 -2.0341 -0.1591
  275SOL    HW2  825   1.705   1.514   0.288  1.0217 -1.4575  0.1546
  276SOL     OW  826   0.256   1.015   2.683 -0.3965  0.0947  0.4524
  276SOL    HW1  827   0.186   1.089   2.687 -1.8255  1.1376  0.3347
  276SOL    HW2  828   0.229   0.941   2.619  3.9701  0.6478 -0.2836
  277SOL     OW  829   1.734   2.494   2.073  0.4163 -0.2749  0.1819
  277SOL    HW1  830   1.730   2.523   2.170 -2.9992  1.9808  0.1529
  277SOL    HW2  831   1.706   2.575   2.020 -1.6059  0.5750 -0.1257
  278SOL     OW  832   2.001   0.084   1.298  0.5066 -0.1921  0.1235
  278SOL    HW1  833   1.909   0.053   1.280  1.4192  0.0864 -1.8622
  278SOL    HW2  834   2.043   0.111   1.210  0.5248 -0.9881 -0.2869
  279SOL     OW  835   0.864   1.408   2.687  0.2587 -0.2544  0.1523
  279SOL    HW1  836   0.929   1.470   2.732  1.7587 -2.8476 -1.1671
  279SOL    HW2  837   0.856   1.412   2.583 -1.1726 -1.0426  0.8107
  280SOL     OW  838   0.672   1.948   0.456 -0.0993 -0.3704 -0.5853
  280SOL    HW1  839   0.664   1.847   0.478  0.4608  0.7442  1.5038
  280SOL    HW2  840   0.750   1.974   0.400 -2.6590 -1.0683  1.9407
  281SOL     OW  841   0.034   2.980   2.207  0.5638 -0.1601  0.1044
  281SOL    HW1  842   3.013   2.988   2.221  0.5244  0.0805 -3.6094
  281SOL    HW2  843   0.054   2.882   2.196 -0.7460 -2.1171  1.8752
  282SOL     OW  844   0.169   1.926   1.050 -0.3393  0.1266 -0.2012
  282SOL    HW1  845   0.225   2.011   1.046  1.8037 -1.5013  3.1523
  282SOL    HW2  846   0.123   1.914   1.137  0.6699  0.1364 -2.2369
  283SOL     OW  847   1.482   2.223   2.557 -0.4729 -0.1538  0.2662
  283SOL    HW1  848   1.420   2.161   2.507  0.9684 -2.1060  1.5517
  283SOL    HW2  849   1.549   2.269   2.495  0.4145 -0.1087  0.4852
  284SOL     OW  850   2.183   0.819   0.171  0.1358 -0.3045 -0.3869
  284SOL    HW1  851   2.111   0.882   0.141  1.2367 -2.5140  2.6788
  284SOL    HW2  852   2.270   0.835   0.121 -1.0660  1.8579 -0.7744
  285SOL     OW  853   2.653   2.772   2.662  0.6211 -0.0284 -0.1211
  285SOL    HW1  854   2.658   2.836   2.738  0.6944  0.5435 -1.9696
  285SOL    HW2  855   2.643   2.674   2.692 -1.5774  1.4419 -1.4079
  286SOL     OW  856   1.933   2.472   1.254 -0.1258 -0.1915  0.3052
  286SOL    HW1  857   1.920   2.572   1.250 -2.9001  1.1997 -0.3793
  286SOL    HW2  858   1.898   2.417   1.175 -2.3096 -0.9729  1.2451
  287SOL     OW  859   0.703   1.115   0.997  0.5744 -0.1469  0.0383
  287SOL    HW1  860   0.750   1.203   0.987  0.7169 -0.7544 -0.7561
  287SOL    HW2  861   0.753   1.058   1.066  1.9010  1.7468  0.8395
  288SOL     OW  862   1.373   2.400   0.114 -0.0325 -0.1690  0.2595
  288SOL    HW1  863   1.365   2.488   0.168 -0.2689 -0.9970 -0.7483
  288SOL    HW2  864   1.384   2.421   0.012 -0.6891 -3.4681  1.0532
  289SOL     OW  865   3.072   1.944   2.475  0.0511 -0.1018 -0.1036
  289SOL    HW1  866   3.057   1.845   2.484 -0.7412  1.0163 -2.4892
  289SOL    HW2  867   0.092   1.966   2.508  1.4435 -1.3240  0.1125
  290SOL     OW  868   1.177   2.142   0.893 -0.2872 -0.5661 -0.0141
  290SOL    HW1  869   1.119   2.155   0.814  0.5391 -1.9849  2.3317
  290SOL    HW2  870   1.118   2.104   0.968 -0.8516 -1.4936  1.4464
  291SOL     OW  871   1.962   1.465   0.085  0.1064 -0.0051 -0.5405
  291SOL    HW1  872   2.043   1.409   0.057  3.3176 -1.3255  1.0374
  291SOL    HW2  873   1.972   1.567   0.093 -3.3973 -0.3644 -2.2055
  292SOL     OW  874   1.142   1.367   1.879 -0.6187 -0.5837 -0.0499
  292SOL    HW1  875   1.078   1.291   1.897  2.0464  0.8694 -1.8076
  292SOL    HW2  876   1.240   1.348   1.898 -1.2525  2.6904 -1.0988
  293SOL     OW  877   1.972   2.633   0.887 -0.2457 -0.3463 -0.6769
  293SOL    HW1  878   2.036   2.569   0.932  1.1476  2.6639 -1.8981
  293SOL    HW2  879   1.985   2.635   0.787 -1.8484 -2.0722 -0.0284
  294SOL     OW  880   0.158   1.288   2.391  0.6310  0.2691  0.5768
  294SOL    HW1  881   0.138   1.255   2.483  2.7699  0.5480  0.2008
  294SOL    HW2  882   0.093   1.253   2.320  1.2865  0.5680  0.5164
  295SOL     OW  883   0.884   2.014   0.003 -0.0116  0.1130  0.4040
  295SOL    HW1  884   0.926   2.102   3.051 -2.9996 -0.3104  0.4056
  295SOL    HW2  885   0.954   1.944   0.011  0.5832  0.1083  2.3499
  296SOL     OW  886   2.036   1.649   2.344 -0.2679 -0.1254 -0.3821
  296SOL    HW1  887   2.119   1.591   2.318  2.0780  0.8654  0.1430
  296SOL    HW2  888   1.964   1.641   2.273  1.4080 -0.8960  0.0359
  297SOL     OW  889   2.685   0.778   2.581 -0.1832  0.2837 -0.3683
  297SOL    HW1  890   2.735   0.714   2.521 -2.8138 -0.8032 -1.6543
  297SOL    HW2  891   2.588   0.751   2.575  1.3649  0.3303  2.8004
  298SOL     OW  892   0.833   2.108   2.651 -0.4939  0.1472 -0.4289
  298SOL    HW1  893   0.790   2.046   2.719  1.0661  0.9394 -0.4644
  298SOL    HW2  894   0.806   2.102   2.550  0.4902 -0.8057 -3.2605
  299SOL     OW  895   1.001   2.739   2.468  0.8155  0.7868  0.0520
  299SOL    HW1  896   0.904   2.766   2.430  0.0072  0.1222 -1.6082
  299SOL    HW2  897   0.995   2.636   2.492 -0.9651 -2.6106 -1.5259
  300SOL     OW  898   2.823   0.471   0.108 -0.0382 -0.6356  0.3130
  300SOL    HW1  899   2.760   0.392   0.113 -0.1067  1.7759 -1.8907
  300SOL    HW2  900   2.903   0.464   0.171 -0.3107  2.5711 -1.3644
  301SOL     OW  901   1.025   0.675   1.214  0.1591  0.4298 -0.0816
  301SOL    HW1  902   1.000   0.581   1.249  1.1872 -2.0543 -0.9327
  301SOL    HW2  903   1.022   0.750   1.286  1.7383 -1.6935 -1.3134
  302SOL     OW  904   2.942   2.073   2.676  0.0625  0.2648  0.1108
  302SOL    HW1  905   2.980   2.021   2.598 -2.3396 -0.6167  0.4145
  302SOL    HW2  906   3.005   2.148   2.713 -4.6079 -0.5415 -2.2544
  303SOL     OW  907   2.898   2.930   2.551 -0.4937  0.2464  0.0651
  303SOL    HW1  908   2.826   2.981   2.497 -1.7749  1.3332  1.4659
  303SOL    HW2  909   2.901   2.974   2.645 -0.0818  0.9880 -0.4717
  304SOL     OW  910   2.591   0.418   1.844 -0.1679  0.0471 -0.3335
  304SOL    HW1  911   2.609   0.429   1.747 -4.6550 -2.5131  1.4766
  304SOL    HW2  912   2.589   0.316   1.861  1.2365 -3.1437  0.0978
  305SOL     OW  913   0.175   0.023   2.424 -0.3707  0.4981 -0.2238
  305SOL    HW1  914   0.263   3.061   2.454 -1.8990  2.8153 -0.5271
  305SOL    HW2  915   0.135   3.052   2.346  1.0157 -0.4344  3.6954
  306SOL     OW  916   2.450   1.111   1.195 -0.4162 -0.2037 -0.0897
  306SOL    HW1  917   2.466   1.022   1.246 -2.3230 -1.9502 -0.4432
  306SOL    HW2  918   2.463   1.097   1.092  1.2379  1.4155 -3.8726
  307SOL     OW  919   1.858   0.515   1.247  0.1448 -0.4291  0.3343
  307SOL    HW1  920   1.806   0.451   1.308  1.2984  1.1925 -1.3383
  307SOL    HW2  921   1.793   0.584   1.203 -4.1108  1.0055  0.3462
  308SOL     OW  922   0.047   2.215   1.288  0.0612 -0.2194  0.3459
  308SOL    HW1  923   0.035   2.186   1.384  0.1906  0.0286  1.9143
  308SOL    HW2  924   3.061   2.161   1.227  0.2523 -2.0951 -1.0545
  309SOL     OW  925   2.308   1.699   1.373  0.2265  0.2967  0.3924
  309SOL    HW1  926   2.375   1.627   1.343  1.1255  3.1553 -0.9439
  309SOL    HW2  927   2.298   1.704   1.473 -1.7806  0.0919 -4.2651
  310SOL     OW  928   2.773   1.694   0.043 -0.4701 -0.7065 -0.2497
  310SOL    HW1  929   2.746   1.789   0.050  0.3500 -1.3473 -0.7830
  310SOL    HW2  930   2.762   1.654   0.138 -0.2758  0.9141  2.0059
  311SOL     OW  931   2.127   1.414   2.761 -0.5918  0.4221  0.6381
  311SOL    HW1  932   2.200   1.486   2.772  0.3376 -2.4055  2.0472
  311SOL    HW2  933   2.054   1.452   2.703  1.1847 -1.1684 -1.4596
  312SOL     OW  934   2.619   2.240   0.975  0.1271 -0.2128  1.0405
  312SOL    HW1  935   2.646   2.145   1.001  0.2081 -0.8792 -1.4818
  312SOL    HW2  936   2.678   2.277   0.900 -0.2361 -0.0553 -1.6920
  313SOL     OW  937   2.865   2.682   1.329  0.2486 -0.5577  0.0393
  313SOL    HW1  938   2.771   2.713   1.352  0.5402  0.2773 -0.1559
  313SOL    HW2  939   2.868   2.592   1.286 -0.1274  0.5965  2.0876
  314SOL     OW  940   0.858   1.943   1.374 -0.0753 -0.2967  0.5940
  314SOL    HW1  941   0.904   2.009   1.438  2.9525 -1.1332 -1.3307
  314SOL    HW2  942   0.925   1.901   1.307  0.5566 -2.1545 -0.6533
  315SOL     OW  943   0.392   2.718   2.376 -0.2096 -0.0225  0.3976
  315SOL    HW1  944   0.334   2.671   2.448 -0.7990 -0.4806 -0.2808
  315SOL    HW2  945   0.395   2.818   2.395  1.9322 -0.9229  0.7961
  316SOL     OW  946   0.058   1.697   0.811 -0.0239  0.0465 -0.2300
  316SOL    HW1  947   0.100   1.676   0.901 -1.5600 -0.9592 -0.4707
  316SOL    HW2  948   0.127   1.717   0.738 -1.3225 -1.1267  0.8760
  317SOL     OW  949   1.853   0.190   0.501  0.4600 -0.1251  0.8676
  317SOL    HW1  950   1.769   0.245   0.490  2.7505 -3.2515 -0.0085
  317SOL    HW2  951   1.897   0.205   0.595 -0.0461 -0.7301 -1.7232
  318SOL     OW  952   2.939   2.895   0.385 -0.5195 -0.1824  0.3509
  318SOL    HW1  953   3.025   2.835   0.387  0.9351 -0.6235  0.8750
  318SOL    HW2  954   2.954   2.964   0.309  0.2630  0.2748 -0.4552
  319SOL     OW  955   0.962   1.582   3.012 -0.4820  0.1862 -0.2826
  319SOL    HW1  956   0.993   1.578   2.913  0.7925 -1.5132 -0.5929
  319SOL    HW2  957   0.920   1.491   3.039 -0.2245 -2.2346 -0.0123
  320SOL     OW  958   0.670   2.762   2.641 -0.2284  0.2404  0.3427
  320SOL    HW1  959   0.719   2.798   2.561 -0.2150  0.5665  0.4367
  320SOL    HW2  960   0.601   2.831   2.675  2.7060  0.8714  0.0108
  321SOL     OW  961   1.120   0.033   2.931 -0.0814 -0.1724  0.4434
  321SOL    HW1  962   1.195   3.073   2.987 -0.4290  0.3034  0.2008
  321SOL    HW2  963   1.034   0.018   2.977 -0.1649  0.0148  2.6212
  322SOL     OW  964   2.199   1.100   1.947  0.6315  0.3746  0.0850
  322SOL    HW1  965   2.174   1.069   2.037 -2.9189  1.2439  3.1846
  322SOL    HW2  966   2.278   1.161   1.958 -1.6212 -2.4837 -1.0172
  323SOL     OW  967   2.560   0.901   0.332 -0.1693 -0.0573  0.2226
  323SOL    HW1  968   2.462   0.873   0.343 -1.1629  2.9809 -0.2716
  323SOL    HW2  969   2.590   0.865   0.238  0.1649 -1.9202 -2.4843
  324SOL     OW  970   0.089   0.598   2.587 -0.6723  0.2836 -0.0653
  324SOL    HW1  971   0.041   0.529   2.640 -0.7140  2.2785  1.1277
  324SOL    HW2  972   0.172   0.556   2.537  1.9794 -3.3018 -5.2511
  325SOL     OW  973   1.434   3.028   1.961 -0.3324  0.3246  0.2069
  325SOL    HW1  974   1.440   3.020   1.858  1.3460 -0.1667  0.7065
  325SOL    HW2  975   1.346   2.979   1.988 -0.0207  1.3694  0.2099
  326SOL     OW  976   2.423   3.067   1.385  0.1707 -0.0917  0.2515
  326SOL    HW1  977   2.408   2.972   1.353  0.6428 -2.7460  0.3076
  326SOL    HW2  978   2.438   0.057   1.310  1.0475  1.7207 -0.4524
  327SOL     OW  979   1.810   0.741   2.937 -0.2809 -0.5142  0.1321
  327SOL    HW1  980   1.812   0.654   2.985  1.0481  0.3630 -1.1779
  327SOL    HW2  981   1.905   0.762   2.899 -0.7929 -0.1494 -1.1094
  328SOL     OW  982   2.995   1.415   2.064  0.0349  0.7353 -0.0135
  328SOL    HW1  983   3.032   1.327   2.102 -3.6827 -1.0963  0.4390
  328SOL    HW2  984   2.936   1.457   2.132  3.1597  0.6224 -1.2474
  329SOL     OW  985   1.642   2.722   1.965 -0.0780 -0.1061 -0.4223
  329SOL    HW1  986   1.554   2.717   1.915  0.8878 -1.1234  2.2304
  329SOL    HW2  987   1.663   2.820   1.995 -0.8672 -1.6127 -0.5715
  330SOL     OW  988   2.408   1.557   1.914 -0.5580 -0.2555 -0.1432
  330SOL    HW1  989   2.381   1.650   1.875  0.1599 -0.8200  0.4728
  330SOL    HW2  990   2.510   1.551   1.929  0.9594  2.4505  0.8453
  331SOL     OW  991   0.117   2.022   0.728  0.2637  0.1914 -0.0859
  331SOL    HW1  992   0.096   1.924   0.727 -2.4663 -1.0423 -1.4523
  331SOL    HW2  993   0.221   2.036   0.715  2.5633  0.7780  0.6714
  332SOL     OW  994   0.603   0.753   0.907  0.0797  0.3319 -0.0805
  332SOL    HW1  995   0.559   0.775   0.995 -1.5652 -0.5767 -3.4735
  332SOL    HW2  996   0.694   0.700   0.918  3.2210  0.8495 -1.5176
  333SOL     OW  997   1.970   2.715   2.410  0.3319 -0.4275 -0.1504
  333SOL    HW1  998   1.972   2.766   2.321 -0.7867 -2.2241 -3.1822
  333SOL    HW2  999   2.049   2.743   2.468  0.6150 -1.6863 -1.6143
  334SOL     OW 1000   1.189   1.154   1.203  0.4522 -0.0483  0.1813
  334SOL    HW1 1001   1.270   1.094   1.196 -0.9050 -0.9758 -0.8697
  334SOL    HW2 1002   1.199   1.215   1.287 -1.5955  0.7256 -1.9178
  335SOL     OW 1003   0.238   2.631   2.611  0.1145 -0.5203  0.0579
  335SOL    HW1 1004   0.202   2.725   2.618  2.0180 -0.6603  1.4430
  335SOL    HW2 1005   0.309   2.611   2.679  0.0986 -0.0156  0.6016
  336SOL     OW 1006   2.612   2.299   1.939 -0.3859 -0.0090  0.0088
  336SOL    HW1 1007   2.711   2.300   1.926 -2.9497  0.3122  0.9142
  336SOL    HW2 1008   2.567   2.246   1.867 -2.2838  1.7022  1.5332
  337SOL     OW 1009   2.237   1.568   0.408 -0.0614 -0.4808  0.5728
  337SOL    HW1 1010   2.290   1.590   0.496  1.9263  2.9303  4.2170
  337SOL    HW2 1011   2.303   1.563   0.329 -1.2319  0.8345  0.4770
  338SOL     OW 1012   1.094   1.710   1.506 -0.2602 -0.0543 -0.3090
  338SOL    HW1 1013   1.129   1.664   1.595  0.1168  0.1173  0.7538
  338SOL    HW2 1014   1.084   1.815   1.515  0.1630  0.6277 -0.3538
  339SOL     OW 1015   2.986   0.623   1.222 -0.3864  0.3055 -0.9480
  339SOL    HW1 1016   2.963   0.633   1.324 -1.4373 -1.0865  2.1722
  339SOL    HW2 1017   0.012   0.616   1.213 -0.8688 -0.1614  0.5624
  340SOL     OW 1018   1.567   2.763   1.608  0.0696  0.5372  0.7238
  340SOL    HW1 1019   1.510   2.788   1.526  0.8821  1.5756  2.3155
  340SOL    HW2 1020   1.592   2.662   1.598 -1.7108  2.1813 -1.2344
  341SOL     OW 1021   2.202   1.409   0.846  0.6020 -0.3555  0.3976
  341SOL    HW1 1022   2.258   1.414   0.932  0.5150 -0.5635 -3.7684
  341SOL    HW2 1023   2.105   1.440   0.855  0.6318  0.3268  1.9981
  342SOL     OW 1024   0.550   1.787   0.755 -0.0187 -0.5247 -0.1462
  342SOL    HW1 1025   0.566   1.790   0.856  0.1979  2.4333  2.4485
  342SOL    HW2 1026   0.520   1.696   0.716  2.6862 -2.5093  2.5117
  343SOL     OW 1027   2.366   0.710   1.380 -0.2361  0.0621 -0.6896
  343SOL    HW1 1028   2.324   0.625   1.422 -4.6999 -0.4256  0.0481
  343SOL    HW2 1029   2.324   0.793   1.414  0.8531 -0.9410  0.5922
  344SOL     OW 1030   2.247   0.151   0.783 -0.0583 -0.3770 -0.5480
  344SOL    HW1 1031   2.280   0.236   0.738 -0.7696 -1.8732 -0.1993
  344SOL    HW2 1032   2.326   0.081   0.785  0.9923 -1.1563  1.7188
  345SOL     OW 1033   2.864   2.678   2.452 -0.6120 -0.2217  0.3415
  345SOL    HW1 1034   2.855   2.771   2.490  2.4316 -0.3034  0.3141
  345SOL    HW2 1035   2.786   2.669   2.390  0.2720 -0.8358  2.0140
  346SOL     OW 1036   2.950   1.112   0.589  0.0550  0.2181 -0.0775
  346SOL    HW1 1037   2.870   1.165   0.546  0.1090  0.9119  1.0524
  346SOL    HW2 1038   2.988   1.062   0.512 -0.0675  0.8710  0.1827
  347SOL     OW 1039   1.563   2.550   1.309 -0.3157 -0.6727  0.3677
  347SOL    HW1 1040   1.529   2.648   1.312 -0.8184  1.3644 -3.6577
  347SOL    HW2 1041   1.608   2.530   1.399  0.7298  1.2876  1.5444
  348SOL     OW 1042   1.258   0.940   1.775  0.2879  0.1488 -0.7330
  348SOL    HW1 1043   1.314   1.008   1.827  2.0206  0.7610  2.6285
  348SOL    HW2 1044   1.171   0.911   1.829 -2.4829 -0.1704  4.1856
  349SOL     OW 1045   2.367   1.443   2.329  0.4018 -0.4106  0.6625
  349SOL    HW1 1046   2.355   1.345   2.351  0.1226  0.1291  0.3070
  349SOL    HW2 1047   2.360   1.509   2.405 -0.0824 -1.6450  0.2291
  350SOL     OW 1048   2.994   2.191   0.839  0.3914 -0.4910 -0.6562
  350SOL    HW1 1049   3.072   2.155   0.785 -3.7089 -3.7708 -0.3319
  350SOL    HW2 1050   2.911   2.184   0.777 -4.2995  0.0226 -1.4503
  351SOL     OW 1051   0.293   0.372   1.760  0.3046 -0.4850  0.5617
  351SOL    HW1 1052   0.196   0.338   1.774 -1.0571  0.7059 -0.9331
  351SOL    HW2 1053   0.337   0.407   1.841  0.3733 -0.2870  0.9623
  352SOL     OW 1054   0.967   2.815   1.543 -0.3072 -0.1994 -0.3120
  352SOL    HW1 1055   0.905   2.877   1.592  0.0036  3.1876 -2.5260
  352SOL    HW2 1056   0.938   2.719   1.543  1.1881  0.7264  0.5631
  353SOL     OW 1057   0.663   1.482   2.336 -0.1530  0.5728  0.1258
  353SOL    HW1 1058   0.749   1.521   2.299  0.2554 -0.9253 -1.5902
  353SOL    HW2 1059   0.619   1.534   2.409 -0.4058 -1.3057  0.0727
  354SOL     OW 1060   1.407   1.690   0.279  0.6620 -0.1617  0.0792
  354SOL    HW1 1061   1.346   1.623   0.230 -0.7172 -0.0049 -1.4869
  354SOL    HW2 1062   1.363   1.740   0.358 -0.1382 -2.2965  2.2367
  355SOL     OW 1063   1.979   0.202   0.732 -0.2138  0.4629 -0.4921
  355SOL    HW1 1064   1.927   0.217   0.820 -0.1827  1.8949  0.8752
  355SOL    HW2 1065   2.080   0.189   0.746  1.8981 -0.0615  4.3217
  356SOL     OW 1066   0.193   1.287   0.018 -0.4232  0.2773  0.2665
  356SOL    HW1 1067   0.287   1.268   3.054  2.2294  0.9062  0.4920
  356SOL    HW2 1068   0.191   1.376   0.072 -1.2550  1.0368 -0.5893
  357SOL     OW 1069   2.846   3.042   2.080 -0.0682 -0.9479  0.9154
  357SOL    HW1 1070   2.864   0.065   2.062 -1.4606  0.3973 -1.4628
  357SOL    HW2 1071   2.916   2.982   2.034 -0.7467 -0.5880 -0.8635
  358SOL     OW 1072   0.477   1.190   2.630 -0.3351  0.2424 -0.8837
  358SOL    HW1 1073   0.447   1.287   2.626 -3.2369 -0.9413 -1.4774
  358SOL    HW2 1074   0.406   1.125   2.655  0.8425  1.5369 -1.2702
  359SOL     OW 1075   2.412   2.432   2.617 -0.0246  0.3490 -0.0727
  359SOL    HW1 1076   2.321   2.441   2.664  0.1651 -2.7589 -0.9630
  359SOL    HW2 1077   2.401   2.429   2.519  0.2415 -1.2486  2.8847
  360SOL     OW 1078   1.490   1.439   0.888  0.0224 -0.5203 -0.9302
  360SOL    HW1 1079   1.404   1.498   0.895  2.7171 -0.1795 -1.4091
  360SOL    HW2 1080   1.474   1.351   0.940 -0.6524 -1.8426  0.3175
  361SOL     OW 1081   2.143   2.210   1.025 -0.2089 -0.1049 -0.1918
  361SOL    HW1 1082   2.047   2.239   1.013 -1.5406 -0.7224  0.1517
  361SOL    HW2 1083   2.147   2.157   1.107 -3.5696 -0.0435 -2.7043
  362SOL     OW 1084   1.931   1.222   0.840  0.2352  0.0758  0.0866
  362SOL    HW1 1085   1.958   1.277   0.760 -1.8292  0.2815 -0.3117
  362SOL    HW2 1086   1.859   1.273   0.891 -3.6186 -0.3276 -0.9943
  363SOL     OW 1087   2.596   2.142   0.507 -0.6665 -0.4782 -0.1445
  363SOL    HW1 1088   2.503   2.112   0.491  0.4835  0.5488 -0.8899
  363SOL    HW2 1089   2.658   2.133   0.423 -0.3251 -1.2066 -1.7682
  364SOL     OW 1090   2.449   0.156   1.179  0.6183  0.1162  0.7479
  364SOL    HW1 1091   2.352   0.166   1.142 -1.3926  2.5837 -0.0945
  364SOL    HW2 1092   2.517   0.187   1.113  2.0144 -0.0310  1.0823
  365SOL     OW 1093   0.554   2.689   1.156 -0.5526  0.2005 -0.1655
  365SOL    HW1 1094   0.583   2.778   1.113  2.1107 -1.4336  0.4729
  365SOL    HW2 1095   0.452   2.678   1.160  3.5125  2.0431 -0.7605
  366SOL     OW 1096   2.938   1.419   0.403 -0.2922 -0.1851 -0.7020
  366SOL    HW1 1097   2.880   1.335   0.404 -0.0686 -0.2057 -0.7813
  366SOL    HW2 1098   2.972   1.441   0.496 -1.2952 -0.9293 -0.4499
  367SOL     OW 1099   2.135   2.253   2.865  0.1626 -0.2931 -0.1791
  367SOL    HW1 1100   2.038   2.219   2.860 -0.7855  0.3366 -3.7096
  367SOL    HW2 1101   2.201   2.190   2.816 -1.3289  0.5423  0.6153
  368SOL     OW 1102   2.698   1.966   0.943 -0.4377 -0.1267  0.3706
  368SOL    HW1 1103   2.633   1.896   0.917 -0.9808  2.5064  0.3980
  368SOL    HW2 1104   2.787   1.920   0.963  3.3151 -1.3645  2.3809
  369SOL     OW 1105   0.853   1.197   0.671 -0.1005 -0.3768  0.0722
  369SOL    HW1 1106   0.782   1.123   0.685 -2.1738 -4.7533  2.6461
  369SOL    HW2 1107   0.948   1.166   0.669  2.1335 -0.8615  2.4226
  370SOL     OW 1108   0.613   0.148   0.844  0.1073 -0.3139  0.5955
  370SOL    HW1 1109   0.561   0.127   0.929 -0.0151 -1.2648  0.7705
  370SOL    HW2 1110   0.710   0.174   0.869  2.8621 -1.7914  0.8166
  371SOL     OW 1111   2.518   1.210   2.948  0.2752 -0.4153  0.5575
  371SOL    HW1 1112   2.570   1.127   2.945 -0.3284 -0.2894 -0.7815
  371SOL    HW2 1113   2.419   1.187   2.935 -0.5450 -0.2963  0.9289
  372SOL     OW 1114   0.532   0.633   2.514  0.5115  0.7856  0.5779
  372SOL    HW1 1115   0.616   0.581   2.539  1.4860 -1.3888  1.7997
  372SOL    HW2 1116   0.454   0.569   2.524 -1.6657  2.6305 -1.1019
  373SOL     OW 1117   0.555   0.461   2.833 -0.1908 -0.0960  0.8631
  373SOL    HW1 1118   0.620   0.396   2.794  1.3604  0.5434  0.0266
  373SOL    HW2 1119   0.601   0.502   2.914  2.3306 -1.2725  0.7194
  374SOL     OW 1120   1.033   2.483   3.071 -0.1200 -0.5561 -0.3109
  374SOL    HW1 1121   1.051   2.511   2.975 -1.7398 -2.5473 -0.0322
  374SOL    HW2 1122   1.080   2.543   0.061 -2.6784 -3.4037 -0.4160
  375SOL     OW 1123   1.071   3.008   0.636 -0.1953 -0.2844 -0.2842
  375SOL    HW1 1124   1.076   2.924   0.695  1.5776 -0.1737 -4.0132
  375SOL    HW2 1125   1.103   0.014   0.690  0.8022 -0.2420  0.8306
  376SOL     OW 1126   0.224   2.369   1.988 -0.6457  0.4866  0.0989
  376SOL    HW1 1127   0.150   2.423   1.948  3.8031  0.5960  0.9026
  376SOL    HW2 1128   0.306   2.362   1.925 -0.0086 -1.4401 -0.8032
  377SOL     OW 1129   2.699   1.940   0.059 -0.1193  0.1945  0.3556
  377SOL    HW1 1130   2.602   1.965   0.070 -0.1860  0.1416 -1.1754
  377SOL    HW2 1131   2.723   1.972   3.039  0.2537  0.6132 -1.7854
  378SOL     OW 1132   1.772   0.775   0.705 -0.1992  0.2504 -0.0577
  378SOL    HW1 1133   1.794   0.676   0.687  1.9071 -1.2862  0.4219
  378SOL    HW2 1134   1.833   0.810   0.777 -1.8276 -3.0151 -1.1154
  379SOL     OW 1135   1.145   1.175   0.652 -0.3823  0.1308 -0.0085
  379SOL    HW1 1136   1.150   1.107   0.579 -0.5529 -0.1415 -0.4365
  379SOL    HW2 1137   1.221   1.240   0.625 -1.4622  1.2328 -0.5457
  380SOL     OW 1138   2.619   1.936   1.844 -0.1098 -0.0129 -0.2342
  380SOL    HW1 1139   2.699   1.939   1.776  2.9592 -0.4531  0.5655
  380SOL    HW2 1140   2.655   1.937   1.942  0.3697  0.0695 -1.0623
  381SOL     OW 1141   3.065   1.164   2.171  0.0993  0.2549  0.0110
  381SOL    HW1 1142   3.029   1.104   2.245 -0.1337 -4.0479 -1.3660
  381SOL    HW2 1143   0.054   1.117   2.110 -1.4895 -2.2108  1.7839
  382SOL     OW 1144   2.861   2.362   0.169 -0.3733  0.0718 -0.2616
  382SOL    HW1 1145   2.819   2.288   0.223  1.9097  0.1024 -0.2325
  382SOL    HW2 1146   2.798   2.396   0.096 -2.7305 -1.5002  0.6588
  383SOL     OW 1147   1.448   0.894   2.202 -0.2005  0.4418 -0.1842
  383SOL    HW1 1148   1.485   0.991   2.205  1.6163  1.5712  2.6435
  383SOL    HW2 1149   1.493   0.831   2.271  0.7153 -1.7320 -1.0725
  384SOL     OW 1150   1.103   2.110   2.604  0.1599  0.0000 -0.0575
  384SOL    HW1 1151   1.150   2.129   2.695  0.5656 -1.7313  0.3061
  384SOL    HW2 1152   1.001   2.100   2.624  0.2541  0.9239  0.0796
  385SOL     OW 1153   2.244   2.193   0.047 -0.3566  0.3108  0.0210
  385SOL    HW1 1154   2.251   2.245   3.037 -0.7464  0.6658 -1.5832
  385SOL    HW2 1155   2.261   2.249   0.128  1.2407 -0.1115 -1.8374
  386SOL     OW 1156   1.537   1.262   0.259  0.8936  0.3054  0.2607
  386SOL    HW1 1157   1.622   1.322   0.265 -0.1996 -1.5626  2.1537
  386SOL    HW2 1158   1.535   1.196   0.335 -2.7509 -1.6005 -0.5587
  387SOL     OW 1159   2.960   1.018   1.252  0.1262 -0.0808  0.0015
  387SOL    HW1 1160   2.924   1.104   1.212  1.2212 -2.0425  2.0222
  387SOL    HW2 1161   3.021   0.972   1.189 -2.3098  0.3511 -0.4618
  388SOL     OW 1162   0.289   0.807   1.263  0.6380  0.6538 -0.7758
  388SOL    HW1 1163   0.224   0.880   1.289 -1.9051 -0.3804 -0.2897
  388SOL    HW2 1164   0.241   0.731   1.211  0.0371 -0.5691 -0.8914
  389SOL     OW 1165   2.136   1.200   2.296  0.1520  0.0810 -0.4227
  389SOL    HW1 1166   2.113   1.216   2.396  1.6876  1.7930  2.2612
  389SOL    HW2 1167   2.068   1.246   2.238 -0.3951 -1.3879  1.2619
  390SOL     OW 1168   1.255   2.245   0.469  0.6858  0.0723 -0.1691
  390SOL    HW1 1169   1.256   2.233   0.370  0.6690 -1.0829  1.7816
  390SOL    HW2 1170   1.317   2.177   0.514  3.3780 -0.3963  2.3696
  391SOL     OW 1171   1.007   2.043   1.102  0.0806  0.1815  0.6301
  391SOL    HW1 1172   1.044   1.960   1.157 -1.8048 -0.0180  1.6565
  391SOL    HW2 1173   0.913   2.019   1.070  1.9800  1.4173 -2.0851
  392SOL     OW 1174   2.373   2.452   2.099  0.0942  0.0554  0.1019
  392SOL    HW1 1175   2.311   2.531   2.099  1.4802 -2.7578 -0.5746
  392SOL    HW2 1176   2.432   2.448   2.017  0.4306 -2.7490  0.8606
  393SOL     OW 1177   1.386   1.960   3.057  0.4059  1.0262  0.3088
  393SOL    HW1 1178   1.325   1.881   3.073  1.4760  0.5405  0.9264
  393SOL    HW2 1179   1.453   1.934   2.982  4.0203 -0.4340 -4.4269
  394SOL     OW 1180   0.076   0.364   2.159  0.2370 -0.2950  0.2708
  394SOL    HW1 1181   0.054   0.462   2.147  2.5175 -1.3486 -1.3257
  394SOL    HW2 1182   0.160   0.338   2.108  0.1924 -0.3730  0.8303
  395SOL     OW 1183   0.310   1.080   0.761  0.5587  0.2082 -0.0967
  395SOL    HW1 1184   0.338   1.073   0.859 -1.4860 -0.2171 -0.8669
  395SOL    HW2 1185   0.380   1.044   0.700 -0.7663  3.9366  1.6052
  396SOL     OW 1186   2.480   0.987   2.685 -0.1161  0.4895  0.6361
  396SOL    HW1 1187   2.401   0.937   2.650 -0.5877  1.8098  0.5522
  396SOL    HW2 1188   2.496   1.076   2.640 -0.4889 -2.3683  2.7418
  397SOL     OW 1189   0.435   0.782   0.028 -0.4383  0.1755 -0.3257
  397SOL    HW1 1190   0.436   0.849   3.025 -0.1382 -0.8361 -2.3840
  397SOL    HW2 1191   0.507   0.709   0.004 -0.3585 -1.5609 -0.0853
  398SOL     OW 1192   1.318   2.823   0.474  0.0454  0.2542 -0.3839
  398SOL    HW1 1193   1.386   2.884   0.523 -2.8439  0.3956 -0.2931
  398SOL    HW2 1194   1.271   2.886   0.410  0.8500 -0.0029  1.0254
  399SOL     OW 1195   1.965   2.466   1.823 -0.0086  0.7912  0.3998
  399SOL    HW1 1196   1.906   2.390   1.852 -0.2611 -2.4912  0.9016
  399SOL    HW2 1197   2.047   2.420   1.780 -0.1461 -2.4404 -0.9662
  400SOL     OW 1198   0.070   1.329   1.746 -0.0280  0.3194 -0.0529
  400SOL    HW1 1199   0.007   1.258   1.773  1.4271 -0.3460 -0.3410
  400SOL    HW2 1200   0.096   1.390   1.826  0.9096 -2.1561 -0.2315
  401SOL     OW 1201   0.504   1.007   0.547  0.7059 -0.0416 -0.1412
  401SOL    HW1 1202   0.461   0.916   0.522 -3.3230 -3.2412 -2.1015
  401SOL    HW2 1203   0.578   1.001   0.612 -1.5419  2.6041  0.8486
  402SOL     OW 1204   0.622   2.974   2.286 -0.2890  0.7983  0.4305
  402SOL    HW1 1205   0.625   3.029   2.368 -0.4199 -1.4038 -3.5408
  402SOL    HW2 1206   0.530   2.984   2.241  1.8405  0.0821  2.4049
  403SOL     OW 1207   2.876   1.956   1.727  0.7099  0.1356 -0.1472
  403SOL    HW1 1208   2.933   1.942   1.813 -0.4573 -1.4048  2.5999
  403SOL    HW2 1209   2.876   1.868   1.676 -1.1075  1.6313  2.3520
  404SOL     OW 1210   2.654   2.115   2.148 -0.3634  0.2073 -0.2196
  404SOL    HW1 1211   2.657   2.187   2.223  1.0352  1.6634  0.3957
  404SOL    HW2 1212   2.647   2.163   2.054 -2.7336 -2.4239 -0.6879
  405SOL     OW 1213   1.934   0.118   2.671 -0.1991  0.7008 -0.0536
  405SOL    HW1 1214   1.963   0.022   2.686  1.6907  1.9409 -2.5040
  405SOL    HW2 1215   1.931   0.142   2.573 -0.1040  0.0625 -1.6848
  406SOL     OW 1216   1.065   2.013   0.282 -0.0879 -0.0130  0.3062
  406SOL    HW1 1217   1.145   2.059   0.235 -1.1938 -1.9091 -2.2053
  406SOL    HW2 1218   0.996   2.086   0.305 -0.7718 -0.1797  1.9363
  407SOL     OW 1219   1.285   1.325   0.221 -0.4705 -0.6221 -0.6251
  407SOL    HW1 1220   1.257   1.314   0.126  1.4767  2.1210  2.4473
  407SOL    HW2 1221   1.387   1.309   0.232 -1.0127  0.7681  1.7277
  408SOL     OW 1222   0.331   0.403   1.332  0.5812 -0.0688 -0.7656
  408SOL    HW1 1223   0.412   0.419   1.396  0.0631 -0.7457 -0.3454
  408SOL    HW2 1224   0.359   0.373   1.237  1.6745  1.2933 -0.7030
  409SOL     OW 1225   2.870   1.493   2.942 -0.1530  0.2780 -0.0823
  409SOL    HW1 1226   2.801   1.473   2.870  0.5734  0.4168 -0.5731
  409SOL    HW2 1227   2.827   1.548   3.018  0.4727  1.4813  0.8819
  410SOL     OW 1228   2.721   2.733   0.768  0.6877  0.6296  0.7239
  410SOL    HW1 1229   2.737   2.743   0.866 -0.9467  0.6869 -2.6382
  410SOL    HW2 1230   2.706   2.633   0.750  1.1107 -0.2916 -0.1019
  411SOL     OW 1231   3.020   0.777   0.486 -0.4593 -0.4480  0.1876
  411SOL    HW1 1232   3.033   0.790   0.585 -1.5520  2.4567 -3.3361
  411SOL    HW2 1233   2.923   0.754   0.465 -2.4263 -1.3814 -3.1595
  412SOL     OW 1234   1.685   2.946   0.355 -0.3188 -0.2557  0.2661
  412SOL    HW1 1235   1.656   3.039   0.319  2.3165  0.0135  0.4717
  412SOL    HW2 1236   1.654   2.873   0.298  4.6245  0.9973  0.0283
  413SOL     OW 1237   1.485   0.381   1.562  0.2213 -0.4365 -0.0256
  413SOL    HW1 1238   1.421   0.303   1.546 -0.8428  0.3627 -0.3740
  413SOL    HW2 1239   1.433   0.466   1.546  0.6438 -1.0966  2.9599
  414SOL     OW 1240   0.243   1.247   0.333 -0.1511 -0.1367  0.0147
  414SOL    HW1 1241   0.208   1.154   0.362 -1.1361 -3.3953 -0.3479
  414SOL    HW2 1242   0.341   1.238   0.335 -0.1086 -2.4895  0.4107
  415SOL     OW 1243   2.758   1.618   0.308 -0.0656  0.1251  0.6666
  415SOL    HW1 1244   2.831   1.551   0.334 -1.6453  0.9977  0.6575
  415SOL    HW2 1245   2.756   1.702   0.362 -0.4529 -0.5686 -1.0448
  416SOL     OW 1246   2.578   0.416   2.842 -0.2942  0.2130 -0.4932
  416SOL    HW1 1247   2.499   0.440   2.777 -1.7573  1.9692 -1.2229
  416SOL    HW2 1248   2.657   0.482   2.836 -0.7335  0.9507 -0.0012
  417SOL     OW 1249   2.652   2.987   0.404  0.1468  0.3696  0.1673
  417SOL    HW1 1250   2.737   2.935   0.399 -0.2769  0.5963  2.2842
  417SOL    HW2 1251   2.585   2.966   0.329 -2.2455 -1.8895 -1.7244
  418SOL     OW 1252   0.418   0.391   0.046  0.0483  0.2827 -0.0430
  418SOL    HW1 1253   0.386   0.446   0.127 -1.5053 -0.3936 -1.0536
  418SOL    HW2 1254   0.462   0.447   3.049  0.7874 -0.6132 -0.5156
  419SOL     OW 1255   0.657   0.989   0.759  0.1961 -0.1240 -0.3356
  419SOL    HW1 1256   0.657   1.041   0.847 -0.2735 -0.8382 -0.0419
  419SOL    HW2 1257   0.620   0.900   0.785  1.8125  1.1063  0.3502
  420SOL     OW 1258   0.241   0.839   0.963  0.0818  0.0354 -0.1727
  420SOL    HW1 1259   0.305   0.920   0.969  0.6597 -1.0336  1.6218
  420SOL    HW2 1260   0.152   0.857   1.006  1.7835  2.2051 -3.4193
  421SOL     OW 1261   0.672   2.139   0.143 -0.1035 -0.4762  0.5230
  421SOL    HW1 1262   0.618   2.197   0.078 -1.4992 -0.4685  1.7240
  421SOL    HW2 1263   0.768   2.120   0.103  1.4809  0.1040  1.7587
  422SOL     OW 1264   2.627   0.386   2.136 -0.2303  0.6063 -0.1707
  422SOL    HW1 1265   2.687   0.365   2.216 -1.0467 -1.4775  2.3255
  422SOL    HW2 1266   2.545   0.434   2.159  1.6574 -4.1118 -0.4540
  423SOL     OW 1267   2.036   1.734   0.089  0.1294 -0.2974  0.4046
  423SOL    HW1 1268   2.116   1.793   0.090 -0.3941 -1.3333 -1.2699
  423SOL    HW2 1269   1.955   1.785   0.060 -0.0321  0.9121  1.8831
  424SOL     OW 1270   1.701   1.356   2.266 -0.2991 -0.1345  0.3336
  424SOL    HW1 1271   1.800   1.342   2.243  0.7628  0.6906 -0.9315
  424SOL    HW2 1272   1.682   1.342   2.369 -1.6856 -2.6336  2.9794
  425SOL     OW 1273   0.074   2.645   2.249 -0.2860  0.4255  0.0095
  425SOL    HW1 1274   0.158   2.680   2.202  0.8490 -0.2557 -0.2402
  425SOL    HW2 1275   0.081   2.640   2.351 -1.8455  1.6671 -1.8609
  426SOL     OW 1276   2.233   2.648   0.506 -0.0750  0.4791 -0.0479
  426SOL    HW1 1277   2.137   2.617   0.500  1.7111  0.7799 -0.4579
  426SOL    HW2 1278   2.241   2.746   0.540  0.6514  0.2268  2.1356
  427SOL     OW 1279   0.601   0.981   2.307 -0.5161 -0.4711  0.6174
  427SOL    HW1 1280   0.611   1.085   2.324  0.8397  3.2476 -1.4749
  427SOL    HW2 1281   0.664   0.929   2.370 -0.2429  0.4002  1.5864
  428SOL     OW 1282   2.880   1.228   2.669 -0.0808 -0.4100 -0.2856
  428SOL    HW1 1283   2.828   1.154   2.612  0.2910 -2.2697  1.2339
  428SOL    HW2 1284   2.860   1.210   2.766 -0.6247 -1.0024  0.1114
  429SOL     OW 1285   2.404   0.211   0.442 -0.0398 -0.2771 -0.3842
  429SOL    HW1 1286   2.505   0.214   0.432  2.1264 -2.8926  0.5195
  429SOL    HW2 1287   2.371   0.118   0.430  1.8566  3.1303  1.2313
  430SOL     OW 1288   1.534   1.929   2.286  0.0847  0.0416  0.5195
  430SOL    HW1 1289   1.461   1.977   2.337  2.7961  1.7902 -2.1369
  430SOL    HW2 1290   1.619   1.988   2.278  1.7370  2.2413  0.7911
  431SOL     OW 1291   0.087   1.741   1.801 -0.0806  0.2896 -0.2911
  431SOL    HW1 1292   0.180   1.718   1.830 -2.2112  2.9168  0.5798
  431SOL    HW2 1293   0.081   1.745   1.699 -0.2364 -0.9744  0.3612
  432SOL     OW 1294   1.332   2.013   2.446 -0.0748 -0.0371  0.1339
  432SOL    HW1 1295   1.282   1.972   2.365 -2.1194  0.5132  1.0683
  432SOL    HW2 1296   1.261   2.022   2.514  0.9727 -0.2107 -2.1482
  433SOL     OW 1297   0.906   2.389   0.516 -0.3198  0.4108  0.1322
  433SOL    HW1 1298   0.939   2.443   0.434 -0.9084 -0.0512 -0.4262
  433SOL    HW2 1299   0.842   2.449   0.568 -2.0212  1.5629  0.0214
  434SOL     OW 1300   0.269   2.122   2.536 -0.3228 -0.4831 -0.0853
  434SOL    HW1 1301   0.231   2.204   2.579  1.1149 -1.2013  2.3048
  434SOL    HW2 1302   0.333   2.141   2.459 -0.1336 -1.5326  2.4651
  435SOL     OW 1303   0.251   1.398   0.587  0.0107 -0.0948  0.3828
  435SOL    HW1 1304   0.196   1.352   0.661 -0.1607 -0.2364 -0.3408
  435SOL    HW2 1305   0.260   1.338   0.504  2.0257 -1.3571  2.0237
  436SOL     OW 1306   0.342   2.402   1.715 -1.0782  0.5457 -0.2114
  436SOL    HW1 1307   0.246   2.416   1.673 -2.0763 -0.2898 -3.1517
  436SOL    HW2 1308   0.388   2.306   1.703  1.5770 -0.5007  1.1801
  437SOL     OW 1309   1.122   0.361   0.499 -0.8288  0.3833 -0.1918
  437SOL    HW1 1310   1.112   0.299   0.418  1.0137 -0.9966  2.1598
  437SOL    HW2 1311   1.066   0.445   0.485 -1.8227 -0.3227  0.8113
  438SOL     OW 1312   0.464   2.422   0.943  0.0847 -0.2994 -0.5765
  438SOL    HW1 1313   0.551   2.473   0.919  0.9983 -1.2490  0.2277
  438SOL    HW2 1314   0.420   2.438   1.036 -1.5121  0.2623 -0.1997
  439SOL     OW 1315   0.770   2.637   1.772 -0.0580  0.5963 -0.1487
  439SOL    HW1 1316   0.861   2.621   1.727 -0.4860 -2.3627  1.9687
  439SOL    HW2 1317   0.700   2.606   1.706  5.4696 -0.8170 -0.0355
  440SOL     OW 1318   1.485   3.024   1.697  0.4015 -0.4973  0.5060
  440SOL    HW1 1319   1.553   0.022   1.712  0.8106  1.4863  2.6513
  440SOL    HW2 1320   1.529   2.935   1.686 -1.6585  1.4769  2.3562
  441SOL     OW 1321   0.131   0.353   1.508  0.1364  0.1595  0.1724
  441SOL    HW1 1322   0.178   0.378   1.419  3.4051  0.1484  0.0590
  441SOL    HW2 1323   0.189   0.366   1.587  2.4381  0.2616 -1.7064
  442SOL     OW 1324   1.899   2.087   0.602 -0.4550  0.3209 -0.0924
  442SOL    HW1 1325   1.821   2.021   0.613  2.8666 -0.6029 -1.1832
  442SOL    HW2 1326   1.930   2.106   0.509  3.7890 -0.3503  4.1619
  443SOL     OW 1327   2.760   0.304   2.398  0.3436 -0.0342  0.4715
  443SOL    HW1 1328   2.824   0.234   2.362 -2.2432  0.5170  2.3342
  443SOL    HW2 1329   2.684   0.250   2.438 -0.4287 -1.8188  3.3749
  444SOL     OW 1330   2.227   0.871   1.772 -0.2118  0.5699  0.4380
  444SOL    HW1 1331   2.221   0.964   1.805  1.4957 -1.4280  1.4669
  444SOL    HW2 1332   2.187   0.804   1.839 -1.3027  1.6593  3.2630
  445SOL     OW 1333   2.737   2.303   1.427  0.4688 -0.6672 -0.3507
  445SOL    HW1 1334   2.634   2.286   1.421 -1.3053 -1.3002 -0.7086
  445SOL    HW2 1335   2.774   2.329   1.340 -1.4474 -0.2832  2.7158
  446SOL     OW 1336   2.770   1.597   0.615  0.1243 -0.0525 -0.1643
  446SOL    HW1 1337   2.686   1.541   0.599 -0.0006  1.1643  0.3179
  446SOL    HW2 1338   2.845   1.539   0.660  1.6490 -2.0850 -1.3199
  447SOL     OW 1339   0.888   1.375   0.465  0.5312 -0.1499 -0.2812
  447SOL    HW1 1340   0.881   1.324   0.552  1.3367  0.0061 -0.2855
  447SOL    HW2 1341   0.985   1.403   0.446  4.0021 -1.5138 -0.2590
  448SOL     OW 1342   1.456   1.320   1.534  0.0978 -0.1263 -0.8859
  448SOL    HW1 1343   1.529   1.364   1.593  5.9484  3.8769 -0.0722
  448SOL    HW2 1344   1.493   1.321   1.438 -0.7757  1.4579 -2.5084
  449SOL     OW 1345   0.817   1.341   3.038 -0.4225  0.2154  0.1695
  449SOL    HW1 1346   0.744   1.329   0.028  0.2584 -0.5656  0.9160
  449SOL    HW2 1347   0.790   1.302   2.948 -2.9647  1.2819 -0.9247
  450SOL     OW 1348   2.289   2.215   1.975 -0.7517 -0.1769  0.0925
  450SOL    HW1 1349   2.341   2.197   1.887  1.8475 -3.1682  0.8962
  450SOL    HW2 1350   2.317   2.297   2.030  0.5856 -1.1793 -0.4255
  451SOL     OW 1351   1.826   3.002   2.256 -0.0726  0.2828 -0.1366
  451SOL    HW1 1352   1.765   3.024   2.336  0.1636  1.1328  0.6402
  451SOL    HW2 1353   1.909   3.064   2.255 -0.8639 -0.9751 -1.0182
  452SOL     OW 1354   1.064   0.149   1.411  0.0980  0.4668 -0.3467
  452SOL    HW1 1355   1.020   0.066   1.369  0.3476  0.3870 -2.7538
  452SOL    HW2 1356   1.031   0.167   1.507  0.7997  1.5742  0.1578
  453SOL     OW 1357   1.406   0.995   0.874 -0.1023  0.2708 -0.0866
  453SOL    HW1 1358   1.312   0.957   0.852 -3.9335  2.3999  0.6679
  453SOL    HW2 1359   1.449   1.051   0.800 -0.6921  0.0694 -1.1544
  454SOL     OW 1360   0.510   1.496   0.968  0.3343  0.0767  0.1296
  454SOL    HW1 1361   0.529   1.487   0.870 -0.1281 -2.6710  4.1546
  454SOL    HW2 1362   0.593   1.525   1.022  0.9483 -1.3336 -0.1610
  455SOL     OW 1363   2.814   3.021   0.034  0.2419 -0.1977  0.0957
  455SOL    HW1 1364   2.828   2.929   0.079 -0.2045 -2.5745  0.0550
  455SOL    HW2 1365   2.753   3.009   3.028 -0.7636 -1.6506  2.2199
  456SOL     OW 1366   2.559   2.401   1.170 -0.0709  0.3722 -0.3119
  456SOL    HW1 1367   2.505   2.481   1.138 -2.0842  1.4764  1.0892
  456SOL    HW2 1368   2.592   2.340   1.090  1.8756 -0.5443 -4.6827
  457SOL     OW 1369   1.347   0.080   0.224 -0.5849 -0.3811  0.9003
  457SOL    HW1 1370   1.317   0.177   0.192 -1.2320  3.4036 -0.7903
  457SOL    HW2 1371   1.287   0.040   0.298  0.2540  2.9720  1.7445
  458SOL     OW 1372   2.672   0.240   0.426  0.1894 -0.0367 -0.1292
  458SOL    HW1 1373   2.690   0.334   0.458 -2.5817  1.7304  0.2980
  458SOL    HW2 1374   2.725   0.180   0.485 -0.7739  0.8639 -1.7985
  459SOL     OW 1375   2.191   0.331   2.409  0.1174  0.6109  0.0649
  459SOL    HW1 1376   2.214   0.290   2.502 -1.1526 -0.7124  3.4757
  459SOL    HW2 1377   2.088   0.320   2.401 -3.0770  1.8204  1.7630
  460SOL     OW 1378   2.703   0.191   2.748  0.3400  0.0677 -0.5334
  460SOL    HW1 1379   2.651   0.253   2.810  0.0955 -0.1107  0.0313
  460SOL    HW2 1380   2.661   0.185   2.656  0.2352  0.2199 -0.5669
  461SOL     OW 1381   1.050   1.798   1.205  0.6811  0.2276 -0.4344
  461SOL    HW1 1382   1.042   1.711   1.254  2.3434  0.5090 -1.8680
  461SOL    HW2 1383   1.053   1.776   1.102 -0.9095 -2.5439  2.0340
  462SOL     OW 1384   2.639   2.796   1.457 -0.1834  0.1879  0.5281
  462SOL    HW1 1385   2.709   2.835   1.521 -1.9389  0.4483  2.3089
  462SOL    HW2 1386   2.556   2.759   1.497  3.6595 -0.2793 -0.7138
  463SOL     OW 1387   2.743   1.202   0.437  0.1207 -0.0660  0.0158
  463SOL    HW1 1388   2.742   1.173   0.339 -1.1784  1.2474  1.6126
  463SOL    HW2 1389   2.651   1.164   0.472 -1.7660 -1.3753  1.4900
  464SOL     OW 1390   0.277   2.615   1.169  0.0351  0.3428  0.1849
  464SOL    HW1 1391   0.221   2.622   1.083 -1.8078 -1.5316 -1.1829
  464SOL    HW2 1392   0.219   2.627   1.252 -0.0683  0.5130 -0.2393
  465SOL     OW 1393   0.176   1.616   0.405 -1.2689 -0.0287  0.2863
  465SOL    HW1 1394   0.127   1.568   0.327 -1.3387  0.9147  0.4506
  465SOL    HW2 1395   0.219   1.551   0.472  3.1244 -1.1536 -0.0806
  466SOL     OW 1396   1.106   0.373   2.595  0.1857  0.1198 -0.2259
  466SOL    HW1 1397   1.160   0.337   2.681  2.9861 -0.3549  1.3589
  466SOL    HW2 1398   1.083   0.475   2.614  0.8522  3.0453  3.4260
  467SOL     OW 1399   0.701   0.646   2.152  0.5616  0.2483 -0.1952
  467SOL    HW1 1400   0.727   0.557   2.105 -0.1356 -2.4740  0.2153
  467SOL    HW2 1401   0.775   0.681   2.219  3.8247  0.2510 -1.3060
  468SOL     OW 1402   0.686   0.925   2.047  0.3356  0.4182 -0.0320
  468SOL    HW1 1403   0.673   0.822   2.045 -1.1329  1.5553  2.7967
  468SOL    HW2 1404   0.649   0.956   2.138 -0.5441 -2.5365 -1.8355
  469SOL     OW 1405   0.167   2.117   0.310 -0.2749 -0.2874  0.1204
  469SOL    HW1 1406   0.128   2.026   0.326 -1.3664  2.3040 -0.3813
  469SOL    HW2 1407   0.096   2.162   0.252  0.5293 -1.5313 -1.9598
  470SOL     OW 1408   2.508   2.018   2.853 -0.1122 -0.8298 -0.0397
  470SOL    HW1 1409   2.485   1.951   2.926 -0.1005 -0.8640 -1.0787
  470SOL    HW2 1410   2.609   2.037   2.851  1.1470 -0.6135  0.2279
  471SOL     OW 1411   2.189   0.686   2.159 -0.8049 -0.2043 -0.5093
  471SOL    HW1 1412   2.170   0.782   2.186  0.6475  2.0719  2.0774
  471SOL    HW2 1413   2.140   0.669   2.073  1.0534  0.3670  0.2302
  472SOL     OW 1414   0.694   2.549   1.327  0.1244 -0.4402  0.0041
  472SOL    HW1 1415   0.639   2.464   1.304 -3.4305 -0.6564 -1.0931
  472SOL    HW2 1416   0.665   2.614   1.253 -0.9293 -1.3078 -2.0604
  473SOL     OW 1417   0.398   2.967   2.497 -0.0460  0.1920 -0.2570
  473SOL    HW1 1418   0.374   2.913   2.581 -1.4358 -0.4455 -3.4106
  473SOL    HW2 1419   0.485   3.021   2.514 -1.4259  0.9348 -0.8689
  474SOL     OW 1420   1.907   0.034   1.889  0.0812 -0.0020 -0.2244
  474SOL    HW1 1421   1.915   0.048   1.791 -0.0945  1.4998  1.3348
  474SOL    HW2 1422   1.822   3.060   1.910 -0.1194 -0.3361  1.3078
  475SOL     OW 1423   1.691   2.863   0.917  0.2661 -0.7698 -0.3701
  475SOL    HW1 1424   1.709   2.830   0.822  2.7782 -1.0030 -1.1967
  475SOL    HW2 1425   1.777   2.878   0.973  1.4984 -1.7103  1.2639
  476SOL     OW 1426   0.314   0.581   0.957  0.2046 -0.0418  0.7387
  476SOL    HW1 1427   0.289   0.683   0.964  0.8362  1.1219 -0.6270
  476SOL    HW2 1428   0.414   0.577   0.963  1.6928 -1.0652  1.2506
  477SOL     OW 1429   1.193   2.424   0.671  0.2105  0.1825 -0.1143
  477SOL    HW1 1430   1.191   2.334   0.614  1.5245 -1.8604 -0.4567
  477SOL    HW2 1431   1.147   2.496   0.622 -2.2676 -3.1859  1.5339
  478SOL     OW 1432   0.145   2.372   2.589  0.0417 -0.0421  0.5686
  478SOL    HW1 1433   0.159   2.470   2.590 -2.5246 -4.3074 -2.6738
  478SOL    HW2 1434   0.113   2.336   2.496  2.6099  2.4460 -0.3794
  479SOL     OW 1435   2.653   0.275   1.032  0.1039 -0.0740  0.3062
  479SOL    HW1 1436   2.725   0.307   1.101 -1.6292  0.6721 -0.1722
  479SOL    HW2 1437   2.689   0.201   0.974 -1.1335 -2.4600  1.9524
  480SOL     OW 1438   0.191   2.920   0.246  0.1095  0.2009 -0.5688
  480SOL    HW1 1439   0.115   2.984   0.267 -0.0900  1.2674  0.9358
  480SOL    HW2 1440   0.199   2.845   0.316  1.1553 -1.0291 -0.7281
  481SOL     OW 1441   2.351   2.041   1.455  0.5328  0.2512 -0.3845
  481SOL    HW1 1442   2.399   1.949   1.452  0.6385 -0.0938 -0.1948
  481SOL    HW2 1443   2.400   2.120   1.414 -0.5770 -0.4195 -2.0924
  482SOL     OW 1444   1.118   2.494   2.801  0.2961  0.1826  0.2736
  482SOL    HW1 1445   1.174   2.523   2.722  1.7569  1.4351  0.9424
  482SOL    HW2 1446   1.026   2.452   2.768  0.0472 -3.1096  0.8997
  483SOL     OW 1447   0.592   2.497   2.389  0.0899  0.0493  0.7498
  483SOL    HW1 1448   0.528   2.570   2.370  1.7098 -1.7367 -0.4031
  483SOL    HW2 1449   0.605   2.432   2.311 -0.2937 -0.1375  0.0545
  484SOL     OW 1450   1.350   0.660   1.554  0.3837 -0.2270 -0.6406
  484SOL    HW1 1451   1.378   0.679   1.650 -1.5175  0.9505 -1.1748
  484SOL    HW2 1452   1.314   0.753   1.522 -1.9839  4.0312  2.2958
  485SOL     OW 1453   2.275   0.939   2.491 -0.4993 -0.0315 -0.3248
  485SOL    HW1 1454   2.185   0.894   2.499 -0.5362 -1.5615 -0.7957
  485SOL    HW2 1455   2.271   1.038   2.521  1.0046 -0.0785 -0.0259
  486SOL     OW 1456   2.286   2.921   0.980  0.2633  0.0201 -0.2486
  486SOL    HW1 1457   2.292   2.833   0.929 -1.2448 -1.7501 -2.1648
  486SOL    HW2 1458   2.355   2.988   0.942 -0.7541 -1.0710  0.7468
  487SOL     OW 1459   0.725   2.185   1.614  0.3872 -0.1108  0.0682
  487SOL    HW1 1460   0.648   2.117   1.597 -0.8252 -1.1445  2.5136
  487SOL    HW2 1461   0.812   2.139   1.641 -1.6292  2.4836  1.1951
  488SOL     OW 1462   2.612   1.448   2.813  0.1783  0.4483 -0.6061
  488SOL    HW1 1463   2.626   1.435   2.713 -1.1343 -0.2795  1.2902
  488SOL    HW2 1464   2.569   1.367   2.855  1.0411 -2.4167  1.1106
  489SOL     OW 1465   1.998   2.974   0.772  0.4678 -0.0188 -0.7087
  489SOL    HW1 1466   1.916   3.033   0.758 -1.2251 -0.1517 -0.6913
  489SOL    HW2 1467   2.074   3.031   0.744  1.0344 -1.2581 -1.0065
  490SOL     OW 1468   0.875   1.121   0.382  0.1090 -0.2652 -0.2138
  490SOL    HW1 1469   0.858   1.220   0.410  1.1292  1.6994 -2.8496
  490SOL    HW2 1470   0.819   1.105   0.297 -1.3158 -1.2896 -1.1370
  491SOL     OW 1471   0.261   2.344   1.171  0.2493 -0.4571  0.0090
  491SOL    HW1 1472   0.251   2.446   1.181 -1.7008 -2.7640  2.0312
  491SOL    HW2 1473   0.181   2.300   1.213 -0.7145  1.6859 -2.5940
  492SOL     OW 1474   1.243   1.707   2.032 -0.1556  0.2682  0.3836
  492SOL    HW1 1475   1.345   1.712   2.056 -0.6641  2.8292  0.5408
  492SOL    HW2 1476   1.219   1.773   1.961 -0.2950  3.2557 -0.3378
  493SOL     OW 1477   2.799   2.401   0.802 -0.2332 -1.3667  0.0256
  493SOL    HW1 1478   2.862   2.403   0.719  1.8860 -2.2974 -2.9034
  493SOL    HW2 1479   2.847   2.451   0.879  0.5787  2.1910 -1.7577
  494SOL     OW 1480   2.802   2.115   0.328 -0.5867 -0.3304 -0.6904
  494SOL    HW1 1481   2.776   2.045   0.263 -0.0460  0.8786  0.3819
  494SOL    HW2 1482   2.890   2.083   0.369 -2.4724  0.1122 -2.5484
  495SOL     OW 1483   2.839   2.743   0.087  0.2259 -0.6020 -0.3762
  495SOL    HW1 1484   2.856   2.683   0.170  2.2230  2.2750  0.4212
  495SOL    HW2 1485   2.885   2.708   0.004  2.6078  3.8089 -1.9581
  496SOL     OW 1486   2.497   0.360   1.349 -0.8143 -0.3505 -0.5133
  496SOL    HW1 1487   2.407   0.403   1.370  2.2642  0.3920  1.8122
  496SOL    HW2 1488   2.491   0.274   1.303  0.1795 -1.4070  1.4864
  497SOL     OW 1489   2.984   1.290   3.068 -0.0431 -0.3813 -0.2862
  497SOL    HW1 1490   0.006   1.306   3.063  1.1677  0.1054 -0.4267
  497SOL    HW2 1491   2.937   1.360   3.011 -1.3944 -0.8591  2.3342
  498SOL     OW 1492   2.934   1.629   1.875 -0.0798  0.1890  0.4069
  498SOL    HW1 1493   2.957   1.561   1.945 -1.7411 -0.4162  2.1743
  498SOL    HW2 1494   3.019   1.681   1.841 -1.7638 -2.0322 -2.0736
  499SOL     OW 1495   0.899   2.368   2.701 -0.6474 -0.2648 -0.0651
  499SOL    HW1 1496   0.815   2.421   2.713 -1.4329 -0.5652  2.4004
  499SOL    HW2 1497   0.879   2.271   2.685 -0.7042 -0.4840 -1.7170
  500SOL     OW 1498   1.798   0.510   0.010  0.3579 -0.5810 -0.1265
  500SOL    HW1 1499   1.884   0.543   0.048  0.7344 -1.1509 -0.3674
  500SOL    HW2 1500   1.808   0.428   3.029 -1.8971  1.6495  0.2733
  501SOL     OW 1501   1.137   0.305   1.668 -0.0056 -0.2239  0.6988
  501SOL    HW1 1502   1.172   0.377   1.732  0.6912  1.5768 -1.4194
  501SOL    HW2 1503   1.213   0.243   1.640 -1.3852 -0.4806  2.8526
  502SOL     OW 1504   2.591   0.752   1.661  0.0680 -0.1529 -0.0717
  502SOL    HW1 1505   2.633   0.663   1.627  1.4722 -2.6074  0.2863
  502SOL    HW2 1506   2.592   0.818   1.578  3.7239  3.4026 -3.4113
  503SOL     OW 1507   2.419   1.991   2.146 -0.3050 -0.1678 -0.0969
  503SOL    HW1 1508   2.497   2.059   2.135 -2.1553 -2.4260 -1.4028
  503SOL    HW2 1509   2.339   2.029   2.103  0.4573 -1.6750  0.7136
  504SOL     OW 1510   1.500   1.062   1.577 -0.5048  0.7569  0.2993
  504SOL    HW1 1511   1.486   1.161   1.570 -1.8755  0.2528 -0.0701
  504SOL    HW2 1512   1.419   1.021   1.545  1.0543  2.8411 -0.5252
  505SOL     OW 1513   0.845   0.727   1.596  0.1480  0.0647 -0.0277
  505SOL    HW1 1514   0.901   0.804   1.635  2.6750  0.2899 -2.1567
  505SOL    HW2 1515   0.909   0.657   1.554  1.6807  1.1301 -3.0801
  506SOL     OW 1516   0.317   0.234   2.659  0.7061 -0.3135  0.0247
  506SOL    HW1 1517   0.392   0.223   2.731  3.5323 -0.9038  0.0729
  506SOL    HW2 1518   0.283   0.140   2.635 -1.0757 -0.6206  0.7199
  507SOL     OW 1519   0.110   0.241   0.114 -0.2415 -0.1724 -0.2701
  507SOL    HW1 1520   0.038   0.306   0.141  0.5590 -0.5937  0.1683
  507SOL    HW2 1521   0.153   0.270   0.021  1.6582 -2.1301 -2.3539
  508SOL     OW 1522   1.009   0.944   1.606 -0.0515  0.8323  0.1337
  508SOL    HW1 1523   0.982   1.042   1.588 -1.8386 -1.5547  3.6297
  508SOL    HW2 1524   1.088   0.937   1.667  0.3588 -0.6276  0.5486
  509SOL     OW 1525   1.409   2.188   1.127 -0.0036  0.1632  0.6138
  509SOL    HW1 1526   1.424   2.101   1.183 -0.7149 -2.6740 -2.1434
  509SOL    HW2 1527   1.357   2.163   1.042 -1.4909 -0.3335  1.0746
  510SOL     OW 1528   2.417   1.276   1.969  0.1567 -0.4213 -0.0597
  510SOL    HW1 1529   2.397   1.375   1.953  1.2298  1.0357 -1.8612
  510SOL    HW2 1530   2.491   1.267   2.042  1.9980 -0.6270  1.5834
  511SOL     OW 1531   0.991   2.127   1.542  0.2012 -0.1037  0.2818
  511SOL    HW1 1532   1.014   2.221   1.501  1.3269  0.7848  1.3216
  511SOL    HW2 1533   1.074   2.076   1.564 -2.7784  0.0876  0.5838
  512SOL     OW 1534   2.730   1.680   0.903 -0.1193  0.9484 -0.1296
  512SOL    HW1 1535   2.750   1.623   0.823 -2.0625 -1.2704  2.1684
  512SOL    HW2 1536   2.809   1.739   0.909 -1.8433 -0.7965 -0.1410
  513SOL     OW 1537   0.209   1.386   2.780 -0.4632 -0.1954  0.3313
  513SOL    HW1 1538   0.270   1.440   2.720  0.1132 -3.0485 -0.8542
  513SOL    HW2 1539   0.245   1.350   2.865  0.2699  2.6377  1.0184
  514SOL     OW 1540   2.853   2.414   2.475  0.0868  0.4046  0.5241
  514SOL    HW1 1541   2.938   2.356   2.458  0.4572  3.1379  1.7591
  514SOL    HW2 1542   2.879   2.513   2.465 -0.0762 -2.0273 -0.2044
  515SOL     OW 1543   2.267   1.173   0.692  0.1835 -0.7974 -0.6774
  515SOL    HW1 1544   2.194   1.118   0.739 -0.8997  1.4503  0.1838
  515SOL    HW2 1545   2.272   1.265   0.738 -1.3497  0.5000 -1.1224
  516SOL     OW 1546   2.317   1.807   0.158 -0.1613  0.0975 -0.5415
  516SOL    HW1 1547   2.348   1.784   0.252 -4.1997 -2.0691 -1.4423
  516SOL    HW2 1548   2.309   1.724   0.099  1.9588  1.1539 -2.7233
  517SOL     OW 1549   0.682   0.962   2.894 -0.8097  0.4053 -0.0757
  517SOL    HW1 1550   0.723   1.055   2.884 -1.0231 -0.3889 -1.0191
  517SOL    HW2 1551   0.741   0.891   2.851  0.6693 -1.2895  1.1876
  518SOL     OW 1552   2.709   2.994   2.322 -0.5857  0.3973 -0.1086
  518SOL    HW1 1553   2.736   3.022   2.227  1.7900  1.2876 -1.6171
  518SOL    HW2 1554   2.640   2.918   2.333  0.6991 -2.0136  0.3707
  519SOL     OW 1555   1.414   1.487   2.743  0.2971 -0.9872 -0.0575
  519SOL    HW1 1556   1.420   1.400   2.789 -0.0303 -0.9420 -1.2292
  519SOL    HW2 1557   1.499   1.539   2.746 -0.4472 -1.2842  0.0437
  520SOL     OW 1558   2.571   2.751   2.280 -0.1009  0.1997 -0.2744
  520SOL    HW1 1559   2.548   2.791   2.188 -0.1694 -2.0299 -2.6138
  520SOL    HW2 1560   2.598   2.650   2.273  1.6705 -2.0649  0.1214
  521SOL     OW 1561   0.586   1.537   2.068 -0.1066 -0.0367  0.3961
  521SOL    HW1 1562   0.621   1.514   2.163 -0.0952  2.1201  0.0051
  521SOL    HW2 1563   0.484   1.532   2.062 -0.5861  1.8052  0.1848
  522SOL     OW 1564   0.958   2.666   1.991  0.1386  0.1605 -0.1439
  522SOL    HW1 1565   0.875   2.670   1.936  0.9251  2.1626 -0.6462
  522SOL    HW2 1566   0.999   2.757   2.008 -1.1769 -2.0458 -0.8424
  523SOL     OW 1567   2.849   2.442   1.651 -0.0092  0.0384 -0.3994
  523SOL    HW1 1568   2.840   2.397   1.745 -3.6014 -1.9399 -0.3658
  523SOL    HW2 1569   2.856   2.374   1.575 -0.5311 -0.5474 -1.7650
  524SOL     OW 1570   1.468   2.484   0.653  0.7005  0.6455 -0.1164
  524SOL    HW1 1571   1.368   2.469   0.639  0.5313 -0.6970 -1.7674
  524SOL    HW2 1572   1.515   2.429   0.722 -0.3753  1.2273  0.1835
  525SOL     OW 1573   2.719   0.836   0.901 -0.2236  0.3471  0.1808
  525SOL    HW1 1574   2.795   0.898   0.883  0.3149 -3.0102  0.7963
  525SOL    HW2 1575   2.650   0.829   0.825 -2.1739 -0.7915 -2.2225
  526SOL     OW 1576   1.216   2.450   0.988 -0.0955  0.1066  0.3063
  526SOL    HW1 1577   1.297   2.455   1.050 -0.5235 -1.8764  0.4192
  526SOL    HW2 1578   1.222   2.385   0.910 -0.1539  0.3093  0.1946
  527SOL     OW 1579   2.374   2.184   0.868 -0.8241 -0.2039  0.7191
  527SOL    HW1 1580   2.303   2.175   0.939 -0.4739  0.7041 -1.7540
  527SOL    HW2 1581   2.463   2.227   0.901  1.6321 -1.0578  0.2486
  528SOL     OW 1582   2.161   0.033   2.912 -0.1979  0.6438  0.3107
  528SOL    HW1 1583   2.128   0.128   2.912 -0.6234 -0.7852 -4.1221
  528SOL    HW2 1584   2.084   3.065   2.961 -1.0343  0.1630  0.6523
  529SOL     OW 1585   1.485   1.449   2.134 -0.8251 -0.9743  0.1718
  529SOL    HW1 1586   1.564   1.411   2.185  2.7947  0.8937  1.5881
  529SOL    HW2 1587   1.495   1.549   2.122 -1.1463  1.0742 -0.8838
  530SOL     OW 1588   2.512   1.196   2.530  0.1026 -0.5376 -0.5473
  530SOL    HW1 1589   2.553   1.142   2.454 -1.7503  2.0436  0.2832
  530SOL    HW2 1590   2.573   1.273   2.553  0.2941 -2.0399 -0.6689
  531SOL     OW 1591   0.641   0.590   3.065  0.1758  0.9114 -0.5774
  531SOL    HW1 1592   0.733   0.624   3.038 -0.8493 -0.9012  3.3531
  531SOL    HW2 1593   0.634   0.568   0.087  2.8645 -1.0765  1.3645
  532SOL     OW 1594   1.604   1.499   0.639  0.1198 -0.2271  0.0634
  532SOL    HW1 1595   1.691   1.450   0.651  0.7434  2.7201  2.5900
  532SOL    HW2 1596   1.565   1.512   0.732 -0.1321  0.6371 -1.1921
  533SOL     OW 1597   0.255   0.759   1.964 -0.2906 -0.4960 -0.2336
  533SOL    HW1 1598   0.310   0.755   1.877  2.5858  2.3504  1.2431
  533SOL    HW2 1599   0.316   0.749   2.049  2.3415 -1.1994  1.2480
  534SOL     OW 1600   1.386   0.459   2.434  0.4129 -0.6674  0.2468
  534SOL    HW1 1601   1.397   0.370   2.480  1.4542 -1.0253  0.4845
  534SOL    HW2 1602   1.361   0.441   2.334 -0.4690 -1.8425 -2.4245
  535SOL     OW 1603   0.681   0.544   0.254 -0.5116 -0.0981 -0.5933
  535SOL    HW1 1604   0.586   0.549   0.276  2.3597  0.8181  0.4140
  535SOL    HW2 1605   0.736   0.570   0.333 -1.6508 -1.1687  3.2216
  536SOL     OW 1606   0.922   0.396   3.000  0.4271 -0.8208 -0.2065
  536SOL    HW1 1607   0.918   0.497   2.982 -0.6373 -0.1006  0.8756
  536SOL    HW2 1608   0.910   0.385   0.024 -0.5642 -0.2242  1.3442
  537SOL     OW 1609   1.341   0.145   1.553 -0.0123  0.2546  0.1768
  537SOL    HW1 1610   1.319   0.106   1.463 -1.2569  0.1808 -0.5668
  537SOL    HW2 1611   1.354   0.074   1.622 -1.7647  1.9573 -2.7836
  538SOL     OW 1612   0.164   2.865   3.043 -0.7244 -0.3684  0.3614
  538SOL    HW1 1613   0.217   2.933   2.986  0.1597  0.9370  1.5094
  538SOL    HW2 1614   0.179   2.885   0.065 -1.2354 -1.8817  0.1489
  539SOL     OW 1615   2.613   1.150   1.821 -0.0758 -0.0064 -0.5963
  539SOL    HW1 1616   2.572   1.057   1.825 -2.9315 -0.3074 -2.1758
  539SOL    HW2 1617   2.547   1.220   1.850  1.8212 -0.9869 -0.5089
  540SOL     OW 1618   2.148   2.079   1.652  0.3438 -0.2337  0.2980
  540SOL    HW1 1619   2.235   2.056   1.602  1.1250  0.6083 -1.4255
  540SOL    HW2 1620   2.155   2.056   1.752  0.3333 -1.8274 -1.1698
  541SOL     OW 1621   0.558   2.525   1.633 -0.2380  0.2456 -0.3550
  541SOL    HW1 1622   0.600   2.466   1.558  0.5948 -0.0140 -0.1694
  541SOL    HW2 1623   0.468   2.484   1.662 -0.7708  0.5876  1.0895
  542SOL     OW 1624   2.577   0.658   1.981 -0.3861  0.2546  0.5201
  542SOL    HW1 1625   2.555   0.702   1.889 -0.3084 -0.3000  1.6036
  542SOL    HW2 1626   2.603   0.558   1.966  0.3704 -0.1128  2.3125
  543SOL     OW 1627   0.878   0.680   0.990 -0.0189  0.6799 -1.1994
  543SOL    HW1 1628   0.924   0.747   0.940 -1.9281 -1.6508 -0.0687
  543SOL    HW2 1629   0.907   0.693   1.086 -0.1221 -0.0779 -0.1430
  544SOL     OW 1630   2.111   2.048   1.274 -0.4861 -0.0253 -0.0753
  544SOL    HW1 1631   2.176   2.076   1.348  0.9277  1.2105 -2.1330
  544SOL    HW2 1632   2.119   1.945   1.258 -1.1487 -0.9569  1.6753
  545SOL     OW 1633   1.479   1.345   1.261  0.1837  0.0299 -1.0414
  545SOL    HW1 1634   1.489   1.281   1.185 -0.6863 -0.7449  1.3232
  545SOL    HW2 1635   1.520   1.437   1.234  1.3814  1.0287 -2.2494
  546SOL     OW 1636   2.886   0.005   2.769 -0.2566  0.2698  0.2429
  546SOL    HW1 1637   2.802   0.061   2.756 -2.0807 -0.5724  0.8905
  546SOL    HW2 1638   2.944   0.040   2.846 -1.9262  1.4523  0.4104
  547SOL     OW 1639   2.270   0.300   2.666 -0.3603 -0.1653 -0.3717
  547SOL    HW1 1640   2.188   0.288   2.728 -0.2273 -0.4701 -0.3488
  547SOL    HW2 1641   2.306   0.396   2.681 -1.8794  4.3604 -0.2449
  548SOL     OW 1642   2.696   2.022   2.546  0.1597 -0.2476  0.1037
  548SOL    HW1 1643   2.639   1.942   2.572 -0.5761  3.2349 -0.6920
  548SOL    HW2 1644   2.777   2.032   2.613  0.3751  2.4866  0.1964
  549SOL     OW 1645   2.352   0.362   0.649  0.6655  0.2027 -0.1694
  549SOL    HW1 1646   2.439   0.415   0.670  0.4529 -1.4719 -0.4066
  549SOL    HW2 1647   2.362   0.307   0.560 -2.4575 -0.6284 -2.6143
  550SOL     OW 1648   2.789   1.170   0.165 -0.5139 -0.6984  0.8679
  550SOL    HW1 1649   2.869   1.214   0.114  1.5572 -2.7001 -1.4195
  550SOL    HW2 1650   2.701   1.198   0.117  0.5211  2.3384 -1.4183
  551SOL     OW 1651   1.300   2.519   1.464  0.1383  0.0717 -0.2563
  551SOL    HW1 1652   1.248   2.576   1.393 -3.0839  0.7397 -0.0687
  551SOL    HW2 1653   1.389   2.481   1.437 -3.2386  0.6611  0.3623
  552SOL     OW 1654   2.755   2.342   2.922  0.1224 -0.5124  0.2221
  552SOL    HW1 1655   2.745   2.406   2.846  1.8920 -2.0899  2.2974
  552SOL    HW2 1656   2.687   2.353   2.995 -1.9666  0.5595 -1.1531
  553SOL     OW 1657   0.669   3.012   0.630  0.0202  0.1447  0.1202
  553SOL    HW1 1658   0.649   0.011   0.690 -2.0347  0.0549 -0.3910
  553SOL    HW2 1659   0.759   3.021   0.579 -0.8822 -0.7189  2.6861
  554SOL     OW 1660   1.795   1.883   1.898 -0.2333 -0.1070  0.4650
  554SOL    HW1 1661   1.832   1.980   1.906  2.1212  0.2963  2.4986
  554SOL    HW2 1662   1.801   1.842   1.990  0.3649 -3.6457  0.3502
  555SOL     OW 1663   1.359   2.466   1.924  0.0660 -0.4466  0.0555
  555SOL    HW1 1664   1.266   2.448   1.891  2.2460  2.1978  2.0979
  555SOL    HW2 1665   1.396   2.554   1.886  0.8039  2.9608  2.4027
  556SOL     OW 1666   1.949   1.441   0.685 -0.0875 -0.1305 -0.3247
  556SOL    HW1 1667   1.935   1.510   0.756 -0.2317 -2.0917  0.6177
  556SOL    HW2 1668   1.971   1.481   0.594  1.0573 -1.0731  0.1306
  557SOL     OW 1669   1.351   2.150   2.115 -0.3390  0.3156  0.0648
  557SOL    HW1 1670   1.267   2.202   2.081 -1.1762 -0.8681 -0.7510
  557SOL    HW2 1671   1.429   2.219   2.135  0.3485  0.8374  1.5754
  558SOL     OW 1672   3.023   0.995   2.391  0.5087  0.1651  0.1953
  558SOL    HW1 1673   0.032   0.959   2.432 -3.2184 -0.3320  0.9431
  558SOL    HW2 1674   2.944   1.001   2.456 -1.3834  0.4354 -0.4686
  559SOL     OW 1675   2.061   2.497   2.072 -0.3306  0.1134  0.1062
  559SOL    HW1 1676   2.010   2.500   1.987 -1.1272  0.9890  0.0468
  559SOL    HW2 1677   2.028   2.569   2.134  1.0020  0.3864 -3.6382
  560SOL     OW 1678   0.238   0.007   2.869  0.4202  0.0479  0.1132
  560SOL    HW1 1679   0.233   0.104   2.901  0.5296 -0.8403  0.2845
  560SOL    HW2 1680   0.150   3.070   2.817  1.9069  0.7323  0.1246
  561SOL     OW 1681   1.715   0.825   0.449  0.0944  0.7933 -0.3585
  561SOL    HW1 1682   1.780   0.758   0.406 -1.0753 -2.7458  2.8609
  561SOL    HW2 1683   1.747   0.844   0.545  0.0528  0.6225  2.0950
  562SOL     OW 1684   0.875   1.101   1.931 -0.6639  0.3340 -0.1661
  562SOL    HW1 1685   0.791   1.056   1.969  3.4820  1.2322  0.4281
  562SOL    HW2 1686   0.928   1.144   2.012  2.1324  1.2436  1.9101
  563SOL     OW 1687   1.618   2.295   0.163  0.3341 -0.5952  0.3611
  563SOL    HW1 1688   1.610   2.244   0.248  0.2067  0.7029  0.6883
  563SOL    HW2 1689   1.526   2.337   0.146  1.0667  1.1181  1.2983
  564SOL     OW 1690   0.388   2.014   0.686 -0.4906 -0.3169 -0.1169
  564SOL    HW1 1691   0.407   2.112   0.722 -0.1976  0.0056 -1.9650
  564SOL    HW2 1692   0.468   1.952   0.696  0.6455 -1.5762  1.8664
  565SOL     OW 1693   0.875   2.937   0.016  0.0329  0.0771 -0.8949
  565SOL    HW1 1694   0.798   2.876   0.004  2.1121 -0.3966  1.1243
  565SOL    HW2 1695   0.845   3.033   0.024  0.2355 -0.6145 -1.7999
  566SOL     OW 1696   1.870   2.505   2.895 -0.3572  0.1868 -0.8423
  566SOL    HW1 1697   1.820   2.462   2.821  3.0198  1.2398 -1.2467
  566SOL    HW2 1698   1.823   2.504   2.985  2.7330 -1.8801  0.0342
  567SOL     OW 1699   2.465   1.756   0.900 -0.1285 -0.1845  0.2494
  567SOL    HW1 1700   2.555   1.718   0.927 -1.7823 -1.4139  2.8207
  567SOL    HW2 1701   2.399   1.711   0.963  0.3251 -0.8915 -0.1443
  568SOL     OW 1702   1.999   0.837   2.532  0.0543 -0.0964 -0.2511
  568SOL    HW1 1703   2.007   0.758   2.473 -0.4339 -1.0206 -1.8671
  568SOL    HW2 1704   1.918   0.893   2.506  2.0777  1.0852 -1.3618
  569SOL     OW 1705   2.202   1.506   2.107  0.1913  0.1601 -0.0189
  569SOL    HW1 1706   2.250   1.563   2.040  0.2757 -2.5625 -0.7827
  569SOL    HW2 1707   2.258   1.473   2.187 -1.4021  1.6557 -2.4934
  570SOL     OW 1708   2.928   2.531   2.094 -0.3827  0.0460  0.1645
  570SOL    HW1 1709   2.965   2.571   2.182 -0.2642  0.6602  0.8372
  570SOL    HW2 1710   2.871   2.604   2.054 -0.8397 -0.9521  1.1893
  571SOL     OW 1711   0.076   0.014   1.674 -0.4528 -0.2964  0.0436
  571SOL    HW1 1712   0.049   3.059   1.769  0.4000 -0.6869  1.1946
  571SOL    HW2 1713   0.059   0.117   1.662  1.4350  2.0629  1.3927
  572SOL     OW 1714   0.756   1.939   0.926 -0.4619  0.4088 -0.2424
  572SOL    HW1 1715   0.680   1.914   0.989 -2.4052 -0.7710 -0.0980
  572SOL    HW2 1716   0.714   1.993   0.851 -1.8419 -0.7857 -1.3018
  573SOL     OW 1717   0.979   0.805   0.131  1.0552  0.1849 -0.7156
  573SOL    HW1 1718   0.941   0.783   0.219 -1.8221 -0.6160  2.7296
  573SOL    HW2 1719   1.063   0.863   0.136  0.1457  0.5691 -1.5734
  574SOL     OW 1720   0.339   0.238   0.314 -0.0609 -0.1130  0.0880
  574SOL    HW1 1721   0.395   0.150   0.324 -0.9983 -1.2753 -0.0661
  574SOL    HW2 1722   0.270   0.214   0.240  0.0458 -2.5832 -0.5969
  575SOL     OW 1723   0.642   1.780   1.341  0.1004 -0.2185  0.7069
  575SOL    HW1 1724   0.723   1.840   1.350 -0.6051  0.3745 -3.3225
  575SOL    HW2 1725   0.669   1.681   1.347  0.6540 -3.7263  0.7001
  576SOL     OW 1726   2.597   0.175   1.962 -0.1610 -0.6942 -0.0959
  576SOL    HW1 1727   2.572   0.243   2.035 -2.2809 -1.6737  2.0407
  576SOL    HW2 1728   2.686   0.131   1.984  0.8180 -0.6935 -1.2403
  577SOL     OW 1729   2.687   1.577   1.978  0.1359 -0.5170 -0.4138
  577SOL    HW1 1730   2.670   1.665   2.025  0.4263  0.1213  0.6756
  577SOL    HW2 1731   2.775   1.577   1.925  0.9546  0.3715 -1.6502
  578SOL     OW 1732   0.810   0.008   2.104 -0.7777 -0.0887  0.2791
  578SOL    HW1 1733   0.878   0.056   2.159  1.1204  2.1057 -0.9001
  578SOL    HW2 1734   0.747   3.039   2.175 -2.7088 -0.8974 -0.4133
  579SOL     OW 1735   2.159   1.952   1.925  0.0841  0.2821  0.3647
  579SOL    HW1 1736   2.086   1.880   1.931 -3.8392 -0.6551 -0.7868
  579SOL    HW2 1737   2.137   2.022   1.989 -2.0148 -2.4218 -0.0456
  580SOL     OW 1738   1.758   1.032   1.980  0.2182  0.3181 -0.1301
  580SOL    HW1 1739   1.748   1.014   1.878  3.0638 -0.9511 -3.8257
  580SOL    HW2 1740   1.785   0.950   2.036  3.2286  0.1400 -0.6359
  581SOL     OW 1741   1.356   1.164   2.420  0.1102  0.2842  0.0496
  581SOL    HW1 1742   1.330   1.233   2.344 -2.6187  0.6065  0.0139
  581SOL    HW2 1743   1.287   1.086   2.402 -0.2442 -0.7043 -1.4141
  582SOL     OW 1744   0.218   2.095   1.978 -0.2337 -0.2609 -0.0131
  582SOL    HW1 1745   0.265   2.071   2.066  0.7104 -0.9130  0.3382
  582SOL    HW2 1746   0.194   2.191   1.965 -0.6417 -0.2675 -0.9010
  583SOL     OW 1747   1.813   1.127   0.605  0.0407  0.3928  0.2577
  583SOL    HW1 1748   1.864   1.051   0.562  1.7474  0.6381 -1.6254
  583SOL    HW2 1749   1.868   1.166   0.681 -1.2134  0.5666 -0.4960
  584SOL     OW 1750   0.966   2.539   0.312 -0.3574  0.0296  0.2040
  584SOL    HW1 1751   0.900   2.508   0.237  1.7768 -0.0562 -1.6925
  584SOL    HW2 1752   1.049   2.576   0.259 -1.0149  1.5771 -2.4177
  585SOL     OW 1753   0.156   2.456   0.147 -0.2551 -0.2424 -0.6553
  585SOL    HW1 1754   0.115   2.368   0.119  0.2052  1.5409  0.8657
  585SOL    HW2 1755   0.167   2.520   0.069 -0.7884  0.9637 -0.5864
  586SOL     OW 1756   2.165   1.314   0.460  0.0038 -1.0221 -0.6639
  586SOL    HW1 1757   2.181   1.287   0.556  2.5198 -0.8364  1.2812
  586SOL    HW2 1758   2.201   1.404   0.434  2.6624 -0.9514 -0.8190
  587SOL     OW 1759   2.957   1.995   0.557 -0.3305  0.8668  0.5140
  587SOL    HW1 1760   3.050   2.011   0.601  1.5871 -1.1209 -0.0066
  587SOL    HW2 1761   2.880   2.045   0.608 -2.5226  0.5255  1.6684
  588SOL     OW 1762   0.027   0.743   0.756 -0.2605 -0.4070 -0.3359
  588SOL    HW1 1763   0.008   0.795   0.842 -1.0466 -1.9883  1.2003
  588SOL    HW2 1764   0.096   0.673   0.779 -1.4854 -0.1499  0.7231
  589SOL     OW 1765   1.545   0.067   0.900  0.2115 -0.2403 -0.0912
  589SOL    HW1 1766   1.480   0.122   0.846 -2.8686  1.1311 -1.2620
  589SOL    HW2 1767   1.637   0.058   0.855  1.4843  0.5464 -0.5751
  590SOL     OW 1768   2.343   2.344   0.240 -0.0540  0.2232 -0.3453
  590SOL    HW1 1769   2.312   2.299   0.325 -0.4732  0.8823 -0.6883
  590SOL    HW2 1770   2.359   2.443   0.257 -0.3850  2.4620 -0.3898
  591SOL     OW 1771   0.491   2.573   1.946 -0.1992  0.3788 -0.4586
  591SOL    HW1 1772   0.539   2.489   1.981 -0.7488  2.5573 -1.1874
  591SOL    HW2 1773   0.491   2.579   1.846 -0.4865  2.0338  0.5536
  592SOL     OW 1774   0.300   1.401   1.970  1.0454  0.1909 -0.5501
  592SOL    HW1 1775   0.297   1.378   2.069  3.3610 -5.2994 -1.2002
  592SOL    HW2 1776   0.324   1.320   1.913 -0.3895  2.3654 -0.3256
  593SOL     OW 1777   1.417   1.776   1.647 -0.0849  0.0660 -0.1939
  593SOL    HW1 1778   1.318   1.785   1.616 -1.3337  1.1437  1.6526
  593SOL    HW2 1779   1.443   1.850   1.707 -1.1434 -2.0706  0.0727
  594SOL     OW 1780   0.411   0.965   2.888  0.1145  0.0208  0.1362
  594SOL    HW1 1781   0.511   0.970   2.855  1.3701 -1.0547 -1.5473
  594SOL    HW2 1782   0.344   0.969   2.809  1.9087  1.2450 -1.2543
  595SOL     OW 1783   1.894   0.199   0.981  0.0012 -0.7904 -0.4634
  595SOL    HW1 1784   1.962   0.256   1.032  2.8653 -1.8349  0.0262
  595SOL    HW2 1785   1.821   0.156   1.038  1.5686 -0.3261 -1.2502
  596SOL     OW 1786   0.408   1.036   1.011 -0.1337  0.7750  0.1667
  596SOL    HW1 1787   0.510   1.054   1.026  1.0061 -3.1674  1.4987
  596SOL    HW2 1788   0.350   1.081   1.085 -1.0759 -1.5817 -0.9391
  597SOL     OW 1789   3.017   2.467   2.936  0.0433 -0.7133 -0.2747
  597SOL    HW1 1790   2.951   2.390   2.966 -0.3097 -3.0687  2.7041
  597SOL    HW2 1791   2.976   2.521   2.861  0.3248 -1.4825 -0.0797
  598SOL     OW 1792   2.185   2.061   2.514 -0.7693  0.0585  0.0270
  598SOL    HW1 1793   2.168   2.113   2.430 -0.8038  0.2830 -1.6501
  598SOL    HW2 1794   2.232   2.115   2.586 -0.6526 -0.4861 -2.6107
  599SOL     OW 1795   1.431   0.729   0.489 -0.7110 -0.2016  0.1460
  599SOL    HW1 1796   1.429   0.632   0.520 -2.6361  0.3538  0.7782
  599SOL    HW2 1797   1.522   0.760   0.454  1.5615 -1.5583 -1.9980
  600SOL     OW 1798   1.104   0.244   0.257 -0.1584 -0.6135  0.5957
  600SOL    HW1 1799   1.005   0.240   0.229 -0.1745 -2.2964 -1.2989
  600SOL    HW2 1800   1.168   0.299   0.195  0.1039 -0.1941  1.6698
  601SOL     OW 1801   0.372   0.156   1.461 -0.2877  0.8271  1.2736
  601SOL    HW1 1802   0.442   0.226   1.486  0.9804  0.8335 -0.4414
  601SOL    HW2 1803   0.304   0.206   1.408  1.8176 -0.3978  0.4171
  602SOL     OW 1804   0.242   2.816   0.667 -0.2713  0.1543  0.2357
  602SOL    HW1 1805   0.320   2.773   0.616  1.6534 -2.6659  0.1535
  602SOL    HW2 1806   0.158   2.758   0.660 -0.1254 -0.7717  0.1278
  603SOL     OW 1807   0.758   2.761   2.364 -0.3262  0.1767 -0.1659
  603SOL    HW1 1808   0.712   2.853   2.332  0.4124  3.8220  1.7684
  603SOL    HW2 1809   0.698   2.675   2.361 -2.6193 -2.3374 -1.9202
  604SOL     OW 1810   1.161   2.648   0.159  0.1147 -0.3034  0.3003
  604SOL    HW1 1811   1.256   2.653   0.203 -0.3344 -1.5173 -0.4078
  604SOL    HW2 1812   1.151   2.711   0.078 -2.2084  0.5399  0.6393
  605SOL     OW 1813   1.734   0.990   1.688  0.1454 -0.0618 -0.4179
  605SOL    HW1 1814   1.644   1.031   1.660  1.5153 -0.3492  0.4153
  605SOL    HW2 1815   1.806   1.015   1.623 -1.8137  0.6492 -3.2747
  606SOL     OW 1816   0.914   0.739   2.312 -0.2497 -0.4560 -0.2899
  606SOL    HW1 1817   0.993   0.672   2.320  2.6847 -0.4756  0.0184
  606SOL    HW2 1818   0.951   0.838   2.301  0.5664 -0.2625 -1.5941
  607SOL     OW 1819   0.437   1.305   1.125  0.0176 -0.0514 -0.1475
  607SOL    HW1 1820   0.349   1.259   1.107  0.4385 -2.5752  3.2581
  607SOL    HW2 1821   0.457   1.385   1.058 -0.0732  2.8495 -0.3947
  608SOL     OW 1822   2.656   2.239   2.381  0.6600  0.4236 -0.2734
  608SOL    HW1 1823   2.729   2.305   2.407 -1.1378  1.4249 -2.4350
  608SOL    HW2 1824   2.641   2.166   2.447  0.5351 -0.4991 -0.4290
  609SOL     OW 1825   1.952   3.054   0.084  0.7921 -0.4359  0.7431
  609SOL    HW1 1826   1.884   0.048   0.059  0.0750 -1.8055  1.1819
  609SOL    HW2 1827   2.032   0.022   0.129 -1.6448  2.0988  0.9130
  610SOL     OW 1828   0.457   2.750   1.444 -0.2904 -0.0415 -0.4160
  610SOL    HW1 1829   0.371   2.700   1.436  0.0050 -3.1209  0.5509
  610SOL    HW2 1830   0.536   2.705   1.405  1.6277  0.0272 -0.9817
  611SOL     OW 1831   1.109   1.579   0.682 -0.4380  0.2097 -0.4458
  611SOL    HW1 1832   1.023   1.632   0.679  1.8947 -1.3914  1.3940
  611SOL    HW2 1833   1.137   1.552   0.587  0.3483 -0.5855 -0.1535
  612SOL     OW 1834   0.625   0.037   2.530 -0.0534 -0.0253 -0.3488
  612SOL    HW1 1835   0.641   0.131   2.496  0.8295  2.0361  1.0838
  612SOL    HW2 1836   0.693   0.007   2.598  0.6950  2.1800 -2.1180
  613SOL     OW 1837   2.713   1.826   0.486 -0.3095  0.1927  0.1314
  613SOL    HW1 1838   2.719   1.738   0.543 -0.8420 -1.9992  1.1087
  613SOL    HW2 1839   2.791   1.885   0.514 -0.0561 -0.1485 -0.9814
  614SOL     OW 1840   1.628   0.183   1.704 -0.2280  0.0739  0.2224
  614SOL    HW1 1841   1.559   0.247   1.672 -0.3036  0.2173  1.6062
  614SOL    HW2 1842   1.714   0.170   1.644  2.2827 -1.4943 -2.2630
  615SOL     OW 1843   0.977   1.552   1.328 -0.2056 -0.4509 -0.3594
  615SOL    HW1 1844   1.028   1.477   1.279 -0.9241 -0.2263 -0.1118
  615SOL    HW2 1845   1.025   1.579   1.415  2.1893  0.0049  0.3212
  616SOL     OW 1846   1.519   1.376   3.013  0.1994  0.1413  0.3272
  616SOL    HW1 1847   1.585   1.305   3.049  1.4912 -1.7985  2.2219
  616SOL    HW2 1848   1.555   1.472   3.037 -0.3739  3.0391  0.9275
  617SOL     OW 1849   1.620   2.749   0.204 -0.0453 -0.2256  0.2274
  617SOL    HW1 1850   1.547   2.745   0.131 -2.0001  2.9637  0.0210
  617SOL    HW2 1851   1.621   2.668   0.256 -2.0516  1.0401 -2.9325
  618SOL     OW 1852   1.016   0.629   2.618  0.4461  0.8373 -0.1113
  618SOL    HW1 1853   0.961   0.684   2.680 -0.6720 -0.0568 -2.2098
  618SOL    HW2 1854   1.100   0.684   2.581  0.0377  0.8281 -1.6252
  619SOL     OW 1855   2.573   1.420   0.595  0.0067 -0.6155  0.9169
  619SOL    HW1 1856   2.596   1.350   0.529  1.2453 -0.5164  3.4376
  619SOL    HW2 1857   2.487   1.472   0.574  0.8840  2.8100  1.3708
  620SOL     OW 1858   2.457   2.577   3.035 -0.5169 -0.2982 -0.0590
  620SOL    HW1 1859   2.424   2.629   2.952 -2.2417  0.5755 -0.5303
  620SOL    HW2 1860   2.378   2.542   0.016 -2.1358 -0.1490  1.5830
  621SOL     OW 1861   2.461   1.258   0.188  0.1064  0.3966  0.5082
  621SOL    HW1 1862   2.390   1.194   0.221  0.2882  2.9387 -1.0747
  621SOL    HW2 1863   2.471   1.254   0.087  3.0501  0.1073  3.3252
  622SOL     OW 1864   1.330   2.475   2.345  0.7358  0.2870 -0.3293
  622SOL    HW1 1865   1.270   2.398   2.373  1.4104 -0.6065  0.6367
  622SOL    HW2 1866   1.405   2.442   2.285 -0.2101  1.0367  1.0915
  623SOL     OW 1867   0.799   1.675   0.139 -0.3616 -0.0242 -0.8188
  623SOL    HW1 1868   0.851   1.636   0.063 -2.1519  2.5232 -0.9528
  623SOL    HW2 1869   0.732   1.744   0.106 -0.7457  0.1849 -1.5966
  624SOL     OW 1870   0.518   0.136   2.839 -0.5417  0.8789  0.1436
  624SOL    HW1 1871   0.549   0.160   2.937  1.3104  2.5480 -0.2856
  624SOL    HW2 1872   0.600   0.103   2.787  0.2366 -1.0657 -0.2899
  625SOL     OW 1873   0.983   1.945   0.534  0.2348  0.0022 -0.6855
  625SOL    HW1 1874   0.953   2.029   0.582 -1.3443 -1.2282  1.5996
  625SOL    HW2 1875   1.034   1.964   0.448  1.3590  2.4346 -2.9680
  626SOL     OW 1876   2.604   2.960   2.911 -0.0624 -0.3086 -0.2916
  626SOL    HW1 1877   2.530   3.021   2.878 -0.9787 -2.0691 -1.1060
  626SOL    HW2 1878   2.569   2.903   2.988  0.6224  0.2269 -0.9075
  627SOL     OW 1879   1.601   1.269   2.526 -0.1118  0.1079  0.6781
  627SOL    HW1 1880   1.513   1.235   2.490  0.4301 -1.2053 -1.4192
  627SOL    HW2 1881   1.623   1.221   2.614 -0.7775  2.0056 -2.8178
  628SOL     OW 1882   0.434   0.665   2.186 -0.2690 -0.1411  0.0543
  628SOL    HW1 1883   0.421   0.703   2.277 -0.0698  1.9639 -2.8618
  628SOL    HW2 1884   0.533   0.662   2.166 -2.7707  2.4969  1.9412
  629SOL     OW 1885   0.119   2.770   1.767 -0.0515  0.2090 -0.3912
  629SOL    HW1 1886   0.220   2.775   1.764 -0.2472  1.8280 -1.6901
  629SOL    HW2 1887   0.088   2.769   1.671 -0.0557  1.2599 -0.4403
  630SOL     OW 1888   1.677   0.759   1.839 -0.3470 -0.1744  0.1718
  630SOL    HW1 1889   1.686   0.671   1.785  1.2528 -2.4595 -1.0896
  630SOL    HW2 1890   1.716   0.839   1.786  0.6386  1.5838 -1.4426
  631SOL     OW 1891   2.263   1.101   0.274 -0.0579  0.2230 -1.1502
  631SOL    HW1 1892   2.291   1.017   0.323  0.9902  1.5276  2.2469
  631SOL    HW2 1893   2.213   1.162   0.342  1.0521  2.9379 -0.8833
  632SOL     OW 1894   2.091   0.181   2.020 -0.0798 -0.3763  0.0355
  632SOL    HW1 1895   2.001   0.174   1.965 -2.1943 -0.8716  1.0225
  632SOL    HW2 1896   2.156   0.259   1.994  2.9944  1.7524 -1.2650
  633SOL     OW 1897   0.918   2.814   0.252  0.9018  0.2873 -0.3932
  633SOL    HW1 1898   0.918   2.867   0.162 -0.3586 -0.2308  0.3688
  633SOL    HW2 1899   0.949   2.720   0.238 -0.6921  2.5394 -0.9845
  634SOL     OW 1900   1.311   2.529   2.617 -0.2858 -0.2714 -0.0935
  634SOL    HW1 1901   1.331   2.495   2.521  0.5373 -3.5938  1.7394
  634SOL    HW2 1902   1.405   2.553   2.660 -0.4646  0.0110 -0.9091
  635SOL     OW 1903   2.344   0.058   0.038  0.7516 -0.6611  0.2496
  635SOL    HW1 1904   2.375   0.156   0.038 -0.9694  0.2511 -0.6871
  635SOL    HW2 1905   2.294   0.031   3.030  1.4189 -2.7129  1.8993
  636SOL     OW 1906   0.887   1.322   0.943  0.6595 -0.2807 -0.5121
  636SOL    HW1 1907   0.982   1.288   0.954 -0.4902  1.3762 -2.5220
  636SOL    HW2 1908   0.863   1.302   0.844  1.5237 -0.3311 -0.6579
  637SOL     OW 1909   0.380   2.431   0.545  0.6359 -0.1002 -0.0485
  637SOL    HW1 1910   0.422   2.506   0.597  0.2016  1.3668 -1.0906
  637SOL    HW2 1911   0.389   2.439   0.444  1.0985 -0.7952 -0.2545
  638SOL     OW 1912   0.476   3.063   0.389 -0.3059  0.1987 -0.1668
  638SOL    HW1 1913   0.510   3.061   0.485 -0.5023 -0.8679  0.7636
  638SOL    HW2 1914   0.475   2.970   0.351  1.9981 -0.0072  1.2136
  639SOL     OW 1915   1.125   1.498   0.380  0.1423 -0.1068 -0.2278
  639SOL    HW1 1916   1.160   1.431   0.311 -0.6651  1.5236 -0.1523
  639SOL    HW2 1917   1.098   1.586   0.334 -1.0026 -1.6868 -1.2892
  640SOL     OW 1918   1.382   2.712   1.077 -0.0619 -0.5800  0.2192
  640SOL    HW1 1919   1.442   2.643   1.121  0.8551 -1.7078  2.7982
  640SOL    HW2 1920   1.400   2.724   0.979 -2.7802 -1.2545 -1.9511
  641SOL     OW 1921   2.993   2.449   0.605  0.1684 -0.5203  0.3000
  641SOL    HW1 1922   0.000   2.397   0.576  2.5100 -0.4418  0.1437
  641SOL    HW2 1923   2.949   2.467   0.512  0.6322 -1.8167 -1.8077
  642SOL     OW 1924   0.897   0.188   1.640  0.0977 -0.1860 -0.5206
  642SOL    HW1 1925   0.810   0.233   1.675 -2.2600 -1.1944 -1.2848
  642SOL    HW2 1926   0.978   0.232   1.686  3.8383 -1.1463  0.2965
  643SOL     OW 1927   0.696   1.828   2.206 -0.5754  0.4968  0.4203
  643SOL    HW1 1928   0.630   1.862   2.133  0.3345 -0.3878  2.8654
  643SOL    HW2 1929   0.652   1.829   2.301  0.5018  3.9394 -0.2252
  644SOL     OW 1930   0.864   2.976   0.453 -0.1001 -0.3570 -0.4223
  644SOL    HW1 1931   0.888   2.913   0.378 -0.9860 -1.9540  2.7052
  644SOL    HW2 1932   0.941   2.990   0.521  0.2900  2.0922  1.6330
  645SOL     OW 1933   1.118   1.551   2.777  0.0176  0.0361  0.1471
  645SOL    HW1 1934   1.115   1.649   2.747 -0.8552  1.3079 -0.9253
  645SOL    HW2 1935   1.211   1.511   2.756  1.8252 -0.8266 -1.2264
  646SOL     OW 1936   0.587   1.356   0.098 -0.5091  1.0950 -0.1418
  646SOL    HW1 1937   0.578   1.319   0.192 -0.2191 -0.2953 -0.9433
  646SOL    HW2 1938   0.534   1.442   0.086 -0.1445  1.4958  1.6974
  647SOL     OW 1939   1.071   3.054   1.027 -0.4084 -0.6901  0.0592
  647SOL    HW1 1940   1.118   0.047   1.091 -2.0490  0.6245  2.2573
  647SOL    HW2 1941   1.133   3.019   0.958  2.4329 -0.3882 -3.0402
  648SOL     OW 1942   2.768   2.737   1.992  0.2574 -0.7315  0.0725
  648SOL    HW1 1943   2.688   2.791   2.023  0.1148  1.4826 -1.2839
  648SOL    HW2 1944   2.839   2.802   1.959 -2.2464 -0.3002 -3.9076
  649SOL     OW 1945   0.564   2.345   3.055 -0.4002  0.2656 -0.0578
  649SOL    HW1 1946   0.563   2.311   2.961  1.7193 -0.1781  0.4845
  649SOL    HW2 1947   0.474   2.326   0.024 -3.3888 -1.5441  0.7036
  650SOL     OW 1948   0.229   1.965   1.604  0.2190  0.7839  0.5111
  650SOL    HW1 1949   0.266   1.869   1.619  1.4461  2.8192 -0.6127
  650SOL    HW2 1950   0.249   1.998   1.511  0.1859 -2.1259  1.5334
  651SOL     OW 1951   0.559   0.162   0.045 -0.1923  0.2858 -0.1187
  651SOL    HW1 1952   0.504   0.248   0.052  0.1740  1.3033  1.2553
  651SOL    HW2 1953   0.560   0.120   0.140 -1.1854 -1.3887  0.5616
  652SOL     OW 1954   2.450   1.756   0.391 -0.6168  0.1313  0.2887
  652SOL    HW1 1955   2.460   1.662   0.357 -2.3600  2.0158  1.4780
  652SOL    HW2 1956   2.532   1.779   0.449 -1.6966  2.1960  3.5730
  653SOL     OW 1957   2.969   0.078   0.903  0.1263 -0.3814  0.0067
  653SOL    HW1 1958   3.019   0.141   0.965 -0.4877 -0.0318  2.0440
  653SOL    HW2 1959   3.029   0.030   0.834 -3.4751  0.2723 -2.5653
  654SOL     OW 1960   1.548   0.201   2.525  1.0526 -0.0963 -0.3396
  654SOL    HW1 1961   1.555   0.241   2.619 -1.4617 -1.1257 -0.9412
  654SOL    HW2 1962   1.622   0.134   2.518 -1.4066  2.1457  1.0101
  655SOL     OW 1963   1.067   2.368   1.473  0.3045 -0.5152  0.1707
  655SOL    HW1 1964   1.162   2.416   1.480 -0.0187 -0.9310 -0.0570
  655SOL    HW2 1965   1.066   2.326   1.380  1.1656  2.2212  1.3731
  656SOL     OW 1966   0.347   2.998   2.178 -0.0334 -0.6313  0.8015
  656SOL    HW1 1967   0.264   2.942   2.172  2.1694 -0.2351 -2.1849
  656SOL    HW2 1968   0.370   3.029   2.088  1.2472 -1.5743 -0.5731
  657SOL     OW 1969   2.073   0.621   1.892  0.4846 -0.0758  0.1726
  657SOL    HW1 1970   1.984   0.614   1.939  0.0138  1.2380 -1.0117
  657SOL    HW2 1971   2.064   0.576   1.802  1.2339 -2.1474  0.8608
  658SOL     OW 1972   2.085   1.765   1.233  0.1855 -0.3529 -0.7685
  658SOL    HW1 1973   2.172   1.724   1.275  0.3704  2.8513 -1.1952
  658SOL    HW2 1974   2.076   1.735   1.136  0.7461  0.9620 -0.7033
  659SOL     OW 1975   2.582   2.786   0.079 -0.5717  0.3518  0.3267
  659SOL    HW1 1976   2.682   2.772   0.093 -2.5375  1.0466  0.1246
  659SOL    HW2 1977   2.532   2.713   0.036 -1.2062 -0.2502  0.8041
  660SOL     OW 1978   1.024   1.212   2.597  0.1970  0.7195  0.4172
  660SOL    HW1 1979   0.973   1.287   2.644 -1.2953 -1.0726 -0.5508
  660SOL    HW2 1980   1.112   1.190   2.646  1.4609 -1.5821  1.9173
  661SOL     OW 1981   2.168   2.473   0.989 -0.0601  0.2936  0.0623
  661SOL    HW1 1982   2.174   2.506   1.087  1.4902  1.6509  1.6020
  661SOL    HW2 1983   2.160   2.371   0.985  0.8273 -3.5142 -1.2396
  662SOL     OW 1984   0.545   0.820   0.280  0.2879 -0.1253 -0.2105
  662SOL    HW1 1985   0.472   0.792   0.348  2.2726 -0.1437  1.3886
  662SOL    HW2 1986   0.510   0.822   0.184 -1.9567  0.2853 -1.9147
  663SOL     OW 1987   1.058   2.215   0.009 -0.2434 -0.3545  0.1541
  663SOL    HW1 1988   1.144   2.178   0.048  1.5857 -2.0885  0.2663
  663SOL    HW2 1989   1.056   2.319   0.005 -2.1007  3.6753 -1.4814
  664SOL     OW 1990   0.643   2.978   1.521  0.3259  0.0857  0.0240
  664SOL    HW1 1991   0.571   2.903   1.516  0.6292 -0.6631  2.6088
  664SOL    HW2 1992   0.697   2.964   1.607  0.9794 -1.7856 -1.3300
  665SOL     OW 1993   1.766   1.573   1.902  0.4532 -0.0938 -0.2346
  665SOL    HW1 1994   1.682   1.582   1.843 -2.8072  0.6924  1.4925
  665SOL    HW2 1995   1.795   1.474   1.914  1.5535  0.7033 -0.9715
  666SOL     OW 1996   0.435   2.814   0.302  0.8024 -0.4183 -0.5021
  666SOL    HW1 1997   0.349   2.852   0.253 -3.1039  0.3873  0.6172
  666SOL    HW2 1998   0.484   2.745   0.252  0.1069 -0.7445 -0.3945
  667SOL     OW 1999   1.608   1.788   1.460 -0.0645 -0.3690 -0.3351
  667SOL    HW1 2000   1.686   1.725   1.494  1.7857  1.3572  1.8575
  667SOL    HW2 2001   1.527   1.780   1.518  0.9086 -0.1799 -2.0936
  668SOL     OW 2002   0.373   0.400   2.030  0.3442 -0.4717  0.8616
  668SOL    HW1 2003   0.332   0.487   2.057  1.1606 -2.5660 -0.6089
  668SOL    HW2 2004   0.423   0.361   2.110 -0.1639 -1.8900 -1.8470
  669SOL     OW 2005   1.840   1.937   2.175  0.1816  0.4013 -0.8264
  669SOL    HW1 2006   1.906   1.987   2.230 -0.7015 -1.0043  0.8275
  669SOL    HW2 2007   1.830   1.841   2.192 -0.0937  3.5004  1.3141
  670SOL     OW 2008   2.217   2.215   0.455  0.8976 -0.1233 -0.1643
  670SOL    HW1 2009   2.277   2.132   0.457 -0.3727  1.0142 -0.1039
  670SOL    HW2 2010   2.191   2.241   0.547  1.0591 -1.1359  0.7264
  671SOL     OW 2011   0.682   1.324   1.219 -0.2904 -0.4534  0.2064
  671SOL    HW1 2012   0.712   1.402   1.157  1.7705 -0.5982  2.8241
  671SOL    HW2 2013   0.587   1.304   1.206 -1.0895  2.2439  3.0145
  672SOL     OW 2014   2.670   1.324   2.079 -0.0004  0.1109 -0.5918
  672SOL    HW1 2015   2.689   1.422   2.048  0.4952 -1.6858  0.5498
  672SOL    HW2 2016   2.745   1.254   2.058  0.0643  1.3210 -0.8583
  673SOL     OW 2017   2.897   1.577   2.310  0.0857  0.8040 -0.3369
  673SOL    HW1 2018   2.798   1.604   2.310 -1.2813  3.0006 -1.8981
  673SOL    HW2 2019   2.947   1.622   2.389  1.6142  1.0418  0.2365
  674SOL     OW 2020   0.995   2.459   2.152  0.1208 -0.3408 -0.4655
  674SOL    HW1 2021   1.062   2.485   2.220 -0.1235 -1.4184  0.3224
  674SOL    HW2 2022   0.963   2.537   2.100 -2.2572 -2.2906  1.9797
  675SOL     OW 2023   0.691   0.797   1.385  0.2420 -0.0719 -0.5048
  675SOL    HW1 2024   0.743   0.780   1.472  1.5727  1.5554 -0.4676
  675SOL    HW2 2025   0.623   0.864   1.406  2.7823 -3.2214 -2.1446
  676SOL     OW 2026   1.990   0.971   0.487 -0.2260  0.1676 -0.1998
  676SOL    HW1 2027   1.973   0.903   0.416  0.7412 -1.3868  0.5189
  676SOL    HW2 2028   1.991   1.066   0.447 -1.8552 -1.6561  0.7406
  677SOL     OW 2029   0.029   1.592   2.835 -0.1796  0.3866 -0.8066
  677SOL    HW1 2030   3.028   1.547   2.885  0.1195  0.6948  0.2872
  677SOL    HW2 2031   0.087   1.523   2.790  0.1712 -0.3413  1.6414
  678SOL     OW 2032   2.971   2.692   1.591 -0.2562  0.1905  0.1526
  678SOL    HW1 2033   2.941   2.696   1.493 -0.4006  1.7059 -1.1104
  678SOL    HW2 2034   2.945   2.599   1.627 -1.3627 -0.1176  0.4403
  679SOL     OW 2035   2.264   2.880   0.621  0.5408 -0.0207  0.3652
  679SOL    HW1 2036   2.261   2.964   0.561 -1.4462  0.7667 -2.1080
  679SOL    HW2 2037   2.363   2.861   0.642  1.7290 -0.3895 -3.6075
  680SOL     OW 2038   0.230   2.316   2.238  0.2609 -0.5016 -0.1662
  680SOL    HW1 2039   0.321   2.296   2.274 -0.1057  3.4543 -0.6932
  680SOL    HW2 2040   0.242   2.359   2.148 -1.7051 -1.5956 -0.1457
  681SOL     OW 2041   0.372   1.455   1.348  0.3785 -0.4896 -0.6852
  681SOL    HW1 2042   0.369   1.396   1.266 -0.0557  0.0235 -0.5678
  681SOL    HW2 2043   0.418   1.418   1.430 -1.2589 -1.9124  2.2008
  682SOL     OW 2044   0.305   2.109   1.389 -0.2963  0.7979  0.0642
  682SOL    HW1 2045   0.330   2.086   1.294 -0.2895  0.9196  2.7886
  682SOL    HW2 2046   0.231   2.181   1.391 -0.4460 -2.2669 -0.9195
  683SOL     OW 2047   3.045   1.731   1.535  0.1702 -0.7206 -0.0259
  683SOL    HW1 2048   2.953   1.703   1.568  0.1727 -1.2611  0.8594
  683SOL    HW2 2049   0.023   1.651   1.512 -1.1959  0.7426 -2.0692
  684SOL     OW 2050   3.065   1.698   0.075  0.4222 -0.0447 -0.1726
  684SOL    HW1 2051   0.057   1.625   0.079 -0.4050 -3.6017  2.1146
  684SOL    HW2 2052   2.997   1.690   0.000  0.3510  1.0026 -3.8243
  685SOL     OW 2053   1.163   0.678   0.620  0.4984 -1.0495 -0.7499
  685SOL    HW1 2054   1.071   0.641   0.582 -0.8079 -2.7710  0.4927
  685SOL    HW2 2055   1.228   0.693   0.543 -1.4092  2.1010 -3.3540
  686SOL     OW 2056   0.144   2.993   1.112 -0.1881 -0.1058  0.1338
  686SOL    HW1 2057   0.213   2.974   1.185 -0.0595 -2.2788 -1.0193
  686SOL    HW2 2058   0.171   2.933   1.035 -0.3622  1.1551  0.4576
  687SOL     OW 2059   0.998   1.213   2.131 -0.3343 -0.3234 -0.4691
  687SOL    HW1 2060   1.093   1.252   2.139 -2.4774  2.5152  1.4466
  687SOL    HW2 2061   0.966   1.191   2.227 -1.0601  2.5786  4.0976
  688SOL     OW 2062   0.894   1.932   1.803 -0.0863  0.6299 -0.3971
  688SOL    HW1 2063   0.795   1.902   1.795 -1.3875  0.9772  1.2082
  688SOL    HW2 2064   0.916   1.953   1.898 -0.9079  1.3426 -0.9764
  689SOL     OW 2065   2.066   0.382   1.143 -0.0264 -0.0155  0.3240
  689SOL    HW1 2066   2.137   0.346   1.208  1.6777  2.0761  1.5655
  689SOL    HW2 2067   1.990   0.434   1.194 -1.5509  0.6161  3.5212
  690SOL     OW 2068   2.831   1.288   0.911  0.1645  0.1634 -0.3510
  690SOL    HW1 2069   2.887   1.357   0.865 -1.3999  1.1877 -0.6294
  690SOL    HW2 2070   2.842   1.285   1.011 -0.3001  4.9092 -1.6565
  691SOL     OW 2071   0.072   2.435   1.613  0.3752  0.2869 -0.1210
  691SOL    HW1 2072   0.016   2.361   1.566  2.8516 -1.1548 -0.8331
  691SOL    HW2 2073   0.053   2.449   1.714  1.8358 -0.6269  0.9060
  692SOL     OW 2074   1.907   2.760   1.277 -0.2579 -0.1131  0.2707
  692SOL    HW1 2075   1.932   2.812   1.194  1.9501  2.3701  0.7684
  692SOL    HW2 2076   1.953   2.805   1.358 -0.1452  0.5038 -0.0708
  693SOL     OW 2077   0.403   1.492   2.586 -0.1971  0.1087 -0.4376
  693SOL    HW1 2078   0.477   1.560   2.586 -0.8209  0.7202  0.6264
  693SOL    HW2 2079   0.337   1.514   2.512  2.2129 -1.7386  0.9740
  694SOL     OW 2080   1.847   0.897   1.191  0.1050  0.6249 -0.4925
  694SOL    HW1 2081   1.922   0.896   1.262 -1.2830  0.1676 -1.7645
  694SOL    HW2 2082   1.792   0.811   1.189  0.4677  3.7629  0.0822
  695SOL     OW 2083   0.965   0.900   1.338  0.3148 -0.2924  0.7515
  695SOL    HW1 2084   0.870   0.935   1.343  2.4418  0.9483  0.7003
  695SOL    HW2 2085   0.995   0.896   1.436 -0.6223  1.4404 -1.5996
  696SOL     OW 2086   1.740   3.077   0.714 -0.7375 -0.3951 -0.2879
  696SOL    HW1 2087   1.685   3.008   0.659 -0.2088  0.8165  0.5068
  696SOL    HW2 2088   1.761   0.081   0.662  0.8855 -2.1534  0.3803
  697SOL     OW 2089   0.842   0.146   0.955  0.6043  0.3753  0.8103
  697SOL    HW1 2090   0.924   0.085   0.972 -0.9308  0.2917 -2.8553
  697SOL    HW2 2091   0.775   0.146   1.038 -2.0333  0.3271  1.6069
  698SOL     OW 2092   1.611   1.113   2.189  0.3569 -0.4409  0.2637
  698SOL    HW1 2093   1.660   1.084   2.101 -1.5276 -0.1230 -0.3076
  698SOL    HW2 2094   1.638   1.207   2.218 -0.8045  0.7803  0.8886
  699SOL     OW 2095   1.546   0.732   0.883 -0.4264 -0.1740 -0.3884
  699SOL    HW1 2096   1.628   0.743   0.823  1.1331  1.1395  1.2387
  699SOL    HW2 2097   1.485   0.816   0.877  0.4747 -1.7784 -0.4401
  700SOL     OW 2098   1.369   2.604   0.324 -0.4975  0.1549 -0.7357
  700SOL    HW1 2099   1.353   2.676   0.397  0.7892  1.5976  2.5617
  700SOL    HW2 2100   1.455   2.551   0.351  0.8801  0.2272  0.0589
  701SOL     OW 2101   2.189   2.492   3.064  0.3151 -0.1612  0.3405
  701SOL    HW1 2102   2.111   2.529   0.039  2.6633 -1.7362  0.2621
  701SOL    HW2 2103   2.160   2.419   2.999 -0.0391 -1.0769 -0.7120
  702SOL     OW 2104   0.886   0.442   0.864 -0.1324 -0.1490 -0.5473
  702SOL    HW1 2105   0.857   0.346   0.887 -0.0617 -1.2936  0.9706
  702SOL    HW2 2106   0.864   0.506   0.940 -0.2830  2.8066  1.5785
  703SOL     OW 2107   2.364   0.457   2.194 -0.1769 -0.2828 -0.0278
  703SOL    HW1 2108   2.316   0.408   2.266  3.7334 -0.5648  0.2237
  703SOL    HW2 2109   2.316   0.544   2.169 -1.7629  0.0057  0.2555
  704SOL     OW 2110   0.122   2.291   0.517  0.5456  0.1457 -0.3835
  704SOL    HW1 2111   0.141   2.220   0.452  1.3022  0.5186  1.7373
  704SOL    HW2 2112   0.213   2.331   0.548  0.5391 -1.4577 -0.8389
  705SOL     OW 2113   2.689   2.521   2.241  0.1867 -0.3186 -0.2100
  705SOL    HW1 2114   2.750   2.478   2.309  1.7045  1.5067 -1.7591
  705SOL    HW2 2115   2.703   2.489   2.141 -1.8039 -2.2740 -1.8482
  706SOL     OW 2116   2.319   2.672   0.874 -0.4755  0.2414 -0.4556
  706SOL    HW1 2117   2.246   2.608   0.904 -0.8625 -1.3168  1.0615
  706SOL    HW2 2118   2.381   2.640   0.798 -1.6443  0.9531 -1.3819
  707SOL     OW 2119   0.703   2.343   2.189  0.2403 -0.6506  0.1700
  707SOL    HW1 2120   0.649   2.310   2.107 -2.0537  1.8519 -2.4508
  707SOL    HW2 2121   0.788   2.390   2.162 -1.5352  0.2205  1.3724
  708SOL     OW 2122   0.011   2.255   2.391 -0.4152 -0.0858 -0.5063
  708SOL    HW1 2123   3.065   2.158   2.409 -1.9950 -2.0569 -0.8150
  708SOL    HW2 2124   0.082   2.258   2.314  0.0747 -3.1891 -0.3707
  709SOL     OW 2125   1.977   2.786   2.124  0.5720 -0.0989 -0.1575
  709SOL    HW1 2126   1.986   2.790   2.022 -0.2626  1.2818  0.2465
  709SOL    HW2 2127   1.928   2.871   2.158 -2.2016  0.0778 -1.1910
  710SOL     OW 2128   1.564   0.701   2.348  0.7075  0.3761  0.4604
  710SOL    HW1 2129   1.628   0.658   2.411  4.1200 -3.2461 -1.7689
  710SOL    HW2 2130   1.549   0.647   2.264 -0.1124  2.2468 -0.7173
  711SOL     OW 2131   0.721   1.951   2.862 -0.4014  0.7136 -0.1313
  711SOL    HW1 2132   0.764   1.959   2.956  1.0745  2.3260  0.9500
  711SOL    HW2 2133   0.618   1.937   2.866 -2.9015 -1.2490  1.7748
  712SOL     OW 2134   0.673   2.489   2.634 -0.5069  0.6502 -0.2269
  712SOL    HW1 2135   0.696   2.583   2.668  0.9197 -1.9124  0.3656
  712SOL    HW2 2136   0.643   2.482   2.537  3.0945  1.5530  1.5180
  713SOL     OW 2137   1.733   1.176   2.745  0.1802 -0.3755  0.1111
  713SOL    HW1 2138   1.810   1.153   2.688  1.9908 -0.6556  1.0221
  713SOL    HW2 2139   1.769   1.238   2.821  0.4259  1.6361 -1.2895
  714SOL     OW 2140   1.416   1.348   1.888  0.3835  0.2395  0.1085
  714SOL    HW1 2141   1.453   1.394   1.803  1.6938 -0.3704  0.6148
  714SOL    HW2 2142   1.442   1.396   1.972 -0.7161  0.1850 -3.2218
  715SOL     OW 2143   2.055   0.604   2.399 -0.1872  0.2174  0.3478
  715SOL    HW1 2144   2.139   0.574   2.452  0.9284 -2.0745  0.1269
  715SOL    HW2 2145   2.078   0.633   2.304  1.0393  0.0715 -0.3241
  716SOL     OW 2146   2.891   2.288   1.889  0.0052 -0.0836  0.1134
  716SOL    HW1 2147   2.922   2.190   1.897  0.0346  1.8138  0.2433
  716SOL    HW2 2148   2.939   2.343   1.957  0.0505  3.5452 -1.8891
  717SOL     OW 2149   2.572   1.311   0.864  0.1998 -0.1208  0.3291
  717SOL    HW1 2150   2.663   1.288   0.895 -1.6484 -0.2607  2.0275
  717SOL    HW2 2151   2.571   1.330   0.764  0.5758 -2.3306  2.1359
  718SOL     OW 2152   0.868   1.630   2.247  0.1917 -0.0983 -0.3103
  718SOL    HW1 2153   0.801   1.702   2.220  0.0693 -0.9343 -1.0362
  718SOL    HW2 2154   0.921   1.600   2.170  0.3732 -0.8835  0.3305
  719SOL     OW 2155   2.028   0.814   2.814 -0.3015  0.0503  0.3006
  719SOL    HW1 2156   2.015   0.820   2.711  1.6370  1.7769 -0.8966
  719SOL    HW2 2157   2.006   0.907   2.854  0.8854  4.4210  2.9733
  720SOL     OW 2158   0.514   0.608   0.694 -0.1707  0.2434 -0.4096
  720SOL    HW1 2159   0.551   0.652   0.774 -0.2114 -2.6431  1.6089
  720SOL    HW2 2160   0.485   0.514   0.719  0.1103 -0.2247  0.3178
  721SOL     OW 2161   2.752   0.717   0.398  0.0397 -0.3958  0.3088
  721SOL    HW1 2162   2.674   0.779   0.410  1.4682  2.0190  2.6797
  721SOL    HW2 2163   2.770   0.721   0.290  3.1754 -1.4803 -4.0296
  722SOL     OW 2164   2.814   0.584   2.414 -0.2508 -0.5584  0.3499
  722SOL    HW1 2165   2.912   0.602   2.398 -1.5557 -0.5295  2.2804
  722SOL    HW2 2166   2.801   0.485   2.420  0.3556  1.6279  2.3245
  723SOL     OW 2167   2.016   0.222   0.225  0.0078 -0.5119  0.4078
  723SOL    HW1 2168   2.096   0.286   0.239 -2.4746  3.1571 -1.7318
  723SOL    HW2 2169   1.999   0.167   0.311  0.2750  0.9898  3.2978
  724SOL     OW 2170   0.530   1.853   2.002  0.1683 -0.0248 -0.4332
  724SOL    HW1 2171   0.477   1.764   1.989 -3.5733 -0.0188 -0.7941
  724SOL    HW2 2172   0.575   1.881   1.916  1.5422 -0.6202 -0.5457
  725SOL     OW 2173   1.641   2.853   1.187 -0.1597  0.0032 -0.2879
  725SOL    HW1 2174   1.661   2.861   1.086  0.8472  0.9145 -2.9669
  725SOL    HW2 2175   1.731   2.827   1.230  0.4456  1.3221 -0.2612
  726SOL     OW 2176   1.980   2.543   0.137 -0.0169  0.5669 -0.2622
  726SOL    HW1 2177   1.913   2.612   0.109  1.5422 -0.6525  2.7737
  726SOL    HW2 2178   1.986   2.544   0.239  1.1125  0.1067  1.9846
  727SOL     OW 2179   1.626   1.578   1.222  0.1436  0.0749  0.2717
  727SOL    HW1 2180   1.642   1.584   1.325  0.1320  0.3070  1.9038
  727SOL    HW2 2181   1.594   1.667   1.189  1.5322 -0.4383 -3.3153
  728SOL     OW 2182   2.067   2.941   1.686 -0.3856 -0.0286 -0.0791
  728SOL    HW1 2183   2.120   2.999   1.754  2.4470 -0.3904  0.2080
  728SOL    HW2 2184   1.995   2.886   1.737 -0.2568  0.5061  1.4081
  729SOL     OW 2185   2.025   1.959   0.794 -0.4283  0.2125  0.3646
  729SOL    HW1 2186   1.994   2.018   0.716 -3.5486 -0.0727  1.5488
  729SOL    HW2 2187   2.127   1.953   0.813  0.0868 -0.7875 -0.2554
  730SOL     OW 2188   1.399   0.575   2.716 -0.0140  0.1249  0.6993
  730SOL    HW1 2189   1.375   0.548   2.619  0.2124 -1.4358 -1.5649
  730SOL    HW2 2190   1.494   0.611   2.717 -2.6525  0.5599  0.1653
  731SOL     OW 2191   0.418   0.011   1.015 -0.6120 -0.0110  0.1177
  731SOL    HW1 2192   0.338   0.070   0.988 -0.3960  2.4408  0.8368
  731SOL    HW2 2193   0.407   2.993   0.987 -0.5686  4.4965  0.3929
  732SOL     OW 2194   1.389   0.473   0.559 -0.6214 -0.0269  0.4961
  732SOL    HW1 2195   1.316   0.412   0.520 -0.5784 -2.3312 -1.8580
  732SOL    HW2 2196   1.388   0.467   0.659  2.7482 -1.9003 -0.6290
  733SOL     OW 2197   0.539   1.994   1.511 -0.1116  0.0945  0.3446
  733SOL    HW1 2198   0.564   1.909   1.454  1.2515  0.0138 -3.2114
  733SOL    HW2 2199   0.485   2.054   1.448 -0.2654  0.8747  0.2573
  734SOL     OW 2200   0.076   2.709   0.411 -0.2692  0.0109 -0.1641
  734SOL    HW1 2201   0.048   2.625   0.364  2.2345 -0.2102  1.3175
  734SOL    HW2 2202   0.135   2.687   0.494  0.7972 -0.4691 -0.0112
  735SOL     OW 2203   1.238   0.125   1.183  0.1834  0.1007  0.1529
  735SOL    HW1 2204   1.191   0.118   1.276  1.3169 -2.0762  0.2562
  735SOL    HW2 2205   1.329   0.076   1.182 -0.1075  0.1197  1.7958
  736SOL     OW 2206   1.964   2.126   0.339  0.1576 -0.3937 -0.3594
  736SOL    HW1 2207   2.059   2.152   0.358 -2.2371 -0.6185  1.2696
  736SOL    HW2 2208   1.918   2.191   0.271  0.6339 -0.0549  0.8583
  737SOL     OW 2209   0.031   1.499   1.060 -0.5435  0.1274  0.0281
  737SOL    HW1 2210   0.123   1.536   1.062 -1.0009 -1.9407 -0.9523
  737SOL    HW2 2211   3.069   1.507   1.152  2.3439 -0.2889 -1.3762
  738SOL     OW 2212   2.106   2.285   2.341  0.6076  0.5318 -0.2539
  738SOL    HW1 2213   2.072   2.348   2.416  2.0675  0.5691 -0.9575
  738SOL    HW2 2214   2.196   2.311   2.309  0.6587 -1.2387 -0.1242
  739SOL     OW 2215   1.203   2.150   2.836 -0.2866  0.2340  0.2389
  739SOL    HW1 2216   1.144   2.186   2.908 -1.5617  0.7050  0.0629
  739SOL    HW2 2217   1.302   2.165   2.850  0.1223 -0.3495 -2.3999
  740SOL     OW 2218   1.489   3.074   1.148  0.0447 -0.3747 -0.5710
  740SOL    HW1 2219   1.520   0.026   1.053  0.2056  2.3684 -3.0888
  740SOL    HW2 2220   1.525   2.983   1.167  1.3176 -3.4236 -0.5429
  741SOL     OW 2221   0.090   1.213   0.738 -0.1798 -0.1739  0.0293
  741SOL    HW1 2222   0.180   1.160   0.737 -0.0669  1.5662  1.8367
  741SOL    HW2 2223   0.011   1.162   0.694 -0.7656  1.8905 -0.5582
  742SOL     OW 2224   0.912   1.130   2.376 -0.0936  0.2618 -0.1481
  742SOL    HW1 2225   0.959   1.180   2.452  0.9898 -0.3117  0.3567
  742SOL    HW2 2226   0.810   1.126   2.394 -2.6402 -0.7827 -1.2108
  743SOL     OW 2227   1.038   0.875   1.917 -0.6836 -0.3405  0.5138
  743SOL    HW1 2228   0.966   0.946   1.917 -0.1258 -3.0666 -0.4414
  743SOL    HW2 2229   1.079   0.862   2.010  1.1899 -1.5217  0.1550
  744SOL     OW 2230   1.893   0.182   1.555 -0.5622  0.0732  0.8027
  744SOL    HW1 2231   1.940   0.123   1.485  0.0143 -1.3565 -1.1207
  744SOL    HW2 2232   1.963   0.219   1.618 -2.0370 -1.8010  0.2278
  745SOL     OW 2233   2.320   1.221   1.532  0.1811  0.3217 -0.3321
  745SOL    HW1 2234   2.291   1.307   1.580  0.2621  2.6842 -0.2819
  745SOL    HW2 2235   2.259   1.210   1.454  0.8927  1.7686  0.1593
  746SOL     OW 2236   1.964   1.191   0.346  0.0755  0.2214  0.2661
  746SOL    HW1 2237   1.883   1.244   0.325  0.0602  0.1004  0.3845
  746SOL    HW2 2238   2.041   1.251   0.382  2.3142  1.1278 -0.4579
  747SOL     OW 2239   2.725   1.669   1.197  1.1020  1.3036  0.1037
  747SOL    HW1 2240   2.724   1.650   1.099 -1.8809 -1.5686  4.0048
  747SOL    HW2 2241   2.757   1.764   1.217  1.5701 -0.3077  0.5972
  748SOL     OW 2242   0.441   2.007   0.362 -0.0305  0.3101 -0.4815
  748SOL    HW1 2243   0.374   2.047   0.426  0.6039 -0.3959  1.0590
  748SOL    HW2 2244   0.532   1.993   0.406  0.9805 -1.7211  0.1944
  749SOL     OW 2245   2.667   2.489   2.690  0.3661 -0.4972  0.2374
  749SOL    HW1 2246   2.728   2.482   2.604  0.8704 -1.1638 -1.9079
  749SOL    HW2 2247   2.572   2.452   2.671 -1.2949  2.4234 -0.0241
  750SOL     OW 2248   2.438   0.777   0.809  0.9557 -0.1324  0.0016
  750SOL    HW1 2249   2.444   0.739   0.904  3.2392 -0.0357  0.1597
  750SOL    HW2 2250   2.347   0.798   0.768 -0.3077 -1.0163  0.3640
  751SOL     OW 2251   2.439   2.962   0.239 -0.1735 -0.4820 -0.2564
  751SOL    HW1 2252   2.405   3.017   0.157 -0.9055  3.0730 -2.5893
  751SOL    HW2 2253   2.488   2.880   0.198  3.0285  0.6613  0.4408
  752SOL     OW 2254   0.008   2.685   0.713 -0.5155  0.8675 -0.4312
  752SOL    HW1 2255   3.015   2.760   0.700  1.4387 -1.2878 -0.0062
  752SOL    HW2 2256   3.050   2.597   0.666 -0.9998  2.5460 -0.9756
  753SOL     OW 2257   1.913   0.897   2.203  0.3490 -0.4889 -0.5206
  753SOL    HW1 2258   2.013   0.896   2.222  1.4859 -2.6199 -1.5862
  753SOL    HW2 2259   1.859   0.923   2.287  0.6612  2.0190  0.8091
  754SOL     OW 2260   1.703   2.036   1.547  0.4490  0.1584  0.3111
  754SOL    HW1 2261   1.780   2.081   1.493  0.4872  0.3185 -1.2666
  754SOL    HW2 2262   1.674   1.946   1.515 -1.6432  3.2053  2.1142
  755SOL     OW 2263   2.504   1.112   0.512 -0.3014  0.2183  0.0013
  755SOL    HW1 2264   2.502   1.031   0.452 -0.1957 -0.0735 -1.5167
  755SOL    HW2 2265   2.424   1.126   0.573  1.7415  1.4860 -0.0212
  756SOL     OW 2266   0.695   1.242   2.819  0.0327 -0.5551 -0.2064
  756SOL    HW1 2267   0.635   1.192   2.757  1.6992 -0.0203  1.0071
  756SOL    HW2 2268   0.761   1.302   2.768  3.1492 -1.6749 -0.5639
  757SOL     OW 2269   1.586   2.290   0.839  0.3461  0.2742  0.4272
  757SOL    HW1 2270   1.569   2.197   0.811  2.8194  2.0771  1.1710
  757SOL    HW2 2271   1.521   2.316   0.914 -0.0024  2.3895 -1.1316
  758SOL     OW 2272   1.204   2.720   1.649 -0.3608  0.7394 -0.6998
  758SOL    HW1 2273   1.124   2.756   1.599 -0.2402 -1.4946  1.8369
  758SOL    HW2 2274   1.250   2.645   1.593  0.2408 -0.7215 -0.3103
  759SOL     OW 2275   3.058   0.843   1.024  0.5216 -0.4154  0.1286
  759SOL    HW1 2276   3.008   0.777   1.088 -1.5935 -5.7824  3.3059
  759SOL    HW2 2277   2.993   0.887   0.956 -3.6419  2.7035  1.6819
  760SOL     OW 2278   2.199   1.164   1.289 -0.2600 -0.5064  0.2041
  760SOL    HW1 2279   2.287   1.138   1.246 -0.9883  1.3456 -0.4332
  760SOL    HW2 2280   2.139   1.205   1.217 -1.6729 -2.4859  0.7397
  761SOL     OW 2281   1.812   0.210   0.061  0.0640 -0.3058 -0.5340
  761SOL    HW1 2282   1.725   0.189   0.111 -2.8541 -3.0051  0.5204
  761SOL    HW2 2283   1.881   0.218   0.135 -1.7051 -1.3613  1.6153
  762SOL     OW 2284   2.167   1.337   3.012  0.0811  0.1157  0.1564
  762SOL    HW1 2285   2.220   1.248   3.005 -1.1998 -1.4923 -1.5105
  762SOL    HW2 2286   2.145   1.376   2.919 -0.7951  2.1313 -0.4267
  763SOL     OW 2287   0.408   2.152   1.736 -0.8709  0.6611  0.6131
  763SOL    HW1 2288   0.364   2.101   1.815 -2.4277 -2.6881  2.9637
  763SOL    HW2 2289   0.406   2.099   1.647 -1.6973  0.5576 -1.3565
  764SOL     OW 2290   0.008   2.236   0.096  0.5993  0.3312  0.7256
  764SOL    HW1 2291   2.998   2.291   0.101 -1.3787  1.0735 -2.7997
  764SOL    HW2 2292   3.067   2.142   0.064  0.2556  2.7403  2.1090
  765SOL     OW 2293   0.319   2.964   1.319  0.2754  0.4219  0.0526
  765SOL    HW1 2294   0.352   3.044   1.374  2.8946 -1.6392  0.0666
  765SOL    HW2 2295   0.368   2.878   1.349 -0.4263 -2.1498  1.4352
  766SOL     OW 2296   2.798   1.948   2.294  0.0417 -0.1641  0.3761
  766SOL    HW1 2297   2.745   2.024   2.247 -2.0863  1.4054  0.2004
  766SOL    HW2 2298   2.762   1.927   2.386 -0.9878  1.0714  1.8376
  767SOL     OW 2299   2.486   0.933   2.141 -0.2065 -0.5013 -0.3569
  767SOL    HW1 2300   2.498   0.919   2.041 -0.2741  2.6355  0.0730
  767SOL    HW2 2301   2.499   0.852   2.202 -1.8344 -1.2973  0.5914
  768SOL     OW 2302   1.275   3.051   2.692 -0.2802 -0.1655 -0.0305
  768SOL    HW1 2303   1.219   3.057   2.778 -0.7696  2.2007 -3.6657
  768SOL    HW2 2304   1.376   3.061   2.715  1.1094  2.9418  2.0565
  769SOL     OW 2305   2.737   2.710   1.032  0.5055  0.5737  0.3191
  769SOL    HW1 2306   2.813   2.763   1.076  0.8733 -0.8386  0.5795
  769SOL    HW2 2307   2.649   2.719   1.081 -0.3488 -1.5881 -0.6841
  770SOL     OW 2308   0.480   2.929   2.777  0.0677  0.3414 -0.1395
  770SOL    HW1 2309   0.514   2.876   2.859  0.0591 -1.3719  1.7707
  770SOL    HW2 2310   0.422   3.005   2.808  0.3622 -1.4623 -1.5492
  771SOL     OW 2311   1.183   1.919   2.188  0.5601 -0.9955 -0.4735
  771SOL    HW1 2312   1.246   1.994   2.152  0.1040 -0.7026 -1.7228
  771SOL    HW2 2313   1.201   1.825   2.144 -0.7901  0.4380 -0.8863
  772SOL     OW 2314   1.450   2.694   3.065 -0.9179  0.1276  0.2069
  772SOL    HW1 2315   1.353   2.679   3.039 -3.1102  0.9276  0.5190
  772SOL    HW2 2316   1.489   2.767   3.005  0.5132 -0.3952 -0.0630
  773SOL     OW 2317   2.022   0.658   1.429  0.0060  0.9245 -0.3318
  773SOL    HW1 2318   2.056   0.722   1.359 -0.0233  0.3865 -0.3421
  773SOL    HW2 2319   1.954   0.594   1.377 -0.7779 -2.8317 -3.3504
  774SOL     OW 2320   0.955   1.023   1.086 -0.0199 -0.1336  0.6287
  774SOL    HW1 2321   1.026   1.089   1.110 -0.5046 -0.9689  0.4158
  774SOL    HW2 2322   0.938   0.960   1.164 -1.9952  1.2283  2.4661
  775SOL     OW 2323   1.955   2.755   2.912 -0.2922  0.3085 -0.3502
  775SOL    HW1 2324   1.922   2.778   3.003  0.3105 -1.5936 -2.2281
  775SOL    HW2 2325   1.936   2.654   2.890 -1.8811 -1.7538  0.6878
  776SOL     OW 2326   2.083   0.892   1.313  0.0506 -0.5478 -0.2156
  776SOL    HW1 2327   2.156   0.914   1.381  1.5707  1.6381  1.0723
  776SOL    HW2 2328   2.109   0.922   1.214  1.0624 -0.2863  0.5892
  777SOL     OW 2329   0.166   1.012   2.021 -0.6379  1.0896 -0.1177
  777SOL    HW1 2330   0.192   0.912   2.016 -1.3492 -0.6325  1.2131
  777SOL    HW2 2331   0.242   1.077   2.008 -1.2474 -0.5679  3.3834
  778SOL     OW 2332   0.228   0.792   0.200 -0.1918 -0.0798 -0.2754
  778SOL    HW1 2333   0.312   0.776   0.140  2.4183 -1.2440  1.3493
  778SOL    HW2 2334   0.180   0.877   0.166 -0.6264  4.5166 -0.3595
  779SOL     OW 2335   0.807   0.304   2.782  0.5673 -0.0213  0.0547
  779SOL    HW1 2336   0.854   0.338   2.867  0.7939  1.8602 -1.3918
  779SOL    HW2 2337   0.824   0.204   2.763  1.0709  1.3461 -3.5314
  780SOL     OW 2338   2.218   1.209   2.631 -0.1503 -0.4434 -0.8356
  780SOL    HW1 2339   2.317   1.209   2.610  1.1032  0.5463 -0.7415
  780SOL    HW2 2340   2.193   1.294   2.683  2.3062 -0.9305  0.7271
  781SOL     OW 2341   2.804   1.094   2.013  0.3778 -0.3512  0.0396
  781SOL    HW1 2342   2.747   1.112   1.927  0.1464 -3.5366 -1.4617
  781SOL    HW2 2343   2.793   0.996   2.040 -0.9709  0.2672  2.1093
  782SOL     OW 2344   0.857   1.730   2.776 -0.3704  0.2750  0.3336
  782SOL    HW1 2345   0.784   1.661   2.798  2.3427 -1.5407 -0.8905
  782SOL    HW2 2346   0.825   1.817   2.818 -1.0431 -3.0642  1.2526
  783SOL     OW 2347   1.095   2.283   1.192  0.1182 -0.2677  0.2154
  783SOL    HW1 2348   1.153   2.338   1.127 -0.4157 -0.2417  0.2733
  783SOL    HW2 2349   1.065   2.193   1.156  0.7467  3.9864 -2.6287
  784SOL     OW 2350   1.797   0.529   2.517  0.3763 -0.5117 -0.4173
  784SOL    HW1 2351   1.894   0.546   2.509 -0.1340  0.5000  1.1645
  784SOL    HW2 2352   1.761   0.468   2.445 -1.0749 -3.6471  1.6348
  785SOL     OW 2353   0.093   0.089   1.963  0.0727  0.2784 -0.3398
  785SOL    HW1 2354   0.193   0.099   1.979 -0.1047  2.9157  1.9271
  785SOL    HW2 2355   0.051   0.058   2.053 -1.8138  1.4524  0.7842
  786SOL     OW 2356   0.838   2.155   0.354  0.4911 -0.0326 -0.0712
  786SOL    HW1 2357   0.755   2.171   0.296 -1.1892  2.0769 -1.7639
  786SOL    HW2 2358   0.860   2.243   0.396 -1.1306 -1.4474 -3.0791
  787SOL     OW 2359   1.428   0.185   0.676  0.8792 -0.2239  0.0230
  787SOL    HW1 2360   1.495   0.262   0.695 -0.9513 -2.9810 -1.6112
  787SOL    HW2 2361   1.330   0.212   0.687  0.7512  0.1041 -2.1111
  788SOL     OW 2362   2.979   1.533   1.291 -0.1510  0.0841 -0.0605
  788SOL    HW1 2363   2.905   1.606   1.299  2.8336  0.4282  0.6016
  788SOL    HW2 2364   3.038   1.517   1.373 -0.7666  1.8067  2.2505
  789SOL     OW 2365   2.631   1.107   2.297 -0.6309 -0.0444  0.2061
  789SOL    HW1 2366   2.584   1.046   2.229  1.9782  0.2641 -1.5829
  789SOL    HW2 2367   2.673   1.184   2.248  2.2185  1.5613  1.7944
  790SOL     OW 2368   0.833   0.338   0.170  0.5989  0.2032 -0.0391
  790SOL    HW1 2369   0.772   0.417   0.200  0.4444  1.7896 -0.2261
  790SOL    HW2 2370   0.801   0.249   0.220 -1.3970 -3.8711  2.8406
  791SOL     OW 2371   3.055   0.069   2.990 -0.1778 -0.5034  0.4214
  791SOL    HW1 2372   2.992   0.028   3.053 -2.1212  0.8109 -3.2017
  791SOL    HW2 2373   0.036   0.138   3.038 -1.6347  0.0674 -0.5290
  792SOL     OW 2374   1.204   0.306   2.068  0.1470 -0.3697 -0.1764
  792SOL    HW1 2375   1.273   0.231   2.056  0.2780  0.4606 -1.3485
  792SOL    HW2 2376   1.174   0.326   2.166 -0.2955 -0.0757  0.5418
  793SOL     OW 2377   2.893   0.369   1.158 -0.1301  0.1237 -0.0063
  793SOL    HW1 2378   2.933   0.354   1.066 -0.9196 -0.0281  0.1891
  793SOL    HW2 2379   2.908   0.465   1.190  0.4532 -1.4956  2.7018
  794SOL     OW 2380   0.011   0.633   2.062  0.0373  0.2325  0.3042
  794SOL    HW1 2381   0.102   0.675   2.041  2.2848 -0.8704  2.4079
  794SOL    HW2 2382   3.028   0.653   1.979 -1.4443  0.5734 -1.0456
  795SOL     OW 2383   0.612   1.428   0.430 -0.0802 -0.0300 -0.4157
  795SOL    HW1 2384   0.712   1.407   0.456 -1.7312  2.3563  3.0003
  795SOL    HW2 2385   0.565   1.343   0.405  1.3935 -1.0199  0.8126
  796SOL     OW 2386   3.008   0.836   3.063 -0.1056  0.1398 -0.3341
  796SOL    HW1 2387   3.071   0.909   0.020 -1.4444 -1.6517  0.7547
  796SOL    HW2 2388   3.024   0.831   2.960 -0.0685  1.0052 -1.3705
  797SOL     OW 2389   1.710   3.014   2.530 -0.1912  0.0374 -0.2776
  797SOL    HW1 2390   1.803   3.007   2.575 -2.0004  1.4960 -0.6699
  797SOL    HW2 2391   1.664   2.927   2.523 -3.2732  1.1585 -0.1660
  798SOL     OW 2392   2.928   3.024   1.341 -0.1950 -0.4122 -0.4544
  798SOL    HW1 2393   2.941   0.049   1.333  2.5068 -0.5847 -0.3945
  798SOL    HW2 2394   3.005   2.977   1.393  1.3676  0.4548 -0.9697
  799SOL     OW 2395   2.501   0.902   1.864 -0.2489 -0.0502  0.5165
  799SOL    HW1 2396   2.405   0.908   1.849  0.2041 -0.5714  2.0686
  799SOL    HW2 2397   2.538   0.856   1.776 -0.7476 -1.5243  0.7016
  800SOL     OW 2398   0.216   1.788   0.617  0.1352 -0.2483 -0.6319
  800SOL    HW1 2399   0.297   1.858   0.631  2.2702  1.8822  2.0859
  800SOL    HW2 2400   0.216   1.743   0.528 -0.3199 -1.3625  1.2061
  801SOL     OW 2401   1.648   1.644   0.400  0.1336 -0.2232 -0.3206
  801SOL    HW1 2402   1.556   1.656   0.360  1.9808  0.8500  2.9967
  801SOL    HW2 2403   1.645   1.596   0.493 -1.0276 -0.6235  1.2601
  802SOL     OW 2404   1.277   1.163   2.700 -0.6122 -0.2144  0.1914
  802SOL    HW1 2405   1.290   1.159   2.597 -0.9301 -3.1337  1.6550
  802SOL    HW2 2406   1.364   1.126   2.742 -0.7892  1.8871  1.9896
  803SOL     OW 2407   0.325   1.943   2.187  0.2906 -0.9213  0.1501
  803SOL    HW1 2408   0.395   1.927   2.115 -1.6746 -1.8062  0.6339
  803SOL    HW2 2409   0.277   1.860   2.222  1.5980  0.3598 -0.1649
  804SOL     OW 2410   1.411   2.062   0.799 -0.3768 -0.3543  0.6573
  804SOL    HW1 2411   1.438   1.965   0.813  0.7368  1.9522 -0.1922
  804SOL    HW2 2412   1.316   2.078   0.836  2.6234 -0.3594 -1.1049
  805SOL     OW 2413   2.352   2.177   2.705  0.6079  0.2391 -0.2635
  805SOL    HW1 2414   2.422   2.123   2.755 -2.8336 -1.9970  2.8817
  805SOL    HW2 2415   2.390   2.258   2.661 -1.2874 -1.7280  0.0717
  806SOL     OW 2416   0.175   0.513   0.717  0.2459  0.3603  0.0084
  806SOL    HW1 2417   0.101   0.442   0.710  0.1184 -0.8933  1.9131
  806SOL    HW2 2418   0.235   0.502   0.799 -0.5108  0.2324  2.0347
  807SOL     OW 2419   2.806   0.826   2.812  0.3928  0.0469  0.0467
  807SOL    HW1 2420   2.772   0.833   2.720  3.3699 -0.9410  0.8815
  807SOL    HW2 2421   2.904   0.814   2.810 -5.6685  2.0638  0.0520
  808SOL     OW 2422   0.696   2.090   0.715  0.1308  0.0919  0.3621
  808SOL    HW1 2423   0.661   2.041   0.634 -0.5336 -1.5844  1.1653
  808SOL    HW2 2424   0.630   2.164   0.745 -1.0491  1.2488 -1.1896
  809SOL     OW 2425   2.633   0.088   2.526 -0.5097  0.2306  0.1287
  809SOL    HW1 2426   2.659   0.014   2.459 -2.1119  0.9197  0.1135
  809SOL    HW2 2427   2.544   0.058   2.565  2.2100  0.1594  2.8961
  810SOL     OW 2428   1.605   1.056   0.432  0.3653  0.2275 -0.0044
  810SOL    HW1 2429   1.676   1.118   0.468  0.3256  2.5805 -0.7601
  810SOL    HW2 2430   1.634   0.957   0.423  0.3532 -2.6489 -0.9430
  811SOL     OW 2431   1.704   2.984   2.015 -0.1327 -0.7546 -0.6086
  811SOL    HW1 2432   1.626   3.047   2.009  2.4262 -0.2834 -2.7206
  811SOL    HW2 2433   1.750   2.987   2.108  1.6302  3.6925 -0.0575
  812SOL     OW 2434   1.967   2.561   0.414 -0.1183 -0.5074  0.1591
  812SOL    HW1 2435   1.927   2.469   0.436  1.9382 -0.6484  3.5352
  812SOL    HW2 2436   1.909   2.632   0.467 -2.2997  3.6726  1.0756
  813SOL     OW 2437   0.992   0.571   1.931  0.3533 -0.7338 -0.0033
  813SOL    HW1 2438   1.066   0.541   1.869  3.9688 -1.5674 -2.2661
  813SOL    HW2 2439   0.976   0.672   1.935 -1.8056  2.2107 -1.1709
  814SOL     OW 2440   0.066   2.933   1.461 -0.2681  0.2145 -0.0304
  814SOL    HW1 2441   0.123   2.958   1.378  0.5829 -1.4341 -1.4010
  814SOL    HW2 2442   0.091   2.991   1.542  1.4840 -2.1777  0.6086
  815SOL     OW 2443   0.210   0.166   0.855 -0.0047  0.1571  0.6840
  815SOL    HW1 2444   0.202   0.204   0.761 -1.0220  1.3766  0.2514
  815SOL    HW2 2445   0.137   0.096   0.865  1.4230  1.1068  2.6044
  816SOL     OW 2446   3.010   1.802   2.217 -0.7220 -0.0273  0.2237
  816SOL    HW1 2447   2.987   1.874   2.289  0.7050  0.5864 -2.0482
  816SOL    HW2 2448   2.965   1.711   2.237 -2.7955 -0.6670  1.3448
  817SOL     OW 2449   1.161   3.077   0.394  0.2852 -0.1836  0.0982
  817SOL    HW1 2450   1.122   0.094   0.378  0.7047 -1.6868  2.1567
  817SOL    HW2 2451   1.130   3.051   0.490 -0.6203 -1.1107  2.6240
  818SOL     OW 2452   1.635   0.523   0.218 -0.1719  0.3476  0.2421
  818SOL    HW1 2453   1.678   0.499   0.129  1.4703  0.7888 -2.5770
  818SOL    HW2 2454   1.698   0.580   0.277 -1.3481  0.3715  0.8494
  819SOL     OW 2455   2.182   2.785   3.055  0.0481  0.7380  0.0396
  819SOL    HW1 2456   2.101   2.766   2.991 -2.7472  2.8245 -2.5864
  819SOL    HW2 2457   2.174   2.767   0.076 -0.9190 -0.0196  0.5134
  820SOL     OW 2458   1.492   1.102   2.853 -0.0163 -0.5548 -0.0756
  820SOL    HW1 2459   1.508   1.018   2.910  0.2043  0.3634 -0.5917
  820SOL    HW2 2460   1.581   1.141   2.824  0.2672  1.2612 -0.4475
  821SOL     OW 2461   0.162   0.566   1.175 -0.0568 -0.4976  0.0462
  821SOL    HW1 2462   0.211   0.503   1.237  0.6457 -0.7744  2.1075
  821SOL    HW2 2463   0.212   0.570   1.084  2.2019  1.5607 -0.4474
  822SOL     OW 2464   1.185   2.684   2.253  0.1281  0.6108 -0.6895
  822SOL    HW1 2465   1.232   2.604   2.305  1.2195 -1.5246 -0.9793
  822SOL    HW2 2466   1.125   2.734   2.319  0.7003 -1.0779  0.7744
  823SOL     OW 2467   0.475   1.340   1.595 -0.0541  0.2343  0.6046
  823SOL    HW1 2468   0.513   1.430   1.625  0.2500  1.4527  1.2993
  823SOL    HW2 2469   0.538   1.264   1.612  1.0814  0.1715  2.6995
  824SOL     OW 2470   1.745   2.600   2.345  0.4925 -0.2798 -0.3703
  824SOL    HW1 2471   1.828   2.645   2.385 -1.2231  2.3523 -0.4920
  824SOL    HW2 2472   1.666   2.654   2.381 -1.3070  1.3700  1.0096
  825SOL     OW 2473   1.162   1.053   0.174 -0.2249  0.4314  0.3568
  825SOL    HW1 2474   1.242   0.994   0.196 -1.2618  1.5439  3.0747
  825SOL    HW2 2475   1.180   1.150   0.212 -0.2609  0.5897 -0.3850
  826SOL     OW 2476   2.278   0.730   2.883  0.2893  0.1119  0.1535
  826SOL    HW1 2477   2.190   0.778   2.858 -1.7533 -0.2988  0.1710
  826SOL    HW2 2478   2.325   0.765   2.969  2.0769  0.2620  1.0075
  827SOL     OW 2479   0.596   2.278   2.801 -0.3954  0.2710  0.5128
  827SOL    HW1 2480   0.630   2.348   2.732  1.5560  1.5586  3.5055
  827SOL    HW2 2481   0.562   2.195   2.750  2.4959 -0.3883  0.6795
  828SOL     OW 2482   2.824   0.624   1.480  0.1697 -0.1351  0.2319
  828SOL    HW1 2483   2.766   0.551   1.521 -0.9500  1.3171 -1.0809
  828SOL    HW2 2484   2.917   0.616   1.524 -2.4934  2.1239 -0.6039
  829SOL     OW 2485   0.766   1.562   1.054  0.3642 -0.1675 -0.2223
  829SOL    HW1 2486   0.804   1.606   1.138 -0.9854 -1.0627 -0.8313
  829SOL    HW2 2487   0.837   1.521   0.993  1.2640  2.2134 -1.3472
  830SOL     OW 2488   0.737   1.107   1.368 -0.3229  0.4014  0.3456
  830SOL    HW1 2489   0.708   1.187   1.309 -1.1785  1.0928  1.9645
  830SOL    HW2 2490   0.694   1.117   1.459  1.6839  2.4308 -2.4782
  831SOL     OW 2491   0.601   1.859   0.092  0.5295  0.9588 -0.1262
  831SOL    HW1 2492   0.511   1.817   0.128 -0.6041 -0.2252  2.4707
  831SOL    HW2 2493   0.617   1.953   0.121  1.1613 -2.4221 -0.4940
  832SOL     OW 2494   0.815   0.131   3.042 -0.1486 -0.2179 -0.5133
  832SOL    HW1 2495   0.723   0.139   0.005 -1.1452  0.3158 -0.4548
  832SOL    HW2 2496   0.855   0.226   3.045 -0.4054 -0.4751  4.1321
  833SOL     OW 2497   0.019   0.274   1.793  0.1191 -0.5487  0.4981
  833SOL    HW1 2498   0.023   0.210   1.871  0.4703  0.8266 -0.2669
  833SOL    HW2 2499   3.012   0.331   1.792 -0.0989 -0.1782  1.0484
  834SOL     OW 2500   3.058   0.371   0.939  0.3858  0.3784  0.5004
  834SOL    HW1 2501   3.038   0.472   0.946  0.9052  1.8132 -0.1135
  834SOL    HW2 2502   0.035   0.339   1.016 -1.0329  0.2306  0.0764
  835SOL     OW 2503   2.732   0.003   1.010  0.1982 -0.2070 -0.4075
  835SOL    HW1 2504   2.834   0.007   0.987  0.9580  1.1042  0.5028
  835SOL    HW2 2505   2.716   3.022   1.090  1.1684  0.3800 -2.2003
  836SOL     OW 2506   0.130   2.047   2.937 -0.0790 -0.3671  0.0202
  836SOL    HW1 2507   0.092   2.130   2.887  0.4783  0.3333  0.3077
  836SOL    HW2 2508   0.070   2.014   3.016  0.2071 -1.0021  0.3341
  837SOL     OW 2509   1.744   1.860   2.674 -0.1994  0.1017 -0.2603
  837SOL    HW1 2510   1.846   1.845   2.661  1.7034 -0.0566  1.7844
  837SOL    HW2 2511   1.687   1.816   2.612  3.4640  3.7878  2.0275
  838SOL     OW 2512   2.792   0.891   1.492  0.1694 -0.6376 -0.0446
  838SOL    HW1 2513   2.804   0.791   1.501 -1.7092  2.7403  0.4793
  838SOL    HW2 2514   2.810   0.930   1.397  1.9394 -0.3132 -1.0764
  839SOL     OW 2515   1.181   0.849   0.830  0.3466 -0.4190  0.3840
  839SOL    HW1 2516   1.087   0.893   0.832 -1.1499 -0.2812  1.6085
  839SOL    HW2 2517   1.180   0.800   0.744  1.0941 -1.7548 -0.5059
  840SOL     OW 2518   1.748   0.140   1.216  0.0479  0.0010  0.3645
  840SOL    HW1 2519   1.651   0.103   1.202 -2.1715  1.6140 -0.9498
  840SOL    HW2 2520   1.742   0.220   1.278 -2.8114 -1.5718 -1.6640
  841SOL     OW 2521   0.457   2.734   0.561 -0.4386  0.4066  0.1010
  841SOL    HW1 2522   0.474   2.766   0.464  0.8671  1.9213 -0.6478
  841SOL    HW2 2523   0.546   2.745   0.615  4.3367  0.6075 -0.5506
  842SOL     OW 2524   0.380   0.768   0.523 -0.1578 -0.1980 -0.4272
  842SOL    HW1 2525   0.430   0.711   0.594  1.2147 -1.0966  0.4645
  842SOL    HW2 2526   0.286   0.732   0.518  1.5742  0.6842 -0.4440
  843SOL     OW 2527   0.943   1.189   1.537 -0.6450  0.3226 -0.0160
  843SOL    HW1 2528   0.907   1.236   1.616  0.1634 -2.0989 -0.7468
  843SOL    HW2 2529   0.878   1.172   1.459  1.3395 -0.5777  0.0878
  844SOL     OW 2530   1.291   2.153   0.178 -0.1276 -0.2535 -0.3925
  844SOL    HW1 2531   1.343   2.077   0.122  1.8659 -0.4317 -0.3496
  844SOL    HW2 2532   1.337   2.244   0.160  0.4621 -1.1372  0.3394
  845SOL     OW 2533   2.399   2.348   2.348  0.0530 -0.2958  0.4468
  845SOL    HW1 2534   2.385   2.387   2.256 -1.0777  3.5492 -1.7591
  845SOL    HW2 2535   2.482   2.293   2.343  1.7900 -3.0412  0.2704
  846SOL     OW 2536   1.897   2.165   2.905 -0.1449 -0.2206  0.2650
  846SOL    HW1 2537   1.808   2.147   2.853 -2.8474 -0.9617 -0.9244
  846SOL    HW2 2538   1.881   2.201   2.999  0.4059 -0.7651  1.9211
  847SOL     OW 2539   1.947   2.913   2.677  0.6620  0.0839 -0.0059
  847SOL    HW1 2540   2.031   2.880   2.628  2.3844 -0.5940 -0.0268
  847SOL    HW2 2541   1.937   2.876   2.771 -0.4118 -0.1694  3.1077
  848SOL     OW 2542   0.756   0.476   0.613 -0.1660  0.3699 -0.2783
  848SOL    HW1 2543   0.661   0.508   0.630  0.5466  1.3181 -0.3446
  848SOL    HW2 2544   0.804   0.463   0.702  0.4986 -1.7047 -2.0137
  849SOL     OW 2545   0.660   2.897   0.982  0.2821  0.2828  0.2590
  849SOL    HW1 2546   0.617   2.987   1.010 -0.0931 -1.0549  2.6864
  849SOL    HW2 2547   0.751   2.882   1.020  0.8405 -1.5090 -0.9352
  850SOL     OW 2548   0.373   1.559   0.071  0.2990  0.4929 -0.4342
  850SOL    HW1 2549   0.389   1.615   0.157  3.1120  0.1175 -1.7875
  850SOL    HW2 2550   0.377   1.615   3.065  0.0982  1.5896  0.7275
  851SOL     OW 2551   0.187   0.984   0.410 -0.4425 -0.0672 -0.0051
  851SOL    HW1 2552   0.208   0.886   0.397  0.9631  2.3133 -0.5358
  851SOL    HW2 2553   0.125   0.997   0.488 -1.6958  0.5819  1.7848
  852SOL     OW 2554   1.944   1.885   1.668  0.4710 -0.2349 -0.1001
  852SOL    HW1 2555   2.000   1.971   1.666 -2.1488 -0.3737  0.0249
  852SOL    HW2 2556   1.879   1.875   1.745 -0.0550  1.2955 -0.0043
  853SOL     OW 2557   0.371   1.777   0.253  0.2224 -0.2231  0.1250
  853SOL    HW1 2558   0.287   1.745   0.297 -1.1823 -1.0364 -2.6998
  853SOL    HW2 2559   0.404   1.867   0.292  0.6339  0.9974  0.7692
  854SOL     OW 2560   1.749   1.261   1.375  0.4364 -0.2607  0.3586
  854SOL    HW1 2561   1.741   1.235   1.278  0.9722 -2.0609 -0.7470
  854SOL    HW2 2562   1.830   1.217   1.418  0.8808 -1.2118  0.1672
  855SOL     OW 2563   0.774   2.495   0.083  0.0402  0.1137  0.0282
  855SOL    HW1 2564   0.870   2.487   0.039  0.9284 -1.0294  0.1344
  855SOL    HW2 2565   0.703   2.441   0.036 -1.0757  0.4397 -2.4399
  856SOL     OW 2566   2.891   0.232   2.034 -0.1941  0.4185 -0.5324
  856SOL    HW1 2567   2.883   0.322   1.986  0.9945 -0.2730 -0.3267
  856SOL    HW2 2568   2.954   0.243   2.114  1.6314 -1.2249  2.5631
  857SOL     OW 2569   0.624   0.590   1.724  0.6003  0.3693 -0.0823
  857SOL    HW1 2570   0.641   0.546   1.815 -0.6755  0.3160 -0.3576
  857SOL    HW2 2571   0.707   0.635   1.686  2.1801 -0.5579 -2.4718
  858SOL     OW 2572   0.404   1.379   2.247 -0.2010 -0.1738 -0.1025
  858SOL    HW1 2573   0.328   1.338   2.296  0.9920 -0.3209 -0.5982
  858SOL    HW2 2574   0.483   1.398   2.309  0.8757 -1.1199  0.8059
  859SOL     OW 2575   2.271   3.056   0.439  0.5020 -0.5254 -0.2690
  859SOL    HW1 2576   2.326   2.999   0.380  1.1994 -0.0788 -3.8429
  859SOL    HW2 2577   2.173   3.044   0.415  0.4452 -3.0338  2.3147
  860SOL     OW 2578   1.595   2.937   2.982  0.0400  0.3603 -0.5007
  860SOL    HW1 2579   1.576   2.988   2.899 -2.0206 -2.1637  0.3384
  860SOL    HW2 2580   1.692   2.918   3.000  1.0236 -0.2765  0.5047
  861SOL     OW 2581   0.155   0.590   0.476  0.6387 -0.1776 -0.0693
  861SOL    HW1 2582   0.083   0.659   0.464  0.0953 -0.5357 -1.6936
  861SOL    HW2 2583   0.164   0.552   0.571  1.8260 -0.0448  2.0627
  862SOL     OW 2584   1.650   0.336   2.007  0.5980 -0.1379  0.2087
  862SOL    HW1 2585   1.675   0.296   1.915 -1.4556 -0.7682 -0.1390
  862SOL    HW2 2586   1.573   0.286   2.054  0.2153 -3.1971 -0.7371
  863SOL     OW 2587   2.909   2.157   1.134 -0.0782  0.2921  0.3039
  863SOL    HW1 2588   2.943   2.156   1.036  1.7722 -1.3604 -0.6289
  863SOL    HW2 2589   2.873   2.246   1.164 -2.2288 -0.5710  0.0912
  864SOL     OW 2590   2.232   2.758   1.862  0.1839 -0.2461  0.0341
  864SOL    HW1 2591   2.204   2.858   1.855 -1.8191 -1.0046  0.2602
  864SOL    HW2 2592   2.162   2.699   1.819 -0.6600 -0.5031  1.9691
  865SOL     OW 2593   1.016   0.420   1.338  0.4775 -0.6685  0.0401
  865SOL    HW1 2594   1.081   0.426   1.264 -3.9475 -1.0658  2.1497
  865SOL    HW2 2595   1.002   0.319   1.347  1.6115 -1.4778  0.2141
  866SOL     OW 2596   2.548   2.900   0.635 -0.3606 -0.0769  0.5105
  866SOL    HW1 2597   2.576   2.921   0.535 -1.9934 -2.1894  0.3844
  866SOL    HW2 2598   2.609   2.829   0.667 -1.8842 -0.5138  0.0755
  867SOL     OW 2599   2.908   2.880   0.668 -0.0026 -0.4131  0.4644
  867SOL    HW1 2600   2.907   2.892   0.566  1.2394  0.3737  1.5819
  867SOL    HW2 2601   2.828   2.823   0.700 -0.8994 -1.1425  2.2449
  868SOL     OW 2602   1.148   2.275   2.371 -0.5611  0.3378  0.3172
  868SOL    HW1 2603   1.111   2.221   2.447 -3.0588 -1.3237 -0.3599
  868SOL    HW2 2604   1.139   2.226   2.281 -0.1561 -0.2685  2.2633
  869SOL     OW 2605   1.806   1.879   0.032  0.1906 -0.8031 -0.4879
  869SOL    HW1 2606   1.884   1.939   3.077 -1.5560 -0.7119 -4.8362
  869SOL    HW2 2607   1.778   1.890   0.129  0.5165 -0.2749 -0.9852
  870SOL     OW 2608   2.681   2.395   0.537 -0.4715  0.4212 -0.3818
  870SOL    HW1 2609   2.687   2.396   0.637 -2.2398 -1.4327  0.5117
  870SOL    HW2 2610   2.654   2.300   0.507 -0.5479  1.1940 -0.8306
  871SOL     OW 2611   0.256   1.216   1.560  0.0267  0.1287 -0.3676
  871SOL    HW1 2612   0.347   1.263   1.564  1.5542  1.9255  0.8988
  871SOL    HW2 2613   0.195   1.253   1.632  0.9803  1.0913 -0.7720
  872SOL     OW 2614   0.632   1.660   2.554 -0.1279  0.3153  0.5958
  872SOL    HW1 2615   0.655   1.653   2.653  0.8870  0.0807  1.8095
  872SOL    HW2 2616   0.622   1.760   2.527  1.2377  1.4516 -0.4289
  873SOL     OW 2617   0.390   2.778   1.709  0.1679  0.5045  0.3391
  873SOL    HW1 2618   0.429   2.727   1.628  1.5718  1.2515  0.2296
  873SOL    HW2 2619   0.372   2.870   1.678 -2.6097  0.5518 -4.4841
  874SOL     OW 2620   1.160   0.847   2.177 -0.7437 -0.4141  0.3048
  874SOL    HW1 2621   1.260   0.864   2.165  0.7598  1.4302  0.0023
  874SOL    HW2 2622   1.140   0.745   2.180 -0.0332 -1.7944  1.4979
  875SOL     OW 2623   2.446   2.662   1.133 -0.6527  0.3104  0.5806
  875SOL    HW1 2624   2.371   2.709   1.177  2.3841  0.1810 -2.1144
  875SOL    HW2 2625   2.429   2.658   1.035 -0.8720  1.8589 -3.2355
  876SOL     OW 2626   1.137   1.224   0.930 -0.3537 -0.0147 -0.7118
  876SOL    HW1 2627   1.211   1.173   0.979  2.1143  1.1472  0.2405
  876SOL    HW2 2628   1.136   1.210   0.831 -2.2429  1.4247 -0.6372
  877SOL     OW 2629   2.944   0.222   1.399 -0.2330  0.2424 -0.1676
  877SOL    HW1 2630   2.893   0.270   1.324  2.4151  0.5505  2.0133
  877SOL    HW2 2631   3.035   0.266   1.408  0.6136 -0.2390 -1.1867
  878SOL     OW 2632   2.559   1.709   2.894  0.2287  0.1985 -0.0574
  878SOL    HW1 2633   2.632   1.718   2.966  1.7647  1.4416  1.5410
  878SOL    HW2 2634   2.576   1.614   2.855  2.3601 -0.2284  1.5733
  879SOL     OW 2635   2.803   1.931   1.269 -0.2527  0.0854  0.1173
  879SOL    HW1 2636   2.778   1.970   1.359  0.1951  0.2958 -0.4784
  879SOL    HW2 2637   2.813   2.011   1.201 -0.6265  1.6929 -0.0268
  880SOL     OW 2638   0.824   2.347   1.089 -0.5646 -0.2619  0.3353
  880SOL    HW1 2639   0.795   2.430   1.039 -1.1729  0.0633 -2.5023
  880SOL    HW2 2640   0.925   2.345   1.108  2.2720  3.7264 -2.8876
  881SOL     OW 2641   1.252   1.567   0.900 -0.6001 -0.1517  0.5070
  881SOL    HW1 2642   1.200   1.534   0.818  0.7179 -0.4444  1.5420
  881SOL    HW2 2643   1.214   1.526   0.986  0.4754 -2.2364  0.9441
  882SOL     OW 2644   2.758   1.021   2.533  0.3097  0.2710 -0.1455
  882SOL    HW1 2645   2.718   1.053   2.443 -2.4334  0.0265  0.8859
  882SOL    HW2 2646   2.712   0.936   2.571  1.8550 -1.2172 -1.7457
  883SOL     OW 2647   1.230   0.412   1.167  0.5156  1.2179  0.1020
  883SOL    HW1 2648   1.269   0.313   1.160 -0.3026  0.8668  1.5196
  883SOL    HW2 2649   1.213   0.455   1.077 -2.3254  0.4006  1.8623
  884SOL     OW 2650   3.021   2.806   1.113 -0.2004 -0.3650 -0.4393
  884SOL    HW1 2651   3.049   2.903   1.115  3.5453 -2.7152  0.2688
  884SOL    HW2 2652   2.973   2.780   1.201 -0.2174 -1.3110  3.3985
  885SOL     OW 2653   1.222   1.301   1.413 -0.5022  0.5925  0.3395
  885SOL    HW1 2654   1.158   1.274   1.482  1.1568 -0.9918 -1.9588
  885SOL    HW2 2655   1.315   1.292   1.455 -0.6728 -0.8474 -1.2729
  886SOL     OW 2656   1.090   0.997   2.813  0.2672  0.1910  0.0497
  886SOL    HW1 2657   1.057   1.040   2.897  0.8130 -0.1024 -0.5132
  886SOL    HW2 2658   1.158   1.056   2.766 -1.0267 -0.0289  2.7545
  887SOL     OW 2659   1.154   0.503   0.840 -0.1380 -0.1687  0.4695
  887SOL    HW1 2660   1.166   0.566   0.761  0.6083  2.0996 -1.1055
  887SOL    HW2 2661   1.057   0.477   0.856  2.6873  3.4455 -1.5697
  888SOL     OW 2662   2.065   1.272   1.787 -0.0132  0.2001  0.1465
  888SOL    HW1 2663   2.123   1.354   1.769  2.2930 -0.3102 -0.6456
  888SOL    HW2 2664   2.113   1.199   1.837 -0.1644 -1.8961  1.9069
  889SOL     OW 2665   2.838   2.434   1.198  0.2810 -0.2795 -0.3509
  889SOL    HW1 2666   2.894   2.442   1.114 -0.4882  0.5069  1.3283
  889SOL    HW2 2667   2.744   2.465   1.181  0.0642 -0.4005 -0.5278
  890SOL     OW 2668   1.420   2.032   0.533  0.3406  0.9065 -0.3316
  890SOL    HW1 2669   1.411   2.035   0.637  0.3727 -0.9588 -1.1950
  890SOL    HW2 2670   1.356   1.965   0.492  0.4536  0.1696 -0.8781
  891SOL     OW 2671   2.591   0.658   2.264 -0.2435 -0.3142 -0.8100
  891SOL    HW1 2672   2.688   0.657   2.290  3.4791 -0.2795  1.4510
  891SOL    HW2 2673   2.582   0.639   2.163  2.3411 -0.9569  1.4499
  892SOL     OW 2674   0.366   3.045   1.661  0.3242  0.6185  0.0555
  892SOL    HW1 2675   0.273   3.076   1.690  0.7119 -0.6942 -0.7077
  892SOL    HW2 2676   0.402   0.020   1.579 -0.2022 -0.7819  2.2349
  893SOL     OW 2677   1.088   0.350   2.327  0.1954 -0.3840 -0.5716
  893SOL    HW1 2678   1.076   0.248   2.330  0.4065 -1.1795 -3.2939
  893SOL    HW2 2679   1.113   0.388   2.418  2.0118  2.2153  0.7080
  894SOL     OW 2680   2.564   0.537   0.748  0.4848  0.1070  0.2067
  894SOL    HW1 2681   2.626   0.516   0.829  0.5284 -0.0622  1.1897
  894SOL    HW2 2682   2.511   0.623   0.768 -0.1110 -0.4251 -0.3573
  895SOL     OW 2683   1.800   1.660   2.172 -0.1335  0.1638  0.0160
  895SOL    HW1 2684   1.712   1.634   2.214  0.7382  1.4126 -0.7996
  895SOL    HW2 2685   1.803   1.624   2.079 -1.6472 -0.6873  0.6303
  896SOL     OW 2686   1.737   0.327   1.405  0.0601  0.1774  0.0958
  896SOL    HW1 2687   1.787   0.281   1.483  1.2262 -0.6690  1.8856
  896SOL    HW2 2688   1.636   0.349   1.425 -2.6167  2.6611  1.1921
  897SOL     OW 2689   0.621   1.888   1.749 -0.9665 -0.3592 -0.3866
  897SOL    HW1 2690   0.620   1.792   1.722 -0.8465 -1.3624 -0.2909
  897SOL    HW2 2691   0.578   1.937   1.677  2.3476 -2.9148  2.7501
  898SOL     OW 2692   2.035   1.694   1.919 -0.2275 -0.0901 -0.3705
  898SOL    HW1 2693   2.064   1.629   1.996  1.5566 -0.3341  4.1182
  898SOL    HW2 2694   1.947   1.668   1.872 -2.6977 -1.3412 -1.1208
  899SOL     OW 2695   1.800   1.900   1.004 -0.5593 -0.1728  0.3277
  899SOL    HW1 2696   1.879   1.941   0.950  2.8453  2.5755 -0.4450
  899SOL    HW2 2697   1.766   1.966   1.076  0.1667  0.2507  0.5529
  900SOL     OW 2698   0.844   0.029   2.696 -0.6451 -0.2286 -0.2484
  900SOL    HW1 2699   0.862   3.027   2.758 -0.2568  0.0811 -1.2110
  900SOL    HW2 2700   0.925   0.064   2.652 -1.5036 -1.7130 -1.3858
  901SOL     OW 2701   1.242   1.345   2.232  0.6180 -0.3324 -0.2779
  901SOL    HW1 2702   1.195   1.406   2.301 -0.4619  1.1218  2.5493
  901SOL    HW2 2703   1.313   1.399   2.182 -1.8941  1.0188 -2.3066
  902SOL     OW 2704   2.150   0.536   3.028 -0.3143 -0.4656  0.4286
  902SOL    HW1 2705   2.211   0.597   2.972  0.8771  0.5077 -2.9789
  902SOL    HW2 2706   2.177   0.549   0.046 -0.4632 -0.0883 -0.4687
  903SOL     OW 2707   2.189   0.964   2.201 -0.1134  0.6654 -0.0431
  903SOL    HW1 2708   2.288   0.938   2.214 -0.1344 -1.5158 -0.7608
  903SOL    HW2 2709   2.165   1.047   2.250  0.4421 -2.0837 -2.7687
  904SOL     OW 2710   1.951   1.143   1.538 -0.0952 -0.0110  0.0881
  904SOL    HW1 2711   2.026   1.101   1.479 -1.1034  1.2076  0.3697
  904SOL    HW2 2712   1.984   1.195   1.619 -2.1839  0.4572 -1.3235
  905SOL     OW 2713   2.117   0.507   0.690 -0.8986  0.0071 -0.0597
  905SOL    HW1 2714   2.191   0.439   0.677  1.0001 -2.1900  0.1682
  905SOL    HW2 2715   2.107   0.536   0.787 -0.4182  0.7203  0.7604
  906SOL     OW 2716   2.369   2.003   0.481  0.0575  0.4680 -0.1541
  906SOL    HW1 2717   2.403   1.926   0.427  2.3127  0.3900 -1.0631
  906SOL    HW2 2718   2.335   1.972   0.573 -0.0816 -1.0253 -0.5290
  907SOL     OW 2719   1.505   2.991   0.553 -0.3698 -0.3551  0.3176
  907SOL    HW1 2720   1.466   0.005   0.566  0.2863 -1.2114  2.4005
  907SOL    HW2 2721   1.580   2.983   0.486 -0.7599 -2.5328  1.3151
  908SOL     OW 2722   1.666   2.316   2.338 -0.4935  0.0629  0.5600
  908SOL    HW1 2723   1.622   2.304   2.244 -3.0145 -0.7765 -2.9401
  908SOL    HW2 2724   1.700   2.412   2.345 -1.1153  1.4272  2.7994
  909SOL     OW 2725   2.257   0.401   1.936  0.3993 -0.0691 -0.1032
  909SOL    HW1 2726   2.305   0.404   2.029  0.5511 -1.7381 -1.2098
  909SOL    HW2 2727   2.212   0.492   1.910 -0.1757  1.0605 -1.1810
  910SOL     OW 2728   1.069   0.091   2.560 -0.1472 -0.1086  0.0721
  910SOL    HW1 2729   1.104   0.186   2.555 -0.1310  1.2376 -1.5329
  910SOL    HW2 2730   1.141   0.028   2.597 -0.4526 -2.0951  0.1989
  911SOL     OW 2731   2.827   1.109   2.909  0.0406  0.1391  0.8786
  911SOL    HW1 2732   2.809   1.012   2.918  0.8744  0.6914  1.0451
  911SOL    HW2 2733   2.893   1.143   2.981 -0.3528  2.5143 -2.2480
  912SOL     OW 2734   3.058   2.118   1.529 -0.5081  0.4308 -0.5133
  912SOL    HW1 2735   2.976   2.101   1.590  1.5388 -0.5109  0.7292
  912SOL    HW2 2736   0.054   2.051   1.554  0.2232  1.2146 -0.6302
  913SOL     OW 2737   2.555   1.781   2.616 -0.0342  0.3270  0.3822
  913SOL    HW1 2738   2.464   1.807   2.576 -2.0607  2.7979 -0.7651
  913SOL    HW2 2739   2.545   1.765   2.713 -1.3729  0.4864 -2.6740
  914SOL     OW 2740   2.013   1.704   0.753 -0.3389  0.2851  0.0956
  914SOL    HW1 2741   1.988   1.681   0.660  0.9725 -0.6237  3.3146
  914SOL    HW2 2742   2.011   1.803   0.772  1.0417  0.9458 -2.4291
  915SOL     OW 2743   0.311   2.711   2.125  0.0123 -0.2535 -0.1778
  915SOL    HW1 2744   0.351   2.705   2.217  0.2149 -2.2057  1.7786
  915SOL    HW2 2745   0.360   2.640   2.066 -0.9623 -2.2331  1.0269
  916SOL     OW 2746   0.633   2.787   0.744  0.1583  0.0645 -0.0584
  916SOL    HW1 2747   0.621   2.813   0.846  0.3633  1.6974  2.2869
  916SOL    HW2 2748   0.640   2.870   0.685  1.3856 -1.9679 -0.7023
  917SOL     OW 2749   2.360   0.558   2.689 -0.5130 -0.3112 -0.4157
  917SOL    HW1 2750   2.328   0.618   2.768 -0.2029 -0.3804  1.0754
  917SOL    HW2 2751   2.360   0.614   2.604 -0.4007  0.5290  0.9022
  918SOL     OW 2752   1.563   2.583   2.754 -0.0863  0.0463  0.0030
  918SOL    HW1 2753   1.562   2.562   2.856 -1.6126 -1.5004 -2.4458
  918SOL    HW2 2754   1.619   2.519   2.700  0.1152 -0.1573  0.6773
  919SOL     OW 2755   1.735   2.124   1.163  0.1815 -0.8951 -0.1709
  919SOL    HW1 2756   1.791   2.131   1.248 -1.1076  0.5212  0.5932
  919SOL    HW2 2757   1.649   2.167   1.185  1.2034 -0.0144 -0.7627
  920SOL     OW 2758   1.346   0.158   2.349  0.1434  0.0457  0.4409
  920SOL    HW1 2759   1.416   0.176   2.420  2.2161  0.8364  2.2658
  920SOL    HW2 2760   1.351   0.058   2.322  1.4142 -2.0986 -0.0616
  921SOL     OW 2761   0.144   0.848   2.504 -0.2573 -0.2316 -0.1727
  921SOL    HW1 2762   0.236   0.870   2.465 -1.0808  1.5479  0.3974
  921SOL    HW2 2763   0.127   0.751   2.525  0.8825  1.5934  0.6372
  922SOL     OW 2764   0.037   1.860   1.269  0.6287  0.0465 -0.0944
  922SOL    HW1 2765   3.022   1.876   1.226 -0.6518 -0.3125 -1.0396
  922SOL    HW2 2766   0.033   1.824   1.362  0.2665  0.8636  1.2866
  923SOL     OW 2767   0.183   1.547   2.429  0.6839 -0.2068  0.3172
  923SOL    HW1 2768   0.174   1.605   2.343 -2.5694  1.2893  0.0737
  923SOL    HW2 2769   0.164   1.448   2.406 -0.3188 -2.6461 -3.7279
  924SOL     OW 2770   1.468   0.178   2.120 -0.3166  0.3633  0.2651
  924SOL    HW1 2771   1.465   0.090   2.066  3.1969 -1.8203  2.0740
  924SOL    HW2 2772   1.413   0.171   2.203 -0.3706 -0.2447 -4.5165
  925SOL     OW 2773   2.978   1.461   0.737 -0.4239  0.7589 -0.1257
  925SOL    HW1 2774   3.041   1.523   0.783  1.1167 -0.4356 -2.0543
  925SOL    HW2 2775   3.031   1.375   0.726  2.6641 -0.3759  2.0797
  926SOL     OW 2776   2.381   0.663   1.054  0.2496 -0.1184 -0.3903
  926SOL    HW1 2777   2.404   0.565   1.032  0.8186 -0.0008 -1.5760
  926SOL    HW2 2778   2.379   0.674   1.157  3.5120  0.2880  1.9785
  927SOL     OW 2779   1.659   0.685   1.143  0.2564  0.5909 -0.3204
  927SOL    HW1 2780   1.643   0.691   1.046 -0.4493 -2.0346 -0.0186
  927SOL    HW2 2781   1.573   0.668   1.193  1.2639  0.5895  0.9430
  928SOL     OW 2782   2.955   0.787   2.252 -0.2119  0.4996 -0.4280
  928SOL    HW1 2783   2.975   0.873   2.310 -0.1888  0.5965 -1.2163
  928SOL    HW2 2784   3.030   0.740   2.200  0.0066  1.7591  2.2022
  929SOL     OW 2785   2.237   0.932   1.085 -0.2382  0.4346  0.0398
  929SOL    HW1 2786   2.338   0.947   1.070  1.8851  0.5119  0.0257
  929SOL    HW2 2787   2.185   0.990   1.018  0.0467 -2.7349 -0.6728
  930SOL     OW 2788   1.885   2.314   1.017  0.3760 -0.6640  0.9078
  930SOL    HW1 2789   1.880   2.350   0.920  0.1534  1.7992  2.3044
  930SOL    HW2 2790   1.807   2.255   1.048 -2.0322  2.3026 -0.7756
  931SOL     OW 2791   1.763   1.136   1.146 -0.1665 -0.0871  0.6011
  931SOL    HW1 2792   1.858   1.172   1.133  2.7289  0.3222  0.4932
  931SOL    HW2 2793   1.779   1.038   1.177 -0.0140 -0.7277  1.7454
  932SOL     OW 2794   3.014   0.900   1.648  0.0435  0.1494 -0.1169
  932SOL    HW1 2795   2.931   0.928   1.594 -1.9281 -0.3075 -1.7586
  932SOL    HW2 2796   3.026   0.961   1.732 -0.2416  0.8407  3.7308
  933SOL     OW 2797   2.229   1.723   1.627 -0.1196  0.3017 -0.0327
  933SOL    HW1 2798   2.148   1.787   1.639  0.6720 -1.9115  0.6995
  933SOL    HW2 2799   2.288   1.741   1.707 -1.3578  1.0876  0.8947
  934SOL     OW 2800   1.393   2.746   1.856 -0.5379  0.1071 -0.1498
  934SOL    HW1 2801   1.345   2.759   1.764  0.9128 -0.8683 -0.4394
  934SOL    HW2 2802   1.356   2.799   1.937 -1.0563  0.1946 -0.7820
  935SOL     OW 2803   0.159   1.018   1.407 -0.2312 -0.4663 -0.1370
  935SOL    HW1 2804   0.198   1.098   1.462 -1.1674  0.9021 -0.4499
  935SOL    HW2 2805   0.062   1.000   1.427 -0.8027 -0.2492 -0.3132
  936SOL     OW 2806   2.626   0.536   1.191  0.3795  0.4417  0.0554
  936SOL    HW1 2807   2.578   0.465   1.244 -0.6508 -1.8472  0.0070
  936SOL    HW2 2808   2.673   0.604   1.247  0.5593  0.3627 -2.3663
  937SOL     OW 2809   0.723   0.134   1.416  0.0376  0.2595 -0.6051
  937SOL    HW1 2810   0.778   0.163   1.498  1.7049 -0.4164 -0.7110
  937SOL    HW2 2811   0.657   0.065   1.447  2.3984 -1.8315  0.2902
  938SOL     OW 2812   0.350   2.840   0.928 -0.9972  0.1500  0.3019
  938SOL    HW1 2813   0.362   2.746   0.960 -4.2438  1.1547  1.5305
  938SOL    HW2 2814   0.323   2.851   0.831  0.6112  0.7273  1.7778
  939SOL     OW 2815   2.803   2.079   2.930 -0.2610 -0.6157  0.2035
  939SOL    HW1 2816   2.888   2.062   2.872  2.5271  0.5965 -1.5463
  939SOL    HW2 2817   2.787   2.180   2.926  1.4434 -1.1098 -0.3131
  940SOL     OW 2818   1.627   1.855   2.928  0.4942 -0.3092 -0.2128
  940SOL    HW1 2819   1.710   1.864   2.989  3.6296  0.4044  0.7127
  940SOL    HW2 2820   1.658   1.831   2.833  1.0585  0.0293 -1.0845
  941SOL     OW 2821   1.653   2.772   0.640  0.2770  0.8158 -0.2375
  941SOL    HW1 2822   1.744   2.747   0.607 -0.1557  0.6244  0.6838
  941SOL    HW2 2823   1.598   2.826   0.573 -1.3080 -0.4915 -1.7802
  942SOL     OW 2824   2.129   1.655   0.993  0.0035  0.0432  0.0883
  942SOL    HW1 2825   2.202   1.586   1.006 -2.9869 -0.6431 -1.5942
  942SOL    HW2 2826   2.091   1.655   0.898  1.8873  0.1580  0.8217
  943SOL     OW 2827   1.982   0.523   1.662  0.0683 -0.4099 -0.5075
  943SOL    HW1 2828   1.881   0.531   1.647 -1.5939 -1.0741 -0.5890
  943SOL    HW2 2829   2.023   0.591   1.597  0.6230  1.2043 -4.1517
  944SOL     OW 2830   1.407   0.708   1.808 -0.3151  0.0086 -0.1091
  944SOL    HW1 2831   1.352   0.794   1.815 -0.0856 -1.5400 -2.2046
  944SOL    HW2 2832   1.508   0.730   1.803  1.8208 -1.8805  2.0274
  945SOL     OW 2833   2.254   2.807   1.254 -0.5320  0.5094  1.0676
  945SOL    HW1 2834   2.244   2.863   1.164 -0.3321 -0.3794  2.0174
  945SOL    HW2 2835   2.210   2.860   1.331 -0.8447 -0.3468  4.0270
  946SOL     OW 2836   0.901   1.748   0.696 -0.1693  0.2093 -0.0615
  946SOL    HW1 2837   0.935   1.814   0.622  0.1934  1.5915 -2.5373
  946SOL    HW2 2838   0.803   1.767   0.713  0.8429 -0.4774  0.3039
  947SOL     OW 2839   1.018   2.623   0.916 -0.0550  0.5866 -0.3312
  947SOL    HW1 2840   1.083   2.549   0.949 -2.8395  0.1366  0.1805
  947SOL    HW2 2841   0.955   2.599   0.838 -0.5877  0.0667 -0.9351
  948SOL     OW 2842   0.274   1.710   1.370 -0.3054  0.2607  0.1409
  948SOL    HW1 2843   0.270   1.767   1.284  0.1919 -0.3216 -1.5533
  948SOL    HW2 2844   0.296   1.608   1.349 -0.6634  0.1875 -0.0817
  949SOL     OW 2845   0.653   1.143   1.639 -0.0459  0.5194  0.3984
  949SOL    HW1 2846   0.601   1.072   1.686 -1.6173 -1.3914 -0.1653
  949SOL    HW2 2847   0.730   1.185   1.696  0.1426  2.2177  1.7124
  950SOL     OW 2848   0.548   0.763   1.167  0.2141 -0.0462  0.5673
  950SOL    HW1 2849   0.617   0.771   1.243  2.6309 -1.5320  1.2453
  950SOL    HW2 2850   0.455   0.769   1.205  3.5271 -2.6759 -0.7548
  951SOL     OW 2851   0.933   1.940   2.068  0.2620  0.6056  0.3652
  951SOL    HW1 2852   0.878   1.884   2.135 -2.3555 -3.1328  1.3276
  951SOL    HW2 2853   1.011   1.981   2.117 -0.3848  1.2742 -2.9864
  952SOL     OW 2854   1.145   1.799   0.006 -0.2747  0.3873 -0.0744
  952SOL    HW1 2855   1.084   1.731   3.036 -0.0083  0.3751 -2.3467
  952SOL    HW2 2856   1.128   1.792   0.109  1.3389  1.5323  1.8113
  953SOL     OW 2857   0.996   2.845   2.795 -0.5414 -0.4992  0.1141
  953SOL    HW1 2858   0.951   2.774   2.847 -0.6900  1.7728 -2.7234
  953SOL    HW2 2859   1.003   2.818   2.699 -1.3275  1.7802 -0.4616
  954SOL     OW 2860   1.836   1.288   2.976  0.5693  0.4118 -0.0703
  954SOL    HW1 2861   1.769   1.233   3.035  0.1457 -1.5863  0.7740
  954SOL    HW2 2862   1.877   1.361   3.038 -1.4595  4.0223  1.1502
  955SOL     OW 2863   0.182   2.613   2.995  0.4976 -0.1025 -0.4679
  955SOL    HW1 2864   0.177   2.715   3.013 -2.1222 -1.8279 -1.8365
  955SOL    HW2 2865   0.099   2.582   2.945 -0.9142  0.5566 -2.6648
  956SOL     OW 2866   1.285   0.926   1.459  0.1985 -0.2747  0.8271
  956SOL    HW1 2867   1.353   0.941   1.383 -1.9813 -0.3593 -2.4050
  956SOL    HW2 2868   1.191   0.947   1.422  0.0693  1.0138 -0.8806
  957SOL     OW 2869   1.505   1.941   1.872  0.1351  0.3399 -0.2388
  957SOL    HW1 2870   1.599   1.960   1.839  2.4953  2.1785  1.5908
  957SOL    HW2 2871   1.458   2.025   1.910 -0.6917  3.9068  1.1041
  958SOL     OW 2872   1.240   1.957   1.500  0.1482 -0.0859  0.3222
  958SOL    HW1 2873   1.312   2.029   1.528  1.0885 -0.6102 -0.4407
  958SOL    HW2 2874   1.277   1.906   1.420 -1.1878  1.3135 -0.5031
  959SOL     OW 2875   1.510   1.198   1.037  0.1178  0.1195  0.5692
  959SOL    HW1 2876   1.602   1.157   1.061  4.2287  0.5405 -0.1295
  959SOL    HW2 2877   1.464   1.135   0.973  0.7854 -0.6364 -0.5769
  960SOL     OW 2878   0.417   1.249   2.964 -0.6433 -0.7254 -0.3010
  960SOL    HW1 2879   0.506   1.282   3.003  0.7473  0.6514  0.9633
  960SOL    HW2 2880   0.411   1.152   2.930  1.2873 -0.5052 -2.1519
  961SOL     OW 2881   0.761   1.535   1.859  0.6653 -0.2310 -1.0983
  961SOL    HW1 2882   0.704   1.549   1.943 -1.0891  0.4084  1.9373
  961SOL    HW2 2883   0.856   1.562   1.886  2.0777 -0.0434  2.4915
  962SOL     OW 2884   1.253   1.808   0.500  0.1220  0.2101  0.3117
  962SOL    HW1 2885   1.295   1.789   0.591  1.5923  0.7702  0.0778
  962SOL    HW2 2886   1.158   1.846   0.504 -0.9340 -0.6394 -1.5563
  963SOL     OW 2887   1.542   1.710   2.475  0.6084  0.0009 -0.1458
  963SOL    HW1 2888   1.559   1.781   2.402 -0.3694 -1.3130  1.9303
  963SOL    HW2 2889   1.444   1.680   2.469  0.8929 -0.1665 -0.3096
  964SOL     OW 2890   0.713   0.137   0.328 -0.2941  0.2489  0.0523
  964SOL    HW1 2891   0.618   0.170   0.341 -0.0770  1.5599  0.8415
  964SOL    HW2 2892   0.740   0.052   0.374 -1.8582  0.3575 -0.4842
  965SOL     OW 2893   0.698   2.550   0.943  0.3215 -0.6918  0.0731
  965SOL    HW1 2894   0.731   2.583   0.849  1.0721  0.7331 -2.0953
  965SOL    HW2 2895   0.680   2.629   1.005 -3.6070 -0.7742 -2.3656
  966SOL     OW 2896   0.475   2.044   2.691 -0.4115 -0.8245 -0.7383
  966SOL    HW1 2897   0.395   2.071   2.631 -0.7829 -2.9255 -0.8229
  966SOL    HW2 2898   0.445   2.025   2.792  1.2488 -0.2621  2.1224
  967SOL     OW 2899   0.103   2.862   2.633  0.3333 -0.1379  0.1985
  967SOL    HW1 2900   0.033   2.871   2.556 -2.7481  0.9137 -2.1159
  967SOL    HW2 2901   0.052   2.860   2.717 -2.8964  2.4129 -0.6262
  968SOL     OW 2902   2.096   0.562   0.255 -0.1598  0.0433  0.0120
  968SOL    HW1 2903   2.157   0.488   0.270 -2.6711 -0.9764  0.9934
  968SOL    HW2 2904   2.147   0.647   0.238  0.7500  0.7310  1.1273
  969SOL     OW 2905   0.354   1.150   1.874  0.4692 -0.1573 -0.1150
  969SOL    HW1 2906   0.285   1.136   1.798  2.9350  0.5372  1.8004
  969SOL    HW2 2907   0.433   1.094   1.845 -1.6760 -0.0839 -0.8450
  970SOL     OW 2908   2.625   1.279   1.362  0.2943  0.3764  0.2602
  970SOL    HW1 2909   2.655   1.245   1.453 -0.9478  0.9053 -2.8618
  970SOL    HW2 2910   2.562   1.210   1.318  0.2859 -1.0577  0.5136
  971SOL     OW 2911   2.195   0.105   1.071 -0.1769  0.3248 -0.2714
  971SOL    HW1 2912   2.186   0.152   0.980  1.8287  1.9803 -0.0808
  971SOL    HW2 2913   2.233   0.013   1.076 -0.4631  1.4616 -0.8695
  972SOL     OW 2914   2.980   2.881   1.914 -0.6230 -0.3289  0.1201
  972SOL    HW1 2915   3.065   2.827   1.889 -1.5300  1.0639 -0.8352
  972SOL    HW2 2916   2.930   2.915   1.832 -1.3828  1.4592  0.3983
  973SOL     OW 2917   0.095   0.574   0.071  0.3353  0.2800  0.7698
  973SOL    HW1 2918   0.163   0.617   0.134  0.1140 -0.3171 -0.8377
  973SOL    HW2 2919   0.077   0.638   0.001  0.0752 -3.5987  4.0615
  974SOL     OW 2920   1.942   1.337   2.146 -0.0330  0.4473  0.3642
  974SOL    HW1 2921   2.035   1.379   2.133  2.9838  0.7723  1.4521
  974SOL    HW2 2922   1.897   1.318   2.052 -0.2347  0.9470 -1.9363
  975SOL     OW 2923   2.879   2.944   1.654 -0.2225  0.0552 -0.4372
  975SOL    HW1 2924   2.895   2.984   1.563  0.9058 -2.6159 -0.0142
  975SOL    HW2 2925   2.908   2.847   1.653 -0.0520  0.8095  0.2176
  976SOL     OW 2926   0.434   2.172   2.338 -0.2396 -0.8833  0.2086
  976SOL    HW1 2927   0.522   2.150   2.378 -2.6476  0.4129  0.1191
  976SOL    HW2 2928   0.415   2.095   2.273 -0.6023  0.0547  1.3919
  977SOL     OW 2929   1.083   2.684   0.538 -0.4351 -0.3193 -0.1488
  977SOL    HW1 2930   1.036   2.669   0.451 -2.2194  2.1763 -0.1799
  977SOL    HW2 2931   1.175   2.728   0.523  1.9409  1.1442 -1.2801
  978SOL     OW 2932   3.038   1.672   2.529  0.5331 -0.5251  0.6714
  978SOL    HW1 2933   0.045   1.619   2.505  0.9733 -1.3091  1.7291
  978SOL    HW2 2934   3.034   1.691   2.629  0.9407 -0.0104 -0.6269
  979SOL     OW 2935   1.640   2.485   1.553  0.5290 -0.4123  0.3185
  979SOL    HW1 2936   1.591   2.457   1.638  0.0687  2.0504  1.7326
  979SOL    HW2 2937   1.735   2.452   1.541 -2.4046  0.6830 -0.0641
  980SOL     OW 2938   0.623   1.601   2.822  0.0065  0.0691 -0.1088
  980SOL    HW1 2939   0.601   1.504   2.820  0.8444  1.6689  1.4133
  980SOL    HW2 2940   0.544   1.649   2.860 -1.1030  1.8111  0.3048
  981SOL     OW 2941   2.258   2.997   2.349 -0.5447 -0.1212 -0.1070
  981SOL    HW1 2942   2.257   2.938   2.267 -2.8092  2.5988  4.1705
  981SOL    HW2 2943   2.297   2.946   2.432 -1.5040  1.3055 -0.7405
  982SOL     OW 2944   3.017   0.387   2.758  0.3558  0.5564  0.2784
  982SOL    HW1 2945   2.937   0.430   2.807  0.8839 -0.6627 -2.2915
  982SOL    HW2 2946   2.990   0.310   2.696 -1.5037 -1.0581 -1.2622
  983SOL     OW 2947   1.827   1.294   1.924  1.2264  0.6060  0.0695
  983SOL    HW1 2948   1.892   1.288   1.848  1.2542 -0.6915 -0.9142
  983SOL    HW2 2949   1.802   1.193   1.946  2.7780 -0.1491  1.0142
  984SOL     OW 2950   1.255   0.497   1.838  0.6364 -0.1042  0.8586
  984SOL    HW1 2951   1.269   0.445   1.920  1.1504 -0.6340 -3.0063
  984SOL    HW2 2952   1.314   0.578   1.839 -2.4703 -3.5426 -1.3214
  985SOL     OW 2953   1.549   1.549   1.708 -0.1235 -0.1062  0.0406
  985SOL    HW1 2954   1.485   1.629   1.698  5.1268 -1.0562 -0.1246
  985SOL    HW2 2955   1.596   1.532   1.621  3.4099  1.0240 -1.7804
  986SOL     OW 2956   2.080   0.266   1.705 -0.3399 -0.7747 -0.4648
  986SOL    HW1 2957   2.180   0.249   1.700 -0.3296 -1.6224  1.6345
  986SOL    HW2 2958   2.060   0.366   1.693 -0.1372 -0.5911  2.2093
  987SOL     OW 2959   2.253   0.448   1.431  0.5633  0.6893  0.3930
  987SOL    HW1 2960   2.291   0.417   1.521 -0.4029 -1.9306 -1.9852
  987SOL    HW2 2961   2.152   0.435   1.431  0.7655 -0.3875  0.9477
  988SOL     OW 2962   2.797   0.823   2.034 -0.7990 -0.0017  0.1586
  988SOL    HW1 2963   2.720   0.762   2.047  1.7197  0.1359 -0.8602
  988SOL    HW2 2964   2.872   0.816   2.111  2.0554 -0.5987  1.0100
  989SOL     OW 2965   2.110   1.817   2.817  0.2064 -0.5203 -0.1826
  989SOL    HW1 2966   2.042   1.797   2.745 -0.1808 -2.0862  1.0970
  989SOL    HW2 2967   2.079   1.864   2.904 -1.1155  2.3157  1.6518
  990SOL     OW 2968   1.377   0.405   2.924 -0.5146  0.0701 -0.6915
  990SOL    HW1 2969   1.285   0.365   2.932  0.9230 -1.3127  2.1476
  990SOL    HW2 2970   1.387   0.476   2.853  2.1088  2.2717  0.3045
  991SOL     OW 2971   1.321   0.853   0.261 -0.1472  0.5717  0.1133
  991SOL    HW1 2972   1.368   0.864   0.357 -0.4484 -0.1286  3.7482
  991SOL    HW2 2973   1.328   0.758   0.224  0.8872  1.0193 -0.5643
  992SOL     OW 2974   2.303   1.623   2.779  0.5745  0.9105  1.0096
  992SOL    HW1 2975   2.371   1.661   2.846 -1.1651 -1.8755 -0.4959
  992SOL    HW2 2976   2.224   1.682   2.779  4.8744  1.0783 -2.6829
  993SOL     OW 2977   0.406   0.507   0.298  0.0942  0.2051 -0.3435
  993SOL    HW1 2978   0.386   0.407   0.292  0.2530  0.2989  0.5311
  993SOL    HW2 2979   0.341   0.548   0.365  0.1082 -0.9201 -0.2434
  994SOL     OW 2980   0.179   1.688   2.191  0.0694  0.0128 -0.1817
  994SOL    HW1 2981   0.090   1.737   2.167  3.2931 -0.1037 -1.7059
  994SOL    HW2 2982   0.223   1.646   2.108  3.5700  2.0103 -3.0713
  995SOL     OW 2983   1.948   1.185   2.539  0.2704  0.4077  0.0424
  995SOL    HW1 2984   1.914   1.280   2.537 -2.2185 -0.2514  1.4584
  995SOL    HW2 2985   2.034   1.176   2.596  0.9402  0.7560 -1.7424
  996SOL     OW 2986   1.949   1.542   2.621  0.2242 -0.0012 -0.0047
  996SOL    HW1 2987   1.978   1.611   2.556  0.1293  1.4882 -0.2832
  996SOL    HW2 2988   1.850   1.539   2.641  1.4427  1.0896 -2.4978
  997SOL     OW 2989   2.264   1.452   1.698  0.3774 -0.5657 -0.5409
  997SOL    HW1 2990   2.331   1.481   1.772  0.3611  1.6251  1.9263
  997SOL    HW2 2991   2.190   1.518   1.676 -0.9744  1.0657 -0.9674
  998SOL     OW 2992   2.492   1.512   0.309 -0.1911 -0.2758 -0.4128
  998SOL    HW1 2993   2.464   1.424   0.275 -0.5572  1.0015  0.7656
  998SOL    HW2 2994   2.594   1.526   0.289  3.7409 -1.9352 -1.8116
  999SOL     OW 2995   2.702   2.612   0.374 -0.0447  0.4907 -0.1477
  999SOL    HW1 2996   2.719   2.528   0.436 -0.2942 -1.0305  2.0267
  999SOL    HW2 2997   2.606   2.618   0.345  0.1713 -2.7000  3.0990
 1000SOL     OW 2998   0.345   0.138   1.960 -0.2134  0.4808 -0.0160
 1000SOL    HW1 2999   0.420   0.106   1.897  0.5741  1.6935  2.9469
 1000SOL    HW2 3000   0.371   0.234   1.985  1.8625 -3.2847 -2.0531
   3.07731   3.07731   3.07731
