1000 SPC/Fw water molecules t=   0.63000 step= 630
 2931
    1SOL     OW    1   2.478   0.376   2.610 -0.3667 -0.1851 -0.2792
    1SOL    HW1    2   2.501   0.276   2.587  0.4129 -0.3156  0.2018
    1SOL    HW2    3   2.538   0.407   2.693  0.6252 -1.7361  1.6911
    2SOL     OW    4   2.703   3.057   1.401  0.4417 -0.0862 -0.0332
    2SOL    HW1    5   2.739   3.081   1.306 -0.3252 -0.5305 -1.8012
    2SOL    HW2    6   2.699   3.143   1.461 -0.1509 -0.0544 -2.5794
    3SOL     OW    7   2.732   2.590   0.368 -0.0453  0.4394 -0.4646
    3SOL    HW1    8   2.691   2.504   0.404  0.0634  0.5878 -1.6944
    3SOL    HW2    9   2.820   2.616   0.416 -1.6210 -0.2096 -0.6856
    4SOL     OW   10   1.286   1.459   2.362 -0.1293  0.1569  0.0160
    4SOL    HW1   11   1.202   1.527   2.352  1.3873 -0.9684  0.3734
    4SOL    HW2   12   1.263   1.380   2.424 -0.6261  1.0084 -2.3862
    5SOL     OW   13   1.178   1.499   3.079 -0.2355  0.0606  0.1990
    5SOL    HW1   14   1.234   1.584   3.088 -1.6527  0.3790 -0.3955
    5SOL    HW2   15   1.075   1.517   3.099 -1.9878 -0.0897 -1.2608
    6SOL     OW   16   0.093   1.843   2.936  0.0369  0.0871  0.0643
    6SOL    HW1   17   0.046   1.892   3.015  1.6728  1.3824 -0.9029
    6SOL    HW2   18   0.158   1.769   2.961 -0.1697  4.4004  0.5458
    7SOL     OW   19   2.525   0.918   1.149 -0.1698  0.6000 -0.4207
    7SOL    HW1   20   2.456   0.853   1.178 -0.0343  0.6301  0.4422
    7SOL    HW2   21   2.548   0.915   1.050  2.7758  1.5583  1.6223
    8SOL     OW   22   0.430   0.587   1.531 -0.4673 -0.4699 -0.1555
    8SOL    HW1   23   0.500   0.523   1.568 -0.6050  1.9961  0.0698
    8SOL    HW2   24   0.436   0.599   1.428 -0.0940  1.3501 -0.6874
    9SOL     OW   25   1.145   0.914   2.310 -0.4610 -0.3440  0.0035
    9SOL    HW1   26   1.235   0.935   2.263  0.1832 -0.9524 -0.4871
    9SOL    HW2   27   1.074   0.879   2.248  0.1345  1.4183  2.6771
   10SOL     OW   28   0.664   1.333   1.269 -0.4042 -0.1686  0.0526
   10SOL    HW1   29   0.568   1.358   1.241 -3.5922 -3.0575 -0.5386
   10SOL    HW2   30   0.737   1.410   1.275 -0.9505  0.5160  0.0214
   11SOL     OW   31   2.368   2.743   0.910 -0.3781  0.4245 -1.3476
   11SOL    HW1   32   2.365   2.718   1.012  1.5934  3.0817 -0.4710
   11SOL    HW2   33   2.463   2.784   0.885  2.4123  0.4736  0.5180
   12SOL     OW   34   1.476   0.876   0.331 -0.0711 -0.5018  0.3073
   12SOL    HW1   35   1.387   0.926   0.322  0.8136 -2.3898  1.0175
   12SOL    HW2   36   1.480   0.799   0.263  2.6266  1.7583  1.2096
   13SOL     OW   37   2.504   0.658   1.805  0.1375  0.1567  0.5403
   13SOL    HW1   38   2.419   0.662   1.865  0.5105  2.7468  0.3398
   13SOL    HW2   39   2.488   0.665   1.699  0.2257 -1.1473 -0.1070
   14SOL     OW   40   1.957   0.096   0.738  0.1542  0.6834 -0.2106
   14SOL    HW1   41   1.874   0.128   0.684  0.4057 -1.1766 -2.4922
   14SOL    HW2   42   1.934   0.015   0.794 -1.1646  0.1542 -2.3833
   15SOL     OW   43   1.943   2.005   2.780  0.2902  0.4363 -0.5548
   15SOL    HW1   44   1.919   2.097   2.745 -3.2148 -1.4033  1.7351
   15SOL    HW2   45   1.892   1.932   2.723 -0.3870  1.6966  0.4787
   16SOL     OW   46   1.615   1.719   3.018 -0.1824  0.1260  0.1571
   16SOL    HW1   47   1.618   1.615   3.015  1.0605  1.2873 -1.5902
   16SOL    HW2   48   1.713   1.755   3.031 -2.0152 -0.1861  1.9670
   17SOL     OW   49   0.099   0.520   0.148 -0.0339  0.1261 -0.0217
   17SOL    HW1   50   0.178   0.535   0.081  0.6880  0.7667  1.9925
   17SOL    HW2   51   0.009   0.517   0.102 -0.3241 -1.7514 -0.6642
   18SOL     OW   52   0.955   2.988   2.126 -0.6295  0.5238  0.0359
   18SOL    HW1   53   0.891   2.903   2.126  0.0644  2.1074 -0.8261
   18SOL    HW2   54   1.044   2.971   2.074 -0.2800 -0.6068 -4.4445
   19SOL     OW   55   0.513   0.827   1.914  0.3922  0.0165 -0.0282
   19SOL    HW1   56   0.533   0.810   2.017 -1.2780 -2.3755  1.9610
   19SOL    HW2   57   0.605   0.829   1.858 -0.8510  0.7645 -0.2568
   20SOL     OW   58   0.207   2.785   0.831  0.4874 -0.3923  0.4699
   20SOL    HW1   59   0.125   2.842   0.802 -0.7916  1.7753  1.6610
   20SOL    HW2   60   0.264   2.745   0.752 -0.8970 -1.2466 -1.2686
   21SOL     OW   61   2.782   0.184   2.065 -0.1626 -0.5996  0.2178
   21SOL    HW1   62   2.709   0.134   2.008  0.2672 -0.1560 -0.8446
   21SOL    HW2   63   2.856   0.121   2.105  1.7297  2.6091  0.0335
   22SOL     OW   64   2.357   0.210   0.090  0.0872 -0.7547 -0.3686
   22SOL    HW1   65   2.359   0.107   0.074 -1.0495  2.9185  0.0712
   22SOL    HW2   66   2.260   0.250   0.100 -0.5325  1.5430  0.2847
   23SOL     OW   67   2.740   0.646   0.619  0.5355  0.2293  0.0246
   23SOL    HW1   68   2.766   0.563   0.573 -2.7678  0.3936  0.2950
   23SOL    HW2   69   2.753   0.729   0.561 -0.6554  1.0882 -1.1191
   24SOL     OW   70   0.152   1.927   0.381  0.0968  0.2497  0.0668
   24SOL    HW1   71   0.096   2.013   0.358 -1.5353  0.0193  0.9252
   24SOL    HW2   72   0.242   1.913   0.332  2.8388 -1.1470  2.4728
   25SOL     OW   73   2.225   0.502   0.274  0.1443  0.0486  0.2780
   25SOL    HW1   74   2.234   0.605   0.279  1.2183  2.8474  0.7625
   25SOL    HW2   75   2.179   0.457   0.195  0.7828 -2.4618  4.2164
   26SOL     OW   76   2.526   2.109   2.075  0.0149  0.2222  0.2653
   26SOL    HW1   77   2.569   2.178   2.141 -0.4260 -3.1118  0.4828
   26SOL    HW2   78   2.593   2.043   2.038 -0.7276 -1.0230 -0.9056
   27SOL     OW   79   0.595   2.950   0.177 -0.1453  0.6731  0.0040
   27SOL    HW1   80   0.699   2.952   0.158  0.2971 -1.3323  0.6128
   27SOL    HW2   81   0.544   2.944   0.087 -0.4309  1.2103  0.6297
   28SOL     OW   82   1.539   0.180   0.291  0.3150 -0.1706 -0.1252
   28SOL    HW1   83   1.573   0.169   0.191  0.2397  0.3236 -1.2185
   28SOL    HW2   84   1.495   0.269   0.317 -0.4547  0.6976  0.3492
   29SOL     OW   85   1.966   0.544   0.393 -0.3804  0.6491  0.8082
   29SOL    HW1   86   1.979   0.642   0.421 -1.6618 -2.6922 -0.4659
   29SOL    HW2   87   2.060   0.493   0.386  0.1395 -0.8873  0.3196
   30SOL     OW   88   0.222   2.037   0.896  0.0133 -0.4356  0.5140
   30SOL    HW1   89   0.188   2.027   0.795 -2.1587  2.4791 -2.7217
   30SOL    HW2   90   0.183   2.118   0.944 -2.8396 -0.6225  0.0574
   31SOL     OW   91   2.098   3.077   2.307  0.3973 -0.2388  0.1805
   31SOL    HW1   92   2.093   3.074   2.410 -2.7864  1.5222 -2.2305
   31SOL    HW2   93   2.025   3.021   2.258 -0.0934  1.1437  1.5250
   32SOL     OW   94   2.954   0.189   0.256 -0.0248 -0.3292  0.2136
   32SOL    HW1   95   2.911   0.113   0.318 -0.0807 -4.1911  2.5536
   32SOL    HW2   96   3.051   0.210   0.286  0.5989 -0.6526  0.0216
   33SOL     OW   97   0.933   0.339   0.593  0.1953 -0.2180 -0.0987
   33SOL    HW1   98   0.936   0.242   0.560  0.3234  0.3213  2.9502
   33SOL    HW2   99   1.029   0.366   0.634 -2.9243  1.1482 -1.1409
   34SOL     OW  100   0.355   2.819   1.121 -0.4244 -0.2532  0.4881
   34SOL    HW1  101   0.310   2.802   1.029 -0.9023  3.1716  0.7591
   34SOL    HW2  102   0.452   2.852   1.105 -0.2010 -0.6713 -0.9204
   35SOL     OW  103   0.007   0.223   1.841 -0.6015  0.2237 -0.7049
   35SOL    HW1  104   0.044   0.130   1.866 -0.2661  2.0502  0.7707
   35SOL    HW2  105  -0.047   0.223   1.755  1.1890 -0.9849  0.2811
   36SOL     OW  106   1.959   1.082   1.842  0.4657  0.3815 -0.3298
   36SOL    HW1  107   1.997   1.056   1.741 -2.1366 -0.6028 -1.4713
   36SOL    HW2  108   1.997   1.170   1.880  0.3171 -0.0276  0.1050
   37SOL     OW  109   1.211   0.173   0.890 -0.0674  0.1563 -0.7540
   37SOL    HW1  110   1.255   0.234   0.962  1.9333  0.8392  0.4341
   37SOL    HW2  111   1.260   0.086   0.869 -0.3132 -0.5977 -1.5592
   38SOL     OW  112   1.113   2.782   2.417 -0.0215  0.5676 -0.2051
   38SOL    HW1  113   1.045   2.697   2.413 -1.8691 -2.2662  0.8776
   38SOL    HW2  114   1.070   2.874   2.419  0.7329 -0.0881 -0.0065
   39SOL     OW  115   2.344   1.400   3.019  0.3774 -0.1674  0.1471
   39SOL    HW1  116   2.433   1.348   3.030  2.1930  2.1447  2.2422
   39SOL    HW2  117   2.270   1.359   3.073 -0.2094  2.2438  3.1567
   40SOL     OW  118   2.094   2.504   2.563 -0.0874 -0.5954  0.8994
   40SOL    HW1  119   2.062   2.604   2.550 -2.3758  0.7093 -0.3508
   40SOL    HW2  120   2.017   2.445   2.534 -1.4507 -0.7264 -1.1358
   41SOL     OW  121   2.961   0.674   2.761  0.8718 -0.6974  0.6192
   41SOL    HW1  122   2.888   0.738   2.738  0.3427 -0.8324 -1.4090
   41SOL    HW2  123   2.936   0.579   2.742 -1.4706  0.8054  1.0708
   42SOL     OW  124   1.767   1.779   0.535 -0.1542  0.3817  0.0957
   42SOL    HW1  125   1.770   1.675   0.525 -1.9792  0.4127 -1.3778
   42SOL    HW2  126   1.793   1.827   0.445  0.1048 -1.1674  1.8416
   43SOL     OW  127   0.476   1.708   1.078 -0.5680 -0.4514  0.2627
   43SOL    HW1  128   0.469   1.605   1.100 -1.7816 -1.6695  1.9768
   43SOL    HW2  129   0.381   1.742   1.046  1.4736 -3.8255 -4.3739
   44SOL     OW  130   1.825   2.478   3.051 -0.1065  0.1209  0.0311
   44SOL    HW1  131   1.839   2.568   2.993  0.8263 -0.8976 -0.3036
   44SOL    HW2  132   1.913   2.444   3.105  2.2686 -0.9178 -1.2798
   45SOL     OW  133   0.329   1.906   2.612  0.7363  0.0870 -0.2768
   45SOL    HW1  134   0.285   1.913   2.519  0.4944  1.8214 -2.3990
   45SOL    HW2  135   0.407   1.843   2.624  0.8364 -0.3882  1.1463
   46SOL     OW  136   1.234   0.667   0.153  0.4395  0.9186  0.4953
   46SOL    HW1  137   1.255   0.745   0.091  0.9157  0.8823 -0.2520
   46SOL    HW2  138   1.143   0.684   0.201 -1.4256 -0.5207  0.5163
   47SOL     OW  139   0.205   2.454   1.637  0.0784  0.1857 -0.2142
   47SOL    HW1  140   0.289   2.392   1.647 -2.6645  0.8013  0.4098
   47SOL    HW2  141   0.184   2.467   1.539  1.4967  0.6604 -1.1632
   48SOL     OW  142   2.618   0.614   0.139 -0.6659 -0.0436 -0.2468
   48SOL    HW1  143   2.598   0.625   0.242  3.0801  0.9782  2.1997
   48SOL    HW2  144   2.718   0.651   0.114 -0.4287 -1.0803  1.3193
   49SOL     OW  145   0.341   0.770   1.709 -0.2882  0.1392  0.0604
   49SOL    HW1  146   0.402   0.792   1.792 -0.5896  1.0205 -1.6465
   49SOL    HW2  147   0.365   0.685   1.653 -3.4782  0.7278 -0.8159
   50SOL     OW  148   1.657   1.131   0.309  0.1824  0.4321 -0.4357
   50SOL    HW1  149   1.646   1.031   0.276  0.7215 -2.6103 -1.9239
   50SOL    HW2  150   1.600   1.149   0.400  0.0698  0.0395  0.9967
   51SOL     OW  151   2.899   1.833   0.367 -0.3905 -0.2840  0.2189
   51SOL    HW1  152   2.940   1.829   0.276 -0.3626 -0.4926  2.2074
   51SOL    HW2  153   2.933   1.761   0.435  0.5349  0.2365  1.4731
   52SOL     OW  154   0.776   1.981   0.476 -0.5926  1.0505  0.1926
   52SOL    HW1  155   0.709   2.046   0.522 -0.4674 -0.1776  1.3201
   52SOL    HW2  156   0.805   1.899   0.541 -1.6731 -2.4598 -0.5905
   53SOL     OW  157   0.052   0.410   1.569  1.3611  0.5917  0.2516
   53SOL    HW1  158   0.073   0.465   1.656  0.7482  1.1063  1.2790
   53SOL    HW2  159  -0.040   0.442   1.521 -2.5397  0.2627  1.1187
   54SOL     OW  160   1.762   0.470   3.083  0.5346 -0.1730 -0.2140
   54SOL    HW1  161   1.794   0.409   3.164 -1.3049  1.0797 -0.9827
   54SOL    HW2  162   1.656   0.461   3.074 -0.4991 -1.1591 -0.2968
   55SOL     OW  163   0.769   2.902   0.672  0.7582  0.3466  0.0461
   55SOL    HW1  164   0.738   3.000   0.651 -2.3115  2.2436 -1.4814
   55SOL    HW2  165   0.873   2.880   0.670  1.5060 -1.4198  1.0818
   56SOL     OW  166   0.442   1.557   3.063  0.2817 -0.0264  0.5048
   56SOL    HW1  167   0.338   1.584   3.064 -1.1135  1.6124 -1.6923
   56SOL    HW2  168   0.462   1.470   3.021  0.1888 -0.8204  3.6624
   57SOL     OW  169   1.804   2.515   2.631 -0.6996  0.0535 -0.9426
   57SOL    HW1  170   1.833   2.455   2.547 -0.2385 -0.7580 -1.7470
   57SOL    HW2  171   1.705   2.517   2.655 -0.4671 -0.3806 -2.3590
   58SOL     OW  172   0.652   0.356   1.035  0.3162 -0.4153 -0.2799
   58SOL    HW1  173   0.610   0.448   1.043 -2.0513 -1.5081  1.2677
   58SOL    HW2  174   0.585   0.278   1.062 -1.1708  0.7384  1.6372
   59SOL     OW  175   0.414   2.398   2.777  0.8909  0.1275  0.2210
   59SOL    HW1  176   0.442   2.305   2.736  0.1407 -0.9870 -1.3075
   59SOL    HW2  177   0.487   2.435   2.834 -0.4978  0.1757 -1.0751
   60SOL     OW  178   2.307   2.034   2.208 -0.2525 -0.0949 -0.2889
   60SOL    HW1  179   2.385   2.075   2.149 -3.2797 -2.0238 -0.2339
   60SOL    HW2  180   2.322   2.054   2.310 -1.8413 -2.0139 -1.0682
   61SOL     OW  181   1.299   0.596   0.501 -0.2981  0.6030 -0.6563
   61SOL    HW1  182   1.239   0.666   0.547 -0.1967 -2.5561 -0.7123
   61SOL    HW2  183   1.290   0.598   0.399  0.3268  2.3343  0.8416
   62SOL     OW  184   2.694   1.798   2.925  0.4438 -0.4332  0.0601
   62SOL    HW1  185   2.672   1.701   2.939 -1.5248  1.8861  2.4476
   62SOL    HW2  186   2.788   1.815   2.877  3.8130 -1.0469 -0.8415
   63SOL     OW  187   0.608   0.923   0.161  0.1901 -0.4185 -0.1664
   63SOL    HW1  188   0.550   1.011   0.151  2.8626  0.8946 -0.4369
   63SOL    HW2  189   0.669   0.904   0.245 -1.4722 -3.3641 -1.5824
   64SOL     OW  190   0.104   0.564   2.540  0.5590 -0.2485  0.0145
   64SOL    HW1  191   0.185   0.546   2.605  1.0469 -3.7315 -0.9181
   64SOL    HW2  192   0.129   0.639   2.472 -0.2218  1.7556 -2.6527
   65SOL     OW  193   0.206   1.484   0.573 -0.4055 -0.2365  0.1729
   65SOL    HW1  194   0.235   1.532   0.659  0.2713 -1.5551 -2.3102
   65SOL    HW2  195   0.286   1.483   0.506 -1.2893  2.6688  2.7096
   66SOL     OW  196   2.533   0.401   0.582 -0.1462 -0.6919 -0.1684
   66SOL    HW1  197   2.492   0.454   0.661  2.7892 -3.1483  1.0103
   66SOL    HW2  198   2.510   0.297   0.588  1.0988 -2.0998 -1.1578
   67SOL     OW  199   0.556   2.526   1.369 -0.3074 -0.1893 -0.3701
   67SOL    HW1  200   0.612   2.507   1.456  0.1477  0.5025 -0.1486
   67SOL    HW2  201   0.489   2.446   1.359 -1.1039  1.8676 -0.8738
   68SOL     OW  202   1.010   1.117   2.445  0.3463  0.4693  0.1190
   68SOL    HW1  203   1.058   1.047   2.383  0.3505  0.2429 -1.1088
   68SOL    HW2  204   0.922   1.145   2.393 -1.2590 -3.2852 -2.3728
   69SOL     OW  205   0.790   2.777   2.219 -0.3721  0.1743  0.3610
   69SOL    HW1  206   0.805   2.678   2.207 -2.1248  0.6292  1.3574
   69SOL    HW2  207   0.696   2.802   2.180  1.3799 -2.2241  1.1688
   70SOL     OW  208   0.600   0.301   2.715 -0.7130  0.2134  0.1797
   70SOL    HW1  209   0.568   0.368   2.786  0.9944 -0.0544  0.4094
   70SOL    HW2  210   0.577   0.201   2.731  3.6764  1.7989 -2.4023
   71SOL     OW  211   1.058   1.740   0.349  0.0467 -0.5410  0.1423
   71SOL    HW1  212   0.999   1.653   0.359 -1.7122  0.2331  1.2714
   71SOL    HW2  213   1.039   1.780   0.257  0.9099 -2.2045  3.2962
   72SOL     OW  214   1.795   0.168   2.066  0.5351 -0.0529  0.8520
   72SOL    HW1  215   1.868   0.191   1.998  0.8930  0.2594  1.5140
   72SOL    HW2  216   1.805   0.069   2.109  0.8219  0.1486  3.3742
   73SOL     OW  217   2.810   2.153   2.452  0.2850 -0.8163 -0.4091
   73SOL    HW1  218   2.771   2.063   2.437  3.5810  5.4231 -0.4459
   73SOL    HW2  219   2.822   2.167   2.555  1.8898 -1.0481 -0.1441
   74SOL     OW  220   2.724   2.904   2.037 -0.1089 -0.6609  0.3169
   74SOL    HW1  221   2.637   2.911   2.097 -3.7832 -0.0777  2.0833
   74SOL    HW2  222   2.807   2.953   2.082  0.3811  1.8007 -0.3191
   75SOL     OW  223   0.929   0.748   1.055 -0.2010 -0.8350  0.2240
   75SOL    HW1  224   0.837   0.764   1.017 -2.0077  1.6392 -1.6886
   75SOL    HW2  225   0.954   0.819   1.127  1.2134 -0.1017  0.9000
   76SOL     OW  226   1.685   1.278   2.531 -0.2936  0.2076  0.0496
   76SOL    HW1  227   1.592   1.240   2.541 -1.6946  2.5214 -0.9611
   76SOL    HW2  228   1.694   1.366   2.587 -1.3666 -1.4244  0.2610
   77SOL     OW  229   2.949   0.940   0.958  0.5683 -0.4333  0.1079
   77SOL    HW1  230   2.914   0.841   0.945 -0.8812  1.6169 -3.2320
   77SOL    HW2  231   2.998   0.952   1.051 -1.2498  0.5971  2.1384
   78SOL     OW  232   2.056   1.388   1.537 -0.2287 -0.3702 -0.3103
   78SOL    HW1  233   2.140   1.418   1.486  0.8227  1.5184  2.4947
   78SOL    HW2  234   2.013   1.307   1.492  2.6322  0.6137 -2.2213
   79SOL     OW  235   0.657   1.343   0.884  0.4044  0.7112 -0.2085
   79SOL    HW1  236   0.550   1.361   0.890 -0.4114 -0.6428 -0.6618
   79SOL    HW2  237   0.685   1.339   0.784  1.2294 -1.1573  1.6717
   80SOL     OW  238   0.676   0.461   1.619 -0.0945 -0.1758 -0.0295
   80SOL    HW1  239   0.723   0.541   1.574 -1.1558  0.4503  0.5711
   80SOL    HW2  240   0.701   0.364   1.588 -0.8973 -1.9292 -0.2324
   81SOL     OW  241   1.043   1.394   2.595 -0.0421 -0.3657  0.0296
   81SOL    HW1  242   1.071   1.300   2.615 -1.0614  3.7164 -2.0699
   81SOL    HW2  243   0.950   1.401   2.543 -0.9887  2.6063  2.8783
   82SOL     OW  244   0.927   2.940   1.504  0.2094 -0.0915 -0.1408
   82SOL    HW1  245   0.976   2.969   1.420 -1.5858 -1.2293 -0.7381
   82SOL    HW2  246   0.846   2.876   1.483  0.0606  1.1828 -2.3872
   83SOL     OW  247   2.697   2.500   0.845  0.3446  0.3767  0.0300
   83SOL    HW1  248   2.639   2.425   0.808 -2.2349 -0.4273  0.4782
   83SOL    HW2  249   2.664   2.589   0.807  0.9952 -1.7616  0.3956
   84SOL     OW  250   0.687   3.068   2.311 -0.5768 -0.3783  0.2648
   84SOL    HW1  251   0.636   3.046   2.396  2.4547 -0.6442 -2.5379
   84SOL    HW2  252   0.757   2.993   2.292  1.3446  0.8660  0.4552
   85SOL     OW  253   0.351   1.607   1.540 -0.1244 -0.4891  0.1234
   85SOL    HW1  254   0.294   1.698   1.552  1.4736 -1.5315  0.6478
   85SOL    HW2  255   0.406   1.572   1.624 -0.9812 -0.3542 -1.3192
   86SOL     OW  256   0.373   0.972   1.517  0.2344 -0.0665  0.0442
   86SOL    HW1  257   0.343   0.927   1.430 -0.9343  1.2032  1.2752
   86SOL    HW2  258   0.368   0.907   1.595  1.4732 -0.8001 -1.3331
   87SOL     OW  259   1.550   0.665   0.179 -0.1847 -0.0275  0.2098
   87SOL    HW1  260   1.640   0.710   0.194  2.1218  1.2133 -0.9902
   87SOL    HW2  261   1.544   0.628   0.084 -0.2497  1.1633  0.5339
   88SOL     OW  262   1.576   1.400   0.233 -0.4445 -0.6621 -0.0675
   88SOL    HW1  263   1.611   1.306   0.259  2.2960 -0.2903 -2.4094
   88SOL    HW2  264   1.477   1.413   0.246  0.0754  2.0335 -1.5532
   89SOL     OW  265   0.029   0.430   0.591 -0.4182  0.2280 -0.1877
   89SOL    HW1  266   0.101   0.354   0.584  1.0521 -1.0398  2.9232
   89SOL    HW2  267  -0.065   0.394   0.570  1.6811  0.4822  0.3934
   90SOL     OW  268   0.923   1.595   3.101  0.2319  1.0767  0.6780
   90SOL    HW1  269   0.841   1.561   3.159  0.5920 -1.8496 -0.4826
   90SOL    HW2  270   0.885   1.637   3.014  0.2697 -0.2496 -0.5886
   91SOL     OW  271   1.262   1.425   1.793  0.0577  0.2964 -0.3615
   91SOL    HW1  272   1.240   1.519   1.833 -0.7278  0.7652  3.3154
   91SOL    HW2  273   1.364   1.425   1.765  0.6444  0.7730  0.2744
   92SOL     OW  274   3.085   0.959   1.217  0.4265 -0.7767  0.2714
   92SOL    HW1  275   3.134   1.035   1.163  2.5904 -0.9542 -0.0770
   92SOL    HW2  276   3.122   0.949   1.315  1.4563 -1.0192 -2.1295
   93SOL     OW  277   0.009   2.748   0.019  1.0972  0.2650 -0.1072
   93SOL    HW1  278  -0.051   2.735  -0.067 -1.0283 -2.0466  0.7738
   93SOL    HW2  279   0.025   2.651   0.058 -0.6126 -1.3074 -1.0896
   94SOL     OW  280   1.534   1.475   1.756 -0.6227 -0.4570  0.4566
   94SOL    HW1  281   1.613   1.406   1.745  0.0127 -0.5304  3.1726
   94SOL    HW2  282   1.567   1.551   1.820 -0.2118  0.7486 -0.1611
   95SOL     OW  283   1.395   2.516   3.022  0.7717  0.0361 -0.0668
   95SOL    HW1  284   1.318   2.500   3.093 -0.9489  0.7182 -1.9010
   95SOL    HW2  285   1.426   2.429   2.976  0.5755  1.4616  1.9575
   96SOL     OW  286   0.532   2.047   1.316  0.4093  0.5800  0.1071
   96SOL    HW1  287   0.512   2.034   1.214 -2.0882  0.0324 -1.6169
   96SOL    HW2  288   0.594   1.974   1.360  1.1673  1.8923  2.8352
   97SOL     OW  289   0.411   1.621   2.442 -0.1779 -0.0366 -0.2518
   97SOL    HW1  290   0.314   1.588   2.451  1.3065 -0.1116 -1.3962
   97SOL    HW2  291   0.435   1.684   2.523 -1.7751  1.2133  1.5743
   98SOL     OW  292   1.957   1.587   1.243  0.0845  0.4637 -0.0546
   98SOL    HW1  293   1.897   1.553   1.323 -1.2570 -1.5382  2.1468
   98SOL    HW2  294   1.962   1.518   1.163 -0.1874  0.1446  0.7928
   99SOL     OW  295   2.471   2.131   1.362 -0.0776  0.2335 -0.2370
   99SOL    HW1  296   2.481   2.205   1.433 -2.2942 -0.1252  0.4960
   99SOL    HW2  297   2.428   2.046   1.404 -1.6222  1.2683 -0.0395
  100SOL     OW  298   2.293   0.361   2.077 -0.1139 -0.3824  0.1788
  100SOL    HW1  299   2.250   0.317   2.159  1.0227 -1.4584 -2.1530
  100SOL    HW2  300   2.371   0.419   2.096 -0.1693 -4.3358 -1.6381
  101SOL     OW  301   0.358   1.503   0.256 -0.3305  0.6401 -0.3577
  101SOL    HW1  302   0.424   1.509   0.337 -1.2178 -1.7609 -1.7645
  101SOL    HW2  303   0.366   1.580   0.187 -1.1134  0.1310  1.0323
  102SOL     OW  304   2.309   1.014   0.835  0.2021  0.2372  0.2050
  102SOL    HW1  305   2.228   0.949   0.827 -2.3348 -0.0107  0.8686
  102SOL    HW2  306   2.313   1.092   0.765 -0.0986 -3.9106 -0.5500
  103SOL     OW  307   2.296   0.018   0.408  0.2384  0.2961 -0.4256
  103SOL    HW1  308   2.323   0.114   0.377 -4.0217 -0.2350  0.6576
  103SOL    HW2  309   2.383  -0.033   0.441  2.4506 -0.1924  2.6672
  104SOL     OW  310   0.087   1.742   2.196  0.5719  0.8187 -0.0434
  104SOL    HW1  311   0.131   1.708   2.112 -2.2817  0.4768 -2.9921
  104SOL    HW2  312  -0.005   1.781   2.172  2.4424 -1.7410 -0.9845
  105SOL     OW  313   1.278   2.111   0.780 -0.0288  0.1183 -0.2259
  105SOL    HW1  314   1.193   2.124   0.720  0.6281  1.8017 -0.1571
  105SOL    HW2  315   1.329   2.022   0.758 -0.9827  0.0190 -1.7111
  106SOL     OW  316   2.151   0.537   1.398 -0.2402 -0.7944  0.2100
  106SOL    HW1  317   2.109   0.449   1.433  0.0911  1.2211  0.8664
  106SOL    HW2  318   2.124   0.620   1.454  1.7834 -0.2736 -1.4246
  107SOL     OW  319   1.757   2.995   1.131 -0.0979  0.0444  0.4601
  107SOL    HW1  320   1.786   3.087   1.172 -1.0780  1.0920  0.8553
  107SOL    HW2  321   1.721   2.935   1.203 -1.6390  2.1442 -0.8666
  108SOL     OW  322   0.828   2.775   1.195  0.1557  0.2370 -0.2253
  108SOL    HW1  323   0.796   2.744   1.288  1.6595  2.4842  0.6227
  108SOL    HW2  324   0.928   2.754   1.178 -1.1171  0.2972 -1.4491
  109SOL     OW  325   2.239   0.114   0.767 -0.7528 -0.5643 -0.2309
  109SOL    HW1  326   2.137   0.104   0.753  1.3970 -0.2263  1.0005
  109SOL    HW2  327   2.261   0.106   0.869 -3.0287  0.7257 -1.5018
  110SOL     OW  328   0.447   2.863   2.748 -0.1913  0.4126  0.4468
  110SOL    HW1  329   0.423   2.872   2.648  0.0093 -1.8267 -0.2479
  110SOL    HW2  330   0.536   2.808   2.758  2.0376  0.0133  1.6919
  111SOL     OW  331   1.308   0.509   2.278 -0.4011 -0.1571  0.2205
  111SOL    HW1  332   1.232   0.536   2.344  0.8694 -1.6228  3.5368
  111SOL    HW2  333   1.362   0.429   2.320 -0.8978  1.0827 -1.3559
  112SOL     OW  334   1.746   0.505   1.490 -0.3897  0.5148  0.2632
  112SOL    HW1  335   1.764   0.461   1.397  0.5143  1.6970 -0.9181
  112SOL    HW2  336   1.719   0.436   1.570 -0.2093 -0.2763  1.0071
  113SOL     OW  337   2.256   1.645   1.784 -0.0556  0.1433  0.1233
  113SOL    HW1  338   2.306   1.571   1.730 -2.4124 -1.2022  1.1304
  113SOL    HW2  339   2.308   1.668   1.872  2.2269  0.5087 -0.0802
  114SOL     OW  340   0.401   0.504   1.237  0.5571 -0.5418  0.3218
  114SOL    HW1  341   0.438   0.585   1.181  2.1006  0.4800  1.0068
  114SOL    HW2  342   0.301   0.482   1.214 -2.5057 -1.3760 -1.7546
  115SOL     OW  343   2.776   1.648   1.286  0.3091 -0.2480  0.5494
  115SOL    HW1  344   2.778   1.550   1.310 -1.0203  0.0370  1.1811
  115SOL    HW2  345   2.782   1.666   1.183  1.3175 -0.7403  1.3909
  116SOL     OW  346   1.835   1.039   0.710 -0.0767  0.0079 -0.3260
  116SOL    HW1  347   1.755   0.998   0.660  2.8813  1.2399  0.0425
  116SOL    HW2  348   1.808   1.123   0.766  2.2129  0.9077 -0.2835
  117SOL     OW  349   1.176   0.385   0.705  0.4669 -0.2631  0.4272
  117SOL    HW1  350   1.243   0.381   0.787  4.3934  0.1602  1.2404
  117SOL    HW2  351   1.193   0.462   0.636 -0.6758 -0.5843  2.9516
  118SOL     OW  352   1.104   1.167   1.070  0.2863 -0.1113  0.1191
  118SOL    HW1  353   1.092   1.080   1.115 -2.7512  1.0154 -2.9289
  118SOL    HW2  354   1.140   1.245   1.135  1.8393  0.1767 -1.3854
  119SOL     OW  355   1.831   1.616   2.102 -0.3794 -0.4084  0.1881
  119SOL    HW1  356   1.802   1.710   2.122 -1.2885  0.7175 -1.2614
  119SOL    HW2  357   1.934   1.595   2.122  2.9901 -1.7940  1.9176
  120SOL     OW  358   2.937   2.838   0.216 -0.0522 -0.3774 -0.5217
  120SOL    HW1  359   2.996   2.820   0.133 -2.7287 -0.7215  1.6765
  120SOL    HW2  360   2.870   2.761   0.244 -2.6475 -1.1387  0.6692
  121SOL     OW  361   2.025   0.765   2.302  0.0079 -0.2989  0.7251
  121SOL    HW1  362   2.040   0.845   2.232  0.3828  0.7183  1.9373
  121SOL    HW2  363   2.039   0.673   2.259  0.1898  0.3405  1.5578
  122SOL     OW  364   2.605   2.701   1.247  0.7086  0.1049  0.1942
  122SOL    HW1  365   2.645   2.617   1.207  2.2249 -2.1091  0.2759
  122SOL    HW2  366   2.611   2.785   1.183  1.2905 -0.5684  0.4186
  123SOL     OW  367   1.722   0.062   1.672 -0.0577  0.1361 -0.0513
  123SOL    HW1  368   1.761  -0.029   1.636  0.3113 -0.2615 -1.3039
  123SOL    HW2  369   1.791   0.111   1.728 -0.0610 -0.8548  2.4222
  124SOL     OW  370   0.131   0.416   1.116  0.1497  0.1124  0.4114
  124SOL    HW1  371   0.112   0.502   1.165  0.1611 -0.4720 -1.5045
  124SOL    HW2  372   0.076   0.403   1.026 -2.6978  2.4231 -2.9180
  125SOL     OW  373   0.843   1.805   0.685 -0.2529  0.7526  0.0938
  125SOL    HW1  374   0.938   1.763   0.668  0.9440  2.0298  1.7279
  125SOL    HW2  375   0.820   1.803   0.788 -0.0747  1.7475  0.7862
  126SOL     OW  376   1.905   2.320   2.463 -0.0956 -0.3031  0.9337
  126SOL    HW1  377   1.980   2.284   2.400 -1.3269  1.2031 -1.2911
  126SOL    HW2  378   1.831   2.246   2.460 -1.9285  0.3581 -0.5193
  127SOL     OW  379   0.842   0.887   0.312  0.3392 -0.4782 -0.2184
  127SOL    HW1  380   0.869   0.929   0.401 -0.7689  2.4671 -0.9219
  127SOL    HW2  381   0.918   0.825   0.282  1.6383  0.6273 -1.3892
  128SOL     OW  382   0.971   0.219   1.370 -0.2908  0.7244 -0.1808
  128SOL    HW1  383   0.942   0.308   1.325 -0.8820 -3.5845  1.8981
  128SOL    HW2  384   0.912   0.139   1.346  3.1045  0.4629 -0.2170
  129SOL     OW  385   1.836   0.699   1.889  0.0550  0.6003  0.1741
  129SOL    HW1  386   1.846   0.724   1.782  1.5853  0.0408 -3.4864
  129SOL    HW2  387   1.840   0.774   1.956  2.2240 -0.4769  0.2420
  130SOL     OW  388   1.370   2.236   1.014  0.1577 -0.3199  0.1018
  130SOL    HW1  389   1.326   2.203   0.926  0.0135  1.3172  0.6110
  130SOL    HW2  390   1.443   2.310   0.996 -0.1577 -1.9492 -1.0912
  131SOL     OW  391   3.062   1.441   1.374 -0.6505 -0.1147 -0.1970
  131SOL    HW1  392   3.051   1.335   1.382 -0.2715 -0.6933 -0.9785
  131SOL    HW2  393   3.164   1.465   1.376 -0.8850 -1.3605 -0.9429
  132SOL     OW  394   2.009   2.448   0.536  0.6461  0.5854  0.3398
  132SOL    HW1  395   1.906   2.426   0.519  0.8084 -2.9422 -0.1010
  132SOL    HW2  396   2.033   2.420   0.631 -0.9008 -2.9323  1.6379
  133SOL     OW  397   1.853   2.261   2.770  0.7545  0.5207 -0.4082
  133SOL    HW1  398   1.914   2.281   2.852  1.3404 -0.1012 -0.0938
  133SOL    HW2  399   1.850   2.341   2.703 -0.5637 -0.8353  1.7180
  134SOL     OW  400   2.681   2.316   1.646  0.5050 -0.1485  0.3454
  134SOL    HW1  401   2.619   2.302   1.729  1.4992  0.7721  0.7817
  134SOL    HW2  402   2.716   2.415   1.642 -0.9543  0.4457  1.8386
  135SOL     OW  403   0.718   1.514   2.658  0.4143 -0.5695 -0.1709
  135SOL    HW1  404   0.665   1.426   2.683 -2.0300 -3.0012  2.0120
  135SOL    HW2  405   0.768   1.489   2.576 -1.3743  0.2853  0.8708
  136SOL     OW  406   1.197   1.947   0.445 -0.3447 -0.2989 -0.4314
  136SOL    HW1  407   1.139   2.013   0.507 -0.6580 -2.3716  1.2620
  136SOL    HW2  408   1.143   1.866   0.405 -0.7378  0.3330  2.1529
  137SOL     OW  409   0.404   1.129   2.147  0.3652 -0.0347  0.3603
  137SOL    HW1  410   0.314   1.144   2.194  1.6764 -2.4954  0.8958
  137SOL    HW2  411   0.469   1.070   2.203 -0.6878 -0.7991 -2.9914
  138SOL     OW  412   2.474   1.488   0.277  0.7568  0.2868  0.1823
  138SOL    HW1  413   2.385   1.465   0.229 -1.0523  0.7184  2.7838
  138SOL    HW2  414   2.516   1.410   0.333 -0.3371 -1.1788 -0.1920
  139SOL     OW  415   1.816   2.651   1.294  0.2598 -0.0291  0.3259
  139SOL    HW1  416   1.717   2.647   1.263  2.6508 -1.9250 -1.8694
  139SOL    HW2  417   1.854   2.553   1.313 -1.4268  0.9327 -1.4559
  140SOL     OW  418   2.993   2.903   2.609  0.6654 -0.3150  0.0731
  140SOL    HW1  419   3.022   2.808   2.590 -1.3624  1.3045  0.0143
  140SOL    HW2  420   3.068   2.967   2.642  0.6204 -2.7518 -0.8421
  141SOL     OW  421   1.271   1.706   1.613  0.1198 -0.2686  0.1809
  141SOL    HW1  422   1.169   1.732   1.611  1.9020  3.6186  2.6897
  141SOL    HW2  423   1.284   1.632   1.685 -0.4454  0.2328  1.1656
  142SOL     OW  424   1.547   0.618   2.194  0.3977 -0.0585  0.3740
  142SOL    HW1  425   1.563   0.580   2.098 -0.5642 -1.5424  1.2708
  142SOL    HW2  426   1.451   0.605   2.226 -1.7504 -0.7764  0.8806
  143SOL     OW  427   2.737   0.906   0.481  0.1647  0.3806  0.1042
  143SOL    HW1  428   2.794   0.936   0.399 -0.6384  0.0946  1.4989
  143SOL    HW2  429   2.773   0.940   0.571  1.6541  0.1877 -3.7127
  144SOL     OW  430   2.933   1.196   1.449  0.0067 -0.5284  0.0699
  144SOL    HW1  431   2.891   1.174   1.542 -3.8637 -0.0028  0.3190
  144SOL    HW2  432   3.013   1.135   1.426  1.8408 -0.7042  1.4183
  145SOL     OW  433   1.002   1.859   0.078 -0.1805 -0.1288 -0.0678
  145SOL    HW1  434   1.011   1.933   0.004 -2.3277 -0.5347 -0.6527
  145SOL    HW2  435   1.002   1.763   0.040  1.3876  0.3026 -2.0243
  146SOL     OW  436   2.454   0.691   1.528  0.2734  0.4887 -0.5895
  146SOL    HW1  437   2.420   0.602   1.480 -2.0269  1.5697 -1.0294
  146SOL    HW2  438   2.406   0.774   1.495 -1.7671 -1.0355 -2.9681
  147SOL     OW  439   1.101   2.474   0.613  0.3504  0.5500 -0.0057
  147SOL    HW1  440   1.062   2.505   0.526  0.1182  0.4314 -1.1017
  147SOL    HW2  441   1.195   2.435   0.600 -0.7671  0.8027 -1.8573
  148SOL     OW  442   1.658   1.454   3.079  0.4258  0.2362 -0.2062
  148SOL    HW1  443   1.677   1.366   3.029 -0.5184  0.5678  2.8896
  148SOL    HW2  444   1.622   1.444   3.177 -0.4472 -0.8201 -0.7953
  149SOL     OW  445   0.710   1.437   1.958 -0.0487 -0.3300  0.5469
  149SOL    HW1  446   0.621   1.419   2.013 -0.4831  0.9231  1.1595
  149SOL    HW2  447   0.707   1.390   1.863 -1.5406  0.4032 -1.2591
  150SOL     OW  448   3.042   1.263   0.976 -0.0605  0.1972  0.1257
  150SOL    HW1  449   3.132   1.261   1.027  1.3133 -1.3574 -0.8795
  150SOL    HW2  450   2.989   1.176   0.978 -0.9700  2.5005 -1.3152
  151SOL     OW  451   0.223   0.764   2.093  0.5561 -0.5104  0.6834
  151SOL    HW1  452   0.259   0.836   2.032 -1.1856 -0.3008  0.9342
  151SOL    HW2  453   0.208   0.672   2.053 -1.1877  0.4813 -0.5561
  152SOL     OW  454   1.384   1.800   1.296  0.3418 -0.6386 -0.4503
  152SOL    HW1  455   1.369   1.897   1.333  0.3039  0.8747  0.2568
  152SOL    HW2  456   1.297   1.758   1.260  0.6020 -0.3037 -1.9342
  153SOL     OW  457   3.065   1.521   0.185 -0.6307 -0.5121  0.0602
  153SOL    HW1  458   3.090   1.421   0.196 -0.1261 -0.3086  0.0846
  153SOL    HW2  459   3.076   1.568   0.277 -2.0275 -1.5096 -0.7012
  154SOL     OW  460   2.335   1.842   2.770  0.3547 -0.2167 -0.6617
  154SOL    HW1  461   2.365   1.740   2.766 -1.6866 -1.8256  0.2686
  154SOL    HW2  462   2.413   1.906   2.743  1.4324 -0.8406 -0.7454
  155SOL     OW  463   2.421   1.236   0.414 -0.0263 -0.1739 -0.6405
  155SOL    HW1  464   2.511   1.194   0.391 -1.4310  0.6696 -1.1087
  155SOL    HW2  465   2.351   1.222   0.346  0.2632  2.4381  1.6723
  156SOL     OW  466   2.570   0.979   0.869 -0.0565  0.6489 -0.3419
  156SOL    HW1  467   2.465   0.986   0.857  0.5780  0.6616 -2.3809
  156SOL    HW2  468   2.621   1.070   0.865 -0.1107 -1.5051  0.3727
  157SOL     OW  469   1.263   2.992   3.058  0.2424 -0.4886  0.5560
  157SOL    HW1  470   1.308   2.974   2.969  0.0663  2.1231  0.1227
  157SOL    HW2  471   1.270   3.094   3.071 -2.0374 -1.4048  3.4850
  158SOL     OW  472   1.012   1.838   1.988  0.1106 -0.1442 -0.5658
  158SOL    HW1  473   1.053   1.936   1.988  0.4626  0.1437  0.0287
  158SOL    HW2  474   0.919   1.829   2.032  2.0876 -0.2417 -3.3399
  159SOL     OW  475   0.854   0.451   1.239 -0.5318  0.0378 -0.3345
  159SOL    HW1  476   0.821   0.546   1.278 -2.5729 -0.2986  1.1696
  159SOL    HW2  477   0.777   0.400   1.193 -0.2856 -0.0065  0.6341
  160SOL     OW  478   1.439   2.382   1.661 -0.7212 -0.5625 -0.2691
  160SOL    HW1  479   1.417   2.482   1.666 -0.7942 -1.9631  0.5702
  160SOL    HW2  480   1.516   2.370   1.591  0.1479 -0.2045 -0.0061
  161SOL     OW  481   0.105   2.903   0.317 -0.3042  0.5023 -0.6015
  161SOL    HW1  482   0.012   2.864   0.316 -3.1100 -2.5399 -1.4907
  161SOL    HW2  483   0.122   2.950   0.228 -2.3720  0.6504  0.6497
  162SOL     OW  484   2.544   1.927   0.448  0.2068 -0.1283  0.1400
  162SOL    HW1  485   2.551   1.883   0.354 -1.1390 -2.3359  1.8187
  162SOL    HW2  486   2.525   1.845   0.514 -4.5964 -3.0377 -0.6099
  163SOL     OW  487   1.936   2.727   0.779 -0.1870  0.3696 -0.3495
  163SOL    HW1  488   1.913   2.733   0.679 -0.0038 -1.7732 -0.6904
  163SOL    HW2  489   2.012   2.656   0.800  0.3319 -1.6240  0.7174
  164SOL     OW  490   3.031   0.197   1.177  0.4405  0.2992  0.2150
  164SOL    HW1  491   3.108   0.254   1.137  0.9613  0.4902 -1.0714
  164SOL    HW2  492   3.055   0.134   1.256  1.9416 -0.0204  2.4685
  165SOL     OW  493   0.913   1.427   0.679 -0.3804  0.0469  0.7125
  165SOL    HW1  494   0.876   1.483   0.758  3.3860  1.6584 -2.6958
  165SOL    HW2  495   0.889   1.471   0.588 -1.8826  1.6147  1.5372
  166SOL     OW  496   1.467   1.084   1.732 -0.0491 -0.1989 -0.2541
  166SOL    HW1  497   1.416   1.041   1.816 -0.5134  0.3899  1.6532
  166SOL    HW2  498   1.551   1.141   1.759  2.5685  0.5150 -0.9735
  167SOL     OW  499   0.749   1.910   1.480 -0.3464  0.1005 -0.1049
  167SOL    HW1  500   0.779   1.982   1.546 -2.4884 -1.0947 -0.5264
  167SOL    HW2  501   0.711   1.823   1.528 -1.3741 -0.4683 -0.8366
  168SOL     OW  502   1.623   2.395   0.151  0.7736 -0.1017 -0.0363
  168SOL    HW1  503   1.700   2.449   0.105  0.7394 -0.4985 -1.2355
  168SOL    HW2  504   1.647   2.308   0.208 -3.3211  0.2835  2.3000
  169SOL     OW  505   0.191   2.548   2.227 -0.6379 -0.3176  0.1044
  169SOL    HW1  506   0.233   2.486   2.154 -1.0685 -1.0298 -1.7895
  169SOL    HW2  507   0.227   2.534   2.327  4.7729 -1.4384 -1.3371
  170SOL     OW  508   1.206   0.249   1.982 -1.1631 -0.0805  0.4565
  170SOL    HW1  509   1.275   0.231   2.058 -0.4123 -0.2350 -0.1795
  170SOL    HW2  510   1.205   0.173   1.908 -0.2542 -0.4220  0.5850
  171SOL     OW  511   0.225   0.831   2.371  0.0641 -0.3351 -0.0483
  171SOL    HW1  512   0.142   0.869   2.417  2.0598  0.0466 -1.1101
  171SOL    HW2  513   0.214   0.821   2.271 -0.6035  0.9647  0.5333
  172SOL     OW  514   0.906   1.078   2.922  0.5735 -0.2773 -0.0481
  172SOL    HW1  515   0.985   1.128   2.973  1.9388  0.8426  0.2297
  172SOL    HW2  516   0.924   1.069   2.818  2.8351 -1.6985 -0.9273
  173SOL     OW  517   0.660   2.664   0.069  0.4380 -0.7259  0.1177
  173SOL    HW1  518   0.662   2.770   0.095  2.4810  0.1777 -0.9826
  173SOL    HW2  519   0.562   2.625   0.077 -1.4382 -0.3152  2.4968
  174SOL     OW  520   1.405   2.838   1.081 -0.1007 -0.3190  0.0401
  174SOL    HW1  521   1.385   2.917   1.012  2.6568 -1.4659  0.8504
  174SOL    HW2  522   1.366   2.746   1.047 -0.4094 -2.2443 -1.3928
  175SOL     OW  523   0.400   0.045   1.673 -1.0436 -0.3220  0.0864
  175SOL    HW1  524   0.473   0.084   1.738 -0.1698 -0.3871  0.2387
  175SOL    HW2  525   0.366   0.116   1.604  0.2984  1.2228 -1.3744
  176SOL     OW  526   2.567   0.377   3.075 -0.0736  0.0567  0.6045
  176SOL    HW1  527   2.590   0.457   3.133  0.1977 -2.2853  0.1342
  176SOL    HW2  528   2.503   0.318   3.138  0.5801 -0.2723 -0.3474
  177SOL     OW  529   0.338   0.305   0.970 -0.0433  0.3440  0.3565
  177SOL    HW1  530   0.402   0.238   1.022  1.1667 -2.6493 -1.2424
  177SOL    HW2  531   0.280   0.366   1.037 -0.3768  2.4641 -0.2760
  178SOL     OW  532   0.049   2.669   2.645 -0.2246 -0.0359  0.4613
  178SOL    HW1  533  -0.017   2.610   2.695  0.2715  1.5042  3.3916
  178SOL    HW2  534   0.113   2.722   2.709  1.0770 -1.5624  0.7320
  179SOL     OW  535   0.011   1.694   1.195 -0.2423  0.1291  0.1488
  179SOL    HW1  536  -0.050   1.775   1.179  0.6052 -3.0668 -1.1920
  179SOL    HW2  537  -0.035   1.626   1.267  0.0046  0.0183 -0.2954
  180SOL     OW  538   0.228   1.192   1.874 -0.5303  0.3230  0.2207
  180SOL    HW1  539   0.334   1.211   1.870  3.4309  1.1839  0.8599
  180SOL    HW2  540   0.178   1.264   1.928 -0.0092 -3.0147  0.0449
  181SOL     OW  541   3.016   1.835   2.517 -0.4350 -0.1522 -0.1365
  181SOL    HW1  542   3.093   1.867   2.461 -0.4696  0.1411 -0.4061
  181SOL    HW2  543   2.934   1.835   2.449  0.8445  2.8810 -1.1566
  182SOL     OW  544   2.269   1.295   1.160  0.0692  0.3683 -0.0766
  182SOL    HW1  545   2.184   1.265   1.110  0.1057 -1.5414  1.7139
  182SOL    HW2  546   2.292   1.394   1.159  0.4959 -1.2587 -0.4888
  183SOL     OW  547   1.498   2.245   2.552  0.2366  0.0762  0.4262
  183SOL    HW1  548   1.425   2.181   2.543  2.0048  0.0028  2.4204
  183SOL    HW2  549   1.589   2.194   2.543  1.2738  0.1318  2.5747
  184SOL     OW  550   2.064   0.899   0.772 -0.2617 -0.4537 -0.4679
  184SOL    HW1  551   1.993   0.968   0.740 -0.2946 -0.7441 -0.3454
  184SOL    HW2  552   2.026   0.835   0.846  0.7917 -0.4803 -2.1999
  185SOL     OW  553   1.575   2.741   2.087 -0.6307  0.2781  0.1585
  185SOL    HW1  554   1.524   2.826   2.064  0.0957  0.1275  0.0409
  185SOL    HW2  555   1.505   2.672   2.124  0.7869  0.1615  0.7537
  186SOL     OW  556   0.051   2.194   1.690  0.0137  0.4111  0.2253
  186SOL    HW1  557   0.074   2.296   1.666  0.1355  1.5912 -1.8359
  186SOL    HW2  558   0.141   2.142   1.686  0.9585  3.0061 -2.3214
  187SOL     OW  559   1.388   0.716   1.663  0.0193  0.2525  0.2572
  187SOL    HW1  560   1.446   0.768   1.594  1.5090  0.2515  2.8591
  187SOL    HW2  561   1.396   0.768   1.754 -2.3832  1.3250  1.4844
  188SOL     OW  562   2.776   2.765   1.452 -0.6963 -0.6847 -0.2884
  188SOL    HW1  563   2.773   2.867   1.431  3.2124 -1.0744 -0.1538
  188SOL    HW2  564   2.712   2.711   1.392 -0.5828 -0.0620 -1.9300
  189SOL     OW  565   0.840   1.102   1.357  0.0954  0.4762  0.1261
  189SOL    HW1  566   0.922   1.147   1.398  0.0786  0.4078  0.3684
  189SOL    HW2  567   0.783   1.159   1.291  1.6036  3.7640  1.5998
  190SOL     OW  568   1.539   1.891   1.595 -0.2325  0.0037 -0.1316
  190SOL    HW1  569   1.445   1.844   1.587  0.9128  0.8203  0.1793
  190SOL    HW2  570   1.553   1.945   1.682  0.1663  0.5199 -1.7578
  191SOL     OW  571   0.978   0.754   1.535  0.5696 -0.1780 -0.1337
  191SOL    HW1  572   1.046   0.675   1.545  0.9627  1.1403 -1.0848
  191SOL    HW2  573   1.033   0.843   1.531 -1.0358 -0.2432  1.0712
  192SOL     OW  574   1.861   2.220   1.121  0.3419 -0.4442  0.3456
  192SOL    HW1  575   1.806   2.166   1.052 -1.3276 -1.0453  0.5730
  192SOL    HW2  576   1.912   2.301   1.082 -2.0431 -1.0332  2.2120
  193SOL     OW  577   0.511   0.604   0.423  0.0388 -0.0215  0.7536
  193SOL    HW1  578   0.472   0.527   0.483 -2.1385 -1.5052  2.3386
  193SOL    HW2  579   0.581   0.577   0.353 -2.7844 -0.2448  0.4511
  194SOL     OW  580   0.310   0.828   1.268  0.0822  0.1416  0.4872
  194SOL    HW1  581   0.231   0.763   1.256  1.5677  1.8675 -0.5596
  194SOL    HW2  582   0.315   0.900   1.192  0.8862  0.1516 -1.6340
  195SOL     OW  583   1.000   2.911   0.518 -0.1139  0.1842  0.9172
  195SOL    HW1  584   1.001   2.821   0.457  1.8739  0.1058  2.5624
  195SOL    HW2  585   1.100   2.949   0.530  0.4172 -1.9510  0.7950
  196SOL     OW  586   0.250   1.380   1.368 -0.0875 -0.1934 -0.3993
  196SOL    HW1  587   0.302   1.463   1.400 -1.0454  0.1584 -0.7593
  196SOL    HW2  588   0.241   1.311   1.442  0.4294  0.4489 -0.8373
  197SOL     OW  589   0.820   2.023   0.213  0.3808 -0.3876  0.1319
  197SOL    HW1  590   0.827   2.016   0.315 -2.2548 -0.3919 -1.2677
  197SOL    HW2  591   0.891   1.971   0.158 -0.4118 -0.5604  0.5414
  198SOL     OW  592   0.290   1.249   0.246  0.3543 -0.1183 -0.2531
  198SOL    HW1  593   0.190   1.249   0.202  0.2502  2.5836  0.1176
  198SOL    HW2  594   0.322   1.346   0.249  0.7134 -2.2354  0.3663
  199SOL     OW  595   2.213   0.343   2.535  0.1409 -0.1572  0.3154
  199SOL    HW1  596   2.141   0.302   2.602  0.0998 -3.3095  4.5531
  199SOL    HW2  597   2.306   0.360   2.575 -2.8183  3.4350 -2.5480
  200SOL     OW  598   0.050   2.978   0.695  0.0357 -0.3646  0.2185
  200SOL    HW1  599  -0.038   2.985   0.645 -0.2519  2.2765  0.1649
  200SOL    HW2  600   0.054   3.042   0.775 -0.3571  0.2165 -0.1235
  201SOL     OW  601   1.117   0.738   0.636  0.6086  0.0212 -0.3827
  201SOL    HW1  602   1.123   0.818   0.704  1.0763  1.2482 -1.6687
  201SOL    HW2  603   1.016   0.710   0.623 -0.0668 -3.0463 -0.7626
  202SOL     OW  604   0.493   1.215   1.819  0.7735 -0.1611 -0.5822
  202SOL    HW1  605   0.545   1.217   1.728 -0.6349 -1.8435 -0.0912
  202SOL    HW2  606   0.525   1.134   1.870 -0.7366 -0.0490 -1.6272
  203SOL     OW  607   0.711   0.191   1.574 -0.5298  0.0625 -0.3517
  203SOL    HW1  608   0.716   0.141   1.485  0.2095  2.7325  0.9931
  203SOL    HW2  609   0.778   0.150   1.639 -0.2062  0.0800 -0.2853
  204SOL     OW  610   2.045   1.858   2.982 -0.6701  0.2534  0.2611
  204SOL    HW1  611   2.072   1.764   2.959 -1.5325  3.6943 -2.3360
  204SOL    HW2  612   2.013   1.906   2.899  0.4896 -0.8247 -1.1193
  205SOL     OW  613   1.821   1.867   0.021  0.0360 -0.9225  0.0170
  205SOL    HW1  614   1.922   1.852  -0.009 -0.6134  0.5998  0.7783
  205SOL    HW2  615   1.791   1.965   0.016  1.0305 -0.1913 -1.0206
  206SOL     OW  616   2.515   2.790   0.323 -0.2024 -0.2102  0.6410
  206SOL    HW1  617   2.576   2.719   0.367  1.6365 -2.3482  0.8695
  206SOL    HW2  618   2.554   2.850   0.247 -0.9687  0.8974  0.3272
  207SOL     OW  619   0.549   1.774   2.926  0.2404  0.2053  0.1544
  207SOL    HW1  620   0.644   1.740   2.909  0.6041  0.3021 -0.9945
  207SOL    HW2  621   0.501   1.710   2.992  1.3585 -3.4427  0.2932
  208SOL     OW  622   1.164   1.551   1.401  0.6965  0.1459 -0.1599
  208SOL    HW1  623   1.127   1.621   1.338  0.7004  0.4793  2.0344
  208SOL    HW2  624   1.237   1.591   1.459  1.4105  1.4694  2.9021
  209SOL     OW  625   0.265   0.963   3.005 -0.0501  0.5105  0.1590
  209SOL    HW1  626   0.297   0.935   2.910  1.1177 -0.6442  1.7374
  209SOL    HW2  627   0.262   0.884   3.070 -0.4829 -0.8773 -0.7517
  210SOL     OW  628   1.763   0.459   1.206  0.0727  0.1522  0.3696
  210SOL    HW1  629   1.723   0.553   1.186 -0.7260 -1.6936  0.7625
  210SOL    HW2  630   1.860   0.448   1.172  1.0913  3.8271  0.2265
  211SOL     OW  631   2.120   1.049   1.617  0.3420 -0.0921 -0.1802
  211SOL    HW1  632   2.185   0.992   1.682  0.3437 -0.6372  0.3400
  211SOL    HW2  633   2.168   1.095   1.538  1.2390 -2.3717 -3.2384
  212SOL     OW  634   0.049   0.995   1.477 -0.1596 -0.2225  0.1178
  212SOL    HW1  635   0.096   1.076   1.521  1.2171 -0.3012 -0.8218
  212SOL    HW2  636   0.046   0.914   1.544 -4.9292 -2.2792  1.8374
  213SOL     OW  637   2.756   0.396   0.296 -0.0194  0.0493  1.1686
  213SOL    HW1  638   2.818   0.312   0.264  0.1167  0.5155 -3.4132
  213SOL    HW2  639   2.732   0.470   0.230 -0.2194 -0.3915  0.0509
  214SOL     OW  640   2.141   0.270   2.295  0.1121 -0.0494  0.0190
  214SOL    HW1  641   2.175   0.296   2.393  2.8474  0.7526 -0.9287
  214SOL    HW2  642   2.099   0.175   2.286 -0.6576 -0.1364  0.9466
  215SOL     OW  643   1.647   2.338   2.043 -0.5236 -0.0268  0.0208
  215SOL    HW1  644   1.749   2.346   2.054  0.4774  1.6559 -1.7995
  215SOL    HW2  645   1.590   2.401   2.105  0.4189 -1.5545  2.0052
  216SOL     OW  646   2.217   0.582   0.685  0.0700  1.3019 -0.5345
  216SOL    HW1  647   2.213   0.488   0.640 -0.8744 -0.3233  0.5144
  216SOL    HW2  648   2.278   0.651   0.641 -0.8643 -2.3140 -1.3583
  217SOL     OW  649   0.727   2.761   2.487  0.1903  0.0204 -0.1257
  217SOL    HW1  650   0.718   2.664   2.523 -0.3760  1.3490  0.7163
  217SOL    HW2  651   0.741   2.759   2.383 -0.9480  1.0567 -0.1806
  218SOL     OW  652   1.925   1.445   0.071  0.0030  0.3884  0.1102
  218SOL    HW1  653   1.850   1.497   0.028  2.6003 -0.9456  1.7277
  218SOL    HW2  654   1.888   1.355   0.103  0.4838  1.4605  0.7725
  219SOL     OW  655   2.327   1.279   2.588  0.0597  0.2183 -0.5112
  219SOL    HW1  656   2.334   1.252   2.488  0.4939 -0.5445  0.7331
  219SOL    HW2  657   2.326   1.199   2.652 -2.6276 -1.1143  1.9336
  220SOL     OW  658   1.532   1.002   1.243 -0.5116  0.1728  0.5252
  220SOL    HW1  659   1.610   1.057   1.289 -0.8607  2.4884  1.0403
  220SOL    HW2  660   1.489   1.069   1.173  0.5935  0.0753  0.6311
  221SOL     OW  661   1.364   1.069   2.180  0.1472  0.2236 -0.2527
  221SOL    HW1  662   1.304   1.094   2.101  1.4873 -1.2472  0.4720
  221SOL    HW2  663   1.464   1.055   2.149 -0.4343 -0.0316  0.1276
  222SOL     OW  664   1.216   0.031   1.171 -0.3997 -0.1896  0.0377
  222SOL    HW1  665   1.292   0.028   1.241 -0.6673  1.0185 -1.1911
  222SOL    HW2  666   1.182   0.127   1.152  0.0686  0.4950 -1.2322
  223SOL     OW  667   2.806   0.867   2.064 -0.4607  0.0623 -0.1906
  223SOL    HW1  668   2.832   0.872   2.167 -0.2140  0.8361  1.1054
  223SOL    HW2  669   2.887   0.902   2.004  0.2182 -0.9784 -0.6171
  224SOL     OW  670   1.518   0.988   2.742  0.3035  0.1885  0.1677
  224SOL    HW1  671   1.552   0.931   2.666  0.6090  1.7241 -0.0308
  224SOL    HW2  672   1.481   1.073   2.697  1.3683 -1.5917  0.9322
  225SOL     OW  673   2.955   2.783   2.880 -0.3622  0.0056  0.1948
  225SOL    HW1  674   2.923   2.713   2.811  1.5478 -0.0401 -1.2572
  225SOL    HW2  675   2.991   2.864   2.825 -0.0886  2.1661 -1.3608
  226SOL     OW  676   2.417   1.575   2.829  0.0148  0.4604  0.4382
  226SOL    HW1  677   2.473   1.544   2.746  1.0400  0.1089 -0.4224
  226SOL    HW2  678   2.366   1.493   2.877 -0.1469  0.4274 -0.2984
  227SOL     OW  679   0.835   0.146   3.034 -0.2213  0.0185 -0.1204
  227SOL    HW1  680   0.849   0.091   3.117 -0.1950 -1.7746  0.0990
  227SOL    HW2  681   0.859   0.095   2.953  1.2083  2.0155 -0.8597
  228SOL     OW  682   2.402   0.620   2.861  0.1464 -0.1478  0.6304
  228SOL    HW1  683   2.347   0.644   2.780  0.8325  0.0146 -0.4366
  228SOL    HW2  684   2.497   0.586   2.832  0.1330  0.4771  0.6410
  229SOL     OW  685   0.607   0.502   1.892  0.4008 -0.0727 -0.2667
  229SOL    HW1  686   0.634   0.455   1.808 -0.5450 -2.9353  3.8399
  229SOL    HW2  687   0.565   0.592   1.890  1.3447 -2.5197 -3.3542
  230SOL     OW  688   1.918   1.194   2.139  0.0792  0.1215 -0.7053
  230SOL    HW1  689   2.006   1.215   2.099 -0.1409 -3.2276 -2.8211
  230SOL    HW2  690   1.841   1.264   2.135 -2.7051  1.8469  2.5439
  231SOL     OW  691   0.645   0.983   2.950 -0.7667 -0.0100  0.0830
  231SOL    HW1  692   0.738   1.028   2.950 -1.6763 -2.3639  0.6170
  231SOL    HW2  693   0.582   1.035   3.008 -0.1469 -0.4757 -1.5510
  232SOL     OW  694   2.442   0.017   2.773  0.1498 -0.7619  0.2384
  232SOL    HW1  695   2.489  -0.067   2.819  2.2001  0.7410  2.8293
  232SOL    HW2  696   2.502   0.048   2.695  0.4331  1.5839  1.2736
  233SOL     OW  697   1.698   1.307   1.139 -0.3368  0.3223  0.1838
  233SOL    HW1  698   1.707   1.303   1.038 -0.1123 -3.4605 -0.6222
  233SOL    HW2  699   1.751   1.229   1.189  2.3970 -0.1149  1.6636
  234SOL     OW  700   1.594   2.587   1.860 -0.4532  0.1899 -0.0951
  234SOL    HW1  701   1.608   2.641   1.946  2.7483 -0.9220 -1.0910
  234SOL    HW2  702   1.548   2.496   1.876  1.5231  2.6024  3.3881
  235SOL     OW  703   0.029   3.012   2.878  0.0724 -0.0840 -0.6770
  235SOL    HW1  704   0.092   3.096   2.858  1.3766 -1.0188  0.4252
  235SOL    HW2  705  -0.026   3.034   2.964  2.0397  0.5006  0.3469
  236SOL     OW  706   2.872   0.724   0.118  0.1830  0.5402 -0.9186
  236SOL    HW1  707   2.925   0.786   0.175 -0.8958 -1.1406  0.4694
  236SOL    HW2  708   2.934   0.660   0.072  0.7159  1.1875  2.0201
  237SOL     OW  709   1.447   1.699   1.042  0.1518  0.2537 -0.4221
  237SOL    HW1  710   1.547   1.664   1.033  0.0292  3.3705 -0.8607
  237SOL    HW2  711   1.433   1.744   1.135  1.8158  1.1334  1.6744
  238SOL     OW  712   1.788   1.276   0.826 -0.1019  0.2995  0.2132
  238SOL    HW1  713   1.887   1.275   0.785  2.0696 -0.7948  3.0919
  238SOL    HW2  714   1.733   1.354   0.784 -2.2285 -0.2904  1.0573
  239SOL     OW  715   2.013   0.242   2.718 -0.5095 -0.3514  0.0156
  239SOL    HW1  716   2.074   0.234   2.802  2.1819  0.6788  1.2564
  239SOL    HW2  717   1.930   0.306   2.738 -1.4743  0.7904  0.7190
  240SOL     OW  718   0.993   0.627   0.302  0.2405 -0.8796 -0.3499
  240SOL    HW1  719   1.004   0.533   0.268  1.0380  1.8531  3.5684
  240SOL    HW2  720   0.942   0.640   0.392  0.2626  0.6478 -1.2754
  241SOL     OW  721   0.608   0.108   0.313  0.3904  0.0490  0.0851
  241SOL    HW1  722   0.647   0.179   0.239  2.3695  0.5572 -2.1019
  241SOL    HW2  723   0.594   0.018   0.270  1.5882 -0.0066 -2.6808
  242SOL     OW  724   0.693   2.465   1.136  0.2448  0.3106  0.2279
  242SOL    HW1  725   0.660   2.533   1.206  1.1028 -3.1752 -0.9047
  242SOL    HW2  726   0.779   2.489   1.086  0.8885 -0.1374  1.4770
  243SOL     OW  727   1.130   0.608   2.451  0.4192 -0.3883  0.1980
  243SOL    HW1  728   1.058   0.671   2.412  1.8446  0.6395  1.4140
  243SOL    HW2  729   1.085   0.543   2.511 -1.5167 -0.1140  1.2559
  244SOL     OW  730   2.774   1.851   2.344 -0.0194  0.4521 -0.2229
  244SOL    HW1  731   2.822   1.822   2.257  0.3626 -1.1676 -0.6331
  244SOL    HW2  732   2.680   1.806   2.363  2.0966 -1.1979  1.5585
  245SOL     OW  733   2.472   0.675   2.185 -0.3777 -0.1255  0.5569
  245SOL    HW1  734   2.526   0.749   2.230  0.5411 -2.5968 -0.6048
  245SOL    HW2  735   2.535   0.589   2.177  2.5331 -1.3706 -0.8409
  246SOL     OW  736   0.228   2.924   1.660 -0.0965  0.1817 -0.8259
  246SOL    HW1  737   0.162   2.901   1.582 -0.4664  0.3398  0.4111
  246SOL    HW2  738   0.282   3.010   1.646 -1.3604  0.0628  1.0453
  247SOL     OW  739   2.152   0.560   3.051 -0.4478  0.3570 -0.0851
  247SOL    HW1  740   2.238   0.588   3.001 -4.4291 -1.0804  0.7643
  247SOL    HW2  741   2.110   0.644   3.092  0.7821  1.0081 -0.5906
  248SOL     OW  742   2.125   1.788   1.590 -0.3677 -0.1726  0.2446
  248SOL    HW1  743   2.199   1.744   1.648 -0.1826  0.6676  0.4511
  248SOL    HW2  744   2.032   1.791   1.631  1.3467 -0.4774 -2.0840
  249SOL     OW  745   1.953   1.911   1.937  0.0883 -0.3320  0.1354
  249SOL    HW1  746   1.910   1.857   1.856  0.7151  1.4106  0.5874
  249SOL    HW2  747   2.026   1.977   1.908 -0.6141 -0.9791  2.3556
  250SOL     OW  748   1.124   0.753   1.888 -0.2929  0.2541  0.3649
  250SOL    HW1  749   1.161   0.668   1.940  0.2306 -1.0638  1.6247
  250SOL    HW2  750   1.163   0.772   1.792 -0.1355  2.0579 -0.7796
  251SOL     OW  751   3.047   1.563   2.532  0.3270  0.2248 -0.1841
  251SOL    HW1  752   3.036   1.662   2.522  0.9125 -1.4434 -1.7147
  251SOL    HW2  753   2.963   1.513   2.503  3.0878 -1.4301  1.4195
  252SOL     OW  754   1.564   0.903   1.530  0.4161  0.4711  0.1587
  252SOL    HW1  755   1.533   0.935   1.439 -0.1980 -1.4396  4.1417
  252SOL    HW2  756   1.550   0.975   1.600 -0.4781  1.7097 -0.5968
  253SOL     OW  757   0.887   1.532   0.395 -0.2519 -0.3474  0.1663
  253SOL    HW1  758   0.940   1.446   0.387 -1.4714 -1.0138 -0.7085
  253SOL    HW2  759   0.787   1.502   0.388  3.8930  2.6482  1.0026
  254SOL     OW  760   2.064   2.111   1.552  0.2757 -0.2342  0.1644
  254SOL    HW1  761   2.033   2.095   1.453 -2.8460 -0.0349  1.6603
  254SOL    HW2  762   1.996   2.065   1.611  0.8755  0.1824  0.6585
  255SOL     OW  763   0.093   1.175   2.929  0.2187  0.3063  0.1875
  255SOL    HW1  764   0.146   1.261   2.900 -0.9684 -0.3192  0.4926
  255SOL    HW2  765   0.158   1.096   2.956  1.1708 -1.9637  0.4963
  256SOL     OW  766   2.800   1.366   1.806 -0.7720  0.2782 -0.9461
  256SOL    HW1  767   2.724   1.418   1.849  0.2161 -0.0099 -0.3790
  256SOL    HW2  768   2.778   1.265   1.796 -0.8422  0.3772  0.0223
  257SOL     OW  769   0.869   0.130   1.791 -0.2459  0.1313 -0.2956
  257SOL    HW1  770   0.919   0.221   1.792  1.0269  2.5291 -2.0286
  257SOL    HW2  771   0.924   0.054   1.827 -0.4627  0.8519 -0.6015
  258SOL     OW  772   2.943   1.310   0.415  0.3355  0.0356  0.4153
  258SOL    HW1  773   2.895   1.404   0.405  0.4643  3.3616 -1.1282
  258SOL    HW2  774   3.005   1.295   0.496 -1.8465 -0.3753 -1.1134
  259SOL     OW  775   0.512   2.940   3.017  0.0507  0.3359  0.0685
  259SOL    HW1  776   0.439   2.875   3.054  0.4128 -1.2462  0.7843
  259SOL    HW2  777   0.510   2.945   2.914  1.0196  0.7412  3.6035
  260SOL     OW  778   2.713   0.820   2.697 -0.5509 -0.0654  0.2126
  260SOL    HW1  779   2.614   0.831   2.671  1.6163  0.4985  0.2338
  260SOL    HW2  780   2.745   0.872   2.778 -1.7206  0.9031 -3.0832
  261SOL     OW  781   2.723   1.374   1.362  0.0314 -0.1456  0.3466
  261SOL    HW1  782   2.667   1.323   1.289 -0.7897 -1.0458 -2.1938
  261SOL    HW2  783   2.812   1.318   1.383  1.8839 -1.0126 -4.3150
  262SOL     OW  784   1.444   2.976   1.989  0.3283  0.8169 -0.0428
  262SOL    HW1  785   1.481   3.047   1.920 -0.7847 -0.1482 -0.6095
  262SOL    HW2  786   1.352   2.939   1.962  0.7614 -0.0372  1.2858
  263SOL     OW  787   0.877   0.732   2.344 -0.3865 -0.1958 -0.3136
  263SOL    HW1  788   0.853   0.640   2.314  0.1380  2.6357 -3.3684
  263SOL    HW2  789   0.901   0.788   2.261  0.6926 -1.6878 -0.3631
  264SOL     OW  790   2.231   0.791   0.331  0.1014  0.2372 -1.0487
  264SOL    HW1  791   2.151   0.815   0.396  0.9543  1.4592  3.1837
  264SOL    HW2  792   2.324   0.826   0.365 -1.3004  4.3577  1.5266
  265SOL     OW  793   0.921   2.278   2.640  0.2159  0.1974  0.6853
  265SOL    HW1  794   0.971   2.301   2.733 -2.5302  0.2925  0.2774
  265SOL    HW2  795   0.858   2.197   2.652  0.2554 -0.7748  1.0370
  266SOL     OW  796   1.349   1.747   3.081  0.4403 -0.2961 -0.5941
  266SOL    HW1  797   1.318   1.811   3.156  3.0225 -0.3815 -0.5114
  266SOL    HW2  798   1.454   1.751   3.070 -1.5313  0.5332 -0.2372
  267SOL     OW  799   1.000   3.068   2.373 -0.5042 -0.0808 -0.1391
  267SOL    HW1  800   1.014   3.034   2.278 -0.4329  1.3734  0.0684
  267SOL    HW2  801   0.964   3.166   2.372  2.1071  1.3326  1.1145
  268SOL     OW  802   0.643   1.136   1.083  0.6777  0.1491  0.5970
  268SOL    HW1  803   0.638   1.195   1.168 -0.8100  0.0412 -0.6783
  268SOL    HW2  804   0.661   1.194   0.997  1.0885  1.5113 -3.0074
  269SOL     OW  805   2.442   2.461   1.547 -0.5854  0.2884  0.0648
  269SOL    HW1  806   2.531   2.412   1.567 -1.5515  0.1624 -1.5625
  269SOL    HW2  807   2.393   2.500   1.631 -2.5681  0.7076 -1.0431
  270SOL     OW  808   0.131   3.079   1.897  0.0732 -0.3509  0.2729
  270SOL    HW1  809   0.192   3.056   1.817 -0.8920 -1.2401  0.0087
  270SOL    HW2  810   0.066   2.999   1.917  0.0463 -0.5770  1.1024
  271SOL     OW  811   0.417   1.433   1.163 -0.8805 -0.1649  0.3390
  271SOL    HW1  812   0.399   1.411   1.059  0.8435  0.2150 -0.7610
  271SOL    HW2  813   0.338   1.407   1.229  0.6922  1.1210 -0.1818
  272SOL     OW  814   1.955   2.859   1.913 -0.2322  0.3098  0.0717
  272SOL    HW1  815   1.901   2.800   1.842  2.6735  2.0714 -0.7352
  272SOL    HW2  816   2.045   2.892   1.871  0.8723  0.5150 -3.5526
  273SOL     OW  817   1.404   1.443   2.837  0.8717 -0.3073 -0.4736
  273SOL    HW1  818   1.316   1.497   2.824 -0.5353  0.1616 -1.1820
  273SOL    HW2  819   1.429   1.439   2.939  2.5962  1.6903  1.6317
  274SOL     OW  820   1.201   0.529   2.021  0.8132 -0.4387  0.0114
  274SOL    HW1  821   1.176   0.438   1.986 -1.5084 -0.4507 -1.9847
  274SOL    HW2  822   1.231   0.527   2.120  1.3422  0.8900 -3.3392
  275SOL     OW  823   0.635   2.086   1.888  0.0878 -0.0806 -0.5381
  275SOL    HW1  824   0.588   2.181   1.910  1.3343  1.5667  0.8577
  275SOL    HW2  825   0.566   2.009   1.884  4.2017  0.3501 -2.5551
  276SOL     OW  826   2.164   0.925   2.822 -0.1395  0.2303 -0.2237
  276SOL    HW1  827   2.120   0.888   2.733 -0.7384  2.0192  1.3353
  276SOL    HW2  828   2.116   0.887   2.906 -1.7734 -2.7398 -0.0889
  277SOL     OW  829   3.084   0.878   0.252  0.7008 -0.1464  0.5886
  277SOL    HW1  830   3.160   0.928   0.198 -0.0245  1.0289 -0.8799
  277SOL    HW2  831   3.127   0.827   0.331 -0.2479 -0.5871  0.1897
  278SOL     OW  832   0.236   0.291   3.049  0.1925 -0.2336  0.4519
  278SOL    HW1  833   0.321   0.231   3.064 -2.2187  2.9117  0.9782
  278SOL    HW2  834   0.262   0.391   3.045  2.2406 -1.2018  1.5362
  279SOL     OW  835   0.114   0.063   0.865  0.6133  0.3985  0.1106
  279SOL    HW1  836   0.141   0.052   0.964  0.5064 -1.7871 -0.0083
  279SOL    HW2  837   0.193   0.073   0.800 -1.7295  0.6556 -2.1153
  280SOL     OW  838   1.613   2.873   2.561 -0.3994  0.0828 -0.2715
  280SOL    HW1  839   1.690   2.929   2.590 -2.1845 -0.0322  0.8758
  280SOL    HW2  840   1.525   2.926   2.555  0.4643 -0.8802 -0.5710
  281SOL     OW  841   0.571   0.969   2.269  0.5842 -0.1897 -0.3338
  281SOL    HW1  842   0.576   0.875   2.226  1.0965 -0.7538 -2.1575
  281SOL    HW2  843   0.529   0.968   2.365 -0.6231 -2.1575  1.2750
  282SOL     OW  844   1.753   2.396   0.508  0.5137  0.3250  0.0081
  282SOL    HW1  845   1.726   2.319   0.445  0.1192  2.7397  0.3833
  282SOL    HW2  846   1.701   2.485   0.504  2.1291 -2.4220 -0.5165
  283SOL     OW  847   1.141   0.925   0.833 -0.2304 -0.2442  0.6307
  283SOL    HW1  848   1.160   0.854   0.904 -2.0050  0.1720 -2.2296
  283SOL    HW2  849   1.066   0.990   0.857 -0.5896 -0.7974 -1.1863
  284SOL     OW  850   2.346   2.777   2.318  0.4237  0.2130  0.5191
  284SOL    HW1  851   2.430   2.837   2.304 -3.9139  0.2547  0.1798
  284SOL    HW2  852   2.294   2.795   2.406 -2.5617 -1.9440  2.2244
  285SOL     OW  853   1.374   3.054   2.533 -0.5664  0.5199  0.2243
  285SOL    HW1  854   1.371   3.061   2.431 -0.6707 -0.3372  4.5293
  285SOL    HW2  855   1.296   3.112   2.574 -1.0006  1.7041  2.3765
  286SOL     OW  856   0.455   0.424   0.746  0.3174 -0.1566  0.4522
  286SOL    HW1  857   0.412   0.359   0.819 -0.8456  1.0993  3.0242
  286SOL    HW2  858   0.464   0.376   0.652 -0.7356  0.7572 -2.0413
  287SOL     OW  859   0.141   1.318   2.536 -0.3262 -0.0028 -0.1173
  287SOL    HW1  860   0.072   1.252   2.582 -1.1795  2.1356 -0.7338
  287SOL    HW2  861   0.108   1.416   2.544 -1.6847  1.4074  0.9922
  288SOL     OW  862   1.541   2.666   1.576  0.3751  0.2575  0.4493
  288SOL    HW1  863   1.575   2.659   1.676  1.1927 -1.6300  1.0975
  288SOL    HW2  864   1.571   2.590   1.519 -3.2132  3.1389  2.7565
  289SOL     OW  865   0.640   2.698   0.821 -1.0442  0.4815  0.5180
  289SOL    HW1  866   0.702   2.757   0.761  2.7131  0.3327 -0.2416
  289SOL    HW2  867   0.591   2.755   0.891 -0.7155 -1.3926 -1.6487
  290SOL     OW  868   2.831   1.073   1.695 -0.1865 -0.0269  0.4380
  290SOL    HW1  869   2.740   1.037   1.670  0.9751 -0.6848  4.3151
  290SOL    HW2  870   2.879   1.016   1.768  0.2044  0.7554 -1.0208
  291SOL     OW  871   1.943   0.076   0.060  0.4196  0.2379  0.1422
  291SOL    HW1  872   1.970   0.048   0.154 -3.8957  1.5336 -0.3947
  291SOL    HW2  873   2.004   0.152   0.028  0.0010 -0.7144 -1.8709
  292SOL     OW  874   2.963   1.227   3.086  0.3008  0.3806  0.4915
  292SOL    HW1  875   2.887   1.266   3.026 -2.1032 -2.0259 -0.5506
  292SOL    HW2  876   3.054   1.205   3.033  2.2718 -1.1369 -1.8534
  293SOL     OW  877   0.566   2.095   0.160 -0.9825  0.2213 -0.0092
  293SOL    HW1  878   0.542   2.154   0.238 -3.0029 -3.6018 -0.5633
  293SOL    HW2  879   0.658   2.043   0.181 -0.1026  3.1714 -0.3670
  294SOL     OW  880   1.724   2.217   1.769  0.6289  0.5020  0.3127
  294SOL    HW1  881   1.745   2.280   1.849  1.5116  0.8232  0.5135
  294SOL    HW2  882   1.704   2.262   1.680  0.0520 -3.5884 -2.4136
  295SOL     OW  883   1.057   1.014   0.515 -0.0010  0.2773  0.5699
  295SOL    HW1  884   1.156   1.040   0.539  1.6198  2.0794  0.4951
  295SOL    HW2  885   0.989   1.011   0.595  1.9783 -1.3619 -1.3235
  296SOL     OW  886   1.268   2.069   2.506 -0.3403  0.0797  0.4991
  296SOL    HW1  887   1.243   2.084   2.402  0.6194  0.3622 -0.0782
  296SOL    HW2  888   1.271   1.968   2.535  0.3420 -1.4737  0.3846
  297SOL     OW  889   1.459   0.607   1.400 -0.0294  0.2463 -0.0297
  297SOL    HW1  890   1.402   0.519   1.404 -1.4369  0.8043 -1.8429
  297SOL    HW2  891   1.558   0.590   1.423 -1.3546  2.0741  0.0588
  298SOL     OW  892   0.511   1.342   2.951  0.0737  0.1870 -0.1182
  298SOL    HW1  893   0.505   1.268   3.021  1.9338  0.6749  1.6138
  298SOL    HW2  894   0.549   1.304   2.862  0.5201  4.3741 -0.1029
  299SOL     OW  895   0.484   0.284   1.359  0.1245 -0.3493 -0.4430
  299SOL    HW1  896   0.461   0.367   1.298 -1.4667  1.9826 -3.0798
  299SOL    HW2  897   0.575   0.306   1.407  2.2825  3.6254 -2.8858
  300SOL     OW  898   1.199   1.817   2.861  0.6227  0.3300 -0.0393
  300SOL    HW1  899   1.181   1.722   2.814 -0.6957  3.2494  0.0846
  300SOL    HW2  900   1.228   1.806   2.960 -1.3133 -0.3308 -1.7855
  301SOL     OW  901   0.479   0.270   0.513 -0.0635 -0.0895  0.2070
  301SOL    HW1  902   0.376   0.242   0.514 -1.3002  1.5954 -1.5621
  301SOL    HW2  903   0.542   0.236   0.436  1.5934 -0.9232  1.3934
  302SOL     OW  904   1.198   2.399   2.275  0.0392  0.7899  0.2919
  302SOL    HW1  905   1.141   2.442   2.344  1.4000  0.3544 -1.9530
  302SOL    HW2  906   1.215   2.295   2.292 -0.7458 -0.3622  3.1425
  303SOL     OW  907   0.976   2.334   0.812  0.0289  0.1099  0.4889
  303SOL    HW1  908   1.012   2.378   0.725  0.3207  1.1476  1.1063
  303SOL    HW2  909   1.008   2.387   0.892 -1.1409  1.6480 -0.3758
  304SOL     OW  910   0.155   2.047   0.615 -0.1428  0.0200 -0.4571
  304SOL    HW1  911   0.163   1.984   0.528 -1.4011 -0.6795 -0.9918
  304SOL    HW2  912   0.084   2.122   0.592 -2.3090 -3.5943  0.5353
  305SOL     OW  913   1.594   0.927   0.590  0.2324  0.8505 -0.3917
  305SOL    HW1  914   1.541   0.885   0.514  0.4249 -1.4407  2.2229
  305SOL    HW2  915   1.628   0.856   0.658  0.8783  1.6340 -1.6675
  306SOL     OW  916   0.440   1.853   1.891 -0.6677  0.6310  0.2721
  306SOL    HW1  917   0.522   1.798   1.861 -0.5210  1.5769  1.5664
  306SOL    HW2  918   0.419   1.843   1.989 -0.7549  2.8449 -2.7779
  307SOL     OW  919   3.063   0.880   2.541 -0.5117  0.3753 -1.3539
  307SOL    HW1  920   3.077   0.941   2.625 -0.4794 -0.6390  0.9527
  307SOL    HW2  921   3.021   0.791   2.571 -0.2295  2.3913  2.1113
  308SOL     OW  922   1.531   2.695   2.863  0.1687 -0.5921  0.0768
  308SOL    HW1  923   1.544   2.636   2.778  0.6583  0.2585  2.6666
  308SOL    HW2  924   1.490   2.637   2.943  0.4458 -2.3753  3.2418
  309SOL     OW  925   1.230   0.076   1.782  0.3232  0.0453 -0.1495
  309SOL    HW1  926   1.338   0.075   1.786  1.5985  0.2558  0.9623
  309SOL    HW2  927   1.202   0.111   1.685  1.8713 -1.0268 -2.0897
  310SOL     OW  928   1.502   2.546   0.683 -0.3023  0.2855  0.4052
  310SOL    HW1  929   1.448   2.594   0.761  2.1044  0.5961  0.2457
  310SOL    HW2  930   1.578   2.608   0.644 -1.3034  0.0178 -1.5920
  311SOL     OW  931   1.197   0.927   1.587 -0.2995  0.5349 -0.2500
  311SOL    HW1  932   1.272   0.855   1.596 -1.1342  2.7714 -2.5284
  311SOL    HW2  933   1.238   1.021   1.584  0.5872  0.6756 -0.8784
  312SOL     OW  934   1.621   0.661   0.984 -0.3141 -0.0867 -0.2790
  312SOL    HW1  935   1.562   0.749   0.972  0.1302 -0.3130 -0.3997
  312SOL    HW2  936   1.569   0.573   0.960 -0.7815 -0.3469 -1.5646
  313SOL     OW  937   1.580   1.403   0.692  0.6719 -0.3173  0.2366
  313SOL    HW1  938   1.520   1.451   0.761  1.2187 -0.5226 -0.5146
  313SOL    HW2  939   1.531   1.329   0.645 -1.0227  1.9654  1.4373
  314SOL     OW  940   3.005   0.037  -0.001 -0.0067  0.0407 -1.1132
  314SOL    HW1  941   2.986   0.064   0.100 -0.5246 -0.5067  0.1409
  314SOL    HW2  942   2.928  -0.018  -0.046 -0.6812 -0.7417 -3.6453
  315SOL     OW  943   1.221   0.204   2.806  0.2082 -0.1892 -0.1490
  315SOL    HW1  944   1.165   0.135   2.751  2.2576  2.8697 -0.8508
  315SOL    HW2  945   1.236   0.180   2.907 -3.9137 -1.0846  2.3813
  316SOL     OW  946   1.712   2.087   0.915  0.0181 -0.1345 -0.4104
  316SOL    HW1  947   1.651   2.049   0.990 -0.6346  0.1923 -1.1582
  316SOL    HW2  948   1.680   2.180   0.885 -2.0187  1.7382 -0.6112
  317SOL     OW  949   1.119   0.710   2.866  0.4501  0.0690  0.1223
  317SOL    HW1  950   1.047   0.748   2.930  0.4068  0.7529  2.4112
  317SOL    HW2  951   1.083   0.618   2.828  1.2991 -1.4679  1.1131
  318SOL     OW  952   1.328   3.049   2.241 -0.1482  0.5777 -0.4329
  318SOL    HW1  953   1.358   3.139   2.207 -0.8173 -1.9605 -0.7714
  318SOL    HW2  954   1.366   2.975   2.189 -0.8332  0.6774  1.0155
  319SOL     OW  955   0.642   2.453   2.930  0.2304  0.2852  0.3584
  319SOL    HW1  956   0.579   2.411   3.000 -1.4001 -2.0662 -1.2128
  319SOL    HW2  957   0.742   2.428   2.946 -0.2521 -0.1856 -0.6460
  320SOL     OW  958   1.673   2.181   0.312  0.8506  0.3327  0.5536
  320SOL    HW1  959   1.759   2.141   0.341 -1.8949 -1.1442 -1.9563
  320SOL    HW2  960   1.587   2.141   0.358  0.1714  2.1128 -0.7405
  321SOL     OW  961   1.674   2.669   0.484 -0.0175 -0.0535  0.1537
  321SOL    HW1  962   1.594   2.709   0.427 -0.1404  1.5214 -1.0369
  321SOL    HW2  963   1.765   2.705   0.445 -0.0907  1.6499  0.2439
  322SOL     OW  964   2.532   1.140   2.311  0.1670  0.0333  0.6038
  322SOL    HW1  965   2.608   1.172   2.375 -2.5923 -0.2410  2.6044
  322SOL    HW2  966   2.528   1.035   2.306  1.3735  0.3966 -2.1947
  323SOL     OW  967   1.069   2.636   0.832  0.9313 -0.1217 -0.0572
  323SOL    HW1  968   1.093   2.583   0.745  1.4742 -0.6291 -2.2714
  323SOL    HW2  969   1.058   2.738   0.816  0.1114 -0.4283 -0.4595
  324SOL     OW  970   0.242   2.537   2.510  0.5247  0.0296 -0.2028
  324SOL    HW1  971   0.284   2.479   2.586 -2.8481  1.2583  3.6869
  324SOL    HW2  972   0.160   2.591   2.544  0.1497  3.4207 -0.4337
  325SOL     OW  973   1.248   3.034   0.460 -0.4480 -0.0923  0.1403
  325SOL    HW1  974   1.229   3.066   0.363  0.8933  1.7524  0.9480
  325SOL    HW2  975   1.281   3.112   0.523 -0.4402 -0.1185  0.5652
  326SOL     OW  976   2.440   0.784   3.083 -0.0835  0.3688 -0.5290
  326SOL    HW1  977   2.405   0.744   2.994  0.6302  1.3026 -1.3960
  326SOL    HW2  978   2.515   0.728   3.131 -0.6215  0.1691  0.3176
  327SOL     OW  979   2.852   0.336   0.550 -0.0650  0.2880  0.4848
  327SOL    HW1  980   2.808   0.348   0.459  0.9904  1.6675  1.2275
  327SOL    HW2  981   2.792   0.281   0.615 -0.9472 -1.1740  1.0722
  328SOL     OW  982   2.512   0.608   0.394  0.1285 -0.3474 -0.1100
  328SOL    HW1  983   2.495   0.693   0.450 -0.0192 -0.6526 -1.7141
  328SOL    HW2  984   2.507   0.524   0.459  1.7549 -3.4228 -1.9629
  329SOL     OW  985   2.977   3.002   2.134 -0.4831 -0.0920 -0.1787
  329SOL    HW1  986   3.017   2.939   2.205  2.5429 -1.9857 -2.8762
  329SOL    HW2  987   3.032   3.089   2.128 -0.0451  1.1592  0.0414
  330SOL     OW  988   0.576   0.151   1.841  0.4322  0.0065 -0.1596
  330SOL    HW1  989   0.676   0.177   1.826  1.2436  0.1565 -2.3900
  330SOL    HW2  990   0.552   0.103   1.930  0.0929  0.1888  1.6694
  331SOL     OW  991   2.966   1.929   1.126 -0.1959 -0.6487  0.1528
  331SOL    HW1  992   3.023   2.012   1.091 -0.7525  0.5638  2.7134
  331SOL    HW2  993   2.902   1.957   1.203  0.5332  0.4593  2.0069
  332SOL     OW  994   0.446   1.142   0.035  0.2769  0.0368 -1.0101
  332SOL    HW1  995   0.394   1.073  -0.022 -1.2691  1.4422 -0.7570
  332SOL    HW2  996   0.399   1.148   0.128 -1.7014 -0.3935 -1.2395
  333SOL     OW  997   2.858   1.049   0.301  0.2617 -0.0403 -0.5591
  333SOL    HW1  998   2.872   1.129   0.362 -0.6857  0.4526 -0.3637
  333SOL    HW2  999   2.946   0.997   0.281 -1.2763  0.4885  0.7232
  334SOL     OW 1000   1.695   1.229   1.841  0.1339  0.8265 -0.1698
  334SOL    HW1 1001   1.786   1.183   1.819  0.1825 -0.8615  0.0336
  334SOL    HW2 1002   1.704   1.281   1.927  0.9176 -1.5415  0.2268
  335SOL     OW 1003   1.962   2.748   2.622 -0.4122  0.4692 -0.1707
  335SOL    HW1 1004   1.894   2.671   2.649 -1.3876  0.7620 -1.8207
  335SOL    HW2 1005   1.983   2.818   2.699 -0.0577  0.1143  1.2879
  336SOL     OW 1006   0.240   0.080   2.849  0.2540  0.3324 -0.0748
  336SOL    HW1 1007   0.345   0.061   2.845 -0.1521 -1.8585  3.4494
  336SOL    HW2 1008   0.213   0.137   2.931 -1.1428  0.4789 -3.6826
  337SOL     OW 1009   0.918   2.797   2.809  0.1361 -0.2751  0.1825
  337SOL    HW1 1010   0.937   2.736   2.890 -0.3308  0.2262 -1.8912
  337SOL    HW2 1011   0.996   2.795   2.745 -0.2951 -1.8994  1.9598
  338SOL     OW 1012   0.018   1.031   0.679 -0.0380 -0.2860 -0.1860
  338SOL    HW1 1013  -0.088   1.013   0.681 -2.2892 -1.3490 -0.5209
  338SOL    HW2 1014   0.032   1.137   0.666 -1.2678  0.5905 -1.4313
  339SOL     OW 1015   1.712   1.360   2.096  0.4286 -0.0840 -0.2304
  339SOL    HW1 1016   1.611   1.355   2.131 -1.5696  0.6402  2.2575
  339SOL    HW2 1017   1.747   1.456   2.075  2.4719 -1.0705 -0.5831
  340SOL     OW 1018   2.360   0.711   1.199 -0.2725 -0.4018  0.1141
  340SOL    HW1 1019   2.256   0.719   1.177  0.5160 -0.6238 -1.8187
  340SOL    HW2 1020   2.403   0.644   1.132 -0.0291 -0.4410  0.4143
  341SOL     OW 1021   1.941   2.106   0.327  0.6856 -0.0250 -0.3594
  341SOL    HW1 1022   1.960   2.154   0.235  1.5679  1.1490 -0.6170
  341SOL    HW2 1023   2.032   2.103   0.383  0.7529  2.0437  0.9728
  342SOL     OW 1024   2.202   2.087   2.737 -0.0539 -0.0553 -0.1075
  342SOL    HW1 1025   2.276   2.025   2.779  1.9235 -0.1342 -1.3749
  342SOL    HW2 1026   2.107   2.052   2.755  1.5135  0.3327  0.5130
  343SOL     OW 1027   0.399   0.817   2.756  0.3347  0.7738  0.1247
  343SOL    HW1 1028   0.413   0.881   2.676  0.4858  2.2834  2.7897
  343SOL    HW2 1029   0.495   0.790   2.801  3.7078  2.3135 -0.8992
  344SOL     OW 1030   1.949   1.394   0.432 -0.2182 -0.1658 -0.9110
  344SOL    HW1 1031   1.951   1.322   0.358  0.3578  1.5848  0.4985
  344SOL    HW2 1032   1.853   1.434   0.448  1.7761  0.5619  1.0274
  345SOL     OW 1033   1.386   2.275   2.877  0.9157  0.0451 -0.6034
  345SOL    HW1 1034   1.303   2.233   2.828 -1.8569  1.3857 -1.8357
  345SOL    HW2 1035   1.475   2.235   2.841  1.8848 -1.2598 -0.5476
  346SOL     OW 1036   2.338   0.905   1.418  0.2413  0.3272 -0.1783
  346SOL    HW1 1037   2.286   0.992   1.421  0.7703  1.7764  0.1805
  346SOL    HW2 1038   2.317   0.844   1.335  1.1632 -1.8288 -0.1949
  347SOL     OW 1039   0.716   2.781   1.458 -0.0878  0.0258 -0.1678
  347SOL    HW1 1040   0.695   2.726   1.545  1.9885 -0.2748 -1.0532
  347SOL    HW2 1041   0.650   2.864   1.443 -0.1186  2.0260 -0.6731
  348SOL     OW 1042   0.158   0.675   2.820 -0.4038 -0.3664  0.2189
  348SOL    HW1 1043   0.059   0.657   2.793  0.1153 -1.5219  1.8722
  348SOL    HW2 1044   0.205   0.753   2.764  3.1746  2.5009 -3.4627
  349SOL     OW 1045   1.811   0.408   2.811  0.3589 -0.2206 -0.2112
  349SOL    HW1 1046   1.804   0.482   2.741 -0.7548  1.1522  3.1582
  349SOL    HW2 1047   1.810   0.439   2.911  0.3538  0.0414 -1.2946
  350SOL     OW 1048   1.535   0.454   0.377  0.1470  0.2361  0.2126
  350SOL    HW1 1049   1.581   0.478   0.464 -1.6318 -0.9055  2.3124
  350SOL    HW2 1050   1.548   0.522   0.301 -0.0304 -1.4139 -1.9138
  351SOL     OW 1051   0.954   0.840   2.116  0.3838 -0.0917  0.4819
  351SOL    HW1 1052   0.948   0.942   2.089 -1.0037  0.4912 -1.6564
  351SOL    HW2 1053   0.993   0.796   2.031  1.5399  1.5741  0.1725
  352SOL     OW 1054   2.027   1.279   0.688  0.2903  0.0111 -0.2989
  352SOL    HW1 1055   1.983   1.327   0.607  0.8257  1.6298  1.1357
  352SOL    HW2 1056   2.118   1.310   0.703 -0.6715 -2.6381  1.0840
  353SOL     OW 1057   2.186   2.912   1.078  0.1741 -0.5957  0.0610
  353SOL    HW1 1058   2.246   2.837   1.124 -1.5556 -0.9360 -0.8978
  353SOL    HW2 1059   2.117   2.872   1.011  1.4645  2.4319 -0.7301
  354SOL     OW 1060   0.237   1.395   2.863 -0.1730 -0.3013 -0.6360
  354SOL    HW1 1061   0.221   1.447   2.772 -1.3794  3.1082 -0.5340
  354SOL    HW2 1062   0.334   1.400   2.885  0.3296 -1.7090 -0.1972
  355SOL     OW 1063   0.491   1.524   0.485  0.1524 -0.7369  0.2388
  355SOL    HW1 1064   0.492   1.623   0.515 -0.3398 -1.1183  0.9379
  355SOL    HW2 1065   0.528   1.453   0.549  0.1219 -1.1815 -0.3678
  356SOL     OW 1066   0.940   0.274   2.076 -0.2651 -0.5310 -0.1400
  356SOL    HW1 1067   1.036   0.280   2.033  1.0202  0.6785  0.3691
  356SOL    HW2 1068   0.872   0.215   2.034 -2.3792  2.3799  1.6271
  357SOL     OW 1069   0.995   1.293   0.401 -0.2290  0.0356  0.3480
  357SOL    HW1 1070   0.959   1.226   0.329 -1.8454  1.9214 -1.7811
  357SOL    HW2 1071   1.050   1.257   0.481  0.3047 -1.9677 -1.1058
  358SOL     OW 1072   1.709   1.502   0.457  0.2583 -0.3961  0.1343
  358SOL    HW1 1073   1.651   1.471   0.538 -0.3341  1.3094 -0.2866
  358SOL    HW2 1074   1.665   1.480   0.365  1.2764  2.6783 -0.0112
  359SOL     OW 1075   1.584   2.756   0.069 -0.0069 -0.2658  0.4494
  359SOL    HW1 1076   1.550   2.661   0.043  0.4776  2.2282 -2.8440
  359SOL    HW2 1077   1.516   2.827   0.043 -0.7978  1.0451 -0.3923
  360SOL     OW 1078   0.862   0.617   0.553 -0.4083 -0.0644  0.7031
  360SOL    HW1 1079   0.772   0.617   0.604 -1.1679  0.9814  2.2327
  360SOL    HW2 1080   0.907   0.522   0.565 -0.6864 -1.6259 -0.3969
  361SOL     OW 1081   1.194   1.370   0.695 -0.0198  0.2227  0.0242
  361SOL    HW1 1082   1.242   1.388   0.790 -1.9564 -1.9682  2.1389
  361SOL    HW2 1083   1.110   1.427   0.688  1.9178 -1.8216 -0.7334
  362SOL     OW 1084   1.332   1.812   0.793 -0.1638  0.7348  0.3155
  362SOL    HW1 1085   1.346   1.755   0.877  1.0070  0.4011  1.0238
  362SOL    HW2 1086   1.424   1.845   0.754 -0.6862  1.6596 -0.1883
  363SOL     OW 1087   1.206   1.277   2.015  0.1933  0.2579 -0.2376
  363SOL    HW1 1088   1.278   1.341   2.054  1.7191  1.0864 -2.4473
  363SOL    HW2 1089   1.189   1.299   1.915 -0.5960 -0.2720  0.9514
  364SOL     OW 1090   0.513   2.334   1.931 -0.0808 -0.6004  0.4886
  364SOL    HW1 1091   0.415   2.368   1.933  0.8461 -1.6487  1.6163
  364SOL    HW2 1092   0.571   2.376   1.858 -0.1400  1.2938 -0.5468
  365SOL     OW 1093   1.026   1.861   1.402  0.0659 -0.3224  0.6593
  365SOL    HW1 1094   0.925   1.849   1.412 -1.1903  1.2656 -0.5586
  365SOL    HW2 1095   1.060   1.829   1.308  0.1153  1.2979 -1.7129
  366SOL     OW 1096   2.791   2.072   0.482 -0.7975 -0.1575 -0.2824
  366SOL    HW1 1097   2.690   2.054   0.453  1.2475 -0.9345 -1.3975
  366SOL    HW2 1098   2.853   1.999   0.448  1.9623  1.6308  0.6507
  367SOL     OW 1099   0.886   1.140   0.168  0.7107  0.0531  0.2852
  367SOL    HW1 1100   0.870   1.051   0.219 -1.7962 -0.0054 -1.6295
  367SOL    HW2 1101   0.939   1.127   0.081  0.6131 -3.8313  0.4769
  368SOL     OW 1102   1.487   0.569   0.707 -0.0836 -0.0044 -0.1860
  368SOL    HW1 1103   1.429   0.573   0.622  3.2933 -0.0291 -0.2718
  368SOL    HW2 1104   1.560   0.639   0.699  0.7666  1.9182  0.9042
  369SOL     OW 1105   0.225   1.730   0.057 -0.6334  0.0872 -0.2672
  369SOL    HW1 1106   0.284   1.801   0.099 -1.4637 -0.9642  0.0677
  369SOL    HW2 1107   0.148   1.697   0.122 -1.0061 -2.4590 -1.1417
  370SOL     OW 1108   0.458   2.092   1.047 -0.0896 -0.2151 -0.0371
  370SOL    HW1 1109   0.475   2.190   1.027 -1.4250 -0.0578  1.5929
  370SOL    HW2 1110   0.384   2.055   0.981 -0.3384  1.0239 -0.0048
  371SOL     OW 1111   2.870   2.204   2.709 -0.3194 -0.4281  0.0787
  371SOL    HW1 1112   2.833   2.169   2.801  0.1545 -0.3762 -2.9838
  371SOL    HW2 1113   2.959   2.258   2.712  1.0503 -1.2078 -0.1160
  372SOL     OW 1114   1.081   1.968   1.082  0.0370  0.5874  0.6352
  372SOL    HW1 1115   0.981   1.973   1.070  2.0732 -1.8492  1.1066
  372SOL    HW2 1116   1.129   2.015   1.009  0.3499  0.8459  1.7532
  373SOL     OW 1117   1.963   2.010   0.899  0.6682  0.0854 -0.5357
  373SOL    HW1 1118   2.030   2.018   0.982 -0.8951 -0.4290  0.4373
  373SOL    HW2 1119   1.864   2.046   0.915  0.9303 -0.9241 -2.6367
  374SOL     OW 1120   1.775   0.468   0.571 -0.2666  0.2360  0.0979
  374SOL    HW1 1121   1.820   0.411   0.651  0.7187  0.1652 -2.1601
  374SOL    HW2 1122   1.854   0.508   0.508  5.2889  0.9371 -2.1898
  375SOL     OW 1123   2.374   2.182   1.116  0.2262  0.0449  0.3553
  375SOL    HW1 1124   2.437   2.169   1.035  2.2669 -1.1816  2.5989
  375SOL    HW2 1125   2.425   2.160   1.207 -0.3514 -1.0723 -1.3369
  376SOL     OW 1126   3.007   0.591   1.431  0.3507 -0.3790  0.1087
  376SOL    HW1 1127   3.048   0.658   1.498  0.8322 -0.7383 -0.2472
  376SOL    HW2 1128   2.907   0.605   1.418  0.3576  1.8351  1.7596
  377SOL     OW 1129   2.220   2.832   0.338 -0.1931  0.8322 -0.1456
  377SOL    HW1 1130   2.228   2.924   0.385  2.2742  0.0512 -0.5997
  377SOL    HW2 1131   2.310   2.803   0.293  2.8145  0.4171  1.2613
  378SOL     OW 1132   1.788   1.805   2.683  0.8586 -0.7304 -0.1473
  378SOL    HW1 1133   1.687   1.777   2.703 -2.5597 -0.3388 -0.6456
  378SOL    HW2 1134   1.851   1.722   2.665  2.2203 -2.1912 -1.2847
  379SOL     OW 1135   0.887   0.131   2.725  0.0425  0.0300 -0.0135
  379SOL    HW1 1136   0.833   0.054   2.679  1.0977  1.1822 -2.6658
  379SOL    HW2 1137   0.855   0.220   2.697  1.9510 -1.0690  2.3285
  380SOL     OW 1138   1.506   1.189   0.530  0.1642 -0.4598  0.5587
  380SOL    HW1 1139   1.401   1.172   0.543 -4.6580 -0.8345  1.7217
  380SOL    HW2 1140   1.565   1.112   0.569  0.4363 -0.8680  1.0471
  381SOL     OW 1141   1.333   1.153   1.519  0.2019 -0.5844 -0.3333
  381SOL    HW1 1142   1.384   1.169   1.430 -1.2971 -2.2874 -1.2099
  381SOL    HW2 1143   1.396   1.138   1.601  3.4178 -0.9548 -0.8680
  382SOL     OW 1144   1.807   0.820   0.213  0.5064  0.4348 -0.2630
  382SOL    HW1 1145   1.807   0.774   0.121  0.5627  1.1830  0.8653
  382SOL    HW2 1146   1.890   0.814   0.270 -0.7085 -2.4909 -0.4121
  383SOL     OW 1147   2.601   0.985   1.493  1.0232  0.8527 -0.0919
  383SOL    HW1 1148   2.506   0.955   1.470 -1.4956  0.9728 -0.7333
  383SOL    HW2 1149   2.672   0.944   1.427  1.0533  0.1884  1.6573
  384SOL     OW 1150   0.916   2.260   0.107  0.0807  0.1019  0.3929
  384SOL    HW1 1151   0.876   2.352   0.140  0.0290 -1.8904  1.7864
  384SOL    HW2 1152   0.873   2.182   0.156 -0.2537  0.5032  2.1063
  385SOL     OW 1153   2.988   1.993   1.788  0.0582  0.6586 -0.6217
  385SOL    HW1 1154   3.050   2.069   1.747 -2.6863  2.8747 -2.0946
  385SOL    HW2 1155   2.997   1.893   1.757 -0.2496 -2.1981  0.8369
  386SOL     OW 1156   0.453   1.139   0.475  0.1599  0.4387  0.3201
  386SOL    HW1 1157   0.467   1.033   0.472  2.8337 -1.8287 -2.6852
  386SOL    HW2 1158   0.385   1.174   0.403  0.8894 -2.7819  1.5859
  387SOL     OW 1159   0.999   0.360   1.681 -0.2363  0.1269  0.5269
  387SOL    HW1 1160   1.063   0.440   1.677  2.5468 -1.1879 -1.7165
  387SOL    HW2 1161   0.995   0.309   1.586 -0.9091 -1.1380 -2.3672
  388SOL     OW 1162   1.227   2.629   1.792 -0.0285 -0.1046  0.1665
  388SOL    HW1 1163   1.218   2.603   1.696  1.3280 -0.9283  3.4360
  388SOL    HW2 1164   1.269   2.553   1.853 -0.2873 -1.0010 -2.3836
  389SOL     OW 1165   0.195   3.084   1.143 -0.4965 -0.2355 -0.0242
  389SOL    HW1 1166   0.127   3.100   1.218  3.2005 -0.7005 -0.4377
  389SOL    HW2 1167   0.218   2.985   1.130  2.2929 -0.1780  0.2614
  390SOL     OW 1168   1.054   0.926   1.221  0.0584 -0.0418 -0.1930
  390SOL    HW1 1169   1.142   0.887   1.257 -3.0711 -3.2940  1.3824
  390SOL    HW2 1170   0.984   0.941   1.298  0.6868  0.3320  0.9388
  391SOL     OW 1171   2.034   1.171   1.025 -0.5837  0.2352 -0.2226
  391SOL    HW1 1172   1.950   1.111   1.033  3.2972 -0.4573 -2.9681
  391SOL    HW2 1173   2.102   1.141   0.949  0.4566 -2.5818 -1.9655
  392SOL     OW 1174   0.944   2.648   3.039 -0.2313  0.0298 -0.2005
  392SOL    HW1 1175   0.841   2.657   3.066 -0.2277  0.5460  1.2913
  392SOL    HW2 1176   1.008   2.708   3.098  0.8393 -2.2194 -1.4917
  393SOL     OW 1177   0.398   0.492   2.099  0.3008  0.1498  0.1204
  393SOL    HW1 1178   0.304   0.452   2.093  1.8942 -1.0378 -1.1088
  393SOL    HW2 1179   0.452   0.462   2.019 -2.5194 -1.3900  0.3761
  394SOL     OW 1180   2.936   1.823   2.793  0.9948  0.1552 -0.2097
  394SOL    HW1 1181   3.019   1.846   2.851 -1.8555  0.9077  0.8304
  394SOL    HW2 1182   2.947   1.851   2.694  0.2195 -0.9043 -2.1316
  395SOL     OW 1183   1.579   1.906   0.697  0.0568 -0.2487 -0.5989
  395SOL    HW1 1184   1.628   1.857   0.620  1.0642 -1.0319 -1.0184
  395SOL    HW2 1185   1.636   1.950   0.773  1.6186  0.7004  1.2410
  396SOL     OW 1186   2.760   2.034   1.335  0.3017 -0.8531  0.2708
  396SOL    HW1 1187   2.768   2.034   1.440 -1.7455  0.6897 -0.3620
  396SOL    HW2 1188   2.661   2.048   1.307 -1.0342 -2.1198 -2.1195
  397SOL     OW 1189   1.019   2.110   0.631 -0.0954 -0.2880 -0.0574
  397SOL    HW1 1190   0.942   2.064   0.577  3.0913  0.7739 -0.4608
  397SOL    HW2 1191   0.994   2.183   0.699  0.1020 -0.6910  3.7606
  398SOL     OW 1192   2.228   0.070   1.031  0.7104 -0.0487 -0.2438
  398SOL    HW1 1193   2.225  -0.033   1.047  2.8366 -2.7437  0.1481
  398SOL    HW2 1194   2.135   0.118   1.051  0.0244 -3.6679 -0.7833
  399SOL     OW 1195   2.875   2.577   2.724 -0.5611  0.0259  0.0913
  399SOL    HW1 1196   2.851   2.525   2.632  0.9365  0.0035 -1.3370
  399SOL    HW2 1197   2.851   2.523   2.808 -1.9335  0.2423 -3.5627
  400SOL     OW 1198   0.793   1.597   1.268 -0.3729  0.0444 -0.1015
  400SOL    HW1 1199   0.745   1.627   1.355 -0.3364  1.6665 -1.7565
  400SOL    HW2 1200   0.790   1.667   1.192 -0.5758  2.1650  0.0679
  401SOL     OW 1201   1.817   0.145   1.277  0.6020  0.1630  0.2030
  401SOL    HW1 1202   1.871   0.203   1.349 -0.4785  2.9110  1.5098
  401SOL    HW2 1203   1.718   0.166   1.284  1.5254  1.8044  0.8720
  402SOL     OW 1204   1.341   0.165   3.064  0.0593  0.5440 -0.0358
  402SOL    HW1 1205   1.427   0.137   3.008  1.5143 -0.5608  1.8966
  402SOL    HW2 1206   1.352   0.254   3.116 -1.2248 -3.4265  0.5205
  403SOL     OW 1207   2.306   1.842   0.923 -0.0773 -0.1206 -0.2942
  403SOL    HW1 1208   2.405   1.862   0.938 -1.5428 -0.0647 -1.4298
  403SOL    HW2 1209   2.248   1.926   0.946 -0.2723  2.6458 -0.2162
  404SOL     OW 1210   0.172   2.499   2.853 -0.1084  0.2178  0.0295
  404SOL    HW1 1211   0.263   2.459   2.833 -0.0930 -2.2805 -1.0986
  404SOL    HW2 1212   0.172   2.603   2.864 -0.4082  1.7437 -0.9711
  405SOL     OW 1213   0.244   2.524   0.550  0.2179 -0.3957  0.2043
  405SOL    HW1 1214   0.178   2.508   0.473 -1.0425 -1.1961  0.8168
  405SOL    HW2 1215   0.291   2.615   0.561 -0.4840 -0.6228  1.6445
  406SOL     OW 1216   0.013   1.514   3.007 -0.0325 -0.3603  0.5334
  406SOL    HW1 1217   0.101   1.476   2.976 -1.6150  0.4872 -1.1020
  406SOL    HW2 1218  -0.010   1.500   3.109  1.2290  0.2402 -2.4715
  407SOL     OW 1219   1.525   0.921   0.907  0.1355  0.1559 -0.2840
  407SOL    HW1 1220   1.495   0.926   0.811  2.7835 -0.1367 -1.0445
  407SOL    HW2 1221   1.521   1.009   0.966 -0.7630  1.5553  1.1421
  408SOL     OW 1222   1.571   2.411   0.977  0.5701  0.0976  0.1670
  408SOL    HW1 1223   1.649   2.393   0.906 -2.4194 -1.2246  1.3263
  408SOL    HW2 1224   1.592   2.483   1.046  0.0046  0.6075  2.2302
  409SOL     OW 1225   0.599   0.849   0.733 -0.9278 -0.0878  0.6442
  409SOL    HW1 1226   0.536   0.883   0.656 -1.0441 -1.3864  3.0040
  409SOL    HW2 1227   0.629   0.749   0.718 -0.2368 -1.7863  0.2420
  410SOL     OW 1228   1.264   1.992   1.444 -0.6659  0.0818  0.4610
  410SOL    HW1 1229   1.287   2.028   1.537  1.3984  0.5320  2.6854
  410SOL    HW2 1230   1.175   1.951   1.430  3.7006  0.6774 -3.6384
  411SOL     OW 1231   2.413   1.786   3.085  0.6222 -0.1790 -0.5922
  411SOL    HW1 1232   2.342   1.812   3.015 -0.2213 -0.1449 -2.8999
  411SOL    HW2 1233   2.505   1.774   3.040  0.4200 -2.5415 -2.3634
  412SOL     OW 1234   1.495   2.473   2.224 -0.6406  0.1860 -0.3598
  412SOL    HW1 1235   1.538   2.534   2.294 -1.0163 -2.8746  3.0747
  412SOL    HW2 1236   1.439   2.401   2.275 -4.6358 -1.2904 -0.1709
  413SOL     OW 1237   3.070   0.276   2.971  0.1078  0.0925 -0.2960
  413SOL    HW1 1238   3.014   0.212   3.025  1.6533  0.4559  1.1069
  413SOL    HW2 1239   3.166   0.279   3.014 -0.9900 -2.0058 -0.2432
  414SOL     OW 1240   1.766   1.400   1.390  0.6001  0.6468  0.1431
  414SOL    HW1 1241   1.697   1.468   1.430  0.0593  3.0349  0.1764
  414SOL    HW2 1242   1.748   1.382   1.290  1.6373 -0.4793  0.5655
  415SOL     OW 1243   0.370   2.274   0.609  0.4649  0.0375 -0.0842
  415SOL    HW1 1244   0.334   2.370   0.625 -0.1620  0.7605  0.5930
  415SOL    HW2 1245   0.297   2.209   0.631 -0.6731  0.4833  1.7276
  416SOL     OW 1246   0.388   1.067   1.037 -0.2136 -0.0642  0.1123
  416SOL    HW1 1247   0.364   1.000   0.961  0.6653 -0.2930 -3.7383
  416SOL    HW2 1248   0.489   1.085   1.038 -1.1761 -0.4617 -2.1029
  417SOL     OW 1249   2.119   2.361   1.896 -0.0126 -0.2457 -0.4984
  417SOL    HW1 1250   2.163   2.270   1.929  0.7711  0.0602  2.8264
  417SOL    HW2 1251   2.034   2.390   1.953 -0.9676  1.2794  3.0786
  418SOL     OW 1252   1.113   0.513   1.298 -0.1144 -0.4319 -0.5054
  418SOL    HW1 1253   1.006   0.511   1.277 -2.1296  2.1440 -1.1031
  418SOL    HW2 1254   1.163   0.451   1.235  1.7736 -0.6115 -0.0262
  419SOL     OW 1255   1.034   0.374   3.062  0.4526 -0.3657 -0.1946
  419SOL    HW1 1256   1.047   0.425   2.973  3.8312 -1.7881  0.7702
  419SOL    HW2 1257   0.963   0.303   3.040  1.2052  1.7027 -2.0214
  420SOL     OW 1258   0.218   2.253   0.328 -0.4354 -0.0937  0.4230
  420SOL    HW1 1259   0.179   2.222   0.237 -0.5375  1.5401 -0.5672
  420SOL    HW2 1260   0.146   2.288   0.390 -0.9842  0.5783 -3.2578
  421SOL     OW 1261   0.337   3.086   0.695 -0.8703  0.0363  0.4328
  421SOL    HW1 1262   0.294   2.992   0.672  0.1506  1.1113 -1.1268
  421SOL    HW2 1263   0.432   3.088   0.744  0.6557  0.9282  0.6723
  422SOL     OW 1264   0.960   2.517   1.036  0.7597  0.1119  0.1234
  422SOL    HW1 1265   1.014   2.562   0.959 -0.7481 -2.2819  0.3865
  422SOL    HW2 1266   0.996   2.545   1.128 -3.9385  0.2100  0.4551
  423SOL     OW 1267   0.045   0.654   1.202  0.0223 -0.3779  0.2156
  423SOL    HW1 1268  -0.004   0.615   1.286  1.5573 -2.4319 -2.1045
  423SOL    HW2 1269   0.006   0.742   1.168 -0.9283  1.3466 -1.2517
  424SOL     OW 1270   0.975   2.204   2.062 -0.0277  0.4280  0.0258
  424SOL    HW1 1271   1.010   2.300   2.047 -1.8106  1.8599 -0.5764
  424SOL    HW2 1272   0.943   2.185   2.161  0.6764 -0.4612  1.9000
  425SOL     OW 1273   1.977   1.433   1.016 -0.3560  0.4094 -0.4918
  425SOL    HW1 1274   1.996   1.330   1.015  1.4387 -1.0310  1.1836
  425SOL    HW2 1275   2.047   1.502   0.974  0.7972  0.2494 -0.4595
  426SOL     OW 1276   1.508   1.566   1.446 -0.0520  0.0434 -0.2537
  426SOL    HW1 1277   1.475   1.647   1.385 -0.4274  3.4642 -0.2238
  426SOL    HW2 1278   1.475   1.582   1.543 -1.2963 -3.3684  0.6360
  427SOL     OW 1279   1.900   2.405   2.097  0.9083  0.1601 -0.1326
  427SOL    HW1 1280   1.984   2.380   2.146 -1.1293  0.9443  0.5364
  427SOL    HW2 1281   1.876   2.502   2.105  1.8203 -0.3857 -0.6367
  428SOL     OW 1282   0.868   2.965   0.147 -0.1865 -0.8141 -0.1756
  428SOL    HW1 1283   0.923   3.049   0.170 -0.7118  1.4402 -0.0660
  428SOL    HW2 1284   0.937   2.885   0.126  2.7340 -2.9296  0.1305
  429SOL     OW 1285   1.281   0.088   0.221  0.1008 -0.4684  0.3842
  429SOL    HW1 1286   1.371   0.100   0.275 -0.7176 -1.9603  0.2528
  429SOL    HW2 1287   1.293   0.120   0.124  2.7972 -0.2908  0.2591
  430SOL     OW 1288   2.826   1.533   0.333 -0.7068  0.1155 -0.2869
  430SOL    HW1 1289   2.789   1.587   0.252 -0.9511  0.2790  1.5399
  430SOL    HW2 1290   2.830   1.590   0.418  1.0542 -0.2471  0.6699
  431SOL     OW 1291   2.131   1.631   0.883 -0.0723  0.0814  0.2199
  431SOL    HW1 1292   2.207   1.702   0.901 -2.4723  2.7863  2.8268
  431SOL    HW2 1293   2.042   1.671   0.845  0.3236 -0.4681 -1.4947
  432SOL     OW 1294   2.919   2.223   1.238 -0.0620  0.0546  0.0825
  432SOL    HW1 1295   2.859   2.133   1.258 -2.6647  2.7583 -1.5039
  432SOL    HW2 1296   2.962   2.262   1.327  0.6177  1.1515 -2.2606
  433SOL     OW 1297   1.877   0.347   0.796  0.0356  0.1043 -0.2249
  433SOL    HW1 1298   1.812   0.338   0.880 -0.0238  0.7014  1.1892
  433SOL    HW2 1299   1.955   0.279   0.790  1.8122  1.5934  0.3746
  434SOL     OW 1300   1.547   0.307   0.736  0.1345 -0.6523  0.6311
  434SOL    HW1 1301   1.561   0.409   0.704 -1.0519  2.6393 -1.6735
  434SOL    HW2 1302   1.555   0.298   0.836  0.1747  1.1926 -1.5820
  435SOL     OW 1303   1.450   1.383   2.149 -0.0165 -0.5058  0.3414
  435SOL    HW1 1304   1.404   1.410   2.236  0.3035 -1.2918  0.6029
  435SOL    HW2 1305   1.433   1.456   2.075 -0.1925  1.9512 -0.8510
  436SOL     OW 1306   1.606   2.634   2.411  0.1165  1.0714  0.1272
  436SOL    HW1 1307   1.653   2.725   2.426 -0.8227  1.5713  0.8104
  436SOL    HW2 1308   1.554   2.603   2.490  3.5196 -2.2416 -0.7706
  437SOL     OW 1309   1.077   2.913   0.897 -0.3379  0.4105 -0.2228
  437SOL    HW1 1310   1.028   3.003   0.887 -0.9005  0.3001 -0.4031
  437SOL    HW2 1311   1.079   2.884   0.997  3.8961 -1.7371 -2.8840
  438SOL     OW 1312   1.054   2.594   1.277 -0.4992 -0.1561  0.2207
  438SOL    HW1 1313   1.075   2.676   1.327 -2.5738 -1.4484  1.0107
  438SOL    HW2 1314   1.046   2.511   1.335 -1.6202  3.0549 -0.1911
  439SOL     OW 1315   0.741   1.779   1.037  0.4019  0.2514  0.5300
  439SOL    HW1 1316   0.751   1.867   0.982  1.8166  0.5200  3.0055
  439SOL    HW2 1317   0.637   1.766   1.060  0.6374  2.6679 -0.6819
  440SOL     OW 1318   1.043   2.467   2.004  0.0123  0.1426 -1.1189
  440SOL    HW1 1319   1.003   2.510   1.919 -3.4407 -0.0771  0.4054
  440SOL    HW2 1320   1.124   2.521   2.041  0.6697  2.3645 -1.8698
  441SOL     OW 1321   0.401   2.775   1.376  0.4486  0.1553 -1.0494
  441SOL    HW1 1322   0.450   2.686   1.381 -2.8331  0.8559  4.5755
  441SOL    HW2 1323   0.398   2.820   1.279 -2.2962 -1.8239 -2.4732
  442SOL     OW 1324   2.241   0.683   2.600 -0.0651 -0.1352 -0.0731
  442SOL    HW1 1325   2.249   0.602   2.537  0.0450 -1.5679 -0.1393
  442SOL    HW2 1326   2.142   0.710   2.606  1.4544 -0.3705  0.8118
  443SOL     OW 1327   1.239   2.664   2.197 -0.2909 -0.0883  0.0427
  443SOL    HW1 1328   1.221   2.560   2.190  0.8835 -1.6403  0.5019
  443SOL    HW2 1329   1.190   2.704   2.275  0.4789 -0.4406  0.7851
  444SOL     OW 1330   1.042   1.228   1.505  0.2198  0.2344  0.1171
  444SOL    HW1 1331   1.150   1.219   1.496  0.5618 -2.2452 -0.0747
  444SOL    HW2 1332   1.015   1.283   1.588  0.9045  0.7774 -3.0214
  445SOL     OW 1333   3.097   2.392   1.926 -0.7098  0.5590 -0.9040
  445SOL    HW1 1334   3.059   2.371   1.831 -3.3763  0.4411  1.8996
  445SOL    HW2 1335   3.041   2.346   2.000 -0.6835 -1.2159  0.0737
  446SOL     OW 1336   0.187   1.936   2.372  0.2755 -0.5526  0.0275
  446SOL    HW1 1337   0.137   2.034   2.379 -1.5666  0.7801  2.6301
  446SOL    HW2 1338   0.159   1.881   2.287 -1.4865  2.0143  2.8907
  447SOL     OW 1339   1.229   1.666   1.917  0.3691 -0.2774  0.0305
  447SOL    HW1 1340   1.144   1.704   1.966 -1.0057  0.9185 -0.1834
  447SOL    HW2 1341   1.321   1.709   1.945  1.8500 -0.4000 -1.0111
  448SOL     OW 1342   0.147   1.415   2.018 -0.3840 -0.7126  0.1622
  448SOL    HW1 1343   0.130   1.512   1.975  0.4646 -1.1917 -0.6968
  448SOL    HW2 1344   0.112   1.412   2.116  1.0023 -0.8360  1.2864
  449SOL     OW 1345   1.796   2.983   0.859 -0.9576 -0.0472  0.2821
  449SOL    HW1 1346   1.795   2.982   0.966 -0.3635 -0.8177  0.8585
  449SOL    HW2 1347   1.836   2.900   0.818 -0.9441  2.3688  0.8402
  450SOL     OW 1348   2.284   1.464   0.736  0.3789 -0.4214  0.3812
  450SOL    HW1 1349   2.232   1.522   0.807  1.0765 -2.8416  0.1524
  450SOL    HW2 1350   2.273   1.506   0.639  2.7568  0.0964 -2.6376
  451SOL     OW 1351   1.399   3.055   1.485  0.4631 -0.0867 -0.3747
  451SOL    HW1 1352   1.334   3.128   1.509 -0.3400  1.5451  2.3198
  451SOL    HW2 1353   1.421   2.996   1.573 -1.2789  1.5601  0.6123
  452SOL     OW 1354   2.664   2.284   2.252  0.0019  0.4532 -0.7990
  452SOL    HW1 1355   2.651   2.384   2.267  1.4687 -0.6218  0.4461
  452SOL    HW2 1356   2.696   2.229   2.338  1.5046 -0.1792 -0.4134
  453SOL     OW 1357   2.445   2.650   3.105  0.0909 -0.5883 -0.4674
  453SOL    HW1 1358   2.349   2.688   3.101  0.8402  4.3152 -2.6362
  453SOL    HW2 1359   2.460   2.588   3.020  2.2055  1.4009  0.8013
  454SOL     OW 1360   0.969   1.115   2.052 -0.2686 -0.5610  0.3325
  454SOL    HW1 1361   0.933   1.117   1.953  1.0688  2.5927 -0.3779
  454SOL    HW2 1362   1.060   1.165   2.067  0.1961  0.1579  2.0093
  455SOL     OW 1363   0.667   2.688   2.783  0.0518  0.0463 -0.2168
  455SOL    HW1 1364   0.760   2.740   2.785 -1.0063 -1.7629 -1.5122
  455SOL    HW2 1365   0.660   2.605   2.843 -3.4534  2.8664 -3.0895
  456SOL     OW 1366   0.377   1.892   0.223  0.7748  0.5366 -0.2701
  456SOL    HW1 1367   0.472   1.855   0.249  1.9812 -0.8119 -0.1754
  456SOL    HW2 1368   0.394   1.985   0.178  4.3892  3.1690  1.6657
  457SOL     OW 1369   0.401   2.767   0.592  0.3447 -0.7624 -0.1176
  457SOL    HW1 1370   0.416   2.816   0.503  0.1063  0.0222  1.9855
  457SOL    HW2 1371   0.483   2.721   0.624 -2.8386  0.8208 -0.3565
  458SOL     OW 1372   2.811   0.030   1.163 -0.0034 -0.3218 -0.6345
  458SOL    HW1 1373   2.898   0.086   1.160  0.0951 -0.6885 -1.8854
  458SOL    HW2 1374   2.820  -0.057   1.101 -3.2837 -0.8776 -0.4958
  459SOL     OW 1375   2.186   2.559   0.813 -0.5173  0.8095 -0.3976
  459SOL    HW1 1376   2.240   2.645   0.846  2.1859  1.6065 -1.1077
  459SOL    HW2 1377   2.231   2.513   0.727 -0.9241 -1.7540 -0.5768
  460SOL     OW 1378   1.195   2.090   2.780 -0.1956  0.5681  0.2480
  460SOL    HW1 1379   1.222   2.106   2.679 -2.3126  1.5985 -2.9245
  460SOL    HW2 1380   1.194   1.989   2.812 -0.9679 -0.4514 -0.8607
  461SOL     OW 1381   0.501   2.140   2.698 -0.0583  0.7588 -0.1909
  461SOL    HW1 1382   0.450   2.060   2.659  1.0180  0.1735  0.9229
  461SOL    HW2 1383   0.565   2.121   2.778  2.3809  0.3102  0.0462
  462SOL     OW 1384   1.007   1.084   1.746  0.2411  0.0395  0.7979
  462SOL    HW1 1385   1.030   1.023   1.665 -0.6629  0.9006  0.6710
  462SOL    HW2 1386   0.922   1.142   1.734  1.1584  0.6735 -1.0398
  463SOL     OW 1387   0.472   0.867   0.495 -0.3532 -0.2627 -0.1010
  463SOL    HW1 1388   0.504   0.772   0.465 -2.4357  2.0204  1.0929
  463SOL    HW2 1389   0.365   0.874   0.489 -1.1919  0.8533 -2.2050
  464SOL     OW 1390   0.581   2.324   2.210 -0.6411 -0.3918  0.1125
  464SOL    HW1 1391   0.562   2.410   2.268  1.9900  1.8842  0.4991
  464SOL    HW2 1392   0.538   2.329   2.111 -4.6026 -0.2092 -0.8017
  465SOL     OW 1393   0.275   0.919   0.833 -0.4914  0.0813 -0.3261
  465SOL    HW1 1394   0.181   0.960   0.805 -1.4288 -0.2909 -1.5907
  465SOL    HW2 1395   0.281   0.812   0.816 -0.4662  0.4215 -0.1324
  466SOL     OW 1396   1.413   1.149   1.057  0.1923 -0.2266  0.0726
  466SOL    HW1 1397   1.448   1.248   1.059 -2.1012  1.1649  0.0372
  466SOL    HW2 1398   1.309   1.143   1.043  1.3138  0.2900 -2.9721
  467SOL     OW 1399   0.613   0.413   2.462  0.0798  0.0775 -0.0213
  467SOL    HW1 1400   0.548   0.492   2.442  0.2810 -1.8601 -1.4432
  467SOL    HW2 1401   0.591   0.368   2.558  0.1219  1.1634 -0.6056
  468SOL     OW 1402   0.413   2.262   1.612  0.5358 -0.1286  0.2120
  468SOL    HW1 1403   0.504   2.311   1.640  2.3829 -0.9622  3.3999
  468SOL    HW2 1404   0.409   2.260   1.507  3.5056 -0.1068 -0.4861
  469SOL     OW 1405   1.475   1.313   1.313 -0.3713  0.6969 -0.3542
  469SOL    HW1 1406   1.568   1.327   1.260  3.5018 -0.5924 -2.9809
  469SOL    HW2 1407   1.470   1.386   1.386  1.5198 -0.4536 -0.4455
  470SOL     OW 1408   3.013   1.866   0.719  0.1187  0.3112  0.0852
  470SOL    HW1 1409   3.092   1.932   0.701  0.0439 -0.4959  0.8330
  470SOL    HW2 1410   3.042   1.783   0.765 -3.5911  3.2459  0.2419
  471SOL     OW 1411   2.586   1.344   2.155 -0.1424 -0.5619  0.4220
  471SOL    HW1 1412   2.538   1.289   2.231  0.5635 -1.7178 -0.7240
  471SOL    HW2 1413   2.655   1.413   2.191 -0.0415  2.4377  0.8778
  472SOL     OW 1414   1.166   2.379   0.038  0.1307  0.2415 -0.4331
  472SOL    HW1 1415   1.232   2.353   0.116  0.6911 -0.1777  1.7504
  472SOL    HW2 1416   1.068   2.361   0.066 -0.1307 -3.1968 -3.0358
  473SOL     OW 1417   1.053   1.466   1.045 -0.4809 -0.1683  0.2790
  473SOL    HW1 1418   0.959   1.478   0.994 -2.1344 -1.6657 -0.9583
  473SOL    HW2 1419   1.042   1.425   1.137 -0.4039  0.1999 -0.6573
  474SOL     OW 1420   0.651   1.281   0.598 -0.2414 -0.0932  0.1773
  474SOL    HW1 1421   0.579   1.206   0.572  0.7725 -4.4445  0.3659
  474SOL    HW2 1422   0.747   1.247   0.582 -0.1241  0.7996  0.2714
  475SOL     OW 1423   2.836   0.028   0.831  0.2806  0.5281  0.3991
  475SOL    HW1 1424   2.912   0.102   0.845  2.1074  0.9764  2.6833
  475SOL    HW2 1425   2.740   0.050   0.868 -1.6521  0.1097  0.0343
  476SOL     OW 1426   1.028   2.972   1.756 -0.5646 -0.2474 -0.0950
  476SOL    HW1 1427   1.121   3.018   1.753 -1.4322  2.0278  1.2459
  476SOL    HW2 1428   0.977   2.974   1.661 -0.3102  0.7405 -0.1945
  477SOL     OW 1429   1.462   0.322   2.434  0.5121 -0.0031 -0.0664
  477SOL    HW1 1430   1.421   0.350   2.528 -2.3705  0.1685  0.2868
  477SOL    HW2 1431   1.544   0.259   2.442  1.1977  1.6951  0.1654
  478SOL     OW 1432   2.222   1.845   0.208 -0.3591 -0.0440  0.0370
  478SOL    HW1 1433   2.167   1.773   0.250  3.1587 -2.8694 -0.8607
  478SOL    HW2 1434   2.307   1.805   0.158 -0.0977  0.6546  0.6514
  479SOL     OW 1435   1.253   0.947   2.877 -0.2004  0.1336  0.0204
  479SOL    HW1 1436   1.324   0.960   2.804 -0.4104 -1.1288  0.8333
  479SOL    HW2 1437   1.198   0.862   2.861  0.2272  0.1079  1.2007
  480SOL     OW 1438   2.631   2.343   0.395  0.0203  0.1403 -0.1409
  480SOL    HW1 1439   2.560   2.304   0.459  0.6099  2.1381  0.1371
  480SOL    HW2 1440   2.593   2.371   0.305  0.6669  0.4972  0.6540
  481SOL     OW 1441   0.936   1.159   0.840 -0.4374  0.2570  0.3154
  481SOL    HW1 1442   0.943   1.247   0.789 -1.6356 -0.1671  1.0439
  481SOL    HW2 1443   0.992   1.165   0.929 -0.0445 -0.2738  2.4952
  482SOL     OW 1444   1.555   0.317   1.986 -0.2570  0.2432 -0.0552
  482SOL    HW1 1445   1.570   0.412   1.954  0.5065 -2.2330 -0.4418
  482SOL    HW2 1446   1.649   0.270   2.010  1.3249 -4.1643  0.4510
  483SOL     OW 1447   0.136   2.289   1.213  0.3875 -0.4182 -0.3568
  483SOL    HW1 1448   0.124   2.352   1.296  1.1898 -1.8244 -1.1214
  483SOL    HW2 1449   0.169   2.333   1.121 -1.8966 -0.2599 -0.8571
  484SOL     OW 1450   1.771   1.125   1.350  0.0598  0.1825  0.3670
  484SOL    HW1 1451   1.808   1.043   1.408 -1.2293 -1.4027  0.2532
  484SOL    HW2 1452   1.767   1.216   1.397 -0.3474  0.2306  1.0377
  485SOL     OW 1453   0.758   0.804   1.769 -0.2660  0.6276 -0.1952
  485SOL    HW1 1454   0.753   0.853   1.675  0.7719  2.3515  0.2176
  485SOL    HW2 1455   0.853   0.764   1.787 -1.9344  1.6472 -0.9121
  486SOL     OW 1456   0.832   1.868   2.467 -0.5986 -0.4407  0.2979
  486SOL    HW1 1457   0.896   1.855   2.555  3.5863 -3.0942  0.7263
  486SOL    HW2 1458   0.782   1.957   2.461 -0.1474 -0.9830  2.4888
  487SOL     OW 1459   1.768   1.597   0.935  0.0321  0.4412 -0.1561
  487SOL    HW1 1460   1.829   1.517   0.959  2.0426 -0.6303  1.5306
  487SOL    HW2 1461   1.818   1.671   0.880 -1.2003  1.2943  2.7236
  488SOL     OW 1462   2.945   0.893   2.303  0.1756 -0.1778 -0.1362
  488SOL    HW1 1463   2.952   0.791   2.280 -0.6747  0.6404  0.9812
  488SOL    HW2 1464   2.978   0.912   2.401 -1.7214  0.8474  0.4412
  489SOL     OW 1465   2.835   0.367   1.273  0.6942 -0.2875 -0.3670
  489SOL    HW1 1466   2.812   0.318   1.362 -0.8482 -0.6947 -0.3071
  489SOL    HW2 1467   2.921   0.331   1.225  2.0367 -0.9276  0.6961
  490SOL     OW 1468   1.410   2.946   2.821 -0.0657  0.3613  0.1682
  490SOL    HW1 1469   1.451   2.852   2.837  2.9828  0.0620  0.7579
  490SOL    HW2 1470   1.378   2.969   2.726  0.6573  2.1570  0.6698
  491SOL     OW 1471   1.704   1.528   2.644 -0.0767 -0.0455 -0.3468
  491SOL    HW1 1472   1.613   1.547   2.685 -2.5203  0.9155  1.8217
  491SOL    HW2 1473   1.784   1.546   2.709  2.6500 -1.8261  1.7710
  492SOL     OW 1474   0.580   2.080   0.590 -0.6285  0.5735 -0.5055
  492SOL    HW1 1475   0.608   2.044   0.684 -0.3642 -0.2470  1.8889
  492SOL    HW2 1476   0.512   2.160   0.599  1.7134 -1.3310 -0.1670
  493SOL     OW 1477   0.450   1.396   2.085 -0.2009  0.3383 -0.1043
  493SOL    HW1 1478   0.371   1.458   2.100 -2.2028 -0.3718 -0.8479
  493SOL    HW2 1479   0.424   1.294   2.104 -0.8840  0.0428  1.3795
  494SOL     OW 1480   2.720   2.602   0.106 -0.0145  0.9027  0.1246
  494SOL    HW1 1481   2.727   2.585   0.211 -2.6858  0.1150  0.5085
  494SOL    HW2 1482   2.629   2.643   0.075  1.5462  0.5485 -0.5146
  495SOL     OW 1483   2.557   2.740   2.626  0.1862 -0.1250  0.5895
  495SOL    HW1 1484   2.557   2.638   2.617  1.0573  0.5679  2.0388
  495SOL    HW2 1485   2.632   2.774   2.571 -0.0992  0.0263 -0.2492
  496SOL     OW 1486   2.035   2.275   0.785  0.4194 -0.1036 -0.5453
  496SOL    HW1 1487   2.055   2.330   0.869  0.3211 -1.7529 -2.4117
  496SOL    HW2 1488   2.032   2.170   0.797 -0.4721 -1.6767 -0.8554
  497SOL     OW 1489   0.188   2.996   2.369  0.5261 -0.3652  0.3455
  497SOL    HW1 1490   0.155   3.057   2.446  1.7003 -1.5593 -0.8842
  497SOL    HW2 1491   0.220   3.046   2.285  2.0367  0.4402  0.0026
  498SOL     OW 1492   1.200   1.318   1.265  0.1935  0.1252 -0.0505
  498SOL    HW1 1493   1.300   1.314   1.262 -1.1924  1.8000 -0.8504
  498SOL    HW2 1494   1.175   1.395   1.327  1.2446  0.3969 -0.5939
  499SOL     OW 1495   0.632   1.812   0.275 -0.4551 -0.6872  0.5009
  499SOL    HW1 1496   0.682   1.728   0.234 -2.5619  3.3328  0.6471
  499SOL    HW2 1497   0.690   1.858   0.349  0.2657  0.8333 -0.4203
  500SOL     OW 1498   1.392   2.878   1.687  0.3040  0.1767 -0.1244
  500SOL    HW1 1499   1.317   2.816   1.725 -3.3725 -3.0292 -1.3243
  500SOL    HW2 1500   1.454   2.809   1.635 -2.3807 -0.6856 -3.1993
  501SOL     OW 1501   0.785   1.155   2.311  0.5244 -0.5076  0.1606
  501SOL    HW1 1502   0.689   1.117   2.313 -3.3690  0.9448 -0.8748
  501SOL    HW2 1503   0.826   1.145   2.209 -0.5452  1.9401 -0.7975
  502SOL     OW 1504   2.549   0.947   1.771  0.2496 -0.2540 -0.3589
  502SOL    HW1 1505   2.561   0.963   1.670 -1.3890 -0.9556 -0.6919
  502SOL    HW2 1506   2.575   0.854   1.805  0.3219  0.9950  0.0972
  503SOL     OW 1507   1.306   0.173   0.590  0.6224  0.1482  0.1159
  503SOL    HW1 1508   1.246   0.251   0.621  0.5244 -2.8051 -0.4235
  503SOL    HW2 1509   1.403   0.185   0.619 -1.4939 -0.7898  0.2275
  504SOL     OW 1510   3.005   2.340   1.492 -0.1831  0.1027  0.4086
  504SOL    HW1 1511   2.974   2.431   1.532 -1.7276  1.0288  0.6420
  504SOL    HW2 1512   3.003   2.261   1.560 -0.6684  2.4193  0.7782
  505SOL     OW 1513   2.272   1.178   1.419 -0.1705 -0.3513  0.3418
  505SOL    HW1 1514   2.239   1.208   1.324 -0.8436  0.7923  0.8295
  505SOL    HW2 1515   2.348   1.230   1.460 -2.2896 -0.0354 -1.9129
  506SOL     OW 1516   1.931   0.207   1.817 -0.0263  0.0853 -0.0777
  506SOL    HW1 1517   1.992   0.128   1.833  1.9220  0.8907  0.7658
  506SOL    HW2 1518   1.952   0.288   1.876  2.3824 -1.8230  0.2800
  507SOL     OW 1519   0.593   0.699   2.153  0.6237  0.0988 -0.0537
  507SOL    HW1 1520   0.527   0.627   2.112 -0.4681 -2.4269 -3.9559
  507SOL    HW2 1521   0.680   0.659   2.183 -0.0108  1.0613  0.6886
  508SOL     OW 1522   0.306   1.632   0.757 -0.0561  0.2929 -0.3346
  508SOL    HW1 1523   0.352   1.681   0.680 -1.3736 -1.5468  1.5124
  508SOL    HW2 1524   0.289   1.690   0.843  0.1245 -0.1543 -2.5840
  509SOL     OW 1525   1.284   1.186   2.436 -0.2817 -0.4980 -0.3005
  509SOL    HW1 1526   1.310   1.157   2.336  0.1971  1.4905  1.4329
  509SOL    HW2 1527   1.190   1.155   2.457 -1.1361  0.8359  0.6076
  510SOL     OW 1528   1.270   2.118   2.222  0.1384  0.1738 -0.3654
  510SOL    HW1 1529   1.289   2.148   2.122 -0.2790 -1.0592 -2.7014
  510SOL    HW2 1530   1.192   2.055   2.236 -3.0813 -0.6105 -0.6086
  511SOL     OW 1531   2.999   2.698   1.259  0.0323 -0.1473  0.5723
  511SOL    HW1 1532   2.965   2.684   1.165 -0.8941  1.6960 -1.5594
  511SOL    HW2 1533   2.922   2.721   1.319  0.3762  1.7776 -3.8101
  512SOL     OW 1534   2.423   0.437   1.376  0.4492 -0.2017 -0.1414
  512SOL    HW1 1535   2.326   0.455   1.346  0.4659 -0.0958 -0.3450
  512SOL    HW2 1536   2.471   0.399   1.298 -1.1722 -0.5560  0.3827
  513SOL     OW 1537   2.611   2.134   0.934  0.6559 -0.6370 -0.2937
  513SOL    HW1 1538   2.583   2.209   0.865 -0.1904  0.9467  0.4524
  513SOL    HW2 1539   2.695   2.082   0.899  3.4675 -1.5959 -2.0746
  514SOL     OW 1540   0.680   2.760   0.423 -0.0685 -0.1626  0.5228
  514SOL    HW1 1541   0.605   2.775   0.352  1.1083 -1.0398 -4.1010
  514SOL    HW2 1542   0.708   2.844   0.480 -2.2867  0.5084  0.5296
  515SOL     OW 1543   1.900   1.343   2.396  0.0601 -0.4280  0.6039
  515SOL    HW1 1544   1.930   1.266   2.333 -0.7970 -0.4530 -0.6576
  515SOL    HW2 1545   1.807   1.328   2.438 -1.9011  2.8559 -0.5749
  516SOL     OW 1546   0.291   0.307   1.885 -0.1634 -0.2677 -0.2055
  516SOL    HW1 1547   0.386   0.293   1.842  1.9169 -0.8036 -1.5941
  516SOL    HW2 1548   0.219   0.245   1.845  1.5411  1.2204  2.7442
  517SOL     OW 1549   0.491   0.117   1.130  0.1071  0.3436  0.2381
  517SOL    HW1 1550   0.518   0.164   1.212 -2.4639 -1.8673 -0.5936
  517SOL    HW2 1551   0.410   0.060   1.151  2.4063  0.0164  0.9010
  518SOL     OW 1552   2.142   3.097   1.803  0.2921  0.3461  0.8009
  518SOL    HW1 1553   2.200   3.184   1.808  0.1616 -2.5389 -3.3753
  518SOL    HW2 1554   2.159   3.060   1.707  1.5698 -0.4094  0.1986
  519SOL     OW 1555   2.300   2.104   2.471 -0.0400  0.5365 -0.1075
  519SOL    HW1 1556   2.253   2.076   2.556  0.3929  0.5942 -1.2893
  519SOL    HW2 1557   2.307   2.203   2.449  1.2304 -2.8190 -1.4330
  520SOL     OW 1558   1.835   2.703   1.748  0.1935 -0.2943  0.0583
  520SOL    HW1 1559   1.750   2.649   1.765 -3.0213 -3.3397 -0.6677
  520SOL    HW2 1560   1.912   2.640   1.709  0.5259 -0.1971 -2.1212
  521SOL     OW 1561   0.554   3.091   2.068  0.0171 -0.3779 -0.0656
  521SOL    HW1 1562   0.456   3.103   2.097  0.5302 -2.1786  1.9623
  521SOL    HW2 1563   0.620   3.055   2.143  1.3885 -1.0345 -2.6880
  522SOL     OW 1564   0.184   1.842   1.548 -0.4340  0.1908  0.3386
  522SOL    HW1 1565   0.216   1.913   1.615  1.6341 -0.4013  1.0728
  522SOL    HW2 1566   0.151   1.892   1.461 -0.1448  0.3224 -2.3057
  523SOL     OW 1567   2.178   2.941   1.579 -0.3109  0.5620  0.2946
  523SOL    HW1 1568   2.250   2.865   1.595 -0.1449 -1.8286 -1.9408
  523SOL    HW2 1569   2.118   2.923   1.498  1.0317 -0.5730  1.1021
  524SOL     OW 1570   0.188   2.779   2.856 -0.1648 -0.2080 -0.1908
  524SOL    HW1 1571   0.125   2.854   2.879  0.9671 -0.9485 -1.4433
  524SOL    HW2 1572   0.286   2.812   2.830  2.1873 -0.7532 -0.6396
  525SOL     OW 1573   2.199   2.027   0.432  0.2778  0.1295 -0.8572
  525SOL    HW1 1574   2.193   1.988   0.533  0.1301 -0.5081  1.2684
  525SOL    HW2 1575   2.249   1.970   0.366 -1.3576 -0.2967 -1.8984
  526SOL     OW 1576   0.449   1.520   1.785 -0.0447 -0.3191 -1.3631
  526SOL    HW1 1577   0.501   1.578   1.857 -1.0253 -1.6963  0.9528
  526SOL    HW2 1578   0.452   1.423   1.819  2.5928 -0.0624  2.0325
  527SOL     OW 1579   1.101   2.880   1.186  0.2481  0.3717 -0.6341
  527SOL    HW1 1580   1.179   2.813   1.210 -2.0984 -0.6144 -1.8589
  527SOL    HW2 1581   1.144   2.976   1.175 -0.8934  0.6797  2.0308
  528SOL     OW 1582   1.381   2.348   0.548 -0.1295  0.1558  0.1133
  528SOL    HW1 1583   1.417   2.252   0.561  1.5617 -3.7855 -0.0155
  528SOL    HW2 1584   1.432   2.417   0.606 -0.3799 -0.9937 -1.3561
  529SOL     OW 1585   1.920   1.771   0.783  0.0644  0.6182 -0.2399
  529SOL    HW1 1586   1.871   1.788   0.694 -2.1235  2.3819  1.0068
  529SOL    HW2 1587   1.930   1.857   0.840  0.5230 -1.3974 -0.2257
  530SOL     OW 1588   0.390   2.536   0.187 -0.5491  0.0395  0.0304
  530SOL    HW1 1589   0.399   2.510   0.285 -0.8161  0.4709 -2.0217
  530SOL    HW2 1590   0.403   2.450   0.123 -1.8415 -2.1330  2.0571
  531SOL     OW 1591   1.839   0.957   1.109  0.2607  0.1492 -0.0734
  531SOL    HW1 1592   1.778   0.886   1.068  2.6056  0.4835 -0.6237
  531SOL    HW2 1593   1.822   0.970   1.206  0.4717 -1.3360 -0.5651
  532SOL     OW 1594   0.315   1.188   0.742  0.7897 -0.3693 -0.0941
  532SOL    HW1 1595   0.322   1.183   0.640 -2.1560  2.3523 -0.7496
  532SOL    HW2 1596   0.341   1.099   0.788  0.8390 -0.4896  0.0830
  533SOL     OW 1597   1.796   0.008   2.591 -0.3429  0.0639 -0.1187
  533SOL    HW1 1598   1.900  -0.003   2.603 -2.6531 -0.5030 -0.7268
  533SOL    HW2 1599   1.746   0.073   2.654 -3.1456 -1.6627  0.0089
  534SOL     OW 1600   0.215   0.215   1.489  0.4676 -0.1434 -0.0488
  534SOL    HW1 1601   0.297   0.248   1.435  3.2590  1.6207  0.3873
  534SOL    HW2 1602   0.157   0.294   1.520  3.0058  2.0943 -0.1620
  535SOL     OW 1603   1.844   0.335   0.197  0.1100  0.1574 -0.0660
  535SOL    HW1 1604   1.865   0.419   0.261  0.7487  2.6064  0.3195
  535SOL    HW2 1605   1.757   0.276   0.222  0.2936 -0.9338  2.2281
  536SOL     OW 1606   1.360   2.597   0.922  0.3989  0.0187  0.0088
  536SOL    HW1 1607   1.444   2.552   0.965  2.8429 -1.6745 -2.6942
  536SOL    HW2 1608   1.280   2.529   0.905 -1.1729  2.0239  0.5399
  537SOL     OW 1609   0.879   0.226   2.356 -0.3238 -0.2892 -0.3640
  537SOL    HW1 1610   0.923   0.259   2.270  0.1213  1.5283  0.1052
  537SOL    HW2 1611   0.804   0.157   2.347 -0.6801  0.2342  0.0848
  538SOL     OW 1612   1.648   2.347   1.492  0.1231 -0.3209  0.0163
  538SOL    HW1 1613   1.618   2.259   1.444  3.4340 -0.5900 -0.5965
  538SOL    HW2 1614   1.741   2.374   1.452  0.2834 -2.8260 -1.7671
  539SOL     OW 1615   0.189   1.590   2.673  0.6160  0.0785 -0.0288
  539SOL    HW1 1616   0.107   1.589   2.613  0.4048  3.0661 -0.8905
  539SOL    HW2 1617   0.193   1.666   2.745  0.5672  2.9913  1.3942
  540SOL     OW 1618   2.737   1.656   1.972  0.6402 -0.2392 -0.5997
  540SOL    HW1 1619   2.663   1.578   1.973 -1.6356  1.8405 -2.6713
  540SOL    HW2 1620   2.702   1.752   1.946 -0.0491 -0.2832 -1.7869
  541SOL     OW 1621   0.462   2.313   0.027  0.2585 -0.0993  0.1821
  541SOL    HW1 1622   0.523   2.236   0.064  0.8521 -4.3158  0.1404
  541SOL    HW2 1623   0.376   2.271  -0.005 -0.2362  0.4927  3.1588
  542SOL     OW 1624   2.249   2.573   0.439 -0.2767 -0.3076 -0.0458
  542SOL    HW1 1625   2.248   2.669   0.403 -2.4863  1.7937  1.5369
  542SOL    HW2 1626   2.152   2.534   0.458  0.9099 -0.4990  0.4657
  543SOL     OW 1627   1.004   1.751   1.718 -0.0080 -0.4468 -0.3636
  543SOL    HW1 1628   0.988   1.762   1.820  1.0209 -0.0118  1.0094
  543SOL    HW2 1629   1.016   1.842   1.670  0.6975 -1.3625  0.8081
  544SOL     OW 1630   0.928   0.389   0.194  0.7975  0.2008  0.2529
  544SOL    HW1 1631   0.948   0.300   0.246 -1.4748 -0.2437  0.1539
  544SOL    HW2 1632   0.960   0.381   0.093 -0.0275 -0.3841 -0.3764
  545SOL     OW 1633   1.104   1.707   0.655  0.3217 -0.2997  0.4937
  545SOL    HW1 1634   1.183   1.746   0.708 -0.1034  1.2329  0.8469
  545SOL    HW2 1635   1.115   1.719   0.554 -0.8150 -0.6262 -0.0750
  546SOL     OW 1636   2.615   1.553   3.035 -0.9791  0.4024 -0.8294
  546SOL    HW1 1637   2.555   1.558   2.954 -1.1640 -0.9387 -0.2907
  546SOL    HW2 1638   2.556   1.512   3.116  1.3702 -0.5246  1.5322
  547SOL     OW 1639   0.545   0.018   2.759 -0.1126 -0.3750 -0.6923
  547SOL    HW1 1640   0.635  -0.025   2.787  0.3437  1.8378  2.5564
  547SOL    HW2 1641   0.492  -0.055   2.714  1.2583  2.7285 -0.0941
  548SOL     OW 1642   2.032   0.816   3.044 -0.0451 -0.2172  0.7124
  548SOL    HW1 1643   1.934   0.787   3.031 -0.3165  2.5806 -1.7229
  548SOL    HW2 1644   2.036   0.913   3.082 -0.1514 -2.4155  0.3128
  549SOL     OW 1645   0.671   0.549   0.203  0.4275  1.0637 -0.0304
  549SOL    HW1 1646   0.624   0.572   0.117  0.6389 -1.0024  0.4659
  549SOL    HW2 1647   0.772   0.531   0.186  2.3361  1.2548 -3.0031
  550SOL     OW 1648   2.520   2.864   2.868 -0.6396 -0.0983 -0.2302
  550SOL    HW1 1649   2.484   2.805   2.948 -2.4981  0.4911  3.0959
  550SOL    HW2 1650   2.532   2.803   2.782 -0.0394  1.3847 -1.7820
  551SOL     OW 1651   0.288   0.910   0.230  0.3568 -0.1761 -0.3518
  551SOL    HW1 1652   0.361   0.836   0.223 -0.2471 -1.6133  1.2968
  551SOL    HW2 1653   0.252   0.913   0.325 -0.7553 -0.4228 -0.2461
  552SOL     OW 1654   0.761   2.901   1.872 -0.3412  0.5060  0.3584
  552SOL    HW1 1655   0.714   2.981   1.909 -0.0529  4.7964 -1.1004
  552SOL    HW2 1656   0.853   2.931   1.834  0.7170 -1.7662  0.8329
  553SOL     OW 1657   0.035   2.526   0.364  0.9809 -0.2649  0.0677
  553SOL    HW1 1658  -0.027   2.447   0.382 -2.3583  0.0949 -1.6622
  553SOL    HW2 1659  -0.009   2.609   0.407  0.3381 -1.1436  2.7203
  554SOL     OW 1660   2.217   0.337   0.582 -0.4469 -0.0668  0.1278
  554SOL    HW1 1661   2.272   0.319   0.492  0.2115 -0.3825  0.7594
  554SOL    HW2 1662   2.219   0.256   0.646 -2.7585 -1.2399 -1.7740
  555SOL     OW 1663   0.416   2.895   2.487 -0.2681  0.2699  0.4920
  555SOL    HW1 1664   0.321   2.919   2.445  1.8725  3.0955 -2.7235
  555SOL    HW2 1665   0.468   2.831   2.425 -2.8981  0.7236 -0.5265
  556SOL     OW 1666   0.911   2.384   1.629 -0.0742  0.2599 -0.8980
  556SOL    HW1 1667   0.943   2.465   1.686 -1.1958 -0.6995 -0.7502
  556SOL    HW2 1668   0.953   2.382   1.534  0.8281  1.3660  0.5779
  557SOL     OW 1669   0.096   2.093   0.135 -0.1178 -0.1177  0.0860
  557SOL    HW1 1670   0.018   2.032   0.109  0.1145  1.1470  1.1347
  557SOL    HW2 1671   0.141   2.121   0.045 -0.7144 -3.2889 -1.4612
  558SOL     OW 1672   2.933   2.293   0.347 -0.0261  0.4093 -0.2973
  558SOL    HW1 1673   2.846   2.252   0.387 -1.3896  0.9734 -1.7821
  558SOL    HW2 1674   2.931   2.279   0.244  2.3928  1.1858 -0.0198
  559SOL     OW 1675   0.390   2.295   1.353  0.0857  0.5864  0.2927
  559SOL    HW1 1676   0.302   2.300   1.299 -1.3592  0.2550 -1.1353
  559SOL    HW2 1677   0.436   2.203   1.338 -1.8064  1.2575  1.3360
  560SOL     OW 1678   2.097   1.100   3.055 -0.0374  0.2907  0.0011
  560SOL    HW1 1679   2.046   1.169   3.109 -0.4730 -0.5083 -0.4031
  560SOL    HW2 1680   2.200   1.116   3.053  0.1249 -1.7729 -0.0822
  561SOL     OW 1681   3.006   1.944   0.011  0.3897 -0.6203  0.7590
  561SOL    HW1 1682   2.941   1.863   0.019 -0.2599  2.7066 -1.6790
  561SOL    HW2 1683   2.957   2.011  -0.050 -0.6570 -2.2057 -0.8783
  562SOL     OW 1684   0.938   2.154   2.378  0.6116  0.8830 -0.4524
  562SOL    HW1 1685   0.838   2.131   2.372 -1.3616 -1.2210  0.1607
  562SOL    HW2 1686   0.954   2.221   2.459 -0.9035 -1.5670 -1.8994
  563SOL     OW 1687   0.683   2.458   2.594  0.1150  0.4688  0.1905
  563SOL    HW1 1688   0.773   2.409   2.588 -0.7838 -0.2801 -1.6959
  563SOL    HW2 1689   0.651   2.455   2.687  2.6686 -0.6157 -0.7381
  564SOL     OW 1690   2.774   1.308   2.922 -0.1534  0.6551  0.0658
  564SOL    HW1 1691   2.685   1.328   2.973  1.3475  0.3751 -0.8991
  564SOL    HW2 1692   2.826   1.393   2.890  0.8983 -0.6328 -1.0537
  565SOL     OW 1693   2.546   1.996   2.579  0.2064 -0.1550  0.3151
  565SOL    HW1 1694   2.469   2.060   2.551  0.6369 -0.4536 -1.2075
  565SOL    HW2 1695   2.603   2.027   2.659  0.4614 -0.4648  0.2131
  566SOL     OW 1696   2.013   2.867   1.343  0.0199  0.0338  1.0181
  566SOL    HW1 1697   1.944   2.787   1.333 -2.1020 -0.9864 -1.1371
  566SOL    HW2 1698   2.051   2.899   1.248  1.1820 -0.3375  0.8710
  567SOL     OW 1699   2.464   0.130   2.266  0.9150 -0.1864  0.8946
  567SOL    HW1 1700   2.382   0.075   2.228 -2.8505 -0.2923  1.1939
  567SOL    HW2 1701   2.529   0.150   2.189  0.3416 -2.0275  2.5141
  568SOL     OW 1702   1.534   1.804   0.254 -0.5660 -0.7450 -0.3660
  568SOL    HW1 1703   1.463   1.877   0.240 -0.2926  0.6181 -0.2888
  568SOL    HW2 1704   1.626   1.819   0.206  1.9037 -0.1313  0.2961
  569SOL     OW 1705   0.297   0.639   0.845 -0.2642 -0.4560  0.4622
  569SOL    HW1 1706   0.349   0.557   0.817 -2.4913  0.6491  2.9108
  569SOL    HW2 1707   0.203   0.609   0.866  1.6231  1.1072 -2.7579
  570SOL     OW 1708   0.676   0.744   2.830  0.3581 -0.0949 -0.3769
  570SOL    HW1 1709   0.726   0.753   2.744  1.6936  1.2623  1.4633
  570SOL    HW2 1710   0.653   0.838   2.866  0.0030 -0.3564 -1.0872
  571SOL     OW 1711   0.847   3.059   1.110 -0.2067 -0.5356 -0.2577
  571SOL    HW1 1712   0.898   3.084   1.022  0.2488  1.4474 -1.1555
  571SOL    HW2 1713   0.870   2.965   1.151 -0.2545  0.2248 -1.2166
  572SOL     OW 1714   1.576   2.636   1.152  0.2477 -0.3999  0.6444
  572SOL    HW1 1715   1.519   2.598   1.234  1.1936 -0.2540 -1.0182
  572SOL    HW2 1716   1.533   2.727   1.116 -0.1101  0.0070  2.3519
  573SOL     OW 1717   2.918   0.422   2.054 -0.3541  0.6505 -0.1758
  573SOL    HW1 1718   2.867   0.327   2.065 -2.7002 -0.3173  1.0462
  573SOL    HW2 1719   2.864   0.493   2.001  0.5734 -1.1068 -0.9968
  574SOL     OW 1720   0.216   1.771   0.984  0.0472 -0.0032 -0.1016
  574SOL    HW1 1721   0.195   1.872   0.971 -1.0733  0.5886  1.1893
  574SOL    HW2 1722   0.179   1.741   1.077 -1.1121 -1.5725 -2.8629
  575SOL     OW 1723   0.840   2.155   0.977  0.8813 -0.2268  0.1978
  575SOL    HW1 1724   0.821   2.201   1.071  0.8095 -0.5395  1.0252
  575SOL    HW2 1725   0.905   2.215   0.919  3.5688 -1.7503  0.5610
  576SOL     OW 1726   2.935   2.938   1.679  0.1008  0.0924 -0.5450
  576SOL    HW1 1727   2.853   2.887   1.649 -1.6549 -0.2133  0.7447
  576SOL    HW2 1728   2.917   3.037   1.664 -0.7469  1.8782 -1.6345
  577SOL     OW 1729   2.536   1.230   3.086 -0.1910 -0.0630 -0.5316
  577SOL    HW1 1730   2.553   1.136   3.044  0.2942 -1.1998 -0.4109
  577SOL    HW2 1731   2.578   1.234   3.178 -1.7601  0.1013 -0.7479
  578SOL     OW 1732   1.339   2.671   2.597  0.3420  0.0215 -0.1630
  578SOL    HW1 1733   1.253   2.656   2.537  0.4312  0.7308  1.3134
  578SOL    HW2 1734   1.398   2.745   2.553  2.7085 -2.3667 -0.6476
  579SOL     OW 1735   0.123   2.508   0.119  0.1142 -0.1049  0.1568
  579SOL    HW1 1736   0.078   2.504   0.213  1.5871  1.7442  0.9216
  579SOL    HW2 1737   0.225   2.531   0.125  2.2444 -0.5867 -0.2169
  580SOL     OW 1738   1.014   2.598   0.388  0.2894 -0.0402  0.4833
  580SOL    HW1 1739   1.107   2.620   0.341  2.7649 -0.7534  0.1102
  580SOL    HW2 1740   0.939   2.568   0.323  2.9502  2.0854 -1.6253
  581SOL     OW 1741   1.227   2.596   1.514  0.0623 -0.3689  0.3220
  581SOL    HW1 1742   1.267   2.511   1.470  1.5182  0.1910 -0.3693
  581SOL    HW2 1743   1.268   2.682   1.475  1.2701 -2.0424 -1.7774
  582SOL     OW 1744   1.487   0.095   1.810  0.4588  0.1338 -0.3416
  582SOL    HW1 1745   1.500   0.175   1.876 -0.8568 -1.7374  2.0195
  582SOL    HW2 1746   1.572   0.085   1.755 -0.9400 -0.1945  0.6758
  583SOL     OW 1747   2.507   2.978   0.528 -0.2301 -0.1272  0.3052
  583SOL    HW1 1748   2.501   2.897   0.461  0.3785 -0.1283 -3.3684
  583SOL    HW2 1749   2.464   2.952   0.616  0.6673  2.5595 -2.2193
  584SOL     OW 1750   1.616   1.004   2.092 -0.2190 -0.5773  0.2925
  584SOL    HW1 1751   1.680   1.072   2.046  1.0771  1.8239  0.2126
  584SOL    HW2 1752   1.664   0.939   2.158  0.4784 -3.4765 -3.1006
  585SOL     OW 1753   2.088   2.672   2.940  0.1181  0.2827  0.5778
  585SOL    HW1 1754   2.116   2.592   2.884  1.9225  2.5422  1.1680
  585SOL    HW2 1755   1.984   2.697   2.922 -1.7717  0.9368  1.5660
  586SOL     OW 1756   2.723   0.231   1.538 -0.1245  0.1506  0.4986
  586SOL    HW1 1757   2.751   0.320   1.588  1.5795  0.6411  1.2761
  586SOL    HW2 1758   2.639   0.182   1.576 -2.9383 -1.7856  1.3628
  587SOL     OW 1759   1.962   1.586   2.743 -0.5687 -0.3343  0.1923
  587SOL    HW1 1760   1.995   1.508   2.684 -0.5644 -1.0181 -2.3970
  587SOL    HW2 1761   2.001   1.584   2.840 -0.4397 -2.7706 -0.2078
  588SOL     OW 1762   0.462   2.730   2.251  0.4571  0.4192  0.0301
  588SOL    HW1 1763   0.370   2.743   2.208 -3.0689 -1.4651  0.5478
  588SOL    HW2 1764   0.464   2.647   2.316  0.4576  0.9436  1.7486
  589SOL     OW 1765   2.103   1.448   2.541 -0.1909  0.2303  0.3454
  589SOL    HW1 1766   2.032   1.403   2.481  1.3222 -1.0588 -0.2338
  589SOL    HW2 1767   2.188   1.384   2.555  1.2508 -0.4627  0.7696
  590SOL     OW 1768   2.340   1.672   2.037 -0.7613 -0.1160  0.2899
  590SOL    HW1 1769   2.422   1.608   2.025  1.2514  1.6663  2.1746
  590SOL    HW2 1770   2.342   1.726   2.128 -1.5839  0.6648  0.9218
  591SOL     OW 1771   1.382   2.411   0.252 -0.9248 -0.1846  0.0115
  591SOL    HW1 1772   1.484   2.410   0.223  0.4253  1.7669  0.9273
  591SOL    HW2 1773   1.373   2.394   0.354 -2.8120 -0.0258  0.4913
  592SOL     OW 1774   1.765   2.363   0.800 -0.1462 -0.4483 -0.0865
  592SOL    HW1 1775   1.759   2.381   0.698 -2.0064 -0.7900 -2.4695
  592SOL    HW2 1776   1.863   2.342   0.825 -1.8018  1.1527 -0.9647
  593SOL     OW 1777   0.656   0.272   0.104 -0.3386 -0.0325  0.5014
  593SOL    HW1 1778   0.731   0.234   0.037 -0.0905 -1.4626 -2.3663
  593SOL    HW2 1779   0.674   0.373   0.125 -0.9183 -2.3401  1.6901
  594SOL     OW 1780   0.978   1.864   2.714 -0.4252 -0.6966  0.0693
  594SOL    HW1 1781   1.052   1.835   2.781 -0.0866  0.3463  2.0008
  594SOL    HW2 1782   0.908   1.930   2.755 -0.6424 -1.3564 -0.9598
  595SOL     OW 1783   1.511   0.068   1.022 -0.1156 -0.2335  0.2868
  595SOL    HW1 1784   1.601   0.021   1.026 -0.6204  0.6756 -1.7105
  595SOL    HW2 1785   1.442   0.029   0.955 -2.9587  1.0057 -0.2014
  596SOL     OW 1786   3.074   1.482   2.230  0.1344 -0.0829  0.4430
  596SOL    HW1 1787   2.971   1.489   2.246 -2.5628  3.8438  0.7359
  596SOL    HW2 1788   3.115   1.578   2.224 -1.7245 -1.4760 -1.1179
  597SOL     OW 1789   2.066   2.602   1.642 -0.1735 -0.2866 -0.3955
  597SOL    HW1 1790   2.073   2.569   1.550  1.7780 -0.6048  3.7851
  597SOL    HW2 1791   2.152   2.584   1.699 -1.7872  1.0890 -0.0304
  598SOL     OW 1792   2.462   2.942   1.336 -0.0997  0.4672 -0.4246
  598SOL    HW1 1793   2.538   2.955   1.404 -3.0374 -0.9133  0.6386
  598SOL    HW2 1794   2.494   2.929   1.239  0.4329  0.1240  2.9775
  599SOL     OW 1795   2.932   0.412   2.471 -0.0732  0.5094  0.2769
  599SOL    HW1 1796   2.987   0.496   2.453  0.6328  0.1549  0.1658
  599SOL    HW2 1797   2.827   0.430   2.462 -0.4337  0.4006  1.4201
  600SOL     OW 1798   2.815   1.108   2.714 -0.2340 -0.0488  0.2484
  600SOL    HW1 1799   2.725   1.065   2.681 -0.4796  0.3516 -1.3111
  600SOL    HW2 1800   2.798   1.192   2.778 -1.1067 -1.6663 -0.0110
  601SOL     OW 1801   2.998   1.264   1.959 -0.4778 -0.3014 -0.3260
  601SOL    HW1 1802   2.919   1.313   1.917  0.7289  0.1674  0.4285
  601SOL    HW2 1803   3.084   1.319   1.988  1.5616 -0.3688 -1.0947
  602SOL     OW 1804   1.422   1.686   2.368 -0.6318 -0.1854 -0.1760
  602SOL    HW1 1805   1.373   1.595   2.358  0.7436 -0.1461  1.2437
  602SOL    HW2 1806   1.519   1.669   2.385 -0.2025  0.3376  2.1191
  603SOL     OW 1807   0.630   1.237   2.716 -0.2894  0.0428  0.8946
  603SOL    HW1 1808   0.557   1.227   2.642 -0.7175  0.2520  1.1298
  603SOL    HW2 1809   0.720   1.197   2.687 -1.2963  1.3960  1.3268
  604SOL     OW 1810   2.414   1.004   0.142  0.2987 -0.0788  0.1330
  604SOL    HW1 1811   2.501   1.037   0.112 -2.5536  3.6638 -0.1185
  604SOL    HW2 1812   2.395   0.907   0.108  0.5146 -0.0994  0.6127
  605SOL     OW 1813   2.635   1.161   1.930 -0.2407  0.3702 -0.3450
  605SOL    HW1 1814   2.632   1.073   1.878  1.6212 -1.4634 -2.5165
  605SOL    HW2 1815   2.630   1.146   2.032  0.4585 -0.9981 -0.2202
  606SOL     OW 1816   1.529   2.491   2.649  0.5485 -0.5402  0.0563
  606SOL    HW1 1817   1.452   2.566   2.636 -0.7716  0.5714  2.0818
  606SOL    HW2 1818   1.493   2.398   2.626  0.0202  0.0823 -0.7909
  607SOL     OW 1819   1.387   1.618   0.410  0.2204  0.5948  0.6426
  607SOL    HW1 1820   1.357   1.656   0.499 -0.5193  1.9751 -2.1229
  607SOL    HW2 1821   1.455   1.678   0.359  1.1719  0.3386 -3.5839
  608SOL     OW 1822   1.456   2.817   0.393  0.2805  0.1777 -0.1329
  608SOL    HW1 1823   1.536   2.867   0.344 -2.1263  0.3884 -4.2895
  608SOL    HW2 1824   1.383   2.887   0.419  0.5957  0.5199  0.0042
  609SOL     OW 1825   1.283   1.411   0.265  0.7341  0.1395 -0.2652
  609SOL    HW1 1826   1.302   1.502   0.314  0.0337 -1.5862  0.8772
  609SOL    HW2 1827   1.193   1.409   0.226  1.9556 -0.2690  0.6099
  610SOL     OW 1828   3.022   1.141   2.198 -0.2022 -0.0012 -0.4361
  610SOL    HW1 1829   3.016   1.039   2.202 -0.8539  1.2051 -0.9080
  610SOL    HW2 1830   2.975   1.186   2.118  1.4024  2.5034 -2.1373
  611SOL     OW 1831   2.585   0.296   1.166  0.4561  0.1052 -0.2946
  611SOL    HW1 1832   2.534   0.212   1.204  1.3449 -0.1695 -0.3426
  611SOL    HW2 1833   2.685   0.290   1.193  0.6385 -3.0585  0.0957
  612SOL     OW 1834   0.778   2.244   1.233 -0.4206 -0.0697  0.1294
  612SOL    HW1 1835   0.717   2.177   1.285 -2.0899  1.4003  1.3440
  612SOL    HW2 1836   0.724   2.325   1.192 -1.2278 -0.8890  0.3148
  613SOL     OW 1837   0.820   1.416   2.425 -0.2001  0.2488 -0.2144
  613SOL    HW1 1838   0.854   1.505   2.385  2.2852  0.9228 -0.1938
  613SOL    HW2 1839   0.797   1.343   2.354 -1.5302  0.8729 -1.6790
  614SOL     OW 1840   1.622   1.643   1.927  0.0284 -0.1600  0.1070
  614SOL    HW1 1841   1.567   1.704   1.991 -0.6438 -1.4395 -0.3103
  614SOL    HW2 1842   1.716   1.623   1.965 -0.6839  0.1787  0.6708
  615SOL     OW 1843   0.796   1.286   1.679 -0.0003  0.2768 -0.0114
  615SOL    HW1 1844   0.708   1.255   1.626  1.2000  0.7637  1.5523
  615SOL    HW2 1845   0.842   1.371   1.628  2.0198  0.7516  0.4664
  616SOL     OW 1846   1.070   1.599   2.331 -0.0683  0.0371  0.5714
  616SOL    HW1 1847   1.005   1.591   2.244 -1.0984  0.3398  1.9373
  616SOL    HW2 1848   1.084   1.699   2.358  2.1172 -2.0109  2.7607
  617SOL     OW 1849   2.909   1.531   1.619  0.3163 -0.0946 -0.3893
  617SOL    HW1 1850   2.890   1.451   1.683  1.9468  0.7841  2.9604
  617SOL    HW2 1851   2.957   1.510   1.527 -0.4195  0.1057  1.4281
  618SOL     OW 1852   1.961   2.051   1.326  0.0959 -0.3274 -0.3392
  618SOL    HW1 1853   1.944   2.096   1.233 -0.8707  1.7023 -0.1879
  618SOL    HW2 1854   1.994   1.955   1.316  1.9977 -1.3047  0.5976
  619SOL     OW 1855   1.754   0.473   2.373 -0.1950 -0.1836 -0.1043
  619SOL    HW1 1856   1.678   0.511   2.313  2.2819  1.4950 -0.1729
  619SOL    HW2 1857   1.737   0.373   2.389  2.5996  0.3701 -0.4911
  620SOL     OW 1858   2.338   2.963   0.749  0.2752 -0.5094 -0.2979
  620SOL    HW1 1859   2.280   3.049   0.770 -0.0599  2.7259  0.5524
  620SOL    HW2 1860   2.311   2.876   0.804  0.4620  1.2525 -1.4042
  621SOL     OW 1861   2.123   1.808   1.298  0.4382 -0.8097 -0.3970
  621SOL    HW1 1862   2.095   1.828   1.397 -0.5863 -1.3074  0.3697
  621SOL    HW2 1863   2.072   1.727   1.264  3.0188 -0.3318  0.1431
  622SOL     OW 1864   2.279   0.899   1.772 -0.6354 -0.2587 -0.3752
  622SOL    HW1 1865   2.378   0.922   1.778 -1.3644 -2.7351 -0.9983
  622SOL    HW2 1866   2.262   0.820   1.843 -0.3182  1.5264  1.5586
  623SOL     OW 1867   1.334   0.791   2.536 -0.2655  0.1760  1.1735
  623SOL    HW1 1868   1.297   0.693   2.526  1.1294 -3.2805  2.9605
  623SOL    HW2 1869   1.260   0.852   2.493 -1.0693 -0.3474 -0.4989
  624SOL     OW 1870   0.537   0.699   3.085 -0.5978  0.5913  0.0003
  624SOL    HW1 1871   0.606   0.705   3.006  1.9176  1.4930  1.8277
  624SOL    HW2 1872   0.570   0.761   3.164 -0.1407  0.7009  4.2092
  625SOL     OW 1873   2.797   1.738   1.011  0.6550  0.4566  0.4188
  625SOL    HW1 1874   2.705   1.779   0.985  0.5836  0.7431  0.4960
  625SOL    HW2 1875   2.869   1.808   1.029  1.7640  0.5576  1.1891
  626SOL     OW 1876   0.601   2.695   1.709 -0.4990 -0.2933  0.2976
  626SOL    HW1 1877   0.652   2.784   1.740  2.6081 -0.1347 -0.0081
  626SOL    HW2 1878   0.497   2.698   1.728 -1.1048 -0.9034 -0.3810
  627SOL     OW 1879   0.682   0.945   1.548 -0.0743 -0.2760 -0.3554
  627SOL    HW1 1880   0.591   0.920   1.498 -0.9529  2.6356 -1.0738
  627SOL    HW2 1881   0.742   0.990   1.478 -1.6854  0.8540 -0.9528
  628SOL     OW 1882   2.501   0.125   0.665  0.3232  0.0017 -0.0439
  628SOL    HW1 1883   2.532   0.042   0.611 -1.1379  2.9029  0.1731
  628SOL    HW2 1884   2.401   0.112   0.690 -0.3440 -0.8447  1.0063
  629SOL     OW 1885   1.966   0.920   2.057  0.4739 -0.3579 -0.9250
  629SOL    HW1 1886   1.973   0.966   1.962  1.6253  2.2863  0.8346
  629SOL    HW2 1887   1.929   0.987   2.127  1.1933 -0.0761  2.4761
  630SOL     OW 1888   2.951   2.309   0.821  0.4302 -0.3188 -0.3828
  630SOL    HW1 1889   2.892   2.392   0.834  0.9699  2.0438  0.6502
  630SOL    HW2 1890   2.898   2.219   0.809  0.5424 -0.8390  1.6939
  631SOL     OW 1891   3.069   0.171   2.168  0.0750  0.7151 -0.0215
  631SOL    HW1 1892   3.095   0.234   2.249 -1.8512  2.1054 -2.2754
  631SOL    HW2 1893   3.091   0.221   2.080 -0.9615  0.6463 -1.9404
  632SOL     OW 1894   2.451   2.598   0.640 -0.3190 -0.0484 -0.1138
  632SOL    HW1 1895   2.443   2.688   0.687 -1.5119 -1.3205  1.7124
  632SOL    HW2 1896   2.386   2.586   0.568  0.0881 -0.1092  2.9901
  633SOL     OW 1897   1.438   1.233   2.657 -0.3914  0.2411 -0.3956
  633SOL    HW1 1898   1.424   1.316   2.719  1.3261  1.6675  2.5524
  633SOL    HW2 1899   1.382   1.237   2.570  0.0564 -2.7814  0.3883
  634SOL     OW 1900   0.643   1.992   0.871  0.3648  0.2969 -0.2816
  634SOL    HW1 1901   0.569   1.981   0.942  1.0333  1.0265 -1.3102
  634SOL    HW2 1902   0.724   2.054   0.899 -0.2547 -0.9267 -0.7434
  635SOL     OW 1903   3.005   2.336   0.058 -0.0954 -0.2647 -0.2154
  635SOL    HW1 1904   2.943   2.399  -0.000 -1.7842  0.3813 -0.1324
  635SOL    HW2 1905   3.099   2.381   0.082 -1.2769  0.8436  0.8077
  636SOL     OW 1906   2.337   2.751   1.930  0.1400  0.1671 -0.4029
  636SOL    HW1 1907   2.340   2.850   1.964 -0.5138  1.3082  1.3518
  636SOL    HW2 1908   2.267   2.699   1.981  2.5539  0.8051 -1.7237
  637SOL     OW 1909   2.733   0.617   1.956 -0.3543 -0.3447  0.1917
  637SOL    HW1 1910   2.658   0.621   1.876  1.8330  0.6125 -2.2983
  637SOL    HW2 1911   2.751   0.712   1.992 -0.3235 -0.4995 -0.9328
  638SOL     OW 1912   2.404   1.825   1.315 -0.6262 -0.3920 -0.0522
  638SOL    HW1 1913   2.303   1.799   1.327 -0.9677  1.3473  2.1019
  638SOL    HW2 1914   2.469   1.762   1.365  2.7297 -1.0943  0.3330
  639SOL     OW 1915   1.293   2.121   1.688 -0.1924 -0.9823 -0.1486
  639SOL    HW1 1916   1.312   2.222   1.687  0.8706 -0.0707 -2.8183
  639SOL    HW2 1917   1.203   2.101   1.732  0.6956  1.2112 -0.1889
  640SOL     OW 1918   0.224   1.187   1.554 -0.1574 -0.0803 -0.4949
  640SOL    HW1 1919   0.208   1.198   1.653  3.6442 -0.4304 -0.3503
  640SOL    HW2 1920   0.300   1.124   1.528 -1.0392  0.1524  0.1306
  641SOL     OW 1921   1.990   0.296   1.473 -0.2342 -0.6839  0.2214
  641SOL    HW1 1922   2.001   0.350   1.565 -0.3819  0.6513  0.3785
  641SOL    HW2 1923   2.057   0.218   1.465  1.3805 -2.0962  1.4302
  642SOL     OW 1924   2.010   0.026   0.318  0.1063 -0.6164 -0.1706
  642SOL    HW1 1925   2.113   0.023   0.329  0.2225  1.7528  2.7259
  642SOL    HW2 1926   1.962   0.005   0.407 -0.2288 -1.3711  0.2813
  643SOL     OW 1927   2.925   1.796   2.127  0.2138  0.1813  0.1532
  643SOL    HW1 1928   2.889   1.746   2.042 -1.8054  1.4926  0.3811
  643SOL    HW2 1929   2.941   1.897   2.114 -1.1674 -0.6837 -1.6097
  644SOL     OW 1930   2.239   2.420   1.194 -0.7967  0.4578 -0.0878
  644SOL    HW1 1931   2.317   2.360   1.161  1.8292  2.2089  1.1361
  644SOL    HW2 1932   2.207   2.394   1.289  0.4556  0.8955  0.0306
  645SOL     OW 1933   0.585   0.869   1.284  0.1013 -0.2432  0.3432
  645SOL    HW1 1934   0.484   0.849   1.277  2.2285  2.5958 -2.5294
  645SOL    HW2 1935   0.599   0.951   1.224  3.1078 -0.0859  0.8013
  646SOL     OW 1936   1.447   1.809   2.044 -0.9890  0.2311  0.3852
  646SOL    HW1 1937   1.455   1.902   2.000 -0.9489 -0.2634 -0.1549
  646SOL    HW2 1938   1.473   1.809   2.145 -0.3969 -0.9014 -0.5496
  647SOL     OW 1939   0.787   1.025   0.665 -0.4921  0.3184  0.1515
  647SOL    HW1 1940   0.832   1.082   0.739  0.8225  2.0953  2.3352
  647SOL    HW2 1941   0.714   0.958   0.705 -1.3547 -2.8703  0.2880
  648SOL     OW 1942   0.161   0.244   0.246 -0.1068  0.5700  0.4464
  648SOL    HW1 1943   0.177   0.167   0.181  0.1191 -0.8340 -0.6583
  648SOL    HW2 1944   0.146   0.339   0.201  2.9978  0.9435 -0.5899
  649SOL     OW 1945   2.999   0.237   0.864 -0.0976 -0.3536  0.0245
  649SOL    HW1 1946   3.091   0.187   0.878  0.1940  0.1396 -1.6438
  649SOL    HW2 1947   2.999   0.338   0.884 -1.4464 -1.3507 -1.8218
  650SOL     OW 1948   2.734   0.639   1.499 -0.1365  0.2283 -0.1482
  650SOL    HW1 1949   2.632   0.640   1.518 -1.0942 -0.8834  1.4251
  650SOL    HW2 1950   2.769   0.729   1.461  0.4423 -1.4608  0.2815
  651SOL     OW 1951   0.930   1.513   1.596 -0.0846 -0.1926 -0.5924
  651SOL    HW1 1952   0.958   1.594   1.661  0.0273  1.6227 -1.3741
  651SOL    HW2 1953   1.001   1.483   1.528 -0.7043  1.6428  0.2388
  652SOL     OW 1954   2.328   2.379   2.415  0.3631 -0.7992 -0.3119
  652SOL    HW1 1955   2.245   2.434   2.444 -0.8370 -0.1893 -0.6726
  652SOL    HW2 1956   2.389   2.424   2.344  2.5512  1.3586  0.8972
  653SOL     OW 1957   2.658   1.243   0.220 -0.1400 -0.6001 -0.0263
  653SOL    HW1 1958   2.707   1.329   0.245 -0.1219 -2.0385 -1.7991
  653SOL    HW2 1959   2.725   1.165   0.228  0.7239  1.1118  3.1772
  654SOL     OW 1960   1.274   2.231   1.303 -0.1471  0.3498 -0.1222
  654SOL    HW1 1961   1.266   2.142   1.358  0.0424  1.8989 -0.5951
  654SOL    HW2 1962   1.305   2.219   1.206  0.8756 -2.6977  1.0264
  655SOL     OW 1963   0.165   0.930   1.859 -1.1066 -0.0227 -0.3414
  655SOL    HW1 1964   0.229   0.879   1.793 -1.6241  1.5770  0.4949
  655SOL    HW2 1965   0.186   1.031   1.864  0.7291 -0.5954  0.1440
  656SOL     OW 1966   2.544   2.447   2.621 -0.5539 -0.4196 -0.0312
  656SOL    HW1 1967   2.640   2.436   2.577  0.5759  0.5393 -0.5097
  656SOL    HW2 1968   2.470   2.413   2.557  1.0340  0.5532  0.9135
  657SOL     OW 1969   3.006   0.985   1.893  0.1579 -0.0710  0.8100
  657SOL    HW1 1970   3.002   1.086   1.909 -1.7881 -1.0477 -1.3640
  657SOL    HW2 1971   3.103   0.954   1.881  1.3220 -2.9576  0.0719
  658SOL     OW 1972   1.711   0.187   2.375 -0.2557 -0.5420  0.3979
  658SOL    HW1 1973   1.735   0.121   2.451 -0.7297 -0.2992 -1.5568
  658SOL    HW2 1974   1.748   0.159   2.283  0.0265 -1.1462 -1.6478
  659SOL     OW 1975   1.396   0.619   2.827 -0.3564  0.4410 -0.5032
  659SOL    HW1 1976   1.466   0.697   2.847 -0.5925 -1.0664  2.8663
  659SOL    HW2 1977   1.298   0.645   2.838 -0.3485 -1.4044 -0.2457
  660SOL     OW 1978   1.368   0.323   1.439  0.0532 -0.7003  0.5229
  660SOL    HW1 1979   1.384   0.369   1.534 -2.0825  0.7822  0.4640
  660SOL    HW2 1980   1.460   0.287   1.401 -2.0016  0.6141  0.3173
  661SOL     OW 1981   2.340   1.219   0.683 -0.7669 -0.1306  0.5975
  661SOL    HW1 1982   2.374   1.213   0.588  2.0282 -0.3672  0.9423
  661SOL    HW2 1983   2.318   1.315   0.721  0.1092 -1.0335  1.4487
  662SOL     OW 1984   1.377   0.401   1.738  0.1224 -0.1396 -0.3306
  662SOL    HW1 1985   1.337   0.364   1.826 -0.3115 -0.3491 -2.5182
  662SOL    HW2 1986   1.402   0.504   1.745 -4.2170  1.0159  1.8172
  663SOL     OW 1987   0.877   1.585   2.147  0.4197 -0.3811 -0.2735
  663SOL    HW1 1988   0.802   1.630   2.196 -0.5287  2.1888 -2.9290
  663SOL    HW2 1989   0.845   1.522   2.066 -3.0482 -1.5411 -1.0276
  664SOL     OW 1990   1.647   2.067   1.396 -0.0968  0.2476 -0.2403
  664SOL    HW1 1991   1.599   2.005   1.465 -1.6055 -0.6517  1.1930
  664SOL    HW2 1992   1.749   2.066   1.408 -2.7257  1.3585  1.2855
  665SOL     OW 1993   2.296   0.703   1.982 -0.8344  0.1046 -0.3773
  665SOL    HW1 1994   2.202   0.669   2.008 -2.4343  1.7220  2.4222
  665SOL    HW2 1995   2.364   0.689   2.064 -2.4662  0.2984  0.1225
  666SOL     OW 1996   0.497   2.307   0.332 -0.2311  0.5990 -0.7580
  666SOL    HW1 1997   0.540   2.387   0.387  1.6061  1.3671 -0.4372
  666SOL    HW2 1998   0.399   2.283   0.358  1.1693 -0.8413 -2.3796
  667SOL     OW 1999   1.988   0.212   1.076  0.7356 -0.1830  0.5421
  667SOL    HW1 2000   2.005   0.312   1.098  1.2811 -2.3545  0.3626
  667SOL    HW2 2001   1.930   0.164   1.147 -1.1339  2.4687  0.8929
  668SOL     OW 2002   2.032   0.477   1.138  0.4589 -0.3918  0.4110
  668SOL    HW1 2003   2.105   0.491   1.066 -3.2796 -0.7957  2.4717
  668SOL    HW2 2004   2.061   0.508   1.231  2.9152 -1.0484  0.2448
  669SOL     OW 2005   3.079   2.157   1.011  0.3228 -0.4388 -0.0384
  669SOL    HW1 2006   3.045   2.226   0.942  0.1333 -1.0772 -1.2373
  669SOL    HW2 2007   3.085   2.198   1.101  0.9101 -0.5477 -2.7166
  670SOL     OW 2008   2.897   2.314   2.093 -0.1121 -0.0870  0.0186
  670SOL    HW1 2009   2.826   2.286   2.158 -1.4314 -0.2452  1.0195
  670SOL    HW2 2010   2.891   2.413   2.055 -0.6613  0.1336 -2.1237
  671SOL     OW 2011   1.774   1.814   1.456 -0.4029 -0.1868 -0.3684
  671SOL    HW1 2012   1.783   1.824   1.353 -3.1700  1.0888 -0.3344
  671SOL    HW2 2013   1.677   1.833   1.489 -1.8688  0.4531 -0.7913
  672SOL     OW 2014   0.443   0.634   2.394 -0.1646 -0.0301 -0.2655
  672SOL    HW1 2015   0.514   0.672   2.327 -0.8499 -1.5006 -1.0429
  672SOL    HW2 2016   0.357   0.692   2.398 -3.2482 -0.6861 -0.3487
  673SOL     OW 2017   0.159   1.176   1.154  0.0509  0.6457  0.2810
  673SOL    HW1 2018   0.158   1.242   1.235 -0.7417  1.5617  0.9300
  673SOL    HW2 2019   0.254   1.152   1.123 -0.5686  1.0585 -0.2269
  674SOL     OW 2020   1.652   2.990   0.316  0.4491 -0.0845  0.2089
  674SOL    HW1 2021   1.635   3.096   0.327  0.4947  1.9586 -0.0434
  674SOL    HW2 2022   1.749   2.964   0.333 -0.0331  0.2636  0.0234
  675SOL     OW 2023   1.737   0.809   2.252 -0.0756 -0.0939  0.1340
  675SOL    HW1 2024   1.835   0.779   2.273  0.5811 -0.4712 -0.3580
  675SOL    HW2 2025   1.677   0.727   2.227  0.5423  1.0136  2.1887
  676SOL     OW 2026   2.537   1.483   1.930 -0.1319 -0.0788 -0.4067
  676SOL    HW1 2027   2.480   1.464   1.848  2.1926  1.3764  1.0522
  676SOL    HW2 2028   2.534   1.406   2.004 -0.4666 -0.6604  4.1839
  677SOL     OW 2029   1.923   0.722   0.929 -0.2113 -0.5518  0.3013
  677SOL    HW1 2030   1.828   0.682   0.948  2.1265 -0.9300  0.6313
  677SOL    HW2 2031   2.005   0.663   0.941 -0.8503  4.0916 -1.5310
  678SOL     OW 2032   0.063   0.751   1.602  0.4339  0.0708  0.0325
  678SOL    HW1 2033   0.158   0.784   1.615 -1.0584  1.5282  1.8128
  678SOL    HW2 2034   0.024   0.711   1.691 -0.8168  0.2207  0.8508
  679SOL     OW 2035   2.530   1.182   1.213 -0.5938  0.2426  0.0726
  679SOL    HW1 2036   2.445   1.239   1.189 -2.2351  1.9033 -1.1373
  679SOL    HW2 2037   2.525   1.078   1.190  0.1278 -0.2178 -0.0156
  680SOL     OW 2038   2.829   0.454   1.691 -0.1430  0.5851  0.3920
  680SOL    HW1 2039   2.814   0.530   1.621 -2.1576 -0.8747  2.7502
  680SOL    HW2 2040   2.915   0.469   1.739 -1.3659 -0.1565  1.0295
  681SOL     OW 2041   2.968   0.108   1.602  0.0578  0.4851 -0.0172
  681SOL    HW1 2042   3.035   0.087   1.526  1.1473  0.2524  2.2392
  681SOL    HW2 2043   2.878   0.142   1.567  4.1605 -1.9175  1.3003
  682SOL     OW 2044   0.733   0.038   1.332 -0.0069  0.5177  0.3282
  682SOL    HW1 2045   0.671  -0.034   1.376  0.4131  1.0728  0.1753
  682SOL    HW2 2046   0.748   0.016   1.230 -0.3595 -0.3479  2.9368
  683SOL     OW 2047   1.387   0.203   2.171 -0.0491  0.1432  0.1433
  683SOL    HW1 2048   1.417   0.229   2.267  1.8880 -1.6841 -2.8430
  683SOL    HW2 2049   1.452   0.238   2.098 -0.4998 -0.1197  2.9505
  684SOL     OW 2050   1.446   2.056   0.471  0.6240  0.0997 -0.2893
  684SOL    HW1 2051   1.502   2.008   0.542 -1.5375 -0.7205 -2.2797
  684SOL    HW2 2052   1.358   2.003   0.455  0.2251 -1.7356  3.0225
  685SOL     OW 2053   2.202   2.110   1.953 -0.1844  0.1715 -0.1317
  685SOL    HW1 2054   2.275   2.096   1.879 -0.6899  0.9101 -3.4466
  685SOL    HW2 2055   2.235   2.086   2.043  0.9213 -0.4170 -4.4584
  686SOL     OW 2056   1.495   1.844   2.783 -0.5410 -0.1993 -0.6018
  686SOL    HW1 2057   1.553   1.815   2.864  0.1911  2.2380  0.5918
  686SOL    HW2 2058   1.401   1.871   2.807  1.0284  1.4203  1.2497
  687SOL     OW 2059   1.351   2.454   1.972  0.0389  0.5208  0.0442
  687SOL    HW1 2060   1.360   2.350   1.974  1.6433  0.2690 -1.5432
  687SOL    HW2 2061   1.377   2.497   2.064  0.4129  1.6652 -1.6665
  688SOL     OW 2062   2.008   1.529   1.758  0.0796 -0.3767  0.3239
  688SOL    HW1 2063   2.095   1.575   1.790 -1.1919  1.4712 -0.2459
  688SOL    HW2 2064   2.018   1.481   1.665  3.1787 -0.7025  3.6467
  689SOL     OW 2065   2.380   1.073   2.779  0.5163 -0.5366  0.5986
  689SOL    HW1 2066   2.303   1.014   2.818 -2.1062  0.6313 -0.9634
  689SOL    HW2 2067   2.470   1.053   2.825  0.0563  1.8872  1.8338
  690SOL     OW 2068   2.221   2.806   0.057 -0.3462  0.2053  0.6591
  690SOL    HW1 2069   2.163   2.786  -0.033  0.1231  2.6501 -0.4370
  690SOL    HW2 2070   2.160   2.812   0.139  2.8482 -3.2679 -2.3576
  691SOL     OW 2071   2.616   0.409   2.117  0.7501  0.0421 -0.2145
  691SOL    HW1 2072   2.672   0.315   2.117  0.6393 -0.4415  1.5050
  691SOL    HW2 2073   2.652   0.476   2.045 -0.2273 -1.4326 -1.0818
  692SOL     OW 2074   2.685   1.217   0.738  0.5883  0.3773 -0.3999
  692SOL    HW1 2075   2.597   1.265   0.714 -2.7403  0.7146  1.3088
  692SOL    HW2 2076   2.749   1.272   0.796 -1.2465 -2.1901  2.7902
  693SOL     OW 2077   2.814   2.941   0.627 -0.2848 -0.7781  0.4113
  693SOL    HW1 2078   2.825   3.016   0.701  1.4772  1.3422 -0.9088
  693SOL    HW2 2079   2.818   2.986   0.534  1.7987  1.4354  1.7841
  694SOL     OW 2080   2.390   2.251   0.085  0.4641  0.3144 -0.4375
  694SOL    HW1 2081   2.384   2.324   0.160  2.5161 -3.9030  5.0432
  694SOL    HW2 2082   2.303   2.187   0.080 -1.5731 -0.3185 -0.9144
  695SOL     OW 2083   0.562   3.010   1.491  0.4995  0.0293  0.2222
  695SOL    HW1 2084   0.475   2.955   1.480  1.6468 -0.3562 -0.3660
  695SOL    HW2 2085   0.552   3.083   1.565  0.6174  2.8271 -1.3669
  696SOL     OW 2086   2.815   2.077   0.768 -0.4303  0.0639  0.0973
  696SOL    HW1 2087   2.891   2.004   0.767  0.2098  1.4168 -1.2013
  696SOL    HW2 2088   2.784   2.092   0.667 -0.0008  0.2335 -2.0108
  697SOL     OW 2089   1.621   1.988   1.833 -0.5638  0.4726  0.1190
  697SOL    HW1 2090   1.672   1.896   1.815 -0.5008 -0.7417  0.5141
  697SOL    HW2 2091   1.673   2.078   1.808 -3.6330 -0.3108 -3.0563
  698SOL     OW 2092   2.905   0.396   2.747  0.3331  0.2934  0.5532
  698SOL    HW1 2093   2.906   0.383   2.643 -3.4055 -1.3350 -2.2497
  698SOL    HW2 2094   2.961   0.329   2.807  2.5868  0.0484  0.1010
  699SOL     OW 2095   1.548   0.062   2.919  0.4782  0.0299 -0.4791
  699SOL    HW1 2096   1.510  -0.023   2.876 -0.6284  0.1679 -0.2889
  699SOL    HW2 2097   1.598   0.119   2.846  1.3343  1.3060  0.3482
  700SOL     OW 2098   1.007   2.351   1.377 -0.6669  0.0594 -0.3613
  700SOL    HW1 2099   1.079   2.283   1.393 -0.5203  1.7109  0.7580
  700SOL    HW2 2100   0.924   2.305   1.330  0.1992 -1.5790 -2.2709
  701SOL     OW 2101   1.921   2.905   3.061  0.1481  0.5365  0.1729
  701SOL    HW1 2102   1.882   2.871   3.153 -5.1808  1.1243  0.7388
  701SOL    HW2 2103   1.933   3.009   3.057 -1.2707  1.6238 -0.3765
  702SOL     OW 2104   2.089   1.337   1.958  0.3130  0.2233 -0.0470
  702SOL    HW1 2105   2.180   1.288   1.936  2.0675  0.1090 -0.7363
  702SOL    HW2 2106   2.037   1.382   1.876 -1.2579 -0.2950  0.1875
  703SOL     OW 2107   1.921   0.924   1.449  0.2460  0.1217  0.0414
  703SOL    HW1 2108   1.886   0.829   1.477 -1.0255 -0.3344  0.9982
  703SOL    HW2 2109   1.997   0.962   1.510  3.1723 -1.4010  0.6459
  704SOL     OW 2110   0.301   2.017   1.729  0.2289  0.0683 -0.6754
  704SOL    HW1 2111   0.353   1.964   1.805 -0.3854 -2.2821  0.5112
  704SOL    HW2 2112   0.360   2.087   1.686  0.4217 -0.4487  1.2977
  705SOL     OW 2113   2.539   1.545   0.868 -0.6439  0.0839 -0.2608
  705SOL    HW1 2114   2.472   1.482   0.824  0.5475 -2.0028  0.0676
  705SOL    HW2 2115   2.641   1.520   0.847 -0.1859 -1.1782 -0.3571
  706SOL     OW 2116   0.689   1.712   1.890  0.1330  0.1091 -0.1300
  706SOL    HW1 2117   0.729   1.617   1.896  1.1223 -2.1631  1.2950
  706SOL    HW2 2118   0.716   1.772   1.971 -2.4352 -1.1179  1.5589
  707SOL     OW 2119   2.293   1.170   1.875 -0.5763 -0.1892  0.3818
  707SOL    HW1 2120   2.393   1.158   1.898  1.8368  1.6230 -3.1230
  707SOL    HW2 2121   2.249   1.088   1.825 -2.7360  1.0431 -0.2262
  708SOL     OW 2122   2.995   0.526   3.046  0.4500  0.7015  0.5295
  708SOL    HW1 2123   2.965   0.568   2.956 -0.9463  1.7478 -0.6484
  708SOL    HW2 2124   3.025   0.425   3.028  1.8567 -1.0460 -3.0828
  709SOL     OW 2125   1.838   1.873   0.294  0.2779 -0.6893 -0.9816
  709SOL    HW1 2126   1.873   1.966   0.309 -1.1202 -0.3547 -1.7261
  709SOL    HW2 2127   1.812   1.856   0.196  1.6813 -2.5004 -0.7394
  710SOL     OW 2128   1.687   1.618   2.378  0.1533 -0.1350 -0.2101
  710SOL    HW1 2129   1.744   1.573   2.305 -0.4743 -0.9364 -1.2040
  710SOL    HW2 2130   1.721   1.607   2.478 -3.0233  1.4454  1.1208
  711SOL     OW 2131   2.598   2.942   1.091  0.4321  0.1552 -0.4162
  711SOL    HW1 2132   2.573   3.039   1.061  1.2784  1.3222 -2.8945
  711SOL    HW2 2133   2.697   2.918   1.063  3.0541  0.4553 -1.4178
  712SOL     OW 2134   1.380   2.185   1.975 -0.4367  0.3190 -0.1607
  712SOL    HW1 2135   1.485   2.192   1.986 -1.6381 -2.0138  1.9050
  712SOL    HW2 2136   1.358   2.129   1.891  2.0186 -1.2063  2.5009
  713SOL     OW 2137   2.793   1.479   2.507  0.3586 -0.4384  0.1732
  713SOL    HW1 2138   2.815   1.380   2.473  0.7463 -1.9507 -0.4041
  713SOL    HW2 2139   2.714   1.488   2.575  0.0802  1.7655 -0.4704
  714SOL     OW 2140   2.664   0.447   2.413 -0.0083 -0.1646 -0.5045
  714SOL    HW1 2141   2.578   0.423   2.472  1.4930 -0.1528 -0.3296
  714SOL    HW2 2142   2.651   0.441   2.311  3.0336  0.3793  1.6393
  715SOL     OW 2143   1.547   2.030   1.115  0.2397 -0.5639 -0.5910
  715SOL    HW1 2144   1.466   2.098   1.099  1.0159  0.0032 -0.1082
  715SOL    HW2 2145   1.577   2.029   1.212  0.6000 -0.7803 -0.0546
  716SOL     OW 2146   1.189   0.143   1.523  0.0141  0.6634 -0.1983
  716SOL    HW1 2147   1.102   0.144   1.482  5.3820  1.4749 -0.4060
  716SOL    HW2 2148   1.248   0.219   1.488  0.6621  1.8642 -0.0884
  717SOL     OW 2149   1.184   0.566   1.556 -0.2828  0.5509 -0.2627
  717SOL    HW1 2150   1.272   0.619   1.565 -0.4130 -1.3170 -1.7233
  717SOL    HW2 2151   1.164   0.521   1.465  1.4903  0.0532 -2.4206
  718SOL     OW 2152   0.696   0.859   0.997  0.3149  0.0661  0.0570
  718SOL    HW1 2153   0.650   0.853   0.904 -1.3640  2.7297 -0.8975
  718SOL    HW2 2154   0.723   0.954   1.022 -0.1578 -1.9524  0.8304
  719SOL     OW 2155   0.686   1.687   2.314 -0.4980 -0.2956  0.7936
  719SOL    HW1 2156   0.742   1.750   2.375 -0.0399 -2.2847  1.3688
  719SOL    HW2 2157   0.616   1.628   2.371 -0.7559  4.4553  0.8463
  720SOL     OW 2158   2.182   1.106   0.268 -0.0661 -0.1890  0.2106
  720SOL    HW1 2159   2.266   1.056   0.230 -0.1091  1.3543  1.9926
  720SOL    HW2 2160   2.143   1.065   0.350 -0.4844  0.8023 -2.8098
  721SOL     OW 2161   2.282   3.020   2.068  0.5255 -0.1367  0.0114
  721SOL    HW1 2162   2.254   3.076   1.987  0.4943 -0.4508  1.1631
  721SOL    HW2 2163   2.203   3.009   2.139  0.2816  1.9374 -1.5499
  722SOL     OW 2164   2.279   1.601   0.481 -0.0691  0.0273  0.6994
  722SOL    HW1 2165   2.316   1.564   0.390 -1.5211 -1.4752 -0.0507
  722SOL    HW2 2166   2.185   1.649   0.463 -2.4467 -1.1873 -0.5634
  723SOL     OW 2167   2.640   2.689   1.889 -0.1777  0.6058  0.2723
  723SOL    HW1 2168   2.667   2.768   1.956  1.7260 -1.9446  2.6924
  723SOL    HW2 2169   2.544   2.655   1.901  0.9785  1.5629 -0.3883
  724SOL     OW 2170   0.490   2.517   2.404 -0.2996 -0.3504 -0.3159
  724SOL    HW1 2171   0.401   2.540   2.457 -0.2737 -0.0080  1.9597
  724SOL    HW2 2172   0.559   2.471   2.467 -2.9809 -0.9966  0.5457
  725SOL     OW 2173   2.349   2.729   1.487 -0.1593  0.1549 -0.2472
  725SOL    HW1 2174   2.392   2.798   1.416 -0.8670 -0.3172  0.4344
  725SOL    HW2 2175   2.401   2.636   1.493 -0.6935  2.2036  0.6263
  726SOL     OW 2176   2.512   2.319   0.736  0.5114  0.1266 -0.3131
  726SOL    HW1 2177   2.478   2.417   0.710 -2.6403  2.7264  0.7849
  726SOL    HW2 2178   2.502   2.252   0.661 -2.2956  2.0665  2.0546
  727SOL     OW 2179   0.182   3.046   0.082 -0.2613  0.0465 -0.2532
  727SOL    HW1 2180   0.262   3.028   0.016 -0.7072 -1.2968 -0.3114
  727SOL    HW2 2181   0.105   3.094   0.036  0.7371 -1.9257 -1.8193
  728SOL     OW 2182   2.877   0.673   0.912  0.6169 -0.2936  0.0302
  728SOL    HW1 2183   2.801   0.655   0.843 -0.4207 -0.5887  0.9741
  728SOL    HW2 2184   2.851   0.657   1.012  0.8771 -3.3451 -0.2411
  729SOL     OW 2185   3.096   2.530   0.716 -0.7784 -0.1102  0.1399
  729SOL    HW1 2186   3.053   2.433   0.737 -2.0553 -0.1957  1.1259
  729SOL    HW2 2187   3.186   2.521   0.665  1.4833  0.3555 -1.0540
  730SOL     OW 2188   2.600   0.691   0.854  0.5005 -0.1802  0.6551
  730SOL    HW1 2189   2.593   0.793   0.854 -0.5630  0.2469  1.3622
  730SOL    HW2 2190   2.629   0.654   0.760  1.2315 -1.6101 -0.8522
  731SOL     OW 2191   0.026   2.153   2.418 -0.0717 -0.4617 -0.3630
  731SOL    HW1 2192   0.043   2.206   2.506  0.1598  1.5651 -0.6917
  731SOL    HW2 2193  -0.070   2.155   2.378 -0.7275 -2.9073  0.5718
  732SOL     OW 2194   1.210   2.839   1.977  0.1869 -0.5406  0.0611
  732SOL    HW1 2195   1.248   2.791   2.063  2.8060  0.9258 -0.3116
  732SOL    HW2 2196   1.199   2.770   1.897  0.4487  1.8710 -2.0000
  733SOL     OW 2197   3.010   0.622   2.228 -0.4880 -0.2839 -0.1345
  733SOL    HW1 2198   3.109   0.604   2.199  2.9443 -0.8695  1.8508
  733SOL    HW2 2199   2.948   0.541   2.203 -0.1374  2.1497  1.0234
  734SOL     OW 2200   1.399   0.374   2.698 -0.3610 -0.0190  0.6493
  734SOL    HW1 2201   1.411   0.469   2.733  0.1452  0.6573 -1.1967
  734SOL    HW2 2202   1.331   0.314   2.748 -1.4154  0.5667  1.0931
  735SOL     OW 2203   2.896   2.623   2.297  0.2808  0.3636  0.3837
  735SOL    HW1 2204   2.866   2.570   2.210 -0.4722 -1.9258 -1.2245
  735SOL    HW2 2205   2.980   2.680   2.273  1.7825  2.0341 -1.9822
  736SOL     OW 2206   0.924   0.398   2.564 -0.1493 -0.7870  0.6780
  736SOL    HW1 2207   0.826   0.417   2.573  0.0149  1.5069 -2.9831
  736SOL    HW2 2208   0.932   0.362   2.467 -0.9057  1.2835  0.4994
  737SOL     OW 2209   2.644   0.449   2.801  0.4916 -0.2380 -0.3794
  737SOL    HW1 2210   2.613   0.403   2.886  0.3093  1.9021 -0.1483
  737SOL    HW2 2211   2.748   0.435   2.791  0.0022 -3.1827 -0.3719
  738SOL     OW 2212   1.705   1.247   2.890 -0.3495 -0.0248 -0.1111
  738SOL    HW1 2213   1.808   1.234   2.875 -2.8894 -0.1626 -1.8157
  738SOL    HW2 2214   1.651   1.167   2.852  1.7057 -1.6094  1.1558
  739SOL     OW 2215   1.767   0.720   0.668 -0.0401  0.2279 -0.2209
  739SOL    HW1 2216   1.810   0.722   0.762  1.5303  0.3547  1.1753
  739SOL    HW2 2217   1.762   0.621   0.634  1.0420 -1.2888 -1.0046
  740SOL     OW 2218   1.970   1.915   2.378  0.3612  0.5676  0.1728
  740SOL    HW1 2219   2.033   1.839   2.417  3.2905  3.1306 -0.2223
  740SOL    HW2 2220   1.925   1.900   2.289  0.8494  2.7619 -0.3386
  741SOL     OW 2221   2.587   0.144   2.519  0.2006  0.3588 -0.0703
  741SOL    HW1 2222   2.685   0.125   2.529 -0.7393  1.0303 -1.2859
  741SOL    HW2 2223   2.547   0.141   2.421 -0.1991 -0.0653 -1.2994
  742SOL     OW 2224   2.193   1.386   0.167 -0.3250  0.0879  0.1293
  742SOL    HW1 2225   2.097   1.428   0.166 -2.5836  0.4734 -0.9017
  742SOL    HW2 2226   2.178   1.291   0.211  0.6391 -1.6063  1.3121
  743SOL     OW 2227   1.759   0.599   2.615  0.0844 -0.0172 -0.6721
  743SOL    HW1 2228   1.778   0.544   2.535  2.2871  0.9849  0.8390
  743SOL    HW2 2229   1.705   0.690   2.602  0.3954 -4.0985  0.7188
  744SOL     OW 2230   2.685   2.010   0.079 -0.5031  0.1225  0.5465
  744SOL    HW1 2231   2.589   2.044   0.074 -2.4706  0.3325  0.2997
  744SOL    HW2 2232   2.692   1.925   0.127 -1.4034  1.0323 -1.9379
  745SOL     OW 2233   2.168   2.635   2.153 -0.2396 -0.4590  0.2822
  745SOL    HW1 2234   2.069   2.651   2.178 -0.6584  1.0102  0.5844
  745SOL    HW2 2235   2.245   2.675   2.213  1.3988  0.5337 -2.6030
  746SOL     OW 2236  -0.004   2.655   1.725 -0.0608 -0.1922 -0.2926
  746SOL    HW1 2237   0.077   2.598   1.709 -0.3102  2.5920  2.3020
  746SOL    HW2 2238  -0.004   2.696   1.819  1.1029  0.2638  0.2575
  747SOL     OW 2239   3.065   1.755   1.697 -0.1864 -0.1949  0.8099
  747SOL    HW1 2240   2.999   1.681   1.669  0.3337  0.2174 -1.5774
  747SOL    HW2 2241   3.144   1.765   1.625 -2.0998 -1.3420  0.0933
  748SOL     OW 2242   1.812   2.721   2.907 -0.3292 -0.3925 -0.3948
  748SOL    HW1 2243   1.834   2.813   2.954 -1.8048  3.1835 -2.2880
  748SOL    HW2 2244   1.710   2.708   2.907  0.9918 -0.5926  0.0164
  749SOL     OW 2245   1.336   3.007   0.855  0.3834  0.0377  0.1824
  749SOL    HW1 2246   1.249   2.959   0.848  0.9623  0.7658  0.4119
  749SOL    HW2 2247   1.405   2.985   0.776 -0.5591  1.0299  2.1022
  750SOL     OW 2248   2.312   0.216   1.846  0.3900  0.1300 -0.3213
  750SOL    HW1 2249   2.322   0.274   1.760 -3.2881  1.2024 -2.2599
  750SOL    HW2 2250   2.302   0.272   1.937  0.3697  1.6651 -0.2139
  751SOL     OW 2251   0.812   2.020   2.846  0.0635 -0.2616 -0.2693
  751SOL    HW1 2252   0.901   2.038   2.899 -1.8631  0.2452  0.5995
  751SOL    HW2 2253   0.730   2.059   2.893  1.5195 -3.3403 -0.9121
  752SOL     OW 2254   1.313   0.822   1.267  0.5126 -0.7311  0.1693
  752SOL    HW1 2255   1.404   0.876   1.259  0.8958 -0.6402 -0.4823
  752SOL    HW2 2256   1.329   0.733   1.317 -0.9786 -0.5996 -0.9781
  753SOL     OW 2257   0.942   2.634   1.799  0.1923 -0.1475 -0.4568
  753SOL    HW1 2258   1.041   2.671   1.790 -0.4242 -1.9488 -1.5718
  753SOL    HW2 2259   0.875   2.704   1.831  0.0895 -0.9338  1.0468
  754SOL     OW 2260   1.156   1.169   3.016 -0.1009 -0.1826 -0.3029
  754SOL    HW1 2261   1.202   1.111   2.950  0.0799 -1.3649 -0.6271
  754SOL    HW2 2262   1.206   1.255   3.037  0.9000 -1.6749 -1.0984
  755SOL     OW 2263   2.014   0.498   2.241 -0.2678  0.5054 -0.4367
  755SOL    HW1 2264   2.064   0.407   2.224 -1.3734 -1.3434 -1.1839
  755SOL    HW2 2265   1.941   0.485   2.308  0.8904 -0.7160 -0.1833
  756SOL     OW 2266   2.586   0.985   2.971 -0.4255 -0.4059  0.1055
  756SOL    HW1 2267   2.682   0.983   3.016 -0.4282 -1.2424 -0.2005
  756SOL    HW2 2268   2.523   0.906   2.998  3.7009 -1.1170  0.6926
  757SOL     OW 2269   0.082   0.459   2.007  0.3060 -0.0950 -0.4581
  757SOL    HW1 2270   0.140   0.411   1.943 -2.2717  1.9131  0.2680
  757SOL    HW2 2271  -0.015   0.423   2.005 -1.8618 -0.1151  0.7779
  758SOL     OW 2272   2.259   0.122   1.464  0.1308  0.5942 -0.1422
  758SOL    HW1 2273   2.240   0.023   1.481  0.9677 -0.4968  1.9226
  758SOL    HW2 2274   2.319   0.135   1.380  0.7697  0.6447  0.1933
  759SOL     OW 2275   1.670   0.125   0.059 -0.0017 -0.0861 -0.3598
  759SOL    HW1 2276   1.618   0.100  -0.030 -4.0072 -0.2873  0.0687
  759SOL    HW2 2277   1.769   0.094   0.060 -2.9458 -2.1509 -0.1734
  760SOL     OW 2278   2.616   2.036   2.834  0.0289  0.3370 -0.4113
  760SOL    HW1 2279   2.632   1.945   2.883  1.7150  2.4765 -0.7028
  760SOL    HW2 2280   2.603   2.120   2.896  1.9982  2.4583 -1.2312
  761SOL     OW 2281   1.849   1.776   1.716 -0.0302 -0.0907  0.1561
  761SOL    HW1 2282   1.858   1.670   1.734  1.1330 -0.9565 -1.2773
  761SOL    HW2 2283   1.827   1.799   1.615  1.9166 -1.3184 -1.5324
  762SOL     OW 2284   0.498   2.360   0.968 -0.1876 -0.3272 -0.1777
  762SOL    HW1 2285   0.518   2.355   0.866 -0.4764 -1.3547  0.9484
  762SOL    HW2 2286   0.576   2.401   1.020  1.7768 -0.2455 -1.3388
  763SOL     OW 2287   2.079   1.598   2.991 -0.2091 -0.0400 -0.3381
  763SOL    HW1 2288   2.174   1.560   2.958  3.1984  1.5804 -1.6472
  763SOL    HW2 2289   2.030   1.535   3.061 -0.9549  0.2433 -0.7292
  764SOL     OW 2290   0.687   0.563   0.750  0.0740  0.2001  0.1132
  764SOL    HW1 2291   0.608   0.493   0.753 -2.2525  0.0194  0.3199
  764SOL    HW2 2292   0.774   0.530   0.803 -1.9982  0.6428  0.4276
  765SOL     OW 2293   0.753   0.236   0.777 -0.5346 -0.1902  0.4588
  765SOL    HW1 2294   0.800   0.299   0.713  1.1791 -2.6405 -1.0068
  765SOL    HW2 2295   0.742   0.271   0.876 -0.4358 -0.8039 -1.7664
  766SOL     OW 2296   2.864   2.132   2.996  0.0931 -0.1908  0.3087
  766SOL    HW1 2297   2.780   2.086   3.045 -2.4288 -1.5202 -0.3260
  766SOL    HW2 2298   2.920   2.189   3.062  1.0480  0.0979 -1.4542
  767SOL     OW 2299   2.787   1.682   0.589  0.1646  0.0265 -0.0045
  767SOL    HW1 2300   2.679   1.692   0.586  0.8743 -0.1505  0.9899
  767SOL    HW2 2301   2.836   1.740   0.660  0.5020 -1.2668  0.4611
  768SOL     OW 2302   1.014   0.077   0.216 -0.6831  0.1625 -0.4146
  768SOL    HW1 2303   0.981   0.065   0.316 -2.8694 -0.7297  0.7284
  768SOL    HW2 2304   1.117   0.072   0.199 -3.5451  2.0077 -0.5467
  769SOL     OW 2305   1.119   1.876   2.331  0.2360  0.1946 -0.2091
  769SOL    HW1 2306   1.034   1.930   2.348  0.9591 -0.7722 -2.1470
  769SOL    HW2 2307   1.182   1.857   2.414  2.2170  2.2575  1.1422
  770SOL     OW 2308   0.179   1.187   2.304  0.5876  0.5743  0.0168
  770SOL    HW1 2309   0.181   1.237   2.396  0.9773  0.8051 -1.7698
  770SOL    HW2 2310   0.086   1.182   2.261 -0.3534  0.5375  0.4857
  771SOL     OW 2311   3.052   2.834   1.921 -0.1455 -0.0567 -0.4849
  771SOL    HW1 2312   3.012   2.865   1.827  0.4879  1.7553 -1.0535
  771SOL    HW2 2313   3.015   2.883   2.005 -0.4749  2.9933 -0.4744
  772SOL     OW 2314   2.240   0.147   2.909 -0.0318 -0.3338  0.9077
  772SOL    HW1 2315   2.322   0.129   2.844  2.5979 -0.2938  0.7600
  772SOL    HW2 2316   2.262   0.215   2.980 -3.3429  0.9372  0.1930
  773SOL     OW 2317   0.660   2.116   2.404  0.1192  0.2068  0.1532
  773SOL    HW1 2318   0.624   2.197   2.350  2.3857  1.4811 -2.2562
  773SOL    HW2 2319   0.591   2.060   2.458 -1.5792 -1.8414  2.5504
  774SOL     OW 2320   2.059   0.003   2.603 -0.1245  0.5473  0.2155
  774SOL    HW1 2321   2.037   0.098   2.650  0.5953  0.4569  1.3412
  774SOL    HW2 2322   2.105  -0.057   2.666  0.6924  3.8879 -1.4453
  775SOL     OW 2323   2.579   2.956   2.300  0.4217 -0.7632  0.4913
  775SOL    HW1 2324   2.544   3.052   2.309 -0.3497  1.0498  1.6124
  775SOL    HW2 2325   2.666   2.934   2.352  0.2568 -1.5844 -0.5601
  776SOL     OW 2326   0.007   1.250   0.204 -0.1969  0.5376  0.5747
  776SOL    HW1 2327  -0.049   1.232   0.116 -0.0286  1.0912  0.9078
  776SOL    HW2 2328  -0.052   1.246   0.287 -3.0500 -1.1601  0.1467
  777SOL     OW 2329   0.377   2.876   0.335  0.0512 -0.4209 -0.3483
  777SOL    HW1 2330   0.271   2.885   0.331  1.1981 -1.5729  1.5347
  777SOL    HW2 2331   0.432   2.933   0.264  1.0053 -0.1363  1.3812
  778SOL     OW 2332   1.352   1.976   0.168  0.0940  0.1606 -0.0483
  778SOL    HW1 2333   1.297   2.005   0.253 -0.2607  1.1160 -0.2810
  778SOL    HW2 2334   1.404   2.054   0.132 -0.5473 -0.3002  1.2157
  779SOL     OW 2335   0.204   0.890   0.507  0.1159 -0.4063  0.6170
  779SOL    HW1 2336   0.178   0.788   0.495  1.8484 -3.2331  1.0705
  779SOL    HW2 2337   0.149   0.941   0.577  1.4633  0.8637 -1.8189
  780SOL     OW 2338   0.098   0.293   2.409 -0.1365 -0.6484 -0.4202
  780SOL    HW1 2339   0.057   0.376   2.452  2.7713 -0.5257 -0.8747
  780SOL    HW2 2340   0.202   0.298   2.396  0.9743 -1.6960 -2.3889
  781SOL     OW 2341   0.644   1.645   1.533  0.1253  0.0908 -0.3392
  781SOL    HW1 2342   0.727   1.591   1.568 -0.1975  0.3722  0.3736
  781SOL    HW2 2343   0.553   1.599   1.550 -0.7424  0.1485  2.1722
  782SOL     OW 2344   2.592   0.124   0.921 -0.4566 -0.3253  0.3385
  782SOL    HW1 2345   2.554   0.139   0.820 -0.0820 -1.9978 -1.8377
  782SOL    HW2 2346   2.582   0.200   0.987  0.6451 -2.2774  3.9899
  783SOL     OW 2347   2.791   0.694   2.477  0.1838  0.5848  0.5424
  783SOL    HW1 2348   2.764   0.747   2.560 -2.5816  2.4029 -0.2290
  783SOL    HW2 2349   2.727   0.618   2.460 -3.3944  0.9972 -2.5764
  784SOL     OW 2350   1.469   2.199   0.029 -0.7062  0.4500  0.2632
  784SOL    HW1 2351   1.516   2.289   0.069  2.6136  0.6968 -0.1696
  784SOL    HW2 2352   1.432   2.212  -0.064  1.1608 -0.9610  1.4009
  785SOL     OW 2353   2.104   0.310   0.063  0.4445 -0.4458  0.2040
  785SOL    HW1 2354   2.012   0.312   0.106  0.2689 -1.1912 -0.3039
  785SOL    HW2 2355   2.125   0.395   0.008  1.5250  0.7906 -1.9689
  786SOL     OW 2356   2.063   2.186   2.293 -0.1887 -0.1743  0.4649
  786SOL    HW1 2357   2.035   2.093   2.309 -1.3526 -0.2060 -1.7572
  786SOL    HW2 2358   2.140   2.178   2.222  0.9111 -0.9144  0.4032
  787SOL     OW 2359   1.339   0.467   0.934 -0.4722 -0.0554  0.8203
  787SOL    HW1 2360   1.293   0.558   0.942  1.5064  0.2962  0.0251
  787SOL    HW2 2361   1.419   0.477   0.863  2.5125 -1.0730  0.2429
  788SOL     OW 2362   1.289   0.405   0.086  0.0423  0.0111 -0.2122
  788SOL    HW1 2363   1.222   0.381   0.007  0.0568 -2.4453 -3.5017
  788SOL    HW2 2364   1.263   0.494   0.139 -0.3335  3.7743  1.3994
  789SOL     OW 2365   2.571   0.058   1.952 -0.0006  0.3675  0.2613
  789SOL    HW1 2366   2.480   0.099   1.914 -1.2767 -2.4881 -0.0768
  789SOL    HW2 2367   2.572  -0.039   1.917 -0.4770 -2.9385 -3.0001
  790SOL     OW 2368   2.616   2.806   0.800  0.7313  0.1198  0.5277
  790SOL    HW1 2369   2.675   2.823   0.717 -1.1597 -1.2253 -0.9646
  790SOL    HW2 2370   2.633   2.872   0.876 -1.4367 -1.1935 -3.0639
  791SOL     OW 2371   1.904   1.200   0.189  0.0797 -0.2704 -0.3486
  791SOL    HW1 2372   1.809   1.178   0.240 -2.3936  1.0373 -3.3182
  791SOL    HW2 2373   1.968   1.120   0.190  2.5384  1.3048  1.3091
  792SOL     OW 2374   0.445   1.783   2.170  0.2367  0.1575  0.9731
  792SOL    HW1 2375   0.538   1.750   2.205  0.7210 -1.7431 -0.3319
  792SOL    HW2 2376   0.375   1.799   2.242 -0.5012 -0.5172  0.0866
  793SOL     OW 2377   2.100   1.546   2.145  0.0042  0.0637 -0.1398
  793SOL    HW1 2378   2.170   1.611   2.107  1.0373 -0.1615  2.5700
  793SOL    HW2 2379   2.102   1.457   2.095 -0.2543 -0.9036 -1.6098
  794SOL     OW 2380   0.526   1.400   2.348 -0.2471  0.6229 -0.0487
  794SOL    HW1 2381   0.507   1.396   2.249  0.5539  0.1092 -0.3506
  794SOL    HW2 2382   0.485   1.484   2.391  0.2939  2.1852 -1.3458
  795SOL     OW 2383   2.516   2.258   1.845 -0.3413 -0.4815  0.0956
  795SOL    HW1 2384   2.519   2.229   1.944  0.5846  0.2438 -0.1352
  795SOL    HW2 2385   2.438   2.221   1.790 -1.7547  0.9812  0.8203
  796SOL     OW 2386   3.097   1.122   2.678  0.2002  0.1794 -0.0617
  796SOL    HW1 2387   2.992   1.133   2.679 -1.8140 -0.3058 -0.1214
  796SOL    HW2 2388   3.148   1.153   2.766 -1.1907 -1.1110  2.5034
  797SOL     OW 2389   0.734   0.648   1.394  0.1155 -0.5859 -0.2289
  797SOL    HW1 2390   0.818   0.690   1.438  0.3143  2.0362 -1.1679
  797SOL    HW2 2391   0.672   0.724   1.358 -0.4261 -0.5514 -2.5218
  798SOL     OW 2392   1.268   0.317   1.152 -0.2127 -0.3248  0.3221
  798SOL    HW1 2393   1.323   0.296   1.242  0.7519  1.1353  2.6991
  798SOL    HW2 2394   1.311   0.385   1.091  1.0226  0.9360 -1.3057
  799SOL     OW 2395   1.960   2.721   1.056  0.0622  0.0872  0.1047
  799SOL    HW1 2396   1.886   2.721   1.130 -0.2520 -0.0244 -2.3512
  799SOL    HW2 2397   1.926   2.724   0.963  0.6722 -0.4177  0.8384
  800SOL     OW 2398   3.053   0.649   1.822 -0.1459 -0.0462  0.2299
  800SOL    HW1 2399   2.968   0.683   1.867 -0.3021  0.8131  1.0570
  800SOL    HW2 2400   3.107   0.598   1.890  0.0936  0.2979  0.3860
  801SOL     OW 2401   1.975   2.236   0.100  0.5372  0.0315  0.9980
  801SOL    HW1 2402   1.880   2.217   0.059 -1.0628 -1.4588  1.0081
  801SOL    HW2 2403   2.046   2.166   0.072 -1.0190 -0.8207  0.2239
  802SOL     OW 2404   0.712   0.827   2.574 -0.4835 -0.0218  0.1835
  802SOL    HW1 2405   0.761   0.792   2.489  0.1538 -1.6714 -1.3382
  802SOL    HW2 2406   0.615   0.856   2.557  2.3799  0.4123  2.1946
  803SOL     OW 2407   0.947   0.042   0.863 -0.2300 -0.6024 -0.3860
  803SOL    HW1 2408   1.042   0.086   0.872  0.7196  2.1876  0.3961
  803SOL    HW2 2409   0.885   0.114   0.828 -1.2988  0.5533 -0.7351
  804SOL     OW 2410   0.279   0.036   2.137 -0.1141  0.4091 -0.0211
  804SOL    HW1 2411   0.267   0.141   2.135 -1.0055 -0.6045 -4.0617
  804SOL    HW2 2412   0.246  -0.009   2.048  0.3604  0.3226  1.6113
  805SOL     OW 2413   2.399   0.262   0.350 -0.1679 -0.0767 -0.4793
  805SOL    HW1 2414   2.463   0.331   0.389 -0.4336 -3.2653  0.7625
  805SOL    HW2 2415   2.391   0.271   0.248 -1.0570  3.4035  1.4834
  806SOL     OW 2416   0.625   2.414   1.686 -0.4223  0.6177  0.1598
  806SOL    HW1 2417   0.612   2.516   1.706 -0.0398  0.2253 -0.2086
  806SOL    HW2 2418   0.721   2.392   1.653 -0.8569 -1.4560  0.1437
  807SOL     OW 2419   2.476   0.905   0.422 -0.1532 -0.1573 -0.2244
  807SOL    HW1 2420   2.569   0.906   0.466  1.3663  0.4214 -3.2376
  807SOL    HW2 2421   2.481   0.928   0.320 -0.1111  0.0744  0.5164
  808SOL     OW 2422   0.564   2.045   2.964  0.4217  0.2140 -0.9407
  808SOL    HW1 2423   0.575   2.072   3.064 -2.6991 -0.2231  0.3108
  808SOL    HW2 2424   0.542   1.943   2.952 -0.9845 -2.5819 -0.9008
  809SOL     OW 2425   2.708   1.938   1.943  0.0759  0.3219 -0.0440
  809SOL    HW1 2426   2.792   1.996   1.964 -0.7138  0.8432 -0.5327
  809SOL    HW2 2427   2.671   1.947   1.845 -1.0659  2.0159 -1.0003
  810SOL     OW 2428   2.101   1.027   0.531 -0.0626  0.0394  0.5447
  810SOL    HW1 2429   2.128   0.967   0.608 -0.8654 -0.4174 -0.0500
  810SOL    HW2 2430   2.059   1.116   0.561  0.1761  0.2534 -1.6194
  811SOL     OW 2431   1.371   2.502   1.263 -0.1744  0.6059 -0.5548
  811SOL    HW1 2432   1.324   2.410   1.284  0.3952 -0.5858  0.4946
  811SOL    HW2 2433   1.313   2.568   1.214  1.0390 -0.5350  1.1940
  812SOL     OW 2434   1.440   0.833   1.923 -0.2453 -0.4117 -0.2415
  812SOL    HW1 2435   1.511   0.888   1.974  1.2334 -0.0709 -2.6718
  812SOL    HW2 2436   1.347   0.872   1.952 -0.8515 -4.3230 -1.8308
  813SOL     OW 2437   1.765   2.084   2.473  0.0543 -0.5235  0.4089
  813SOL    HW1 2438   1.840   2.011   2.472 -0.5585  0.5021 -1.5760
  813SOL    HW2 2439   1.712   2.067   2.383  0.7266 -2.7988  0.0875
  814SOL     OW 2440   2.892   1.539   2.841  0.3086 -0.9666  0.6629
  814SOL    HW1 2441   2.975   1.543   2.901  1.2351 -0.3991 -0.1234
  814SOL    HW2 2442   2.888   1.623   2.781  0.0414 -0.7081 -0.3147
  815SOL     OW 2443   2.176   2.895   2.789 -0.2046  0.5107  0.0901
  815SOL    HW1 2444   2.160   2.818   2.857 -0.3470 -1.6282  2.2192
  815SOL    HW2 2445   2.262   2.941   2.810 -0.8941 -1.4616  2.0523
  816SOL     OW 2446   1.635   0.334   1.669 -0.2424 -0.2242  0.0060
  816SOL    HW1 2447   1.680   0.239   1.663  1.1508 -1.4378 -1.2493
  816SOL    HW2 2448   1.538   0.334   1.704  3.0568 -0.6254 -0.5111
  817SOL     OW 2449   0.413   1.235   2.530 -0.0874 -0.4263  0.5411
  817SOL    HW1 2450   0.317   1.271   2.554  0.6300  2.5152  0.2222
  817SOL    HW2 2451   0.457   1.291   2.460  0.1464  1.2194  1.5904
  818SOL     OW 2452   1.953   0.802   0.479 -0.8778  0.2961  0.0761
  818SOL    HW1 2453   1.996   0.889   0.517 -0.2651  0.8888  0.2266
  818SOL    HW2 2454   1.866   0.782   0.528  0.5355  3.1820  2.3681
  819SOL     OW 2455   2.760   2.938   3.008 -0.4607  0.3289 -0.2020
  819SOL    HW1 2456   2.830   2.873   2.978 -1.5368  1.6515  0.2643
  819SOL    HW2 2457   2.672   2.923   2.956  1.9390  2.5450 -1.4445
  820SOL     OW 2458   1.261   1.119   0.652 -0.0176 -0.4850  0.2317
  820SOL    HW1 2459   1.247   1.223   0.665 -1.5310  0.1781  0.6378
  820SOL    HW2 2460   1.235   1.074   0.736  4.2174 -0.3199 -4.3520
  821SOL     OW 2461   3.088   1.328   0.665  0.2580  0.6464 -0.5232
  821SOL    HW1 2462   3.061   1.295   0.759 -2.0272  1.3608  1.8095
  821SOL    HW2 2463   3.154   1.406   0.655 -2.4585  0.5620  0.5123
  822SOL     OW 2464   2.535   1.747   2.451  0.0578  0.2603  0.7066
  822SOL    HW1 2465   2.539   1.834   2.503  1.5862 -1.0382 -1.2706
  822SOL    HW2 2466   2.454   1.739   2.383 -1.7910 -0.7018  0.8869
  823SOL     OW 2467   2.110   0.830   1.201 -0.1422  1.0741 -0.1497
  823SOL    HW1 2468   2.053   0.865   1.278 -0.2221 -1.5519 -0.7102
  823SOL    HW2 2469   2.064   0.851   1.113 -0.3709  2.3615 -0.4723
  824SOL     OW 2470   0.179   2.068   2.776  0.4605 -0.1435  0.4285
  824SOL    HW1 2471   0.144   1.990   2.832 -1.0673  3.2478 -2.5252
  824SOL    HW2 2472   0.261   2.047   2.715 -0.5605 -0.1854 -1.5461
  825SOL     OW 2473   1.262   1.096   0.296  0.4417 -0.1825 -0.7661
  825SOL    HW1 2474   1.300   1.184   0.268  0.6292  1.3741  0.0221
  825SOL    HW2 2475   1.167   1.103   0.332  1.2540 -1.4706  1.9082
  826SOL     OW 2476   1.896   0.685   1.609 -0.3257  0.1262 -0.0636
  826SOL    HW1 2477   1.979   0.630   1.644 -0.2555  0.5212  1.4016
  826SOL    HW2 2478   1.832   0.630   1.544 -1.5538 -0.0280  0.8837
  827SOL     OW 2479   0.683   1.357   0.292 -0.3565 -0.9454 -0.0215
  827SOL    HW1 2480   0.764   1.303   0.265 -2.0045 -0.0328 -0.3607
  827SOL    HW2 2481   0.608   1.290   0.312 -0.9999 -1.8715  0.1729
  828SOL     OW 2482   2.505   0.066   1.588 -0.0249  0.0172  0.1464
  828SOL    HW1 2483   2.407   0.092   1.561 -0.6835 -4.0375  1.4882
  828SOL    HW2 2484   2.508  -0.004   1.663 -1.2711  0.3839 -1.8291
  829SOL     OW 2485   2.817   2.440   2.972 -0.3668  0.2260  0.4719
  829SOL    HW1 2486   2.784   2.343   2.962  1.3806 -0.0670  0.1063
  829SOL    HW2 2487   2.764   2.495   3.045 -1.6283 -0.4690 -0.0448
  830SOL     OW 2488   2.857   0.949   2.985 -0.0325 -0.2662 -0.0552
  830SOL    HW1 2489   2.920   1.024   3.013 -2.4543 -1.6884  0.9670
  830SOL    HW2 2490   2.881   0.863   3.034 -1.5123  2.6538 -0.4391
  831SOL     OW 2491   0.113   0.635   0.427  0.0072 -0.4498  0.5468
  831SOL    HW1 2492   0.099   0.567   0.504 -3.4411  0.6415  0.0009
  831SOL    HW2 2493   0.117   0.599   0.329  0.3587  2.1390  0.9566
  832SOL     OW 2494   1.778   0.736   3.052 -0.5149  0.2509 -0.5347
  832SOL    HW1 2495   1.684   0.769   3.018 -1.2647 -1.0270 -0.6471
  832SOL    HW2 2496   1.789   0.634   3.053  2.3288  0.7489 -0.9736
  833SOL     OW 2497   2.424   2.158   0.515 -0.4720  0.4123  0.2640
  833SOL    HW1 2498   2.325   2.128   0.495  1.1917  0.9666 -0.2557
  833SOL    HW2 2499   2.483   2.073   0.499 -0.9214 -0.1000  1.3561
  834SOL     OW 2500   0.194   0.211   0.517  0.2886 -0.1705  0.6526
  834SOL    HW1 2501   0.230   0.115   0.541  0.5101  1.7593  0.7551
  834SOL    HW2 2502   0.189   0.228   0.409 -0.6605  1.1633 -3.1485
  835SOL     OW 2503   2.397   1.570   1.147  0.0829 -0.2253  0.2805
  835SOL    HW1 2504   2.397   1.658   1.200  2.2066 -1.9921  1.6468
  835SOL    HW2 2505   2.440   1.588   1.048  0.1774 -1.6750 -2.9282
  836SOL     OW 2506   1.608   0.823   2.518 -0.0165 -0.0311 -0.3632
  836SOL    HW1 2507   1.504   0.804   2.531  1.1331 -3.1299  2.2415
  836SOL    HW2 2508   1.634   0.838   2.418 -1.0270  0.6578  0.2333
  837SOL     OW 2509   1.735   0.145   0.601  0.2613 -0.6654 -0.1187
  837SOL    HW1 2510   1.674   0.193   0.673 -1.5325 -1.8460  0.0032
  837SOL    HW2 2511   1.719   0.180   0.507  1.8914 -1.0418  2.6669
  838SOL     OW 2512   1.141   1.554   2.790 -0.0904 -0.1341  0.1325
  838SOL    HW1 2513   1.114   1.511   2.880 -0.3924 -0.7079  0.3496
  838SOL    HW2 2514   1.115   1.490   2.713 -0.2385 -1.0075  0.9796
  839SOL     OW 2515   1.642   0.328   1.012  0.1187  0.3872 -0.3852
  839SOL    HW1 2516   1.692   0.383   1.086 -0.2648 -0.7239 -1.7175
  839SOL    HW2 2517   1.566   0.269   1.050  0.9499  0.8193 -0.4701
  840SOL     OW 2518   2.476   2.956   1.758  0.1190  0.0243  0.1904
  840SOL    HW1 2519   2.398   2.922   1.704  2.3670  0.2483  0.6218
  840SOL    HW2 2520   2.537   2.871   1.784  0.5908 -0.2825  0.9370
  841SOL     OW 2521   1.544   0.838   2.975 -0.5486  0.4441 -0.1057
  841SOL    HW1 2522   1.457   0.834   3.031  2.9483 -1.7366 -1.3770
  841SOL    HW2 2523   1.541   0.900   2.889  2.9022  3.1850 -0.1865
  842SOL     OW 2524   0.828   1.538   0.911 -0.4413 -1.0984 -0.2622
  842SOL    HW1 2525   0.792   1.623   0.957  0.5176  0.3950 -2.4519
  842SOL    HW2 2526   0.756   1.462   0.911 -2.0657 -1.8346  1.7444
  843SOL     OW 2527   0.052   0.031   1.376 -0.5764 -0.2117 -0.0972
  843SOL    HW1 2528   0.118   0.089   1.429 -2.0356  2.3673  0.0220
  843SOL    HW2 2529   0.072  -0.071   1.402  0.5459  0.0250 -0.3072
  844SOL     OW 2530   0.810   2.488   0.229 -0.1037  0.3261 -0.4321
  844SOL    HW1 2531   0.755   2.474   0.315 -0.6271  0.4858 -1.8662
  844SOL    HW2 2532   0.774   2.564   0.173 -3.2606  0.5191  1.8408
  845SOL     OW 2533   1.637   2.912   1.371 -0.2348  0.3974  0.9826
  845SOL    HW1 2534   1.684   2.896   1.460 -0.1936  1.7028  0.7361
  845SOL    HW2 2535   1.533   2.922   1.383 -0.3108 -1.6092 -0.3988
  846SOL     OW 2536   1.552   2.891   0.719  0.0304 -0.2012 -0.4690
  846SOL    HW1 2537   1.564   2.886   0.616  0.5952 -1.2171 -2.9377
  846SOL    HW2 2538   1.630   2.945   0.762  0.1651  0.6273  0.9491
  847SOL     OW 2539   2.039   1.665   0.357  0.2369  0.5134 -0.4919
  847SOL    HW1 2540   2.004   1.570   0.371 -0.9185 -2.8284 -2.6477
  847SOL    HW2 2541   1.966   1.731   0.320 -1.9134 -1.8769  2.7733
  848SOL     OW 2542   2.465   0.876   2.612  0.3079  0.3518 -0.1693
  848SOL    HW1 2543   2.423   0.959   2.660  0.5965  0.9415  1.0080
  848SOL    HW2 2544   2.405   0.795   2.595  0.2178  0.7926  1.1121
  849SOL     OW 2545   2.593   0.865   2.347  0.5450 -0.0725 -0.2360
  849SOL    HW1 2546   2.684   0.825   2.380  0.9705  0.3953 -0.2839
  849SOL    HW2 2547   2.529   0.874   2.429  0.4870 -0.0923  2.9309
  850SOL     OW 2548   1.534   0.162   1.268 -0.4701  0.1090 -0.2253
  850SOL    HW1 2549   1.516   0.127   1.169  2.3861  0.9208  0.4186
  850SOL    HW2 2550   1.546   0.095   1.348  3.3892  0.3959 -2.0653
  851SOL     OW 2551   0.482   1.788   0.536  0.4816  0.4183  0.0051
  851SOL    HW1 2552   0.549   1.851   0.581 -0.0790 -0.7412 -1.3964
  851SOL    HW2 2553   0.448   1.824   0.445 -2.7872 -0.4655  0.8752
  852SOL     OW 2554   0.800   2.114   1.665 -0.3400  0.3534 -0.5906
  852SOL    HW1 2555   0.836   2.210   1.654  1.5744 -0.0541 -1.9017
  852SOL    HW2 2556   0.738   2.096   1.750 -2.1206 -2.8907  0.1774
  853SOL     OW 2557   2.538   1.515   2.606 -0.2519  0.1304  0.0923
  853SOL    HW1 2558   2.455   1.462   2.574 -0.7175  1.8036 -1.7652
  853SOL    HW2 2559   2.542   1.597   2.549 -1.7166 -0.7228  3.1332
  854SOL     OW 2560   2.378   1.397   1.717 -0.2865  0.5203 -0.2074
  854SOL    HW1 2561   2.451   1.357   1.653  1.3482  0.2451 -1.7591
  854SOL    HW2 2562   2.329   1.325   1.771  0.2936  1.2752 -1.6555
  855SOL     OW 2563   2.020   2.413   1.037  0.0054  0.0767 -0.5208
  855SOL    HW1 2564   1.972   2.504   1.056 -0.7141 -1.0255 -2.6840
  855SOL    HW2 2565   2.118   2.415   1.080 -2.9225 -1.4382 -0.1771
  856SOL     OW 2566   1.320   1.449   0.949  0.0838  0.5909  0.1104
  856SOL    HW1 2567   1.371   1.534   0.982  0.1406 -0.2556  0.5076
  856SOL    HW2 2568   1.222   1.446   0.981  2.8333  0.8406 -0.2481
  857SOL     OW 2569   3.023   2.710   0.946  0.1568  0.4049 -0.1555
  857SOL    HW1 2570   3.041   2.656   0.861  1.9618  0.1466 -0.0662
  857SOL    HW2 2571   3.116   2.736   0.990 -2.1899 -2.0408  0.9373
  858SOL     OW 2572   2.337   2.097   1.705  0.1260  0.1204  0.0157
  858SOL    HW1 2573   2.248   2.082   1.652  0.2877  0.0257 -2.8977
  858SOL    HW2 2574   2.411   2.037   1.668 -1.1385  1.0029  1.0068
  859SOL     OW 2575   2.483   0.526   1.041  0.0795 -0.2638 -0.1147
  859SOL    HW1 2576   2.527   0.584   0.962  0.0190 -0.3168 -1.7662
  859SOL    HW2 2577   2.547   0.450   1.075  0.7698  2.0037 -1.8529
  860SOL     OW 2578   1.966   2.792   0.420  0.3310 -0.3052 -0.3697
  860SOL    HW1 2579   1.923   2.763   0.336  3.3156  1.7378  3.2777
  860SOL    HW2 2580   2.067   2.810   0.403  1.4796 -0.0881 -2.3521
  861SOL     OW 2581   1.005   2.398   2.866  0.1356  0.5517 -0.2445
  861SOL    HW1 2582   1.029   2.496   2.855 -1.2635  0.9878 -1.2647
  861SOL    HW2 2583   1.051   2.356   2.946  0.5290 -1.0749 -0.4036
  862SOL     OW 2584   2.863   2.551   1.633 -0.1961 -0.3885 -0.2347
  862SOL    HW1 2585   2.957   2.577   1.672  0.4210 -2.9975  2.1519
  862SOL    HW2 2586   2.830   2.628   1.572 -0.1203 -0.5935 -0.4414
  863SOL     OW 2587   1.852   2.718   0.193  0.5170  0.3553 -0.0579
  863SOL    HW1 2588   1.905   2.629   0.185  0.5406  0.3981 -0.1400
  863SOL    HW2 2589   1.761   2.718   0.142 -3.1367  0.8444  1.7106
  864SOL     OW 2590   1.968   1.223   2.829 -0.5263 -0.3543  0.3723
  864SOL    HW1 2591   1.967   1.183   2.733  2.9268  3.6637  1.0469
  864SOL    HW2 2592   2.027   1.172   2.893 -0.6519  2.0952  0.6089
  865SOL     OW 2593   2.187   1.904   0.653 -0.3689 -0.3763  0.1671
  865SOL    HW1 2594   2.241   1.939   0.736  0.3343  1.9997 -0.0598
  865SOL    HW2 2595   2.108   1.844   0.678  1.4480 -0.9157  0.6073
  866SOL     OW 2596   2.841   2.918   1.001  0.2180 -0.4858 -0.2086
  866SOL    HW1 2597   2.851   2.990   0.923 -1.6983 -0.1843  0.1395
  866SOL    HW2 2598   2.903   2.837   0.988 -1.7159  2.6039  0.2677
  867SOL     OW 2599   0.399   1.400   0.862  0.3676  0.3797 -0.0984
  867SOL    HW1 2600   0.363   1.313   0.827  3.6119  1.2767 -1.0705
  867SOL    HW2 2601   0.356   1.488   0.816  2.8166  1.1215  0.3835
  868SOL     OW 2602   0.760   1.901   2.105  0.3348 -0.1129 -0.8291
  868SOL    HW1 2603   0.751   1.913   2.208  1.8421  0.3352  0.4811
  868SOL    HW2 2604   0.745   1.981   2.049 -0.6491 -2.5644 -1.1653
  869SOL     OW 2605   2.548   1.937   1.670 -0.5013  0.0813 -0.1857
  869SOL    HW1 2606   2.646   1.978   1.647  0.6602 -2.4241  2.3045
  869SOL    HW2 2607   2.562   1.840   1.700  0.7560 -0.9373 -0.0270
  870SOL     OW 2608   2.293   2.684   1.206 -0.9516 -0.3261  0.4224
  870SOL    HW1 2609   2.259   2.584   1.202  3.3260  0.1456 -0.9384
  870SOL    HW2 2610   2.310   2.722   1.307  0.5569  2.2428  1.3511
  871SOL     OW 2611   3.100   2.254   0.564 -0.2600 -0.5992 -0.0035
  871SOL    HW1 2612   3.043   2.248   0.654  0.5196 -0.9132  2.0839
  871SOL    HW2 2613   3.040   2.268   0.476 -1.0749 -0.0908  0.9298
  872SOL     OW 2614   2.101   0.511   1.703  0.0256  0.5387  0.3638
  872SOL    HW1 2615   2.056   0.498   1.795 -2.5600 -3.2316 -1.1608
  872SOL    HW2 2616   2.198   0.476   1.703 -0.2969  1.5378  1.1451
  873SOL     OW 2617   1.741   2.134   3.075 -0.5970  0.1725 -0.2739
  873SOL    HW1 2618   1.650   2.156   3.113  0.6971 -0.9762 -0.1739
  873SOL    HW2 2619   1.730   2.135   2.972  0.3970 -0.4614  0.6146
  874SOL     OW 2620   0.675   2.439   0.748 -0.0501  0.0921 -0.5390
  874SOL    HW1 2621   0.634   2.534   0.756  1.5839  1.6718 -0.0849
  874SOL    HW2 2622   0.767   2.434   0.793 -2.7590  0.3531 -1.2096
  875SOL     OW 2623   2.306   1.518   1.425  0.3160 -0.6637 -0.6672
  875SOL    HW1 2624   2.389   1.563   1.475  0.6272 -2.2864  0.0631
  875SOL    HW2 2625   2.317   1.519   1.326 -0.5014  0.5192  3.3467
  876SOL     OW 2626   0.059   2.318   2.687  0.1736  0.0177  0.3801
  876SOL    HW1 2627   0.092   2.231   2.728 -1.8732 -0.2563 -2.2424
  876SOL    HW2 2628   0.096   2.405   2.739  0.4775  1.4748 -0.6628
  877SOL     OW 2629   2.969   2.693   0.499 -0.2571 -0.0853 -0.2849
  877SOL    HW1 2630   2.912   2.773   0.522  0.8503 -0.6294  0.6196
  877SOL    HW2 2631   3.009   2.644   0.579 -2.8354 -1.5711 -2.7432
  878SOL     OW 2632   2.785   1.537   2.230 -0.1310 -0.1016 -0.0655
  878SOL    HW1 2633   2.769   1.619   2.169 -1.4126 -1.6005  0.6432
  878SOL    HW2 2634   2.799   1.561   2.330  2.1237  1.7066  0.5154
  879SOL     OW 2635   2.425   0.096   1.252 -0.2146  0.1420 -0.8388
  879SOL    HW1 2636   2.430   0.000   1.293  0.8925 -0.0730 -0.7392
  879SOL    HW2 2637   2.361   0.101   1.173  1.3212 -1.2964 -0.8979
  880SOL     OW 2638   0.778   0.495   2.212  0.2771 -0.0509 -0.2898
  880SOL    HW1 2639   0.741   0.443   2.293 -0.9244 -0.8263 -0.0904
  880SOL    HW2 2640   0.790   0.443   2.125 -1.1664  2.5379 -1.6238
  881SOL     OW 2641   0.909   0.084   0.468  0.2346 -0.6117  0.3977
  881SOL    HW1 2642   0.934  -0.009   0.507 -0.2582  1.0424  1.3743
  881SOL    HW2 2643   0.803   0.090   0.459 -1.1963 -1.0443 -0.5751
  882SOL     OW 2644   2.722   1.712   1.698 -0.0393 -0.1608  0.0397
  882SOL    HW1 2645   2.768   1.651   1.631 -1.4636 -0.0071  0.4432
  882SOL    HW2 2646   2.729   1.677   1.800  0.9959 -1.5855  1.5929
  883SOL     OW 2647   0.874   0.509   0.941  0.0318  0.7616  0.3257
  883SOL    HW1 2648   0.915   0.599   0.980 -0.4147  2.6989 -0.0186
  883SOL    HW2 2649   0.844   0.439   1.011  1.7887  0.6149 -2.1427
  884SOL     OW 2650   1.122   1.716   1.175  0.5269  0.1694  0.0967
  884SOL    HW1 2651   1.087   1.631   1.118 -0.7487 -1.4990  1.4245
  884SOL    HW2 2652   1.111   1.806   1.133 -2.3261 -1.7859 -1.2115
  885SOL     OW 2653   2.323   1.788   2.285  0.2065 -0.3584 -0.2794
  885SOL    HW1 2654   2.242   1.757   2.339  0.5365  3.1598 -1.1243
  885SOL    HW2 2655   2.323   1.890   2.267 -0.8492 -1.4358  2.8012
  886SOL     OW 2656   2.593   0.370   1.820  0.0565 -0.3092 -0.2653
  886SOL    HW1 2657   2.589   0.309   1.905  1.0368 -0.0281  2.2324
  886SOL    HW2 2658   2.675   0.430   1.811 -1.8435 -2.3981  0.6480
  887SOL     OW 2659   0.113   1.980   1.327 -0.1673 -0.2164  0.2728
  887SOL    HW1 2660   0.090   1.935   1.238  0.9760 -1.3186  2.5944
  887SOL    HW2 2661   0.088   2.080   1.330 -1.3868 -1.2783  0.4328
  888SOL     OW 2662   0.555   1.231   1.532 -0.7213 -0.0644  0.5835
  888SOL    HW1 2663   0.594   1.283   1.447  0.3501 -0.9924 -0.7915
  888SOL    HW2 2664   0.516   1.142   1.505 -2.1067  1.9942  1.1147
  889SOL     OW 2665   0.821   2.502   2.154 -0.2409  0.2573 -0.3827
  889SOL    HW1 2666   0.745   2.429   2.138  1.0883 -0.2402 -1.0468
  889SOL    HW2 2667   0.897   2.490   2.084 -1.6517  0.6337  0.7967
  890SOL     OW 2668   2.409   2.489   0.230  0.0492 -0.1066 -0.3508
  890SOL    HW1 2669   2.431   2.563   0.162 -0.5167  0.1168  1.1397
  890SOL    HW2 2670   2.351   2.520   0.310  2.1312  2.6257 -0.7380
  891SOL     OW 2671   2.504   1.702   0.615  0.0804  0.2148  0.2064
  891SOL    HW1 2672   2.482   1.671   0.710 -1.3292 -0.9349  0.1235
  891SOL    HW2 2673   2.443   1.675   0.537  0.4756  1.1034 -0.1736
  892SOL     OW 2674   0.365   0.269   2.338 -0.4670 -0.0769  0.0926
  892SOL    HW1 2675   0.406   0.361   2.315 -1.4611 -1.4131 -0.2198
  892SOL    HW2 2676   0.424   0.188   2.305  0.3779 -0.4388 -0.5535
  893SOL     OW 2677   1.636   0.217   2.726 -0.2096  0.7281  0.2864
  893SOL    HW1 2678   1.708   0.288   2.751  1.4063 -1.3430 -2.0125
  893SOL    HW2 2679   1.547   0.261   2.719  0.7995 -1.3062 -0.2336
  894SOL     OW 2680   2.191   2.068   0.053 -0.3448 -0.4390 -0.0772
  894SOL    HW1 2681   2.178   2.004  -0.032  1.8189  0.5994 -2.0597
  894SOL    HW2 2682   2.201   2.010   0.143  0.8391 -1.8806  0.6828
  895SOL     OW 2683   2.834   1.469   0.906  0.4363 -0.4632  0.1452
  895SOL    HW1 2684   2.925   1.425   0.933 -1.5000  1.6082 -0.9575
  895SOL    HW2 2685   2.832   1.569   0.926  1.8187  0.7467  0.5926
  896SOL     OW 2686   1.769   1.815   1.181 -0.8213 -0.2706 -0.4777
  896SOL    HW1 2687   1.798   1.722   1.150 -0.2653  1.2838 -0.7187
  896SOL    HW2 2688   1.680   1.848   1.144 -1.6286 -0.2793  0.2019
  897SOL     OW 2689   0.295   0.552   3.041  0.6409 -0.1836 -0.0996
  897SOL    HW1 2690   0.235   0.594   2.965  0.3473  1.6938 -0.5574
  897SOL    HW2 2691   0.389   0.597   3.049 -2.2001  0.4104 -1.4397
  898SOL     OW 2692   0.614   2.882   1.042 -0.4095 -0.2049  0.1081
  898SOL    HW1 2693   0.644   2.978   1.016 -1.3443 -1.6006 -0.1415
  898SOL    HW2 2694   0.692   2.824   1.085 -1.6097  1.7912 -0.6493
  899SOL     OW 2695   2.840   0.870   1.361  0.7934  1.1653 -0.1983
  899SOL    HW1 2696   2.795   0.869   1.270 -0.0460 -1.0949  1.8142
  899SOL    HW2 2697   2.937   0.895   1.356 -1.6093 -0.8042 -1.1021
  900SOL     OW 2698   1.008   2.512   2.428  0.4404 -0.2755  0.3447
  900SOL    HW1 2699   0.935   2.481   2.358  1.6246  2.0872  0.8928
  900SOL    HW2 2700   1.007   2.472   2.517 -1.2454  3.6525 -0.9995
  901SOL     OW 2701   1.900   2.387   1.365  0.2455 -0.2536  0.1390
  901SOL    HW1 2702   1.899   2.328   1.284  1.1065  1.0708 -1.3393
  901SOL    HW2 2703   1.995   2.397   1.405 -1.4419 -0.6990  3.0589
  902SOL     OW 2704   2.560   1.640   1.467  0.4329 -0.0181 -0.6459
  902SOL    HW1 2705   2.605   1.664   1.558 -1.5358 -0.1502  0.0936
  902SOL    HW2 2706   2.629   1.632   1.390  2.7848  0.9744  0.4522
  903SOL     OW 2707   0.260   2.442   1.970 -0.3836 -0.0547  0.1180
  903SOL    HW1 2708   0.163   2.404   1.972  1.4468  0.0252  0.8536
  903SOL    HW2 2709   0.256   2.528   1.916 -0.0805 -0.9939  0.7200
  904SOL     OW 2710   1.982   0.786   2.579  0.3635  0.0947 -0.1969
  904SOL    HW1 2711   1.897   0.736   2.601  0.0204 -1.4927  1.0829
  904SOL    HW2 2712   2.008   0.790   2.476  1.9282  0.9271  0.3207
  905SOL     OW 2713   2.868   0.109   2.525 -1.1800  0.2185  0.4124
  905SOL    HW1 2714   2.929   0.037   2.565 -1.6104  0.9421  0.5246
  905SOL    HW2 2715   2.928   0.176   2.479 -2.5184 -0.8483  0.3332
  906SOL     OW 2716   0.141   1.679   1.915  0.4512  0.8493  0.5221
  906SOL    HW1 2717   0.070   1.699   1.845 -0.5862  1.8243 -1.9901
  906SOL    HW2 2718   0.232   1.673   1.869  1.8225 -0.4072 -0.1958
  907SOL     OW 2719   0.212   2.427   0.983  0.2813  0.0348  0.3668
  907SOL    HW1 2720   0.304   2.379   0.975 -1.0277  0.2759 -0.3636
  907SOL    HW2 2721   0.205   2.514   0.928  0.0243  0.3124  0.4147
  908SOL     OW 2722   2.807   3.035   0.367 -0.1995 -0.0707  0.7541
  908SOL    HW1 2723   2.710   3.033   0.348  0.5451  1.0211  1.3662
  908SOL    HW2 2724   2.866   2.989   0.298  0.3741  1.5294  2.3588
  909SOL     OW 2725   0.851   1.058   2.655  0.1776 -0.0017 -0.3380
  909SOL    HW1 2726   0.790   0.974   2.636 -0.4003 -1.9750 -1.9079
  909SOL    HW2 2727   0.904   1.086   2.566 -0.8374  0.9876 -1.1266
  910SOL     OW 2728   1.803   1.883   2.157  0.2768  0.3174 -0.0973
  910SOL    HW1 2729   1.859   1.894   2.067 -1.8665 -2.5984 -0.1078
  910SOL    HW2 2730   1.727   1.956   2.172  1.3815 -0.4817 -0.5361
  911SOL     OW 2731   1.826   2.916   1.565 -0.4934 -0.0072 -0.1616
  911SOL    HW1 2732   1.879   2.901   1.480 -1.0324 -0.6072 -1.3315
  911SOL    HW2 2733   1.821   2.833   1.628 -0.1551  1.8945  1.2631
  912SOL     OW 2734   2.850   1.011   0.704 -0.4432 -0.0906  0.0152
  912SOL    HW1 2735   2.889   0.960   0.787  3.2587  1.0678  1.3382
  912SOL    HW2 2736   2.793   1.097   0.724  0.0084  0.4367 -1.4094
  913SOL     OW 2737   2.523   1.282   1.521  0.1350  0.1847  0.4839
  913SOL    HW1 2738   2.548   1.187   1.504 -0.6428  2.9676 -1.9544
  913SOL    HW2 2739   2.593   1.351   1.483  0.8773 -1.1558 -3.3550
  914SOL     OW 2740   2.789   0.612   1.158 -0.0443 -0.2311  0.0760
  914SOL    HW1 2741   2.809   0.517   1.208  0.3061 -1.4654  0.8201
  914SOL    HW2 2742   2.685   0.627   1.163 -1.6954 -3.2174  3.2711
  915SOL     OW 2743   1.217   0.724   1.029 -0.4556 -0.0149  0.2262
  915SOL    HW1 2744   1.258   0.764   1.112 -1.2172  0.4212  0.7402
  915SOL    HW2 2745   1.118   0.688   1.028 -0.6633  0.6199 -0.4775
  916SOL     OW 2746   0.625   0.041   0.650 -0.0204 -0.5508  0.0226
  916SOL    HW1 2747   0.662   0.104   0.723  2.9208  0.3460  0.0874
  916SOL    HW2 2748   0.573   0.108   0.585  0.4982  1.4361 -0.0566
  917SOL     OW 2749   2.865   2.578   2.013 -0.7085  0.4111 -0.0067
  917SOL    HW1 2750   2.768   2.609   1.984 -1.8356  0.1219 -0.2850
  917SOL    HW2 2751   2.933   2.600   1.940  0.2926  1.5610  2.7911
  918SOL     OW 2752   1.004   2.114   2.990  0.2657  0.1236  0.5242
  918SOL    HW1 2753   0.984   2.188   3.060  0.2535  1.3728 -0.6063
  918SOL    HW2 2754   1.085   2.142   2.930  0.4772  1.4096  3.1300
  919SOL     OW 2755   0.812   1.682   2.873 -0.0218 -0.0451  0.0054
  919SOL    HW1 2756   0.884   1.737   2.824  0.5632 -0.3816  1.2984
  919SOL    HW2 2757   0.782   1.597   2.825 -1.4845  0.9697  0.4345
  920SOL     OW 2758   1.251   1.811   2.565  0.0883  0.5167 -0.0607
  920SOL    HW1 2759   1.340   1.767   2.532 -3.1426 -1.9681 -0.8367
  920SOL    HW2 2760   1.179   1.744   2.600  1.8316 -0.5842 -1.7091
  921SOL     OW 2761   1.106   3.097   2.615  0.0383  0.3834 -0.1670
  921SOL    HW1 2762   1.093   3.078   2.511 -1.8763 -3.5448 -1.9701
  921SOL    HW2 2763   1.018   3.114   2.662  2.8782 -1.8900  0.5487
  922SOL     OW 2764   2.231   2.389   2.776  0.3850  0.2323 -0.1857
  922SOL    HW1 2765   2.219   2.290   2.767 -0.4234  2.8755 -2.5642
  922SOL    HW2 2766   2.178   2.454   2.716 -0.6846  1.2057 -0.5756
  923SOL     OW 2767   1.266   2.654   0.274  0.1669 -0.2013 -0.0177
  923SOL    HW1 2768   1.328   2.708   0.331 -0.3550 -1.2468  1.6661
  923SOL    HW2 2769   1.301   2.560   0.254 -1.3189 -0.6169  0.6967
  924SOL     OW 2770   2.869   1.698   0.089 -0.6229 -0.0389 -0.1152
  924SOL    HW1 2771   2.802   1.663   0.019  0.1207 -1.5539  1.1717
  924SOL    HW2 2772   2.942   1.632   0.114  0.4767 -0.2002 -1.0073
  925SOL     OW 2773   0.054   2.877   1.470 -0.6515  0.1878 -0.0329
  925SOL    HW1 2774  -0.004   2.835   1.544  2.1964  2.0664  0.3872
  925SOL    HW2 2775   0.058   2.823   1.385  2.4815  0.0121  0.6350
  926SOL     OW 2776   1.346   2.825   1.343 -0.1163 -0.1906 -0.4471
  926SOL    HW1 2777   1.389   2.833   1.251 -1.7027 -3.4768 -1.8296
  926SOL    HW2 2778   1.335   2.917   1.387 -0.6912 -0.6431  0.7031
  927SOL     OW 2779   0.330   2.701   1.758 -0.3358 -0.0107  0.0452
  927SOL    HW1 2780   0.303   2.628   1.694  0.6475  1.1205 -1.1139
  927SOL    HW2 2781   0.299   2.795   1.729 -0.6578  0.0817  2.1128
  928SOL     OW 2782   1.611   2.087   2.227 -0.4604  0.0420  0.0768
  928SOL    HW1 2783   1.611   2.163   2.158 -3.7929 -1.1140 -0.9004
  928SOL    HW2 2784   1.517   2.070   2.268  1.8581 -0.2480 -2.8421
  929SOL     OW 2785   2.446   2.512   2.873  0.3632 -0.0143 -0.6832
  929SOL    HW1 2786   2.356   2.481   2.830  1.2963  0.9854  0.5776
  929SOL    HW2 2787   2.528   2.511   2.806  1.6135 -3.0290  0.3261
  930SOL     OW 2788   2.143   1.987   1.096 -0.1188  0.8929 -0.3963
  930SOL    HW1 2789   2.145   1.906   1.164 -2.8354 -2.8987  2.5551
  930SOL    HW2 2790   2.214   2.059   1.123  2.4137 -0.7245 -0.3921
  931SOL     OW 2791   0.533   1.736   2.653 -0.2263  0.0818  0.5855
  931SOL    HW1 2792   0.540   1.758   2.756  1.1065 -1.6203  1.9855
  931SOL    HW2 2793   0.610   1.670   2.636 -0.0681 -0.4971  0.1416
  932SOL     OW 2794   0.460   0.120   3.074  0.5713 -0.1646  0.1136
  932SOL    HW1 2795   0.528   0.183   3.132 -0.3493  1.0604  0.8186
  932SOL    HW2 2796   0.494   0.028   3.044  2.0092  2.1497 -0.0977
  933SOL     OW 2797   0.928   0.821   3.043  0.3557 -0.0891  0.1167
  933SOL    HW1 2798   0.833   0.793   3.073 -1.7468  0.3386  1.1507
  933SOL    HW2 2799   0.927   0.920   3.009  1.1303 -0.6767 -0.5874
  934SOL     OW 2800   0.789   2.974   2.655 -0.4093 -0.6896  0.1308
  934SOL    HW1 2801   0.753   2.912   2.579  1.6995 -0.5089  0.5317
  934SOL    HW2 2802   0.842   2.924   2.726  2.2679 -1.1725 -0.0955
  935SOL     OW 2803   0.019   0.501   0.853 -0.0529  0.2082 -0.7526
  935SOL    HW1 2804   0.008   0.476   0.755  0.6517  2.9992  2.3960
  935SOL    HW2 2805  -0.040   0.580   0.889  0.3762  0.5290  0.1032
  936SOL     OW 2806   1.097   2.830   0.100  0.0828 -0.0227 -0.0266
  936SOL    HW1 2807   1.149   2.908   0.046 -1.1913  1.6472 -2.2669
  936SOL    HW2 2808   1.157   2.766   0.151  0.8035  0.7095  0.2818
  937SOL     OW 2809   1.828   2.674   2.081 -0.1401 -0.5725  0.3096
  937SOL    HW1 2810   1.727   2.702   2.090 -0.2279  1.6977 -0.7655
  937SOL    HW2 2811   1.887   2.736   2.019  2.3738 -2.6345  3.1777
  938SOL     OW 2812   2.776   2.058   1.641  0.1669 -0.0231 -0.2092
  938SOL    HW1 2813   2.743   2.158   1.630 -0.3449 -0.7400  0.4762
  938SOL    HW2 2814   2.863   2.052   1.697 -1.8343 -0.7568  0.1947
  939SOL     OW 2815   2.816   1.185   2.412  0.1058 -0.2346 -0.0930
  939SOL    HW1 2816   2.884   1.193   2.338  0.2700  0.9945 -2.3980
  939SOL    HW2 2817   2.854   1.119   2.483  1.3138 -0.2275  1.9552
  940SOL     OW 2818   1.074   0.442   2.792 -0.4691 -0.0519 -0.1798
  940SOL    HW1 2819   1.134   0.356   2.805 -0.2652 -1.1793 -2.1227
  940SOL    HW2 2820   1.014   0.444   2.708  0.8557 -1.1295  1.0167
  941SOL     OW 2821   0.023   2.784   2.298 -0.2544  0.0089  0.1377
  941SOL    HW1 2822   0.082   2.704   2.259 -0.2931 -0.8481 -1.1995
  941SOL    HW2 2823   0.079   2.857   2.341 -0.6020  0.9904  1.7103
  942SOL     OW 2824   0.134   0.077   2.574 -0.2076 -0.5999 -0.1252
  942SOL    HW1 2825   0.203   0.104   2.648 -1.2760  0.0349 -0.9614
  942SOL    HW2 2826   0.118   0.152   2.499  0.6315 -1.0952 -0.6512
  943SOL     OW 2827   2.103   1.677   2.399  0.1643 -0.5937 -0.3051
  943SOL    HW1 2828   2.087   1.614   2.312 -2.9132  0.6383 -1.9829
  943SOL    HW2 2829   2.125   1.621   2.487 -0.0078  1.1889  2.8822
  944SOL     OW 2830   2.160   2.375   1.468 -0.0737 -0.1504 -0.1480
  944SOL    HW1 2831   2.241   2.415   1.516 -2.7347 -2.0248 -1.3942
  944SOL    HW2 2832   2.117   2.289   1.505 -0.6483  1.3666  0.7784
  945SOL     OW 2833   0.665   1.570   0.136  0.3807  0.1365  0.7007
  945SOL    HW1 2834   0.582   1.569   0.073 -3.1830  1.2334  1.3420
  945SOL    HW2 2835   0.669   1.484   0.196 -0.2409  0.0761 -0.2784
  946SOL     OW 2836   0.434   0.960   2.512  0.3064 -0.1172 -0.2769
  946SOL    HW1 2837   0.352   0.916   2.468  0.3892 -0.8434  2.9402
  946SOL    HW2 2838   0.434   1.064   2.495 -2.6794 -1.7202 -2.9345
  947SOL     OW 2839   1.512   0.486   3.061 -0.0525 -0.4536  0.2664
  947SOL    HW1 2840   1.473   0.518   2.963 -1.5426  0.2921 -0.0402
  947SOL    HW2 2841   1.437   0.460   3.129 -0.1145 -0.7424  0.5331
  948SOL     OW 2842   1.862   3.007   2.132 -0.3844 -0.0618 -0.9105
  948SOL    HW1 2843   1.892   2.948   2.049  0.6355  1.3312  0.1814
  948SOL    HW2 2844   1.825   2.955   2.210 -3.4340 -0.8970 -1.8418
  949SOL     OW 2845   0.648   2.503   0.469  0.2340  0.1259  0.4667
  949SOL    HW1 2846   0.681   2.602   0.474 -2.9284  1.0395 -0.8080
  949SOL    HW2 2847   0.681   2.445   0.551 -0.4378 -2.0165  0.0388
  950SOL     OW 2848   0.218   2.226   3.019  0.5507 -0.0720  0.5069
  950SOL    HW1 2849   0.168   2.315   3.035 -2.1928 -1.5080  0.7239
  950SOL    HW2 2850   0.202   2.187   2.925  1.6959 -2.6801 -1.5934
  951SOL     OW 2851   1.160   2.635   2.815 -0.5582  0.0388  0.5240
  951SOL    HW1 2852   1.206   2.565   2.876  1.4426 -2.0482 -0.5057
  951SOL    HW2 2853   1.234   2.690   2.760  0.4997 -0.4887 -0.3051
  952SOL     OW 2854   0.032   1.674   0.413  0.2441  0.1075 -0.4327
  952SOL    HW1 2855   0.057   1.775   0.414  0.1677 -1.6940  0.2510
  952SOL    HW2 2856   0.118   1.613   0.447  1.0280 -3.4784 -1.5142
  953SOL     OW 2857   2.565   1.763   0.228  0.1034 -0.0210  0.2643
  953SOL    HW1 2858   2.545   1.663   0.237 -1.5242 -0.3247 -1.0146
  953SOL    HW2 2859   2.514   1.811   0.150 -0.8665 -1.5772 -0.0957
  954SOL     OW 2860   2.209   0.553   0.965  0.4245 -0.5061 -0.5772
  954SOL    HW1 2861   2.186   0.566   0.868 -1.0590  1.7031  0.8742
  954SOL    HW2 2862   2.305   0.524   0.983 -1.5128 -1.5021 -1.6080
  955SOL     OW 2863   0.136   2.571   1.385  0.5104  0.2147  0.1500
  955SOL    HW1 2864   0.037   2.584   1.357 -1.2086  1.7222 -1.0605
  955SOL    HW2 2865   0.200   2.607   1.314 -1.4107 -2.1756  1.1236
  956SOL     OW 2866   2.810   2.446   2.504  0.0031  0.1134 -0.1030
  956SOL    HW1 2867   2.837   2.347   2.489 -0.9300 -0.0123 -0.0587
  956SOL    HW2 2868   2.861   2.505   2.440  1.3350 -0.2974  0.2616
  957SOL     OW 2869   1.625   2.128   2.800 -1.0529 -0.1003 -0.1989
  957SOL    HW1 2870   1.601   2.041   2.749  1.4953  1.6509  0.0834
  957SOL    HW2 2871   1.713   2.172   2.764  2.3307 -2.4789  0.0080
  958SOL     OW 2872   2.568   2.289   2.977 -0.5772  0.0091 -0.2282
  958SOL    HW1 2873   2.543   2.376   2.924  2.4420  0.9312  0.2155
  958SOL    HW2 2874   2.511   2.271   3.062 -1.1039 -2.0664 -0.1476
  959SOL     OW 2875   0.298   2.780   0.032 -0.0397 -0.3073  0.0026
  959SOL    HW1 2876   0.192   2.792   0.031 -0.9842  0.2840 -1.3884
  959SOL    HW2 2877   0.332   2.709   0.097 -1.6799  0.3961 -1.2340
  960SOL     OW 2878   1.982   0.487   1.948 -0.2085  0.1518  0.6364
  960SOL    HW1 2879   1.931   0.575   1.921 -0.8104  0.5541 -1.9256
  960SOL    HW2 2880   2.008   0.487   2.048 -1.3979  0.8765 -1.5656
  961SOL     OW 2881   2.555   1.871   1.060 -0.1503 -0.5392  0.1322
  961SOL    HW1 2882   2.585   1.971   1.053  0.5920  0.9852 -3.3425
  961SOL    HW2 2883   2.498   1.853   1.144  1.1718 -0.1772 -0.4497
  962SOL     OW 2884   1.295   0.911   0.053 -0.2772  0.0634 -1.1712
  962SOL    HW1 2885   1.252   0.915  -0.042  0.6229  0.4534  1.7064
  962SOL    HW2 2886   1.276   0.999   0.110  0.5611 -0.2921  1.7624
  963SOL     OW 2887   2.292   2.533   1.764  0.1406  0.0124 -0.1693
  963SOL    HW1 2888   2.223   2.466   1.808 -0.8438 -3.4839  1.9784
  963SOL    HW2 2889   2.309   2.616   1.829 -2.1338  2.0657  0.7681
  964SOL     OW 2890   2.376   0.395   1.642 -0.3002 -0.3300  0.1448
  964SOL    HW1 2891   2.467   0.393   1.698  1.9196  0.2787 -0.2673
  964SOL    HW2 2892   2.390   0.384   1.544 -1.5763 -1.8149  0.7100
  965SOL     OW 2893   2.608   2.976   0.162 -0.1089  0.3859  0.1963
  965SOL    HW1 2894   2.685   2.964   0.095  0.3222  0.3018  0.5976
  965SOL    HW2 2895   2.521   3.002   0.113  0.3231 -0.4143 -2.5499
  966SOL     OW 2896   2.564   2.561   2.336  0.4012 -0.3149  0.6708
  966SOL    HW1 2897   2.637   2.612   2.388 -0.9644  3.6485 -0.0785
  966SOL    HW2 2898   2.488   2.628   2.313  0.3779 -0.7885 -2.4960
  967SOL     OW 2899   2.783   2.844   2.445 -0.9099  0.7748 -0.5495
  967SOL    HW1 2900   2.832   2.794   2.368 -0.4241 -1.0456  0.0575
  967SOL    HW2 2901   2.852   2.883   2.511  0.5622 -3.1952  0.4170
  968SOL     OW 2902   1.940   1.070   2.602 -0.0543 -0.2340 -0.3106
  968SOL    HW1 2903   1.854   1.119   2.563 -2.2464  3.3942 -1.1319
  968SOL    HW2 2904   1.942   0.965   2.584  1.8566 -0.4754 -0.6480
  969SOL     OW 2905   2.759   2.475   1.133  0.0411  0.5797  0.2349
  969SOL    HW1 2906   2.725   2.463   1.035  0.6143  0.2223 -0.4416
  969SOL    HW2 2907   2.826   2.403   1.161 -2.2021 -0.1402  0.2060
  970SOL     OW 2908   1.051   2.120   1.808  0.2397 -0.2739 -0.2822
  970SOL    HW1 2909   0.968   2.103   1.748 -0.6685 -1.5354  0.4107
  970SOL    HW2 2910   1.019   2.142   1.903  0.0303 -1.0206 -0.6978
  971SOL     OW 2911   2.967   2.048   2.048  0.7010 -0.4390  0.1164
  971SOL    HW1 2912   2.954   2.147   2.061  0.3079  0.6840 -0.1258
  971SOL    HW2 2913   2.985   2.031   1.950 -1.3170 -1.1557 -1.1801
  972SOL     OW 2914   1.994   2.476   0.227 -0.0660 -0.0756 -0.0443
  972SOL    HW1 2915   1.975   2.385   0.171  1.2507 -1.2339  0.6450
  972SOL    HW2 2916   2.031   2.462   0.320 -1.8728  0.1255  1.4776
  973SOL     OW 2917   1.234   1.038   1.906 -0.0024  0.4248 -0.0297
  973SOL    HW1 2918   1.152   1.035   1.837 -2.9367  0.2246  1.6844
  973SOL    HW2 2919   1.243   1.131   1.950 -0.9260  0.7087  0.7540
  974SOL     OW 2920   1.561   0.589   1.923 -0.1406 -0.1218  0.4057
  974SOL    HW1 2921   1.657   0.621   1.905 -1.9060 -2.4220  1.5294
  974SOL    HW2 2922   1.490   0.666   1.921 -0.0347 -2.3142  1.4265
  975SOL     OW 2923   2.372   3.054   3.091  0.0075 -0.1808 -0.4673
  975SOL    HW1 2924   2.296   2.983   3.087 -0.3654  0.0770  0.0617
  975SOL    HW2 2925   2.374   3.106   3.001  0.8045  1.3598 -0.8564
  976SOL     OW 2926   1.894   2.814   2.343  0.3654  0.0733 -0.1286
  976SOL    HW1 2927   1.849   2.735   2.298 -3.0422 -0.6799  2.6524
  976SOL    HW2 2928   1.895   2.795   2.446 -1.7268  2.2278 -1.8169
  977SOL     OW 2929   0.486   0.668   1.059 -0.0805  0.4902  0.2831
  977SOL    HW1 2930   0.427   0.655   0.978  0.3694  1.9416  3.6612
  977SOL    HW2 2931   0.566   0.727   1.047 -1.7647 -3.0723  1.6328
   3.10000   3.10000   3.10000
