1000 SPC/Fw water molecules t=   1.39000 step= 1390
 2931
    1SOL     OW    1   2.498   0.303   2.657 -0.7638 -0.3070  0.2428
    1SOL    HW1    2   2.497   0.205   2.638 -0.6923  0.5721  0.0947
    1SOL    HW2    3   2.555   0.335   2.738 -0.6010 -1.3463 -2.5347
    2SOL     OW    4   2.747   2.988   1.382 -0.1310  0.0833  0.0049
    2SOL    HW1    5   2.840   2.984   1.326 -1.9725  0.8272 -1.4670
    2SOL    HW2    6   2.733   3.080   1.431 -0.9496 -0.1775  1.2036
    3SOL     OW    7   2.646   2.572   0.420 -0.1119 -0.3566 -0.8056
    3SOL    HW1    8   2.600   2.481   0.417 -1.3542  0.5074 -0.3020
    3SOL    HW2    9   2.668   2.609   0.514  0.7562 -0.7925  0.6711
    4SOL     OW   10   1.236   1.502   2.418  0.1783  0.3312  0.0388
    4SOL    HW1   11   1.175   1.515   2.330  0.5161 -0.3407 -2.9118
    4SOL    HW2   12   1.284   1.408   2.425  1.1951  2.2940  1.7201
    5SOL     OW   13   1.174   1.556   2.897  0.2117  0.1216  0.1246
    5SOL    HW1   14   1.214   1.642   2.937  0.4470 -0.8290 -2.9979
    5SOL    HW2   15   1.072   1.560   2.882 -0.4315 -1.3272  0.3357
    6SOL     OW   16   0.266   1.826   3.010  0.0618 -0.4778  0.1311
    6SOL    HW1   17   0.167   1.839   3.042  0.8489 -3.7314 -5.1581
    6SOL    HW2   18   0.339   1.813   3.088  0.7563  0.4978  0.7716
    7SOL     OW   19   2.487   0.901   1.053 -0.8427 -0.0403 -0.0354
    7SOL    HW1   20   2.399   0.869   1.099 -0.1838 -2.9168  1.2794
    7SOL    HW2   21   2.509   0.838   0.971 -0.6174 -1.4408 -0.7216
    8SOL     OW   22   0.361   0.671   1.510 -0.8559  0.8660  0.5553
    8SOL    HW1   23   0.435   0.601   1.497 -2.9748 -0.6589 -0.3603
    8SOL    HW2   24   0.350   0.742   1.438 -0.8517  2.4462  0.1006
    9SOL     OW   25   1.154   0.844   2.416 -0.0084 -0.1291 -0.5041
    9SOL    HW1   26   1.217   0.860   2.333 -1.5737 -0.4329 -0.3761
    9SOL    HW2   27   1.106   0.755   2.415 -0.4059 -0.0870  0.7271
   10SOL     OW   28   0.684   1.372   1.306  0.2837 -0.2035  0.2212
   10SOL    HW1   29   0.591   1.375   1.252 -1.4819 -0.6033  0.6674
   10SOL    HW2   30   0.721   1.463   1.325 -0.2956  2.6319 -0.7775
   11SOL     OW   31   2.303   2.827   0.825 -0.1483  0.2521  0.1783
   11SOL    HW1   32   2.264   2.868   0.910 -2.2079 -0.7979  0.4650
   11SOL    HW2   33   2.388   2.761   0.845 -0.2014 -2.4571  0.0450
   12SOL     OW   34   1.506   0.875   0.431  0.8595  0.2020  0.1544
   12SOL    HW1   35   1.416   0.917   0.402 -0.2320 -1.0331 -1.3353
   12SOL    HW2   36   1.533   0.797   0.367  0.6875  0.9396  0.5445
   13SOL     OW   37   2.429   0.720   1.767  0.2688 -0.5647  0.5477
   13SOL    HW1   38   2.373   0.670   1.831  0.2917 -0.4829 -1.8868
   13SOL    HW2   39   2.454   0.677   1.678  1.8463  1.0651  0.1431
   14SOL     OW   40   1.949   0.021   0.616  0.2882 -0.3078  0.0130
   14SOL    HW1   41   1.849   0.044   0.599  1.5554 -0.5703  0.8780
   14SOL    HW2   42   1.953  -0.053   0.690 -1.9218  0.0453  1.1496
   15SOL     OW   43   1.898   2.097   2.648 -0.5996 -0.6790  0.8235
   15SOL    HW1   44   1.826   2.169   2.666  0.2450 -0.2318  0.7030
   15SOL    HW2   45   1.856   2.002   2.644 -1.0071 -2.0519 -2.7244
   16SOL     OW   46   1.598   1.720   2.992  0.2218  0.4813  0.2290
   16SOL    HW1   47   1.602   1.616   3.007 -1.6270 -1.3727 -2.8245
   16SOL    HW2   48   1.664   1.769   3.058  0.4842  0.6162  0.1992
   17SOL     OW   49   0.097   0.415   0.169 -0.4697 -0.1522  0.2804
   17SOL    HW1   50   0.182   0.449   0.118  0.5216  1.2062 -2.2515
   17SOL    HW2   51   0.019   0.436   0.105 -2.3582 -2.9422  0.2445
   18SOL     OW   52   0.908   2.984   2.158 -0.7636 -0.3463 -0.1484
   18SOL    HW1   53   0.852   2.895   2.173  0.8850 -1.4237  3.9408
   18SOL    HW2   54   0.974   2.965   2.085 -0.5147  0.0579 -0.7527
   19SOL     OW   55   0.549   0.845   1.894  0.1009 -0.0767 -0.1518
   19SOL    HW1   56   0.594   0.822   1.982  0.2073  0.7826  0.8222
   19SOL    HW2   57   0.575   0.940   1.860  0.2154  0.0530 -0.2878
   20SOL     OW   58   0.239   2.829   0.857  0.4187 -0.0315  0.1464
   20SOL    HW1   59   0.144   2.849   0.821 -1.9674  0.6022 -0.7654
   20SOL    HW2   60   0.283   2.739   0.823  2.9029  3.2633 -3.2328
   21SOL     OW   61   2.776   0.257   1.959 -0.0310  0.3962  0.2450
   21SOL    HW1   62   2.695   0.201   1.919 -0.4902 -0.2847  1.6215
   21SOL    HW2   63   2.842   0.201   2.014  2.5355 -1.4849 -2.7399
   22SOL     OW   64   2.365   0.197   0.116 -0.0567 -0.0747 -0.0310
   22SOL    HW1   65   2.372   0.105   0.063 -1.1096 -2.7101 -2.5414
   22SOL    HW2   66   2.308   0.259   0.059  0.6900  3.4592 -0.7310
   23SOL     OW   67   2.828   0.565   0.673  0.4893  0.1645  0.2003
   23SOL    HW1   68   2.814   0.498   0.593  1.5478 -0.7043  0.3144
   23SOL    HW2   69   2.833   0.660   0.631 -1.2250 -0.6546  0.1631
   24SOL     OW   70   0.220   1.868   0.440 -0.5990 -0.5884 -0.0874
   24SOL    HW1   71   0.186   1.937   0.363 -0.6694  0.7173 -1.4395
   24SOL    HW2   72   0.323   1.862   0.452  0.9475  2.6302  0.6648
   25SOL     OW   73   2.221   0.638   0.217  0.7282 -0.0405  0.1288
   25SOL    HW1   74   2.234   0.634   0.114 -0.4238 -0.2973 -0.9991
   25SOL    HW2   75   2.246   0.545   0.257 -3.1350 -0.9238 -2.9617
   26SOL     OW   76   2.439   2.130   2.116 -0.1881 -0.2099  0.8302
   26SOL    HW1   77   2.529   2.170   2.149  1.4398  1.9441 -1.1657
   26SOL    HW2   78   2.452   2.064   2.036 -0.7657 -0.4389  0.7307
   27SOL     OW   79   0.610   2.965   0.233 -0.0644 -0.1253 -0.7330
   27SOL    HW1   80   0.702   2.967   0.181 -1.1685 -0.6659 -2.1279
   27SOL    HW2   81   0.539   2.920   0.175 -1.1645 -1.8054 -1.1909
   28SOL     OW   82   1.597   0.105   0.345  0.7379 -0.1350 -0.0148
   28SOL    HW1   83   1.613   0.075   0.249  1.9014  2.0110  1.2753
   28SOL    HW2   84   1.634   0.203   0.359 -0.8335 -0.6387  0.3420
   29SOL     OW   85   1.956   0.571   0.269  0.0394  0.2132 -0.0640
   29SOL    HW1   86   1.945   0.625   0.356  1.2093  0.6992  0.6669
   29SOL    HW2   87   2.038   0.612   0.222 -0.5093  1.9982  1.1465
   30SOL     OW   88   0.173   2.073   0.877  0.5233 -0.6172  0.1260
   30SOL    HW1   89   0.139   2.003   0.810  3.6432  0.7427 -0.5987
   30SOL    HW2   90   0.100   2.143   0.901  2.0228 -0.6589  2.0817
   31SOL     OW   91   2.170   0.077   2.415 -0.5964 -0.4167 -0.2036
   31SOL    HW1   92   2.118   0.063   2.503  3.3011  1.5204  0.5842
   31SOL    HW2   93   2.112   0.056   2.328 -2.5733  0.8396  1.6433
   32SOL     OW   94   2.957   3.096   0.272  0.3484 -0.3545  0.1927
   32SOL    HW1   95   2.953   2.996   0.242  1.0020 -1.9920 -1.9975
   32SOL    HW2   96   3.019   3.121   0.352 -2.2110 -1.2156  1.4614
   33SOL     OW   97   0.868   0.234   0.632 -0.1695 -0.7835  0.7221
   33SOL    HW1   98   0.849   0.163   0.556 -1.3182 -0.7502 -1.5042
   33SOL    HW2   99   0.956   0.281   0.620 -2.0138 -2.0881 -0.0081
   34SOL     OW  100   0.298   2.724   1.112  0.4075 -0.0913  0.1825
   34SOL    HW1  101   0.266   2.799   1.049 -0.9729 -0.1180 -0.7915
   34SOL    HW2  102   0.400   2.736   1.123  0.3956  0.0018 -1.2228
   35SOL     OW  103   0.008   0.113   1.870 -0.8200 -0.0993 -0.0214
   35SOL    HW1  104   0.072   0.028   1.879  1.3301 -0.6834 -1.5668
   35SOL    HW2  105  -0.045   0.124   1.780  1.3496 -0.9910 -0.9265
   36SOL     OW  106   1.811   1.183   1.530 -0.0993 -0.5694 -0.5790
   36SOL    HW1  107   1.890   1.120   1.563 -1.6744 -3.0009  3.5247
   36SOL    HW2  108   1.844   1.259   1.465 -0.2643 -0.0048  1.1742
   37SOL     OW  109   1.159   0.181   0.975 -0.4208 -0.5517  0.0422
   37SOL    HW1  110   1.186   0.280   0.976  0.8040 -0.4238 -1.3400
   37SOL    HW2  111   1.224   0.125   0.920 -1.9239  1.8091 -0.3061
   38SOL     OW  112   1.149   2.887   2.404  0.3646  0.0506  0.7453
   38SOL    HW1  113   1.044   2.884   2.419 -1.6176  1.6890  0.2281
   38SOL    HW2  114   1.170   2.984   2.383 -1.0085 -2.8006  1.6005
   39SOL     OW  115   2.421   1.369   3.036  0.9853  0.4830  0.2383
   39SOL    HW1  116   2.500   1.300   3.059  0.5898 -3.2849  0.7527
   39SOL    HW2  117   2.360   1.375   3.120 -0.2694  0.4726 -0.1554
   40SOL     OW  118   2.016   2.483   2.606 -0.0906  0.5258 -0.1613
   40SOL    HW1  119   1.968   2.572   2.591 -1.2457 -3.0220 -1.7597
   40SOL    HW2  120   2.004   2.419   2.520  0.5344  0.5416 -1.7435
   41SOL     OW  121   3.017   0.646   2.798 -0.2788  0.0377  0.0061
   41SOL    HW1  122   2.941   0.719   2.816 -3.4984  0.6424  3.3183
   41SOL    HW2  123   2.979   0.562   2.751 -2.7007 -2.9513  3.2721
   42SOL     OW  124   1.752   1.768   0.544 -0.3544 -0.1289  0.1231
   42SOL    HW1  125   1.689   1.681   0.536 -0.7361 -1.7283  2.0620
   42SOL    HW2  126   1.782   1.801   0.451  0.8164 -2.5071  2.5030
   43SOL     OW  127   0.501   1.672   1.263 -0.0967 -0.6540  0.2195
   43SOL    HW1  128   0.489   1.590   1.200 -1.6494 -0.0842 -0.7671
   43SOL    HW2  129   0.409   1.691   1.314  1.5918  1.1392 -0.5079
   44SOL     OW  130   1.668   2.424   3.001 -0.0526 -0.0466 -0.3315
   44SOL    HW1  131   1.591   2.482   2.967 -1.3837 -0.1366 -1.8550
   44SOL    HW2  132   1.751   2.448   2.948  1.9258  0.3016  0.0162
   45SOL     OW  133   0.363   1.913   2.559 -0.3858 -0.0022 -0.6838
   45SOL    HW1  134   0.318   1.884   2.472 -1.2006 -2.2256 -1.7900
   45SOL    HW2  135   0.435   1.843   2.587 -0.8027  1.4737  3.5636
   46SOL     OW  136   1.299   0.657   0.214 -0.0845  0.2703  0.9100
   46SOL    HW1  137   1.264   0.735   0.155 -1.4596 -0.2333 -0.2244
   46SOL    HW2  138   1.238   0.569   0.211  2.0027 -0.6289  1.5629
   47SOL     OW  139   0.188   2.468   1.574 -0.0866 -0.3578 -0.5157
   47SOL    HW1  140   0.164   2.373   1.593  1.1279  0.6041  2.1756
   47SOL    HW2  141   0.199   2.485   1.474 -1.8621 -0.5642 -1.9050
   48SOL     OW  142   2.655   0.602   0.146  0.1148  0.1018 -0.0809
   48SOL    HW1  143   2.622   0.621   0.241  0.8794  0.7738  0.9465
   48SOL    HW2  144   2.758   0.617   0.128  2.9210  2.0161 -1.4740
   49SOL     OW  145   0.300   0.765   1.751  0.3730  0.2707  0.3028
   49SOL    HW1  146   0.390   0.781   1.802  0.9184  0.3423  0.5860
   49SOL    HW2  147   0.308   0.719   1.656  0.1480 -1.0587  2.1682
   50SOL     OW  148   1.728   1.128   0.287  0.2028 -0.3943  0.1816
   50SOL    HW1  149   1.755   1.028   0.264 -1.1756 -0.7347 -1.3361
   50SOL    HW2  150   1.674   1.131   0.379 -0.9432 -0.9290  0.9894
   51SOL     OW  151   3.032   1.766   0.243  0.1008  0.0564 -0.5872
   51SOL    HW1  152   2.997   1.687   0.186 -1.5130  1.2158 -1.1174
   51SOL    HW2  153   3.087   1.728   0.325  2.2181 -1.6353 -0.5107
   52SOL     OW  154   0.799   2.134   0.654 -0.8437 -0.1024  0.2142
   52SOL    HW1  155   0.701   2.111   0.637  1.9073  0.1703 -1.6679
   52SOL    HW2  156   0.853   2.053   0.690  0.8425 -2.5018 -0.0117
   53SOL     OW  157   0.174   0.430   1.582  0.2025 -0.0906 -0.4942
   53SOL    HW1  158   0.232   0.512   1.552  1.0053 -0.2939 -0.9166
   53SOL    HW2  159   0.079   0.430   1.536  1.9391 -1.0983  1.0263
   54SOL     OW  160   1.794   0.489   3.074  0.2481 -0.3012  0.3934
   54SOL    HW1  161   1.859   0.426   3.130  1.9169  0.4792  1.4161
   54SOL    HW2  162   1.702   0.512   3.107  0.5813 -1.3615 -0.0744
   55SOL     OW  163   0.768   2.900   0.702  0.1982  0.0887  0.2043
   55SOL    HW1  164   0.720   2.987   0.715  0.8981 -0.7327 -0.7317
   55SOL    HW2  165   0.848   2.907   0.639 -0.3433  1.6513  0.4820
   56SOL     OW  166   0.575   1.621   3.082  0.4461  0.2569 -0.7056
   56SOL    HW1  167   0.509   1.667   3.146  2.2335  3.4872 -1.8434
   56SOL    HW2  168   0.543   1.532   3.038 -0.7221 -1.1280  0.2061
   57SOL     OW  169   1.776   2.497   2.415 -0.0316  0.0993 -0.0700
   57SOL    HW1  170   1.840   2.413   2.421  1.8795 -1.9509  2.1870
   57SOL    HW2  171   1.675   2.472   2.432  0.8345  0.0622  0.3865
   58SOL     OW  172   0.660   0.271   1.127  0.5014 -0.2774 -0.1451
   58SOL    HW1  173   0.579   0.267   1.189  0.3674 -0.5912 -2.5288
   58SOL    HW2  174   0.709   0.178   1.130 -0.4556  0.1223  3.1666
   59SOL     OW  175   0.436   2.412   2.729  0.3340  0.1299  0.1269
   59SOL    HW1  176   0.443   2.310   2.687 -2.5512 -1.7413 -2.1756
   59SOL    HW2  177   0.526   2.445   2.762  1.2041  0.6090 -1.8651
   60SOL     OW  178   2.296   2.126   2.342  0.1568 -0.2220  0.1104
   60SOL    HW1  179   2.368   2.136   2.267  0.5706  1.1432 -2.7740
   60SOL    HW2  180   2.327   2.166   2.432  1.4196  0.1080  0.6769
   61SOL     OW  181   1.229   0.644   0.491  0.1435  0.1307  0.9741
   61SOL    HW1  182   1.142   0.697   0.504 -0.1317 -0.9163  0.1847
   61SOL    HW2  183   1.250   0.653   0.393 -0.7820 -0.0748 -2.3950
   62SOL     OW  184   2.711   1.727   2.775  0.0142 -0.5547 -0.0429
   62SOL    HW1  185   2.649   1.675   2.711 -1.1384  2.9089 -3.1658
   62SOL    HW2  186   2.805   1.678   2.795  0.8727 -1.4428 -0.9481
   63SOL     OW  187   0.556   0.910   0.197  0.0447  0.2913  0.1016
   63SOL    HW1  188   0.610   0.970   0.131  1.1185  0.1997  0.4716
   63SOL    HW2  189   0.616   0.881   0.278 -1.7311 -0.0578  1.4229
   64SOL     OW  190   3.038   0.573   2.354 -0.0548  0.2607 -0.0785
   64SOL    HW1  191   2.950   0.600   2.401 -0.8730  0.8356 -0.5425
   64SOL    HW2  192   3.062   0.655   2.295 -0.5925  2.9936 -1.7453
   65SOL     OW  193   0.208   1.445   0.700  0.1135  0.3573  0.1276
   65SOL    HW1  194   0.214   1.520   0.774  2.7508 -1.4510 -0.3412
   65SOL    HW2  195   0.272   1.479   0.627 -1.4269 -1.7804 -0.4467
   66SOL     OW  196   2.528   0.400   0.520 -0.4478  0.0508  0.0316
   66SOL    HW1  197   2.623   0.360   0.525  0.0551 -0.9694 -1.3820
   66SOL    HW2  198   2.467   0.368   0.595  0.7065  0.8703 -3.4382
   67SOL     OW  199   0.642   2.475   1.441  0.0155 -0.1082 -0.1971
   67SOL    HW1  200   0.720   2.417   1.484  0.1648  0.2719 -1.3185
   67SOL    HW2  201   0.559   2.420   1.414 -1.5971  2.0520  1.0456
   68SOL     OW  202   0.998   1.049   2.497 -0.1891 -0.9006 -0.3214
   68SOL    HW1  203   1.056   0.963   2.480  0.8775 -1.5234  2.7560
   68SOL    HW2  204   0.952   1.074   2.405  1.7020  3.4823 -3.0794
   69SOL     OW  205   0.783   2.746   2.225  0.7020  0.7530  0.1441
   69SOL    HW1  206   0.813   2.649   2.207 -0.9419  0.2342  1.5272
   69SOL    HW2  207   0.684   2.747   2.252  0.8396 -1.1105  1.9724
   70SOL     OW  208   0.445   0.109   2.508  0.0236  0.0143 -0.6170
   70SOL    HW1  209   0.364   0.080   2.560  0.1640  0.1654  1.2269
   70SOL    HW2  210   0.524   0.057   2.549 -2.4946 -3.1195  0.1418
   71SOL     OW  211   1.106   1.770   0.309 -0.4614 -0.6443 -0.0869
   71SOL    HW1  212   1.082   1.700   0.382 -0.6604 -3.8944  1.2695
   71SOL    HW2  213   1.028   1.790   0.244  0.8086  0.4430  1.5303
   72SOL     OW  214   1.823   0.183   2.171  0.1244  0.3396  0.0356
   72SOL    HW1  215   1.855   0.276   2.184 -0.3126 -2.3500 -2.1540
   72SOL    HW2  216   1.898   0.110   2.160  2.2604 -0.0325 -3.6053
   73SOL     OW  217   2.791   2.160   2.392 -0.1239  0.2108  0.5433
   73SOL    HW1  218   2.779   2.057   2.390 -0.6163 -0.6214  3.5425
   73SOL    HW2  219   2.849   2.186   2.473  1.4104  1.3732 -0.5852
   74SOL     OW  220   2.684   2.870   2.189  0.6017 -0.0143 -0.2447
   74SOL    HW1  221   2.690   2.858   2.287  0.6948  1.4271 -0.2849
   74SOL    HW2  222   2.767   2.931   2.155  2.2369  1.4456  0.8951
   75SOL     OW  223   0.951   0.870   1.076 -0.1355  0.8376  0.6881
   75SOL    HW1  224   0.852   0.893   1.041 -1.9468 -1.7949 -0.8922
   75SOL    HW2  225   0.991   0.929   1.154 -0.1528 -0.4407  2.6701
   76SOL     OW  226   1.857   1.259   2.453 -0.0770  0.6057  0.8063
   76SOL    HW1  227   1.757   1.240   2.464  0.0688  1.4299 -1.9752
   76SOL    HW2  228   1.870   1.347   2.504 -1.4800 -0.9355  1.7323
   77SOL     OW  229   2.912   0.930   1.043 -0.5138 -0.2875  0.2305
   77SOL    HW1  230   2.888   0.830   1.020  0.7908 -0.3163 -1.0911
   77SOL    HW2  231   2.993   0.947   1.113  0.0028 -0.5178  1.0507
   78SOL     OW  232   2.023   1.370   1.386  0.1454 -0.4364 -0.3959
   78SOL    HW1  233   2.117   1.402   1.354  0.6053 -1.0359 -0.8376
   78SOL    HW2  234   1.955   1.424   1.328  1.6210 -2.9719 -2.1768
   79SOL     OW  235   0.671   1.412   0.799  0.3547 -0.5444  0.1407
   79SOL    HW1  236   0.583   1.384   0.847 -0.1096  2.9310  0.6788
   79SOL    HW2  237   0.704   1.351   0.728 -0.2991  3.2137  2.9155
   80SOL     OW  238   0.625   0.504   1.507 -0.2469  0.1602  0.1573
   80SOL    HW1  239   0.676   0.547   1.430 -0.4995  1.9029  2.4810
   80SOL    HW2  240   0.649   0.409   1.532 -1.3744  1.1561  0.5190
   81SOL     OW  241   0.996   1.315   2.617 -0.4520 -0.1392  0.1873
   81SOL    HW1  242   1.017   1.220   2.587 -1.0701  0.3186 -1.0547
   81SOL    HW2  243   0.949   1.367   2.543  1.1545  0.6077  3.8313
   82SOL     OW  244   1.011   2.843   1.542  0.1438  0.1989 -0.4921
   82SOL    HW1  245   0.973   2.757   1.503 -0.8107  1.6140  1.4052
   82SOL    HW2  246   1.053   2.910   1.476  1.2424  0.9132  1.3733
   83SOL     OW  247   2.542   2.381   0.879  0.0559  0.0186 -0.1938
   83SOL    HW1  248   2.505   2.339   0.798 -1.1248  1.1312 -0.6874
   83SOL    HW2  249   2.558   2.482   0.864 -0.8584 -1.8582  0.5459
   84SOL     OW  250   0.745   0.016   2.345  0.4111  0.0493 -0.1017
   84SOL    HW1  251   0.702  -0.033   2.423  0.1317 -1.0668 -1.6707
   84SOL    HW2  252   0.802  -0.044   2.278 -2.6083 -0.7026 -4.2589
   85SOL     OW  253   0.279   1.628   1.419 -0.2116  0.0997 -0.2660
   85SOL    HW1  254   0.249   1.724   1.442 -2.3634 -0.3048 -3.5805
   85SOL    HW2  255   0.305   1.583   1.506 -0.2718 -1.6054  0.9480
   86SOL     OW  256   0.421   1.055   1.550 -0.6760 -0.2111  0.1438
   86SOL    HW1  257   0.366   1.029   1.464 -1.0258 -0.5055  2.8489
   86SOL    HW2  258   0.523   1.020   1.544 -0.6017 -2.6716 -0.5446
   87SOL     OW  259   1.638   0.675   0.273 -0.4718  0.5062  0.1421
   87SOL    HW1  260   1.697   0.754   0.246 -0.0246 -4.5790 -0.9280
   87SOL    HW2  261   1.629   0.604   0.193  1.7786  1.4889  1.2590
   88SOL     OW  262   1.598   1.369   0.282  0.2438  0.6456  0.3984
   88SOL    HW1  263   1.649   1.278   0.282  0.9154  1.3464 -0.7089
   88SOL    HW2  264   1.500   1.366   0.257  0.0406  0.2536  0.5774
   89SOL     OW  265   3.098   0.305   0.631  0.4754 -0.1462 -0.2618
   89SOL    HW1  266   3.170   0.225   0.621  1.5355  1.4029 -0.9452
   89SOL    HW2  267   3.005   0.279   0.597  0.0968  0.5204 -0.5843
   90SOL     OW  268   0.790   1.579   0.159 -0.5478 -0.1926  0.5449
   90SOL    HW1  269   0.851   1.496   0.152 -0.8778  0.9531  3.5189
   90SOL    HW2  270   0.712   1.581   0.094 -0.0695  0.7579 -1.4984
   91SOL     OW  271   1.216   1.458   1.769 -0.3835 -0.1019 -0.1841
   91SOL    HW1  272   1.205   1.536   1.834 -0.8549  0.0873 -1.1782
   91SOL    HW2  273   1.306   1.411   1.786  1.8445 -0.6056 -0.7526
   92SOL     OW  274   0.012   0.958   1.225 -0.1719  0.6523 -0.3564
   92SOL    HW1  275   0.060   1.044   1.187  1.4288 -0.3527 -1.4106
   92SOL    HW2  276   0.012   0.951   1.332 -1.1498  0.2901 -0.1889
   93SOL     OW  277   3.074   2.708   0.047 -0.4099 -0.6816  0.3269
   93SOL    HW1  278   3.083   2.714  -0.058 -0.6376  1.0305 -0.1819
   93SOL    HW2  279   3.082   2.609   0.087 -0.9797 -0.3120  0.8177
   94SOL     OW  280   1.484   1.409   1.742 -0.0571 -0.0291 -0.1873
   94SOL    HW1  281   1.568   1.357   1.773  0.0423 -0.1987 -0.1527
   94SOL    HW2  282   1.482   1.513   1.758  0.5072 -1.2570 -0.3305
   95SOL     OW  283   1.391   2.496   2.957  0.0185 -0.1768 -0.1645
   95SOL    HW1  284   1.316   2.497   3.032 -3.0472  0.3748  0.8285
   95SOL    HW2  285   1.401   2.402   2.920 -0.5039 -0.7802  1.4414
   96SOL     OW  286   0.564   2.099   1.289  0.2095 -0.1488 -0.7373
   96SOL    HW1  287   0.507   2.084   1.206 -1.4324 -1.0826  0.0244
   96SOL    HW2  288   0.612   2.016   1.321 -1.1536  0.7532  0.4279
   97SOL     OW  289   0.303   1.629   2.432 -0.2021  0.5970 -0.0839
   97SOL    HW1  290   0.274   1.693   2.359  1.5659  0.2309 -0.7954
   97SOL    HW2  291   0.251   1.635   2.526 -1.8641 -0.4193  0.4478
   98SOL     OW  292   2.190   1.618   1.218  0.3679  0.2681  0.5378
   98SOL    HW1  293   2.090   1.626   1.192  1.4868  1.8285  2.1145
   98SOL    HW2  294   2.257   1.580   1.147  1.8397 -1.6601 -0.1152
   99SOL     OW  295   2.559   2.135   1.312  0.0926  0.5510  0.1264
   99SOL    HW1  296   2.633   2.166   1.379  0.0975  1.0216 -1.2160
   99SOL    HW2  297   2.537   2.036   1.317 -0.8632  0.2134  1.5959
  100SOL     OW  298   2.306   0.411   2.103  0.0733  0.0041 -0.1698
  100SOL    HW1  299   2.241   0.381   2.177  2.3316 -1.0792  0.8244
  100SOL    HW2  300   2.403   0.407   2.132 -1.5025  0.6737 -1.6337
  101SOL     OW  301   0.386   1.533   0.521 -0.1592  0.1723  0.4972
  101SOL    HW1  302   0.389   1.632   0.556 -0.6684 -2.2744  0.6936
  101SOL    HW2  303   0.473   1.508   0.462 -0.9755  0.5361 -2.2664
  102SOL     OW  304   2.300   1.069   0.835  0.3922  0.5171  0.7941
  102SOL    HW1  305   2.251   0.983   0.805 -1.1514 -0.7305 -0.4595
  102SOL    HW2  306   2.386   1.092   0.777  1.0710 -0.9755  0.4093
  103SOL     OW  307   2.238   0.071   0.331  0.0900 -0.0120 -0.0903
  103SOL    HW1  308   2.278   0.114   0.243  1.4708 -0.0186  0.2838
  103SOL    HW2  309   2.305   0.029   0.397 -0.3847 -1.7551 -0.8128
  104SOL     OW  310   0.052   1.860   2.094  0.1055 -0.5646  0.1501
  104SOL    HW1  311   0.107   1.854   2.007  1.3370 -3.7931  0.8813
  104SOL    HW2  312  -0.048   1.885   2.079 -3.5142 -0.2614 -0.4146
  105SOL     OW  313   1.311   2.096   0.773  0.7990  0.0260 -0.0583
  105SOL    HW1  314   1.284   2.127   0.680  0.5185 -0.8832  1.0897
  105SOL    HW2  315   1.310   1.995   0.780  0.9562 -0.3711 -1.9901
  106SOL     OW  316   2.090   0.406   1.401  0.3801 -0.1907  0.4640
  106SOL    HW1  317   2.029   0.324   1.374  1.1145  0.3656 -0.6646
  106SOL    HW2  318   2.088   0.418   1.505  1.7532  0.2250  0.1823
  107SOL     OW  319   1.977   2.944   1.203 -0.0818  0.4532  0.2435
  107SOL    HW1  320   1.937   3.037   1.225 -2.3184 -1.3427  0.8294
  107SOL    HW2  321   1.909   2.884   1.155 -0.8240 -0.0688  1.0197
  108SOL     OW  322   0.873   2.823   1.171 -0.7486 -0.2744 -0.0906
  108SOL    HW1  323   0.894   2.721   1.173  1.3671 -0.3188  0.3080
  108SOL    HW2  324   0.924   2.875   1.245  0.2412  1.3259 -0.1572
  109SOL     OW  325   2.146   0.164   0.751 -0.0823  0.3801 -1.0058
  109SOL    HW1  326   2.056   0.127   0.712 -0.6531  0.1474 -0.6977
  109SOL    HW2  327   2.167   0.120   0.842 -0.7824 -0.9073 -0.3292
  110SOL     OW  328   0.459   2.790   2.782  0.3168 -0.5070  0.2477
  110SOL    HW1  329   0.445   2.768   2.680 -1.1947 -0.3827 -0.3517
  110SOL    HW2  330   0.528   2.731   2.820 -2.2773  1.8723 -3.3384
  111SOL     OW  331   1.278   0.494   2.324 -0.1220  0.0769 -0.1936
  111SOL    HW1  332   1.184   0.511   2.360  2.5748  0.3646 -3.3801
  111SOL    HW2  333   1.338   0.436   2.386 -0.5838 -0.7858  0.0046
  112SOL     OW  334   1.777   0.404   1.512  0.0391 -0.4529  0.4433
  112SOL    HW1  335   1.734   0.401   1.415  1.1881 -0.6861 -1.5388
  112SOL    HW2  336   1.706   0.395   1.583 -2.1042 -0.2357 -0.9139
  113SOL     OW  337   2.404   1.679   1.718 -0.3386 -0.2538  0.1176
  113SOL    HW1  338   2.415   1.578   1.741  1.5802  2.3630 -0.3384
  113SOL    HW2  339   2.394   1.737   1.801  1.5662 -1.7304 -1.0656
  114SOL     OW  340   0.286   0.477   1.197  0.0719 -0.6668  0.1006
  114SOL    HW1  341   0.340   0.533   1.120  1.7633  0.2720 -2.5128
  114SOL    HW2  342   0.206   0.531   1.231  0.1063  0.7197 -0.3801
  115SOL     OW  343   2.769   1.536   1.242 -1.1522  0.5503 -0.4287
  115SOL    HW1  344   2.735   1.441   1.267  1.6882  0.2595  0.0110
  115SOL    HW2  345   2.850   1.533   1.185 -2.2217  1.4533 -0.6506
  116SOL     OW  346   1.903   0.946   0.684  0.1414 -0.4574  0.3621
  116SOL    HW1  347   1.802   0.922   0.690 -2.7627  2.0733  2.0650
  116SOL    HW2  348   1.917   1.051   0.691 -3.9777  2.6376  0.8961
  117SOL     OW  349   1.132   0.373   0.561 -0.2655 -0.2886 -0.2232
  117SOL    HW1  350   1.152   0.476   0.567  0.9598  1.4135 -0.4286
  117SOL    HW2  351   1.102   0.346   0.470 -0.9026  2.9200  2.3485
  118SOL     OW  352   1.098   1.202   1.113  0.2333  0.2849 -0.7686
  118SOL    HW1  353   1.007   1.165   1.145 -0.4458  0.9838 -0.0165
  118SOL    HW2  354   1.121   1.290   1.162 -1.1619 -2.0886  0.9097
  119SOL     OW  355   1.871   1.583   2.197  0.1118 -0.6843 -0.1683
  119SOL    HW1  356   1.829   1.664   2.152  0.4742  0.1387  0.6034
  119SOL    HW2  357   1.968   1.565   2.163 -1.1412 -0.3190  2.1280
  120SOL     OW  358   2.899   2.794   0.245 -0.4237 -0.0821 -0.0130
  120SOL    HW1  359   2.978   2.773   0.183  1.8523  0.4338  1.6798
  120SOL    HW2  360   2.808   2.760   0.214 -0.0707 -1.6219  0.7743
  121SOL     OW  361   1.870   0.743   2.175  0.8243  0.2531  0.4573
  121SOL    HW1  362   1.907   0.782   2.087  0.7126 -1.3421  0.9838
  121SOL    HW2  363   1.871   0.638   2.173  1.5055 -0.1439  4.5341
  122SOL     OW  364   2.583   2.507   1.346 -0.3052  0.4645  0.4815
  122SOL    HW1  365   2.653   2.468   1.274 -1.6672 -0.4235 -4.9722
  122SOL    HW2  366   2.591   2.468   1.444  0.7735 -2.5524 -1.1653
  123SOL     OW  367   1.724   0.140   1.728  0.6810  0.1989  0.1258
  123SOL    HW1  368   1.746   0.059   1.673 -0.2828  0.5624  3.8272
  123SOL    HW2  369   1.809   0.186   1.760 -1.8504 -1.4358 -2.8233
  124SOL     OW  370   3.056   0.475   1.098  0.2984  0.2991 -0.6077
  124SOL    HW1  371   2.971   0.512   1.143 -0.0937 -1.8169 -1.4721
  124SOL    HW2  372   3.076   0.508   1.003  1.6535 -0.0564 -1.3768
  125SOL     OW  373   0.898   1.909   0.774 -0.1101 -0.1827  0.1876
  125SOL    HW1  374   0.986   1.853   0.762 -2.7074 -0.4113  0.7602
  125SOL    HW2  375   0.841   1.876   0.850 -2.1170  0.1629  1.9942
  126SOL     OW  376   1.966   2.281   2.450 -0.1161  0.6936 -0.5132
  126SOL    HW1  377   1.976   2.241   2.353  1.8660 -1.9163 -0.9539
  126SOL    HW2  378   1.968   2.200   2.518  1.0847 -0.5703  1.9826
  127SOL     OW  379   0.895   0.973   0.214 -0.3751  0.0366 -0.2335
  127SOL    HW1  380   0.942   0.995   0.305  0.9483  2.1021 -2.5235
  127SOL    HW2  381   0.901   0.869   0.186  3.2529 -1.5981  0.3600
  128SOL     OW  382   0.945   0.269   1.415 -0.3720  0.4262  0.0635
  128SOL    HW1  383   0.915   0.347   1.357  0.8597  3.1005  2.4517
  128SOL    HW2  384   0.884   0.190   1.419  2.0922 -1.7433  0.8660
  129SOL     OW  385   1.866   0.673   1.840 -0.1496  0.4465 -0.3195
  129SOL    HW1  386   1.898   0.654   1.741  0.8381  1.9760 -0.5882
  129SOL    HW2  387   1.930   0.743   1.893 -3.1763  1.0392  0.4983
  130SOL     OW  388   1.410   2.244   1.009 -0.5702 -0.3733  0.0980
  130SOL    HW1  389   1.374   2.203   0.922  0.5641  1.9401 -0.2813
  130SOL    HW2  390   1.472   2.326   0.992 -0.0224  2.1403  0.7773
  131SOL     OW  391   3.050   1.425   1.363  0.1912  0.7020  0.3232
  131SOL    HW1  392   2.999   1.340   1.356 -1.6792  3.9813 -1.6942
  131SOL    HW2  393   3.148   1.407   1.351  0.3847 -1.2885 -1.2341
  132SOL     OW  394   2.032   2.368   0.524 -0.3960 -0.3462  0.0961
  132SOL    HW1  395   1.939   2.416   0.519 -0.7817  1.3538 -1.1103
  132SOL    HW2  396   2.040   2.297   0.602 -0.9473  2.1687  0.3423
  133SOL     OW  397   1.795   2.358   2.719 -0.0381  0.5225 -0.0890
  133SOL    HW1  398   1.728   2.419   2.677  2.2466  1.0307 -1.8202
  133SOL    HW2  399   1.895   2.366   2.690 -0.6861 -0.5987 -1.0219
  134SOL     OW  400   2.698   2.381   1.603  0.4259  0.4517  0.2022
  134SOL    HW1  401   2.639   2.363   1.690 -0.1296 -1.9518 -1.2639
  134SOL    HW2  402   2.767   2.458   1.609  0.9862 -0.9449  0.0451
  135SOL     OW  403   0.701   1.425   2.693  0.3983 -0.2834  0.3552
  135SOL    HW1  404   0.705   1.318   2.707  0.8132 -1.4221 -1.6466
  135SOL    HW2  405   0.703   1.462   2.594  0.4677  1.5668  3.0093
  136SOL     OW  406   1.193   2.017   0.418 -0.6247  0.2063 -0.5649
  136SOL    HW1  407   1.138   2.095   0.456 -0.0493  2.1416 -2.6703
  136SOL    HW2  408   1.131   1.935   0.398  0.1116 -0.7518  3.0044
  137SOL     OW  409   0.409   1.230   2.230  0.0468  0.5448  0.0733
  137SOL    HW1  410   0.305   1.231   2.258  0.3091 -0.4947 -0.3657
  137SOL    HW2  411   0.453   1.136   2.243 -0.0545 -1.6000  0.4598
  138SOL     OW  412   2.446   1.541   0.300  0.0400 -0.3633 -0.4782
  138SOL    HW1  413   2.359   1.509   0.261  1.0097 -1.3825  1.4891
  138SOL    HW2  414   2.507   1.460   0.318 -1.5651 -1.3876  0.2806
  139SOL     OW  415   1.870   2.641   1.529  0.6644 -0.1404  0.6614
  139SOL    HW1  416   1.780   2.669   1.480 -1.4097  2.0741 -0.0376
  139SOL    HW2  417   1.898   2.545   1.495  1.9330 -0.0392 -1.7441
  140SOL     OW  418   3.006   2.979   2.617  0.1719 -0.0753  0.5698
  140SOL    HW1  419   3.046   2.889   2.576  2.5695 -0.7318 -0.3074
  140SOL    HW2  420   3.055   3.068   2.580 -0.0386 -0.3233  0.2082
  141SOL     OW  421   1.326   1.619   1.567 -0.2438 -0.2868 -0.2085
  141SOL    HW1  422   1.257   1.700   1.559 -2.3589  0.5442  1.7105
  141SOL    HW2  423   1.281   1.543   1.620  1.3609 -1.8755 -0.3029
  142SOL     OW  424   1.525   0.623   2.240 -0.2328 -0.1828  0.2140
  142SOL    HW1  425   1.527   0.644   2.139 -0.9197  2.5027  1.3029
  142SOL    HW2  426   1.432   0.593   2.273  1.5331  3.2618  0.7903
  143SOL     OW  427   2.789   0.813   0.544 -0.2361 -0.4052 -0.3764
  143SOL    HW1  428   2.829   0.872   0.469  3.0136 -2.6226  1.9346
  143SOL    HW2  429   2.819   0.859   0.638  0.5247 -1.7395 -1.1052
  144SOL     OW  430   2.907   1.184   1.462  0.4374 -0.1202 -0.4427
  144SOL    HW1  431   2.842   1.160   1.539 -1.0716  0.9757  0.8054
  144SOL    HW2  432   2.990   1.123   1.462  1.4777  0.7681 -2.0797
  145SOL     OW  433   0.917   1.839   0.110 -0.6419  0.4733 -0.5869
  145SOL    HW1  434   1.000   1.835   0.050 -0.8834  1.3008  0.0236
  145SOL    HW2  435   0.850   1.759   0.093 -0.5926  0.8741  0.1946
  146SOL     OW  436   2.462   0.668   1.494  0.0126 -0.3766 -0.0979
  146SOL    HW1  437   2.433   0.577   1.453  0.1180  0.7625  1.8491
  146SOL    HW2  438   2.400   0.749   1.467  1.0208  2.1813  2.1968
  147SOL     OW  439   1.105   2.522   0.578  0.4804  0.0707  0.3161
  147SOL    HW1  440   1.058   2.575   0.502  1.3645  0.3753  1.0890
  147SOL    HW2  441   1.201   2.487   0.553  2.1151 -1.6730  2.5273
  148SOL     OW  442   1.579   1.462   3.093 -0.0499  0.1048 -0.4424
  148SOL    HW1  443   1.576   1.365   3.056  1.0111  1.4893  1.0648
  148SOL    HW2  444   1.573   1.466   3.195  1.2123 -0.8064 -2.2722
  149SOL     OW  445   0.695   1.508   1.971 -0.2828  0.1276 -0.1474
  149SOL    HW1  446   0.614   1.480   2.026  0.0938  1.0456  0.6045
  149SOL    HW2  447   0.704   1.454   1.885  0.8914  0.8248 -0.1930
  150SOL     OW  448   3.027   1.201   0.974  0.0070 -0.5889  0.2239
  150SOL    HW1  449   3.122   1.189   1.014 -3.0668  0.6471 -0.1956
  150SOL    HW2  450   2.958   1.126   1.002  0.9635 -0.6018 -0.1355
  151SOL     OW  451   0.291   0.808   2.042  0.4456 -0.3302 -0.1147
  151SOL    HW1  452   0.269   0.902   2.003  0.2898 -0.0252 -0.3173
  151SOL    HW2  453   0.312   0.731   1.971  0.6158 -0.4444 -0.0520
  152SOL     OW  454   1.429   1.829   1.143 -0.4703  0.2732 -0.7222
  152SOL    HW1  455   1.466   1.927   1.120 -0.0919 -0.0282 -0.0726
  152SOL    HW2  456   1.329   1.819   1.119  1.5460  1.3363 -0.0165
  153SOL     OW  457   0.175   1.516   0.216 -0.6155 -0.2038  0.1037
  153SOL    HW1  458   0.147   1.419   0.224 -2.1890 -2.0134  0.9984
  153SOL    HW2  459   0.144   1.572   0.298  0.2135  1.5598  0.8364
  154SOL     OW  460   2.276   1.854   2.776 -0.1285 -0.0142 -0.3033
  154SOL    HW1  461   2.307   1.757   2.784 -1.8656  1.3640  0.9312
  154SOL    HW2  462   2.349   1.911   2.724 -1.7152 -0.4056 -0.2714
  155SOL     OW  463   2.441   1.246   0.342 -0.2851  0.2070 -0.2467
  155SOL    HW1  464   2.527   1.216   0.299 -0.7737 -0.2703 -0.0115
  155SOL    HW2  465   2.364   1.173   0.344  1.7505 -2.5400 -0.4266
  156SOL     OW  466   2.464   0.817   0.729 -0.2073  0.1483 -0.2763
  156SOL    HW1  467   2.361   0.810   0.743 -0.6730 -0.2653 -4.3448
  156SOL    HW2  468   2.488   0.831   0.631 -0.2145 -1.2607 -0.0675
  157SOL     OW  469   1.222   2.953   3.015 -0.1574 -0.0051 -0.0413
  157SOL    HW1  470   1.290   2.894   2.968 -2.0689 -2.0075  1.1008
  157SOL    HW2  471   1.255   3.056   3.020 -0.2996  2.3708 -0.1928
  158SOL     OW  472   1.047   1.860   1.827  1.0732 -0.5821 -0.1447
  158SOL    HW1  473   1.060   1.960   1.808 -1.1796 -1.8781  0.7155
  158SOL    HW2  474   0.964   1.845   1.888  0.8624 -0.3362  0.0709
  159SOL     OW  475   0.859   0.442   1.218 -0.4911  0.3189  0.1494
  159SOL    HW1  476   0.816   0.526   1.252 -0.4454 -0.0062  2.3464
  159SOL    HW2  477   0.793   0.377   1.168  0.0380  0.2525 -2.2602
  160SOL     OW  478   1.399   2.428   1.509  0.8193 -0.1191 -0.2656
  160SOL    HW1  479   1.335   2.359   1.547  1.2442  2.5536  0.6260
  160SOL    HW2  480   1.494   2.391   1.499  3.0559  1.4249 -4.0322
  161SOL     OW  481   3.047   2.667   0.470 -0.1806 -0.6813 -0.2149
  161SOL    HW1  482   3.019   2.571   0.446 -1.4841  0.0239 -1.7622
  161SOL    HW2  483   2.994   2.723   0.406 -2.8694 -2.7349  1.3526
  162SOL     OW  484   2.581   1.827   0.458  0.5208  0.4531 -0.5032
  162SOL    HW1  485   2.559   1.804   0.357 -3.3714 -0.9092  2.8086
  162SOL    HW2  486   2.545   1.758   0.528 -1.6039  2.0664 -0.8636
  163SOL     OW  487   1.947   2.677   0.746  0.0609  0.8551 -0.1617
  163SOL    HW1  488   1.928   2.680   0.641  0.0748 -1.5093 -0.1355
  163SOL    HW2  489   2.023   2.610   0.767  0.6066  1.4884 -0.6550
  164SOL     OW  490   3.037   0.223   1.215 -0.3641 -0.8179 -0.3177
  164SOL    HW1  491   3.057   0.316   1.176 -1.6434 -2.8032  1.0425
  164SOL    HW2  492   3.096   0.191   1.294 -1.8731  1.6911 -1.8871
  165SOL     OW  493   1.107   1.411   0.677  0.1349  0.0865  0.0601
  165SOL    HW1  494   1.088   1.465   0.762  0.0215 -2.7308 -1.3809
  165SOL    HW2  495   1.061   1.455   0.593 -2.5912 -3.2423 -1.6609
  166SOL     OW  496   1.539   1.020   1.775 -0.7206  0.1418  0.3835
  166SOL    HW1  497   1.457   1.050   1.831 -0.6519 -0.8432 -2.3584
  166SOL    HW2  498   1.606   1.102   1.770  1.2751 -2.5122  1.9041
  167SOL     OW  499   0.777   1.950   1.460 -0.6220  0.3038  0.1637
  167SOL    HW1  500   0.794   2.015   1.540  0.7902  1.5206  0.8408
  167SOL    HW2  501   0.717   1.873   1.484  2.6376 -1.4669 -0.0208
  168SOL     OW  502   1.568   2.344   0.158 -0.3544 -0.0638  0.1146
  168SOL    HW1  503   1.639   2.353   0.081  1.1645 -1.6252 -1.6288
  168SOL    HW2  504   1.598   2.290   0.242  0.0931 -0.8042 -0.5840
  169SOL     OW  505   0.078   2.581   2.204 -0.0173 -0.1623 -0.5907
  169SOL    HW1  506   0.134   2.534   2.129 -1.7796 -0.5767  1.5702
  169SOL    HW2  507   0.125   2.562   2.299 -1.9412  0.0724  2.4175
  170SOL     OW  508   1.147   0.213   2.048  0.4466 -0.2136  0.0367
  170SOL    HW1  509   1.236   0.235   2.100 -1.9990  3.1649 -4.5748
  170SOL    HW2  510   1.162   0.188   1.947 -2.7510  0.1136 -0.9337
  171SOL     OW  511   0.219   0.856   2.377 -0.6351  0.0281 -0.4994
  171SOL    HW1  512   0.126   0.877   2.412  3.4819  1.8313  1.5182
  171SOL    HW2  513   0.220   0.822   2.278 -0.1761 -0.7554 -1.5093
  172SOL     OW  514   0.952   1.028   2.896  0.5769  0.1989 -0.5024
  172SOL    HW1  515   0.926   1.113   2.946 -1.2614  1.9560 -2.2516
  172SOL    HW2  516   0.913   1.022   2.800  2.1724 -0.8263 -2.0577
  173SOL     OW  517   0.498   2.460   0.122 -0.3637  0.2385 -1.0155
  173SOL    HW1  518   0.502   2.361   0.083  0.8159 -2.8015 -2.1647
  173SOL    HW2  519   0.414   2.468   0.182 -2.1144  0.6377  1.9006
  174SOL     OW  520   1.518   2.860   1.084  0.5905  0.0108 -0.0475
  174SOL    HW1  521   1.599   2.895   1.028  0.0305  0.6044  1.6596
  174SOL    HW2  522   1.472   2.787   1.032 -0.3634 -1.1063 -1.5741
  175SOL     OW  523   0.422   3.067   1.697  0.2792  0.5051  0.6410
  175SOL    HW1  524   0.491   3.055   1.773  1.4895  0.4287 -0.5276
  175SOL    HW2  525   0.425   3.165   1.666  0.9454 -0.1120 -1.1767
  176SOL     OW  526   2.619   0.362   0.020  0.3498  0.4638 -0.1283
  176SOL    HW1  527   2.630   0.452   0.068 -0.3531 -0.6633 -2.3079
  176SOL    HW2  528   2.648   0.278   0.072  1.1956 -1.8262 -1.6853
  177SOL     OW  529   0.335   0.309   0.994  0.3408  0.3639 -0.0977
  177SOL    HW1  530   0.313   0.212   1.021  1.8085  1.0040 -0.9506
  177SOL    HW2  531   0.303   0.370   1.073 -1.2079  0.7240  0.3271
  178SOL     OW  532   0.021   2.740   2.553  0.1251 -0.1884 -0.1269
  178SOL    HW1  533  -0.010   2.643   2.561 -0.0184  1.6500  1.7244
  178SOL    HW2  534   0.096   2.754   2.624 -1.8562  1.8849  0.8724
  179SOL     OW  535   3.007   1.532   1.105 -0.0728 -0.6453  0.2360
  179SOL    HW1  536   3.052   1.621   1.081 -2.0080  1.6034 -0.2935
  179SOL    HW2  537   3.057   1.488   1.184 -1.2539  2.5873 -0.7152
  180SOL     OW  538   0.192   1.382   1.773  0.0238 -0.3592  0.2225
  180SOL    HW1  539   0.288   1.344   1.794 -2.2510 -0.8444  0.4861
  180SOL    HW2  540   0.147   1.432   1.857 -0.5388  1.7566  1.2683
  181SOL     OW  541   2.966   1.941   2.538 -0.0048 -0.3932  0.4403
  181SOL    HW1  542   3.031   2.013   2.500  3.3226  3.8106  0.1415
  181SOL    HW2  543   2.893   1.902   2.472  0.8363 -1.6422  0.2950
  182SOL     OW  544   2.341   1.276   1.264 -0.0585  0.1509 -0.2850
  182SOL    HW1  545   2.278   1.221   1.199  1.0463  0.2464  0.4418
  182SOL    HW2  546   2.381   1.360   1.226 -0.9913 -3.9305  0.8812
  183SOL     OW  547   1.378   2.306   2.454  0.0302  0.4581 -0.3414
  183SOL    HW1  548   1.324   2.272   2.533  1.3074  4.3354  0.2700
  183SOL    HW2  549   1.439   2.235   2.411 -0.8660 -1.6992  0.1659
  184SOL     OW  550   2.162   0.863   0.752  0.1076 -0.5144  0.4782
  184SOL    HW1  551   2.063   0.883   0.776 -2.4187 -0.3812  1.0594
  184SOL    HW2  552   2.174   0.768   0.705 -3.0051 -3.0567 -2.4540
  185SOL     OW  553   1.528   2.742   2.039 -0.0391 -0.1985  0.4355
  185SOL    HW1  554   1.453   2.811   2.053 -0.5910 -2.9160  2.3200
  185SOL    HW2  555   1.598   2.744   2.116  0.6081  0.1845 -0.8917
  186SOL     OW  556   0.058   2.205   1.642 -0.0874  0.3719 -0.2416
  186SOL    HW1  557   0.040   2.242   1.738 -2.6694  1.8204  3.1022
  186SOL    HW2  558   0.150   2.157   1.632  0.2555 -1.2680  0.9831
  187SOL     OW  559   1.355   0.627   1.662 -0.2325 -0.1602  0.5048
  187SOL    HW1  560   1.451   0.676   1.679  3.1266  0.6179 -1.1013
  187SOL    HW2  561   1.347   0.541   1.725 -0.2345  1.6943  1.1202
  188SOL     OW  562   2.770   2.712   1.412 -0.5197 -0.6568 -0.0598
  188SOL    HW1  563   2.758   2.816   1.416 -0.7334  0.7115 -0.7840
  188SOL    HW2  564   2.681   2.665   1.384 -1.3153  2.8255  3.3322
  189SOL     OW  565   0.893   1.200   1.396  0.3114  0.5884 -0.1787
  189SOL    HW1  566   0.957   1.252   1.465  1.8858  1.1897 -1.0181
  189SOL    HW2  567   0.836   1.268   1.342  0.5491 -0.5783  0.9953
  190SOL     OW  568   1.470   1.880   1.554 -0.2467  0.6443  0.2655
  190SOL    HW1  569   1.424   1.784   1.548  1.6888 -0.2052 -2.0980
  190SOL    HW2  570   1.485   1.905   1.655 -0.4351 -0.6219 -0.9199
  191SOL     OW  571   0.928   0.811   1.521 -0.0882 -0.2820 -0.3220
  191SOL    HW1  572   0.976   0.742   1.582  0.1649  1.9568 -0.9908
  191SOL    HW2  573   0.985   0.884   1.474 -2.3033  2.1100  0.2524
  192SOL     OW  574   1.855   2.469   1.110 -0.2810  0.0525 -0.3779
  192SOL    HW1  575   1.753   2.455   1.088  0.4186  0.5713  2.0981
  192SOL    HW2  576   1.917   2.421   1.047 -0.0054  0.0062  2.0087
  193SOL     OW  577   0.530   0.547   0.435  0.4515  0.7167  0.7059
  193SOL    HW1  578   0.475   0.458   0.444  0.4083 -1.4288  1.2611
  193SOL    HW2  579   0.570   0.569   0.346 -1.4985  1.6637  3.1339
  194SOL     OW  580   0.330   0.916   1.324  0.7606 -0.0379  0.2549
  194SOL    HW1  581   0.264   0.843   1.302 -0.5224 -0.0647 -1.1790
  194SOL    HW2  582   0.404   0.927   1.251  0.3104  2.2251  2.1679
  195SOL     OW  583   0.969   2.900   0.541 -0.2042  0.1373  0.2394
  195SOL    HW1  584   0.942   2.815   0.490  1.0967 -0.3785 -1.5491
  195SOL    HW2  585   1.067   2.922   0.519  0.1591  0.0991 -2.6455
  196SOL     OW  586   0.259   1.367   1.344  0.5388  0.3900 -0.0654
  196SOL    HW1  587   0.284   1.462   1.377  0.1698 -0.3367 -2.5154
  196SOL    HW2  588   0.240   1.300   1.423 -0.0257  0.9515 -0.3751
  197SOL     OW  589   0.825   2.015   0.337  0.0993  0.1692  0.0531
  197SOL    HW1  590   0.794   1.957   0.416  2.0493  0.7941 -1.9567
  197SOL    HW2  591   0.872   1.956   0.269 -1.3643 -1.2850  0.7817
  198SOL     OW  592   0.287   1.240   0.350  0.2458  0.3720 -0.2113
  198SOL    HW1  593   0.189   1.237   0.327  0.3650  0.6498  2.4391
  198SOL    HW2  594   0.306   1.332   0.387 -2.5276 -0.1191  0.8639
  199SOL     OW  595   2.260   0.468   2.578 -0.4918 -0.1499 -0.3020
  199SOL    HW1  596   2.198   0.416   2.642 -3.3961  1.0398  1.2375
  199SOL    HW2  597   2.360   0.445   2.606 -0.7914 -1.0329 -1.0071
  200SOL     OW  598   3.094   2.973   0.815 -0.1550  0.2549  0.1477
  200SOL    HW1  599   3.114   3.074   0.829  0.2681  2.3296  0.0380
  200SOL    HW2  600   3.024   2.954   0.743 -2.4771 -0.8833  1.0934
  201SOL     OW  601   0.933   0.733   0.509 -0.2405  0.0966 -0.3181
  201SOL    HW1  602   0.900   0.810   0.563 -1.7173 -0.9387 -0.0688
  201SOL    HW2  603   0.893   0.645   0.551 -2.5551 -2.6315  0.1462
  202SOL     OW  604   0.433   1.240   1.849  0.4506  0.5632 -0.3973
  202SOL    HW1  605   0.525   1.192   1.831 -1.9714 -0.4093 -3.3089
  202SOL    HW2  606   0.447   1.307   1.930  0.6411  0.5555 -0.5444
  203SOL     OW  607   0.618   0.223   1.560  0.2809 -0.2481  0.1044
  203SOL    HW1  608   0.620   0.169   1.474  1.4396  0.5843 -1.2004
  203SOL    HW2  609   0.681   0.188   1.630  0.8711 -0.8321 -2.1164
  204SOL     OW  610   2.105   1.800   2.983 -0.6762 -0.6779 -0.2334
  204SOL    HW1  611   2.111   1.696   2.984 -0.3957 -2.1502  0.9220
  204SOL    HW2  612   2.155   1.838   2.901  3.0255  1.4736 -2.8277
  205SOL     OW  613   1.839   1.885   0.008  0.1280 -0.0262  0.3999
  205SOL    HW1  614   1.931   1.855  -0.024  0.8153  2.9458 -0.1593
  205SOL    HW2  615   1.794   1.960  -0.046 -0.9907 -2.1682 -0.6568
  206SOL     OW  616   2.409   2.783   0.366  0.1396 -0.2536 -0.7609
  206SOL    HW1  617   2.386   2.684   0.355 -1.2635  1.2323  0.4198
  206SOL    HW2  618   2.484   2.814   0.297 -0.6745 -0.4789  0.8249
  207SOL     OW  619   0.708   1.741   2.884 -0.2336  0.1900  0.0696
  207SOL    HW1  620   0.795   1.691   2.845  0.7257 -1.9711 -1.5543
  207SOL    HW2  621   0.658   1.685   2.959 -1.8509 -1.8146  0.4844
  208SOL     OW  622   1.080   1.671   1.245 -0.8323 -0.3359 -0.3208
  208SOL    HW1  623   1.090   1.773   1.266  0.1400 -1.3266  1.5591
  208SOL    HW2  624   0.986   1.634   1.266 -0.5189 -0.9359 -0.9125
  209SOL     OW  625   0.205   0.991   3.086  0.3824 -0.0100 -0.1266
  209SOL    HW1  626   0.217   0.914   3.019  1.1304  0.1816  1.1104
  209SOL    HW2  627   0.204   0.955   3.185  0.0259 -0.8662 -0.6216
  210SOL     OW  628   1.713   0.483   1.233  0.1443 -0.1064  0.1410
  210SOL    HW1  629   1.660   0.562   1.197  0.5488  2.6125 -0.5332
  210SOL    HW2  630   1.815   0.510   1.229 -0.1267 -1.6213  1.4352
  211SOL     OW  631   2.043   1.031   1.559  0.4546  0.0438  0.2827
  211SOL    HW1  632   2.048   0.973   1.645 -1.9225  1.4097 -3.8407
  211SOL    HW2  633   2.125   1.097   1.544  1.6936 -0.0837 -1.3635
  212SOL     OW  634   0.039   0.961   1.493 -0.1028  0.0398 -0.7297
  212SOL    HW1  635   0.113   1.033   1.517  1.4878  0.7989  2.4364
  212SOL    HW2  636   0.034   0.880   1.560 -1.2031 -1.6203 -1.0432
  213SOL     OW  637   2.747   0.220   0.257  0.2520 -0.6046 -0.3881
  213SOL    HW1  638   2.825   0.237   0.198 -1.9264  1.7772  1.4884
  213SOL    HW2  639   2.708   0.127   0.252 -1.5529 -1.0833  0.4944
  214SOL     OW  640   2.153   0.360   2.343  0.0082 -0.3339  0.2827
  214SOL    HW1  641   2.188   0.410   2.431  0.3803  0.6956  1.1973
  214SOL    HW2  642   2.167   0.259   2.358  1.4615  3.2264 -0.3603
  215SOL     OW  643   1.654   2.277   2.097 -0.4197 -0.1104 -0.0538
  215SOL    HW1  644   1.752   2.306   2.092 -1.6805  0.8464  0.3017
  215SOL    HW2  645   1.589   2.360   2.106 -0.8415  1.4101  0.1889
  216SOL     OW  646   2.160   0.612   0.607  0.0624  0.5354 -0.4528
  216SOL    HW1  647   2.137   0.528   0.554 -0.1646 -2.3265 -3.6826
  216SOL    HW2  648   2.210   0.682   0.551 -1.3141 -0.1697 -1.8589
  217SOL     OW  649   0.917   2.837   2.536  0.6520  0.0799  0.0898
  217SOL    HW1  650   0.998   2.782   2.575  2.2701  0.9114 -0.2341
  217SOL    HW2  651   0.844   2.774   2.501  0.8533  3.2403  2.8400
  218SOL     OW  652   1.878   1.463   0.050 -0.0377  0.3050 -0.7727
  218SOL    HW1  653   1.781   1.472   0.013 -1.0191 -0.1809 -0.5124
  218SOL    HW2  654   1.891   1.376   0.103  1.8175 -1.3654 -0.1213
  219SOL     OW  655   2.482   1.278   2.532 -0.2535 -0.4650 -0.0060
  219SOL    HW1  656   2.524   1.228   2.452 -0.8646  1.5745  0.8804
  219SOL    HW2  657   2.507   1.237   2.623 -0.3993  0.4966 -3.0939
  220SOL     OW  658   1.429   1.015   1.408  0.0542 -0.0850 -0.0620
  220SOL    HW1  659   1.530   1.015   1.431  1.1702 -1.2618  0.8537
  220SOL    HW2  660   1.408   1.060   1.315  0.6646 -0.5910 -2.7128
  221SOL     OW  661   1.354   0.947   2.205 -0.0195  0.0685  0.4955
  221SOL    HW1  662   1.312   0.969   2.118  3.0498 -0.7585 -0.5270
  221SOL    HW2  663   1.449   0.994   2.212  3.9190 -0.5666 -2.3164
  222SOL     OW  664   1.088   0.131   1.237  0.2850 -0.8632  0.2440
  222SOL    HW1  665   1.037   0.193   1.299 -0.7392 -3.5194 -1.1716
  222SOL    HW2  666   1.119   0.173   1.148  0.3449 -1.6581 -1.1145
  223SOL     OW  667   2.706   0.907   2.088  0.1858 -0.0895 -0.1086
  223SOL    HW1  668   2.652   0.974   2.140  1.6840 -0.7893 -1.7668
  223SOL    HW2  669   2.800   0.890   2.133 -0.1666  1.2541  0.3009
  224SOL     OW  670   1.510   1.050   2.724  0.7973 -0.3727 -0.1111
  224SOL    HW1  671   1.553   0.964   2.679  0.2210  2.0260  3.1334
  224SOL    HW2  672   1.492   1.126   2.654  2.2909  3.0057  0.0374
  225SOL     OW  673   2.973   2.681   2.853 -0.3368  0.3712 -0.4656
  225SOL    HW1  674   2.890   2.650   2.807  2.7823  0.5257 -0.3286
  225SOL    HW2  675   2.987   2.781   2.847 -0.5659  0.6475 -0.3942
  226SOL     OW  676   2.369   1.604   2.785 -0.2045 -1.0517  0.3889
  226SOL    HW1  677   2.436   1.599   2.711 -2.8720 -0.5001  2.3115
  226SOL    HW2  678   2.368   1.509   2.829  0.0672  0.3695  1.2347
  227SOL     OW  679   0.859   0.248   3.079 -0.1058  0.3031  0.3586
  227SOL    HW1  680   0.883   0.341   3.043  1.4028  1.6316 -0.2727
  227SOL    HW2  681   0.836   0.184   3.001 -0.6265  0.2337 -0.9817
  228SOL     OW  682   2.414   0.595   2.816 -0.2999  0.0683  0.0395
  228SOL    HW1  683   2.430   0.678   2.755  1.8559 -1.1588  2.9326
  228SOL    HW2  684   2.510   0.548   2.822  1.6055  0.2613 -0.3271
  229SOL     OW  685   0.539   0.471   1.792 -0.8668  0.5233  0.2641
  229SOL    HW1  686   0.582   0.379   1.827  0.7748 -0.3434  0.8199
  229SOL    HW2  687   0.594   0.513   1.718 -2.6862 -1.8902  1.2805
  230SOL     OW  688   1.873   1.212   2.047  0.0285  0.0797  0.0167
  230SOL    HW1  689   1.947   1.265   1.998 -0.8227  0.7716 -1.4699
  230SOL    HW2  690   1.788   1.267   2.078 -0.8983 -0.3988 -0.5625
  231SOL     OW  691   0.667   1.069   3.091 -0.3428  0.3126 -0.0006
  231SOL    HW1  692   0.764   1.112   3.101 -1.9796  0.4399 -0.0231
  231SOL    HW2  693   0.592   1.131   3.118 -0.3457  3.3586  3.0841
  232SOL     OW  694   2.447   3.008   2.824 -0.6093  0.4193  0.4368
  232SOL    HW1  695   2.530   2.944   2.831  0.3883 -1.1947 -0.0689
  232SOL    HW2  696   2.462   3.070   2.740 -1.6828  1.0845 -2.2522
  233SOL     OW  697   1.759   1.256   1.211 -0.0765 -0.2203 -0.4881
  233SOL    HW1  698   1.810   1.224   1.126 -0.1749 -0.5757  0.7290
  233SOL    HW2  699   1.743   1.178   1.276 -1.3983  1.1559 -2.7072
  234SOL     OW  700   1.632   2.555   1.835  0.8440  1.0924 -0.3566
  234SOL    HW1  701   1.596   2.605   1.917 -0.3814 -0.9874 -1.7406
  234SOL    HW2  702   1.572   2.467   1.810  1.0635 -0.7846  1.3936
  235SOL     OW  703   0.020   2.960   2.873 -0.2710 -0.5015 -0.3358
  235SOL    HW1  704  -0.021   2.989   2.779  0.0480 -0.3150 -0.4429
  235SOL    HW2  705  -0.038   2.997   2.950 -1.8483  0.5153  2.1370
  236SOL     OW  706   2.917   0.665   0.110  0.7651 -0.4244 -0.1601
  236SOL    HW1  707   2.981   0.716   0.177  1.4241 -0.9854 -1.5288
  236SOL    HW2  708   2.958   0.587   0.060  1.5360 -2.1584  1.0562
  237SOL     OW  709   1.465   1.648   0.951 -0.2045 -0.1120 -0.2492
  237SOL    HW1  710   1.568   1.630   0.969  2.3269  0.3634 -0.3997
  237SOL    HW2  711   1.424   1.713   1.020  0.4457 -1.4964 -1.2724
  238SOL     OW  712   1.882   1.227   0.752  0.1192 -0.3213 -0.1353
  238SOL    HW1  713   1.919   1.230   0.845 -2.0909 -0.5809  0.3208
  238SOL    HW2  714   1.788   1.273   0.736  0.5775 -0.7476 -1.8568
  239SOL     OW  715   2.046   0.284   2.762  0.0496 -0.4151 -0.1645
  239SOL    HW1  716   2.069   0.245   2.854  0.3729 -1.5102 -3.8338
  239SOL    HW2  717   1.959   0.346   2.759 -2.6999 -1.7842 -1.0012
  240SOL     OW  718   0.924   0.693   0.227 -0.1308  0.2371  0.3638
  240SOL    HW1  719   0.986   0.618   0.194 -0.3228  0.8103 -1.1809
  240SOL    HW2  720   0.934   0.726   0.323  1.8197 -1.2648  3.0041
  241SOL     OW  721   0.586   0.081   0.392  0.2341  0.4234 -0.1715
  241SOL    HW1  722   0.637   0.159   0.348 -2.7139 -0.8491  1.5081
  241SOL    HW2  723   0.578   0.000   0.322  0.3301  0.6219 -1.8219
  242SOL     OW  724   0.620   2.559   1.189  0.1181 -0.1461  0.6631
  242SOL    HW1  725   0.637   2.532   1.289  0.0521 -1.0670  0.3448
  242SOL    HW2  726   0.592   2.659   1.188 -1.6044 -2.3377 -1.0311
  243SOL     OW  727   1.031   0.549   2.401 -0.1095  0.5163 -0.2842
  243SOL    HW1  728   0.945   0.601   2.368 -4.2241 -0.7402 -2.2089
  243SOL    HW2  729   1.030   0.507   2.500 -1.6906  0.8708  0.9258
  244SOL     OW  730   2.761   1.892   2.369 -0.4406  0.2209 -0.0961
  244SOL    HW1  731   2.794   1.857   2.277  0.5866  2.4636  1.6746
  244SOL    HW2  732   2.673   1.845   2.403  0.7850 -2.7610  0.0462
  245SOL     OW  733   2.174   0.927   2.176  0.0210  0.0570 -0.3265
  245SOL    HW1  734   2.242   0.899   2.249  0.7099  1.3598  1.8920
  245SOL    HW2  735   2.119   1.010   2.215 -0.9536  1.1265  1.7291
  246SOL     OW  736   0.225   2.871   1.741 -0.0547 -0.6069  0.3605
  246SOL    HW1  737   0.142   2.876   1.672  0.8770  3.0093  2.0942
  246SOL    HW2  738   0.287   2.952   1.726 -0.5032 -0.7854  0.3887
  247SOL     OW  739   2.236   0.632   3.033 -0.0448 -0.3114  0.6487
  247SOL    HW1  740   2.292   0.609   2.948 -0.5097  1.7303  1.6630
  247SOL    HW2  741   2.170   0.715   3.009  1.4510  0.3303 -1.9945
  248SOL     OW  742   2.196   1.843   1.580 -0.0975  0.5592  0.1286
  248SOL    HW1  743   2.265   1.796   1.636 -0.2673 -1.3109  1.3496
  248SOL    HW2  744   2.097   1.810   1.608  0.4949  0.4797  2.5334
  249SOL     OW  745   1.951   1.874   1.838  0.1190 -0.3023 -0.5296
  249SOL    HW1  746   1.949   1.817   1.750  1.2677  1.4782 -2.8720
  249SOL    HW2  747   2.046   1.889   1.875  0.4271 -0.8668 -1.9205
  250SOL     OW  748   1.109   0.726   1.885  0.5002  0.2043 -0.3068
  250SOL    HW1  749   1.148   0.664   1.959 -0.1410 -0.3716  1.6651
  250SOL    HW2  750   1.083   0.676   1.796  1.2249  2.9836  0.4415
  251SOL     OW  751   3.012   1.623   2.559  0.3258 -0.0030  0.5477
  251SOL    HW1  752   2.991   1.714   2.598  2.4403 -0.0708 -0.8999
  251SOL    HW2  753   2.924   1.570   2.544 -1.2075  0.5174 -0.6563
  252SOL     OW  754   1.600   0.757   1.712  0.1023  0.4107 -0.3257
  252SOL    HW1  755   1.690   0.742   1.663 -1.2816 -0.1565 -0.4942
  252SOL    HW2  756   1.576   0.858   1.708  1.3555  0.3978 -0.8294
  253SOL     OW  757   0.987   1.576   0.472  0.0814 -0.1550  0.8470
  253SOL    HW1  758   0.978   1.491   0.411 -2.7609 -0.7426  0.6140
  253SOL    HW2  759   0.896   1.601   0.522  0.1100  0.7487 -1.3289
  254SOL     OW  760   2.032   2.209   1.660 -0.0429  0.1160 -0.2729
  254SOL    HW1  761   1.989   2.118   1.639 -0.9040  1.1418  0.9750
  254SOL    HW2  762   1.964   2.269   1.708  0.0457 -0.5328 -0.6252
  255SOL     OW  763   0.144   1.189   2.904 -0.1991 -0.0057 -0.0564
  255SOL    HW1  764   0.193   1.279   2.889  2.4062  0.0518 -1.0212
  255SOL    HW2  765   0.203   1.125   2.966 -2.3336  0.4153 -1.6671
  256SOL     OW  766   2.840   1.380   1.866 -0.1780 -0.1008 -0.1915
  256SOL    HW1  767   2.769   1.447   1.838 -0.3977 -2.4855  2.6001
  256SOL    HW2  768   2.834   1.288   1.811  0.8997 -2.1792  0.1369
  257SOL     OW  769   0.799   0.131   1.759  0.3786 -0.1867  0.6474
  257SOL    HW1  770   0.848   0.217   1.728 -0.3183 -1.1264 -2.3461
  257SOL    HW2  771   0.855   0.043   1.745 -2.9678  3.5251  1.5221
  258SOL     OW  772   2.974   1.220   0.490 -0.0678 -0.1503  0.0107
  258SOL    HW1  773   2.892   1.224   0.555 -1.4465 -2.1144  1.3994
  258SOL    HW2  774   3.069   1.232   0.536  1.7177  1.2885 -3.0563
  259SOL     OW  775   0.387   2.911   3.040 -0.0997  0.7260  0.1683
  259SOL    HW1  776   0.343   2.853   3.112 -1.3924 -0.4059 -1.2066
  259SOL    HW2  777   0.403   2.862   2.946 -0.3598  0.9939 -2.8371
  260SOL     OW  778   2.739   0.738   2.790  0.7155  0.3267 -0.4335
  260SOL    HW1  779   2.656   0.799   2.769  0.2381 -1.0137 -1.5441
  260SOL    HW2  780   2.715   0.657   2.854  3.8337 -1.1782 -2.2978
  261SOL     OW  781   2.692   1.262   1.284  0.3732  0.2280  0.3579
  261SOL    HW1  782   2.631   1.204   1.222 -1.7316  0.2657 -2.1453
  261SOL    HW2  783   2.777   1.220   1.326  1.0431  2.0057  0.7230
  262SOL     OW  784   1.370   2.974   1.943  0.3233  0.0518  0.5513
  262SOL    HW1  785   1.425   3.061   1.955  0.5465 -0.6009  1.7449
  262SOL    HW2  786   1.267   2.986   1.922 -2.5720 -1.3740  0.7882
  263SOL     OW  787   0.836   0.685   2.282 -0.4352 -0.2765  0.0306
  263SOL    HW1  788   0.805   0.595   2.241  1.6147  2.4995 -4.7589
  263SOL    HW2  789   0.852   0.761   2.210 -1.3052  1.2237  0.6922
  264SOL     OW  790   2.261   0.786   0.447 -0.0723 -0.8059  0.8584
  264SOL    HW1  791   2.250   0.735   0.355  2.7960  1.6353 -2.4284
  264SOL    HW2  792   2.335   0.857   0.449  0.4396 -0.0450  1.2255
  265SOL     OW  793   0.949   2.421   2.613 -0.0307 -0.8463 -0.1845
  265SOL    HW1  794   1.013   2.483   2.669 -0.4823  3.0763  1.3573
  265SOL    HW2  795   0.915   2.341   2.665  1.7152  2.1149 -0.9186
  266SOL     OW  796   1.332   1.769   3.056 -0.1084 -0.2896  0.1372
  266SOL    HW1  797   1.342   1.799   3.154 -2.1925  1.4581 -0.7416
  266SOL    HW2  798   1.428   1.743   3.025  1.4827  0.8876  1.3837
  267SOL     OW  799   1.089   0.064   2.287  0.6053 -0.5143 -0.2100
  267SOL    HW1  800   1.021  -0.008   2.250  0.2734 -0.1846 -2.5198
  267SOL    HW2  801   1.113   0.137   2.213  0.7301  0.4788 -4.0728
  268SOL     OW  802   0.787   1.262   1.033  0.7527 -0.6301 -0.1170
  268SOL    HW1  803   0.752   1.271   1.129  3.2472  0.0622 -0.9620
  268SOL    HW2  804   0.795   1.360   0.989 -0.4832  3.5654 -0.7203
  269SOL     OW  805   2.364   2.508   1.594  0.2154 -0.1471  0.5284
  269SOL    HW1  806   2.444   2.439   1.593  1.2861  2.9748  2.1334
  269SOL    HW2  807   2.298   2.512   1.678  1.0792  1.2507  0.6089
  270SOL     OW  808   0.133   2.955   1.973  0.2649  0.0736  0.5685
  270SOL    HW1  809   0.167   2.901   1.889 -1.7142 -1.8111  1.1578
  270SOL    HW2  810   0.093   2.893   2.044 -2.3503  1.0511 -0.3069
  271SOL     OW  811   0.465   1.411   1.142  1.0201  0.2173 -0.2975
  271SOL    HW1  812   0.437   1.368   1.052  3.3983  2.3584  0.6831
  271SOL    HW2  813   0.396   1.400   1.218 -0.4360  2.0984 -1.5692
  272SOL     OW  814   1.984   3.004   1.962 -0.7173  0.5599  0.0742
  272SOL    HW1  815   1.884   2.975   1.957  2.2164  2.0940  3.8339
  272SOL    HW2  816   2.033   2.983   1.875 -0.5699  1.7230  0.8903
  273SOL     OW  817   1.483   1.489   2.731  0.0461  0.1141 -0.1820
  273SOL    HW1  818   1.398   1.433   2.710 -0.8408  0.4622  0.4806
  273SOL    HW2  819   1.540   1.451   2.805  1.2586  1.3439 -1.2213
  274SOL     OW  820   1.170   0.506   2.064 -0.1379 -0.1364 -0.2141
  274SOL    HW1  821   1.089   0.437   2.069 -0.4873  0.2314  0.6151
  274SOL    HW2  822   1.211   0.518   2.161  3.2188 -2.0113  0.7867
  275SOL     OW  823   0.643   2.140   1.905 -0.3727  0.0228 -0.0046
  275SOL    HW1  824   0.605   2.232   1.944 -1.4781  1.7301 -1.3802
  275SOL    HW2  825   0.573   2.064   1.921  1.0701 -2.3012  2.1776
  276SOL     OW  826   2.175   1.076   2.803 -0.2764 -0.7167  0.3756
  276SOL    HW1  827   2.102   1.113   2.740 -0.7677 -2.0118  2.2525
  276SOL    HW2  828   2.175   0.970   2.809 -0.6764 -2.4518 -1.6632
  277SOL     OW  829   0.002   0.813   0.271 -1.2681 -0.2093 -0.0146
  277SOL    HW1  830   0.101   0.832   0.246 -1.2982  0.0844  0.0222
  277SOL    HW2  831  -0.006   0.731   0.336 -0.2043  1.0941  1.2764
  278SOL     OW  832   0.225   0.238   2.952  0.3842  0.1077  0.3352
  278SOL    HW1  833   0.297   0.161   2.954  1.2314 -1.4166 -0.2932
  278SOL    HW2  834   0.264   0.330   2.953 -2.4480 -1.6041  1.2045
  279SOL     OW  835   0.275   0.053   0.935  0.1080  0.4271  0.0608
  279SOL    HW1  836   0.273  -0.054   0.932  0.0160 -0.0957  0.8651
  279SOL    HW2  837   0.354   0.089   0.882  0.5839  0.5899 -0.0676
  280SOL     OW  838   1.606   2.971   2.402  0.2549 -0.5137  0.2051
  280SOL    HW1  839   1.668   3.020   2.475  2.7459 -0.6348  4.1217
  280SOL    HW2  840   1.558   3.035   2.337 -0.9059 -2.9509 -1.0080
  281SOL     OW  841   0.567   0.965   2.283  0.0285 -0.2278 -0.2953
  281SOL    HW1  842   0.554   0.891   2.210 -2.6648  0.3505 -0.6458
  281SOL    HW2  843   0.523   0.940   2.373  2.4035  0.4288 -0.6895
  282SOL     OW  844   1.782   2.482   0.519  0.3983 -0.4412  0.1456
  282SOL    HW1  845   1.726   2.402   0.483  1.8139  0.6079 -2.3222
  282SOL    HW2  846   1.741   2.573   0.489 -2.4676  0.8356  2.2181
  283SOL     OW  847   1.151   0.945   0.763 -0.7497  0.0559 -0.2291
  283SOL    HW1  848   1.180   0.873   0.835  0.0994 -0.1525  0.2554
  283SOL    HW2  849   1.130   1.041   0.801 -0.1202 -0.5837  2.4104
  284SOL     OW  850   2.238   2.826   2.500  0.4913  0.5070  0.0699
  284SOL    HW1  851   2.339   2.796   2.482 -3.0839 -3.0442 -0.3236
  284SOL    HW2  852   2.223   2.874   2.591 -1.3980  2.1154  0.0366
  285SOL     OW  853   1.390   0.012   2.565 -0.3752  0.6419 -0.0344
  285SOL    HW1  854   1.448   0.029   2.480 -0.3638 -1.1923  2.3477
  285SOL    HW2  855   1.290   0.037   2.556 -0.9770 -0.4688  1.8153
  286SOL     OW  856   0.440   0.435   0.781  0.8020  0.0396  0.0947
  286SOL    HW1  857   0.428   0.375   0.865 -0.2575 -0.3562  0.0759
  286SOL    HW2  858   0.445   0.389   0.685 -1.2738 -3.2126 -0.7672
  287SOL     OW  859   0.070   1.302   2.606 -0.0958  0.2834  1.2789
  287SOL    HW1  860   0.061   1.208   2.654  1.6466 -2.1677 -1.2388
  287SOL    HW2  861   0.108   1.383   2.662  2.8349  2.4112  3.6320
  288SOL     OW  862   1.579   2.734   1.626 -0.5964 -0.1453 -0.0051
  288SOL    HW1  863   1.621   2.670   1.700 -0.8956  1.2095 -0.0900
  288SOL    HW2  864   1.587   2.706   1.529 -1.2474  2.3472  1.0791
  289SOL     OW  865   0.589   2.717   0.865  0.7101 -0.1792 -0.3189
  289SOL    HW1  866   0.639   2.785   0.803 -3.8266  0.2754  0.1716
  289SOL    HW2  867   0.578   2.744   0.965 -1.1507 -0.8870  1.6876
  290SOL     OW  868   2.805   1.133   1.738 -0.3976  0.2971  0.1725
  290SOL    HW1  869   2.729   1.061   1.739 -0.1721 -2.4275 -1.8988
  290SOL    HW2  870   2.889   1.087   1.784  0.5187 -1.9969 -1.6998
  291SOL     OW  871   1.961   3.084   0.040 -0.4242 -0.0178  0.2371
  291SOL    HW1  872   1.978   3.123   0.133 -0.2315  2.0421 -3.5860
  291SOL    HW2  873   2.009   3.136  -0.039  0.7668  1.0125  1.3580
  292SOL     OW  874   3.026   1.230   3.098  0.2122 -0.2568 -0.5417
  292SOL    HW1  875   2.978   1.283   3.022 -1.2249 -2.5797  0.4010
  292SOL    HW2  876   3.114   1.190   3.069 -4.1539 -0.7020  0.9428
  293SOL     OW  877   0.594   2.128   0.277  0.1108 -0.3014  0.0140
  293SOL    HW1  878   0.547   2.183   0.348  1.8388 -1.7932  0.7462
  293SOL    HW2  879   0.692   2.099   0.308  0.9520 -2.0510  0.9909
  294SOL     OW  880   1.831   2.333   1.809  0.4982  0.1041  0.8538
  294SOL    HW1  881   1.861   2.334   1.913  0.9933  0.2224  4.7904
  294SOL    HW2  882   1.784   2.421   1.776  1.4725  1.3457 -1.1333
  295SOL     OW  883   0.984   1.064   0.451  0.0056  0.8147  0.3931
  295SOL    HW1  884   1.077   1.094   0.475 -0.7896 -1.8798  0.6357
  295SOL    HW2  885   0.942   1.009   0.531 -0.4836  1.6162  2.1903
  296SOL     OW  886   1.188   2.130   2.750 -0.6296 -0.1455 -0.0834
  296SOL    HW1  887   1.103   2.174   2.710  0.9407 -0.8194  1.3371
  296SOL    HW2  888   1.233   2.081   2.671 -0.2216  2.5550  1.1839
  297SOL     OW  889   1.354   0.570   1.290  0.1385 -0.1694 -0.0718
  297SOL    HW1  890   1.397   0.496   1.355 -0.7900  0.0506  0.4185
  297SOL    HW2  891   1.418   0.609   1.217 -1.4708 -2.1154  1.2085
  298SOL     OW  892   0.526   1.369   2.990 -0.0123 -0.5202 -0.1540
  298SOL    HW1  893   0.487   1.302   3.061 -1.3216 -0.6776 -0.3421
  298SOL    HW2  894   0.571   1.326   2.905  2.8509 -2.9875 -0.4847
  299SOL     OW  895   0.419   0.266   1.314 -0.1253 -0.5595  0.0892
  299SOL    HW1  896   0.383   0.358   1.277  0.4231 -0.8439 -1.5557
  299SOL    HW2  897   0.357   0.239   1.397 -1.1270  1.4135  1.5570
  300SOL     OW  898   1.269   1.728   2.577  0.0791  0.0617 -0.2122
  300SOL    HW1  899   1.228   1.647   2.524 -0.1495 -2.3244 -2.1343
  300SOL    HW2  900   1.371   1.715   2.592 -0.5495 -1.4622  4.1637
  301SOL     OW  901   0.422   0.279   0.513 -0.7666  0.4844  0.2316
  301SOL    HW1  902   0.337   0.233   0.549  2.6198 -2.8473 -0.8173
  301SOL    HW2  903   0.484   0.214   0.469 -1.4631  6.1626  0.0738
  302SOL     OW  904   1.263   2.464   2.279  0.3732  0.2605 -0.7478
  302SOL    HW1  905   1.176   2.511   2.307  2.6015  0.7491  0.8436
  302SOL    HW2  906   1.274   2.376   2.336  2.1130 -0.4301  1.0568
  303SOL     OW  907   0.939   2.410   0.801 -0.1188 -0.6718 -0.1896
  303SOL    HW1  908   0.992   2.447   0.717 -0.3635  0.1457 -3.2888
  303SOL    HW2  909   0.968   2.471   0.878  0.5462 -0.9093 -0.6889
  304SOL     OW  910   0.079   1.905   0.681  0.4782 -0.6657 -0.2497
  304SOL    HW1  911   0.146   1.887   0.610  0.7371  4.4342  3.4865
  304SOL    HW2  912   0.010   1.983   0.656 -1.7746 -1.5147  0.8285
  305SOL     OW  913   1.588   0.868   0.686 -0.3210  0.0363 -0.8984
  305SOL    HW1  914   1.542   0.868   0.593 -1.9676  4.0318  2.1234
  305SOL    HW2  915   1.622   0.771   0.696 -0.5631 -1.3962  2.2791
  306SOL     OW  916   0.424   1.937   1.905 -0.0829 -0.1941  0.5434
  306SOL    HW1  917   0.483   1.863   1.869 -1.3386 -0.4310  1.6358
  306SOL    HW2  918   0.419   1.935   2.008  0.3630  0.2334 -0.4574
  307SOL     OW  919   3.050   0.889   2.478  0.6181  0.1085 -0.2930
  307SOL    HW1  920   3.067   0.950   2.562 -0.1707 -0.3593  0.4475
  307SOL    HW2  921   3.012   0.796   2.507  1.3511 -0.9129  0.4285
  308SOL     OW  922   1.555   2.689   2.821 -0.6928 -0.0293 -0.8589
  308SOL    HW1  923   1.576   2.637   2.735  0.2665  0.7667  2.1005
  308SOL    HW2  924   1.476   2.641   2.870 -2.6119  0.2180 -1.4761
  309SOL     OW  925   1.238   0.159   1.794 -0.1554 -0.0761 -0.0151
  309SOL    HW1  926   1.342   0.141   1.807  0.7423  0.9173  0.2987
  309SOL    HW2  927   1.211   0.195   1.699 -2.3641 -0.3730 -1.5633
  310SOL     OW  928   1.496   2.591   0.676 -0.1992  0.2173  0.0252
  310SOL    HW1  929   1.449   2.617   0.763 -2.4140  2.5141  2.7055
  310SOL    HW2  930   1.576   2.649   0.659 -3.7723 -1.9430 -1.6921
  311SOL     OW  931   1.158   0.990   1.755 -0.0642 -0.0281  0.7228
  311SOL    HW1  932   1.102   0.915   1.794  0.3208 -0.5896  0.0706
  311SOL    HW2  933   1.198   0.959   1.665  1.5179 -0.0841 -0.3535
  312SOL     OW  934   1.543   0.666   1.105  0.0231  0.2836 -0.4137
  312SOL    HW1  935   1.549   0.767   1.114 -0.8983 -2.5262 -2.0056
  312SOL    HW2  936   1.526   0.644   1.007 -2.1850  0.4280  0.7991
  313SOL     OW  937   1.638   1.332   0.736  0.3719 -0.1050  0.1843
  313SOL    HW1  938   1.595   1.310   0.833  1.4629 -1.3561  2.4919
  313SOL    HW2  939   1.612   1.261   0.665 -1.7749 -2.5133  0.7975
  314SOL     OW  940   2.977   3.093   3.082 -0.1727  0.1012 -0.0962
  314SOL    HW1  941   3.012   3.120   3.171  0.0873  1.3555 -2.5998
  314SOL    HW2  942   2.881   3.056   3.083 -0.9927  0.9011 -0.7971
  315SOL     OW  943   1.164   0.243   2.755 -0.4581 -0.3786 -0.0316
  315SOL    HW1  944   1.139   0.170   2.681  1.5823  0.5401 -1.2622
  315SOL    HW2  945   1.200   0.202   2.840 -2.0529  0.7732 -0.4355
  316SOL     OW  946   1.720   2.091   0.898 -0.3853  0.0209  0.1979
  316SOL    HW1  947   1.636   2.087   0.964 -1.7404 -1.5665 -1.1209
  316SOL    HW2  948   1.755   2.183   0.874 -2.0570  0.4136  0.5142
  317SOL     OW  949   1.144   0.640   2.768 -0.0017  0.6174  0.3237
  317SOL    HW1  950   1.091   0.695   2.834  0.6463 -1.4404 -0.7061
  317SOL    HW2  951   1.094   0.557   2.725 -0.7083 -1.7059  0.0197
  318SOL     OW  952   1.426   0.001   2.241 -0.3137 -0.1208  0.3504
  318SOL    HW1  953   1.409   0.102   2.245 -2.2645  0.5814 -2.9645
  318SOL    HW2  954   1.355  -0.045   2.183  0.3336 -0.5032 -2.9714
  319SOL     OW  955   0.669   2.348   2.926  0.1537 -0.1239  0.3597
  319SOL    HW1  956   0.608   2.289   2.987 -2.1958  1.3204 -1.0926
  319SOL    HW2  957   0.731   2.297   2.857 -1.0406  2.5840 -1.5249
  320SOL     OW  958   1.670   2.249   0.401  0.9626 -0.0781 -0.4238
  320SOL    HW1  959   1.746   2.189   0.394 -2.7818  1.8377  2.8915
  320SOL    HW2  960   1.591   2.204   0.448  2.3282  0.3753 -1.0600
  321SOL     OW  961   1.685   2.774   0.556  0.2989  0.5097 -0.6307
  321SOL    HW1  962   1.594   2.788   0.498 -0.4605 -1.0320 -0.5655
  321SOL    HW2  963   1.767   2.808   0.505 -0.7669  0.4349 -1.0282
  322SOL     OW  964   2.604   1.129   2.304 -0.0043  0.1600 -0.1052
  322SOL    HW1  965   2.670   1.150   2.383 -0.7118 -0.9477 -1.5967
  322SOL    HW2  966   2.561   1.036   2.317  1.0696 -0.8551  2.3742
  323SOL     OW  967   1.167   2.683   0.806  0.3372  0.4006  0.1354
  323SOL    HW1  968   1.139   2.614   0.728  0.9443 -0.2628  0.1099
  323SOL    HW2  969   1.106   2.768   0.803  0.1448  4.8592  0.7557
  324SOL     OW  970   0.208   2.542   2.436  0.1005 -0.2166 -0.1678
  324SOL    HW1  971   0.133   2.484   2.479 -0.4705 -0.6977 -0.4500
  324SOL    HW2  972   0.230   2.625   2.493  1.4967 -1.3958 -3.4501
  325SOL     OW  973   1.209   3.022   0.459 -0.1233  0.1307  0.0462
  325SOL    HW1  974   1.204   3.045   0.359 -1.6029  0.6083  2.1316
  325SOL    HW2  975   1.249   3.101   0.519  3.3690 -0.5955 -2.9414
  326SOL     OW  976   2.473   0.771   3.086  0.2343 -0.4749 -0.3670
  326SOL    HW1  977   2.375   0.732   3.063 -0.4838  2.2613 -1.3168
  326SOL    HW2  978   2.532   0.700   3.134  1.4277 -1.4627  0.2544
  327SOL     OW  979   2.799   0.287   0.517  0.1139 -0.4469 -0.9906
  327SOL    HW1  980   2.793   0.249   0.422  2.0298  1.0105  3.5503
  327SOL    HW2  981   2.783   0.213   0.588  0.0191  2.1807 -0.4920
  328SOL     OW  982   2.590   0.646   0.417 -0.8755  0.1638  0.3406
  328SOL    HW1  983   2.646   0.689   0.493  1.5875  1.8129 -2.6044
  328SOL    HW2  984   2.589   0.541   0.422  0.1381 -0.9072 -0.7989
  329SOL     OW  985   2.929   3.002   2.097  0.1887  0.4762  0.4656
  329SOL    HW1  986   3.010   2.949   2.136  1.4624  0.7326 -0.8392
  329SOL    HW2  987   2.936   3.104   2.106 -0.0937  1.6055 -1.7721
  330SOL     OW  988   0.594   0.218   1.922  0.0934  0.2775 -0.1883
  330SOL    HW1  989   0.661   0.175   1.853 -2.8866  0.0166  0.1684
  330SOL    HW2  990   0.569   0.160   2.003 -1.5332  1.6259 -2.3318
  331SOL     OW  991   3.026   1.892   1.115 -0.1074 -0.4091 -0.1690
  331SOL    HW1  992   3.010   1.932   1.024  0.5268  2.2215 -0.3216
  331SOL    HW2  993   2.947   1.880   1.180  1.7530  0.6872  0.6224
  332SOL     OW  994   0.421   1.173   0.062  0.4493 -0.0114 -0.3776
  332SOL    HW1  995   0.334   1.114   0.042 -1.3342  0.2662 -0.3267
  332SOL    HW2  996   0.431   1.176   0.167  0.5152 -1.9887  2.2273
  333SOL     OW  997   2.900   0.973   0.386 -0.5735 -0.2183 -0.4304
  333SOL    HW1  998   2.930   1.066   0.435  1.9834  1.2566 -1.7038
  333SOL    HW2  999   2.981   0.920   0.349 -2.4544  1.4310  4.3921
  334SOL     OW 1000   1.688   1.237   1.801  0.1649 -0.7261 -0.7526
  334SOL    HW1 1001   1.744   1.219   1.716  2.0338 -2.3543 -2.1522
  334SOL    HW2 1002   1.748   1.223   1.884  0.8606  1.4468  0.0070
  335SOL     OW 1003   1.952   2.744   2.626 -0.2090  0.4223  0.3685
  335SOL    HW1 1004   1.913   2.782   2.715 -1.0815  2.4211 -3.2440
  335SOL    HW2 1005   2.046   2.779   2.608 -2.1972 -0.7394  0.8809
  336SOL     OW 1006   0.261   0.005   2.720  0.5197 -0.1571  0.5909
  336SOL    HW1 1007   0.337   0.032   2.788  2.3651 -1.9193  0.7995
  336SOL    HW2 1008   0.180  -0.027   2.769  1.3557 -0.6529 -0.5308
  337SOL     OW 1009   0.917   2.908   2.968 -0.3047 -0.4423 -0.0595
  337SOL    HW1 1010   0.898   2.804   2.988 -0.0527  2.6254 -1.0019
  337SOL    HW2 1011   1.013   2.936   3.004  2.3802 -2.0691  0.6205
  338SOL     OW 1012   0.024   0.956   0.659 -0.0686  0.1058  0.0043
  338SOL    HW1 1013  -0.065   0.917   0.702 -1.8096 -2.7772 -2.5023
  338SOL    HW2 1014   0.037   1.056   0.682 -2.5223 -0.6828  0.7240
  339SOL     OW 1015   1.655   1.353   2.163 -0.7813  0.3672  0.0757
  339SOL    HW1 1016   1.570   1.379   2.116  3.7063 -0.9664 -4.5621
  339SOL    HW2 1017   1.708   1.419   2.219 -2.1702 -3.3407  1.7704
  340SOL     OW 1018   2.235   0.796   1.170  0.3808  0.4059 -0.2469
  340SOL    HW1 1019   2.138   0.838   1.171  2.0265 -0.1286  1.4606
  340SOL    HW2 1020   2.229   0.699   1.135 -0.2804  0.2938 -1.5484
  341SOL     OW 1021   1.896   2.078   0.351 -0.1905 -0.6422  0.0231
  341SOL    HW1 1022   1.912   2.116   0.255 -0.6196 -0.2787  1.8954
  341SOL    HW2 1023   1.983   2.060   0.403 -0.9647 -0.7506  1.5201
  342SOL     OW 1024   2.157   2.095   2.743 -0.2558 -0.5596 -0.3054
  342SOL    HW1 1025   2.217   2.009   2.749 -1.2999 -1.2871 -1.3451
  342SOL    HW2 1026   2.064   2.074   2.705  0.8307  1.9366  0.3165
  343SOL     OW 1027   0.416   0.777   2.749 -0.2120  0.0497 -0.3822
  343SOL    HW1 1028   0.414   0.829   2.659 -2.7463  1.0270 -0.1677
  343SOL    HW2 1029   0.505   0.801   2.803  1.8700 -0.3011 -1.3545
  344SOL     OW 1030   1.907   1.493   0.408  0.5035 -0.2892  0.4683
  344SOL    HW1 1031   1.921   1.408   0.351 -1.2604 -1.3671  1.6988
  344SOL    HW2 1032   1.808   1.513   0.430  0.5671  0.7630 -1.3057
  345SOL     OW 1033   1.397   2.238   2.868  0.3084  0.0397 -0.0810
  345SOL    HW1 1034   1.304   2.212   2.824 -1.3366 -0.5395 -0.5188
  345SOL    HW2 1035   1.482   2.189   2.827  0.1151 -1.1286  2.0975
  346SOL     OW 1036   2.353   0.902   1.401  0.1307  0.0488  0.0413
  346SOL    HW1 1037   2.284   0.968   1.446 -2.5343  1.2406 -0.1198
  346SOL    HW2 1038   2.311   0.853   1.315 -0.2750 -0.4869 -1.4241
  347SOL     OW 1039   0.701   2.730   1.639 -0.3074  0.4049  0.8492
  347SOL    HW1 1040   0.646   2.737   1.728  1.9850  0.9130 -0.0762
  347SOL    HW2 1041   0.639   2.734   1.555 -3.0996  0.1602  0.3259
  348SOL     OW 1042   0.167   0.797   2.876  0.0127  0.1406  0.1303
  348SOL    HW1 1043   0.089   0.752   2.816 -1.1176 -0.6219 -0.0381
  348SOL    HW2 1044   0.266   0.783   2.841  1.0226 -0.2202  1.4626
  349SOL     OW 1045   1.851   0.454   2.807  0.2041  0.0793  0.3608
  349SOL    HW1 1046   1.837   0.522   2.733  1.1492 -2.6706 -1.4309
  349SOL    HW2 1047   1.824   0.482   2.905  0.4461  0.6209  1.0564
  350SOL     OW 1048   1.703   0.359   0.362  0.2575 -0.0306 -0.0012
  350SOL    HW1 1049   1.776   0.389   0.428 -2.2482 -1.0679 -0.0784
  350SOL    HW2 1050   1.655   0.437   0.321  1.0433  0.0661  0.0721
  351SOL     OW 1051   0.933   0.829   2.055 -0.4165 -0.5372  0.0142
  351SOL    HW1 1052   0.926   0.930   2.087 -2.3936  1.3546 -0.4813
  351SOL    HW2 1053   1.002   0.808   1.983  0.8879 -0.6315 -0.8326
  352SOL     OW 1054   2.066   1.351   0.582 -0.9579 -0.2876  0.5633
  352SOL    HW1 1055   2.025   1.427   0.522  2.2848  2.1974 -2.0435
  352SOL    HW2 1056   1.997   1.302   0.639 -0.9256 -2.9754 -1.4929
  353SOL     OW 1057   2.190   2.815   1.081 -0.3995 -0.1290  0.6761
  353SOL    HW1 1058   2.232   2.745   1.141  2.0329  3.3359 -0.9517
  353SOL    HW2 1059   2.099   2.843   1.113  1.1168 -0.7512  1.4724
  354SOL     OW 1060   0.277   1.437   2.865 -0.7020 -0.1429  0.0463
  354SOL    HW1 1061   0.269   1.525   2.807 -0.1958 -0.3326  0.3843
  354SOL    HW2 1062   0.376   1.413   2.894 -1.9144 -0.1132 -1.2860
  355SOL     OW 1063   0.746   1.592   0.606  0.1826 -0.5295 -0.5695
  355SOL    HW1 1064   0.764   1.540   0.697 -1.1763 -0.2680  1.0050
  355SOL    HW2 1065   0.710   1.530   0.531 -2.8507  0.6271 -1.1018
  356SOL     OW 1066   0.874   0.284   2.027  0.2869 -0.1654  0.0424
  356SOL    HW1 1067   0.967   0.238   2.025  2.3324 -1.7696  2.0898
  356SOL    HW2 1068   0.806   0.249   1.962  2.4490 -0.8611 -1.0993
  357SOL     OW 1069   1.005   1.335   0.365  0.1457 -0.8454 -0.3348
  357SOL    HW1 1070   1.096   1.330   0.312 -1.8656  1.2571 -3.2007
  357SOL    HW2 1071   0.961   1.243   0.385 -1.0298  2.5274 -0.6425
  358SOL     OW 1072   1.632   1.533   0.522  0.3452  0.2554  0.3185
  358SOL    HW1 1073   1.627   1.453   0.589  0.7402 -0.4767 -4.0769
  358SOL    HW2 1074   1.603   1.500   0.426  2.6678 -1.8177  2.1337
  359SOL     OW 1075   1.621   2.586   0.309  0.1905  0.3056  0.4371
  359SOL    HW1 1076   1.589   2.508   0.248  2.0223  1.1186  2.2193
  359SOL    HW2 1077   1.545   2.646   0.343 -0.8952 -1.8902 -0.7695
  360SOL     OW 1078   0.792   0.517   0.580 -0.1682 -0.1941 -0.0681
  360SOL    HW1 1079   0.710   0.541   0.521  1.0198  1.4789  2.0514
  360SOL    HW2 1080   0.800   0.414   0.601  2.8475 -3.5149  0.5245
  361SOL     OW 1081   1.335   1.275   0.624  0.6068  0.3424 -0.2885
  361SOL    HW1 1082   1.399   1.324   0.690 -0.0310 -2.5484  1.3273
  361SOL    HW2 1083   1.242   1.329   0.617 -0.1050  3.1094 -1.9310
  362SOL     OW 1084   1.375   1.769   0.715 -0.0632  0.2571  0.0661
  362SOL    HW1 1085   1.435   1.724   0.788  2.8566  2.8400 -0.5118
  362SOL    HW2 1086   1.429   1.804   0.633 -2.1905  1.6547  0.0667
  363SOL     OW 1087   1.253   1.312   2.070  0.5215 -0.1398  0.2282
  363SOL    HW1 1088   1.339   1.367   2.057  1.7756  0.3166 -0.5086
  363SOL    HW2 1089   1.175   1.373   2.092 -0.3120  0.9397 -1.5308
  364SOL     OW 1090   0.546   2.353   2.046  0.4379 -0.3702  0.4498
  364SOL    HW1 1091   0.452   2.378   2.086  0.4513 -0.0626  0.9488
  364SOL    HW2 1092   0.571   2.403   1.958  0.0922 -2.0786 -0.8310
  365SOL     OW 1093   1.028   1.990   1.338 -0.5575 -0.3500  0.4776
  365SOL    HW1 1094   0.931   1.980   1.373  0.2199 -2.2850 -0.3271
  365SOL    HW2 1095   1.024   2.025   1.237 -2.7155 -1.5744  0.4612
  366SOL     OW 1096   2.853   1.960   0.333 -0.0036  0.6247 -0.6106
  366SOL    HW1 1097   2.760   1.917   0.302 -3.1573  0.5603  0.6570
  366SOL    HW2 1098   2.935   1.900   0.314 -1.2714 -0.8021 -0.3319
  367SOL     OW 1099   0.909   1.191   0.032 -0.8244  0.1169  0.1824
  367SOL    HW1 1100   0.928   1.115   0.105  2.0536  1.1402  3.8476
  367SOL    HW2 1101   0.997   1.241   0.011  0.2590 -0.9293 -0.8009
  368SOL     OW 1102   1.481   0.561   0.563  0.0788  0.5224 -0.0259
  368SOL    HW1 1103   1.383   0.586   0.529  2.1787  1.1387 -0.9734
  368SOL    HW2 1104   1.555   0.636   0.556 -0.0702  1.3178 -2.3584
  369SOL     OW 1105   0.401   1.721   0.159 -0.0286 -0.3108 -0.2146
  369SOL    HW1 1106   0.419   1.772   0.246  2.5115  0.0900 -1.9039
  369SOL    HW2 1107   0.356   1.630   0.178  0.6397  0.9080 -1.5060
  370SOL     OW 1108   0.384   2.124   1.042 -0.3267  0.7826  0.5771
  370SOL    HW1 1109   0.398   2.222   1.014  0.3071  0.1441 -0.9903
  370SOL    HW2 1110   0.305   2.084   0.988 -1.9271  1.3672 -2.8224
  371SOL     OW 1111   2.879   2.232   2.657  0.0775  0.2545  0.1862
  371SOL    HW1 1112   2.820   2.169   2.716  0.8700  1.1564  2.0073
  371SOL    HW2 1113   2.924   2.307   2.714  2.5326  1.0350 -0.0608
  372SOL     OW 1114   1.070   2.108   1.107  0.5227  0.4404  0.8690
  372SOL    HW1 1115   1.004   2.135   1.032  2.0273  0.7545 -0.7112
  372SOL    HW2 1116   1.148   2.175   1.116  1.0089  0.3295  2.7394
  373SOL     OW 1117   1.917   1.921   0.989 -0.1531  0.7265 -0.3830
  373SOL    HW1 1118   2.011   1.953   1.018 -0.6952  0.0687  3.3987
  373SOL    HW2 1119   1.863   1.993   0.942 -5.0768 -0.2562  2.2619
  374SOL     OW 1120   1.860   0.415   0.573 -0.0635  0.2113  0.2541
  374SOL    HW1 1121   1.831   0.374   0.663  1.6111 -1.0993 -3.1155
  374SOL    HW2 1122   1.961   0.405   0.551  3.8108 -0.8624  1.9330
  375SOL     OW 1123   2.400   2.197   1.107  0.6268 -0.3219  0.2819
  375SOL    HW1 1124   2.454   2.186   1.019  0.7475  3.1808  0.0217
  375SOL    HW2 1125   2.456   2.184   1.192 -1.3420 -0.8751  0.5608
  376SOL     OW 1126   3.068   0.566   1.407  0.1480  0.3395  0.2146
  376SOL    HW1 1127   3.037   0.642   1.476  3.3466  2.8372  0.8486
  376SOL    HW2 1128   2.998   0.519   1.353  0.8097  2.4223 -0.7164
  377SOL     OW 1129   2.162   2.904   0.296  0.1417 -1.1669 -0.3329
  377SOL    HW1 1130   2.180   3.007   0.283 -2.1186 -0.9453 -0.7932
  377SOL    HW2 1131   2.239   2.857   0.347  0.5427  2.2524  0.4021
  378SOL     OW 1132   1.764   1.859   2.499  0.6715  0.9594 -0.8690
  378SOL    HW1 1133   1.838   1.871   2.422  1.0161 -1.5186 -0.6030
  378SOL    HW2 1134   1.722   1.763   2.507  0.8318 -0.4680  0.9970
  379SOL     OW 1135   0.743   0.154   2.814  0.4670  0.2846 -0.4332
  379SOL    HW1 1136   0.797   0.080   2.763 -2.8302 -0.0252  0.8621
  379SOL    HW2 1137   0.717   0.240   2.763 -2.3164  3.2298  2.2121
  380SOL     OW 1138   1.570   1.140   0.535  0.1263 -0.1005  0.1700
  380SOL    HW1 1139   1.476   1.184   0.534  0.2865  0.3176  1.2782
  380SOL    HW2 1140   1.576   1.047   0.574 -2.2147 -0.1808 -2.0628
  381SOL     OW 1141   1.355   1.235   1.597 -0.1889  0.4643  0.3302
  381SOL    HW1 1142   1.414   1.160   1.562 -0.0343  0.5577  3.0706
  381SOL    HW2 1143   1.415   1.313   1.642 -0.8127  1.6503 -1.4438
  382SOL     OW 1144   1.824   0.889   0.232 -0.1867 -0.5222  0.0228
  382SOL    HW1 1145   1.862   0.864   0.139 -1.1598  0.4502  0.2698
  382SOL    HW2 1146   1.879   0.858   0.316  1.1659 -0.4081 -0.9051
  383SOL     OW 1147   2.592   0.995   1.492 -0.1218 -0.1053 -0.1929
  383SOL    HW1 1148   2.499   0.970   1.466  1.4139  2.0454  0.9449
  383SOL    HW2 1149   2.656   0.994   1.409 -1.5460  1.8912  0.6752
  384SOL     OW 1150   0.854   2.234   0.153 -0.8250  0.3486  0.0582
  384SOL    HW1 1151   0.838   2.321   0.206 -0.2424 -1.2367  0.5772
  384SOL    HW2 1152   0.846   2.147   0.211  1.8762 -1.1053 -0.3126
  385SOL     OW 1153   2.952   2.006   1.664 -0.2898  0.4464  0.3799
  385SOL    HW1 1154   3.038   2.074   1.662  1.9511  2.3538 -2.6011
  385SOL    HW2 1155   2.989   1.910   1.651 -0.9072 -1.0017  0.1515
  386SOL     OW 1156   0.475   1.064   0.469  0.3489 -0.5637  0.1054
  386SOL    HW1 1157   0.444   0.970   0.501  3.2351  1.3106 -0.0877
  386SOL    HW2 1158   0.392   1.124   0.438 -1.6372  0.8893 -1.0590
  387SOL     OW 1159   0.907   0.369   1.665  0.1797 -0.7421  0.5494
  387SOL    HW1 1160   0.959   0.459   1.692 -3.3638  1.2617  2.6213
  387SOL    HW2 1161   0.928   0.332   1.570  2.3931  0.3661 -0.1077
  388SOL     OW 1162   1.190   2.730   1.738 -0.0153 -0.1568  0.0932
  388SOL    HW1 1163   1.214   2.759   1.638  0.2215  1.3655 -1.1996
  388SOL    HW2 1164   1.236   2.640   1.769 -0.1229 -0.0945  0.0861
  389SOL     OW 1165   0.124   2.965   1.312  0.2108 -0.1096  0.9123
  389SOL    HW1 1166   0.036   2.989   1.260 -0.0866 -0.6230  1.0025
  389SOL    HW2 1167   0.146   2.866   1.324  2.7060 -0.7814  3.0920
  390SOL     OW 1168   1.060   0.971   1.320  0.0856 -0.3563  0.5416
  390SOL    HW1 1169   1.144   0.927   1.365 -1.4442 -0.2840  1.5912
  390SOL    HW2 1170   1.037   1.068   1.347 -1.2734  1.4362  0.1507
  391SOL     OW 1171   2.175   1.115   1.082  0.0196  0.0800  0.1461
  391SOL    HW1 1172   2.125   1.041   1.138  1.4182  3.6443 -0.3720
  391SOL    HW2 1173   2.219   1.081   0.993 -2.0755 -1.0994 -1.2836
  392SOL     OW 1174   0.907   2.637   3.039  0.3101 -0.0293  0.2092
  392SOL    HW1 1175   0.987   2.577   3.013  0.4061 -2.6511  1.8456
  392SOL    HW2 1176   0.876   2.621   3.133  2.3017  2.0712 -3.0285
  393SOL     OW 1177   0.333   0.530   1.979 -0.2714  0.2477 -0.1143
  393SOL    HW1 1178   0.280   0.441   1.991  0.1692  2.1777 -2.2706
  393SOL    HW2 1179   0.410   0.511   1.913  1.8239 -2.8287 -0.0219
  394SOL     OW 1180   3.000   1.940   2.800  0.2019 -0.0155  0.5032
  394SOL    HW1 1181   3.084   1.993   2.836  0.4586 -1.0928 -0.3033
  394SOL    HW2 1182   2.996   1.943   2.697  0.6347 -0.8199 -0.9983
  395SOL     OW 1183   1.598   1.969   0.659  0.0789 -0.4495 -0.2687
  395SOL    HW1 1184   1.660   1.897   0.617  1.4230 -1.2524  0.9351
  395SOL    HW2 1185   1.634   2.004   0.748 -0.4595 -0.8721  0.2694
  396SOL     OW 1186   2.816   1.813   1.288 -0.0780 -0.8811  0.5250
  396SOL    HW1 1187   2.810   1.713   1.267  0.5540  1.2132 -3.1926
  396SOL    HW2 1188   2.735   1.839   1.347 -2.3649 -1.7092  0.9476
  397SOL     OW 1189   1.026   2.237   0.500 -0.0857 -0.1759  0.0751
  397SOL    HW1 1190   0.961   2.199   0.575  0.4227  0.5706  1.3674
  397SOL    HW2 1191   1.009   2.336   0.479  0.8903  2.3468  0.3530
  398SOL     OW 1192   2.155   0.001   1.009 -0.4463 -0.0556  0.2062
  398SOL    HW1 1193   2.134  -0.070   1.082  1.1752  1.0933  0.1989
  398SOL    HW2 1194   2.090   0.083   1.013  0.0773  1.9509  2.0622
  399SOL     OW 1195   3.098   2.438   2.564 -0.2892  0.0792 -0.1276
  399SOL    HW1 1196   2.995   2.418   2.548 -0.6989  2.1802  0.8313
  399SOL    HW2 1197   3.129   2.427   2.662  1.1893  0.4778  1.5989
  400SOL     OW 1198   0.803   1.639   1.379 -0.6293 -0.0334  0.2739
  400SOL    HW1 1199   0.715   1.639   1.435  2.3103 -0.8075  1.0315
  400SOL    HW2 1200   0.807   1.725   1.323 -1.4805  0.7541  1.2581
  401SOL     OW 1201   1.862   0.105   1.257  0.1465  0.1151 -0.1194
  401SOL    HW1 1202   1.924   0.110   1.339  0.2763 -0.3818  1.9290
  401SOL    HW2 1203   1.763   0.126   1.270  0.2465 -1.2264 -0.5781
  402SOL     OW 1204   1.298   0.128   3.076  0.1949  0.1225 -0.5921
  402SOL    HW1 1205   1.391   0.118   3.032 -1.9921  0.5447 -1.0494
  402SOL    HW2 1206   1.268   0.226   3.083 -2.5413 -3.2291  0.2492
  403SOL     OW 1207   2.275   1.787   0.936  0.6219  0.2154 -0.2397
  403SOL    HW1 1208   2.376   1.776   0.957 -2.6844  1.1219 -0.4173
  403SOL    HW2 1209   2.237   1.883   0.949 -0.0711 -0.1314 -1.4831
  404SOL     OW 1210   0.188   2.488   2.824  0.7049  0.4283  0.3313
  404SOL    HW1 1211   0.284   2.457   2.819 -0.4532 -1.0816  3.4212
  404SOL    HW2 1212   0.182   2.590   2.816  0.4506  0.7238 -0.4976
  405SOL     OW 1213   0.105   2.482   0.692 -0.7313  0.0970  0.1921
  405SOL    HW1 1214   0.081   2.397   0.633  1.1734  0.1073 -2.5123
  405SOL    HW2 1215   0.210   2.506   0.699  1.9907 -1.0823 -0.6435
  406SOL     OW 1216   0.069   1.527   3.053 -0.4904 -0.1026  0.1491
  406SOL    HW1 1217   0.144   1.508   2.987  0.4715  0.9492  1.2298
  406SOL    HW2 1218   0.105   1.524   3.156  0.7072 -0.1075  1.5603
  407SOL     OW 1219   1.546   0.957   1.002  0.2556  0.5245 -0.2359
  407SOL    HW1 1220   1.520   0.941   0.903 -2.7293 -2.0889 -1.3380
  407SOL    HW2 1221   1.481   1.030   1.051  1.2377 -0.2905  0.6980
  408SOL     OW 1222   1.616   2.452   0.964  0.2249  0.1995 -0.0671
  408SOL    HW1 1223   1.662   2.427   0.875  1.7574 -0.8437 -0.9263
  408SOL    HW2 1224   1.547   2.528   0.953 -0.4984 -1.4722 -1.6045
  409SOL     OW 1225   0.639   0.813   0.760 -0.1337 -1.0783  0.1088
  409SOL    HW1 1226   0.575   0.792   0.682 -1.1853 -1.0252  2.0112
  409SOL    HW2 1227   0.656   0.726   0.811  2.5442  2.0325 -1.2897
  410SOL     OW 1228   1.309   2.035   1.387 -0.3276  0.8588 -0.1273
  410SOL    HW1 1229   1.386   1.987   1.444  1.4755 -0.1287  1.3863
  410SOL    HW2 1230   1.226   1.983   1.375 -0.3486  1.2117 -0.8908
  411SOL     OW 1231   2.646   1.875   3.017  0.1599 -0.9178 -0.3797
  411SOL    HW1 1232   2.580   1.916   2.950  1.6087 -1.0846  0.2784
  411SOL    HW2 1233   2.712   1.815   2.967  0.3271 -0.2928 -0.5555
  412SOL     OW 1234   1.498   2.484   2.171  0.6728  0.3745 -0.4848
  412SOL    HW1 1235   1.504   2.576   2.127  1.8209 -0.1881 -0.1219
  412SOL    HW2 1236   1.402   2.471   2.212 -0.0434 -0.6247  1.7669
  413SOL     OW 1237   3.029   0.223   2.931  0.1637 -0.2186  0.4461
  413SOL    HW1 1238   2.991   0.137   2.974  3.8707 -1.2910  1.9236
  413SOL    HW2 1239   3.131   0.212   2.923  1.7469  0.4372  1.2447
  414SOL     OW 1240   1.891   1.558   1.195 -0.1004 -0.1410 -0.0804
  414SOL    HW1 1241   1.818   1.629   1.191  0.6492  0.3380 -2.6037
  414SOL    HW2 1242   1.869   1.475   1.133 -1.0913  2.8318 -0.7851
  415SOL     OW 1243   0.360   2.248   0.746  0.1849  0.7417  0.3867
  415SOL    HW1 1244   0.366   2.324   0.821 -0.0036 -0.0787  3.7203
  415SOL    HW2 1245   0.269   2.195   0.759  1.8183  1.5286 -1.1849
  416SOL     OW 1246   0.368   1.063   1.052 -0.0424 -0.8847 -0.2028
  416SOL    HW1 1247   0.323   0.989   0.989  0.0904  0.6900 -0.2547
  416SOL    HW2 1248   0.454   1.098   1.002 -0.6599 -1.1914  1.4902
  417SOL     OW 1249   2.241   2.313   1.994  0.4114  0.3713 -0.4119
  417SOL    HW1 1250   2.308   2.278   2.061 -0.1140 -0.0875 -2.5287
  417SOL    HW2 1251   2.190   2.243   1.942 -0.3895  0.2950 -2.0068
  418SOL     OW 1252   1.071   0.596   1.341 -0.2584  0.6205  0.0556
  418SOL    HW1 1253   1.014   0.541   1.272 -0.5365 -0.4750  2.1264
  418SOL    HW2 1254   1.176   0.593   1.344  2.4490  0.8132 -0.3709
  419SOL     OW 1255   0.980   0.509   2.961 -0.2506 -0.1118 -0.3783
  419SOL    HW1 1256   0.962   0.519   2.863  1.0521  0.7620  0.9944
  419SOL    HW2 1257   0.990   0.601   3.000 -1.1267 -1.4364 -4.8277
  420SOL     OW 1258   0.091   2.258   0.522 -0.2939  0.0555  0.2924
  420SOL    HW1 1259   0.155   2.227   0.447 -0.7386 -0.5216 -0.9187
  420SOL    HW2 1260   0.010   2.195   0.538  1.3433 -0.9561  1.7334
  421SOL     OW 1261   0.322   2.980   0.640  0.4085 -0.2806 -0.2438
  421SOL    HW1 1262   0.287   2.923   0.718  2.0963  0.5660 -1.7761
  421SOL    HW2 1263   0.423   3.008   0.647  0.6138 -0.2014 -0.4808
  422SOL     OW 1264   1.024   2.576   1.033 -0.1590  0.5060  0.0907
  422SOL    HW1 1265   1.111   2.620   0.994 -0.9682  2.4232 -0.3801
  422SOL    HW2 1266   1.024   2.572   1.133 -0.6625  0.0413  0.1284
  423SOL     OW 1267   0.140   0.719   1.261  0.3374  0.1023 -0.7879
  423SOL    HW1 1268   0.088   0.647   1.316  0.8051  1.7021  1.9851
  423SOL    HW2 1269   0.088   0.798   1.222 -1.2521  2.4590  1.5954
  424SOL     OW 1270   1.055   2.213   2.043  0.9890 -0.3284  0.2211
  424SOL    HW1 1271   1.057   2.314   2.036  0.3872  0.0733 -2.0499
  424SOL    HW2 1272   1.054   2.174   2.140  1.2996 -0.1938  1.7590
  425SOL     OW 1273   1.986   1.297   1.002  0.1302  0.5178 -0.1471
  425SOL    HW1 1274   2.057   1.227   1.039 -1.1288 -1.4418  0.2594
  425SOL    HW2 1275   2.035   1.378   0.965 -0.8935 -0.8251  1.6582
  426SOL     OW 1276   1.525   1.602   1.377 -0.2966 -0.2639  0.3346
  426SOL    HW1 1277   1.488   1.657   1.298 -1.1494 -0.4620 -3.5549
  426SOL    HW2 1278   1.459   1.593   1.458  0.8523 -2.0531 -2.0404
  427SOL     OW 1279   1.941   2.332   2.061 -0.2996 -0.2096 -0.7084
  427SOL    HW1 1280   2.004   2.265   2.109 -0.5824 -1.8426  1.0296
  427SOL    HW2 1281   1.962   2.427   2.085 -1.6252 -3.0941  0.0721
  428SOL     OW 1282   0.887   3.043   0.156 -0.6948  0.0591 -0.1675
  428SOL    HW1 1283   0.886   3.105   0.071  1.5574 -1.5474  0.2829
  428SOL    HW2 1284   0.978   2.988   0.159 -3.0587 -1.0738  0.5447
  429SOL     OW 1285   1.324   0.085   0.255 -0.2725  0.3481  0.1179
  429SOL    HW1 1286   1.412   0.101   0.312  0.9835  0.5907 -0.4628
  429SOL    HW2 1287   1.338   0.101   0.151  1.4435 -1.5435 -0.1857
  430SOL     OW 1288   2.840   1.415   0.305  0.7646  0.0497  0.1820
  430SOL    HW1 1289   2.866   1.476   0.228 -3.2150 -0.1423 -3.1465
  430SOL    HW2 1290   2.858   1.458   0.399  2.6169 -0.4541 -3.1092
  431SOL     OW 1291   2.104   1.530   0.911 -0.4880 -0.5627  0.7446
  431SOL    HW1 1292   2.173   1.607   0.929 -0.6214  0.7237 -0.6449
  431SOL    HW2 1293   2.033   1.558   0.843  1.8138 -1.2078  1.1234
  432SOL     OW 1294   2.920   2.251   1.154  0.6264  0.0162 -0.1935
  432SOL    HW1 1295   2.831   2.212   1.184  0.5153  0.4518 -0.2717
  432SOL    HW2 1296   2.970   2.275   1.239 -0.2415 -0.3818 -1.1585
  433SOL     OW 1297   1.824   0.310   0.809  0.3089 -0.5627 -0.7530
  433SOL    HW1 1298   1.731   0.286   0.826  1.0633 -0.8338  0.4718
  433SOL    HW2 1299   1.883   0.244   0.866 -1.3560 -1.1538 -1.6360
  434SOL     OW 1300   1.544   0.303   0.700  0.4736  0.5797  0.0413
  434SOL    HW1 1301   1.545   0.376   0.627  0.2177  1.0621 -0.9583
  434SOL    HW2 1302   1.543   0.336   0.799  1.0767 -4.1685  0.2020
  435SOL     OW 1303   1.436   1.503   2.075  0.1009 -0.0699 -0.5472
  435SOL    HW1 1304   1.442   1.544   2.169  0.9494 -1.0046 -1.3593
  435SOL    HW2 1305   1.484   1.564   2.010  1.5292  0.3919 -2.0903
  436SOL     OW 1306   1.697   2.735   2.287 -0.0579  0.1637 -0.0629
  436SOL    HW1 1307   1.656   2.815   2.333  0.5842  0.3163 -1.2113
  436SOL    HW2 1308   1.720   2.657   2.354 -0.0247 -0.4541  1.3499
  437SOL     OW 1309   1.109   2.919   0.934 -0.0633 -0.2339 -0.4012
  437SOL    HW1 1310   1.040   2.995   0.913  0.2261 -0.1310  0.8701
  437SOL    HW2 1311   1.084   2.865   1.017  2.6171 -2.1741 -1.7725
  438SOL     OW 1312   0.981   2.607   1.324 -0.3100  0.0474 -0.0697
  438SOL    HW1 1313   1.070   2.624   1.378 -0.7813  1.9460 -1.3622
  438SOL    HW2 1314   0.953   2.511   1.337  1.0215 -1.1123  1.5982
  439SOL     OW 1315   0.704   1.771   1.119  0.9136  0.2750  0.4205
  439SOL    HW1 1316   0.675   1.859   1.075  0.4525 -0.3951  0.7479
  439SOL    HW2 1317   0.626   1.732   1.178  1.7698 -0.8126 -1.9580
  440SOL     OW 1318   1.037   2.533   1.947 -0.1352 -0.1591 -0.0745
  440SOL    HW1 1319   0.982   2.564   1.863 -0.1724  2.0323 -2.4583
  440SOL    HW2 1320   1.143   2.533   1.939  1.3341 -0.6281  2.3250
  441SOL     OW 1321   0.528   2.730   1.420  0.2251  0.3796  0.2792
  441SOL    HW1 1322   0.567   2.638   1.430  2.9887  0.4710 -0.5934
  441SOL    HW2 1323   0.426   2.731   1.383  0.1990 -0.1018 -2.9261
  442SOL     OW 1324   2.251   0.738   2.491 -0.2659  0.3778 -0.3258
  442SOL    HW1 1325   2.266   0.640   2.520 -1.5057 -1.3934 -1.4669
  442SOL    HW2 1326   2.149   0.759   2.490  0.5932 -0.5819  0.7103
  443SOL     OW 1327   1.201   2.714   2.186 -0.5361  0.4572  1.2060
  443SOL    HW1 1328   1.175   2.762   2.271  0.4006 -0.3807 -2.7455
  443SOL    HW2 1329   1.260   2.635   2.211 -1.4027 -1.5011  0.0201
  444SOL     OW 1330   1.082   1.272   1.570 -0.5125  0.3258 -0.3480
  444SOL    HW1 1331   1.181   1.235   1.573  1.3173  0.1989  1.2262
  444SOL    HW2 1332   1.093   1.371   1.597 -0.4286  1.2616 -0.6384
  445SOL     OW 1333   0.015   2.303   1.908 -0.1372 -0.3506  0.7332
  445SOL    HW1 1334   0.014   2.402   1.875  0.3805 -1.4659  1.0542
  445SOL    HW2 1335  -0.058   2.283   1.978 -0.0731 -0.0858 -1.5113
  446SOL     OW 1336   0.194   1.894   2.320 -0.4241 -0.2282  0.4046
  446SOL    HW1 1337   0.127   1.957   2.371 -2.5946  0.2491  0.2405
  446SOL    HW2 1338   0.139   1.864   2.234  0.5945 -2.4975 -1.7090
  447SOL     OW 1339   1.228   1.683   1.932  0.8360  0.2811 -0.2100
  447SOL    HW1 1340   1.163   1.754   1.894 -0.8431  0.2659  1.3612
  447SOL    HW2 1341   1.325   1.719   1.942 -0.5422  0.3513  3.6031
  448SOL     OW 1342   0.176   1.563   2.042  0.1144 -0.0042  0.0010
  448SOL    HW1 1343   0.190   1.637   1.966  1.3441  2.1914 -3.2430
  448SOL    HW2 1344   0.130   1.592   2.133 -0.5735  0.9753 -0.1116
  449SOL     OW 1345   2.005   2.943   0.818  0.6205 -0.3004 -0.3169
  449SOL    HW1 1346   2.053   2.956   0.906 -0.5695 -0.4644 -2.6545
  449SOL    HW2 1347   1.991   2.840   0.809  3.2689  0.6381 -0.7922
  450SOL     OW 1348   2.322   1.346   0.776 -0.1875  0.5344  0.0001
  450SOL    HW1 1349   2.293   1.250   0.794  1.0172  1.1525  2.8516
  450SOL    HW2 1350   2.242   1.406   0.764 -1.4259  0.2637 -1.2488
  451SOL     OW 1351   1.397   0.022   1.451  0.4410  0.7700  0.4645
  451SOL    HW1 1352   1.319   0.088   1.472  0.7285  0.6025 -0.9387
  451SOL    HW2 1353   1.431  -0.026   1.536 -1.8655  1.9198 -0.2163
  452SOL     OW 1354   2.654   2.299   2.212  0.0426 -0.4220  0.5239
  452SOL    HW1 1355   2.591   2.366   2.258  0.8271  0.5639 -0.2400
  452SOL    HW2 1356   2.708   2.242   2.280 -1.2953  0.4405  2.8090
  453SOL     OW 1357   2.433   2.663   3.076  0.1402 -0.8789  0.3843
  453SOL    HW1 1358   2.346   2.714   3.102  0.2720  2.1430 -0.4252
  453SOL    HW2 1359   2.408   2.587   3.009 -0.2334 -1.2017 -3.4108
  454SOL     OW 1360   1.000   1.093   2.096 -0.2294  0.3194  0.2241
  454SOL    HW1 1361   0.986   1.125   1.998  0.4790  0.4299  2.6222
  454SOL    HW2 1362   1.094   1.099   2.133 -2.7182 -0.3295  1.5993
  455SOL     OW 1363   0.671   2.619   2.888  0.4549  0.4553 -0.2168
  455SOL    HW1 1364   0.739   2.653   2.962 -0.7195  1.4444  0.0121
  455SOL    HW2 1365   0.653   2.517   2.908  1.7374  0.8604  0.8333
  456SOL     OW 1366   0.495   1.877   0.387  0.3044 -0.4122  0.1374
  456SOL    HW1 1367   0.553   1.875   0.474 -2.9415 -0.1723 -2.1276
  456SOL    HW2 1368   0.517   1.957   0.322  1.4103 -2.7824 -2.2975
  457SOL     OW 1369   0.375   2.606   0.718  0.1612 -0.0772  0.0994
  457SOL    HW1 1370   0.374   2.648   0.624  4.6782 -0.8455 -1.8610
  457SOL    HW2 1371   0.454   2.639   0.774 -1.9792 -1.3170 -2.3163
  458SOL     OW 1372   2.986   3.055   1.236  0.2237  0.2733  1.0878
  458SOL    HW1 1373   2.986   3.159   1.232  1.3612 -1.9116 -2.0633
  458SOL    HW2 1374   2.995   3.011   1.142 -0.0675  1.2141  0.0778
  459SOL     OW 1375   2.168   2.541   0.870 -0.4862  0.3152  0.5495
  459SOL    HW1 1376   2.152   2.625   0.928 -2.4241 -0.3171  0.7854
  459SOL    HW2 1377   2.256   2.549   0.810  2.9884  1.1941  0.6814
  460SOL     OW 1378   1.145   1.949   2.941 -0.2819  0.0700  0.6066
  460SOL    HW1 1379   1.167   2.022   2.869  1.0807  1.8843 -0.4152
  460SOL    HW2 1380   1.230   1.900   2.983  2.1538 -1.1267 -0.8715
  461SOL     OW 1381   0.484   2.147   2.683  0.3523  0.0953  0.1377
  461SOL    HW1 1382   0.438   2.091   2.607 -0.9242  0.0323 -1.9148
  461SOL    HW2 1383   0.533   2.088   2.754  1.3633  1.9310  2.2104
  462SOL     OW 1384   0.933   1.170   1.838 -0.1750  0.5387 -0.3037
  462SOL    HW1 1385   1.027   1.138   1.799  0.4821  1.7973  1.9755
  462SOL    HW2 1386   0.908   1.255   1.792  0.9276  0.8127  0.0533
  463SOL     OW 1387   0.452   0.789   0.542  0.0200  0.5683  0.2065
  463SOL    HW1 1388   0.492   0.697   0.501 -2.4129 -3.0777 -0.0394
  463SOL    HW2 1389   0.349   0.778   0.550  0.3252 -1.6374  0.1826
  464SOL     OW 1390   0.599   2.232   2.298  0.0283  0.2529  0.6376
  464SOL    HW1 1391   0.558   2.320   2.333  1.7644  0.5491  0.7417
  464SOL    HW2 1392   0.634   2.242   2.203  0.3374  0.2174 -0.9140
  465SOL     OW 1393   0.280   0.913   0.840 -0.3486  0.4513  0.1814
  465SOL    HW1 1394   0.197   0.945   0.792  0.6801  0.8607 -0.0436
  465SOL    HW2 1395   0.292   0.808   0.838  0.8490 -1.2985  1.0129
  466SOL     OW 1396   1.369   1.108   1.140  0.3419 -0.1221 -0.5322
  466SOL    HW1 1397   1.422   1.197   1.161 -0.3668 -0.3975 -1.4016
  466SOL    HW2 1398   1.268   1.112   1.157 -0.3526 -2.4661  2.8178
  467SOL     OW 1399   0.510   0.321   2.342  0.0402  0.4025  0.8361
  467SOL    HW1 1400   0.509   0.416   2.381  1.3367  0.1276 -0.4144
  467SOL    HW2 1401   0.492   0.249   2.415 -0.2989 -0.7627 -0.5900
  468SOL     OW 1402   0.429   2.320   1.669 -0.4901 -0.0133 -0.0447
  468SOL    HW1 1403   0.480   2.394   1.720  0.5949  0.6077 -2.8737
  468SOL    HW2 1404   0.410   2.348   1.573 -0.4129 -1.4187  1.0556
  469SOL     OW 1405   1.491   1.336   1.285 -0.1510 -0.1229 -0.3502
  469SOL    HW1 1406   1.584   1.301   1.274  0.1412  0.2958  1.7415
  469SOL    HW2 1407   1.502   1.426   1.337 -2.0000  1.9917 -1.7042
  470SOL     OW 1408   3.007   1.686   0.738  0.1293  0.4347 -0.0898
  470SOL    HW1 1409   3.093   1.747   0.726  0.8786 -0.1765 -2.2103
  470SOL    HW2 1410   2.950   1.712   0.820 -1.8578 -1.3329 -0.8869
  471SOL     OW 1411   2.632   1.366   2.155 -0.3448 -0.2785  0.3936
  471SOL    HW1 1412   2.603   1.279   2.207  1.6474 -0.6849  0.4649
  471SOL    HW2 1413   2.731   1.390   2.169 -0.2982 -1.0116  1.7731
  472SOL     OW 1414   1.115   2.457   3.054 -0.0718 -0.2900 -0.1920
  472SOL    HW1 1415   1.116   2.475   3.156 -1.7878 -0.7879 -0.1057
  472SOL    HW2 1416   1.059   2.379   3.022  0.7343 -0.3860  0.4673
  473SOL     OW 1417   1.041   1.492   0.924  0.0312  0.0875  0.0149
  473SOL    HW1 1418   0.952   1.512   0.969  1.9121  0.4808  0.6533
  473SOL    HW2 1419   1.117   1.452   0.989  1.6216 -2.1358 -0.3923
  474SOL     OW 1420   0.781   1.226   0.605  0.7572 -0.3181 -0.4409
  474SOL    HW1 1421   0.742   1.230   0.508 -1.5161  1.6479  0.4577
  474SOL    HW2 1422   0.805   1.132   0.637  1.2913 -0.2092 -1.0735
  475SOL     OW 1423   2.816   0.144   0.776 -0.4561 -0.2147  0.6938
  475SOL    HW1 1424   2.897   0.161   0.835 -2.2253  1.3533  0.5431
  475SOL    HW2 1425   2.726   0.154   0.825  0.7210 -1.0522  2.0167
  476SOL     OW 1426   0.916   2.996   1.784  0.4349  0.2209 -0.3981
  476SOL    HW1 1427   0.949   2.955   1.872 -3.4380  0.9266 -1.5484
  476SOL    HW2 1428   0.935   2.932   1.705 -1.1349  0.0656  1.0602
  477SOL     OW 1429   1.419   0.334   2.484 -0.0273 -0.0854 -0.1833
  477SOL    HW1 1430   1.434   0.342   2.585 -1.1454 -0.4141 -0.7782
  477SOL    HW2 1431   1.499   0.278   2.445  0.6753  0.5076  0.7723
  478SOL     OW 1432   2.258   1.826   0.241  0.0171 -0.0128  0.1767
  478SOL    HW1 1433   2.193   1.751   0.218 -0.1015  3.2729  0.7913
  478SOL    HW2 1434   2.356   1.791   0.226 -0.2408 -1.1761 -1.8531
  479SOL     OW 1435   1.247   1.060   2.884 -0.7727 -0.4559 -0.8301
  479SOL    HW1 1436   1.321   1.062   2.808  0.3420  1.4596  0.8679
  479SOL    HW2 1437   1.145   1.041   2.868 -2.7117 -2.7600  0.4670
  480SOL     OW 1438   2.527   2.302   0.379  0.2839 -0.0988 -0.1830
  480SOL    HW1 1439   2.478   2.214   0.403  3.0080  0.0140 -2.5782
  480SOL    HW2 1440   2.495   2.337   0.287  2.1132  3.6787 -1.2707
  481SOL     OW 1441   1.052   1.185   0.832  0.2827 -0.1101  0.3398
  481SOL    HW1 1442   1.062   1.269   0.769  1.0802 -1.8020 -0.4831
  481SOL    HW2 1443   1.059   1.215   0.931 -0.7835  1.1621 -1.6212
  482SOL     OW 1444   1.592   0.329   2.030 -0.1159  0.3649  0.0022
  482SOL    HW1 1445   1.602   0.430   1.996 -0.7398 -0.8301  1.8049
  482SOL    HW2 1446   1.675   0.274   2.028 -0.1602  0.4145  3.3790
  483SOL     OW 1447   0.197   2.387   1.274 -0.0037  0.0646  0.0860
  483SOL    HW1 1448   0.105   2.391   1.323 -0.3327 -0.0323 -1.3211
  483SOL    HW2 1449   0.187   2.408   1.174  0.4828 -0.8613  2.3595
  484SOL     OW 1450   1.699   0.979   1.393  0.4742  0.2399  0.3918
  484SOL    HW1 1451   1.762   0.900   1.382  1.1093  2.0235  0.2353
  484SOL    HW2 1452   1.726   1.049   1.463 -0.0265 -0.1489  0.9496
  485SOL     OW 1453   0.659   1.086   1.800  0.6278  0.2758 -0.5238
  485SOL    HW1 1454   0.679   1.054   1.708 -1.2214 -3.0802 -0.0317
  485SOL    HW2 1455   0.741   1.130   1.847 -0.9331 -3.0158  1.0888
  486SOL     OW 1456   0.953   1.945   2.482 -0.3623  0.3206  0.1228
  486SOL    HW1 1457   1.001   1.923   2.574 -2.1455  0.6260  1.2757
  486SOL    HW2 1458   0.863   1.991   2.508  2.1966 -0.0246  0.1927
  487SOL     OW 1459   1.727   1.546   0.900 -0.8023  0.0254 -0.1547
  487SOL    HW1 1460   1.711   1.486   0.818 -0.6363 -2.6629 -2.0738
  487SOL    HW2 1461   1.799   1.616   0.890 -2.5272  0.2174 -0.0526
  488SOL     OW 1462   2.952   0.908   2.215 -0.1313  0.4677 -0.4037
  488SOL    HW1 1463   3.019   0.849   2.159  0.7915  1.7694 -2.9149
  488SOL    HW2 1464   2.965   0.905   2.315  1.2221  2.8211 -0.9649
  489SOL     OW 1465   2.784   0.250   1.295  0.4274  0.1392  0.0702
  489SOL    HW1 1466   2.761   0.185   1.374 -0.1947  2.1822 -2.4266
  489SOL    HW2 1467   2.874   0.225   1.256  0.5318 -1.7025 -0.0333
  490SOL     OW 1468   1.441   2.944   2.803 -0.5340  0.5553  0.4046
  490SOL    HW1 1469   1.506   2.867   2.813 -0.6801 -0.8706 -0.2568
  490SOL    HW2 1470   1.434   2.983   2.706  1.5832 -0.5834 -2.6797
  491SOL     OW 1471   1.785   1.486   2.675  0.3980  0.4042 -0.1955
  491SOL    HW1 1472   1.741   1.489   2.769 -0.8583 -2.1384 -0.7992
  491SOL    HW2 1473   1.887   1.478   2.682 -3.3875  0.8711  3.1538
  492SOL     OW 1474   0.531   2.048   0.694  0.5899  0.4707  0.8932
  492SOL    HW1 1475   0.581   2.014   0.776  1.5469 -0.5396 -0.2088
  492SOL    HW2 1476   0.476   2.138   0.713  0.3864  0.4854 -0.8234
  493SOL     OW 1477   0.437   1.415   2.043 -0.1661  0.6888 -0.0068
  493SOL    HW1 1478   0.360   1.484   2.052 -0.1184 -0.7557  2.6754
  493SOL    HW2 1479   0.434   1.343   2.123 -1.6172 -0.6749  0.7503
  494SOL     OW 1480   2.642   2.696   0.160  0.5478  0.0918 -0.3308
  494SOL    HW1 1481   2.640   2.633   0.244  0.0313 -1.3307  0.5505
  494SOL    HW2 1482   2.558   2.681   0.098  0.9855 -0.1150  0.4444
  495SOL     OW 1483   2.726   2.648   2.692 -0.2208 -0.3143  0.4202
  495SOL    HW1 1484   2.649   2.577   2.675 -0.4684 -0.4164  0.7850
  495SOL    HW2 1485   2.753   2.694   2.603  2.1155 -3.5397 -1.8203
  496SOL     OW 1486   2.025   2.170   0.708 -0.1795 -0.0768 -0.1795
  496SOL    HW1 1487   2.028   2.206   0.805 -0.2493  0.6213  2.5060
  496SOL    HW2 1488   2.101   2.100   0.686 -0.5465 -0.2204  2.1564
  497SOL     OW 1489   0.198   2.966   2.402  0.0817  0.2938 -0.1263
  497SOL    HW1 1490   0.156   3.043   2.456  1.0720 -1.3326 -0.0313
  497SOL    HW2 1491   0.231   3.005   2.312 -1.0627  2.1644  0.9706
  498SOL     OW 1492   1.214   1.448   1.164  0.3810  0.0349 -0.6751
  498SOL    HW1 1493   1.311   1.439   1.201 -2.6345 -1.8263 -0.4324
  498SOL    HW2 1494   1.176   1.543   1.176 -2.0067 -1.9260  0.3149
  499SOL     OW 1495   0.745   1.859   0.544  0.7560 -0.0493  0.0947
  499SOL    HW1 1496   0.728   1.756   0.545 -1.5158  2.5146  0.2323
  499SOL    HW2 1497   0.798   1.888   0.631  0.3067  3.2742  0.9696
  500SOL     OW 1498   1.451   2.972   1.687 -0.1380 -0.1998  0.7282
  500SOL    HW1 1499   1.422   2.981   1.786 -0.1318 -1.9046  1.8113
  500SOL    HW2 1500   1.487   2.877   1.663 -2.0220  0.2454  1.3403
  501SOL     OW 1501   0.806   1.117   2.294 -0.9133 -0.0560 -0.0946
  501SOL    HW1 1502   0.733   1.045   2.286  1.5380 -3.9216  2.0492
  501SOL    HW2 1503   0.864   1.120   2.207  0.3102  0.5119 -1.2831
  502SOL     OW 1504   2.590   0.941   1.755 -0.7765  0.2438 -0.1827
  502SOL    HW1 1505   2.584   0.946   1.651  1.4827 -1.7039  0.8922
  502SOL    HW2 1506   2.529   0.862   1.793  0.9388 -1.5628  1.9282
  503SOL     OW 1507   1.300   0.118   0.611 -0.0354 -0.0399 -0.2580
  503SOL    HW1 1508   1.232   0.196   0.608  1.3110  1.8231 -5.7114
  503SOL    HW2 1509   1.395   0.150   0.621  1.6922  2.1545  0.7673
  504SOL     OW 1510   3.031   2.314   1.412 -0.0071 -0.0137 -0.1247
  504SOL    HW1 1511   3.015   2.389   1.487  0.3353 -0.0654 -1.8663
  504SOL    HW2 1512   3.078   2.237   1.461 -2.1114 -1.0152  1.3594
  505SOL     OW 1513   2.262   1.170   1.511  0.2002 -0.2226 -0.1851
  505SOL    HW1 1514   2.267   1.224   1.421 -0.3822  0.9346 -3.0477
  505SOL    HW2 1515   2.328   1.204   1.580 -1.3804  0.0933 -2.1574
  506SOL     OW 1516   1.998   0.215   1.751 -0.1445 -0.1054 -0.2060
  506SOL    HW1 1517   2.036   0.132   1.800 -1.4840 -1.3037  2.8163
  506SOL    HW2 1518   2.002   0.291   1.818 -2.7691 -1.8614 -1.2216
  507SOL     OW 1519   0.539   0.672   2.165  0.2506 -0.2818  0.1991
  507SOL    HW1 1520   0.451   0.678   2.111 -1.5494 -1.5951 -3.2798
  507SOL    HW2 1521   0.590   0.589   2.145 -2.2829  1.7323 -1.4626
  508SOL     OW 1522   0.254   1.614   0.909 -0.0174 -0.4389 -0.0851
  508SOL    HW1 1523   0.354   1.641   0.910  1.0247  1.4830 -0.9377
  508SOL    HW2 1524   0.203   1.670   0.981  0.8119 -0.0578  1.2329
  509SOL     OW 1525   1.347   1.251   2.407 -0.0090 -0.2311  1.4332
  509SOL    HW1 1526   1.289   1.191   2.472  1.7223  0.1779 -2.8717
  509SOL    HW2 1527   1.403   1.203   2.337 -1.8358 -1.1092  0.7634
  510SOL     OW 1528   1.282   2.014   2.063 -0.0261 -0.4917  0.2181
  510SOL    HW1 1529   1.202   2.081   2.036 -0.2017  0.0933 -0.8698
  510SOL    HW2 1530   1.241   1.941   2.122 -0.8201 -0.1380 -0.5534
  511SOL     OW 1531   3.055   2.665   1.326 -0.5694 -0.4541 -0.6279
  511SOL    HW1 1532   3.016   2.664   1.233 -1.8684 -0.8228  0.4882
  511SOL    HW2 1533   2.995   2.625   1.403  2.4713  0.4375  1.6264
  512SOL     OW 1534   2.367   0.426   1.391  0.6733  0.2867  0.0773
  512SOL    HW1 1535   2.264   0.421   1.419  1.4509  1.1210  0.3524
  512SOL    HW2 1536   2.380   0.364   1.309 -2.1839  0.3853 -1.3319
  513SOL     OW 1537   2.474   2.022   0.863 -0.0491 -0.4036  0.1212
  513SOL    HW1 1538   2.408   2.085   0.817  0.4799  0.0460 -2.4686
  513SOL    HW2 1539   2.553   1.989   0.802 -1.6504 -0.1619 -0.1185
  514SOL     OW 1540   0.603   2.807   0.462  0.4339  0.2822 -0.9721
  514SOL    HW1 1541   0.601   2.872   0.381 -1.7137 -2.8303 -1.3007
  514SOL    HW2 1542   0.634   2.847   0.550  0.1255 -0.7880 -1.7979
  515SOL     OW 1543   2.025   1.137   2.255  0.4593 -0.2466  0.2027
  515SOL    HW1 1544   1.981   1.160   2.161  1.1931  2.5307 -3.2586
  515SOL    HW2 1545   1.974   1.167   2.344  0.1886  0.9360  4.1807
  516SOL     OW 1546   0.280   0.271   1.954  0.0844  0.0024 -0.0334
  516SOL    HW1 1547   0.379   0.268   1.918  1.5554  1.3788 -0.1684
  516SOL    HW2 1548   0.213   0.227   1.891  1.6596  1.4463  1.0997
  517SOL     OW 1549   0.376   3.037   1.187 -1.0984  0.2037  0.6440
  517SOL    HW1 1550   0.423   3.118   1.225  0.4741 -1.7694  0.3446
  517SOL    HW2 1551   0.282   3.024   1.220  1.9008 -3.8543 -0.2533
  518SOL     OW 1552   2.169   3.082   1.749 -0.5605 -0.0698 -0.0822
  518SOL    HW1 1553   2.236   3.156   1.760 -2.7975 -2.7219  0.7396
  518SOL    HW2 1554   2.195   3.016   1.675 -0.9651 -0.8678 -1.0470
  519SOL     OW 1555   2.390   2.224   2.580  0.6564 -0.3510 -0.0924
  519SOL    HW1 1556   2.306   2.208   2.636 -0.6367  0.3967 -0.3076
  519SOL    HW2 1557   2.442   2.313   2.594  0.4620  1.8086 -1.6984
  520SOL     OW 1558   1.746   2.869   1.868  0.2032  0.1187 -0.3404
  520SOL    HW1 1559   1.643   2.849   1.880 -0.7236 -0.6274  0.5930
  520SOL    HW2 1560   1.801   2.783   1.842  1.2064 -1.7484 -0.2794
  521SOL     OW 1561   0.564   3.084   2.129  0.3469  0.3874  0.0339
  521SOL    HW1 1562   0.461   3.073   2.147  1.3190 -1.5595 -0.0793
  521SOL    HW2 1563   0.625   3.102   2.212  1.9565  0.3422 -3.0866
  522SOL     OW 1564   0.204   1.901   1.455 -0.0865  0.4763  0.8228
  522SOL    HW1 1565   0.241   1.941   1.542  1.2682 -1.1710  0.2107
  522SOL    HW2 1566   0.157   1.968   1.394  0.3445 -0.0698  0.8882
  523SOL     OW 1567   2.253   2.907   1.556 -0.0041  0.0034  0.3713
  523SOL    HW1 1568   2.326   2.833   1.541 -0.4195 -1.1310  0.8652
  523SOL    HW2 1569   2.154   2.877   1.528 -0.3653 -0.1095 -0.5587
  524SOL     OW 1570   0.186   2.760   2.765  0.1009 -0.2263 -0.1946
  524SOL    HW1 1571   0.135   2.831   2.821 -2.7576 -1.7486  1.0433
  524SOL    HW2 1572   0.285   2.772   2.744 -1.4302 -2.4841 -0.4958
  525SOL     OW 1573   2.158   1.953   0.487  0.4571 -0.2900 -0.0680
  525SOL    HW1 1574   2.160   1.897   0.572 -2.9566 -0.7434 -1.0518
  525SOL    HW2 1575   2.184   1.905   0.399 -2.7247  1.1770 -1.5229
  526SOL     OW 1576   0.411   1.511   1.628  0.4705 -0.2690 -0.3126
  526SOL    HW1 1577   0.374   1.493   1.724  2.6009  0.1312 -0.4006
  526SOL    HW2 1578   0.465   1.432   1.589  1.3095  2.2047 -2.5036
  527SOL     OW 1579   1.084   2.965   1.268 -0.0014  0.1281  0.5962
  527SOL    HW1 1580   1.178   2.923   1.277  1.3370  0.0661 -2.2363
  527SOL    HW2 1581   1.091   3.066   1.240 -1.1307 -2.2298  0.6057
  528SOL     OW 1582   1.352   2.407   0.509 -0.3886  0.0138 -0.1504
  528SOL    HW1 1583   1.402   2.315   0.511  1.2741  0.3682 -3.0811
  528SOL    HW2 1584   1.412   2.484   0.549 -0.3784  0.9550  0.7915
  529SOL     OW 1585   1.918   1.719   0.805 -0.3483 -1.0615  0.4977
  529SOL    HW1 1586   1.857   1.731   0.723 -2.5478  0.6542  0.2132
  529SOL    HW2 1587   1.920   1.805   0.870 -0.0869  0.7969  1.1990
  530SOL     OW 1588   0.283   2.486   0.329 -0.0056 -0.0859  0.6471
  530SOL    HW1 1589   0.273   2.569   0.393 -0.8704 -1.3658 -0.7486
  530SOL    HW2 1590   0.334   2.407   0.373 -0.6059 -1.5587  1.5829
  531SOL     OW 1591   1.803   1.021   0.995 -0.2789 -0.0659  0.1161
  531SOL    HW1 1592   1.837   0.994   0.900 -0.9214 -0.5503 -1.0317
  531SOL    HW2 1593   1.704   1.002   1.007  0.4215  2.9738 -1.2822
  532SOL     OW 1594   0.506   1.068   0.801 -0.0257 -0.2864  0.2021
  532SOL    HW1 1595   0.561   1.048   0.717 -1.2325 -1.4744 -0.9549
  532SOL    HW2 1596   0.413   1.019   0.793 -1.2334  0.2019  1.4603
  533SOL     OW 1597   1.765   0.012   2.575  0.1979 -0.0142 -0.3748
  533SOL    HW1 1598   1.865  -0.005   2.585 -1.0388  1.7702 -1.1934
  533SOL    HW2 1599   1.733   0.076   2.650 -1.6078 -2.7143 -0.4168
  534SOL     OW 1600   0.347   0.200   1.615  0.7795 -0.1476 -0.5153
  534SOL    HW1 1601   0.440   0.234   1.582  2.2087 -0.1165 -2.8115
  534SOL    HW2 1602   0.278   0.276   1.629 -1.0506  1.2920  2.3456
  535SOL     OW 1603   1.962   0.333   0.139 -0.4994 -0.0504  0.3702
  535SOL    HW1 1604   1.961   0.418   0.206 -1.6042 -0.0520  0.4246
  535SOL    HW2 1605   1.936   0.244   0.188  0.6114  0.7665 -1.6296
  536SOL     OW 1606   1.399   2.644   0.950 -0.1998  0.3260  0.4049
  536SOL    HW1 1607   1.366   2.624   1.044  0.0735  0.8648 -2.8584
  536SOL    HW2 1608   1.316   2.657   0.888 -0.6876  0.8401 -1.2440
  537SOL     OW 1609   0.809   0.302   2.401 -0.2610 -0.1348  0.2237
  537SOL    HW1 1610   0.810   0.347   2.309  0.1641 -1.2507  0.5993
  537SOL    HW2 1611   0.798   0.201   2.392 -1.8552  1.5449 -1.7079
  538SOL     OW 1612   1.675   2.313   1.458  0.0062 -0.3567 -0.7357
  538SOL    HW1 1613   1.654   2.213   1.441 -1.4454 -0.7382  0.9348
  538SOL    HW2 1614   1.770   2.342   1.437  1.0805 -1.2611 -1.6823
  539SOL     OW 1615   0.161   1.644   2.676 -0.1196  0.0197 -0.1347
  539SOL    HW1 1616   0.066   1.620   2.640 -1.0303 -1.6613 -1.9287
  539SOL    HW2 1617   0.157   1.722   2.743  2.1251  0.5166 -0.8629
  540SOL     OW 1618   2.657   1.761   1.921  0.2612  0.7192  0.0623
  540SOL    HW1 1619   2.616   1.672   1.951  0.6924  1.2088 -0.1874
  540SOL    HW2 1620   2.599   1.841   1.912 -0.0742 -3.0576 -0.1429
  541SOL     OW 1621   0.529   2.188   0.010  0.6651 -0.0614 -0.2147
  541SOL    HW1 1622   0.571   2.157   0.101 -1.2924 -3.0495  0.7752
  541SOL    HW2 1623   0.421   2.182   0.008  0.6110  1.7132  0.8095
  542SOL     OW 1624   2.211   2.570   0.416 -0.7927  0.2792 -0.2080
  542SOL    HW1 1625   2.146   2.649   0.400  1.0374  0.3740  0.0558
  542SOL    HW2 1626   2.164   2.484   0.446 -1.0995  1.4686 -1.2676
  543SOL     OW 1627   1.119   1.810   1.557 -0.4728  0.1920  0.3083
  543SOL    HW1 1628   1.088   1.824   1.658  1.5159  3.2385 -0.1443
  543SOL    HW2 1629   1.108   1.891   1.498 -0.5008 -1.7627 -3.5051
  544SOL     OW 1630   1.105   0.467   0.180 -0.0184  0.1688 -0.1161
  544SOL    HW1 1631   1.084   0.376   0.224  0.3075  3.0711  1.3457
  544SOL    HW2 1632   1.107   0.462   0.076  0.4162  1.7852  1.1723
  545SOL     OW 1633   1.123   1.764   0.790  0.2659  0.1134 -0.7227
  545SOL    HW1 1634   1.218   1.775   0.750  1.0500  1.8681 -1.3640
  545SOL    HW2 1635   1.113   1.678   0.841  0.0444  0.6385 -0.1013
  546SOL     OW 1636   2.640   1.529   3.023 -0.0535  0.1636 -0.3367
  546SOL    HW1 1637   2.632   1.607   2.963  0.6247  2.1669  0.7134
  546SOL    HW2 1638   2.550   1.484   3.037  1.5768 -0.3991 -1.3147
  547SOL     OW 1639   0.623   3.007   2.602 -0.4836  0.2558 -0.3032
  547SOL    HW1 1640   0.699   3.030   2.668  1.5987  0.9788  0.1959
  547SOL    HW2 1641   0.565   2.926   2.644 -0.6214 -0.7331 -1.7506
  548SOL     OW 1642   2.090   0.861   2.979 -0.2852 -0.2702 -0.2132
  548SOL    HW1 1643   1.989   0.831   2.993  1.4487 -1.0647  0.4454
  548SOL    HW2 1644   2.114   0.954   3.020  1.5102  0.1288 -0.4671
  549SOL     OW 1645   0.661   0.590   0.193 -0.4723  0.3538  0.0382
  549SOL    HW1 1646   0.613   0.610   0.107 -1.6806 -0.1761  1.5880
  549SOL    HW2 1647   0.755   0.638   0.192  5.2465  1.5184  1.0835
  550SOL     OW 1648   2.616   2.791   2.912 -0.0421 -0.2279 -0.0585
  550SOL    HW1 1649   2.545   2.739   2.968 -1.8832  1.9792  1.7406
  550SOL    HW2 1650   2.653   2.736   2.834  0.9345  1.2162  2.4108
  551SOL     OW 1651   0.277   0.886   0.272 -0.0943  0.6702  0.4009
  551SOL    HW1 1652   0.380   0.912   0.262 -0.1468  2.2373  0.1367
  551SOL    HW2 1653   0.243   0.858   0.367  0.2289  1.7897 -1.3664
  552SOL     OW 1654   0.628   2.993   1.863  0.2380  0.2954 -0.7351
  552SOL    HW1 1655   0.621   3.027   1.957 -0.0656  1.4799 -2.9230
  552SOL    HW2 1656   0.721   3.003   1.818  1.0501  0.9123  0.5029
  553SOL     OW 1657   2.895   2.439   0.359 -0.2084 -0.3391  0.1815
  553SOL    HW1 1658   2.869   2.348   0.386 -1.5061  1.5426 -2.1395
  553SOL    HW2 1659   2.835   2.516   0.396  0.9827 -1.9645  2.4752
  554SOL     OW 1660   2.119   0.341   0.519 -0.2298 -0.5777 -0.4169
  554SOL    HW1 1661   2.161   0.292   0.440 -0.5240 -0.6303  0.2372
  554SOL    HW2 1662   2.122   0.275   0.604 -0.4891 -1.6635  0.8033
  555SOL     OW 1663   0.368   2.781   2.511  0.2864  0.2654  0.5081
  555SOL    HW1 1664   0.295   2.844   2.479 -0.8314  0.2977  0.7748
  555SOL    HW2 1665   0.432   2.767   2.429 -1.3207  2.7999 -0.3884
  556SOL     OW 1666   0.860   2.345   1.554  0.1950 -0.3264  0.1981
  556SOL    HW1 1667   0.904   2.432   1.584 -0.0707  0.8680 -0.0739
  556SOL    HW2 1668   0.907   2.310   1.466  2.6869  0.9614  1.7659
  557SOL     OW 1669   0.145   2.011   0.242  0.0171  0.1371 -0.2540
  557SOL    HW1 1670   0.068   2.007   0.178  0.7999 -2.2426  1.2963
  557SOL    HW2 1671   0.232   2.021   0.196 -1.8861 -1.7148  1.3148
  558SOL     OW 1672   2.767   2.208   0.432 -0.6808  0.0058 -0.1282
  558SOL    HW1 1673   2.675   2.248   0.406  0.1896  0.8548  1.9087
  558SOL    HW2 1674   2.791   2.120   0.389  0.4129  2.1313  0.8205
  559SOL     OW 1675   0.435   2.326   1.391 -0.2794  0.1002 -0.8211
  559SOL    HW1 1676   0.349   2.340   1.333  1.3498  0.2867  1.1357
  559SOL    HW2 1677   0.477   2.231   1.381 -1.1705 -0.4655  0.0412
  560SOL     OW 1678   2.114   1.125   3.087 -0.0786  0.0163 -0.2195
  560SOL    HW1 1679   2.154   1.129   3.186  0.9131 -0.1979  1.5416
  560SOL    HW2 1680   2.180   1.141   3.010  1.8247  0.6861  1.3937
  561SOL     OW 1681   0.005   1.858   0.012  0.1343 -0.3329  0.2109
  561SOL    HW1 1682  -0.025   1.816   0.104 -0.9646 -1.3217 -1.8552
  561SOL    HW2 1683  -0.039   1.954   0.009  2.6804 -1.2671  1.1847
  562SOL     OW 1684   1.021   2.170   2.313  0.2687 -0.0480  0.3968
  562SOL    HW1 1685   1.007   2.264   2.349  1.1602  4.6601  0.3926
  562SOL    HW2 1686   0.982   2.104   2.379  0.6926 -0.2139  0.4617
  563SOL     OW 1687   0.696   2.530   2.628  0.0352 -0.4153 -0.0774
  563SOL    HW1 1688   0.780   2.471   2.626  0.3832  1.6941 -0.1435
  563SOL    HW2 1689   0.675   2.568   2.723 -1.0224  1.6828 -2.6927
  564SOL     OW 1690   2.860   1.388   2.916  0.3530  0.3101  0.3626
  564SOL    HW1 1691   2.766   1.407   2.961 -0.3759  0.1614 -0.1706
  564SOL    HW2 1692   2.905   1.477   2.898  1.0708  0.7416 -0.9383
  565SOL     OW 1693   2.483   1.987   2.656 -0.4321 -0.6312  0.0947
  565SOL    HW1 1694   2.469   2.063   2.591  1.2233  0.1825  0.4404
  565SOL    HW2 1695   2.558   2.007   2.723 -0.5593  0.9610  0.0322
  566SOL     OW 1696   1.990   2.867   1.474 -0.0281 -0.3296 -0.0823
  566SOL    HW1 1697   1.953   2.775   1.496 -0.1114  2.1725  0.7494
  566SOL    HW2 1698   1.990   2.894   1.375  1.3764  0.3150 -0.3664
  567SOL     OW 1699   2.426   3.083   2.350  0.5842  0.1539 -0.5182
  567SOL    HW1 1700   2.323   3.097   2.366  1.1588  1.6387 -4.0105
  567SOL    HW2 1701   2.443   3.082   2.250  1.6631  1.1045 -1.8025
  568SOL     OW 1702   1.538   1.810   0.258 -0.0070  0.1034  0.3035
  568SOL    HW1 1703   1.466   1.880   0.232 -2.0698 -1.0412  1.9838
  568SOL    HW2 1704   1.634   1.847   0.270 -1.1432  0.6610  1.0712
  569SOL     OW 1705   0.265   0.638   0.786 -0.5548 -0.4891 -0.1506
  569SOL    HW1 1706   0.317   0.562   0.743 -3.5819  0.3924  2.9937
  569SOL    HW2 1707   0.165   0.611   0.812  0.6074 -0.6238  0.5554
  570SOL     OW 1708   0.650   0.864   2.907 -0.0048  0.1780 -0.9992
  570SOL    HW1 1709   0.714   0.888   2.833  1.4217  2.1419 -0.0522
  570SOL    HW2 1710   0.648   0.938   2.983  0.3619 -2.2853  1.4520
  571SOL     OW 1711   0.804   0.007   1.110  0.2444  0.6197  0.7391
  571SOL    HW1 1712   0.866   0.029   1.029  2.0677  3.3843 -0.6463
  571SOL    HW2 1713   0.813  -0.095   1.132  0.5309 -1.5712  2.3078
  572SOL     OW 1714   1.618   2.663   1.376 -0.3097  0.0603  0.1145
  572SOL    HW1 1715   1.595   2.572   1.322 -2.8434 -0.8175  1.7608
  572SOL    HW2 1716   1.619   2.748   1.318 -0.1936 -0.8925  1.3244
  573SOL     OW 1717   2.982   0.489   2.016  0.5125  0.1107  0.1789
  573SOL    HW1 1718   2.894   0.450   2.052  2.1867  0.6591 -0.0054
  573SOL    HW2 1719   3.019   0.438   1.937  1.8546 -1.4671  0.1809
  574SOL     OW 1720   0.162   1.764   1.119  0.1723  0.1138  0.2988
  574SOL    HW1 1721   0.223   1.779   1.201  0.5447  1.7713  1.2817
  574SOL    HW2 1722   0.073   1.821   1.121 -2.3452 -1.2476  1.5290
  575SOL     OW 1723   0.847   2.178   0.960  0.0831 -0.2529 -0.4637
  575SOL    HW1 1724   0.791   2.223   1.035 -2.7251 -0.1163  1.3519
  575SOL    HW2 1725   0.860   2.245   0.880  1.3006 -1.8290  0.1191
  576SOL     OW 1726   2.872   2.980   1.676  1.0353  0.1133  0.2865
  576SOL    HW1 1727   2.766   2.967   1.683 -0.7937 -2.3066 -0.0495
  576SOL    HW2 1728   2.890   3.076   1.640 -0.4808  2.8146  0.0091
  577SOL     OW 1729   2.623   1.210   0.006  0.5417  0.7389  0.1498
  577SOL    HW1 1730   2.665   1.141  -0.061 -0.2480  0.3308 -0.2890
  577SOL    HW2 1731   2.683   1.206   0.092  1.0080  1.5288  1.6287
  578SOL     OW 1732   1.394   2.787   2.474 -0.2105  0.9843  0.0084
  578SOL    HW1 1733   1.297   2.817   2.482  0.3357 -0.3888  0.3586
  578SOL    HW2 1734   1.458   2.864   2.441  0.0572  1.2268  0.9864
  579SOL     OW 1735   0.003   2.475   0.174 -0.2108  0.4774 -0.5237
  579SOL    HW1 1736  -0.070   2.423   0.224 -1.1182  0.8732 -3.0421
  579SOL    HW2 1737   0.087   2.489   0.233  0.0523 -1.1170  1.2901
  580SOL     OW 1738   0.985   2.644   0.377  0.3026  0.1580 -0.1230
  580SOL    HW1 1739   1.066   2.661   0.318  0.2327  1.8549  3.6048
  580SOL    HW2 1740   0.895   2.609   0.329  1.0537  1.4237 -1.3300
  581SOL     OW 1741   1.236   2.645   1.437  0.8013  0.1616  0.1847
  581SOL    HW1 1742   1.303   2.579   1.483 -0.9975 -1.4825 -1.1638
  581SOL    HW2 1743   1.273   2.738   1.418 -0.8350  0.4714 -2.3624
  582SOL     OW 1744   1.502   0.114   1.887  0.0540  0.0084  0.5306
  582SOL    HW1 1745   1.507   0.184   1.961 -0.2528 -1.5114  1.2418
  582SOL    HW2 1746   1.574   0.123   1.814  0.9133 -2.6060 -1.6635
  583SOL     OW 1747   2.430   3.065   0.531  0.1012 -0.1826 -0.1681
  583SOL    HW1 1748   2.528   3.030   0.526  1.8044 -0.8391  1.9126
  583SOL    HW2 1749   2.354   2.995   0.539 -0.1945  1.2367 -0.8733
  584SOL     OW 1750   1.583   1.099   2.272  0.5252  0.3157  0.1797
  584SOL    HW1 1751   1.646   1.178   2.232  0.6579 -1.5963 -2.2369
  584SOL    HW2 1752   1.618   1.000   2.273  1.3992  3.0177  0.3854
  585SOL     OW 1753   2.100   2.661   2.885 -0.1846 -0.0466  0.1253
  585SOL    HW1 1754   2.123   2.565   2.864  1.2252  3.2395  0.0002
  585SOL    HW2 1755   1.997   2.677   2.904 -1.1480  1.1214  0.3056
  586SOL     OW 1756   2.893   0.387   1.550  0.3738  0.2441 -0.6590
  586SOL    HW1 1757   2.882   0.484   1.591  0.1144  3.1209  1.0178
  586SOL    HW2 1758   2.829   0.379   1.474  0.8776  1.8949  1.4170
  587SOL     OW 1759   2.066   1.485   2.648  0.0789 -0.1881  0.0941
  587SOL    HW1 1760   2.111   1.404   2.599 -2.1435 -2.0148  1.2153
  587SOL    HW2 1761   2.107   1.503   2.742  0.7753 -1.7899 -1.6035
  588SOL     OW 1762   0.510   2.718   2.268  0.4686 -0.2018  0.3575
  588SOL    HW1 1763   0.431   2.732   2.200  0.7390  0.1754 -1.1175
  588SOL    HW2 1764   0.500   2.632   2.317  0.0152  2.4632  2.1311
  589SOL     OW 1765   2.197   1.284   2.479 -0.0259 -0.1058  0.2603
  589SOL    HW1 1766   2.169   1.221   2.403  0.9515  0.9461 -0.9061
  589SOL    HW2 1767   2.302   1.282   2.502  1.9331 -1.2532  0.7485
  590SOL     OW 1768   2.337   1.772   2.049  0.6016  0.2965  0.4477
  590SOL    HW1 1769   2.403   1.691   2.024 -0.6955  1.7959  1.5396
  590SOL    HW2 1770   2.328   1.800   2.152  0.8861 -0.4025 -1.0790
  591SOL     OW 1771   1.231   2.434   0.218 -0.1351 -0.2344 -0.0650
  591SOL    HW1 1772   1.236   2.344   0.180 -0.7232 -0.0492  0.2195
  591SOL    HW2 1773   1.266   2.433   0.318 -0.8278 -1.0494 -1.5249
  592SOL     OW 1774   1.795   2.337   0.756  0.2880 -0.2617  0.6107
  592SOL    HW1 1775   1.800   2.408   0.677  2.4803  0.4567  2.6479
  592SOL    HW2 1776   1.864   2.265   0.747 -1.6418 -0.7439 -0.1865
  593SOL     OW 1777   0.710   0.267   0.225  0.1862 -0.4515  0.1384
  593SOL    HW1 1778   0.750   0.238   0.131 -0.4966  2.2587 -1.6547
  593SOL    HW2 1779   0.693   0.367   0.238  1.0703 -1.1816 -0.6815
  594SOL     OW 1780   1.056   1.836   2.707 -0.1303  0.1766  0.0900
  594SOL    HW1 1781   1.142   1.789   2.662  2.1846 -0.3556  2.4966
  594SOL    HW2 1782   1.074   1.846   2.811  2.3118 -0.9051  2.9837
  595SOL     OW 1783   1.576   0.086   0.990  0.0443  0.5869  0.0585
  595SOL    HW1 1784   1.632   0.008   0.954  0.4505  1.3831  0.0603
  595SOL    HW2 1785   1.479   0.077   0.956 -0.8641  2.6752 -1.2465
  596SOL     OW 1786   0.035   1.550   2.298  0.0779 -0.0609 -0.1936
  596SOL    HW1 1787   0.087   1.461   2.303  2.1838 -1.6465  1.5119
  596SOL    HW2 1788   0.011   1.587   2.396  3.5210 -0.4465  2.4515
  597SOL     OW 1789   1.919   2.681   1.801  0.3133 -0.0978 -0.1348
  597SOL    HW1 1790   1.904   2.671   1.700  2.0259 -1.8555  1.1598
  597SOL    HW2 1791   2.009   2.648   1.835 -1.5686  3.1327  0.1603
  598SOL     OW 1792   2.549   2.898   1.218  0.0284 -0.2193 -0.0127
  598SOL    HW1 1793   2.637   2.921   1.275  2.5433 -1.0599  1.8300
  598SOL    HW2 1794   2.571   2.880   1.118 -1.1442  0.1377 -0.0849
  599SOL     OW 1795   2.859   0.309   2.469 -0.4937  0.0142  0.1042
  599SOL    HW1 1796   2.918   0.271   2.396 -3.8828 -0.6221  0.8137
  599SOL    HW2 1797   2.823   0.401   2.447  3.0931 -1.7603 -0.6102
  600SOL     OW 1798   2.828   1.176   2.744 -0.0540  0.6913  0.7779
  600SOL    HW1 1799   2.733   1.139   2.760  0.6102  3.4370 -1.3699
  600SOL    HW2 1800   2.856   1.235   2.828  0.6929  0.9797  1.7018
  601SOL     OW 1801   3.083   1.338   2.009 -0.3465  0.2076 -0.1612
  601SOL    HW1 1802   2.989   1.386   2.002 -0.2171 -1.0891  0.8534
  601SOL    HW2 1803   3.162   1.399   2.024  0.4731  0.6986  0.4563
  602SOL     OW 1804   1.445   1.626   2.306  0.1647 -0.8809  0.1588
  602SOL    HW1 1805   1.371   1.577   2.362 -0.6206 -0.0041  1.1746
  602SOL    HW2 1806   1.539   1.614   2.356  0.5152  2.0908  3.4744
  603SOL     OW 1807   0.681   1.173   2.749 -0.4859 -0.3354 -0.8311
  603SOL    HW1 1808   0.579   1.164   2.735 -1.3485 -0.3420  4.0457
  603SOL    HW2 1809   0.733   1.107   2.693 -0.3026  0.6965 -0.1731
  604SOL     OW 1810   2.439   1.006   0.151  0.3539 -0.1108 -0.3536
  604SOL    HW1 1811   2.517   1.070   0.163  1.6116 -1.4096  0.0547
  604SOL    HW2 1812   2.468   0.929   0.087 -0.4850 -0.0379 -0.1437
  605SOL     OW 1813   2.495   1.191   1.983  0.0596 -0.0215 -0.2445
  605SOL    HW1 1814   2.545   1.104   1.957  0.3093 -1.4534 -0.4683
  605SOL    HW2 1815   2.559   1.258   2.035 -0.7519  0.5934  1.4863
  606SOL     OW 1816   1.495   2.550   2.556 -0.3853  0.0367  0.1956
  606SOL    HW1 1817   1.444   2.639   2.533 -2.9276  1.2048 -1.8190
  606SOL    HW2 1818   1.444   2.469   2.513  2.0101 -1.9807  0.8201
  607SOL     OW 1819   1.365   1.589   0.309  0.0713  0.6775 -0.1008
  607SOL    HW1 1820   1.284   1.647   0.336  2.1748 -1.1160 -1.2995
  607SOL    HW2 1821   1.445   1.647   0.293 -1.2491  0.0335  0.5695
  608SOL     OW 1822   1.444   2.838   0.401 -0.0885  0.6077  0.0883
  608SOL    HW1 1823   1.493   2.861   0.313  0.6861 -0.3518  0.2820
  608SOL    HW2 1824   1.367   2.902   0.429 -1.9209 -0.4343 -2.1038
  609SOL     OW 1825   1.301   1.346   0.194  0.6283 -0.2207 -0.4930
  609SOL    HW1 1826   1.320   1.445   0.228 -0.3847  1.1429 -0.7272
  609SOL    HW2 1827   1.280   1.338   0.093 -1.0326 -1.1944  4.1126
  610SOL     OW 1828   3.012   1.187   2.250  0.3145  0.1580  0.7442
  610SOL    HW1 1829   3.006   1.088   2.224  1.7557  1.9104  0.4101
  610SOL    HW2 1830   2.980   1.250   2.174  0.8821  0.3976  0.5567
  611SOL     OW 1831   2.518   0.270   1.176 -0.6276  0.1957 -0.2182
  611SOL    HW1 1832   2.473   0.175   1.191 -4.3128  0.6552  0.7815
  611SOL    HW2 1833   2.597   0.287   1.247  1.5036 -0.5519 -0.7676
  612SOL     OW 1834   0.740   2.302   1.185  0.1036 -0.2123  0.3298
  612SOL    HW1 1835   0.675   2.235   1.229  1.4581 -0.0594 -2.1592
  612SOL    HW2 1836   0.695   2.400   1.171  2.0485  3.2428  0.3832
  613SOL     OW 1837   0.866   1.382   2.384 -0.0687  0.3067 -0.7303
  613SOL    HW1 1838   0.848   1.442   2.302 -0.6316 -1.4649  1.8369
  613SOL    HW2 1839   0.845   1.283   2.365  0.4084  1.5138  3.4704
  614SOL     OW 1840   1.556   1.657   1.838 -0.3182 -0.3982 -0.5963
  614SOL    HW1 1841   1.537   1.757   1.831 -1.6781 -1.5677 -0.0600
  614SOL    HW2 1842   1.654   1.630   1.846 -0.8488 -3.4072  0.4720
  615SOL     OW 1843   0.747   1.376   1.719  0.3641  0.5115 -0.2163
  615SOL    HW1 1844   0.671   1.336   1.654 -1.8247 -0.2271 -3.1635
  615SOL    HW2 1845   0.802   1.455   1.682 -0.2947 -0.2477  1.6587
  616SOL     OW 1846   1.112   1.561   2.172 -0.5245 -0.1315 -0.1416
  616SOL    HW1 1847   1.006   1.557   2.162  0.5238 -2.9569 -1.7261
  616SOL    HW2 1848   1.162   1.594   2.086 -1.5043 -0.9744 -0.5444
  617SOL     OW 1849   2.972   1.524   1.621  0.1284 -0.4776 -0.0279
  617SOL    HW1 1850   3.000   1.448   1.684  1.1102 -1.7962 -2.4507
  617SOL    HW2 1851   3.003   1.508   1.520  2.5095  0.0343  0.6943
  618SOL     OW 1852   1.931   1.949   1.436 -0.1026 -0.6447  0.0271
  618SOL    HW1 1853   2.021   1.964   1.391 -0.2687 -0.1450 -1.0560
  618SOL    HW2 1854   1.922   1.860   1.482 -0.4825 -0.8045  0.6987
  619SOL     OW 1855   1.685   0.462   2.367 -0.6678  0.2656 -0.0626
  619SOL    HW1 1856   1.618   0.526   2.309 -2.3062 -0.8542 -0.9420
  619SOL    HW2 1857   1.653   0.364   2.355  2.1132  0.5450 -1.6558
  620SOL     OW 1858   2.183   2.929   0.595 -0.1183  0.1436 -0.2378
  620SOL    HW1 1859   2.106   2.997   0.603 -1.8157  1.5284  0.8061
  620SOL    HW2 1860   2.230   2.911   0.686 -0.1825 -1.2566 -2.0774
  621SOL     OW 1861   2.204   1.886   1.309  0.8330  0.2024  0.8239
  621SOL    HW1 1862   2.230   1.884   1.411 -0.6868  1.6769  0.0684
  621SOL    HW2 1863   2.178   1.789   1.270 -0.2782  0.3013  1.7033
  622SOL     OW 1864   2.165   0.849   1.736  0.2631  0.6038  0.6049
  622SOL    HW1 1865   2.264   0.814   1.723 -0.8982 -1.2933  2.4382
  622SOL    HW2 1866   2.117   0.808   1.817  0.5987 -1.5503 -0.5769
  623SOL     OW 1867   1.356   0.765   2.609 -0.2896  0.3116 -0.4848
  623SOL    HW1 1868   1.300   0.692   2.655  0.0320 -2.7435  0.9687
  623SOL    HW2 1869   1.295   0.818   2.542 -0.6255  2.9483 -0.1625
  624SOL     OW 1870   0.496   0.721   3.092  0.1781  0.3183 -0.4935
  624SOL    HW1 1871   0.562   0.757   3.018 -0.8789  1.3827  1.9404
  624SOL    HW2 1872   0.478   0.786   3.164  1.2211 -2.9673 -1.6453
  625SOL     OW 1873   2.794   1.739   0.900 -0.2364 -0.3947 -0.1516
  625SOL    HW1 1874   2.714   1.789   0.944 -0.9170 -2.0583 -0.6251
  625SOL    HW2 1875   2.795   1.640   0.921  0.6819 -0.0332 -0.1599
  626SOL     OW 1876   0.537   2.740   1.849  0.0734 -0.1437  0.0603
  626SOL    HW1 1877   0.564   2.837   1.873  0.0361 -0.7041 -1.3749
  626SOL    HW2 1878   0.438   2.734   1.817 -0.2212  0.6895  0.4599
  627SOL     OW 1879   0.696   1.015   1.519  0.1798  0.6944  0.2231
  627SOL    HW1 1880   0.731   0.919   1.503 -2.4255  1.3609  2.0693
  627SOL    HW2 1881   0.753   1.086   1.468  5.5356 -1.9781 -2.0695
  628SOL     OW 1882   2.417   0.210   0.693 -0.0503  0.3307  0.3098
  628SOL    HW1 1883   2.442   0.119   0.642  0.3031 -0.3437  0.6910
  628SOL    HW2 1884   2.316   0.210   0.705  1.9023  2.4926 -2.4131
  629SOL     OW 1885   1.971   0.909   1.980  0.1424 -0.0278 -0.3222
  629SOL    HW1 1886   2.042   0.924   2.052  0.0963  2.8218 -1.8060
  629SOL    HW2 1887   1.948   0.992   1.919 -0.9553  0.6907  1.7306
  630SOL     OW 1888   2.783   2.161   0.782 -0.4497 -0.5150  0.1547
  630SOL    HW1 1889   2.697   2.213   0.819 -1.0043 -0.6678  0.1142
  630SOL    HW2 1890   2.748   2.070   0.743 -2.7387  2.8017 -1.3953
  631SOL     OW 1891   2.987   0.162   2.108  0.2436  1.1575 -0.2194
  631SOL    HW1 1892   3.036   0.216   2.185 -0.7324  0.4302  2.4434
  631SOL    HW2 1893   3.043   0.165   2.022 -0.4815  2.4841 -1.2744
  632SOL     OW 1894   2.379   2.520   0.640 -0.5022 -0.7424  0.6179
  632SOL    HW1 1895   2.426   2.605   0.666 -1.1889 -0.7973 -1.7254
  632SOL    HW2 1896   2.330   2.526   0.547  2.1074 -0.1668 -0.3080
  633SOL     OW 1897   1.581   1.273   2.548  0.3658  0.0303  0.2884
  633SOL    HW1 1898   1.599   1.362   2.596 -1.9496 -0.5688  2.0636
  633SOL    HW2 1899   1.489   1.268   2.504  0.5992 -0.4467  0.5030
  634SOL     OW 1900   0.630   1.994   0.969 -0.0379  0.6229  0.5490
  634SOL    HW1 1901   0.546   2.049   0.983  0.4610  0.5774 -2.8003
  634SOL    HW2 1902   0.720   2.048   0.962 -0.3821 -0.1626  0.5187
  635SOL     OW 1903   0.027   2.313   3.059  0.7367 -0.2352  0.0251
  635SOL    HW1 1904   0.024   2.355   2.964 -0.1084  1.0492 -0.7414
  635SOL    HW2 1905   0.007   2.380   3.140 -2.7854  0.2544  0.3806
  636SOL     OW 1906   2.290   2.795   2.021  0.0712 -0.0898 -0.6036
  636SOL    HW1 1907   2.314   2.895   2.036 -1.2318  5.0894 -1.1019
  636SOL    HW2 1908   2.231   2.760   2.098 -1.4245  0.2905 -1.7007
  637SOL     OW 1909   2.548   0.692   2.036 -0.2120  0.1856 -0.1099
  637SOL    HW1 1910   2.503   0.695   1.943 -1.6152 -2.2507 -1.4133
  637SOL    HW2 1911   2.618   0.770   2.041 -1.5356  1.9704 -2.3187
  638SOL     OW 1912   2.483   1.866   1.318  0.2922  0.5015  0.2558
  638SOL    HW1 1913   2.378   1.875   1.301 -1.2347 -1.3591 -0.5034
  638SOL    HW2 1914   2.511   1.771   1.361 -0.8595  2.3194 -0.7502
  639SOL     OW 1915   1.262   2.213   1.624  0.1562 -0.5094 -0.6624
  639SOL    HW1 1916   1.292   2.147   1.550  2.3077  1.2970  0.0295
  639SOL    HW2 1917   1.169   2.188   1.663  2.8928 -0.4309 -3.8998
  640SOL     OW 1918   0.185   1.190   1.569 -0.1358 -0.0364  0.1572
  640SOL    HW1 1919   0.167   1.271   1.634  0.7734  2.2319  1.0752
  640SOL    HW2 1920   0.273   1.133   1.587 -2.0130 -2.1476  1.0401
  641SOL     OW 1921   1.993   0.102   1.490 -0.7854  0.8779 -1.0711
  641SOL    HW1 1922   1.987   0.165   1.570 -1.9598 -1.5770 -2.8222
  641SOL    HW2 1923   1.969   0.002   1.510 -0.9870 -0.0651 -3.3192
  642SOL     OW 1924   1.950   0.134   0.325  0.4248  0.3437  0.2648
  642SOL    HW1 1925   2.038   0.121   0.379 -0.2536 -0.3533  0.3215
  642SOL    HW2 1926   1.862   0.139   0.384  0.7977 -1.4235 -1.4605
  643SOL     OW 1927   2.866   1.896   2.061  0.0740 -0.6630 -0.1267
  643SOL    HW1 1928   2.784   1.834   2.034 -1.9630 -0.9653  0.9885
  643SOL    HW2 1929   2.855   1.989   2.009 -0.7691  0.3112  2.3191
  644SOL     OW 1930   2.176   2.324   1.192 -0.0666 -0.0957 -0.0323
  644SOL    HW1 1931   2.266   2.281   1.164 -0.9564  2.2080  1.9877
  644SOL    HW2 1932   2.152   2.324   1.293 -0.1360  1.1035 -1.0482
  645SOL     OW 1933   0.609   0.780   1.162 -0.4126 -0.2194 -0.0965
  645SOL    HW1 1934   0.524   0.735   1.117  0.4858 -0.5466  1.7824
  645SOL    HW2 1935   0.654   0.846   1.091  1.5263 -0.1422  0.2912
  646SOL     OW 1936   1.519   1.942   1.806 -0.0826  0.1761 -0.3724
  646SOL    HW1 1937   1.607   1.997   1.800 -0.9289  0.4735 -0.1231
  646SOL    HW2 1938   1.455   1.981   1.879  1.2128 -1.8800 -1.2582
  647SOL     OW 1939   0.861   0.964   0.684  0.7298  0.2556 -0.1684
  647SOL    HW1 1940   0.942   0.978   0.747 -0.0412 -3.0321 -1.1171
  647SOL    HW2 1941   0.796   0.897   0.730  1.7864 -1.8220  0.4789
  648SOL     OW 1942   0.144   0.165   0.290  0.5954  0.1297 -0.2236
  648SOL    HW1 1943   0.198   0.109   0.229 -0.0811 -0.7587  0.7176
  648SOL    HW2 1944   0.132   0.264   0.259  1.3772  1.6371  0.8161
  649SOL     OW 1945   3.079   0.158   0.933  0.3186 -0.0456  0.1822
  649SOL    HW1 1946   3.181   0.163   0.932 -0.3560 -1.9182 -0.4997
  649SOL    HW2 1947   3.033   0.224   0.997 -0.3782 -1.3424  0.4675
  650SOL     OW 1948   2.703   0.711   1.393  0.0352 -0.0850 -0.0482
  650SOL    HW1 1949   2.608   0.713   1.444 -0.8385 -1.2412  0.6834
  650SOL    HW2 1950   2.719   0.788   1.327 -3.7121  2.3774 -0.9556
  651SOL     OW 1951   0.893   1.596   1.627 -0.3525  0.0032 -0.4933
  651SOL    HW1 1952   0.976   1.650   1.659 -0.8557 -1.8329  2.7354
  651SOL    HW2 1953   0.876   1.591   1.527 -0.5647 -0.6196  0.1951
  652SOL     OW 1954   2.243   2.479   2.438 -0.4529  0.0945 -0.8287
  652SOL    HW1 1955   2.172   2.456   2.515 -1.6971  1.2095  2.1751
  652SOL    HW2 1956   2.206   2.540   2.364  0.2810 -0.7133  2.5675
  653SOL     OW 1957   2.728   1.164   0.260 -0.3469  0.0277  0.5018
  653SOL    HW1 1958   2.776   1.252   0.281  0.7986 -2.2071  0.5743
  653SOL    HW2 1959   2.776   1.078   0.289  1.0028 -1.2617  0.4927
  654SOL     OW 1960   1.270   2.279   1.255  0.4573 -0.3097  0.0647
  654SOL    HW1 1961   1.282   2.196   1.314 -0.5479  0.7352  2.3887
  654SOL    HW2 1962   1.332   2.277   1.170  0.2712 -0.6633 -2.1440
  655SOL     OW 1963   0.213   1.015   1.840 -0.2987 -0.1074 -0.2186
  655SOL    HW1 1964   0.233   0.916   1.812  1.3501 -0.8267  3.2662
  655SOL    HW2 1965   0.292   1.080   1.854  1.3308  0.3691  1.9226
  656SOL     OW 1966   2.519   2.476   2.597 -0.6818  0.2154  0.3837
  656SOL    HW1 1967   2.611   2.459   2.545  1.9317 -0.7923 -0.3735
  656SOL    HW2 1968   2.441   2.505   2.532  0.1000  0.7537  2.8670
  657SOL     OW 1969   3.045   1.095   1.901 -0.2347  0.2202 -0.1786
  657SOL    HW1 1970   3.053   1.196   1.928 -1.3894  1.0156  2.6871
  657SOL    HW2 1971   3.139   1.054   1.872  0.6074 -0.2686 -0.7273
  658SOL     OW 1972   1.632   0.167   2.377 -0.4661 -0.1564  0.2293
  658SOL    HW1 1973   1.676   0.117   2.457  1.0333 -2.1872 -1.0977
  658SOL    HW2 1974   1.695   0.160   2.295  3.9264 -3.0749 -0.3196
  659SOL     OW 1975   1.394   0.622   2.905 -0.4657 -0.3421 -0.1953
  659SOL    HW1 1976   1.444   0.713   2.928  2.7723 -1.0914  1.8452
  659SOL    HW2 1977   1.312   0.627   2.841 -0.3930  0.1033 -0.4891
  660SOL     OW 1978   1.470   0.351   1.400  0.1024  0.1070  0.1377
  660SOL    HW1 1979   1.512   0.362   1.492 -1.3028  0.0860 -1.7425
  660SOL    HW2 1980   1.514   0.277   1.335  0.0428 -0.3135 -3.0543
  661SOL     OW 1981   2.526   1.181   0.660 -0.5672 -0.0042  0.4520
  661SOL    HW1 1982   2.508   1.131   0.569  0.2230  0.2451 -0.6191
  661SOL    HW2 1983   2.463   1.264   0.672 -1.7503  3.0942 -0.3061
  662SOL     OW 1984   1.321   0.411   1.825  0.0575  0.0791 -0.0787
  662SOL    HW1 1985   1.283   0.314   1.812 -1.1636 -1.1520  0.1701
  662SOL    HW2 1986   1.268   0.459   1.902 -1.1421 -0.6638  2.7200
  663SOL     OW 1987   0.833   1.577   2.183  0.5922  1.0263  0.4883
  663SOL    HW1 1988   0.799   1.672   2.205 -0.4772 -0.6075  1.7564
  663SOL    HW2 1989   0.778   1.540   2.103 -1.7868 -1.6277 -1.4400
  664SOL     OW 1990   1.665   2.025   1.387 -0.1728 -0.2161 -0.5496
  664SOL    HW1 1991   1.593   1.964   1.432  0.6969 -2.4093 -2.2882
  664SOL    HW2 1992   1.761   2.001   1.418  1.9144  1.7657 -0.2240
  665SOL     OW 1993   2.187   0.687   1.991  0.5304 -0.1243 -0.6419
  665SOL    HW1 1994   2.225   0.606   2.042 -4.1468 -0.5879 -0.3686
  665SOL    HW2 1995   2.167   0.766   2.054 -1.4030 -1.2649 -3.3107
  666SOL     OW 1996   0.471   2.329   0.480  0.7054 -0.8669  0.1268
  666SOL    HW1 1997   0.554   2.387   0.480 -0.1903  1.2399 -1.5700
  666SOL    HW2 1998   0.445   2.282   0.570 -1.6877  2.1497 -2.1096
  667SOL     OW 1999   1.969   0.199   1.022  0.5754  0.1073 -0.0660
  667SOL    HW1 2000   1.987   0.298   1.038  1.2061  1.6134 -0.1459
  667SOL    HW2 2001   1.904   0.162   1.094  2.2425 -3.2126 -0.3007
  668SOL     OW 2002   1.993   0.548   1.193 -0.1521  0.2182 -0.2288
  668SOL    HW1 2003   2.055   0.521   1.114  0.7735 -0.1666 -1.8981
  668SOL    HW2 2004   2.032   0.534   1.287 -1.8507  1.8591 -2.2102
  669SOL     OW 2005   3.020   2.152   0.896 -0.7115 -0.6046 -0.6280
  669SOL    HW1 2006   2.937   2.156   0.831  0.4641  1.7449 -0.1835
  669SOL    HW2 2007   2.981   2.186   0.985 -4.4355 -2.3416 -2.3277
  670SOL     OW 2008   2.859   2.340   2.013 -0.0343  0.7206 -0.0555
  670SOL    HW1 2009   2.778   2.331   2.081 -0.3495  0.5415 -0.3044
  670SOL    HW2 2010   2.853   2.430   1.965 -1.1647  2.4836 -0.2992
  671SOL     OW 2011   1.751   1.733   1.447  0.3192 -0.3453  0.7055
  671SOL    HW1 2012   1.765   1.783   1.357  2.0282  0.5140 -1.0591
  671SOL    HW2 2013   1.667   1.667   1.429  0.8136 -1.9179 -1.1737
  672SOL     OW 2014   0.462   0.615   2.457  0.0841  0.3638  0.3982
  672SOL    HW1 2015   0.483   0.645   2.361  0.7818 -0.1566  0.2376
  672SOL    HW2 2016   0.375   0.653   2.489 -1.1379  2.0443  0.4142
  673SOL     OW 2017   0.146   1.195   1.155 -0.1013  0.2812  0.5429
  673SOL    HW1 2018   0.159   1.287   1.199 -0.2864  1.2836  1.2981
  673SOL    HW2 2019   0.240   1.150   1.133  2.1496  0.4358 -0.4074
  674SOL     OW 2020   1.547   2.898   0.142 -0.0104  0.1849  0.1337
  674SOL    HW1 2021   1.607   2.986   0.134 -2.4408 -0.9274  0.4359
  674SOL    HW2 2022   1.585   2.822   0.084 -1.7454 -1.0882 -0.8458
  675SOL     OW 2023   1.661   0.852   2.295  0.0212  0.1427  0.4826
  675SOL    HW1 2024   1.746   0.827   2.247 -1.0569  1.5746 -0.1144
  675SOL    HW2 2025   1.602   0.771   2.279  0.9583  1.4110  0.7196
  676SOL     OW 2026   2.497   1.544   1.996  0.1223 -0.5552 -0.0881
  676SOL    HW1 2027   2.462   1.487   1.914 -1.6244  0.6450  0.7043
  676SOL    HW2 2028   2.543   1.489   2.067 -0.4815  2.3841 -1.6192
  677SOL     OW 2029   1.825   0.615   0.967 -0.1408 -0.2197  0.9744
  677SOL    HW1 2030   1.886   0.638   1.048 -0.8055 -1.3544 -0.4367
  677SOL    HW2 2031   1.826   0.517   0.933 -0.5039  0.0293  1.3379
  678SOL     OW 2032   0.048   0.752   1.665  0.4855 -0.0986  0.4292
  678SOL    HW1 2033   0.145   0.767   1.702 -1.3340 -0.3858 -2.0182
  678SOL    HW2 2034  -0.026   0.775   1.733  0.6028  1.3674 -1.9852
  679SOL     OW 2035   2.525   1.168   1.102 -0.9020  0.7518 -0.2475
  679SOL    HW1 2036   2.466   1.195   1.184 -0.7469  0.9074 -2.1561
  679SOL    HW2 2037   2.494   1.074   1.062  0.0349 -0.2585  0.9544
  680SOL     OW 2038   2.817   0.655   1.639  0.1163  0.0863  0.2078
  680SOL    HW1 2039   2.786   0.694   1.549  0.0547 -0.7535  0.3430
  680SOL    HW2 2040   2.857   0.730   1.696 -0.1389 -0.8293 -0.4817
  681SOL     OW 2041   2.990   0.125   1.607 -0.0093  0.5444  0.1410
  681SOL    HW1 2042   3.076   0.113   1.550  0.4872 -0.5135 -0.6529
  681SOL    HW2 2043   2.951   0.225   1.597  0.4515 -0.0183 -2.0919
  682SOL     OW 2044   0.794   0.039   1.398 -0.1124 -0.5951 -0.1607
  682SOL    HW1 2045   0.722  -0.012   1.452 -1.7689 -0.2042  0.4601
  682SOL    HW2 2046   0.774   0.053   1.297  0.5400  2.2053  0.5762
  683SOL     OW 2047   1.372   0.263   2.191  0.2539 -0.3993 -0.0844
  683SOL    HW1 2048   1.331   0.337   2.252  2.5474  1.3511 -2.1889
  683SOL    HW2 2049   1.465   0.284   2.146  2.3036 -1.6677  1.2180
  684SOL     OW 2050   1.447   2.130   0.497  0.1296 -0.4920  0.3481
  684SOL    HW1 2051   1.506   2.068   0.557  1.6200 -1.9474  0.0264
  684SOL    HW2 2052   1.362   2.084   0.456 -0.7029 -0.0345 -0.9793
  685SOL     OW 2053   2.190   1.992   1.935  0.1321 -0.5757 -0.0874
  685SOL    HW1 2054   2.241   2.060   1.876  3.8297 -0.6901 -0.1012
  685SOL    HW2 2055   2.247   1.922   1.980 -1.2344  2.3233 -0.1319
  686SOL     OW 2056   1.532   1.731   2.667 -0.1412 -0.1776  0.2701
  686SOL    HW1 2057   1.528   1.630   2.696 -0.1679 -0.7591  0.5049
  686SOL    HW2 2058   1.628   1.764   2.683  2.3702  0.5771  1.2524
  687SOL     OW 2059   1.316   2.518   1.895  0.4548  0.1978  0.0210
  687SOL    HW1 2060   1.368   2.431   1.881 -4.1489 -2.4395 -1.0047
  687SOL    HW2 2061   1.377   2.593   1.936  0.1955 -1.3582  0.7220
  688SOL     OW 2062   2.071   1.445   1.657  0.1236 -0.0112 -0.8750
  688SOL    HW1 2063   2.158   1.478   1.612 -2.0483  0.9627 -2.0672
  688SOL    HW2 2064   2.031   1.367   1.597 -3.2343  2.7080 -0.9148
  689SOL     OW 2065   2.468   1.114   2.759  0.0231  0.2184 -0.1045
  689SOL    HW1 2066   2.372   1.106   2.783  2.0247  0.3149 -0.9292
  689SOL    HW2 2067   2.524   1.063   2.832  3.1426 -0.7831  0.4156
  690SOL     OW 2068   2.204   2.777   0.068 -0.4488  0.6519 -0.3772
  690SOL    HW1 2069   2.120   2.753   0.010 -0.2678  0.5602 -4.7411
  690SOL    HW2 2070   2.185   2.806   0.165 -1.0946  1.4981  0.6183
  691SOL     OW 2071   2.611   0.414   2.128  0.0124  0.3426 -0.2667
  691SOL    HW1 2072   2.683   0.364   2.070  0.8182 -0.0538  0.4446
  691SOL    HW2 2073   2.563   0.487   2.074  0.4381 -2.2065 -1.0852
  692SOL     OW 2074   2.785   1.206   0.714  0.0056  0.1220  0.0907
  692SOL    HW1 2075   2.683   1.199   0.706  0.7523 -0.1454 -0.8270
  692SOL    HW2 2076   2.824   1.282   0.775  1.3004 -1.2578 -0.3243
  693SOL     OW 2077   2.875   3.013   0.656 -0.3672 -0.0037 -1.0663
  693SOL    HW1 2078   2.853   3.098   0.711  2.4559 -2.8559 -1.0155
  693SOL    HW2 2079   2.807   2.991   0.583  0.2043 -1.1236  0.3412
  694SOL     OW 2080   2.410   2.232   0.047 -0.5140 -0.3947  0.4071
  694SOL    HW1 2081   2.381   2.323   0.096  1.5596  0.2108 -2.6954
  694SOL    HW2 2082   2.339   2.158   0.049 -0.2281  2.3453 -3.5108
  695SOL     OW 2083   0.576   3.008   1.486 -0.7145  0.2213 -0.0015
  695SOL    HW1 2084   0.570   2.909   1.455  0.2090 -0.3211 -2.1744
  695SOL    HW2 2085   0.507   3.031   1.557 -1.7270  1.2663  0.7080
  696SOL     OW 2086   2.682   1.919   0.709  0.0253 -0.1210 -0.1536
  696SOL    HW1 2087   2.713   1.822   0.743  0.7243 -1.5598  2.3840
  696SOL    HW2 2088   2.677   1.924   0.605  2.8435  0.9793 -0.0992
  697SOL     OW 2089   1.749   2.075   1.800  0.1867  0.8387 -0.7349
  697SOL    HW1 2090   1.819   2.003   1.784  0.5200  0.8022 -1.3279
  697SOL    HW2 2091   1.793   2.167   1.809  1.3112 -2.1010 -0.8439
  698SOL     OW 2092   2.881   0.395   2.738 -0.4114  0.8377 -0.1711
  698SOL    HW1 2093   2.880   0.359   2.645  0.2974 -3.0334  2.2701
  698SOL    HW2 2094   2.957   0.354   2.800  0.5244  3.3891  1.6116
  699SOL     OW 2095   1.529   0.079   2.942  0.9028  0.1903  0.6071
  699SOL    HW1 2096   1.478   0.008   2.889 -0.1654  2.2400 -1.3576
  699SOL    HW2 2097   1.572   0.147   2.876 -0.3459 -0.2761 -2.9413
  700SOL     OW 2098   0.973   2.335   1.313  0.1990  0.5929  0.2772
  700SOL    HW1 2099   1.065   2.308   1.278 -0.5328  0.0317  0.1435
  700SOL    HW2 2100   0.895   2.315   1.247 -0.6151  1.7440 -3.7098
  701SOL     OW 2101   1.903   2.811   0.025 -0.0443 -0.1569  0.1107
  701SOL    HW1 2102   1.884   2.766   0.114 -1.2158  0.5270  0.2107
  701SOL    HW2 2103   1.917   2.914   0.035 -1.9375 -1.9056  1.9969
  702SOL     OW 2104   2.101   1.339   1.922  0.4718  0.1115  0.4012
  702SOL    HW1 2105   2.163   1.259   1.918 -1.6320  2.5517  2.0732
  702SOL    HW2 2106   2.083   1.382   1.827 -0.5378  0.5765 -0.7196
  703SOL     OW 2107   1.917   0.816   1.411  0.2877 -0.0032  0.0681
  703SOL    HW1 2108   1.916   0.726   1.463  0.3880 -0.2314  0.1219
  703SOL    HW2 2109   1.969   0.892   1.461  0.9574 -1.9869 -3.0546
  704SOL     OW 2110   0.304   2.065   1.659  0.3251 -0.8579  0.1457
  704SOL    HW1 2111   0.319   2.014   1.746 -1.1873 -3.2660 -1.3919
  704SOL    HW2 2112   0.366   2.154   1.660  0.2326 -2.2255  0.1637
  705SOL     OW 2113   2.537   1.393   0.920  0.0398 -0.0100 -0.5871
  705SOL    HW1 2114   2.452   1.386   0.862  0.9261  1.3228  0.1679
  705SOL    HW2 2115   2.583   1.306   0.940  0.2114 -0.7317 -0.9552
  706SOL     OW 2116   0.636   1.775   1.839  0.0455 -0.2286  0.2071
  706SOL    HW1 2117   0.654   1.675   1.868  0.9750  2.6201  2.0318
  706SOL    HW2 2118   0.705   1.842   1.871 -0.3185 -1.0154  0.5605
  707SOL     OW 2119   2.271   1.121   1.851  0.0093  0.1125 -0.6390
  707SOL    HW1 2120   2.351   1.135   1.913  0.8193  2.4089  0.5483
  707SOL    HW2 2121   2.247   1.024   1.818  0.0414  0.6754  0.9421
  708SOL     OW 2122   3.042   0.461   3.063  0.6970 -0.0901 -0.1748
  708SOL    HW1 2123   3.077   0.528   2.994 -0.3136 -2.9714 -4.4211
  708SOL    HW2 2124   3.018   0.370   3.013  0.1271 -0.3830 -1.4389
  709SOL     OW 2125   1.813   1.818   0.280  0.1950 -0.3820  0.1170
  709SOL    HW1 2126   1.868   1.900   0.304 -2.0739  0.5154  0.1373
  709SOL    HW2 2127   1.815   1.803   0.174  0.4863 -2.3286  1.8550
  710SOL     OW 2128   1.694   1.568   2.428 -0.0292 -0.2455  0.3062
  710SOL    HW1 2129   1.763   1.593   2.363 -0.9370 -0.3043  2.6462
  710SOL    HW2 2130   1.726   1.514   2.506 -0.9387 -0.3557 -0.7892
  711SOL     OW 2131   2.638   2.905   0.962 -0.1048 -0.2373 -0.1828
  711SOL    HW1 2132   2.592   2.994   0.945 -1.1131 -2.1248 -1.5676
  711SOL    HW2 2133   2.732   2.911   1.008  0.0594  2.2623 -4.8404
  712SOL     OW 2134   1.492   2.314   1.789  0.0977  0.4115 -0.8100
  712SOL    HW1 2135   1.579   2.255   1.805  0.6235 -0.6061 -0.3869
  712SOL    HW2 2136   1.426   2.262   1.730 -0.9027  1.5669  0.4285
  713SOL     OW 2137   2.783   1.500   2.489  0.3737 -0.2202 -0.2851
  713SOL    HW1 2138   2.788   1.397   2.497  0.3210 -1.0431  0.3267
  713SOL    HW2 2139   2.684   1.530   2.515 -2.6684 -2.0239 -1.5330
  714SOL     OW 2140   2.655   0.469   2.401 -0.3402  0.1870  0.6276
  714SOL    HW1 2141   2.610   0.397   2.457 -0.7320  0.0402  1.3442
  714SOL    HW2 2142   2.631   0.456   2.302 -0.7855  1.1084 -0.4133
  715SOL     OW 2143   1.562   2.068   1.127 -0.0308  1.0420 -0.2381
  715SOL    HW1 2144   1.505   2.150   1.100 -1.3057  0.7358 -0.7473
  715SOL    HW2 2145   1.607   2.074   1.215 -0.1358 -0.6008 -2.8083
  716SOL     OW 2146   1.213   0.231   1.523 -0.1627  0.0181  0.1869
  716SOL    HW1 2147   1.119   0.240   1.483 -0.8648 -1.8776 -1.4237
  716SOL    HW2 2148   1.283   0.283   1.466  0.3831 -1.5602 -0.0058
  717SOL     OW 2149   1.085   0.604   1.613 -0.4777 -0.7036  0.1268
  717SOL    HW1 2150   1.187   0.608   1.646 -0.3506 -1.1007  0.1067
  717SOL    HW2 2151   1.075   0.601   1.507  3.3933 -3.5197  0.0358
  718SOL     OW 2152   0.716   0.985   1.013 -0.3910  0.1286  0.3926
  718SOL    HW1 2153   0.661   0.961   0.926  0.0138  2.7506 -0.4712
  718SOL    HW2 2154   0.758   1.082   1.013  1.3961  0.5930 -1.7366
  719SOL     OW 2155   0.762   1.835   2.269  0.5439 -0.0830 -0.3314
  719SOL    HW1 2156   0.840   1.835   2.337 -2.1904  2.4940  1.1063
  719SOL    HW2 2157   0.667   1.854   2.315  2.5034 -0.6769 -1.4733
  720SOL     OW 2158   2.205   1.109   0.251 -0.0193  0.2931  0.4508
  720SOL    HW1 2159   2.268   1.037   0.202  1.2712  1.4586  0.1440
  720SOL    HW2 2160   2.184   1.089   0.353 -0.8434 -1.1966 -0.8933
  721SOL     OW 2161   2.318   0.011   2.074  0.3240  0.1160 -0.1112
  721SOL    HW1 2162   2.343   0.059   1.984  2.9048  1.7663 -0.1981
  721SOL    HW2 2163   2.218  -0.011   2.080  1.0441  1.8322 -0.5588
  722SOL     OW 2164   2.394   1.622   0.584 -0.4834  0.2732  0.4822
  722SOL    HW1 2165   2.389   1.590   0.486 -0.4641 -2.4027  1.8631
  722SOL    HW2 2166   2.310   1.681   0.614 -1.3421 -1.7307  2.7839
  723SOL     OW 2167   2.564   2.766   1.950  0.3226  0.4886  0.0500
  723SOL    HW1 2168   2.583   2.792   2.047  0.1633 -1.3464 -2.3743
  723SOL    HW2 2169   2.461   2.747   1.941 -0.6132  0.4942  0.6442
  724SOL     OW 2170   0.513   2.468   2.441 -0.4714 -0.2453  0.0489
  724SOL    HW1 2171   0.419   2.448   2.486 -2.7661 -1.3760  2.8704
  724SOL    HW2 2172   0.584   2.494   2.517  2.2162 -0.9593  1.1646
  725SOL     OW 2173   2.480   2.753   1.528  0.0373 -0.6096 -1.0629
  725SOL    HW1 2174   2.478   2.758   1.424 -1.4718 -0.1840 -2.1158
  725SOL    HW2 2175   2.461   2.658   1.564 -0.3213  2.1872  2.9448
  726SOL     OW 2176   2.352   2.230   0.675  0.2359  0.4476  0.2240
  726SOL    HW1 2177   2.364   2.329   0.662  0.9644 -3.1429 -1.1595
  726SOL    HW2 2178   2.374   2.174   0.587 -0.7006 -1.6526 -0.5115
  727SOL     OW 2179   0.232   3.098   0.099  0.2719 -0.4273  0.1304
  727SOL    HW1 2180   0.323   3.064   0.062  1.2123 -1.6168  1.0217
  727SOL    HW2 2181   0.151   3.072   0.045  1.3364  0.6570 -1.1952
  728SOL     OW 2182   2.836   0.672   0.992 -0.1156  0.5430  0.9802
  728SOL    HW1 2183   2.803   0.649   0.897 -1.3461 -0.1882 -0.2701
  728SOL    HW2 2184   2.804   0.608   1.062 -2.9905 -1.9170 -1.8548
  729SOL     OW 2185   2.896   2.442   0.687 -0.2781  0.3368 -0.2198
  729SOL    HW1 2186   2.844   2.356   0.727  3.1277 -2.6870 -2.7741
  729SOL    HW2 2187   2.999   2.446   0.701 -0.3416  1.1776  2.0026
  730SOL     OW 2188   2.568   0.589   0.807 -0.5292 -0.2757 -0.6460
  730SOL    HW1 2189   2.535   0.681   0.777  0.0788  0.2248  0.8609
  730SOL    HW2 2190   2.645   0.556   0.756  1.1168  0.0589  1.8354
  731SOL     OW 2191   0.031   2.139   2.426 -1.0028  0.0827  0.0671
  731SOL    HW1 2192   0.063   2.176   2.517  1.1121  0.4456  1.1792
  731SOL    HW2 2193   0.031   2.212   2.363  0.2848 -1.5490  0.2093
  732SOL     OW 2194   1.075   2.882   1.969  0.0438 -0.1173  0.8401
  732SOL    HW1 2195   1.102   2.832   2.054 -0.7423  2.2585  0.8545
  732SOL    HW2 2196   1.099   2.832   1.879 -1.3984  0.9351 -2.1549
  733SOL     OW 2197   0.017   0.721   2.082 -0.1534  0.5406 -0.9389
  733SOL    HW1 2198   0.118   0.713   2.071  1.3786 -0.9709  0.2687
  733SOL    HW2 2199  -0.039   0.631   2.075  1.4298  1.1438 -1.8220
  734SOL     OW 2200   1.432   0.364   2.772  0.2061 -0.3107 -0.0575
  734SOL    HW1 2201   1.419   0.459   2.815 -0.0290 -2.2454 -0.3325
  734SOL    HW2 2202   1.341   0.319   2.757 -0.2966 -0.4647 -1.4021
  735SOL     OW 2203   2.886   2.627   2.254 -0.5584 -0.1574 -0.0587
  735SOL    HW1 2204   2.817   2.630   2.178 -1.1141 -0.3348  1.4918
  735SOL    HW2 2205   2.982   2.599   2.219  1.9892  1.4439 -0.6269
  736SOL     OW 2206   0.748   0.456   2.619  0.1323 -0.3966  0.2735
  736SOL    HW1 2207   0.714   0.550   2.630 -0.2496  2.1604 -0.2874
  736SOL    HW2 2208   0.742   0.418   2.527 -1.6519 -0.5689  2.6135
  737SOL     OW 2209   2.640   0.472   2.867  0.2673  0.1796  0.5475
  737SOL    HW1 2210   2.614   0.428   2.961  1.4901 -0.0615  0.1309
  737SOL    HW2 2211   2.733   0.440   2.828  0.8825 -1.2923  0.6075
  738SOL     OW 2212   1.584   1.232   2.947  0.1814 -0.0507  0.4880
  738SOL    HW1 2213   1.681   1.201   2.959  0.1857  0.2491 -0.4849
  738SOL    HW2 2214   1.531   1.178   2.883  3.0320 -0.0046 -0.1051
  739SOL     OW 2215   1.733   0.646   0.674  0.5374  0.4515  0.2440
  739SOL    HW1 2216   1.754   0.652   0.776 -0.8537 -0.4992  0.0949
  739SOL    HW2 2217   1.776   0.566   0.626 -1.3637 -1.4199 -0.2083
  740SOL     OW 2218   1.957   1.875   2.283 -0.1831  0.7470 -0.9905
  740SOL    HW1 2219   2.020   1.799   2.324 -1.1489 -0.9211 -0.2406
  740SOL    HW2 2220   1.909   1.845   2.197 -3.1356 -1.2996  0.7972
  741SOL     OW 2221   2.510   0.042   2.596 -0.1644  0.1181  0.5359
  741SOL    HW1 2222   2.616   0.043   2.599 -1.3956  1.6898  2.4801
  741SOL    HW2 2223   2.471   0.021   2.503 -0.9425  0.6999  0.0518
  742SOL     OW 2224   2.250   1.377   0.150  0.0702 -0.6916 -0.1888
  742SOL    HW1 2225   2.185   1.441   0.195 -1.4503 -0.0034 -1.3011
  742SOL    HW2 2226   2.292   1.307   0.210  1.0971 -0.2126  0.1725
  743SOL     OW 2227   1.801   0.611   2.574 -0.3082 -0.6845 -0.1311
  743SOL    HW1 2228   1.763   0.547   2.504  0.0055 -1.0194  0.0295
  743SOL    HW2 2229   1.729   0.685   2.596 -0.7188 -0.6470 -0.0716
  744SOL     OW 2230   2.690   2.122   0.066 -0.7698 -0.4134 -0.0941
  744SOL    HW1 2231   2.594   2.157   0.070  1.4406 -0.2257  0.5255
  744SOL    HW2 2232   2.693   2.025   0.036  1.0819  3.3707  2.5962
  745SOL     OW 2233   2.145   2.682   2.228 -0.1598 -0.2075 -0.1928
  745SOL    HW1 2234   2.067   2.645   2.167 -0.4749  1.7268  1.4308
  745SOL    HW2 2235   2.115   2.740   2.312 -0.4653 -1.3154  1.1484
  746SOL     OW 2236  -0.000   2.567   1.819 -0.1746 -0.2769 -0.0710
  746SOL    HW1 2237   0.099   2.570   1.792 -0.4567  1.7634  1.6469
  746SOL    HW2 2238  -0.046   2.662   1.835 -0.1212 -1.8605  1.3139
  747SOL     OW 2239   0.013   1.768   1.628 -0.1799  0.0660  0.2006
  747SOL    HW1 2240  -0.030   1.676   1.629  0.9437  0.5619 -1.0872
  747SOL    HW2 2241   0.043   1.799   1.532  0.2605 -0.6976 -0.9461
  748SOL     OW 2242   1.821   2.764   2.857 -0.1438 -0.6030  0.7301
  748SOL    HW1 2243   1.833   2.781   2.960  0.0402  1.4087  0.6929
  748SOL    HW2 2244   1.722   2.741   2.839 -0.2699 -0.0905 -2.1681
  749SOL     OW 2245   1.334   3.085   0.868 -0.2516 -0.0269 -0.1935
  749SOL    HW1 2246   1.283   3.003   0.910  0.4522  1.7145 -0.1036
  749SOL    HW2 2247   1.310   3.096   0.765  0.4034  1.0082  1.5363
  750SOL     OW 2248   2.307   0.212   1.888 -0.4582  0.8280 -0.1934
  750SOL    HW1 2249   2.320   0.273   1.808 -1.7382 -0.6716  2.3575
  750SOL    HW2 2250   2.337   0.263   1.972  3.1881  0.7840  0.7108
  751SOL     OW 2251   0.855   2.210   2.764 -0.5967  0.0540  1.4091
  751SOL    HW1 2252   0.902   2.182   2.851 -1.6746 -1.4745 -0.3250
  751SOL    HW2 2253   0.803   2.134   2.719 -1.2928  0.4731  0.0293
  752SOL     OW 2254   1.246   0.864   1.525 -0.6827  0.3973  0.0537
  752SOL    HW1 2255   1.321   0.916   1.475  0.1604 -0.1134 -0.9929
  752SOL    HW2 2256   1.286   0.774   1.563 -1.4312 -1.2694  0.9022
  753SOL     OW 2257   0.941   2.604   1.693  0.3011 -0.1687  0.8076
  753SOL    HW1 2258   1.019   2.672   1.675 -3.0795 -1.0802 -2.6948
  753SOL    HW2 2259   0.849   2.640   1.673  0.4351 -1.0476  1.6960
  754SOL     OW 2260   1.224   1.325   3.033 -0.2927 -0.3445 -0.3599
  754SOL    HW1 2261   1.265   1.255   2.970  1.8774 -3.2697  0.6301
  754SOL    HW2 2262   1.200   1.418   2.992  2.0263 -0.2056 -0.6872
  755SOL     OW 2263   1.915   0.455   2.226  0.2918 -0.0274  0.0921
  755SOL    HW1 2264   2.004   0.428   2.274 -0.3911  0.4955  0.1888
  755SOL    HW2 2265   1.838   0.463   2.291 -1.0092  1.3008 -2.6318
  756SOL     OW 2266   2.618   0.972   2.967 -0.7238  0.4946  0.0724
  756SOL    HW1 2267   2.715   0.943   2.987  2.1903  0.0232  0.8542
  756SOL    HW2 2268   2.551   0.891   2.991 -0.0652 -0.4114  1.8969
  757SOL     OW 2269   0.011   0.443   1.791  0.7772  0.3648 -0.1336
  757SOL    HW1 2270  -0.002   0.542   1.804  0.0674 -0.5610 -0.5184
  757SOL    HW2 2271   0.078   0.419   1.713  0.4777 -1.4864 -0.6883
  758SOL     OW 2272   2.387   0.044   1.463 -0.3664 -0.9732 -0.0719
  758SOL    HW1 2273   2.331  -0.036   1.497 -0.3712 -0.1751  0.6366
  758SOL    HW2 2274   2.378   0.070   1.365  0.1639 -0.7531  3.5429
  759SOL     OW 2275   1.678   0.031   0.080 -0.1077 -0.4071 -0.1916
  759SOL    HW1 2276   1.627   0.023  -0.015 -2.8739  0.6262 -2.3185
  759SOL    HW2 2277   1.779   0.024   0.068  0.5758 -1.5009 -0.5562
  760SOL     OW 2278   2.716   2.037   2.792  0.0819  0.0858 -0.9260
  760SOL    HW1 2279   2.787   1.963   2.771 -0.1854 -0.0768 -1.7692
  760SOL    HW2 2280   2.766   2.107   2.846  1.6575  0.1578 -1.7757
  761SOL     OW 2281   1.951   1.708   1.624  0.0309 -0.8447 -0.1078
  761SOL    HW1 2282   1.991   1.612   1.645  3.4856 -2.1607  0.0632
  761SOL    HW2 2283   1.869   1.703   1.557 -0.7688 -2.1186 -0.4991
  762SOL     OW 2284   0.501   2.419   0.994  0.1910  0.1657 -0.5694
  762SOL    HW1 2285   0.550   2.443   0.903 -0.4736  2.0246  0.2919
  762SOL    HW2 2286   0.541   2.486   1.069  0.4562  1.9667  0.7074
  763SOL     OW 2287   2.115   1.519   2.988  0.1118  0.0688  0.1741
  763SOL    HW1 2288   2.206   1.474   3.001 -0.6442  2.2908 -2.3434
  763SOL    HW2 2289   2.038   1.474   3.036  1.4165 -0.3935 -2.6093
  764SOL     OW 2290   0.692   0.563   0.894 -0.1118 -0.4260  0.2005
  764SOL    HW1 2291   0.652   0.507   0.819  2.6555 -0.3529  0.4374
  764SOL    HW2 2292   0.793   0.539   0.909 -0.1808  0.9981 -1.9461
  765SOL     OW 2293   0.668   0.239   0.819 -0.5149  0.2431 -0.4641
  765SOL    HW1 2294   0.750   0.240   0.755 -1.7440 -0.7883 -0.1255
  765SOL    HW2 2295   0.682   0.252   0.923 -0.2675  0.8870 -0.8198
  766SOL     OW 2296   2.966   2.099   0.001 -0.1668  0.2763  0.4072
  766SOL    HW1 2297   2.883   2.126   0.054 -2.2008  1.6362 -3.1079
  766SOL    HW2 2298   3.027   2.185  -0.019 -2.0149  0.4733 -1.4767
  767SOL     OW 2299   2.891   1.564   0.541 -0.9712 -0.4395 -0.1355
  767SOL    HW1 2300   2.791   1.553   0.576  1.6308 -3.0960  2.9957
  767SOL    HW2 2301   2.942   1.629   0.602  0.0554 -0.5311  0.6569
  768SOL     OW 2302   1.078   0.235   0.329  0.5726  0.1661 -0.1890
  768SOL    HW1 2303   0.998   0.166   0.340 -2.3315 -1.5829  0.1803
  768SOL    HW2 2304   1.164   0.186   0.304  0.3156 -0.0558  0.8697
  769SOL     OW 2305   1.157   1.837   2.227  0.9295  0.2204 -0.2227
  769SOL    HW1 2306   1.096   1.861   2.305 -0.9257 -1.5762 -0.4778
  769SOL    HW2 2307   1.153   1.727   2.222 -0.4021 -2.9927  2.1076
  770SOL     OW 2308   0.137   1.277   2.343  0.2833 -0.5500  0.9734
  770SOL    HW1 2309   0.126   1.263   2.445  1.1160 -2.7215 -0.1606
  770SOL    HW2 2310   0.057   1.236   2.295 -0.4025 -1.2676 -0.3340
  771SOL     OW 2311   2.960   2.814   1.879 -0.4095 -0.5186  0.3611
  771SOL    HW1 2312   2.924   2.881   1.806  2.9994  0.8032 -2.7159
  771SOL    HW2 2313   2.965   2.860   1.971  0.0365  0.1093 -4.7085
  772SOL     OW 2314   2.167   0.117   2.956 -0.4483 -0.1081  0.2214
  772SOL    HW1 2315   2.245   0.067   2.908  0.4270 -0.9212 -3.9081
  772SOL    HW2 2316   2.192   0.203   3.014 -2.9208  1.3788 -2.5026
  773SOL     OW 2317   0.703   2.063   2.499  0.0052 -0.0350 -0.6898
  773SOL    HW1 2318   0.689   2.112   2.407 -1.0294 -1.0368 -0.5373
  773SOL    HW2 2319   0.630   2.091   2.565 -0.3071  0.3315 -0.1847
  774SOL     OW 2320   2.045   0.034   2.654  0.0468 -0.3751 -0.1992
  774SOL    HW1 2321   2.048   0.137   2.680 -1.1418  1.8439  3.7780
  774SOL    HW2 2322   2.069  -0.033   2.728 -1.5914  2.2932 -0.2934
  775SOL     OW 2323   2.540   2.850   2.452 -0.2442 -0.1089 -0.6965
  775SOL    HW1 2324   2.518   2.943   2.411 -0.1082 -1.3387  0.5565
  775SOL    HW2 2325   2.636   2.828   2.473 -1.8649  1.9651  1.9901
  776SOL     OW 2326   0.020   1.267   0.256 -0.6765  0.6599 -0.3419
  776SOL    HW1 2327  -0.029   1.258   0.163  1.3924 -0.5149 -0.7128
  776SOL    HW2 2328  -0.045   1.284   0.332  0.2925  0.2235  3.2106
  777SOL     OW 2329   0.226   2.720   0.492 -0.1763 -0.1112 -0.1764
  777SOL    HW1 2330   0.126   2.703   0.483  2.0833 -2.1553  1.5896
  777SOL    HW2 2331   0.247   2.821   0.501 -1.9543 -0.0229 -0.0144
  778SOL     OW 2332   1.337   1.987   0.188  0.0478 -0.4548 -0.1602
  778SOL    HW1 2333   1.273   1.986   0.273 -1.2367  2.5797 -0.3217
  778SOL    HW2 2334   1.321   2.069   0.126  2.8798 -1.2635 -0.2490
  779SOL     OW 2335   0.176   0.779   0.514  0.4031 -0.3807  0.1135
  779SOL    HW1 2336   0.149   0.683   0.486  1.3835 -0.2093 -0.0607
  779SOL    HW2 2337   0.102   0.831   0.565 -1.0816  0.2566  2.0320
  780SOL     OW 2338   0.021   0.274   2.328 -0.2365  0.2386  0.2747
  780SOL    HW1 2339  -0.011   0.372   2.345 -2.6218  1.2727 -0.2048
  780SOL    HW2 2340   0.118   0.266   2.285  0.8588 -0.5078  0.5357
  781SOL     OW 2341   0.603   1.736   1.561 -0.3458  0.3576 -0.2163
  781SOL    HW1 2342   0.640   1.757   1.654  1.2017  1.6567 -2.3190
  781SOL    HW2 2343   0.511   1.693   1.557 -2.3058 -1.7074  0.7955
  782SOL     OW 2344   2.581   0.149   0.925  0.5732  0.0073  0.3468
  782SOL    HW1 2345   2.513   0.175   0.850 -0.0491 -0.2039  1.2079
  782SOL    HW2 2346   2.567   0.209   1.004 -0.1499 -0.8027 -1.1592
  783SOL     OW 2347   2.820   0.654   2.503  0.2959  0.1640 -0.1540
  783SOL    HW1 2348   2.803   0.667   2.604  3.8996  0.0105  3.1502
  783SOL    HW2 2349   2.747   0.601   2.453 -2.4011  0.2893 -0.2972
  784SOL     OW 2350   1.327   2.217   0.049 -0.3962 -0.3241 -0.0892
  784SOL    HW1 2351   1.404   2.257   0.098 -2.2486 -2.4382 -1.5161
  784SOL    HW2 2352   1.312   2.249  -0.049 -2.4278  1.0693  0.2394
  785SOL     OW 2353   2.181   0.358   3.077  0.7444 -0.6276  0.0497
  785SOL    HW1 2354   2.099   0.361   3.149 -2.1480  0.7763  0.6263
  785SOL    HW2 2355   2.212   0.455   3.052 -1.0257  1.5418  2.1129
  786SOL     OW 2356   2.047   2.144   2.215 -0.6408  0.2888  0.0104
  786SOL    HW1 2357   1.998   2.058   2.193 -1.8573 -1.2689  1.4476
  786SOL    HW2 2358   2.135   2.138   2.269 -0.4969  1.8053  0.6418
  787SOL     OW 2359   1.403   0.586   0.864 -0.2443  0.0426 -0.3271
  787SOL    HW1 2360   1.350   0.675   0.866 -0.0089 -1.1158 -0.7424
  787SOL    HW2 2361   1.431   0.561   0.765  1.2938  2.1370 -1.1466
  788SOL     OW 2362   1.218   0.392   3.019  0.2472 -0.2971  0.3133
  788SOL    HW1 2363   1.123   0.423   2.988  2.5068 -0.8128 -1.8802
  788SOL    HW2 2364   1.293   0.456   3.007  0.4607 -0.0863 -2.4090
  789SOL     OW 2365   2.580   0.109   1.806  0.6427 -0.0578  0.3771
  789SOL    HW1 2366   2.480   0.151   1.822 -1.6909  1.1262  1.9642
  789SOL    HW2 2367   2.582   0.014   1.765  1.7235 -1.5229 -0.8527
  790SOL     OW 2368   2.577   2.653   0.849  0.2440  0.4174  0.7513
  790SOL    HW1 2369   2.634   2.658   0.759  2.2324  0.0324 -2.9442
  790SOL    HW2 2370   2.619   2.704   0.925  2.9374 -2.6758  3.6231
  791SOL     OW 2371   1.972   1.256   0.223  0.3888 -0.2268 -0.0437
  791SOL    HW1 2372   1.891   1.192   0.224 -0.1410 -2.7792 -0.2005
  791SOL    HW2 2373   2.057   1.201   0.239  1.5403  3.6879  0.9904
  792SOL     OW 2374   0.418   1.985   2.171 -0.2840 -0.3948 -0.3714
  792SOL    HW1 2375   0.470   2.074   2.189  1.0041 -0.4372  0.0278
  792SOL    HW2 2376   0.343   1.963   2.241  2.7231 -0.1879  1.9061
  793SOL     OW 2377   2.123   1.557   2.119 -0.4569 -0.2479  0.3593
  793SOL    HW1 2378   2.191   1.638   2.084  1.7984  0.9347 -0.3821
  793SOL    HW2 2379   2.124   1.477   2.051  2.0980 -1.1997  2.4670
  794SOL     OW 2380   0.431   1.381   2.474 -0.4629 -0.1040 -0.3375
  794SOL    HW1 2381   0.449   1.330   2.381  0.6478 -1.6824 -1.7717
  794SOL    HW2 2382   0.377   1.471   2.460  0.5103  3.0351 -1.0717
  795SOL     OW 2383   2.513   2.328   1.802 -0.0945 -0.3280  0.1415
  795SOL    HW1 2384   2.547   2.300   1.891  1.5974 -0.5685 -2.1006
  795SOL    HW2 2385   2.417   2.290   1.784  2.2413 -0.3362  1.0551
  796SOL     OW 2386   3.077   1.045   2.705  0.3158 -0.0398 -0.2511
  796SOL    HW1 2387   2.972   1.068   2.710 -1.9343 -1.2938  0.0527
  796SOL    HW2 2388   3.111   1.083   2.796 -1.2382  0.1214  2.0474
  797SOL     OW 2389   0.770   0.671   1.333 -0.0041 -0.3005 -0.1370
  797SOL    HW1 2390   0.824   0.732   1.398  0.3574  1.4976 -2.1227
  797SOL    HW2 2391   0.706   0.713   1.262 -0.5892 -1.8758 -2.1988
  798SOL     OW 2392   1.251   0.440   1.041 -0.6490  0.5592 -0.9060
  798SOL    HW1 2393   1.289   0.447   1.141  0.8459 -1.8587  0.4788
  798SOL    HW2 2394   1.316   0.491   0.977 -1.7544  1.5959  2.5310
  799SOL     OW 2395   1.875   2.751   1.023 -0.7513 -0.0580 -0.0686
  799SOL    HW1 2396   1.837   2.683   1.091 -1.6711  2.9475 -2.0517
  799SOL    HW2 2397   1.881   2.718   0.928 -2.9493  0.2633  2.7047
  800SOL     OW 2398   2.975   0.809   1.869  0.5436 -0.2542 -0.0490
  800SOL    HW1 2399   2.967   0.913   1.870 -1.4241 -0.3741  2.1524
  800SOL    HW2 2400   3.026   0.770   1.952 -1.1152 -1.8711 -0.8027
  801SOL     OW 2401   1.976   2.126   0.089 -0.1014  0.2365  1.2884
  801SOL    HW1 2402   1.913   2.063   0.033 -3.9049  0.4737  0.8748
  801SOL    HW2 2403   2.076   2.121   0.061 -2.2261 -1.8839 -2.1501
  802SOL     OW 2404   0.691   0.707   2.538  0.0290 -0.1040  0.2546
  802SOL    HW1 2405   0.758   0.709   2.457 -2.1013 -0.0940 -1.0612
  802SOL    HW2 2406   0.588   0.711   2.509 -0.8636 -0.7338  0.0144
  803SOL     OW 2407   0.937   0.073   0.859 -0.3096 -0.1272 -0.6276
  803SOL    HW1 2408   1.005   0.132   0.909 -0.0938 -3.0892 -2.4631
  803SOL    HW2 2409   0.887   0.126   0.787 -0.8891 -0.2224  0.1272
  804SOL     OW 2410   0.277  -0.001   2.169 -0.4521  0.5872 -0.0803
  804SOL    HW1 2411   0.276   0.104   2.168 -0.1493  0.8099  0.0079
  804SOL    HW2 2412   0.232  -0.052   2.088 -1.0411  0.2148 -0.2607
  805SOL     OW 2413   2.345   0.395   0.307  0.4162 -0.3654  0.4489
  805SOL    HW1 2414   2.407   0.394   0.394  0.1670  1.7951  1.2383
  805SOL    HW2 2415   2.365   0.321   0.237  0.9924  1.3567  2.5994
  806SOL     OW 2416   0.624   2.480   1.830 -0.0364  0.4545  0.4603
  806SOL    HW1 2417   0.618   2.584   1.853  1.8451  0.2303  0.6934
  806SOL    HW2 2418   0.688   2.457   1.751 -0.1493 -0.1173 -1.0188
  807SOL     OW 2419   2.503   0.934   0.439  0.6610  0.1006 -0.2082
  807SOL    HW1 2420   2.588   0.878   0.447 -0.0385  0.0718  1.1145
  807SOL    HW2 2421   2.462   0.949   0.342  3.8071 -0.5673  1.2996
  808SOL     OW 2422   0.604   2.010   2.880 -0.4346  0.2708 -0.0580
  808SOL    HW1 2423   0.561   2.057   2.964 -1.1709 -0.1547  0.4904
  808SOL    HW2 2424   0.619   1.908   2.900  0.1854  1.4092  1.0394
  809SOL     OW 2425   2.541   2.001   1.886  0.2726 -0.1952 -0.4278
  809SOL    HW1 2426   2.635   2.034   1.886 -2.1360 -1.7339 -2.9248
  809SOL    HW2 2427   2.495   2.013   1.792 -0.5917  2.8819  1.8016
  810SOL     OW 2428   2.135   1.096   0.529 -0.2056 -0.0900  0.0763
  810SOL    HW1 2429   2.140   1.030   0.609  0.3142  2.4687 -0.1864
  810SOL    HW2 2430   2.114   1.192   0.555  2.3442 -2.5271  0.3555
  811SOL     OW 2431   1.343   2.565   1.204 -0.6524 -0.2176 -0.0091
  811SOL    HW1 2432   1.350   2.464   1.217 -0.5447  0.7988 -1.3367
  811SOL    HW2 2433   1.295   2.600   1.288  0.1323  0.6632 -0.7987
  812SOL     OW 2434   1.386   0.772   1.931 -0.8521 -0.3234 -0.4529
  812SOL    HW1 2435   1.318   0.755   1.859  1.8549  3.4022 -0.0681
  812SOL    HW2 2436   1.406   0.870   1.933 -0.1236 -0.8306 -1.4780
  813SOL     OW 2437   1.588   2.053   2.420  0.1517 -0.3164  0.0206
  813SOL    HW1 2438   1.665   1.993   2.453  0.1573 -0.3536 -3.4845
  813SOL    HW2 2439   1.574   2.045   2.317 -2.6348 -0.7252 -1.1713
  814SOL     OW 2440   2.956   1.655   2.896 -0.1306  1.1865 -0.1257
  814SOL    HW1 2441   3.039   1.607   2.945 -1.7025  1.6150  1.2295
  814SOL    HW2 2442   2.958   1.760   2.910 -0.2126  3.6383  0.0018
  815SOL     OW 2443   2.184   2.900   2.752 -0.1115  0.1017 -0.2292
  815SOL    HW1 2444   2.152   2.819   2.815 -1.5408  0.0466  0.3811
  815SOL    HW2 2445   2.281   2.936   2.774 -0.1331 -2.0609 -0.1979
  816SOL     OW 2446   1.557   0.365   1.674 -0.5109  0.3799 -0.6199
  816SOL    HW1 2447   1.598   0.273   1.691  0.3734  3.1898  1.7794
  816SOL    HW2 2448   1.487   0.396   1.746 -0.4998 -0.0828 -1.2982
  817SOL     OW 2449   0.399   1.178   2.654  0.5212 -0.2166  0.0517
  817SOL    HW1 2450   0.303   1.184   2.687  0.2175 -2.1761  0.3284
  817SOL    HW2 2451   0.425   1.265   2.602  2.1723 -0.5204 -2.7477
  818SOL     OW 2452   1.971   0.817   0.443 -0.1748  0.1924  0.1471
  818SOL    HW1 2453   2.074   0.831   0.453 -0.1310  0.7744  1.2659
  818SOL    HW2 2454   1.926   0.844   0.533 -0.2967 -2.1355 -1.4414
  819SOL     OW 2455   2.726   2.991   3.087  0.2637 -0.2627  0.3818
  819SOL    HW1 2456   2.756   2.897   3.126 -0.2894 -0.3641 -0.2010
  819SOL    HW2 2457   2.693   2.972   2.990  0.9074  1.2875  0.7928
  820SOL     OW 2458   1.248   1.046   0.522  0.3329  0.0195 -0.1635
  820SOL    HW1 2459   1.276   1.141   0.562  0.2398  3.4984  1.3146
  820SOL    HW2 2460   1.222   0.973   0.595 -1.2283  0.6851  0.6914
  821SOL     OW 2461   0.044   1.231   0.724 -0.1652 -0.7728  0.2486
  821SOL    HW1 2462  -0.022   1.236   0.801  2.3045 -0.7004 -1.8601
  821SOL    HW2 2463   0.104   1.317   0.704  3.3601 -0.9910  1.5273
  822SOL     OW 2464   2.516   1.790   2.454  0.0171  0.0054 -0.3065
  822SOL    HW1 2465   2.507   1.850   2.540 -0.7261 -2.1521  0.0036
  822SOL    HW2 2466   2.445   1.814   2.381  0.9437  0.6830  0.2165
  823SOL     OW 2467   1.988   0.920   1.171 -0.0717  0.3415  0.5628
  823SOL    HW1 2468   1.962   0.854   1.253  1.1049  0.5826  0.6931
  823SOL    HW2 2469   1.903   0.955   1.127  1.1736  1.6577  0.6288
  824SOL     OW 2470   0.222   1.975   2.778  0.1799 -0.6150  0.1068
  824SOL    HW1 2471   0.237   1.906   2.854  0.5409  0.8602  1.5183
  824SOL    HW2 2472   0.279   1.939   2.697 -0.7021 -0.3604 -2.6083
  825SOL     OW 2473   1.330   1.072   0.260  0.0241  0.4944 -0.2845
  825SOL    HW1 2474   1.327   1.168   0.229 -0.2464  0.2672  0.3471
  825SOL    HW2 2475   1.319   1.071   0.367  0.7427  1.8756  2.0267
  826SOL     OW 2476   1.927   0.617   1.570 -0.1485 -0.2695 -0.3209
  826SOL    HW1 2477   2.015   0.584   1.615 -1.7787 -0.4338  1.2362
  826SOL    HW2 2478   1.864   0.537   1.543  0.6227  1.0154  2.4250
  827SOL     OW 2479   0.697   1.190   0.338  0.3920 -0.8593  0.8573
  827SOL    HW1 2480   0.740   1.136   0.263 -0.5546 -1.4075  1.3711
  827SOL    HW2 2481   0.610   1.150   0.376 -1.0357  0.2081  1.8963
  828SOL     OW 2482   2.670   0.122   1.517  0.1410  0.0406  0.4384
  828SOL    HW1 2483   2.573   0.090   1.504 -1.0105  1.4882 -0.7063
  828SOL    HW2 2484   2.682   0.166   1.610  0.6680  0.5351 -1.8627
  829SOL     OW 2485   2.964   2.409   2.858 -0.4124 -0.4649  0.8024
  829SOL    HW1 2486   2.869   2.380   2.880 -0.4891 -0.0675 -1.2810
  829SOL    HW2 2487   2.983   2.511   2.872  1.3444  0.3601 -2.9589
  830SOL     OW 2488   2.885   0.930   3.041  0.1771 -0.5012  0.1249
  830SOL    HW1 2489   2.939   1.019   3.032  2.6541  0.9311 -0.8890
  830SOL    HW2 2490   2.932   0.859   3.099  2.0285 -0.2532  1.0329
  831SOL     OW 2491   0.012   0.551   0.409  0.0644  0.3790 -0.2217
  831SOL    HW1 2492  -0.031   0.500   0.488  0.8788 -0.1792 -0.8693
  831SOL    HW2 2493   0.042   0.480   0.336  0.3875 -0.1209 -1.4483
  832SOL     OW 2494   1.835   0.778   3.076 -0.5852 -0.2257  0.6760
  832SOL    HW1 2495   1.753   0.834   3.036  0.2009  3.1899 -0.4732
  832SOL    HW2 2496   1.832   0.674   3.062  0.8568  1.6195 -2.9126
  833SOL     OW 2497   2.414   2.049   0.448 -0.3843  0.2200  0.4584
  833SOL    HW1 2498   2.312   2.013   0.449 -3.0833  0.1653 -0.9790
  833SOL    HW2 2499   2.481   1.972   0.449  0.6212  1.8380 -0.5756
  834SOL     OW 2500   0.196   0.133   0.552  0.5540  0.3128  0.6796
  834SOL    HW1 2501   0.225   0.032   0.575 -1.7049 -1.3253  0.2540
  834SOL    HW2 2502   0.169   0.147   0.452  0.2932  1.1201 -1.3132
  835SOL     OW 2503   2.481   1.530   1.163  0.2649  0.3557  0.0396
  835SOL    HW1 2504   2.557   1.555   1.225 -1.4131 -2.3497 -2.0173
  835SOL    HW2 2505   2.507   1.494   1.065 -0.1660 -2.1885  0.3107
  836SOL     OW 2506   1.626   0.828   2.593 -0.2848  0.0798  0.2336
  836SOL    HW1 2507   1.526   0.793   2.591  0.0414  0.8983  0.1494
  836SOL    HW2 2508   1.656   0.852   2.496 -1.3078  1.2381  0.3831
  837SOL     OW 2509   1.673   0.075   0.608  0.7833  0.3533  0.0175
  837SOL    HW1 2510   1.617   0.150   0.653 -1.0757 -0.3372 -0.0123
  837SOL    HW2 2511   1.645   0.062   0.505  0.9229  0.8740 -0.2626
  838SOL     OW 2512   1.240   1.365   2.697  0.7430  0.3133 -0.0598
  838SOL    HW1 2513   1.247   1.422   2.784  0.2683  0.8643 -0.5662
  838SOL    HW2 2514   1.138   1.351   2.669 -0.2106  1.8183 -0.4153
  839SOL     OW 2515   1.587   0.353   0.968 -0.7608 -0.6480 -0.4107
  839SOL    HW1 2516   1.611   0.415   1.050  0.6584 -2.7227  3.4579
  839SOL    HW2 2517   1.579   0.251   0.993 -1.9461  0.0100  0.8090
  840SOL     OW 2518   2.610   2.935   1.736 -0.6442  0.2995 -0.0457
  840SOL    HW1 2519   2.563   2.867   1.673 -2.1251  0.9878  1.7668
  840SOL    HW2 2520   2.628   2.891   1.828  2.3936 -1.5511 -2.4925
  841SOL     OW 2521   1.542   0.852   2.956 -0.2391 -0.1345 -0.7330
  841SOL    HW1 2522   1.485   0.903   3.029  2.3084 -1.8382  3.7316
  841SOL    HW2 2523   1.541   0.902   2.866  0.5995  3.5843  0.0684
  842SOL     OW 2524   0.800   1.558   0.992  0.0626  0.1112 -0.2136
  842SOL    HW1 2525   0.768   1.646   1.040 -1.5940  1.8719  2.0180
  842SOL    HW2 2526   0.727   1.516   0.934  2.1719 -0.7973 -1.2460
  843SOL     OW 2527   0.123   0.112   1.427  0.2875 -0.6119 -0.1879
  843SOL    HW1 2528   0.206   0.124   1.483  0.9825 -0.6856 -2.5790
  843SOL    HW2 2529   0.127   0.027   1.368 -0.7309  0.4734  2.4718
  844SOL     OW 2530   0.775   2.497   0.248  0.0088  0.5206 -0.0333
  844SOL    HW1 2531   0.759   2.495   0.348  1.7505  3.0873  0.2057
  844SOL    HW2 2532   0.690   2.496   0.190 -0.5871 -2.7512  0.1286
  845SOL     OW 2533   1.690   2.953   1.328 -0.3122  0.3523 -0.7002
  845SOL    HW1 2534   1.686   3.002   1.421  0.0210  2.7989 -0.3915
  845SOL    HW2 2535   1.628   2.987   1.254  1.1154 -2.1455 -1.7576
  846SOL     OW 2536   1.719   2.955   0.907 -0.0099 -0.1965 -0.2356
  846SOL    HW1 2537   1.733   2.958   0.802  2.4299 -0.3961 -0.1622
  846SOL    HW2 2538   1.784   2.892   0.956 -1.5193 -0.0223  2.4632
  847SOL     OW 2539   2.087   1.617   0.210 -0.4797 -0.0601 -0.2358
  847SOL    HW1 2540   2.019   1.609   0.288 -0.7145  1.2887  1.1710
  847SOL    HW2 2541   2.036   1.603   0.120  0.6076  0.6827  2.0287
  848SOL     OW 2542   2.465   0.822   2.662 -0.2039  0.9307 -0.5131
  848SOL    HW1 2543   2.454   0.926   2.670 -1.2038 -0.5834  0.2400
  848SOL    HW2 2544   2.415   0.788   2.584  1.6516  0.1614  1.7085
  849SOL     OW 2545   2.422   0.849   2.319 -0.1800  0.4217 -0.2264
  849SOL    HW1 2546   2.456   0.799   2.236 -2.6885  1.4314  1.9765
  849SOL    HW2 2547   2.361   0.794   2.386 -0.4724  0.1592  1.0458
  850SOL     OW 2548   1.598   0.141   1.275  0.5789  0.5263 -0.2284
  850SOL    HW1 2549   1.586   0.151   1.170  1.4063  0.5362 -2.1137
  850SOL    HW2 2550   1.523   0.076   1.310  0.8697  2.0964  2.4167
  851SOL     OW 2551   0.467   1.765   0.687 -0.0176  0.3048  0.0462
  851SOL    HW1 2552   0.477   1.864   0.710  0.7227 -0.5499 -0.5887
  851SOL    HW2 2553   0.557   1.721   0.667  1.7100  2.1967 -0.1965
  852SOL     OW 2554   0.789   2.119   1.664 -0.7554  0.2653  0.2728
  852SOL    HW1 2555   0.812   2.220   1.640 -1.6884 -0.5201  2.1018
  852SOL    HW2 2556   0.720   2.118   1.736  0.5856  1.3663  0.6960
  853SOL     OW 2557   2.538   1.557   2.580 -0.3826  0.2012 -0.1954
  853SOL    HW1 2558   2.525   1.455   2.559  1.7729 -0.1790 -1.0021
  853SOL    HW2 2559   2.502   1.624   2.511 -1.2220 -2.6569  2.5223
  854SOL     OW 2560   2.407   1.404   1.772 -0.6478 -0.3974 -0.2051
  854SOL    HW1 2561   2.476   1.369   1.700 -1.1965 -2.3226 -0.0579
  854SOL    HW2 2562   2.363   1.327   1.828 -1.9318  0.5356 -1.4536
  855SOL     OW 2563   2.033   2.327   0.963  0.3324 -0.5939  0.1521
  855SOL    HW1 2564   2.084   2.409   0.921 -2.5390  1.1828  1.0378
  855SOL    HW2 2565   2.081   2.285   1.043 -3.4962  1.2120 -1.4140
  856SOL     OW 2566   1.411   1.360   0.907  0.6196 -0.7014 -0.8251
  856SOL    HW1 2567   1.428   1.462   0.910  0.5063  2.6095 -0.7804
  856SOL    HW2 2568   1.336   1.329   0.977 -1.3212  1.2139  0.9668
  857SOL     OW 2569   2.993   2.592   1.069  0.2785 -1.4239 -0.1506
  857SOL    HW1 2570   2.904   2.537   1.062  0.6433 -2.2608 -1.7846
  857SOL    HW2 2571   3.080   2.537   1.051 -2.0597 -1.9825  3.1743
  858SOL     OW 2572   2.296   2.170   1.725 -0.5326  0.1929  1.1764
  858SOL    HW1 2573   2.191   2.175   1.711 -3.7916  2.5233  3.5972
  858SOL    HW2 2574   2.348   2.108   1.660  0.1043  0.9676  0.8678
  859SOL     OW 2575   2.456   0.501   1.033  0.3886 -0.1636 -0.3604
  859SOL    HW1 2576   2.502   0.545   0.942 -0.0255  2.8597  0.6708
  859SOL    HW2 2577   2.503   0.415   1.065 -0.7395 -0.4267 -1.6059
  860SOL     OW 2578   1.964   2.767   0.470 -0.0753 -0.3889 -0.2061
  860SOL    HW1 2579   1.911   2.737   0.387  2.6891 -1.2152  2.9095
  860SOL    HW2 2580   2.049   2.828   0.454  1.5610 -0.9884  0.2563
  861SOL     OW 2581   1.102   2.604   2.766  0.1555 -0.0157  0.2395
  861SOL    HW1 2582   1.104   2.707   2.748  0.4804 -1.9208  2.9158
  861SOL    HW2 2583   1.180   2.572   2.829 -1.1414  0.3456 -0.1387
  862SOL     OW 2584   2.928   2.540   1.563  0.1212  0.3083 -0.5011
  862SOL    HW1 2585   2.999   2.579   1.626 -4.0496  1.6636  1.1177
  862SOL    HW2 2586   2.866   2.605   1.526 -0.2022 -2.0676 -0.3214
  863SOL     OW 2587   1.873   2.619   0.218  0.3703 -0.1254  0.4870
  863SOL    HW1 2588   1.950   2.551   0.188  1.9836  0.3433  1.1437
  863SOL    HW2 2589   1.780   2.582   0.242  2.4291  0.6251 -0.6011
  864SOL     OW 2590   1.862   1.192   2.946 -0.5731  0.1818  0.2362
  864SOL    HW1 2591   1.896   1.179   2.850  2.5803  1.4097  0.7184
  864SOL    HW2 2592   1.936   1.158   3.016  1.2356 -1.3180 -0.1915
  865SOL     OW 2593   2.183   1.774   0.680 -0.0808 -0.2967 -0.6502
  865SOL    HW1 2594   2.234   1.793   0.771 -1.9143 -1.0055  4.5378
  865SOL    HW2 2595   2.087   1.734   0.695 -2.8171 -1.0335 -1.9676
  866SOL     OW 2596   2.945   2.878   1.021 -0.7190 -0.1622 -0.1082
  866SOL    HW1 2597   3.009   2.899   0.946 -0.9333  0.7821  0.1020
  866SOL    HW2 2598   2.940   2.772   1.040  0.7093 -2.3875 -0.4771
  867SOL     OW 2599   0.420   1.334   0.869 -0.0254 -0.0760  0.1342
  867SOL    HW1 2600   0.445   1.235   0.855 -0.3958  1.0537 -2.0243
  867SOL    HW2 2601   0.328   1.365   0.828 -2.2648  1.0867  0.9657
  868SOL     OW 2602   0.824   1.920   2.020  0.0142 -0.1870 -0.3841
  868SOL    HW1 2603   0.813   1.878   2.115  0.3803 -1.8078  1.8523
  868SOL    HW2 2604   0.786   2.021   2.012 -0.6774  0.1974 -0.5322
  869SOL     OW 2605   2.486   2.001   1.589  0.3760  0.1270  0.1942
  869SOL    HW1 2606   2.580   2.044   1.576 -0.4103 -1.4433  1.0369
  869SOL    HW2 2607   2.479   1.902   1.559  0.9930  0.3824  1.3604
  870SOL     OW 2608   2.282   2.573   1.236  0.5253 -0.8361 -0.0257
  870SOL    HW1 2609   2.238   2.488   1.203  2.0018 -0.3287  0.0943
  870SOL    HW2 2610   2.387   2.570   1.245  2.9820 -0.0198 -0.6127
  871SOL     OW 2611   2.988   2.074   0.567 -0.0628 -0.1692  0.4662
  871SOL    HW1 2612   2.929   2.136   0.625  1.9128  1.9723 -4.2550
  871SOL    HW2 2613   2.943   2.025   0.486 -0.2040  0.0629 -1.8218
  872SOL     OW 2614   2.146   0.503   1.701 -0.2253  0.2234  0.0502
  872SOL    HW1 2615   2.097   0.482   1.789  2.2032  0.7794  2.0631
  872SOL    HW2 2616   2.249   0.487   1.711  1.7014  0.1892 -1.3785
  873SOL     OW 2617   1.735   2.100   2.963 -0.0404  0.4994 -0.4492
  873SOL    HW1 2618   1.737   2.201   2.984  0.1704 -1.0424  0.2514
  873SOL    HW2 2619   1.666   2.072   2.890 -0.4687  2.5462  0.5259
  874SOL     OW 2620   0.669   2.478   0.766  0.3238  0.4141  0.2855
  874SOL    HW1 2621   0.666   2.576   0.787 -1.2929 -0.2309  2.0741
  874SOL    HW2 2622   0.768   2.438   0.764  2.1063  0.5182  0.2470
  875SOL     OW 2623   2.272   1.560   1.481  0.1910 -0.1647  0.1033
  875SOL    HW1 2624   2.350   1.618   1.525  1.1050 -0.3501  1.7455
  875SOL    HW2 2625   2.277   1.575   1.379 -0.1670 -0.7907  2.2857
  876SOL     OW 2626   0.150   2.219   2.689 -0.1840 -0.5598 -0.2842
  876SOL    HW1 2627   0.197   2.130   2.727 -0.5233  0.2356  2.1700
  876SOL    HW2 2628   0.160   2.296   2.754  0.6784 -1.5057 -0.8163
  877SOL     OW 2629   2.768   2.675   0.658  0.9983  0.3050 -0.3567
  877SOL    HW1 2630   2.818   2.767   0.669 -1.1854 -1.2379  0.6481
  877SOL    HW2 2631   2.828   2.592   0.678 -0.9343 -1.9291 -0.0597
  878SOL     OW 2632   2.883   1.443   2.211  0.0652 -0.1044 -1.1497
  878SOL    HW1 2633   2.983   1.437   2.233  0.3578  3.1892  1.3292
  878SOL    HW2 2634   2.831   1.476   2.291  0.1527  2.2180 -1.3007
  879SOL     OW 2635   2.386   0.022   1.185 -0.0884  0.0162  0.1850
  879SOL    HW1 2636   2.436  -0.067   1.207 -0.7966 -0.2154 -1.8421
  879SOL    HW2 2637   2.316   0.005   1.111  0.2709 -2.0829  2.0386
  880SOL     OW 2638   0.719   0.457   2.187 -0.0526  0.2045 -0.4272
  880SOL    HW1 2639   0.645   0.394   2.204  1.1818  2.5759 -1.1427
  880SOL    HW2 2640   0.791   0.413   2.129 -1.4147  1.8228 -1.8607
  881SOL     OW 2641   0.909   0.043   0.413  0.3162 -0.2831 -0.1604
  881SOL    HW1 2642   0.930  -0.038   0.468  1.3161 -1.1273  0.6473
  881SOL    HW2 2643   0.883   0.022   0.313  0.2611  1.9554  0.8164
  882SOL     OW 2644   2.728   1.619   1.667  0.3179  0.2071  0.2306
  882SOL    HW1 2645   2.818   1.572   1.658 -1.0885 -0.1590  1.4653
  882SOL    HW2 2646   2.714   1.674   1.758  1.2824  1.2894  0.5040
  883SOL     OW 2647   0.970   0.580   0.969  0.3124 -0.5444 -0.2498
  883SOL    HW1 2648   0.960   0.678   1.001  1.0711  2.6265  0.7794
  883SOL    HW2 2649   1.063   0.546   0.995 -1.4016 -0.2071  2.2979
  884SOL     OW 2650   1.176   1.871   1.039  0.0543  1.3142 -0.0449
  884SOL    HW1 2651   1.150   1.834   0.945  1.0356  0.9513 -0.9845
  884SOL    HW2 2652   1.134   1.959   1.070  2.0681 -0.1235 -0.5733
  885SOL     OW 2653   2.278   1.857   2.309 -0.5591  0.0273 -0.0363
  885SOL    HW1 2654   2.216   1.806   2.380 -1.7360 -2.2301  0.5761
  885SOL    HW2 2655   2.279   1.959   2.315  1.2786  2.1336  2.9019
  886SOL     OW 2656   2.669   0.463   1.786  0.1280 -0.2222  0.4056
  886SOL    HW1 2657   2.719   0.408   1.854  0.7500  0.8438 -2.4508
  886SOL    HW2 2658   2.728   0.535   1.737  0.3111 -0.1535  0.8137
  887SOL     OW 2659   0.095   2.055   1.251 -0.3851  0.2206  0.4508
  887SOL    HW1 2660   0.016   2.014   1.196 -0.4539  0.1403  1.8969
  887SOL    HW2 2661   0.155   2.121   1.199  0.3459  1.1743 -2.7182
  888SOL     OW 2662   0.546   1.300   1.553  0.2190 -0.6361 -0.4350
  888SOL    HW1 2663   0.587   1.286   1.462 -3.5658 -0.0164 -1.4110
  888SOL    HW2 2664   0.482   1.220   1.574  1.6504  0.7755 -1.4597
  889SOL     OW 2665   0.850   2.479   2.129  0.3131  0.2317 -0.4425
  889SOL    HW1 2666   0.768   2.417   2.100 -2.3553  0.8031 -0.6053
  889SOL    HW2 2667   0.922   2.502   2.055  2.8551  0.9320 -2.7879
  890SOL     OW 2668   2.364   2.475   0.189  0.4505 -0.1304 -0.1057
  890SOL    HW1 2669   2.357   2.536   0.106 -0.1840  0.5171 -0.5957
  890SOL    HW2 2670   2.295   2.503   0.262 -2.0618  0.3037 -0.4630
  891SOL     OW 2671   2.640   1.522   0.633  0.8012  0.0179 -0.5314
  891SOL    HW1 2672   2.676   1.454   0.696 -0.3681 -0.6440  1.0270
  891SOL    HW2 2673   2.538   1.540   0.632 -1.0830  0.5088 -1.2793
  892SOL     OW 2674   0.258   0.280   2.230 -0.3271  0.1900  0.2607
  892SOL    HW1 2675   0.280   0.299   2.129 -0.1678  1.8333  1.7151
  892SOL    HW2 2676   0.346   0.290   2.288  0.7715  1.5955  2.1799
  893SOL     OW 2677   1.687   0.218   2.763  0.0838  0.1615 -0.2374
  893SOL    HW1 2678   1.759   0.285   2.797  1.6706  0.2710  1.3131
  893SOL    HW2 2679   1.594   0.262   2.748 -1.4868  0.1278  1.0685
  894SOL     OW 2680   2.221   2.023   0.050  0.5172  0.2080 -0.0454
  894SOL    HW1 2681   2.211   1.962  -0.037 -2.5068 -0.4717  1.0856
  894SOL    HW2 2682   2.236   1.959   0.131  1.0752 -1.9817  1.0556
  895SOL     OW 2683   2.897   1.431   0.852  0.5894  0.1776 -0.4526
  895SOL    HW1 2684   2.898   1.430   0.958 -0.5875  1.2986  0.7266
  895SOL    HW2 2685   2.972   1.483   0.809 -0.3375  2.0164 -0.6711
  896SOL     OW 2686   1.721   1.774   1.158 -0.5253 -0.1499  0.0059
  896SOL    HW1 2687   1.796   1.816   1.103  0.1695 -0.7495  0.7112
  896SOL    HW2 2688   1.633   1.831   1.161  1.2587  1.9690 -1.2017
  897SOL     OW 2689   0.270   0.550   3.058 -0.1558 -0.1729  0.2335
  897SOL    HW1 2690   0.197   0.603   3.014  1.8569 -0.5916  0.5741
  897SOL    HW2 2691   0.359   0.595   3.063 -2.7680  0.3628  0.1033
  898SOL     OW 2692   0.571   2.834   1.125  0.2695  0.1783 -0.1977
  898SOL    HW1 2693   0.503   2.914   1.136 -2.1129  0.4792  1.1475
  898SOL    HW2 2694   0.670   2.864   1.147  0.9699 -0.1357  1.1802
  899SOL     OW 2695   2.710   0.963   1.247 -0.4233 -0.1463  0.3697
  899SOL    HW1 2696   2.622   0.955   1.192  2.6594 -0.4956 -1.8439
  899SOL    HW2 2697   2.794   0.960   1.184 -1.5455  1.7463 -2.0832
  900SOL     OW 2698   1.001   2.543   2.346  0.1500 -0.3047 -0.1911
  900SOL    HW1 2699   0.962   2.518   2.254 -1.1727  1.3446 -1.3820
  900SOL    HW2 2700   0.942   2.517   2.422  3.1912 -1.1686 -3.4070
  901SOL     OW 2701   1.930   2.428   1.360 -0.5375  0.7945  0.3399
  901SOL    HW1 2702   1.913   2.445   1.263 -1.8389  1.1917  1.2688
  901SOL    HW2 2703   2.026   2.404   1.375  0.4153  1.3634  1.9520
  902SOL     OW 2704   2.581   1.635   1.438  0.0947 -0.8436 -0.1623
  902SOL    HW1 2705   2.617   1.643   1.538 -1.2115  1.5192  0.9255
  902SOL    HW2 2706   2.655   1.596   1.382  0.4315  3.3148  1.0209
  903SOL     OW 2707   0.247   2.440   2.025  0.0867 -0.1597  0.2422
  903SOL    HW1 2708   0.190   2.359   1.987  1.4885 -0.3940 -2.5568
  903SOL    HW2 2709   0.264   2.509   1.952 -1.7561 -1.4573 -0.4279
  904SOL     OW 2710   1.988   0.762   2.448  0.1243  0.5140  0.8469
  904SOL    HW1 2711   1.903   0.720   2.492  1.4507  1.9110 -0.6884
  904SOL    HW2 2712   1.986   0.769   2.344 -0.1048  0.3194 -0.1266
  905SOL     OW 2713   2.777   0.044   2.591 -0.6040 -0.5397  0.0468
  905SOL    HW1 2714   2.858  -0.021   2.596  0.9877 -1.2463 -0.7615
  905SOL    HW2 2715   2.807   0.136   2.548 -1.7427  1.4446  0.2490
  906SOL     OW 2716   0.203   1.791   1.876  0.3896  0.3654  0.4505
  906SOL    HW1 2717   0.149   1.816   1.790  0.5608 -0.8985 -0.5325
  906SOL    HW2 2718   0.285   1.850   1.896  1.5324 -0.0629 -0.5286
  907SOL     OW 2719   0.166   2.506   1.019 -0.3905  0.1922  0.4730
  907SOL    HW1 2720   0.230   2.577   1.058  0.3810  0.8646 -4.3138
  907SOL    HW2 2721   0.169   2.511   0.916  0.1688  0.9111  0.7779
  908SOL     OW 2722   2.689   2.965   0.452 -0.0446 -0.0578  0.2458
  908SOL    HW1 2723   2.697   3.036   0.377  1.3269 -0.9013 -1.4029
  908SOL    HW2 2724   2.712   2.867   0.421 -1.6291 -1.8015 -4.3795
  909SOL     OW 2725   0.827   0.909   2.676  0.2827 -0.0225  0.2488
  909SOL    HW1 2726   0.791   0.820   2.639 -1.7461  1.2271 -0.3031
  909SOL    HW2 2727   0.888   0.965   2.612  0.3653 -0.0607  0.6671
  910SOL     OW 2728   1.761   1.811   2.082  0.1031 -0.6628 -0.0445
  910SOL    HW1 2729   1.816   1.855   2.003 -0.5532 -0.0486 -1.7877
  910SOL    HW2 2730   1.676   1.868   2.109  0.6500  0.2402  1.9903
  911SOL     OW 2731   1.783   2.989   1.611 -0.3242  0.3810  0.6078
  911SOL    HW1 2732   1.860   2.948   1.557 -2.0096  1.7971 -1.8919
  911SOL    HW2 2733   1.766   2.949   1.704 -0.7799  2.0430 -0.5872
  912SOL     OW 2734   2.863   0.948   0.759 -0.1598  0.3861  0.2953
  912SOL    HW1 2735   2.869   0.933   0.861  0.5462 -2.4983  0.5953
  912SOL    HW2 2736   2.836   1.046   0.737  0.6548 -0.1737  1.4542
  913SOL     OW 2737   2.543   1.290   1.573 -0.4861  0.4677 -0.0612
  913SOL    HW1 2738   2.587   1.194   1.579 -2.1530 -0.5982  0.0017
  913SOL    HW2 2739   2.552   1.329   1.481  1.4760 -1.0213 -0.5192
  914SOL     OW 2740   2.806   0.525   1.225  0.0113 -0.1128 -0.1007
  914SOL    HW1 2741   2.754   0.435   1.219 -1.1849  1.7536 -2.6140
  914SOL    HW2 2742   2.777   0.594   1.295  3.2474  1.3039  0.4791
  915SOL     OW 2743   1.219   0.810   1.008  0.1728 -0.6393  0.3028
  915SOL    HW1 2744   1.278   0.785   1.088  2.4040  1.9176 -1.0894
  915SOL    HW2 2745   1.122   0.845   1.034  1.4803 -0.6394  2.0866
  916SOL     OW 2746   0.567   0.035   0.666 -0.2911  0.2319  0.2508
  916SOL    HW1 2747   0.590   0.111   0.732 -4.4215  1.6934 -1.6648
  916SOL    HW2 2748   0.605   0.051   0.571 -3.6927 -0.6260 -1.6814
  917SOL     OW 2749   2.800   2.623   1.971 -0.3000  0.2045 -0.3101
  917SOL    HW1 2750   2.712   2.674   1.946 -1.9118  2.7676 -2.2980
  917SOL    HW2 2751   2.880   2.684   1.955 -1.0456  0.2067 -0.1989
  918SOL     OW 2752   0.988   2.199   3.023 -0.4387 -0.7815 -0.8503
  918SOL    HW1 2753   0.936   2.223   3.111  1.3825  0.8106 -1.3612
  918SOL    HW2 2754   1.037   2.108   3.023  0.9712  0.8935  0.4722
  919SOL     OW 2755   0.922   1.583   2.788  0.2279 -0.0582 -0.5970
  919SOL    HW1 2756   0.959   1.637   2.710  1.5828 -0.8793 -1.0179
  919SOL    HW2 2757   0.853   1.513   2.760 -0.0476  0.6297 -1.2560
  920SOL     OW 2758   1.250   2.020   2.488 -0.1861  0.2845 -0.1458
  920SOL    HW1 2759   1.226   2.034   2.388 -0.8929 -0.1092  3.1293
  920SOL    HW2 2760   1.263   1.920   2.510 -0.6040  1.5687 -2.2516
  921SOL     OW 2761   1.118   0.036   2.568 -0.0639 -0.4721 -0.0637
  921SOL    HW1 2762   1.118   0.068   2.472  2.2454 -0.2594  1.2109
  921SOL    HW2 2763   1.025  -0.001   2.600  1.1072  1.1257  0.9949
  922SOL     OW 2764   2.166   2.385   2.804  0.5319 -0.0833 -0.1508
  922SOL    HW1 2765   2.163   2.283   2.797  3.1253  0.4574 -2.0080
  922SOL    HW2 2766   2.105   2.427   2.732  1.1906 -1.5077 -2.4884
  923SOL     OW 2767   1.226   2.709   0.253 -0.4517 -0.1952  0.4826
  923SOL    HW1 2768   1.309   2.756   0.299  1.5866 -1.3049 -1.4601
  923SOL    HW2 2769   1.250   2.616   0.217 -0.3798  0.5937  1.2561
  924SOL     OW 2770   2.918   1.563   0.086  0.6971 -0.2829  0.2214
  924SOL    HW1 2771   2.835   1.545   0.032  0.5017  0.8929 -0.4151
  924SOL    HW2 2772   3.001   1.575   0.025 -1.7089  4.3524 -0.3176
  925SOL     OW 2773   0.008   2.898   1.589  0.3285 -0.6390  0.0222
  925SOL    HW1 2774  -0.089   2.910   1.624  0.0641 -0.2315  0.9579
  925SOL    HW2 2775   0.014   2.898   1.483 -0.5075  1.6917 -0.3876
  926SOL     OW 2776   1.349   2.884   1.309 -0.1481  0.3679 -0.1196
  926SOL    HW1 2777   1.406   2.871   1.221  2.7699  1.3877  0.2785
  926SOL    HW2 2778   1.378   2.959   1.372 -1.4221 -1.4902  1.1912
  927SOL     OW 2779   0.269   2.624   1.808 -0.1314 -0.9533  0.1634
  927SOL    HW1 2780   0.270   2.563   1.724  3.1791  0.2979  0.8672
  927SOL    HW2 2781   0.237   2.722   1.782 -0.0884  1.3317  1.2053
  928SOL     OW 2782   1.564   2.020   2.129 -0.0249  0.3766 -0.1000
  928SOL    HW1 2783   1.604   2.115   2.108  0.6436  1.6155  0.8740
  928SOL    HW2 2784   1.464   2.014   2.095 -4.8757 -2.0692  1.5011
  929SOL     OW 2785   2.416   2.484   2.851  0.3359  0.3269  0.1373
  929SOL    HW1 2786   2.321   2.455   2.845  0.3081 -1.6231 -2.2789
  929SOL    HW2 2787   2.453   2.478   2.753  1.3820 -1.2076 -0.0868
  930SOL     OW 2788   2.180   2.014   1.073  0.0427 -0.2429 -0.1319
  930SOL    HW1 2789   2.178   1.962   1.162  3.3491  2.1967  0.9313
  930SOL    HW2 2790   2.243   2.097   1.076  0.1759 -0.0433  2.1927
  931SOL     OW 2791   0.543   1.699   2.651  0.3994 -0.5236 -0.1214
  931SOL    HW1 2792   0.595   1.708   2.742 -1.4595 -0.9494 -1.0483
  931SOL    HW2 2793   0.554   1.606   2.607 -1.1571  2.6288 -2.6344
  932SOL     OW 2794   0.448   0.055   2.903 -0.5577  0.1432 -0.3847
  932SOL    HW1 2795   0.549   0.086   2.889  2.8830  0.6017  1.4114
  932SOL    HW2 2796   0.450  -0.038   2.947 -0.2162  1.5466  0.4233
  933SOL     OW 2797   1.058   0.774   2.985 -0.1863  0.5851 -0.2139
  933SOL    HW1 2798   1.134   0.769   3.054 -1.2741 -2.4751  0.7503
  933SOL    HW2 2799   1.032   0.870   2.951  1.3031  1.4682  0.9530
  934SOL     OW 2800   0.878   3.041   2.721  0.5441 -0.1766  0.4454
  934SOL    HW1 2801   0.875   2.957   2.658  0.5626 -0.5542 -1.6362
  934SOL    HW2 2802   0.917   3.026   2.814 -0.3740  1.8555  1.4615
  935SOL     OW 2803   3.076   0.514   0.787  0.0690  0.2108  0.4955
  935SOL    HW1 2804   3.096   0.418   0.740 -0.9274  0.8072 -1.1154
  935SOL    HW2 2805   2.984   0.551   0.765 -0.7825 -1.4758  0.9154
  936SOL     OW 2806   1.098   2.907   0.150  0.1655 -0.2083 -0.2811
  936SOL    HW1 2807   1.156   2.926   0.069 -1.4448  0.7847  2.8872
  936SOL    HW2 2808   1.141   2.826   0.202  1.1324 -0.0942  0.0972
  937SOL     OW 2809   1.894   2.621   2.103 -0.1011  0.1181 -0.3528
  937SOL    HW1 2810   1.820   2.632   2.178 -1.1702 -2.3468  4.4499
  937SOL    HW2 2811   1.867   2.658   2.011  1.0964  0.6371 -0.2844
  938SOL     OW 2812   2.732   2.112   1.548  0.0197  0.5475 -0.8693
  938SOL    HW1 2813   2.730   2.215   1.563  1.5937  1.6506 -4.8780
  938SOL    HW2 2814   2.819   2.068   1.572  1.4258  1.4073 -0.1632
  939SOL     OW 2815   2.813   1.226   2.459 -0.4992 -1.3695 -0.2608
  939SOL    HW1 2816   2.896   1.214   2.399 -0.8697 -1.1320  0.6145
  939SOL    HW2 2817   2.841   1.227   2.558  0.1374 -0.6924 -1.6848
  940SOL     OW 2818   1.008   0.441   2.656  0.6757 -0.8605 -0.0412
  940SOL    HW1 2819   1.068   0.358   2.671  2.8828  3.2050  0.5198
  940SOL    HW2 2820   0.909   0.420   2.650  2.2007  3.6711 -0.5367
  941SOL     OW 2821   0.036   2.840   2.224 -0.6079 -0.5760  0.4347
  941SOL    HW1 2822   0.053   2.740   2.218  2.6014 -0.3019 -2.2061
  941SOL    HW2 2823   0.072   2.886   2.307 -1.2258 -3.0238 -3.7431
  942SOL     OW 2824   0.033   0.105   2.551 -0.5299 -1.1167 -0.1931
  942SOL    HW1 2825   0.115   0.119   2.615  1.3137 -0.3088  0.2814
  942SOL    HW2 2826   0.040   0.155   2.460  0.2463 -0.0698  0.5316
  943SOL     OW 2827   2.111   1.687   2.441  0.2030 -0.7348  0.1526
  943SOL    HW1 2828   2.125   1.629   2.356 -0.8102 -0.1304 -0.7513
  943SOL    HW2 2829   2.097   1.640   2.529 -0.1060  4.5406  2.7178
  944SOL     OW 2830   2.169   2.328   1.460  0.0060 -0.0229  0.3573
  944SOL    HW1 2831   2.247   2.387   1.494 -0.0128  1.7064 -2.4755
  944SOL    HW2 2832   2.109   2.289   1.538  1.5429  0.1595 -1.0214
  945SOL     OW 2833   0.625   1.480   0.359  0.4471 -0.2085  0.0309
  945SOL    HW1 2834   0.689   1.540   0.300 -0.4788 -2.4126 -1.4871
  945SOL    HW2 2835   0.636   1.379   0.332  1.8400  1.7552  0.5727
  946SOL     OW 2836   0.437   0.931   2.526 -0.2941  0.5732  0.6599
  946SOL    HW1 2837   0.348   0.891   2.488  0.8905 -2.6570 -0.3081
  946SOL    HW2 2838   0.416   1.028   2.564  1.7500  0.1703  0.7677
  947SOL     OW 2839   1.533   0.576   0.027 -0.6689 -0.0197  0.6224
  947SOL    HW1 2840   1.492   0.566  -0.071 -2.4083  0.0937  0.0579
  947SOL    HW2 2841   1.467   0.616   0.091  1.5605 -1.0852 -0.6364
  948SOL     OW 2842   2.044   3.083   2.201 -0.5149 -0.0464  0.4834
  948SOL    HW1 2843   2.031   3.053   2.099 -0.2222 -1.6021 -0.9081
  948SOL    HW2 2844   2.001   3.018   2.269 -0.9596 -0.4314 -1.4924
  949SOL     OW 2845   0.687   2.544   0.494 -0.2656 -0.1359  0.0023
  949SOL    HW1 2846   0.661   2.641   0.465  0.7537 -0.3796 -2.5170
  949SOL    HW2 2847   0.665   2.508   0.590 -1.8200  1.3695 -0.0750
  950SOL     OW 2848   0.266   2.169   3.068  0.4211  0.3619  0.2769
  950SOL    HW1 2849   0.187   2.237   3.066 -0.2182  1.6229  2.6110
  950SOL    HW2 2850   0.276   2.114   2.981  2.1231 -1.0419  1.0191
  951SOL     OW 2851   1.174   2.861   2.719 -0.4160  0.1540  0.0865
  951SOL    HW1 2852   1.148   2.932   2.643  2.1976  1.6659 -0.5135
  951SOL    HW2 2853   1.273   2.866   2.749  0.7343 -0.9145  1.6200
  952SOL     OW 2854   0.090   1.631   0.441 -0.1894 -0.1606  0.1749
  952SOL    HW1 2855   0.140   1.721   0.438 -2.2744 -3.4940 -0.1257
  952SOL    HW2 2856   0.049   1.598   0.529  0.7198 -1.0307  0.8194
  953SOL     OW 2857   2.528   1.787   0.199  0.5913 -0.1035  0.9713
  953SOL    HW1 2858   2.522   1.683   0.211  0.6541  3.5893 -0.9779
  953SOL    HW2 2859   2.544   1.812   0.099  2.4918  1.3208  0.1497
  954SOL     OW 2860   2.192   0.538   0.981 -0.4174  0.3691 -0.2632
  954SOL    HW1 2861   2.157   0.533   0.882  1.7126 -0.4798  1.0266
  954SOL    HW2 2862   2.291   0.502   0.996  0.2605  0.3382  2.6087
  955SOL     OW 2863   0.238   2.694   1.363 -0.8328  0.1892  0.1813
  955SOL    HW1 2864   0.145   2.662   1.393 -1.4990  1.3687  1.6886
  955SOL    HW2 2865   0.248   2.704   1.258 -1.0998 -0.7408  0.5025
  956SOL     OW 2866   2.764   2.468   2.451  0.2050  0.5149 -0.1294
  956SOL    HW1 2867   2.786   2.366   2.427  2.4483 -2.7899 -1.9552
  956SOL    HW2 2868   2.809   2.533   2.388  1.3131  2.6527  3.9541
  957SOL     OW 2869   1.567   1.998   2.737  0.3816 -0.0457 -0.3641
  957SOL    HW1 2870   1.521   1.911   2.750  2.0299 -0.4043  0.4735
  957SOL    HW2 2871   1.570   2.029   2.640  1.9253 -0.1970  1.5947
  958SOL     OW 2872   2.722   2.329   2.962 -0.1710  0.2282  0.0676
  958SOL    HW1 2873   2.630   2.358   2.935 -0.4047 -3.4182  2.5710
  958SOL    HW2 2874   2.720   2.265   3.042 -1.6028  1.6271 -0.0921
  959SOL     OW 2875   0.256   2.740   0.127  0.4667  0.1512 -0.1501
  959SOL    HW1 2876   0.159   2.768   0.109  0.9411 -1.0707 -1.2757
  959SOL    HW2 2877   0.253   2.662   0.196 -0.1462 -1.8303  0.9833
  960SOL     OW 2878   1.981   0.445   1.948  0.0510  0.1325  0.0805
  960SOL    HW1 2879   1.930   0.532   1.915  0.4634 -0.7231  1.5528
  960SOL    HW2 2880   1.975   0.430   2.050 -0.8024  0.9994  1.7781
  961SOL     OW 2881   2.572   1.838   1.027  0.0508  0.3804  0.0189
  961SOL    HW1 2882   2.522   1.909   0.967 -1.1253  0.1319  0.5415
  961SOL    HW2 2883   2.539   1.850   1.125  1.0735 -0.5735 -0.6490
  962SOL     OW 2884   1.288   0.897   0.048  0.5787  0.2442  0.0110
  962SOL    HW1 2885   1.261   0.965  -0.021 -0.5513 -3.2544 -0.5742
  962SOL    HW2 2886   1.305   0.941   0.142 -1.0600  0.0543 -0.4389
  963SOL     OW 2887   2.213   2.550   1.856  0.0526 -0.0599 -0.0006
  963SOL    HW1 2888   2.220   2.466   1.918 -0.2365 -0.8201 -0.7831
  963SOL    HW2 2889   2.229   2.642   1.902  4.3266  1.6835  3.1936
  964SOL     OW 2890   2.418   0.419   1.690 -0.0442 -0.5175  0.3511
  964SOL    HW1 2891   2.510   0.450   1.731  1.7561 -2.0115 -1.3338
  964SOL    HW2 2892   2.416   0.405   1.584  1.4398  0.5484 -2.0813
  965SOL     OW 2893   2.603   3.079   0.192 -0.3342  0.1614 -0.5272
  965SOL    HW1 2894   2.661   3.056   0.109  2.1786 -0.0805  0.4819
  965SOL    HW2 2895   2.503   3.059   0.176  2.4180  1.9742  3.7700
  966SOL     OW 2896   2.467   2.472   2.301  0.0194  0.4677 -0.3390
  966SOL    HW1 2897   2.388   2.453   2.361  1.0121 -1.0652  1.1132
  966SOL    HW2 2898   2.447   2.549   2.236 -0.6136  0.4740  1.4163
  967SOL     OW 2899   2.824   2.787   2.467  0.1621  0.4288  0.6305
  967SOL    HW1 2900   2.860   2.727   2.387 -0.3106 -1.4324 -1.2842
  967SOL    HW2 2901   2.895   2.840   2.518 -1.5380  0.0005  1.3156
  968SOL     OW 2902   1.915   1.068   2.662  0.0263 -0.4896  0.0479
  968SOL    HW1 2903   1.906   1.141   2.582  3.1832 -0.4003 -0.5688
  968SOL    HW2 2904   1.862   0.981   2.641  0.3680  3.1357 -1.3263
  969SOL     OW 2905   2.735   2.450   1.083  0.3705 -0.1996  0.2058
  969SOL    HW1 2906   2.656   2.431   1.017  0.5143 -0.3503 -1.8246
  969SOL    HW2 2907   2.800   2.370   1.104  3.0585  1.7491 -0.9976
  970SOL     OW 2908   1.053   2.129   1.775  0.0825 -0.0567 -0.3418
  970SOL    HW1 2909   0.971   2.139   1.713  1.3678 -1.1910  0.2350
  970SOL    HW2 2910   1.039   2.169   1.872 -0.5220  0.0856 -0.4924
  971SOL     OW 2911   2.808   2.111   1.884 -0.1750 -0.1635 -0.1846
  971SOL    HW1 2912   2.835   2.209   1.911 -1.6986 -0.8305  1.1311
  971SOL    HW2 2913   2.858   2.076   1.799 -1.5028 -0.7425  0.2715
  972SOL     OW 2914   2.043   2.371   0.211  0.4704  0.6506  0.2691
  972SOL    HW1 2915   2.005   2.290   0.162 -1.1761  1.5306 -0.7685
  972SOL    HW2 2916   2.044   2.352   0.312  0.1427 -0.2019  1.4624
  973SOL     OW 2917   1.327   1.070   1.948 -0.2370  0.2284 -0.0617
  973SOL    HW1 2918   1.270   1.061   1.864 -0.5684 -0.4697  0.0800
  973SOL    HW2 2919   1.310   1.154   2.004 -2.1576 -0.8598 -0.7675
  974SOL     OW 2920   1.596   0.604   1.960  0.1060  0.3537 -0.8299
  974SOL    HW1 2921   1.690   0.627   1.926  1.7120  1.4852 -1.2820
  974SOL    HW2 2922   1.528   0.673   1.921 -1.3358  0.3738 -0.9755
  975SOL     OW 2923   2.370   3.032   0.044  0.3659  0.4073 -0.3740
  975SOL    HW1 2924   2.305   2.957   0.073 -0.0504 -1.4156  0.7336
  975SOL    HW2 2925   2.419   3.009  -0.043  0.6360 -0.6734  3.0226
  976SOL     OW 2926   1.935   2.890   2.358 -0.0081 -0.2334 -0.3632
  976SOL    HW1 2927   1.848   2.848   2.321  2.9968  0.7250 -1.4061
  976SOL    HW2 2928   1.976   2.842   2.445  0.3002 -0.1374  2.5215
  977SOL     OW 2929   0.444   0.627   0.993 -0.1487 -0.3588  0.1914
  977SOL    HW1 2930   0.377   0.610   0.912  0.1804  0.5076  0.4759
  977SOL    HW2 2931   0.535   0.594   0.964 -0.4553 -3.0070  1.0587
   3.10000   3.10000   3.10000
