1000 SPC/Fw water molecules t=   1.57000 step= 1570
 2931
    1SOL     OW    1   2.457   0.367   2.646 -0.1018 -0.0988 -0.0159
    1SOL    HW1    2   2.432   0.274   2.615  2.2300  2.9215  0.7562
    1SOL    HW2    3   2.505   0.372   2.737  1.4562  4.4198  0.8726
    2SOL     OW    4   2.724   2.983   1.387  0.2562 -0.1723 -0.1964
    2SOL    HW1    5   2.827   2.979   1.357  3.4659  2.7277 -0.4777
    2SOL    HW2    6   2.703   3.068   1.447 -1.2008 -0.4692 -2.6503
    3SOL     OW    7   2.675   2.533   0.370  0.3305 -0.6993 -0.3735
    3SOL    HW1    8   2.599   2.465   0.390 -1.2726  0.1154  0.0725
    3SOL    HW2    9   2.714   2.577   0.455 -0.0859 -0.6877 -0.8343
    4SOL     OW   10   1.267   1.551   2.429  0.3269  0.3967  0.4192
    4SOL    HW1   11   1.198   1.539   2.352  0.6368  1.8031 -0.1070
    4SOL    HW2   12   1.244   1.492   2.514  1.1682 -0.1042  2.4248
    5SOL     OW   13   1.167   1.517   2.993 -0.7401  0.1264  0.5619
    5SOL    HW1   14   1.227   1.595   3.025 -2.8017  1.5873  0.6124
    5SOL    HW2   15   1.083   1.558   2.951  1.1792  0.2745  0.6644
    6SOL     OW   16   0.276   1.812   3.017 -0.4086  0.4384  0.7531
    6SOL    HW1   17   0.184   1.802   3.070  4.3453 -0.4736  1.3365
    6SOL    HW2   18   0.346   1.749   3.054 -0.8250  3.9682  1.5798
    7SOL     OW   19   2.474   0.909   0.995  0.5212  0.5811 -0.0932
    7SOL    HW1   20   2.379   0.885   1.033 -0.0456 -1.1186 -1.5903
    7SOL    HW2   21   2.489   0.888   0.893  0.8615 -0.3343 -1.3562
    8SOL     OW   22   0.368   0.666   1.561 -0.4097 -0.1188  0.0688
    8SOL    HW1   23   0.432   0.586   1.536  1.8906  1.0143  2.1748
    8SOL    HW2   24   0.358   0.730   1.482  0.3147 -0.3481  0.1857
    9SOL     OW   25   1.163   0.865   2.319 -0.1947 -0.1366 -0.0327
    9SOL    HW1   26   1.239   0.882   2.256 -1.1668 -0.4176 -0.0255
    9SOL    HW2   27   1.132   0.769   2.315  0.4158  3.2882 -1.1129
   10SOL     OW   28   0.740   1.419   1.245  0.0552 -0.0260 -0.0024
   10SOL    HW1   29   0.655   1.417   1.187 -2.1140 -2.1976 -3.6083
   10SOL    HW2   30   0.781   1.515   1.250 -3.1550 -0.1161  0.7093
   11SOL     OW   31   2.344   2.850   0.871  0.9042  0.6487  1.1864
   11SOL    HW1   32   2.291   2.812   0.953  1.2853  1.1269 -2.1984
   11SOL    HW2   33   2.437   2.887   0.900  3.1840 -1.1120  2.6334
   12SOL     OW   34   1.511   0.911   0.396 -0.5465  0.5390  0.6373
   12SOL    HW1   35   1.421   0.934   0.355  0.0518  0.2615  1.5862
   12SOL    HW2   36   1.566   0.837   0.352 -3.2445  0.3876 -1.0543
   13SOL     OW   37   2.448   0.731   1.793 -0.1247 -0.6468  0.1509
   13SOL    HW1   38   2.370   0.683   1.838  0.7325  2.3684 -1.4408
   13SOL    HW2   39   2.456   0.698   1.697  0.7286  2.4176 -0.3161
   14SOL     OW   40   1.953   3.087   0.594 -0.0013  0.0665 -0.0952
   14SOL    HW1   41   1.858   3.141   0.593 -1.6574  2.7006  1.7630
   14SOL    HW2   42   1.981   3.065   0.691 -3.0112  0.5014 -0.7656
   15SOL     OW   43   1.884   2.074   2.646  0.2563  0.2717 -0.0485
   15SOL    HW1   44   1.827   2.051   2.732  0.6795  0.1161  1.6717
   15SOL    HW2   45   1.858   2.015   2.564 -0.2738 -1.3766 -0.1433
   16SOL     OW   46   1.621   1.740   3.025  0.4932 -0.2907 -0.0789
   16SOL    HW1   47   1.600   1.644   3.062  0.3116  0.6427 -0.4780
   16SOL    HW2   48   1.699   1.786   3.079  1.9145 -0.7176  2.4239
   17SOL     OW   49   0.132   0.438   0.167  0.1764  0.5158 -0.6839
   17SOL    HW1   50   0.213   0.485   0.123 -1.3761 -0.7751 -1.3685
   17SOL    HW2   51   0.047   0.429   0.105  1.5458  0.0484  1.1694
   18SOL     OW   52   0.882   2.937   2.148  0.2613  0.1290  0.0561
   18SOL    HW1   53   0.855   2.849   2.192  1.7841 -2.2259 -0.2108
   18SOL    HW2   54   0.929   2.913   2.059 -1.9433  1.1949 -0.2181
   19SOL     OW   55   0.600   0.861   1.921  0.4862  0.3607  0.5221
   19SOL    HW1   56   0.661   0.842   2.003  1.4544  0.5342 -0.5622
   19SOL    HW2   57   0.629   0.947   1.871  0.2537  1.4917 -0.9489
   20SOL     OW   58   0.200   2.850   0.855 -0.2775 -0.3514  0.0826
   20SOL    HW1   59   0.099   2.858   0.865  2.6873  2.3948 -2.1986
   20SOL    HW2   60   0.227   2.764   0.800  2.1591 -0.9244 -2.2146
   21SOL     OW   61   2.713   0.318   2.016 -0.5635  0.1107  0.6992
   21SOL    HW1   62   2.692   0.253   1.937 -0.0025 -1.0161 -1.1907
   21SOL    HW2   63   2.811   0.316   2.051 -1.1150 -0.1122  0.5409
   22SOL     OW   64   2.347   0.200   0.126 -0.0630  0.2247  0.0110
   22SOL    HW1   65   2.351   0.108   0.091 -1.6926 -0.3201  1.6769
   22SOL    HW2   66   2.295   0.267   0.066 -1.3801  0.6204 -0.8205
   23SOL     OW   67   2.805   0.563   0.660 -0.3242  0.3557  0.2419
   23SOL    HW1   68   2.823   0.475   0.611 -2.6849  1.8146 -1.5225
   23SOL    HW2   69   2.794   0.645   0.597 -0.8927 -1.3745 -1.5306
   24SOL     OW   70   0.259   1.853   0.402  0.8724 -0.5055  0.6016
   24SOL    HW1   71   0.227   1.931   0.342  0.3437  1.0483  0.7076
   24SOL    HW2   72   0.347   1.805   0.367 -1.1845 -0.9360  2.1344
   25SOL     OW   73   2.297   0.601   0.195  0.3296  0.2541 -0.1382
   25SOL    HW1   74   2.275   0.596   0.093  0.1430  1.4276  0.2650
   25SOL    HW2   75   2.343   0.519   0.241  0.3113 -1.0916 -0.7714
   26SOL     OW   76   2.436   2.149   2.112  0.0828 -0.2506 -0.6003
   26SOL    HW1   77   2.522   2.190   2.152 -2.1903  1.5338  0.9250
   26SOL    HW2   78   2.454   2.071   2.046  1.6359 -0.7516  0.8019
   27SOL     OW   79   0.607   2.939   0.177  0.7041  0.2784  0.5942
   27SOL    HW1   80   0.667   3.018   0.137  1.0300  2.0193 -2.5554
   27SOL    HW2   81   0.533   2.903   0.117  2.4490  1.4158 -1.3786
   28SOL     OW   82   1.603   0.152   0.278 -0.1964  0.2366  0.0984
   28SOL    HW1   83   1.641   0.090   0.198 -2.7387 -0.2906 -0.7195
   28SOL    HW2   84   1.650   0.241   0.297 -1.3236  0.0966 -1.0883
   29SOL     OW   85   2.013   0.614   0.286 -0.2266 -0.2255 -0.0713
   29SOL    HW1   86   2.004   0.680   0.366  0.5541 -0.3135  0.7793
   29SOL    HW2   87   2.113   0.594   0.254  0.4467  2.4537 -0.8928
   30SOL     OW   88   0.171   2.092   0.931  0.4930  0.2880  0.3367
   30SOL    HW1   89   0.180   2.022   0.853 -2.2409 -0.9592  0.8186
   30SOL    HW2   90   0.067   2.105   0.949 -0.6244  0.5064  0.6304
   31SOL     OW   91   2.159   0.050   2.362 -0.5339  0.1655  0.1403
   31SOL    HW1   92   2.131   0.027   2.459 -0.5835  2.7992 -1.4595
   31SOL    HW2   93   2.084   0.024   2.295  1.7840 -2.2800  0.2987
   32SOL     OW   94   3.041   3.076   0.303  0.9572 -0.4164  0.1740
   32SOL    HW1   95   2.996   2.986   0.313  1.6894  2.1181  0.8760
   32SOL    HW2   96   3.144   3.065   0.317  0.9752 -2.8600 -2.1939
   33SOL     OW   97   0.900   0.184   0.607  0.3163  0.0520  0.3762
   33SOL    HW1   98   0.887   0.145   0.513 -1.0080  1.1435 -0.1876
   33SOL    HW2   99   0.994   0.236   0.615 -0.2180  1.2795  1.4198
   34SOL     OW  100   0.333   2.699   1.031  0.2737  0.0479 -0.4273
   34SOL    HW1  101   0.271   2.761   0.980  0.7409 -1.1131 -0.3218
   34SOL    HW2  102   0.428   2.737   1.037 -0.3034  2.6191 -2.9873
   35SOL     OW  103   0.045   0.119   1.890 -0.2299 -0.2021  0.1065
   35SOL    HW1  104   0.071   0.022   1.916  0.3331 -1.7958  3.7219
   35SOL    HW2  105  -0.013   0.130   1.804  0.4175  1.4397 -1.4907
   36SOL     OW  106   1.903   1.171   1.516  0.6689 -0.0847 -0.1644
   36SOL    HW1  107   1.994   1.124   1.539 -0.3256 -1.4666  0.2768
   36SOL    HW2  108   1.921   1.243   1.438  1.1155  1.1157 -1.8235
   37SOL     OW  109   1.127   0.217   0.992 -0.2270  0.4005  0.6519
   37SOL    HW1  110   1.142   0.322   0.987 -0.0296 -1.5325 -0.5114
   37SOL    HW2  111   1.188   0.162   0.926  2.3990  1.7171 -0.0615
   38SOL     OW  112   1.150   2.892   2.454  0.2486 -0.0912 -0.2771
   38SOL    HW1  113   1.071   2.875   2.511  1.4154  3.2400 -2.6874
   38SOL    HW2  114   1.174   2.994   2.445 -0.5684 -0.8028  1.5907
   39SOL     OW  115   2.449   1.399   3.050  0.6086 -0.1521 -0.5146
   39SOL    HW1  116   2.517   1.327   3.078 -0.9189  0.4439  0.8147
   39SOL    HW2  117   2.356   1.383   3.102 -1.1236 -2.0248 -3.0530
   40SOL     OW  118   2.015   2.535   2.594 -0.6451  0.1213 -0.7000
   40SOL    HW1  119   1.961   2.627   2.600 -0.1030 -2.2790 -0.3861
   40SOL    HW2  120   1.963   2.452   2.561  1.7657  0.4665  1.1443
   41SOL     OW  121   3.033   0.752   2.811  0.3742  0.4865 -0.0883
   41SOL    HW1  122   2.945   0.798   2.841 -0.3986  2.5743  2.3794
   41SOL    HW2  123   3.009   0.673   2.744 -2.3115  0.8310 -0.7734
   42SOL     OW  124   1.799   1.717   0.560 -0.1365 -0.3745 -0.1297
   42SOL    HW1  125   1.742   1.632   0.556  0.6017  0.6072  1.5854
   42SOL    HW2  126   1.821   1.750   0.463 -0.6359  1.1289 -0.6362
   43SOL     OW  127   0.456   1.681   1.171  0.3573 -0.1287 -0.8278
   43SOL    HW1  128   0.445   1.592   1.119 -2.1630  2.2401  1.6831
   43SOL    HW2  129   0.393   1.689   1.254 -2.6641 -0.6245 -1.2069
   44SOL     OW  130   1.651   2.366   2.971  0.3806 -0.2138 -0.3207
   44SOL    HW1  131   1.557   2.400   2.991  0.0417  1.1569 -0.6595
   44SOL    HW2  132   1.686   2.409   2.887 -0.9412  2.3142  1.4610
   45SOL     OW  133   0.348   1.902   2.561 -0.3200 -0.1343  0.0068
   45SOL    HW1  134   0.302   1.907   2.470  3.6338 -1.2811  0.8624
   45SOL    HW2  135   0.415   1.825   2.566  0.5089 -0.5770  0.9263
   46SOL     OW  136   1.215   0.749   0.282  0.0061  0.4266 -0.2560
   46SOL    HW1  137   1.246   0.809   0.201 -2.2150  0.0997  0.4897
   46SOL    HW2  138   1.143   0.676   0.250 -1.6761  0.3343  0.0004
   47SOL     OW  139   0.158   2.431   1.551 -0.2031 -0.3753  0.7395
   47SOL    HW1  140   0.139   2.337   1.588 -1.5338 -2.2572 -1.2099
   47SOL    HW2  141   0.186   2.433   1.455  0.2649  1.8521 -0.1041
   48SOL     OW  142   2.661   0.662   0.141 -0.0593  0.5315 -0.0047
   48SOL    HW1  143   2.624   0.666   0.237 -1.4647  0.7383  1.6443
   48SOL    HW2  144   2.760   0.652   0.136  0.6728  0.9278 -1.6296
   49SOL     OW  145   0.380   0.839   1.786  0.0556 -0.1698  0.3987
   49SOL    HW1  146   0.461   0.840   1.853 -0.8018  2.7037 -1.3822
   49SOL    HW2  147   0.382   0.761   1.717 -0.4177  0.0477  0.0089
   50SOL     OW  148   1.751   1.141   0.296  0.3261 -0.4484  0.0647
   50SOL    HW1  149   1.771   1.044   0.258  0.0157  0.5638 -1.3174
   50SOL    HW2  150   1.687   1.138   0.378  0.5254 -0.1218 -0.5178
   51SOL     OW  151   3.020   1.775   0.291  0.2697  0.3333  1.0788
   51SOL    HW1  152   2.981   1.691   0.240 -0.6482 -1.1878  2.5936
   51SOL    HW2  153   3.077   1.747   0.373 -3.1492 -0.8471  2.2508
   52SOL     OW  154   0.767   2.148   0.602  0.0093  0.0562 -0.6866
   52SOL    HW1  155   0.664   2.139   0.585 -0.4196  0.8364 -0.4512
   52SOL    HW2  156   0.806   2.076   0.660 -1.0646  1.0260 -0.1705
   53SOL     OW  157   0.240   0.419   1.521  0.7497  0.2004 -0.1465
   53SOL    HW1  158   0.255   0.519   1.538 -1.4562 -1.0568 -2.7448
   53SOL    HW2  159   0.176   0.404   1.438 -0.8086 -0.7351  0.5133
   54SOL     OW  160   1.728   0.463   0.000  0.2258 -0.2935  0.3920
   54SOL    HW1  161   1.790   0.423   0.069  1.2467 -0.0360  0.1273
   54SOL    HW2  162   1.631   0.472   0.035 -0.8721  1.1158 -1.4256
   55SOL     OW  163   0.720   2.892   0.618 -0.2275 -0.1071 -0.8770
   55SOL    HW1  164   0.655   2.974   0.619 -0.9766 -0.4628  1.4778
   55SOL    HW2  165   0.820   2.909   0.638 -0.6303 -3.3609 -1.2074
   56SOL     OW  166   0.578   1.568   3.046 -0.0669 -0.5537 -0.3370
   56SOL    HW1  167   0.514   1.567   3.126 -1.5016  0.2673 -0.9911
   56SOL    HW2  168   0.560   1.484   2.991 -0.2125  1.0037 -0.3934
   57SOL     OW  169   1.726   2.490   2.354 -0.1364 -0.2522 -0.4611
   57SOL    HW1  170   1.793   2.411   2.367 -0.4614  0.6155 -0.7773
   57SOL    HW2  171   1.673   2.513   2.442 -3.3800 -0.0122 -0.1487
   58SOL     OW  172   0.672   0.243   1.105  0.1465  0.4318 -0.3381
   58SOL    HW1  173   0.583   0.242   1.158  2.8672 -2.5197  0.0287
   58SOL    HW2  174   0.725   0.154   1.116  0.2660  0.2349 -1.3913
   59SOL     OW  175   0.466   2.406   2.718  0.1209  0.5584 -0.0687
   59SOL    HW1  176   0.490   2.306   2.738  1.0136 -2.8885 -1.1545
   59SOL    HW2  177   0.555   2.463   2.695 -1.4276 -0.5507 -1.5105
   60SOL     OW  178   2.321   2.064   2.367 -0.3971 -0.9140 -0.0724
   60SOL    HW1  179   2.363   2.090   2.277 -0.5689 -0.6779  0.0740
   60SOL    HW2  180   2.367   2.115   2.445  0.1532  0.9572 -0.0635
   61SOL     OW  181   1.195   0.628   0.529 -0.0276 -0.1891 -0.5129
   61SOL    HW1  182   1.100   0.660   0.550 -0.2881  1.3481 -1.4404
   61SOL    HW2  183   1.231   0.673   0.449 -1.7729  1.4693  3.8896
   62SOL     OW  184   2.747   1.716   2.725 -0.1472  0.1472 -0.3877
   62SOL    HW1  185   2.719   1.615   2.716  2.3912  0.3593  0.8666
   62SOL    HW2  186   2.844   1.726   2.769  2.7953  1.0583 -1.5047
   63SOL     OW  187   0.491   0.929   0.200 -0.0959 -0.1098 -0.4389
   63SOL    HW1  188   0.533   0.979   0.116  2.5997  2.0850  1.6886
   63SOL    HW2  189   0.496   0.985   0.288 -0.0049 -1.5977  0.6370
   64SOL     OW  190   3.011   0.578   2.299 -0.1587 -0.1965  0.2925
   64SOL    HW1  191   2.947   0.615   2.368  0.2288 -3.3717 -0.5022
   64SOL    HW2  192   3.015   0.622   2.210 -0.2302 -1.2614  1.1131
   65SOL     OW  193   0.241   1.439   0.733 -0.4776 -0.1926  0.2857
   65SOL    HW1  194   0.252   1.524   0.793  2.1138  1.8574  0.3265
   65SOL    HW2  195   0.283   1.464   0.638 -0.0067 -0.4303  1.4149
   66SOL     OW  196   2.586   0.330   0.548  0.5931 -0.1232  0.2169
   66SOL    HW1  197   2.681   0.296   0.537 -1.8999  0.0517  0.3868
   66SOL    HW2  198   2.537   0.288   0.635 -0.4262 -1.0629  0.6859
   67SOL     OW  199   0.627   2.512   1.454 -0.2888  0.4287 -0.0626
   67SOL    HW1  200   0.706   2.474   1.510  2.1862 -0.9775 -0.6270
   67SOL    HW2  201   0.548   2.445   1.450  1.1007  1.9399 -0.5745
   68SOL     OW  202   0.929   1.010   2.446 -0.6454 -0.4311 -0.2579
   68SOL    HW1  203   1.019   0.976   2.398 -1.1714 -2.2527 -1.2262
   68SOL    HW2  204   0.862   1.029   2.368 -2.4225 -2.4585 -1.2558
   69SOL     OW  205   0.802   2.739   2.318 -0.0871 -0.6971  0.6830
   69SOL    HW1  206   0.841   2.672   2.252 -1.4928  1.7301 -1.2985
   69SOL    HW2  207   0.699   2.734   2.320  0.7183  1.2384 -3.2844
   70SOL     OW  208   0.437   0.138   2.504  0.3767 -0.0252  0.7136
   70SOL    HW1  209   0.370   0.128   2.584  0.0278 -1.2239 -3.1220
   70SOL    HW2  210   0.518   0.070   2.499 -1.0135  0.7005 -0.1759
   71SOL     OW  211   1.044   1.764   0.320  0.6227 -0.0921  0.5011
   71SOL    HW1  212   0.994   1.757   0.409 -0.9689  3.0838 -1.7296
   71SOL    HW2  213   0.981   1.799   0.242 -0.5127  3.7943 -0.5069
   72SOL     OW  214   1.848   0.236   2.160  0.2762  0.4094 -0.1493
   72SOL    HW1  215   1.928   0.299   2.171  1.1056 -0.2009  0.5700
   72SOL    HW2  216   1.874   0.141   2.173 -1.3054 -0.5061 -0.7970
   73SOL     OW  217   2.782   2.181   2.487  0.0885 -0.1660  0.5111
   73SOL    HW1  218   2.772   2.096   2.430 -0.5961  0.5854  1.7306
   73SOL    HW2  219   2.819   2.172   2.584  1.1636 -0.1433  0.1140
   74SOL     OW  220   2.708   2.880   2.145 -0.3100  0.0710 -0.0219
   74SOL    HW1  221   2.622   2.862   2.207 -0.4491  2.9027 -2.1416
   74SOL    HW2  222   2.783   2.946   2.179  1.9860 -0.5501  0.1467
   75SOL     OW  223   0.964   0.827   1.123 -0.3058 -0.5646  0.4529
   75SOL    HW1  224   0.876   0.872   1.103  0.7087 -0.6333 -2.2439
   75SOL    HW2  225   0.990   0.843   1.222  1.0197 -0.1365 -0.5908
   76SOL     OW  226   1.867   1.269   2.564 -0.2927  0.1684  0.2006
   76SOL    HW1  227   1.766   1.265   2.576  2.3357  0.3524  1.3908
   76SOL    HW2  228   1.902   1.364   2.576 -1.7050 -1.7380 -0.1511
   77SOL     OW  229   2.890   0.933   1.050  0.4704  0.4154  0.0680
   77SOL    HW1  230   2.833   0.845   1.030 -1.8549 -1.2068 -2.0415
   77SOL    HW2  231   2.964   0.923   1.122  1.5775  1.0123  0.2016
   78SOL     OW  232   2.000   1.335   1.325 -0.2705 -0.2509  0.6761
   78SOL    HW1  233   2.086   1.338   1.271 -0.7660  0.7302  3.3559
   78SOL    HW2  234   1.927   1.402   1.289  2.7802 -0.7140  0.2570
   79SOL     OW  235   0.698   1.418   0.843  0.0513 -0.2579 -0.7501
   79SOL    HW1  236   0.603   1.390   0.856  3.4299 -0.0630  3.6158
   79SOL    HW2  237   0.756   1.340   0.806  1.8489  0.9736  2.6729
   80SOL     OW  238   0.558   0.484   1.537  0.4109 -0.3190 -0.2026
   80SOL    HW1  239   0.603   0.546   1.468 -2.0224 -1.3433  2.2144
   80SOL    HW2  240   0.624   0.406   1.555 -1.0460  1.8420 -0.6267
   81SOL     OW  241   1.041   1.237   2.563  0.8760  0.2553  0.0534
   81SOL    HW1  242   1.016   1.144   2.530 -0.3262  2.6533 -1.4361
   81SOL    HW2  243   0.970   1.306   2.543  1.0238 -0.0098  0.5843
   82SOL     OW  244   0.930   2.879   1.521  0.0460  0.1581 -0.0520
   82SOL    HW1  245   0.937   2.796   1.457 -1.7487  1.9488 -0.4673
   82SOL    HW2  246   0.954   2.964   1.469 -3.2061 -1.6025 -0.0282
   83SOL     OW  247   2.579   2.360   0.888  0.3083 -0.9738  0.1340
   83SOL    HW1  248   2.508   2.315   0.830  2.8496  2.5555  1.3406
   83SOL    HW2  249   2.591   2.458   0.859  1.8178  1.0845 -0.9246
   84SOL     OW  250   0.757   0.014   2.287  0.4417  0.0379 -0.0481
   84SOL    HW1  251   0.715  -0.019   2.379 -0.8327 -0.9561 -0.3900
   84SOL    HW2  252   0.798  -0.062   2.231  1.2870  2.0902 -1.0825
   85SOL     OW  253   0.292   1.698   1.392  0.2516 -0.1816 -0.4341
   85SOL    HW1  254   0.236   1.778   1.430 -0.2094  2.6155 -0.3004
   85SOL    HW2  255   0.332   1.649   1.471 -1.2217  2.0870  0.3284
   86SOL     OW  256   0.392   1.033   1.534  0.3278 -0.0898 -0.8087
   86SOL    HW1  257   0.395   0.965   1.451 -1.2232  2.2272 -1.6987
   86SOL    HW2  258   0.419   0.989   1.622 -1.1967 -0.1361 -3.4015
   87SOL     OW  259   1.595   0.655   0.324  0.4897 -0.3612 -0.6885
   87SOL    HW1  260   1.687   0.708   0.300 -0.4180 -0.8528 -0.8569
   87SOL    HW2  261   1.544   0.618   0.236 -2.4502 -2.4161  0.1127
   88SOL     OW  262   1.610   1.378   0.273 -0.1564 -0.0887 -0.0924
   88SOL    HW1  263   1.667   1.289   0.288 -0.2535 -2.9134  0.1407
   88SOL    HW2  264   1.512   1.353   0.244 -0.1665  0.5964 -0.9700
   89SOL     OW  265   0.034   0.347   0.591 -0.5164  1.1321  0.2647
   89SOL    HW1  266   0.085   0.255   0.606  0.8530 -0.4003  2.2544
   89SOL    HW2  267  -0.070   0.330   0.588  1.3787  0.3803  0.1024
   90SOL     OW  268   0.778   1.531   0.149 -0.1040 -0.6771 -0.0567
   90SOL    HW1  269   0.862   1.467   0.147  0.7091 -1.7734 -0.5043
   90SOL    HW2  270   0.727   1.530   0.060  0.8053 -0.3081  0.7020
   91SOL     OW  271   1.212   1.497   1.773  0.4335 -0.3906 -0.2671
   91SOL    HW1  272   1.251   1.551   1.851  1.7621 -0.8394  0.2652
   91SOL    HW2  273   1.129   1.440   1.783 -0.3150  0.6556 -1.8813
   92SOL     OW  274   0.007   0.993   1.212 -0.3313 -0.0847  0.1808
   92SOL    HW1  275   0.084   1.058   1.182  0.6272 -0.3517 -0.9551
   92SOL    HW2  276   0.014   0.980   1.315  1.1189 -0.8068 -0.1751
   93SOL     OW  277   3.088   2.669   0.078  0.3729  0.3630  0.0950
   93SOL    HW1  278   3.011   2.634   0.018 -0.0716  2.0587  2.5859
   93SOL    HW2  279   3.121   2.595   0.148 -1.1243  2.7923  0.5243
   94SOL     OW  280   1.500   1.301   1.673  0.6011 -0.4421 -0.1423
   94SOL    HW1  281   1.586   1.253   1.704 -0.9376 -0.8430 -0.8050
   94SOL    HW2  282   1.481   1.393   1.717 -1.9790 -0.0456  1.3981
   95SOL     OW  283   1.359   2.471   2.917 -0.5001  0.3770 -0.2838
   95SOL    HW1  284   1.265   2.507   2.909 -1.5378  1.1441  1.0030
   95SOL    HW2  285   1.374   2.372   2.881 -2.4464  0.1003  1.3926
   96SOL     OW  286   0.574   2.166   1.297  0.2379  0.8235  0.4236
   96SOL    HW1  287   0.508   2.133   1.225  0.1871 -0.1501  1.7045
   96SOL    HW2  288   0.598   2.092   1.365  0.9957 -0.4237  0.2530
   97SOL     OW  289   0.267   1.633   2.443  0.0379 -0.2941  0.0580
   97SOL    HW1  290   0.270   1.727   2.404  0.2389 -2.7761  1.1196
   97SOL    HW2  291   0.234   1.637   2.538 -2.4590 -1.0373 -0.6428
   98SOL     OW  292   2.184   1.670   1.212 -0.3293  0.0008 -0.7222
   98SOL    HW1  293   2.120   1.597   1.166 -0.2380 -2.6391  2.5017
   98SOL    HW2  294   2.282   1.650   1.181 -0.4967  1.6461  2.4719
   99SOL     OW  295   2.613   2.095   1.257  0.4399 -0.4961 -0.5268
   99SOL    HW1  296   2.706   2.109   1.298  2.9618  1.7630  0.7738
   99SOL    HW2  297   2.554   2.023   1.303  0.8474 -0.4533 -2.5923
  100SOL     OW  298   2.309   0.373   2.110  0.2951 -0.4514 -0.0850
  100SOL    HW1  299   2.241   0.344   2.183  0.5875 -1.2928 -0.4670
  100SOL    HW2  300   2.402   0.407   2.147 -0.2799 -2.1557 -0.2694
  101SOL     OW  301   0.388   1.523   0.526 -0.2893 -0.1011 -0.4847
  101SOL    HW1  302   0.410   1.625   0.554  2.3559 -1.1990  0.9322
  101SOL    HW2  303   0.454   1.486   0.451  1.3566  4.1330 -0.8798
  102SOL     OW  304   2.254   1.075   0.819 -0.7079 -0.2835  0.0522
  102SOL    HW1  305   2.239   0.972   0.829  0.2988  1.0485  0.2910
  102SOL    HW2  306   2.343   1.097   0.772  2.0598 -0.0949 -1.0470
  103SOL     OW  307   2.265   0.036   0.341  0.1450  0.0263 -0.3496
  103SOL    HW1  308   2.293   0.108   0.272  1.7884 -1.9289 -1.6855
  103SOL    HW2  309   2.335   0.006   0.414 -1.3639 -1.7608  2.5802
  104SOL     OW  310   3.091   1.785   2.185 -0.7739  0.5023  0.8933
  104SOL    HW1  311   3.137   1.762   2.095 -0.3080 -1.1956  0.2067
  104SOL    HW2  312   2.998   1.822   2.159  0.8424  0.4440  1.8298
  105SOL     OW  313   1.398   2.115   0.765 -0.0861 -0.0931 -0.4922
  105SOL    HW1  314   1.445   2.142   0.675  1.8904  1.2530 -0.7653
  105SOL    HW2  315   1.375   2.017   0.778 -0.8357  0.8176  0.7699
  106SOL     OW  316   2.143   0.400   1.418 -0.0191  0.3361 -0.6767
  106SOL    HW1  317   2.076   0.322   1.433 -1.0640  0.3641  4.2344
  106SOL    HW2  318   2.173   0.439   1.510 -0.0327 -1.3287  1.0288
  107SOL     OW  319   1.950   2.902   1.163 -0.1868 -0.4551  0.3789
  107SOL    HW1  320   1.873   2.948   1.221 -0.3404 -0.7300  1.2076
  107SOL    HW2  321   1.915   2.832   1.094  1.9466  0.7824  1.9322
  108SOL     OW  322   0.823   2.828   1.200 -0.0061 -0.1207 -0.1909
  108SOL    HW1  323   0.810   2.729   1.175 -2.3140 -0.8317 -0.6828
  108SOL    HW2  324   0.922   2.849   1.225  1.0712 -1.7773 -0.5560
  109SOL     OW  325   2.131   0.218   0.708 -0.1132  0.1598  0.0619
  109SOL    HW1  326   2.070   0.146   0.665 -0.7677 -1.1891  0.8571
  109SOL    HW2  327   2.104   0.243   0.807  2.6288 -0.8105  1.5014
  110SOL     OW  328   0.487   2.761   2.784  0.2432  0.3749  0.3690
  110SOL    HW1  329   0.481   2.774   2.683  1.8645 -2.8547  1.9064
  110SOL    HW2  330   0.581   2.713   2.806  0.9083 -0.5986 -0.0393
  111SOL     OW  331   1.288   0.518   2.280  0.7280  0.3524  0.4058
  111SOL    HW1  332   1.203   0.565   2.322 -0.4739  0.9215 -1.1748
  111SOL    HW2  333   1.343   0.472   2.353 -0.8113  2.0994 -3.4351
  112SOL     OW  334   1.730   0.394   1.493 -0.2789  0.5528  0.4855
  112SOL    HW1  335   1.714   0.453   1.408 -1.1463  1.5023 -0.3044
  112SOL    HW2  336   1.646   0.376   1.556  1.0835 -0.3285 -3.3699
  113SOL     OW  337   2.373   1.740   1.797 -0.0757  0.3614 -0.1992
  113SOL    HW1  338   2.393   1.642   1.786 -0.6751  0.3697  0.8667
  113SOL    HW2  339   2.374   1.762   1.898 -1.5486 -0.1091 -1.3675
  114SOL     OW  340   0.328   0.449   1.161 -0.5052 -0.4601 -0.3843
  114SOL    HW1  341   0.404   0.519   1.138  2.1793 -0.0504 -0.9043
  114SOL    HW2  342   0.253   0.445   1.085 -0.0236 -0.3784 -1.4586
  115SOL     OW  343   2.684   1.560   1.222  0.8031  0.1880  0.4003
  115SOL    HW1  344   2.680   1.463   1.253 -0.1668  0.8639 -0.7867
  115SOL    HW2  345   2.774   1.590   1.176 -1.4034 -0.5747 -1.3372
  116SOL     OW  346   1.916   0.930   0.763  0.1402  0.4252  0.0902
  116SOL    HW1  347   1.829   0.892   0.713 -1.6514 -2.1517 -0.3488
  116SOL    HW2  348   1.921   1.037   0.767  0.2222  2.0567 -0.5068
  117SOL     OW  349   1.129   0.368   0.567 -0.2296  0.3360 -1.0896
  117SOL    HW1  350   1.162   0.459   0.584  0.1197 -3.5335  1.3982
  117SOL    HW2  351   1.086   0.347   0.475 -0.4835  0.0632  1.4733
  118SOL     OW  352   1.132   1.222   1.053  0.0080 -0.2176  0.2849
  118SOL    HW1  353   1.082   1.180   1.133 -1.2671  0.4316 -1.2575
  118SOL    HW2  354   1.164   1.324   1.069  0.9278  1.2480  1.0194
  119SOL     OW  355   1.843   1.583   2.180 -0.3764  0.2663  0.1766
  119SOL    HW1  356   1.788   1.649   2.123  1.4076  0.8745  1.7924
  119SOL    HW2  357   1.943   1.587   2.146  0.1853 -0.9714 -3.1384
  120SOL     OW  358   2.913   2.803   0.254  0.7790  0.3675 -0.1327
  120SOL    HW1  359   2.980   2.773   0.183  0.3906  0.5282  2.9887
  120SOL    HW2  360   2.821   2.760   0.231 -0.8206  0.4345  0.0953
  121SOL     OW  361   2.002   0.769   2.298  0.5208  0.4597  0.7216
  121SOL    HW1  362   2.092   0.818   2.273  0.1941 -0.1682 -0.9871
  121SOL    HW2  363   1.995   0.681   2.248  0.4885  2.0483 -1.7718
  122SOL     OW  364   2.636   2.483   1.317  0.2321  0.0159  0.0691
  122SOL    HW1  365   2.657   2.408   1.247  0.7667  2.3202 -2.7069
  122SOL    HW2  366   2.650   2.448   1.418  2.4163  0.8861 -0.7142
  123SOL     OW  367   1.691   0.139   1.770  0.0371 -0.1707 -0.7166
  123SOL    HW1  368   1.707   0.063   1.702 -1.4070  3.2183 -0.8815
  123SOL    HW2  369   1.775   0.199   1.793 -2.0771  2.8156 -0.1539
  124SOL     OW  370   3.075   0.408   1.112 -0.0104 -0.8378  0.2351
  124SOL    HW1  371   2.990   0.448   1.155  1.6916 -0.8462  0.2224
  124SOL    HW2  372   3.087   0.445   1.015  1.6155  0.6016 -0.0884
  125SOL     OW  373   0.851   1.955   0.781 -0.3570  0.8009 -0.8200
  125SOL    HW1  374   0.932   1.890   0.795  2.2636  0.1696  2.1283
  125SOL    HW2  375   0.842   2.029   0.851 -3.6228 -1.0034 -4.7776
  126SOL     OW  376   1.883   2.308   2.501  0.4493  0.2715 -0.1566
  126SOL    HW1  377   1.947   2.259   2.431  1.8715 -2.7366  0.8254
  126SOL    HW2  378   1.850   2.252   2.583 -1.8136  1.1336 -0.5262
  127SOL     OW  379   0.889   0.985   0.211  0.3642 -0.1527 -0.0243
  127SOL    HW1  380   0.965   1.007   0.286  0.3745  2.1821 -0.0877
  127SOL    HW2  381   0.878   0.885   0.198  0.7662  0.6144  0.1628
  128SOL     OW  382   0.967   0.229   1.443 -0.2420  0.1439 -0.6369
  128SOL    HW1  383   0.937   0.307   1.384 -0.3136 -0.8480  2.8832
  128SOL    HW2  384   0.879   0.179   1.456  3.7073  2.6183  1.0515
  129SOL     OW  385   1.873   0.730   1.853  0.0825 -0.3764 -0.9146
  129SOL    HW1  386   1.894   0.757   1.756  1.6430  0.5136  2.7531
  129SOL    HW2  387   1.907   0.806   1.921  1.2489  1.5847 -0.7140
  130SOL     OW  388   1.326   2.294   0.969  0.1347  0.0962  0.3813
  130SOL    HW1  389   1.335   2.224   0.891 -1.4459 -0.4622  0.3494
  130SOL    HW2  390   1.396   2.367   0.966 -1.2449 -1.1098 -1.7080
  131SOL     OW  391   3.081   1.397   1.384 -0.1047  0.0194  0.2991
  131SOL    HW1  392   3.013   1.321   1.413 -0.3793  0.1186 -0.2439
  131SOL    HW2  393   3.179   1.378   1.381  0.5734  2.6719  0.0044
  132SOL     OW  394   2.036   2.384   0.536  0.0806  0.3118  0.3299
  132SOL    HW1  395   1.934   2.417   0.527  1.6555  1.1120  2.0092
  132SOL    HW2  396   2.048   2.321   0.617  0.5453 -0.6452  1.2223
  133SOL     OW  397   1.707   2.473   2.727 -0.1481 -0.0551  0.2712
  133SOL    HW1  398   1.625   2.479   2.665  3.1042 -0.1815 -0.5536
  133SOL    HW2  399   1.736   2.566   2.758 -3.1021  2.2913  3.2131
  134SOL     OW  400   2.690   2.383   1.588 -0.4096 -0.2350  0.0401
  134SOL    HW1  401   2.637   2.368   1.677  1.3602  2.1695 -0.2556
  134SOL    HW2  402   2.733   2.478   1.581 -1.3078 -0.2801  1.3124
  135SOL     OW  403   0.778   1.453   2.677  0.7209  0.3397  0.5156
  135SOL    HW1  404   0.726   1.373   2.716  0.2780  1.9346  0.1818
  135SOL    HW2  405   0.768   1.462   2.571  2.3334  3.9468  1.4346
  136SOL     OW  406   1.193   2.037   0.398 -0.0831 -0.3483  0.0292
  136SOL    HW1  407   1.138   2.112   0.442  0.3509 -1.0477  1.0088
  136SOL    HW2  408   1.136   1.954   0.375 -2.2367 -2.0624  1.5304
  137SOL     OW  409   0.404   1.207   2.279  0.3725  0.0152  0.4921
  137SOL    HW1  410   0.312   1.210   2.335 -2.3615  0.6093  0.2005
  137SOL    HW2  411   0.451   1.113   2.287 -2.3886  0.2925 -0.1625
  138SOL     OW  412   2.413   1.532   0.268 -0.0069 -0.1870 -0.2584
  138SOL    HW1  413   2.363   1.514   0.177 -0.4945  0.0453  0.2730
  138SOL    HW2  414   2.404   1.454   0.336  0.3580  1.5427  3.3541
  139SOL     OW  415   1.870   2.656   1.566  0.8823 -0.7493 -0.5388
  139SOL    HW1  416   1.778   2.689   1.534  1.5367 -3.8913 -2.0058
  139SOL    HW2  417   1.897   2.564   1.520  0.3690 -1.2148 -0.2266
  140SOL     OW  418   2.977   2.952   2.584 -0.8514 -0.4604 -0.2580
  140SOL    HW1  419   3.037   2.868   2.599 -1.0130 -0.3576  1.6148
  140SOL    HW2  420   3.030   3.035   2.545  1.8397  2.4059  1.1836
  141SOL     OW  421   1.305   1.620   1.548  0.0623  0.7342 -0.3881
  141SOL    HW1  422   1.218   1.668   1.524 -0.8642 -1.0833  0.8547
  141SOL    HW2  423   1.295   1.569   1.640  0.3491  1.4070  1.1085
  142SOL     OW  424   1.510   0.661   2.224  0.0917 -0.1348  0.7080
  142SOL    HW1  425   1.490   0.740   2.158  1.9504 -0.9818  2.7184
  142SOL    HW2  426   1.423   0.606   2.248  1.5548 -2.1110 -2.2497
  143SOL     OW  427   2.747   0.804   0.553  0.2238  0.5761  0.4705
  143SOL    HW1  428   2.803   0.853   0.473  1.0919  0.5803  3.7421
  143SOL    HW2  429   2.743   0.865   0.637 -0.6339  2.0722 -0.0843
  144SOL     OW  430   2.918   1.217   1.461 -0.3168  0.1782 -0.3641
  144SOL    HW1  431   2.852   1.211   1.540  0.7579  0.2956  0.6832
  144SOL    HW2  432   2.981   1.133   1.471 -0.6588 -1.8248 -1.0157
  145SOL     OW  433   0.865   1.836   0.117  0.2398 -0.2787 -0.4036
  145SOL    HW1  434   0.894   1.887   0.032 -2.5033 -1.9084  0.7354
  145SOL    HW2  435   0.846   1.736   0.096 -0.8973  0.2583 -1.0204
  146SOL     OW  436   2.476   0.656   1.524  0.1214  0.0199  0.1934
  146SOL    HW1  437   2.457   0.560   1.482  2.4889 -0.9332  1.6594
  146SOL    HW2  438   2.401   0.723   1.503 -1.1998 -3.5424  1.8516
  147SOL     OW  439   1.116   2.507   0.589 -0.5416  0.1153 -0.3491
  147SOL    HW1  440   1.041   2.544   0.527 -0.0065  0.2550 -1.4520
  147SOL    HW2  441   1.199   2.474   0.533  1.7548  0.5618  0.1116
  148SOL     OW  442   1.584   1.469  -0.002 -0.2658 -0.4369  0.7352
  148SOL    HW1  443   1.576   1.377  -0.048  0.3708  2.5523  0.1002
  148SOL    HW2  444   1.598   1.466   0.101 -0.4294  1.6824 -0.0971
  149SOL     OW  445   0.661   1.488   1.970 -0.1003 -0.3791  0.0055
  149SOL    HW1  446   0.582   1.441   2.015 -0.1776  2.0401  0.3339
  149SOL    HW2  447   0.694   1.433   1.890 -1.4343  1.9959  1.2306
  150SOL     OW  448   3.065   1.220   0.962  0.5579  0.0125 -0.1372
  150SOL    HW1  449   3.149   1.212   1.027 -1.2824  1.0364 -0.8484
  150SOL    HW2  450   2.998   1.153   0.990  2.0217  2.2971  0.9962
  151SOL     OW  451   0.208   0.871   2.055 -1.3573  0.7772  0.2404
  151SOL    HW1  452   0.231   0.945   1.986 -2.0740 -0.4189  2.1333
  151SOL    HW2  453   0.249   0.778   2.025 -1.5658 -0.3668  0.1583
  152SOL     OW  454   1.474   1.843   1.083  0.6967  0.1538  0.1375
  152SOL    HW1  455   1.521   1.937   1.094  2.1237 -1.4105  0.8283
  152SOL    HW2  456   1.368   1.853   1.061  2.5485 -0.9163 -0.9292
  153SOL     OW  457   0.142   1.519   0.233  0.2254 -0.8299 -0.1938
  153SOL    HW1  458   0.081   1.433   0.230 -2.8058  0.3915  1.7636
  153SOL    HW2  459   0.139   1.560   0.327  0.7990  0.6281 -0.0553
  154SOL     OW  460   2.317   1.770   2.745  0.6671 -0.0564 -0.0106
  154SOL    HW1  461   2.341   1.669   2.745  0.3128  3.0985 -0.3494
  154SOL    HW2  462   2.395   1.825   2.705  1.2606 -0.2248 -0.8611
  155SOL     OW  463   2.402   1.283   0.409  0.0339  0.2370  0.2250
  155SOL    HW1  464   2.495   1.247   0.376 -0.3868  0.0636  2.2519
  155SOL    HW2  465   2.329   1.211   0.417 -1.2922 -0.0382  3.9960
  156SOL     OW  466   2.464   0.814   0.702  0.6638  0.2518 -0.2394
  156SOL    HW1  467   2.374   0.771   0.726  1.0181 -2.2052  2.2881
  156SOL    HW2  468   2.478   0.841   0.603  0.3329  1.0904  2.8522
  157SOL     OW  469   1.234   3.032   3.062  0.2649  0.3530  0.6003
  157SOL    HW1  470   1.292   2.956   3.015  0.9495  1.2380  0.5051
  157SOL    HW2  471   1.276   3.128   3.069  2.1004  1.3744 -1.0399
  158SOL     OW  472   1.073   1.917   1.835  0.6341  0.4937 -0.5056
  158SOL    HW1  473   1.132   1.997   1.800 -0.2110  0.7759 -3.1427
  158SOL    HW2  474   0.988   1.946   1.884  0.2339 -1.1679 -0.8806
  159SOL     OW  475   0.807   0.422   1.269 -0.7501 -0.0672  0.5858
  159SOL    HW1  476   0.751   0.502   1.305  1.4572 -0.0577 -1.7169
  159SOL    HW2  477   0.769   0.385   1.183 -1.4684 -3.7457  1.2320
  160SOL     OW  478   1.410   2.443   1.449  0.0056  0.1479 -0.0774
  160SOL    HW1  479   1.351   2.386   1.516 -0.7452  1.5318  0.5651
  160SOL    HW2  480   1.486   2.379   1.418 -1.3810 -1.2744  0.0588
  161SOL     OW  481   3.060   2.652   0.440  0.2119 -0.2272  0.0938
  161SOL    HW1  482   3.037   2.559   0.406  1.2042  1.4816  0.7438
  161SOL    HW2  483   3.003   2.731   0.400  1.4212 -2.9599  3.3437
  162SOL     OW  484   2.539   1.886   0.446 -0.0962  0.3726  0.5537
  162SOL    HW1  485   2.575   1.837   0.359  3.5993  0.6636 -1.4249
  162SOL    HW2  486   2.469   1.839   0.508 -0.7750 -1.9133  2.9452
  163SOL     OW  487   1.957   2.713   0.755  0.2232  0.6425 -0.3117
  163SOL    HW1  488   1.960   2.735   0.651  1.4378  0.1078 -0.1687
  163SOL    HW2  489   2.036   2.652   0.790 -1.2751 -0.5532 -1.5143
  164SOL     OW  490   3.093   0.151   1.214 -0.0346  0.2051 -0.0223
  164SOL    HW1  491   3.076   0.245   1.169 -3.6141 -2.8678 -0.8264
  164SOL    HW2  492   3.153   0.151   1.301 -1.7287 -1.7863  1.0471
  165SOL     OW  493   1.108   1.449   0.657 -0.1774  0.4126 -0.2394
  165SOL    HW1  494   1.081   1.493   0.751 -0.7984 -1.8848  0.4683
  165SOL    HW2  495   1.038   1.473   0.584  2.7848  1.6910 -1.6484
  166SOL     OW  496   1.516   1.001   1.809 -0.0967 -0.3591 -0.0997
  166SOL    HW1  497   1.449   1.080   1.816  0.1393 -1.4076 -0.9590
  166SOL    HW2  498   1.610   1.035   1.774 -2.0556  1.2335 -0.8264
  167SOL     OW  499   0.673   1.994   1.521 -0.0469  0.0428  0.3126
  167SOL    HW1  500   0.707   2.024   1.611 -1.5692  0.1144 -0.6408
  167SOL    HW2  501   0.621   1.905   1.534 -2.0160  2.1114 -0.4795
  168SOL     OW  502   1.601   2.338   0.151  0.3604 -0.5219 -0.1083
  168SOL    HW1  503   1.669   2.338   0.076 -1.3085  1.5559 -0.1575
  168SOL    HW2  504   1.624   2.272   0.229 -2.9262 -2.5908 -2.1314
  169SOL     OW  505   0.025   2.559   2.206 -0.8041  0.3993  0.1474
  169SOL    HW1  506   0.053   2.468   2.157  1.1414 -0.5975  1.1543
  169SOL    HW2  507   0.075   2.575   2.295  0.6000 -0.5534 -0.4658
  170SOL     OW  508   1.163   0.151   2.044 -0.6164  0.0611  0.1153
  170SOL    HW1  509   1.253   0.168   2.097 -0.0126 -1.9346  1.3831
  170SOL    HW2  510   1.180   0.162   1.943  0.1373 -1.0866  2.9071
  171SOL     OW  511   0.198   0.839   2.411 -0.0101  0.2172  0.3725
  171SOL    HW1  512   0.122   0.885   2.470  1.1656 -0.6788  1.7982
  171SOL    HW2  513   0.182   0.867   2.315 -0.7733 -0.1513  0.6377
  172SOL     OW  514   0.981   1.041   2.876  0.3729  0.0692  0.0794
  172SOL    HW1  515   0.931   1.084   2.962 -0.8856  1.5476  0.2659
  172SOL    HW2  516   0.937   1.056   2.783 -0.8235 -1.5608 -1.9703
  173SOL     OW  517   0.436   2.558   0.067 -0.6667  0.3382 -0.3971
  173SOL    HW1  518   0.484   2.521  -0.014 -3.6658  2.3502 -0.0112
  173SOL    HW2  519   0.376   2.499   0.123 -0.7887  2.2590 -4.4075
  174SOL     OW  520   1.501   2.888   1.066 -0.4950 -0.2211  0.1231
  174SOL    HW1  521   1.538   2.931   0.977  1.7905  1.9610  0.1453
  174SOL    HW2  522   1.469   2.792   1.052  1.7958  0.5312 -3.1163
  175SOL     OW  523   0.411   3.059   1.720  0.2326 -0.2145 -0.0097
  175SOL    HW1  524   0.465   3.075   1.803 -0.0514  0.8224  0.7906
  175SOL    HW2  525   0.386   3.146   1.674  0.8534  1.7394  1.4352
  176SOL     OW  526   2.664   0.397   3.093  0.2208 -0.0068 -0.1615
  176SOL    HW1  527   2.656   0.482   3.152 -0.5330 -1.9199  0.7928
  176SOL    HW2  528   2.631   0.315   3.143 -0.7649  0.7828 -0.8366
  177SOL     OW  529   0.370   0.288   0.913 -0.2149 -0.1088 -0.4408
  177SOL    HW1  530   0.308   0.207   0.904 -0.3680 -1.0084  1.6795
  177SOL    HW2  531   0.461   0.264   0.944  0.7833 -2.6870 -1.9012
  178SOL     OW  532   0.052   2.752   2.587 -0.0756 -0.2514  0.4591
  178SOL    HW1  533   0.016   2.655   2.587  2.3513 -2.1394  0.8125
  178SOL    HW2  534   0.112   2.764   2.671 -1.8779 -0.5323  0.1700
  179SOL     OW  535   2.956   1.563   1.156  0.1011  0.4470  0.4112
  179SOL    HW1  536   3.051   1.587   1.137 -2.1894 -3.3879  2.6475
  179SOL    HW2  537   2.951   1.494   1.232  0.0829  1.9381  1.7443
  180SOL     OW  538   0.229   1.379   1.756  0.3497  0.1715 -0.0646
  180SOL    HW1  539   0.312   1.312   1.778  1.0960  0.7122 -1.0193
  180SOL    HW2  540   0.177   1.405   1.841  1.5596 -2.8708 -0.6633
  181SOL     OW  541   2.961   1.859   2.519  0.6348 -0.4269 -0.3646
  181SOL    HW1  542   2.967   1.946   2.473  0.0156 -2.5414 -0.4218
  181SOL    HW2  543   2.862   1.837   2.535 -0.1651 -0.3843  1.3062
  182SOL     OW  544   2.268   1.369   1.206 -0.1533  0.2079 -1.1651
  182SOL    HW1  545   2.230   1.294   1.145 -0.9239 -0.0502  0.1082
  182SOL    HW2  546   2.324   1.447   1.157  3.7280 -0.6571  1.6894
  183SOL     OW  547   1.425   2.275   2.421  0.3243 -0.4755 -0.2420
  183SOL    HW1  548   1.373   2.195   2.460  0.1330 -1.0024 -0.2453
  183SOL    HW2  549   1.526   2.255   2.412 -0.4397 -2.5634 -2.4859
  184SOL     OW  550   2.167   0.829   0.766  0.1753  0.0720  0.2378
  184SOL    HW1  551   2.070   0.864   0.767 -0.8972  1.7328 -1.2787
  184SOL    HW2  552   2.173   0.731   0.748  0.8600 -2.1837  1.5660
  185SOL     OW  553   1.570   2.787   1.993 -0.3037  0.2744 -0.2558
  185SOL    HW1  554   1.481   2.822   2.032  0.2813 -1.0766  1.0556
  185SOL    HW2  555   1.632   2.753   2.066  0.2114  1.4875 -0.5738
  186SOL     OW  556   0.108   2.206   1.730 -0.1977  0.7383  0.5058
  186SOL    HW1  557   0.092   2.248   1.822  0.3764  1.0976  1.3318
  186SOL    HW2  558   0.201   2.155   1.735  3.1708  0.5566 -0.5015
  187SOL     OW  559   1.368   0.663   1.656 -0.7714  0.2705  0.1351
  187SOL    HW1  560   1.454   0.711   1.621 -0.7971  0.2096  1.2010
  187SOL    HW2  561   1.382   0.590   1.737  1.3517 -0.3957  2.0186
  188SOL     OW  562   2.722   2.696   1.497 -0.2872  0.0199  0.6129
  188SOL    HW1  563   2.686   2.791   1.507 -1.2145 -1.6368 -0.5943
  188SOL    HW2  564   2.676   2.640   1.417 -2.1000 -2.1286  3.5892
  189SOL     OW  565   0.935   1.234   1.348  0.3787 -0.1700 -0.1426
  189SOL    HW1  566   0.990   1.267   1.431  0.8350  1.6071 -1.9014
  189SOL    HW2  567   0.857   1.303   1.333  0.8102  0.4671 -0.2848
  190SOL     OW  568   1.453   1.871   1.523  0.0059  0.0760 -0.3367
  190SOL    HW1  569   1.422   1.774   1.545 -2.2501  1.8441  2.4144
  190SOL    HW2  570   1.447   1.932   1.607  1.3092 -1.8001  0.3195
  191SOL     OW  571   0.866   0.763   1.510 -0.1163  0.1868 -0.2982
  191SOL    HW1  572   0.945   0.720   1.564 -0.9876  0.9057 -1.9616
  191SOL    HW2  573   0.910   0.828   1.446 -1.0435 -1.3148  2.6614
  192SOL     OW  574   1.848   2.439   1.125  0.6300 -0.0439  0.6506
  192SOL    HW1  575   1.750   2.422   1.094  0.8303 -2.4948  0.0311
  192SOL    HW2  576   1.906   2.359   1.098 -3.9761  1.7968 -0.9746
  193SOL     OW  577   0.575   0.581   0.469 -0.0086 -0.0557 -0.3136
  193SOL    HW1  578   0.496   0.521   0.459  2.2513  2.3766 -0.0701
  193SOL    HW2  579   0.644   0.575   0.390  1.2173  2.1971  0.6421
  194SOL     OW  580   0.371   0.870   1.311  0.0890 -0.4496 -0.0791
  194SOL    HW1  581   0.292   0.823   1.267  1.7064 -0.3288  2.9541
  194SOL    HW2  582   0.429   0.908   1.232 -0.2843  0.1272 -2.4380
  195SOL     OW  583   1.004   2.939   0.548  0.6603  0.1867 -0.4775
  195SOL    HW1  584   0.993   2.843   0.513  0.2462  0.7813  0.2634
  195SOL    HW2  585   1.097   2.986   0.534  1.9533 -0.5287  2.2187
  196SOL     OW  586   0.281   1.380   1.314 -0.2939 -0.1471 -0.0713
  196SOL    HW1  587   0.279   1.483   1.327 -0.4950 -0.7863 -0.8499
  196SOL    HW2  588   0.248   1.329   1.397 -1.7318  3.0640 -0.3063
  197SOL     OW  589   0.846   2.010   0.323  0.2643 -0.1659  0.0867
  197SOL    HW1  590   0.845   1.951   0.412  0.7140 -0.7968  1.3355
  197SOL    HW2  591   0.856   1.957   0.234 -1.1819  0.5778  2.0189
  198SOL     OW  592   0.293   1.241   0.341 -0.4220 -0.2346  0.1873
  198SOL    HW1  593   0.200   1.234   0.287  1.5508 -1.8467 -1.4830
  198SOL    HW2  594   0.329   1.336   0.372  0.4565 -0.4326 -0.9712
  199SOL     OW  595   2.173   0.485   2.588  0.1753  0.2051  0.1350
  199SOL    HW1  596   2.084   0.455   2.633  1.6890 -0.2933  1.5742
  199SOL    HW2  597   2.261   0.465   2.646  2.0902 -1.8026  1.4072
  200SOL     OW  598   3.033   2.922   0.780 -0.2952 -0.1548 -0.1707
  200SOL    HW1  599   3.062   3.009   0.825  2.5610  1.5446 -0.4143
  200SOL    HW2  600   2.970   2.941   0.698 -1.8734  0.7492 -0.9942
  201SOL     OW  601   0.912   0.675   0.509 -0.7975 -0.0003  0.4469
  201SOL    HW1  602   0.867   0.752   0.562 -0.8267 -0.6381 -0.0580
  201SOL    HW2  603   0.889   0.581   0.538  1.0331  1.9904 -1.2691
  202SOL     OW  604   0.448   1.233   1.862  0.1787 -0.1253 -0.3050
  202SOL    HW1  605   0.540   1.189   1.838  3.7760  0.2900  0.1142
  202SOL    HW2  606   0.450   1.279   1.954  1.1238 -1.1136  1.6028
  203SOL     OW  607   0.691   0.210   1.593  0.0647 -0.9863  0.0109
  203SOL    HW1  608   0.701   0.159   1.506  2.7437  1.0000 -1.1741
  203SOL    HW2  609   0.742   0.171   1.674  2.4864 -1.0955 -0.9738
  204SOL     OW  610   2.088   1.806   2.933  0.2693  0.6553 -0.2268
  204SOL    HW1  611   2.081   1.708   2.968  2.5863 -2.2503 -0.3807
  204SOL    HW2  612   2.157   1.817   2.860 -1.4664 -0.5866 -2.1039
  205SOL     OW  613   1.835   1.911   3.086  0.0572  0.0324 -0.2726
  205SOL    HW1  614   1.911   1.851   3.050  1.3265 -0.1827  2.0578
  205SOL    HW2  615   1.804   1.989   3.028  0.3227 -1.3686  2.2302
  206SOL     OW  616   2.385   2.722   0.262 -0.6604 -0.0997  0.0726
  206SOL    HW1  617   2.376   2.681   0.356  1.8761 -2.6819 -1.0636
  206SOL    HW2  618   2.475   2.697   0.215  1.9394 -1.1621  0.8150
  207SOL     OW  619   0.690   1.748   2.892 -0.5441 -0.3847  0.7954
  207SOL    HW1  620   0.782   1.709   2.858 -0.1292 -2.1588  0.1919
  207SOL    HW2  621   0.653   1.692   2.975 -0.2940 -0.1207  1.0514
  208SOL     OW  622   1.009   1.558   1.250 -0.1285 -0.2601  0.4686
  208SOL    HW1  623   0.954   1.594   1.167  1.2108  1.6436  1.5656
  208SOL    HW2  624   1.006   1.619   1.333 -2.2755 -3.2982  1.8800
  209SOL     OW  625   0.272   0.960   3.080 -0.1118  0.1087 -0.3451
  209SOL    HW1  626   0.273   0.884   3.007  3.8828  0.9210  0.4834
  209SOL    HW2  627   0.248   0.928   3.176  0.4585 -3.8729 -1.1616
  210SOL     OW  628   1.700   0.527   1.271 -0.6656  0.6369  0.1668
  210SOL    HW1  629   1.639   0.580   1.210  3.8883 -0.8731 -1.3673
  210SOL    HW2  630   1.802   0.543   1.251  2.1211 -0.4010  0.0849
  211SOL     OW  631   2.132   1.008   1.578  0.4325  0.3636 -0.1297
  211SOL    HW1  632   2.143   0.995   1.685  3.2103 -1.2549 -0.6663
  211SOL    HW2  633   2.181   1.090   1.545 -1.7401 -2.3714 -1.3288
  212SOL     OW  634   0.044   0.997   1.493  0.2637  0.5946 -0.3870
  212SOL    HW1  635   0.122   1.064   1.482  0.6913  2.2597 -0.9398
  212SOL    HW2  636   0.072   0.918   1.555  0.9807 -0.3835  1.3610
  213SOL     OW  637   2.827   0.141   0.321 -0.3686 -0.6009  0.4020
  213SOL    HW1  638   2.931   0.120   0.301  0.1124 -1.8061 -0.6806
  213SOL    HW2  639   2.774   0.059   0.286 -0.2265 -1.8628 -0.7461
  214SOL     OW  640   2.159   0.327   2.351 -0.2947 -0.2171 -0.0298
  214SOL    HW1  641   2.177   0.383   2.436 -1.4644 -3.3771 -0.1362
  214SOL    HW2  642   2.165   0.220   2.374  1.0047 -0.9691  0.3560
  215SOL     OW  643   1.637   2.209   2.035  0.1170 -0.4363 -0.2466
  215SOL    HW1  644   1.730   2.249   2.029 -1.9205 -0.3723  1.7806
  215SOL    HW2  645   1.563   2.277   2.035  2.6649 -1.1994  1.1423
  216SOL     OW  646   2.197   0.541   0.724  0.3741 -0.2450  0.3607
  216SOL    HW1  647   2.154   0.545   0.635  0.8188 -0.0377 -1.3341
  216SOL    HW2  648   2.222   0.443   0.760  0.2502 -2.6079  2.7198
  217SOL     OW  649   0.922   2.786   2.589 -0.0159 -0.5604  0.3688
  217SOL    HW1  650   0.944   2.703   2.644  1.6928 -2.7885 -1.7366
  217SOL    HW2  651   0.887   2.759   2.490 -0.3836 -2.2234 -0.0363
  218SOL     OW  652   1.876   1.463   0.044 -0.6229 -0.0798  0.0237
  218SOL    HW1  653   1.778   1.446   0.014 -0.0890 -3.1019 -1.0985
  218SOL    HW2  654   1.912   1.390   0.110 -2.0107  0.5370 -0.3751
  219SOL     OW  655   2.456   1.264   2.541  0.3194  0.2058 -0.5822
  219SOL    HW1  656   2.495   1.224   2.454  1.5512  0.7331  2.4144
  219SOL    HW2  657   2.462   1.198   2.622 -2.0479 -1.4642 -2.0560
  220SOL     OW  658   1.402   1.036   1.371 -0.6974  0.5056 -0.0972
  220SOL    HW1  659   1.496   1.002   1.394 -0.8531 -0.4324  1.3476
  220SOL    HW2  660   1.400   1.062   1.271 -0.1552  1.3473 -0.3668
  221SOL     OW  661   1.392   0.970   2.182  0.2969  0.5834 -0.3672
  221SOL    HW1  662   1.342   0.993   2.090 -0.5311 -0.4383 -0.0074
  221SOL    HW2  663   1.476   1.023   2.202  1.6719  0.7811 -1.5707
  222SOL     OW  664   1.148   0.092   1.222  0.2752 -0.2256 -0.3915
  222SOL    HW1  665   1.161   0.145   1.310 -0.6248 -1.4096  0.2821
  222SOL    HW2  666   1.140   0.153   1.139  2.9757  0.3558  1.2350
  223SOL     OW  667   2.710   0.956   2.102 -0.2195 -0.1219  0.1033
  223SOL    HW1  668   2.637   1.024   2.073  0.4755 -1.4018  0.0491
  223SOL    HW2  669   2.790   0.996   2.152  1.4063  0.3863 -3.8548
  224SOL     OW  670   1.584   1.025   2.777 -0.4245  0.1995  0.0722
  224SOL    HW1  671   1.607   0.951   2.702 -1.8981 -2.3372  0.6390
  224SOL    HW2  672   1.630   1.114   2.754 -0.8829 -3.1747  1.3380
  225SOL     OW  673   2.948   2.691   2.898 -0.1001 -0.4310  0.5543
  225SOL    HW1  674   2.874   2.707   2.829  0.4223  0.3676  1.3568
  225SOL    HW2  675   3.013   2.765   2.896 -0.3466 -2.7636 -0.6037
  226SOL     OW  676   2.384   1.495   2.812 -0.0143  0.4156  0.0975
  226SOL    HW1  677   2.468   1.487   2.749 -0.2672 -0.5857  0.7826
  226SOL    HW2  678   2.412   1.450   2.904  3.1005 -0.2588 -1.0776
  227SOL     OW  679   0.842   0.234   3.098 -0.1818  0.0088 -0.2157
  227SOL    HW1  680   0.853   0.339   3.101  0.4122  0.9918  0.6546
  227SOL    HW2  681   0.815   0.197   3.003 -0.2872 -0.1491 -3.1217
  228SOL     OW  682   2.431   0.658   2.863  0.5437 -0.2353 -0.1761
  228SOL    HW1  683   2.407   0.726   2.788  0.5811  0.9291 -0.1341
  228SOL    HW2  684   2.510   0.594   2.840 -0.3793  2.2698  0.5790
  229SOL     OW  685   0.437   0.493   1.824 -0.1163 -0.0835  0.1577
  229SOL    HW1  686   0.516   0.510   1.885 -0.8283  2.2969  0.2472
  229SOL    HW2  687   0.465   0.502   1.720 -0.9694 -0.8571 -0.7017
  230SOL     OW  688   1.900   1.208   1.974  0.0532  0.6797 -0.2526
  230SOL    HW1  689   1.964   1.286   1.946  2.0570 -2.0045  1.4092
  230SOL    HW2  690   1.822   1.238   2.037 -0.9020 -0.8697  0.2760
  231SOL     OW  691   0.616   1.068   3.094 -0.2165 -0.2000 -0.0340
  231SOL    HW1  692   0.706   1.122   3.097  3.5746  2.7868  1.3543
  231SOL    HW2  693   0.527   1.116   3.117  2.4853 -2.1699 -1.1222
  232SOL     OW  694   2.413   3.049   2.829  0.1725  0.6337 -1.0214
  232SOL    HW1  695   2.480   2.971   2.831  1.1015 -0.3414 -1.3220
  232SOL    HW2  696   2.438   3.122   2.762  1.6771 -0.4564 -0.8968
  233SOL     OW  697   1.734   1.178   1.105  0.6548 -0.4602 -0.5534
  233SOL    HW1  698   1.815   1.227   1.067 -2.2074 -1.9032 -3.4257
  233SOL    HW2  699   1.753   1.090   1.152  0.4976  2.4429  1.7145
  234SOL     OW  700   1.655   2.578   1.819  0.0215 -0.4290  0.0549
  234SOL    HW1  701   1.633   2.669   1.876  0.9886  0.6301 -0.8658
  234SOL    HW2  702   1.612   2.495   1.866 -0.4662 -1.5739  1.4588
  235SOL     OW  703   3.092   2.952   2.870  0.2705  0.4690 -0.4543
  235SOL    HW1  704   3.025   2.984   2.794 -1.4178  3.2915 -1.3310
  235SOL    HW2  705   3.053   2.965   2.967  0.0591  1.2114 -1.0860
  236SOL     OW  706   2.957   0.676   0.051 -0.1392 -0.4760 -0.3302
  236SOL    HW1  707   3.008   0.709   0.131 -0.2952  1.4766 -1.1314
  236SOL    HW2  708   2.985   0.586   0.010 -1.1108 -0.1000  0.7841
  237SOL     OW  709   1.462   1.628   0.907  0.0668  0.6576 -0.1024
  237SOL    HW1  710   1.551   1.577   0.916 -1.3606  0.1110  0.6776
  237SOL    HW2  711   1.451   1.694   0.990  0.2165  1.4697  1.7825
  238SOL     OW  712   1.898   1.203   0.788 -0.1872 -0.5709 -0.0314
  238SOL    HW1  713   1.921   1.254   0.877  0.1902 -1.0917 -1.0660
  238SOL    HW2  714   1.803   1.204   0.766  0.1703 -0.8872 -1.0555
  239SOL     OW  715   2.026   0.229   2.739 -0.6620  0.0834  0.4505
  239SOL    HW1  716   2.076   0.183   2.825  0.4863 -1.5020  0.3366
  239SOL    HW2  717   1.968   0.305   2.774  2.4059 -0.6257 -0.1649
  240SOL     OW  718   0.918   0.718   0.240  0.4783  0.3297 -0.2774
  240SOL    HW1  719   0.982   0.647   0.206 -0.8283 -1.3748  0.7520
  240SOL    HW2  720   0.912   0.717   0.341  0.3204  1.1765 -1.5769
  241SOL     OW  721   0.565   0.145   0.343 -0.5892 -0.2927  0.1577
  241SOL    HW1  722   0.639   0.194   0.285 -2.2345 -1.4344 -0.0331
  241SOL    HW2  723   0.529   0.063   0.300  2.6878 -0.1464  1.1844
  242SOL     OW  724   0.638   2.567   1.195  0.1648  0.0229  0.0636
  242SOL    HW1  725   0.643   2.543   1.294 -1.6072  3.8204  0.9189
  242SOL    HW2  726   0.580   2.652   1.172 -0.9611  1.6462 -0.9757
  243SOL     OW  727   1.053   0.589   2.372  0.1031  0.1762 -0.2473
  243SOL    HW1  728   0.973   0.588   2.310  2.2472 -1.0464 -1.9975
  243SOL    HW2  729   1.033   0.545   2.466  0.5192 -0.3052  3.4936
  244SOL     OW  730   2.712   1.937   2.346 -1.1074  0.4103  0.0832
  244SOL    HW1  731   2.762   1.904   2.259 -1.2802 -0.4810  0.7113
  244SOL    HW2  732   2.624   1.884   2.360  2.1600  0.1468 -0.3255
  245SOL     OW  733   2.173   0.999   2.163 -0.2062  0.1958  0.5330
  245SOL    HW1  734   2.270   0.975   2.190  0.5587 -0.3473  0.1990
  245SOL    HW2  735   2.122   1.063   2.228  0.8729 -0.7362  2.0638
  246SOL     OW  736   0.279   2.845   1.819  0.7911  0.4740 -0.0630
  246SOL    HW1  737   0.186   2.834   1.768  0.9179 -0.5263 -2.1046
  246SOL    HW2  738   0.348   2.906   1.767 -1.2252 -3.0324 -0.3399
  247SOL     OW  739   2.220   0.594   3.027 -0.0821 -0.1492 -0.1379
  247SOL    HW1  740   2.308   0.615   2.968  0.1404  2.1370 -1.1299
  247SOL    HW2  741   2.146   0.666   3.023 -0.6229  1.7316 -1.7173
  248SOL     OW  742   2.197   1.832   1.615  0.5328 -0.3506 -0.6322
  248SOL    HW1  743   2.273   1.809   1.685 -2.9710 -1.6673  0.0142
  248SOL    HW2  744   2.118   1.768   1.614 -1.6702 -2.8052  0.9640
  249SOL     OW  745   1.900   1.899   1.800 -0.5677  0.0471 -0.2427
  249SOL    HW1  746   1.895   1.825   1.727  0.2008  0.1821 -0.4786
  249SOL    HW2  747   1.984   1.892   1.859  0.0254  0.0063 -0.5385
  250SOL     OW  748   0.985   0.710   1.891 -0.5689 -0.1511  0.5256
  250SOL    HW1  749   1.038   0.631   1.930  0.7876  2.5310 -2.8101
  250SOL    HW2  750   0.956   0.683   1.793 -1.5012  0.2566 -1.2855
  251SOL     OW  751   3.056   1.565   2.515 -0.8024 -0.8457  0.4098
  251SOL    HW1  752   3.056   1.651   2.457 -1.4676  0.1377 -1.5297
  251SOL    HW2  753   2.962   1.523   2.515  0.2891 -1.5682 -1.1175
  252SOL     OW  754   1.540   0.850   1.560  0.2590  0.2968  0.6357
  252SOL    HW1  755   1.612   0.897   1.500  0.0752  1.6281  1.6326
  252SOL    HW2  756   1.515   0.903   1.645  1.3647  1.0766  0.1045
  253SOL     OW  757   0.931   1.514   0.468  0.1811  0.0607 -0.5230
  253SOL    HW1  758   0.959   1.477   0.374  0.2754  0.9333 -0.6499
  253SOL    HW2  759   0.828   1.513   0.500 -3.8269  0.8525 -2.5449
  254SOL     OW  760   2.031   2.200   1.594  0.1888 -0.2045 -0.1331
  254SOL    HW1  761   2.004   2.117   1.543 -0.7897 -0.6570 -0.0455
  254SOL    HW2  762   1.954   2.249   1.643  1.4128  0.2221 -1.0765
  255SOL     OW  763   0.131   1.148   2.930 -0.1146  0.4955 -0.6879
  255SOL    HW1  764   0.182   1.235   2.913  1.9062 -3.9718  0.3900
  255SOL    HW2  765   0.187   1.070   2.977  1.2386 -0.0669  1.9871
  256SOL     OW  766   2.829   1.401   1.799  0.2003 -0.0022 -0.4647
  256SOL    HW1  767   2.768   1.475   1.748  0.4322  1.6525  0.2420
  256SOL    HW2  768   2.790   1.307   1.785 -2.5303  2.0345 -2.4416
  257SOL     OW  769   0.812   0.223   1.843  0.5490  0.8755  0.8328
  257SOL    HW1  770   0.872   0.297   1.797 -2.6433 -2.5244  1.7452
  257SOL    HW2  771   0.847   0.125   1.821  1.3589 -0.6166 -0.6732
  258SOL     OW  772   2.956   1.149   0.541 -0.0752  0.3623  0.3706
  258SOL    HW1  773   2.867   1.157   0.601 -0.6666 -0.2764 -1.2762
  258SOL    HW2  774   3.029   1.214   0.582  1.0921  2.7706 -1.0620
  259SOL     OW  775   0.464   2.935   2.988 -0.2075 -0.4568 -0.1304
  259SOL    HW1  776   0.398   2.898   3.062 -0.9107 -0.8399  2.0985
  259SOL    HW2  777   0.482   2.872   2.909 -0.2602  0.9309 -2.4994
  260SOL     OW  778   2.718   0.756   2.738 -0.0357 -0.0305  0.5102
  260SOL    HW1  779   2.624   0.806   2.719 -0.4876 -1.3483  1.6026
  260SOL    HW2  780   2.697   0.653   2.756  0.3263  0.0595  1.4745
  261SOL     OW  781   2.702   1.310   1.301 -0.2640 -0.5982 -0.4373
  261SOL    HW1  782   2.667   1.236   1.241  0.5341  1.5516  0.8768
  261SOL    HW2  783   2.795   1.282   1.339 -1.3644  1.6235 -0.7145
  262SOL     OW  784   1.374   2.978   2.077 -0.0406 -0.1005  0.3956
  262SOL    HW1  785   1.418   3.061   2.026  1.0811  0.7563 -0.0128
  262SOL    HW2  786   1.279   2.969   2.043  1.7442 -0.3418 -0.0936
  263SOL     OW  787   0.804   0.651   2.257 -0.1092 -0.7164  0.1613
  263SOL    HW1  788   0.742   0.573   2.223  0.3818 -0.1955  1.4157
  263SOL    HW2  789   0.814   0.732   2.194  0.7550  1.1695 -1.4069
  264SOL     OW  790   2.274   0.805   0.363  0.0244 -0.1207 -0.2384
  264SOL    HW1  791   2.278   0.744   0.276 -0.2785 -1.1232 -3.2637
  264SOL    HW2  792   2.367   0.825   0.406  0.1669  0.8213  1.9919
  265SOL     OW  793   0.930   2.382   2.606  0.2413  0.8221 -0.3922
  265SOL    HW1  794   0.982   2.453   2.653 -1.2049 -1.5515 -2.2459
  265SOL    HW2  795   0.873   2.320   2.673 -0.0922 -1.2612 -0.3218
  266SOL     OW  796   1.308   1.765   3.056 -0.5118  0.1986 -0.3555
  266SOL    HW1  797   1.313   1.795   3.154  2.1259  0.0351 -0.1060
  266SOL    HW2  798   1.395   1.774   3.007 -1.3225 -1.0635 -0.9907
  267SOL     OW  799   1.054   0.045   2.295 -0.0999  0.1249  0.7824
  267SOL    HW1  800   0.963  -0.008   2.269 -2.4951 -0.4942 -0.8387
  267SOL    HW2  801   1.111   0.086   2.218 -0.8710 -0.9410  0.0240
  268SOL     OW  802   0.826   1.241   1.036  0.3659  0.3641  0.0738
  268SOL    HW1  803   0.801   1.316   1.109  1.5311  1.8682 -0.0887
  268SOL    HW2  804   0.904   1.263   0.975  0.3717 -0.3215  0.1677
  269SOL     OW  805   2.374   2.502   1.634  0.0573  0.5949  0.2686
  269SOL    HW1  806   2.448   2.435   1.659  1.6860  0.2440 -2.3514
  269SOL    HW2  807   2.333   2.552   1.716 -3.3468  1.5383 -1.0574
  270SOL     OW  808   0.161   2.991   2.009 -0.0050  0.0713 -0.2597
  270SOL    HW1  809   0.223   2.949   1.935  0.7781  1.0468 -1.8065
  270SOL    HW2  810   0.111   2.919   2.070  1.1067 -0.0754 -2.3107
  271SOL     OW  811   0.473   1.378   1.136 -0.2972  0.1944  0.0485
  271SOL    HW1  812   0.499   1.287   1.090  3.3062  0.1924 -0.6280
  271SOL    HW2  813   0.401   1.365   1.209  3.6576 -1.3875 -1.3356
  272SOL     OW  814   1.912   3.099   1.937  0.3010  0.2975 -0.0707
  272SOL    HW1  815   1.875   3.015   1.885  1.3214  1.1455 -3.0070
  272SOL    HW2  816   1.907   3.180   1.875 -1.3934 -0.1738 -0.6015
  273SOL     OW  817   1.526   1.483   2.803 -0.5304 -0.0739 -0.1548
  273SOL    HW1  818   1.427   1.471   2.778 -1.6762  3.6623 -0.1268
  273SOL    HW2  819   1.544   1.494   2.903 -0.8079 -1.4768 -0.5182
  274SOL     OW  820   1.103   0.511   2.049 -0.1745  0.1287 -0.9179
  274SOL    HW1  821   1.005   0.484   2.081 -3.8363  0.8639  1.2330
  274SOL    HW2  822   1.174   0.502   2.125 -2.3699 -1.4734  1.6488
  275SOL     OW  823   0.643   2.135   1.928  0.0850  0.5405 -0.9004
  275SOL    HW1  824   0.621   2.231   1.969 -2.8143  1.9030 -0.7465
  275SOL    HW2  825   0.561   2.092   1.884  0.0157 -0.1358  1.6538
  276SOL     OW  826   2.234   0.961   2.813  0.2487 -0.6305  0.7527
  276SOL    HW1  827   2.141   0.989   2.770 -0.8304  0.2705 -0.2788
  276SOL    HW2  828   2.223   0.905   2.899  2.5087  1.5595  3.6125
  277SOL     OW  829   3.089   0.791   0.269  0.0398 -0.0269  0.1946
  277SOL    HW1  830   3.176   0.847   0.252 -0.9265  0.8128  2.3355
  277SOL    HW2  831   3.112   0.706   0.325 -0.2197 -0.3836 -1.9606
  278SOL     OW  832   0.271   0.260   3.060 -0.3754 -0.6691  0.5000
  278SOL    HW1  833   0.350   0.231   3.003 -0.2970 -1.0868  3.0352
  278SOL    HW2  834   0.271   0.365   3.077 -1.2783 -0.4205 -0.6543
  279SOL     OW  835   0.266   0.050   0.907 -0.2979  0.5035 -1.2421
  279SOL    HW1  836   0.299   0.017   1.000 -0.3906 -1.4883  0.2468
  279SOL    HW2  837   0.234  -0.027   0.849 -1.9536  0.9595  3.6303
  280SOL     OW  838   1.636   2.925   2.434 -0.5126  0.0896  0.1443
  280SOL    HW1  839   1.698   2.987   2.483 -0.6673 -0.7943 -0.8859
  280SOL    HW2  840   1.568   2.990   2.378 -3.3044  3.0208  1.6106
  281SOL     OW  841   0.524   0.967   2.265  0.1249  0.0801  0.3538
  281SOL    HW1  842   0.466   0.929   2.190 -1.6573  0.5802  1.2087
  281SOL    HW2  843   0.507   0.926   2.357 -1.2336 -1.1986 -0.4136
  282SOL     OW  844   1.777   2.459   0.510 -0.0874  0.2591 -0.1892
  282SOL    HW1  845   1.734   2.369   0.468  1.1422 -1.5096 -1.2513
  282SOL    HW2  846   1.710   2.538   0.528 -0.7670 -2.6940 -0.1261
  283SOL     OW  847   1.142   0.880   0.727  0.4790  0.2289  0.0939
  283SOL    HW1  848   1.166   0.820   0.810  0.5557 -4.1003 -1.5599
  283SOL    HW2  849   1.138   0.984   0.749  2.8388  1.7009  1.5508
  284SOL     OW  850   2.230   2.821   2.471 -0.3676 -0.0673  0.4184
  284SOL    HW1  851   2.329   2.795   2.438  2.8282  0.1992  2.7039
  284SOL    HW2  852   2.211   2.800   2.572  0.9008  0.6292 -2.3773
  285SOL     OW  853   1.339   0.006   2.589 -0.4623 -0.5018  0.5093
  285SOL    HW1  854   1.369  -0.005   2.489 -2.1306  0.8387 -0.3787
  285SOL    HW2  855   1.294   0.098   2.599 -0.1729  0.0338 -0.7961
  286SOL     OW  856   0.392   0.470   0.716 -0.9485 -0.2853  0.1537
  286SOL    HW1  857   0.379   0.400   0.795 -1.3582 -0.9118 -0.9344
  286SOL    HW2  858   0.380   0.443   0.617 -0.7585  1.6164 -2.6195
  287SOL     OW  859   0.085   1.304   2.635 -0.0709 -0.5311 -0.8301
  287SOL    HW1  860   0.025   1.217   2.653  1.3528  0.5895  0.5768
  287SOL    HW2  861   0.027   1.374   2.590  1.9836 -0.1582  0.3901
  288SOL     OW  862   1.516   2.744   1.652  0.3474 -0.1832 -0.1348
  288SOL    HW1  863   1.570   2.679   1.710 -0.5084  2.2417  3.4610
  288SOL    HW2  864   1.555   2.749   1.554 -1.0024 -0.7321  0.7596
  289SOL     OW  865   0.630   2.766   0.841  0.4604  0.3752 -0.4183
  289SOL    HW1  866   0.647   2.837   0.771  0.4374 -1.1632 -2.7186
  289SOL    HW2  867   0.674   2.780   0.929 -3.7913 -1.9750 -1.6179
  290SOL     OW  868   2.810   1.141   1.727 -0.2539  0.4623  0.3981
  290SOL    HW1  869   2.738   1.066   1.736  1.3124  0.8207  0.9424
  290SOL    HW2  870   2.903   1.113   1.762  1.3802 -3.8520  1.0842
  291SOL     OW  871   1.948   3.071   0.054 -0.1087 -0.1529  0.0668
  291SOL    HW1  872   1.984   3.107   0.148 -1.5356 -0.2080  2.9771
  291SOL    HW2  873   1.985   3.115  -0.033 -0.0574  1.1887 -1.9221
  292SOL     OW  874   2.993   1.152   3.049 -0.0528  0.4219  0.1646
  292SOL    HW1  875   2.923   1.220   3.030  0.0669  0.1893  0.9415
  292SOL    HW2  876   3.082   1.169   2.999 -3.6200  0.6057  1.5710
  293SOL     OW  877   0.570   2.078   0.301 -0.2212 -0.4422 -0.2360
  293SOL    HW1  878   0.534   2.170   0.341  0.7495  0.4064  0.6048
  293SOL    HW2  879   0.674   2.068   0.301  1.3610  0.3378  1.6192
  294SOL     OW  880   1.870   2.349   1.775  0.0338 -0.7910  0.1540
  294SOL    HW1  881   1.922   2.337   1.864  1.6159 -1.1780  0.0414
  294SOL    HW2  882   1.849   2.453   1.757 -1.6377  0.3237 -0.1273
  295SOL     OW  883   1.020   1.035   0.427 -0.1251 -0.0201 -0.3916
  295SOL    HW1  884   1.112   1.067   0.471  1.9191 -1.9075 -0.0598
  295SOL    HW2  885   0.966   0.968   0.478 -0.1343  1.5324 -0.1303
  296SOL     OW  886   1.109   2.154   2.740 -0.5319  0.0852  0.0323
  296SOL    HW1  887   1.007   2.131   2.732 -1.2610  0.8657 -3.0690
  296SOL    HW2  888   1.155   2.148   2.648 -1.4309  1.5404  0.1077
  297SOL     OW  889   1.299   0.535   1.183 -0.3298 -0.2432 -0.3223
  297SOL    HW1  890   1.344   0.502   1.276 -3.0908 -1.3822  0.6728
  297SOL    HW2  891   1.362   0.599   1.126 -1.0082  0.9991 -2.3519
  298SOL     OW  892   0.491   1.334   2.938  0.3040  0.2525 -0.4412
  298SOL    HW1  893   0.452   1.275   3.015 -0.8749  0.3875  1.1503
  298SOL    HW2  894   0.544   1.279   2.865  2.0269 -0.0991 -0.6638
  299SOL     OW  895   0.435   0.208   1.243  0.2462 -0.2628  0.5067
  299SOL    HW1  896   0.387   0.299   1.215 -1.3645 -1.2712  0.5200
  299SOL    HW2  897   0.435   0.186   1.344 -0.5893  2.8059  2.2874
  300SOL     OW  898   1.321   1.791   2.560  0.6257  0.1066  0.2637
  300SOL    HW1  899   1.322   1.715   2.488  0.5745 -0.6430 -2.3545
  300SOL    HW2  900   1.386   1.766   2.640  2.9187 -1.3192  1.9397
  301SOL     OW  901   0.412   0.363   0.455 -0.3879 -0.1194 -0.5197
  301SOL    HW1  902   0.322   0.319   0.432  0.0512 -1.0302  0.7414
  301SOL    HW2  903   0.494   0.305   0.437  0.0839  3.4439  0.1204
  302SOL     OW  904   1.265   2.448   2.282 -0.6261  0.0334  0.5629
  302SOL    HW1  905   1.166   2.443   2.317 -1.1298 -1.3535 -0.9777
  302SOL    HW2  906   1.332   2.400   2.346 -0.3274  4.0085  1.9848
  303SOL     OW  907   0.985   2.418   0.821 -0.6482  0.3353  0.3326
  303SOL    HW1  908   1.034   2.414   0.733  0.3419  2.1277  2.9196
  303SOL    HW2  909   1.016   2.500   0.873  2.2917 -0.5182 -1.7476
  304SOL     OW  910   0.145   1.909   0.670  0.2889 -0.0248  0.0193
  304SOL    HW1  911   0.227   1.897   0.604 -2.0098  1.8438 -1.5053
  304SOL    HW2  912   0.070   1.956   0.627  0.5831  0.3433  0.0242
  305SOL     OW  913   1.589   0.832   0.687  0.1759  0.4743 -0.1657
  305SOL    HW1  914   1.529   0.827   0.599  0.9540  0.7787 -1.1007
  305SOL    HW2  915   1.657   0.755   0.674  1.5650  2.7728  1.4705
  306SOL     OW  916   0.393   1.862   1.963 -0.0748 -0.3405 -0.0765
  306SOL    HW1  917   0.466   1.794   1.950 -1.1286 -0.2115  1.1685
  306SOL    HW2  918   0.396   1.904   2.058  2.0609  0.4034 -0.4777
  307SOL     OW  919   3.013   0.898   2.484 -0.9904  0.3539  0.1143
  307SOL    HW1  920   3.029   0.951   2.574 -1.5385  0.8276 -1.1125
  307SOL    HW2  921   2.963   0.805   2.492 -0.1571 -1.2350  3.1316
  308SOL     OW  922   1.494   2.687   2.818  0.2938 -0.4040  0.4748
  308SOL    HW1  923   1.500   2.652   2.721 -0.5512 -0.6495  0.1178
  308SOL    HW2  924   1.434   2.631   2.874  1.9068 -0.4329 -0.1901
  309SOL     OW  925   1.265   0.173   1.773  0.1621  0.2230  0.1394
  309SOL    HW1  926   1.350   0.115   1.792  1.6171 -0.4261  1.4866
  309SOL    HW2  927   1.236   0.171   1.672  0.1378  1.7344 -1.4348
  310SOL     OW  928   1.456   2.584   0.667  0.1635 -0.3594  0.7763
  310SOL    HW1  929   1.436   2.615   0.757 -0.0618 -1.2541 -1.5879
  310SOL    HW2  930   1.534   2.642   0.626  1.0931  1.9125 -0.0528
  311SOL     OW  931   1.057   0.984   1.775 -0.3986 -0.0156 -0.6589
  311SOL    HW1  932   1.036   0.905   1.837 -0.3507 -0.1212 -0.0043
  311SOL    HW2  933   1.105   0.952   1.690 -0.4983 -3.0379 -0.1915
  312SOL     OW  934   1.540   0.646   1.048  0.5153 -0.5184 -0.0237
  312SOL    HW1  935   1.540   0.751   1.051 -2.9396 -0.0019 -0.4842
  312SOL    HW2  936   1.491   0.607   0.969  2.5075 -0.0046  0.2105
  313SOL     OW  937   1.645   1.249   0.774  0.0564 -0.5671 -0.0599
  313SOL    HW1  938   1.563   1.267   0.837 -1.2960 -0.9581 -0.3878
  313SOL    HW2  939   1.617   1.209   0.683 -2.3420  3.1923  1.2367
  314SOL     OW  940   2.957   3.078   3.094 -0.1088  0.0745 -0.2209
  314SOL    HW1  941   2.985   3.104   3.191  0.4119  0.2869 -1.3209
  314SOL    HW2  942   2.879   3.017   3.095  0.6583  1.1419  0.2746
  315SOL     OW  943   1.178   0.201   2.794 -0.0310  0.2089 -0.2410
  315SOL    HW1  944   1.103   0.191   2.723 -1.3949 -0.9166  0.3628
  315SOL    HW2  945   1.173   0.129   2.870  0.3302 -0.4896 -2.5713
  316SOL     OW  946   1.716   2.091   0.885  0.2381  0.4559 -0.1713
  316SOL    HW1  947   1.642   2.071   0.954 -1.1301 -3.9308  1.1946
  316SOL    HW2  948   1.722   2.185   0.842  1.2049 -2.4457 -1.2000
  317SOL     OW  949   1.182   0.683   2.782 -0.2923  0.4415 -0.2672
  317SOL    HW1  950   1.142   0.715   2.872 -0.5385 -0.9287  1.5792
  317SOL    HW2  951   1.129   0.606   2.740  0.0144 -0.3159  1.1754
  318SOL     OW  952   1.442   3.084   2.317  0.7249 -0.7101  0.1473
  318SOL    HW1  953   1.442   3.185   2.300 -2.7153  0.1975  1.1088
  318SOL    HW2  954   1.436   3.026   2.234 -0.8291  0.4403 -1.0672
  319SOL     OW  955   0.676   2.390   3.005  0.1311 -0.1373  0.5021
  319SOL    HW1  956   0.652   2.316   3.078 -0.6888 -0.7045 -0.1048
  319SOL    HW2  957   0.730   2.346   2.926 -1.5074  1.1956  0.4541
  320SOL     OW  958   1.679   2.223   0.409  0.0946 -0.3206  0.2722
  320SOL    HW1  959   1.750   2.148   0.419 -0.7180  2.8946 -2.0633
  320SOL    HW2  960   1.586   2.211   0.444  2.4207  2.5312  1.4653
  321SOL     OW  961   1.694   2.718   0.552  0.4730 -0.4416  0.3932
  321SOL    HW1  962   1.649   2.788   0.492  2.2608 -0.2417 -0.7217
  321SOL    HW2  963   1.797   2.734   0.560 -2.7126  1.3008 -0.1770
  322SOL     OW  964   2.588   1.131   2.320 -0.7927  0.3960 -0.4984
  322SOL    HW1  965   2.667   1.112   2.392 -0.4082 -0.8392  1.4943
  322SOL    HW2  966   2.562   1.048   2.262  1.7368  2.5344  0.6978
  323SOL     OW  967   1.152   2.674   0.800 -0.2833 -0.0549  0.2589
  323SOL    HW1  968   1.149   2.594   0.729  1.0550 -2.3298 -3.2700
  323SOL    HW2  969   1.127   2.768   0.765 -0.2877 -1.7411 -2.0335
  324SOL     OW  970   0.182   2.531   2.440 -0.2916 -0.1629 -0.2390
  324SOL    HW1  971   0.107   2.490   2.498 -1.0111 -0.1314 -0.8996
  324SOL    HW2  972   0.219   2.619   2.485 -1.0703  1.2433  1.8579
  325SOL     OW  973   1.257   3.084   0.461 -0.0822  0.1324 -0.7901
  325SOL    HW1  974   1.226   3.114   0.368 -0.5338 -0.5513 -0.5234
  325SOL    HW2  975   1.305   3.157   0.518 -1.5862 -0.3256  4.5640
  326SOL     OW  976   2.500   0.820   3.079  0.0161  1.2202  0.5853
  326SOL    HW1  977   2.480   0.780   2.984  0.7496  1.5104 -1.0942
  326SOL    HW2  978   2.546   0.749   3.142 -1.8202  0.1123 -1.2843
  327SOL     OW  979   2.846   0.274   0.558  0.0304  0.5118  0.5080
  327SOL    HW1  980   2.854   0.233   0.461  0.1125  0.1898  0.4293
  327SOL    HW2  981   2.849   0.194   0.628  2.1174  0.8778 -3.3779
  328SOL     OW  982   2.571   0.666   0.407 -0.1282 -0.3961 -0.1732
  328SOL    HW1  983   2.646   0.708   0.466  0.7098 -0.8924 -2.1102
  328SOL    HW2  984   2.550   0.571   0.440  1.6997 -0.5138  0.1889
  329SOL     OW  985   2.928   3.036   2.170 -0.1326 -0.3859  0.7188
  329SOL    HW1  986   3.018   3.002   2.204  0.0040 -1.6105 -1.7095
  329SOL    HW2  987   2.934   3.136   2.149 -0.6783 -2.6682  0.9893
  330SOL     OW  988   0.522   0.206   1.860  0.3461 -0.5697 -0.0715
  330SOL    HW1  989   0.602   0.265   1.831 -1.7747  2.7772  0.6973
  330SOL    HW2  990   0.536   0.170   1.962 -0.7030 -1.2882  0.1953
  331SOL     OW  991   3.042   1.914   1.145  0.5129 -0.8585 -0.0428
  331SOL    HW1  992   3.022   1.911   1.045 -0.7004  0.5729  3.0410
  331SOL    HW2  993   2.976   1.851   1.192 -0.0536  1.9200  0.4736
  332SOL     OW  994   0.393   1.201   0.067 -0.3092 -0.3710 -0.1409
  332SOL    HW1  995   0.335   1.116   0.042 -2.2148 -1.1993  1.5995
  332SOL    HW2  996   0.350   1.264   0.137 -0.8457  0.5583  1.4139
  333SOL     OW  997   2.878   0.956   0.360 -0.1211 -0.4774 -0.3335
  333SOL    HW1  998   2.917   1.045   0.405 -0.4728  1.2667  1.8683
  333SOL    HW2  999   2.956   0.879   0.336  1.2544 -2.2834  2.7427
  334SOL     OW 1000   1.746   1.150   1.726  0.0600 -0.4102 -0.8826
  334SOL    HW1 1001   1.808   1.168   1.646  0.9648  0.3530  0.3179
  334SOL    HW2 1002   1.785   1.155   1.820  1.0257  2.8274 -0.4830
  335SOL     OW 1003   1.876   2.802   2.637 -0.3828 -0.3178  0.1922
  335SOL    HW1 1004   1.828   2.777   2.727  0.9655  1.3924  1.7256
  335SOL    HW2 1005   1.947   2.872   2.655  0.2751 -3.4935 -2.5923
  336SOL     OW 1006   0.267   0.017   2.704  0.2752  0.3658  0.2982
  336SOL    HW1 1007   0.342   0.026   2.774  2.9620  2.2845  1.2200
  336SOL    HW2 1008   0.201  -0.059   2.729  1.2538  0.3199  1.9728
  337SOL     OW 1009   0.908   2.868   2.963 -0.2910 -0.2872  0.0496
  337SOL    HW1 1010   0.901   2.784   3.033 -2.5861 -2.8126  1.1780
  337SOL    HW2 1011   0.997   2.918   2.967 -4.6863 -1.5712  0.9288
  338SOL     OW 1012   3.090   0.913   0.690 -0.2189  0.1997  0.2668
  338SOL    HW1 1013   2.999   0.896   0.731  0.6593  1.1445  3.1090
  338SOL    HW2 1014   3.101   1.016   0.676  0.6093 -0.9637  0.4867
  339SOL     OW 1015   1.732   1.307   2.166  0.3485 -0.3097  0.3380
  339SOL    HW1 1016   1.661   1.354   2.105  5.5941  1.6987  0.1766
  339SOL    HW2 1017   1.783   1.386   2.212 -2.9879 -1.1470 -1.2312
  340SOL     OW 1018   2.233   0.811   1.107 -0.1583  0.0320 -0.9262
  340SOL    HW1 1019   2.139   0.853   1.127 -3.3396 -1.3841 -0.0673
  340SOL    HW2 1020   2.221   0.725   1.056  0.0722 -1.4436  1.8824
  341SOL     OW 1021   1.923   2.086   0.387  0.0681  0.5107 -0.0339
  341SOL    HW1 1022   1.954   2.102   0.286 -0.2983 -1.8406 -0.6270
  341SOL    HW2 1023   1.979   2.142   0.452  0.0098 -0.5128 -2.8242
  342SOL     OW 1024   2.177   2.103   2.707  0.1039 -0.1822  0.2492
  342SOL    HW1 1025   2.227   2.021   2.739 -0.4534  1.0283 -1.2145
  342SOL    HW2 1026   2.078   2.084   2.681  1.8551  0.9573  1.4294
  343SOL     OW 1027   0.365   0.839   2.761  0.0971  0.6784  0.3793
  343SOL    HW1 1028   0.378   0.893   2.675  1.2401  1.1206  0.5845
  343SOL    HW2 1029   0.452   0.841   2.816  2.5344  0.8303  0.9117
  344SOL     OW 1030   1.956   1.485   0.400  0.0076 -0.1322 -0.3338
  344SOL    HW1 1031   1.960   1.398   0.345 -1.4151 -1.0165  1.9958
  344SOL    HW2 1032   1.867   1.495   0.453 -0.8851  1.6354  0.3758
  345SOL     OW 1033   1.364   2.192   2.839 -0.4947 -0.1690 -0.4368
  345SOL    HW1 1034   1.261   2.190   2.830  1.3214  1.3642  3.0285
  345SOL    HW2 1035   1.411   2.142   2.756  1.6012 -1.1141 -0.8339
  346SOL     OW 1036   2.318   0.881   1.394 -0.1828 -0.2650  0.0469
  346SOL    HW1 1037   2.229   0.902   1.447 -1.3535 -3.2368  1.4766
  346SOL    HW2 1038   2.304   0.833   1.302 -2.5760  2.1093 -1.9442
  347SOL     OW 1039   0.694   2.776   1.653  0.2019 -0.2065 -0.2376
  347SOL    HW1 1040   0.784   2.821   1.616  2.0392  1.7254  2.2560
  347SOL    HW2 1041   0.612   2.825   1.620  1.7261 -0.0826  1.0120
  348SOL     OW 1042   0.187   0.707   2.930 -0.1371 -0.3360 -0.0656
  348SOL    HW1 1043   0.094   0.746   2.905 -2.6736 -2.2608  2.1306
  348SOL    HW2 1044   0.257   0.727   2.853 -0.2096 -0.4269 -0.6647
  349SOL     OW 1045   1.864   0.417   2.814 -0.3565 -0.1751  0.3054
  349SOL    HW1 1046   1.823   0.495   2.757 -0.0014 -2.3896 -0.8079
  349SOL    HW2 1047   1.830   0.421   2.910 -1.8204  1.3916  0.1159
  350SOL     OW 1048   1.692   0.386   0.375  0.0477  0.4115  0.0700
  350SOL    HW1 1049   1.755   0.389   0.457 -0.1078 -1.6642  1.6795
  350SOL    HW2 1050   1.657   0.480   0.353 -1.4282 -2.3366 -0.6053
  351SOL     OW 1051   0.845   0.857   2.074 -0.8594 -0.3092 -0.0071
  351SOL    HW1 1052   0.881   0.954   2.088 -0.6766  2.7575  4.9373
  351SOL    HW2 1053   0.900   0.805   2.001 -1.6150  1.1540  0.2101
  352SOL     OW 1054   2.069   1.332   0.597 -0.4040  0.3087 -0.6300
  352SOL    HW1 1055   2.038   1.422   0.556 -1.9715 -1.4081 -2.4283
  352SOL    HW2 1056   1.989   1.289   0.651  1.7965 -2.0571 -0.4206
  353SOL     OW 1057   2.187   2.760   1.099  0.2016 -0.2034  0.0973
  353SOL    HW1 1058   2.257   2.696   1.131  0.6314 -0.6399  0.0290
  353SOL    HW2 1059   2.146   2.819   1.170  1.8063  2.5426  0.0002
  354SOL     OW 1060   0.201   1.453   2.891 -0.3181  0.2472  0.1527
  354SOL    HW1 1061   0.174   1.529   2.825 -2.9599 -0.9589  0.3544
  354SOL    HW2 1062   0.302   1.446   2.913  0.8604  2.1881  1.7424
  355SOL     OW 1063   0.691   1.543   0.584  0.0291 -0.2536  0.2992
  355SOL    HW1 1064   0.669   1.507   0.680  0.5591 -0.3640 -0.1765
  355SOL    HW2 1065   0.618   1.512   0.513  0.1326  1.0268 -2.5812
  356SOL     OW 1066   0.935   0.297   2.108  0.2724 -0.1736  0.8040
  356SOL    HW1 1067   1.023   0.246   2.093  0.5619 -0.2975 -0.7337
  356SOL    HW2 1068   0.872   0.292   2.021 -0.9345  0.4485  0.1812
  357SOL     OW 1069   1.025   1.369   0.228 -0.4984  0.2967 -0.9071
  357SOL    HW1 1070   1.100   1.369   0.156  1.9421 -2.2677  1.9271
  357SOL    HW2 1071   1.048   1.297   0.302  0.9713  3.0012 -0.2432
  358SOL     OW 1072   1.695   1.457   0.527  0.1913 -0.1520 -0.4011
  358SOL    HW1 1073   1.694   1.367   0.584  1.2460  0.6934 -0.8725
  358SOL    HW2 1074   1.657   1.447   0.428  1.1456  0.6012 -0.9000
  359SOL     OW 1075   1.599   2.579   0.250 -0.4567  0.0735 -0.6892
  359SOL    HW1 1076   1.598   2.485   0.202 -0.8282 -0.1866 -1.0654
  359SOL    HW2 1077   1.515   2.597   0.305  0.5348 -0.6185 -1.3948
  360SOL     OW 1078   0.801   0.447   0.587 -0.4077 -0.1222  0.0310
  360SOL    HW1 1079   0.695   0.467   0.583 -0.7657 -0.1239 -1.5151
  360SOL    HW2 1080   0.818   0.348   0.569  0.3034  3.3985 -1.0455
  361SOL     OW 1081   1.365   1.326   0.621 -0.4724 -0.2016  0.2344
  361SOL    HW1 1082   1.384   1.313   0.726  0.8642 -0.2750  1.4667
  361SOL    HW2 1083   1.273   1.366   0.603  1.1846  1.2468  0.3589
  362SOL     OW 1084   1.352   1.827   0.717  0.4343 -0.2481 -0.4654
  362SOL    HW1 1085   1.402   1.757   0.774 -0.4348  0.6973 -1.5340
  362SOL    HW2 1086   1.366   1.812   0.615  0.8384  2.1384 -0.0334
  363SOL     OW 1087   1.307   1.318   2.082 -0.0677  0.3659 -0.6235
  363SOL    HW1 1088   1.392   1.373   2.068  0.9701 -1.0224 -1.6652
  363SOL    HW2 1089   1.248   1.352   2.158  2.2032  0.2610  1.0866
  364SOL     OW 1090   0.539   2.370   2.022 -0.1733 -0.0219 -0.9981
  364SOL    HW1 1091   0.438   2.364   2.042 -0.4793 -0.1238  0.7100
  364SOL    HW2 1092   0.559   2.428   1.938  1.7196 -2.3373 -2.3761
  365SOL     OW 1093   0.923   1.956   1.389 -0.3571  0.1617  0.6845
  365SOL    HW1 1094   0.850   1.993   1.451 -0.1141  0.8645 -1.8226
  365SOL    HW2 1095   0.924   1.996   1.296 -0.3684  1.6767  2.0700
  366SOL     OW 1096   2.777   1.947   0.259 -0.3193  0.2128 -0.7976
  366SOL    HW1 1097   2.705   1.874   0.234 -0.8966 -0.0964  0.7615
  366SOL    HW2 1098   2.874   1.915   0.229 -1.7848 -1.1065 -1.3023
  367SOL     OW 1099   0.883   1.148  -0.004 -0.1846 -0.6963 -0.4753
  367SOL    HW1 1100   0.878   1.081   0.079 -0.3457 -3.6847 -2.2176
  367SOL    HW2 1101   0.964   1.217  -0.000  0.7918 -1.8802  3.4632
  368SOL     OW 1102   1.463   0.573   0.557  0.2709 -0.7686 -0.3043
  368SOL    HW1 1103   1.356   0.591   0.557 -2.5538  0.1095  0.0153
  368SOL    HW2 1104   1.518   0.609   0.474  2.3701 -0.2890 -0.4635
  369SOL     OW 1105   0.408   1.592   0.152  0.1954 -0.5831  0.0759
  369SOL    HW1 1106   0.446   1.652   0.227  0.4545 -4.6807 -0.1588
  369SOL    HW2 1107   0.314   1.557   0.186 -0.0824 -3.7072  2.1912
  370SOL     OW 1108   0.390   2.185   1.082  0.2032 -0.5374 -0.1055
  370SOL    HW1 1109   0.411   2.276   1.039  0.5766  1.3572 -1.6970
  370SOL    HW2 1110   0.308   2.138   1.040  0.7850  1.4061 -0.8274
  371SOL     OW 1111   2.925   2.227   2.739 -0.1876  0.1437  0.5172
  371SOL    HW1 1112   2.987   2.142   2.755  1.6630  0.2448 -1.4863
  371SOL    HW2 1113   2.924   2.289   2.823  1.4228 -3.2393  1.0993
  372SOL     OW 1114   1.048   2.060   1.138 -0.1080 -0.2670 -0.1188
  372SOL    HW1 1115   0.968   2.089   1.080  0.2235  0.7660 -0.9178
  372SOL    HW2 1116   1.099   2.141   1.179 -2.1678 -0.5692  0.6496
  373SOL     OW 1117   1.907   1.935   1.009  0.6181 -0.2456  0.3597
  373SOL    HW1 1118   1.992   1.971   1.059  1.3668 -1.0904  0.5986
  373SOL    HW2 1119   1.863   2.015   0.960  0.5052 -3.0367  3.0421
  374SOL     OW 1120   1.868   0.406   0.564  0.3390 -0.1079 -0.0839
  374SOL    HW1 1121   1.834   0.353   0.651 -1.5453 -2.8844 -0.2606
  374SOL    HW2 1122   1.958   0.380   0.523 -1.5708 -0.1434  1.8168
  375SOL     OW 1123   2.419   2.196   1.090  0.5613 -0.6294  0.3014
  375SOL    HW1 1124   2.461   2.253   1.018  1.2684 -0.7404  1.6884
  375SOL    HW2 1125   2.491   2.158   1.154 -2.9302  0.5030 -0.1226
  376SOL     OW 1126   0.006   0.651   1.402 -0.2373 -0.1333  0.3268
  376SOL    HW1 1127   0.070   0.695   1.471 -1.6696  1.2882 -0.1437
  376SOL    HW2 1128  -0.059   0.585   1.451  4.3079 -0.1841 -2.5441
  377SOL     OW 1129   2.172   2.913   0.234  0.0531  0.7272 -0.0673
  377SOL    HW1 1130   2.184   3.005   0.280 -2.1100  1.5768 -1.0865
  377SOL    HW2 1131   2.253   2.846   0.246  1.1090  2.7633  0.0018
  378SOL     OW 1132   1.830   1.904   2.436  1.0687  0.1288 -0.3653
  378SOL    HW1 1133   1.892   1.893   2.350  3.3377  2.2322 -1.3436
  378SOL    HW2 1134   1.795   1.813   2.470  0.8691  1.0977  1.1171
  379SOL     OW 1135   0.745   0.126   2.825  0.7044  0.0317 -0.4292
  379SOL    HW1 1136   0.792   0.038   2.788  0.6057 -1.5036  1.3019
  379SOL    HW2 1137   0.758   0.201   2.761 -0.8308 -1.2379  3.5179
  380SOL     OW 1138   1.558   1.157   0.497  0.1129  0.1144  0.0227
  380SOL    HW1 1139   1.485   1.219   0.529 -2.2066  0.9630 -0.9061
  380SOL    HW2 1140   1.529   1.065   0.457  1.6784 -0.2940  1.6414
  381SOL     OW 1141   1.290   1.212   1.533  0.2043 -0.2287 -0.7461
  381SOL    HW1 1142   1.338   1.145   1.464 -0.3678  3.6259 -2.4966
  381SOL    HW2 1143   1.364   1.264   1.583 -0.2110 -0.2377 -0.1474
  382SOL     OW 1144   1.823   0.872   0.264  0.2122 -0.5959  0.1648
  382SOL    HW1 1145   1.876   0.814   0.195  1.9520  0.4836 -0.3189
  382SOL    HW2 1146   1.872   0.871   0.355 -0.3588  1.5183  1.8483
  383SOL     OW 1147   2.536   1.006   1.462  0.1312  0.1100 -0.2927
  383SOL    HW1 1148   2.442   0.970   1.439  0.9935  1.7659  2.3923
  383SOL    HW2 1149   2.600   0.997   1.388 -0.8466 -0.6235 -0.7587
  384SOL     OW 1150   0.882   2.299   0.193  0.4219  0.4082 -0.1145
  384SOL    HW1 1151   0.825   2.384   0.221  1.3932  0.0735  0.5059
  384SOL    HW2 1152   0.907   2.239   0.274 -1.2531  0.3181  0.1230
  385SOL     OW 1153   2.963   2.078   1.678 -0.1689  0.4500 -0.5414
  385SOL    HW1 1154   3.041   2.137   1.711  1.3763  1.4709  1.3829
  385SOL    HW2 1155   2.987   1.976   1.694  1.2694  0.6194  1.7117
  386SOL     OW 1156   0.476   1.038   0.448 -0.3425 -0.4859 -0.2352
  386SOL    HW1 1157   0.432   0.955   0.502 -2.7855  0.8437  0.6651
  386SOL    HW2 1158   0.408   1.106   0.416 -1.4307 -0.5239  1.9527
  387SOL     OW 1159   1.005   0.374   1.688  0.8683 -0.1325 -0.1678
  387SOL    HW1 1160   1.064   0.460   1.674 -0.3992  2.9325 -2.2754
  387SOL    HW2 1161   1.004   0.316   1.602 -2.0399 -1.5373  1.8245
  388SOL     OW 1162   1.221   2.676   1.718 -0.5759 -0.0036  0.0773
  388SOL    HW1 1163   1.274   2.730   1.646  1.2144 -2.2499  0.6556
  388SOL    HW2 1164   1.282   2.636   1.797 -0.3828  0.2526 -0.7944
  389SOL     OW 1165   0.151   2.948   1.364  0.5292 -0.8027 -0.3396
  389SOL    HW1 1166   0.056   2.918   1.332 -0.5171 -1.8836  0.8357
  389SOL    HW2 1167   0.196   2.875   1.420 -0.3084  1.6853  0.2843
  390SOL     OW 1168   1.039   0.932   1.394 -0.3749 -0.2492  0.4236
  390SOL    HW1 1169   1.122   0.901   1.452  2.2029 -1.4754 -0.4545
  390SOL    HW2 1170   1.034   1.034   1.389 -0.4615 -1.3060 -0.0215
  391SOL     OW 1171   2.175   1.137   1.082  0.4815  0.0116 -0.3260
  391SOL    HW1 1172   2.109   1.072   1.138 -1.6118 -0.8183  1.6256
  391SOL    HW2 1173   2.189   1.104   0.982 -2.7008 -0.5953  0.7368
  392SOL     OW 1174   0.904   2.645   0.025  0.3116  0.0903  0.3253
  392SOL    HW1 1175   0.987   2.590   0.019 -1.9723  0.4856 -0.2820
  392SOL    HW2 1176   0.833   2.617   0.099 -0.3033  0.9682 -0.2122
  393SOL     OW 1177   0.264   0.601   2.025 -0.0539  0.4875  0.4093
  393SOL    HW1 1178   0.176   0.540   2.036 -3.5969  0.1491 -3.4548
  393SOL    HW2 1179   0.320   0.572   1.942 -0.7747  2.2407 -0.0571
  394SOL     OW 1180   3.029   1.977   2.763 -0.6672 -1.0198 -0.1356
  394SOL    HW1 1181   3.129   1.971   2.789  1.6739  0.2793 -1.1335
  394SOL    HW2 1182   3.006   1.936   2.671 -0.7211 -1.2189  2.7798
  395SOL     OW 1183   1.621   1.948   0.552  0.0344 -0.1238 -0.3060
  395SOL    HW1 1184   1.694   1.878   0.534 -0.7329 -0.2426 -1.8854
  395SOL    HW2 1185   1.601   1.955   0.654  1.8509 -0.7172  1.0928
  396SOL     OW 1186   2.832   1.820   1.297  0.1743  0.3844 -0.2932
  396SOL    HW1 1187   2.789   1.728   1.319  1.2271  0.9696  0.6273
  396SOL    HW2 1188   2.878   1.863   1.377 -0.5173 -0.1766  1.4726
  397SOL     OW 1189   1.036   2.218   0.508 -0.1650 -0.3164  0.0666
  397SOL    HW1 1190   0.936   2.200   0.538 -2.4485 -1.7742 -1.8050
  397SOL    HW2 1191   1.078   2.310   0.533 -1.0514 -0.5003  0.5946
  398SOL     OW 1192   2.127   0.021   1.085 -0.0569  0.0440  0.0605
  398SOL    HW1 1193   2.056  -0.051   1.112 -0.0037 -0.1172  2.4022
  398SOL    HW2 1194   2.087   0.109   1.049  0.1197 -1.0042 -0.2863
  399SOL     OW 1195   3.040   2.473   2.561 -0.0168 -0.1280  0.1494
  399SOL    HW1 1196   2.945   2.462   2.513 -1.9537 -0.6884  0.6472
  399SOL    HW2 1197   3.052   2.406   2.637 -0.2663  4.2237  0.8166
  400SOL     OW 1198   0.752   1.690   1.375 -0.3549 -0.1685  0.1616
  400SOL    HW1 1199   0.679   1.701   1.452 -1.0052  4.3242  1.8465
  400SOL    HW2 1200   0.727   1.746   1.293  0.2060 -0.1918  0.9990
  401SOL     OW 1201   1.888   0.184   1.178  0.1291  0.8757 -0.6402
  401SOL    HW1 1202   1.913   0.172   1.273  1.0328  2.0366 -2.6988
  401SOL    HW2 1203   1.790   0.204   1.165  0.1112  4.2984 -1.6553
  402SOL     OW 1204   1.349   0.191   3.069  0.0251  0.4082  0.6889
  402SOL    HW1 1205   1.448   0.185   3.033  0.3721  2.1908 -0.1321
  402SOL    HW2 1206   1.306   0.280   3.034  1.7402  2.3599 -0.2422
  403SOL     OW 1207   2.278   1.766   0.912  0.2178  0.4764  0.2966
  403SOL    HW1 1208   2.345   1.832   0.868 -1.2570  0.0366 -0.2473
  403SOL    HW2 1209   2.241   1.815   0.990  2.2215 -0.0441 -1.9082
  404SOL     OW 1210   0.200   2.453   2.788 -0.1743  0.3106 -0.2289
  404SOL    HW1 1211   0.303   2.448   2.776  0.8760  0.3035 -2.1358
  404SOL    HW2 1212   0.175   2.549   2.767  0.7959  1.5892  0.9495
  405SOL     OW 1213   0.094   2.470   0.735 -0.4841  0.5800  0.1730
  405SOL    HW1 1214   0.093   2.396   0.661 -2.7335 -1.2743 -2.7972
  405SOL    HW2 1215   0.188   2.513   0.744  3.5938  0.1805  2.3388
  406SOL     OW 1216   0.056   1.570   3.072 -0.0924  0.0078 -0.0906
  406SOL    HW1 1217   0.128   1.525   3.009 -0.9653 -0.6143  2.1559
  406SOL    HW2 1218   0.074   1.555   3.172  0.2236 -0.2001  0.7657
  407SOL     OW 1219   1.548   0.934   0.975  0.4864 -0.6429 -0.1355
  407SOL    HW1 1220   1.542   0.929   0.870  1.7958  0.2089  1.6187
  407SOL    HW2 1221   1.477   1.000   1.019 -4.0128 -0.5548 -1.1142
  408SOL     OW 1222   1.593   2.437   0.979 -0.1731 -0.3805  0.2740
  408SOL    HW1 1223   1.667   2.412   0.910 -0.3580  0.5000  2.0241
  408SOL    HW2 1224   1.535   2.521   0.951 -0.5044  0.0054 -2.0621
  409SOL     OW 1225   0.678   0.761   0.768  0.0867  0.4204 -0.0712
  409SOL    HW1 1226   0.589   0.768   0.711  1.1468 -0.3489 -0.8315
  409SOL    HW2 1227   0.688   0.660   0.798 -0.0695 -0.7996 -0.8419
  410SOL     OW 1228   1.244   2.026   1.400 -0.1921 -0.0844  0.8521
  410SOL    HW1 1229   1.314   1.949   1.385  2.1453 -1.8525 -1.7040
  410SOL    HW2 1230   1.149   1.984   1.392  0.7953  2.0686 -1.1983
  411SOL     OW 1231   2.604   1.848   2.981 -0.4252  0.0310 -0.0861
  411SOL    HW1 1232   2.627   1.945   3.012 -0.2600  0.3090  0.4460
  411SOL    HW2 1233   2.513   1.837   2.934 -1.1989  1.0969  1.3574
  412SOL     OW 1234   1.522   2.472   2.136 -0.1894  0.1013 -0.0505
  412SOL    HW1 1235   1.596   2.501   2.207  1.6062 -2.2060  1.7199
  412SOL    HW2 1236   1.447   2.424   2.188 -1.0916 -1.0490  0.1153
  413SOL     OW 1237   0.010   0.192   2.911  0.3429 -0.0248  0.5602
  413SOL    HW1 1238  -0.059   0.124   2.945  1.1286 -0.3697 -1.4434
  413SOL    HW2 1239   0.098   0.196   2.964 -0.4676 -2.6736 -1.3546
  414SOL     OW 1240   1.835   1.517   1.199 -0.8409 -0.2796 -0.2303
  414SOL    HW1 1241   1.797   1.614   1.194 -0.4059 -1.4327  1.1086
  414SOL    HW2 1242   1.821   1.457   1.114 -0.6338 -1.8704 -2.0829
  415SOL     OW 1243   0.336   2.260   0.704  0.2256 -0.6350 -0.2107
  415SOL    HW1 1244   0.331   2.309   0.792 -3.0869 -3.1243  0.6422
  415SOL    HW2 1245   0.249   2.207   0.676 -2.7190  2.8131  0.1373
  416SOL     OW 1246   0.366   1.043   1.066  0.0078  0.4925  0.1830
  416SOL    HW1 1247   0.317   0.986   0.992  0.4394  0.9843  2.1153
  416SOL    HW2 1248   0.463   1.066   1.037 -0.5986 -1.0256  1.7179
  417SOL     OW 1249   2.292   2.380   2.043  0.0738  0.0330  0.0965
  417SOL    HW1 1250   2.328   2.290   2.083 -2.2877 -1.0571  0.6291
  417SOL    HW2 1251   2.201   2.396   2.081  0.5732  1.5670  1.7416
  418SOL     OW 1252   1.050   0.555   1.335  0.0920 -0.7124  0.3403
  418SOL    HW1 1253   0.964   0.508   1.307 -1.8965  1.3875 -1.9129
  418SOL    HW2 1254   1.130   0.533   1.281  2.0610  3.0093  1.0472
  419SOL     OW 1255   0.944   0.518   2.957 -0.0270  0.7609  0.0589
  419SOL    HW1 1256   0.865   0.537   2.892 -0.8238 -3.0694  1.2515
  419SOL    HW2 1257   0.972   0.598   3.022 -0.6387 -2.3252  0.4996
  420SOL     OW 1258   0.097   2.224   0.565  0.2039 -0.4316 -0.2258
  420SOL    HW1 1259   0.148   2.250   0.482  0.6768 -5.1458 -1.6700
  420SOL    HW2 1260   0.024   2.156   0.539 -1.2682 -1.0048  1.7801
  421SOL     OW 1261   0.333   2.947   0.593  0.1853 -0.0021 -0.0027
  421SOL    HW1 1262   0.325   2.890   0.681  0.9184 -0.5615 -0.2872
  421SOL    HW2 1263   0.394   3.030   0.607 -2.9703  0.8851  0.9083
  422SOL     OW 1264   0.997   2.630   1.042 -0.1049  0.0411 -0.0008
  422SOL    HW1 1265   1.082   2.654   0.991  0.4404  2.8729 -0.7103
  422SOL    HW2 1266   1.005   2.624   1.143 -0.6025  2.7386 -2.9396
  423SOL     OW 1267   0.151   0.742   1.166  0.1366  0.5087  0.0870
  423SOL    HW1 1268   0.084   0.707   1.235 -1.4862  0.0716  1.4147
  423SOL    HW2 1269   0.131   0.834   1.134 -0.1806 -0.1387 -1.2867
  424SOL     OW 1270   1.154   2.170   2.026  0.1761  0.0114 -0.3973
  424SOL    HW1 1271   1.122   2.268   2.027  0.2355 -1.6157 -3.5306
  424SOL    HW2 1272   1.147   2.128   2.119  1.9059  0.3112 -0.6978
  425SOL     OW 1273   1.961   1.347   1.002  0.1357 -0.6674  0.2929
  425SOL    HW1 1274   2.041   1.284   1.026  1.3085 -0.9374 -4.8521
  425SOL    HW2 1275   2.004   1.446   0.995  0.0506 -0.0849  1.3206
  426SOL     OW 1276   1.440   1.613   1.280 -0.3068  0.6384 -1.1688
  426SOL    HW1 1277   1.470   1.693   1.229 -0.3552 -2.5059  1.2277
  426SOL    HW2 1278   1.405   1.629   1.381 -1.4136 -2.2333  1.7073
  427SOL     OW 1279   1.900   2.330   2.040 -0.0143 -0.0928 -0.6346
  427SOL    HW1 1280   1.946   2.272   2.104 -3.3284  0.9218 -1.5431
  427SOL    HW2 1281   1.885   2.427   2.077 -0.4104  0.1179  0.7608
  428SOL     OW 1282   0.814   3.095   0.121  0.1632 -0.6220 -0.1671
  428SOL    HW1 1283   0.837   3.181   0.065  2.5523 -2.6996  0.6310
  428SOL    HW2 1284   0.886   3.024   0.117 -1.3267  3.5719 -0.8739
  429SOL     OW 1285   1.323   0.131   0.226 -0.6830  0.4210  0.2581
  429SOL    HW1 1286   1.414   0.122   0.281 -2.4295 -2.8951  1.5742
  429SOL    HW2 1287   1.338   0.158   0.126 -1.9729  1.0432 -0.8977
  430SOL     OW 1288   2.893   1.389   0.298  0.5118  0.1128 -0.1504
  430SOL    HW1 1289   2.856   1.439   0.217  2.0756 -2.8997  4.1727
  430SOL    HW2 1290   2.882   1.451   0.382  0.2413 -0.0348 -0.7044
  431SOL     OW 1291   2.081   1.585   0.971  0.1008  0.8788 -0.2070
  431SOL    HW1 1292   2.169   1.636   0.972 -0.4040  1.7088 -1.8115
  431SOL    HW2 1293   1.998   1.641   0.938  0.2415 -0.0216  0.2946
  432SOL     OW 1294   2.945   2.154   1.185 -0.2462 -0.2988  0.1391
  432SOL    HW1 1295   3.001   2.069   1.201 -1.2244  0.4813 -1.8918
  432SOL    HW2 1296   2.952   2.232   1.253  1.2400 -0.3602  0.5123
  433SOL     OW 1297   1.854   0.277   0.832 -0.2473 -0.4649  0.6325
  433SOL    HW1 1298   1.767   0.263   0.879  4.7711  1.7443 -3.3916
  433SOL    HW2 1299   1.930   0.316   0.886  1.0949  0.5161 -1.3368
  434SOL     OW 1300   1.563   0.349   0.679  0.4385  0.2556 -0.6170
  434SOL    HW1 1301   1.541   0.439   0.635  0.6896 -2.1707  0.2082
  434SOL    HW2 1302   1.592   0.367   0.777 -1.6025 -1.7014  1.1388
  435SOL     OW 1303   1.534   1.473   2.006  0.8790 -0.4568  0.2603
  435SOL    HW1 1304   1.528   1.523   2.096 -3.9633  0.3190  1.1010
  435SOL    HW2 1305   1.539   1.535   1.926 -0.2087 -0.1894  3.1831
  436SOL     OW 1306   1.716   2.742   2.239  0.0403 -0.1647 -0.2824
  436SOL    HW1 1307   1.665   2.818   2.292 -0.1761  0.8363  1.1451
  436SOL    HW2 1308   1.737   2.663   2.295  0.2667 -0.5519 -1.9949
  437SOL     OW 1309   1.107   2.948   0.924 -0.4575  0.2509  0.2323
  437SOL    HW1 1310   1.025   3.014   0.924 -1.4390  0.1586  1.5043
  437SOL    HW2 1311   1.130   2.914   1.022 -0.8806  0.2993  0.2911
  438SOL     OW 1312   0.998   2.636   1.333 -0.6155  0.1256  0.7249
  438SOL    HW1 1313   1.088   2.686   1.326  5.3909 -3.3995  0.4079
  438SOL    HW2 1314   1.014   2.543   1.370 -2.2378  1.1746  1.1002
  439SOL     OW 1315   0.698   1.793   1.125 -0.4510  0.0254 -1.1754
  439SOL    HW1 1316   0.679   1.891   1.096 -0.2049  0.7973  3.0618
  439SOL    HW2 1317   0.607   1.739   1.137 -0.1754  1.1484 -1.3659
  440SOL     OW 1318   1.068   2.449   1.957  0.0057  0.4485  0.8049
  440SOL    HW1 1319   1.007   2.494   1.888  2.1470 -2.4372  0.5998
  440SOL    HW2 1320   1.163   2.489   1.950  1.0108 -0.9046  1.2165
  441SOL     OW 1321   0.431   2.720   1.519 -0.5669 -0.1766  0.2913
  441SOL    HW1 1322   0.524   2.676   1.501 -1.2426  2.2141 -0.2762
  441SOL    HW2 1323   0.366   2.690   1.447 -1.8862 -0.9159  0.4214
  442SOL     OW 1324   2.242   0.743   2.485 -0.6782 -0.1282  0.0602
  442SOL    HW1 1325   2.258   0.643   2.513  2.1748  0.4970 -1.9035
  442SOL    HW2 1326   2.159   0.792   2.527 -0.9927 -1.3963  1.6461
  443SOL     OW 1327   1.194   2.717   2.162 -0.0190 -0.4186 -0.2615
  443SOL    HW1 1328   1.145   2.743   2.250 -0.7071 -2.6482 -0.0012
  443SOL    HW2 1329   1.229   2.623   2.171 -0.9626  1.6314  1.0783
  444SOL     OW 1330   1.058   1.344   1.573 -0.8937 -0.2575  0.1254
  444SOL    HW1 1331   1.145   1.289   1.556  0.6477  0.8394  1.1004
  444SOL    HW2 1332   1.070   1.445   1.581 -0.5129 -0.9129  1.1163
  445SOL     OW 1333   3.079   2.359   1.939 -0.4937  0.5393  0.1873
  445SOL    HW1 1334   3.083   2.452   1.892  2.0855  0.6240  0.9606
  445SOL    HW2 1335   2.983   2.334   1.971  0.0484 -1.0734  0.7265
  446SOL     OW 1336   0.177   1.913   2.339 -0.0042 -0.2074 -0.2085
  446SOL    HW1 1337   0.133   1.990   2.387  0.0430  1.7778 -2.2260
  446SOL    HW2 1338   0.102   1.861   2.287 -1.2023  1.4193  0.5586
  447SOL     OW 1339   1.229   1.705   1.965 -0.7450  0.2434  0.2297
  447SOL    HW1 1340   1.170   1.770   1.912  1.0098 -0.0982  0.6315
  447SOL    HW2 1341   1.282   1.756   2.038  1.6425 -0.2627  0.5117
  448SOL     OW 1342   0.125   1.478   2.007 -0.5852 -0.4420 -0.6533
  448SOL    HW1 1343   0.119   1.577   1.989  2.3127 -1.1504 -0.5744
  448SOL    HW2 1344   0.099   1.460   2.109 -0.8794 -2.5088  3.2784
  449SOL     OW 1345   2.007   3.004   0.853 -0.1355  0.2180  0.2825
  449SOL    HW1 1346   2.062   3.034   0.934 -1.9197 -2.5604  0.9212
  449SOL    HW2 1347   2.012   2.905   0.839 -0.4426  0.6041  2.1898
  450SOL     OW 1348   2.263   1.349   0.791  0.1106  0.2694  0.9025
  450SOL    HW1 1349   2.259   1.250   0.815 -0.5302 -3.1715 -1.7496
  450SOL    HW2 1350   2.192   1.365   0.721  0.6280 -0.7409  1.5152
  451SOL     OW 1351   1.441   0.028   1.483 -0.1927  0.0132 -0.3938
  451SOL    HW1 1352   1.369   0.100   1.485  1.4215 -0.9498  1.6981
  451SOL    HW2 1353   1.430  -0.038   1.563  1.6976  0.5172 -1.5218
  452SOL     OW 1354   2.636   2.299   2.233  0.6452  0.2789  0.3495
  452SOL    HW1 1355   2.612   2.397   2.236 -0.4461 -2.8042 -2.0662
  452SOL    HW2 1356   2.670   2.263   2.322 -0.1815  3.5062  1.4438
  453SOL     OW 1357   2.433   2.622   3.056  0.1649 -0.6390 -0.4585
  453SOL    HW1 1358   2.338   2.667   3.047 -2.3264 -0.9676  0.4608
  453SOL    HW2 1359   2.441   2.549   2.984 -1.3412 -1.3215 -0.4062
  454SOL     OW 1360   0.977   1.115   2.129  0.4121  0.2124 -0.1366
  454SOL    HW1 1361   0.949   1.182   2.060  0.2640 -3.0586 -0.3756
  454SOL    HW2 1362   1.073   1.082   2.117 -1.0731  1.9870 -0.2693
  455SOL     OW 1363   0.740   2.667   2.863  0.2831 -0.1275  0.4139
  455SOL    HW1 1364   0.764   2.756   2.913 -0.0683  1.1787  0.9496
  455SOL    HW2 1365   0.741   2.583   2.924  2.0509  2.4405 -2.1077
  456SOL     OW 1366   0.528   1.796   0.320 -0.1071 -0.1488 -0.6965
  456SOL    HW1 1367   0.625   1.760   0.289  1.4777  0.4280  0.9704
  456SOL    HW2 1368   0.535   1.898   0.337  3.0247 -1.7257 -0.2634
  457SOL     OW 1369   0.324   2.635   0.746 -0.1017 -0.5084 -0.0553
  457SOL    HW1 1370   0.338   2.629   0.643 -0.1198  0.6778 -0.0464
  457SOL    HW2 1371   0.410   2.630   0.810 -1.8714 -1.8061  3.4679
  458SOL     OW 1372   2.979   2.985   1.260 -0.4744  0.7418  0.0218
  458SOL    HW1 1373   3.047   3.063   1.229 -0.2029  1.6416 -0.1510
  458SOL    HW2 1374   2.946   2.921   1.182  2.7123 -4.7075  4.0469
  459SOL     OW 1375   2.088   2.538   0.933 -0.5300 -0.3021  0.1154
  459SOL    HW1 1376   2.108   2.587   1.024 -0.1494 -1.3597  0.1564
  459SOL    HW2 1377   2.175   2.536   0.871  2.6160 -1.7988  0.2228
  460SOL     OW 1378   1.118   1.932   2.933 -0.4505 -0.0140 -0.2447
  460SOL    HW1 1379   1.167   1.997   2.868  2.4780 -0.4289 -0.5044
  460SOL    HW2 1380   1.185   1.882   3.001 -0.3605  0.9697  5.1048
  461SOL     OW 1381   0.463   2.108   2.684  0.1629 -0.2129  0.2571
  461SOL    HW1 1382   0.418   2.028   2.636 -2.2868 -0.4326 -0.9735
  461SOL    HW2 1383   0.516   2.072   2.767  0.3455 -2.4558  1.3453
  462SOL     OW 1384   0.940   1.216   1.841  0.0246  0.1710 -0.1908
  462SOL    HW1 1385   1.002   1.134   1.824  0.9395 -0.2848  0.7196
  462SOL    HW2 1386   0.922   1.274   1.758  0.3255 -3.5815  4.6346
  463SOL     OW 1387   0.442   0.779   0.612  0.3040 -0.1265 -0.2531
  463SOL    HW1 1388   0.480   0.696   0.560 -2.3978  1.8958 -2.6908
  463SOL    HW2 1389   0.335   0.796   0.603 -0.5254 -0.2805 -0.3840
  464SOL     OW 1390   0.564   2.231   2.268 -0.8273 -0.0306  0.0709
  464SOL    HW1 1391   0.515   2.290   2.339 -1.2778  0.9500  2.2447
  464SOL    HW2 1392   0.575   2.285   2.182 -0.6597  1.2162  1.4557
  465SOL     OW 1393   0.230   0.918   0.844 -0.3540 -0.5824 -0.0843
  465SOL    HW1 1394   0.146   0.924   0.779 -1.9342 -2.1181  0.7182
  465SOL    HW2 1395   0.248   0.816   0.867  0.0376 -2.3085  0.7542
  466SOL     OW 1396   1.388   1.110   1.100 -0.1879  0.3069 -0.6396
  466SOL    HW1 1397   1.452   1.189   1.126  1.6290  0.0356  0.2591
  466SOL    HW2 1398   1.290   1.144   1.093  1.1307 -0.8563 -0.0907
  467SOL     OW 1399   0.461   0.360   2.356 -0.1595 -0.1071  0.2965
  467SOL    HW1 1400   0.454   0.444   2.413  0.9784  0.1904  0.6801
  467SOL    HW2 1401   0.464   0.274   2.417  0.9153  1.5182  0.6971
  468SOL     OW 1402   0.462   2.266   1.660  0.2628 -0.3961 -0.0078
  468SOL    HW1 1403   0.489   2.349   1.715  0.2774 -0.5657 -0.2329
  468SOL    HW2 1404   0.435   2.285   1.560 -0.8859 -1.1032  0.6418
  469SOL     OW 1405   1.528   1.342   1.127  0.4453 -0.5592 -0.4155
  469SOL    HW1 1406   1.617   1.287   1.137  0.5649  1.5922 -0.2704
  469SOL    HW2 1407   1.541   1.430   1.178  2.0992  1.5225 -0.1673
  470SOL     OW 1408   3.020   1.679   0.726 -0.0786 -0.0976 -0.0371
  470SOL    HW1 1409   3.110   1.732   0.743  0.1593 -1.1207  1.8827
  470SOL    HW2 1410   2.940   1.731   0.773 -0.0026  0.3422 -3.7489
  471SOL     OW 1411   2.665   1.306   2.125  0.9895  0.0160 -0.1435
  471SOL    HW1 1412   2.640   1.247   2.207 -1.0333 -1.6479 -0.1491
  471SOL    HW2 1413   2.729   1.387   2.147 -0.0706  0.5392  1.6639
  472SOL     OW 1414   1.102   2.445   3.071 -0.1344  0.5565  0.4614
  472SOL    HW1 1415   1.153   2.459   3.160  1.2344  0.4870  0.3170
  472SOL    HW2 1416   1.060   2.348   3.061  1.2832  0.2270 -0.0022
  473SOL     OW 1417   1.108   1.558   0.906 -0.2990  0.4087 -0.2595
  473SOL    HW1 1418   1.015   1.570   0.955  2.0077  2.1514 -0.7958
  473SOL    HW2 1419   1.184   1.548   0.973 -1.2067 -0.6318  0.9473
  474SOL     OW 1420   0.828   1.224   0.696 -0.2245 -0.0729  0.8643
  474SOL    HW1 1421   0.811   1.208   0.596  2.2780 -0.6412  1.0405
  474SOL    HW2 1422   0.820   1.136   0.748  2.3624  2.2806  1.0042
  475SOL     OW 1423   2.875   0.103   0.761  0.2309 -0.7323  0.2141
  475SOL    HW1 1424   2.969   0.098   0.813 -0.5741  0.2684  1.0502
  475SOL    HW2 1425   2.793   0.112   0.826  1.0943  0.3354  1.1089
  476SOL     OW 1426   0.901   3.048   1.804 -0.1889  0.3603 -0.0266
  476SOL    HW1 1427   0.987   3.030   1.858 -2.1474  1.2217 -1.5895
  476SOL    HW2 1428   0.900   2.991   1.719  0.1962 -1.9493  4.0492
  477SOL     OW 1429   1.418   0.321   2.444 -0.4394  0.1969 -0.3098
  477SOL    HW1 1430   1.402   0.320   2.548 -0.1838 -0.3511 -0.8064
  477SOL    HW2 1431   1.515   0.295   2.419 -0.8916 -1.6321 -0.0497
  478SOL     OW 1432   2.259   1.797   0.220 -0.1387  0.2514  0.3055
  478SOL    HW1 1433   2.200   1.708   0.206  2.3323 -0.3304 -1.7959
  478SOL    HW2 1434   2.356   1.777   0.239 -0.2230 -0.8484  0.3948
  479SOL     OW 1435   1.314   1.040   2.875 -0.0544  0.6601 -0.2308
  479SOL    HW1 1436   1.410   1.022   2.840 -0.0207 -2.7842  3.3635
  479SOL    HW2 1437   1.257   1.072   2.800  3.9266 -0.1008  0.6405
  480SOL     OW 1438   2.475   2.329   0.386 -0.6650  0.2684 -0.2710
  480SOL    HW1 1439   2.428   2.249   0.429  0.4908 -1.3106 -0.5258
  480SOL    HW2 1440   2.420   2.360   0.306  0.1309  0.7562  2.5423
  481SOL     OW 1441   1.118   1.150   0.793  0.4797 -0.1150 -0.7592
  481SOL    HW1 1442   1.046   1.213   0.753  0.6251  1.2966  0.4560
  481SOL    HW2 1443   1.134   1.181   0.892 -3.3679 -0.6224  0.1019
  482SOL     OW 1444   1.606   0.332   2.054  0.1272 -0.6659  0.3335
  482SOL    HW1 1445   1.608   0.425   2.007  0.9851  1.1750 -0.4243
  482SOL    HW2 1446   1.701   0.296   2.066 -4.5428 -0.2199 -2.8507
  483SOL     OW 1447   0.154   2.321   1.273 -0.7360 -0.2648  0.6663
  483SOL    HW1 1448   0.065   2.343   1.322  1.0276  0.1180 -0.6917
  483SOL    HW2 1449   0.165   2.366   1.175  1.8479 -0.3703  0.5874
  484SOL     OW 1450   1.728   0.981   1.404  0.3328  0.2475 -0.2171
  484SOL    HW1 1451   1.810   0.933   1.441 -0.9866 -0.5969  3.1184
  484SOL    HW2 1452   1.740   1.081   1.410 -0.4540  0.6746  0.1040
  485SOL     OW 1453   0.681   1.101   1.786 -0.1037  0.0109  0.1065
  485SOL    HW1 1454   0.705   1.104   1.686 -0.9345  0.0655  3.4604
  485SOL    HW2 1455   0.757   1.151   1.836 -0.3485  1.6501  0.3717
  486SOL     OW 1456   0.937   1.984   2.446 -0.3418 -0.4446 -0.2027
  486SOL    HW1 1457   0.991   1.968   2.532 -2.1552  0.3298 -0.4579
  486SOL    HW2 1458   0.854   2.045   2.470  1.7451 -0.4117  1.7866
  487SOL     OW 1459   1.690   1.512   0.931  0.5305 -0.5498  0.2701
  487SOL    HW1 1460   1.707   1.419   0.901  1.6406  0.9259  1.3928
  487SOL    HW2 1461   1.767   1.568   0.899  0.2126  0.0591  0.1575
  488SOL     OW 1462   2.956   0.967   2.227  0.2586 -0.5446  0.7797
  488SOL    HW1 1463   2.962   0.903   2.148 -1.2374 -0.1592 -1.8515
  488SOL    HW2 1464   2.993   0.925   2.316 -0.1618  1.2879 -0.2564
  489SOL     OW 1465   2.738   0.280   1.337  0.5375 -0.3606 -0.0949
  489SOL    HW1 1466   2.697   0.252   1.428 -0.6209  2.1280 -0.3521
  489SOL    HW2 1467   2.796   0.206   1.299 -2.5332  1.6175  2.5371
  490SOL     OW 1468   1.425   2.971   2.826 -0.2649 -0.2463  0.3056
  490SOL    HW1 1469   1.484   2.887   2.819  0.3346  0.2244  0.8365
  490SOL    HW2 1470   1.374   3.010   2.746 -1.9296 -0.4777 -0.8256
  491SOL     OW 1471   1.856   1.564   2.716  0.3182  0.3448  0.2212
  491SOL    HW1 1472   1.820   1.559   2.813 -0.5713 -0.9169 -1.0657
  491SOL    HW2 1473   1.959   1.535   2.705 -1.1591  4.0501 -3.5638
  492SOL     OW 1474   0.480   2.018   0.769 -0.5079 -0.2278  0.0619
  492SOL    HW1 1475   0.537   2.006   0.856  0.7868 -1.0458 -1.1350
  492SOL    HW2 1476   0.456   2.120   0.752 -0.7267 -0.2289  0.6673
  493SOL     OW 1477   0.419   1.377   2.069  0.1114 -0.2758  0.4621
  493SOL    HW1 1478   0.331   1.395   2.015 -1.5763 -0.0617  2.9156
  493SOL    HW2 1479   0.406   1.325   2.159  1.4347  0.6057  0.5003
  494SOL     OW 1480   2.651   2.677   0.151  0.0393 -0.4226 -0.4336
  494SOL    HW1 1481   2.652   2.615   0.237 -1.7038  1.8748 -0.7982
  494SOL    HW2 1482   2.613   2.627   0.069 -0.8507 -0.5092 -0.1466
  495SOL     OW 1483   2.733   2.671   2.708  0.1414  0.1853 -0.8922
  495SOL    HW1 1484   2.749   2.570   2.720  0.0488 -1.5223 -0.5512
  495SOL    HW2 1485   2.751   2.702   2.611 -0.8453 -3.8740 -0.0995
  496SOL     OW 1486   2.078   2.182   0.738  0.5265  0.6599  0.6009
  496SOL    HW1 1487   2.052   2.192   0.836 -1.6075 -0.0727 -0.5503
  496SOL    HW2 1488   2.136   2.093   0.726  3.2822 -2.3764 -2.1629
  497SOL     OW 1489   0.206   2.974   2.400  0.0075  0.5419  0.2942
  497SOL    HW1 1490   0.154   3.044   2.457  0.4141 -0.0440  1.1083
  497SOL    HW2 1491   0.257   3.012   2.317 -2.3884 -2.4501 -0.0506
  498SOL     OW 1492   1.237   1.457   1.135 -0.2012  0.2214  0.0891
  498SOL    HW1 1493   1.327   1.511   1.157 -0.3001  2.5961 -0.2193
  498SOL    HW2 1494   1.165   1.486   1.204  0.2604  1.2778 -4.1552
  499SOL     OW 1495   0.836   1.842   0.533  0.2935  0.1433  0.6568
  499SOL    HW1 1496   0.793   1.743   0.538 -0.3941  0.8568  0.6613
  499SOL    HW2 1497   0.840   1.885   0.627 -1.2134 -0.7551  0.0307
  500SOL     OW 1498   1.389   2.974   1.711 -0.1250 -0.0123  0.9132
  500SOL    HW1 1499   1.432   3.016   1.796  0.5362 -0.0409 -0.3279
  500SOL    HW2 1500   1.410   2.871   1.697 -1.1440 -1.5845  0.6936
  501SOL     OW 1501   0.729   1.144   2.274 -0.3668  0.1245 -0.0833
  501SOL    HW1 1502   0.641   1.100   2.238 -1.4363  1.6278 -0.7483
  501SOL    HW2 1503   0.809   1.141   2.204  0.5421 -0.6719 -2.4340
  502SOL     OW 1504   2.618   0.969   1.733  0.8754  0.2378  0.1905
  502SOL    HW1 1505   2.583   0.994   1.634  0.6137 -0.7747 -0.7625
  502SOL    HW2 1506   2.560   0.891   1.768 -0.9329  0.3088 -0.7271
  503SOL     OW 1507   1.359   0.198   0.599  0.7668  0.0362  0.2795
  503SOL    HW1 1508   1.274   0.259   0.613 -1.4004  1.3179  0.0023
  503SOL    HW2 1509   1.452   0.247   0.611  1.2058  1.6154  2.1196
  504SOL     OW 1510   2.997   2.349   1.385 -0.1744  0.2190 -0.5612
  504SOL    HW1 1511   2.988   2.426   1.456  1.1657  0.0162  2.8958
  504SOL    HW2 1512   2.935   2.272   1.419  4.2920  3.6681  2.6937
  505SOL     OW 1513   2.282   1.204   1.456 -0.0063  0.5748 -0.0009
  505SOL    HW1 1514   2.276   1.272   1.380  0.2926  1.3778 -0.7223
  505SOL    HW2 1515   2.376   1.215   1.509  3.3862  0.5408  1.0374
  506SOL     OW 1516   1.924   0.249   1.788 -0.8367 -0.3074  0.1761
  506SOL    HW1 1517   2.007   0.191   1.780  0.9488  3.6980  3.2207
  506SOL    HW2 1518   1.950   0.347   1.812 -1.3084 -2.4659  0.7828
  507SOL     OW 1519   0.496   0.642   2.180 -0.3224  0.0265  0.1178
  507SOL    HW1 1520   0.404   0.647   2.137  1.4277 -0.1524  0.5522
  507SOL    HW2 1521   0.555   0.555   2.163 -0.2359  0.3595  1.9286
  508SOL     OW 1522   0.268   1.676   0.882 -0.3787  0.2898 -0.3773
  508SOL    HW1 1523   0.328   1.741   0.833  1.1097 -0.1520  1.9193
  508SOL    HW2 1524   0.250   1.692   0.985  0.4864 -0.6987 -0.4152
  509SOL     OW 1525   1.330   1.188   2.494  0.3804 -0.2662  0.2826
  509SOL    HW1 1526   1.236   1.214   2.535 -2.1913  6.0256  1.4715
  509SOL    HW2 1527   1.332   1.108   2.436 -0.5258 -0.6378  1.0014
  510SOL     OW 1528   1.339   1.974   2.053  0.3657 -0.4165  0.7335
  510SOL    HW1 1529   1.287   2.054   2.020 -2.1197  3.1647  3.4496
  510SOL    HW2 1530   1.294   1.933   2.137  0.7109 -0.3949 -1.2731
  511SOL     OW 1531   0.006   2.643   1.324  0.4347 -0.2984  0.4363
  511SOL    HW1 1532  -0.034   2.601   1.240  0.9792  1.9796  2.0949
  511SOL    HW2 1533  -0.053   2.622   1.407 -1.2459  1.6365  0.5427
  512SOL     OW 1534   2.432   0.431   1.372  0.1535  0.3215 -0.4829
  512SOL    HW1 1535   2.328   0.415   1.369  0.0536 -1.3931 -0.9736
  512SOL    HW2 1536   2.477   0.437   1.281 -3.5068 -1.7724  0.0675
  513SOL     OW 1537   2.465   1.996   0.857  0.2535  0.1018 -0.2181
  513SOL    HW1 1538   2.422   2.085   0.833  0.6166 -0.8046  0.6256
  513SOL    HW2 1539   2.548   1.975   0.797  1.3116  0.9479 -1.6364
  514SOL     OW 1540   0.683   2.779   0.375  0.0409 -0.0641  0.1888
  514SOL    HW1 1541   0.671   2.854   0.300  1.5630  0.7852  0.5150
  514SOL    HW2 1542   0.701   2.826   0.468  2.4265  1.2205 -1.7142
  515SOL     OW 1543   1.997   1.182   2.295 -0.4985  0.0426 -0.0377
  515SOL    HW1 1544   1.940   1.190   2.212  0.7067  2.8393 -0.6119
  515SOL    HW2 1545   1.947   1.188   2.381  2.5324  0.8162  3.0862
  516SOL     OW 1546   0.275   0.291   1.953  0.4507  0.8355 -0.6007
  516SOL    HW1 1547   0.359   0.306   1.899  0.4789 -1.1929 -1.2119
  516SOL    HW2 1548   0.210   0.223   1.907  0.9355  0.0009  1.0605
  517SOL     OW 1549   0.353   3.056   1.178 -0.2263  0.0149  0.5442
  517SOL    HW1 1550   0.374   3.153   1.208 -1.5952 -1.4888 -1.1397
  517SOL    HW2 1551   0.260   3.026   1.222 -0.3214 -0.0073  2.1698
  518SOL     OW 1552   2.140   0.080   1.783 -0.7701  0.8244 -0.7380
  518SOL    HW1 1553   2.229   0.114   1.825  0.6353  2.0482 -1.2159
  518SOL    HW2 1554   2.149  -0.012   1.745  0.1354  1.6295  1.7857
  519SOL     OW 1555   2.405   2.191   2.588  0.1799 -0.6727 -0.1472
  519SOL    HW1 1556   2.328   2.179   2.654  2.9260  0.0438  0.8412
  519SOL    HW2 1557   2.467   2.265   2.626 -0.5699  0.6497 -0.9502
  520SOL     OW 1558   1.780   2.891   1.809 -0.2014  0.0247  0.0340
  520SOL    HW1 1559   1.709   2.885   1.890 -1.8791 -0.3202  0.2762
  520SOL    HW2 1560   1.832   2.799   1.798  1.8550  2.0995  1.6193
  521SOL     OW 1561   0.567   0.101   2.099 -0.5347  0.2866 -0.2123
  521SOL    HW1 1562   0.469   0.087   2.134  1.8756  0.4260 -0.9046
  521SOL    HW2 1563   0.636   0.069   2.173 -0.5938  2.8040  0.0048
  522SOL     OW 1564   0.159   1.906   1.518  0.4438  0.3041  0.6754
  522SOL    HW1 1565   0.211   1.961   1.585  0.0208 -1.7615 -0.5226
  522SOL    HW2 1566   0.157   1.954   1.425  0.5005 -2.1996  0.6921
  523SOL     OW 1567   2.189   2.923   1.611 -0.3087  0.3530 -0.1821
  523SOL    HW1 1568   2.263   2.860   1.564  0.6314 -1.1803  1.6388
  523SOL    HW2 1569   2.096   2.917   1.561 -2.7770 -1.5477  0.8759
  524SOL     OW 1570   0.219   2.743   2.823  0.3801 -0.1625  0.3070
  524SOL    HW1 1571   0.185   2.815   2.885  2.8493 -2.9716  0.2624
  524SOL    HW2 1572   0.325   2.739   2.822 -1.4218 -1.8172 -1.2463
  525SOL     OW 1573   2.185   1.905   0.468 -0.1016 -0.2130 -0.7606
  525SOL    HW1 1574   2.178   1.825   0.534 -0.6683  0.0010 -1.6506
  525SOL    HW2 1575   2.208   1.877   0.376  0.6554  3.2083  0.3990
  526SOL     OW 1576   0.402   1.496   1.603 -0.4009  0.2108 -0.2779
  526SOL    HW1 1577   0.339   1.478   1.684 -1.1134 -1.2102 -0.9019
  526SOL    HW2 1578   0.467   1.416   1.588 -3.1508  0.7128 -1.2641
  527SOL     OW 1579   1.130   2.916   1.227 -0.0779  0.1593 -0.3119
  527SOL    HW1 1580   1.223   2.894   1.262 -1.9797  2.5433 -2.7808
  527SOL    HW2 1581   1.121   3.020   1.220  0.2879  0.7721 -2.0403
  528SOL     OW 1582   1.334   2.393   0.472 -0.1152 -0.7141 -0.7061
  528SOL    HW1 1583   1.355   2.298   0.514 -0.3345 -0.1508 -0.5653
  528SOL    HW2 1584   1.383   2.468   0.521 -0.5980 -1.1878 -0.6427
  529SOL     OW 1585   1.873   1.703   0.829 -0.2572  0.3822 -0.6074
  529SOL    HW1 1586   1.817   1.715   0.742 -0.6759  0.7603  0.3916
  529SOL    HW2 1587   1.867   1.785   0.892 -2.0355  1.9207  0.6728
  530SOL     OW 1588   0.281   2.428   0.333  0.4484  0.2914  0.2728
  530SOL    HW1 1589   0.250   2.513   0.391 -4.1015  3.0175 -0.2500
  530SOL    HW2 1590   0.381   2.402   0.348 -1.2030  2.9715 -0.9710
  531SOL     OW 1591   1.807   0.892   1.045 -0.0748 -0.7408  0.5554
  531SOL    HW1 1592   1.839   0.851   0.960  0.2690 -1.1949 -2.3605
  531SOL    HW2 1593   1.704   0.893   1.052 -0.6297 -4.1405 -0.6540
  532SOL     OW 1594   0.489   1.055   0.745  0.4318  0.5775 -0.3456
  532SOL    HW1 1595   0.511   1.035   0.648  0.4303  0.8861  1.3221
  532SOL    HW2 1596   0.418   0.994   0.788 -0.6019 -0.6928 -0.6743
  533SOL     OW 1597   1.771   0.036   2.566  0.0841  0.0424 -0.1346
  533SOL    HW1 1598   1.871   0.021   2.575 -0.7670  2.6124 -1.7948
  533SOL    HW2 1599   1.741   0.095   2.642  2.4242  0.6135 -1.4146
  534SOL     OW 1600   0.413   0.193   1.542  0.2351 -0.4708 -0.4113
  534SOL    HW1 1601   0.510   0.211   1.579  2.5502  1.6841 -1.0187
  534SOL    HW2 1602   0.362   0.284   1.538 -1.5060 -0.1781  1.6719
  535SOL     OW 1603   1.935   0.378   0.177 -0.2394  0.2985  0.2107
  535SOL    HW1 1604   1.951   0.465   0.237 -2.3217  0.4691  1.7146
  535SOL    HW2 1605   1.927   0.291   0.238 -1.0577 -2.6151 -4.8311
  536SOL     OW 1606   1.390   2.625   0.951 -0.3455  0.1104 -0.5383
  536SOL    HW1 1607   1.369   2.610   1.051  0.6555  1.0697 -0.6925
  536SOL    HW2 1608   1.301   2.644   0.908  1.2798  0.2845  3.8775
  537SOL     OW 1609   0.841   0.272   2.402  0.1743 -0.3722 -0.5286
  537SOL    HW1 1610   0.920   0.313   2.356 -0.8364  0.1848  1.8977
  537SOL    HW2 1611   0.827   0.176   2.376  2.1310  2.8083  0.7660
  538SOL     OW 1612   1.635   2.309   1.337 -0.3165  0.3041 -0.0463
  538SOL    HW1 1613   1.658   2.210   1.350  1.0874  1.2438  0.1249
  538SOL    HW2 1614   1.708   2.366   1.377 -3.0102  1.0358  1.2689
  539SOL     OW 1615   0.142   1.634   2.700 -0.2977 -0.2757  0.0483
  539SOL    HW1 1616   0.078   1.592   2.632 -0.7180  0.1646  0.4326
  539SOL    HW2 1617   0.114   1.730   2.730 -1.4143  0.1471  0.4338
  540SOL     OW 1618   2.678   1.698   1.933 -0.0840 -0.4555  0.2085
  540SOL    HW1 1619   2.611   1.634   1.976 -0.1974 -0.3957 -1.0227
  540SOL    HW2 1620   2.642   1.795   1.917  2.1400 -0.4211 -1.9219
  541SOL     OW 1621   0.569   2.162   0.033 -0.1419  0.0972 -0.3610
  541SOL    HW1 1622   0.587   2.128   0.130  0.1357 -1.1658 -0.8108
  541SOL    HW2 1623   0.467   2.150   0.006 -2.1866 -0.9440 -0.7589
  542SOL     OW 1624   2.233   2.606   0.484  0.1655 -0.0758  0.5784
  542SOL    HW1 1625   2.146   2.660   0.473  0.4843 -0.3756  2.4632
  542SOL    HW2 1626   2.216   2.506   0.469  0.4803  1.6417  0.5448
  543SOL     OW 1627   1.063   1.813   1.567  0.3363  0.1361 -0.2701
  543SOL    HW1 1628   1.067   1.865   1.659 -0.1757  0.8427  3.0822
  543SOL    HW2 1629   1.010   1.864   1.494  2.1789 -1.7544  1.6308
  544SOL     OW 1630   1.109   0.516   0.179  0.0073 -0.0950 -0.0337
  544SOL    HW1 1631   1.106   0.430   0.241  1.3847  2.3370 -0.5090
  544SOL    HW2 1632   1.155   0.489   0.089 -0.3055 -2.0545  1.5674
  545SOL     OW 1633   1.087   1.816   0.790  0.0249  0.0574  0.2648
  545SOL    HW1 1634   1.166   1.846   0.731  0.1375  0.2282  0.8855
  545SOL    HW2 1635   1.101   1.716   0.810 -1.2775  0.9248  0.2329
  546SOL     OW 1636   2.685   1.562   2.999  0.2125  0.4345 -0.5658
  546SOL    HW1 1637   2.641   1.638   2.954  0.4548 -0.2337  0.7599
  546SOL    HW2 1638   2.610   1.498   3.032 -1.8191  0.3568 -0.0862
  547SOL     OW 1639   0.637   3.045   2.522  0.6365  1.2665 -0.5348
  547SOL    HW1 1640   0.693   3.028   2.606 -1.8845  0.7747 -2.1570
  547SOL    HW2 1641   0.552   2.985   2.516 -1.7861 -1.0919  0.7122
  548SOL     OW 1642   2.055   0.800   3.068  0.4548 -0.1713  0.3983
  548SOL    HW1 1643   1.951   0.777   3.066 -0.5728 -1.2868 -0.6179
  548SOL    HW2 1644   2.069   0.900   3.095  0.6501  0.6221 -0.3936
  549SOL     OW 1645   0.685   0.581   0.208  0.4888 -0.0432  0.4726
  549SOL    HW1 1646   0.634   0.610   0.121  1.4201  3.0219 -0.1413
  549SOL    HW2 1647   0.745   0.653   0.233  1.2324 -0.7677 -0.5917
  550SOL     OW 1648   2.569   2.830   2.882  0.1046  0.2688 -0.3445
  550SOL    HW1 1649   2.518   2.757   2.929  0.6434  2.2471  0.1125
  550SOL    HW2 1650   2.636   2.784   2.817 -1.0570  0.0589  0.3409
  551SOL     OW 1651   0.231   0.893   0.258  0.8525 -0.0133  0.0309
  551SOL    HW1 1652   0.327   0.916   0.229  0.0851  0.3128 -1.8354
  551SOL    HW2 1653   0.208   0.893   0.362 -2.9094  0.4259  0.2841
  552SOL     OW 1654   0.625   2.995   1.937 -1.0194  0.5398  0.9465
  552SOL    HW1 1655   0.592   3.075   1.996 -2.5102  0.3538 -0.0405
  552SOL    HW2 1656   0.724   2.998   1.915  0.1329  0.4315  2.2675
  553SOL     OW 1657   2.932   2.408   0.329  0.3340 -0.4512  0.2375
  553SOL    HW1 1658   2.922   2.307   0.345  2.7585  1.9149 -0.8556
  553SOL    HW2 1659   2.847   2.464   0.328 -0.8935  2.6643  1.0007
  554SOL     OW 1660   2.121   0.356   0.474  0.4111  0.4199 -0.1140
  554SOL    HW1 1661   2.199   0.353   0.403  2.3330 -0.6515  2.0219
  554SOL    HW2 1662   2.140   0.304   0.560  0.2882  0.4839  2.3198
  555SOL     OW 1663   0.439   2.844   2.496  0.0760 -0.1141 -0.0564
  555SOL    HW1 1664   0.351   2.900   2.473  3.4215 -2.4320 -2.2359
  555SOL    HW2 1665   0.481   2.794   2.417 -0.2467  0.5965 -0.2209
  556SOL     OW 1666   0.853   2.432   1.598 -0.0298  0.6859  0.3108
  556SOL    HW1 1667   0.891   2.496   1.671  0.0864 -4.0636 -0.9378
  556SOL    HW2 1668   0.927   2.394   1.535  0.3936  2.0074  0.1504
  557SOL     OW 1669   0.181   2.052   0.239  0.3173  0.6319 -0.0326
  557SOL    HW1 1670   0.118   2.009   0.175  1.5967  1.4044  0.1875
  557SOL    HW2 1671   0.249   2.111   0.192  0.5434  1.7114 -0.8788
  558SOL     OW 1672   2.775   2.169   0.423  0.7174 -0.2169 -0.1436
  558SOL    HW1 1673   2.691   2.229   0.427  1.6118 -1.1758 -2.0666
  558SOL    HW2 1674   2.754   2.086   0.360  1.9617  1.0352  2.5988
  559SOL     OW 1675   0.394   2.339   1.400 -0.0691 -0.0071  0.3236
  559SOL    HW1 1676   0.322   2.382   1.334 -1.0444  0.6402  0.0449
  559SOL    HW2 1677   0.453   2.267   1.353 -3.1157  0.7816  2.4035
  560SOL     OW 1678   2.134   1.070   3.071 -0.1386 -0.5298 -0.4249
  560SOL    HW1 1679   2.190   1.076   3.157 -0.4998 -1.2622  1.7900
  560SOL    HW2 1680   2.198   1.097   2.993 -0.0551 -0.2848 -0.5791
  561SOL     OW 1681   0.032   1.879   0.074  0.6266  0.5929  0.4878
  561SOL    HW1 1682  -0.020   1.830   0.151 -3.2970 -0.2273 -2.4268
  561SOL    HW2 1683  -0.038   1.946   0.031 -1.5880 -0.7757 -0.4590
  562SOL     OW 1684   1.107   2.109   2.298  0.5083 -0.3803 -0.1138
  562SOL    HW1 1685   1.083   2.205   2.306  1.3409 -1.6869  1.3742
  562SOL    HW2 1686   1.036   2.048   2.348 -2.7219 -1.0297  1.8482
  563SOL     OW 1687   0.691   2.523   2.644 -0.1125  0.0766  0.3767
  563SOL    HW1 1688   0.769   2.471   2.597 -0.6400 -1.5319  0.4107
  563SOL    HW2 1689   0.728   2.576   2.727  0.1341  1.5509 -1.1399
  564SOL     OW 1690   2.917   1.385   2.885  0.2152 -0.3424 -0.1295
  564SOL    HW1 1691   2.836   1.450   2.886 -2.3909  0.6782  2.2018
  564SOL    HW2 1692   3.001   1.426   2.929 -2.4726  0.7108 -1.7988
  565SOL     OW 1693   2.508   1.940   2.654  0.0428 -0.0031 -0.1538
  565SOL    HW1 1694   2.481   2.025   2.597  0.0865  0.6666 -0.9462
  565SOL    HW2 1695   2.590   1.954   2.719  1.8285 -0.5874  0.5565
  566SOL     OW 1696   1.968   2.894   1.468  0.5853 -0.2602 -0.3911
  566SOL    HW1 1697   1.928   2.803   1.505  0.9858 -0.6963 -1.2465
  566SOL    HW2 1698   2.009   2.872   1.378 -3.4569  1.1612 -1.1671
  567SOL     OW 1699   2.433   0.015   2.323 -0.4556  0.5093 -0.4377
  567SOL    HW1 1700   2.327   0.013   2.325 -0.4030 -1.0427 -0.3268
  567SOL    HW2 1701   2.475   0.091   2.267 -2.5802 -0.1922 -0.0924
  568SOL     OW 1702   1.505   1.750   0.321 -0.5306 -0.2374 -0.2132
  568SOL    HW1 1703   1.450   1.833   0.288  0.1725 -0.0477 -1.0688
  568SOL    HW2 1704   1.608   1.768   0.311 -0.1080  0.7729  1.1360
  569SOL     OW 1705   0.239   0.618   0.897  0.3520 -0.3695 -0.3648
  569SOL    HW1 1706   0.300   0.580   0.818 -2.1098 -0.5915  0.4956
  569SOL    HW2 1707   0.144   0.584   0.898  2.8149 -1.1753  1.0199
  570SOL     OW 1708   0.599   0.851   2.926  0.1074  0.2430 -0.0972
  570SOL    HW1 1709   0.671   0.842   2.854 -3.3959  1.7641  0.5978
  570SOL    HW2 1710   0.618   0.933   2.986  0.5719  1.3280  0.3848
  571SOL     OW 1711   0.800   3.082   1.114 -0.3967 -0.3384  0.0558
  571SOL    HW1 1712   0.819   3.102   1.011 -1.5469  0.6103 -1.4811
  571SOL    HW2 1713   0.792   2.977   1.131 -0.5199 -3.3728 -1.1072
  572SOL     OW 1714   1.629   2.703   1.411 -0.1098  0.4143  0.1086
  572SOL    HW1 1715   1.568   2.623   1.382 -1.7114 -1.8611 -1.2403
  572SOL    HW2 1716   1.663   2.762   1.331 -1.4065 -2.9382 -1.5831
  573SOL     OW 1717   0.038   0.480   1.987  0.4632  0.4135 -0.9793
  573SOL    HW1 1718   0.021   0.389   2.024  0.4255 -1.1293 -1.2474
  573SOL    HW2 1719   0.088   0.476   1.897 -1.0544  0.8545  1.0754
  574SOL     OW 1720   0.142   1.712   1.136 -0.1559 -0.9226  0.0172
  574SOL    HW1 1721   0.213   1.717   1.212  0.7224 -0.4244  0.5615
  574SOL    HW2 1722   0.099   1.806   1.113 -1.9798 -0.1503  0.5477
  575SOL     OW 1723   0.878   2.194   0.953  0.3805  0.0994  0.4052
  575SOL    HW1 1724   0.863   2.247   1.042  2.5630  0.0681 -1.0572
  575SOL    HW2 1725   0.911   2.261   0.877  0.6438  2.6951 -1.7865
  576SOL     OW 1726   2.910   2.993   1.712 -0.0980 -0.1468  0.4198
  576SOL    HW1 1727   2.826   2.966   1.659 -2.4639  0.1163 -1.5609
  576SOL    HW2 1728   2.949   3.090   1.688  0.0580  0.8260 -1.8991
  577SOL     OW 1729   2.669   1.222   3.096 -0.2885  0.1867 -0.4627
  577SOL    HW1 1730   2.649   1.144   3.031 -0.0381 -2.7893  0.8659
  577SOL    HW2 1731   2.727   1.194   3.172 -1.3988 -2.3946 -0.4255
  578SOL     OW 1732   1.455   2.760   2.545  0.2875 -0.4538  0.1943
  578SOL    HW1 1733   1.366   2.798   2.506  0.6320 -2.0880 -0.2040
  578SOL    HW2 1734   1.533   2.823   2.526 -0.5448  2.3559  1.0577
  579SOL     OW 1735   0.067   2.436   0.187  0.1030 -0.7428  0.2246
  579SOL    HW1 1736  -0.020   2.399   0.232 -1.2420 -2.5477 -0.6294
  579SOL    HW2 1737   0.151   2.424   0.249  0.1263 -3.6520 -1.6295
  580SOL     OW 1738   0.943   2.653   0.409 -0.1847  0.6285  0.1055
  580SOL    HW1 1739   1.030   2.667   0.354 -2.6854 -2.1069 -0.1894
  580SOL    HW2 1740   0.860   2.703   0.378 -1.0867  2.3432  5.2982
  581SOL     OW 1741   1.277   2.706   1.443 -0.0575  0.4257 -0.0520
  581SOL    HW1 1742   1.320   2.616   1.480  0.3759 -0.6019 -1.5862
  581SOL    HW2 1743   1.351   2.776   1.419 -1.7703 -1.2606  0.6075
  582SOL     OW 1744   1.489   0.085   1.931  0.0163 -0.1351 -0.0498
  582SOL    HW1 1745   1.488   0.179   1.984 -0.1468  2.4537 -0.8348
  582SOL    HW2 1746   1.570   0.091   1.865 -0.2547  0.7538  0.0788
  583SOL     OW 1747   2.460   3.077   0.553  0.6074 -0.1590  0.0421
  583SOL    HW1 1748   2.542   3.032   0.514  1.3308  1.7767  2.1566
  583SOL    HW2 1749   2.389   3.009   0.589  1.4905 -1.2777 -0.1409
  584SOL     OW 1750   1.598   1.126   2.323  0.3848 -0.6949 -0.1112
  584SOL    HW1 1751   1.652   1.204   2.275 -0.3202  3.6620 -3.4656
  584SOL    HW2 1752   1.657   1.044   2.355  0.2397 -3.0651  1.2291
  585SOL     OW 1753   2.062   2.661   2.885  0.1134  0.2010 -0.0603
  585SOL    HW1 1754   2.094   2.565   2.850  0.1621  0.2184  1.0099
  585SOL    HW2 1755   1.960   2.665   2.900 -1.8050 -2.4333  0.2380
  586SOL     OW 1756   2.910   0.397   1.545  0.0350  0.0061  0.5512
  586SOL    HW1 1757   2.885   0.475   1.608 -0.0178 -0.9691  0.6710
  586SOL    HW2 1758   2.839   0.369   1.469  1.1245 -0.5135  1.7782
  587SOL     OW 1759   2.122   1.477   2.692  0.0030  0.4746  0.0139
  587SOL    HW1 1760   2.123   1.399   2.621  0.7299 -0.5812  1.4603
  587SOL    HW2 1761   2.220   1.498   2.724  0.5792 -3.5163  2.6499
  588SOL     OW 1762   0.526   2.689   2.296 -0.5595 -0.8697 -0.1198
  588SOL    HW1 1763   0.503   2.691   2.199  1.0320  1.0832 -2.6196
  588SOL    HW2 1764   0.512   2.594   2.339 -2.2227 -0.8815 -3.6302
  589SOL     OW 1765   2.179   1.295   2.488 -0.2576 -0.2100 -0.4737
  589SOL    HW1 1766   2.135   1.257   2.397 -0.4556  0.4059 -1.2921
  589SOL    HW2 1767   2.282   1.277   2.496  1.4090 -1.8270  0.6879
  590SOL     OW 1768   2.335   1.717   2.066 -0.2569 -0.8557 -0.0840
  590SOL    HW1 1769   2.411   1.643   2.055  2.6439  0.4199 -2.4833
  590SOL    HW2 1770   2.310   1.748   2.166 -1.1529  2.3319 -0.0868
  591SOL     OW 1771   1.234   2.378   0.209  0.4695  0.1046 -0.7158
  591SOL    HW1 1772   1.265   2.306   0.146 -0.8152  3.0972  2.2378
  591SOL    HW2 1773   1.258   2.358   0.307  1.1288 -1.7776  1.2853
  592SOL     OW 1774   1.799   2.341   0.795  0.3943  0.1983 -0.1014
  592SOL    HW1 1775   1.801   2.400   0.711 -0.5383  2.4661 -0.4925
  592SOL    HW2 1776   1.888   2.341   0.846 -2.2559 -0.0501  0.1826
  593SOL     OW 1777   0.746   0.326   0.253  0.6656 -0.1128  0.0109
  593SOL    HW1 1778   0.781   0.280   0.166  3.4890 -2.6433 -0.2892
  593SOL    HW2 1779   0.730   0.429   0.248  1.5942 -0.6479  0.6343
  594SOL     OW 1780   1.060   1.831   2.675 -0.4216 -0.8547 -0.6185
  594SOL    HW1 1781   1.148   1.798   2.629  1.9729  0.8514 -0.1233
  594SOL    HW2 1782   1.068   1.876   2.767  1.3320 -1.1294 -2.3773
  595SOL     OW 1783   1.505   0.097   0.978 -0.0184  0.3239 -0.0392
  595SOL    HW1 1784   1.575   0.028   0.939  1.7109  0.1737 -1.9395
  595SOL    HW2 1785   1.415   0.073   0.934 -1.0458  1.3783  1.1776
  596SOL     OW 1786   0.080   1.474   2.262  0.4696 -0.4126 -0.8988
  596SOL    HW1 1787  -0.003   1.426   2.300 -0.0804  4.3525 -0.6663
  596SOL    HW2 1788   0.136   1.529   2.334  1.0181  3.7040 -1.1545
  597SOL     OW 1789   1.991   2.672   1.811  0.5481 -0.3788 -0.0294
  597SOL    HW1 1790   1.957   2.679   1.717  0.8843  2.6105  3.5084
  597SOL    HW2 1791   2.091   2.658   1.818  1.9611  0.1685  0.4972
  598SOL     OW 1792   2.526   2.864   1.232 -0.1694  0.1490  0.2190
  598SOL    HW1 1793   2.593   2.929   1.283  3.8809 -1.3222  0.0807
  598SOL    HW2 1794   2.571   2.819   1.147  0.2546 -4.1517  0.7343
  599SOL     OW 1795   2.811   0.259   2.512  0.5942 -0.2347  0.2362
  599SOL    HW1 1796   2.875   0.230   2.437  0.3147 -1.8577  2.8387
  599SOL    HW2 1797   2.734   0.323   2.492  0.8594 -2.4483  2.1063
  600SOL     OW 1798   2.800   1.171   2.746 -0.4623 -0.5102  0.2726
  600SOL    HW1 1799   2.724   1.127   2.804  0.6477 -0.5891  3.0580
  600SOL    HW2 1800   2.850   1.243   2.798 -1.2031 -0.2095 -0.6009
  601SOL     OW 1801   2.975   1.321   2.015 -0.6719  0.6852 -0.3542
  601SOL    HW1 1802   2.910   1.345   1.937 -4.0672  1.7897 -0.7720
  601SOL    HW2 1803   3.068   1.364   2.009 -1.1487 -1.8025  0.0706
  602SOL     OW 1804   1.502   1.560   2.274  0.7208 -0.2249 -0.3256
  602SOL    HW1 1805   1.411   1.554   2.330  1.3485 -0.9164  1.4878
  602SOL    HW2 1806   1.581   1.585   2.336 -0.8435  0.7110  1.8339
  603SOL     OW 1807   0.649   1.188   2.706 -0.3469  0.3597  0.1295
  603SOL    HW1 1808   0.558   1.185   2.653 -1.1398 -1.0346 -1.4076
  603SOL    HW2 1809   0.710   1.110   2.673 -0.9906 -0.9514  0.7169
  604SOL     OW 1810   2.488   0.997   0.213  0.4797  0.6107  0.3608
  604SOL    HW1 1811   2.561   1.068   0.208  1.1448 -2.0563  0.7495
  604SOL    HW2 1812   2.498   0.924   0.138  0.0229  0.8198 -0.6432
  605SOL     OW 1813   2.533   1.116   1.979 -0.2643 -0.1812 -0.2043
  605SOL    HW1 1814   2.557   1.092   1.880  3.2971  1.5686 -1.2093
  605SOL    HW2 1815   2.591   1.194   2.019  3.3371  0.0109  1.8906
  606SOL     OW 1816   1.509   2.503   2.567 -0.3047  0.1210  0.1282
  606SOL    HW1 1817   1.467   2.595   2.546  0.4657 -1.8380 -1.5398
  606SOL    HW2 1818   1.446   2.423   2.544 -0.9821 -2.3821  1.2538
  607SOL     OW 1819   1.297   1.587   0.225 -0.1417 -0.3776 -0.2866
  607SOL    HW1 1820   1.201   1.607   0.257 -1.4926 -1.4712 -1.1532
  607SOL    HW2 1821   1.371   1.647   0.268 -3.7161  0.1376 -0.9590
  608SOL     OW 1822   1.409   2.862   0.389 -0.5735 -0.1610 -0.1248
  608SOL    HW1 1823   1.454   2.871   0.293  0.2594 -1.5441 -0.7310
  608SOL    HW2 1824   1.371   2.949   0.427  0.2237  0.2318  1.4485
  609SOL     OW 1825   1.346   1.335   0.155  0.1991  0.5117  0.5600
  609SOL    HW1 1826   1.336   1.432   0.186 -3.4816 -3.4123 -0.8543
  609SOL    HW2 1827   1.287   1.316   0.066 -0.1151 -2.1118 -0.3787
  610SOL     OW 1828   3.021   1.221   2.261 -0.6042 -0.2122 -0.0690
  610SOL    HW1 1829   2.985   1.123   2.256 -0.3307  0.8642 -0.2602
  610SOL    HW2 1830   2.985   1.281   2.189  2.4805 -0.0079  1.1101
  611SOL     OW 1831   2.522   0.256   1.145  0.7715  0.2480 -0.8001
  611SOL    HW1 1832   2.439   0.190   1.166 -1.0184 -2.0042 -0.1039
  611SOL    HW2 1833   2.582   0.268   1.232  1.7879  0.9002  1.8810
  612SOL     OW 1834   0.800   2.325   1.180  0.1257  0.3508  0.7672
  612SOL    HW1 1835   0.708   2.272   1.194 -0.4905  0.5606 -0.2872
  612SOL    HW2 1836   0.789   2.425   1.193  0.4817 -0.7495  1.6190
  613SOL     OW 1837   0.804   1.394   2.361 -0.3898  0.1863 -0.6948
  613SOL    HW1 1838   0.849   1.455   2.288 -0.4070 -2.4742 -1.2337
  613SOL    HW2 1839   0.777   1.302   2.317  1.9736  0.6831  0.3899
  614SOL     OW 1840   1.560   1.676   1.831 -0.4542 -0.2816  0.2482
  614SOL    HW1 1841   1.511   1.766   1.803  1.7650  0.3489  2.0936
  614SOL    HW2 1842   1.642   1.698   1.893  0.7769 -1.9861 -1.3993
  615SOL     OW 1843   0.731   1.404   1.724 -0.5276  0.1561 -0.2596
  615SOL    HW1 1844   0.659   1.368   1.665  0.0548  0.8542  0.3536
  615SOL    HW2 1845   0.805   1.462   1.669  1.6847 -1.0831 -1.3898
  616SOL     OW 1846   1.119   1.561   2.183  0.7765  0.2680  0.7587
  616SOL    HW1 1847   1.014   1.568   2.178 -1.0878 -2.3921  2.0467
  616SOL    HW2 1848   1.162   1.569   2.088  0.3395  0.4135  1.6161
  617SOL     OW 1849   3.035   1.545   1.643  0.3441 -0.3796 -0.2428
  617SOL    HW1 1850   2.983   1.485   1.710  0.3778  1.7440  1.6567
  617SOL    HW2 1851   3.070   1.492   1.561 -0.9572 -1.6203 -3.2281
  618SOL     OW 1852   1.965   1.970   1.458 -0.3000  0.3817  0.4534
  618SOL    HW1 1853   2.045   1.960   1.395  0.9256  1.0976 -0.3662
  618SOL    HW2 1854   1.946   1.880   1.509  0.6107 -1.7308  1.3361
  619SOL     OW 1855   1.717   0.518   2.340  0.2180  0.0381 -0.2054
  619SOL    HW1 1856   1.640   0.574   2.301 -0.1268 -1.1420  1.1275
  619SOL    HW2 1857   1.714   0.417   2.314 -2.5319  2.2418  0.4302
  620SOL     OW 1858   2.257   2.932   0.636 -0.2804 -0.0057  0.0943
  620SOL    HW1 1859   2.165   2.976   0.643  0.0014 -1.5273  0.1191
  620SOL    HW2 1860   2.284   2.882   0.726  0.0610 -2.1329  1.7838
  621SOL     OW 1861   2.210   1.897   1.354 -0.6910  0.1061 -0.0100
  621SOL    HW1 1862   2.214   1.883   1.460 -0.7487 -0.9927  1.8729
  621SOL    HW2 1863   2.183   1.808   1.305 -2.1315  0.5982 -2.4389
  622SOL     OW 1864   2.215   0.936   1.832 -0.5172  0.7593  0.6151
  622SOL    HW1 1865   2.293   0.869   1.850  0.1694 -0.7350 -1.1705
  622SOL    HW2 1866   2.153   0.954   1.912 -0.5119  2.7319 -2.2009
  623SOL     OW 1867   1.297   0.826   2.576 -0.0876  0.5023  0.0728
  623SOL    HW1 1868   1.256   0.788   2.664 -2.8057 -1.1822  0.9628
  623SOL    HW2 1869   1.223   0.843   2.506 -3.0755  1.0632 -1.2783
  624SOL     OW 1870   0.527   0.708   0.028 -0.2676  0.9416  0.5247
  624SOL    HW1 1871   0.530   0.757  -0.059  0.0985 -4.9593 -1.2953
  624SOL    HW2 1872   0.507   0.757   0.113 -0.6592 -2.3687 -3.6076
  625SOL     OW 1873   2.730   1.696   0.871  0.3689  0.2340 -0.5473
  625SOL    HW1 1874   2.690   1.731   0.959 -1.5704  0.8568 -0.3816
  625SOL    HW2 1875   2.761   1.597   0.871  1.3267 -0.4132 -0.7374
  626SOL     OW 1876   0.493   2.730   1.983  0.0154  0.2955  0.8641
  626SOL    HW1 1877   0.556   2.814   1.978 -1.9778 -0.1560  0.8285
  626SOL    HW2 1878   0.403   2.742   1.931 -0.0591 -2.0851  1.9161
  627SOL     OW 1879   0.750   1.076   1.512  0.2189 -0.3230  0.1089
  627SOL    HW1 1880   0.756   0.970   1.488 -0.9293 -1.7493 -1.3110
  627SOL    HW2 1881   0.793   1.141   1.445 -1.3398  2.8553  0.0258
  628SOL     OW 1882   2.427   0.179   0.726  0.2476  0.0896  0.3859
  628SOL    HW1 1883   2.437   0.098   0.661 -3.2792  1.0816 -0.6343
  628SOL    HW2 1884   2.322   0.196   0.738 -0.2026 -1.6955  0.6137
  629SOL     OW 1885   1.982   0.948   1.991  0.7780  0.0130  0.6701
  629SOL    HW1 1886   2.057   0.949   2.065  0.3097 -0.6751  1.0263
  629SOL    HW2 1887   1.932   1.038   1.974 -0.0874  1.6218 -1.2818
  630SOL     OW 1888   2.814   2.197   0.761  0.4133  0.3484 -0.4453
  630SOL    HW1 1889   2.734   2.221   0.820 -1.0602 -1.3595 -1.5877
  630SOL    HW2 1890   2.813   2.096   0.723 -1.0882  3.1044  0.5440
  631SOL     OW 1891   3.029   0.237   2.125  0.0544  0.2318  0.2650
  631SOL    HW1 1892   3.076   0.246   2.215  1.7436 -1.1494  1.0727
  631SOL    HW2 1893   3.083   0.202   2.045 -1.0192  3.1951 -0.3725
  632SOL     OW 1894   2.329   2.568   0.757 -0.0757 -0.0165 -0.0427
  632SOL    HW1 1895   2.432   2.602   0.770 -0.2266  1.1208  0.8360
  632SOL    HW2 1896   2.283   2.585   0.665 -2.2704  0.0584 -0.7796
  633SOL     OW 1897   1.592   1.294   2.625 -0.0301 -0.1649  0.9994
  633SOL    HW1 1898   1.586   1.385   2.677  2.1229  1.5986  0.1669
  633SOL    HW2 1899   1.499   1.260   2.594 -1.0273  0.0594  1.4551
  634SOL     OW 1900   0.623   2.072   0.992 -0.5710  0.1202 -0.3191
  634SOL    HW1 1901   0.533   2.107   1.027  0.9589 -4.5116 -0.1578
  634SOL    HW2 1902   0.683   2.142   0.951 -0.4417  2.8099  0.9241
  635SOL     OW 1903   0.064   2.242   3.084  0.2614  0.0083 -0.3291
  635SOL    HW1 1904   0.021   2.282   3.000  0.3077 -4.9465 -2.5135
  635SOL    HW2 1905   0.059   2.310   3.163 -0.3728  2.7283 -0.2376
  636SOL     OW 1906   2.314   2.843   2.022  0.3662  0.2587  0.3672
  636SOL    HW1 1907   2.281   2.937   2.044 -0.3442  0.7490 -0.3315
  636SOL    HW2 1908   2.275   2.769   2.090 -4.1909 -0.0134  2.7735
  637SOL     OW 1909   2.578   0.738   2.052  0.9392 -0.0661  0.2567
  637SOL    HW1 1910   2.546   0.735   1.954  2.7221  1.1066 -0.0822
  637SOL    HW2 1911   2.633   0.825   2.072 -0.4021 -0.1270 -1.3446
  638SOL     OW 1912   2.500   1.878   1.368 -0.1495  0.3830  0.2929
  638SOL    HW1 1913   2.394   1.865   1.359 -0.4891  2.4976 -0.3004
  638SOL    HW2 1914   2.546   1.786   1.400  3.0052 -2.8610  3.0004
  639SOL     OW 1915   1.295   2.247   1.588  0.2245  0.0040 -0.7028
  639SOL    HW1 1916   1.306   2.170   1.524 -3.2081  1.2482 -0.4475
  639SOL    HW2 1917   1.221   2.225   1.660  1.2104 -1.0827 -1.2938
  640SOL     OW 1918   0.210   1.242   1.525 -0.0221  0.6120 -0.3317
  640SOL    HW1 1919   0.208   1.319   1.594 -0.9805  2.2016 -1.4755
  640SOL    HW2 1920   0.299   1.182   1.525  2.4496 -2.9909  0.3310
  641SOL     OW 1921   1.955   0.206   1.449 -0.3583  0.2354  0.0210
  641SOL    HW1 1922   1.879   0.274   1.476  2.0692 -1.8526  0.1670
  641SOL    HW2 1923   1.952   0.123   1.504  0.5885  0.3614  0.4665
  642SOL     OW 1924   1.994   0.092   0.311  0.2621 -0.1746 -0.2401
  642SOL    HW1 1925   2.090   0.071   0.342 -2.1522  1.8638 -0.5623
  642SOL    HW2 1926   1.924   0.076   0.387 -1.7104  0.1204 -1.0676
  643SOL     OW 1927   2.841   1.850   2.113  0.1150 -0.7054  0.4171
  643SOL    HW1 1928   2.784   1.776   2.068  0.9474  0.1978 -2.3348
  643SOL    HW2 1929   2.869   1.923   2.042  0.4213 -1.3743 -0.9197
  644SOL     OW 1930   2.173   2.283   1.231 -0.5510 -0.2656  0.2636
  644SOL    HW1 1931   2.265   2.234   1.239  0.9289  3.2574 -0.9381
  644SOL    HW2 1932   2.136   2.329   1.320 -2.1503 -2.6681 -1.5695
  645SOL     OW 1933   0.606   0.865   1.173  0.6785  1.0096 -0.1859
  645SOL    HW1 1934   0.577   0.786   1.110 -1.1674  0.9145  0.5191
  645SOL    HW2 1935   0.605   0.949   1.111 -2.0687  2.3440  2.3483
  646SOL     OW 1936   1.476   1.964   1.776 -0.3334  0.0215 -0.3815
  646SOL    HW1 1937   1.545   2.039   1.794 -4.0737 -0.7550 -2.2591
  646SOL    HW2 1938   1.397   1.961   1.843 -0.5467 -1.2587 -0.5810
  647SOL     OW 1939   0.871   0.911   0.661 -0.8375 -0.6685  0.1316
  647SOL    HW1 1940   0.967   0.878   0.692 -1.7978 -1.7116 -0.0966
  647SOL    HW2 1941   0.791   0.858   0.698  2.6141 -0.0083  0.6250
  648SOL     OW 1942   0.210   0.220   0.321 -0.0326 -0.0410  0.0994
  648SOL    HW1 1943   0.214   0.136   0.263  0.3591  2.3874  1.3965
  648SOL    HW2 1944   0.176   0.290   0.260  1.1276 -2.0919 -0.3468
  649SOL     OW 1945   3.090   0.077   0.929  0.1773 -0.9514 -0.1868
  649SOL    HW1 1946   3.195   0.075   0.913 -1.5076 -0.5998 -0.2097
  649SOL    HW2 1947   3.076   0.113   1.024 -0.9466 -2.0689 -1.8395
  650SOL     OW 1948   2.724   0.717   1.429 -0.1971 -0.0341 -0.2336
  650SOL    HW1 1949   2.635   0.680   1.460 -1.2596 -2.3974  0.7141
  650SOL    HW2 1950   2.713   0.806   1.380  1.0897  1.3107 -0.6189
  651SOL     OW 1951   0.916   1.588   1.595 -0.1067  0.3456 -0.4256
  651SOL    HW1 1952   0.988   1.666   1.609  0.6503  0.6889 -1.7472
  651SOL    HW2 1953   0.858   1.617   1.513  2.2094 -0.9857  1.7808
  652SOL     OW 1954   2.293   2.530   2.371  0.6469 -0.1649  0.3171
  652SOL    HW1 1955   2.236   2.497   2.447  2.5299  0.0349  0.3221
  652SOL    HW2 1956   2.243   2.601   2.305 -0.9158  0.4962  1.6368
  653SOL     OW 1957   2.706   1.179   0.280  0.1333 -0.3745  0.3472
  653SOL    HW1 1958   2.776   1.254   0.297  1.0477  0.9768 -0.5093
  653SOL    HW2 1959   2.724   1.095   0.336  0.5983  0.1262 -1.9648
  654SOL     OW 1960   1.210   2.269   1.218 -0.3647 -0.7656 -0.2396
  654SOL    HW1 1961   1.263   2.194   1.267  1.4921  0.5227 -0.5747
  654SOL    HW2 1962   1.246   2.292   1.126 -2.0922  2.2541  0.7525
  655SOL     OW 1963   0.242   1.069   1.842 -0.2033  0.0369 -0.4331
  655SOL    HW1 1964   0.302   0.990   1.808  2.3047 -3.4789  1.6468
  655SOL    HW2 1965   0.297   1.151   1.861 -1.4253 -1.5490  2.4377
  656SOL     OW 1966   2.498   2.468   2.566  0.1804 -0.1730  0.1970
  656SOL    HW1 1967   2.600   2.478   2.544 -1.8776 -2.0120 -2.6577
  656SOL    HW2 1968   2.435   2.507   2.488 -0.9176  1.8886  1.2451
  657SOL     OW 1969   3.057   1.104   1.845  0.1813  0.1042 -0.1323
  657SOL    HW1 1970   3.021   1.178   1.910  0.5035  0.0743 -1.1659
  657SOL    HW2 1971   3.160   1.108   1.828  1.3443 -1.9516  0.0206
  658SOL     OW 1972   1.662   0.218   2.371  0.7210  0.6094  0.0798
  658SOL    HW1 1973   1.695   0.143   2.441  0.8334 -2.0914  0.6006
  658SOL    HW2 1974   1.716   0.230   2.284  0.2387 -0.0743  2.8950
  659SOL     OW 1975   1.403   0.568   2.869  0.1696  0.3123  0.0571
  659SOL    HW1 1976   1.469   0.639   2.909  1.8948 -0.4693 -1.4142
  659SOL    HW2 1977   1.331   0.615   2.806  0.5138 -1.3773  0.5851
  660SOL     OW 1978   1.419   0.397   1.377  0.2682 -0.3123 -0.0385
  660SOL    HW1 1979   1.453   0.395   1.478 -0.9167  0.5594 -1.3465
  660SOL    HW2 1980   1.483   0.342   1.317  0.9398  1.7260 -1.4148
  661SOL     OW 1981   2.466   1.163   0.675 -0.5049  0.3431  0.4471
  661SOL    HW1 1982   2.492   1.091   0.604  0.9675  0.1690 -0.1784
  661SOL    HW2 1983   2.439   1.256   0.635 -3.1783 -1.5668 -0.9763
  662SOL     OW 1984   1.293   0.436   1.818 -0.1987  0.4241 -0.1013
  662SOL    HW1 1985   1.287   0.336   1.793 -1.5148 -1.6805  0.3256
  662SOL    HW2 1986   1.227   0.464   1.892 -2.1923 -0.6042 -0.2210
  663SOL     OW 1987   0.836   1.591   2.176 -0.2284 -0.1626  0.4480
  663SOL    HW1 1988   0.821   1.694   2.192  1.0447  3.4442 -3.0905
  663SOL    HW2 1989   0.763   1.552   2.111 -1.5965  0.7318  0.7331
  664SOL     OW 1990   1.671   2.033   1.392 -0.5090  0.3909  0.0224
  664SOL    HW1 1991   1.606   1.975   1.451  2.1656 -1.7579  1.2697
  664SOL    HW2 1992   1.769   2.004   1.407 -0.0181  2.2512 -0.8880
  665SOL     OW 1993   2.285   0.633   1.985  0.8657  0.1758 -0.0784
  665SOL    HW1 1994   2.276   0.542   2.031 -1.5852  1.3013  0.4379
  665SOL    HW2 1995   2.203   0.690   2.006 -0.1092 -1.8055 -0.2462
  666SOL     OW 1996   0.503   2.298   0.454  0.4329  0.1223  0.3205
  666SOL    HW1 1997   0.561   2.385   0.473 -0.4180 -2.5258  0.8236
  666SOL    HW2 1998   0.452   2.268   0.542 -0.5160 -0.6122  2.2571
  667SOL     OW 1999   2.083   0.281   0.985 -0.2062 -0.0156 -0.3458
  667SOL    HW1 2000   2.151   0.352   1.010  0.3133 -1.6245 -0.6767
  667SOL    HW2 2001   2.017   0.260   1.065 -0.1520  1.3237  2.7779
  668SOL     OW 2002   1.988   0.481   1.206 -0.0556  0.4477 -0.2927
  668SOL    HW1 2003   2.052   0.504   1.132 -1.8093 -1.9947  0.0931
  668SOL    HW2 2004   2.038   0.467   1.298 -0.2882 -3.6602  0.6997
  669SOL     OW 2005   3.007   2.072   0.921 -0.1789 -0.0277  0.4638
  669SOL    HW1 2006   2.965   2.102   0.828  0.4122 -0.9463  2.7570
  669SOL    HW2 2007   2.956   2.104   1.009  2.5770 -2.2797 -0.7061
  670SOL     OW 2008   2.807   2.363   2.005 -0.3491 -0.1029 -0.0050
  670SOL    HW1 2009   2.743   2.321   2.073 -1.0060  0.5012  2.3716
  670SOL    HW2 2010   2.784   2.464   1.980 -0.8831 -1.8574  0.4432
  671SOL     OW 2011   1.729   1.635   1.447 -0.4260  0.4942  0.1661
  671SOL    HW1 2012   1.709   1.713   1.389 -1.6150 -1.1725  2.0604
  671SOL    HW2 2013   1.686   1.545   1.420 -1.0670  0.2625 -1.3373
  672SOL     OW 2014   0.414   0.689   2.429 -0.0762  0.1578 -0.1382
  672SOL    HW1 2015   0.449   0.674   2.331  0.9729  1.1003 -2.0770
  672SOL    HW2 2016   0.329   0.745   2.434  3.1328 -0.7987 -0.9346
  673SOL     OW 2017   0.167   1.205   1.125 -1.0556  0.0843 -0.3551
  673SOL    HW1 2018   0.193   1.304   1.156  1.2580  1.1573  3.1321
  673SOL    HW2 2019   0.251   1.147   1.093  1.4177 -0.5554 -0.0222
  674SOL     OW 2020   1.532   2.843   0.132  0.1241 -0.0450 -0.0774
  674SOL    HW1 2021   1.597   2.921   0.096  3.4964 -0.8497 -1.6090
  674SOL    HW2 2022   1.586   2.758   0.149 -0.6173  0.8655 -1.3715
  675SOL     OW 2023   1.718   0.813   2.340  0.4100  0.5224 -0.2226
  675SOL    HW1 2024   1.811   0.790   2.314 -0.8908  0.1741  1.7041
  675SOL    HW2 2025   1.648   0.770   2.279  1.7969  1.3217 -3.0663
  676SOL     OW 2026   2.492   1.506   2.010  0.3947 -0.0792  0.7268
  676SOL    HW1 2027   2.467   1.470   1.915  0.7000  0.1382  2.2013
  676SOL    HW2 2028   2.570   1.445   2.054 -0.0994  1.4469  0.7238
  677SOL     OW 2029   1.808   0.527   0.949  0.4667 -0.2810 -0.5655
  677SOL    HW1 2030   1.851   0.489   1.036 -0.6241  1.8846 -0.5871
  677SOL    HW2 2031   1.715   0.488   0.936  1.2416  2.2491  2.1814
  678SOL     OW 2032   0.099   0.797   1.685  0.5846  0.2815 -0.2011
  678SOL    HW1 2033   0.171   0.848   1.741 -0.3747  1.3315  1.8896
  678SOL    HW2 2034   0.003   0.805   1.727  1.6314  0.0893 -1.1385
  679SOL     OW 2035   2.550   1.176   1.122  0.2398 -0.4971  0.7513
  679SOL    HW1 2036   2.452   1.187   1.158  0.5021 -0.3045 -0.1109
  679SOL    HW2 2037   2.560   1.095   1.056  0.4207  0.7249  1.9914
  680SOL     OW 2038   2.842   0.647   1.671  0.1116  0.2892  0.1986
  680SOL    HW1 2039   2.803   0.686   1.585  1.6064 -0.2143  2.2493
  680SOL    HW2 2040   2.890   0.720   1.729 -1.4571 -0.3387  0.6333
  681SOL     OW 2041   3.031   0.167   1.650  0.6108 -0.5215  0.1216
  681SOL    HW1 2042   3.106   0.135   1.585  0.3980 -0.1103  1.3965
  681SOL    HW2 2043   2.992   0.259   1.618  0.1109  1.0041  1.1009
  682SOL     OW 2044   0.726   0.069   1.380 -0.8561 -0.3539  0.0885
  682SOL    HW1 2045   0.657  -0.003   1.396  2.4778  0.9359 -0.5598
  682SOL    HW2 2046   0.778   0.047   1.294 -1.9613 -0.2350 -0.9073
  683SOL     OW 2047   1.380   0.234   2.182 -0.0802  0.4693 -0.2345
  683SOL    HW1 2048   1.361   0.269   2.281  0.3299  0.6861  2.0388
  683SOL    HW2 2049   1.472   0.261   2.138 -1.3742 -2.5589 -1.9433
  684SOL     OW 2050   1.424   2.124   0.490 -0.3989 -0.4533 -0.1697
  684SOL    HW1 2051   1.498   2.052   0.506 -0.8938  0.6398  0.5090
  684SOL    HW2 2052   1.335   2.080   0.459 -1.1483 -0.3700  1.2715
  685SOL     OW 2053   2.135   1.884   1.955 -0.5893  0.4694  0.2726
  685SOL    HW1 2054   2.176   1.946   1.885 -2.3646  1.1928  0.5488
  685SOL    HW2 2055   2.194   1.810   1.997  0.7553  0.0983  2.4327
  686SOL     OW 2056   1.566   1.785   2.766 -0.4497  0.5891  0.5645
  686SOL    HW1 2057   1.612   1.714   2.707  0.0539 -0.4207  1.0226
  686SOL    HW2 2058   1.583   1.775   2.865 -0.7341  0.3152 -1.0238
  687SOL     OW 2059   1.335   2.522   1.922 -0.2807 -0.2269 -0.4249
  687SOL    HW1 2060   1.380   2.448   1.867  0.5722 -0.8969  0.2548
  687SOL    HW2 2061   1.387   2.536   2.010  2.5977 -1.8011  2.2088
  688SOL     OW 2062   2.086   1.423   1.626  0.0314  1.0530 -0.2256
  688SOL    HW1 2063   2.184   1.430   1.593 -1.1315  1.5174  0.4179
  688SOL    HW2 2064   2.026   1.365   1.563 -0.1196  0.9208 -2.1277
  689SOL     OW 2065   2.458   1.105   2.764 -0.0148 -0.2185 -0.0589
  689SOL    HW1 2066   2.363   1.069   2.791 -0.1844 -0.1649  2.2231
  689SOL    HW2 2067   2.526   1.076   2.832 -0.8722  0.9949  0.7460
  690SOL     OW 2068   2.201   2.780   3.090 -0.3528 -0.4837  0.2614
  690SOL    HW1 2069   2.111   2.749   3.052  0.7886 -0.1175 -2.3416
  690SOL    HW2 2070   2.180   2.838   3.173  1.0137 -1.5031 -2.4462
  691SOL     OW 2071   2.552   0.494   2.174  0.2972  0.0618 -0.0535
  691SOL    HW1 2072   2.610   0.424   2.127 -0.6866  1.3086 -0.5019
  691SOL    HW2 2073   2.588   0.590   2.165 -1.2425 -1.0923  0.3202
  692SOL     OW 2074   2.738   1.219   0.683  0.1155  0.3387 -0.2048
  692SOL    HW1 2075   2.635   1.241   0.681  1.3105  0.7987 -0.9452
  692SOL    HW2 2076   2.787   1.301   0.723 -1.2283  1.1276  0.5433
  693SOL     OW 2077   2.868   2.963   0.579 -0.2277  0.0669 -0.0001
  693SOL    HW1 2078   2.867   3.059   0.615 -1.4339 -1.3736 -4.1567
  693SOL    HW2 2079   2.789   2.953   0.513  3.8047 -0.4277  0.5272
  694SOL     OW 2080   2.381   2.148   0.063 -0.1918 -0.8185 -0.0435
  694SOL    HW1 2081   2.366   2.241   0.109  1.9761 -0.0808  0.7072
  694SOL    HW2 2082   2.287   2.105   0.036  3.5376 -0.0141  1.7017
  695SOL     OW 2083   0.541   2.980   1.486  0.3259 -0.3670  0.1445
  695SOL    HW1 2084   0.497   2.887   1.479 -1.1343 -0.5754 -1.4919
  695SOL    HW2 2085   0.502   3.026   1.569  0.7613 -2.9206 -0.1406
  696SOL     OW 2086   2.709   1.940   0.704 -0.0963  0.5797 -0.2446
  696SOL    HW1 2087   2.700   1.842   0.743 -0.4121 -1.2694 -1.0593
  696SOL    HW2 2088   2.700   1.940   0.596 -1.6957  0.6535 -0.4506
  697SOL     OW 2089   1.716   2.132   1.757 -0.3943  0.2192  0.0342
  697SOL    HW1 2090   1.758   2.047   1.785 -0.2718  2.6372  1.9969
  697SOL    HW2 2091   1.777   2.213   1.777  1.8039 -0.2435 -0.3857
  698SOL     OW 2092   2.933   0.351   2.744 -0.4035 -0.2594 -0.0026
  698SOL    HW1 2093   2.890   0.315   2.658  0.2128  0.3670  1.2854
  698SOL    HW2 2094   3.008   0.289   2.775  1.3043 -2.2525  4.0575
  699SOL     OW 2095   1.573   0.083   2.925  0.0418  0.3079  0.3956
  699SOL    HW1 2096   1.499   0.022   2.890  1.0970  3.0706 -0.6658
  699SOL    HW2 2097   1.619   0.140   2.853 -1.2073 -2.8729  0.1770
  700SOL     OW 2098   1.026   2.376   1.379 -0.9521  0.0154  0.4586
  700SOL    HW1 2099   1.112   2.345   1.323  1.0421  0.1017 -0.8572
  700SOL    HW2 2100   0.937   2.355   1.339 -0.8085  1.2643  0.1673
  701SOL     OW 2101   1.840   2.808   0.031 -0.0014 -0.6126  0.6230
  701SOL    HW1 2102   1.878   2.721   0.072 -1.9727  1.3394  2.0967
  701SOL    HW2 2103   1.894   2.898   0.044 -0.0700  1.2016 -0.7830
  702SOL     OW 2104   2.073   1.403   1.913 -0.3706  0.0523 -0.1075
  702SOL    HW1 2105   2.170   1.357   1.909  0.2078  0.7146 -0.2502
  702SOL    HW2 2106   2.049   1.420   1.815  1.8262 -0.1141  0.0695
  703SOL     OW 2107   1.968   0.838   1.460  0.2737  0.0725  0.8309
  703SOL    HW1 2108   1.951   0.739   1.494 -0.6771  1.8735 -1.0559
  703SOL    HW2 2109   2.032   0.893   1.525  1.1960  1.3211 -0.1682
  704SOL     OW 2110   0.336   2.027   1.732  0.4034 -0.2942  0.7612
  704SOL    HW1 2111   0.378   1.957   1.800 -0.0844  2.7907  0.1078
  704SOL    HW2 2112   0.407   2.103   1.707  2.4065 -0.3483  1.1120
  705SOL     OW 2113   2.549   1.405   0.869  0.3492 -0.3356  0.1287
  705SOL    HW1 2114   2.448   1.414   0.863  0.7358  2.7600  1.2153
  705SOL    HW2 2115   2.578   1.344   0.944 -0.5704  1.5663 -2.7152
  706SOL     OW 2116   0.669   1.756   1.875 -0.3337 -0.0049  0.2355
  706SOL    HW1 2117   0.701   1.664   1.901 -2.1562 -0.0809 -0.4785
  706SOL    HW2 2118   0.720   1.833   1.922 -2.5002 -3.5605  0.1393
  707SOL     OW 2119   2.278   1.217   1.901  0.5504  0.1479  1.0676
  707SOL    HW1 2120   2.359   1.184   1.954 -1.5530  1.4979  1.5360
  707SOL    HW2 2121   2.227   1.138   1.861  0.5117 -1.5167  0.0124
  708SOL     OW 2122   3.079   0.466   3.031 -0.3525  0.1753 -0.0968
  708SOL    HW1 2123   3.138   0.512   2.958  2.3418 -2.8299  3.3345
  708SOL    HW2 2124   3.012   0.393   3.005  0.6595  0.5487 -0.3388
  709SOL     OW 2125   1.817   1.857   0.297 -0.2955  0.6449  0.2670
  709SOL    HW1 2126   1.870   1.940   0.329 -0.7961 -2.5940 -1.3336
  709SOL    HW2 2127   1.824   1.843   0.194 -0.3131  1.6880 -2.3031
  710SOL     OW 2128   1.744   1.635   2.464  0.4162 -0.4826 -0.0709
  710SOL    HW1 2129   1.783   1.619   2.370  0.5196  0.7505  0.1594
  710SOL    HW2 2130   1.807   1.615   2.538 -0.8181 -0.5331 -1.3875
  711SOL     OW 2131   2.618   2.933   0.971 -0.5785  0.3366 -0.0864
  711SOL    HW1 2132   2.578   3.021   0.993 -0.3057 -1.5207  0.9392
  711SOL    HW2 2133   2.712   2.919   1.008 -0.2988 -2.4632  1.7878
  712SOL     OW 2134   1.501   2.308   1.797 -0.6253 -0.1321  0.2051
  712SOL    HW1 2135   1.594   2.262   1.799  1.3454  0.3184  1.7018
  712SOL    HW2 2136   1.442   2.284   1.712  0.5325 -4.3531  1.0429
  713SOL     OW 2137   2.825   1.409   2.494  0.7758 -0.4666  0.3290
  713SOL    HW1 2138   2.845   1.306   2.489 -2.2122  1.2751  0.3954
  713SOL    HW2 2139   2.729   1.441   2.519  2.5963  3.5604  1.2494
  714SOL     OW 2140   2.635   0.473   2.470  0.2832  0.3534  0.1334
  714SOL    HW1 2141   2.553   0.449   2.528 -0.2618  2.5070 -1.1177
  714SOL    HW2 2142   2.614   0.493   2.372  0.3287  1.5178  0.6184
  715SOL     OW 2143   1.579   2.091   1.138  0.2451 -0.2502  0.1224
  715SOL    HW1 2144   1.560   2.191   1.136  0.1441 -0.2729  1.4162
  715SOL    HW2 2145   1.595   2.067   1.239  1.2241  1.2867 -0.6312
  716SOL     OW 2146   1.232   0.194   1.477 -0.3302 -0.0065 -0.4745
  716SOL    HW1 2147   1.132   0.214   1.455 -0.1607 -1.1858  1.6380
  716SOL    HW2 2148   1.295   0.275   1.456 -1.0577  1.8401 -2.4400
  717SOL     OW 2149   1.090   0.621   1.610  0.3780  0.4836 -0.3594
  717SOL    HW1 2150   1.193   0.606   1.634  1.4287  0.5242  2.8496
  717SOL    HW2 2151   1.071   0.607   1.508  0.8751 -1.3402 -1.2928
  718SOL     OW 2152   0.616   1.075   0.976 -0.4332 -0.3399 -0.3288
  718SOL    HW1 2153   0.590   1.055   0.875 -0.0828 -1.2443 -3.2799
  718SOL    HW2 2154   0.698   1.142   0.989  1.8465  1.1951  0.8545
  719SOL     OW 2155   0.800   1.868   2.234  0.1772 -0.6367  0.4849
  719SOL    HW1 2156   0.874   1.881   2.306  1.5668 -1.0986 -1.5130
  719SOL    HW2 2157   0.699   1.883   2.270 -5.1264  1.7162  0.2067
  720SOL     OW 2158   2.217   1.101   0.234  0.1240  0.4423  0.4546
  720SOL    HW1 2159   2.315   1.062   0.235 -0.6623  2.3760 -1.4261
  720SOL    HW2 2160   2.178   1.108   0.330  2.7407  0.1304 -0.4092
  721SOL     OW 2161   2.241   0.040   2.074 -0.6190  0.7249  1.1058
  721SOL    HW1 2162   2.305   0.103   2.025 -0.9902 -1.5806 -1.5214
  721SOL    HW2 2163   2.145   0.078   2.085 -1.4042  1.2549 -1.1914
  722SOL     OW 2164   2.366   1.647   0.506 -0.6896 -0.1609 -0.0213
  722SOL    HW1 2165   2.360   1.639   0.403  0.1653  0.3436  1.3339
  722SOL    HW2 2166   2.282   1.608   0.553 -2.3404 -1.0260 -0.4087
  723SOL     OW 2167   2.573   2.842   1.924  0.7240 -0.0619 -0.6553
  723SOL    HW1 2168   2.634   2.860   2.010  0.7017 -1.0198 -1.3420
  723SOL    HW2 2169   2.477   2.832   1.947  2.5967  0.4942 -0.0733
  724SOL     OW 2170   0.429   2.428   2.419 -0.3548 -0.1565 -0.6927
  724SOL    HW1 2171   0.327   2.437   2.406 -1.4273  1.0485  1.5720
  724SOL    HW2 2172   0.464   2.429   2.517 -1.6259 -2.6686 -1.8380
  725SOL     OW 2173   2.334   2.762   1.422 -1.3526  0.0234 -0.2190
  725SOL    HW1 2174   2.421   2.786   1.366  3.8053  0.0930 -0.4815
  725SOL    HW2 2175   2.342   2.663   1.458  0.8320 -0.6050  2.4368
  726SOL     OW 2176   2.389   2.268   0.719 -0.0277 -0.1508  0.5613
  726SOL    HW1 2177   2.293   2.309   0.727 -0.3525  0.7422  1.9967
  726SOL    HW2 2178   2.408   2.227   0.629 -2.0475 -0.0927  0.6684
  727SOL     OW 2179   0.221   0.026   0.127  0.3219  0.7046  0.0770
  727SOL    HW1 2180   0.223  -0.065   0.082 -2.5483  0.9030 -0.6657
  727SOL    HW2 2181   0.243   0.100   0.058 -0.2925 -0.8032  0.0730
  728SOL     OW 2182   2.757   0.699   1.023  0.2308  0.5185  0.4642
  728SOL    HW1 2183   2.701   0.684   0.939 -2.0539 -0.4082  0.3121
  728SOL    HW2 2184   2.772   0.618   1.090 -0.6532  1.7381  2.8501
  729SOL     OW 2185   2.906   2.460   0.706  0.5388 -0.1140  0.1593
  729SOL    HW1 2186   2.893   2.358   0.726 -1.4675 -3.0849  2.2236
  729SOL    HW2 2187   3.002   2.493   0.722  0.1816  2.0678  1.3636
  730SOL     OW 2188   2.582   0.625   0.822  0.7068 -0.4593  0.2606
  730SOL    HW1 2189   2.546   0.715   0.790  1.9246  0.5547  1.9813
  730SOL    HW2 2190   2.650   0.595   0.755 -2.4796 -1.0394  1.3762
  731SOL     OW 2191   0.025   2.119   2.469  0.3746 -0.0346 -0.3600
  731SOL    HW1 2192   0.042   2.142   2.565 -1.2753  2.6191 -0.0270
  731SOL    HW2 2193   0.049   2.188   2.397 -2.5219 -2.7330 -1.0881
  732SOL     OW 2194   1.126   2.869   1.963  0.2584 -0.9862  0.0486
  732SOL    HW1 2195   1.146   2.810   2.049  0.8916 -1.4563  0.2901
  732SOL    HW2 2196   1.158   2.821   1.878  0.4295  1.9916 -1.1208
  733SOL     OW 2197   3.074   0.754   2.053  0.4402 -0.2452  0.6159
  733SOL    HW1 2198   3.162   0.812   2.069 -1.6572 -0.0775 -1.2598
  733SOL    HW2 2199   3.091   0.660   2.010 -0.8178 -1.5450 -0.3556
  734SOL     OW 2200   1.395   0.351   2.711 -0.6381  0.0708 -0.4110
  734SOL    HW1 2201   1.423   0.434   2.769  2.9687 -1.1088  2.4500
  734SOL    HW2 2202   1.329   0.292   2.765  2.6705  0.3987 -0.2425
  735SOL     OW 2203   2.862   2.603   2.272 -0.2994  0.1518  0.0497
  735SOL    HW1 2204   2.807   2.617   2.183  1.0065 -1.4480 -1.4841
  735SOL    HW2 2205   2.961   2.589   2.253  1.6411  1.2531  1.2152
  736SOL     OW 2206   0.802   0.414   2.669 -0.0348  0.1762 -0.0839
  736SOL    HW1 2207   0.732   0.486   2.654  0.0585 -0.8184 -1.6368
  736SOL    HW2 2208   0.829   0.363   2.582  2.1997 -1.7665 -2.4962
  737SOL     OW 2209   2.678   0.479   2.834  0.3738  0.0050 -1.1087
  737SOL    HW1 2210   2.680   0.452   2.941  0.2321 -3.5065 -0.0350
  737SOL    HW2 2211   2.762   0.438   2.783 -0.5079 -1.2836 -1.7131
  738SOL     OW 2212   1.642   1.220   3.010 -0.0539  0.0177  0.4664
  738SOL    HW1 2213   1.736   1.180   2.992  2.1762  0.8054 -0.1333
  738SOL    HW2 2214   1.558   1.167   2.984 -0.2844  0.7839  0.8878
  739SOL     OW 2215   1.793   0.643   0.701 -0.4669 -0.5976  0.3294
  739SOL    HW1 2216   1.801   0.606   0.796  0.9685  0.2487  0.9839
  739SOL    HW2 2217   1.828   0.577   0.629  0.1509  0.3523 -0.8658
  740SOL     OW 2218   1.970   1.892   2.168 -0.3823  0.6752 -0.0429
  740SOL    HW1 2219   2.048   1.898   2.100  2.3445  1.5185  0.5307
  740SOL    HW2 2220   1.891   1.841   2.126  0.3266  2.6059 -0.8901
  741SOL     OW 2221   2.475   0.100   2.585 -0.1522  0.6054 -0.1404
  741SOL    HW1 2222   2.569   0.064   2.605  0.4081  0.9884  0.2500
  741SOL    HW2 2223   2.440   0.060   2.495  0.8292  0.6735  1.3517
  742SOL     OW 2224   2.242   1.376   0.115  0.1211 -0.1182  0.0978
  742SOL    HW1 2225   2.160   1.433   0.089 -1.8425 -0.4398 -0.0518
  742SOL    HW2 2226   2.220   1.317   0.198 -1.0673 -0.4032  1.1349
  743SOL     OW 2227   1.744   0.585   2.625  0.2044 -0.0811 -0.2427
  743SOL    HW1 2228   1.743   0.556   2.525 -1.3611  0.6462  0.1929
  743SOL    HW2 2229   1.660   0.641   2.649 -1.3795  2.0559 -1.8709
  744SOL     OW 2230   2.641   2.102   0.040 -0.6143  0.1216  0.2406
  744SOL    HW1 2231   2.542   2.127   0.059  1.9482 -0.7716 -1.6379
  744SOL    HW2 2232   2.680   2.051   0.126 -2.5368 -3.4200  0.6723
  745SOL     OW 2233   2.168   2.707   2.213 -0.1333  0.1626 -0.1645
  745SOL    HW1 2234   2.077   2.673   2.178  0.1528 -0.7994 -0.1997
  745SOL    HW2 2235   2.161   2.782   2.281  2.3118  0.1790  0.7615
  746SOL     OW 2236   3.079   2.586   1.812  0.3247  0.1810  0.0869
  746SOL    HW1 2237   3.183   2.592   1.824 -1.5504  0.2322  2.7846
  746SOL    HW2 2238   3.032   2.678   1.823 -2.2280 -2.8375  0.2822
  747SOL     OW 2239   3.062   1.821   1.692 -0.0234 -0.2263  0.4636
  747SOL    HW1 2240   3.039   1.721   1.675 -1.6774  0.7971 -0.0970
  747SOL    HW2 2241   3.134   1.859   1.626 -0.4074 -0.3810 -0.0842
  748SOL     OW 2242   1.770   2.747   2.885 -0.6060  0.8423 -0.9915
  748SOL    HW1 2243   1.806   2.759   2.986  1.8110 -2.0086  1.3469
  748SOL    HW2 2244   1.668   2.721   2.894 -0.8092  0.8547 -1.0694
  749SOL     OW 2245   1.277   0.056   0.837 -0.2500  0.3140 -0.2891
  749SOL    HW1 2246   1.241  -0.038   0.860  2.0390  2.1702 -1.1294
  749SOL    HW2 2247   1.289   0.068   0.734 -2.9595 -2.5938  0.8273
  750SOL     OW 2248   2.365   0.217   1.881  0.8291 -0.1761  1.1355
  750SOL    HW1 2249   2.385   0.270   1.792 -2.1491 -0.1435 -1.3768
  750SOL    HW2 2250   2.350   0.282   1.954  3.0189 -1.5295 -0.4829
  751SOL     OW 2251   0.821   2.220   2.806 -0.1089  0.2183  0.4663
  751SOL    HW1 2252   0.885   2.224   2.889  1.4183  0.7619 -0.3903
  751SOL    HW2 2253   0.752   2.141   2.810  2.0659  0.7716 -0.2187
  752SOL     OW 2254   1.243   0.905   1.584 -0.1785  0.2049 -0.1742
  752SOL    HW1 2255   1.301   0.944   1.508  1.9380 -0.7101  0.4644
  752SOL    HW2 2256   1.284   0.816   1.616  0.5282  0.2528  1.1489
  753SOL     OW 2257   0.943   2.619   1.775 -0.2419  0.1728  0.1226
  753SOL    HW1 2258   1.026   2.661   1.731  0.8172  0.8583 -1.1894
  753SOL    HW2 2259   0.860   2.672   1.749  2.7301  0.9086 -1.2740
  754SOL     OW 2260   1.147   1.266   3.060 -0.7170 -0.6663 -0.0631
  754SOL    HW1 2261   1.176   1.196   2.993 -1.6061  1.8074  0.6245
  754SOL    HW2 2262   1.171   1.364   3.028 -0.6638  2.3833  1.9957
  755SOL     OW 2263   1.990   0.487   2.217  0.3976  0.4669  0.3731
  755SOL    HW1 2264   2.063   0.433   2.268  0.9202 -0.6023  2.2110
  755SOL    HW2 2265   1.904   0.492   2.276  2.2120 -0.3882  1.1391
  756SOL     OW 2266   2.631   1.015   2.937  0.3168 -0.1332 -0.4759
  756SOL    HW1 2267   2.734   0.995   2.945  0.1218  2.3819  2.1002
  756SOL    HW2 2268   2.576   0.947   2.994  0.1536 -4.0499  1.5039
  757SOL     OW 2269   0.139   0.523   1.735 -0.0645  0.3847  0.0168
  757SOL    HW1 2270   0.127   0.621   1.695  1.0536 -0.3436 -0.6706
  757SOL    HW2 2271   0.189   0.463   1.669  0.5222 -0.0163  0.3854
  758SOL     OW 2272   2.402   3.078   1.523  0.2181  0.1269  0.5791
  758SOL    HW1 2273   2.327   3.035   1.575  1.8337  1.3251  0.4457
  758SOL    HW2 2274   2.380   3.091   1.421  0.1350  0.1183  2.1172
  759SOL     OW 2275   1.670   3.090   0.062 -0.0343 -0.2476  0.0984
  759SOL    HW1 2276   1.642   3.112  -0.034 -1.9364  2.6881 -0.8856
  759SOL    HW2 2277   1.776   3.078   0.063  2.2526  0.5253 -1.4205
  760SOL     OW 2278   2.718   2.018   2.796 -0.5127 -0.0616  0.4658
  760SOL    HW1 2279   2.712   1.919   2.825 -2.0781 -0.1944 -0.2754
  760SOL    HW2 2280   2.801   2.069   2.822 -2.1256 -2.6902 -2.9945
  761SOL     OW 2281   1.935   1.701   1.615  0.0482 -0.0697 -0.1663
  761SOL    HW1 2282   1.983   1.623   1.662  0.8763 -0.9219 -0.6914
  761SOL    HW2 2283   1.841   1.672   1.571 -3.0173  1.0329  2.2354
  762SOL     OW 2284   0.515   2.398   0.947 -0.2476 -0.1187 -0.2104
  762SOL    HW1 2285   0.577   2.404   0.860  3.1548  0.6669  1.0502
  762SOL    HW2 2286   0.563   2.441   1.027  1.6435 -0.4280 -0.9573
  763SOL     OW 2287   2.097   1.542   2.993 -0.2047  0.2223 -0.3035
  763SOL    HW1 2288   2.101   1.491   2.905 -1.9002  0.0644  0.9438
  763SOL    HW2 2289   2.010   1.515   3.040  0.9216  1.3398 -3.5089
  764SOL     OW 2290   0.682   0.505   0.893  0.1878  0.1598 -0.0987
  764SOL    HW1 2291   0.684   0.421   0.827  0.0434  2.9474 -2.3098
  764SOL    HW2 2292   0.776   0.542   0.927  0.5840  1.0357 -0.9767
  765SOL     OW 2293   0.672   0.254   0.778  0.0732  0.0310 -0.0494
  765SOL    HW1 2294   0.761   0.215   0.739  0.3056  1.7233 -0.6100
  765SOL    HW2 2295   0.663   0.239   0.880  0.7402 -0.1119 -2.0070
  766SOL     OW 2296   2.946   2.087   0.023 -0.3535 -0.5620 -0.3145
  766SOL    HW1 2297   2.846   2.114   0.026  2.2706 -0.9350  0.3073
  766SOL    HW2 2298   3.016   2.166   0.013  1.6974 -0.7872 -0.1836
  767SOL     OW 2299   2.863   1.560   0.512  0.4422  0.4134  0.1382
  767SOL    HW1 2300   2.761   1.553   0.532 -0.2394  1.8376 -2.5157
  767SOL    HW2 2301   2.914   1.625   0.573 -0.9225 -3.0389 -0.9613
  768SOL     OW 2302   1.105   0.265   0.308  0.0608  0.3579  0.0750
  768SOL    HW1 2303   1.040   0.188   0.295 -0.0788 -1.7023  1.0763
  768SOL    HW2 2304   1.205   0.233   0.296  1.1101 -0.5970  2.4900
  769SOL     OW 2305   1.194   1.821   2.262  0.1542  0.4786 -0.3739
  769SOL    HW1 2306   1.196   1.849   2.362  1.5768 -3.2235 -4.7396
  769SOL    HW2 2307   1.163   1.723   2.244  1.0435 -0.5367  0.1563
  770SOL     OW 2308   0.174   1.191   2.405  0.0618 -1.0251  0.1277
  770SOL    HW1 2309   0.164   1.239   2.496 -0.1636  0.5580  2.1871
  770SOL    HW2 2310   0.096   1.196   2.343  1.2765  2.9738  1.0271
  771SOL     OW 2311   2.926   2.837   1.943 -0.6111  0.2454  0.4349
  771SOL    HW1 2312   2.921   2.893   1.861 -2.2118 -3.0020  1.6097
  771SOL    HW2 2313   2.918   2.892   2.035 -0.2490 -0.6075  1.4901
  772SOL     OW 2314   2.132   0.126   2.962  0.4500 -0.0338  0.0654
  772SOL    HW1 2315   2.192   0.060   3.011 -0.9706  0.7117 -1.1148
  772SOL    HW2 2316   2.132   0.220   3.019  0.7024  0.9156 -0.5902
  773SOL     OW 2317   0.668   2.072   2.458 -0.1055  0.3170  0.0133
  773SOL    HW1 2318   0.636   2.143   2.389 -3.2090 -1.3056  0.4162
  773SOL    HW2 2319   0.596   2.055   2.530  1.4542  0.0357 -0.5155
  774SOL     OW 2320   2.047   3.088   2.606 -0.0480 -0.1702  0.0879
  774SOL    HW1 2321   2.038   3.182   2.647  1.0728 -2.1412 -0.7275
  774SOL    HW2 2322   2.101   3.014   2.660  3.5088 -1.7395  1.1906
  775SOL     OW 2323   2.485   2.838   2.320 -0.0637 -0.2327 -0.3220
  775SOL    HW1 2324   2.469   2.940   2.315 -2.6843 -0.2264 -2.6229
  775SOL    HW2 2325   2.543   2.806   2.399 -0.5166 -0.5547 -1.5543
  776SOL     OW 2326   0.048   1.253   0.204  0.1949  0.5512  0.3220
  776SOL    HW1 2327   0.010   1.207   0.118 -0.2678 -0.4235 -1.1251
  776SOL    HW2 2328  -0.035   1.266   0.268  1.7580 -3.1240  0.2263
  777SOL     OW 2329   0.255   2.677   0.487  0.4748 -0.0995 -0.4319
  777SOL    HW1 2330   0.153   2.666   0.501  1.9079 -1.4223 -1.3550
  777SOL    HW2 2331   0.283   2.775   0.502 -1.6858 -0.0349 -1.2958
  778SOL     OW 2332   1.333   1.952   0.169  0.4701  0.0874  0.4365
  778SOL    HW1 2333   1.299   1.987   0.261 -2.2783 -2.4131 -0.5264
  778SOL    HW2 2334   1.335   2.026   0.095 -0.4731 -1.7870  0.9292
  779SOL     OW 2335   0.184   0.815   0.536  0.2180  0.0158  0.8468
  779SOL    HW1 2336   0.176   0.724   0.485 -1.9880 -2.2707 -1.2085
  779SOL    HW2 2337   0.101   0.839   0.590  1.0680  1.9947  0.8716
  780SOL     OW 2338   0.033   0.326   2.402 -0.3777  0.5768 -0.2766
  780SOL    HW1 2339  -0.014   0.416   2.386 -3.1830 -1.6293 -0.5317
  780SOL    HW2 2340   0.124   0.322   2.354  1.0606  0.4476  0.0887
  781SOL     OW 2341   0.587   1.704   1.600 -0.1583 -0.2750  0.6803
  781SOL    HW1 2342   0.611   1.711   1.702  0.9141 -3.0389 -0.2302
  781SOL    HW2 2343   0.513   1.637   1.590  2.7177  1.4285 -2.2094
  782SOL     OW 2344   2.654   0.120   0.906  0.3814 -0.5101 -0.2685
  782SOL    HW1 2345   2.592   0.110   0.826  1.4356  0.3707 -0.0176
  782SOL    HW2 2346   2.611   0.164   0.989 -0.3886 -0.4425 -3.3339
  783SOL     OW 2347   2.829   0.692   2.489 -0.4199 -0.4720 -0.4795
  783SOL    HW1 2348   2.802   0.708   2.585  0.8089  0.6109 -0.7669
  783SOL    HW2 2349   2.768   0.616   2.459  0.2909  0.8318 -1.1096
  784SOL     OW 2350   1.382   2.180   0.023  0.8436 -0.0545  0.3259
  784SOL    HW1 2351   1.457   2.236   0.072  0.2063 -0.7695  1.5723
  784SOL    HW2 2352   1.388   2.183  -0.078 -0.2446 -1.5083  2.9632
  785SOL     OW 2353   2.146   0.360   0.010 -0.5244 -0.5520  0.1262
  785SOL    HW1 2354   2.075   0.363   0.089 -3.9937  0.1698  1.9750
  785SOL    HW2 2355   2.172   0.456  -0.031 -0.6967  2.3508 -0.1136
  786SOL     OW 2356   2.019   2.166   2.288 -0.1143 -0.2846  0.6882
  786SOL    HW1 2357   1.975   2.077   2.294 -0.5764  2.8719  0.1871
  786SOL    HW2 2358   2.114   2.156   2.315 -1.7239 -0.7635  2.6266
  787SOL     OW 2359   1.379   0.623   0.818  0.1746 -0.0880  0.0244
  787SOL    HW1 2360   1.353   0.723   0.849  0.2542 -0.1015 -2.5611
  787SOL    HW2 2361   1.436   0.615   0.732  1.2039 -0.3442  1.4131
  788SOL     OW 2362   1.204   0.448   3.020  0.2539  0.1941 -0.1039
  788SOL    HW1 2363   1.103   0.456   3.000 -2.9728  1.1863  0.5159
  788SOL    HW2 2364   1.262   0.496   2.948 -2.4412  1.3535 -0.1475
  789SOL     OW 2365   2.616   0.111   1.845 -0.0486  0.2519  0.7098
  789SOL    HW1 2366   2.516   0.103   1.869 -2.5207 -0.1565  1.9713
  789SOL    HW2 2367   2.658   0.017   1.818 -0.4934  2.2314 -0.2914
  790SOL     OW 2368   2.574   2.638   0.792  0.1570  0.6569  0.1366
  790SOL    HW1 2369   2.649   2.679   0.734  1.5923  2.0303 -1.1367
  790SOL    HW2 2370   2.533   2.717   0.848 -0.6989 -1.0064 -0.0400
  791SOL     OW 2371   1.983   1.256   0.231  0.1475 -0.5262  0.3603
  791SOL    HW1 2372   1.895   1.205   0.242 -1.2860 -1.0060 -0.6887
  791SOL    HW2 2373   2.059   1.185   0.205  0.5121 -4.7034 -0.5914
  792SOL     OW 2374   0.411   1.979   2.207  0.1048  0.4252  0.0173
  792SOL    HW1 2375   0.463   2.068   2.195  0.5203 -0.8296 -0.8273
  792SOL    HW2 2376   0.313   1.989   2.238  1.1786 -1.3285 -2.6926
  793SOL     OW 2377   2.141   1.536   2.143 -0.5821 -0.3759  0.0598
  793SOL    HW1 2378   2.215   1.581   2.085 -0.8901  1.5658 -0.6837
  793SOL    HW2 2379   2.091   1.461   2.080  0.3276 -1.8214  3.9205
  794SOL     OW 2380   0.492   1.473   2.472  0.4129  0.2455 -0.0597
  794SOL    HW1 2381   0.528   1.443   2.380  1.2064 -0.9778 -1.9608
  794SOL    HW2 2382   0.401   1.526   2.457 -1.3722  0.1403  1.2711
  795SOL     OW 2383   2.540   2.313   1.802 -0.1116  0.0451 -0.2145
  795SOL    HW1 2384   2.567   2.384   1.869 -0.0522 -2.2393 -2.2501
  795SOL    HW2 2385   2.448   2.267   1.820 -1.2678 -0.3667  1.9761
  796SOL     OW 2386   3.046   1.063   2.698  0.0451  0.2169  0.5072
  796SOL    HW1 2387   2.952   1.102   2.714  2.7577 -0.5870  1.6619
  796SOL    HW2 2388   3.120   1.089   2.761 -1.4091 -0.1845 -3.1250
  797SOL     OW 2389   0.682   0.641   1.365 -0.1052 -0.3767  0.1582
  797SOL    HW1 2390   0.761   0.681   1.419 -0.9355 -0.0340 -1.0250
  797SOL    HW2 2391   0.615   0.710   1.321 -0.0696 -0.8523 -0.5468
  798SOL     OW 2392   1.184   0.473   0.932 -0.5435  0.4596 -0.6380
  798SOL    HW1 2393   1.211   0.518   1.020 -1.5080  2.8130 -2.3380
  798SOL    HW2 2394   1.249   0.502   0.852  1.5040 -2.2163  1.6621
  799SOL     OW 2395   1.817   2.713   1.017 -0.2968 -0.5599 -0.2027
  799SOL    HW1 2396   1.808   2.618   1.054  0.0192 -1.1869  1.1858
  799SOL    HW2 2397   1.853   2.725   0.919 -0.7058  2.6591  0.4600
  800SOL     OW 2398   2.944   0.856   1.815 -0.0909  0.2238  0.2260
  800SOL    HW1 2399   2.960   0.960   1.815 -0.2350 -1.1061 -2.6116
  800SOL    HW2 2400   2.960   0.819   1.912 -1.0481  1.8509  0.8493
  801SOL     OW 2401   1.962   2.142   0.129 -0.2569  0.0423 -0.0476
  801SOL    HW1 2402   1.885   2.178   0.073  1.1500  1.9696 -0.2549
  801SOL    HW2 2403   2.019   2.065   0.081  0.1018 -0.0245 -0.2150
  802SOL     OW 2404   0.665   0.613   2.542 -0.2002 -0.4083 -0.3200
  802SOL    HW1 2405   0.728   0.606   2.459  0.3057 -1.5214  0.7280
  802SOL    HW2 2406   0.567   0.643   2.516 -0.4907 -2.1965  2.0104
  803SOL     OW 2407   0.919   0.073   0.882  0.3983 -0.5228  0.3218
  803SOL    HW1 2408   0.980   0.141   0.934 -0.3352 -0.0914 -0.4679
  803SOL    HW2 2409   0.915   0.100   0.785  0.8296 -0.7644  2.6564
  804SOL     OW 2410   0.300   0.032   2.185  0.2990  0.5404 -0.1700
  804SOL    HW1 2411   0.264   0.131   2.199  1.0331  1.6872  0.4551
  804SOL    HW2 2412   0.237  -0.021   2.118  0.7230 -1.8298  0.2888
  805SOL     OW 2413   2.401   0.395   0.335  0.6003 -0.2502  0.4917
  805SOL    HW1 2414   2.453   0.364   0.418 -0.3957  0.6017 -3.3510
  805SOL    HW2 2415   2.416   0.333   0.251  0.1364  2.1382 -0.1205
  806SOL     OW 2416   0.627   2.556   1.822 -0.1987  0.7017 -0.0750
  806SOL    HW1 2417   0.592   2.616   1.904 -2.3683 -0.9631 -0.3524
  806SOL    HW2 2418   0.660   2.618   1.747 -1.6756  3.0828  1.5573
  807SOL     OW 2419   2.516   0.955   0.479  0.4462 -1.1235 -0.2548
  807SOL    HW1 2420   2.599   0.901   0.474 -2.2722  2.0644 -1.3241
  807SOL    HW2 2421   2.480   0.983   0.387 -3.8914  0.3367  1.1549
  808SOL     OW 2422   0.653   2.027   2.881  0.2228 -0.0473  0.2542
  808SOL    HW1 2423   0.626   2.070   2.969 -2.5001 -3.0593  0.8089
  808SOL    HW2 2424   0.675   1.925   2.891  0.7461 -0.3111  1.6703
  809SOL     OW 2425   2.564   1.982   1.892  0.2072  0.1025 -0.4426
  809SOL    HW1 2426   2.663   2.021   1.893 -1.3176 -1.8243  3.9289
  809SOL    HW2 2427   2.518   1.979   1.802  0.0899 -2.6884  1.1233
  810SOL     OW 2428   2.205   1.111   0.522  0.4043  0.3561 -1.0290
  810SOL    HW1 2429   2.236   1.085   0.617  1.7983 -0.1893 -0.0931
  810SOL    HW2 2430   2.137   1.189   0.521  1.9655 -0.1686 -4.5150
  811SOL     OW 2431   1.282   2.580   1.185  0.2552 -0.7334 -0.4173
  811SOL    HW1 2432   1.262   2.482   1.205  1.2769  0.3440  2.3695
  811SOL    HW2 2433   1.299   2.627   1.275 -1.4166 -3.0166  0.0617
  812SOL     OW 2434   1.445   0.747   1.956  0.3658 -0.3030 -0.8613
  812SOL    HW1 2435   1.346   0.757   1.918 -1.0854 -1.4421  2.9017
  812SOL    HW2 2436   1.508   0.828   1.944  1.2341 -3.2678 -0.4180
  813SOL     OW 2437   1.616   2.078   2.393  0.0714  0.3522 -0.5563
  813SOL    HW1 2438   1.692   2.018   2.430  1.5813  0.4287 -2.8206
  813SOL    HW2 2439   1.579   2.039   2.306  2.2133 -0.6144  0.4182
  814SOL     OW 2440   3.001   1.721   2.860  0.2940  0.3958 -0.5021
  814SOL    HW1 2441   3.075   1.685   2.928  3.1295  1.5293  2.0479
  814SOL    HW2 2442   3.011   1.822   2.831 -2.5360 -0.3462 -1.6198
  815SOL     OW 2443   2.170   2.890   2.746  0.0319 -0.4027 -0.4849
  815SOL    HW1 2444   2.136   2.828   2.821 -0.7585  0.3787 -1.0352
  815SOL    HW2 2445   2.259   2.940   2.769 -1.2856  0.9888  0.0479
  816SOL     OW 2446   1.529   0.355   1.663 -0.1104 -0.6128  0.8103
  816SOL    HW1 2447   1.587   0.277   1.696  0.3640  0.5330 -2.0721
  816SOL    HW2 2448   1.468   0.397   1.735  0.1974  0.0105  0.5043
  817SOL     OW 2449   0.385   1.264   2.647  0.0871  1.1794 -0.2296
  817SOL    HW1 2450   0.300   1.312   2.682 -1.4001  0.7049  0.2416
  817SOL    HW2 2451   0.431   1.335   2.583  0.2388  4.3540 -1.8986
  818SOL     OW 2452   2.010   0.837   0.464 -0.1889  0.5095 -0.0732
  818SOL    HW1 2453   2.102   0.826   0.424 -1.5099 -2.7252  0.4919
  818SOL    HW2 2454   2.009   0.881   0.558  1.1315  0.9502 -0.4916
  819SOL     OW 2455   2.762   2.875   3.058  0.0155 -0.2283 -0.8429
  819SOL    HW1 2456   2.767   2.778   3.092  1.5757 -0.1442 -3.2178
  819SOL    HW2 2457   2.701   2.886   2.976  2.0587 -1.7037  1.7129
  820SOL     OW 2458   1.283   1.045   0.548  0.0879 -0.2214 -0.4161
  820SOL    HW1 2459   1.291   1.118   0.619 -3.4794  1.8191 -0.9405
  820SOL    HW2 2460   1.264   0.956   0.600 -0.2158 -1.9906  0.8867
  821SOL     OW 2461   0.097   1.194   0.700 -0.2192  0.5434 -0.2222
  821SOL    HW1 2462   0.048   1.205   0.797  0.7856 -2.7177  1.3855
  821SOL    HW2 2463   0.171   1.259   0.680  0.6054 -1.1728 -1.2170
  822SOL     OW 2464   2.525   1.758   2.438 -0.3236  0.0388  0.2927
  822SOL    HW1 2465   2.517   1.832   2.510 -0.5934 -2.4758  0.7079
  822SOL    HW2 2466   2.439   1.750   2.381  0.6746 -0.1520  1.7848
  823SOL     OW 2467   2.018   0.955   1.205  0.0098 -0.0755 -0.1844
  823SOL    HW1 2468   2.000   0.901   1.294  0.8857 -2.3577  0.9654
  823SOL    HW2 2469   1.935   0.934   1.137 -1.4576  1.2841  0.7395
  824SOL     OW 2470   0.188   1.903   2.787  0.0002 -0.0477 -0.2838
  824SOL    HW1 2471   0.243   1.873   2.870  0.2976  0.3289 -1.4353
  824SOL    HW2 2472   0.250   1.901   2.708  1.8238 -2.4596  0.7499
  825SOL     OW 2473   1.311   1.082   0.262 -0.1229 -0.2137  0.1146
  825SOL    HW1 2474   1.334   1.172   0.208 -0.5906  1.8276  1.1599
  825SOL    HW2 2475   1.272   1.096   0.355 -1.6422  0.4396  0.0586
  826SOL     OW 2476   1.931   0.591   1.578  0.1862 -0.1218  0.2548
  826SOL    HW1 2477   2.017   0.549   1.620  0.8214 -0.6624 -0.4829
  826SOL    HW2 2478   1.847   0.529   1.583 -1.4981  0.1663 -1.4427
  827SOL     OW 2479   0.725   1.171   0.415 -0.2545  0.4844  0.5019
  827SOL    HW1 2480   0.800   1.128   0.357  1.0555  2.5521 -1.0956
  827SOL    HW2 2481   0.645   1.108   0.421 -0.6040  0.9786 -1.7608
  828SOL     OW 2482   2.623   0.130   1.547 -0.2649  0.0522 -0.6498
  828SOL    HW1 2483   2.530   0.086   1.544 -0.1627  1.6002  0.9448
  828SOL    HW2 2484   2.651   0.158   1.647  1.7954  1.3230  1.6542
  829SOL     OW 2485   2.928   2.410   2.951  0.3856 -0.0894  0.2814
  829SOL    HW1 2486   2.827   2.386   2.973  0.2640 -1.8652  2.2150
  829SOL    HW2 2487   2.952   2.505   2.929  1.4182 -2.0330 -1.2047
  830SOL     OW 2488   2.871   0.900   3.008 -0.6578 -0.2191 -1.1689
  830SOL    HW1 2489   2.929   0.986   3.025 -0.0406  0.8573 -2.0516
  830SOL    HW2 2490   2.909   0.809   3.047  0.2846 -2.3465  0.7603
  831SOL     OW 2491   0.115   0.584   0.405  0.4168  0.1512  0.2439
  831SOL    HW1 2492   0.105   0.520   0.486  3.1977 -0.6304  0.5736
  831SOL    HW2 2493   0.137   0.535   0.317 -0.3150 -0.9681  1.7004
  832SOL     OW 2494   1.789   0.733   3.030 -0.1665 -1.0961  0.1820
  832SOL    HW1 2495   1.717   0.774   2.970 -0.4921 -0.6492  2.9633
  832SOL    HW2 2496   1.767   0.632   3.057  2.0539 -0.3871  1.3977
  833SOL     OW 2497   2.372   2.102   0.508 -0.2194  0.6689  0.5869
  833SOL    HW1 2498   2.288   2.048   0.481  0.3368  1.9308 -0.7788
  833SOL    HW2 2499   2.459   2.036   0.507 -0.5869 -0.0636 -3.1419
  834SOL     OW 2500   0.167   0.098   0.584 -0.1986 -0.8577 -0.4204
  834SOL    HW1 2501   0.197  -0.000   0.569  4.0976 -2.0898  0.3767
  834SOL    HW2 2502   0.199   0.159   0.504  0.0554  0.9213  0.8302
  835SOL     OW 2503   2.422   1.582   1.106 -0.2375  0.4165  0.2874
  835SOL    HW1 2504   2.523   1.549   1.123 -2.2562 -1.7706  0.7517
  835SOL    HW2 2505   2.412   1.655   1.036 -0.6801  3.1728  2.7720
  836SOL     OW 2506   1.567   0.809   2.576 -0.1900 -0.0016 -0.0135
  836SOL    HW1 2507   1.463   0.830   2.560 -0.5518  0.1637  0.5660
  836SOL    HW2 2508   1.626   0.846   2.500 -3.8514  1.4016  2.8874
  837SOL     OW 2509   1.726   0.105   0.562  0.0137  0.2117 -0.3180
  837SOL    HW1 2510   1.723   0.196   0.613  0.4499 -1.6730 -0.7903
  837SOL    HW2 2511   1.653   0.100   0.486 -0.6583 -0.8171 -1.9434
  838SOL     OW 2512   1.214   1.428   2.696  0.2502  0.4656 -0.5534
  838SOL    HW1 2513   1.185   1.499   2.768  0.0239 -0.4397 -0.8920
  838SOL    HW2 2514   1.137   1.367   2.660  0.4195 -0.0230  0.8165
  839SOL     OW 2515   1.593   0.346   0.969  0.6657  0.5264 -0.1043
  839SOL    HW1 2516   1.548   0.416   1.032  0.8604 -0.6817  0.1895
  839SOL    HW2 2517   1.560   0.241   0.978  1.2129 -0.8555  0.6954
  840SOL     OW 2518   2.622   2.949   1.674  0.7890 -0.2157 -0.3163
  840SOL    HW1 2519   2.539   2.993   1.629  0.6252  3.1263  0.7447
  840SOL    HW2 2520   2.606   2.887   1.757  2.7112  2.8163  1.6322
  841SOL     OW 2521   1.516   0.812   2.941  0.0039  0.1769  0.2820
  841SOL    HW1 2522   1.426   0.848   2.990 -4.8928  2.5224 -1.0230
  841SOL    HW2 2523   1.557   0.882   2.872 -1.2793  1.8133 -0.8261
  842SOL     OW 2524   0.853   1.602   1.020  0.0691  0.8346  0.0203
  842SOL    HW1 2525   0.796   1.684   1.041  0.2757  1.0799 -1.8406
  842SOL    HW2 2526   0.823   1.559   0.927 -0.2504 -2.0800 -1.2345
  843SOL     OW 2527   0.145   0.101   1.460  0.0329 -1.1462  0.4040
  843SOL    HW1 2528   0.236   0.129   1.496 -1.5474  0.2173 -0.3342
  843SOL    HW2 2529   0.137   0.009   1.410 -2.0374 -0.1177 -1.1588
  844SOL     OW 2530   0.713   2.533   0.213 -0.0198 -0.5541  0.4272
  844SOL    HW1 2531   0.694   2.533   0.314 -1.0512  0.5111  0.0283
  844SOL    HW2 2532   0.624   2.548   0.164  0.7470  0.8670 -0.2033
  845SOL     OW 2533   1.728   2.997   1.292  0.0609  0.9442  0.0264
  845SOL    HW1 2534   1.731   3.038   1.386  1.4810 -0.3606 -0.1576
  845SOL    HW2 2535   1.658   3.044   1.229  0.1226  2.6518 -0.3013
  846SOL     OW 2536   1.689   3.005   0.902  0.0372  0.2226  0.2935
  846SOL    HW1 2537   1.751   3.035   0.826 -1.1699 -0.6133  1.0044
  846SOL    HW2 2538   1.729   2.927   0.951 -0.7541  2.3096 -0.9004
  847SOL     OW 2539   2.079   1.598   0.199  0.6543  0.2824  0.3028
  847SOL    HW1 2540   2.043   1.556   0.282  1.7681 -0.9459 -3.5593
  847SOL    HW2 2541   2.000   1.641   0.144 -0.7854  2.0313  2.8728
  848SOL     OW 2542   2.472   0.866   2.620  0.3666 -0.2459 -0.5862
  848SOL    HW1 2543   2.442   0.950   2.668 -0.5560  0.0332  0.3740
  848SOL    HW2 2544   2.394   0.825   2.567 -0.0174  3.3074  1.6334
  849SOL     OW 2545   2.376   0.838   2.255 -0.8718  0.1325  0.2954
  849SOL    HW1 2546   2.431   0.773   2.192  0.2393 -0.3147 -2.0410
  849SOL    HW2 2547   2.344   0.801   2.342 -2.4045 -0.0292 -1.0224
  850SOL     OW 2548   1.554   0.194   1.254 -0.0945  0.8481 -0.0132
  850SOL    HW1 2549   1.533   0.156   1.160  0.2254 -0.5645  0.2008
  850SOL    HW2 2550   1.537   0.121   1.328  2.1771 -1.6219 -0.5094
  851SOL     OW 2551   0.499   1.745   0.666 -0.3369 -0.7001 -0.2480
  851SOL    HW1 2552   0.485   1.847   0.692 -0.1713  2.1681 -2.8909
  851SOL    HW2 2553   0.597   1.710   0.666  0.6392 -1.0057 -2.5892
  852SOL     OW 2554   0.824   2.152   1.714  0.2404  0.3084  0.6183
  852SOL    HW1 2555   0.810   2.240   1.664  3.8096  2.7744  1.6527
  852SOL    HW2 2556   0.773   2.145   1.807  3.8706  2.0579 -1.4840
  853SOL     OW 2557   2.571   1.522   2.577  1.0756 -0.1640 -0.3121
  853SOL    HW1 2558   2.507   1.445   2.550  2.1216  1.6787  2.6489
  853SOL    HW2 2559   2.557   1.618   2.526 -0.7804  2.1396  2.1555
  854SOL     OW 2560   2.402   1.440   1.756  0.1228  0.0558 -0.0842
  854SOL    HW1 2561   2.419   1.450   1.652  0.1495  0.2425  1.0476
  854SOL    HW2 2562   2.350   1.349   1.780  1.3142  0.2985  2.6235
  855SOL     OW 2563   2.042   2.279   1.000 -0.3753 -0.4707 -0.0261
  855SOL    HW1 2564   2.055   2.383   0.976 -1.3335 -1.0229 -0.1635
  855SOL    HW2 2565   2.099   2.261   1.091  1.7599  0.8227  0.2450
  856SOL     OW 2566   1.409   1.336   0.884 -0.3512  0.6078 -0.2432
  856SOL    HW1 2567   1.374   1.428   0.846 -1.1599  0.8707  0.9289
  856SOL    HW2 2568   1.455   1.342   0.982  1.8382  0.1391  2.7032
  857SOL     OW 2569   2.907   2.549   1.032 -0.6738 -0.2114  0.0525
  857SOL    HW1 2570   2.822   2.519   1.084  0.8553 -0.9810  0.7144
  857SOL    HW2 2571   2.931   2.487   0.949  1.3290  2.0725 -2.2237
  858SOL     OW 2572   2.261   2.109   1.769 -0.1185 -0.2665  0.2360
  858SOL    HW1 2573   2.187   2.137   1.704  0.7739  1.4662  2.0183
  858SOL    HW2 2574   2.338   2.065   1.714  0.4964 -1.5625  2.0639
  859SOL     OW 2575   2.395   0.460   0.993 -0.4594 -0.6502  0.2512
  859SOL    HW1 2576   2.456   0.507   0.921  3.1096 -0.0659 -2.2839
  859SOL    HW2 2577   2.449   0.380   1.042  1.4519 -1.5682 -4.0846
  860SOL     OW 2578   1.951   2.794   0.491 -0.1262  0.4801 -0.4353
  860SOL    HW1 2579   1.953   2.741   0.398 -3.2736  1.5134  1.6319
  860SOL    HW2 2580   1.954   2.896   0.473 -0.6950 -1.8790 -0.9700
  861SOL     OW 2581   1.048   2.567   2.777 -0.9466 -0.2769  0.1896
  861SOL    HW1 2582   1.102   2.658   2.761  0.2490 -2.2939 -0.1703
  861SOL    HW2 2583   1.004   2.556   2.871 -0.5440 -3.4333  1.2574
  862SOL     OW 2584   2.965   2.578   1.556  0.2328  0.3515 -0.2370
  862SOL    HW1 2585   3.015   2.561   1.643 -0.0519  0.0587 -0.7539
  862SOL    HW2 2586   2.886   2.644   1.557  2.8662 -1.0176 -1.9672
  863SOL     OW 2587   1.915   2.642   0.258  0.4093  0.1803  0.3553
  863SOL    HW1 2588   1.973   2.559   0.257  2.5145  2.3276 -1.5875
  863SOL    HW2 2589   1.814   2.617   0.253  2.7552  2.3057 -0.6719
  864SOL     OW 2590   1.890   1.134   2.936  0.5853 -0.3500  0.5612
  864SOL    HW1 2591   1.922   1.102   2.837  0.9336 -1.0983  0.9121
  864SOL    HW2 2592   1.964   1.124   3.010  2.5182  1.0112  2.2909
  865SOL     OW 2593   2.146   1.711   0.673 -0.0046 -0.9483 -0.3609
  865SOL    HW1 2594   2.214   1.740   0.751  1.2217  2.3308  2.2722
  865SOL    HW2 2595   2.051   1.690   0.715 -1.6664  0.0232 -0.1355
  866SOL     OW 2596   2.879   2.837   1.012 -0.6634 -0.4128 -0.1453
  866SOL    HW1 2597   2.936   2.880   0.934  0.7224  0.5255  1.2058
  866SOL    HW2 2598   2.892   2.737   1.021  0.0522 -0.5260 -0.4132
  867SOL     OW 2599   0.444   1.301   0.858  0.3349 -0.0468  0.5368
  867SOL    HW1 2600   0.440   1.204   0.814  2.4281  0.9599 -1.1344
  867SOL    HW2 2601   0.357   1.351   0.843  1.2463  1.1101 -1.9917
  868SOL     OW 2602   0.854   1.956   1.982 -0.2648  0.2361  0.4557
  868SOL    HW1 2603   0.858   1.922   2.084  0.9882 -0.7490 -0.3894
  868SOL    HW2 2604   0.778   2.030   1.973 -0.9592  4.9983  0.3616
  869SOL     OW 2605   2.527   2.034   1.612  0.2308  0.1255  0.1087
  869SOL    HW1 2606   2.583   2.120   1.606 -0.0559 -0.9067  2.4681
  869SOL    HW2 2607   2.551   1.972   1.537 -0.6323  0.8860  1.3331
  870SOL     OW 2608   2.380   2.513   1.186  0.2589 -0.1650 -0.2843
  870SOL    HW1 2609   2.327   2.426   1.156 -0.1133 -0.5258  0.3290
  870SOL    HW2 2610   2.462   2.497   1.247 -1.4171 -0.3275  3.4299
  871SOL     OW 2611   3.000   2.015   0.547  0.2609 -0.0784 -0.7060
  871SOL    HW1 2612   2.917   2.075   0.520  0.9202 -0.4564  0.6738
  871SOL    HW2 2613   2.999   1.934   0.489 -2.5025  1.1044  1.1479
  872SOL     OW 2614   2.181   0.513   1.698 -0.1262  0.1818 -0.2908
  872SOL    HW1 2615   2.139   0.513   1.794 -1.2977  1.1077  1.4108
  872SOL    HW2 2616   2.283   0.484   1.699  1.7591 -2.6764  2.0560
  873SOL     OW 2617   1.706   2.094   2.911 -0.8250 -0.1390 -0.9629
  873SOL    HW1 2618   1.681   2.181   2.958  0.2020 -2.6119 -1.7677
  873SOL    HW2 2619   1.645   2.077   2.829  3.2228 -0.5451  0.4750
  874SOL     OW 2620   0.718   2.513   0.748  0.1135  0.2698 -0.1444
  874SOL    HW1 2621   0.687   2.609   0.777 -0.3787 -1.3036 -1.0373
  874SOL    HW2 2622   0.815   2.505   0.779  1.6554  1.3344 -1.2731
  875SOL     OW 2623   2.329   1.509   1.472 -0.3833 -0.1307 -0.2109
  875SOL    HW1 2624   2.418   1.555   1.467 -0.3345  2.1942 -2.0103
  875SOL    HW2 2625   2.287   1.499   1.376  1.8136  1.6082 -2.7243
  876SOL     OW 2626   0.149   2.193   2.706  0.8448  0.3408  0.3366
  876SOL    HW1 2627   0.229   2.129   2.695  0.6268  0.3916  1.0306
  876SOL    HW2 2628   0.171   2.282   2.755 -1.5780 -2.1811 -2.4271
  877SOL     OW 2629   2.781   2.680   0.589  0.8222 -0.5434 -0.1513
  877SOL    HW1 2630   2.802   2.777   0.624 -1.5010  1.2518  0.5322
  877SOL    HW2 2631   2.844   2.612   0.634 -1.6531  1.6366  0.0173
  878SOL     OW 2632   2.789   1.556   2.220 -0.8182 -0.0639  0.0755
  878SOL    HW1 2633   2.845   1.612   2.155  0.6089  2.3759 -0.7199
  878SOL    HW2 2634   2.822   1.552   2.318 -1.2746 -1.7428  2.0923
  879SOL     OW 2635   2.376   3.102   1.212 -0.1824  0.0248 -0.0789
  879SOL    HW1 2636   2.413   3.004   1.206 -0.5638  0.0755  0.9217
  879SOL    HW2 2637   2.286   3.122   1.161 -1.6089 -2.0898  2.1219
  880SOL     OW 2638   0.678   0.412   2.183  0.3539  0.4386  0.2020
  880SOL    HW1 2639   0.602   0.365   2.233  1.9899 -1.2145 -2.4347
  880SOL    HW2 2640   0.755   0.348   2.194 -2.0220 -1.3359  2.6127
  881SOL     OW 2641   0.904   0.059   0.374  0.0565 -0.0363 -0.3042
  881SOL    HW1 2642   0.952  -0.027   0.404 -1.0228  1.4937 -1.5979
  881SOL    HW2 2643   0.850   0.039   0.288  0.3481  0.8267 -1.6517
  882SOL     OW 2644   2.757   1.640   1.685  0.0921  0.2027  0.1660
  882SOL    HW1 2645   2.864   1.630   1.683 -1.2554 -0.4398 -3.3950
  882SOL    HW2 2646   2.722   1.671   1.778 -0.6879  1.0925  1.5019
  883SOL     OW 2647   0.942   0.609   0.941 -0.4264  0.2181  0.4685
  883SOL    HW1 2648   0.961   0.698   0.987  1.7257 -0.5542 -3.6003
  883SOL    HW2 2649   1.023   0.540   0.931  1.1771  1.0068 -1.2469
  884SOL     OW 2650   1.215   1.897   1.024 -0.3251 -0.6658  0.0845
  884SOL    HW1 2651   1.166   1.875   0.937  0.8406  0.0326  1.4166
  884SOL    HW2 2652   1.151   1.956   1.083 -1.1739 -1.5350 -1.5520
  885SOL     OW 2653   2.271   1.795   2.314  0.7284 -0.4560  0.9465
  885SOL    HW1 2654   2.174   1.770   2.333 -2.5682 -0.4537 -0.7441
  885SOL    HW2 2655   2.284   1.892   2.345  1.9568 -0.7009  0.6206
  886SOL     OW 2656   2.658   0.463   1.777  0.1239  0.2324  0.0772
  886SOL    HW1 2657   2.683   0.404   1.860 -0.9229  0.0820 -1.6867
  886SOL    HW2 2658   2.718   0.538   1.752 -1.1437 -1.0905 -1.3778
  887SOL     OW 2659   0.137   2.056   1.306  0.5868  0.0148  0.0494
  887SOL    HW1 2660   0.102   2.028   1.210  1.0379  0.1784 -1.3051
  887SOL    HW2 2661   0.162   2.156   1.311 -0.3351 -1.2533  1.5691
  888SOL     OW 2662   0.590   1.314   1.486  0.5641  0.5308 -0.4668
  888SOL    HW1 2663   0.610   1.384   1.414  0.6978 -0.6418  2.6428
  888SOL    HW2 2664   0.630   1.219   1.472  0.2191 -0.6694  1.0170
  889SOL     OW 2665   0.871   2.529   2.133  0.7411 -0.4921 -0.4817
  889SOL    HW1 2666   0.784   2.491   2.091 -0.8394 -0.6976 -0.0313
  889SOL    HW2 2667   0.949   2.497   2.071 -1.3799  1.8117  0.0293
  890SOL     OW 2668   2.338   2.430   0.165  0.4618 -0.6716 -0.3351
  890SOL    HW1 2669   2.374   2.521   0.121 -0.8566  0.0510 -0.2158
  890SOL    HW2 2670   2.241   2.432   0.201  0.9741 -1.9041  0.0485
  891SOL     OW 2671   2.575   1.528   0.622 -0.4618  0.1652 -0.3006
  891SOL    HW1 2672   2.572   1.485   0.715 -3.6941 -0.3213  0.0346
  891SOL    HW2 2673   2.482   1.562   0.595 -0.3269  2.7762 -3.2175
  892SOL     OW 2674   0.237   0.285   2.216 -0.3888 -0.4390  0.2823
  892SOL    HW1 2675   0.249   0.305   2.112  2.5617  2.3205 -2.0589
  892SOL    HW2 2676   0.329   0.299   2.261  0.3056 -1.0196 -2.0913
  893SOL     OW 2677   1.659   0.240   2.727  0.3285  0.2743 -0.5674
  893SOL    HW1 2678   1.734   0.309   2.751  1.1046 -0.0604  2.4595
  893SOL    HW2 2679   1.570   0.283   2.692 -0.8580 -0.4346 -1.1045
  894SOL     OW 2680   2.147   1.961   0.051 -0.1719 -0.3104  0.4694
  894SOL    HW1 2681   2.130   1.908  -0.038  1.3952 -2.4711 -2.4073
  894SOL    HW2 2682   2.199   1.903   0.122  1.6039  0.3674 -2.7057
  895SOL     OW 2683   2.912   1.394   0.824 -0.4873 -0.3940  0.0393
  895SOL    HW1 2684   2.952   1.338   0.902  0.9300 -2.1013 -1.0013
  895SOL    HW2 2685   2.984   1.453   0.775 -1.3331  0.5653 -2.2040
  896SOL     OW 2686   1.737   1.797   1.184 -0.2574  0.3679  0.2555
  896SOL    HW1 2687   1.820   1.848   1.143 -0.9340  1.8856 -0.4121
  896SOL    HW2 2688   1.647   1.817   1.137 -2.5672 -0.8266  0.4502
  897SOL     OW 2689   0.317   0.530   3.103  0.4623 -0.2018  0.0897
  897SOL    HW1 2690   0.277   0.561   3.014  0.1637 -2.1334 -1.1872
  897SOL    HW2 2691   0.402   0.578   3.133 -1.8257  0.5132  1.9349
  898SOL     OW 2692   0.548   2.819   1.141  0.0851 -0.7458  0.1712
  898SOL    HW1 2693   0.484   2.899   1.164 -0.1329 -0.0947  0.2600
  898SOL    HW2 2694   0.648   2.833   1.164  0.3092  0.0495  1.5031
  899SOL     OW 2695   2.688   0.914   1.247  0.4666 -0.2003 -0.5221
  899SOL    HW1 2696   2.612   0.871   1.186 -2.0488  0.0620  1.1337
  899SOL    HW2 2697   2.771   0.945   1.193  0.0017  2.8040 -1.1035
  900SOL     OW 2698   0.990   2.397   2.343  0.1582 -0.7233 -0.2672
  900SOL    HW1 2699   0.919   2.440   2.288  2.1738 -2.2385  1.6205
  900SOL    HW2 2700   0.966   2.387   2.443  0.5384  1.4386 -0.0144
  901SOL     OW 2701   1.902   2.466   1.386 -0.3746  0.8154  0.3154
  901SOL    HW1 2702   1.899   2.458   1.283  2.0153  2.8007 -0.9754
  901SOL    HW2 2703   1.997   2.448   1.414 -2.3235 -0.1577  0.8503
  902SOL     OW 2704   2.587   1.634   1.454 -0.3079 -0.1551  0.0650
  902SOL    HW1 2705   2.664   1.649   1.522  1.0111 -0.6785 -1.3399
  902SOL    HW2 2706   2.621   1.597   1.359  0.4189  0.9900  0.9840
  903SOL     OW 2707   0.255   2.325   1.977  0.1597 -0.6503 -0.0842
  903SOL    HW1 2708   0.155   2.305   1.986  0.0578  2.5236 -1.4813
  903SOL    HW2 2709   0.280   2.404   1.908  2.6195 -1.6131  1.1339
  904SOL     OW 2710   1.971   0.806   2.577 -0.1362 -0.7446 -0.0416
  904SOL    HW1 2711   1.894   0.768   2.639 -0.8917  0.9097  3.1458
  904SOL    HW2 2712   1.974   0.764   2.484  0.9552 -1.6560  0.5606
  905SOL     OW 2713   2.742   0.010   2.643  0.0941  0.4309  0.2956
  905SOL    HW1 2714   2.812  -0.070   2.634 -1.1985 -0.9525  0.0725
  905SOL    HW2 2715   2.780   0.099   2.607  2.6659 -0.3258 -1.9272
  906SOL     OW 2716   0.136   1.761   1.944 -0.2977 -0.2077  0.6423
  906SOL    HW1 2717   0.095   1.781   1.852  0.3297  0.2132  1.0999
  906SOL    HW2 2718   0.232   1.801   1.949 -2.4901 -1.6450  0.4588
  907SOL     OW 2719   0.166   2.458   1.040  0.3051 -0.1209  0.4126
  907SOL    HW1 2720   0.242   2.532   1.030 -1.1066  1.9881  0.5007
  907SOL    HW2 2721   0.111   2.441   0.952 -1.9290 -0.1893  1.1413
  908SOL     OW 2722   2.662   2.894   0.432 -0.2404 -0.0981 -0.6356
  908SOL    HW1 2723   2.664   2.938   0.333 -2.1483  0.7375 -4.2066
  908SOL    HW2 2724   2.610   2.804   0.427  0.6508 -3.5675  1.3146
  909SOL     OW 2725   0.788   0.897   2.650 -0.8301 -0.3702 -0.1532
  909SOL    HW1 2726   0.743   0.817   2.612 -3.0475  2.3943  0.4941
  909SOL    HW2 2727   0.846   0.948   2.583 -1.0359  3.0915  1.1142
  910SOL     OW 2728   1.743   1.770   2.020  0.0710  0.0739 -0.1451
  910SOL    HW1 2729   1.766   1.814   1.930  1.8698 -1.1138 -0.4178
  910SOL    HW2 2730   1.681   1.831   2.078  0.8203  0.1104  0.6816
  911SOL     OW 2731   1.760   3.036   1.566 -0.2708  0.6007 -0.7742
  911SOL    HW1 2732   1.839   2.992   1.510 -1.9123  1.7076 -0.9680
  911SOL    HW2 2733   1.739   2.968   1.645 -1.1770  1.6880 -2.3569
  912SOL     OW 2734   2.827   0.959   0.777 -0.1702 -0.7866  0.2172
  912SOL    HW1 2735   2.867   0.957   0.873 -0.0461 -0.4001 -0.4891
  912SOL    HW2 2736   2.769   1.043   0.763  0.8938  0.0331 -0.0794
  913SOL     OW 2737   2.533   1.270   1.563  0.1802 -0.2997 -0.3775
  913SOL    HW1 2738   2.561   1.172   1.570 -0.9249 -2.4141  1.6532
  913SOL    HW2 2739   2.599   1.329   1.507  0.6839 -2.2429  2.1500
  914SOL     OW 2740   2.815   0.553   1.234 -0.4561  0.0237  0.3117
  914SOL    HW1 2741   2.767   0.466   1.262 -1.0128  2.7940  0.0373
  914SOL    HW2 2742   2.791   0.627   1.303 -0.1435 -4.2169  1.6423
  915SOL     OW 2743   1.246   0.797   1.010  0.0713  0.5852  0.0113
  915SOL    HW1 2744   1.310   0.873   1.041 -1.8635  1.5043 -1.8831
  915SOL    HW2 2745   1.159   0.793   1.066 -0.8769 -0.6567 -0.6054
  916SOL     OW 2746   0.526   0.064   0.605 -0.3364 -0.1105 -0.9486
  916SOL    HW1 2747   0.570   0.144   0.659 -0.4716  0.3479 -1.3581
  916SOL    HW2 2748   0.541   0.082   0.502 -2.6258 -0.3940 -0.5180
  917SOL     OW 2749   2.750   2.617   1.933  0.1556  0.1517 -0.0420
  917SOL    HW1 2750   2.663   2.667   1.929  1.7820 -0.9058 -2.8107
  917SOL    HW2 2751   2.838   2.676   1.948  0.8349  2.1431 -1.8098
  918SOL     OW 2752   0.974   2.195   3.050  0.1424  0.3767  1.3596
  918SOL    HW1 2753   0.922   2.231   3.133 -0.9166  0.1270 -0.8905
  918SOL    HW2 2754   1.045   2.123   3.072 -1.0676  0.4806  0.5414
  919SOL     OW 2755   0.940   1.615   2.821 -0.1272  0.0984  0.2189
  919SOL    HW1 2756   0.950   1.693   2.753  1.6409  2.4565 -0.4147
  919SOL    HW2 2757   0.873   1.538   2.798 -0.5181 -1.3882 -2.2742
  920SOL     OW 2758   1.240   2.053   2.528 -0.0159 -0.1925 -0.2332
  920SOL    HW1 2759   1.194   2.079   2.434 -1.7794  3.4879  0.9113
  920SOL    HW2 2760   1.298   1.964   2.538  1.8510  1.9327  2.2482
  921SOL     OW 2761   1.046   0.151   2.574  0.0545  0.5510  0.0983
  921SOL    HW1 2762   1.061   0.140   2.470 -1.4513  0.4930  0.9868
  921SOL    HW2 2763   0.959   0.098   2.599 -4.0037 -0.8638 -1.1166
  922SOL     OW 2764   2.178   2.397   2.766 -0.5097  0.1843  0.0668
  922SOL    HW1 2765   2.194   2.296   2.753 -0.8926  0.9140  0.2395
  922SOL    HW2 2766   2.126   2.450   2.692  0.3811  1.8532  0.6920
  923SOL     OW 2767   1.198   2.656   0.283 -0.4033  0.1128 -0.6651
  923SOL    HW1 2768   1.276   2.717   0.316 -1.4629  1.3572  1.3805
  923SOL    HW2 2769   1.223   2.554   0.262 -0.1498  1.4928  0.6464
  924SOL     OW 2770   2.904   1.579   0.078 -0.0995 -0.2662  0.0244
  924SOL    HW1 2771   2.835   1.589   0.004  1.8419  2.8730 -0.1384
  924SOL    HW2 2772   3.000   1.572   0.042  0.6029 -1.3682 -0.2504
  925SOL     OW 2773   0.035   2.837   1.677  0.4639  0.3094  0.0013
  925SOL    HW1 2774  -0.037   2.911   1.687  0.7279  1.0526 -0.5354
  925SOL    HW2 2775   0.005   2.767   1.606  0.8218 -1.7358  0.5753
  926SOL     OW 2776   1.415   2.913   1.311  1.0237 -0.4480  0.1959
  926SOL    HW1 2777   1.450   2.925   1.215 -1.2523 -1.0793 -1.6808
  926SOL    HW2 2778   1.426   2.996   1.373 -1.6632 -1.1514  2.2265
  927SOL     OW 2779   0.290   2.532   1.772  0.2101 -0.0977 -0.4286
  927SOL    HW1 2780   0.253   2.477   1.690 -1.8555 -0.9116 -1.3856
  927SOL    HW2 2781   0.296   2.630   1.744 -0.5708 -1.5447 -1.6322
  928SOL     OW 2782   1.586   1.971   2.138  0.3571  0.2162  0.1135
  928SOL    HW1 2783   1.614   2.067   2.109  0.8809  1.3928 -2.7567
  928SOL    HW2 2784   1.485   1.967   2.116  0.8675 -2.3234 -2.0015
  929SOL     OW 2785   2.439   2.469   2.825 -1.1043  0.2770 -0.4202
  929SOL    HW1 2786   2.346   2.429   2.841  3.9239 -0.5901  0.2488
  929SOL    HW2 2787   2.468   2.479   2.729 -0.5352  0.3690 -0.1194
  930SOL     OW 2788   2.217   1.979   1.085  0.0804  0.1341  0.1600
  930SOL    HW1 2789   2.226   1.944   1.186 -1.0303 -2.2151  2.8608
  930SOL    HW2 2790   2.284   2.058   1.063  2.4590  2.0893 -0.7902
  931SOL     OW 2791   0.551   1.724   2.604  0.0742  0.4461 -0.1417
  931SOL    HW1 2792   0.608   1.712   2.690  2.9539 -4.5707 -0.9040
  931SOL    HW2 2793   0.554   1.637   2.548 -1.6017 -2.1154  2.1930
  932SOL     OW 2794   0.468   0.097   2.950 -0.5182  0.1154  0.0111
  932SOL    HW1 2795   0.557   0.121   2.905 -0.5970 -0.4991  1.0072
  932SOL    HW2 2796   0.465  -0.006   2.978  3.4130 -1.3727  0.2463
  933SOL     OW 2797   1.043   0.797   2.988  0.5665 -0.5832  0.2966
  933SOL    HW1 2798   1.097   0.805   3.074 -2.0324 -1.1548 -1.3082
  933SOL    HW2 2799   1.041   0.890   2.941  0.2789 -1.9633  1.6982
  934SOL     OW 2800   0.839   2.987   2.723 -0.3013 -0.5656  0.6080
  934SOL    HW1 2801   0.877   2.912   2.663 -3.0337 -1.6172 -1.3551
  934SOL    HW2 2802   0.846   2.951   2.822  0.1487  1.1539  1.0587
  935SOL     OW 2803   3.085   0.496   0.829 -0.2361  0.0481  0.8650
  935SOL    HW1 2804   3.119   0.447   0.739  2.1683 -1.3831 -2.5374
  935SOL    HW2 2805   2.994   0.549   0.815  0.2636  0.0520  1.9285
  936SOL     OW 2806   1.071   2.937   0.172 -0.3721  0.3090 -0.2343
  936SOL    HW1 2807   1.134   2.983   0.101  1.4393  0.1897  1.4077
  936SOL    HW2 2808   1.096   2.843   0.191  1.0478  3.5033 -0.5504
  937SOL     OW 2809   1.916   2.625   2.091  0.2411  0.1475 -0.4668
  937SOL    HW1 2810   1.844   2.691   2.122 -0.3687 -1.2049 -1.1403
  937SOL    HW2 2811   1.933   2.633   1.987 -0.4820  2.1183 -1.6576
  938SOL     OW 2812   2.799   2.161   1.479 -0.2195 -0.0191 -0.1256
  938SOL    HW1 2813   2.755   2.243   1.524 -1.0850 -0.0191  2.6102
  938SOL    HW2 2814   2.878   2.120   1.533  1.6810 -1.1636 -2.8596
  939SOL     OW 2815   2.793   1.082   2.489  0.4684 -0.6408  0.2558
  939SOL    HW1 2816   2.836   0.991   2.479 -1.0937  1.0327 -0.5951
  939SOL    HW2 2817   2.778   1.117   2.587  2.3269 -0.5707 -0.0919
  940SOL     OW 2818   1.062   0.492   2.642 -0.1002 -0.1842 -0.2826
  940SOL    HW1 2819   1.096   0.397   2.673  0.7133  3.3568  1.0227
  940SOL    HW2 2820   0.958   0.499   2.671  2.8415 -2.4593  0.8860
  941SOL     OW 2821   0.064   2.839   2.208 -0.1141 -0.0166 -0.3883
  941SOL    HW1 2822   0.050   2.743   2.186 -0.4378  4.2034 -1.7993
  941SOL    HW2 2823   0.123   2.856   2.290 -0.4749 -1.3218  0.7203
  942SOL     OW 2824   0.050   0.067   2.512  0.2030  0.1253 -0.0216
  942SOL    HW1 2825   0.125   0.071   2.583  2.7895 -1.0932 -0.7407
  942SOL    HW2 2826   0.028   0.163   2.469 -2.2307  0.4523 -0.0821
  943SOL     OW 2827   2.078   1.579   2.429 -0.2389 -0.0759 -0.2466
  943SOL    HW1 2828   2.130   1.540   2.341  0.5703 -1.5681 -1.6464
  943SOL    HW2 2829   2.098   1.517   2.512  0.4706  0.5856 -0.8924
  944SOL     OW 2830   2.155   2.415   1.476  0.0563  0.4649  0.1440
  944SOL    HW1 2831   2.251   2.451   1.501 -3.4576 -1.7802  0.2129
  944SOL    HW2 2832   2.127   2.337   1.542  0.4330 -1.7301 -0.5328
  945SOL     OW 2833   0.571   1.429   0.370  0.1343 -0.0145 -0.1502
  945SOL    HW1 2834   0.625   1.485   0.300 -0.9713 -0.1955  0.9435
  945SOL    HW2 2835   0.612   1.333   0.390 -0.7142 -0.2026 -0.3547
  946SOL     OW 2836   0.412   1.009   2.539 -0.4441  0.0286 -0.3422
  946SOL    HW1 2837   0.327   0.955   2.514  0.3803 -0.4019 -0.3574
  946SOL    HW2 2838   0.381   1.101   2.580 -2.8723  1.7289  3.1661
  947SOL     OW 2839   1.476   0.515   0.120  0.1601 -0.5523  0.2033
  947SOL    HW1 2840   1.434   0.549   0.034 -2.6428  2.3834  0.5821
  947SOL    HW2 2841   1.417   0.443   0.171  0.9542  0.1031  0.3034
  948SOL     OW 2842   1.944   3.080   2.194 -0.1822  0.3229 -0.1113
  948SOL    HW1 2843   1.949   3.062   2.091  0.2952 -0.8682  0.4981
  948SOL    HW2 2844   1.937   2.993   2.259  0.6446 -1.8364 -0.2808
  949SOL     OW 2845   0.623   2.538   0.486  0.1952 -0.0640 -0.2193
  949SOL    HW1 2846   0.635   2.637   0.457 -1.1040 -1.3136 -1.3379
  949SOL    HW2 2847   0.646   2.523   0.586 -3.0112 -0.6084 -0.4228
  950SOL     OW 2848   0.306   2.113   3.076  0.0846 -0.7197 -0.2481
  950SOL    HW1 2849   0.207   2.150   3.074 -0.4069  0.6486 -3.3859
  950SOL    HW2 2850   0.302   2.009   3.059 -0.7367 -0.8300 -0.3392
  951SOL     OW 2851   1.193   2.798   2.762  0.5087 -0.2983  0.6022
  951SOL    HW1 2852   1.212   2.816   2.659 -0.7127 -0.6929 -0.7821
  951SOL    HW2 2853   1.283   2.792   2.815 -0.1335 -1.4434 -1.8014
  952SOL     OW 2854   0.111   1.644   0.464 -0.1017  0.4285  0.1219
  952SOL    HW1 2855   0.168   1.731   0.461 -1.4524 -1.8758 -0.8904
  952SOL    HW2 2856   0.084   1.621   0.555 -0.9095  1.0570 -3.0201
  953SOL     OW 2857   2.592   1.774   0.195  0.1519 -0.2665 -1.0052
  953SOL    HW1 2858   2.562   1.673   0.214 -0.5453 -0.7036 -1.2627
  953SOL    HW2 2859   2.592   1.791   0.095 -2.5380 -1.6807  2.7429
  954SOL     OW 2860   2.152   0.560   0.996 -0.3791 -0.4681  0.8067
  954SOL    HW1 2861   2.131   0.565   0.890 -1.6411  1.3738 -2.4250
  954SOL    HW2 2862   2.254   0.535   1.009 -2.1319 -3.7784  0.0913
  955SOL     OW 2863   0.282   2.665   1.301  0.0142  0.7065 -0.3550
  955SOL    HW1 2864   0.178   2.665   1.312  2.2905 -2.1488  0.9815
  955SOL    HW2 2865   0.309   2.670   1.203  0.8186 -0.1595  0.2866
  956SOL     OW 2866   2.775   2.449   2.495 -0.4031  0.0446  0.6130
  956SOL    HW1 2867   2.789   2.350   2.510  1.1888 -0.4963  1.8267
  956SOL    HW2 2868   2.784   2.473   2.392  0.1078  0.5931 -1.5687
  957SOL     OW 2869   1.543   2.027   2.708 -0.1164 -0.4264  0.0925
  957SOL    HW1 2870   1.523   1.928   2.726  2.0999  2.0151 -1.7632
  957SOL    HW2 2871   1.558   2.033   2.606  1.3272 -0.5230 -0.5088
  958SOL     OW 2872   2.650   2.341   2.987 -0.2999 -0.1097  0.3015
  958SOL    HW1 2873   2.571   2.388   2.931  0.1412 -0.2732  1.0660
  958SOL    HW2 2874   2.628   2.265   3.056 -0.0397 -0.3620  0.2439
  959SOL     OW 2875   0.291   2.788   0.022 -0.1412  0.5365 -1.0824
  959SOL    HW1 2876   0.194   2.772   0.049  1.2075  0.4702 -0.4775
  959SOL    HW2 2877   0.349   2.706   0.029 -0.2356  1.8630  3.8989
  960SOL     OW 2878   1.984   0.498   1.930  0.0989  0.1581 -0.2485
  960SOL    HW1 2879   1.942   0.593   1.906 -3.2535  1.8768 -2.9078
  960SOL    HW2 2880   1.971   0.469   2.029  2.5465  0.6574 -0.7717
  961SOL     OW 2881   2.578   1.820   1.071 -0.0921 -0.2089  0.6667
  961SOL    HW1 2882   2.530   1.890   1.016  1.6868  1.5541  2.0906
  961SOL    HW2 2883   2.601   1.852   1.165  0.7748  1.8139 -1.7917
  962SOL     OW 2884   1.280   0.901   0.057 -0.3733  0.1466  0.2562
  962SOL    HW1 2885   1.263   0.958  -0.030 -1.0896 -1.9843  1.1795
  962SOL    HW2 2886   1.296   0.971   0.133 -0.4238  1.2864 -0.7315
  963SOL     OW 2887   2.309   2.625   1.874  0.5265  0.2625 -0.7758
  963SOL    HW1 2888   2.324   2.540   1.932  1.0084 -0.8034 -0.8865
  963SOL    HW2 2889   2.312   2.711   1.930 -1.6440  1.0614 -1.8376
  964SOL     OW 2890   2.430   0.364   1.654  0.6326  0.3802 -0.3429
  964SOL    HW1 2891   2.513   0.423   1.682  1.6202  1.3316  2.7175
  964SOL    HW2 2892   2.417   0.345   1.554 -2.6696  2.2095 -2.3086
  965SOL     OW 2893   2.619   2.998   0.181  0.6071 -0.2860  0.8551
  965SOL    HW1 2894   2.663   2.929   0.117 -0.1587 -1.5512 -0.8923
  965SOL    HW2 2895   2.524   3.028   0.133 -3.2866  0.4081 -4.7639
  966SOL     OW 2896   2.548   2.577   2.227  0.6043  0.5443 -0.4732
  966SOL    HW1 2897   2.457   2.529   2.228  1.1321  0.7738 -1.8856
  966SOL    HW2 2898   2.537   2.672   2.268 -0.3684  1.3329  3.3360
  967SOL     OW 2899   2.755   2.788   2.450  0.2770 -0.1641 -0.3509
  967SOL    HW1 2900   2.805   2.725   2.384  1.5230  0.9416 -1.1272
  967SOL    HW2 2901   2.815   2.877   2.469  0.3127  1.7596 -1.5787
  968SOL     OW 2902   2.012   1.071   2.692  0.6837  0.4187 -0.8080
  968SOL    HW1 2903   1.992   1.157   2.637 -1.2490  0.9162  2.3242
  968SOL    HW2 2904   1.996   0.976   2.637 -0.6084 -1.2261  0.4163
  969SOL     OW 2905   2.755   2.339   1.124 -0.1110 -0.3093 -0.0007
  969SOL    HW1 2906   2.698   2.313   1.041  0.9645  1.4296 -1.1497
  969SOL    HW2 2907   2.842   2.283   1.133  0.3275  1.4183  0.8858
  970SOL     OW 2908   1.107   2.177   1.772 -0.0812  0.5469 -0.2857
  970SOL    HW1 2909   1.005   2.193   1.762  1.9381  1.4450  0.3185
  970SOL    HW2 2910   1.139   2.188   1.872 -1.1753  1.4657 -0.8180
  971SOL     OW 2911   2.827   2.064   1.919 -0.0115  0.3782  0.3044
  971SOL    HW1 2912   2.822   2.148   1.982  1.7317  1.3467  0.0825
  971SOL    HW2 2913   2.875   2.090   1.829 -1.1800  2.3426 -0.2312
  972SOL     OW 2914   2.037   2.385   0.264 -0.8250  0.0222  0.0557
  972SOL    HW1 2915   1.997   2.293   0.234 -2.2975 -1.3129 -0.2625
  972SOL    HW2 2916   2.068   2.383   0.362 -1.3099 -0.2841  1.6336
  973SOL     OW 2917   1.227   1.071   1.969 -0.2247  0.0874  0.0011
  973SOL    HW1 2918   1.175   1.050   1.881  0.6540 -2.1832  1.6858
  973SOL    HW2 2919   1.262   1.164   1.994 -0.2702 -0.5521  3.5717
  974SOL     OW 2920   1.635   0.566   1.905  0.3911 -0.5232 -0.5554
  974SOL    HW1 2921   1.723   0.621   1.885  1.5403  0.2248  3.3892
  974SOL    HW2 2922   1.556   0.628   1.940 -2.0437  1.4579  0.4232
  975SOL     OW 2923   2.341   3.054   3.090 -0.4329 -0.3352 -0.0372
  975SOL    HW1 2924   2.301   2.963   3.097  0.4195  3.2977  0.1719
  975SOL    HW2 2925   2.377   3.074   2.996 -1.2427  0.5816 -0.3214
  976SOL     OW 2926   1.940   2.861   2.358 -0.1501  0.3940  0.2669
  976SOL    HW1 2927   1.840   2.831   2.334  0.4759 -1.2869  0.3477
  976SOL    HW2 2928   1.958   2.856   2.456 -1.0198  2.4671 -3.0368
  977SOL     OW 2929   0.490   0.644   1.043  0.5709  0.5977 -0.1488
  977SOL    HW1 2930   0.397   0.639   1.000 -2.6409  2.2490 -2.1281
  977SOL    HW2 2931   0.559   0.595   0.979  1.3897  2.2898  0.5871
   3.10000   3.10000   3.10000
