1000 SPC/Fw water molecules t=   0.51000 step= 510
 2931
    1SOL     OW    1   2.473   0.342   2.622  0.2164  0.6116  0.0481
    1SOL    HW1    2   2.514   0.250   2.596 -2.1578 -1.6736 -0.5359
    1SOL    HW2    3   2.522   0.376   2.709 -0.2912 -2.6415  2.5383
    2SOL     OW    4   2.704   3.054   1.452 -0.6264  0.6090  0.0308
    2SOL    HW1    5   2.763   3.083   1.368 -1.6497  1.2148 -1.7368
    2SOL    HW2    6   2.659   3.136   1.495  4.9149  0.8587  1.7495
    3SOL     OW    7   2.735   2.595   0.395  0.2514 -0.1935  0.5080
    3SOL    HW1    8   2.719   2.490   0.400  2.7305 -0.1671  0.2252
    3SOL    HW2    9   2.801   2.626   0.468  1.3923 -1.0401 -2.2728
    4SOL     OW   10   1.315   1.486   2.358 -0.1642 -0.2194  0.0177
    4SOL    HW1   11   1.217   1.516   2.326 -2.3694  2.6786  0.2010
    4SOL    HW2   12   1.312   1.426   2.446  0.9539 -3.3064  1.8983
    5SOL     OW   13   1.186   1.511   3.041  0.0294 -0.2139  0.1979
    5SOL    HW1   14   1.247   1.582   3.087 -0.1865  2.4020  1.1067
    5SOL    HW2   15   1.086   1.528   3.062  0.5229 -1.8585 -2.1627
    6SOL     OW   16   0.063   1.807   2.917  0.7160  0.7850 -0.3388
    6SOL    HW1   17   0.050   1.864   3.007 -0.4179 -1.7706 -0.3941
    6SOL    HW2   18   0.074   1.706   2.933 -0.5572  1.6375  1.4056
    7SOL     OW   19   2.597   0.908   1.166  0.6094  0.0202 -0.0286
    7SOL    HW1   20   2.505   0.862   1.199 -1.2233  1.7358  1.9944
    7SOL    HW2   21   2.619   0.902   1.064  1.0679  0.5971  2.2791
    8SOL     OW   22   0.446   0.605   1.515 -0.1333 -0.4477 -0.3330
    8SOL    HW1   23   0.519   0.537   1.544  3.0619  1.9629 -3.5404
    8SOL    HW2   24   0.405   0.580   1.422  0.8009  1.4684 -0.1566
    9SOL     OW   25   1.150   0.926   2.279 -0.4358 -0.2696 -0.0268
    9SOL    HW1   26   1.228   0.991   2.243 -0.1859 -3.3944 -1.7391
    9SOL    HW2   27   1.083   0.901   2.205 -1.3866  0.7052 -0.4885
   10SOL     OW   28   0.709   1.335   1.265 -0.4289 -0.0171 -0.2125
   10SOL    HW1   29   0.609   1.365   1.241 -1.1856  1.0509 -3.0286
   10SOL    HW2   30   0.782   1.407   1.264 -2.5193 -3.0110  3.1270
   11SOL     OW   31   2.379   2.698   0.935 -0.0195 -0.0059 -0.1227
   11SOL    HW1   32   2.382   2.709   1.039 -0.4993 -0.6789  1.2777
   11SOL    HW2   33   2.467   2.743   0.893  2.0046  1.0325 -1.6704
   12SOL     OW   34   1.461   0.918   0.357  0.0929  0.7741 -0.0714
   12SOL    HW1   35   1.390   0.982   0.311 -0.0219  2.1278  1.2532
   12SOL    HW2   36   1.467   0.823   0.316  1.7968  2.0848 -2.6295
   13SOL     OW   37   2.540   0.666   1.817  0.5329  0.5164  0.2050
   13SOL    HW1   38   2.449   0.662   1.871 -1.1710 -2.2914 -0.4384
   13SOL    HW2   39   2.529   0.629   1.721 -0.2011 -0.3462  0.9679
   14SOL     OW   40   1.971   0.063   0.710  0.3778  0.2433  0.5120
   14SOL    HW1   41   1.904   0.114   0.646  1.9428  0.9900  2.5271
   14SOL    HW2   42   1.919  -0.009   0.764 -0.1552  2.2499  0.4557
   15SOL     OW   43   1.944   2.015   2.825 -0.2344 -0.0782 -0.5244
   15SOL    HW1   44   1.929   2.120   2.846  0.2543  2.5792 -1.8713
   15SOL    HW2   45   1.863   1.974   2.773  0.9508 -0.6152  1.4406
   16SOL     OW   46   1.598   1.729   3.056  0.2470 -0.4533 -0.9970
   16SOL    HW1   47   1.610   1.623   3.053  0.1999 -1.7517  0.7369
   16SOL    HW2   48   1.685   1.773   3.093 -0.9388  1.7195  1.0378
   17SOL     OW   49   0.096   0.497   0.144  0.3456  0.0373  0.3157
   17SOL    HW1   50   0.181   0.510   0.084 -0.2445  0.7561 -0.3253
   17SOL    HW2   51   0.008   0.520   0.091 -1.6165  1.0793  0.4606
   18SOL     OW   52   0.982   2.920   2.159  0.0975  0.3404 -0.4765
   18SOL    HW1   53   0.899   2.863   2.153  1.1178  0.6715 -0.0058
   18SOL    HW2   54   1.058   2.884   2.095  1.0622 -0.4501 -3.0717
   19SOL     OW   55   0.543   0.839   1.921 -0.1388 -0.2281 -0.0556
   19SOL    HW1   56   0.546   0.821   2.024 -1.4518  0.4846  1.3495
   19SOL    HW2   57   0.624   0.803   1.871  1.8090 -1.0186 -0.8445
   20SOL     OW   58   0.169   2.803   0.817  0.3185 -0.3107 -0.5119
   20SOL    HW1   59   0.090   2.854   0.776  2.0981 -0.8604 -1.5648
   20SOL    HW2   60   0.242   2.779   0.751 -0.2496 -0.2942  1.7216
   21SOL     OW   61   2.767   0.197   2.095 -0.5229  0.4395 -0.4391
   21SOL    HW1   62   2.729   0.131   2.023 -0.0972 -0.8853 -2.7827
   21SOL    HW2   63   2.851   0.165   2.148  1.7112 -0.1040 -0.2921
   22SOL     OW   64   2.318   0.231   0.064  0.6316  0.4162  0.5602
   22SOL    HW1   65   2.318   0.132   0.085 -2.1562 -0.7803  0.1018
   22SOL    HW2   66   2.218   0.273   0.057  0.5162  2.1545  0.1821
   23SOL     OW   67   2.755   0.628   0.650 -0.2701  0.1292 -0.4395
   23SOL    HW1   68   2.770   0.534   0.612 -3.5266 -0.8826  1.0524
   23SOL    HW2   69   2.756   0.709   0.581  0.9335 -2.3411 -0.3009
   24SOL     OW   70   0.130   1.919   0.387 -0.4239 -0.2640  0.1482
   24SOL    HW1   71   0.058   1.968   0.326 -1.8410 -0.3605  1.5990
   24SOL    HW2   72   0.236   1.928   0.363  1.6152  0.2595 -2.4202
   25SOL     OW   73   2.236   0.517   0.207 -0.0252  0.3876 -0.3503
   25SOL    HW1   74   2.286   0.590   0.271 -0.0170  0.8654 -0.8724
   25SOL    HW2   75   2.233   0.531   0.103 -2.8769  0.1371  0.5361
   26SOL     OW   76   2.524   2.168   2.080  0.4322 -0.7196  0.0188
   26SOL    HW1   77   2.582   2.214   2.152 -0.0686 -1.4961 -1.0534
   26SOL    HW2   78   2.572   2.079   2.039  1.8182 -2.3693 -0.1009
   27SOL     OW   79   0.616   2.950   0.146 -0.6189 -0.1735  0.4219
   27SOL    HW1   80   0.714   2.976   0.124  1.2843 -2.5377  1.3619
   27SOL    HW2   81   0.548   2.958   0.067 -2.0869  1.1050 -0.1108
   28SOL     OW   82   1.579   0.173   0.304 -0.1240 -0.5937  0.4719
   28SOL    HW1   83   1.590   0.147   0.204 -3.2219  0.3990  1.4573
   28SOL    HW2   84   1.574   0.276   0.325  1.0489  0.7123 -0.7270
   29SOL     OW   85   2.010   0.515   0.376 -0.8565 -0.4403 -0.1827
   29SOL    HW1   86   1.975   0.609   0.366 -2.3524  1.8050 -0.5297
   29SOL    HW2   87   2.091   0.492   0.310 -1.4406 -2.4593  0.6083
   30SOL     OW   88   0.166   2.055   0.937  1.0157 -0.0442  0.0206
   30SOL    HW1   89   0.178   2.070   0.836  0.1045  1.6044  0.4745
   30SOL    HW2   90   0.093   2.120   0.966 -3.0928 -1.6600 -2.6114
   31SOL     OW   91   2.121   3.086   2.303 -0.0380 -0.2288  0.0613
   31SOL    HW1   92   2.120   3.103   2.406 -1.4405 -0.1599  1.3401
   31SOL    HW2   93   2.033   3.039   2.270 -1.2910 -0.1745  2.1639
   32SOL     OW   94   2.962   0.203   0.224  0.3398  0.3746  0.7660
   32SOL    HW1   95   2.910   0.121   0.265  0.9071  0.1716  0.3707
   32SOL    HW2   96   3.051   0.213   0.271  2.3499  0.6516 -0.9257
   33SOL     OW   97   0.909   0.339   0.539  0.0999  0.3420  0.7372
   33SOL    HW1   98   0.897   0.237   0.502 -1.3177 -2.9102 -2.0896
   33SOL    HW2   99   0.989   0.348   0.604 -3.0318  1.5651  2.4628
   34SOL     OW  100   0.373   2.855   1.029 -0.1822  0.3262  0.7839
   34SOL    HW1  101   0.316   2.786   0.979 -1.1348  1.4602  2.4830
   34SOL    HW2  102   0.475   2.837   1.015 -0.4272 -1.1668  1.2283
   35SOL     OW  103   0.033   0.184   1.867 -0.0256  0.7595 -0.1042
   35SOL    HW1  104   0.073   0.090   1.897 -2.4201 -0.2255  0.0459
   35SOL    HW2  105  -0.039   0.174   1.791 -2.0224  1.8730  0.0434
   36SOL     OW  106   1.947   1.094   1.826 -0.5004 -0.3573  0.4003
   36SOL    HW1  107   1.994   1.065   1.737  2.7861 -0.2776  1.9566
   36SOL    HW2  108   1.996   1.173   1.875  3.1991  3.1580  2.2418
   37SOL     OW  109   1.203   0.184   0.952  0.3128 -0.2719 -0.2190
   37SOL    HW1  110   1.251   0.255   1.004 -0.3690 -1.9621 -1.3306
   37SOL    HW2  111   1.265   0.128   0.892  0.6606  0.7740 -0.4148
   38SOL     OW  112   1.064   2.745   2.404 -0.0507 -0.0147  0.1253
   38SOL    HW1  113   1.033   2.664   2.463  1.0081  2.7421 -0.3817
   38SOL    HW2  114   1.016   2.832   2.417  1.4031  1.7457  2.2973
   39SOL     OW  115   2.304   1.352   3.003 -0.3726  0.1635 -0.0301
   39SOL    HW1  116   2.397   1.307   3.021 -1.2465  0.2029 -1.8671
   39SOL    HW2  117   2.250   1.379   3.087 -0.6093  2.2100  0.6029
   40SOL     OW  118   2.132   2.519   2.512 -0.6255  0.2603 -0.0655
   40SOL    HW1  119   2.091   2.611   2.533 -1.8134 -0.5846 -0.7184
   40SOL    HW2  120   2.054   2.476   2.456 -3.0685  0.8047  0.1117
   41SOL     OW  121   2.948   0.698   2.746  0.1949 -0.7792 -0.2497
   41SOL    HW1  122   2.872   0.769   2.774  1.0355 -2.0759  1.6553
   41SOL    HW2  123   2.906   0.605   2.745  0.4493  2.1600  1.7032
   42SOL     OW  124   1.736   1.779   0.563  0.1085 -0.3087  0.3767
   42SOL    HW1  125   1.701   1.684   0.538 -0.5241 -0.5292 -2.3973
   42SOL    HW2  126   1.779   1.825   0.483 -2.1958 -1.1982  0.3889
   43SOL     OW  127   0.466   1.724   1.132 -0.2854 -0.3600 -0.6770
   43SOL    HW1  128   0.475   1.618   1.123 -1.8295 -2.7165 -2.0710
   43SOL    HW2  129   0.392   1.759   1.070 -0.9860  2.4008  3.0692
   44SOL     OW  130   1.818   2.475   3.034  0.0920 -0.2203 -0.1201
   44SOL    HW1  131   1.811   2.550   2.967 -0.8089  1.1251 -2.5661
   44SOL    HW2  132   1.912   2.473   3.075  1.9778 -0.7048 -2.7705
   45SOL     OW  133   0.302   1.902   2.600  0.2971  0.2989 -0.1433
   45SOL    HW1  134   0.259   1.922   2.506  2.1063 -1.9375  0.4566
   45SOL    HW2  135   0.391   1.850   2.598 -1.7217  1.5494  2.0653
   46SOL     OW  136   1.217   0.671   0.169  0.0827 -0.5553 -0.3340
   46SOL    HW1  137   1.271   0.757   0.151 -1.8931 -0.4402 -4.1831
   46SOL    HW2  138   1.125   0.697   0.206  0.7441 -2.2150 -3.2711
   47SOL     OW  139   0.189   2.439   1.631 -0.4043  0.0039 -0.1523
   47SOL    HW1  140   0.262   2.371   1.614 -1.1676  3.3591 -0.8260
   47SOL    HW2  141   0.130   2.458   1.541 -0.1548  3.6212 -1.6393
   48SOL     OW  142   2.619   0.605   0.152  0.6387 -0.4502 -0.6767
   48SOL    HW1  143   2.584   0.607   0.257 -1.0138  0.7695  5.5003
   48SOL    HW2  144   2.711   0.654   0.150 -0.4864  0.8065 -0.0294
   49SOL     OW  145   0.369   0.784   1.703 -0.1814 -0.3734 -0.2728
   49SOL    HW1  146   0.428   0.803   1.789  1.0303  1.8491  0.4315
   49SOL    HW2  147   0.401   0.706   1.635 -2.0509 -0.8613 -0.5024
   50SOL     OW  148   1.665   1.137   0.312 -0.4187  0.3653 -0.4369
   50SOL    HW1  149   1.644   1.041   0.275 -1.1470 -2.2968 -1.4890
   50SOL    HW2  150   1.616   1.158   0.395  1.4262 -1.0923  0.9665
   51SOL     OW  151   2.964   1.914   0.291 -0.8062 -0.5517  0.4389
   51SOL    HW1  152   2.913   1.848   0.230 -0.1988 -0.8627  1.3165
   51SOL    HW2  153   3.024   1.866   0.362  2.2302  2.0408 -2.4459
   52SOL     OW  154   0.803   1.935   0.487  0.9376 -0.5379 -0.7836
   52SOL    HW1  155   0.712   1.978   0.513 -0.8110  0.6329 -0.4982
   52SOL    HW2  156   0.832   1.855   0.547  1.0522  0.2306 -1.8997
   53SOL     OW  157   3.102   0.355   1.551 -0.1659 -0.1226  0.0807
   53SOL    HW1  158   3.042   0.373   1.625  2.1472  2.1505  1.4695
   53SOL    HW2  159   3.059   0.387   1.464  0.9164  0.8964  1.5667
   54SOL     OW  160   1.761   0.445   3.079  0.0104 -0.1002 -0.0314
   54SOL    HW1  161   1.793   0.395   3.163  0.0188 -1.2030  0.6565
   54SOL    HW2  162   1.653   0.463   3.087 -1.8688  3.0362  0.1359
   55SOL     OW  163   0.753   2.928   0.597  0.0052 -0.2642  0.5369
   55SOL    HW1  164   0.701   3.020   0.603  0.5683  0.6481  3.6057
   55SOL    HW2  165   0.855   2.927   0.579 -1.6355  1.4037 -1.3598
   56SOL     OW  166   0.454   1.575   3.029 -0.5048  0.3361  0.5748
   56SOL    HW1  167   0.384   1.644   3.058  2.6867 -2.0940 -1.7752
   56SOL    HW2  168   0.415   1.488   2.995 -0.9595 -0.6100 -2.5023
   57SOL     OW  169   1.807   2.501   2.657  0.1678  0.4717  0.3628
   57SOL    HW1  170   1.847   2.505   2.562 -2.2734 -0.9776  0.6134
   57SOL    HW2  171   1.705   2.513   2.658 -0.1222  2.6579 -0.4938
   58SOL     OW  172   0.664   0.392   1.098 -0.1755  0.2542 -1.2774
   58SOL    HW1  173   0.593   0.467   1.063 -4.2954  0.4231 -0.1335
   58SOL    HW2  174   0.606   0.305   1.114  1.3505  0.1317 -2.0913
   59SOL     OW  175   0.403   2.354   2.761  0.3781 -0.6373  0.0917
   59SOL    HW1  176   0.409   2.253   2.733 -0.4976  0.2646 -1.0696
   59SOL    HW2  177   0.486   2.388   2.808  1.2045  0.4989 -1.2899
   60SOL     OW  178   2.327   2.083   2.247  0.6736  0.0557 -0.3488
   60SOL    HW1  179   2.413   2.122   2.204  0.8776 -1.2709 -2.0767
   60SOL    HW2  180   2.319   2.103   2.351 -2.3269 -0.6884  0.5555
   61SOL     OW  181   1.318   0.618   0.514 -0.9516 -0.4373  0.1409
   61SOL    HW1  182   1.229   0.669   0.551 -2.9698  0.5877  1.0073
   61SOL    HW2  183   1.317   0.605   0.409  1.2016 -0.5611 -0.7803
   62SOL     OW  184   2.663   1.795   2.971 -0.0563 -0.4608 -0.6258
   62SOL    HW1  185   2.667   1.705   3.020 -0.7431 -1.5109 -0.7943
   62SOL    HW2  186   2.725   1.809   2.885 -1.8977 -0.8465 -0.9647
   63SOL     OW  187   0.561   0.889   0.154  0.3031  0.3009 -0.4640
   63SOL    HW1  188   0.507   0.975   0.173  3.0447  0.3420  0.9232
   63SOL    HW2  189   0.646   0.880   0.212 -1.3042  1.3154  0.2458
   64SOL     OW  190   0.059   0.543   2.543 -0.0945  0.7360  0.2784
   64SOL    HW1  191   0.131   0.524   2.607 -0.3711 -0.0198 -1.8332
   64SOL    HW2  192   0.048   0.638   2.505  0.0556  2.1149 -1.3267
   65SOL     OW  193   0.192   1.486   0.587  0.0072 -0.3955 -0.9179
   65SOL    HW1  194   0.254   1.542   0.659  0.9917  1.9415  1.6540
   65SOL    HW2  195   0.248   1.443   0.510 -2.6256  0.0192 -2.5181
   66SOL     OW  196   2.513   0.454   0.620 -0.2969 -0.1501 -0.2851
   66SOL    HW1  197   2.438   0.491   0.675 -0.0753  0.0777  1.9466
   66SOL    HW2  198   2.523   0.349   0.627  1.9025 -1.2804  1.0984
   67SOL     OW  199   0.521   2.493   1.422  0.3565 -0.3475 -0.5784
   67SOL    HW1  200   0.568   2.478   1.515  1.0944  3.5193 -0.2786
   67SOL    HW2  201   0.483   2.405   1.383 -1.8469 -0.2770  2.1040
   68SOL     OW  202   1.002   1.104   2.453  0.3554  0.1137  0.5327
   68SOL    HW1  203   1.046   1.018   2.405 -1.0255 -0.6660  0.0225
   68SOL    HW2  204   0.916   1.125   2.394 -0.6530  1.3231  2.0412
   69SOL     OW  205   0.748   2.778   2.161 -0.3528  0.0366  0.4346
   69SOL    HW1  206   0.780   2.671   2.175  1.3378 -3.7004 -1.8547
   69SOL    HW2  207   0.643   2.779   2.169  1.3294 -0.6208  0.1835
   70SOL     OW  208   0.648   0.291   2.704  0.1102 -0.3538 -0.2101
   70SOL    HW1  209   0.624   0.383   2.754 -0.6047  0.2225  1.2753
   70SOL    HW2  210   0.580   0.209   2.725 -2.8617  0.1315 -0.1531
   71SOL     OW  211   1.085   1.786   0.331 -0.8237 -0.5183  0.2426
   71SOL    HW1  212   1.029   1.696   0.350 -1.8650  2.2584  0.9795
   71SOL    HW2  213   1.091   1.799   0.228  0.4013  1.4371  0.0968
   72SOL     OW  214   1.772   0.121   2.027 -0.3085  0.0000  0.0126
   72SOL    HW1  215   1.847   0.152   1.963  1.3853 -0.0490 -1.5934
   72SOL    HW2  216   1.785   0.032   2.075  0.5811  1.7641 -0.2912
   73SOL     OW  217   2.756   2.161   2.511  0.8390 -0.2859 -0.2243
   73SOL    HW1  218   2.722   2.069   2.492 -2.0722  1.6085 -0.5747
   73SOL    HW2  219   2.796   2.172   2.615 -0.2818  2.3866  0.6890
   74SOL     OW  220   2.714   2.944   2.003 -0.0557  0.0760  0.7160
   74SOL    HW1  221   2.638   2.949   2.071  1.0878 -0.1951  1.6151
   74SOL    HW2  222   2.798   2.985   2.031 -2.2360 -0.2759 -1.1704
   75SOL     OW  223   0.946   0.768   1.017  0.9936  0.0466  0.7060
   75SOL    HW1  224   0.857   0.805   0.977  0.8245 -2.3328 -1.7507
   75SOL    HW2  225   0.976   0.826   1.093 -2.9784  0.2704 -3.0036
   76SOL     OW  226   1.736   1.250   2.567  0.1733  0.2433 -0.1752
   76SOL    HW1  227   1.640   1.204   2.564 -3.1672 -0.1876  0.6134
   76SOL    HW2  228   1.729   1.343   2.607  0.5498 -1.7937 -1.7772
   77SOL     OW  229   2.912   0.968   0.976  0.3016 -0.3706  0.2343
   77SOL    HW1  230   2.888   0.870   0.969 -1.5705 -0.7883 -1.3577
   77SOL    HW2  231   2.942   0.999   1.072  2.2827  3.1413  0.8306
   78SOL     OW  232   2.053   1.414   1.535  0.3216 -0.4695 -0.3582
   78SOL    HW1  233   2.155   1.446   1.528  0.4097  1.0647  1.0939
   78SOL    HW2  234   2.020   1.358   1.454  0.0169 -0.5155  0.2972
   79SOL     OW  235   0.622   1.327   0.836  0.3668 -0.5278  0.3282
   79SOL    HW1  236   0.522   1.335   0.861  0.0769  0.5698  0.6534
   79SOL    HW2  237   0.640   1.318   0.737 -0.1458  0.6589 -2.0885
   80SOL     OW  238   0.680   0.475   1.602  0.2838 -0.3841  0.3369
   80SOL    HW1  239   0.715   0.530   1.522  0.8357 -2.3020  1.6327
   80SOL    HW2  240   0.705   0.373   1.604 -2.4439  1.1591  0.8497
   81SOL     OW  241   1.054   1.353   2.594  0.0379 -0.2028 -0.0788
   81SOL    HW1  242   1.101   1.269   2.565  4.0951 -0.2574 -2.0613
   81SOL    HW2  243   0.997   1.401   2.517 -1.2204  1.2805 -0.3281
   82SOL     OW  244   0.975   2.957   1.502 -0.6026 -0.0344  0.3070
   82SOL    HW1  245   1.021   2.954   1.408 -0.2100  1.5164 -2.5682
   82SOL    HW2  246   0.895   2.887   1.503 -1.2265 -2.6551 -0.9730
   83SOL     OW  247   2.680   2.483   0.845  0.0896  0.0201  0.1835
   83SOL    HW1  248   2.604   2.413   0.819  1.2962  0.8149 -0.9585
   83SOL    HW2  249   2.644   2.577   0.842  2.3720 -2.3449  1.4214
   84SOL     OW  250   0.721   3.079   2.339 -0.2472  0.1599 -0.5116
   84SOL    HW1  251   0.662   3.072   2.420 -1.8207  1.5228 -1.1636
   84SOL    HW2  252   0.801   3.011   2.333  2.8845  1.8567 -0.4276
   85SOL     OW  253   0.407   1.622   1.567 -0.4645 -0.5097 -0.5283
   85SOL    HW1  254   0.338   1.697   1.551 -1.9192 -0.2349  3.4414
   85SOL    HW2  255   0.406   1.580   1.664 -1.8179  0.4681  0.9814
   86SOL     OW  256   0.345   0.967   1.494 -0.0019  0.0735  0.1553
   86SOL    HW1  257   0.321   0.918   1.405  0.2088  1.4562  0.9492
   86SOL    HW2  258   0.364   0.901   1.575 -0.9129  0.4615 -0.5883
   87SOL     OW  259   1.519   0.671   0.234  0.6097 -0.3588 -1.1602
   87SOL    HW1  260   1.620   0.704   0.238 -1.6076  0.2771 -1.1693
   87SOL    HW2  261   1.492   0.658   0.138  0.3410 -0.8996  0.9651
   88SOL     OW  262   1.545   1.363   0.229  0.2412 -0.0316  0.5125
   88SOL    HW1  263   1.596   1.269   0.237  2.0703  0.4578  0.5086
   88SOL    HW2  264   1.442   1.369   0.260 -1.9256  1.8088  2.4089
   89SOL     OW  265   0.025   0.416   0.600 -0.3150 -0.0257  0.4844
   89SOL    HW1  266   0.099   0.347   0.564  0.4301  0.6026  1.6534
   89SOL    HW2  267  -0.067   0.407   0.552  0.6840  0.1303 -0.1328
   90SOL     OW  268   0.925   1.566   3.036  0.0904 -0.6519  1.0409
   90SOL    HW1  269   0.863   1.557   3.116 -0.3792  0.2833 -0.8584
   90SOL    HW2  270   0.876   1.590   2.947 -0.1537  0.3485 -0.4762
   91SOL     OW  271   1.276   1.452   1.836  0.2567 -0.5811 -0.1441
   91SOL    HW1  272   1.265   1.537   1.895 -1.1401 -1.6658  1.2292
   91SOL    HW2  273   1.370   1.433   1.806 -2.1806 -1.6853  0.2191
   92SOL     OW  274   3.046   1.012   1.213 -0.2576 -0.7563 -0.3162
   92SOL    HW1  275   3.104   1.096   1.189  0.5066 -0.3247  0.4970
   92SOL    HW2  276   3.075   0.971   1.301  1.9162  2.0703  0.3203
   93SOL     OW  277   3.094   2.742   0.042 -0.0098 -0.2049  0.1467
   93SOL    HW1  278   3.076   2.746  -0.061 -2.4394 -1.1622 -1.6378
   93SOL    HW2  279   3.136   2.646   0.058  0.1371 -2.4374 -1.7640
   94SOL     OW  280   1.544   1.447   1.695  0.4742  0.7610 -0.0003
   94SOL    HW1  281   1.623   1.413   1.640 -2.5103 -0.1163  0.2283
   94SOL    HW2  282   1.581   1.517   1.765  0.4605  0.8460  1.1870
   95SOL     OW  283   1.317   2.521   2.998  0.3563  0.4932  0.3850
   95SOL    HW1  284   1.243   2.501   3.071 -0.1741  1.1420  1.5426
   95SOL    HW2  285   1.358   2.435   2.961 -2.3284 -2.6940 -1.8639
   96SOL     OW  286   0.552   2.013   1.269 -0.3751  0.0841  0.8340
   96SOL    HW1  287   0.526   2.048   1.172  1.5254  0.0214 -2.5219
   96SOL    HW2  288   0.530   1.915   1.296  0.9822 -1.0818 -0.2730
   97SOL     OW  289   0.364   1.572   2.479  0.1713  0.3705 -0.8110
   97SOL    HW1  290   0.269   1.560   2.509  0.8762  1.2948 -0.5845
   97SOL    HW2  291   0.416   1.632   2.546  3.0661 -1.0581 -0.9163
   98SOL     OW  292   1.943   1.589   1.266  0.2246 -0.0208  0.0958
   98SOL    HW1  293   1.903   1.538   1.349 -1.4904  0.0941  0.3353
   98SOL    HW2  294   1.952   1.524   1.190 -2.0966 -0.3165 -0.8377
   99SOL     OW  295   2.470   2.097   1.392 -0.2890  0.1359 -1.0023
   99SOL    HW1  296   2.501   2.135   1.483  0.1245  1.8231 -1.4628
   99SOL    HW2  297   2.445   1.996   1.398  2.3927  0.3934 -2.8390
  100SOL     OW  298   2.309   0.395   2.068 -0.2153  0.1203  0.5092
  100SOL    HW1  299   2.261   0.361   2.160  0.2426 -0.9507 -0.3753
  100SOL    HW2  300   2.416   0.400   2.078  0.6898  1.3194  1.8331
  101SOL     OW  301   0.394   1.486   0.257 -0.5130 -0.2443 -0.2893
  101SOL    HW1  302   0.449   1.538   0.332  0.5550  0.4044 -0.6381
  101SOL    HW2  303   0.413   1.516   0.158 -1.0270  0.8535 -0.4737
  102SOL     OW  304   2.322   1.034   0.828  0.2515 -0.1531  0.1280
  102SOL    HW1  305   2.232   0.977   0.813 -0.1048 -0.4952 -2.1935
  102SOL    HW2  306   2.330   1.112   0.765 -0.6056 -1.2903  0.9587
  103SOL     OW  307   2.295   0.025   0.408 -0.4233 -0.6413 -0.1305
  103SOL    HW1  308   2.344   0.102   0.362 -2.2190  2.4496  1.3400
  103SOL    HW2  309   2.357  -0.041   0.464 -0.8702  0.1322  3.0935
  104SOL     OW  310   0.088   1.756   2.191 -0.1180 -0.2365  0.9655
  104SOL    HW1  311   0.103   1.725   2.087  0.2066 -1.1541 -1.9279
  104SOL    HW2  312  -0.016   1.752   2.208 -0.0909 -1.4805 -1.6583
  105SOL     OW  313   1.234   2.033   0.818 -0.0795  0.6080 -0.0097
  105SOL    HW1  314   1.167   2.035   0.739  0.7767 -1.6011 -0.9498
  105SOL    HW2  315   1.297   1.952   0.818  0.8410  1.6594  1.5704
  106SOL     OW  316   2.137   0.552   1.364  0.3363  0.1587 -0.0316
  106SOL    HW1  317   2.079   0.473   1.395 -0.9358 -1.3715 -2.4505
  106SOL    HW2  318   2.100   0.645   1.392 -1.0063  0.8054 -1.8997
  107SOL     OW  319   1.779   2.997   1.096 -0.6046  0.4809 -0.1037
  107SOL    HW1  320   1.819   3.086   1.136  0.1339 -1.6048  0.3094
  107SOL    HW2  321   1.731   2.942   1.170 -3.4999  0.4559 -0.9967
  108SOL     OW  322   0.825   2.746   1.236 -0.0522  0.1805 -0.2804
  108SOL    HW1  323   0.780   2.755   1.333 -0.2517  1.3789  0.2223
  108SOL    HW2  324   0.888   2.826   1.212  0.3871 -0.4056  0.4570
  109SOL     OW  325   2.220   0.144   0.803  0.0200  0.2846 -0.1622
  109SOL    HW1  326   2.117   0.128   0.779 -0.5537 -0.0409 -1.6793
  109SOL    HW2  327   2.231   0.158   0.907 -0.2490 -0.2209  0.2293
  110SOL     OW  328   0.432   2.795   2.707 -0.0630  0.1177  0.2752
  110SOL    HW1  329   0.449   2.844   2.620 -1.2519  0.7429  1.8921
  110SOL    HW2  330   0.516   2.743   2.740 -0.9668  1.7163 -1.2617
  111SOL     OW  331   1.336   0.532   2.273 -0.6609  0.4382  0.5992
  111SOL    HW1  332   1.272   0.559   2.353 -0.7367 -0.2399 -0.0379
  111SOL    HW2  333   1.369   0.437   2.290 -1.1239  0.0669 -1.5546
  112SOL     OW  334   1.741   0.521   1.472  0.3648 -0.0067  0.5055
  112SOL    HW1  335   1.729   0.496   1.370  1.1583 -1.6707 -1.2959
  112SOL    HW2  336   1.707   0.445   1.535  0.1605 -0.4939 -0.6869
  113SOL     OW  337   2.265   1.618   1.755  0.0791 -0.0003  0.0570
  113SOL    HW1  338   2.311   1.531   1.731 -2.7557  0.7840  0.7696
  113SOL    HW2  339   2.290   1.647   1.854  1.5262  2.2545 -0.7377
  114SOL     OW  340   0.336   0.530   1.276  0.6794 -0.0741 -0.1618
  114SOL    HW1  341   0.313   0.623   1.247 -0.2642 -2.4327  0.6353
  114SOL    HW2  342   0.324   0.457   1.206 -0.2095  2.2792  1.6161
  115SOL     OW  343   2.674   1.638   1.265  0.8376 -0.0530  0.5196
  115SOL    HW1  344   2.697   1.536   1.291  4.5080 -0.8528  2.7746
  115SOL    HW2  345   2.713   1.665   1.173 -0.2892 -1.1905  1.5470
  116SOL     OW  346   1.790   1.028   0.718 -0.3082 -0.7416 -0.4656
  116SOL    HW1  347   1.701   0.977   0.712  1.4965 -3.7895 -1.9447
  116SOL    HW2  348   1.779   1.132   0.732  0.5888  0.6331  0.4250
  117SOL     OW  349   1.144   0.372   0.686  0.1578  0.7392 -0.3028
  117SOL    HW1  350   1.139   0.364   0.792  0.9462  0.8254  1.2622
  117SOL    HW2  351   1.205   0.450   0.660  1.3469 -0.9919  0.6177
  118SOL     OW  352   1.106   1.146   1.079  0.0209  0.7389 -0.0190
  118SOL    HW1  353   1.096   1.049   1.125  1.2196 -4.4860 -0.0416
  118SOL    HW2  354   1.123   1.227   1.141 -0.0309 -1.6742 -2.5781
  119SOL     OW  355   1.847   1.602   2.124  0.5880 -0.3857 -0.0748
  119SOL    HW1  356   1.814   1.697   2.147 -1.5274  1.9996 -1.4349
  119SOL    HW2  357   1.946   1.585   2.100 -4.3361  0.0847 -0.6091
  120SOL     OW  358   2.962   2.836   0.280  0.0816  0.1147 -0.8351
  120SOL    HW1  359   3.002   2.811   0.191 -2.5823 -0.3601 -0.5666
  120SOL    HW2  360   2.895   2.763   0.319  1.0681 -0.1767 -0.9654
  121SOL     OW  361   1.981   0.749   2.280  0.7900  0.5402  0.8198
  121SOL    HW1  362   2.028   0.814   2.216 -2.0471 -0.3958  0.2493
  121SOL    HW2  363   1.988   0.648   2.249  0.7691 -2.8428  1.9874
  122SOL     OW  364   2.691   2.665   1.274 -0.8706  0.3029  0.1129
  122SOL    HW1  365   2.728   2.595   1.202  1.1147 -1.3046  1.3945
  122SOL    HW2  366   2.592   2.662   1.278  3.9607  0.7200 -3.4307
  123SOL     OW  367   1.728   0.066   1.697  0.1200 -0.4050 -0.5661
  123SOL    HW1  368   1.762   0.003   1.624 -1.4452  3.7723  0.2995
  123SOL    HW2  369   1.803   0.114   1.750 -0.9406  0.6837 -0.9901
  124SOL     OW  370   0.121   0.444   1.089  0.1187 -0.8974  0.3510
  124SOL    HW1  371   0.109   0.519   1.151  0.3695 -0.4039  1.1446
  124SOL    HW2  372   0.067   0.468   1.005 -1.2073  0.2834  2.1669
  125SOL     OW  373   0.870   1.699   0.660 -0.6021 -0.2118  0.5969
  125SOL    HW1  374   0.972   1.710   0.663  0.9265  2.2760  1.5721
  125SOL    HW2  375   0.838   1.633   0.731  0.0283  2.1806  2.0967
  126SOL     OW  376   1.906   2.353   2.421  0.1565  0.1718  0.1008
  126SOL    HW1  377   1.957   2.315   2.342 -0.5447 -0.3331  1.2025
  126SOL    HW2  378   1.843   2.282   2.461  1.3985  0.9748  2.3554
  127SOL     OW  379   0.806   0.925   0.288  0.6194 -0.5242  0.5921
  127SOL    HW1  380   0.850   0.955   0.374 -0.6566  1.0887 -0.2319
  127SOL    HW2  381   0.845   0.840   0.245 -1.9000 -0.0393  0.1178
  128SOL     OW  382   0.941   0.202   1.352  0.1010 -0.2471 -0.0063
  128SOL    HW1  383   0.903   0.298   1.330  1.3073  0.0855 -2.2007
  128SOL    HW2  384   0.866   0.123   1.338 -3.0886  0.9143 -0.4871
  129SOL     OW  385   1.859   0.676   1.868 -0.3673  0.2770 -0.3934
  129SOL    HW1  386   1.875   0.679   1.762 -1.5738  2.4754  2.9604
  129SOL    HW2  387   1.864   0.762   1.923 -0.1508  0.5319  0.4639
  130SOL     OW  388   1.334   2.223   1.005  0.1508  0.4083  0.8265
  130SOL    HW1  389   1.294   2.172   0.921  0.5835 -0.6619 -1.8053
  130SOL    HW2  390   1.404   2.297   0.975  0.5047 -0.0495  0.7001
  131SOL     OW  391   0.016   1.506   1.404 -0.5926 -0.8386  0.1197
  131SOL    HW1  392  -0.038   1.417   1.413 -1.1982 -0.1909 -0.3107
  131SOL    HW2  393   0.115   1.490   1.431  1.5272  1.2840  0.2343
  132SOL     OW  394   2.005   2.400   0.506 -0.0288  0.5898 -0.4053
  132SOL    HW1  395   1.916   2.356   0.480  1.2244 -0.6660  0.5959
  132SOL    HW2  396   2.011   2.388   0.611  0.9481 -0.8027  1.1248
  133SOL     OW  397   1.888   2.281   2.873 -0.1257 -0.2380 -0.4932
  133SOL    HW1  398   1.848   2.356   2.939 -1.0295 -1.3464  3.0053
  133SOL    HW2  399   1.904   2.322   2.781 -0.2617  1.4068  0.4566
  134SOL     OW  400   2.710   2.348   1.635 -0.0994  0.0317 -0.2187
  134SOL    HW1  401   2.646   2.323   1.716  1.1324  0.2686  1.9329
  134SOL    HW2  402   2.769   2.430   1.661 -0.1508  1.0089 -1.5576
  135SOL     OW  403   0.721   1.541   2.626 -0.2925 -1.1154  0.6983
  135SOL    HW1  404   0.682   1.459   2.673  1.3718  2.6985  0.4460
  135SOL    HW2  405   0.782   1.525   2.551 -0.3059  1.6761 -0.5698
  136SOL     OW  406   1.219   2.029   0.424  0.0226 -0.5150 -0.0737
  136SOL    HW1  407   1.158   2.100   0.466 -1.3231 -2.8260  0.4282
  136SOL    HW2  408   1.164   1.955   0.378 -2.1743 -0.4143 -1.8932
  137SOL     OW  409   0.400   1.129   2.108 -0.8229  0.1660 -0.2334
  137SOL    HW1  410   0.315   1.160   2.164 -1.7513  0.5624  2.4412
  137SOL    HW2  411   0.439   1.044   2.149  0.1752  0.1880 -0.7939
  138SOL     OW  412   2.440   1.498   0.223 -0.0014 -0.5130  0.5254
  138SOL    HW1  413   2.363   1.529   0.163 -1.8798 -0.2657  1.2586
  138SOL    HW2  414   2.429   1.399   0.249 -0.7805 -0.8856  0.8912
  139SOL     OW  415   1.805   2.660   1.255 -0.1929  0.4437  0.4870
  139SOL    HW1  416   1.703   2.637   1.221 -3.1307 -2.5520 -3.0450
  139SOL    HW2  417   1.852   2.570   1.285  0.4539 -0.6265 -2.7380
  140SOL     OW  418   3.032   2.976   2.617 -0.3972 -0.0656  0.4315
  140SOL    HW1  419   3.079   2.883   2.637  0.6265 -1.4608 -0.8290
  140SOL    HW2  420   3.105   3.048   2.594  1.5369 -2.6499  1.6074
  141SOL     OW  421   1.232   1.707   1.610  0.4808  0.1340 -0.0945
  141SOL    HW1  422   1.155   1.765   1.643  1.8831  1.8254  0.3226
  141SOL    HW2  423   1.262   1.638   1.678  1.7686 -0.4726  0.7719
  142SOL     OW  424   1.584   0.605   2.179  0.0707 -0.1609  0.0036
  142SOL    HW1  425   1.598   0.596   2.079  0.3603  2.1504  2.8238
  142SOL    HW2  426   1.481   0.607   2.200  0.6584 -0.7270 -1.5020
  143SOL     OW  427   2.745   0.883   0.506 -0.1434 -0.2864 -0.4041
  143SOL    HW1  428   2.793   0.936   0.430 -1.0164  3.0100  0.5397
  143SOL    HW2  429   2.766   0.929   0.595  2.1559  1.2025 -0.0209
  144SOL     OW  430   2.964   1.260   1.424 -0.6404  0.2272  0.4253
  144SOL    HW1  431   2.926   1.192   1.493 -0.2371 -0.5155  0.0031
  144SOL    HW2  432   2.994   1.220   1.334  1.3245 -0.0778  2.0762
  145SOL     OW  433   1.018   1.821   0.042  0.0523  0.6841 -0.1631
  145SOL    HW1  434   1.024   1.911  -0.012  0.0271  0.6476  2.0656
  145SOL    HW2  435   0.959   1.751  -0.010  0.7429  0.3269 -2.0647
  146SOL     OW  436   2.436   0.666   1.539  0.6734  0.3126 -0.2644
  146SOL    HW1  437   2.430   0.595   1.468  0.2280  1.3866  0.4272
  146SOL    HW2  438   2.359   0.735   1.524 -4.2268 -0.1727 -3.1046
  147SOL     OW  439   1.095   2.454   0.584  0.5988 -0.1977 -0.1754
  147SOL    HW1  440   1.069   2.513   0.500  2.1941 -1.8578 -1.0052
  147SOL    HW2  441   1.189   2.416   0.571 -2.7558  0.4991  0.9135
  148SOL     OW  442   1.643   1.454   3.090 -0.2315  0.1816 -0.4687
  148SOL    HW1  443   1.670   1.381   3.019 -0.3876 -4.1376  1.8553
  148SOL    HW2  444   1.611   1.402   3.179  1.2167  2.2221  1.3899
  149SOL     OW  445   0.713   1.428   1.912  0.0428 -0.5282 -0.2642
  149SOL    HW1  446   0.634   1.395   1.966 -1.0736 -0.6965 -0.4149
  149SOL    HW2  447   0.735   1.363   1.833  1.0434 -1.5783 -2.0097
  150SOL     OW  448   3.014   1.240   0.922  0.5169  0.1052  0.1006
  150SOL    HW1  449   3.082   1.240   1.004  0.7016 -0.2651  0.1108
  150SOL    HW2  450   2.966   1.150   0.910  0.7193 -0.8224  2.1073
  151SOL     OW  451   0.170   0.767   2.118  0.0868 -0.1053  0.3093
  151SOL    HW1  452   0.168   0.843   2.048  1.2656 -3.1135  1.3598
  151SOL    HW2  453   0.238   0.694   2.089 -1.1966  2.6992 -0.7864
  152SOL     OW  454   1.367   1.723   1.277 -0.2370  0.6121  0.1138
  152SOL    HW1  455   1.370   1.792   1.354 -0.6598 -0.6916 -1.7760
  152SOL    HW2  456   1.280   1.724   1.227  0.0737  1.0318  0.4392
  153SOL     OW  457   0.039   1.525   0.178  0.5665  0.5741  0.4273
  153SOL    HW1  458   0.024   1.420   0.193  1.2185  0.7901  1.2507
  153SOL    HW2  459   0.055   1.574   0.271 -1.6292  3.1625  1.1169
  154SOL     OW  460   2.364   1.868   2.831  0.1316  0.3198  0.0482
  154SOL    HW1  461   2.398   1.772   2.829 -0.4346 -0.3324  1.5707
  154SOL    HW2  462   2.438   1.940   2.832  1.8424  0.6756  1.1127
  155SOL     OW  463   2.478   1.240   0.359 -0.1814 -0.3411 -0.2400
  155SOL    HW1  464   2.562   1.253   0.299 -2.5603 -0.8751  1.6476
  155SOL    HW2  465   2.390   1.213   0.307  0.4910 -0.1246 -1.2969
  156SOL     OW  466   2.583   0.941   0.900  0.1933  0.0952  0.2656
  156SOL    HW1  467   2.483   0.976   0.895 -1.6746  2.9891  1.0674
  156SOL    HW2  468   2.647   1.000   0.846 -2.8403  0.0991 -1.2453
  157SOL     OW  469   1.204   2.980   2.989  0.4127 -0.0278  0.6601
  157SOL    HW1  470   1.276   2.941   2.925 -1.4474 -2.2567  1.6918
  157SOL    HW2  471   1.213   3.077   3.014 -0.1173 -0.9616 -0.0799
  158SOL     OW  472   0.997   1.879   1.981  0.0520 -0.3127  0.2059
  158SOL    HW1  473   1.057   1.960   2.004 -1.0078  0.1493  2.5848
  158SOL    HW2  474   0.906   1.888   2.029 -1.4544  2.8243  0.0243
  159SOL     OW  475   0.840   0.443   1.297  0.2441  0.2519 -0.0012
  159SOL    HW1  476   0.815   0.527   1.353  0.6556  1.1945 -0.2517
  159SOL    HW2  477   0.767   0.424   1.226 -3.0784  0.9782  0.0216
  160SOL     OW  478   1.434   2.445   1.669  0.2098 -0.8276  0.5347
  160SOL    HW1  479   1.472   2.531   1.627 -3.0200 -1.6049  1.0601
  160SOL    HW2  480   1.500   2.367   1.656 -2.6956 -2.2066  1.7946
  161SOL     OW  481   0.160   2.894   0.315 -0.5930  0.2920  0.0638
  161SOL    HW1  482   0.061   2.848   0.320 -1.7925  1.5884 -0.0341
  161SOL    HW2  483   0.147   2.974   0.253 -0.2319 -4.0742  0.9088
  162SOL     OW  484   2.590   1.908   0.459  0.0242  0.7331 -0.2013
  162SOL    HW1  485   2.586   1.853   0.373  0.9792  0.0882 -2.3330
  162SOL    HW2  486   2.551   1.841   0.535 -1.0502 -1.2297  0.2157
  163SOL     OW  487   1.985   2.663   0.745  0.4146  0.2189  0.6634
  163SOL    HW1  488   1.980   2.679   0.644  0.2052  0.5377  1.6787
  163SOL    HW2  489   2.073   2.613   0.770 -1.5622 -0.7211 -1.1787
  164SOL     OW  490   3.038   0.256   1.252  0.0714 -0.6796 -0.9364
  164SOL    HW1  491   3.090   0.309   1.184  1.6116 -0.1467  2.3153
  164SOL    HW2  492   3.089   0.175   1.285 -0.5676 -0.0484 -1.7106
  165SOL     OW  493   0.951   1.432   0.660 -0.6191  0.3865 -0.0718
  165SOL    HW1  494   0.927   1.471   0.755  0.3185  0.3508  0.8427
  165SOL    HW2  495   0.929   1.505   0.583 -2.6276  2.0554 -0.2973
  166SOL     OW  496   1.483   1.085   1.718 -0.4648  0.1924 -0.1531
  166SOL    HW1  497   1.428   1.045   1.790  0.9711  3.3772 -2.0163
  166SOL    HW2  498   1.567   1.121   1.761 -1.2887  1.5619 -0.4003
  167SOL     OW  499   0.795   1.914   1.510 -0.5935 -0.3401 -0.5488
  167SOL    HW1  500   0.777   1.973   1.594 -3.2636 -0.4627  1.0708
  167SOL    HW2  501   0.738   1.825   1.512  0.3447 -0.6689 -1.9001
  168SOL     OW  502   1.615   2.383   0.144  0.0686 -0.2019 -0.6474
  168SOL    HW1  503   1.699   2.410   0.086  3.8197  0.1256  0.2630
  168SOL    HW2  504   1.630   2.314   0.223  0.2155  1.9060  1.4977
  169SOL     OW  505   0.238   2.615   2.217  0.1313 -0.3807  0.2282
  169SOL    HW1  506   0.246   2.564   2.129  1.5706 -2.5539  0.5782
  169SOL    HW2  507   0.195   2.562   2.290 -2.5372  1.1662 -1.1340
  170SOL     OW  508   1.241   0.299   1.935  0.1185 -0.2829 -0.0079
  170SOL    HW1  509   1.289   0.268   2.024  0.4930 -0.8922  0.4090
  170SOL    HW2  510   1.202   0.217   1.888  0.2829  0.6010  1.2089
  171SOL     OW  511   0.210   0.810   2.398  0.0291  0.7664 -0.1774
  171SOL    HW1  512   0.135   0.843   2.463 -1.0360  0.3514 -4.6446
  171SOL    HW2  513   0.182   0.827   2.298 -0.4417 -0.7004  0.2090
  172SOL     OW  514   0.879   1.110   2.967  0.6949 -0.0127 -0.1870
  172SOL    HW1  515   0.974   1.134   2.997  1.0888 -0.2653 -1.9947
  172SOL    HW2  516   0.874   1.089   2.868 -1.1945 -3.0742 -0.1898
  173SOL     OW  517   0.663   2.678   0.102  0.5465 -0.6201 -0.5498
  173SOL    HW1  518   0.644   2.776   0.096 -0.5485 -2.4638 -1.8621
  173SOL    HW2  519   0.579   2.620   0.131 -0.8308 -3.2705  2.3871
  174SOL     OW  520   1.392   2.820   1.076  0.1475  0.2098 -0.2090
  174SOL    HW1  521   1.409   2.917   1.052 -3.3770  0.6003 -0.6307
  174SOL    HW2  522   1.335   2.762   1.006 -0.6631 -1.5854 -1.3302
  175SOL     OW  523   0.431   0.052   1.637 -0.6434  0.3770 -0.4375
  175SOL    HW1  524   0.488   0.089   1.713 -2.1815 -1.3815  1.5586
  175SOL    HW2  525   0.356   0.114   1.607  1.4914  1.5186  0.8660
  176SOL     OW  526   2.532   0.400   3.084  0.1703 -0.4452  0.7991
  176SOL    HW1  527   2.549   0.477   3.153 -0.4798  1.0411 -0.6567
  176SOL    HW2  528   2.470   0.333   3.135  1.7896  1.3021 -3.9702
  177SOL     OW  529   0.351   0.286   0.932 -0.0636  0.1213 -0.2735
  177SOL    HW1  530   0.426   0.239   0.986  2.4712 -1.4216  0.0219
  177SOL    HW2  531   0.267   0.315   0.979 -0.3173 -0.4561  2.3556
  178SOL     OW  532   0.032   2.713   2.612  0.0024  0.0032  0.3358
  178SOL    HW1  533  -0.032   2.639   2.649  0.7019 -0.9447  3.0244
  178SOL    HW2  534   0.097   2.740   2.688 -1.2549 -2.4792 -0.1441
  179SOL     OW  535   0.011   1.702   1.181  0.2652 -0.1018 -0.1498
  179SOL    HW1  536  -0.074   1.757   1.198 -2.5753  3.3124  2.0342
  179SOL    HW2  537   0.036   1.635   1.259  2.4639 -1.8800 -0.8003
  180SOL     OW  538   0.238   1.214   1.848 -0.6406 -0.0050  0.4187
  180SOL    HW1  539   0.338   1.232   1.819 -1.9493  1.2134 -0.1357
  180SOL    HW2  540   0.208   1.268   1.927 -0.4605  1.1485  1.9283
  181SOL     OW  541   3.050   1.860   2.547 -1.1125  0.0723 -0.3462
  181SOL    HW1  542   3.144   1.903   2.521  2.7857 -0.8994  1.6873
  181SOL    HW2  543   2.981   1.887   2.475  2.9067 -1.5857  3.8798
  182SOL     OW  544   2.301   1.282   1.161 -0.4296  0.3344  0.2908
  182SOL    HW1  545   2.234   1.226   1.098 -1.2657 -0.4738 -1.3156
  182SOL    HW2  546   2.299   1.385   1.148  2.9155 -0.0512 -3.5841
  183SOL     OW  547   1.504   2.274   2.499  0.9135  0.1597  0.4229
  183SOL    HW1  548   1.440   2.194   2.523  0.1691  0.5362  0.4514
  183SOL    HW2  549   1.605   2.245   2.497 -3.8985  2.2486 -3.1149
  184SOL     OW  550   2.044   0.940   0.835  0.1355  0.1865  0.2056
  184SOL    HW1  551   1.958   0.978   0.785 -0.6047 -0.9140 -0.3752
  184SOL    HW2  552   2.025   0.844   0.867 -0.3879  1.1484 -1.0477
  185SOL     OW  553   1.586   2.687   2.076 -0.7905  0.0918 -0.1143
  185SOL    HW1  554   1.549   2.778   2.042  3.1160  2.4582  0.9123
  185SOL    HW2  555   1.535   2.650   2.156  2.3102  1.3312 -1.3151
  186SOL     OW  556   0.070   2.212   1.722  0.1611  0.0957  0.0286
  186SOL    HW1  557   0.127   2.298   1.702  1.3760 -1.8852 -4.7022
  186SOL    HW2  558   0.134   2.130   1.709  0.4083 -3.8952  1.4806
  187SOL     OW  559   1.382   0.708   1.681  0.1760 -0.1759  0.0161
  187SOL    HW1  560   1.447   0.749   1.613 -2.9811 -1.2873 -0.2557
  187SOL    HW2  561   1.412   0.721   1.780 -0.9085 -3.4127  0.5112
  188SOL     OW  562   2.799   2.775   1.471 -0.0541 -0.3120 -0.7903
  188SOL    HW1  563   2.756   2.870   1.469 -0.2671 -0.7473 -0.7892
  188SOL    HW2  564   2.763   2.709   1.395 -3.8731 -0.9448  0.7120
  189SOL     OW  565   0.844   1.039   1.384 -0.0173  0.1606 -0.2286
  189SOL    HW1  566   0.921   1.108   1.401  1.0368  2.6929  0.3139
  189SOL    HW2  567   0.804   1.062   1.292  1.3673  2.2735  1.4527
  190SOL     OW  568   1.528   1.879   1.565  0.3355  0.1914 -0.6724
  190SOL    HW1  569   1.434   1.834   1.556  1.2129 -0.4221  1.4516
  190SOL    HW2  570   1.553   1.898   1.664  0.7943  0.9794  0.8606
  191SOL     OW  571   0.966   0.744   1.562  0.1119 -0.2023 -0.0126
  191SOL    HW1  572   1.005   0.651   1.590 -1.5389 -1.5969  0.5281
  191SOL    HW2  573   1.038   0.820   1.554 -0.2176  1.1930  0.8905
  192SOL     OW  574   1.849   2.293   1.122  0.2245 -0.6768 -0.1665
  192SOL    HW1  575   1.806   2.254   1.033 -0.5852 -1.0005  0.5601
  192SOL    HW2  576   1.920   2.369   1.110 -1.3500  0.4473 -0.4279
  193SOL     OW  577   0.506   0.611   0.398  0.1414  0.0846 -0.2184
  193SOL    HW1  578   0.482   0.541   0.472  0.3053 -0.4902 -0.1073
  193SOL    HW2  579   0.562   0.574   0.321  0.3800  1.1970  1.4784
  194SOL     OW  580   0.293   0.850   1.263  0.0162  0.3011 -0.7785
  194SOL    HW1  581   0.194   0.828   1.249  0.1185 -0.1104 -0.3437
  194SOL    HW2  582   0.334   0.913   1.187 -0.1540 -0.3691 -1.7025
  195SOL     OW  583   0.980   2.933   0.431  0.3630 -0.2814  0.1604
  195SOL    HW1  584   0.987   2.828   0.434 -2.1359 -3.0643  1.1324
  195SOL    HW2  585   1.080   2.974   0.439  5.1503  2.0878  0.4298
  196SOL     OW  586   0.287   1.408   1.407 -0.4129 -0.3623  0.1209
  196SOL    HW1  587   0.360   1.458   1.466 -0.2835  0.1816 -0.7167
  196SOL    HW2  588   0.257   1.315   1.449 -1.5068  1.6463  0.4451
  197SOL     OW  589   0.928   2.048   0.226 -0.4986  0.0271  0.1186
  197SOL    HW1  590   0.880   2.022   0.316 -1.7942 -1.1701  0.3437
  197SOL    HW2  591   0.976   1.968   0.178 -0.1877  0.6642  0.3779
  198SOL     OW  592   0.263   1.251   0.285 -0.0647 -0.1187 -0.2165
  198SOL    HW1  593   0.162   1.254   0.261  1.6133  1.5114  1.5499
  198SOL    HW2  594   0.309   1.348   0.262  2.6535  1.8937 -1.5909
  199SOL     OW  595   2.222   0.389   2.513 -0.4923  0.1697 -0.3530
  199SOL    HW1  596   2.141   0.352   2.573  0.8672 -0.1441  0.9786
  199SOL    HW2  597   2.314   0.363   2.548  0.8236  1.3202  0.6177
  200SOL     OW  598   3.100   2.969   0.676  0.1925 -0.2162 -0.4973
  200SOL    HW1  599   3.013   2.999   0.627 -2.3961 -2.8221  1.3773
  200SOL    HW2  600   3.130   3.047   0.739 -3.1401  2.4093 -2.2311
  201SOL     OW  601   1.107   0.733   0.643 -0.2837 -0.3584 -0.0101
  201SOL    HW1  602   1.116   0.816   0.701  1.7154 -2.2101  0.8838
  201SOL    HW2  603   1.014   0.693   0.632  0.1172 -1.9288  0.4201
  202SOL     OW  604   0.498   1.247   1.770  0.3235 -0.2677  0.7132
  202SOL    HW1  605   0.511   1.251   1.668  1.2956  0.8791  3.6090
  202SOL    HW2  606   0.543   1.171   1.819  0.3310 -0.0255  4.2931
  203SOL     OW  607   0.731   0.207   1.605  0.6565  0.2448 -0.6005
  203SOL    HW1  608   0.754   0.138   1.536 -2.6108  0.8656  0.1527
  203SOL    HW2  609   0.808   0.225   1.674 -1.7798  0.4747  1.7471
  204SOL     OW  610   2.100   1.837   3.005  0.0299  0.3365  0.0272
  204SOL    HW1  611   2.137   1.739   3.014  0.5298  0.2645 -1.6037
  204SOL    HW2  612   2.085   1.848   2.899  1.3171 -4.0799 -2.6115
  205SOL     OW  613   1.846   1.866   0.030  0.1169  0.1068  0.0085
  205SOL    HW1  614   1.926   1.842  -0.029 -3.3695 -0.7643  0.5486
  205SOL    HW2  615   1.817   1.966   0.016  1.2471  1.9480 -1.6363
  206SOL     OW  616   2.540   2.780   0.347 -0.6100 -0.1825 -0.4828
  206SOL    HW1  617   2.615   2.713   0.375 -1.1552  0.3772 -2.1259
  206SOL    HW2  618   2.564   2.851   0.281 -2.2524 -2.0526  2.1426
  207SOL     OW  619   0.585   1.777   2.915 -0.5806  0.4035  0.2158
  207SOL    HW1  620   0.675   1.740   2.884 -2.1663 -1.5176 -2.0420
  207SOL    HW2  621   0.542   1.700   2.968 -0.2778  0.4884 -1.0454
  208SOL     OW  622   1.080   1.542   1.431  0.6554  0.2392 -0.6578
  208SOL    HW1  623   0.991   1.579   1.393  1.2483 -2.1231  4.5226
  208SOL    HW2  624   1.149   1.615   1.463 -0.1057 -0.4113 -1.4509
  209SOL     OW  625   0.290   0.944   2.997 -0.4682  0.3029  0.0277
  209SOL    HW1  626   0.329   0.872   2.934  0.7175  1.1076 -0.6856
  209SOL    HW2  627   0.254   0.902   3.087 -0.5821 -0.9366 -0.1505
  210SOL     OW  628   1.717   0.478   1.182  0.0063  0.3937 -0.0022
  210SOL    HW1  629   1.690   0.573   1.154  1.0796 -0.6233 -0.3986
  210SOL    HW2  630   1.820   0.461   1.159  0.6551  0.6978  0.1605
  211SOL     OW  631   2.109   1.074   1.619 -0.4829  0.2825  0.0748
  211SOL    HW1  632   2.181   1.025   1.673 -2.1595 -1.5435 -3.6906
  211SOL    HW2  633   2.146   1.116   1.531  2.4693  2.0468 -1.0795
  212SOL     OW  634   0.014   0.997   1.474  0.0721 -0.0429 -0.2906
  212SOL    HW1  635   0.066   1.082   1.490  0.0596  0.2211 -4.7771
  212SOL    HW2  636   0.022   0.921   1.544  0.8605  1.3911  0.7129
  213SOL     OW  637   2.747   0.365   0.267  0.8882  0.1999 -0.0891
  213SOL    HW1  638   2.808   0.305   0.213  0.5754 -0.2178 -0.7249
  213SOL    HW2  639   2.705   0.438   0.210 -1.8487  3.0299 -2.9102
  214SOL     OW  640   2.182   0.276   2.293 -0.1939  0.0389  0.2793
  214SOL    HW1  641   2.215   0.332   2.374  2.6340  0.5318 -1.2103
  214SOL    HW2  642   2.159   0.175   2.311  1.5924 -0.3404  0.4570
  215SOL     OW  643   1.665   2.296   2.017 -0.6460 -0.1020  0.2608
  215SOL    HW1  644   1.764   2.331   2.027 -1.0707 -0.2445  1.1772
  215SOL    HW2  645   1.599   2.340   2.078  1.5883 -1.4241 -2.9354
  216SOL     OW  646   2.206   0.547   0.698  0.1529 -0.1342  0.0971
  216SOL    HW1  647   2.189   0.448   0.664  2.2905 -1.1647  0.4963
  216SOL    HW2  648   2.243   0.602   0.623 -2.5034 -2.4340  0.8340
  217SOL     OW  649   0.734   2.778   2.456 -0.0593  0.0095  1.0759
  217SOL    HW1  650   0.766   2.689   2.491 -1.7366 -1.3660  1.2570
  217SOL    HW2  651   0.728   2.791   2.354 -0.1587  1.9385 -0.6508
  218SOL     OW  652   1.907   1.398   0.067  0.3410  0.2023 -0.0341
  218SOL    HW1  653   1.820   1.436   0.022  0.1855  1.4428 -0.3622
  218SOL    HW2  654   1.895   1.315   0.136  2.6780  0.5074  2.8100
  219SOL     OW  655   2.351   1.276   2.531 -0.1818  0.4152  0.3915
  219SOL    HW1  656   2.356   1.210   2.457  0.9521  2.2555  3.6330
  219SOL    HW2  657   2.339   1.234   2.626  0.1148  0.2337  1.8563
  220SOL     OW  658   1.531   1.012   1.217  0.1865 -0.7125 -0.1355
  220SOL    HW1  659   1.616   1.057   1.263  1.5925 -0.9758 -0.6774
  220SOL    HW2  660   1.478   1.086   1.162 -0.7178  0.5845 -0.2676
  221SOL     OW  661   1.364   1.110   2.207  0.5918 -0.4246 -0.4796
  221SOL    HW1  662   1.323   1.167   2.128 -1.4809 -0.6987 -2.5890
  221SOL    HW2  663   1.460   1.073   2.180  1.1988 -0.4799  0.6608
  222SOL     OW  664   1.242   0.034   1.235  0.0684 -0.0954  0.3975
  222SOL    HW1  665   1.247   0.102   1.314  3.4747  1.0575 -2.1336
  222SOL    HW2  666   1.281   0.071   1.144  0.1875 -1.1549 -1.1438
  223SOL     OW  667   2.875   0.862   2.030 -0.6388  0.2450  0.3882
  223SOL    HW1  668   2.908   0.881   2.126 -2.3297  1.7687  0.6999
  223SOL    HW2  669   2.940   0.898   1.960 -0.7682 -2.3676 -0.4580
  224SOL     OW  670   1.489   0.953   2.766  0.2992  0.2655 -0.9048
  224SOL    HW1  671   1.532   0.903   2.681 -0.8134 -0.8401  1.6726
  224SOL    HW2  672   1.478   1.053   2.742 -1.9388 -2.7165 -0.6480
  225SOL     OW  673   2.980   2.759   2.880 -0.4543  0.2478 -0.0694
  225SOL    HW1  674   2.964   2.671   2.831  1.5115  2.5658  0.7085
  225SOL    HW2  675   3.005   2.836   2.814 -0.8851 -0.8338  2.0694
  226SOL     OW  676   2.431   1.587   2.847 -0.5589  0.2078 -0.3340
  226SOL    HW1  677   2.472   1.577   2.752  2.4054 -1.0217 -0.2584
  226SOL    HW2  678   2.371   1.510   2.872  1.7429  0.3202  1.4510
  227SOL     OW  679   0.900   0.120   3.023 -0.2172 -0.0796  0.3245
  227SOL    HW1  680   0.916   0.020   3.054  2.9640  1.1705 -0.5562
  227SOL    HW2  681   0.863   0.135   2.926 -0.3668  0.8189  2.9511
  228SOL     OW  682   2.378   0.631   2.834 -0.1671 -0.0247  0.5255
  228SOL    HW1  683   2.319   0.636   2.746 -2.2259 -2.7781  0.9005
  228SOL    HW2  684   2.476   0.616   2.808 -3.6792  0.1206 -0.4750
  229SOL     OW  685   0.552   0.527   1.875  0.4169  0.2934  0.4943
  229SOL    HW1  686   0.549   0.465   1.793  1.6868 -0.1027  1.6012
  229SOL    HW2  687   0.639   0.576   1.859 -0.9641 -1.8600 -4.0567
  230SOL     OW  688   1.914   1.221   2.157  0.1424 -0.7075  0.0721
  230SOL    HW1  689   1.974   1.247   2.078 -0.9714  2.9766  0.9526
  230SOL    HW2  690   1.813   1.253   2.149  3.2209 -0.1608  0.2385
  231SOL     OW  691   0.637   0.979   3.003  0.1177  0.1886  0.2051
  231SOL    HW1  692   0.701   1.061   2.995 -0.2788 -0.9543 -3.6474
  231SOL    HW2  693   0.598   0.957   3.099 -0.9859 -0.1416  1.4812
  232SOL     OW  694   2.457   3.099   2.752 -0.2826  0.4860 -0.1561
  232SOL    HW1  695   2.510   3.045   2.820 -1.4788  0.9569 -0.3607
  232SOL    HW2  696   2.492   3.087   2.657 -0.0061  2.7387 -1.1348
  233SOL     OW  697   1.694   1.296   1.098  0.1286  0.3682  0.0746
  233SOL    HW1  698   1.656   1.292   1.004 -0.6628 -0.3630 -0.0965
  233SOL    HW2  699   1.784   1.244   1.100 -2.5534  1.8630  0.7701
  234SOL     OW  700   1.642   2.548   1.850 -0.4605  0.0571 -0.2103
  234SOL    HW1  701   1.635   2.609   1.937 -0.6029  0.8947  0.9654
  234SOL    HW2  702   1.551   2.536   1.805 -2.5505  1.5004  2.9150
  235SOL     OW  703   0.034   3.020   2.902 -0.5648  0.5207 -0.0826
  235SOL    HW1  704   0.097   3.103   2.888 -0.4966  2.0937  1.4264
  235SOL    HW2  705  -0.025   3.035   2.985 -1.3033 -1.9837  1.1132
  236SOL     OW  706   2.864   0.686   0.126 -0.1004 -0.4703  0.5668
  236SOL    HW1  707   2.908   0.765   0.184 -0.3051 -0.0568  0.9586
  236SOL    HW2  708   2.935   0.639   0.063 -2.2952  0.0199  0.6830
  237SOL     OW  709   1.500   1.633   1.025 -0.7691  0.0837  0.3081
  237SOL    HW1  710   1.601   1.639   1.014 -2.4969 -1.4746 -2.0695
  237SOL    HW2  711   1.477   1.642   1.127 -0.2433  1.8369  2.8716
  238SOL     OW  712   1.757   1.294   0.800  0.5262 -0.0017  0.4548
  238SOL    HW1  713   1.850   1.315   0.765  0.3869 -1.3548  0.9675
  238SOL    HW2  714   1.678   1.343   0.760 -1.8429  0.4022  1.0815
  239SOL     OW  715   2.040   0.279   2.679 -0.4652 -0.0689  0.6255
  239SOL    HW1  716   2.110   0.254   2.747 -1.7150  1.4889  2.1753
  239SOL    HW2  717   1.962   0.330   2.721 -0.8615  0.5659 -1.8760
  240SOL     OW  718   0.916   0.677   0.261  0.5607  0.2068  0.2474
  240SOL    HW1  719   0.916   0.575   0.235  3.1982 -1.8376  3.3957
  240SOL    HW2  720   0.896   0.690   0.365  4.2349 -2.8713 -1.1432
  241SOL     OW  721   0.585   0.096   0.320  0.0733  0.3963 -0.3768
  241SOL    HW1  722   0.622   0.147   0.238  0.0155 -1.6931  1.7096
  241SOL    HW2  723   0.550   0.006   0.287 -1.3507 -2.9145  1.0717
  242SOL     OW  724   0.651   2.473   1.146 -0.1621  0.5226 -0.1046
  242SOL    HW1  725   0.633   2.491   1.244  3.5056 -0.3934 -1.2721
  242SOL    HW2  726   0.744   2.519   1.115  1.8670 -0.7303 -0.1257
  243SOL     OW  727   1.122   0.635   2.439 -0.1177 -0.1831 -0.2278
  243SOL    HW1  728   1.064   0.710   2.406  3.7735 -3.3131  0.6895
  243SOL    HW2  729   1.068   0.551   2.470  1.9260  0.7396 -0.9327
  244SOL     OW  730   2.802   1.857   2.393 -0.0874  0.1050 -0.1234
  244SOL    HW1  731   2.837   1.839   2.295  3.1045 -1.5219 -1.0012
  244SOL    HW2  732   2.718   1.807   2.418  2.1331 -2.4901 -1.9508
  245SOL     OW  733   2.490   0.702   2.149  0.5660 -0.6644  0.5256
  245SOL    HW1  734   2.514   0.768   2.225 -2.0010  0.5272  1.1329
  245SOL    HW2  735   2.533   0.606   2.171  1.3914  0.0084 -0.1079
  246SOL     OW  736   0.300   2.909   1.689 -0.5490  0.5898  0.3008
  246SOL    HW1  737   0.221   2.904   1.619  0.6663 -0.9133 -0.1030
  246SOL    HW2  738   0.369   2.984   1.669  0.1170  1.4649 -0.0793
  247SOL     OW  739   2.210   0.587   3.045  0.9343 -0.7293 -0.0069
  247SOL    HW1  740   2.264   0.574   2.960  1.7856 -1.8034  2.0550
  247SOL    HW2  741   2.166   0.686   3.047 -2.2813  1.3008  0.6332
  248SOL     OW  742   2.147   1.850   1.620 -0.4791 -0.7486 -0.1905
  248SOL    HW1  743   2.221   1.791   1.666 -2.4719 -1.2957  2.4933
  248SOL    HW2  744   2.051   1.831   1.654 -0.5886 -0.7691  1.3513
  249SOL     OW  745   1.936   1.996   1.957  0.4553 -0.6537  0.3964
  249SOL    HW1  746   1.945   1.925   1.880 -1.7446  0.2385 -1.7915
  249SOL    HW2  747   2.033   2.041   1.975  1.2974  1.4614 -2.3531
  250SOL     OW  748   1.076   0.734   1.864  0.9914  0.2323 -0.1290
  250SOL    HW1  749   1.088   0.666   1.943  0.3968 -2.4110 -1.6542
  250SOL    HW2  750   1.090   0.699   1.768 -0.9278  1.1885 -0.4278
  251SOL     OW  751   3.053   1.577   2.544 -0.5556 -0.2914 -0.4271
  251SOL    HW1  752   3.039   1.681   2.535 -0.2011  0.1532  2.0177
  251SOL    HW2  753   2.963   1.524   2.541  0.2159 -1.7515  4.0605
  252SOL     OW  754   1.518   0.900   1.507  0.4581 -0.1381 -0.6204
  252SOL    HW1  755   1.538   0.918   1.407 -1.8865 -3.1399 -0.6343
  252SOL    HW2  756   1.522   0.986   1.574  0.6630  1.7069  0.5533
  253SOL     OW  757   0.931   1.561   0.384 -0.4652 -0.9474  0.0003
  253SOL    HW1  758   0.996   1.480   0.403  2.0029 -0.2932 -0.5009
  253SOL    HW2  759   0.840   1.535   0.356  2.7540  3.6225  3.6797
  254SOL     OW  760   2.071   2.178   1.603  0.4693 -0.1772 -0.3138
  254SOL    HW1  761   2.045   2.110   1.528  2.8899  0.4718  0.8690
  254SOL    HW2  762   1.986   2.204   1.656  0.2431 -0.8469 -0.0233
  255SOL     OW  763   0.138   1.152   2.925 -0.1528 -0.0934  0.1800
  255SOL    HW1  764   0.170   1.244   2.905 -0.6107  0.6083 -2.3064
  255SOL    HW2  765   0.218   1.083   2.945  1.9774 -0.7616  0.1224
  256SOL     OW  766   2.814   1.366   1.845 -0.1891 -0.0542 -0.0526
  256SOL    HW1  767   2.746   1.443   1.856 -1.6884 -0.3531 -2.1538
  256SOL    HW2  768   2.768   1.278   1.878  0.2829  0.5063 -3.0086
  257SOL     OW  769   0.900   0.156   1.854  0.2015 -0.4424 -0.8865
  257SOL    HW1  770   0.953   0.208   1.783 -2.4885  0.7579  2.7464
  257SOL    HW2  771   0.927   0.059   1.870 -0.2779  0.1574 -2.7381
  258SOL     OW  772   2.984   1.285   0.440 -0.2293  0.1680  0.5229
  258SOL    HW1  773   2.944   1.378   0.410  3.1308  0.9492 -0.4582
  258SOL    HW2  774   3.034   1.282   0.527 -1.4738 -0.3238 -0.8592
  259SOL     OW  775   0.454   2.934   2.995  0.6325  0.8120  0.2798
  259SOL    HW1  776   0.385   2.872   3.054  1.4352  0.4587  2.1205
  259SOL    HW2  777   0.486   2.890   2.907 -3.7051  1.7018 -1.2960
  260SOL     OW  778   2.703   0.862   2.741  0.0220 -0.5594 -0.3838
  260SOL    HW1  779   2.608   0.837   2.705 -1.0297  2.1397  1.4229
  260SOL    HW2  780   2.699   0.897   2.838 -0.4833  1.5606 -0.5959
  261SOL     OW  781   2.729   1.373   1.314 -0.2979  0.5101 -0.1086
  261SOL    HW1  782   2.685   1.296   1.261  0.2077 -1.4765 -0.9170
  261SOL    HW2  783   2.815   1.342   1.356 -1.8745  0.3312  0.3091
  262SOL     OW  784   1.436   2.925   1.972 -0.3515  0.9048  0.3981
  262SOL    HW1  785   1.469   3.017   1.934 -0.9977 -1.6519 -1.2334
  262SOL    HW2  786   1.333   2.903   1.961 -1.2304 -0.5552  1.4637
  263SOL     OW  787   0.857   0.765   2.307  0.1277 -0.8349  0.4378
  263SOL    HW1  788   0.828   0.668   2.279  0.8586 -0.2210 -0.8723
  263SOL    HW2  789   0.896   0.816   2.224 -0.6100 -0.8484  1.7859
  264SOL     OW  790   2.253   0.707   0.416 -0.1046  0.0702 -0.9182
  264SOL    HW1  791   2.155   0.740   0.418 -1.1170  4.8747  0.7913
  264SOL    HW2  792   2.313   0.793   0.426  3.6971  3.0954  0.4940
  265SOL     OW  793   0.908   2.279   2.666  0.1723  0.3765 -0.7057
  265SOL    HW1  794   0.952   2.337   2.740  1.6283 -0.4870 -1.7573
  265SOL    HW2  795   0.826   2.225   2.707 -2.1021 -0.3906  1.9322
  266SOL     OW  796   1.336   1.723   0.035 -0.2481  0.3592 -0.2516
  266SOL    HW1  797   1.310   1.792   0.113  1.0589  2.1487  0.1515
  266SOL    HW2  798   1.441   1.726   0.022  0.4735 -1.0735  0.4074
  267SOL     OW  799   1.042   3.059   2.390 -0.1440  0.0311 -0.6990
  267SOL    HW1  800   1.052   3.001   2.305  3.7110  0.1085 -1.3459
  267SOL    HW2  801   0.997   3.151   2.373 -2.6784 -2.9017  0.8310
  268SOL     OW  802   0.672   1.154   1.063 -0.2832 -0.1634  0.8223
  268SOL    HW1  803   0.705   1.215   1.136  1.5835 -0.9734 -1.1830
  268SOL    HW2  804   0.643   1.205   0.975  0.0263 -0.5367  0.9192
  269SOL     OW  805   2.436   2.430   1.574 -0.5507  0.3880 -0.6810
  269SOL    HW1  806   2.529   2.386   1.550  0.9242  1.0843 -1.3133
  269SOL    HW2  807   2.416   2.437   1.680 -0.4781 -1.7895  1.6256
  270SOL     OW  808   0.150   3.039   1.926 -0.3890  0.5124 -0.1133
  270SOL    HW1  809   0.236   2.999   1.882  1.0577  1.8544  0.2572
  270SOL    HW2  810   0.092   2.962   1.966 -0.6844 -1.2976 -3.3220
  271SOL     OW  811   0.452   1.434   1.178  0.7826  0.4886 -0.6358
  271SOL    HW1  812   0.403   1.412   1.087 -2.8711 -3.0043  1.1228
  271SOL    HW2  813   0.392   1.438   1.261  0.7408  2.3032 -1.2544
  272SOL     OW  814   1.952   2.919   1.930  1.1259 -0.1134  0.0273
  272SOL    HW1  815   1.888   2.871   1.865 -3.2245 -0.6163  1.6048
  272SOL    HW2  816   2.013   2.987   1.870  1.1187  1.3674 -3.4997
  273SOL     OW  817   1.388   1.424   2.837 -0.4802  0.2094  0.1604
  273SOL    HW1  818   1.325   1.485   2.789  1.8565  0.5267  1.7461
  273SOL    HW2  819   1.386   1.426   2.938  0.2413 -1.4313 -1.7510
  274SOL     OW  820   1.150   0.549   2.057  0.2303  0.1796  0.3476
  274SOL    HW1  821   1.194   0.479   1.986 -0.4529 -1.1485 -1.0668
  274SOL    HW2  822   1.197   0.555   2.147  0.3697 -0.0340 -0.4771
  275SOL     OW  823   0.621   2.077   1.951 -0.2018  0.0638 -0.4781
  275SOL    HW1  824   0.578   2.175   1.951 -0.7993  0.3674  2.0467
  275SOL    HW2  825   0.561   2.001   1.915 -0.8220 -2.0178 -1.4787
  276SOL     OW  826   2.177   0.906   2.749  0.2379 -0.3048  0.2745
  276SOL    HW1  827   2.109   0.869   2.684  0.2587 -0.3722  2.9197
  276SOL    HW2  828   2.167   0.856   2.841  2.1958 -2.1945  3.2304
  277SOL     OW  829   3.070   0.876   0.223  0.3650  0.0295  0.0568
  277SOL    HW1  830   3.156   0.914   0.179 -0.9630  3.4269  1.9558
  277SOL    HW2  831   3.088   0.798   0.287  1.8927  0.6968  1.9279
  278SOL     OW  832   0.222   0.301   2.983  0.1832 -0.0198  0.3891
  278SOL    HW1  833   0.264   0.224   3.042  1.5468  0.1142  1.1550
  278SOL    HW2  834   0.247   0.400   3.025  3.2409  1.3176  2.0548
  279SOL     OW  835   0.148   0.071   0.873 -0.4480 -0.0254  0.6800
  279SOL    HW1  836   0.172   0.024   0.965 -1.9117 -0.6978  0.7038
  279SOL    HW2  837   0.226   0.096   0.810 -0.3328  0.6889 -0.5408
  280SOL     OW  838   1.645   2.883   2.554  0.0224 -0.5373 -0.0518
  280SOL    HW1  839   1.710   2.959   2.521 -1.1199  0.1151 -0.6698
  280SOL    HW2  840   1.550   2.923   2.559  3.0397  0.5524  0.5008
  281SOL     OW  841   0.572   0.975   2.284 -0.1740 -0.4799  0.1884
  281SOL    HW1  842   0.564   0.886   2.236  1.9700  0.1817  1.1236
  281SOL    HW2  843   0.522   0.972   2.372  1.1489 -0.2560 -1.6687
  282SOL     OW  844   1.692   2.380   0.502 -0.1455 -0.2488  0.2329
  282SOL    HW1  845   1.668   2.308   0.431 -2.3176  2.7717 -3.6046
  282SOL    HW2  846   1.659   2.472   0.475  0.3355 -1.6869 -1.1429
  283SOL     OW  847   1.190   0.943   0.838 -0.0803 -0.3384  0.3555
  283SOL    HW1  848   1.232   0.889   0.918  0.5738  1.5533 -0.0399
  283SOL    HW2  849   1.114   1.014   0.867 -2.2188  0.1277  1.3452
  284SOL     OW  850   2.375   2.790   2.305 -0.4931 -0.0497 -0.5049
  284SOL    HW1  851   2.423   2.847   2.236  1.1686 -0.2755  1.2131
  284SOL    HW2  852   2.394   2.820   2.406  2.8086 -1.2001  2.2156
  285SOL     OW  853   1.348   2.967   2.517  0.6990  0.0836  0.1060
  285SOL    HW1  854   1.358   2.983   2.415  5.3923 -3.0361  0.4446
  285SOL    HW2  855   1.266   3.020   2.562  1.7104  1.7534 -1.4465
  286SOL     OW  856   0.450   0.412   0.710 -0.1900  0.3120  0.5452
  286SOL    HW1  857   0.429   0.358   0.796 -0.5426  0.0842  1.7965
  286SOL    HW2  858   0.447   0.356   0.621 -1.8994  0.3521 -0.8770
  287SOL     OW  859   0.142   1.291   2.541  0.3579 -0.2507 -0.0554
  287SOL    HW1  860   0.092   1.208   2.573  0.3737  0.4351  1.5676
  287SOL    HW2  861   0.076   1.369   2.514 -1.6121  1.4541 -0.9008
  288SOL     OW  862   1.548   2.676   1.537 -0.6644 -0.3666  0.4613
  288SOL    HW1  863   1.644   2.724   1.555  2.6321  1.0531  2.4817
  288SOL    HW2  864   1.510   2.695   1.445 -3.0734 -0.5976 -0.2147
  289SOL     OW  865   0.688   2.696   0.809  0.0197 -0.3124  0.3175
  289SOL    HW1  866   0.729   2.770   0.745 -0.2223 -0.4873  0.0104
  289SOL    HW2  867   0.667   2.727   0.903 -0.3441 -0.2997  1.0982
  290SOL     OW  868   2.842   1.085   1.610 -0.2397 -0.6703  0.1927
  290SOL    HW1  869   2.778   1.139   1.671 -1.4366  2.1453  0.0963
  290SOL    HW2  870   2.906   1.026   1.672  1.5359  0.7760  1.0979
  291SOL     OW  871   1.965   0.050   0.086  0.3074  0.5225 -0.1819
  291SOL    HW1  872   1.988   0.060   0.188 -1.2148 -0.1548  1.5125
  291SOL    HW2  873   2.016   0.114   0.020 -1.1970  0.7331 -1.8336
  292SOL     OW  874   2.984   1.170   3.031 -0.2088  0.0817  0.4343
  292SOL    HW1  875   2.927   1.246   2.993 -0.1660  0.2297  0.5600
  292SOL    HW2  876   3.083   1.160   3.002 -2.1814 -0.2371 -0.0647
  293SOL     OW  877   0.607   2.135   0.138 -0.3236 -0.1837 -0.1522
  293SOL    HW1  878   0.592   2.177   0.234  0.3416  0.9438  2.4123
  293SOL    HW2  879   0.707   2.110   0.121 -3.0459 -2.6059 -0.7717
  294SOL     OW  880   1.687   2.202   1.746 -0.0107  1.0768 -0.1026
  294SOL    HW1  881   1.698   2.255   1.836 -0.3301  0.5025 -1.1284
  294SOL    HW2  882   1.701   2.252   1.652 -0.1791 -0.1588 -2.7084
  295SOL     OW  883   1.038   0.999   0.437  0.0573  0.5112 -0.0281
  295SOL    HW1  884   1.137   1.007   0.477  3.1600 -1.8213  1.0156
  295SOL    HW2  885   0.968   1.009   0.507  2.4820 -0.1777  2.9654
  296SOL     OW  886   1.307   2.042   2.520 -0.7844  0.3190 -0.1089
  296SOL    HW1  887   1.322   2.039   2.421 -0.4062  1.1650  2.6087
  296SOL    HW2  888   1.289   1.946   2.556 -0.7552 -3.4422  0.4009
  297SOL     OW  889   1.479   0.632   1.367 -0.1134  0.0830  0.4701
  297SOL    HW1  890   1.470   0.531   1.397 -2.0899 -1.3962 -0.1035
  297SOL    HW2  891   1.546   0.690   1.422  2.0489  0.9596 -1.1955
  298SOL     OW  892   0.459   1.240   2.893  0.8584  0.5341  0.2432
  298SOL    HW1  893   0.456   1.165   2.966 -0.8668 -0.3842  1.4137
  298SOL    HW2  894   0.533   1.240   2.821  1.1646  2.8281  0.7257
  299SOL     OW  895   0.473   0.277   1.425  0.1651 -0.3908 -0.2539
  299SOL    HW1  896   0.532   0.317   1.352 -2.2333  0.0901  1.2868
  299SOL    HW2  897   0.528   0.259   1.508 -3.3644 -1.2595 -2.5603
  300SOL     OW  898   1.201   1.809   2.897 -0.5253  0.7913 -0.2298
  300SOL    HW1  899   1.171   1.717   2.855  0.6594  1.2447 -1.2607
  300SOL    HW2  900   1.205   1.806   3.004  0.9308 -3.6464  3.5184
  301SOL     OW  901   0.456   0.278   0.484 -0.0540  0.1273  0.4555
  301SOL    HW1  902   0.362   0.231   0.493 -0.6493 -1.5646 -1.1858
  301SOL    HW2  903   0.527   0.238   0.418  0.0234 -0.1296 -0.2387
  302SOL     OW  904   1.251   2.355   2.280  0.2500  0.2216 -1.1510
  302SOL    HW1  905   1.189   2.379   2.356 -0.7368  3.9217  1.4634
  302SOL    HW2  906   1.249   2.253   2.258 -2.1381  2.3436  2.6196
  303SOL     OW  907   0.959   2.339   0.788 -0.0618  0.2424  0.0064
  303SOL    HW1  908   1.032   2.390   0.730 -2.1354  0.8746  2.0728
  303SOL    HW2  909   0.954   2.382   0.883  1.0701 -2.7542  1.5932
  304SOL     OW  910   0.150   2.058   0.633  0.1845 -0.0991 -0.3432
  304SOL    HW1  911   0.155   1.991   0.553  0.8931 -0.3779  0.0519
  304SOL    HW2  912   0.083   2.133   0.607 -0.5681  3.1685 -1.5100
  305SOL     OW  913   1.581   0.899   0.597 -0.2449  0.5589 -0.0923
  305SOL    HW1  914   1.540   0.882   0.498  0.7844 -2.3275 -3.2226
  305SOL    HW2  915   1.662   0.834   0.611 -1.0716 -0.1744  0.0307
  306SOL     OW  916   0.468   1.850   1.884 -0.5549  0.3626 -0.7447
  306SOL    HW1  917   0.559   1.790   1.880  0.6582  2.9594  1.5834
  306SOL    HW2  918   0.417   1.831   1.976  1.3743  1.9719  1.6082
  307SOL     OW  919   0.033   0.854   2.592  0.0618  0.1233 -0.0242
  307SOL    HW1  920   0.041   0.949   2.642  3.5736  0.7206 -2.4518
  307SOL    HW2  921  -0.026   0.792   2.652 -0.2496  2.9481  1.1647
  308SOL     OW  922   1.532   2.677   2.857  0.2152  0.0812 -0.4092
  308SOL    HW1  923   1.559   2.617   2.783  0.9090  2.1603  0.4802
  308SOL    HW2  924   1.477   2.626   2.933 -0.8317 -2.0695  1.2146
  309SOL     OW  925   1.238   0.074   1.775 -0.3103 -0.0811  0.4945
  309SOL    HW1  926   1.335   0.085   1.804 -0.5008  0.8139 -0.0707
  309SOL    HW2  927   1.220   0.123   1.686  0.3217 -2.6305 -2.2071
  310SOL     OW  928   1.483   2.550   0.691  1.0287  0.0880 -0.2738
  310SOL    HW1  929   1.497   2.610   0.772  0.5920 -0.1586  2.3006
  310SOL    HW2  930   1.536   2.585   0.606  2.7573  0.0041 -2.2344
  311SOL     OW  931   1.182   0.925   1.575  0.2176 -0.6723  0.6380
  311SOL    HW1  932   1.259   0.886   1.632 -0.7243 -2.3192 -0.9368
  311SOL    HW2  933   1.215   1.010   1.519  1.1201  1.3185 -2.1643
  312SOL     OW  934   1.658   0.697   1.027  0.3129 -0.4417  0.1008
  312SOL    HW1  935   1.599   0.779   1.028 -1.5981 -1.4510  4.0906
  312SOL    HW2  936   1.619   0.627   0.961  0.5134 -0.4862 -2.2590
  313SOL     OW  937   1.513   1.423   0.681 -0.2011  0.3833 -0.2476
  313SOL    HW1  938   1.434   1.450   0.746  0.6916  0.1432  0.0422
  313SOL    HW2  939   1.499   1.330   0.633 -0.4166 -0.4661 -0.5314
  314SOL     OW  940   2.987   3.064   0.035  0.4675  0.5725  0.8568
  314SOL    HW1  941   2.941   3.121   0.104  1.1734 -0.3334 -0.9342
  314SOL    HW2  942   2.927   2.991  -0.011 -0.5501  1.0539 -0.6725
  315SOL     OW  943   1.224   0.223   2.780  0.1466  0.2996  0.0131
  315SOL    HW1  944   1.216   0.149   2.712  0.8847 -0.5446  2.0213
  315SOL    HW2  945   1.228   0.183   2.878  1.4172 -1.8307  1.1101
  316SOL     OW  946   1.666   2.114   0.916 -0.5309  0.0599  0.1945
  316SOL    HW1  947   1.627   2.113   1.009  1.1292  0.7843 -0.4081
  316SOL    HW2  948   1.643   2.206   0.869 -0.1454 -0.6131  0.8584
  317SOL     OW  949   1.120   0.719   2.849 -0.0696  0.0994  0.0615
  317SOL    HW1  950   1.036   0.746   2.905 -0.4838  0.3775 -0.3916
  317SOL    HW2  951   1.101   0.630   2.804  3.1444  0.8637  1.6542
  318SOL     OW  952   1.404   3.012   2.261 -0.8809  0.1091 -0.0157
  318SOL    HW1  953   1.404   3.121   2.254  0.5532 -0.4600  2.0372
  318SOL    HW2  954   1.415   2.959   2.166 -3.4027 -1.3433 -1.5395
  319SOL     OW  955   0.649   2.407   2.908 -0.0146  0.1898  0.2832
  319SOL    HW1  956   0.587   2.363   2.980 -0.5829  0.5771 -2.1796
  319SOL    HW2  957   0.744   2.367   2.897 -2.2012 -0.6399  0.0202
  320SOL     OW  958   1.636   2.177   0.337 -0.1348 -0.4460 -0.3239
  320SOL    HW1  959   1.742   2.177   0.353  2.1949 -1.2919  0.6504
  320SOL    HW2  960   1.586   2.113   0.408 -1.5049  2.3589 -0.9052
  321SOL     OW  961   1.635   2.646   0.486  1.0290  0.3423 -0.0445
  321SOL    HW1  962   1.558   2.706   0.446 -0.6780  0.9228  0.2936
  321SOL    HW2  963   1.726   2.695   0.471  0.4770 -2.4436 -1.4919
  322SOL     OW  964   2.571   1.122   2.291  0.5668  0.4273  0.5483
  322SOL    HW1  965   2.619   1.164   2.373  1.7401  1.1552  3.1093
  322SOL    HW2  966   2.577   1.018   2.295 -1.8219 -1.4778  0.0134
  323SOL     OW  967   1.010   2.634   0.796 -0.3023 -0.1857  0.2229
  323SOL    HW1  968   1.005   2.608   0.693 -1.2159 -0.3208  0.1664
  323SOL    HW2  969   0.983   2.729   0.816  1.5883 -0.2926  0.2334
  324SOL     OW  970   0.233   2.467   2.488  0.2016  0.3417  0.2499
  324SOL    HW1  971   0.282   2.411   2.558 -0.3325 -0.9192 -0.6125
  324SOL    HW2  972   0.174   2.536   2.540  0.0243 -0.0056  2.4728
  325SOL     OW  973   1.226   3.043   0.450  0.7423 -0.1766 -0.4811
  325SOL    HW1  974   1.249   3.091   0.360  0.6971  0.1462 -0.6671
  325SOL    HW2  975   1.260   3.104   0.530  0.6324  0.6639 -1.1946
  326SOL     OW  976   2.480   0.769   3.062  0.3161  0.7242  0.3782
  326SOL    HW1  977   2.437   0.719   2.980 -0.3990  1.6526 -0.4087
  326SOL    HW2  978   2.542   0.710   3.123 -2.2461 -2.1104  1.0491
  327SOL     OW  979   2.888   0.369   0.492 -0.1913 -0.4482  0.0166
  327SOL    HW1  980   2.834   0.365   0.402 -0.7630  0.8477 -0.2253
  327SOL    HW2  981   2.848   0.310   0.572  0.3665  0.8223  0.6719
  328SOL     OW  982   2.503   0.601   0.399  0.2688  0.8134 -0.0006
  328SOL    HW1  983   2.406   0.637   0.397 -0.5379  1.2850 -1.5494
  328SOL    HW2  984   2.523   0.546   0.486  3.3355  1.2034 -1.3006
  329SOL     OW  985   2.956   2.964   2.166  0.5901 -0.0915  0.0150
  329SOL    HW1  986   3.001   2.895   2.227  0.9585 -0.8956 -1.8028
  329SOL    HW2  987   2.983   3.060   2.194  1.2744 -0.7780  1.5230
  330SOL     OW  988   0.532   0.198   1.883  0.2697  0.1426 -0.2478
  330SOL    HW1  989   0.600   0.274   1.890 -0.0983 -2.2761 -1.4973
  330SOL    HW2  990   0.554   0.114   1.940  0.7473  1.4701 -1.4276
  331SOL     OW  991   2.930   1.930   1.116  0.3946 -0.1773 -0.2863
  331SOL    HW1  992   2.964   2.007   1.055  0.1485 -1.1268 -0.7222
  331SOL    HW2  993   2.878   1.974   1.197  1.5686  0.5955  0.6306
  332SOL     OW  994   0.421   1.127   0.064 -0.1232 -0.0114 -0.1316
  332SOL    HW1  995   0.366   1.059   0.009 -1.3717  1.5238  0.6694
  332SOL    HW2  996   0.371   1.155   0.152  3.4522 -2.6235  1.3026
  333SOL     OW  997   2.861   1.045   0.310 -0.0960 -0.0103 -0.1226
  333SOL    HW1  998   2.901   1.100   0.393 -0.2889 -1.6543  1.1148
  333SOL    HW2  999   2.935   0.999   0.255 -0.9716 -1.0776  0.6928
  334SOL     OW 1000   1.679   1.179   1.884  0.3797 -0.1952  0.2827
  334SOL    HW1 1001   1.775   1.155   1.848 -2.8312 -0.0276 -2.9246
  334SOL    HW2 1002   1.675   1.272   1.929 -0.5218  0.4276  1.3382
  335SOL     OW 1003   1.988   2.760   2.611  0.1913 -0.1826 -0.1981
  335SOL    HW1 1004   1.911   2.741   2.672 -2.6823 -0.5993 -0.9166
  335SOL    HW2 1005   2.075   2.775   2.660  1.0625  1.9802  1.2561
  336SOL     OW 1006   0.253   0.074   2.806 -0.3174 -0.4793  0.5537
  336SOL    HW1 1007   0.343   0.027   2.778  0.5531  0.6984 -1.0972
  336SOL    HW2 1008   0.264   0.167   2.855 -1.5484  2.2099  1.9827
  337SOL     OW 1009   0.925   2.807   2.812  0.0173 -0.0397  0.3726
  337SOL    HW1 1010   0.906   2.783   2.915  0.1912  0.4883  0.7353
  337SOL    HW2 1011   1.014   2.756   2.783  1.6643 -0.3617  0.9656
  338SOL     OW 1012   0.040   1.005   0.701  0.3159  0.4441  0.1029
  338SOL    HW1 1013  -0.051   0.958   0.703  0.8176 -1.9721  2.6726
  338SOL    HW2 1014   0.024   1.103   0.682  0.9473 -0.4475 -1.5653
  339SOL     OW 1015   1.700   1.386   2.083  0.5247 -0.4790 -0.2425
  339SOL    HW1 1016   1.597   1.394   2.087  1.6067 -0.5805  1.2709
  339SOL    HW2 1017   1.756   1.468   2.101 -0.3709  0.6743 -0.9699
  340SOL     OW 1018   2.346   0.760   1.226  0.1949 -0.7317  0.0696
  340SOL    HW1 1019   2.247   0.755   1.197  1.1640 -1.4285  1.0044
  340SOL    HW2 1020   2.400   0.692   1.168  1.5807 -3.3530  0.4880
  341SOL     OW 1021   1.906   2.177   0.338  0.4452  0.3772  0.3747
  341SOL    HW1 1022   1.926   2.199   0.238 -0.1198 -0.2885 -0.6956
  341SOL    HW2 1023   1.993   2.167   0.388 -2.4976 -0.9036 -0.0522
  342SOL     OW 1024   2.212   2.083   2.758  0.1031 -0.2362 -0.4046
  342SOL    HW1 1025   2.286   2.033   2.813 -1.7463  0.6354 -1.2009
  342SOL    HW2 1026   2.117   2.057   2.788  0.5650  0.5567  2.0589
  343SOL     OW 1027   0.345   0.787   2.755  0.7848 -0.4233 -0.5500
  343SOL    HW1 1028   0.382   0.874   2.715  0.1533  3.0657 -2.4741
  343SOL    HW2 1029   0.428   0.723   2.762  1.3278  0.6496  1.5914
  344SOL     OW 1030   1.929   1.418   0.450 -0.1879 -0.7813 -0.5087
  344SOL    HW1 1031   1.931   1.350   0.368 -1.0685 -2.2363 -2.5131
  344SOL    HW2 1032   1.833   1.463   0.469  0.2984  1.1302 -2.0583
  345SOL     OW 1033   1.393   2.270   2.903 -0.0058 -0.6522 -0.3357
  345SOL    HW1 1034   1.300   2.232   2.878  0.2411  1.1922  1.0487
  345SOL    HW2 1035   1.474   2.213   2.870 -1.0652 -1.4345 -0.2300
  346SOL     OW 1036   2.307   0.898   1.464  0.1068  0.0883 -0.6677
  346SOL    HW1 1037   2.276   0.996   1.451 -0.1540  0.0537 -1.4406
  346SOL    HW2 1038   2.329   0.846   1.378  0.2459 -1.4257  2.2521
  347SOL     OW 1039   0.730   2.816   1.494  0.0467 -0.5928 -0.6107
  347SOL    HW1 1040   0.702   2.757   1.574 -0.8106 -2.5110 -1.2940
  347SOL    HW2 1041   0.660   2.893   1.472 -1.0906 -0.3745  0.3646
  348SOL     OW 1042   0.114   0.664   2.838  0.3244  0.4523 -0.2729
  348SOL    HW1 1043   0.032   0.695   2.793  1.8119 -3.2048 -1.9048
  348SOL    HW2 1044   0.205   0.703   2.806  0.8066 -0.5540  0.4565
  349SOL     OW 1045   1.829   0.411   2.795 -0.0653 -0.7181  0.2148
  349SOL    HW1 1046   1.791   0.491   2.738 -1.3064  0.7076  1.0392
  349SOL    HW2 1047   1.807   0.425   2.895 -1.1431  3.0603 -0.9961
  350SOL     OW 1048   1.606   0.434   0.372 -0.7299  0.5574 -0.1182
  350SOL    HW1 1049   1.686   0.452   0.440  0.9251 -1.3793  1.9963
  350SOL    HW2 1050   1.555   0.513   0.331 -0.7593 -1.6885 -2.0408
  351SOL     OW 1051   0.971   0.870   2.089 -0.0191  0.0526  0.3481
  351SOL    HW1 1052   0.925   0.964   2.085  0.1044 -3.4846  1.8929
  351SOL    HW2 1053   1.000   0.842   1.994  0.1903 -1.8483  2.7552
  352SOL     OW 1054   2.034   1.303   0.682  0.7160  0.0899  0.3612
  352SOL    HW1 1055   1.991   1.332   0.589  0.3366 -1.1420  3.2439
  352SOL    HW2 1056   2.116   1.364   0.711  1.3843  1.4617  2.3063
  353SOL     OW 1057   2.140   2.931   1.106  0.0289  0.5256 -0.5593
  353SOL    HW1 1058   2.203   2.887   1.174 -0.0623  0.9258  1.7566
  353SOL    HW2 1059   2.096   2.858   1.047 -1.7147 -2.6360  0.9992
  354SOL     OW 1060   0.250   1.401   2.879  0.0960  0.2209  0.1865
  354SOL    HW1 1061   0.237   1.459   2.795  1.6026 -0.4537  4.7048
  354SOL    HW2 1062   0.324   1.328   2.869 -0.5364 -1.5233  2.0445
  355SOL     OW 1063   0.528   1.523   0.514 -0.4927  0.3817 -0.0433
  355SOL    HW1 1064   0.547   1.625   0.530  2.0650 -1.3053  2.1375
  355SOL    HW2 1065   0.605   1.462   0.548 -1.3079  0.0490 -1.7744
  356SOL     OW 1066   0.949   0.304   2.095  0.4154 -0.4734 -0.0460
  356SOL    HW1 1067   0.992   0.398   2.071 -2.3257 -1.5283  0.2138
  356SOL    HW2 1068   0.909   0.248   2.016  0.8315 -0.7470 -1.5706
  357SOL     OW 1069   1.031   1.310   0.377  0.0567 -0.1501  0.4230
  357SOL    HW1 1070   0.955   1.271   0.320  0.0952  2.8836  3.7267
  357SOL    HW2 1071   1.028   1.262   0.466 -1.4335  1.0461 -2.0444
  358SOL     OW 1072   1.668   1.503   0.478  0.7018 -0.1132  0.4209
  358SOL    HW1 1073   1.621   1.474   0.566  2.2619  1.3172  0.5396
  358SOL    HW2 1074   1.620   1.473   0.391  2.1901 -0.5668 -0.6134
  359SOL     OW 1075   1.576   2.720   0.072  0.2355  0.2124 -0.4408
  359SOL    HW1 1076   1.570   2.632   0.021 -1.4509  2.2703  1.9989
  359SOL    HW2 1077   1.514   2.796   0.034  0.1305  3.1998 -0.3347
  360SOL     OW 1078   0.861   0.625   0.531  0.1210 -0.1273  0.0201
  360SOL    HW1 1079   0.791   0.628   0.608  1.2839  0.2501  2.1559
  360SOL    HW2 1080   0.882   0.528   0.507  0.8389  1.8459 -0.1069
  361SOL     OW 1081   1.240   1.385   0.684 -0.0640  0.0305  0.7487
  361SOL    HW1 1082   1.272   1.381   0.784 -1.2624 -0.2634 -0.6140
  361SOL    HW2 1083   1.187   1.468   0.661 -1.0337  0.5194 -2.0250
  362SOL     OW 1084   1.370   1.752   0.767 -0.5846  0.0549  0.0234
  362SOL    HW1 1085   1.397   1.700   0.854  0.4811 -0.2028  1.9763
  362SOL    HW2 1086   1.444   1.815   0.737 -2.6683 -1.4712 -0.6808
  363SOL     OW 1087   1.217   1.272   2.056 -0.3758 -0.3214  0.2156
  363SOL    HW1 1088   1.264   1.343   2.119  2.5402 -1.1962  0.5620
  363SOL    HW2 1089   1.238   1.296   1.957 -2.5965 -0.1870 -0.4497
  364SOL     OW 1090   0.549   2.342   1.927  0.2741 -0.3060  0.5958
  364SOL    HW1 1091   0.469   2.407   1.934  1.1665 -2.1792  0.5806
  364SOL    HW2 1092   0.619   2.373   1.855 -1.1856  0.6754 -1.3778
  365SOL     OW 1093   1.050   1.922   1.401 -0.2936 -0.6263 -0.1972
  365SOL    HW1 1094   0.950   1.925   1.430  0.6997  1.3838  0.2157
  365SOL    HW2 1095   1.069   1.860   1.322 -1.4582 -0.7611  2.9803
  366SOL     OW 1096   2.812   2.053   0.497 -0.3742  0.0982  0.2273
  366SOL    HW1 1097   2.724   2.001   0.489  1.5841  0.8839 -2.0857
  366SOL    HW2 1098   2.879   2.021   0.421  2.0549  0.5625 -1.1904
  367SOL     OW 1099   0.814   1.163   0.161  0.1210 -0.0725  0.7594
  367SOL    HW1 1100   0.831   1.062   0.184  3.7544 -0.6307  0.5480
  367SOL    HW2 1101   0.832   1.172   0.058 -0.3731 -0.2395 -0.9949
  368SOL     OW 1102   1.519   0.581   0.729  0.1830  0.3269 -0.0308
  368SOL    HW1 1103   1.446   0.607   0.662  1.2698 -0.7492  1.2534
  368SOL    HW2 1104   1.610   0.622   0.703  0.1923 -1.3123  2.4343
  369SOL     OW 1105   0.248   1.726   0.042 -0.5000 -0.9260 -0.0012
  369SOL    HW1 1106   0.271   1.818   0.078  1.9176  1.7208 -1.8985
  369SOL    HW2 1107   0.193   1.668   0.108  0.4996 -0.1994  0.8938
  370SOL     OW 1108   0.422   2.113   1.049  0.6263 -0.1684 -0.1780
  370SOL    HW1 1109   0.450   2.210   1.017  0.5136  1.4943  1.4736
  370SOL    HW2 1110   0.327   2.094   1.013  1.1650  0.6132  0.8512
  371SOL     OW 1111   2.887   2.234   2.731 -0.1795 -0.1185 -0.3434
  371SOL    HW1 1112   2.867   2.216   2.828  1.3962  1.0422 -0.4414
  371SOL    HW2 1113   2.987   2.272   2.714  0.2699  3.2374  0.3162
  372SOL     OW 1114   1.055   1.921   0.974  0.7232  0.5728  0.3367
  372SOL    HW1 1115   0.967   1.930   0.919  1.0318  0.0147  1.5565
  372SOL    HW2 1116   1.147   1.952   0.928  2.9697  1.2749  2.2013
  373SOL     OW 1117   1.972   1.994   0.893  0.0063 -0.2649  0.1178
  373SOL    HW1 1118   2.036   1.978   0.975  0.1655 -1.0989  1.9674
  373SOL    HW2 1119   1.878   2.028   0.921 -1.4444  0.8383  0.9974
  374SOL     OW 1120   1.797   0.466   0.552 -0.6851  0.1040 -0.0662
  374SOL    HW1 1121   1.804   0.405   0.630 -3.7111 -1.1168 -1.7513
  374SOL    HW2 1122   1.900   0.478   0.518  3.3992  0.7720 -0.3245
  375SOL     OW 1123   2.367   2.158   1.146 -0.1534 -0.3613  0.2897
  375SOL    HW1 1124   2.441   2.148   1.071  4.3440  0.5397 -1.2319
  375SOL    HW2 1125   2.406   2.131   1.241 -1.3045 -1.5691  1.8219
  376SOL     OW 1126   3.007   0.612   1.413 -0.3250  0.1567  0.1611
  376SOL    HW1 1127   3.042   0.620   1.510 -1.0789  0.8528  0.1354
  376SOL    HW2 1128   2.906   0.641   1.409 -0.3239  0.6807 -0.1666
  377SOL     OW 1129   2.262   2.829   0.353 -0.4224  0.1736  0.1663
  377SOL    HW1 1130   2.247   2.928   0.340  1.3304  0.4868  0.3233
  377SOL    HW2 1131   2.362   2.815   0.377  1.2444  0.9643 -0.1164
  378SOL     OW 1132   1.774   1.888   2.652 -0.6100 -0.7108  0.4599
  378SOL    HW1 1133   1.698   1.847   2.700  0.3123  0.4239 -0.8008
  378SOL    HW2 1134   1.812   1.838   2.573  0.8228 -2.9734  2.7106
  379SOL     OW 1135   0.877   0.120   2.758 -0.0879  0.6450 -0.0447
  379SOL    HW1 1136   0.842   0.029   2.717  1.0002  3.1517 -1.7403
  379SOL    HW2 1137   0.815   0.202   2.739  0.0229  3.3434  1.7800
  380SOL     OW 1138   1.520   1.159   0.551 -0.3013  0.2208 -0.4962
  380SOL    HW1 1139   1.416   1.160   0.563  0.7311 -2.8907 -1.2815
  380SOL    HW2 1140   1.559   1.069   0.572  0.4828  3.7770 -1.5760
  381SOL     OW 1141   1.293   1.190   1.550 -0.1004  0.2383  0.3517
  381SOL    HW1 1142   1.337   1.228   1.467  1.3077 -1.4321  0.5420
  381SOL    HW2 1143   1.363   1.181   1.629  2.2494 -2.6661  0.1577
  382SOL     OW 1144   1.767   0.799   0.268 -0.1358 -0.0340  0.1776
  382SOL    HW1 1145   1.816   0.788   0.179 -0.3565  0.5673  0.8328
  382SOL    HW2 1146   1.834   0.794   0.348  1.3499  2.3058 -1.2466
  383SOL     OW 1147   2.568   0.966   1.507  0.2251 -0.2821 -0.0203
  383SOL    HW1 1148   2.477   0.917   1.502 -0.7568  1.4336  0.7233
  383SOL    HW2 1149   2.647   0.927   1.455 -2.1945 -1.2737  3.1939
  384SOL     OW 1150   0.889   2.292   0.053  0.1485  0.1313 -0.3470
  384SOL    HW1 1151   0.849   2.371   0.103  3.0584 -2.1060  1.2199
  384SOL    HW2 1152   0.917   2.220   0.126  2.4676 -0.5075  1.0133
  385SOL     OW 1153   3.013   2.001   1.790  0.2682 -0.2403  0.1454
  385SOL    HW1 1154   3.071   2.086   1.770 -0.3434 -0.5718  0.9466
  385SOL    HW2 1155   3.041   1.904   1.758  0.0576 -3.3674  2.2657
  386SOL     OW 1156   0.432   1.141   0.484  0.2036  0.3281  0.6601
  386SOL    HW1 1157   0.470   1.041   0.472  0.8322  0.7365 -2.9277
  386SOL    HW2 1158   0.384   1.176   0.402 -1.1500  1.8683  1.0425
  387SOL     OW 1159   1.004   0.303   1.644  0.0690  0.1291  0.1228
  387SOL    HW1 1160   1.056   0.388   1.632  0.5661  1.6596 -0.5388
  387SOL    HW2 1161   1.000   0.256   1.552 -1.5603  0.4699  2.5642
  388SOL     OW 1162   1.207   2.626   1.787 -0.0965  0.5849  0.1841
  388SOL    HW1 1163   1.220   2.613   1.682  3.5009 -1.8717 -0.1405
  388SOL    HW2 1164   1.266   2.558   1.843  2.1331  1.3410 -3.1752
  389SOL     OW 1165   0.234   3.092   1.135  0.0746 -0.4473 -0.2810
  389SOL    HW1 1166   0.179   3.080   1.221  2.5046 -3.4556  0.3231
  389SOL    HW2 1167   0.287   3.004   1.105  0.9041  1.7390 -2.0100
  390SOL     OW 1168   1.056   0.902   1.233 -0.2167  0.5109  0.0644
  390SOL    HW1 1169   1.155   0.883   1.265  2.0815  1.4744  0.1571
  390SOL    HW2 1170   0.997   0.909   1.321  0.0011  2.3709  0.1296
  391SOL     OW 1171   2.082   1.119   1.049 -0.1976 -0.0569 -0.3096
  391SOL    HW1 1172   1.990   1.076   1.056 -2.3120 -0.6325  0.0895
  391SOL    HW2 1173   2.128   1.070   0.966  0.9116 -2.8114 -1.1135
  392SOL     OW 1174   0.895   2.700   3.049  0.1502 -0.4063 -0.2582
  392SOL    HW1 1175   0.811   2.666   3.104 -2.9489  1.6488  0.4408
  392SOL    HW2 1176   0.963   2.758   3.105  1.4418 -0.1854  2.1641
  393SOL     OW 1177   0.379   0.539   2.105 -0.0508 -0.8824  0.1610
  393SOL    HW1 1178   0.277   0.525   2.101  0.9546  0.4247 -0.8521
  393SOL    HW2 1179   0.420   0.541   2.008  1.3465 -0.6418  0.1244
  394SOL     OW 1180   2.907   1.845   2.790  0.6748  0.2690 -0.4129
  394SOL    HW1 1181   2.971   1.857   2.868  1.0715 -4.4934 -0.3728
  394SOL    HW2 1182   2.943   1.872   2.695  1.6154  1.7112 -1.5566
  395SOL     OW 1183   1.583   1.933   0.730  0.3441  0.0857 -0.2410
  395SOL    HW1 1184   1.649   1.870   0.685  1.2714  2.7929 -1.3306
  395SOL    HW2 1185   1.624   1.990   0.804 -1.0451 -3.8384  0.3550
  396SOL     OW 1186   2.775   2.063   1.318 -0.4053  0.3740  0.1153
  396SOL    HW1 1187   2.789   2.077   1.419  0.8889  1.5012 -0.9168
  396SOL    HW2 1188   2.676   2.083   1.289 -1.8825 -2.6605  0.2629
  397SOL     OW 1189   1.026   2.094   0.631  0.2045  0.2277 -0.3876
  397SOL    HW1 1190   0.946   2.050   0.592  0.5671  0.2208  2.8711
  397SOL    HW2 1191   1.008   2.192   0.674 -1.9441  2.1223 -0.6491
  398SOL     OW 1192   2.164   0.094   1.083  0.7949  0.2107  0.2219
  398SOL    HW1 1193   2.134  -0.008   1.098  0.4541 -1.0775 -1.6233
  398SOL    HW2 1194   2.085   0.155   1.071  2.3357 -1.9589  0.3492
  399SOL     OW 1195   2.954   2.527   2.712 -0.6236  0.0577  0.2049
  399SOL    HW1 1196   2.892   2.502   2.632  0.4707 -0.2310  1.1379
  399SOL    HW2 1197   2.923   2.480   2.800 -2.2757 -1.9078  2.5688
  400SOL     OW 1198   0.830   1.594   1.292 -0.5054 -0.2806  0.0995
  400SOL    HW1 1199   0.763   1.617   1.367 -3.0480 -0.6322 -1.3963
  400SOL    HW2 1200   0.841   1.680   1.231 -0.2087  2.2277 -0.4120
  401SOL     OW 1201   1.811   0.137   1.265  0.1703 -0.0744 -0.1227
  401SOL    HW1 1202   1.869   0.184   1.339 -0.4439 -0.2971 -1.4026
  401SOL    HW2 1203   1.715   0.126   1.306 -1.8545 -0.9310 -0.1302
  402SOL     OW 1204   1.317   0.135   3.048 -0.0205  0.2662  0.1194
  402SOL    HW1 1205   1.412   0.137   2.995  3.4334  1.0388  0.4562
  402SOL    HW2 1206   1.283   0.224   3.086 -2.1937  1.8185 -2.5023
  403SOL     OW 1207   2.334   1.804   0.952  0.0546  0.1047 -0.3367
  403SOL    HW1 1208   2.428   1.810   0.992  1.3076  1.4314  0.1616
  403SOL    HW2 1209   2.274   1.876   0.999  0.2172 -1.0383 -0.6427
  404SOL     OW 1210   0.178   2.502   2.842 -0.6362  0.1555  0.4753
  404SOL    HW1 1211   0.268   2.457   2.816 -0.2144  0.5289 -0.2628
  404SOL    HW2 1212   0.166   2.603   2.828 -1.7886 -1.9484  3.1717
  405SOL     OW 1213   0.235   2.561   0.531  0.1089 -0.0034 -0.1242
  405SOL    HW1 1214   0.163   2.585   0.462  1.8768 -0.1963  2.2232
  405SOL    HW2 1215   0.300   2.637   0.556 -2.7842 -1.2778 -1.7189
  406SOL     OW 1216   0.005   1.523   2.970 -0.6317  0.3467 -0.3268
  406SOL    HW1 1217   0.079   1.467   2.918  0.5089 -3.9663  0.6003
  406SOL    HW2 1218   0.027   1.526   3.072 -0.7864  0.1040 -0.3108
  407SOL     OW 1219   1.510   0.902   0.916  0.1297 -0.3507  0.4212
  407SOL    HW1 1220   1.455   0.890   0.832  1.5086  1.2220  0.0111
  407SOL    HW2 1221   1.485   0.989   0.967 -1.1054 -2.0586 -1.9521
  408SOL     OW 1222   1.529   2.406   0.964  0.5937  0.1614 -0.1627
  408SOL    HW1 1223   1.588   2.414   0.879  0.7779 -1.9544  0.5569
  408SOL    HW2 1224   1.539   2.484   1.039  2.1031  0.8058  4.3940
  409SOL     OW 1225   0.678   0.853   0.674  0.3965  0.1143  0.4555
  409SOL    HW1 1226   0.596   0.884   0.620 -1.5533 -0.7801  0.2504
  409SOL    HW2 1227   0.681   0.748   0.689 -0.5128 -1.2487  1.7797
  410SOL     OW 1228   1.285   2.025   1.484 -0.6821  0.0613  0.0008
  410SOL    HW1 1229   1.310   2.082   1.574  1.6375 -2.4959  2.0284
  410SOL    HW2 1230   1.188   1.997   1.462 -0.1421  0.5461 -2.8911
  411SOL     OW 1231   2.382   1.828   0.017  0.1460 -0.3681 -0.5981
  411SOL    HW1 1232   2.305   1.871  -0.039  0.9321  2.2794  0.3975
  411SOL    HW2 1233   2.459   1.805  -0.045 -2.1727 -0.2932 -0.5938
  412SOL     OW 1234   1.503   2.404   2.203 -0.5621  0.1398  0.2651
  412SOL    HW1 1235   1.557   2.427   2.287 -0.7851  1.4571 -0.4909
  412SOL    HW2 1236   1.405   2.389   2.238  1.4143  1.6392 -0.0082
  413SOL     OW 1237   3.026   0.254   2.980  0.4406 -0.2955  0.1191
  413SOL    HW1 1238   2.992   0.164   3.020  0.1936 -2.0465  0.9818
  413SOL    HW2 1239   3.132   0.263   2.988 -0.3157  1.4561 -1.7081
  414SOL     OW 1240   1.769   1.386   1.344 -0.3072  0.0106  0.6012
  414SOL    HW1 1241   1.717   1.471   1.371 -1.1097 -3.0449  2.3467
  414SOL    HW2 1242   1.732   1.348   1.257  0.5619  0.6896 -0.0130
  415SOL     OW 1243   0.363   2.270   0.648 -0.2716  0.1498 -0.6320
  415SOL    HW1 1244   0.330   2.353   0.596  0.2677 -3.5855  1.5061
  415SOL    HW2 1245   0.301   2.187   0.626  0.9452 -0.9318 -1.0382
  416SOL     OW 1246   0.374   1.011   1.073  0.0540 -0.0055  0.6669
  416SOL    HW1 1247   0.337   0.953   0.991  0.1025 -0.4030 -0.6647
  416SOL    HW2 1248   0.458   1.058   1.041 -1.6634  0.6624  0.4564
  417SOL     OW 1249   2.125   2.355   1.914 -0.3150  0.3854  0.1682
  417SOL    HW1 1250   2.130   2.257   1.900 -1.4789  2.7064 -3.2224
  417SOL    HW2 1251   2.042   2.380   1.967  1.4315 -1.7037  2.4774
  418SOL     OW 1252   1.140   0.503   1.317 -0.0720  0.6059 -0.2724
  418SOL    HW1 1253   1.047   0.503   1.277  1.3386  0.6309  0.9124
  418SOL    HW2 1254   1.208   0.447   1.268  2.6580 -1.4040 -1.2571
  419SOL     OW 1255   0.996   0.378   3.045  0.4072 -0.1483  0.2574
  419SOL    HW1 1256   1.026   0.422   2.957  2.7035  2.4431  2.6042
  419SOL    HW2 1257   0.949   0.287   3.030  1.2609  2.0537  0.9073
  420SOL     OW 1258   0.221   2.252   0.339  0.2570  0.0969 -0.1701
  420SOL    HW1 1259   0.163   2.210   0.258 -0.7496  0.4423 -0.2772
  420SOL    HW2 1260   0.155   2.292   0.408 -1.2085 -0.8070  0.6643
  421SOL     OW 1261   0.329   3.091   0.669  0.3303 -0.0929  0.0768
  421SOL    HW1 1262   0.299   2.995   0.685  3.2838 -0.1083  1.2620
  421SOL    HW2 1263   0.430   3.103   0.658  0.6673 -2.3916  0.5213
  422SOL     OW 1264   0.923   2.497   1.030  0.2861  0.2729 -0.0210
  422SOL    HW1 1265   0.940   2.565   0.958 -3.1884 -1.7841 -1.7369
  422SOL    HW2 1266   0.982   2.503   1.116 -0.6849  0.0190  1.4898
  423SOL     OW 1267   0.050   0.715   1.205  0.1247 -0.2803  0.3557
  423SOL    HW1 1268  -0.004   0.672   1.283  1.0570 -0.5432 -1.7083
  423SOL    HW2 1269  -0.006   0.773   1.134 -1.1579  0.4031 -2.2530
  424SOL     OW 1270   1.008   2.161   2.098 -0.5636  0.0248  0.4720
  424SOL    HW1 1271   0.998   2.256   2.063 -2.3526 -0.6473 -1.4232
  424SOL    HW2 1272   0.956   2.147   2.185 -0.5137 -0.1305 -1.0153
  425SOL     OW 1273   1.994   1.417   1.046  0.1862  0.5631 -0.3686
  425SOL    HW1 1274   2.032   1.322   1.025 -0.2896 -0.3873 -3.7707
  425SOL    HW2 1275   2.040   1.496   1.003 -0.6641 -2.2947 -0.7595
  426SOL     OW 1276   1.535   1.551   1.396 -0.3101  0.0612  0.7126
  426SOL    HW1 1277   1.468   1.620   1.359  1.2636  1.0877  1.8462
  426SOL    HW2 1278   1.513   1.512   1.485  0.5649 -2.0876 -0.4586
  427SOL     OW 1279   1.906   2.373   2.077  0.0738  0.5260  0.1807
  427SOL    HW1 1280   1.960   2.299   2.125 -0.5937  3.6481  0.9368
  427SOL    HW2 1281   1.918   2.465   2.129 -2.3862  0.9208  3.0417
  428SOL     OW 1282   0.891   3.022   0.128 -0.3441 -0.2637  0.2144
  428SOL    HW1 1283   0.929   3.106   0.170 -0.0244 -0.3476  0.4409
  428SOL    HW2 1284   0.949   2.941   0.146 -0.9358  3.1277 -4.5729
  429SOL     OW 1285   1.318   0.074   0.218  0.0440  0.2949  0.4718
  429SOL    HW1 1286   1.404   0.118   0.256 -0.4934 -0.6202 -1.8949
  429SOL    HW2 1287   1.330   0.057   0.112 -0.2874  0.5128 -2.7939
  430SOL     OW 1288   2.804   1.503   0.348 -0.0115 -0.2113 -0.2832
  430SOL    HW1 1289   2.788   1.582   0.286  0.1237 -3.0383  1.5686
  430SOL    HW2 1290   2.808   1.536   0.449  1.0092 -0.9054  1.5111
  431SOL     OW 1291   2.139   1.605   0.903 -0.6692  0.6278  0.4261
  431SOL    HW1 1292   2.213   1.676   0.918  0.3474  0.7680  0.8964
  431SOL    HW2 1293   2.052   1.649   0.865  0.8461  2.1364 -3.2323
  432SOL     OW 1294   2.914   2.275   1.219 -0.3384 -0.7604 -0.4508
  432SOL    HW1 1295   2.906   2.175   1.247 -0.9200 -2.8332 -0.3077
  432SOL    HW2 1296   2.959   2.335   1.294  2.3934  4.3129  1.4631
  433SOL     OW 1297   1.827   0.360   0.805  0.2803  0.0171  0.5304
  433SOL    HW1 1298   1.746   0.382   0.864 -0.0457 -3.0625 -2.1583
  433SOL    HW2 1299   1.903   0.313   0.856 -1.9998 -1.3854  4.3468
  434SOL     OW 1300   1.513   0.293   0.708  0.1303  0.4696  0.4381
  434SOL    HW1 1301   1.494   0.392   0.675 -2.0194 -2.5340  1.4339
  434SOL    HW2 1302   1.541   0.289   0.805 -0.0094 -0.4870  1.3163
  435SOL     OW 1303   1.430   1.468   2.092 -0.3070 -0.4716  0.0302
  435SOL    HW1 1304   1.409   1.492   2.190 -1.6621 -2.3275 -0.3429
  435SOL    HW2 1305   1.381   1.525   2.022  1.9314 -2.9449  1.0404
  436SOL     OW 1306   1.656   2.654   2.433  0.0777  0.1570  0.1633
  436SOL    HW1 1307   1.660   2.741   2.493  0.0832 -0.8235 -2.6119
  436SOL    HW2 1308   1.596   2.581   2.474 -2.1855  1.7976 -0.7002
  437SOL     OW 1309   1.086   2.921   0.924  0.2995 -0.4328  0.4937
  437SOL    HW1 1310   1.040   3.005   0.884 -3.0136 -0.5198 -1.5379
  437SOL    HW2 1311   1.125   2.932   1.017 -1.4114 -2.3969  1.6159
  438SOL     OW 1312   1.091   2.536   1.282  0.3772  0.2272 -0.3646
  438SOL    HW1 1313   1.098   2.583   1.379 -2.4405 -0.5661  1.7069
  438SOL    HW2 1314   1.064   2.437   1.306  1.5853  1.3811  1.3289
  439SOL     OW 1315   0.738   1.755   1.030  0.4019  1.0518 -0.2599
  439SOL    HW1 1316   0.711   1.846   0.983 -0.0539  2.3239 -1.3396
  439SOL    HW2 1317   0.657   1.721   1.090  0.7047 -3.8943 -0.4360
  440SOL     OW 1318   1.028   2.435   2.034 -0.1534  0.9496 -0.0987
  440SOL    HW1 1319   0.993   2.497   1.959 -1.8951 -0.8390  0.7092
  440SOL    HW2 1320   1.133   2.425   2.033 -1.4887  1.0573 -1.7253
  441SOL     OW 1321   0.349   2.697   1.424  0.1815  0.6332  0.6125
  441SOL    HW1 1322   0.417   2.615   1.437  3.9546 -0.4766 -1.2525
  441SOL    HW2 1323   0.356   2.746   1.328  1.1172  1.3534  0.3266
  442SOL     OW 1324   2.229   0.635   2.603 -0.1223 -0.1008 -0.4794
  442SOL    HW1 1325   2.219   0.533   2.583 -0.5760  0.0173  0.1784
  442SOL    HW2 1326   2.153   0.690   2.563  3.1722  1.0169  1.4046
  443SOL     OW 1327   1.267   2.671   2.220 -0.0847 -0.0684 -0.4805
  443SOL    HW1 1328   1.294   2.575   2.252 -2.7043  1.1814 -1.7113
  443SOL    HW2 1329   1.194   2.717   2.279  3.0744  3.4788  0.5043
  444SOL     OW 1330   1.031   1.227   1.497  0.1417 -0.1960 -0.5198
  444SOL    HW1 1331   1.124   1.215   1.543  1.6006 -2.9446 -1.0332
  444SOL    HW2 1332   0.970   1.290   1.542  0.2382  2.0236  2.1408
  445SOL     OW 1333   0.098   2.304   1.973 -0.9055  0.0092 -0.7163
  445SOL    HW1 1334   0.090   2.264   1.880 -0.4543 -0.6204  0.1499
  445SOL    HW2 1335   0.004   2.295   2.022 -5.0545  3.6617 -1.3181
  446SOL     OW 1336   0.155   1.947   2.381  0.5928 -0.2013  0.0560
  446SOL    HW1 1337   0.102   2.038   2.390 -1.7906 -0.6169 -1.0417
  446SOL    HW2 1338   0.125   1.893   2.301 -1.4528  0.0141 -1.7755
  447SOL     OW 1339   1.259   1.684   1.966 -0.1533  0.1618 -0.2884
  447SOL    HW1 1340   1.169   1.733   1.965  0.4259  0.3803 -1.1819
  447SOL    HW2 1341   1.346   1.742   1.975 -0.9195  1.0014 -1.0972
  448SOL     OW 1342   0.177   1.436   2.030 -0.2570 -0.4318 -0.4254
  448SOL    HW1 1343   0.166   1.523   1.981 -1.2453 -1.7057 -1.0722
  448SOL    HW2 1344   0.114   1.423   2.116 -1.3931 -0.8027  4.0484
  449SOL     OW 1345   1.851   2.922   0.820 -0.3055  0.1100  0.7193
  449SOL    HW1 1346   1.849   2.940   0.924 -0.0576  0.7026 -0.3502
  449SOL    HW2 1347   1.910   2.842   0.794  1.3942 -2.9059  2.0039
  450SOL     OW 1348   2.247   1.473   0.688 -0.2626 -0.3806 -0.4323
  450SOL    HW1 1349   2.217   1.532   0.765  3.2266  0.0280  0.5146
  450SOL    HW2 1350   2.233   1.515   0.592  1.5772 -0.2664 -2.8695
  451SOL     OW 1351   1.382   3.043   1.504  0.4553 -0.0922  0.1880
  451SOL    HW1 1352   1.299   3.108   1.520 -0.4329  0.4614  0.9872
  451SOL    HW2 1353   1.405   2.998   1.586 -2.2235  2.1939 -0.0832
  452SOL     OW 1354   2.654   2.299   2.297  0.0093 -0.0368 -0.1426
  452SOL    HW1 1355   2.599   2.385   2.300 -0.9441 -0.1061 -0.5473
  452SOL    HW2 1356   2.666   2.255   2.392 -1.6770  0.7572 -0.6690
  453SOL     OW 1357   2.467   2.661   3.097  0.0823  0.0437  0.5629
  453SOL    HW1 1358   2.373   2.708   3.123 -1.3991  2.9945  1.8940
  453SOL    HW2 1359   2.458   2.600   3.013  1.0624 -1.9590  4.1870
  454SOL     OW 1360   0.916   1.137   2.019  0.3886 -0.6242  0.1092
  454SOL    HW1 1361   0.930   1.109   1.920  0.8950  0.9653 -1.7607
  454SOL    HW2 1362   0.966   1.222   2.043 -1.8387  2.0933 -0.6307
  455SOL     OW 1363   0.667   2.677   2.835 -0.2063  0.3792 -0.1137
  455SOL    HW1 1364   0.771   2.708   2.835  1.7943 -1.3128  1.7418
  455SOL    HW2 1365   0.655   2.586   2.889  2.2469 -1.7841  2.1291
  456SOL     OW 1366   0.371   1.907   0.224  0.4124 -0.4768  0.0259
  456SOL    HW1 1367   0.473   1.910   0.204 -0.4805 -0.7511  0.2411
  456SOL    HW2 1368   0.326   1.993   0.186  2.1327 -0.0750  2.8564
  457SOL     OW 1369   0.403   2.786   0.650 -0.3969  0.1721 -0.1838
  457SOL    HW1 1370   0.413   2.851   0.563 -2.5800  0.9678 -1.6050
  457SOL    HW2 1371   0.490   2.743   0.685 -0.4225 -1.7486  0.2688
  458SOL     OW 1372   2.821   0.031   1.216 -0.2331  0.2611 -0.1871
  458SOL    HW1 1373   2.883   0.109   1.196 -0.2857  0.7652 -1.7202
  458SOL    HW2 1374   2.828  -0.049   1.151 -1.8554 -2.3041  3.2204
  459SOL     OW 1375   2.203   2.534   0.798 -0.6536  0.5317  0.3082
  459SOL    HW1 1376   2.272   2.597   0.838 -0.0505  0.9540 -0.8148
  459SOL    HW2 1377   2.236   2.439   0.792  0.6139  1.4082  0.3415
  460SOL     OW 1378   1.209   2.060   2.788  0.4635 -0.2413 -0.1692
  460SOL    HW1 1379   1.240   2.068   2.690  0.0017 -3.0522 -0.3078
  460SOL    HW2 1380   1.211   1.964   2.827  1.2724  0.3654  1.8674
  461SOL     OW 1381   0.432   2.093   2.732  0.8117  0.2901  0.0343
  461SOL    HW1 1382   0.391   2.014   2.686 -0.1225 -0.1324  1.1881
  461SOL    HW2 1383   0.476   2.074   2.824  0.1263 -0.8880 -0.3795
  462SOL     OW 1384   0.952   1.040   1.776  0.6214  0.5342  0.3058
  462SOL    HW1 1385   0.997   0.981   1.702 -2.0898 -2.2588 -0.7811
  462SOL    HW2 1386   0.881   1.107   1.733 -1.5966  1.1224 -0.4971
  463SOL     OW 1387   0.458   0.879   0.494 -0.0825  0.2923  0.1663
  463SOL    HW1 1388   0.481   0.780   0.469 -0.4215 -2.6509 -0.6141
  463SOL    HW2 1389   0.355   0.899   0.469 -0.0973  1.0332 -3.4165
  464SOL     OW 1390   0.604   2.333   2.195  0.3361  0.1437 -0.1431
  464SOL    HW1 1391   0.547   2.387   2.260 -0.7666  2.7955 -2.6717
  464SOL    HW2 1392   0.563   2.327   2.103  2.2320 -3.2428  0.4388
  465SOL     OW 1393   0.257   0.902   0.841  0.0926  0.1057 -0.1829
  465SOL    HW1 1394   0.174   0.941   0.793 -1.2367  1.8126 -3.3064
  465SOL    HW2 1395   0.277   0.807   0.809  1.2875 -1.7021  1.4227
  466SOL     OW 1396   1.375   1.143   1.019  0.0619  0.1812  0.5864
  466SOL    HW1 1397   1.403   1.236   0.982  1.2357  1.5835  0.7969
  466SOL    HW2 1398   1.275   1.147   1.045 -0.7908  1.4092 -0.2936
  467SOL     OW 1399   0.595   0.413   2.471  0.6580  0.2917 -0.1152
  467SOL    HW1 1400   0.537   0.496   2.502 -1.0151  2.3943 -0.5089
  467SOL    HW2 1401   0.631   0.358   2.552  2.0908  0.4878 -1.4717
  468SOL     OW 1402   0.399   2.264   1.611 -0.3505  0.1966 -0.0876
  468SOL    HW1 1403   0.493   2.307   1.629 -0.1928 -1.3530  0.8257
  468SOL    HW2 1404   0.384   2.257   1.510 -2.5337  0.8801 -0.0683
  469SOL     OW 1405   1.438   1.306   1.314  0.6554  0.0619  0.4741
  469SOL    HW1 1406   1.487   1.246   1.243  0.0375  0.4203  2.5940
  469SOL    HW2 1407   1.493   1.382   1.344 -1.1042  0.5824  2.6103
  470SOL     OW 1408   3.013   1.801   0.716  0.0199  0.7235 -0.2416
  470SOL    HW1 1409   3.095   1.865   0.689  0.9487  0.7971 -2.0397
  470SOL    HW2 1410   3.030   1.739   0.797 -0.8637 -0.6567  2.3965
  471SOL     OW 1411   2.578   1.368   2.159  0.3184  0.0737 -0.0372
  471SOL    HW1 1412   2.558   1.277   2.199  0.8986 -0.2128 -1.5360
  471SOL    HW2 1413   2.658   1.416   2.204  1.3561  0.8342 -1.0622
  472SOL     OW 1414   1.152   2.393   0.087  0.4509 -0.5338  0.6218
  472SOL    HW1 1415   1.226   2.387   0.161 -0.1036 -0.0622  1.2157
  472SOL    HW2 1416   1.072   2.332   0.099  1.1722  0.4128 -0.4527
  473SOL     OW 1417   1.103   1.486   1.029 -0.3451  0.0236  0.0799
  473SOL    HW1 1418   1.004   1.478   1.002  0.9328  2.5047 -2.3430
  473SOL    HW2 1419   1.125   1.436   1.117 -0.5172 -2.8133  0.9034
  474SOL     OW 1420   0.668   1.267   0.555 -0.1842 -0.4805  0.5475
  474SOL    HW1 1421   0.581   1.219   0.516 -0.9848 -0.5608  1.1404
  474SOL    HW2 1422   0.741   1.194   0.567  0.5340 -1.4232 -0.0273
  475SOL     OW 1423   2.819   0.013   0.799  0.6901  0.2348 -0.1048
  475SOL    HW1 1424   2.907   0.068   0.800 -0.6665  0.5038  2.2361
  475SOL    HW2 1425   2.736   0.058   0.841  1.6484 -0.6194 -0.5215
  476SOL     OW 1426   0.994   2.989   1.769 -0.1673 -0.6150  0.1023
  476SOL    HW1 1427   1.068   3.051   1.804  1.9970  0.0920  1.3370
  476SOL    HW2 1428   0.996   2.979   1.665  0.9684 -0.1027 -0.1087
  477SOL     OW 1429   1.470   0.319   2.408 -0.0397 -0.1903  0.3945
  477SOL    HW1 1430   1.447   0.318   2.509 -0.1022  2.9994 -0.5019
  477SOL    HW2 1431   1.561   0.271   2.386  1.2159 -0.8629  0.8584
  478SOL     OW 1432   2.217   1.864   0.256  0.4525 -0.0652 -0.1327
  478SOL    HW1 1433   2.145   1.791   0.281 -2.3375 -2.6863  0.9250
  478SOL    HW2 1434   2.281   1.822   0.187 -2.7666 -1.7034  2.7593
  479SOL     OW 1435   1.258   0.960   2.937  0.2363  0.0177 -0.3614
  479SOL    HW1 1436   1.320   0.989   2.858 -0.1855 -1.5016  0.1457
  479SOL    HW2 1437   1.185   0.891   2.906 -0.5761 -0.1013  1.1758
  480SOL     OW 1438   2.639   2.342   0.379 -1.1349 -0.0828 -0.2504
  480SOL    HW1 1439   2.609   2.266   0.442  0.1149  2.0866 -0.8069
  480SOL    HW2 1440   2.563   2.366   0.311 -2.4494  0.1128  1.1877
  481SOL     OW 1441   1.010   1.195   0.813 -0.4175 -0.3415 -0.0754
  481SOL    HW1 1442   0.987   1.283   0.771 -1.8622 -1.1240  0.6080
  481SOL    HW2 1443   1.021   1.199   0.916 -0.4396 -2.3465 -2.9734
  482SOL     OW 1444   1.564   0.320   1.987 -0.2207  0.2316 -0.0961
  482SOL    HW1 1445   1.573   0.418   1.957 -1.4653  1.3788  2.8470
  482SOL    HW2 1446   1.655   0.270   2.000 -2.4359  0.4243 -0.2942
  483SOL     OW 1447   0.167   2.326   1.240 -0.6001 -0.1681  0.3426
  483SOL    HW1 1448   0.109   2.394   1.293 -2.0342  0.5382 -1.6757
  483SOL    HW2 1449   0.184   2.347   1.137 -0.5179  2.0811  0.1149
  484SOL     OW 1450   1.777   1.085   1.361  0.1267  0.1865  0.1636
  484SOL    HW1 1451   1.830   1.013   1.412  0.5306  2.2434 -1.2025
  484SOL    HW2 1452   1.785   1.184   1.392  1.3100  1.6972 -0.0721
  485SOL     OW 1453   0.777   0.754   1.780  0.0983  0.1686 -0.4356
  485SOL    HW1 1454   0.752   0.776   1.679  0.1373  0.8584 -3.3225
  485SOL    HW2 1455   0.872   0.786   1.801  0.7043  1.6381  1.9943
  486SOL     OW 1456   0.844   1.850   2.428  0.5233  0.0249  0.2008
  486SOL    HW1 1457   0.881   1.878   2.523 -1.7731  1.2406 -1.5357
  486SOL    HW2 1458   0.774   1.913   2.390 -2.5758 -1.4091  0.5215
  487SOL     OW 1459   1.745   1.583   0.981 -0.0848 -0.0447 -0.6235
  487SOL    HW1 1460   1.790   1.490   0.998  0.7561 -1.2120 -0.3591
  487SOL    HW2 1461   1.797   1.641   0.916 -1.9581  0.0958  0.0073
  488SOL     OW 1462   2.984   0.867   2.312 -0.5067  0.2485  0.1874
  488SOL    HW1 1463   3.000   0.769   2.276 -1.3287 -0.5343 -2.1123
  488SOL    HW2 1464   2.921   0.875   2.396  0.7674 -1.7011  2.5088
  489SOL     OW 1465   2.788   0.376   1.251  0.0149  0.1187  0.5662
  489SOL    HW1 1466   2.743   0.360   1.341  0.2201 -1.4045  0.5860
  489SOL    HW2 1467   2.888   0.352   1.254  0.4401  0.6554  1.7349
  490SOL     OW 1468   1.427   2.943   2.812 -0.7329  0.5298 -0.7641
  490SOL    HW1 1469   1.461   2.844   2.827  1.2803  2.1311  1.1089
  490SOL    HW2 1470   1.412   2.975   2.715 -0.1436 -1.2516  0.6012
  491SOL     OW 1471   1.733   1.490   2.676  0.1767  0.3717 -0.0841
  491SOL    HW1 1472   1.662   1.475   2.748 -0.0938  1.8423 -1.1410
  491SOL    HW2 1473   1.812   1.545   2.706 -3.0199 -2.1961 -1.6240
  492SOL     OW 1474   0.572   2.074   0.615 -0.4422 -0.0905  0.0686
  492SOL    HW1 1475   0.586   2.046   0.718  0.5153 -0.7560  0.9601
  492SOL    HW2 1476   0.516   2.156   0.608  0.1752 -2.8265 -0.0208
  493SOL     OW 1477   0.495   1.382   2.078  0.3385  0.0562 -0.5649
  493SOL    HW1 1478   0.405   1.435   2.085  0.9689  3.1014 -0.0411
  493SOL    HW2 1479   0.475   1.280   2.083  0.5937  1.9602  2.3886
  494SOL     OW 1480   2.701   2.545   0.106  0.1286 -0.3203 -0.4070
  494SOL    HW1 1481   2.710   2.553   0.210 -0.3789  1.4014  1.0343
  494SOL    HW2 1482   2.615   2.593   0.071  0.2787  1.2643 -1.9956
  495SOL     OW 1483   2.536   2.789   2.610  0.2926 -0.7120 -0.0272
  495SOL    HW1 1484   2.504   2.694   2.631  3.0754  1.7371  2.0800
  495SOL    HW2 1485   2.624   2.786   2.550  1.2262  1.3683  2.9881
  496SOL     OW 1486   2.015   2.297   0.823  0.5182 -0.3520 -0.1907
  496SOL    HW1 1487   2.057   2.367   0.885 -2.2571 -0.4495  1.8454
  496SOL    HW2 1488   2.038   2.196   0.850  1.1631  0.1259  2.0577
  497SOL     OW 1489   0.126   3.001   2.362 -0.1535  0.5108  0.2898
  497SOL    HW1 1490   0.133   3.061   2.447 -0.2411  0.6990 -1.3206
  497SOL    HW2 1491   0.187   3.036   2.281 -0.2011  0.1138  0.0995
  498SOL     OW 1492   1.177   1.348   1.251  0.3642 -0.6759  0.2992
  498SOL    HW1 1493   1.277   1.326   1.273  1.3764 -2.4118 -1.2574
  498SOL    HW2 1494   1.140   1.411   1.328  2.3491 -1.7976 -0.6722
  499SOL     OW 1495   0.634   1.782   0.278 -0.1015  0.3357 -0.5243
  499SOL    HW1 1496   0.673   1.706   0.223 -3.0259 -0.0468 -3.5405
  499SOL    HW2 1497   0.697   1.822   0.353  2.6357  1.3790  2.6544
  500SOL     OW 1498   1.448   2.875   1.705 -0.8280  0.1088 -1.2285
  500SOL    HW1 1499   1.466   2.858   1.808 -1.2658  2.7208 -0.0542
  500SOL    HW2 1500   1.472   2.793   1.648 -2.2901  1.7181  0.3936
  501SOL     OW 1501   0.796   1.139   2.245  0.1996  0.5956 -0.6466
  501SOL    HW1 1502   0.708   1.086   2.260 -2.1345 -2.6551 -0.1668
  501SOL    HW2 1503   0.827   1.140   2.150 -0.2990  2.0710  1.2059
  502SOL     OW 1504   2.609   0.956   1.783 -0.2365  0.0785  0.1975
  502SOL    HW1 1505   2.620   0.963   1.682 -1.8048 -0.1259  2.5813
  502SOL    HW2 1506   2.618   0.859   1.819  1.6309  0.3919 -0.7968
  503SOL     OW 1507   1.299   0.156   0.612  0.0349  0.0556 -0.3232
  503SOL    HW1 1508   1.225   0.226   0.642 -0.6300  1.3182  0.5727
  503SOL    HW2 1509   1.398   0.194   0.623  0.7003  1.9527 -1.0346
  504SOL     OW 1510   3.021   2.341   1.493  0.3548  0.1762  0.1053
  504SOL    HW1 1511   2.955   2.421   1.516  0.0731  1.4659  2.7030
  504SOL    HW2 1512   3.033   2.278   1.573 -1.0525 -0.6107 -2.4848
  505SOL     OW 1513   2.257   1.160   1.407 -0.2323 -0.3262  0.1041
  505SOL    HW1 1514   2.260   1.202   1.312  1.7768  0.5614  4.7743
  505SOL    HW2 1515   2.343   1.179   1.457 -0.6973  1.2896 -1.3039
  506SOL     OW 1516   1.949   0.193   1.813  0.0864  0.1152 -0.2446
  506SOL    HW1 1517   2.033   0.137   1.778  0.7415  1.4127  0.5637
  506SOL    HW2 1518   1.981   0.289   1.834 -0.8608 -0.0308 -1.6187
  507SOL     OW 1519   0.551   0.721   2.194 -0.3078 -0.3170 -0.3935
  507SOL    HW1 1520   0.477   0.654   2.159  0.4190  2.5685  0.9371
  507SOL    HW2 1521   0.639   0.677   2.207 -1.7183 -0.8871 -1.2705
  508SOL     OW 1522   0.333   1.662   0.772 -0.0719 -0.0006  0.6916
  508SOL    HW1 1523   0.393   1.715   0.702  0.2729  1.2676 -0.8369
  508SOL    HW2 1524   0.297   1.726   0.851 -1.0942  1.7599 -0.2728
  509SOL     OW 1525   1.300   1.189   2.466 -0.2109 -0.2095 -0.3450
  509SOL    HW1 1526   1.343   1.156   2.379  1.5316  1.2218  1.4966
  509SOL    HW2 1527   1.195   1.195   2.457 -2.3070  1.6883  0.6185
  510SOL     OW 1528   1.286   2.068   2.213 -0.6489  0.2582 -0.4408
  510SOL    HW1 1529   1.316   2.057   2.117 -1.7860 -3.2289  2.3906
  510SOL    HW2 1530   1.222   1.993   2.244 -0.3951 -0.2987  1.6086
  511SOL     OW 1531   3.023   2.723   1.255 -0.0900 -0.2739  0.1650
  511SOL    HW1 1532   3.023   2.716   1.147 -0.5976 -1.5588  1.0444
  511SOL    HW2 1533   2.925   2.729   1.286  2.2523 -0.5873 -1.5660
  512SOL     OW 1534   2.383   0.427   1.372 -0.0211  0.5393 -0.9707
  512SOL    HW1 1535   2.291   0.476   1.363  1.8634 -1.3677  3.0262
  512SOL    HW2 1536   2.407   0.374   1.289 -0.0420 -0.4411  1.7053
  513SOL     OW 1537   2.574   2.166   0.937 -0.4590  0.8045 -0.5710
  513SOL    HW1 1538   2.513   2.197   0.863 -1.1508 -3.6396  1.2220
  513SOL    HW2 1539   2.671   2.145   0.906 -0.5336 -0.2450  0.4003
  514SOL     OW 1540   0.667   2.723   0.391 -0.0045  0.7673  0.2540
  514SOL    HW1 1541   0.668   2.788   0.308  1.0141  1.1552 -1.4310
  514SOL    HW2 1542   0.706   2.767   0.474 -2.0756  1.1166 -0.8248
  515SOL     OW 1543   1.920   1.376   2.398  0.0503  0.2804 -0.7253
  515SOL    HW1 1544   1.959   1.330   2.317 -2.1124  1.6065  2.4043
  515SOL    HW2 1545   1.842   1.322   2.445  2.1324 -2.4393  0.8577
  516SOL     OW 1546   0.287   0.299   1.895  0.1637  0.1214  0.0491
  516SOL    HW1 1547   0.386   0.262   1.876  1.1734  0.6830  1.8613
  516SOL    HW2 1548   0.211   0.249   1.851  1.5555 -0.3890 -1.5903
  517SOL     OW 1549   0.481   0.154   1.145 -0.7139 -0.8101 -0.2523
  517SOL    HW1 1550   0.556   0.113   1.208  1.4739 -0.8825  0.0348
  517SOL    HW2 1551   0.387   0.098   1.152  0.0264  0.2488  0.4610
  518SOL     OW 1552   2.132   3.083   1.790 -0.5495  0.2921  0.2301
  518SOL    HW1 1553   2.210   3.127   1.845 -2.6910 -0.6952 -0.9151
  518SOL    HW2 1554   2.171   3.011   1.718 -0.6752  0.0003 -0.3443
  519SOL     OW 1555   2.327   2.153   2.511 -0.6126  0.1980 -0.0498
  519SOL    HW1 1556   2.262   2.129   2.595  1.6539  1.2915  1.7785
  519SOL    HW2 1557   2.359   2.252   2.498 -1.1378 -3.1758 -1.6384
  520SOL     OW 1558   1.827   2.742   1.726 -0.0358 -0.5603 -0.1312
  520SOL    HW1 1559   1.772   2.656   1.756 -0.4981 -0.1773  0.2550
  520SOL    HW2 1560   1.908   2.710   1.677 -2.1133  0.4533  4.3543
  521SOL     OW 1561   0.557   0.008   2.108  0.2448 -0.3696  0.0236
  521SOL    HW1 1562   0.457   0.022   2.141 -1.2403 -0.6361  1.0934
  521SOL    HW2 1563   0.624  -0.016   2.183 -3.3924 -1.0996 -0.3515
  522SOL     OW 1564   0.229   1.868   1.489 -0.3543 -0.0639  0.6399
  522SOL    HW1 1565   0.260   1.929   1.563  2.9101 -1.4198 -0.2406
  522SOL    HW2 1566   0.180   1.917   1.412 -0.8712 -1.4628  1.1858
  523SOL     OW 1567   2.182   2.921   1.518  0.2892  0.2372 -0.1869
  523SOL    HW1 1568   2.252   2.848   1.552 -0.4629 -2.1533 -2.2618
  523SOL    HW2 1569   2.127   2.882   1.443 -0.8142 -0.3935 -1.6055
  524SOL     OW 1570   0.186   2.776   2.817  0.4055  0.0059 -0.1628
  524SOL    HW1 1571   0.146   2.866   2.846 -0.4818  1.8885  3.6665
  524SOL    HW2 1572   0.285   2.784   2.788 -1.8118 -0.6915  2.8256
  525SOL     OW 1573   2.163   2.050   0.465  0.4073 -0.0338 -0.8442
  525SOL    HW1 1574   2.186   2.006   0.555  2.2575  2.1657 -4.5256
  525SOL    HW2 1575   2.190   1.992   0.382  2.2331  0.5671 -2.3201
  526SOL     OW 1576   0.402   1.552   1.824  0.4843  0.3060  0.4759
  526SOL    HW1 1577   0.462   1.591   1.902 -2.2424 -0.8590  0.0639
  526SOL    HW2 1578   0.399   1.443   1.833  0.2905 -2.3050 -2.7463
  527SOL     OW 1579   1.058   2.925   1.218  0.4947 -0.4502 -0.4168
  527SOL    HW1 1580   1.111   2.841   1.242 -3.4355 -2.8078 -0.9189
  527SOL    HW2 1581   1.114   3.013   1.231  1.7629  2.0435 -0.2704
  528SOL     OW 1582   1.366   2.349   0.547 -0.0579 -0.5632 -0.4314
  528SOL    HW1 1583   1.410   2.251   0.546 -0.5844  0.1911 -0.4642
  528SOL    HW2 1584   1.408   2.409   0.615 -2.0241 -0.9439 -0.6608
  529SOL     OW 1585   1.897   1.727   0.817  0.7185  0.0951 -0.3146
  529SOL    HW1 1586   1.869   1.720   0.714 -0.0832  1.9553  0.3190
  529SOL    HW2 1587   1.932   1.823   0.839 -0.1266 -0.2734 -0.6982
  530SOL     OW 1588   0.455   2.528   0.157  0.2272  1.3619 -0.3304
  530SOL    HW1 1589   0.470   2.480   0.247 -1.0885 -1.1433  2.6157
  530SOL    HW2 1590   0.448   2.457   0.079 -0.7965  0.2744  0.3489
  531SOL     OW 1591   1.839   0.990   1.073 -0.4753 -0.6851  0.1771
  531SOL    HW1 1592   1.771   0.935   1.016  1.6616 -1.5808  1.3363
  531SOL    HW2 1593   1.815   1.002   1.176 -0.1395  1.6393  1.4235
  532SOL     OW 1594   0.298   1.234   0.708 -0.2951 -0.3467 -0.2289
  532SOL    HW1 1595   0.342   1.221   0.611  0.4391  1.1588 -1.1053
  532SOL    HW2 1596   0.280   1.148   0.763 -0.4427 -0.8061 -2.0251
  533SOL     OW 1597   1.798   0.026   2.537 -0.3504 -0.3724  0.4749
  533SOL    HW1 1598   1.899   0.021   2.551 -1.9927  0.8348  0.5424
  533SOL    HW2 1599   1.745   0.091   2.606 -0.3101 -1.6414  3.9871
  534SOL     OW 1600   0.208   0.194   1.526  0.4981  0.3263  0.0077
  534SOL    HW1 1601   0.272   0.249   1.466  1.3040  0.7562  1.3453
  534SOL    HW2 1602   0.132   0.256   1.554 -0.2524  1.4589 -1.0790
  535SOL     OW 1603   1.844   0.314   0.219 -0.2422 -0.0063  0.1263
  535SOL    HW1 1604   1.895   0.347   0.300 -0.3169 -1.4638  3.5141
  535SOL    HW2 1605   1.754   0.274   0.239  1.6316  1.0354 -0.4054
  536SOL     OW 1606   1.275   2.629   0.928  0.9328  0.2877  0.1091
  536SOL    HW1 1607   1.300   2.576   1.014  3.6999 -1.8775  0.1729
  536SOL    HW2 1608   1.186   2.603   0.885  2.1701 -0.0848  2.9226
  537SOL     OW 1609   0.908   0.213   2.368 -0.2149  0.0552 -0.4158
  537SOL    HW1 1610   0.921   0.260   2.274  0.0700 -1.7145  0.9164
  537SOL    HW2 1611   0.848   0.126   2.368 -1.3714  2.2115  0.9279
  538SOL     OW 1612   1.669   2.348   1.519 -0.4216 -0.3880  0.0208
  538SOL    HW1 1613   1.647   2.261   1.465  2.4252 -3.6800 -0.0822
  538SOL    HW2 1614   1.724   2.412   1.457  0.1025 -1.9909 -1.9969
  539SOL     OW 1615   0.188   1.605   2.702 -0.3157 -0.4273 -0.0343
  539SOL    HW1 1616   0.098   1.582   2.669  1.5028  1.7962  0.5965
  539SOL    HW2 1617   0.184   1.701   2.732  0.5012 -3.2390 -2.3144
  540SOL     OW 1618   2.713   1.700   1.995  0.3733  0.0092 -0.2565
  540SOL    HW1 1619   2.651   1.623   1.964 -1.1944 -3.1274 -0.6244
  540SOL    HW2 1620   2.670   1.792   1.972 -3.0874  2.1201 -4.1201
  541SOL     OW 1621   0.435   2.326   3.080 -0.1377  0.1276 -0.3623
  541SOL    HW1 1622   0.477   2.240   3.129 -2.7307  2.5777  2.5755
  541SOL    HW2 1623   0.348   2.299   3.036  1.3326  0.6984  1.7978
  542SOL     OW 1624   2.233   2.578   0.481  0.3452 -0.4934 -0.0076
  542SOL    HW1 1625   2.217   2.661   0.419 -1.7389 -0.3490 -1.6853
  542SOL    HW2 1626   2.149   2.526   0.504  1.9660  1.5154  0.2324
  543SOL     OW 1627   0.988   1.796   1.714 -0.0365 -0.1579  0.0361
  543SOL    HW1 1628   0.980   1.837   1.813 -0.3989  2.4145  1.0189
  543SOL    HW2 1629   0.945   1.857   1.644  0.9178 -1.3969  0.3722
  544SOL     OW 1630   0.914   0.419   0.229  0.0446 -0.1248 -0.3593
  544SOL    HW1 1631   0.961   0.383   0.312 -0.9865  0.8393  0.4724
  544SOL    HW2 1632   0.931   0.363   0.145 -0.5552 -1.6077  1.0845
  545SOL     OW 1633   1.142   1.717   0.602 -0.2794  0.1869 -0.1432
  545SOL    HW1 1634   1.218   1.752   0.665 -1.6601  0.2587 -0.1206
  545SOL    HW2 1635   1.138   1.768   0.511 -1.1855  0.4206  1.4769
  546SOL     OW 1636   2.653   1.542   0.018 -0.0204 -0.0836 -0.2360
  546SOL    HW1 1637   2.604   1.506  -0.064 -4.2101 -0.0424 -1.7932
  546SOL    HW2 1638   2.623   1.507   0.110  1.4781  1.2951 -1.2030
  547SOL     OW 1639   0.536   0.023   2.782  0.2205 -0.6359  0.0925
  547SOL    HW1 1640   0.592  -0.035   2.716 -0.8542  1.4644 -1.6714
  547SOL    HW2 1641   0.548   0.005   2.878 -0.8930  3.2720 -0.0186
  548SOL     OW 1642   2.088   0.830   3.032 -0.5901  0.1920 -0.1186
  548SOL    HW1 1643   1.984   0.804   3.035 -1.3028  2.1850  1.3527
  548SOL    HW2 1644   2.100   0.928   3.058  0.2782 -1.9326  0.0479
  549SOL     OW 1645   0.614   0.448   0.176  0.1513  0.6611  0.0912
  549SOL    HW1 1646   0.585   0.523   0.110  1.3203  2.0772  1.6430
  549SOL    HW2 1647   0.721   0.461   0.184  0.2679  2.2164  0.5976
  550SOL     OW 1648   2.566   2.867   2.862  0.0013 -0.2880 -0.4927
  550SOL    HW1 1649   2.559   2.797   2.937 -0.8330 -1.1946  0.6416
  550SOL    HW2 1650   2.547   2.839   2.768 -1.2098 -0.8861 -1.6945
  551SOL     OW 1651   0.258   0.901   0.166  0.3477  0.3658  0.8313
  551SOL    HW1 1652   0.325   0.828   0.191 -1.4516  2.7052  2.0046
  551SOL    HW2 1653   0.227   0.957   0.248 -1.6725  0.5412  0.1506
  552SOL     OW 1654   0.774   2.823   1.878  0.3327  0.4857 -1.3236
  552SOL    HW1 1655   0.765   2.808   1.984 -2.0552  2.6099 -0.6777
  552SOL    HW2 1656   0.858   2.876   1.850 -3.7275 -1.1219 -1.6952
  553SOL     OW 1657   3.064   2.540   0.358  0.0258 -0.3553 -0.1277
  553SOL    HW1 1658   3.016   2.447   0.356  1.4074  0.8779 -0.7816
  553SOL    HW2 1659   3.013   2.594   0.432 -0.0551 -1.9128 -0.8709
  554SOL     OW 1660   2.213   0.304   0.556  0.5831  0.3997 -0.2211
  554SOL    HW1 1661   2.276   0.273   0.482  0.1459  1.6271  2.4365
  554SOL    HW2 1662   2.217   0.241   0.639  0.9074  1.0019  2.7311
  555SOL     OW 1663   0.412   2.916   2.428  0.1265 -0.2636  0.0204
  555SOL    HW1 1664   0.309   2.899   2.439 -1.3798  0.0821  1.2478
  555SOL    HW2 1665   0.449   2.855   2.350  2.0873 -2.8682  0.5185
  556SOL     OW 1666   0.907   2.349   1.689  0.4266  1.0880  0.4521
  556SOL    HW1 1667   0.919   2.420   1.765  0.8540  1.8609 -0.4005
  556SOL    HW2 1668   0.977   2.360   1.612  1.4352  0.1398  0.0363
  557SOL     OW 1669   0.132   2.104   0.116 -0.1958  0.0172 -0.2008
  557SOL    HW1 1670   0.060   2.038   0.077  0.9535 -2.2402  0.9098
  557SOL    HW2 1671   0.166   2.164   0.038 -1.4149 -2.0689  0.8600
  558SOL     OW 1672   2.966   2.275   0.323 -0.5209 -0.1676  0.2880
  558SOL    HW1 1673   2.891   2.218   0.367  0.1549 -3.1427 -0.6335
  558SOL    HW2 1674   2.953   2.291   0.222  2.0776  2.9378  1.6908
  559SOL     OW 1675   0.427   2.259   1.347  0.0227  0.6609 -0.2572
  559SOL    HW1 1676   0.329   2.272   1.305 -1.7136  2.6423  0.6950
  559SOL    HW2 1677   0.466   2.165   1.328 -2.7078  0.4016  0.8499
  560SOL     OW 1678   2.093   1.127   3.092  0.0887 -0.2784 -0.4461
  560SOL    HW1 1679   1.991   1.141   3.076 -0.8042  1.9231  1.0055
  560SOL    HW2 1680   2.150   1.214   3.107  0.1939 -0.9042 -0.7965
  561SOL     OW 1681   3.028   1.951   0.007 -1.0302  0.1411 -0.3108
  561SOL    HW1 1682   2.964   1.884   0.059  3.5161 -0.7778  1.6591
  561SOL    HW2 1683   2.965   2.028  -0.038 -4.6026  0.8840  1.6448
  562SOL     OW 1684   0.896   2.149   2.352  0.2051 -0.2941 -0.0430
  562SOL    HW1 1685   0.791   2.136   2.342 -1.4385 -3.0210 -0.5668
  562SOL    HW2 1686   0.923   2.164   2.445  2.6360 -0.1797 -2.4779
  563SOL     OW 1687   0.683   2.459   2.601  0.4493 -0.8873  0.0551
  563SOL    HW1 1688   0.760   2.387   2.616  0.0420  1.2925 -0.9726
  563SOL    HW2 1689   0.669   2.525   2.681 -2.3191  0.2244  0.9186
  564SOL     OW 1690   2.726   1.310   2.851  0.6209  0.2905  0.3647
  564SOL    HW1 1691   2.650   1.330   2.917  0.6680  2.2451 -0.1004
  564SOL    HW2 1692   2.787   1.394   2.826 -1.0357  2.5876 -0.3870
  565SOL     OW 1693   2.527   1.970   2.569  0.0703 -0.0524  0.0286
  565SOL    HW1 1694   2.449   2.030   2.533  1.8445 -1.1336 -1.3498
  565SOL    HW2 1695   2.575   2.006   2.654  0.0854  0.0074  0.4864
  566SOL     OW 1696   1.971   2.871   1.335  0.7140  0.3344  0.2529
  566SOL    HW1 1697   1.901   2.797   1.312 -1.3439  0.2212  1.5256
  566SOL    HW2 1698   2.004   2.916   1.250  1.1236 -0.9654 -0.9529
  567SOL     OW 1699   2.419   0.114   2.197  0.1202  0.0202 -0.1698
  567SOL    HW1 1700   2.439   0.118   2.095 -1.3624 -0.8279 -0.4727
  567SOL    HW2 1701   2.323   0.117   2.220  2.9479 -0.8068  1.9672
  568SOL     OW 1702   1.516   1.817   0.334  0.7311 -0.3541 -0.6617
  568SOL    HW1 1703   1.463   1.873   0.270  1.9836 -2.5326 -1.1303
  568SOL    HW2 1704   1.605   1.861   0.361 -2.8662  0.5019  0.4543
  569SOL     OW 1705   0.290   0.623   0.794  0.6021 -0.0835  0.0367
  569SOL    HW1 1706   0.345   0.564   0.722  2.7429  2.6282 -0.3755
  569SOL    HW2 1707   0.193   0.585   0.819  1.1713  1.4728  1.6551
  570SOL     OW 1708   0.631   0.773   2.836 -0.0413 -0.4106 -0.3704
  570SOL    HW1 1709   0.678   0.793   2.745 -0.3243  1.8798 -0.6794
  570SOL    HW2 1710   0.640   0.856   2.904 -0.9550 -4.1685  1.4052
  571SOL     OW 1711   0.850   3.066   1.126  0.4903  0.0652  0.0809
  571SOL    HW1 1712   0.875   3.110   1.035 -0.7003  0.7311 -1.2252
  571SOL    HW2 1713   0.929   3.008   1.159 -0.8925 -2.2456 -0.5935
  572SOL     OW 1714   1.559   2.628   1.176  0.1756  0.0235  0.1000
  572SOL    HW1 1715   1.478   2.577   1.223 -0.7999  1.0150  2.4219
  572SOL    HW2 1716   1.525   2.722   1.141  0.9384  1.4233 -0.5882
  573SOL     OW 1717   2.946   0.441   2.067 -0.0379  0.1737 -0.4148
  573SOL    HW1 1718   2.896   0.350   2.086 -1.5427  1.1028 -0.8308
  573SOL    HW2 1719   2.883   0.517   2.035 -1.9771  2.2685 -0.6596
  574SOL     OW 1720   0.212   1.786   1.005 -0.2626  0.1542 -0.0140
  574SOL    HW1 1721   0.197   1.886   0.973 -0.5000 -0.9401 -2.1748
  574SOL    HW2 1722   0.132   1.754   1.064  1.8516 -1.5578  1.0510
  575SOL     OW 1723   0.823   2.163   0.975 -0.6246  0.1933 -0.1542
  575SOL    HW1 1724   0.840   2.200   1.070 -1.9640  0.4357  0.1154
  575SOL    HW2 1725   0.874   2.213   0.901 -0.6817 -0.3687 -1.2427
  576SOL     OW 1726   2.931   2.908   1.716  0.0700  0.5101 -0.2372
  576SOL    HW1 1727   2.883   2.836   1.664  2.3281  1.0529  1.5455
  576SOL    HW2 1728   2.936   3.000   1.669  1.0911 -2.6124  0.5413
  577SOL     OW 1729   2.553   1.248   3.083 -0.0265 -0.0597  0.1376
  577SOL    HW1 1730   2.572   1.156   3.038 -0.3336  4.0244 -0.2686
  577SOL    HW2 1731   2.620   1.266   3.161 -0.0819 -0.5299 -0.8471
  578SOL     OW 1732   1.329   2.704   2.580  0.5465  0.4051 -0.0315
  578SOL    HW1 1733   1.261   2.673   2.511 -2.4059 -1.7651  2.7552
  578SOL    HW2 1734   1.363   2.801   2.557  0.8844  3.8781 -1.2560
  579SOL     OW 1735   0.119   2.498   0.135 -0.1306  0.2693 -0.8985
  579SOL    HW1 1736   0.074   2.510   0.227  0.8180  1.2829 -1.1440
  579SOL    HW2 1737   0.213   2.456   0.144  0.7079  3.1654 -0.4279
  580SOL     OW 1738   1.018   2.650   0.390  0.1060 -0.5374  0.0645
  580SOL    HW1 1739   1.109   2.663   0.342 -0.9633 -0.5086 -0.7227
  580SOL    HW2 1740   0.949   2.622   0.323 -0.3730 -1.1712  0.3343
  581SOL     OW 1741   1.242   2.635   1.524  0.3233  0.0030  0.4178
  581SOL    HW1 1742   1.316   2.562   1.527 -0.1025 -1.0781  0.0735
  581SOL    HW2 1743   1.283   2.716   1.471  2.3570 -0.6085  1.1048
  582SOL     OW 1744   1.502   0.077   1.853 -0.1212  0.0443  0.2568
  582SOL    HW1 1745   1.517   0.153   1.920 -1.9532  0.0116 -0.7953
  582SOL    HW2 1746   1.586   0.057   1.794  1.2708 -2.4050 -0.7203
  583SOL     OW 1747   2.480   2.972   0.545  0.4191 -0.5280 -0.2697
  583SOL    HW1 1748   2.524   2.887   0.503  0.9823 -0.2160 -1.0062
  583SOL    HW2 1749   2.429   2.959   0.631 -2.0789  3.2068  1.2230
  584SOL     OW 1750   1.608   1.027   2.115  0.0992  0.2506 -0.7848
  584SOL    HW1 1751   1.653   1.077   2.037 -0.4025  0.5755  0.6172
  584SOL    HW2 1752   1.667   0.958   2.163  1.2538  3.2196  0.1300
  585SOL     OW 1753   2.091   2.623   2.869  0.3484 -0.0065  0.1730
  585SOL    HW1 1754   2.111   2.525   2.854 -0.1864 -3.2407 -3.9652
  585SOL    HW2 1755   1.994   2.650   2.856  1.8368  1.4438 -0.3650
  586SOL     OW 1756   2.737   0.245   1.526 -0.0644 -0.1874 -0.6776
  586SOL    HW1 1757   2.781   0.322   1.574 -2.3760 -1.2746 -3.2687
  586SOL    HW2 1758   2.651   0.198   1.568  0.2253 -1.7278  0.9568
  587SOL     OW 1759   1.961   1.622   2.730 -0.2806 -0.2160  0.0752
  587SOL    HW1 1760   2.008   1.540   2.687  0.0721 -1.4083 -1.1346
  587SOL    HW2 1761   2.028   1.683   2.771 -0.3354 -2.2811 -1.7430
  588SOL     OW 1762   0.510   2.721   2.210 -0.0087  0.2550 -0.2544
  588SOL    HW1 1763   0.415   2.747   2.174 -0.0760  2.7727  0.1734
  588SOL    HW2 1764   0.499   2.632   2.261 -0.9246  2.4061 -0.1833
  589SOL     OW 1765   2.107   1.451   2.586 -0.2051 -0.1003 -0.4232
  589SOL    HW1 1766   2.027   1.406   2.540 -0.7952 -2.9556  0.4385
  589SOL    HW2 1767   2.191   1.391   2.576  0.8651  2.6013 -0.6140
  590SOL     OW 1768   2.352   1.684   2.007 -0.4317 -0.4265  0.6479
  590SOL    HW1 1769   2.428   1.618   2.006  0.8808  2.0865 -2.0969
  590SOL    HW2 1770   2.354   1.740   2.095  1.4494 -1.1560  1.6954
  591SOL     OW 1771   1.377   2.430   0.281 -0.6519 -0.1751 -0.5956
  591SOL    HW1 1772   1.466   2.428   0.229 -1.1469  1.8474 -1.0883
  591SOL    HW2 1773   1.380   2.389   0.374 -1.4008 -0.7771 -1.2813
  592SOL     OW 1774   1.729   2.348   0.772  0.4457  0.6888  0.2123
  592SOL    HW1 1775   1.707   2.355   0.666 -0.8247 -0.9096 -0.1664
  592SOL    HW2 1776   1.829   2.343   0.789 -0.6664  0.6149 -0.3551
  593SOL     OW 1777   0.648   0.192   0.056 -0.4037  1.1017  0.3057
  593SOL    HW1 1778   0.745   0.152   0.048  1.4272  0.5437 -0.6473
  593SOL    HW2 1779   0.645   0.284   0.092 -2.0955  2.5598  0.3266
  594SOL     OW 1780   0.923   1.922   2.688  0.2476 -0.5364  0.1382
  594SOL    HW1 1781   1.026   1.939   2.680  0.1757  0.2367 -1.1527
  594SOL    HW2 1782   0.878   1.998   2.742  1.2590  0.0768 -0.7029
  595SOL     OW 1783   1.537   0.040   1.034  0.2539 -0.2534 -0.8762
  595SOL    HW1 1784   1.626  -0.009   1.022 -1.9830  0.0978  0.1759
  595SOL    HW2 1785   1.463   0.016   0.959  3.3051  1.9776 -2.1129
  596SOL     OW 1786   3.090   1.428   2.230 -0.4745  0.0880 -0.3696
  596SOL    HW1 1787   2.985   1.455   2.234 -3.5318  0.8357 -0.5259
  596SOL    HW2 1788   3.120   1.417   2.326 -0.4402  2.5471 -2.2231
  597SOL     OW 1789   2.061   2.601   1.619 -0.3909  0.5858  0.2676
  597SOL    HW1 1790   2.055   2.529   1.544  1.5150 -3.1350 -2.5864
  597SOL    HW2 1791   2.147   2.587   1.679  1.3465  0.5505  1.0038
  598SOL     OW 1792   2.483   2.933   1.364 -0.7955 -0.0837  0.8483
  598SOL    HW1 1793   2.570   2.983   1.406  0.9866  1.3891 -0.3055
  598SOL    HW2 1794   2.508   2.865   1.289 -0.4360  1.6745 -0.6346
  599SOL     OW 1795   2.904   0.378   2.458  0.1975  0.2115 -0.3320
  599SOL    HW1 1796   2.947   0.458   2.409 -0.0316  0.8564 -0.9161
  599SOL    HW2 1797   2.799   0.380   2.454  0.2412  0.9064  0.8082
  600SOL     OW 1798   2.807   1.125   2.683  0.0446  0.8006 -0.8978
  600SOL    HW1 1799   2.757   1.033   2.693 -1.4385 -1.9215 -1.2464
  600SOL    HW2 1800   2.772   1.197   2.749 -0.0776  3.3107 -0.4269
  601SOL     OW 1801   3.030   1.239   2.011  1.1212  0.0299 -0.3428
  601SOL    HW1 1802   2.961   1.299   1.964  1.2414  1.2592 -0.1438
  601SOL    HW2 1803   3.083   1.287   2.084 -0.9810 -0.4986 -2.8523
  602SOL     OW 1804   1.477   1.710   2.355 -0.8275 -0.0505  0.2048
  602SOL    HW1 1805   1.420   1.624   2.343  1.5519  1.8468  2.9176
  602SOL    HW2 1806   1.577   1.684   2.386 -0.9171  0.9542 -0.3560
  603SOL     OW 1807   0.642   1.252   2.699 -0.1065  0.4545 -0.5725
  603SOL    HW1 1808   0.575   1.225   2.625 -1.1973  1.1429  0.8847
  603SOL    HW2 1809   0.726   1.192   2.699  1.3234 -1.3067  1.7274
  604SOL     OW 1810   2.405   0.974   0.142 -0.1955  0.1486 -0.0774
  604SOL    HW1 1811   2.497   1.022   0.150  2.3872  0.1388  0.2140
  604SOL    HW2 1812   2.404   0.889   0.078 -1.2725 -0.6004  3.2155
  605SOL     OW 1813   2.669   1.152   1.943 -0.5940 -0.4980 -0.0848
  605SOL    HW1 1814   2.652   1.076   1.876 -2.1268  1.4548  0.5394
  605SOL    HW2 1815   2.681   1.122   2.038  2.2580  0.8899 -3.5552
  606SOL     OW 1816   1.511   2.512   2.629 -0.3886 -0.8716  0.0678
  606SOL    HW1 1817   1.418   2.558   2.608 -0.3216 -3.8338  1.2542
  606SOL    HW2 1818   1.506   2.411   2.600  0.5872 -2.9744  1.8024
  607SOL     OW 1819   1.389   1.585   0.386  0.2861  0.4389 -0.0473
  607SOL    HW1 1820   1.327   1.599   0.463  0.9692 -0.7307 -0.5290
  607SOL    HW2 1821   1.434   1.671   0.345  0.1765  0.5839  0.8308
  608SOL     OW 1822   1.448   2.832   0.429  0.0551 -0.2517 -0.4989
  608SOL    HW1 1823   1.524   2.893   0.393  1.4617  1.0969  1.4380
  608SOL    HW2 1824   1.362   2.889   0.440 -0.7528  0.1716 -0.1659
  609SOL     OW 1825   1.283   1.367   0.277 -0.4882  0.1940 -0.1936
  609SOL    HW1 1826   1.323   1.452   0.326 -0.1867 -1.6605 -3.4828
  609SOL    HW2 1827   1.178   1.359   0.286 -2.3004 -0.1050  0.3840
  610SOL     OW 1828   2.966   1.124   2.259  0.0509  0.2294  0.3353
  610SOL    HW1 1829   2.986   1.024   2.269  1.5896  1.7547 -0.6674
  610SOL    HW2 1830   2.958   1.156   2.160 -2.0162 -0.6117  1.5141
  611SOL     OW 1831   2.522   0.304   1.156  0.1997  0.4587  0.4641
  611SOL    HW1 1832   2.482   0.221   1.207  1.5529  0.1025 -0.5568
  611SOL    HW2 1833   2.620   0.323   1.191  0.4897  0.3677  1.4995
  612SOL     OW 1834   0.818   2.235   1.253  0.2970  0.1172 -0.0694
  612SOL    HW1 1835   0.769   2.145   1.274  1.5551 -1.8969 -0.6984
  612SOL    HW2 1836   0.751   2.309   1.233 -0.4040  0.5918 -0.6088
  613SOL     OW 1837   0.858   1.455   2.403 -0.6205 -0.7064  0.4598
  613SOL    HW1 1838   0.915   1.496   2.326 -2.2384  1.5465  0.4945
  613SOL    HW2 1839   0.780   1.397   2.368  1.2921  0.4694 -0.6572
  614SOL     OW 1840   1.659   1.603   1.878 -0.1045 -0.0265  0.3601
  614SOL    HW1 1841   1.614   1.697   1.879 -2.3998 -0.4465 -0.0255
  614SOL    HW2 1842   1.712   1.583   1.964 -0.4789  1.0645 -0.1450
  615SOL     OW 1843   0.817   1.272   1.699 -0.8687  0.3293  0.8342
  615SOL    HW1 1844   0.771   1.224   1.620 -0.6397 -2.8999 -1.1433
  615SOL    HW2 1845   0.833   1.376   1.680 -0.0273  3.8413  0.1730
  616SOL     OW 1846   1.089   1.605   2.246  0.0081 -0.2716  0.7749
  616SOL    HW1 1847   1.027   1.567   2.169 -2.1211 -1.3754  0.4581
  616SOL    HW2 1848   1.101   1.709   2.240  0.2481  3.6019  1.4890
  617SOL     OW 1849   2.918   1.526   1.602  0.2662  0.2556 -0.1400
  617SOL    HW1 1850   2.935   1.449   1.674 -0.9853 -2.7727 -1.2021
  617SOL    HW2 1851   2.989   1.533   1.527 -1.2065 -1.8555  0.6799
  618SOL     OW 1852   1.895   2.086   1.347  0.1067 -0.0478 -0.4698
  618SOL    HW1 1853   1.854   2.162   1.293 -0.0261 -0.6024  0.9762
  618SOL    HW2 1854   1.907   1.990   1.304  1.4573 -2.6586 -0.7192
  619SOL     OW 1855   1.744   0.505   2.382 -0.7880  0.1832 -0.5060
  619SOL    HW1 1856   1.694   0.547   2.303  3.2870 -1.3816 -2.1992
  619SOL    HW2 1857   1.725   0.404   2.397  2.1072 -0.0639  2.8176
  620SOL     OW 1858   2.317   2.916   0.769  0.5689  0.2390 -0.2640
  620SOL    HW1 1859   2.223   2.963   0.752 -1.0637  3.2243 -0.1754
  620SOL    HW2 1860   2.317   2.853   0.847 -1.5655  1.8580 -0.4831
  621SOL     OW 1861   2.135   1.814   1.326 -1.0076  0.0767 -0.4325
  621SOL    HW1 1862   2.156   1.834   1.427 -2.6097  1.4367 -1.8427
  621SOL    HW2 1863   2.071   1.734   1.317 -1.9973 -0.9573 -0.4294
  622SOL     OW 1864   2.268   0.918   1.831 -0.0300 -0.1642 -0.1980
  622SOL    HW1 1865   2.354   0.907   1.773  2.0711  1.5158 -1.9557
  622SOL    HW2 1866   2.240   0.828   1.875 -0.2579  2.3602 -0.1561
  623SOL     OW 1867   1.348   0.797   2.413  0.2505 -0.3229  0.2978
  623SOL    HW1 1868   1.287   0.722   2.444  2.4773  0.2013  3.8486
  623SOL    HW2 1869   1.305   0.866   2.357 -1.4756 -1.6713  2.2602
  624SOL     OW 1870   0.569   0.676   3.095  0.3392  0.1559  0.0170
  624SOL    HW1 1871   0.612   0.707   3.008  0.6090 -1.0565  2.9519
  624SOL    HW2 1872   0.560   0.758   3.159  1.0375 -1.3156  1.1712
  625SOL     OW 1873   2.782   1.741   0.995 -0.2238  0.0515 -0.4146
  625SOL    HW1 1874   2.695   1.794   0.993  1.0579 -1.8865  1.8707
  625SOL    HW2 1875   2.858   1.796   1.041 -1.0554 -0.7529  2.3449
  626SOL     OW 1876   0.618   2.684   1.712  0.3153  0.3094  0.3598
  626SOL    HW1 1877   0.683   2.730   1.779  0.8713 -0.9308  1.0885
  626SOL    HW2 1878   0.516   2.686   1.737 -1.9192 -0.8916 -0.0996
  627SOL     OW 1879   0.684   0.931   1.580  0.1539  0.4812 -0.2452
  627SOL    HW1 1880   0.625   0.859   1.534  1.5920  3.4345  1.7833
  627SOL    HW2 1881   0.763   0.962   1.516  2.4409  1.2969  1.1233
  628SOL     OW 1882   2.492   0.172   0.665  0.0600 -0.2356 -0.6678
  628SOL    HW1 1883   2.504   0.129   0.574  3.7335 -0.7460 -0.3660
  628SOL    HW2 1884   2.413   0.127   0.722 -0.6728 -1.4362  0.7153
  629SOL     OW 1885   1.905   0.927   2.049  0.1016  0.2285  0.6839
  629SOL    HW1 1886   1.930   0.975   1.961  1.3014  0.2502  0.1869
  629SOL    HW2 1887   1.913   0.994   2.128  0.3127  2.1274 -1.9629
  630SOL     OW 1888   2.940   2.332   0.800 -0.5905 -0.0668  0.2317
  630SOL    HW1 1889   2.857   2.395   0.804 -0.0540  0.2617  1.3584
  630SOL    HW2 1890   2.923   2.232   0.784  1.1626  0.3836 -0.2526
  631SOL     OW 1891   3.089   0.158   2.193 -0.2103 -0.3114  0.2527
  631SOL    HW1 1892   3.069   0.205   2.280  4.4628 -1.0614 -1.3164
  631SOL    HW2 1893   3.088   0.223   2.111  1.9634 -0.1335 -1.5736
  632SOL     OW 1894   2.465   2.595   0.635  0.1377 -0.4363  0.3032
  632SOL    HW1 1895   2.510   2.682   0.677 -1.0994 -2.0664  0.0369
  632SOL    HW2 1896   2.370   2.613   0.595 -0.4764 -0.7589  1.8852
  633SOL     OW 1897   1.469   1.200   2.681 -0.2837  0.5402  0.2743
  633SOL    HW1 1898   1.445   1.273   2.752  1.1358  0.0446  2.5889
  633SOL    HW2 1899   1.414   1.198   2.596 -0.5884  0.3541 -1.1496
  634SOL     OW 1900   0.622   1.996   0.899 -0.1860 -0.5448 -0.5517
  634SOL    HW1 1901   0.535   2.010   0.954  1.8353  1.1864  1.9812
  634SOL    HW2 1902   0.694   2.070   0.920 -0.8128  0.8649 -0.0732
  635SOL     OW 1903   2.990   2.353   0.062 -0.1560 -0.3602 -0.0826
  635SOL    HW1 1904   2.912   2.411   0.024 -0.3742  1.7150 -1.7659
  635SOL    HW2 1905   3.080   2.400   0.067  0.0691  1.3145 -1.3648
  636SOL     OW 1906   2.358   2.764   1.966 -0.1518 -0.0377 -0.2610
  636SOL    HW1 1907   2.361   2.869   1.944  1.5717  0.7307 -0.5996
  636SOL    HW2 1908   2.287   2.737   2.037 -0.5345 -1.2096 -0.5952
  637SOL     OW 1909   2.762   0.624   1.969 -0.5255 -0.7434 -0.2461
  637SOL    HW1 1910   2.670   0.636   1.920  0.4020  0.2801 -0.0516
  637SOL    HW2 1911   2.801   0.721   1.996  0.0790  4.5392 -0.2196
  638SOL     OW 1912   2.404   1.843   1.322  0.3374  0.2588 -0.0994
  638SOL    HW1 1913   2.301   1.838   1.310  1.8961  2.5739 -0.6299
  638SOL    HW2 1914   2.448   1.778   1.395 -0.3878 -0.2304  0.9382
  639SOL     OW 1915   1.296   2.194   1.716 -0.1355  0.1321  0.0149
  639SOL    HW1 1916   1.318   2.294   1.693 -1.0567 -2.0616 -0.8841
  639SOL    HW2 1917   1.203   2.181   1.759  0.7973 -0.7805 -3.3221
  640SOL     OW 1918   0.221   1.190   1.548  0.3982 -0.1516  0.5387
  640SOL    HW1 1919   0.214   1.198   1.648  0.4660 -2.1539 -0.0050
  640SOL    HW2 1920   0.273   1.104   1.525  1.8605  2.5913  4.9514
  641SOL     OW 1921   2.026   0.273   1.433  0.7203  0.5019  0.0908
  641SOL    HW1 1922   2.012   0.327   1.516  0.0176 -1.6983 -1.5795
  641SOL    HW2 1923   2.084   0.191   1.455 -0.0775 -0.4689  0.9816
  642SOL     OW 1924   2.020   0.079   0.347  0.0051 -0.3975 -0.7680
  642SOL    HW1 1925   2.105   0.029   0.383 -1.8162 -1.8104  0.2062
  642SOL    HW2 1926   1.961   0.110   0.427  0.7717  1.8151 -1.1613
  643SOL     OW 1927   2.913   1.798   2.160 -0.0024 -0.4331 -0.3607
  643SOL    HW1 1928   2.859   1.740   2.092 -1.3076 -0.3188 -0.1481
  643SOL    HW2 1929   2.922   1.895   2.124 -1.8820 -1.6554 -2.1011
  644SOL     OW 1930   2.292   2.409   1.216 -0.6214  0.1550  0.2118
  644SOL    HW1 1931   2.327   2.316   1.172  2.1169  0.8324  0.7702
  644SOL    HW2 1932   2.267   2.397   1.317  0.8765 -0.0476 -1.2494
  645SOL     OW 1933   0.575   0.838   1.293 -0.5055  0.2452 -0.0846
  645SOL    HW1 1934   0.475   0.831   1.311  3.1002  0.7118  2.9299
  645SOL    HW2 1935   0.600   0.870   1.199  1.9205 -0.3294  1.7903
  646SOL     OW 1936   1.466   1.829   2.034 -0.4642  0.1720  0.0346
  646SOL    HW1 1937   1.543   1.887   1.994  0.4961  1.0554 -0.8342
  646SOL    HW2 1938   1.465   1.819   2.137  0.8194 -1.1611 -0.1490
  647SOL     OW 1939   0.832   1.092   0.644 -0.4777 -0.7388  0.1829
  647SOL    HW1 1940   0.902   1.136   0.708 -0.5932 -1.5461  1.3723
  647SOL    HW2 1941   0.782   1.010   0.680 -1.7324 -0.9220 -2.1454
  648SOL     OW 1942   0.132   0.242   0.250 -0.3553 -0.7515 -0.5199
  648SOL    HW1 1943   0.160   0.167   0.182  0.7173 -1.4713 -2.5193
  648SOL    HW2 1944   0.132   0.335   0.208 -0.3869 -3.0715 -0.8412
  649SOL     OW 1945   3.017   0.205   0.837 -0.5000  0.2434  0.4547
  649SOL    HW1 1946   3.115   0.167   0.847  0.7739 -0.0253 -2.5451
  649SOL    HW2 1947   3.015   0.301   0.800 -1.9280  2.4181  0.4557
  650SOL     OW 1948   2.712   0.652   1.534 -0.1108 -0.4480 -0.2990
  650SOL    HW1 1949   2.607   0.634   1.536 -0.0384 -1.2632  1.3176
  650SOL    HW2 1950   2.746   0.736   1.481  0.6999 -1.4839  0.5486
  651SOL     OW 1951   0.903   1.530   1.646  0.0264 -0.6240 -0.1498
  651SOL    HW1 1952   0.920   1.624   1.687  1.5843  0.1295 -2.1970
  651SOL    HW2 1953   0.976   1.506   1.579  1.4102 -0.0841 -0.8248
  652SOL     OW 1954   2.395   2.409   2.446  0.1533 -0.7134 -0.4344
  652SOL    HW1 1955   2.303   2.444   2.474  2.0275 -0.3831  1.3500
  652SOL    HW2 1956   2.419   2.442   2.352 -2.3017  1.2023  0.8295
  653SOL     OW 1957   2.703   1.284   0.229 -0.3979  0.4363  0.7549
  653SOL    HW1 1958   2.747   1.354   0.297 -2.6004  2.1749  1.0672
  653SOL    HW2 1959   2.742   1.187   0.250  0.8998  1.5600  3.4422
  654SOL     OW 1960   1.268   2.222   1.287 -0.1448  0.0284 -0.3208
  654SOL    HW1 1961   1.301   2.150   1.350 -0.4872  1.5016 -3.4514
  654SOL    HW2 1962   1.250   2.184   1.192  1.2686 -2.3465  1.2900
  655SOL     OW 1963   0.165   0.931   1.875  0.1211 -0.2313 -0.1670
  655SOL    HW1 1964   0.206   0.851   1.824  1.7650  2.3320 -0.9589
  655SOL    HW2 1965   0.215   1.022   1.855 -0.3715  1.4091 -1.6110
  656SOL     OW 1966   2.550   2.511   2.640 -0.5019 -0.5908 -0.5375
  656SOL    HW1 1967   2.651   2.514   2.610  1.0728 -0.1093 -0.5395
  656SOL    HW2 1968   2.490   2.482   2.563 -0.6065  1.1481 -1.8465
  657SOL     OW 1969   3.018   1.014   1.840  0.1059  0.2688  0.9371
  657SOL    HW1 1970   3.021   1.101   1.890 -0.6997  0.6954 -0.3457
  657SOL    HW2 1971   3.110   0.957   1.845  0.3262 -1.6814 -2.4341
  658SOL     OW 1972   1.703   0.205   2.352  0.0266  0.1137  0.5079
  658SOL    HW1 1973   1.750   0.139   2.416 -1.2415  2.9893 -0.3999
  658SOL    HW2 1974   1.758   0.227   2.263  1.5301 -0.9156 -0.7944
  659SOL     OW 1975   1.377   0.626   2.789 -0.1720 -0.4185 -0.0512
  659SOL    HW1 1976   1.449   0.696   2.764  0.3339  0.3438  5.7101
  659SOL    HW2 1977   1.293   0.668   2.831 -1.9463  1.4650  1.5054
  660SOL     OW 1978   1.404   0.335   1.452  0.0767  0.1339 -0.3288
  660SOL    HW1 1979   1.420   0.368   1.550 -1.4230  2.1918  0.3449
  660SOL    HW2 1980   1.471   0.263   1.427 -1.6976 -2.4674 -3.2927
  661SOL     OW 1981   2.416   1.252   0.668 -0.5382 -0.0846  0.7547
  661SOL    HW1 1982   2.470   1.239   0.575 -1.5109  0.0590 -0.1633
  661SOL    HW2 1983   2.365   1.341   0.678  6.3287 -0.2463  3.5532
  662SOL     OW 1984   1.409   0.409   1.720 -0.3659  0.0708  0.6950
  662SOL    HW1 1985   1.367   0.342   1.788  1.3427 -1.3542  4.4361
  662SOL    HW2 1986   1.416   0.507   1.763  0.0954  1.2725  0.4596
  663SOL     OW 1987   0.866   1.529   2.124  0.3714  0.4842 -0.2000
  663SOL    HW1 1988   0.788   1.590   2.147 -3.8259 -2.1314  1.2171
  663SOL    HW2 1989   0.834   1.467   2.049  0.5628  2.8439  1.9173
  664SOL     OW 1990   1.636   2.082   1.424  0.5930  0.0074 -0.4600
  664SOL    HW1 1991   1.571   2.006   1.464  0.6291  0.5800  2.1662
  664SOL    HW2 1992   1.733   2.056   1.434 -1.2615  1.3111  0.7125
  665SOL     OW 1993   2.308   0.647   1.961 -0.1011  0.5663 -0.0072
  665SOL    HW1 1994   2.280   0.544   1.974 -1.4008 -1.3770 -0.5549
  665SOL    HW2 1995   2.371   0.675   2.037 -1.3959  1.2950 -1.1556
  666SOL     OW 1996   0.511   2.253   0.382  0.1677 -0.2543  0.3269
  666SOL    HW1 1997   0.564   2.333   0.427  1.0622  0.1974  0.4240
  666SOL    HW2 1998   0.408   2.254   0.387 -0.6318  0.8186 -1.3627
  667SOL     OW 1999   1.955   0.254   1.060  0.3396  0.2618  0.0297
  667SOL    HW1 2000   1.962   0.356   1.086  0.1440  1.4160  0.0089
  667SOL    HW2 2001   1.893   0.202   1.131 -3.3628  1.2755  0.6782
  668SOL     OW 2002   2.000   0.488   1.130  0.0516 -0.7271  0.0433
  668SOL    HW1 2003   2.075   0.515   1.066 -0.4112 -0.1589  4.0565
  668SOL    HW2 2004   2.021   0.538   1.224  1.1855  1.6364 -0.6676
  669SOL     OW 2005   3.055   2.190   0.999  0.4155  0.2077 -0.0847
  669SOL    HW1 2006   3.037   2.262   0.919  4.0991 -3.3078 -1.3766
  669SOL    HW2 2007   3.029   2.227   1.096  1.6129  2.4986  1.1820
  670SOL     OW 2008   2.875   2.327   2.128 -0.2468  0.1680  0.4023
  670SOL    HW1 2009   2.805   2.315   2.204 -0.3951  1.2655  0.5974
  670SOL    HW2 2010   2.879   2.415   2.080 -0.5503 -3.9675 -0.2073
  671SOL     OW 2011   1.785   1.787   1.506  0.0733  0.4013 -0.5847
  671SOL    HW1 2012   1.805   1.738   1.418 -2.3313  1.6971 -1.7795
  671SOL    HW2 2013   1.685   1.819   1.501 -1.2136 -0.1870 -0.8316
  672SOL     OW 2014   0.468   0.652   2.504 -0.1570 -0.3052 -0.9304
  672SOL    HW1 2015   0.498   0.640   2.408  1.0477  2.2973  1.5006
  672SOL    HW2 2016   0.380   0.710   2.514 -1.8625  1.1864 -2.0374
  673SOL     OW 2017   0.118   1.239   1.131  0.7820 -0.5538  0.3732
  673SOL    HW1 2018   0.167   1.314   1.183  1.4081 -2.4901 -1.5854
  673SOL    HW2 2019   0.180   1.169   1.091 -1.8995 -1.6035 -1.2012
  674SOL     OW 2020   1.612   3.000   0.318 -0.3770  0.5581 -0.0780
  674SOL    HW1 2021   1.596   3.097   0.350 -1.1152  0.1946 -0.9367
  674SOL    HW2 2022   1.677   2.995   0.244  3.6119 -0.4979  1.5756
  675SOL     OW 2023   1.723   0.847   2.301 -0.5108 -0.4857 -0.0697
  675SOL    HW1 2024   1.824   0.813   2.288  1.1075  0.1889 -1.3707
  675SOL    HW2 2025   1.657   0.773   2.274 -2.0119  1.8992 -2.4171
  676SOL     OW 2026   2.556   1.481   1.916 -0.1360 -0.1042  0.2477
  676SOL    HW1 2027   2.499   1.449   1.838 -0.8759  3.9858 -2.4026
  676SOL    HW2 2028   2.562   1.416   2.002  0.2183 -1.5890 -0.6327
  677SOL     OW 2029   1.926   0.682   0.907 -0.3408  0.0443 -0.1191
  677SOL    HW1 2030   1.854   0.661   0.979  1.4252  0.3378  1.8718
  677SOL    HW2 2031   2.012   0.631   0.926 -1.6249 -0.5323  4.4030
  678SOL     OW 2032   0.083   0.744   1.613 -0.1964  0.0220 -0.7683
  678SOL    HW1 2033   0.177   0.707   1.605  0.4351 -0.2019 -0.1620
  678SOL    HW2 2034   0.028   0.699   1.688  0.7686  2.0674 -1.0495
  679SOL     OW 2035   2.579   1.170   1.191  0.3688  0.0842  0.6133
  679SOL    HW1 2036   2.484   1.194   1.156  0.0470 -0.5139 -2.3821
  679SOL    HW2 2037   2.595   1.071   1.202 -0.6029  2.0241  2.6718
  680SOL     OW 2038   2.830   0.452   1.704 -0.4857 -0.4211 -0.8479
  680SOL    HW1 2039   2.761   0.522   1.665 -0.3089 -0.3686 -1.9688
  680SOL    HW2 2040   2.917   0.500   1.743  2.9695 -1.3021  2.6507
  681SOL     OW 2041   2.960   0.056   1.587 -0.1171 -0.0357  0.4860
  681SOL    HW1 2042   3.002   0.020   1.496  2.1123 -0.1854 -2.9510
  681SOL    HW2 2043   2.871   0.106   1.577 -2.1000 -0.3538 -0.8049
  682SOL     OW 2044   0.709   0.027   1.332  0.3655 -0.1306  0.2156
  682SOL    HW1 2045   0.627  -0.040   1.356 -0.5899 -0.4392  0.7018
  682SOL    HW2 2046   0.752   0.006   1.238  1.1532 -1.3757  0.2236
  683SOL     OW 2047   1.382   0.177   2.144  0.0754  0.0059 -0.0390
  683SOL    HW1 2048   1.375   0.212   2.242  1.3668  0.4274  0.4732
  683SOL    HW2 2049   1.455   0.236   2.092  2.3928  2.2851  1.0858
  684SOL     OW 2050   1.463   2.093   0.545  0.3132  0.1266 -0.1586
  684SOL    HW1 2051   1.490   2.021   0.612  0.5068 -2.0345 -3.1973
  684SOL    HW2 2052   1.377   2.059   0.491 -1.6545 -0.5030 -1.3608
  685SOL     OW 2053   2.205   2.062   1.958 -0.3626 -0.0402 -0.3626
  685SOL    HW1 2054   2.239   2.069   1.855 -2.7273 -0.0595  1.7405
  685SOL    HW2 2055   2.277   2.084   2.029 -1.6403  1.0939  0.5965
  686SOL     OW 2056   1.462   1.828   2.819  1.0601  0.5976 -0.3817
  686SOL    HW1 2057   1.527   1.821   2.901 -0.8661  2.1008  0.3471
  686SOL    HW2 2058   1.364   1.817   2.852 -0.0168 -0.3865  0.0564
  687SOL     OW 2059   1.307   2.456   1.968  0.5975  0.5500  0.1084
  687SOL    HW1 2060   1.333   2.369   1.915 -0.8404 -3.2851  0.7925
  687SOL    HW2 2061   1.368   2.476   2.049 -0.8384  0.2115 -1.0068
  688SOL     OW 2062   2.013   1.519   1.785 -0.6276  0.2709  0.1453
  688SOL    HW1 2063   2.103   1.570   1.814  2.2585  2.0507 -0.4710
  688SOL    HW2 2064   2.016   1.489   1.685 -0.4251 -0.1443 -0.3711
  689SOL     OW 2065   2.395   1.089   2.768 -0.0169 -0.1689  0.3167
  689SOL    HW1 2066   2.302   1.046   2.766 -0.6176 -0.5001 -2.0106
  689SOL    HW2 2067   2.440   1.099   2.858  1.1760  0.9409 -0.0995
  690SOL     OW 2068   2.235   2.804   0.013 -0.2656 -0.1237 -0.2113
  690SOL    HW1 2069   2.153   2.761  -0.039 -3.6467 -0.4210 -3.0523
  690SOL    HW2 2070   2.221   2.812   0.111 -0.2455  2.9088  0.9951
  691SOL     OW 2071   2.574   0.394   2.113  0.2897  0.0845  1.1108
  691SOL    HW1 2072   2.648   0.320   2.118 -0.4821 -1.3211 -0.2925
  691SOL    HW2 2073   2.598   0.465   2.042  1.2183 -0.5970 -2.3093
  692SOL     OW 2074   2.671   1.211   0.796 -0.4254  0.4447 -0.7064
  692SOL    HW1 2075   2.575   1.241   0.766 -0.5802 -2.3765  1.8081
  692SOL    HW2 2076   2.722   1.279   0.854 -2.2020  0.4979 -1.5455
  693SOL     OW 2077   2.859   2.991   0.549  0.1724 -0.7298  0.2381
  693SOL    HW1 2078   2.814   3.035   0.630  0.6647  0.5488 -1.0608
  693SOL    HW2 2079   2.823   3.037   0.463 -2.5714 -0.7091 -0.1245
  694SOL     OW 2080   2.420   2.203   0.104 -0.0872  0.4027 -0.3534
  694SOL    HW1 2081   2.411   2.303   0.116 -2.9582  1.5151 -1.0358
  694SOL    HW2 2082   2.330   2.158   0.093  2.5474 -0.9171 -1.4384
  695SOL     OW 2083   0.503   2.980   1.425  0.8519  0.3626  0.2502
  695SOL    HW1 2084   0.428   2.911   1.445  1.7714 -0.1910 -1.3560
  695SOL    HW2 2085   0.482   3.071   1.471 -1.6795  1.0325 -2.9379
  696SOL     OW 2086   2.876   2.075   0.766 -0.0520 -0.1717  0.2464
  696SOL    HW1 2087   2.870   1.982   0.806 -1.1894 -0.0207  1.2070
  696SOL    HW2 2088   2.863   2.066   0.662  1.2477 -1.1207 -0.2006
  697SOL     OW 2089   1.665   1.907   1.843 -0.0407  0.0328  0.5614
  697SOL    HW1 2090   1.758   1.861   1.827  0.0793 -0.1773  0.6247
  697SOL    HW2 2091   1.665   2.007   1.815  4.8309  0.5693  2.7871
  698SOL     OW 2092   2.884   0.421   2.729  0.5368 -0.2064  0.1569
  698SOL    HW1 2093   2.892   0.395   2.631 -0.9835 -0.4474  1.2249
  698SOL    HW2 2094   2.908   0.347   2.792 -2.1694  1.8473 -1.7173
  699SOL     OW 2095   1.574   0.036   2.931  0.1236  0.0063  0.0686
  699SOL    HW1 2096   1.509  -0.036   2.897 -0.6020  0.0825  0.6878
  699SOL    HW2 2097   1.627   0.089   2.860 -0.4032  0.5059  2.4615
  700SOL     OW 2098   1.037   2.300   1.417  0.3348  0.3566 -0.8807
  700SOL    HW1 2099   1.121   2.246   1.390  2.0074  3.0734 -0.7394
  700SOL    HW2 2100   0.951   2.268   1.367  2.2063  0.6110  3.1318
  701SOL     OW 2101   1.923   2.878  -0.001  0.0619 -0.2446  0.5100
  701SOL    HW1 2102   1.856   2.838   0.063  0.8855  2.5932  0.8660
  701SOL    HW2 2103   1.951   2.973   0.017 -1.2755 -0.7382 -0.6810
  702SOL     OW 2104   2.065   1.315   1.941 -0.1468 -0.0430 -0.2920
  702SOL    HW1 2105   2.166   1.291   1.938 -0.7685  0.3733 -2.8095
  702SOL    HW2 2106   2.026   1.375   1.866 -0.8214 -0.3142  1.3413
  703SOL     OW 2107   1.944   0.888   1.470 -0.3330  0.1316 -0.1891
  703SOL    HW1 2108   1.940   0.795   1.516 -0.0836  0.8594  2.0595
  703SOL    HW2 2109   1.993   0.956   1.526  0.0279 -0.0294 -1.1040
  704SOL     OW 2110   0.292   2.023   1.708  0.0553 -0.6006  1.3183
  704SOL    HW1 2111   0.356   1.961   1.762 -2.1184  0.0313 -2.1695
  704SOL    HW2 2112   0.338   2.111   1.681 -0.6838 -0.3133 -0.0855
  705SOL     OW 2113   2.489   1.550   0.875  0.8533  0.3916  0.5602
  705SOL    HW1 2114   2.436   1.472   0.835 -0.2112 -0.8565 -0.7950
  705SOL    HW2 2115   2.585   1.522   0.900  0.3949  1.5058  0.0570
  706SOL     OW 2116   0.711   1.717   1.870  0.3981  0.2657  0.2857
  706SOL    HW1 2117   0.730   1.614   1.872 -0.0588 -0.0997 -0.3166
  706SOL    HW2 2118   0.778   1.769   1.919 -2.9079 -2.7825  0.5551
  707SOL     OW 2119   2.304   1.191   1.949 -0.1312 -0.6056 -0.8348
  707SOL    HW1 2120   2.392   1.192   2.003  1.1463 -0.8729 -2.3465
  707SOL    HW2 2121   2.272   1.097   1.916 -0.0030  0.5411  1.9269
  708SOL     OW 2122   2.963   0.520   3.018 -0.2524  0.1682 -0.1003
  708SOL    HW1 2123   2.954   0.563   2.927 -1.7011 -1.2087  1.3050
  708SOL    HW2 2124   2.944   0.420   3.004  1.6355  2.6889  2.5998
  709SOL     OW 2125   1.878   1.879   0.343 -0.5749 -0.2379 -0.4938
  709SOL    HW1 2126   1.904   1.981   0.347 -2.3500  0.9550 -1.1212
  709SOL    HW2 2127   1.849   1.844   0.248 -0.2782 -2.1407  1.4416
  710SOL     OW 2128   1.725   1.620   2.414 -0.4849 -0.0304 -0.3720
  710SOL    HW1 2129   1.792   1.597   2.336 -0.9945 -1.9675 -2.4671
  710SOL    HW2 2130   1.718   1.558   2.497  3.4463  0.5847 -1.1710
  711SOL     OW 2131   2.574   2.903   1.025 -0.1689  0.1369  0.7658
  711SOL    HW1 2132   2.553   3.001   1.010  1.5446 -0.6974  0.4282
  711SOL    HW2 2133   2.676   2.895   1.049 -0.9213 -1.4392  0.6724
  712SOL     OW 2134   1.407   2.129   1.966  0.0460  0.3272  0.4222
  712SOL    HW1 2135   1.506   2.157   1.981  2.8538 -0.8666  1.0306
  712SOL    HW2 2136   1.385   2.116   1.865 -0.6262 -2.6137 -2.1845
  713SOL     OW 2137   2.774   1.477   2.528  0.1954 -0.4882 -0.5115
  713SOL    HW1 2138   2.792   1.381   2.496 -2.0116 -0.6656 -0.0539
  713SOL    HW2 2139   2.683   1.498   2.572  0.2687  0.1277 -0.4128
  714SOL     OW 2140   2.636   0.436   2.407  0.6428  0.1787  0.2261
  714SOL    HW1 2141   2.567   0.418   2.485 -0.9652 -1.0904 -0.2372
  714SOL    HW2 2142   2.600   0.419   2.308 -0.4515  1.5349 -4.8812
  715SOL     OW 2143   1.543   2.100   1.158 -0.4418 -0.4651  0.1618
  715SOL    HW1 2144   1.452   2.142   1.136  1.5890 -2.5580 -0.9890
  715SOL    HW2 2145   1.580   2.118   1.255 -0.1205  2.0275  1.8886
  716SOL     OW 2146   1.198   0.150   1.490 -0.5813 -0.5773  0.3815
  716SOL    HW1 2147   1.111   0.161   1.429  0.2000  0.8383  2.1003
  716SOL    HW2 2148   1.265   0.237   1.481 -1.8953 -3.1714 -1.1273
  717SOL     OW 2149   1.136   0.531   1.603  0.1354  0.6657  0.5231
  717SOL    HW1 2150   1.221   0.581   1.623  1.7890 -3.9193 -3.6275
  717SOL    HW2 2151   1.138   0.505   1.502 -1.1441  1.7616 -0.6152
  718SOL     OW 2152   0.662   0.890   0.972 -0.2064  0.2781  0.1856
  718SOL    HW1 2153   0.647   0.901   0.868  0.3559  0.1972  0.8539
  718SOL    HW2 2154   0.686   0.979   1.012  0.3444 -0.4596 -3.2944
  719SOL     OW 2155   0.612   1.726   2.310  0.6993  0.0364  0.1606
  719SOL    HW1 2156   0.708   1.747   2.352  4.5021  3.2119  1.4866
  719SOL    HW2 2157   0.580   1.635   2.343  0.1250  2.3289 -0.9563
  720SOL     OW 2158   2.217   1.126   0.281 -0.0361 -0.0025  0.0973
  720SOL    HW1 2159   2.261   1.045   0.228 -0.8789  0.7920  2.4407
  720SOL    HW2 2160   2.187   1.102   0.380  1.7629  1.0774  1.4606
  721SOL     OW 2161   2.239   3.038   2.063 -0.0899  0.3026  0.4407
  721SOL    HW1 2162   2.172   3.018   1.987  0.0111  0.7949 -2.6714
  721SOL    HW2 2163   2.189   3.053   2.155  1.9423 -1.6633  2.1962
  722SOL     OW 2164   2.311   1.633   0.459 -0.4041 -0.5823 -0.2491
  722SOL    HW1 2165   2.370   1.612   0.379  0.9836  0.8914 -1.7464
  722SOL    HW2 2166   2.215   1.655   0.425 -1.5696 -0.1168 -0.0102
  723SOL     OW 2167   2.670   2.699   1.904 -0.1667 -0.7449 -0.5254
  723SOL    HW1 2168   2.692   2.800   1.925 -0.2183  0.9858  2.2145
  723SOL    HW2 2169   2.572   2.676   1.925 -2.2477 -0.6728 -0.3234
  724SOL     OW 2170   0.494   2.492   2.387  0.1607  0.0113  0.1678
  724SOL    HW1 2171   0.393   2.466   2.397 -0.7950  1.5312  1.5578
  724SOL    HW2 2172   0.543   2.484   2.477  2.2412 -3.7689  1.3508
  725SOL     OW 2173   2.356   2.712   1.538  0.2046 -0.1215 -0.7595
  725SOL    HW1 2174   2.415   2.776   1.479  1.1517  1.8526 -4.0652
  725SOL    HW2 2175   2.395   2.616   1.554 -2.2597 -3.7038  0.2103
  726SOL     OW 2176   2.469   2.311   0.725  0.6851  0.5656  0.5929
  726SOL    HW1 2177   2.502   2.403   0.688 -1.0327 -1.8585  1.7031
  726SOL    HW2 2178   2.433   2.250   0.654  1.1269 -2.9104  0.0689
  727SOL     OW 2179   0.152   3.085   0.119  0.2074  0.2494  0.4605
  727SOL    HW1 2180   0.237   3.102   0.060 -1.5366  1.4030 -0.4531
  727SOL    HW2 2181   0.067   3.069   0.061 -2.2068 -1.5462 -0.0068
  728SOL     OW 2182   2.899   0.683   0.874  0.2862 -0.1609 -0.1241
  728SOL    HW1 2183   2.845   0.656   0.789 -3.0101  0.4696  2.4190
  728SOL    HW2 2184   2.854   0.641   0.955  0.3604 -0.6090  0.2291
  729SOL     OW 2185   0.031   2.539   0.736 -0.0104  0.4504 -0.1308
  729SOL    HW1 2186   0.046   2.475   0.810 -1.7247  0.9226 -2.8722
  729SOL    HW2 2187   0.104   2.541   0.664  0.7478 -2.1322 -0.7157
  730SOL     OW 2188   2.540   0.656   0.808  0.5700  0.0718 -0.0122
  730SOL    HW1 2189   2.508   0.752   0.808 -0.9262 -0.1955  0.5918
  730SOL    HW2 2190   2.605   0.628   0.732 -3.2840  0.4649  0.3348
  731SOL     OW 2191   0.017   2.178   2.423  0.3624  0.1880 -0.0242
  731SOL    HW1 2192   0.035   2.241   2.502 -1.6075 -0.5004 -0.0211
  731SOL    HW2 2193  -0.083   2.169   2.401  1.2284  0.6611  1.7198
  732SOL     OW 2194   1.203   2.807   1.986  0.2340  0.2430 -0.1657
  732SOL    HW1 2195   1.236   2.751   2.067 -0.7755 -0.3428  0.7687
  732SOL    HW2 2196   1.196   2.754   1.896 -1.2478 -0.6144 -0.7435
  733SOL     OW 2197   3.074   0.618   2.223 -0.1318  0.0873 -0.3054
  733SOL    HW1 2198   3.158   0.668   2.176  0.2647  2.4272 -0.1788
  733SOL    HW2 2199   3.024   0.550   2.164  0.2161  0.6216 -2.3138
  734SOL     OW 2200   1.436   0.351   2.681 -0.9073 -0.4678  0.0165
  734SOL    HW1 2201   1.425   0.455   2.686  1.4305 -1.8708  2.5718
  734SOL    HW2 2202   1.357   0.302   2.728 -0.4293  2.4044 -1.9897
  735SOL     OW 2203   2.903   2.619   2.274  0.2331  0.0859  0.0610
  735SOL    HW1 2204   2.878   2.624   2.175  0.0281 -2.0898  3.1654
  735SOL    HW2 2205   2.983   2.678   2.288 -0.9903  0.2169 -0.6628
  736SOL     OW 2206   0.924   0.452   2.518  0.1858  0.0875  0.5172
  736SOL    HW1 2207   0.829   0.498   2.522  0.5637  2.6579 -1.8608
  736SOL    HW2 2208   0.916   0.359   2.465  0.8267  0.9561  2.3771
  737SOL     OW 2209   2.614   0.504   2.823  0.2739  0.1447 -0.1988
  737SOL    HW1 2210   2.600   0.468   2.921  0.2458 -1.4141  0.9244
  737SOL    HW2 2211   2.713   0.503   2.794 -2.6642  0.1114 -1.7574
  738SOL     OW 2212   1.741   1.263   2.892 -0.1397  0.0863  0.0226
  738SOL    HW1 2213   1.837   1.282   2.849  2.0264 -1.9893 -0.4014
  738SOL    HW2 2214   1.697   1.185   2.837 -0.6836 -2.1986 -0.0702
  739SOL     OW 2215   1.775   0.703   0.666 -0.2821 -0.1141  0.2369
  739SOL    HW1 2216   1.811   0.698   0.765 -2.9751  0.1560  0.6160
  739SOL    HW2 2217   1.791   0.615   0.617 -0.4856  1.6003  1.6029
  740SOL     OW 2218   1.919   1.943   2.380  0.2297 -0.4875  0.5351
  740SOL    HW1 2219   1.997   1.879   2.408 -1.9391  2.4068 -2.1144
  740SOL    HW2 2220   1.853   1.910   2.301 -1.2667  0.2626 -0.2749
  741SOL     OW 2221   2.600   0.100   2.500 -0.4900  0.4155  0.6160
  741SOL    HW1 2222   2.692   0.053   2.491 -0.7747 -1.3784 -0.9511
  741SOL    HW2 2223   2.563   0.127   2.405  0.4476 -0.2236  1.9137
  742SOL     OW 2224   2.161   1.372   0.139 -0.0815 -0.3355  0.4820
  742SOL    HW1 2225   2.070   1.396   0.101  3.1570  1.7666  0.6584
  742SOL    HW2 2226   2.154   1.311   0.216 -0.6217 -0.0713 -2.5405
  743SOL     OW 2227   1.763   0.624   2.619 -0.3946  0.1630  0.6523
  743SOL    HW1 2228   1.764   0.568   2.523 -0.6228  0.8517 -2.8335
  743SOL    HW2 2229   1.678   0.684   2.625  1.5108 -2.5842 -2.2771
  744SOL     OW 2230   2.700   2.014   0.045 -0.0524 -0.2235  0.5345
  744SOL    HW1 2231   2.640   2.011   0.133  2.1515  1.3554  1.5818
  744SOL    HW2 2232   2.691   1.936  -0.021  1.0797  3.0063  0.7260
  745SOL     OW 2233   2.167   2.651   2.164 -0.4192 -0.1830 -0.1858
  745SOL    HW1 2234   2.064   2.660   2.152  0.7654 -0.6141  0.0412
  745SOL    HW2 2235   2.203   2.682   2.258 -4.3639  1.0145 -0.9121
  746SOL     OW 2236   0.010   2.654   1.728 -0.1578 -0.2258 -0.0827
  746SOL    HW1 2237   0.097   2.598   1.732 -0.0333 -0.5778  0.9252
  746SOL    HW2 2238   0.011   2.719   1.813  2.3748  0.0537  0.3143
  747SOL     OW 2239   3.099   1.763   1.646 -0.2728 -0.5952  0.0839
  747SOL    HW1 2240   3.010   1.725   1.606 -3.9284 -2.2402 -1.7840
  747SOL    HW2 2241   3.166   1.778   1.570 -0.0912 -1.2350  0.7098
  748SOL     OW 2242   1.830   2.727   2.903 -0.0978 -0.3624  0.2045
  748SOL    HW1 2243   1.877   2.798   2.971  0.1397  1.3552 -0.8679
  748SOL    HW2 2244   1.727   2.742   2.896 -2.8386 -2.7902  1.3081
  749SOL     OW 2245   1.363   3.053   0.851 -0.1496  0.4731 -0.0189
  749SOL    HW1 2246   1.279   2.987   0.835 -2.7064 -5.3902 -0.2018
  749SOL    HW2 2247   1.446   3.023   0.796 -2.6231 -0.9668  2.9346
  750SOL     OW 2248   2.293   0.190   1.874  0.2331  0.0815 -0.1292
  750SOL    HW1 2249   2.311   0.242   1.788 -0.7938  0.2591 -0.2647
  750SOL    HW2 2250   2.293   0.251   1.954  0.1999 -1.8618 -2.5484
  751SOL     OW 2251   0.783   2.086   2.846 -0.2333 -1.1217 -0.4651
  751SOL    HW1 2252   0.821   2.101   2.944 -1.1762 -0.2708  1.4478
  751SOL    HW2 2253   0.680   2.071   2.848 -2.0139 -2.3707  0.5564
  752SOL     OW 2254   1.317   0.813   1.270  0.2570  0.5493  0.2016
  752SOL    HW1 2255   1.393   0.883   1.268 -1.6770  1.2993 -0.7446
  752SOL    HW2 2256   1.346   0.727   1.321  2.4378 -0.5724 -0.0123
  753SOL     OW 2257   0.948   2.576   1.834  0.5881  0.1395  0.2761
  753SOL    HW1 2258   1.046   2.604   1.812 -0.2978 -1.0578 -0.4224
  753SOL    HW2 2259   0.883   2.655   1.858  0.4235  1.8494 -0.2060
  754SOL     OW 2260   1.154   1.233   3.048  0.0437 -0.5025 -0.1194
  754SOL    HW1 2261   1.238   1.179   3.012  1.1365  1.3021  0.4410
  754SOL    HW2 2262   1.168   1.337   3.045 -1.9293 -2.5885 -0.6525
  755SOL     OW 2263   1.982   0.471   2.230  0.3723  0.2821  0.2992
  755SOL    HW1 2264   2.046   0.387   2.248 -2.4298  1.5373  1.2958
  755SOL    HW2 2265   1.904   0.472   2.299 -1.6911  0.0201  0.3754
  756SOL     OW 2266   2.583   0.994   2.982  0.0012 -0.4684 -0.4514
  756SOL    HW1 2267   2.685   0.977   3.009  0.0337 -1.2433  1.8116
  756SOL    HW2 2268   2.521   0.917   3.013  0.2498 -3.2010  1.6889
  757SOL     OW 2269   0.131   0.493   1.998 -0.4271  0.0088  0.7164
  757SOL    HW1 2270   0.203   0.436   1.951  0.0006  1.5619 -0.2976
  757SOL    HW2 2271   0.053   0.439   2.045  3.1136  1.7869  1.7690
  758SOL     OW 2272   2.193   0.091   1.512 -0.1120 -0.0492  0.1282
  758SOL    HW1 2273   2.162  -0.008   1.528 -1.5854 -0.4579  1.0692
  758SOL    HW2 2274   2.260   0.103   1.435 -2.5832 -0.0413  0.8727
  759SOL     OW 2275   1.677   0.111   0.059 -0.4168  0.5215  0.1889
  759SOL    HW1 2276   1.628   0.078  -0.031 -1.7219 -1.1351  0.0813
  759SOL    HW2 2277   1.778   0.090   0.068  1.5117  0.6075 -0.4148
  760SOL     OW 2278   2.544   2.070   2.831 -0.7713 -0.6504 -0.0869
  760SOL    HW1 2279   2.624   2.013   2.857  0.9398  1.1917 -0.7691
  760SOL    HW2 2280   2.551   2.166   2.873  1.0762  0.2875 -0.9411
  761SOL     OW 2281   1.911   1.800   1.754 -0.2119 -0.0698 -0.1160
  761SOL    HW1 2282   1.935   1.703   1.781 -0.1548 -0.5728 -1.1985
  761SOL    HW2 2283   1.864   1.801   1.660  0.3639 -0.8845 -3.1479
  762SOL     OW 2284   0.490   2.368   0.951 -0.0911 -0.1237 -0.0847
  762SOL    HW1 2285   0.532   2.348   0.860 -1.5495  1.6087  2.0511
  762SOL    HW2 2286   0.560   2.416   1.016 -0.3050 -1.1907  0.3012
  763SOL     OW 2287   2.103   1.569   2.994  0.2475  0.1033  0.4823
  763SOL    HW1 2288   2.186   1.508   2.979 -0.3194 -0.1357  1.1897
  763SOL    HW2 2289   2.015   1.528   3.019 -1.5098 -0.0382 -0.6611
  764SOL     OW 2290   0.684   0.552   0.724 -0.3492 -0.3069  0.5397
  764SOL    HW1 2291   0.591   0.499   0.727 -2.7965 -2.2789  0.1306
  764SOL    HW2 2292   0.747   0.526   0.801  0.5155 -0.3565 -0.5107
  765SOL     OW 2293   0.770   0.253   0.782 -0.0701 -0.3141  0.5932
  765SOL    HW1 2294   0.803   0.285   0.685 -0.9609  1.9937 -2.4143
  765SOL    HW2 2295   0.787   0.327   0.850 -0.6818 -3.6425 -5.1465
  766SOL     OW 2296   2.888   2.163   3.002 -0.2121 -0.0267 -0.3496
  766SOL    HW1 2297   2.807   2.117   3.049  0.7832 -0.8424 -1.6163
  766SOL    HW2 2298   2.931   2.241   3.053 -0.6972  1.7856  0.2005
  767SOL     OW 2299   2.799   1.674   0.576 -0.5176  0.2274 -0.2201
  767SOL    HW1 2300   2.704   1.675   0.610  0.7873 -0.4394  1.0562
  767SOL    HW2 2301   2.872   1.707   0.643  0.8136  0.7422  2.5867
  768SOL     OW 2302   1.032   0.148   0.243 -0.0714 -0.4224 -0.2158
  768SOL    HW1 2303   0.979   0.182   0.330 -0.2464  0.6395  1.2373
  768SOL    HW2 2304   1.136   0.154   0.241  1.7402 -2.5353  0.1075
  769SOL     OW 2305   1.121   1.878   2.329 -0.4069  0.8196  0.1943
  769SOL    HW1 2306   1.021   1.866   2.345  0.7576  0.2938  0.7696
  769SOL    HW2 2307   1.179   1.833   2.406 -0.5645 -1.2154  0.3146
  770SOL     OW 2308   0.166   1.135   2.314  0.2745  0.1734  0.0502
  770SOL    HW1 2309   0.184   1.192   2.397 -1.5381 -1.7088 -0.9688
  770SOL    HW2 2310   0.071   1.091   2.315 -0.3014  0.9393 -0.4558
  771SOL     OW 2311   3.063   2.829   1.942  0.2977  0.1598 -0.0155
  771SOL    HW1 2312   3.019   2.859   1.859  0.0072  0.7966  2.8372
  771SOL    HW2 2313   3.008   2.843   2.028  0.3731  3.7776  0.6242
  772SOL     OW 2314   2.289   0.202   2.858 -0.6377 -0.5280  0.0356
  772SOL    HW1 2315   2.357   0.140   2.812 -1.8905  0.2865 -0.0935
  772SOL    HW2 2316   2.314   0.244   2.947 -0.1525  1.2621  0.8560
  773SOL     OW 2317   0.626   2.137   2.377  0.5518  0.4283  0.0250
  773SOL    HW1 2318   0.623   2.199   2.293  1.0944 -4.6834 -0.7905
  773SOL    HW2 2319   0.536   2.113   2.427  0.6725 -1.6778 -2.0491
  774SOL     OW 2320   2.119   3.082   2.586 -0.2087 -0.3634 -0.4905
  774SOL    HW1 2321   2.125   3.175   2.636  0.8762 -1.6539 -1.1729
  774SOL    HW2 2322   2.144   3.002   2.652 -0.2594 -1.2787  0.5939
  775SOL     OW 2323   2.557   2.986   2.229  0.0447  0.1501  0.0235
  775SOL    HW1 2324   2.502   3.073   2.201 -0.5809 -0.3804 -0.2159
  775SOL    HW2 2325   2.606   2.987   2.317  0.2888  1.6192 -1.9395
  776SOL     OW 2326   3.092   1.259   0.189  0.6413 -0.5645 -0.2350
  776SOL    HW1 2327   3.035   1.218   0.115 -1.1073 -0.3453  1.5941
  776SOL    HW2 2328   3.046   1.247   0.284 -0.4183 -1.9831  2.0966
  777SOL     OW 2329   0.424   2.930   0.395 -0.1279 -0.4443 -0.4029
  777SOL    HW1 2330   0.320   2.915   0.386 -0.8277 -2.4167 -0.4509
  777SOL    HW2 2331   0.484   2.884   0.324  0.1070  0.2599 -2.0913
  778SOL     OW 2332   1.324   1.963   0.191 -0.4658  0.6911  0.3461
  778SOL    HW1 2333   1.305   1.982   0.293  0.5540 -0.7915 -1.7053
  778SOL    HW2 2334   1.355   2.051   0.142  1.7243 -0.3932 -0.2754
  779SOL     OW 2335   0.187   0.898   0.461  0.0685 -0.0471  0.1700
  779SOL    HW1 2336   0.137   0.808   0.437  1.6031  1.6808 -0.6887
  779SOL    HW2 2337   0.154   0.949   0.544 -1.8383 -0.2607  2.1255
  780SOL     OW 2338   0.158   0.322   2.417 -0.1457  0.0273 -0.0193
  780SOL    HW1 2339   0.116   0.412   2.446 -0.9389  0.5183  1.0884
  780SOL    HW2 2340   0.248   0.334   2.359 -0.5533  1.9573 -0.7444
  781SOL     OW 2341   0.674   1.650   1.513  0.1660  0.1264  0.2954
  781SOL    HW1 2342   0.724   1.579   1.567 -0.3643 -0.5606 -1.1917
  781SOL    HW2 2343   0.569   1.637   1.520 -1.6754 -0.6441 -1.0325
  782SOL     OW 2344   2.600   0.148   0.930  0.4033  0.1738 -0.0318
  782SOL    HW1 2345   2.564   0.179   0.835 -0.6560 -0.9229 -0.7136
  782SOL    HW2 2346   2.567   0.200   1.016 -2.1310  2.0007  2.1641
  783SOL     OW 2347   2.746   0.684   2.443  0.0319 -0.1990 -0.1937
  783SOL    HW1 2348   2.814   0.672   2.517 -1.9075  0.6076 -3.2172
  783SOL    HW2 2349   2.679   0.604   2.432  3.3435  2.5554 -0.2530
  784SOL     OW 2350   1.446   2.188   0.060  0.8303  0.0026 -0.1456
  784SOL    HW1 2351   1.486   2.276   0.104 -1.1918 -2.0947  0.8430
  784SOL    HW2 2352   1.429   2.200  -0.039  3.2690  3.3931 -1.6516
  785SOL     OW 2353   2.071   0.300   0.005  0.0388 -0.2156  0.7658
  785SOL    HW1 2354   1.998   0.297   0.075  3.2746  0.5770  0.3693
  785SOL    HW2 2355   2.097   0.391  -0.042  0.6409 -1.2688  0.7383
  786SOL     OW 2356   2.033   2.197   2.240  0.8220 -0.2402 -0.4659
  786SOL    HW1 2357   1.990   2.112   2.277  0.3562 -0.2784  1.8722
  786SOL    HW2 2358   2.132   2.191   2.210 -1.8202  2.8761  4.5947
  787SOL     OW 2359   1.332   0.524   0.912  0.2993 -0.6016 -0.1143
  787SOL    HW1 2360   1.326   0.610   0.963 -0.0632 -0.4806  1.4791
  787SOL    HW2 2361   1.406   0.529   0.841 -1.6060 -0.1927  1.8602
  788SOL     OW 2362   1.224   0.403   0.076 -0.2566 -0.0411  0.1873
  788SOL    HW1 2363   1.136   0.366   0.039 -0.8124 -0.3772  1.3003
  788SOL    HW2 2364   1.228   0.500   0.111  1.1728 -0.3189  1.7947
  789SOL     OW 2365   2.555   0.096   1.903 -0.2752  0.4101 -0.1447
  789SOL    HW1 2366   2.463   0.120   1.868  4.0561  0.4118  1.7650
  789SOL    HW2 2367   2.571  -0.007   1.882  1.3847 -1.1544 -0.2417
  790SOL     OW 2368   2.620   2.774   0.773 -0.5054  0.5331  0.2700
  790SOL    HW1 2369   2.684   2.796   0.689  2.0206  1.7845 -2.2005
  790SOL    HW2 2370   2.612   2.853   0.841  1.6591  1.9009 -0.6800
  791SOL     OW 2371   1.927   1.210   0.266 -0.2295  0.8125 -0.1579
  791SOL    HW1 2372   1.833   1.167   0.280 -2.4651  1.2840 -0.8541
  791SOL    HW2 2373   2.012   1.146   0.271  1.2854 -3.7554 -1.5587
  792SOL     OW 2374   0.403   1.757   2.137  0.5566 -0.1072  0.3606
  792SOL    HW1 2375   0.497   1.757   2.187  0.1513 -0.4834  0.3533
  792SOL    HW2 2376   0.321   1.773   2.201  1.0810  3.4150 -0.8040
  793SOL     OW 2377   2.127   1.560   2.106  0.4527  0.6706  0.4359
  793SOL    HW1 2378   2.203   1.624   2.077  1.7084  0.9334  2.2307
  793SOL    HW2 2379   2.141   1.461   2.078 -0.8423  0.4082  0.5731
  794SOL     OW 2380   0.569   1.435   2.339 -0.4189 -0.6155  0.1034
  794SOL    HW1 2381   0.545   1.413   2.240  0.7523  1.8880  0.9430
  794SOL    HW2 2382   0.496   1.474   2.400  0.5622 -4.2639  0.4111
  795SOL     OW 2383   2.529   2.262   1.811 -0.3414  0.0308  0.2673
  795SOL    HW1 2384   2.536   2.261   1.915 -1.0461  1.4721 -2.3679
  795SOL    HW2 2385   2.454   2.197   1.777  0.2319  0.4917  2.0102
  796SOL     OW 2386   3.097   1.104   2.694  0.1382 -0.0405 -0.3022
  796SOL    HW1 2387   2.994   1.127   2.685 -0.8006  0.1820 -0.5572
  796SOL    HW2 2388   3.149   1.131   2.781 -1.5294  0.7815  0.3130
  797SOL     OW 2389   0.769   0.678   1.397 -0.5441 -0.2260 -0.1966
  797SOL    HW1 2390   0.831   0.737   1.454 -0.2170 -0.1943 -0.5206
  797SOL    HW2 2391   0.689   0.734   1.361  1.0279  1.1708  0.5168
  798SOL     OW 2392   1.321   0.357   1.131 -0.6910 -0.3385 -0.2257
  798SOL    HW1 2393   1.395   0.372   1.197 -2.6623 -2.8760 -3.8679
  798SOL    HW2 2394   1.336   0.413   1.048  0.4726  0.5435 -0.4194
  799SOL     OW 2395   1.968   2.719   1.024 -0.1480 -0.3963  0.8358
  799SOL    HW1 2396   1.880   2.699   1.082 -0.1882  1.7193 -0.4588
  799SOL    HW2 2397   1.951   2.694   0.920 -2.3944  1.3316 -0.2679
  800SOL     OW 2398   3.036   0.602   1.806  0.1385  0.2350  0.7031
  800SOL    HW1 2399   3.005   0.674   1.872 -0.9552 -1.0736 -1.2064
  800SOL    HW2 2400   3.106   0.534   1.840 -1.2745  0.9764 -0.7368
  801SOL     OW 2401   1.966   2.257   0.087  0.4094  0.4449 -0.1412
  801SOL    HW1 2402   1.894   2.225   0.017 -0.6477  0.2106 -0.5716
  801SOL    HW2 2403   2.046   2.191   0.090 -2.0028 -3.9893 -0.1007
  802SOL     OW 2404   0.713   0.820   2.569  0.1040  0.1590  0.0115
  802SOL    HW1 2405   0.771   0.836   2.481  1.8902  1.8629  1.4603
  802SOL    HW2 2406   0.620   0.787   2.556  1.7223  0.8165 -1.5958
  803SOL     OW 2407   0.955   0.052   0.885 -0.0142  0.4885 -0.0628
  803SOL    HW1 2408   1.034   0.109   0.911 -1.8738 -1.9273 -1.9886
  803SOL    HW2 2409   0.895   0.111   0.826 -0.1771  0.9797  0.6924
  804SOL     OW 2410   0.275   0.033   2.155  0.2749 -0.1401 -0.5271
  804SOL    HW1 2411   0.219   0.113   2.192 -1.4282  0.2107  1.7591
  804SOL    HW2 2412   0.241   0.012   2.060 -0.4696  1.0928 -2.7099
  805SOL     OW 2413   2.437   0.249   0.332 -0.1631  0.3099  0.5281
  805SOL    HW1 2414   2.532   0.266   0.290  1.3972 -0.7424 -0.4082
  805SOL    HW2 2415   2.359   0.303   0.280 -2.4225  0.6537  0.4326
  806SOL     OW 2416   0.629   2.400   1.654 -0.3463  0.9114 -0.2293
  806SOL    HW1 2417   0.639   2.499   1.685  0.1991  0.0047  3.1495
  806SOL    HW2 2418   0.717   2.354   1.617  0.9001  1.2333 -1.6946
  807SOL     OW 2419   2.408   0.933   0.440  0.2763 -0.3804 -0.4303
  807SOL    HW1 2420   2.507   0.937   0.478  4.2798 -3.0834 -1.8787
  807SOL    HW2 2421   2.412   0.950   0.336 -0.4276  1.0640  0.6534
  808SOL     OW 2422   0.522   2.041   2.970  0.1268  0.0284  0.1986
  808SOL    HW1 2423   0.517   2.061   3.069  2.4567 -1.2888  0.4948
  808SOL    HW2 2424   0.539   1.942   2.951 -0.5976  2.2880  0.5519
  809SOL     OW 2425   2.659   1.970   1.913  0.9651 -0.4450  0.2363
  809SOL    HW1 2426   2.751   2.000   1.937 -0.0515  0.5453  0.3069
  809SOL    HW2 2427   2.643   1.977   1.811  0.9506  1.6369 -0.5316
  810SOL     OW 2428   2.103   1.051   0.535 -0.1147  0.2820 -0.6747
  810SOL    HW1 2429   2.192   1.003   0.561  0.2416  0.6973 -2.0765
  810SOL    HW2 2430   2.069   1.126   0.603  1.6782 -2.2753 -0.7546
  811SOL     OW 2431   1.376   2.493   1.292  0.3051  0.4990 -0.5473
  811SOL    HW1 2432   1.415   2.394   1.291  0.8155 -0.0203 -0.3989
  811SOL    HW2 2433   1.275   2.496   1.270  0.3579  1.7361  1.4821
  812SOL     OW 2434   1.468   0.838   1.955 -0.0978  0.5678  0.0334
  812SOL    HW1 2435   1.515   0.893   2.028  2.2381  0.1418 -0.6475
  812SOL    HW2 2436   1.384   0.886   1.924 -0.5575 -2.0058 -1.8538
  813SOL     OW 2437   1.741   2.148   2.470 -0.2374 -0.0588  0.0012
  813SOL    HW1 2438   1.804   2.065   2.476  0.0478  0.0477  1.5911
  813SOL    HW2 2439   1.689   2.135   2.376 -0.2083  1.5214 -0.1309
  814SOL     OW 2440   2.867   1.549   2.840  0.1193 -0.2716  0.2457
  814SOL    HW1 2441   2.954   1.559   2.898 -1.8233  0.0329 -1.7205
  814SOL    HW2 2442   2.849   1.634   2.783  0.1844 -3.7154 -1.0283
  815SOL     OW 2443   2.208   2.834   2.750 -0.8370  0.3042  0.4236
  815SOL    HW1 2444   2.171   2.771   2.830 -0.1012  0.2739 -1.9959
  815SOL    HW2 2445   2.310   2.840   2.758 -2.5355  0.8089 -0.7306
  816SOL     OW 2446   1.644   0.308   1.611  0.0125  0.2313  0.8665
  816SOL    HW1 2447   1.660   0.205   1.638  0.8531 -0.3839 -1.4279
  816SOL    HW2 2448   1.556   0.343   1.656 -4.0532 -0.9654  0.9569
  817SOL     OW 2449   0.418   1.223   2.527 -0.3922  0.0428  0.3378
  817SOL    HW1 2450   0.326   1.256   2.556  1.5029 -0.5587 -1.2332
  817SOL    HW2 2451   0.454   1.287   2.455 -1.4958  0.4484 -0.5005
  818SOL     OW 2452   1.956   0.798   0.476  0.4900 -0.5389 -0.3787
  818SOL    HW1 2453   2.001   0.891   0.498 -1.2096 -1.3846  0.1311
  818SOL    HW2 2454   1.886   0.779   0.553 -3.1711 -0.7383 -1.8119
  819SOL     OW 2455   2.788   2.919   3.023  0.1848  0.0317  0.2797
  819SOL    HW1 2456   2.845   2.841   2.978 -0.0979 -0.3628  0.3838
  819SOL    HW2 2457   2.706   2.943   2.962 -0.3730 -0.8742  0.4081
  820SOL     OW 2458   1.244   1.124   0.615  0.2313  0.1667  1.1501
  820SOL    HW1 2459   1.259   1.231   0.621  1.5576 -2.2917 -1.3706
  820SOL    HW2 2460   1.199   1.086   0.698 -1.6002 -0.1374 -1.3892
  821SOL     OW 2461   0.016   1.274   0.674 -0.5172  0.3831 -0.0120
  821SOL    HW1 2462  -0.032   1.279   0.768  1.1490  2.7675 -1.0254
  821SOL    HW2 2463   0.094   1.339   0.671 -1.5960 -1.2040  0.5418
  822SOL     OW 2464   2.549   1.736   2.423  0.1261  0.1376  0.4620
  822SOL    HW1 2465   2.529   1.823   2.474 -1.9954 -1.7688  0.7028
  822SOL    HW2 2466   2.472   1.712   2.352  1.0251  0.0390  1.0804
  823SOL     OW 2467   2.036   0.790   1.220  0.6306 -0.3232 -0.0147
  823SOL    HW1 2468   2.015   0.832   1.313  0.8879  2.5906 -2.6913
  823SOL    HW2 2469   1.988   0.838   1.138 -0.0196 -4.4223 -3.3979
  824SOL     OW 2470   0.134   2.055   2.786 -0.3307  0.0044  0.1987
  824SOL    HW1 2471   0.105   1.973   2.843  1.8881 -0.0495 -0.6624
  824SOL    HW2 2472   0.205   2.033   2.707 -1.0091  0.5670  0.7718
  825SOL     OW 2473   1.278   1.097   0.266 -0.4527  0.0806  1.2068
  825SOL    HW1 2474   1.288   1.202   0.256 -1.0457 -0.3553  3.2062
  825SOL    HW2 2475   1.210   1.061   0.339  1.2208 -2.7281 -1.9198
  826SOL     OW 2476   1.941   0.656   1.601 -0.2098  0.1298  0.4117
  826SOL    HW1 2477   2.011   0.589   1.642  1.0937 -1.9792 -1.6026
  826SOL    HW2 2478   1.867   0.608   1.544 -1.0120 -1.0921 -1.0734
  827SOL     OW 2479   0.700   1.391   0.274  0.2334 -0.9008 -0.4052
  827SOL    HW1 2480   0.735   1.301   0.237 -2.0565 -0.4757 -1.9347
  827SOL    HW2 2481   0.622   1.390   0.344  0.9489  3.9499  0.8752
  828SOL     OW 2482   2.491   0.113   1.617  1.0080 -0.0081 -0.6163
  828SOL    HW1 2483   2.397   0.155   1.603  0.2190  0.8326 -3.0563
  828SOL    HW2 2484   2.477   0.030   1.679 -3.0689 -1.5122  3.8215
  829SOL     OW 2485   2.826   2.459   2.948  0.4520 -0.2370  0.0786
  829SOL    HW1 2486   2.752   2.385   2.934  0.0286 -1.3773  0.4822
  829SOL    HW2 2487   2.794   2.521   3.028  1.6935 -0.3207  0.8936
  830SOL     OW 2488   2.828   0.904   3.023  0.0721  0.8391 -0.6862
  830SOL    HW1 2489   2.896   0.980   3.056  2.6044  2.0766 -2.8479
  830SOL    HW2 2490   2.829   0.819   3.083  0.7659 -0.1566 -0.2630
  831SOL     OW 2491   0.060   0.663   0.369  0.7223  0.3509 -0.0930
  831SOL    HW1 2492   0.008   0.609   0.441  2.9455 -0.1419  0.8400
  831SOL    HW2 2493   0.104   0.601   0.295 -2.3235 -1.5775  2.6829
  832SOL     OW 2494   1.812   0.742   3.090 -0.3901  0.1204 -0.5685
  832SOL    HW1 2495   1.727   0.785   3.047  1.6665 -3.2184 -0.6048
  832SOL    HW2 2496   1.817   0.638   3.077  2.2136  1.0736 -0.6469
  833SOL     OW 2497   2.419   2.125   0.524 -0.0880  0.3761 -0.3602
  833SOL    HW1 2498   2.323   2.112   0.489 -0.2438  0.6152  1.9516
  833SOL    HW2 2499   2.474   2.033   0.522  2.8173  0.4542  0.5163
  834SOL     OW 2500   0.186   0.188   0.505  0.2794  0.3524 -0.8771
  834SOL    HW1 2501   0.218   0.105   0.546  1.2680 -0.3072  1.0792
  834SOL    HW2 2502   0.169   0.191   0.403 -1.2654 -1.1124 -1.9483
  835SOL     OW 2503   2.359   1.570   1.127 -0.1457  0.3804 -0.5151
  835SOL    HW1 2504   2.441   1.569   1.184 -0.1485  1.1895  2.1048
  835SOL    HW2 2505   2.372   1.581   1.024  2.9023  0.9841 -0.5330
  836SOL     OW 2506   1.577   0.836   2.537  0.2262 -0.0344 -0.5437
  836SOL    HW1 2507   1.487   0.835   2.485 -1.6042 -1.8151 -0.0394
  836SOL    HW2 2508   1.659   0.858   2.475  0.5357  0.0495 -2.0759
  837SOL     OW 2509   1.744   0.146   0.548 -0.3529  0.4058  0.0589
  837SOL    HW1 2510   1.674   0.170   0.623 -3.6431  1.8833 -1.7535
  837SOL    HW2 2511   1.705   0.157   0.455 -0.0053 -3.8334 -1.9421
  838SOL     OW 2512   1.129   1.571   2.774 -0.0222 -0.1132  0.4634
  838SOL    HW1 2513   1.155   1.522   2.863 -0.9292  0.7987 -0.0091
  838SOL    HW2 2514   1.071   1.501   2.718 -0.8725 -1.0296  0.7214
  839SOL     OW 2515   1.607   0.290   0.985  0.6508 -0.0755 -0.2844
  839SOL    HW1 2516   1.667   0.325   1.063  0.4547  0.9585  1.4434
  839SOL    HW2 2517   1.569   0.194   1.012  1.9000 -0.7060  0.9314
  840SOL     OW 2518   2.460   2.938   1.721 -0.1149 -0.5075  0.1978
  840SOL    HW1 2519   2.393   2.864   1.729 -2.1766  0.3862  1.6176
  840SOL    HW2 2520   2.554   2.911   1.686 -0.8737  1.8741  0.8166
  841SOL     OW 2521   1.557   0.832   2.998  0.1091  0.0144 -0.1822
  841SOL    HW1 2522   1.497   0.864   3.071  0.2063  0.9559  1.8559
  841SOL    HW2 2523   1.542   0.876   2.900 -1.9042  0.0712 -3.4752
  842SOL     OW 2524   0.823   1.517   0.903  0.6687  0.7104 -0.3639
  842SOL    HW1 2525   0.790   1.613   0.926  2.5939  0.3084 -1.0264
  842SOL    HW2 2526   0.746   1.445   0.904  1.5438 -0.2022 -0.1664
  843SOL     OW 2527   0.077   0.007   1.366 -0.3748  0.0946 -0.0773
  843SOL    HW1 2528   0.129   0.068   1.430 -2.6847  2.9492 -1.0350
  843SOL    HW2 2529   0.060  -0.082   1.412 -1.3196  3.2416 -2.5129
  844SOL     OW 2530   0.781   2.478   0.238 -0.1412  0.2221 -0.4241
  844SOL    HW1 2531   0.749   2.449   0.334 -2.4615  0.7858  0.2523
  844SOL    HW2 2532   0.720   2.559   0.205 -2.9933  1.1229 -0.6878
  845SOL     OW 2533   1.659   2.885   1.321 -0.2408 -0.2634 -0.0861
  845SOL    HW1 2534   1.728   2.811   1.290  1.0178 -0.8907 -0.8708
  845SOL    HW2 2535   1.686   2.940   1.407  0.9694  0.4538 -3.6848
  846SOL     OW 2536   1.588   2.930   0.760 -0.4263 -0.2753  0.0077
  846SOL    HW1 2537   1.576   2.872   0.676  0.9311 -1.0351  0.7610
  846SOL    HW2 2538   1.685   2.941   0.789 -1.6767  2.1426 -0.1079
  847SOL     OW 2539   2.055   1.664   0.369 -0.2628  0.2269  0.0214
  847SOL    HW1 2540   1.993   1.576   0.372 -3.7369 -1.8225  3.1252
  847SOL    HW2 2541   1.995   1.744   0.375  1.0399 -3.5382 -4.3250
  848SOL     OW 2542   2.449   0.838   2.633  0.0076  0.1062 -0.0875
  848SOL    HW1 2543   2.451   0.925   2.690 -1.5741 -0.5172 -0.5991
  848SOL    HW2 2544   2.355   0.799   2.626  1.4871  0.4172  1.0549
  849SOL     OW 2545   2.573   0.867   2.374  0.3580 -0.3820 -0.0392
  849SOL    HW1 2546   2.647   0.804   2.404  0.0575  2.2779  0.3226
  849SOL    HW2 2547   2.502   0.864   2.452 -0.0134 -0.2861  0.2100
  850SOL     OW 2548   1.532   0.098   1.318 -0.7118  0.4410  0.3274
  850SOL    HW1 2549   1.515   0.076   1.219 -2.7778 -0.8541  2.5690
  850SOL    HW2 2550   1.488   0.031   1.384 -0.0973 -0.3845 -1.3817
  851SOL     OW 2551   0.446   1.821   0.566  0.4977  0.7038  0.0109
  851SOL    HW1 2552   0.494   1.913   0.580  0.8637  0.8107 -0.2063
  851SOL    HW2 2553   0.425   1.795   0.465  1.2206  0.0467 -1.6191
  852SOL     OW 2554   0.787   2.085   1.738  0.0717  0.0551 -0.5491
  852SOL    HW1 2555   0.839   2.173   1.712 -0.5903  1.5771  0.3802
  852SOL    HW2 2556   0.726   2.086   1.826 -0.1996 -0.9209 -0.2881
  853SOL     OW 2557   2.509   1.523   2.589 -0.1551 -0.7274 -0.8971
  853SOL    HW1 2558   2.446   1.446   2.555  1.1563  1.4155  2.3994
  853SOL    HW2 2559   2.524   1.598   2.519  1.4624 -1.3624  1.4655
  854SOL     OW 2560   2.393   1.361   1.706 -0.0198  0.1046  0.1662
  854SOL    HW1 2561   2.475   1.320   1.650 -1.2448  1.5781 -1.4879
  854SOL    HW2 2562   2.323   1.289   1.725  0.2731  0.1687 -0.8874
  855SOL     OW 2563   2.056   2.454   1.085 -0.1126 -0.0086  0.1823
  855SOL    HW1 2564   2.036   2.551   1.049 -2.3710  2.4601  0.1073
  855SOL    HW2 2565   2.150   2.448   1.129  0.1188 -0.6247  1.4006
  856SOL     OW 2566   1.347   1.413   0.935 -0.1263  0.3083 -0.4526
  856SOL    HW1 2567   1.418   1.479   0.979  0.7891  0.3634  0.4609
  856SOL    HW2 2568   1.246   1.440   0.964 -1.1577  2.0150  1.3793
  857SOL     OW 2569   3.028   2.711   0.986  0.1147 -0.0461 -0.5390
  857SOL    HW1 2570   2.991   2.641   0.916 -2.0203 -3.7786 -1.0360
  857SOL    HW2 2571   3.104   2.767   0.950 -2.7994 -1.1881  0.2866
  858SOL     OW 2572   2.332   2.102   1.719 -0.2998 -0.0667  0.0043
  858SOL    HW1 2573   2.242   2.103   1.664 -0.0517 -0.7674  2.5276
  858SOL    HW2 2574   2.395   2.035   1.673 -1.4915 -0.5108 -0.1091
  859SOL     OW 2575   2.486   0.578   1.074 -0.3214 -0.2350 -0.8865
  859SOL    HW1 2576   2.499   0.597   0.970 -0.3037 -1.0711 -1.9266
  859SOL    HW2 2577   2.501   0.478   1.094  2.1144 -0.5899  1.7408
  860SOL     OW 2578   1.872   2.794   0.459  0.3479 -0.1838 -0.4656
  860SOL    HW1 2579   1.861   2.766   0.356  0.6583 -0.2729 -1.5474
  860SOL    HW2 2580   1.904   2.897   0.467 -0.3162 -1.2228 -1.5678
  861SOL     OW 2581   1.009   2.410   2.872  0.1444 -0.0621  0.1895
  861SOL    HW1 2582   1.068   2.489   2.835 -0.2926  0.3300 -2.3675
  861SOL    HW2 2583   1.033   2.363   2.963  0.8459 -1.9837  0.5943
  862SOL     OW 2584   2.896   2.568   1.594 -0.6383  0.0583  0.2549
  862SOL    HW1 2585   2.986   2.599   1.632 -0.8459 -2.9588 -0.5623
  862SOL    HW2 2586   2.844   2.638   1.542 -2.3296 -0.8672  0.0829
  863SOL     OW 2587   1.834   2.714   0.207  0.4085 -0.1909 -0.6674
  863SOL    HW1 2588   1.907   2.643   0.209  0.5559  0.5523  1.2773
  863SOL    HW2 2589   1.745   2.689   0.158  0.9005  0.4432  0.1581
  864SOL     OW 2590   2.002   1.221   2.833  0.1866  0.5023  0.2469
  864SOL    HW1 2591   1.974   1.177   2.740 -1.9254 -1.1360  1.7514
  864SOL    HW2 2592   2.085   1.168   2.879  0.3350 -3.0871  0.5862
  865SOL     OW 2593   2.171   1.911   0.704  0.5236 -0.7090 -0.0307
  865SOL    HW1 2594   2.249   1.883   0.768  1.1497 -1.6861 -0.1154
  865SOL    HW2 2595   2.089   1.952   0.750 -0.1899 -0.8678  2.4659
  866SOL     OW 2596   2.843   2.936   1.010 -0.2827 -0.2373  0.0395
  866SOL    HW1 2597   2.850   3.010   0.930 -2.5653  1.9434  0.4666
  866SOL    HW2 2598   2.909   2.855   0.998  2.6757 -3.1214 -0.1485
  867SOL     OW 2599   0.336   1.393   0.904 -0.0327 -0.0786 -0.0763
  867SOL    HW1 2600   0.336   1.322   0.820  0.2849 -4.7918 -1.2980
  867SOL    HW2 2601   0.303   1.490   0.878 -0.4926 -2.8554 -1.5506
  868SOL     OW 2602   0.767   1.912   2.104 -0.2534  0.4806  0.4747
  868SOL    HW1 2603   0.703   1.885   2.185  1.4653  0.9951 -1.1796
  868SOL    HW2 2604   0.719   1.983   2.039 -1.6220  1.7707  0.9171
  869SOL     OW 2605   2.562   1.953   1.658 -0.1866 -0.0960  0.6426
  869SOL    HW1 2606   2.649   2.000   1.622 -2.2663  0.0618  0.2698
  869SOL    HW2 2607   2.572   1.848   1.639  0.5580 -3.3716  1.9088
  870SOL     OW 2608   2.292   2.685   1.246  0.3146 -0.1031 -0.0247
  870SOL    HW1 2609   2.305   2.582   1.231 -0.2611 -1.9942 -0.1453
  870SOL    HW2 2610   2.284   2.719   1.349  0.4061 -2.4117  3.7598
  871SOL     OW 2611   0.032   2.302   0.550  0.1675 -0.2567  0.6524
  871SOL    HW1 2612  -0.003   2.365   0.628  0.6137  1.7297  1.3279
  871SOL    HW2 2613  -0.037   2.284   0.475 -2.8161  1.3994  0.8682
  872SOL     OW 2614   2.113   0.468   1.684  0.0189  0.3250  0.2712
  872SOL    HW1 2615   2.081   0.455   1.785 -0.5376  0.3884  0.8083
  872SOL    HW2 2616   2.211   0.441   1.670 -1.6480  1.7100 -0.5673
  873SOL     OW 2617   1.738   2.136   3.070 -0.2122  0.5054 -0.6995
  873SOL    HW1 2618   1.664   2.173   3.133  1.8934  1.8876  0.5701
  873SOL    HW2 2619   1.716   2.145   2.969  2.6624 -1.6506  0.2333
  874SOL     OW 2620   0.676   2.424   0.739  0.2016 -0.6449 -0.0191
  874SOL    HW1 2621   0.680   2.511   0.801  1.3068  0.7033  2.8767
  874SOL    HW2 2622   0.768   2.379   0.738 -0.1814 -1.4804  1.9670
  875SOL     OW 2623   2.270   1.553   1.418  0.0547 -0.0021  0.4663
  875SOL    HW1 2624   2.346   1.561   1.493  0.6482  1.3595  1.6758
  875SOL    HW2 2625   2.307   1.537   1.324  2.7527 -0.4622 -2.5580
  876SOL     OW 2626   0.076   2.311   2.686 -0.4673  0.1629  0.4202
  876SOL    HW1 2627   0.112   2.222   2.728  3.9606 -2.8995 -0.5864
  876SOL    HW2 2628   0.090   2.395   2.743  0.3726 -0.6353 -2.8692
  877SOL     OW 2629   2.924   2.670   0.583  0.5592  0.9405 -0.1587
  877SOL    HW1 2630   2.944   2.776   0.586  0.5463  1.9743  1.0751
  877SOL    HW2 2631   2.997   2.618   0.633 -0.3046  2.0800 -0.4126
  878SOL     OW 2632   2.815   1.499   2.230 -0.1124  0.3383 -0.2842
  878SOL    HW1 2633   2.792   1.585   2.182 -0.3912  0.0499  0.9499
  878SOL    HW2 2634   2.797   1.506   2.332  2.5474  0.3733  0.1996
  879SOL     OW 2635   2.393   0.083   1.268  0.1432 -0.2425 -0.5776
  879SOL    HW1 2636   2.415  -0.015   1.302 -1.3736  0.2919 -1.2860
  879SOL    HW2 2637   2.315   0.086   1.200  1.1404  1.9965 -0.1272
  880SOL     OW 2638   0.761   0.505   2.264  0.0470  0.0296  0.3594
  880SOL    HW1 2639   0.683   0.459   2.319  3.1244 -0.3322  0.5430
  880SOL    HW2 2640   0.844   0.446   2.244 -0.6987  2.0179 -2.1161
  881SOL     OW 2641   0.844   0.073   0.447 -0.0372  0.1406  0.6008
  881SOL    HW1 2642   0.877  -0.016   0.412  0.7078  1.1519  0.5978
  881SOL    HW2 2643   0.744   0.075   0.478  2.0465  4.1256 -0.1212
  882SOL     OW 2644   2.717   1.677   1.712 -0.0274  0.5213  0.5750
  882SOL    HW1 2645   2.772   1.616   1.650  1.1687 -1.1961  0.1491
  882SOL    HW2 2646   2.749   1.668   1.811 -1.3476  0.4643  0.0715
  883SOL     OW 2647   0.861   0.497   0.930  0.1220 -0.5297 -0.2291
  883SOL    HW1 2648   0.915   0.586   0.948  0.5341  0.3165 -0.5213
  883SOL    HW2 2649   0.813   0.459   1.014  2.1214  1.0425  3.4733
  884SOL     OW 2650   1.096   1.751   1.162  0.5123 -0.8136  0.2300
  884SOL    HW1 2651   1.086   1.659   1.123  0.0809  4.0954  0.2907
  884SOL    HW2 2652   1.078   1.827   1.091 -1.1882  1.0453 -0.7759
  885SOL     OW 2653   2.322   1.809   2.265  0.0089 -0.6862 -0.1029
  885SOL    HW1 2654   2.241   1.767   2.314 -2.0463  3.1043  0.7659
  885SOL    HW2 2655   2.311   1.912   2.265 -2.9605 -2.1955  1.2462
  886SOL     OW 2656   2.607   0.333   1.808 -0.1356  0.1415 -0.1562
  886SOL    HW1 2657   2.607   0.246   1.868  1.4819  1.7209  3.3640
  886SOL    HW2 2658   2.700   0.373   1.799  1.5002 -0.0867 -0.5440
  887SOL     OW 2659   0.126   2.057   1.294 -0.3992 -0.7424  0.1443
  887SOL    HW1 2660   0.143   2.020   1.199 -0.7433 -1.0085 -1.6459
  887SOL    HW2 2661   0.148   2.159   1.304  4.4858  1.0121  1.6360
  888SOL     OW 2662   0.628   1.226   1.513 -0.1880  0.1396 -0.5717
  888SOL    HW1 2663   0.670   1.234   1.416 -0.3546 -1.2187 -0.3874
  888SOL    HW2 2664   0.597   1.130   1.532 -1.3720 -2.2716  1.5595
  889SOL     OW 2665   0.828   2.511   2.202 -0.2259 -0.3781 -0.2712
  889SOL    HW1 2666   0.767   2.426   2.216  0.2498 -1.2520  2.0595
  889SOL    HW2 2667   0.916   2.487   2.147  1.8783 -1.0104 -0.8827
  890SOL     OW 2668   2.388   2.500   0.259  0.8020 -0.6562 -0.0728
  890SOL    HW1 2669   2.443   2.587   0.254  1.6447  0.9793  0.6176
  890SOL    HW2 2670   2.345   2.500   0.353  2.6650  1.9844  0.6879
  891SOL     OW 2671   2.512   1.717   0.645  0.1391 -0.2986 -0.2063
  891SOL    HW1 2672   2.509   1.670   0.738 -1.0258 -3.1490 -3.6293
  891SOL    HW2 2673   2.426   1.697   0.592  0.5566  0.0828  0.1626
  892SOL     OW 2674   0.402   0.305   2.288 -0.8602 -0.6012  0.7037
  892SOL    HW1 2675   0.432   0.330   2.195 -0.5485 -2.9425  0.0035
  892SOL    HW2 2676   0.470   0.332   2.362 -0.5145  1.1323  0.6176
  893SOL     OW 2677   1.661   0.199   2.738 -0.0434  0.3429 -0.4350
  893SOL    HW1 2678   1.736   0.268   2.763  0.4573 -2.5270  0.8816
  893SOL    HW2 2679   1.566   0.239   2.725 -2.0667 -2.1395  1.0883
  894SOL     OW 2680   2.177   2.065   0.078 -0.1248  0.6746 -0.4573
  894SOL    HW1 2681   2.135   2.020  -0.004 -0.4962 -0.8970 -0.6803
  894SOL    HW2 2682   2.193   2.002   0.157  0.5934 -0.2475 -0.9720
  895SOL     OW 2683   2.794   1.431   0.890  0.1189  0.1446 -0.1106
  895SOL    HW1 2684   2.874   1.375   0.917  0.3329  0.1056 -1.9123
  895SOL    HW2 2685   2.819   1.535   0.886  1.8339  2.5570 -0.1095
  896SOL     OW 2686   1.850   1.845   1.203 -0.1622 -0.0337  0.0462
  896SOL    HW1 2687   1.882   1.746   1.200 -0.0869  0.7940  1.0864
  896SOL    HW2 2688   1.763   1.862   1.145 -2.0703 -2.9066 -0.0736
  897SOL     OW 2689   0.278   0.575   3.053 -0.2806  0.0434  0.0847
  897SOL    HW1 2690   0.204   0.599   2.981 -1.1749  2.1046 -2.0820
  897SOL    HW2 2691   0.368   0.612   3.026 -0.7944  0.8026 -0.7672
  898SOL     OW 2692   0.660   2.848   1.038 -0.3507  0.6249 -0.1285
  898SOL    HW1 2693   0.674   2.951   1.051  1.7646  2.5689 -0.4637
  898SOL    HW2 2694   0.724   2.794   1.104  0.1642  1.6581  3.6341
  899SOL     OW 2695   2.787   0.853   1.382 -0.4120  0.1143 -0.4794
  899SOL    HW1 2696   2.771   0.822   1.279  0.8939 -4.0608 -2.5800
  899SOL    HW2 2697   2.831   0.948   1.391 -1.8467  2.7408 -3.6194
  900SOL     OW 2698   0.986   2.488   2.490 -0.4791  0.8555 -1.2121
  900SOL    HW1 2699   0.927   2.471   2.404  1.5517 -2.7853  0.9204
  900SOL    HW2 2700   0.982   2.404   2.555 -1.8188 -2.8573 -0.3316
  901SOL     OW 2701   1.899   2.431   1.359 -0.2415 -0.4463 -0.2768
  901SOL    HW1 2702   1.854   2.368   1.286 -1.9691  0.7643  0.0878
  901SOL    HW2 2703   2.000   2.418   1.377 -2.2506  0.5376 -1.6220
  902SOL     OW 2704   2.538   1.664   1.479  0.2629 -0.2674 -0.2262
  902SOL    HW1 2705   2.569   1.629   1.568  0.0299  1.0275 -0.4242
  902SOL    HW2 2706   2.613   1.659   1.405  0.8901 -1.9922 -0.1030
  903SOL     OW 2707   0.317   2.494   1.985 -0.5479  0.3807 -0.7140
  903SOL    HW1 2708   0.235   2.428   1.994 -0.1892  0.6741  0.3778
  903SOL    HW2 2709   0.312   2.563   1.907  1.5198  1.4622  0.8532
  904SOL     OW 2710   1.989   0.783   2.559 -0.1486  0.1899 -0.5807
  904SOL    HW1 2711   1.906   0.739   2.610 -0.5718 -2.1383  1.4220
  904SOL    HW2 2712   1.982   0.785   2.455  0.7313 -1.2929  0.1968
  905SOL     OW 2713   2.908   0.110   2.453  1.1009  0.0624  0.8048
  905SOL    HW1 2714   2.944   0.040   2.520 -2.0302  0.2754  0.7377
  905SOL    HW2 2715   2.937   0.209   2.461 -2.3818  1.2799 -1.3797
  906SOL     OW 2716   0.166   1.654   1.874 -0.3220  0.3730 -0.4595
  906SOL    HW1 2717   0.115   1.688   1.792 -0.4780 -0.6627  2.3386
  906SOL    HW2 2718   0.267   1.636   1.865 -4.0024 -1.1906  1.1845
  907SOL     OW 2719   0.203   2.418   0.966  0.2743 -0.4175 -0.2545
  907SOL    HW1 2720   0.301   2.385   0.958  0.8030  1.2827  0.2414
  907SOL    HW2 2721   0.196   2.514   1.006 -0.1692  0.7415  0.8818
  908SOL     OW 2722   2.813   3.082   0.300 -0.3268  0.0088  0.4134
  908SOL    HW1 2723   2.710   3.068   0.272 -0.9019  3.1417 -1.8679
  908SOL    HW2 2724   2.879   3.001   0.282 -0.4878  2.0561  0.2967
  909SOL     OW 2725   0.839   1.065   2.676  0.0872 -0.1084 -0.4420
  909SOL    HW1 2726   0.798   0.970   2.657 -0.7573 -1.5961  0.2523
  909SOL    HW2 2727   0.907   1.084   2.603  0.1423 -0.4238 -0.1800
  910SOL     OW 2728   1.773   1.877   2.147  0.3909  0.5799 -0.5752
  910SOL    HW1 2729   1.831   1.927   2.074 -0.7323  0.2272 -1.8885
  910SOL    HW2 2730   1.693   1.934   2.185  0.4833  0.9561 -2.1087
  911SOL     OW 2731   1.828   2.966   1.551  0.5598 -0.5988  0.3724
  911SOL    HW1 2732   1.880   2.926   1.468  4.3088 -1.2911 -0.3774
  911SOL    HW2 2733   1.825   2.906   1.634 -0.2259  0.9623 -0.9204
  912SOL     OW 2734   2.853   1.031   0.716  0.3923 -0.1474  0.1675
  912SOL    HW1 2735   2.875   0.985   0.808  1.1760  1.2763  1.1026
  912SOL    HW2 2736   2.800   1.118   0.728 -0.8782 -3.2923 -0.6719
  913SOL     OW 2737   2.548   1.230   1.528 -0.6378  0.1406  0.1898
  913SOL    HW1 2738   2.565   1.130   1.525  1.6136  0.2729 -2.1044
  913SOL    HW2 2739   2.596   1.274   1.448  1.3312 -1.6022  1.2848
  914SOL     OW 2740   2.741   0.637   1.158  0.3415  0.2141  0.3269
  914SOL    HW1 2741   2.760   0.540   1.193  2.8189  2.5830  0.3067
  914SOL    HW2 2742   2.636   0.648   1.156 -1.2070  1.2042 -3.1730
  915SOL     OW 2743   1.224   0.767   1.030 -0.3424 -0.2659 -0.7271
  915SOL    HW1 2744   1.268   0.779   1.123 -2.1895 -1.4137  0.5163
  915SOL    HW2 2745   1.124   0.761   1.035  3.7962  2.2135 -1.4254
  916SOL     OW 2746   0.606   0.084   0.639  1.0489 -0.3833 -0.2251
  916SOL    HW1 2747   0.658   0.132   0.715 -0.5493  0.9650  0.1054
  916SOL    HW2 2748   0.579   0.158   0.574 -1.0777 -3.1098  2.4934
  917SOL     OW 2749   2.901   2.580   1.978  0.0650  0.0979  0.0717
  917SOL    HW1 2750   2.804   2.616   1.953 -1.9680 -1.3364 -1.2911
  917SOL    HW2 2751   2.971   2.604   1.910  2.1559  0.6037  0.3423
  918SOL     OW 2752   1.039   2.058   3.003  0.1558 -0.0409  0.0571
  918SOL    HW1 2753   1.067   2.146   3.055  0.3158  0.9847  0.9780
  918SOL    HW2 2754   1.067   2.065   2.902 -0.1711 -1.2356  0.5009
  919SOL     OW 2755   0.830   1.695   2.821 -0.5340 -0.0690  0.4995
  919SOL    HW1 2756   0.867   1.788   2.786 -0.7779  1.0477  2.6716
  919SOL    HW2 2757   0.796   1.633   2.743  2.1638  2.2244 -2.2736
  920SOL     OW 2758   1.267   1.776   2.558  0.1456  0.5914  0.1345
  920SOL    HW1 2759   1.342   1.733   2.502  0.3704 -3.5844  0.0651
  920SOL    HW2 2760   1.243   1.715   2.637 -1.4420 -2.3266 -1.1546
  921SOL     OW 2761   1.126   0.005   2.641  0.0790  0.0678  0.4427
  921SOL    HW1 2762   1.083  -0.011   2.545 -0.6863  1.8643  2.8448
  921SOL    HW2 2763   1.059   0.023   2.715 -0.1124  0.6318  2.4499
  922SOL     OW 2764   2.163   2.382   2.794  0.1333 -0.1144  0.5936
  922SOL    HW1 2765   2.183   2.284   2.793 -0.6488  1.8417 -1.5788
  922SOL    HW2 2766   2.163   2.415   2.694  0.1157 -2.7382  2.0503
  923SOL     OW 2767   1.265   2.693   0.277  0.0013 -0.4654 -0.3106
  923SOL    HW1 2768   1.341   2.734   0.338 -2.3095 -1.8009  1.3904
  923SOL    HW2 2769   1.290   2.598   0.245 -1.3727  0.9551  2.5719
  924SOL     OW 2770   2.901   1.686   0.125 -0.1351  0.6943 -0.6031
  924SOL    HW1 2771   2.827   1.639   0.072  2.5524  1.2174 -0.2020
  924SOL    HW2 2772   2.986   1.622   0.127 -0.5651 -0.2585 -0.3093
  925SOL     OW 2773   0.037   2.851   1.491 -0.0648 -0.7279 -0.5438
  925SOL    HW1 2774   0.019   2.791   1.574  0.3683  1.7096  0.1451
  925SOL    HW2 2775  -0.027   2.836   1.408 -0.2818 -0.6194 -2.0570
  926SOL     OW 2776   1.309   2.843   1.328  0.0438  0.2039  0.2526
  926SOL    HW1 2777   1.351   2.807   1.241 -2.1157 -3.8556 -1.0183
  926SOL    HW2 2778   1.335   2.935   1.366  0.6824  0.0993  0.9472
  927SOL     OW 2779   0.347   2.654   1.745  0.2970 -0.0794  0.2488
  927SOL    HW1 2780   0.309   2.582   1.679  1.2618  0.5830  0.8493
  927SOL    HW2 2781   0.347   2.751   1.703 -0.2629 -2.2128 -0.1634
  928SOL     OW 2782   1.609   2.087   2.230  0.3312  0.3340 -0.3464
  928SOL    HW1 2783   1.650   2.145   2.150  1.9288 -0.2427 -3.1089
  928SOL    HW2 2784   1.506   2.092   2.231  0.9423  1.4206  2.8510
  929SOL     OW 2785   2.423   2.496   2.875 -0.0286  0.5198  0.1345
  929SOL    HW1 2786   2.323   2.478   2.858 -0.2153 -1.4470 -0.9765
  929SOL    HW2 2787   2.488   2.484   2.790 -0.4849 -1.4934 -1.3523
  930SOL     OW 2788   2.145   1.957   1.096  0.1938  0.3521  0.1120
  930SOL    HW1 2789   2.115   1.897   1.176 -0.9723  1.0428 -1.1590
  930SOL    HW2 2790   2.200   2.035   1.121  0.0117 -1.5403 -0.2385
  931SOL     OW 2791   0.528   1.762   2.625  0.2412  0.2999  0.3683
  931SOL    HW1 2792   0.537   1.788   2.723  0.0956  0.8432 -1.7222
  931SOL    HW2 2793   0.612   1.710   2.601 -0.1944  1.4212 -1.2956
  932SOL     OW 2794   0.368   0.079   3.087  1.1818 -0.0098 -0.5068
  932SOL    HW1 2795   0.449   0.130   3.132  0.5367 -2.0240  0.1522
  932SOL    HW2 2796   0.396  -0.008   3.033  4.8593  0.4034 -2.4449
  933SOL     OW 2797   0.920   0.843   2.996 -0.5014  0.0588  0.1891
  933SOL    HW1 2798   0.972   0.825   3.085  0.1626  0.3841  1.7472
  933SOL    HW2 2799   0.889   0.939   2.990  0.4846 -0.9413 -1.6294
  934SOL     OW 2800   0.750   2.976   2.680  0.2243  0.1654 -0.9577
  934SOL    HW1 2801   0.737   2.906   2.609  1.3309  1.8131  1.7893
  934SOL    HW2 2802   0.800   2.934   2.764 -2.9486 -1.2037 -0.2277
  935SOL     OW 2803   0.019   0.530   0.838 -0.7158 -0.2431  0.3521
  935SOL    HW1 2804   0.041   0.488   0.744 -1.4773  0.4886 -2.7155
  935SOL    HW2 2805  -0.059   0.602   0.833  1.4017  0.3361 -1.1210
  936SOL     OW 2806   1.087   2.829   0.082  0.4816 -0.1251 -0.3821
  936SOL    HW1 2807   1.136   2.880   0.008  0.2965  0.9280  2.9715
  936SOL    HW2 2808   1.144   2.799   0.164 -0.2300  0.1369  1.8099
  937SOL     OW 2809   1.890   2.667   2.099  0.0608  0.2254  0.3337
  937SOL    HW1 2810   1.790   2.688   2.120 -0.2345  1.3207 -0.6983
  937SOL    HW2 2811   1.940   2.741   2.048  1.5643  0.1513  2.8086
  938SOL     OW 2812   2.792   2.083   1.591 -0.3801 -0.1228  0.5505
  938SOL    HW1 2813   2.785   2.189   1.579  1.0735  0.8467 -2.4719
  938SOL    HW2 2814   2.857   2.054   1.668 -0.3535 -0.6138  2.8828
  939SOL     OW 2815   2.786   1.211   2.434 -0.0419 -0.8101 -0.2093
  939SOL    HW1 2816   2.857   1.180   2.367 -1.0396  1.3137 -0.9203
  939SOL    HW2 2817   2.794   1.169   2.529  2.0563  3.2610 -0.4972
  940SOL     OW 2818   1.064   0.463   2.767  0.4772 -0.3983  0.1254
  940SOL    HW1 2819   1.142   0.395   2.763 -1.3620 -1.9778 -2.4614
  940SOL    HW2 2820   1.012   0.469   2.680  2.2778 -1.6701 -0.4352
  941SOL     OW 2821   0.024   2.772   2.291 -0.2117  0.1072 -0.0255
  941SOL    HW1 2822   0.099   2.722   2.247 -3.3907 -0.1123 -1.7281
  941SOL    HW2 2823   0.054   2.866   2.329  0.2943  1.9240  0.7754
  942SOL     OW 2824   0.117   0.086   2.567  0.3598 -0.2168 -0.0158
  942SOL    HW1 2825   0.170   0.075   2.657 -0.5175  1.2113  2.5625
  942SOL    HW2 2826   0.141   0.173   2.513  4.0637  0.4858  0.4646
  943SOL     OW 2827   2.089   1.664   2.361 -0.1543 -0.2853  0.5531
  943SOL    HW1 2828   2.095   1.611   2.269  2.4094 -1.5990 -0.3993
  943SOL    HW2 2829   2.091   1.607   2.449  0.9145 -2.7978  2.4633
  944SOL     OW 2830   2.184   2.385   1.464  0.8031 -0.3086 -0.1784
  944SOL    HW1 2831   2.261   2.430   1.512 -2.3059 -1.0610  0.3223
  944SOL    HW2 2832   2.140   2.307   1.521  2.2173  1.9059  1.2270
  945SOL     OW 2833   0.685   1.578   0.093 -0.4041  0.1042  0.2804
  945SOL    HW1 2834   0.635   1.532   0.012 -1.6589 -0.2607  0.0295
  945SOL    HW2 2835   0.685   1.517   0.175  1.3665  0.4949 -0.3472
  946SOL     OW 2836   0.400   0.950   2.528 -0.1809 -0.3909  0.3309
  946SOL    HW1 2837   0.313   0.903   2.485 -0.9272 -2.6681 -0.2617
  946SOL    HW2 2838   0.391   1.055   2.540 -0.0636 -0.2518 -1.6065
  947SOL     OW 2839   1.494   0.498   3.079  0.6713  0.1074 -0.2794
  947SOL    HW1 2840   1.481   0.574   3.014  0.0513  0.0778 -0.5973
  947SOL    HW2 2841   1.405   0.460   3.110 -0.8164 -1.5574  1.5229
  948SOL     OW 2842   1.866   3.008   2.177  0.1333  0.1996 -0.6176
  948SOL    HW1 2843   1.868   2.972   2.081 -2.1037  0.6342  1.6798
  948SOL    HW2 2844   1.851   2.932   2.254 -1.0969  0.4549  2.0810
  949SOL     OW 2845   0.624   2.484   0.489  0.5033  0.5047  0.2900
  949SOL    HW1 2846   0.651   2.579   0.461  0.9567  2.2535 -1.9682
  949SOL    HW2 2847   0.627   2.466   0.593 -0.6867 -1.6039  0.4649
  950SOL     OW 2848   0.179   2.260   3.001  0.2796  0.3487  0.1621
  950SOL    HW1 2849   0.148   2.351   2.971  1.8987 -2.2362 -0.5397
  950SOL    HW2 2850   0.193   2.194   2.923  0.0096 -0.5271  2.1242
  951SOL     OW 2851   1.168   2.619   2.782 -0.1556 -0.5429  0.1213
  951SOL    HW1 2852   1.223   2.600   2.868  0.3445  1.2876  2.1114
  951SOL    HW2 2853   1.228   2.661   2.711 -0.8545  1.1701  3.2583
  952SOL     OW 2854   0.031   1.648   0.417 -0.1185 -0.1175  0.2772
  952SOL    HW1 2855   0.066   1.741   0.408  0.6593  2.3327 -2.0164
  952SOL    HW2 2856   0.061   1.604   0.506 -0.2251 -0.7049 -1.0416
  953SOL     OW 2857   2.564   1.743   0.201  0.2827  0.1007 -0.5196
  953SOL    HW1 2858   2.531   1.644   0.191 -2.9357 -1.8367 -1.4941
  953SOL    HW2 2859   2.502   1.803   0.146  1.7510 -1.0272 -0.3787
  954SOL     OW 2860   2.199   0.601   0.960  0.9003 -0.0479  0.5690
  954SOL    HW1 2861   2.200   0.596   0.852  0.0615 -1.1475  1.4355
  954SOL    HW2 2862   2.290   0.610   1.008 -2.2720  0.2566  2.9885
  955SOL     OW 2863   0.121   2.561   1.403  0.1449  0.0232  0.3132
  955SOL    HW1 2864   0.063   2.629   1.345 -1.3102  0.9482  3.0476
  955SOL    HW2 2865   0.206   2.609   1.433 -1.4461 -2.0368  0.2109
  956SOL     OW 2866   2.795   2.459   2.502  0.1763 -0.3462 -0.7050
  956SOL    HW1 2867   2.786   2.359   2.529 -0.2303  2.3936  1.6472
  956SOL    HW2 2868   2.855   2.477   2.420 -0.7860 -1.7515 -0.2684
  957SOL     OW 2869   1.565   2.096   2.785  0.1008  0.0045  1.2472
  957SOL    HW1 2870   1.522   2.004   2.798  1.3742 -0.1603 -0.5720
  957SOL    HW2 2871   1.602   2.103   2.686 -0.0194  1.6406 -1.1504
  958SOL     OW 2872   2.590   2.294   2.977 -0.0504 -0.2554  0.5750
  958SOL    HW1 2873   2.500   2.343   2.957  2.9033  1.3391  0.2453
  958SOL    HW2 2874   2.604   2.262   3.076 -1.4366 -2.0156  1.8206
  959SOL     OW 2875   0.311   2.791   0.073  0.0701 -0.3802 -0.1538
  959SOL    HW1 2876   0.244   2.838   0.140 -0.0268 -2.6512 -1.3179
  959SOL    HW2 2877   0.359   2.707   0.111  1.1099 -1.8731 -0.2253
  960SOL     OW 2878   2.013   0.447   1.929  0.3963  0.1401 -0.1127
  960SOL    HW1 2879   1.961   0.538   1.915 -0.3069  0.5577 -0.2126
  960SOL    HW2 2880   2.032   0.427   2.026  2.7922 -0.5265 -1.6038
  961SOL     OW 2881   2.575   1.920   1.057 -0.2742 -0.1685  0.1434
  961SOL    HW1 2882   2.566   2.010   1.004  0.0743  1.3125  0.4661
  961SOL    HW2 2883   2.538   1.917   1.153  0.5043  1.5286  0.9655
  962SOL     OW 2884   1.311   0.908   0.082 -0.3091  0.0403  0.1024
  962SOL    HW1 2885   1.288   0.919  -0.019 -1.8762 -1.4374 -2.6081
  962SOL    HW2 2886   1.290   0.995   0.142  0.1071  2.8829 -0.5212
  963SOL     OW 2887   2.306   2.531   1.814  0.1892 -0.3878 -0.5929
  963SOL    HW1 2888   2.237   2.477   1.867  1.3713 -0.8656  1.7324
  963SOL    HW2 2889   2.336   2.608   1.872 -0.8635 -0.1845 -4.2800
  964SOL     OW 2890   2.378   0.363   1.673 -0.0068  0.2232  0.6146
  964SOL    HW1 2891   2.470   0.354   1.721 -3.2737 -1.8571  0.1102
  964SOL    HW2 2892   2.393   0.367   1.571  0.0288 -0.6858  0.6357
  965SOL     OW 2893   2.597   2.989   0.157  0.5696  0.2656 -1.0262
  965SOL    HW1 2894   2.652   2.949   0.080 -2.0402 -3.0952  0.7101
  965SOL    HW2 2895   2.502   3.011   0.125  1.8615 -1.2639 -0.7777
  966SOL     OW 2896   2.526   2.534   2.254  0.0436  0.0223  0.9778
  966SOL    HW1 2897   2.588   2.610   2.287  0.4726 -1.0512  2.2476
  966SOL    HW2 2898   2.457   2.566   2.182  1.2390 -2.1982  1.7300
  967SOL     OW 2899   2.787   2.805   2.454 -0.1862 -0.4482  0.2524
  967SOL    HW1 2900   2.831   2.722   2.415 -1.0285  2.0036 -0.7983
  967SOL    HW2 2901   2.860   2.872   2.486 -0.0453  0.2847 -0.9211
  968SOL     OW 2902   1.929   1.064   2.609 -0.3114 -0.1584 -0.5247
  968SOL    HW1 2903   1.852   1.132   2.581 -2.0657  1.6521 -2.3147
  968SOL    HW2 2904   1.929   0.969   2.575 -1.9211  0.3874  1.0239
  969SOL     OW 2905   2.746   2.451   1.114  0.0245 -0.0185  0.3065
  969SOL    HW1 2906   2.730   2.458   1.011  2.0791  1.3622  1.3147
  969SOL    HW2 2907   2.821   2.382   1.139 -0.5227 -1.2799  0.5191
  970SOL     OW 2908   1.095   2.109   1.853 -0.2424  0.0775 -0.6800
  970SOL    HW1 2909   1.011   2.072   1.805  2.0658  0.8668 -1.0763
  970SOL    HW2 2910   1.074   2.129   1.953  1.4622 -0.6629  0.4263
  971SOL     OW 2911   2.894   2.049   2.043  0.0444  0.0097  0.3514
  971SOL    HW1 2912   2.883   2.148   2.067  1.2680 -2.8494 -0.6337
  971SOL    HW2 2913   2.954   2.035   1.962 -1.4053 -1.4916  3.7879
  972SOL     OW 2914   1.971   2.493   0.231 -0.2987 -0.1141 -0.4993
  972SOL    HW1 2915   1.979   2.417   0.165  1.9041  1.0906 -0.3758
  972SOL    HW2 2916   2.024   2.471   0.318  3.5312 -2.1000 -0.5503
  973SOL     OW 2917   1.240   0.952   1.869 -0.0664  0.6968  0.3794
  973SOL    HW1 2918   1.180   0.869   1.865 -1.6038  2.7756 -2.2704
  973SOL    HW2 2919   1.183   1.036   1.855  0.9193  3.2020 -0.4904
  974SOL     OW 2920   1.571   0.593   1.901 -0.8061 -0.0901 -0.3474
  974SOL    HW1 2921   1.675   0.608   1.877  1.0923  1.0431 -0.3343
  974SOL    HW2 2922   1.520   0.689   1.919 -0.0756  1.7245  1.8971
  975SOL     OW 2923   2.351   3.057   0.031  0.2112 -0.0568  0.2214
  975SOL    HW1 2924   2.311   2.963   0.013 -0.8241 -0.2378  1.6405
  975SOL    HW2 2925   2.363   3.119  -0.052  2.3341  0.2921  0.1688
  976SOL     OW 2926   1.863   2.824   2.376  0.1500 -0.8867  0.4585
  976SOL    HW1 2927   1.809   2.732   2.361 -1.7319 -1.0891  1.1790
  976SOL    HW2 2928   1.908   2.821   2.470  0.5609 -1.1954 -1.1364
  977SOL     OW 2929   0.537   0.598   0.980  0.0292  0.0638  0.4609
  977SOL    HW1 2930   0.440   0.588   0.929  1.6633 -0.8282  0.1231
  977SOL    HW2 2931   0.604   0.663   0.928  0.0611  1.5391 -0.9296
   3.10000   3.10000   3.10000
