1000 SPC/Fw water molecules t=   0.80000 step= 800
 2931
    1SOL     OW    1   2.477   0.369   2.603 -0.0452 -1.0268  0.1499
    1SOL    HW1    2   2.527   0.278   2.591 -0.0947 -1.6163 -0.7473
    1SOL    HW2    3   2.506   0.405   2.697  1.1556 -2.3812  1.6796
    2SOL     OW    4   2.750   3.080   1.426 -0.1723  0.2407  0.3941
    2SOL    HW1    5   2.815   3.088   1.341  0.4718  0.0949 -1.3967
    2SOL    HW2    6   2.718   3.173   1.454 -2.7195  0.1577 -0.2935
    3SOL     OW    7   2.739   2.621   0.352 -0.2395 -0.3275  0.6077
    3SOL    HW1    8   2.722   2.516   0.343 -2.0819 -1.0151 -1.2081
    3SOL    HW2    9   2.799   2.643   0.436 -0.7438 -0.7084  0.4319
    4SOL     OW   10   1.279   1.474   2.354  0.2674  0.0167 -0.4761
    4SOL    HW1   11   1.184   1.518   2.343 -1.2567 -0.3521 -1.6505
    4SOL    HW2   12   1.281   1.374   2.398 -0.9586 -2.4876  2.1623
    5SOL     OW   13   1.138   1.507   3.085 -0.1572 -0.2921 -0.1916
    5SOL    HW1   14   1.212   1.581   3.086  0.3159  1.8957 -0.6358
    5SOL    HW2   15   1.054   1.537   3.138  2.3812 -1.9015  0.7009
    6SOL     OW   16   0.108   1.866   2.942  0.5956 -0.6326 -0.1336
    6SOL    HW1   17   0.022   1.892   2.999  3.1852 -0.1651  0.4752
    6SOL    HW2   18   0.179   1.821   3.001 -1.3780  0.6122  2.3655
    7SOL     OW   19   2.589   0.935   1.144  0.7739 -0.6721 -0.4722
    7SOL    HW1   20   2.495   0.887   1.161 -1.4794 -0.8466  3.0975
    7SOL    HW2   21   2.605   0.958   1.044  1.9223 -0.7642 -0.7988
    8SOL     OW   22   0.389   0.617   1.529  0.3846  0.5530  0.4694
    8SOL    HW1   23   0.470   0.560   1.562 -1.2783 -3.4452  0.1773
    8SOL    HW2   24   0.384   0.625   1.425 -2.2179  2.1641  1.2889
    9SOL     OW   25   1.174   0.875   2.386  0.0476 -0.3533 -0.1872
    9SOL    HW1   26   1.247   0.898   2.315  2.4439  0.9737  2.6067
    9SOL    HW2   27   1.107   0.804   2.353 -0.9631 -0.8575  0.7140
   10SOL     OW   28   0.638   1.327   1.298  0.2767  0.6551  0.2414
   10SOL    HW1   29   0.543   1.320   1.250 -0.5553  2.4604 -0.4730
   10SOL    HW2   30   0.684   1.417   1.282 -1.6473 -2.9912 -0.7653
   11SOL     OW   31   2.360   2.737   0.847 -0.5170 -0.0493 -0.8807
   11SOL    HW1   32   2.293   2.770   0.920 -0.8946  2.3830  0.5361
   11SOL    HW2   33   2.453   2.776   0.871  0.7535  1.1939 -1.3649
   12SOL     OW   34   1.482   0.903   0.354  0.0735 -0.2002 -0.5826
   12SOL    HW1   35   1.404   0.963   0.325  3.6005  1.7043  0.6281
   12SOL    HW2   36   1.482   0.814   0.300  0.3183 -0.5256  2.2856
   13SOL     OW   37   2.467   0.657   1.781  0.2672 -0.1182 -0.0626
   13SOL    HW1   38   2.384   0.677   1.844 -0.7854 -0.2272  1.4914
   13SOL    HW2   39   2.452   0.664   1.678  0.6712 -0.4296  1.2249
   14SOL     OW   40   1.897   0.054   0.737 -0.3147 -0.0928 -0.0472
   14SOL    HW1   41   1.841   0.078   0.654 -0.7298 -1.7738  2.1173
   14SOL    HW2   42   1.849  -0.011   0.800 -0.2376 -0.9905 -0.3204
   15SOL     OW   43   1.987   2.083   2.733  0.3761  0.3409 -0.1035
   15SOL    HW1   44   1.929   2.148   2.793  0.0488  0.5647  1.1428
   15SOL    HW2   45   1.937   1.998   2.704 -0.0852  0.4339  2.0911
   16SOL     OW   46   1.616   1.721   2.963  0.2865  0.4058  0.1403
   16SOL    HW1   47   1.644   1.619   2.970 -2.7854 -1.2254  1.6572
   16SOL    HW2   48   1.680   1.780   3.020  1.8825  2.0509 -1.6130
   17SOL     OW   49   0.148   0.521   0.194  0.0238  0.0402  0.3828
   17SOL    HW1   50   0.246   0.543   0.181 -2.3707 -0.2212  4.4494
   17SOL    HW2   51   0.090   0.522   0.106  0.2036 -0.6353 -1.3118
   18SOL     OW   52   0.956   2.951   2.096  0.8295 -0.3619 -0.0163
   18SOL    HW1   53   0.888   2.877   2.099  1.0231 -1.1766 -0.6676
   18SOL    HW2   54   1.045   2.931   2.039  0.6629 -1.6062 -0.5727
   19SOL     OW   55   0.526   0.818   1.893 -0.1069 -0.0444  0.1050
   19SOL    HW1   56   0.542   0.808   1.993  0.5907 -2.6478  0.4563
   19SOL    HW2   57   0.610   0.854   1.850  1.8543 -1.1662 -1.9740
   20SOL     OW   58   0.223   2.707   0.847 -0.4443 -0.6561 -0.0674
   20SOL    HW1   59   0.144   2.756   0.800  0.6050  1.2577  0.2462
   20SOL    HW2   60   0.301   2.691   0.780 -0.8958  2.2554 -1.4532
   21SOL     OW   61   2.741   0.213   2.097 -0.3483 -0.1062  0.2368
   21SOL    HW1   62   2.688   0.157   2.028 -0.4001 -0.5417 -0.9353
   21SOL    HW2   63   2.833   0.171   2.123  1.8275  0.9948 -1.4196
   22SOL     OW   64   2.385   0.231   0.117  0.4265  0.0603  0.7529
   22SOL    HW1   65   2.381   0.128   0.106  0.8011 -0.8684  1.1001
   22SOL    HW2   66   2.289   0.279   0.135 -1.8738  0.0543  0.6851
   23SOL     OW   67   2.772   0.651   0.645  0.1411  0.6511 -0.2084
   23SOL    HW1   68   2.824   0.566   0.618  1.9390  1.5971  2.4851
   23SOL    HW2   69   2.780   0.724   0.577  0.2886 -2.7765  2.0635
   24SOL     OW   70   0.188   1.916   0.371  0.8493 -0.0496 -0.3760
   24SOL    HW1   71   0.166   1.993   0.306 -1.4565 -1.8396  0.8573
   24SOL    HW2   72   0.275   1.859   0.350 -0.1621 -2.4005 -1.0102
   25SOL     OW   73   2.204   0.549   0.332 -0.2545  0.0307 -0.3095
   25SOL    HW1   74   2.221   0.610   0.248 -1.0039  0.3057 -0.4566
   25SOL    HW2   75   2.255   0.459   0.343  0.9367 -1.4872  2.3704
   26SOL     OW   76   2.527   2.094   2.088 -0.1381 -0.1051 -0.1476
   26SOL    HW1   77   2.563   2.166   2.151 -1.3027 -1.5290  1.2907
   26SOL    HW2   78   2.600   2.053   2.019  1.8716 -2.3428 -1.2441
   27SOL     OW   79   0.600   2.973   0.225  0.1157 -0.0397  0.0085
   27SOL    HW1   80   0.699   2.953   0.208 -1.5618  0.8350  2.3677
   27SOL    HW2   81   0.547   2.990   0.137 -0.8422 -0.1336  1.1443
   28SOL     OW   82   1.579   0.157   0.284 -0.4899 -0.2475 -0.4378
   28SOL    HW1   83   1.633   0.147   0.196 -1.0443  1.2752  1.8698
   28SOL    HW2   84   1.578   0.254   0.318  0.8001 -0.6012  0.8794
   29SOL     OW   85   1.962   0.598   0.423  0.4937 -0.0963 -0.0438
   29SOL    HW1   86   1.936   0.696   0.418 -2.8764  0.6265  1.9360
   29SOL    HW2   87   2.052   0.569   0.380 -0.9002  0.5334 -0.4767
   30SOL     OW   88   0.188   1.986   0.915 -0.2685 -0.4334  0.2280
   30SOL    HW1   89   0.194   2.005   0.817 -0.9198  0.3183  0.8652
   30SOL    HW2   90   0.110   2.038   0.956  0.6600  3.5304  0.9125
   31SOL     OW   91   2.119   3.065   2.317 -0.2167  0.1569  0.1462
   31SOL    HW1   92   2.100   3.090   2.417 -3.3552 -5.0162  1.9905
   31SOL    HW2   93   2.069   2.981   2.285  3.2880  0.1414 -1.1343
   32SOL     OW   94   2.959   0.099   0.200 -0.2873 -0.0826  0.6124
   32SOL    HW1   95   2.936   0.029   0.271  0.2533  1.2941 -1.0893
   32SOL    HW2   96   3.050   0.141   0.219  1.3095  0.2540 -1.6336
   33SOL     OW   97   0.950   0.281   0.618  0.4225  0.2463 -0.2339
   33SOL    HW1   98   0.924   0.186   0.575 -0.7541 -1.9334  0.0213
   33SOL    HW2   99   1.048   0.305   0.592  1.0136  0.6390  1.6725
   34SOL     OW  100   0.301   2.782   1.080 -0.0567  0.0872  0.2457
   34SOL    HW1  101   0.269   2.748   0.990  0.1309  0.7471  0.7209
   34SOL    HW2  102   0.403   2.808   1.067  2.0695 -0.9175  1.6896
   35SOL     OW  103   0.023   0.160   1.859 -0.0288 -0.5354  0.4002
   35SOL    HW1  104   0.059   0.061   1.867 -1.6971 -1.6552 -1.1217
   35SOL    HW2  105  -0.031   0.174   1.769 -1.4694 -1.9364  0.3039
   36SOL     OW  106   1.954   1.161   1.743 -0.8038  0.0674 -0.2723
   36SOL    HW1  107   2.028   1.114   1.691 -0.7206 -1.5293  0.1222
   36SOL    HW2  108   1.998   1.218   1.822  1.5988  2.7718  2.6332
   37SOL     OW  109   1.202   0.152   0.924 -0.2804  0.1080  0.6407
   37SOL    HW1  110   1.231   0.207   1.005 -1.0745 -3.1291  1.2807
   37SOL    HW2  111   1.276   0.088   0.891  0.2102  0.3513 -1.1692
   38SOL     OW  112   1.077   2.798   2.472  0.0012 -0.8119  0.4952
   38SOL    HW1  113   1.021   2.710   2.472  1.6136  1.2542 -3.6272
   38SOL    HW2  114   1.027   2.882   2.439 -0.8214  1.8717  3.4392
   39SOL     OW  115   2.305   1.391   3.027 -0.5300 -0.2401  0.2632
   39SOL    HW1  116   2.362   1.308   3.048  2.7665  1.8085 -1.3204
   39SOL    HW2  117   2.274   1.440   3.113  4.5091  1.3074  0.1428
   40SOL     OW  118   2.091   2.483   2.563 -0.4636 -0.1051  0.0693
   40SOL    HW1  119   2.076   2.583   2.542  2.6182 -2.0967 -1.1483
   40SOL    HW2  120   2.022   2.426   2.509 -0.5994  2.0494 -2.5732
   41SOL     OW  121   3.020   0.685   2.838  1.0024 -0.0894  0.8199
   41SOL    HW1  122   2.949   0.757   2.815  0.3369 -4.8382 -1.8825
   41SOL    HW2  123   2.985   0.594   2.808  0.6004  1.6247  1.5078
   42SOL     OW  124   1.757   1.740   0.493  0.3292 -0.5549 -0.7915
   42SOL    HW1  125   1.710   1.643   0.484 -1.1855 -1.2200 -1.1902
   42SOL    HW2  126   1.806   1.766   0.403  3.7664  0.1604  0.2345
   43SOL     OW  127   0.464   1.686   1.103  0.6806 -0.3080  0.3763
   43SOL    HW1  128   0.475   1.581   1.108 -0.4205 -0.3054  0.1746
   43SOL    HW2  129   0.371   1.709   1.061 -3.4891  1.3908  3.6347
   44SOL     OW  130   1.824   2.496   3.060 -0.7189 -0.0831 -0.0433
   44SOL    HW1  131   1.806   2.588   3.013 -0.4893  2.0301 -0.5324
   44SOL    HW2  132   1.875   2.420   3.006  0.0670  0.2180 -1.3870
   45SOL     OW  133   0.435   1.938   2.601  0.4579 -0.2774  0.2960
   45SOL    HW1  134   0.392   1.909   2.508  0.7364  0.8936  0.3258
   45SOL    HW2  135   0.476   1.862   2.660  1.3877  1.5225  0.3952
   46SOL     OW  136   1.248   0.705   0.204 -0.0331  0.0328 -0.3494
   46SOL    HW1  137   1.276   0.776   0.134 -1.1737  2.2337  0.6910
   46SOL    HW2  138   1.156   0.674   0.189  0.5296  1.2095  1.6910
   47SOL     OW  139   0.232   2.497   1.602  0.2401  0.2567 -0.4230
   47SOL    HW1  140   0.207   2.401   1.582 -3.0978  1.3543  2.5808
   47SOL    HW2  141   0.237   2.552   1.510 -0.3145 -1.7038 -0.2471
   48SOL     OW  142   2.636   0.645   0.127 -0.4296  0.1374 -0.3738
   48SOL    HW1  143   2.630   0.609   0.227 -0.0120 -2.7267  0.5785
   48SOL    HW2  144   2.716   0.704   0.111 -0.5633  0.9009  2.6166
   49SOL     OW  145   0.326   0.796   1.712  0.0719  0.4572  0.4678
   49SOL    HW1  146   0.408   0.814   1.775  0.3014  0.6595  1.3071
   49SOL    HW2  147   0.345   0.726   1.633  1.8810 -1.6584  1.1598
   50SOL     OW  148   1.670   1.114   0.295 -0.1254 -0.1302  0.3435
   50SOL    HW1  149   1.648   1.024   0.247 -1.1648 -3.2140  1.4467
   50SOL    HW2  150   1.591   1.139   0.355 -2.2977  0.7856  1.8184
   51SOL     OW  151   2.901   1.881   0.315 -0.0458 -0.3412  0.1071
   51SOL    HW1  152   2.819   1.828   0.282  0.5486 -2.6298 -0.3917
   51SOL    HW2  153   2.972   1.822   0.353 -2.7809  1.9540 -1.9267
   52SOL     OW  154   0.783   1.999   0.495 -0.0506 -0.2069 -0.1049
   52SOL    HW1  155   0.708   2.061   0.532 -0.4203  2.4072  2.2275
   52SOL    HW2  156   0.825   1.940   0.568 -0.6351  0.9019  0.1775
   53SOL     OW  157   0.174   0.419   1.615 -0.2731 -0.2238 -0.0043
   53SOL    HW1  158   0.244   0.494   1.590  1.4723  2.0055  1.8395
   53SOL    HW2  159   0.079   0.435   1.577 -0.7656  2.7774 -0.2797
   54SOL     OW  160   1.799   0.479   3.055  0.6521 -0.2720  0.0584
   54SOL    HW1  161   1.844   0.419   3.124  0.4649 -1.4308 -0.9746
   54SOL    HW2  162   1.695   0.474   3.075  0.9281  0.7646 -0.1801
   55SOL     OW  163   0.769   2.885   0.691 -0.2094 -0.2565  0.1698
   55SOL    HW1  164   0.733   2.982   0.709 -1.1892 -0.5204  1.2805
   55SOL    HW2  165   0.866   2.869   0.658 -0.0279 -1.6047  0.6625
   56SOL     OW  166   0.492   1.613   0.029  0.0324 -0.0101 -0.3747
   56SOL    HW1  167   0.401   1.655   0.046  3.8486 -1.8081  0.6083
   56SOL    HW2  168   0.491   1.536  -0.041  0.1379 -1.8070 -0.3439
   57SOL     OW  169   1.728   2.518   2.519  0.2131 -0.0912 -0.9755
   57SOL    HW1  170   1.779   2.434   2.493 -1.6313  0.8436  2.6178
   57SOL    HW2  171   1.638   2.495   2.561 -0.6284 -2.8369  3.2984
   58SOL     OW  172   0.641   0.291   1.039  0.3993 -0.3389 -0.0576
   58SOL    HW1  173   0.537   0.310   1.047 -3.3727 -2.2836 -1.1092
   58SOL    HW2  174   0.666   0.195   1.062 -1.6862 -1.5540 -2.0725
   59SOL     OW  175   0.450   2.451   2.748 -0.1061 -0.1808  0.0047
   59SOL    HW1  176   0.486   2.360   2.709 -0.4583  3.5623 -0.9477
   59SOL    HW2  177   0.505   2.481   2.832 -0.9441  4.1098  0.6944
   60SOL     OW  178   2.290   2.050   2.196 -0.3035 -0.4362 -0.2083
   60SOL    HW1  179   2.383   2.048   2.146  3.5818 -0.5012 -0.3134
   60SOL    HW2  180   2.293   2.078   2.300 -0.0843  2.3366  3.1468
   61SOL     OW  181   1.340   0.629   0.511  0.3244 -0.0671 -0.0959
   61SOL    HW1  182   1.278   0.697   0.566  1.2938  1.3098  0.8179
   61SOL    HW2  183   1.339   0.651   0.407  0.6016 -0.8669  0.7610
   62SOL     OW  184   2.771   1.808   2.898  0.2950 -0.3858 -0.2204
   62SOL    HW1  185   2.758   1.743   2.976 -1.4414  0.2477  2.5973
   62SOL    HW2  186   2.868   1.818   2.865 -1.8128 -2.7831 -1.1836
   63SOL     OW  187   0.609   0.921   0.158 -0.2747 -0.2155  0.3896
   63SOL    HW1  188   0.658   0.958   0.067  0.1514 -2.2203 -0.6220
   63SOL    HW2  189   0.669   0.876   0.231 -0.2969 -0.5596 -0.5487
   64SOL     OW  190   0.109   0.487   2.473 -0.2881 -0.0640  0.2405
   64SOL    HW1  191   0.201   0.452   2.459  0.3354 -1.1809 -1.3469
   64SOL    HW2  192   0.110   0.587   2.452 -1.4656 -2.4735 -1.2972
   65SOL     OW  193   0.160   1.478   0.561 -0.6487 -0.2766  0.1403
   65SOL    HW1  194   0.215   1.546   0.620  0.8807  1.2828  1.2263
   65SOL    HW2  195   0.214   1.432   0.484  3.2825  1.7632  0.1177
   66SOL     OW  196   2.556   0.397   0.599 -0.0585  0.1886 -0.1913
   66SOL    HW1  197   2.654   0.424   0.628  2.4305  2.4836 -0.0888
   66SOL    HW2  198   2.530   0.302   0.640  2.0759  0.1841  2.7471
   67SOL     OW  199   0.538   2.534   1.364  0.2094 -0.2650  0.0111
   67SOL    HW1  200   0.605   2.487   1.423 -0.0877  3.6031  1.5126
   67SOL    HW2  201   0.464   2.468   1.340 -0.2058  1.2474  1.0698
   68SOL     OW  202   1.024   1.088   2.451  0.1104  0.0865  0.0452
   68SOL    HW1  203   1.069   0.995   2.434 -1.6221  0.4593  0.7146
   68SOL    HW2  204   0.948   1.102   2.383  0.3045  0.2151  1.8136
   69SOL     OW  205   0.743   2.749   2.161 -0.2110 -0.6437  0.2601
   69SOL    HW1  206   0.764   2.646   2.179 -1.6002 -2.3712  1.0027
   69SOL    HW2  207   0.646   2.774   2.177  0.1472 -2.3481 -1.0558
   70SOL     OW  208   0.527   0.330   2.701 -0.3886 -0.1446 -0.0188
   70SOL    HW1  209   0.466   0.339   2.786  0.2758  1.2778  2.0770
   70SOL    HW2  210   0.530   0.232   2.665 -0.1197 -1.3336 -2.2438
   71SOL     OW  211   1.088   1.744   0.412  0.3831  0.0316  1.1278
   71SOL    HW1  212   1.015   1.683   0.458  2.3460  2.1229  0.6434
   71SOL    HW2  213   1.057   1.774   0.318  1.5269  0.4901 -0.9489
   72SOL     OW  214   1.842   0.190   2.141 -0.0818  0.4736  0.5740
   72SOL    HW1  215   1.938   0.233   2.147  2.7808  1.7018 -0.8554
   72SOL    HW2  216   1.838   0.089   2.126 -0.2271  1.8814  0.3575
   73SOL     OW  217   2.819   2.157   2.412  0.1064  0.1615  0.1342
   73SOL    HW1  218   2.789   2.063   2.384 -2.2784 -0.1428 -3.6883
   73SOL    HW2  219   2.852   2.162   2.519 -1.6564 -0.0668  2.4456
   74SOL     OW  220   2.692   2.914   2.125 -1.0061  0.1292  0.3612
   74SOL    HW1  221   2.632   2.917   2.208 -0.5411 -0.0581  1.5823
   74SOL    HW2  222   2.780   2.959   2.138 -2.8208 -0.0835 -0.7311
   75SOL     OW  223   0.906   0.761   1.099 -0.1536  0.4692  0.3921
   75SOL    HW1  224   0.823   0.816   1.067  0.4141 -1.4242 -1.0632
   75SOL    HW2  225   0.955   0.792   1.185 -0.3987 -1.1902 -0.5140
   76SOL     OW  226   1.699   1.217   2.505  0.2109 -0.5249 -0.0663
   76SOL    HW1  227   1.604   1.170   2.517 -2.2302  2.1409  3.0051
   76SOL    HW2  228   1.702   1.300   2.564 -0.5995 -3.9562  0.6873
   77SOL     OW  229   2.990   0.920   0.965 -0.3341  0.2111 -0.3882
   77SOL    HW1  230   3.003   0.828   0.925  2.2039 -0.7872 -0.5915
   77SOL    HW2  231   3.040   0.935   1.058  0.5657  3.4177  1.0846
   78SOL     OW  232   2.095   1.456   1.510 -0.2881  0.5160 -0.0760
   78SOL    HW1  233   2.182   1.471   1.451 -0.7062 -1.6004 -0.7005
   78SOL    HW2  234   2.014   1.433   1.453 -1.4840  2.1949  0.6863
   79SOL     OW  235   0.607   1.358   0.876  0.1646  0.5556  0.2965
   79SOL    HW1  236   0.504   1.367   0.866  1.8374  1.5037  0.7129
   79SOL    HW2  237   0.650   1.311   0.792  0.7389 -0.7760 -1.6540
   80SOL     OW  238   0.620   0.473   1.576  0.1512  0.0356  0.2523
   80SOL    HW1  239   0.693   0.524   1.521 -0.4831  2.6703  0.1901
   80SOL    HW2  240   0.625   0.367   1.571 -0.1115  0.5702 -2.3103
   81SOL     OW  241   1.044   1.396   2.631 -0.2452  0.3699  0.0475
   81SOL    HW1  242   1.061   1.292   2.619  2.8433 -1.5678  2.1612
   81SOL    HW2  243   0.955   1.423   2.583  1.4200 -0.5493 -0.5319
   82SOL     OW  244   1.013   2.934   1.500  0.0838 -0.1924  0.1627
   82SOL    HW1  245   1.015   3.006   1.426 -1.8651  0.4974 -0.9770
   82SOL    HW2  246   0.929   2.874   1.494 -0.5024 -0.2441  0.1587
   83SOL     OW  247   2.742   2.474   0.851 -0.3600 -0.2577  0.2169
   83SOL    HW1  248   2.677   2.411   0.791 -0.6390 -2.1789 -1.0671
   83SOL    HW2  249   2.737   2.572   0.826  1.1301 -2.0868  1.1243
   84SOL     OW  250   0.630   3.056   2.372 -0.4594 -0.5408  0.2716
   84SOL    HW1  251   0.540   3.023   2.419 -2.1436 -2.9372  0.8872
   84SOL    HW2  252   0.711   2.992   2.392 -1.5603  3.0537  1.4508
   85SOL     OW  253   0.292   1.568   1.500 -0.8828 -0.3006 -0.5895
   85SOL    HW1  254   0.251   1.655   1.531 -0.2174 -1.4074 -0.2307
   85SOL    HW2  255   0.371   1.534   1.558 -0.1381  2.5986  1.5245
   86SOL     OW  256   0.388   0.993   1.528  0.2583  0.1685  0.3559
   86SOL    HW1  257   0.382   0.937   1.440  1.5535  0.1698  1.2200
   86SOL    HW2  258   0.392   0.930   1.614  1.7590 -1.5615 -0.5344
   87SOL     OW  259   1.605   0.657   0.215 -0.2617  0.1512 -0.2652
   87SOL    HW1  260   1.672   0.740   0.210 -2.3399  0.4673 -1.5589
   87SOL    HW2  261   1.565   0.638   0.123 -2.0046  1.2125 -0.9265
   88SOL     OW  262   1.603   1.370   0.203  0.1500  0.6061 -0.5379
   88SOL    HW1  263   1.653   1.282   0.229  0.5293  1.1352  2.8821
   88SOL    HW2  264   1.495   1.373   0.209  0.3492  0.6461 -0.7669
   89SOL     OW  265   0.020   0.427   0.576 -0.2871  0.0495  0.0401
   89SOL    HW1  266   0.092   0.363   0.535 -0.8212  0.5864 -2.8671
   89SOL    HW2  267  -0.077   0.389   0.572 -1.5537  0.5225  3.1487
   90SOL     OW  268   0.892   1.618   0.055 -0.6279 -0.3977  0.2710
   90SOL    HW1  269   0.828   1.575   0.122 -0.3909 -1.4060 -0.3714
   90SOL    HW2  270   0.854   1.612  -0.043  0.3094  1.2766 -0.3893
   91SOL     OW  271   1.224   1.432   1.788  0.2935  0.4223  0.6114
   91SOL    HW1  272   1.204   1.520   1.835 -0.5925 -0.3481  1.9098
   91SOL    HW2  273   1.305   1.434   1.730 -1.0508 -1.1733  2.1132
   92SOL     OW  274   0.020   0.974   1.206 -0.5878 -0.3068 -0.5341
   92SOL    HW1  275   0.040   1.073   1.177 -0.6458 -0.7310 -0.6216
   92SOL    HW2  276  -0.007   0.969   1.305  0.5849  1.1307 -0.0596
   93SOL     OW  277   0.004   2.721   3.084 -0.0974 -0.3982 -0.1635
   93SOL    HW1  278  -0.066   2.712   3.005 -1.0344 -0.1710 -1.1303
   93SOL    HW2  279   0.040   2.626   3.108 -0.1186 -0.8516 -0.3735
   94SOL     OW  280   1.498   1.488   1.767 -0.6897  0.4015 -0.4547
   94SOL    HW1  281   1.547   1.397   1.760 -0.8155  1.4277  0.3326
   94SOL    HW2  282   1.543   1.543   1.848  0.8819  3.1210 -0.2721
   95SOL     OW  283   1.376   2.555   3.003 -0.7578  0.1313 -0.4412
   95SOL    HW1  284   1.294   2.562   3.065  1.0323  1.7441 -0.8152
   95SOL    HW2  285   1.418   2.460   2.996 -0.7184 -1.3918 -0.0497
   96SOL     OW  286   0.525   2.100   1.264  0.1694  0.4726 -0.0673
   96SOL    HW1  287   0.488   2.064   1.173  0.4376  1.4526 -0.4505
   96SOL    HW2  288   0.569   2.026   1.318  1.1427  0.7884 -0.0956
   97SOL     OW  289   0.394   1.637   2.447  0.7203 -0.7741  0.3957
   97SOL    HW1  290   0.308   1.686   2.413 -0.2291  2.0515 -1.7690
   97SOL    HW2  291   0.414   1.657   2.549 -0.8292  0.3676  0.4112
   98SOL     OW  292   1.983   1.599   1.241  0.1118 -0.1841 -0.0816
   98SOL    HW1  293   1.897   1.554   1.284 -0.6404  0.3640 -0.8437
   98SOL    HW2  294   2.022   1.546   1.163  0.8399  0.0724  0.0933
   99SOL     OW  295   2.439   2.068   1.383 -0.0978 -0.2332 -0.1453
   99SOL    HW1  296   2.402   2.080   1.480  0.7876 -2.4112  1.9322
   99SOL    HW2  297   2.445   1.969   1.352  1.1466 -0.4611 -0.6537
  100SOL     OW  298   2.333   0.301   2.098 -0.0926 -0.0182  0.4990
  100SOL    HW1  299   2.274   0.282   2.185  1.2091 -0.0093 -1.2417
  100SOL    HW2  300   2.412   0.370   2.111  1.6573 -1.9424  0.5289
  101SOL     OW  301   0.360   1.521   0.331  0.3288  0.1223  0.6185
  101SOL    HW1  302   0.425   1.531   0.416  1.2115 -1.1061  2.0591
  101SOL    HW2  303   0.400   1.564   0.245  0.6356  1.0054  1.4293
  102SOL     OW  304   2.253   1.023   0.823 -0.0676 -0.2713 -0.1702
  102SOL    HW1  305   2.167   0.967   0.793 -1.6933 -1.6416 -0.7920
  102SOL    HW2  306   2.303   1.068   0.747 -0.4937  0.6282 -1.4821
  103SOL     OW  307   2.274   0.047   0.393  0.0970  0.4502 -0.0761
  103SOL    HW1  308   2.283   0.147   0.382 -1.0363  2.2133  0.4168
  103SOL    HW2  309   2.357   0.005   0.442 -1.3878 -1.9651  0.9558
  104SOL     OW  310   0.114   1.759   2.185 -0.8245 -0.5184  0.3873
  104SOL    HW1  311   0.169   1.727   2.096 -0.1046 -0.7975 -2.0519
  104SOL    HW2  312   0.019   1.787   2.153  0.8228 -0.4980 -2.3194
  105SOL     OW  313   1.232   2.113   0.797 -0.3162 -0.2961  0.0232
  105SOL    HW1  314   1.175   2.134   0.712 -3.5724 -0.0018  0.9028
  105SOL    HW2  315   1.255   2.011   0.804  1.0471 -0.8872 -1.2817
  106SOL     OW  316   2.131   0.424   1.430 -0.6685  0.1188 -0.1096
  106SOL    HW1  317   2.074   0.340   1.459  0.7720 -1.8836 -0.1688
  106SOL    HW2  318   2.113   0.509   1.490 -2.3513 -0.6659  0.0708
  107SOL     OW  319   1.786   3.021   1.178  0.8211 -0.6949  0.3627
  107SOL    HW1  320   1.822   3.109   1.217  0.3020 -3.2139  0.1823
  107SOL    HW2  321   1.717   2.975   1.243  0.1007 -0.3798  1.0269
  108SOL     OW  322   0.791   2.787   1.204 -0.1932  0.3226  0.2341
  108SOL    HW1  323   0.777   2.772   1.306 -1.0427 -0.5888  1.5393
  108SOL    HW2  324   0.891   2.785   1.181 -0.2468  2.3625  0.2536
  109SOL     OW  325   2.149   0.129   0.713 -0.5228 -0.1731  0.1977
  109SOL    HW1  326   2.048   0.106   0.727 -0.7859 -1.0804  0.1936
  109SOL    HW2  327   2.203   0.121   0.802 -2.2394  1.6050  2.7638
  110SOL     OW  328   0.471   2.861   2.766 -0.1578 -0.2065 -0.0380
  110SOL    HW1  329   0.476   2.897   2.672 -0.1492  3.3534  1.4340
  110SOL    HW2  330   0.548   2.795   2.787 -0.4826 -0.6809 -1.6145
  111SOL     OW  331   1.302   0.569   2.332  0.1698  0.5114 -0.0079
  111SOL    HW1  332   1.217   0.601   2.390  0.6665  0.2500  0.7090
  111SOL    HW2  333   1.329   0.472   2.359  1.5408  0.9842  1.1155
  112SOL     OW  334   1.724   0.551   1.457  0.2184  0.0709 -0.7046
  112SOL    HW1  335   1.774   0.534   1.368  2.5407  0.2315 -0.8836
  112SOL    HW2  336   1.696   0.471   1.515  0.6326  0.5422 -2.3910
  113SOL     OW  337   2.265   1.668   1.785  0.1326  0.3252  0.1301
  113SOL    HW1  338   2.324   1.592   1.751 -0.0679  0.2170 -0.2608
  113SOL    HW2  339   2.295   1.702   1.879 -0.8950 -0.8516  1.6600
  114SOL     OW  340   0.349   0.536   1.244 -0.0872 -0.4362 -0.1110
  114SOL    HW1  341   0.398   0.589   1.171  0.4365  0.1085 -0.5714
  114SOL    HW2  342   0.249   0.532   1.220 -1.1882 -0.4824  0.2079
  115SOL     OW  343   2.773   1.578   1.272  0.2350 -0.2684 -0.8352
  115SOL    HW1  344   2.777   1.473   1.276  0.8173 -0.6109 -0.5809
  115SOL    HW2  345   2.830   1.616   1.195 -0.5591 -0.7756  3.0902
  116SOL     OW  346   1.854   1.037   0.739 -0.2369 -0.0495  0.1177
  116SOL    HW1  347   1.774   1.011   0.674 -2.6814 -1.6620 -0.2075
  116SOL    HW2  348   1.853   1.136   0.775 -0.0068  1.0042  0.7126
  117SOL     OW  349   1.194   0.401   0.585  0.0303 -0.7785 -0.5803
  117SOL    HW1  350   1.175   0.432   0.684 -1.6753 -1.4911 -2.8120
  117SOL    HW2  351   1.264   0.453   0.527  3.3140  0.5519 -0.7367
  118SOL     OW  352   1.115   1.100   1.084  0.3698  0.2970  0.8276
  118SOL    HW1  353   1.068   1.021   1.138 -3.0868 -3.1224  2.9758
  118SOL    HW2  354   1.134   1.187   1.142 -0.7085 -0.0483 -1.5590
  119SOL     OW  355   1.808   1.616   2.149  0.2901  0.0061 -0.2531
  119SOL    HW1  356   1.779   1.715   2.163 -1.3966  1.2381 -0.7009
  119SOL    HW2  357   1.907   1.602   2.128 -4.8529  0.2070 -2.0506
  120SOL     OW  358   2.945   2.878   0.151  0.1340  0.2949 -0.6169
  120SOL    HW1  359   3.019   2.863   0.081  1.3373 -0.0105 -1.7665
  120SOL    HW2  360   2.847   2.845   0.123  1.8606 -0.9320 -1.2603
  121SOL     OW  361   1.993   0.754   2.280 -0.3481  0.0424 -0.6063
  121SOL    HW1  362   2.043   0.823   2.225 -0.2114 -1.4008  1.6142
  121SOL    HW2  363   2.016   0.656   2.250 -0.2710 -2.1538  0.4993
  122SOL     OW  364   2.607   2.666   1.221 -1.0895 -0.1879 -0.2725
  122SOL    HW1  365   2.673   2.605   1.168  0.3527  1.4706  1.8944
  122SOL    HW2  366   2.555   2.728   1.163 -0.1222 -1.9127  1.4210
  123SOL     OW  367   1.753   0.088   1.721 -0.3345 -0.1840  0.2720
  123SOL    HW1  368   1.778   0.000   1.673 -2.4800  1.6808  1.7559
  123SOL    HW2  369   1.831   0.123   1.779  0.7461 -0.2180  0.3667
  124SOL     OW  370   0.120   0.460   1.083 -0.2614  0.1732 -0.1848
  124SOL    HW1  371   0.096   0.540   1.140  0.0227 -1.4336  0.6151
  124SOL    HW2  372   0.090   0.469   0.984  2.4028  2.7027  4.1530
  125SOL     OW  373   0.849   1.860   0.703 -0.3159 -0.0315  0.1074
  125SOL    HW1  374   0.947   1.843   0.734  1.8897  0.0600  1.5603
  125SOL    HW2  375   0.793   1.910   0.775 -0.2396  1.4495 -0.0146
  126SOL     OW  376   1.873   2.287   2.450  0.0212 -0.0968 -0.4923
  126SOL    HW1  377   1.948   2.277   2.378  2.0394 -0.1747  0.6160
  126SOL    HW2  378   1.829   2.196   2.471 -0.5754  0.1644  0.0850
  127SOL     OW  379   0.951   0.891   0.267  0.7853 -0.2927 -0.7889
  127SOL    HW1  380   0.969   0.941   0.357 -0.9298  2.5326 -0.5753
  127SOL    HW2  381   0.957   0.788   0.284  3.1462  1.5331 -1.3741
  128SOL     OW  382   0.906   0.250   1.377 -0.0409 -0.1675 -0.0109
  128SOL    HW1  383   0.881   0.329   1.314  1.8307 -0.5905 -0.9599
  128SOL    HW2  384   0.886   0.149   1.332 -1.9302 -1.3408 -2.6311
  129SOL     OW  385   1.838   0.726   1.894  0.1993 -0.4531  0.0057
  129SOL    HW1  386   1.848   0.734   1.791 -1.4236  0.3620  2.9816
  129SOL    HW2  387   1.869   0.807   1.947 -0.2355  1.7385  1.5711
  130SOL     OW  388   1.362   2.228   1.009  0.2131  0.4469 -0.0260
  130SOL    HW1  389   1.310   2.195   0.924  0.7074 -2.5215 -2.3884
  130SOL    HW2  390   1.452   2.272   0.985 -0.4105  0.8822 -1.6164
  131SOL     OW  391   3.040   1.447   1.360  0.7322  0.3630  0.5964
  131SOL    HW1  392   2.986   1.361   1.384 -2.1019 -0.1920 -2.2013
  131SOL    HW2  393   3.139   1.432   1.390  2.4033 -1.8336  1.7998
  132SOL     OW  394   2.038   2.435   0.518 -0.0058 -0.0947 -0.0291
  132SOL    HW1  395   1.940   2.467   0.526  2.5797 -1.0664  1.4959
  132SOL    HW2  396   2.060   2.353   0.579  1.5923 -2.4951  0.4960
  133SOL     OW  397   1.884   2.336   2.845 -0.5300  0.0412  0.4931
  133SOL    HW1  398   1.780   2.350   2.839 -0.7271 -2.5223 -2.2366
  133SOL    HW2  399   1.933   2.399   2.779  2.9304  0.8460  0.8102
  134SOL     OW  400   2.676   2.342   1.663 -0.3694 -0.0286 -0.3507
  134SOL    HW1  401   2.624   2.341   1.754 -1.7308  2.3048  0.9110
  134SOL    HW2  402   2.707   2.437   1.636  1.2509 -0.0363  0.1239
  135SOL     OW  403   0.673   1.481   2.682 -0.6146 -0.3384  0.2277
  135SOL    HW1  404   0.653   1.380   2.712  1.5400  2.8857 -1.0922
  135SOL    HW2  405   0.716   1.484   2.591 -2.7249  1.4493 -0.4686
  136SOL     OW  406   1.219   1.980   0.407 -0.3970  0.3082 -0.2176
  136SOL    HW1  407   1.165   2.062   0.435 -1.4260  0.6009  0.6213
  136SOL    HW2  408   1.173   1.889   0.429 -3.4494 -1.3004  0.5051
  137SOL     OW  409   0.421   1.156   2.162 -0.2388  0.5913  0.2678
  137SOL    HW1  410   0.325   1.149   2.214 -1.7225 -1.6285  0.8191
  137SOL    HW2  411   0.486   1.075   2.182 -0.4360  1.8143  0.2841
  138SOL     OW  412   2.438   1.544   0.249  0.3228 -0.3639 -0.2577
  138SOL    HW1  413   2.370   1.469   0.223  2.7651 -1.1211  1.8212
  138SOL    HW2  414   2.518   1.518   0.307 -2.3111  1.2896  1.4788
  139SOL     OW  415   1.858   2.609   1.277  0.0595 -0.3762  0.0340
  139SOL    HW1  416   1.754   2.596   1.253 -3.6477 -0.3735 -2.1392
  139SOL    HW2  417   1.895   2.518   1.308 -0.0937 -0.2396  1.0018
  140SOL     OW  418   3.025   2.976   2.543  0.1804  0.2019 -0.2553
  140SOL    HW1  419   3.045   2.875   2.562  0.6713  2.1502  1.0320
  140SOL    HW2  420   3.105   3.043   2.566  1.3558 -0.3530 -0.1376
  141SOL     OW  421   1.320   1.677   1.628  0.1295 -0.2165 -0.3140
  141SOL    HW1  422   1.221   1.675   1.660 -0.4492  0.3601  0.3673
  141SOL    HW2  423   1.383   1.617   1.690 -0.6910  0.0290  0.5550
  142SOL     OW  424   1.577   0.586   2.264 -0.1437 -0.1621  0.2945
  142SOL    HW1  425   1.583   0.583   2.162 -2.5037 -1.1237  0.9597
  142SOL    HW2  426   1.477   0.574   2.292 -2.4436 -0.4141  0.8308
  143SOL     OW  427   2.738   0.898   0.509 -0.4651 -0.5125  0.6540
  143SOL    HW1  428   2.779   0.958   0.432  0.1096  1.9375  2.5124
  143SOL    HW2  429   2.782   0.919   0.603 -0.4159  1.2915  1.2868
  144SOL     OW  430   2.931   1.166   1.465  0.3766 -0.4938 -0.1432
  144SOL    HW1  431   2.867   1.157   1.547 -2.2065 -0.4474 -1.2916
  144SOL    HW2  432   3.009   1.100   1.460  1.0793 -1.7926 -0.2876
  145SOL     OW  433   1.008   1.837   0.160 -0.6203 -0.0006  0.4898
  145SOL    HW1  434   1.085   1.872   0.101  0.3216 -1.2107 -0.2540
  145SOL    HW2  435   0.963   1.755   0.114 -0.9775 -0.8796 -0.7609
  146SOL     OW  436   2.507   0.674   1.504 -0.0187 -0.3325  0.0252
  146SOL    HW1  437   2.481   0.584   1.458  0.4610  0.2595 -1.5182
  146SOL    HW2  438   2.449   0.748   1.456 -1.5624  0.2429 -2.3804
  147SOL     OW  439   1.103   2.452   0.615 -0.1476 -0.1257  0.2137
  147SOL    HW1  440   1.062   2.521   0.542  2.6836 -0.9240 -3.9610
  147SOL    HW2  441   1.180   2.400   0.569 -2.8807 -0.4389 -1.7870
  148SOL     OW  442   1.671   1.454   3.044 -0.5452  0.3819  0.4389
  148SOL    HW1  443   1.651   1.365   2.994 -2.0644 -2.2831  1.6343
  148SOL    HW2  444   1.632   1.454   3.140 -1.3997 -0.3075  0.9002
  149SOL     OW  445   0.713   1.411   1.969  0.1973 -0.2415  0.2346
  149SOL    HW1  446   0.629   1.358   1.990 -1.9613  1.3476  0.0673
  149SOL    HW2  447   0.778   1.360   1.907 -0.2441 -1.3599  1.5017
  150SOL     OW  448   3.025   1.246   0.939  0.0059 -0.3445  0.1265
  150SOL    HW1  449   3.095   1.259   1.018 -1.7927  0.5534  1.8452
  150SOL    HW2  450   3.002   1.145   0.924  0.0634 -1.5395 -2.4567
  151SOL     OW  451   0.209   0.723   2.151 -0.6341 -0.0287 -0.2479
  151SOL    HW1  452   0.197   0.811   2.099 -1.4945  0.9782  2.2675
  151SOL    HW2  453   0.228   0.642   2.091  0.4351  0.3156  0.3975
  152SOL     OW  454   1.424   1.769   1.283  0.4898  0.2159 -0.1817
  152SOL    HW1  455   1.434   1.869   1.280 -0.5233 -2.0084  0.5987
  152SOL    HW2  456   1.327   1.738   1.267 -0.5326 -1.2507  0.1710
  153SOL     OW  457   0.010   1.507   0.152  0.4957  0.1222  0.2205
  153SOL    HW1  458   0.020   1.406   0.174  0.7049 -0.1070 -1.9748
  153SOL    HW2  459  -0.002   1.563   0.238  1.0154  1.0652  0.3543
  154SOL     OW  460   2.376   1.868   2.772  0.1592  0.5065  0.0893
  154SOL    HW1  461   2.354   1.769   2.791 -0.6035  0.0997 -0.4603
  154SOL    HW2  462   2.455   1.877   2.708  2.4622  1.1254  0.1132
  155SOL     OW  463   2.458   1.210   0.409  0.7352 -0.0980 -0.2675
  155SOL    HW1  464   2.536   1.220   0.341 -0.0126 -1.4078  0.6112
  155SOL    HW2  465   2.378   1.155   0.368 -0.7111  0.5575  2.0167
  156SOL     OW  466   2.528   0.967   0.877 -0.1685 -0.0717 -0.0633
  156SOL    HW1  467   2.422   0.955   0.887 -0.2301 -0.4556  1.5864
  156SOL    HW2  468   2.549   1.043   0.809 -0.9895  2.3510  0.8369
  157SOL     OW  469   1.300   2.928   3.026 -0.1735  0.0359 -0.2834
  157SOL    HW1  470   1.354   2.933   2.933  2.9845 -0.0336  2.1665
  157SOL    HW2  471   1.267   3.021   3.052 -0.2254 -2.6223 -2.4694
  158SOL     OW  472   1.021   1.822   1.898 -0.4045 -0.1245 -0.3856
  158SOL    HW1  473   1.058   1.917   1.873 -0.3226 -1.1196 -2.1229
  158SOL    HW2  474   0.933   1.824   1.958 -1.9678  0.9825  1.8065
  159SOL     OW  475   0.821   0.447   1.196  0.2602  0.2051  0.0152
  159SOL    HW1  476   0.793   0.525   1.260 -0.7953 -1.0786  0.3672
  159SOL    HW2  477   0.739   0.394   1.158 -1.6591 -2.8633 -1.5606
  160SOL     OW  478   1.397   2.309   1.582  0.1432 -0.1443 -0.2691
  160SOL    HW1  479   1.416   2.318   1.682 -0.3359 -1.4070  0.6937
  160SOL    HW2  480   1.487   2.299   1.528 -0.1887  0.3224  0.9149
  161SOL     OW  481   0.106   2.938   0.297  0.2482  0.3704 -0.2418
  161SOL    HW1  482   0.019   2.880   0.288 -0.2886  3.3110 -0.0476
  161SOL    HW2  483   0.096   3.016   0.235  0.3913 -2.1392 -0.5969
  162SOL     OW  484   2.505   1.902   0.471  0.6744  0.0257  0.3180
  162SOL    HW1  485   2.509   1.860   0.374 -0.6829 -0.8525 -3.4495
  162SOL    HW2  486   2.525   1.826   0.542 -0.9096 -0.4971  0.8193
  163SOL     OW  487   1.897   2.824   0.706  0.2502  0.4266  0.2651
  163SOL    HW1  488   1.915   2.841   0.607  2.2715 -2.6199  0.2194
  163SOL    HW2  489   1.964   2.760   0.750 -1.0132  1.2939  1.3858
  164SOL     OW  490   3.070   0.239   1.202 -0.0893  0.5199  0.3718
  164SOL    HW1  491   3.137   0.293   1.148 -2.2163  0.2119  4.6634
  164SOL    HW2  492   3.111   0.170   1.270 -1.5710  2.2580  0.5336
  165SOL     OW  493   0.953   1.446   0.750  0.7498 -0.0821 -0.1240
  165SOL    HW1  494   0.905   1.504   0.821 -1.1232  3.1139  0.0087
  165SOL    HW2  495   0.935   1.480   0.652  1.1576  4.0725  1.6664
  166SOL     OW  496   1.492   1.090   1.721  0.0814 -0.1449  0.6530
  166SOL    HW1  497   1.411   1.089   1.784  0.8860 -1.4057  1.9314
  166SOL    HW2  498   1.580   1.130   1.759  0.4694 -1.3274  1.0693
  167SOL     OW  499   0.724   1.931   1.451 -0.3546 -0.2113  0.2222
  167SOL    HW1  500   0.757   2.000   1.519  1.3229 -1.2028  0.3853
  167SOL    HW2  501   0.663   1.859   1.495  1.9792  0.5235 -0.3841
  168SOL     OW  502   1.641   2.384   0.152  0.0459  0.2389 -0.6035
  168SOL    HW1  503   1.712   2.432   0.087  2.5464  0.0282 -0.5797
  168SOL    HW2  504   1.668   2.342   0.243 -0.0271  1.1128 -0.4273
  169SOL     OW  505   0.177   2.546   2.224  0.1635  0.0240  0.4833
  169SOL    HW1  506   0.206   2.509   2.129  1.1569  1.4652  0.1087
  169SOL    HW2  507   0.197   2.492   2.307  2.3620 -0.3837 -0.7235
  170SOL     OW  508   1.125   0.237   1.995 -0.4389  0.3068  0.1847
  170SOL    HW1  509   1.202   0.203   2.055  1.0016 -0.0003  0.6440
  170SOL    HW2  510   1.140   0.200   1.900  1.2667  1.6435  0.7895
  171SOL     OW  511   0.210   0.770   2.419 -0.1384 -0.0602 -0.1324
  171SOL    HW1  512   0.131   0.829   2.452 -1.6711 -1.3910 -3.1938
  171SOL    HW2  513   0.193   0.745   2.317  0.6399  0.7894  1.4921
  172SOL     OW  514   0.919   1.041   2.906 -0.4876 -0.5302  0.5190
  172SOL    HW1  515   0.999   1.105   2.922  0.0533 -1.7325 -0.9231
  172SOL    HW2  516   0.879   1.052   2.810 -1.6840  1.0399 -0.8110
  173SOL     OW  517   0.639   2.687   0.114  0.0896  0.1620  0.5201
  173SOL    HW1  518   0.615   2.782   0.089 -1.0615  1.9548  1.5324
  173SOL    HW2  519   0.561   2.637   0.166 -2.9851 -2.5159  2.3815
  174SOL     OW  520   1.451   2.834   1.088  0.1734  0.2584 -0.2768
  174SOL    HW1  521   1.431   2.924   1.045  1.7815  0.9321 -1.4716
  174SOL    HW2  522   1.534   2.783   1.046  0.4590 -0.5094 -0.4494
  175SOL     OW  523   0.388   0.015   1.663  0.1319 -0.5687 -0.7297
  175SOL    HW1  524   0.470   0.058   1.705  1.0690 -1.5056 -1.5334
  175SOL    HW2  525   0.344   0.080   1.596  0.3319 -1.0716 -0.8991
  176SOL     OW  526   2.598   0.387   0.002  0.4763  0.4176  0.0163
  176SOL    HW1  527   2.627   0.471   0.058  0.6543  1.0260  2.7069
  176SOL    HW2  528   2.521   0.338   0.052  1.5969 -1.8621 -5.0168
  177SOL     OW  529   0.362   0.306   1.015 -0.1800 -0.0035  0.2786
  177SOL    HW1  530   0.314   0.253   0.943  0.4870 -0.4366 -0.7569
  177SOL    HW2  531   0.295   0.352   1.074  0.3373 -1.5992  1.5960
  178SOL     OW  532   3.079   2.679   2.610  0.1780  0.8233 -0.7596
  178SOL    HW1  533   3.003   2.619   2.652  0.6671 -1.0243 -0.5150
  178SOL    HW2  534   3.147   2.707   2.682 -1.3387  2.1032 -1.6356
  179SOL     OW  535   0.006   1.635   1.178 -0.1453 -0.8838 -0.4867
  179SOL    HW1  536  -0.060   1.719   1.178 -0.1527  4.0198 -1.1689
  179SOL    HW2  537  -0.025   1.571   1.253 -0.2599  0.0167 -1.8131
  180SOL     OW  538   0.214   1.216   1.855 -0.6612  0.2373  0.3619
  180SOL    HW1  539   0.321   1.212   1.847 -0.4664  0.3745 -0.2385
  180SOL    HW2  540   0.181   1.297   1.908 -1.2108  3.3722  0.7214
  181SOL     OW  541   2.999   1.845   2.492  0.0844  0.1821  0.1052
  181SOL    HW1  542   3.076   1.918   2.491  1.1271 -2.0443 -0.6652
  181SOL    HW2  543   2.920   1.876   2.429  0.9172  1.6220  1.0274
  182SOL     OW  544   2.245   1.307   1.177 -0.0030 -0.0652  0.1813
  182SOL    HW1  545   2.202   1.244   1.106  0.8716 -0.1779  2.0460
  182SOL    HW2  546   2.253   1.407   1.145 -1.4465  0.3984  0.6238
  183SOL     OW  547   1.505   2.228   2.560 -0.3782 -0.3131  0.2055
  183SOL    HW1  548   1.414   2.177   2.562 -0.7161 -1.6791 -0.8305
  183SOL    HW2  549   1.582   2.167   2.531 -4.5824  1.6460  0.9322
  184SOL     OW  550   2.051   0.845   0.793  0.5779 -0.2331 -0.0470
  184SOL    HW1  551   1.975   0.909   0.758  0.2174  0.4118 -2.1086
  184SOL    HW2  552   2.011   0.768   0.850 -0.1041 -1.5105 -1.5814
  185SOL     OW  553   1.597   2.783   2.079  0.1712  0.3491 -0.6026
  185SOL    HW1  554   1.541   2.872   2.068 -0.0019  1.1289 -0.4693
  185SOL    HW2  555   1.584   2.737   2.171  2.4322 -1.8243 -2.0662
  186SOL     OW  556   0.109   2.206   1.662  0.0463 -0.7652 -0.2142
  186SOL    HW1  557   0.076   2.257   1.747  0.0725 -1.8874  0.0737
  186SOL    HW2  558   0.201   2.155   1.687  3.1545 -1.2417 -1.0628
  187SOL     OW  559   1.311   0.761   1.664 -0.3118 -0.0543  0.3538
  187SOL    HW1  560   1.403   0.798   1.623 -1.9496  2.9108 -1.8910
  187SOL    HW2  561   1.323   0.746   1.767 -0.3830  2.3731 -0.3248
  188SOL     OW  562   2.747   2.780   1.433  0.1247  0.5422  0.1543
  188SOL    HW1  563   2.763   2.880   1.417  0.5200 -0.2751  0.7156
  188SOL    HW2  564   2.683   2.735   1.360  1.1959 -1.9280  0.4962
  189SOL     OW  565   0.918   1.220   1.402  0.7507  0.0669 -0.0206
  189SOL    HW1  566   0.996   1.267   1.451 -2.2611 -1.2975 -0.1432
  189SOL    HW2  567   0.844   1.279   1.369  2.1417 -0.1698  1.5671
  190SOL     OW  568   1.468   1.907   1.583 -0.0188 -0.2944 -0.0256
  190SOL    HW1  569   1.409   1.822   1.601  0.0634 -0.0616  2.9658
  190SOL    HW2  570   1.453   1.985   1.653 -1.6479  0.7942  0.8330
  191SOL     OW  571   0.970   0.756   1.549 -0.1964 -0.2046  0.3713
  191SOL    HW1  572   1.048   0.685   1.548 -0.6843 -0.0001  0.7934
  191SOL    HW2  573   1.005   0.850   1.583 -1.5952  1.0406  0.9701
  192SOL     OW  574   1.855   2.261   1.108  0.5855  0.2537  0.1807
  192SOL    HW1  575   1.755   2.269   1.083  1.6233 -1.0105  2.0582
  192SOL    HW2  576   1.915   2.335   1.065  0.2066 -0.2333 -1.2686
  193SOL     OW  577   0.574   0.588   0.453  0.2426  0.0763  0.3590
  193SOL    HW1  578   0.532   0.510   0.507  2.0794  0.8689 -3.2631
  193SOL    HW2  579   0.598   0.567   0.353  0.1330  0.5188 -2.1466
  194SOL     OW  580   0.348   0.850   1.290 -0.0190  0.4013  0.1634
  194SOL    HW1  581   0.301   0.765   1.249  0.3708 -2.8273  0.6934
  194SOL    HW2  582   0.332   0.938   1.236 -2.2669 -2.0835 -1.8379
  195SOL     OW  583   1.016   2.898   0.544 -0.3790 -0.1290  0.1924
  195SOL    HW1  584   1.041   2.806   0.510  1.0786 -0.5878 -0.4189
  195SOL    HW2  585   1.089   2.971   0.522  1.1847  1.8362 -2.5521
  196SOL     OW  586   0.221   1.347   1.377  0.2925 -0.1518 -0.1627
  196SOL    HW1  587   0.247   1.441   1.416 -1.1386  1.0131 -1.4470
  196SOL    HW2  588   0.216   1.273   1.449  2.1026  1.4979  0.8550
  197SOL     OW  589   0.831   2.038   0.230 -0.0136 -0.3158  0.2433
  197SOL    HW1  590   0.806   2.028   0.331 -0.7336  0.3610  0.3723
  197SOL    HW2  591   0.902   1.967   0.194  0.8181  0.1485  0.5991
  198SOL     OW  592   0.311   1.242   0.220 -0.3842 -0.4815 -0.4347
  198SOL    HW1  593   0.208   1.223   0.219  0.5370  0.9935  1.5751
  198SOL    HW2  594   0.330   1.342   0.251  1.2714  3.0265  1.4923
  199SOL     OW  595   2.222   0.389   2.552  0.5637  0.2318  0.0058
  199SOL    HW1  596   2.164   0.359   2.632  2.0795 -0.1994 -2.8253
  199SOL    HW2  597   2.323   0.376   2.567  1.6483 -2.7372  0.0703
  200SOL     OW  598   0.030   2.944   0.743 -0.3525  0.3090  0.0388
  200SOL    HW1  599  -0.062   2.942   0.703  2.7910 -1.0619 -0.4529
  200SOL    HW2  600   0.060   3.037   0.770 -1.5140 -0.1992  0.7080
  201SOL     OW  601   1.116   0.767   0.632 -0.7521  0.2240  0.1114
  201SOL    HW1  602   1.128   0.834   0.711  1.2078  3.3211 -1.4506
  201SOL    HW2  603   1.031   0.716   0.638 -1.7391 -0.3402  0.0530
  202SOL     OW  604   0.488   1.175   1.824 -0.6291 -0.4471  0.3916
  202SOL    HW1  605   0.525   1.173   1.727  0.4421 -3.2405  2.6325
  202SOL    HW2  606   0.560   1.126   1.886  0.6518  0.8344  2.2799
  203SOL     OW  607   0.670   0.212   1.560 -0.4928  0.1963  0.1706
  203SOL    HW1  608   0.748   0.205   1.491 -0.4936 -1.8708  0.8968
  203SOL    HW2  609   0.698   0.168   1.652 -0.2671 -1.7850 -1.1843
  204SOL     OW  610   2.050   1.870   2.929 -0.1860  0.1927  0.3592
  204SOL    HW1  611   2.084   1.773   2.949  1.7631 -2.0468  0.1462
  204SOL    HW2  612   2.095   1.906   2.840  1.7623 -2.0104  0.5870
  205SOL     OW  613   1.822   1.873   3.069 -0.0226 -0.1324 -0.3693
  205SOL    HW1  614   1.908   1.874   3.009 -0.1514  2.3965 -2.1650
  205SOL    HW2  615   1.785   1.973   3.083 -0.4345  2.5680  0.5853
  206SOL     OW  616   2.497   2.792   0.319 -0.1221  0.0183  0.0706
  206SOL    HW1  617   2.558   2.734   0.381 -1.0877  0.8292 -0.8223
  206SOL    HW2  618   2.544   2.838   0.240 -1.1855 -2.0411  0.7574
  207SOL     OW  619   0.631   1.791   2.960  0.2268  0.1608  0.2971
  207SOL    HW1  620   0.731   1.767   2.958 -0.7178 -1.0698 -1.5246
  207SOL    HW2  621   0.581   1.738   3.033  0.6038  1.2129 -1.3930
  208SOL     OW  622   1.130   1.572   1.414 -0.0642 -0.2571 -0.2036
  208SOL    HW1  623   1.127   1.635   1.332 -1.2501 -2.1253 -0.1272
  208SOL    HW2  624   1.176   1.620   1.496 -1.2467  1.1341 -1.2701
  209SOL     OW  625   0.252   0.966   3.061 -0.3771  0.2017  0.6873
  209SOL    HW1  626   0.274   0.880   3.010  1.3679 -0.8887  2.0942
  209SOL    HW2  627   0.248   0.946   3.163  2.9618 -0.3606  1.2374
  210SOL     OW  628   1.786   0.540   1.184 -0.1034  0.3546 -0.2912
  210SOL    HW1  629   1.729   0.613   1.146  1.6463 -0.1332 -0.0553
  210SOL    HW2  630   1.885   0.532   1.148  0.2614  0.5832  0.4174
  211SOL     OW  631   2.135   1.033   1.558  0.8837 -0.3383 -0.0611
  211SOL    HW1  632   2.182   0.970   1.622 -0.7988 -0.8204 -0.0322
  211SOL    HW2  633   2.193   1.084   1.485  2.1012 -2.3753 -0.9718
  212SOL     OW  634   0.020   0.961   1.472 -0.1380 -0.0480  0.4173
  212SOL    HW1  635   0.080   1.035   1.508 -1.6493  0.9312 -2.9696
  212SOL    HW2  636   0.034   0.871   1.525 -1.3555  0.7760  0.6228
  213SOL     OW  637   2.819   0.319   0.376  0.4746 -1.0598 -0.0929
  213SOL    HW1  638   2.861   0.249   0.316  1.4152  1.6204  3.5349
  213SOL    HW2  639   2.739   0.376   0.336  3.0077 -1.3157  2.4489
  214SOL     OW  640   2.175   0.245   2.311  0.2167 -0.1204 -0.4399
  214SOL    HW1  641   2.194   0.279   2.408 -0.0309 -0.7289  0.9645
  214SOL    HW2  642   2.143   0.146   2.295 -0.9854 -0.9050  0.8669
  215SOL     OW  643   1.632   2.280   2.121 -0.5466 -0.3093  0.7307
  215SOL    HW1  644   1.726   2.320   2.091 -0.9293  1.2714 -0.1937
  215SOL    HW2  645   1.570   2.347   2.166  0.7593 -0.7127  2.1395
  216SOL     OW  646   2.196   0.644   0.642 -0.4560  0.7681  0.1459
  216SOL    HW1  647   2.155   0.559   0.591  1.4095  0.2499  0.4710
  216SOL    HW2  648   2.131   0.713   0.679 -0.0893  1.3127  0.0196
  217SOL     OW  649   0.761   2.788   2.453  0.5100  0.1694 -0.6563
  217SOL    HW1  650   0.750   2.700   2.510 -1.0750  1.5526  0.9736
  217SOL    HW2  651   0.762   2.761   2.351 -1.6583 -0.1908 -1.2179
  218SOL     OW  652   1.918   1.443   0.057  0.0137 -0.3366 -0.2503
  218SOL    HW1  653   1.827   1.447   0.005  0.3668 -0.8785  0.6475
  218SOL    HW2  654   1.911   1.367   0.131 -1.3785  2.3204 -1.2283
  219SOL     OW  655   2.361   1.269   2.544  0.0384  0.7015 -0.4630
  219SOL    HW1  656   2.429   1.256   2.471 -0.3653  0.2396 -0.9289
  219SOL    HW2  657   2.360   1.188   2.611 -0.7663 -0.5440 -0.6898
  220SOL     OW  658   1.520   1.049   1.238  0.3606  0.5153 -0.3320
  220SOL    HW1  659   1.621   1.062   1.267  0.2611  0.0839 -1.4616
  220SOL    HW2  660   1.510   1.089   1.143 -2.6814 -0.6412 -0.0943
  221SOL     OW  661   1.363   0.977   2.214 -0.2446 -0.3903  0.3402
  221SOL    HW1  662   1.305   0.996   2.126 -1.8293  0.4794 -1.4346
  221SOL    HW2  663   1.461   0.942   2.195  1.3724  2.8835  0.8129
  222SOL     OW  664   1.158   0.017   1.197 -0.9584 -0.1464 -0.7953
  222SOL    HW1  665   1.221  -0.007   1.275  0.9965  1.6136 -1.3366
  222SOL    HW2  666   1.200   0.100   1.151 -1.0652 -2.1198 -0.9608
  223SOL     OW  667   2.727   0.888   2.012  0.0461 -0.0515 -0.0399
  223SOL    HW1  668   2.700   0.878   2.113 -0.4827 -1.6442  0.1703
  223SOL    HW2  669   2.819   0.927   1.998 -0.8230  2.1910 -0.2382
  224SOL     OW  670   1.561   1.016   2.760 -0.8561  0.2902  0.0987
  224SOL    HW1  671   1.577   0.946   2.682  0.4434 -0.5715 -2.1710
  224SOL    HW2  672   1.492   1.089   2.730  1.0134 -1.5221  0.8143
  225SOL     OW  673   2.911   2.791   2.887 -0.2466 -0.3500 -0.3720
  225SOL    HW1  674   2.918   2.708   2.824  0.2085  0.0116 -1.4776
  225SOL    HW2  675   2.979   2.863   2.852 -0.0160 -0.7460  0.4732
  226SOL     OW  676   2.402   1.597   2.800  0.3976 -0.2377  0.4498
  226SOL    HW1  677   2.470   1.573   2.719  1.0702 -2.0379 -1.9608
  226SOL    HW2  678   2.366   1.516   2.846 -0.2102  0.2560 -0.6919
  227SOL     OW  679   0.815   0.149   3.050 -0.0171  0.0040  0.4854
  227SOL    HW1  680   0.849   0.062   3.089 -2.2196  0.5334  0.1004
  227SOL    HW2  681   0.835   0.151   2.949  2.7348 -2.9143  2.0218
  228SOL     OW  682   2.403   0.593   2.871  0.1815  0.2884 -0.1584
  228SOL    HW1  683   2.350   0.620   2.781  0.4759  2.2274 -2.1109
  228SOL    HW2  684   2.493   0.545   2.848 -1.3178  1.4632 -0.2863
  229SOL     OW  685   0.631   0.431   1.888 -0.3544 -1.0272 -0.3032
  229SOL    HW1  686   0.615   0.331   1.898 -0.1753 -0.9082  3.0815
  229SOL    HW2  687   0.646   0.458   1.789 -0.5294  4.7949 -1.0835
  230SOL     OW  688   1.918   1.142   2.129 -0.3852  0.2679 -0.5663
  230SOL    HW1  689   1.991   1.199   2.073  0.3392  0.1149 -0.9585
  230SOL    HW2  690   1.827   1.187   2.158  0.5606 -2.1432  0.4859
  231SOL     OW  691   0.667   0.996   3.017  0.6940  0.1637  0.1500
  231SOL    HW1  692   0.759   1.033   2.982  0.3321 -0.8503 -0.3864
  231SOL    HW2  693   0.593   1.072   3.031  1.5761  0.8744  0.2823
  232SOL     OW  694   2.395   3.100   2.816 -0.6802  0.1983  0.2970
  232SOL    HW1  695   2.459   3.019   2.823 -0.4716  2.3772 -0.8427
  232SOL    HW2  696   2.422   3.161   2.736 -2.6269  0.2474 -0.6475
  233SOL     OW  697   1.734   1.288   1.158 -0.2040 -0.0513 -0.4082
  233SOL    HW1  698   1.754   1.278   1.058  0.0306 -0.7927 -0.3669
  233SOL    HW2  699   1.758   1.208   1.214 -0.1759  3.0380 -2.0367
  234SOL     OW  700   1.607   2.603   1.868  0.1665  0.0642 -0.6191
  234SOL    HW1  701   1.579   2.685   1.927 -1.1419 -2.1692 -0.7473
  234SOL    HW2  702   1.580   2.516   1.912 -0.8955  0.7461  0.9290
  235SOL     OW  703   0.032   2.986   2.869 -0.4757 -0.1064 -0.0684
  235SOL    HW1  704   0.085   3.042   2.802 -0.0746 -1.6723 -0.2772
  235SOL    HW2  705  -0.047   3.044   2.901  0.8751 -1.7479  1.5295
  236SOL     OW  706   2.886   0.738   0.094  0.5036 -0.1859 -0.9614
  236SOL    HW1  707   2.946   0.798   0.156  1.5775 -1.4602 -1.2021
  236SOL    HW2  708   2.940   0.658   0.055  1.1951  0.3408  1.2413
  237SOL     OW  709   1.500   1.711   1.012  0.3651  0.1374  0.8533
  237SOL    HW1  710   1.598   1.720   0.987  0.8328  1.0087 -1.4746
  237SOL    HW2  711   1.485   1.733   1.115  2.3174  0.1873  2.5090
  238SOL     OW  712   1.758   1.280   0.876  0.2986  0.7406  0.2900
  238SOL    HW1  713   1.835   1.344   0.889 -1.7309 -0.6089 -2.6963
  238SOL    HW2  714   1.685   1.319   0.815 -2.6381 -1.2131  1.5128
  239SOL     OW  715   2.043   0.246   2.737  0.2806  0.5417  0.0050
  239SOL    HW1  716   2.093   0.213   2.821 -0.2321  0.4506  1.4205
  239SOL    HW2  717   1.969   0.308   2.766 -0.1656  0.6349 -0.5390
  240SOL     OW  718   0.943   0.639   0.348 -0.8271  0.3627  0.1217
  240SOL    HW1  719   0.968   0.554   0.288 -0.8938 -2.9988  0.2375
  240SOL    HW2  720   0.919   0.603   0.445 -1.3563 -3.9833 -1.6091
  241SOL     OW  721   0.615   0.106   0.367 -0.2130  0.2315 -0.2058
  241SOL    HW1  722   0.641   0.167   0.287 -0.4721 -2.9155  0.6772
  241SOL    HW2  723   0.600   0.010   0.323 -0.9889 -1.5042 -2.3775
  242SOL     OW  724   0.667   2.521   1.118 -0.0370  0.5219  0.0062
  242SOL    HW1  725   0.618   2.525   1.210  0.0707 -0.0343 -0.9625
  242SOL    HW2  726   0.760   2.572   1.117 -0.9015  0.5677 -1.3480
  243SOL     OW  727   1.076   0.581   2.490  0.3139  0.1836  0.1589
  243SOL    HW1  728   0.997   0.619   2.439  0.6622 -2.6409 -1.4538
  243SOL    HW2  729   1.046   0.495   2.543 -2.6904  0.5630 -0.6789
  244SOL     OW  730   2.789   1.905   2.338  0.2167  0.0406 -0.0009
  244SOL    HW1  731   2.822   1.913   2.235  0.0289 -0.3317 -4.0156
  244SOL    HW2  732   2.720   1.828   2.350 -1.6834 -0.1287 -0.8144
  245SOL     OW  733   2.403   0.655   2.207 -0.7230  0.2282  0.5508
  245SOL    HW1  734   2.456   0.732   2.256  1.8547  0.5117  0.9126
  245SOL    HW2  735   2.438   0.568   2.251  0.0863  2.0364 -1.8522
  246SOL     OW  736   0.218   2.906   1.681 -0.2146  0.2027  0.4851
  246SOL    HW1  737   0.162   2.911   1.593 -1.2791 -0.8477 -0.0773
  246SOL    HW2  738   0.301   2.975   1.685  2.9672 -1.6605  0.8430
  247SOL     OW  739   2.145   0.566   3.043 -0.2420 -0.1051  0.2472
  247SOL    HW1  740   2.236   0.577   2.988 -0.5703  2.0006 -0.9142
  247SOL    HW2  741   2.075   0.644   3.016  0.0546 -0.9270  2.9162
  248SOL     OW  742   2.136   1.834   1.573  0.5928  0.2932  0.0971
  248SOL    HW1  743   2.187   1.771   1.643  0.3559  0.8376 -0.0123
  248SOL    HW2  744   2.034   1.814   1.566 -0.4487 -0.8204  2.0828
  249SOL     OW  745   1.880   1.890   1.918 -0.9328  0.2435 -0.1965
  249SOL    HW1  746   1.875   1.813   1.847 -0.3529 -2.0403  1.9105
  249SOL    HW2  747   1.975   1.936   1.917  0.6365  1.6919 -0.8451
  250SOL     OW  748   1.123   0.713   1.916  0.2425 -0.1964  0.6518
  250SOL    HW1  749   1.186   0.636   1.946 -0.3420 -1.8765  0.6887
  250SOL    HW2  750   1.049   0.688   1.849 -0.5728  0.2634  0.2348
  251SOL     OW  751   3.102   1.567   2.526  0.2468  0.0895 -0.2981
  251SOL    HW1  752   3.095   1.666   2.491  2.4327 -0.4509 -0.5582
  251SOL    HW2  753   3.011   1.526   2.559  3.1299 -2.5196  2.1622
  252SOL     OW  754   1.542   0.874   1.557 -0.6560 -0.5848 -0.1730
  252SOL    HW1  755   1.592   0.871   1.466  2.2534  0.5277  0.2687
  252SOL    HW2  756   1.562   0.966   1.610 -0.0220  0.0996 -1.9189
  253SOL     OW  757   0.859   1.540   0.476  0.4683 -0.2501  0.5445
  253SOL    HW1  758   0.897   1.465   0.407  0.5039  0.7306  0.0977
  253SOL    HW2  759   0.776   1.508   0.520 -0.8425  0.5622 -0.9706
  254SOL     OW  760   2.034   2.138   1.603 -0.2934  0.4274  0.4101
  254SOL    HW1  761   1.984   2.077   1.533  0.6565 -3.3528  2.2462
  254SOL    HW2  762   1.969   2.157   1.685 -1.2139  1.2742  0.4869
  255SOL     OW  763   0.123   1.165   2.901  0.1989  0.0475 -0.4678
  255SOL    HW1  764   0.190   1.237   2.872 -0.9136 -2.1325 -0.7602
  255SOL    HW2  765   0.160   1.082   2.957 -1.7154 -0.1040 -0.3808
  256SOL     OW  766   2.793   1.376   1.736  0.4312 -0.6890  0.4017
  256SOL    HW1  767   2.698   1.401   1.770  1.1412  2.3999 -0.0806
  256SOL    HW2  768   2.806   1.273   1.719 -1.2715  0.0065 -0.1435
  257SOL     OW  769   0.834   0.206   1.794 -0.4671  0.6490 -0.0677
  257SOL    HW1  770   0.879   0.290   1.755 -3.2669 -2.4294 -1.6352
  257SOL    HW2  771   0.878   0.121   1.761 -0.1202  2.4591  0.7171
  258SOL     OW  772   2.918   1.298   0.468  0.6009 -0.4203  0.3087
  258SOL    HW1  773   2.848   1.374   0.449  1.3976 -0.7979  2.9483
  258SOL    HW2  774   2.961   1.298   0.560 -1.6730  1.2891  0.9776
  259SOL     OW  775   0.468   2.961   3.033  0.2249  0.1188 -0.0303
  259SOL    HW1  776   0.389   2.901   3.075  0.6966 -0.0136  0.2160
  259SOL    HW2  777   0.476   2.949   2.934  0.2653  0.5746  1.3070
  260SOL     OW  778   2.770   0.841   2.763 -0.2519 -0.0343 -0.6066
  260SOL    HW1  779   2.677   0.795   2.768  0.3844  1.5814  3.5513
  260SOL    HW2  780   2.795   0.892   2.856 -3.1128  1.3601  1.4238
  261SOL     OW  781   2.740   1.302   1.293  0.0273 -0.0214  0.0531
  261SOL    HW1  782   2.664   1.251   1.242 -0.9425  0.5911  1.1171
  261SOL    HW2  783   2.801   1.238   1.339  0.4198  0.0874 -3.8226
  262SOL     OW  784   1.434   2.989   2.047  0.0768 -0.3421 -0.1728
  262SOL    HW1  785   1.470   3.058   1.978 -0.3561 -1.1527 -0.1934
  262SOL    HW2  786   1.348   2.941   2.007 -1.9856 -0.2336 -2.5088
  263SOL     OW  787   0.878   0.696   2.351 -0.2516  0.1858  0.3042
  263SOL    HW1  788   0.837   0.614   2.298  0.7987 -1.1568 -2.8954
  263SOL    HW2  789   0.921   0.758   2.276  1.2442 -0.5333 -2.2606
  264SOL     OW  790   2.194   0.831   0.308 -0.1372  0.4320  0.3953
  264SOL    HW1  791   2.116   0.789   0.354  0.0021 -1.2376  0.2967
  264SOL    HW2  792   2.283   0.811   0.349  3.0283  0.5329  1.1912
  265SOL     OW  793   0.901   2.333   2.679  0.0667  0.8748 -0.1021
  265SOL    HW1  794   0.954   2.369   2.761  0.4771  2.2667  0.2141
  265SOL    HW2  795   0.849   2.241   2.704 -1.3077 -1.5964  1.4090
  266SOL     OW  796   1.330   1.713   0.017  0.0623 -0.7974 -0.4120
  266SOL    HW1  797   1.338   1.800   0.075  1.4949  1.0302  0.1097
  266SOL    HW2  798   1.413   1.691  -0.038  1.3845  0.6864  0.2104
  267SOL     OW  799   0.964   3.027   2.358 -0.2543 -0.0551  0.0935
  267SOL    HW1  800   0.968   2.993   2.260 -1.1807  0.8956 -0.6142
  267SOL    HW2  801   0.912   3.116   2.362  3.0262 -0.2293  0.3915
  268SOL     OW  802   0.685   1.146   1.092  0.0087  0.4035 -0.7068
  268SOL    HW1  803   0.675   1.180   1.186 -1.0272  2.6062 -0.2557
  268SOL    HW2  804   0.675   1.224   1.024 -1.7097 -0.0114  0.8969
  269SOL     OW  805   2.386   2.514   1.547 -0.0174  0.3533  0.0500
  269SOL    HW1  806   2.467   2.452   1.558 -0.8183 -1.0465 -1.3851
  269SOL    HW2  807   2.335   2.535   1.635 -1.7836  2.6862  0.1735
  270SOL     OW  808   0.154   3.007   1.929  0.4833 -0.6877  0.4103
  270SOL    HW1  809   0.171   2.961   1.836  0.5396 -0.5396 -1.1962
  270SOL    HW2  810   0.169   2.945   2.010  0.6845 -1.8051 -0.2179
  271SOL     OW  811   0.397   1.369   1.168  0.2050 -0.3810  0.4369
  271SOL    HW1  812   0.354   1.382   1.073  1.7131  1.1613 -2.5818
  271SOL    HW2  813   0.330   1.382   1.244 -1.3776  1.0151  1.4185
  272SOL     OW  814   1.944   2.858   1.930  0.4365 -0.1549  0.3344
  272SOL    HW1  815   1.932   2.789   1.858  0.6113 -1.9138 -2.4938
  272SOL    HW2  816   2.025   2.924   1.918 -1.2229  1.1917 -2.4909
  273SOL     OW  817   1.453   1.449   2.774  0.3451 -0.5049 -0.0964
  273SOL    HW1  818   1.371   1.509   2.782  0.8509 -0.6822  0.1205
  273SOL    HW2  819   1.505   1.446   2.860 -1.0211 -0.2607 -1.5384
  274SOL     OW  820   1.266   0.485   2.010 -0.4747 -0.5889  0.2982
  274SOL    HW1  821   1.203   0.399   2.000 -1.7301 -2.4692 -1.9306
  274SOL    HW2  822   1.285   0.514   2.105  0.7180  1.9157 -0.0448
  275SOL     OW  823   0.610   2.101   1.859 -0.3524  0.1657  0.3511
  275SOL    HW1  824   0.577   2.182   1.914  1.8593  1.4582 -1.0457
  275SOL    HW2  825   0.542   2.025   1.856 -2.4366 -1.1179 -1.9415
  276SOL     OW  826   2.160   0.901   2.806  0.2123 -0.3753 -0.3654
  276SOL    HW1  827   2.094   0.865   2.736 -1.6201 -1.6620 -1.1173
  276SOL    HW2  828   2.132   0.868   2.904  1.4250  0.5136 -0.0480
  277SOL     OW  829   3.092   0.863   0.244  0.0402  0.5570 -0.3566
  277SOL    HW1  830   3.179   0.879   0.190 -0.8531  0.7173 -0.9872
  277SOL    HW2  831   3.101   0.771   0.293 -2.0029 -0.7990 -1.1142
  278SOL     OW  832   0.236   0.279   0.014 -0.2915  0.2646  0.4238
  278SOL    HW1  833   0.315   0.215  -0.001 -1.0478 -0.5351 -3.8484
  278SOL    HW2  834   0.268   0.380   0.004  3.5695  3.1014  0.9931
  279SOL     OW  835   0.153   0.098   0.899  0.2336 -0.5410 -0.3214
  279SOL    HW1  836   0.157   0.055   0.992  0.0126  1.7180  0.6166
  279SOL    HW2  837   0.214   0.053   0.825 -0.0456 -2.8920 -1.6133
  280SOL     OW  838   1.560   2.938   2.493  0.4000  0.6175 -0.5619
  280SOL    HW1  839   1.643   2.983   2.538  0.5781  1.9067  0.0883
  280SOL    HW2  840   1.474   2.989   2.520  1.6662  1.7857 -1.6926
  281SOL     OW  841   0.570   0.932   2.235 -0.6567 -0.0266 -0.5825
  281SOL    HW1  842   0.577   0.842   2.190  1.0328 -0.0027  1.7508
  281SOL    HW2  843   0.521   0.927   2.326  1.4462 -1.3323 -0.3871
  282SOL     OW  844   1.779   2.507   0.519 -0.0000  0.5688  0.1235
  282SOL    HW1  845   1.745   2.423   0.467 -2.9744  1.6311  0.7885
  282SOL    HW2  846   1.711   2.587   0.512 -3.6567 -1.6591  1.0665
  283SOL     OW  847   1.125   0.912   0.847 -0.0343  0.1788  0.1470
  283SOL    HW1  848   1.172   0.865   0.930  0.6697  0.0303 -1.9057
  283SOL    HW2  849   1.084   1.006   0.876 -0.4605  0.3506 -1.9254
  284SOL     OW  850   2.362   2.688   2.434  0.4237  0.0126  1.0761
  284SOL    HW1  851   2.360   2.786   2.401  0.6171  1.3403  0.0548
  284SOL    HW2  852   2.422   2.680   2.525  1.0160 -1.3640  1.0476
  285SOL     OW  853   1.305   3.030   2.563  0.1424 -0.4089  0.2920
  285SOL    HW1  854   1.314   3.050   2.461  0.0108 -0.7914 -1.2127
  285SOL    HW2  855   1.209   3.060   2.606 -1.2587  0.4668  2.5321
  286SOL     OW  856   0.449   0.452   0.776  0.2565  0.4452  0.1275
  286SOL    HW1  857   0.424   0.400   0.861 -2.5098  1.1524  0.0397
  286SOL    HW2  858   0.460   0.399   0.690 -3.0226  2.0075 -0.4050
  287SOL     OW  859   0.128   1.284   2.544  0.1280 -0.5188 -0.2518
  287SOL    HW1  860   0.056   1.237   2.600  0.5374  1.5283  2.6257
  287SOL    HW2  861   0.084   1.382   2.522 -0.7076  1.0790 -0.9067
  288SOL     OW  862   1.578   2.688   1.574 -0.0946  0.1157  1.0481
  288SOL    HW1  863   1.609   2.664   1.671  1.0203 -0.0855 -3.6618
  288SOL    HW2  864   1.648   2.666   1.496  0.3780 -2.6620 -2.6706
  289SOL     OW  865   0.614   2.731   0.844  1.0285 -0.2583  0.1636
  289SOL    HW1  866   0.685   2.777   0.779  0.1830  1.3786 -0.6246
  289SOL    HW2  867   0.590   2.793   0.920 -0.5291 -0.2037 -0.6154
  290SOL     OW  868   2.796   1.097   1.705 -0.2934  0.2865 -0.2891
  290SOL    HW1  869   2.690   1.082   1.711 -0.8239 -0.9987 -0.0818
  290SOL    HW2  870   2.850   1.017   1.746 -1.2826  0.6639  1.0729
  291SOL     OW  871   1.986   0.089   0.076  0.5200  0.1759 -0.3045
  291SOL    HW1  872   1.975   0.077   0.179 -2.7968 -2.3800  0.0230
  291SOL    HW2  873   2.041   0.170   0.045 -1.1526 -1.8418 -2.6342
  292SOL     OW  874   3.003   1.195   3.071  0.5615  0.1756 -0.3764
  292SOL    HW1  875   2.925   1.252   3.036  0.2753  1.8851 -0.3675
  292SOL    HW2  876   3.083   1.192   3.008 -0.5430 -0.5900 -1.3458
  293SOL     OW  877   0.573   2.143   0.140  0.2528 -0.2173  0.5106
  293SOL    HW1  878   0.527   2.216   0.204 -1.5991  0.6930  3.1477
  293SOL    HW2  879   0.673   2.122   0.165 -2.3175  0.5849 -0.2739
  294SOL     OW  880   1.781   2.210   1.773  0.4663 -0.1982  0.1922
  294SOL    HW1  881   1.831   2.270   1.837 -0.8487 -0.7236  1.6242
  294SOL    HW2  882   1.756   2.245   1.677 -2.7685 -0.9081 -2.7559
  295SOL     OW  883   0.992   1.032   0.509 -0.0157  0.1060  0.4542
  295SOL    HW1  884   1.068   0.972   0.556  0.0394  0.8898 -1.3874
  295SOL    HW2  885   0.904   1.041   0.566 -1.1699  2.1049  2.4556
  296SOL     OW  886   1.246   2.115   2.526  0.1139  0.1304  0.1805
  296SOL    HW1  887   1.226   2.160   2.439  2.2110  2.8658  1.7649
  296SOL    HW2  888   1.262   2.008   2.521  0.6312 -0.2306  0.1906
  297SOL     OW  889   1.442   0.622   1.362 -0.0228 -0.1787 -0.0599
  297SOL    HW1  890   1.416   0.530   1.323 -0.9351  0.6959 -1.0354
  297SOL    HW2  891   1.524   0.620   1.425  1.8381  1.4828  1.4574
  298SOL     OW  892   0.524   1.376   2.986  0.8939 -0.3715 -0.4101
  298SOL    HW1  893   0.483   1.303   3.055 -3.0718  1.3541  1.4719
  298SOL    HW2  894   0.574   1.332   2.910 -0.7577  1.3615 -0.4236
  299SOL     OW  895   0.523   0.266   1.314  0.0749  0.3876 -0.9905
  299SOL    HW1  896   0.477   0.361   1.289 -1.9491  1.9988  1.2700
  299SOL    HW2  897   0.575   0.273   1.404 -0.7547  0.3465  0.0831
  300SOL     OW  898   1.229   1.845   2.805 -0.2851 -0.0547 -0.4937
  300SOL    HW1  899   1.212   1.754   2.853 -1.0999  1.3049 -0.2411
  300SOL    HW2  900   1.333   1.848   2.775  2.4613  1.5798  2.6436
  301SOL     OW  901   0.461   0.327   0.504 -0.4054  0.5890 -0.1730
  301SOL    HW1  902   0.365   0.295   0.521  2.1663 -1.0677 -2.1941
  301SOL    HW2  903   0.519   0.262   0.451 -0.7800  1.5040  0.2559
  302SOL     OW  904   1.235   2.430   2.340  0.3861  1.0107  0.2879
  302SOL    HW1  905   1.143   2.461   2.383 -3.2973 -0.3614  0.7275
  302SOL    HW2  906   1.240   2.333   2.316  0.8466  3.8069  2.3517
  303SOL     OW  907   0.970   2.362   0.825 -0.2292  0.4097  0.2130
  303SOL    HW1  908   1.031   2.406   0.750  1.0675 -0.6263  1.9641
  303SOL    HW2  909   0.989   2.414   0.916  0.3441  1.1432 -0.4916
  304SOL     OW  910   0.124   2.030   0.630 -0.5724 -0.3573  0.4327
  304SOL    HW1  911   0.148   1.981   0.541  1.4961  1.8721 -0.4130
  304SOL    HW2  912   0.035   2.079   0.612 -0.7200  2.3544 -0.4257
  305SOL     OW  913   1.643   0.924   0.568  0.3482  0.2373 -0.1571
  305SOL    HW1  914   1.573   0.917   0.485 -0.6427  0.0343 -0.3204
  305SOL    HW2  915   1.656   0.826   0.605 -1.9465  1.6054  0.7628
  306SOL     OW  916   0.442   1.866   1.905 -0.1026 -0.1467  0.6355
  306SOL    HW1  917   0.506   1.783   1.883 -0.6199  2.7947  0.6118
  306SOL    HW2  918   0.433   1.887   2.009  0.7605 -2.2602  0.4203
  307SOL     OW  919   3.059   0.917   2.510 -0.3619 -0.4037 -0.0203
  307SOL    HW1  920   3.053   0.992   2.580  1.7422 -0.4421  2.2998
  307SOL    HW2  921   2.990   0.841   2.524 -2.0636 -0.4645  2.6403
  308SOL     OW  922   1.555   2.658   2.826  0.2704 -0.0483 -0.6113
  308SOL    HW1  923   1.542   2.589   2.752 -1.7083 -1.0895 -2.3099
  308SOL    HW2  924   1.495   2.637   2.912 -0.4827  0.0797  0.6945
  309SOL     OW  925   1.230   0.107   1.758  0.1500  0.7264 -0.1154
  309SOL    HW1  926   1.329   0.085   1.777  0.4722  0.8514  1.9232
  309SOL    HW2  927   1.213   0.127   1.655 -0.2201 -0.9713 -1.2912
  310SOL     OW  928   1.510   2.540   0.661  0.1485 -0.0319  0.3540
  310SOL    HW1  929   1.484   2.542   0.763  0.5279  1.3754  1.6282
  310SOL    HW2  930   1.531   2.636   0.620  1.7908  0.7089  0.4507
  311SOL     OW  931   1.165   0.994   1.619  0.0303  0.9454  0.7039
  311SOL    HW1  932   1.211   0.899   1.626 -2.0277  0.4069 -2.1052
  311SOL    HW2  933   1.238   1.067   1.592  1.1541 -1.2552 -0.4484
  312SOL     OW  934   1.599   0.682   1.046  0.3332 -0.3524  0.9920
  312SOL    HW1  935   1.573   0.770   0.994  0.5620  2.4037 -1.4333
  312SOL    HW2  936   1.517   0.619   1.067 -1.8963  0.5281  1.3807
  313SOL     OW  937   1.555   1.383   0.712 -0.3719 -0.1830  0.2750
  313SOL    HW1  938   1.468   1.410   0.758 -1.6075 -4.5012 -1.5524
  313SOL    HW2  939   1.539   1.297   0.649 -2.1043 -0.1499 -0.9998
  314SOL     OW  940   2.939   0.041   3.038 -0.6438 -0.3588 -0.8579
  314SOL    HW1  941   2.942   0.059   3.138 -0.8227 -1.0753 -0.6570
  314SOL    HW2  942   2.852  -0.010   3.008 -0.9339 -1.3830 -0.6800
  315SOL     OW  943   1.248   0.220   2.803 -0.0658 -0.2136 -0.0376
  315SOL    HW1  944   1.196   0.161   2.737 -0.7876  0.3604 -2.6405
  315SOL    HW2  945   1.256   0.178   2.903  0.7177 -0.6038  0.0366
  316SOL     OW  946   1.718   2.045   0.857 -0.1620 -0.1450 -0.2578
  316SOL    HW1  947   1.675   2.049   0.949  1.0738  0.0947 -1.7162
  316SOL    HW2  948   1.748   2.140   0.826 -1.0929 -0.6372 -1.5995
  317SOL     OW  949   1.112   0.653   2.879 -0.3183 -0.4308 -0.1209
  317SOL    HW1  950   1.048   0.687   2.954  0.7331  2.0852  1.2790
  317SOL    HW2  951   1.079   0.575   2.825  2.3763  0.4815  2.7635
  318SOL     OW  952   1.354   3.079   2.293 -0.0269  0.4035  0.7289
  318SOL    HW1  953   1.337   3.165   2.238  1.7100 -2.6376 -1.3405
  318SOL    HW2  954   1.412   3.012   2.232  1.1280  1.0712 -0.3899
  319SOL     OW  955   0.733   2.427   2.933  0.0039  0.0259 -0.2742
  319SOL    HW1  956   0.667   2.364   2.985 -0.0596 -0.6031 -2.8827
  319SOL    HW2  957   0.830   2.413   2.959 -0.0727 -0.9858 -2.1817
  320SOL     OW  958   1.711   2.263   0.392 -0.1684  0.2586  0.4217
  320SOL    HW1  959   1.809   2.218   0.405  3.6137 -0.4390 -1.2097
  320SOL    HW2  960   1.633   2.197   0.394  1.9734  1.6771  1.2059
  321SOL     OW  961   1.663   2.738   0.490 -0.6425 -0.2172  0.6834
  321SOL    HW1  962   1.605   2.762   0.408 -0.1575 -0.6340 -1.5152
  321SOL    HW2  963   1.755   2.787   0.474  1.4724  0.4453  0.8139
  322SOL     OW  964   2.590   1.160   2.408  0.0236 -0.1137 -0.5512
  322SOL    HW1  965   2.686   1.204   2.399 -1.0800  1.6718  0.0189
  322SOL    HW2  966   2.593   1.080   2.477 -1.6701  0.8244  0.4091
  323SOL     OW  967   1.154   2.640   0.856  0.5321 -0.1765  0.5278
  323SOL    HW1  968   1.160   2.598   0.761 -0.0750  0.8363 -0.6758
  323SOL    HW2  969   1.136   2.742   0.850 -0.2514 -0.5941  0.6756
  324SOL     OW  970   0.250   2.506   2.534  0.3070 -0.3121 -0.1740
  324SOL    HW1  971   0.302   2.460   2.607 -1.4747 -0.4110  1.7960
  324SOL    HW2  972   0.158   2.541   2.559 -1.2664 -1.3728 -1.8257
  325SOL     OW  973   1.249   3.019   0.505  0.1477  0.3654  0.2846
  325SOL    HW1  974   1.271   3.082   0.428  1.5784  2.5506  0.5526
  325SOL    HW2  975   1.283   3.056   0.595 -1.0037 -0.1406  0.8154
  326SOL     OW  976   2.434   0.776   3.083  0.5223 -0.2995 -0.0830
  326SOL    HW1  977   2.399   0.711   3.009  1.4106 -0.0250 -1.8475
  326SOL    HW2  978   2.478   0.728   3.163 -0.0805 -0.9524 -1.2509
  327SOL     OW  979   2.836   0.371   0.635  0.2603 -0.8119  0.0175
  327SOL    HW1  980   2.815   0.329   0.540  0.5163  0.1795 -0.6745
  327SOL    HW2  981   2.878   0.305   0.704  0.4778  1.6400  0.2553
  328SOL     OW  982   2.555   0.574   0.386  0.2796 -0.3398  0.7646
  328SOL    HW1  983   2.523   0.670   0.387 -0.0904 -3.0162 -0.8530
  328SOL    HW2  984   2.544   0.530   0.476  2.2975  0.5169 -2.2638
  329SOL     OW  985   2.966   2.969   2.142  0.3311 -0.5405 -0.6161
  329SOL    HW1  986   3.041   2.920   2.191 -2.1362 -1.8833 -2.9109
  329SOL    HW2  987   2.974   3.074   2.150 -1.8360 -1.6076  6.1542
  330SOL     OW  988   0.572   0.153   1.890  0.2943 -0.2436  0.1696
  330SOL    HW1  989   0.670   0.166   1.855 -2.2302  1.3456  0.6890
  330SOL    HW2  990   0.562   0.086   1.972  1.2174  0.7516  1.1303
  331SOL     OW  991   2.972   1.901   1.142 -0.2067 -0.4259 -0.4255
  331SOL    HW1  992   2.993   1.986   1.084 -1.5614  0.0894  0.4306
  331SOL    HW2  993   2.890   1.924   1.203 -1.6675  0.2352  1.2716
  332SOL     OW  994   0.438   1.156  -0.001 -0.3446  0.0926 -0.4060
  332SOL    HW1  995   0.387   1.071  -0.031 -1.4521  0.8951  1.1816
  332SOL    HW2  996   0.398   1.184   0.094 -0.2178  0.7831  1.8026
  333SOL     OW  997   2.895   1.052   0.329  0.0658  0.1758  0.2179
  333SOL    HW1  998   2.925   1.125   0.402 -0.9601  1.5684  1.2319
  333SOL    HW2  999   2.970   0.987   0.299  0.7998 -0.5947 -0.0921
  334SOL     OW 1000   1.678   1.241   1.840 -0.4001  0.3367 -0.0510
  334SOL    HW1 1001   1.770   1.226   1.792 -1.2169  0.2052  1.7669
  334SOL    HW2 1002   1.695   1.283   1.933  0.6196 -0.7825 -0.5088
  335SOL     OW 1003   1.996   2.757   2.603  0.3561 -0.7754 -0.1127
  335SOL    HW1 1004   1.902   2.722   2.640 -1.2476 -1.5126  0.8312
  335SOL    HW2 1005   2.047   2.826   2.667  1.4304 -0.3514  1.6722
  336SOL     OW 1006   0.273   0.160   2.775  0.2166  0.4049 -0.2413
  336SOL    HW1 1007   0.361   0.122   2.819 -1.1233  0.1669  0.4618
  336SOL    HW2 1008   0.214   0.217   2.842 -2.5732  1.8446 -1.0375
  337SOL     OW 1009   0.964   2.765   2.821  0.2512  0.5839 -0.4893
  337SOL    HW1 1010   0.935   2.749   2.919  3.2206 -1.7538  0.0907
  337SOL    HW2 1011   1.068   2.747   2.813  1.5420  2.0003 -1.3281
  338SOL     OW 1012   0.022   1.031   0.623 -0.0896 -0.3819 -0.3630
  338SOL    HW1 1013  -0.068   0.997   0.663  0.6129 -1.8713 -1.0586
  338SOL    HW2 1014   0.014   1.132   0.624 -1.0576 -1.7901 -0.9701
  339SOL     OW 1015   1.712   1.342   2.094 -0.3880  0.1376  0.4104
  339SOL    HW1 1016   1.610   1.360   2.114 -0.2978 -0.9073 -1.7075
  339SOL    HW2 1017   1.776   1.415   2.130  1.2703 -1.8597  1.4675
  340SOL     OW 1018   2.355   0.793   1.156  0.7253  0.5233 -0.5554
  340SOL    HW1 1019   2.255   0.820   1.157  2.2990  0.0798  1.7707
  340SOL    HW2 1020   2.370   0.707   1.095  0.8152  0.2430 -3.0929
  341SOL     OW 1021   1.962   2.090   0.330 -0.6712  0.0090  0.4558
  341SOL    HW1 1022   1.960   2.143   0.238 -2.8982 -1.9130 -1.8236
  341SOL    HW2 1023   2.060   2.064   0.358 -2.1813  0.9305 -0.1608
  342SOL     OW 1024   2.267   2.104   2.710  0.2437 -0.4446  0.0904
  342SOL    HW1 1025   2.316   2.013   2.737  0.9419 -1.2270 -0.3496
  342SOL    HW2 1026   2.162   2.104   2.716 -1.6522  1.1762 -1.2043
  343SOL     OW 1027   0.375   0.859   2.758 -0.2603 -0.4325 -0.3437
  343SOL    HW1 1028   0.357   0.961   2.731 -1.0425  3.8178 -1.7641
  343SOL    HW2 1029   0.463   0.843   2.812 -0.1381  1.1291  2.1710
  344SOL     OW 1030   1.930   1.425   0.376 -0.4329  0.7560 -0.1991
  344SOL    HW1 1031   1.946   1.346   0.313  1.8368  0.3646 -0.7877
  344SOL    HW2 1032   1.829   1.439   0.399  0.0137  1.0890  1.6171
  345SOL     OW 1033   1.433   2.243   2.902  0.1266 -0.3057  0.1471
  345SOL    HW1 1034   1.338   2.215   2.882  1.2756 -0.4608  1.8916
  345SOL    HW2 1035   1.494   2.242   2.822 -0.7070  0.4653  0.5044
  346SOL     OW 1036   2.379   0.890   1.404 -0.7880 -0.4963  0.0685
  346SOL    HW1 1037   2.327   0.982   1.407  0.4016  0.6752  2.8271
  346SOL    HW2 1038   2.379   0.843   1.312 -0.4999 -0.1514  0.0440
  347SOL     OW 1039   0.758   2.827   1.507  0.0372  0.5924  0.1345
  347SOL    HW1 1040   0.693   2.773   1.569 -0.6716  1.0373  3.9450
  347SOL    HW2 1041   0.710   2.909   1.463  0.9584  2.6995  1.9133
  348SOL     OW 1042   0.208   0.681   2.839  0.1534 -0.1036  0.0991
  348SOL    HW1 1043   0.112   0.676   2.811 -2.8469  2.5781  0.5170
  348SOL    HW2 1044   0.269   0.743   2.780  1.6095  0.4932  2.2866
  349SOL     OW 1045   1.874   0.442   2.792  0.2542  0.1355  0.3056
  349SOL    HW1 1046   1.845   0.518   2.725  1.3177  4.5352  1.5823
  349SOL    HW2 1047   1.851   0.467   2.889  1.4120  1.7046  1.2241
  350SOL     OW 1048   1.646   0.412   0.335  0.4692 -0.0822  0.0761
  350SOL    HW1 1049   1.701   0.418   0.422 -0.7867 -2.4300  0.2226
  350SOL    HW2 1050   1.617   0.503   0.293 -3.0489 -2.1060  3.2130
  351SOL     OW 1051   1.002   0.882   2.160 -0.0661  0.1633 -0.3940
  351SOL    HW1 1052   0.960   0.963   2.112  1.3625 -2.0415  0.1002
  351SOL    HW2 1053   1.040   0.817   2.086  2.2134  0.5438 -0.7798
  352SOL     OW 1054   2.043   1.333   0.630 -0.1556 -0.2486  0.0105
  352SOL    HW1 1055   1.973   1.380   0.574  4.7478  0.4482  2.5830
  352SOL    HW2 1056   2.132   1.390   0.636  0.0140  1.3188  5.1431
  353SOL     OW 1057   2.200   2.837   1.039 -0.1871 -0.1650 -0.3017
  353SOL    HW1 1058   2.223   2.797   1.131 -2.1145  1.9264  0.9731
  353SOL    HW2 1059   2.100   2.837   1.014  0.6067 -4.3786  0.0873
  354SOL     OW 1060   0.277   1.413   2.823  0.5590  0.2488  0.2349
  354SOL    HW1 1061   0.250   1.500   2.776  0.6631 -3.0513  1.2939
  354SOL    HW2 1062   0.374   1.415   2.861  0.9978 -1.7475  0.8416
  355SOL     OW 1063   0.537   1.515   0.552  0.8479  0.1559  0.9499
  355SOL    HW1 1064   0.563   1.584   0.623  0.1731 -1.1487  1.4466
  355SOL    HW2 1065   0.570   1.418   0.566  3.5274  0.7297 -2.4610
  356SOL     OW 1066   0.859   0.252   2.085  0.8190  0.3320  0.9638
  356SOL    HW1 1067   0.964   0.242   2.077  0.3581 -0.7279  3.1478
  356SOL    HW2 1068   0.809   0.231   1.992 -2.3801 -0.3348 -1.0152
  357SOL     OW 1069   0.992   1.268   0.357  0.1816  0.1186 -0.6280
  357SOL    HW1 1070   0.946   1.251   0.266  0.3918  0.3362 -1.4165
  357SOL    HW2 1071   1.003   1.184   0.421  1.6170 -1.2334  0.3519
  358SOL     OW 1072   1.664   1.465   0.467 -0.5847  0.1586  0.2976
  358SOL    HW1 1073   1.617   1.420   0.551 -1.1831  0.0213  0.9935
  358SOL    HW2 1074   1.604   1.458   0.381 -1.1129 -0.2949 -2.1935
  359SOL     OW 1075   1.583   2.667   0.138  0.3936 -0.5702  0.5678
  359SOL    HW1 1076   1.550   2.573   0.143 -1.0197 -1.0483  0.6034
  359SOL    HW2 1077   1.509   2.741   0.156 -1.2855 -2.1745 -0.1802
  360SOL     OW 1078   0.861   0.558   0.597 -0.0822  0.0133  0.3202
  360SOL    HW1 1079   0.758   0.569   0.600 -1.8362 -0.7158 -2.1070
  360SOL    HW2 1080   0.896   0.469   0.632  0.3751  0.2595  1.3708
  361SOL     OW 1081   1.202   1.319   0.766  0.1280 -0.3663  0.0493
  361SOL    HW1 1082   1.261   1.400   0.793 -0.5555 -0.4088 -0.5245
  361SOL    HW2 1083   1.111   1.350   0.720 -3.6642 -1.2507 -1.8600
  362SOL     OW 1084   1.348   1.860   0.791  0.0768 -0.0457 -0.3421
  362SOL    HW1 1085   1.410   1.835   0.872  1.9869 -0.6806 -1.4869
  362SOL    HW2 1086   1.398   1.875   0.704 -2.1319 -0.9659  0.7344
  363SOL     OW 1087   1.230   1.314   2.008  0.2579 -0.0269  0.1868
  363SOL    HW1 1088   1.317   1.344   2.056  0.5705 -3.7157 -1.9873
  363SOL    HW2 1089   1.214   1.367   1.921  1.2426  0.4404  1.1561
  364SOL     OW 1090   0.475   2.318   1.972 -0.3411  0.2538  0.4713
  364SOL    HW1 1091   0.379   2.347   1.979  0.3084 -1.5251  2.0726
  364SOL    HW2 1092   0.534   2.383   1.914 -2.0857 -0.3761 -1.0367
  365SOL     OW 1093   1.006   1.874   1.409  0.3041  0.2734 -0.4771
  365SOL    HW1 1094   0.903   1.898   1.406 -0.3923  3.3268 -0.8693
  365SOL    HW2 1095   1.044   1.870   1.315 -1.2136 -2.0566 -0.0286
  366SOL     OW 1096   2.745   2.086   0.431  0.1350 -0.2071  0.0874
  366SOL    HW1 1097   2.653   2.047   0.453 -0.5583  3.1773 -1.0389
  366SOL    HW2 1098   2.817   2.019   0.390  0.2483 -1.1836 -1.8430
  367SOL     OW 1099   0.923   1.120   0.093  0.5247  0.0701 -0.7676
  367SOL    HW1 1100   0.945   1.033   0.144  0.0052 -0.4616 -2.7286
  367SOL    HW2 1101   1.002   1.161   0.040  1.4715 -0.8072  0.9827
  368SOL     OW 1102   1.471   0.533   0.733  0.6579  0.3883 -0.0983
  368SOL    HW1 1103   1.428   0.569   0.643 -0.4590 -1.0503 -0.9567
  368SOL    HW2 1104   1.559   0.593   0.748 -0.5772  2.5589 -0.6965
  369SOL     OW 1105   0.229   1.743   0.053  0.6508  0.1671  0.0320
  369SOL    HW1 1106   0.295   1.797   0.118  1.7775  0.5648  1.9560
  369SOL    HW2 1107   0.161   1.681   0.103  0.5167  0.1164 -1.1127
  370SOL     OW 1108   0.448   2.073   1.005 -1.0690 -0.1835 -0.8697
  370SOL    HW1 1109   0.468   2.175   0.985  0.2396  0.2510 -1.2773
  370SOL    HW2 1110   0.356   2.043   0.972  2.5355 -0.9586 -1.8800
  371SOL     OW 1111   2.899   2.162   2.682 -0.0447 -0.1373 -0.0628
  371SOL    HW1 1112   2.829   2.113   2.740 -1.5208 -2.8832 -0.6751
  371SOL    HW2 1113   2.987   2.200   2.730  1.7702  0.7516  2.2415
  372SOL     OW 1114   1.128   1.986   1.130 -0.0746 -0.0872 -0.0499
  372SOL    HW1 1115   1.069   2.015   1.050  2.3413 -1.8771  1.5588
  372SOL    HW2 1116   1.130   2.055   1.207  2.0543 -3.1082 -0.6330
  373SOL     OW 1117   1.992   2.000   0.879  0.5053 -0.2269  0.0979
  373SOL    HW1 1118   2.058   1.994   0.963  1.5451  0.5906  0.3867
  373SOL    HW2 1119   1.890   2.021   0.901 -0.9334  0.2124 -0.3692
  374SOL     OW 1120   1.789   0.453   0.577  0.5222 -0.3198  0.0940
  374SOL    HW1 1121   1.814   0.405   0.660  0.2869 -2.1024 -0.6724
  374SOL    HW2 1122   1.877   0.470   0.521 -2.0339  0.3995 -1.1676
  375SOL     OW 1123   2.427   2.207   1.157  0.4257 -0.2031  0.0343
  375SOL    HW1 1124   2.511   2.181   1.102  1.8377 -2.0330  1.7867
  375SOL    HW2 1125   2.430   2.172   1.255 -0.2971 -0.8119 -1.1426
  376SOL     OW 1126   3.060   0.564   1.466  0.6545 -0.0251 -0.2216
  376SOL    HW1 1127   3.076   0.647   1.528 -2.2780 -1.0998  0.3314
  376SOL    HW2 1128   2.963   0.555   1.432 -0.3146 -1.2478  1.2054
  377SOL     OW 1129   2.234   2.851   0.363 -0.1485 -0.2645 -0.1186
  377SOL    HW1 1130   2.227   2.951   0.379  0.2151  2.2873 -0.0913
  377SOL    HW2 1131   2.336   2.824   0.366  0.7524  0.8684  1.3388
  378SOL     OW 1132   1.849   1.826   2.632  0.1121  0.7354 -0.4363
  378SOL    HW1 1133   1.783   1.753   2.660  0.0988 -0.2586  2.0683
  378SOL    HW2 1134   1.928   1.792   2.573  1.9883 -0.5297 -4.4893
  379SOL     OW 1135   0.830   0.144   2.785 -0.7445 -0.1288  0.6592
  379SOL    HW1 1136   0.764   0.076   2.749  1.3081  2.8229  2.9661
  379SOL    HW2 1137   0.859   0.211   2.705 -0.4088  0.2020  0.0810
  380SOL     OW 1138   1.500   1.155   0.577 -0.0900  0.3039  0.0059
  380SOL    HW1 1139   1.411   1.136   0.627  0.7638  1.0360  1.0615
  380SOL    HW2 1140   1.564   1.078   0.587  1.0913 -2.1187  0.7016
  381SOL     OW 1141   1.365   1.162   1.506  0.0946  0.1317 -0.0477
  381SOL    HW1 1142   1.420   1.154   1.421 -0.1869 -0.0229 -1.1809
  381SOL    HW2 1143   1.421   1.136   1.588 -0.2242 -1.4473 -1.3587
  382SOL     OW 1144   1.798   0.848   0.177  0.4112 -0.5239 -0.8725
  382SOL    HW1 1145   1.842   0.839   0.087 -0.7793 -0.6045  0.9047
  382SOL    HW2 1146   1.858   0.860   0.264 -1.3716  0.6091 -1.9240
  383SOL     OW 1147   2.620   1.029   1.458  0.3162  0.0090  0.3363
  383SOL    HW1 1148   2.535   0.981   1.412  0.6146 -1.1139  0.9247
  383SOL    HW2 1149   2.704   1.007   1.405  0.7955 -0.3993  1.8982
  384SOL     OW 1150   0.917   2.303   0.129 -0.5407  0.7190  0.0607
  384SOL    HW1 1151   0.885   2.382   0.186  0.9218 -1.5675  1.3607
  384SOL    HW2 1152   0.869   2.214   0.160 -1.3710 -1.2221 -2.0196
  385SOL     OW 1153   3.004   2.008   1.725  0.4802 -0.1604 -0.0064
  385SOL    HW1 1154   3.081   2.062   1.680 -0.7971 -1.3107 -2.9308
  385SOL    HW2 1155   3.016   1.902   1.735 -0.4939  1.3560 -0.5376
  386SOL     OW 1156   0.441   1.095   0.436 -0.0011 -0.6263  0.3542
  386SOL    HW1 1157   0.439   0.991   0.447 -2.4009 -0.1220  0.3338
  386SOL    HW2 1158   0.403   1.130   0.349 -0.1679  1.0863 -0.5923
  387SOL     OW 1159   0.958   0.386   1.637 -0.9722  0.2586  0.0232
  387SOL    HW1 1160   1.034   0.453   1.627  0.7364  1.3493  1.4473
  387SOL    HW2 1161   0.958   0.322   1.557  0.6186 -0.0210  0.3968
  388SOL     OW 1162   1.196   2.639   1.768 -0.2410  0.1073 -0.0233
  388SOL    HW1 1163   1.221   2.612   1.668 -0.3895 -2.1914 -1.6973
  388SOL    HW2 1164   1.254   2.575   1.828 -1.6697 -0.1389  1.3594
  389SOL     OW 1165   0.195   3.063   1.163 -0.3756 -0.7858 -0.7612
  389SOL    HW1 1166   0.129   3.080   1.242 -0.3691  1.3626 -1.1625
  389SOL    HW2 1167   0.222   2.963   1.151 -0.9055 -0.3130 -3.6353
  390SOL     OW 1168   1.015   0.963   1.298 -0.8980  0.4416 -0.1717
  390SOL    HW1 1169   1.112   0.928   1.318  0.6976  1.6042  0.8399
  390SOL    HW2 1170   0.991   1.052   1.346 -0.2415 -2.0020  1.7208
  391SOL     OW 1171   2.087   1.187   0.970 -0.0282  0.4904  0.4690
  391SOL    HW1 1172   2.005   1.139   1.005 -1.4248 -0.4315  1.0027
  391SOL    HW2 1173   2.142   1.129   0.901 -4.1014 -0.1602  0.3259
  392SOL     OW 1174   0.892   2.647   3.074  0.4319 -0.1592  0.1795
  392SOL    HW1 1175   0.800   2.642   3.125 -1.3582 -0.8112  1.0697
  392SOL    HW2 1176   0.974   2.660   3.139  1.9751 -0.4068  2.8526
  393SOL     OW 1177   0.418   0.455   2.033  0.6159  0.1394 -1.1286
  393SOL    HW1 1178   0.350   0.383   1.993 -1.5062 -1.9526  0.4105
  393SOL    HW2 1179   0.508   0.442   1.975  0.9225 -0.6511 -1.2602
  394SOL     OW 1180   3.026   1.777   2.764 -0.2719  0.2374  0.5905
  394SOL    HW1 1181   3.103   1.827   2.806 -0.5625  1.0278 -0.4353
  394SOL    HW2 1182   3.000   1.805   2.663 -1.6149 -1.1443 -1.3898
  395SOL     OW 1183   1.581   1.919   0.630 -0.0191  0.1583  0.1353
  395SOL    HW1 1184   1.638   1.842   0.589 -1.1327  0.8266  1.3076
  395SOL    HW2 1185   1.619   1.964   0.715  2.1527 -1.8361 -3.6752
  396SOL     OW 1186   2.757   1.965   1.316  0.3627 -0.0970 -0.2870
  396SOL    HW1 1187   2.679   2.022   1.346 -1.4234 -0.9867 -2.1159
  396SOL    HW2 1188   2.741   1.871   1.358  0.3025  0.7921 -1.0080
  397SOL     OW 1189   1.034   2.153   0.599 -0.3683  0.4723 -0.6275
  397SOL    HW1 1190   0.957   2.100   0.557 -1.2383 -0.8795 -0.6383
  397SOL    HW2 1191   1.005   2.226   0.675  0.6330  3.7927 -2.5021
  398SOL     OW 1192   2.242   0.042   1.000 -0.1393  0.2327  0.2343
  398SOL    HW1 1193   2.228  -0.061   1.017 -1.0949 -3.2756 -0.5600
  398SOL    HW2 1194   2.180   0.097   1.057  1.7309 -2.6347  0.6092
  399SOL     OW 1195   2.883   2.540   2.766  0.5015 -0.2163 -0.5086
  399SOL    HW1 1196   2.855   2.491   2.678  0.5086 -0.4552  2.8071
  399SOL    HW2 1197   2.823   2.511   2.850 -3.1310  0.9473  0.4873
  400SOL     OW 1198   0.761   1.571   1.272 -0.0362 -0.2446  0.2557
  400SOL    HW1 1199   0.743   1.596   1.368 -2.3842  1.4044 -0.1390
  400SOL    HW2 1200   0.777   1.660   1.216  0.0057  1.5435  1.5301
  401SOL     OW 1201   1.838   0.154   1.355  0.5963 -0.1053  0.8438
  401SOL    HW1 1202   1.892   0.157   1.440 -2.3974 -2.6863  1.2141
  401SOL    HW2 1203   1.735   0.158   1.373 -1.6176 -1.9456  0.9698
  402SOL     OW 1204   1.333   0.146   3.075 -0.1157 -0.4972 -0.0567
  402SOL    HW1 1205   1.428   0.128   3.032 -0.1145  1.4308  0.8664
  402SOL    HW2 1206   1.324   0.246   3.112  0.0211  2.3863  0.1585
  403SOL     OW 1207   2.312   1.843   0.889  0.1066  0.2596  0.0809
  403SOL    HW1 1208   2.408   1.818   0.919  0.2739 -2.7127 -0.7117
  403SOL    HW2 1209   2.277   1.929   0.934 -0.2242 -2.4860  0.3916
  404SOL     OW 1210   0.200   2.477   2.868  0.2471  0.3611 -0.7066
  404SOL    HW1 1211   0.296   2.465   2.831 -1.2800 -1.3969 -0.6582
  404SOL    HW2 1212   0.169   2.574   2.869  1.4529 -2.6537  2.7300
  405SOL     OW 1213   0.186   2.475   0.570 -0.2700 -0.9784 -0.0671
  405SOL    HW1 1214   0.127   2.479   0.483  1.1224 -0.1657 -2.2365
  405SOL    HW2 1215   0.264   2.544   0.570 -2.6383  0.2664 -3.0671
  406SOL     OW 1216   0.035   1.456   2.970 -0.0878 -0.3382  0.2475
  406SOL    HW1 1217   0.134   1.457   2.922  3.2094 -0.3490 -0.8846
  406SOL    HW2 1218   0.033   1.496   3.067 -2.2076 -2.1801  0.0307
  407SOL     OW 1219   1.583   0.929   0.879  0.4216 -0.0013  0.0243
  407SOL    HW1 1220   1.586   0.942   0.775  0.0221 -1.9328 -1.2753
  407SOL    HW2 1221   1.514   0.984   0.932  0.2113 -1.4374 -1.3154
  408SOL     OW 1222   1.623   2.329   0.999 -0.2116  0.4235 -0.6208
  408SOL    HW1 1223   1.684   2.326   0.919  1.5971 -1.2977  0.5483
  408SOL    HW2 1224   1.589   2.430   1.028 -0.5349  3.0446 -2.1721
  409SOL     OW 1225   0.574   0.879   0.771  0.8453 -0.0569 -0.0969
  409SOL    HW1 1226   0.546   0.904   0.677  0.5108 -0.5057 -0.1885
  409SOL    HW2 1227   0.608   0.776   0.774 -0.7263 -1.9598  0.4813
  410SOL     OW 1228   1.256   2.002   1.416  0.7438  0.2357  0.4385
  410SOL    HW1 1229   1.332   1.970   1.487 -0.2528  0.4485 -0.2954
  410SOL    HW2 1230   1.158   1.960   1.435 -3.8840 -0.7873 -2.1256
  411SOL     OW 1231   2.460   1.885   3.056  0.3244  0.5274  0.3089
  411SOL    HW1 1232   2.376   1.922   3.010  0.3497 -0.1750 -1.0307
  411SOL    HW2 1233   2.538   1.881   2.989  1.2237  0.0646 -0.4585
  412SOL     OW 1234   1.467   2.485   2.233 -0.2326 -0.7434 -0.4231
  412SOL    HW1 1235   1.520   2.549   2.296 -0.2454  1.6338 -1.7477
  412SOL    HW2 1236   1.376   2.465   2.280  0.9979  2.9857 -0.7719
  413SOL     OW 1237   0.019   0.251   2.923 -0.0033  0.3082 -0.1770
  413SOL    HW1 1238  -0.043   0.175   2.966 -1.6979 -1.4998 -0.7519
  413SOL    HW2 1239   0.094   0.277   2.991 -1.8719 -0.3444  0.7832
  414SOL     OW 1240   1.783   1.460   1.361  0.2623  0.1028 -0.2628
  414SOL    HW1 1241   1.693   1.506   1.391  3.0048  2.9754  1.4811
  414SOL    HW2 1242   1.777   1.399   1.281  1.2748  1.2429  0.2964
  415SOL     OW 1243   0.316   2.213   0.688 -0.7973 -0.1381  0.3697
  415SOL    HW1 1244   0.287   2.301   0.644 -0.7101 -3.3020  0.0333
  415SOL    HW2 1245   0.250   2.137   0.656 -1.1989 -2.3537  1.3034
  416SOL     OW 1246   0.337   1.059   1.062  0.1082  0.4102  0.4016
  416SOL    HW1 1247   0.297   1.012   0.977  1.9600  2.1797 -1.1274
  416SOL    HW2 1248   0.434   1.080   1.041  1.2679  1.2697 -0.8707
  417SOL     OW 1249   2.103   2.332   1.875 -0.3304  0.1662  0.1196
  417SOL    HW1 1250   2.124   2.236   1.899 -0.7739  0.8120  1.6100
  417SOL    HW2 1251   2.021   2.372   1.923 -0.0468  0.7017 -0.3887
  418SOL     OW 1252   1.099   0.501   1.270  0.3912  0.1847 -0.4074
  418SOL    HW1 1253   1.004   0.471   1.251  0.9990 -1.6818  3.8173
  418SOL    HW2 1254   1.144   0.568   1.202 -0.7075  2.7234 -1.2669
  419SOL     OW 1255   1.042   0.351   3.028 -0.3126  0.3352 -0.8945
  419SOL    HW1 1256   1.059   0.387   2.928  1.8528 -0.2703 -0.6206
  419SOL    HW2 1257   0.968   0.275   3.024  0.3631  2.3138 -1.5990
  420SOL     OW 1258   0.180   2.231   0.370 -0.2861 -0.2256 -0.5422
  420SOL    HW1 1259   0.178   2.201   0.271 -1.5140  0.5060 -0.2306
  420SOL    HW2 1260   0.086   2.238   0.415 -1.5159 -2.0471 -0.1466
  421SOL     OW 1261   0.319   3.081   0.675  0.1838 -0.2848  0.5921
  421SOL    HW1 1262   0.285   2.988   0.642 -2.7608 -0.0912 -1.0082
  421SOL    HW2 1263   0.425   3.098   0.676  0.0586 -3.5621 -2.9415
  422SOL     OW 1264   0.968   2.548   1.067 -0.2002  0.0458 -0.0221
  422SOL    HW1 1265   1.038   2.591   1.003 -0.3509  1.6424 -1.9263
  422SOL    HW2 1266   0.994   2.559   1.169 -0.5304 -1.2749  2.8777
  423SOL     OW 1267   0.094   0.673   1.262  0.0175  0.5462  0.4831
  423SOL    HW1 1268   0.038   0.622   1.334  1.8634 -1.5508 -0.2180
  423SOL    HW2 1269   0.108   0.779   1.284  1.7723 -0.8246  1.1382
  424SOL     OW 1270   1.009   2.217   2.057  0.1465  0.2356  0.1937
  424SOL    HW1 1271   0.986   2.316   2.042  0.1131  0.5267 -1.8403
  424SOL    HW2 1272   1.021   2.189   2.155 -0.6010  0.6049 -0.5439
  425SOL     OW 1273   1.973   1.431   0.970 -0.1384 -0.2993 -0.5491
  425SOL    HW1 1274   2.024   1.342   0.970 -1.4295  1.8807 -1.2455
  425SOL    HW2 1275   2.028   1.507   0.929  2.4449 -3.6354  2.4179
  426SOL     OW 1276   1.504   1.538   1.426 -0.5606 -0.4875 -0.3486
  426SOL    HW1 1277   1.473   1.631   1.389 -0.2564 -2.5127  1.1035
  426SOL    HW2 1278   1.466   1.528   1.522  0.1022  0.4101  0.9746
  427SOL     OW 1279   1.882   2.373   2.050 -0.0193  0.1470 -0.7834
  427SOL    HW1 1280   1.946   2.307   2.100  0.8351  1.1029 -2.1644
  427SOL    HW2 1281   1.896   2.472   2.081  0.3268 -1.9421  1.4962
  428SOL     OW 1282   0.864   2.909   0.163 -0.0985 -0.3543  0.1860
  428SOL    HW1 1283   0.931   2.981   0.190  0.1348  0.1444  0.5628
  428SOL    HW2 1284   0.905   2.853   0.089 -0.0464  2.4862  0.6856
  429SOL     OW 1285   1.297   0.092   0.260  0.1874  0.3202  0.1875
  429SOL    HW1 1286   1.397   0.094   0.277 -1.1438 -1.0421  1.1880
  429SOL    HW2 1287   1.277   0.099   0.156 -0.0082  1.6826 -0.5710
  430SOL     OW 1288   2.705   1.482   0.384  0.0660 -0.0328 -0.3505
  430SOL    HW1 1289   2.755   1.531   0.310  0.3061 -1.4628 -0.9561
  430SOL    HW2 1290   2.724   1.518   0.483 -0.3234  0.0193  0.9495
  431SOL     OW 1291   2.117   1.631   0.870  0.5450 -0.1972 -0.2979
  431SOL    HW1 1292   2.201   1.690   0.882 -0.8235 -0.0665 -3.0807
  431SOL    HW2 1293   2.042   1.683   0.820  0.5518  0.8004 -0.3476
  432SOL     OW 1294   2.894   2.240   1.269 -0.3631 -0.4451  0.3400
  432SOL    HW1 1295   2.852   2.151   1.286 -0.5037  0.5857 -1.0745
  432SOL    HW2 1296   2.929   2.277   1.360  1.1680  2.3362  2.5731
  433SOL     OW 1297   1.872   0.382   0.839  0.4993 -0.4038 -0.0958
  433SOL    HW1 1298   1.794   0.364   0.908  0.6474 -2.7544 -0.3521
  433SOL    HW2 1299   1.954   0.319   0.842  2.4306  0.7925  1.6321
  434SOL     OW 1300   1.584   0.280   0.739  0.0253 -0.4283  0.2185
  434SOL    HW1 1301   1.553   0.380   0.731  1.0453 -0.5145  1.9128
  434SOL    HW2 1302   1.624   0.256   0.833  2.0651 -3.0683  4.1049
  435SOL     OW 1303   1.430   1.457   2.116  0.0863 -0.0433 -0.1784
  435SOL    HW1 1304   1.386   1.478   2.207 -2.3187  0.1358  1.2128
  435SOL    HW2 1305   1.441   1.544   2.066  0.4017 -2.1421  3.6867
  436SOL     OW 1306   1.650   2.710   2.349  0.3008  0.7840  0.4859
  436SOL    HW1 1307   1.583   2.770   2.403  1.5153 -3.1146 -0.1456
  436SOL    HW2 1308   1.694   2.634   2.410 -0.1694 -2.1791 -1.3525
  437SOL     OW 1309   1.104   2.909   0.869 -0.0346  0.2871  0.3908
  437SOL    HW1 1310   1.049   2.987   0.826  1.1237 -0.4037  1.9020
  437SOL    HW2 1311   1.071   2.895   0.965 -0.4193 -1.8315 -1.4901
  438SOL     OW 1312   1.052   2.605   1.321 -0.1990 -0.1540 -0.6714
  438SOL    HW1 1313   1.112   2.655   1.392  0.6625 -1.4921 -0.4946
  438SOL    HW2 1314   1.029   2.510   1.353  3.6823  2.2520  0.6068
  439SOL     OW 1315   0.723   1.800   1.096 -0.0397 -0.3660 -0.2634
  439SOL    HW1 1316   0.748   1.899   1.113 -1.1560  1.1585  0.4909
  439SOL    HW2 1317   0.621   1.777   1.106 -1.1772 -1.0573  1.8495
  440SOL     OW 1318   0.985   2.482   1.966 -0.1785 -0.1998  0.0455
  440SOL    HW1 1319   0.939   2.493   1.873 -2.8301  1.9342  0.8525
  440SOL    HW2 1320   1.071   2.532   1.976 -2.6994  1.3982  0.8201
  441SOL     OW 1321   0.403   2.802   1.349 -0.0268  0.4745  0.1819
  441SOL    HW1 1322   0.434   2.703   1.371  2.2719 -2.7880  2.0830
  441SOL    HW2 1323   0.368   2.814   1.254 -1.3533  1.2030  1.3772
  442SOL     OW 1324   2.260   0.648   2.611 -0.1881 -0.2801  0.1485
  442SOL    HW1 1325   2.227   0.549   2.600  0.5269  1.5803  2.2763
  442SOL    HW2 1326   2.183   0.716   2.607  0.5691 -0.3215 -1.3077
  443SOL     OW 1327   1.219   2.713   2.193  0.0319  0.2474  0.1543
  443SOL    HW1 1328   1.212   2.632   2.247 -1.2437  0.7850 -4.6042
  443SOL    HW2 1329   1.198   2.800   2.246 -0.8811  1.2003  0.3141
  444SOL     OW 1330   1.126   1.323   1.545  0.4160  0.1388  0.2864
  444SOL    HW1 1331   1.220   1.276   1.541 -0.5843 -2.0094 -2.5072
  444SOL    HW2 1332   1.133   1.408   1.605 -0.6805  0.4921  4.0087
  445SOL     OW 1333   3.101   2.374   1.844 -0.0363  0.0477  0.1842
  445SOL    HW1 1334   3.094   2.470   1.806 -2.2650  1.3815  1.7169
  445SOL    HW2 1335   3.015   2.345   1.900  0.2296 -0.8478  1.1320
  446SOL     OW 1336   0.230   1.880   2.404  0.7185  0.0231 -0.0450
  446SOL    HW1 1337   0.187   1.973   2.438  1.3087  0.1251  2.2699
  446SOL    HW2 1338   0.190   1.841   2.315 -2.3651  1.0578 -3.3004
  447SOL     OW 1339   1.241   1.659   1.980  0.3656 -0.0404 -0.0356
  447SOL    HW1 1340   1.143   1.691   1.967  0.5625  0.4143 -0.5846
  447SOL    HW2 1341   1.304   1.724   2.026 -1.4291  0.2800  1.1596
  448SOL     OW 1342   0.086   1.458   1.970 -0.0051  0.1588  0.0049
  448SOL    HW1 1343   0.144   1.543   1.962  0.8906 -2.1811 -0.0067
  448SOL    HW2 1344   0.063   1.443   2.072 -0.3316 -0.4981  1.8792
  449SOL     OW 1345   1.724   2.940   0.909  0.0778  0.2836  0.3115
  449SOL    HW1 1346   1.747   2.931   1.011  1.7336  1.2108 -2.1409
  449SOL    HW2 1347   1.785   2.883   0.846  0.9541  0.0162 -0.2433
  450SOL     OW 1348   2.318   1.441   0.748  0.4087 -0.1203  0.0533
  450SOL    HW1 1349   2.259   1.490   0.813  0.3582 -1.2012  2.5069
  450SOL    HW2 1350   2.331   1.486   0.654  0.4097  0.2892 -1.3622
  451SOL     OW 1351   1.300   3.045   1.432 -0.2415 -0.4645  0.0509
  451SOL    HW1 1352   1.232   3.119   1.470  0.9111  2.5633  1.8802
  451SOL    HW2 1353   1.352   3.006   1.511  1.8776  0.6538 -2.7126
  452SOL     OW 1354   2.652   2.300   2.221  0.1974  0.1757 -0.5909
  452SOL    HW1 1355   2.606   2.393   2.234 -1.9244  0.8499  1.8099
  452SOL    HW2 1356   2.705   2.267   2.305 -2.1028  0.9637 -0.5330
  453SOL     OW 1357   2.461   2.680   3.074 -0.1452 -0.1556 -0.0547
  453SOL    HW1 1358   2.364   2.695   3.111 -0.3280  2.1181  0.8104
  453SOL    HW2 1359   2.460   2.615   2.999 -0.7735  1.9241 -0.2640
  454SOL     OW 1360   0.978   1.155   2.045 -0.1725 -0.2059  0.0614
  454SOL    HW1 1361   0.941   1.143   1.950  1.2362 -2.5529 -1.5207
  454SOL    HW2 1362   1.063   1.215   2.052  0.3902 -0.4956 -2.1380
  455SOL     OW 1363   0.693   2.678   2.804  0.4429 -0.3667  0.4942
  455SOL    HW1 1364   0.783   2.726   2.778  0.1443 -1.0688 -1.7269
  455SOL    HW2 1365   0.708   2.602   2.882 -0.4879 -4.1900  4.2151
  456SOL     OW 1366   0.436   1.864   0.194  0.3740  0.5689  0.2128
  456SOL    HW1 1367   0.494   1.821   0.269  0.0145  1.9801  2.4752
  456SOL    HW2 1368   0.486   1.950   0.170  0.2099 -0.3657  0.6650
  457SOL     OW 1369   0.388   2.679   0.597 -0.3594 -0.3958 -0.2064
  457SOL    HW1 1370   0.368   2.748   0.517 -0.2564 -1.9667 -0.9178
  457SOL    HW2 1371   0.484   2.691   0.636 -0.1208 -2.8683  0.4306
  458SOL     OW 1372   2.925   0.005   1.217  0.2983 -0.5797  0.5182
  458SOL    HW1 1373   2.977   0.091   1.190  0.6325  0.9886 -0.7368
  458SOL    HW2 1374   2.946  -0.073   1.155 -0.5401 -0.8962  0.9522
  459SOL     OW 1375   2.079   2.629   0.776 -0.6141  0.3701 -0.6677
  459SOL    HW1 1376   2.179   2.631   0.807  2.1384  0.2262  0.1078
  459SOL    HW2 1377   2.066   2.583   0.688 -1.1742 -0.7359  0.0653
  460SOL     OW 1378   1.198   2.118   2.813  0.3989 -0.5347 -0.2823
  460SOL    HW1 1379   1.215   2.164   2.721 -1.1563  1.3583  0.6956
  460SOL    HW2 1380   1.204   2.014   2.821 -1.8015 -0.1255 -1.5289
  461SOL     OW 1381   0.556   2.180   2.654 -0.5046 -0.2182  0.1155
  461SOL    HW1 1382   0.496   2.100   2.628  0.8409  1.0925 -0.9474
  461SOL    HW2 1383   0.591   2.169   2.754  0.7793 -1.1044 -0.5331
  462SOL     OW 1384   0.944   1.083   1.747  0.6800  0.5300 -0.1974
  462SOL    HW1 1385   1.025   1.050   1.693 -1.3046  0.6255 -1.7938
  462SOL    HW2 1386   0.889   1.153   1.698  3.0112  1.4491 -0.4780
  463SOL     OW 1387   0.458   0.826   0.502 -0.3722 -0.3816 -0.2790
  463SOL    HW1 1388   0.504   0.736   0.492  1.1435 -0.4131 -0.1207
  463SOL    HW2 1389   0.353   0.815   0.517 -0.6132  0.6117  2.6735
  464SOL     OW 1390   0.617   2.279   2.226  0.3516  0.2125  0.4231
  464SOL    HW1 1391   0.563   2.343   2.287 -0.8382  0.4400  2.1211
  464SOL    HW2 1392   0.573   2.285   2.134  1.5533  1.6414  0.8759
  465SOL     OW 1393   0.205   0.945   0.824  0.2727  0.0116 -0.0425
  465SOL    HW1 1394   0.114   0.965   0.771 -1.7617  2.4554 -4.1344
  465SOL    HW2 1395   0.249   0.856   0.803 -0.1811 -0.8944 -2.5929
  466SOL     OW 1396   1.400   1.109   0.996  0.1293  0.1680 -0.1652
  466SOL    HW1 1397   1.427   1.206   0.977 -1.4763  0.4264  0.2859
  466SOL    HW2 1398   1.308   1.094   1.043 -0.2202 -0.0431  2.1325
  467SOL     OW 1399   0.600   0.427   2.443 -0.8255 -0.4818  0.1325
  467SOL    HW1 1400   0.551   0.508   2.394 -0.6180  4.4931 -0.0218
  467SOL    HW2 1401   0.570   0.419   2.544 -0.6463 -0.6330  2.3892
  468SOL     OW 1402   0.436   2.248   1.618 -0.0310 -0.0301  0.1910
  468SOL    HW1 1403   0.430   2.343   1.654  2.8113 -1.1218  0.5920
  468SOL    HW2 1404   0.419   2.247   1.516 -0.1241 -1.1976 -1.5735
  469SOL     OW 1405   1.470   1.349   1.242 -0.2408 -0.2280 -0.5055
  469SOL    HW1 1406   1.557   1.345   1.184 -2.4703 -1.4433 -0.4174
  469SOL    HW2 1407   1.467   1.431   1.303 -0.7619  2.2950 -1.7390
  470SOL     OW 1408   3.035   1.847   0.770 -0.0806  0.0590 -0.4314
  470SOL    HW1 1409   3.105   1.900   0.717 -1.2302 -1.6847  2.2347
  470SOL    HW2 1410   3.078   1.768   0.824 -0.7885 -0.5723  1.2373
  471SOL     OW 1411   2.600   1.304   2.142  0.4052 -0.2280 -0.2203
  471SOL    HW1 1412   2.565   1.244   2.216  4.6403 -3.0415  0.1662
  471SOL    HW2 1413   2.674   1.365   2.181  0.2808 -1.2959 -1.6953
  472SOL     OW 1414   1.152   2.428   0.046 -0.1945  0.8396  0.0803
  472SOL    HW1 1415   1.216   2.429   0.128 -0.9622  1.3899  0.2312
  472SOL    HW2 1416   1.066   2.377   0.068  0.5309  0.1094 -1.7726
  473SOL     OW 1417   1.077   1.522   1.022  0.3409  0.4455 -0.3932
  473SOL    HW1 1418   0.974   1.540   1.010 -0.0427  0.2253  1.0701
  473SOL    HW2 1419   1.102   1.450   1.095  2.1726  0.8364  2.6225
  474SOL     OW 1420   0.677   1.255   0.548  0.2051  0.2712  0.0117
  474SOL    HW1 1421   0.641   1.224   0.457  0.4259 -0.0332  0.1615
  474SOL    HW2 1422   0.704   1.180   0.610 -1.1893  0.5435  0.4736
  475SOL     OW 1423   2.842   0.024   0.837  0.2773 -0.5159  0.4461
  475SOL    HW1 1424   2.906   0.101   0.837 -2.9310 -1.1102 -0.6057
  475SOL    HW2 1425   2.757   0.034   0.890  1.7661 -0.2192  0.8034
  476SOL     OW 1426   0.964   3.061   1.751 -0.0587  0.5924  0.0730
  476SOL    HW1 1427   1.046   3.098   1.807  1.6388 -1.3765  0.6830
  476SOL    HW2 1428   0.992   3.025   1.657 -0.8121  2.3268  0.3926
  477SOL     OW 1429   1.423   0.335   2.411 -0.4486 -0.0743 -0.1118
  477SOL    HW1 1430   1.410   0.351   2.515 -1.8901  0.7420 -0.1561
  477SOL    HW2 1431   1.503   0.274   2.388  1.0681 -1.7084 -0.0534
  478SOL     OW 1432   2.231   1.810   0.164 -0.3571  0.3152 -0.3692
  478SOL    HW1 1433   2.173   1.735   0.215 -2.7921 -1.3486 -3.7976
  478SOL    HW2 1434   2.274   1.771   0.083  0.1505 -0.3363  2.0253
  479SOL     OW 1435   1.195   0.988   2.826 -0.4229  0.1461  0.3769
  479SOL    HW1 1436   1.271   0.965   2.760 -1.8462 -0.2685  1.3264
  479SOL    HW2 1437   1.103   0.950   2.794  0.6108  0.7934  1.6035
  480SOL     OW 1438   2.658   2.345   0.358 -0.1242 -0.3755 -0.2868
  480SOL    HW1 1439   2.668   2.270   0.430 -0.9789  2.0996  1.1097
  480SOL    HW2 1440   2.567   2.347   0.308  0.7987 -0.0623  0.4096
  481SOL     OW 1441   0.970   1.174   0.867  0.3160 -0.2185  0.0485
  481SOL    HW1 1442   0.998   1.261   0.822 -0.3492 -1.0224  1.6032
  481SOL    HW2 1443   1.023   1.157   0.956 -2.6930 -0.6562 -1.0112
  482SOL     OW 1444   1.595   0.282   2.006 -0.1584 -0.1746  0.1949
  482SOL    HW1 1445   1.601   0.379   1.978  0.4841  1.6097 -1.8199
  482SOL    HW2 1446   1.685   0.249   2.042 -2.8267 -1.2425 -0.3181
  483SOL     OW 1447   0.113   2.285   1.204 -0.2790  0.1436  0.3922
  483SOL    HW1 1448   0.044   2.324   1.272 -0.6648  3.4807 -0.7446
  483SOL    HW2 1449   0.159   2.352   1.134  1.2136  0.1709  1.1479
  484SOL     OW 1450   1.778   1.122   1.365  0.1766 -0.5120  0.0597
  484SOL    HW1 1451   1.836   1.043   1.396 -1.5854  1.5610  1.4921
  484SOL    HW2 1452   1.776   1.203   1.430 -1.3741 -0.1176  1.0753
  485SOL     OW 1453   0.748   0.901   1.770 -0.5086  0.4417  0.1172
  485SOL    HW1 1454   0.742   0.919   1.665  0.5454 -0.3397 -1.1543
  485SOL    HW2 1455   0.831   0.949   1.802  1.2125 -0.5991 -2.0855
  486SOL     OW 1456   0.793   1.874   2.454  0.1781 -0.2271 -0.1205
  486SOL    HW1 1457   0.823   1.854   2.549 -0.4916  1.1846 -1.5369
  486SOL    HW2 1458   0.766   1.970   2.431 -0.9061  0.1784 -3.7555
  487SOL     OW 1459   1.785   1.660   0.940  0.2690 -0.2841  0.4994
  487SOL    HW1 1460   1.817   1.562   0.973 -1.1887 -1.3843  0.4823
  487SOL    HW2 1461   1.821   1.697   0.852 -0.1051  0.4455  0.3888
  488SOL     OW 1462   2.975   0.863   2.263  0.5240 -0.1652 -0.4487
  488SOL    HW1 1463   2.964   0.761   2.242  0.8796 -0.7529  1.7107
  488SOL    HW2 1464   3.014   0.882   2.356 -0.7771 -1.0258 -0.4573
  489SOL     OW 1465   2.808   0.338   1.268  0.1237 -0.5230 -0.5211
  489SOL    HW1 1466   2.775   0.316   1.362  0.6642 -0.6675 -1.1409
  489SOL    HW2 1467   2.908   0.321   1.248 -2.5440 -0.2826 -2.5166
  490SOL     OW 1468   1.442   2.936   2.797  0.6141  0.1955 -0.1861
  490SOL    HW1 1469   1.479   2.836   2.789 -1.1662  0.2508 -0.9719
  490SOL    HW2 1470   1.412   2.985   2.711  0.1604  3.1273  1.6337
  491SOL     OW 1471   1.695   1.457   2.626  0.2289 -0.8516 -0.1958
  491SOL    HW1 1472   1.605   1.469   2.675  1.8151  1.0434  0.4335
  491SOL    HW2 1473   1.775   1.451   2.687 -1.0403 -2.0999 -2.1015
  492SOL     OW 1474   0.572   2.110   0.635  0.1025  0.4211  0.1868
  492SOL    HW1 1475   0.616   2.095   0.733  3.2069  1.3124  0.4326
  492SOL    HW2 1476   0.493   2.173   0.639  1.8622  0.8601  1.4591
  493SOL     OW 1477   0.423   1.397   2.039  0.2597  0.0037 -0.0543
  493SOL    HW1 1478   0.326   1.402   2.002 -2.3589 -1.2913 -0.7349
  493SOL    HW2 1479   0.437   1.308   2.087  0.3403  0.4671 -0.5434
  494SOL     OW 1480   2.714   2.718   0.091  0.4934  0.6217 -0.2487
  494SOL    HW1 1481   2.739   2.675   0.183 -0.7163 -0.5163  1.6971
  494SOL    HW2 1482   2.612   2.725   0.080 -2.4069  1.3530  1.9274
  495SOL     OW 1483   2.566   2.713   2.641 -0.0743 -0.5353 -1.0001
  495SOL    HW1 1484   2.597   2.613   2.640  0.2129  3.4191  1.1222
  495SOL    HW2 1485   2.640   2.773   2.589 -0.3212  0.1413  0.3373
  496SOL     OW 1486   2.087   2.260   0.718 -0.0505 -0.1703 -0.5846
  496SOL    HW1 1487   2.067   2.294   0.812 -0.6745 -1.3994  0.3135
  496SOL    HW2 1488   2.135   2.169   0.717 -0.7328  1.9712 -0.1789
  497SOL     OW 1489   0.208   2.989   2.359 -0.2009  0.1069  0.2269
  497SOL    HW1 1490   0.169   3.031   2.442  1.3441  0.8924  0.3350
  497SOL    HW2 1491   0.214   3.054   2.277  0.0034 -0.6708  1.0645
  498SOL     OW 1492   1.188   1.349   1.220 -0.2838  0.3110 -0.4925
  498SOL    HW1 1493   1.292   1.348   1.203 -1.4829  1.4069 -0.4006
  498SOL    HW2 1494   1.170   1.385   1.317 -0.0620 -4.5435  0.3712
  499SOL     OW 1495   0.625   1.747   0.366  0.3647 -0.1540  0.0896
  499SOL    HW1 1496   0.649   1.669   0.302  0.7837 -1.4529  0.1952
  499SOL    HW2 1497   0.714   1.792   0.404 -1.1040  0.9595  0.0528
  500SOL     OW 1498   1.405   2.887   1.631  0.6027 -0.8600  0.3089
  500SOL    HW1 1499   1.349   2.847   1.708  1.9210  1.1612 -2.9865
  500SOL    HW2 1500   1.474   2.811   1.610 -0.3313  0.3875 -0.3160
  501SOL     OW 1501   0.815   1.126   2.273  0.4699 -0.0373 -0.0203
  501SOL    HW1 1502   0.738   1.062   2.242 -1.5214 -2.0756 -0.2727
  501SOL    HW2 1503   0.882   1.140   2.201 -0.4019 -1.1288  2.7409
  502SOL     OW 1504   2.555   0.924   1.713 -0.1428  0.1350 -0.3529
  502SOL    HW1 1505   2.587   0.944   1.615 -3.8986 -1.4748 -0.1729
  502SOL    HW2 1506   2.569   0.827   1.746 -2.2117  0.7366  1.4322
  503SOL     OW 1507   1.332   0.147   0.652  0.1037  0.2905  0.0887
  503SOL    HW1 1508   1.274   0.222   0.608 -0.3947 -1.1029 -0.2135
  503SOL    HW2 1509   1.418   0.184   0.697 -2.1382 -0.9706  2.4949
  504SOL     OW 1510   3.012   2.332   1.488 -0.1086  0.1284 -0.3672
  504SOL    HW1 1511   2.944   2.384   1.542  1.7217 -1.6186  1.0208
  504SOL    HW2 1512   3.082   2.285   1.541  1.0996  0.5161 -1.2397
  505SOL     OW 1513   2.316   1.166   1.401  0.2659  0.1009 -0.0687
  505SOL    HW1 1514   2.289   1.226   1.321 -0.2006 -4.1005  3.6338
  505SOL    HW2 1515   2.390   1.209   1.460  0.1295  0.5339 -2.1150
  506SOL     OW 1516   1.983   0.220   1.832 -0.3258 -0.1061 -0.8277
  506SOL    HW1 1517   2.052   0.157   1.879  2.1550  1.1122 -0.4838
  506SOL    HW2 1518   1.965   0.304   1.893  1.4395 -0.8826  3.3488
  507SOL     OW 1519   0.564   0.657   2.128 -0.8847 -0.1626 -0.0463
  507SOL    HW1 1520   0.493   0.607   2.074  1.8619  2.4401  1.6677
  507SOL    HW2 1521   0.655   0.611   2.130 -0.2669  1.8286 -2.3657
  508SOL     OW 1522   0.285   1.652   0.741 -0.3200 -0.6069 -0.3327
  508SOL    HW1 1523   0.353   1.717   0.693  0.5444  1.6812 -1.6722
  508SOL    HW2 1524   0.276   1.667   0.845  2.2003  3.3959  0.2131
  509SOL     OW 1525   1.260   1.201   2.401 -0.1585  0.4415 -0.0350
  509SOL    HW1 1526   1.313   1.124   2.368 -0.1705  3.1051 -1.4686
  509SOL    HW2 1527   1.153   1.176   2.415 -4.2646  1.4806  1.2375
  510SOL     OW 1528   1.299   2.120   2.226 -0.1404 -0.2700 -0.5628
  510SOL    HW1 1529   1.343   2.153   2.141  0.4138 -0.0215  2.6502
  510SOL    HW2 1530   1.203   2.081   2.221 -1.5889  3.3459  0.2169
  511SOL     OW 1531   3.008   2.663   1.288  0.2230  0.0392  0.1695
  511SOL    HW1 1532   2.977   2.636   1.190  0.1647  1.6673 -0.8556
  511SOL    HW2 1533   2.924   2.679   1.346 -6.0008  0.1753 -1.5183
  512SOL     OW 1534   2.413   0.456   1.376 -0.0998  0.4875  0.1274
  512SOL    HW1 1535   2.310   0.480   1.382  0.0250 -2.7586 -0.1534
  512SOL    HW2 1536   2.427   0.359   1.333 -1.1077 -1.7538  0.4402
  513SOL     OW 1537   2.583   2.107   0.888  0.3466  0.1408 -0.2528
  513SOL    HW1 1538   2.533   2.182   0.846  0.6483 -1.0050 -1.3274
  513SOL    HW2 1539   2.650   2.066   0.820  1.6706 -0.2087 -1.0769
  514SOL     OW 1540   0.670   2.759   0.472 -0.0561  0.1065 -0.1467
  514SOL    HW1 1541   0.688   2.796   0.378 -1.3402  0.8334  0.9675
  514SOL    HW2 1542   0.703   2.817   0.550 -2.2161  1.7314 -0.5161
  515SOL     OW 1543   1.938   1.295   2.361  0.3179 -0.2809 -0.4991
  515SOL    HW1 1544   1.984   1.251   2.280  1.6907  2.5541 -1.1525
  515SOL    HW2 1545   1.841   1.261   2.384 -0.1706  0.4154  2.5673
  516SOL     OW 1546   0.267   0.267   1.914  0.1549 -0.2987  0.1541
  516SOL    HW1 1547   0.334   0.226   1.844 -1.6714  1.2245  2.3268
  516SOL    HW2 1548   0.168   0.235   1.902 -1.5248 -0.8597 -1.9416
  517SOL     OW 1549   0.468   0.036   1.161  0.7006 -0.6205 -0.0296
  517SOL    HW1 1550   0.495   0.110   1.232 -1.9300 -0.2484  3.5634
  517SOL    HW2 1551   0.371   0.005   1.184  2.1493  0.3946  1.8187
  518SOL     OW 1552   2.163   3.058   1.835  0.0518 -0.3318 -0.1335
  518SOL    HW1 1553   2.215   3.147   1.827 -0.2572  1.2231  3.3770
  518SOL    HW2 1554   2.159   3.008   1.740 -1.1791 -0.8623 -1.1066
  519SOL     OW 1555   2.347   2.128   2.451  0.5362  0.2097 -0.0400
  519SOL    HW1 1556   2.294   2.098   2.539 -1.8715  1.6499  0.8240
  519SOL    HW2 1557   2.345   2.231   2.440 -1.2877 -0.4231 -0.0728
  520SOL     OW 1558   1.843   2.682   1.758  0.0126 -0.0566 -0.0169
  520SOL    HW1 1559   1.784   2.625   1.826 -2.2524  0.7825 -0.4245
  520SOL    HW2 1560   1.906   2.620   1.705 -2.4186 -0.0805  1.6664
  521SOL     OW 1561   0.579   3.058   2.096  0.4470 -0.0085  0.2579
  521SOL    HW1 1562   0.480   3.097   2.097 -0.6593 -0.2903  1.5726
  521SOL    HW2 1563   0.622   3.049   2.188  1.7094  1.3356 -0.9780
  522SOL     OW 1564   0.215   1.839   1.583  0.6273  0.5274 -0.0667
  522SOL    HW1 1565   0.271   1.897   1.645  1.0248  1.0288  0.8527
  522SOL    HW2 1566   0.172   1.891   1.504 -0.2425 -0.3096  0.8138
  523SOL     OW 1567   2.175   2.961   1.565  0.2327 -0.3569 -0.2432
  523SOL    HW1 1568   2.255   2.906   1.545 -3.5433  0.4058 -0.2043
  523SOL    HW2 1569   2.091   2.935   1.516  0.6947 -0.4003  1.2276
  524SOL     OW 1570   0.177   2.747   2.794  0.3885  0.4374 -0.2172
  524SOL    HW1 1571   0.153   2.832   2.848 -0.2509 -0.6304  1.6462
  524SOL    HW2 1572   0.276   2.736   2.772 -2.2461  1.3456 -0.4285
  525SOL     OW 1573   2.195   1.982   0.393  0.0218 -0.5131  0.1535
  525SOL    HW1 1574   2.198   1.939   0.486  1.6934  1.5745 -2.1715
  525SOL    HW2 1575   2.220   1.920   0.313 -0.9172 -3.4488 -0.2372
  526SOL     OW 1576   0.488   1.505   1.671  0.4547  0.5404 -0.7282
  526SOL    HW1 1577   0.505   1.564   1.753  0.9960  0.9924  1.3926
  526SOL    HW2 1578   0.487   1.402   1.699  0.2149 -1.9291  1.2138
  527SOL     OW 1579   1.054   2.877   1.146 -0.1428  0.0227  0.4631
  527SOL    HW1 1580   1.110   2.818   1.208 -2.6501 -1.1591  0.0924
  527SOL    HW2 1581   1.088   2.976   1.159  0.6529  0.5266 -1.9422
  528SOL     OW 1582   1.344   2.335   0.517 -0.7487  0.5810  0.1696
  528SOL    HW1 1583   1.406   2.250   0.504 -1.3399  0.8035 -0.2356
  528SOL    HW2 1584   1.400   2.415   0.547 -0.0818  1.1526 -0.8500
  529SOL     OW 1585   1.936   1.781   0.709  0.5867  0.1573 -0.6805
  529SOL    HW1 1586   1.865   1.774   0.631  0.5158 -0.8809 -1.4724
  529SOL    HW2 1587   1.931   1.872   0.757 -3.7199  0.4610 -2.0148
  530SOL     OW 1588   0.410   2.590   0.216 -0.0279  0.1661 -0.5112
  530SOL    HW1 1589   0.370   2.656   0.284  0.4595 -0.1940  2.6831
  530SOL    HW2 1590   0.402   2.495   0.246 -3.0115  2.9781 -1.8327
  531SOL     OW 1591   1.876   1.013   1.021 -0.0971  0.0916 -0.6327
  531SOL    HW1 1592   1.841   1.075   0.951  3.7387  1.6842  3.5758
  531SOL    HW2 1593   1.871   0.914   0.992  0.7601  1.6734 -1.5930
  532SOL     OW 1594   0.379   1.165   0.706 -0.2815 -0.8716 -0.7856
  532SOL    HW1 1595   0.401   1.156   0.607  1.5334  0.9971 -0.2744
  532SOL    HW2 1596   0.353   1.079   0.749  2.0434  0.4862  0.0516
  533SOL     OW 1597   1.763   0.004   2.575 -0.4233 -0.1716 -0.2264
  533SOL    HW1 1598   1.868  -0.002   2.583  0.8635 -0.8748 -0.7527
  533SOL    HW2 1599   1.723   0.072   2.649 -2.5043  0.8267  1.5391
  534SOL     OW 1600   0.271   0.202   1.449  0.3580 -0.5790  0.3467
  534SOL    HW1 1601   0.339   0.241   1.383 -1.7421  0.4802  2.3197
  534SOL    HW2 1602   0.242   0.274   1.513  1.4905 -2.4780  0.3082
  535SOL     OW 1603   1.892   0.386   0.209  0.2816  0.3634 -0.5106
  535SOL    HW1 1604   1.927   0.483   0.234 -0.4082  1.5601 -1.3549
  535SOL    HW2 1605   1.800   0.356   0.251 -2.4417  1.9435  0.4885
  536SOL     OW 1606   1.440   2.576   0.939 -0.1359  0.0645  0.3080
  536SOL    HW1 1607   1.409   2.529   1.029  0.7272 -2.0436  1.0285
  536SOL    HW2 1608   1.362   2.622   0.894 -1.4813  0.7232 -0.8239
  537SOL     OW 1609   0.808   0.159   2.338  0.0082 -0.0343 -0.4180
  537SOL    HW1 1610   0.826   0.204   2.244 -1.4680  0.6737 -0.3661
  537SOL    HW2 1611   0.725   0.093   2.344 -0.1802  1.0039  1.9121
  538SOL     OW 1612   1.667   2.283   1.497  0.0353 -0.0414  0.2619
  538SOL    HW1 1613   1.644   2.187   1.460  0.8415  0.1135 -2.7509
  538SOL    HW2 1614   1.756   2.309   1.444  1.9118  1.7304  0.4061
  539SOL     OW 1615   0.187   1.656   2.727 -0.7361 -0.0258  0.0581
  539SOL    HW1 1616   0.105   1.629   2.669  0.7519 -0.5117  1.0961
  539SOL    HW2 1617   0.174   1.728   2.798  0.3705 -4.1827 -0.4108
  540SOL     OW 1618   2.713   1.706   1.983 -0.2608 -0.0291  0.2941
  540SOL    HW1 1619   2.665   1.623   1.948  1.4344  1.2438 -0.7116
  540SOL    HW2 1620   2.658   1.791   1.993 -0.5775  0.1076 -1.2117
  541SOL     OW 1621   0.486   2.316   3.040  0.3030 -0.1326 -0.4938
  541SOL    HW1 1622   0.509   2.253   3.125 -3.6498 -2.2379 -2.3694
  541SOL    HW2 1623   0.384   2.305   3.023 -1.8496  1.2349 -0.3070
  542SOL     OW 1624   2.262   2.567   0.411  0.4529 -0.0710  0.1202
  542SOL    HW1 1625   2.240   2.664   0.376 -0.5508 -0.8165 -1.2548
  542SOL    HW2 1626   2.178   2.511   0.440  1.1714  0.5713 -0.7336
  543SOL     OW 1627   1.037   1.701   1.661  0.8180  0.0096  0.0981
  543SOL    HW1 1628   1.016   1.754   1.750  2.5596  2.3772 -0.8204
  543SOL    HW2 1629   1.009   1.747   1.575 -0.8119 -0.5953 -1.0128
  544SOL     OW 1630   0.982   0.395   0.204 -0.4210  0.1735  0.3958
  544SOL    HW1 1631   0.940   0.313   0.252  2.5331 -1.9334  3.2049
  544SOL    HW2 1632   1.008   0.374   0.102 -1.0992  1.9352 -3.1103
  545SOL     OW 1633   1.092   1.755   0.757  0.6467  0.2725  0.8789
  545SOL    HW1 1634   1.185   1.794   0.751 -0.0785 -0.9703 -3.3337
  545SOL    HW2 1635   1.088   1.657   0.784 -2.3498  2.4403  3.2625
  546SOL     OW 1636   2.623   1.561   3.071 -0.0122  0.4277  0.6140
  546SOL    HW1 1637   2.581   1.636   3.007 -0.8940  1.4181  0.7855
  546SOL    HW2 1638   2.553   1.529   3.134  3.9157  0.5074 -1.0387
  547SOL     OW 1639   0.554   0.038   2.660 -0.1276 -0.9435 -0.5879
  547SOL    HW1 1640   0.622  -0.035   2.670 -3.6785  3.0315 -0.9783
  547SOL    HW2 1641   0.473   0.005   2.606 -0.2420  1.2671 -1.6484
  548SOL     OW 1642   2.044   0.839   3.032  0.3838  0.0252  0.1211
  548SOL    HW1 1643   1.943   0.806   3.009 -1.5818  0.0747 -1.7819
  548SOL    HW2 1644   2.041   0.932   3.077  2.2326 -0.0909 -1.5035
  549SOL     OW 1645   0.661   0.570   0.200  0.2093 -0.5556  0.1371
  549SOL    HW1 1646   0.621   0.607   0.111  2.0932 -1.8531 -2.9542
  549SOL    HW2 1647   0.757   0.603   0.213 -3.0437  0.7225 -0.8095
  550SOL     OW 1648   2.516   2.846   2.870  0.3445 -0.2840  1.1858
  550SOL    HW1 1649   2.517   2.780   2.949  0.1971 -0.7942 -0.1084
  550SOL    HW2 1650   2.499   2.797   2.782 -0.0796  1.8765 -2.0392
  551SOL     OW 1651   0.283   0.851   0.221 -0.3552 -0.1370 -0.0389
  551SOL    HW1 1652   0.382   0.824   0.234 -0.8212  1.5636 -0.6438
  551SOL    HW2 1653   0.252   0.901   0.310  1.1596 -0.8490  2.2669
  552SOL     OW 1654   0.695   2.949   1.865 -0.4318  0.2412 -0.6823
  552SOL    HW1 1655   0.653   2.993   1.953  1.2316  1.4967 -0.5724
  552SOL    HW2 1656   0.790   2.985   1.859 -0.3763  0.2569  2.6058
  553SOL     OW 1657   3.068   2.565   0.368 -0.4538  0.5450 -0.3128
  553SOL    HW1 1658   3.008   2.496   0.314 -1.0513  0.4341  0.6683
  553SOL    HW2 1659   3.011   2.609   0.441 -0.4330 -2.0332 -0.7527
  554SOL     OW 1660   2.168   0.360   0.562 -0.3543  0.0130 -0.1966
  554SOL    HW1 1661   2.234   0.359   0.483  0.4129 -0.0971 -0.4883
  554SOL    HW2 1662   2.162   0.272   0.620 -0.6652 -3.5844 -1.4421
  555SOL     OW 1663   0.434   2.939   2.497 -0.1883  0.3716  0.2452
  555SOL    HW1 1664   0.347   2.971   2.448  0.1396 -2.4288 -0.2067
  555SOL    HW2 1665   0.468   2.846   2.465  0.2081 -1.3970 -2.0604
  556SOL     OW 1666   0.820   2.391   1.558 -0.9363  0.1288  0.4433
  556SOL    HW1 1667   0.846   2.487   1.594  0.8676 -0.6364 -1.5811
  556SOL    HW2 1668   0.870   2.375   1.467 -1.2822 -1.2843 -0.4518
  557SOL     OW 1669   0.089   2.070   0.159  0.0825 -0.0766  0.1197
  557SOL    HW1 1670  -0.007   2.027   0.142 -1.7421  0.4696 -1.3923
  557SOL    HW2 1671   0.133   2.092   0.067 -1.8610  0.5845  0.7481
  558SOL     OW 1672   2.929   2.336   0.285  0.3753 -0.2311 -0.1921
  558SOL    HW1 1673   2.831   2.302   0.298  2.1454 -2.2988  2.5174
  558SOL    HW2 1674   2.962   2.321   0.189 -0.0828 -0.9123 -0.2875
  559SOL     OW 1675   0.363   2.313   1.351 -0.1593 -0.2423 -0.2178
  559SOL    HW1 1676   0.274   2.296   1.294  0.3542 -1.2480  0.0186
  559SOL    HW2 1677   0.430   2.244   1.323 -0.5930  2.0343  0.4010
  560SOL     OW 1678   2.075   1.125   3.070  0.2296  0.0582  0.2413
  560SOL    HW1 1679   2.010   1.169   3.139 -0.1373 -0.3053  1.0799
  560SOL    HW2 1680   2.159   1.182   3.061 -0.2618 -0.1807  0.4164
  561SOL     OW 1681   3.009   1.880   0.039  0.2842 -0.0942 -0.4827
  561SOL    HW1 1682   2.967   1.822   0.116 -0.1129  0.5662  1.2950
  561SOL    HW2 1683   2.938   1.953   0.003 -2.1403  1.7254 -1.2519
  562SOL     OW 1684   0.957   2.231   2.353  0.7083  0.1819  0.2936
  562SOL    HW1 1685   0.873   2.166   2.374 -0.5963 -0.8657  0.5385
  562SOL    HW2 1686   0.965   2.306   2.417 -2.3533  1.4832 -0.6742
  563SOL     OW 1687   0.715   2.526   2.581 -0.1769  0.0817 -0.3969
  563SOL    HW1 1688   0.761   2.439   2.600  0.8626  3.8556 -1.5593
  563SOL    HW2 1689   0.710   2.580   2.672  2.1863  1.4761 -0.3658
  564SOL     OW 1690   2.774   1.314   2.938 -0.2017 -0.3766  0.5965
  564SOL    HW1 1691   2.687   1.361   2.966 -0.6217 -1.0588  0.6472
  564SOL    HW2 1692   2.836   1.381   2.884  0.5149 -0.1485 -0.4971
  565SOL     OW 1693   2.581   1.951   2.576 -0.0691 -0.5508  0.5955
  565SOL    HW1 1694   2.535   2.025   2.519 -0.3828 -0.6809  1.4948
  565SOL    HW2 1695   2.628   1.991   2.661  1.9120 -0.3793  0.1776
  566SOL     OW 1696   1.981   2.859   1.399 -0.8075  0.1027 -0.6735
  566SOL    HW1 1697   1.970   2.754   1.407 -0.4418 -2.0402 -0.6948
  566SOL    HW2 1698   1.979   2.897   1.308 -1.6813  0.1990  0.1386
  567SOL     OW 1699   2.498   0.048   2.238  0.1870 -1.0672  0.6023
  567SOL    HW1 1700   2.504   0.110   2.157  0.2323 -2.7953  2.8380
  567SOL    HW2 1701   2.400   0.014   2.243 -2.2317  1.4761  1.0103
  568SOL     OW 1702   1.558   1.764   0.262  0.1900  0.3852  0.5157
  568SOL    HW1 1703   1.489   1.834   0.228 -0.5060 -1.0739  0.4604
  568SOL    HW2 1704   1.653   1.797   0.276 -1.4252  0.6718  0.1480
  569SOL     OW 1705   0.292   0.671   0.819 -0.5177  0.5176 -0.7751
  569SOL    HW1 1706   0.368   0.600   0.790 -0.6602  0.3893  0.1194
  569SOL    HW2 1707   0.195   0.631   0.798 -0.0503  0.7947 -2.1534
  570SOL     OW 1708   0.631   0.792   2.832 -0.6905  0.5029  0.6443
  570SOL    HW1 1709   0.662   0.792   2.731  0.8298 -0.2881 -0.1969
  570SOL    HW2 1710   0.690   0.856   2.889  0.3042  0.8481 -3.2037
  571SOL     OW 1711   0.771   3.068   1.049  0.0920  0.3893  0.1381
  571SOL    HW1 1712   0.817   3.125   0.972  0.3560  0.8514  0.1733
  571SOL    HW2 1713   0.772   2.967   1.037  0.2035 -0.7886 -1.1227
  572SOL     OW 1714   1.592   2.622   1.234 -0.0140 -0.1113  0.3621
  572SOL    HW1 1715   1.506   2.568   1.217 -1.6591 -0.3244 -0.6347
  572SOL    HW2 1716   1.575   2.726   1.232 -0.1229  2.0019  1.2711
  573SOL     OW 1717   2.908   0.440   2.018 -0.4452  0.3713  0.2688
  573SOL    HW1 1718   2.859   0.368   2.073 -0.2457 -0.1895 -1.1076
  573SOL    HW2 1719   2.846   0.520   1.988 -2.1657  2.0452  0.5329
  574SOL     OW 1720   0.208   1.725   0.997 -0.6477  0.2640  0.0052
  574SOL    HW1 1721   0.179   1.822   0.971  0.3744  0.5250  0.5539
  574SOL    HW2 1722   0.143   1.685   1.068  0.0067  0.0303  0.9863
  575SOL     OW 1723   0.953   2.129   0.984 -0.0757  0.6686 -0.6052
  575SOL    HW1 1724   0.897   2.188   1.049  0.1052  0.5641  1.7132
  575SOL    HW2 1725   0.997   2.184   0.906 -1.6188  1.6287 -1.4662
  576SOL     OW 1726   2.878   2.976   1.661  0.0881  0.0908  0.4610
  576SOL    HW1 1727   2.797   2.958   1.596 -0.4767  1.6484  0.0706
  576SOL    HW2 1728   2.924   3.068   1.632 -1.4240  0.1979  0.2029
  577SOL     OW 1729   2.520   1.230   0.020 -0.0707 -0.0559  0.5929
  577SOL    HW1 1730   2.542   1.159  -0.054 -2.7318  1.4507  0.6959
  577SOL    HW2 1731   2.594   1.235   0.092 -0.6923  1.6739  1.5345
  578SOL     OW 1732   1.347   2.742   2.523 -0.4749  0.2809 -0.4837
  578SOL    HW1 1733   1.244   2.743   2.516 -0.7021 -1.4780 -2.3326
  578SOL    HW2 1734   1.382   2.840   2.512  0.3040  1.2578 -2.0394
  579SOL     OW 1735   0.088   2.497   0.123 -0.1314 -0.0056  0.3319
  579SOL    HW1 1736   0.048   2.533   0.210  0.5969  1.2504  0.8007
  579SOL    HW2 1737   0.188   2.480   0.128 -1.2894  1.8941  0.3381
  580SOL     OW 1738   1.047   2.644   0.429  0.3363 -0.4467 -0.2518
  580SOL    HW1 1739   1.141   2.650   0.377 -0.6448 -1.4532  1.3965
  580SOL    HW2 1740   0.970   2.605   0.374 -0.2819 -0.3979 -2.4002
  581SOL     OW 1741   1.280   2.583   1.514  0.0298 -0.0205  0.0807
  581SOL    HW1 1742   1.310   2.489   1.495 -1.2922  1.6484 -0.9116
  581SOL    HW2 1743   1.347   2.656   1.488  2.1906 -1.7750 -0.4228
  582SOL     OW 1744   1.496   0.089   1.834  0.1077  0.2946  0.6989
  582SOL    HW1 1745   1.523   0.171   1.894 -0.2744 -0.5516 -0.7002
  582SOL    HW2 1746   1.577   0.054   1.780 -1.5197 -3.5359  0.2658
  583SOL     OW 1747   2.510   3.032   0.502 -0.0237  0.2477 -0.0301
  583SOL    HW1 1748   2.572   2.963   0.454  1.1804  3.1597 -0.0410
  583SOL    HW2 1749   2.446   2.992   0.569 -1.5822  1.6117 -0.0821
  584SOL     OW 1750   1.634   0.932   2.099  0.1211 -0.2562 -0.0769
  584SOL    HW1 1751   1.640   1.034   2.092 -0.2401 -1.9859 -0.6983
  584SOL    HW2 1752   1.676   0.901   2.189  2.7916 -0.3340  0.8889
  585SOL     OW 1753   2.099   2.662   2.947 -0.2781 -0.2218 -0.5117
  585SOL    HW1 1754   2.116   2.562   2.917  0.3253 -3.6626 -1.3963
  585SOL    HW2 1755   1.998   2.677   2.951  1.5845  0.1664 -2.4517
  586SOL     OW 1756   2.765   0.289   1.554  0.8913  0.4973  0.2491
  586SOL    HW1 1757   2.786   0.370   1.611 -1.4569 -1.0187  0.6020
  586SOL    HW2 1758   2.683   0.231   1.581 -0.9446  0.4001 -1.1289
  587SOL     OW 1759   1.938   1.524   2.744  0.9209 -0.0778 -0.2456
  587SOL    HW1 1760   2.008   1.490   2.676 -1.0724 -0.2344  1.7499
  587SOL    HW2 1761   1.977   1.537   2.836 -0.1416 -0.3021 -1.1565
  588SOL     OW 1762   0.466   2.734   2.256 -0.0234  0.1138 -0.4139
  588SOL    HW1 1763   0.396   2.754   2.183 -0.5849 -1.5581 -0.3189
  588SOL    HW2 1764   0.464   2.636   2.286 -0.7188 -1.0817  0.7960
  589SOL     OW 1765   2.109   1.408   2.549  0.3461 -0.1241  0.0896
  589SOL    HW1 1766   2.040   1.341   2.512  1.4531 -0.9100 -0.2081
  589SOL    HW2 1767   2.202   1.364   2.550 -1.2768  2.5622 -0.8049
  590SOL     OW 1768   2.335   1.659   2.052 -0.3135  0.2655 -0.3118
  590SOL    HW1 1769   2.407   1.587   2.034  0.6425  0.9354  0.7065
  590SOL    HW2 1770   2.349   1.710   2.142  0.6112 -1.3454 -0.1070
  591SOL     OW 1771   1.332   2.395   0.261  0.1670  0.1006  0.0638
  591SOL    HW1 1772   1.365   2.323   0.193 -1.7860  1.2830 -0.8238
  591SOL    HW2 1773   1.328   2.357   0.358  1.3977 -0.3210 -0.4181
  592SOL     OW 1774   1.773   2.313   0.786  0.3295  0.1036 -0.0566
  592SOL    HW1 1775   1.731   2.388   0.725 -0.1294  0.6072  1.1265
  592SOL    HW2 1776   1.865   2.286   0.750  2.0349  0.7689 -0.3898
  593SOL     OW 1777   0.701   0.289   0.154  0.3180 -0.6749  1.0377
  593SOL    HW1 1778   0.770   0.274   0.080  1.4386 -0.3971  2.5002
  593SOL    HW2 1779   0.672   0.388   0.162 -1.8223  1.5509  2.1361
  594SOL     OW 1780   0.936   1.838   2.718 -0.2532  0.2457 -0.2550
  594SOL    HW1 1781   1.039   1.835   2.740  1.5802  1.8000  3.1641
  594SOL    HW2 1782   0.897   1.931   2.733 -1.7272  0.5367 -2.0805
  595SOL     OW 1783   1.538   0.068   1.044  0.1980 -0.2628  0.4842
  595SOL    HW1 1784   1.624   0.014   1.054  1.3865  0.1872 -1.1819
  595SOL    HW2 1785   1.472   0.025   0.972 -1.8518 -0.8903  1.7885
  596SOL     OW 1786   3.103   1.456   2.244  0.5636 -0.3327 -1.0545
  596SOL    HW1 1787   3.009   1.411   2.254  0.0393 -0.8021  0.1521
  596SOL    HW2 1788   3.116   1.529   2.313  0.3451 -0.8928  2.4693
  597SOL     OW 1789   2.032   2.552   1.622 -0.1031  0.1060  0.4809
  597SOL    HW1 1790   2.068   2.476   1.555  1.7321 -0.0655  0.8628
  597SOL    HW2 1791   2.109   2.585   1.684 -1.8809 -2.2961 -2.1588
  598SOL     OW 1792   2.517   2.978   1.322  0.0747  0.0433 -0.0368
  598SOL    HW1 1793   2.601   3.020   1.372 -1.4269  1.7970 -1.2604
  598SOL    HW2 1794   2.537   2.947   1.224 -0.4027 -0.0255 -1.0652
  599SOL     OW 1795   2.951   0.386   2.497  0.3713 -0.4444 -0.0609
  599SOL    HW1 1796   3.042   0.439   2.502  1.5267  1.2835  4.2799
  599SOL    HW2 1797   2.880   0.444   2.452 -0.9022 -0.3797  1.2447
  600SOL     OW 1798   2.756   1.119   2.689  0.2540 -0.0670  0.2681
  600SOL    HW1 1799   2.718   1.021   2.706  0.2915 -2.1829  1.1984
  600SOL    HW2 1800   2.736   1.183   2.771 -0.8383  0.6517  2.4320
  601SOL     OW 1801   2.961   1.279   1.929  0.0203  0.2309  0.2887
  601SOL    HW1 1802   2.891   1.327   1.867 -1.4029  1.5437  2.2534
  601SOL    HW2 1803   3.045   1.341   1.957 -0.5249 -1.0281 -0.7567
  602SOL     OW 1804   1.419   1.712   2.357  0.2365 -0.2299  0.5349
  602SOL    HW1 1805   1.372   1.621   2.366  0.0288  3.0848  1.7891
  602SOL    HW2 1806   1.522   1.701   2.349 -0.1934 -1.1324 -1.5014
  603SOL     OW 1807   0.597   1.215   2.750 -0.6732  0.2207  0.4825
  603SOL    HW1 1808   0.509   1.225   2.691 -1.5064 -3.4618  2.2269
  603SOL    HW2 1809   0.668   1.149   2.706  1.1714 -0.7970  0.2680
  604SOL     OW 1810   2.380   1.003   0.148 -0.3107 -0.2061 -0.1511
  604SOL    HW1 1811   2.424   1.086   0.096  1.4623  4.1166  1.7733
  604SOL    HW2 1812   2.357   0.923   0.090  1.8714 -0.2263  0.5318
  605SOL     OW 1813   2.551   1.171   1.884 -0.0843 -0.0844  0.3530
  605SOL    HW1 1814   2.580   1.074   1.861 -0.8630  0.5669  2.2312
  605SOL    HW2 1815   2.580   1.194   1.976 -0.7422  0.2303 -1.2076
  606SOL     OW 1816   1.464   2.517   2.604 -0.4232  0.7574 -0.6130
  606SOL    HW1 1817   1.408   2.588   2.553  1.2037  0.0257  0.9729
  606SOL    HW2 1818   1.440   2.417   2.582 -0.8997 -1.4087  3.0763
  607SOL     OW 1819   1.376   1.622   0.409 -0.4205 -0.5045 -1.1098
  607SOL    HW1 1820   1.297   1.683   0.432 -1.2589 -1.1131  2.0846
  607SOL    HW2 1821   1.452   1.668   0.354  0.3409 -1.1771  1.1902
  608SOL     OW 1822   1.453   2.851   0.356 -0.3366 -0.2965 -0.6908
  608SOL    HW1 1823   1.522   2.925   0.331 -1.1394  1.2399 -2.3749
  608SOL    HW2 1824   1.390   2.887   0.432  0.6104  0.7537 -0.0065
  609SOL     OW 1825   1.350   1.400   0.257 -0.1735  0.2788  0.1067
  609SOL    HW1 1826   1.367   1.466   0.332 -0.3248 -4.5635 -1.2167
  609SOL    HW2 1827   1.275   1.436   0.193  0.8910  0.7647 -0.5493
  610SOL     OW 1828   3.025   1.135   2.171  0.1186 -0.1510 -0.3576
  610SOL    HW1 1829   2.984   1.042   2.184  0.4588  1.3278  0.7166
  610SOL    HW2 1830   3.014   1.176   2.074  3.8919 -1.1772  0.0654
  611SOL     OW 1831   2.585   0.284   1.112 -0.7643 -0.3796 -0.1084
  611SOL    HW1 1832   2.512   0.229   1.163  0.1681 -1.1873  0.7317
  611SOL    HW2 1833   2.671   0.296   1.170 -0.3672  0.3838  0.6166
  612SOL     OW 1834   0.772   2.242   1.184  0.2759  0.0211 -0.1139
  612SOL    HW1 1835   0.700   2.174   1.215 -2.3992 -2.9731 -1.7190
  612SOL    HW2 1836   0.730   2.325   1.139 -0.4755 -0.1353 -0.4774
  613SOL     OW 1837   0.794   1.386   2.429  0.0895 -0.5144  0.4832
  613SOL    HW1 1838   0.814   1.454   2.354 -0.7688 -2.3005  0.7852
  613SOL    HW2 1839   0.733   1.309   2.394  2.5077 -0.8633  0.8983
  614SOL     OW 1840   1.575   1.632   1.968  0.4740 -0.0933  0.3508
  614SOL    HW1 1841   1.532   1.723   1.997  0.4954 -0.4344  0.1702
  614SOL    HW2 1842   1.661   1.612   2.023  0.9539 -1.4855 -0.0156
  615SOL     OW 1843   0.761   1.313   1.708 -0.4006 -0.1460 -0.2302
  615SOL    HW1 1844   0.711   1.266   1.635 -0.7020 -0.8877 -0.1352
  615SOL    HW2 1845   0.801   1.400   1.666 -1.2002  0.8623  0.6431
  616SOL     OW 1846   1.065   1.660   2.265 -0.2126  0.3102 -0.7683
  616SOL    HW1 1847   0.991   1.633   2.196 -1.9143 -1.3073 -2.1715
  616SOL    HW2 1848   1.096   1.761   2.255 -0.1849  3.6084 -0.0092
  617SOL     OW 1849   2.944   1.568   1.604  0.1226  0.5744  0.0648
  617SOL    HW1 1850   2.887   1.489   1.653  0.9698  0.8951  1.0518
  617SOL    HW2 1851   2.996   1.540   1.522 -0.2528  0.3527 -0.0601
  618SOL     OW 1852   1.896   1.991   1.383 -0.6180 -0.0887  0.0609
  618SOL    HW1 1853   1.914   2.010   1.285 -0.0167 -1.1259 -0.4412
  618SOL    HW2 1854   1.830   1.912   1.399 -0.3608 -0.9126 -0.3804
  619SOL     OW 1855   1.785   0.444   2.381 -0.1232 -0.3769 -0.1933
  619SOL    HW1 1856   1.699   0.494   2.350  0.0224  2.5571 -0.7070
  619SOL    HW2 1857   1.783   0.341   2.371  2.7829 -1.2917  1.1801
  620SOL     OW 1858   2.325   2.916   0.645 -0.4031 -0.4181  0.0217
  620SOL    HW1 1859   2.228   2.958   0.643  0.6321 -0.9655  1.4217
  620SOL    HW2 1860   2.346   2.862   0.728  0.1533 -2.3460  1.9860
  621SOL     OW 1861   2.163   1.816   1.288 -0.1684  0.8975 -0.2229
  621SOL    HW1 1862   2.126   1.866   1.371  1.8024 -1.7822 -2.2115
  621SOL    HW2 1863   2.106   1.730   1.269 -1.3144  0.7250 -1.6929
  622SOL     OW 1864   2.286   0.896   1.780 -0.1352  0.0654 -0.3864
  622SOL    HW1 1865   2.389   0.905   1.750  1.6814  1.0602 -0.4122
  622SOL    HW2 1866   2.271   0.807   1.832  0.9873  0.7723 -1.0251
  623SOL     OW 1867   1.331   0.828   2.613  0.2942  0.0494  0.6760
  623SOL    HW1 1868   1.325   0.733   2.657  0.8098  0.5793  1.0898
  623SOL    HW2 1869   1.264   0.830   2.531 -0.4098 -2.3594  0.6398
  624SOL     OW 1870   0.560   0.711   3.101  0.8491  0.1373  0.3990
  624SOL    HW1 1871   0.604   0.719   3.010 -0.6295  1.7533 -1.0147
  624SOL    HW2 1872   0.549   0.809   3.142 -1.7560 -0.0606  1.1570
  625SOL     OW 1873   2.801   1.719   1.043  0.2136  0.6150 -0.2330
  625SOL    HW1 1874   2.713   1.769   1.029  2.9930  1.3536 -0.5672
  625SOL    HW2 1875   2.876   1.786   1.075  1.3721  0.6818  1.1628
  626SOL     OW 1876   0.580   2.731   1.707  0.3414  0.7148 -0.2063
  626SOL    HW1 1877   0.634   2.787   1.776  1.7188  0.0809 -0.4400
  626SOL    HW2 1878   0.480   2.713   1.730 -1.1910  1.2303  1.1034
  627SOL     OW 1879   0.744   0.947   1.479  0.3764 -0.6968 -0.3654
  627SOL    HW1 1880   0.693   0.902   1.400 -0.4941  2.7977 -1.0934
  627SOL    HW2 1881   0.825   1.004   1.445  2.2806  1.6630 -1.0734
  628SOL     OW 1882   2.463   0.140   0.683 -0.8928 -0.1344 -0.1798
  628SOL    HW1 1883   2.496   0.056   0.633 -1.1492  0.1915  0.0525
  628SOL    HW2 1884   2.355   0.137   0.672 -0.5355  1.9215 -0.5704
  629SOL     OW 1885   1.984   0.931   1.980 -0.1104 -0.0142 -0.2631
  629SOL    HW1 1886   2.016   0.970   1.893  0.9334 -0.9012 -0.4931
  629SOL    HW2 1887   1.952   1.005   2.045 -3.1888 -1.4078 -0.8137
  630SOL     OW 1888   2.924   2.240   0.837 -0.1697 -1.1847  0.1689
  630SOL    HW1 1889   2.856   2.314   0.862 -0.8152 -1.4641 -3.7074
  630SOL    HW2 1890   2.884   2.157   0.791 -1.0607  0.2216  1.0470
  631SOL     OW 1891   3.016   0.140   2.118 -0.0236  0.3355 -0.1055
  631SOL    HW1 1892   3.087   0.159   2.187 -0.5868 -0.1022  0.1406
  631SOL    HW2 1893   3.051   0.173   2.021  0.2614  1.3987 -1.1683
  632SOL     OW 1894   2.405   2.536   0.647 -0.5160  0.0616 -0.1820
  632SOL    HW1 1895   2.394   2.617   0.711  3.1260 -2.1506 -1.4774
  632SOL    HW2 1896   2.368   2.549   0.551 -1.3480 -1.4045  1.5453
  633SOL     OW 1897   1.407   1.201   2.658  0.2941  0.0703 -0.3770
  633SOL    HW1 1898   1.426   1.298   2.693  0.5365 -0.2358  1.3729
  633SOL    HW2 1899   1.340   1.197   2.583 -0.3235 -2.6221  0.0719
  634SOL     OW 1900   0.706   2.041   0.865  0.7102 -0.4502 -0.1969
  634SOL    HW1 1901   0.617   2.024   0.918  0.5278 -1.5523 -0.5170
  634SOL    HW2 1902   0.780   2.091   0.917  0.4718  2.0047  0.2844
  635SOL     OW 1903   2.975   2.349   0.008  0.3307  0.4400 -0.2150
  635SOL    HW1 1904   2.903   2.419  -0.022 -1.5480 -0.7291 -0.9354
  635SOL    HW2 1905   3.058   2.392   0.048 -0.9297  0.6084  1.5990
  636SOL     OW 1906   2.326   2.743   2.016 -0.6972  0.0075  0.6616
  636SOL    HW1 1907   2.330   2.841   2.052 -0.3667 -2.5272  3.1597
  636SOL    HW2 1908   2.250   2.693   2.065 -3.1622  0.8080  1.6858
  637SOL     OW 1909   2.660   0.622   1.959 -0.2851  0.3974  0.0879
  637SOL    HW1 1910   2.580   0.615   1.897  2.7195  1.9509  0.4140
  637SOL    HW2 1911   2.675   0.719   1.994  0.1717  3.2127  0.7608
  638SOL     OW 1912   2.451   1.827   1.261  0.2847 -0.2270 -0.1813
  638SOL    HW1 1913   2.350   1.813   1.279  2.8436  0.9154  0.4378
  638SOL    HW2 1914   2.510   1.755   1.308  0.5636 -0.3581 -1.1223
  639SOL     OW 1915   1.280   2.069   1.693  0.3959  0.7125 -0.0886
  639SOL    HW1 1916   1.310   2.156   1.643 -0.6326 -1.5515 -1.2751
  639SOL    HW2 1917   1.178   2.071   1.711  0.7904  0.1927 -2.4011
  640SOL     OW 1918   0.174   1.158   1.578 -0.5139  0.0494  0.3884
  640SOL    HW1 1919   0.161   1.184   1.678  2.5398 -2.4969 -0.7699
  640SOL    HW2 1920   0.258   1.100   1.562 -3.0372  1.5113 -0.0297
  641SOL     OW 1921   2.018   0.190   1.557  0.2930 -0.7050  0.0637
  641SOL    HW1 1922   1.984   0.239   1.639  0.6618  0.5636 -0.0921
  641SOL    HW2 1923   2.116   0.157   1.567  1.2651 -2.1385 -0.5140
  642SOL     OW 1924   2.013   3.077   0.347 -0.1771  0.1003  0.4141
  642SOL    HW1 1925   2.100   3.119   0.384  0.7678 -1.8402  0.5714
  642SOL    HW2 1926   1.982   2.988   0.388 -0.0715  0.1526 -0.7834
  643SOL     OW 1927   2.943   1.819   2.112  0.5273  0.3703 -0.7383
  643SOL    HW1 1928   2.871   1.759   2.065  1.8400  1.4833 -2.4343
  643SOL    HW2 1929   2.947   1.914   2.066 -0.2739  1.2838 -1.8791
  644SOL     OW 1930   2.208   2.360   1.169 -0.0365  0.3935  0.2743
  644SOL    HW1 1931   2.294   2.306   1.147  1.2666  2.0225 -1.4708
  644SOL    HW2 1932   2.185   2.351   1.269 -0.0525 -2.5821  0.0377
  645SOL     OW 1933   0.615   0.840   1.282  0.4119  0.1665  0.3068
  645SOL    HW1 1934   0.510   0.824   1.284 -0.3899 -2.8879 -0.4601
  645SOL    HW2 1935   0.643   0.848   1.177  0.4058 -2.4519  0.6908
  646SOL     OW 1936   1.441   1.839   2.092 -0.0291  0.6210 -0.4447
  646SOL    HW1 1937   1.447   1.938   2.062 -1.1359  0.3957 -1.0817
  646SOL    HW2 1938   1.470   1.822   2.191  0.3972  0.9956 -0.8276
  647SOL     OW 1939   0.768   1.047   0.714  0.0407  0.1070 -0.0073
  647SOL    HW1 1940   0.848   1.074   0.769 -1.2364 -1.5141  0.0635
  647SOL    HW2 1941   0.711   0.976   0.756 -0.5220  3.4431 -2.8294
  648SOL     OW 1942   0.085   0.242   0.262 -0.0218 -0.1236 -0.1680
  648SOL    HW1 1943   0.143   0.221   0.177 -2.4623 -1.1547 -2.1285
  648SOL    HW2 1944   0.086   0.337   0.287 -0.7819 -1.0567 -1.6475
  649SOL     OW 1945   3.011   0.249   0.815  0.1231  0.4128 -0.2266
  649SOL    HW1 1946   3.107   0.211   0.792  1.3737  1.0437 -2.2181
  649SOL    HW2 1947   3.010   0.323   0.890 -0.8929  1.5085  1.1482
  650SOL     OW 1948   2.776   0.728   1.527  0.5146  0.1624 -0.2546
  650SOL    HW1 1949   2.673   0.707   1.509 -1.7364  1.5722  1.9364
  650SOL    HW2 1950   2.816   0.798   1.460  0.4652  2.3283  0.7609
  651SOL     OW 1951   0.868   1.514   1.554 -0.1216  0.3147  0.3797
  651SOL    HW1 1952   0.924   1.574   1.617 -1.4920 -1.4270 -1.7182
  651SOL    HW2 1953   0.913   1.489   1.464  1.2801 -0.8303 -0.2305
  652SOL     OW 1954   2.330   2.423   2.452 -0.2189  0.3799  0.7606
  652SOL    HW1 1955   2.241   2.434   2.504 -1.4785 -1.3120  0.0825
  652SOL    HW2 1956   2.355   2.506   2.394 -0.5895  1.9433 -0.2271
  653SOL     OW 1957   2.692   1.234   0.243  0.0097  0.2489  0.0570
  653SOL    HW1 1958   2.700   1.337   0.266  0.5745 -0.7115 -0.3545
  653SOL    HW2 1959   2.774   1.179   0.284 -1.5069  0.0596 -0.8231
  654SOL     OW 1960   1.227   2.239   1.249  0.2236  0.0766  0.3985
  654SOL    HW1 1961   1.262   2.159   1.305 -1.1595 -0.0452 -0.4737
  654SOL    HW2 1962   1.276   2.242   1.156  1.9999 -0.0107 -0.6764
  655SOL     OW 1963   0.175   0.929   1.914  0.1690  0.0891  1.0046
  655SOL    HW1 1964   0.249   0.880   1.863 -1.4164  0.5453  0.3508
  655SOL    HW2 1965   0.194   1.033   1.907  0.1212  1.3948 -0.8298
  656SOL     OW 1966   2.580   2.438   2.616  0.3526 -0.1259  0.0249
  656SOL    HW1 1967   2.667   2.411   2.563 -0.3152 -2.0792  1.8562
  656SOL    HW2 1968   2.495   2.419   2.557 -2.6699  1.7460 -1.9168
  657SOL     OW 1969   2.996   0.999   1.903  0.4615 -0.0536 -0.1881
  657SOL    HW1 1970   2.970   1.098   1.896 -1.4784 -2.5453  0.3051
  657SOL    HW2 1971   3.100   0.975   1.910  1.6636 -0.1707  1.0721
  658SOL     OW 1972   1.638   0.166   2.376 -0.5839  0.2113 -0.1042
  658SOL    HW1 1973   1.678   0.104   2.446 -0.4584  0.2782 -1.0482
  658SOL    HW2 1974   1.683   0.148   2.284 -0.7679 -1.5752  0.1475
  659SOL     OW 1975   1.400   0.622   2.832  0.3233  0.0078  0.2253
  659SOL    HW1 1976   1.460   0.701   2.860 -1.2899  1.4378 -0.4086
  659SOL    HW2 1977   1.297   0.644   2.844 -1.8755  1.8765 -2.2489
  660SOL     OW 1978   1.406   0.327   1.409  0.4440  0.5539 -0.5222
  660SOL    HW1 1979   1.423   0.387   1.495  1.3002  2.6217  2.2408
  660SOL    HW2 1980   1.484   0.261   1.389 -0.7919 -3.8528 -0.3723
  661SOL     OW 1981   2.368   1.190   0.656  0.6748  0.1210 -0.3030
  661SOL    HW1 1982   2.407   1.185   0.555  1.6625  0.2355 -1.0754
  661SOL    HW2 1983   2.328   1.281   0.682 -0.0186 -2.6810 -0.8850
  662SOL     OW 1984   1.403   0.370   1.722  0.4349  0.1708 -0.1063
  662SOL    HW1 1985   1.355   0.282   1.697 -0.4098 -1.2210  1.4723
  662SOL    HW2 1986   1.379   0.404   1.816 -0.1136 -0.7969  0.1610
  663SOL     OW 1987   0.797   1.549   2.198 -0.1351 -0.2351 -0.3771
  663SOL    HW1 1988   0.723   1.608   2.233 -3.1591 -0.7391 -0.5464
  663SOL    HW2 1989   0.761   1.497   2.125  0.8070  2.4125  2.6140
  664SOL     OW 1990   1.628   2.050   1.394 -0.0745 -0.1294  0.1360
  664SOL    HW1 1991   1.564   1.998   1.459  1.8498  0.3505 -0.9561
  664SOL    HW2 1992   1.726   2.025   1.401  1.4597  1.4310 -0.0659
  665SOL     OW 1993   2.237   0.697   1.955 -0.0657  0.3583 -0.9097
  665SOL    HW1 1994   2.135   0.697   1.979 -0.9327 -2.5080 -0.3827
  665SOL    HW2 1995   2.298   0.677   2.033  0.4100  0.7678  0.7233
  666SOL     OW 1996   0.433   2.316   0.315  0.2796 -0.5076  0.6076
  666SOL    HW1 1997   0.487   2.383   0.376  0.9589 -0.4748  1.3419
  666SOL    HW2 1998   0.341   2.285   0.351 -1.0166 -1.5004  0.4947
  667SOL     OW 1999   2.081   0.185   1.166  0.1449 -0.1156  0.4825
  667SOL    HW1 2000   2.062   0.279   1.122 -3.1561  0.1828  1.2052
  667SOL    HW2 2001   2.017   0.162   1.244  0.6874  0.9979  1.9892
  668SOL     OW 2002   2.055   0.478   1.113 -0.1081  0.2604 -0.0044
  668SOL    HW1 2003   2.117   0.501   1.030  1.2656 -0.8172 -0.8005
  668SOL    HW2 2004   2.106   0.484   1.208 -0.0640 -0.0774  0.8918
  669SOL     OW 2005   3.081   2.123   1.013  0.7312 -0.7181 -0.0592
  669SOL    HW1 2006   3.021   2.178   0.949  1.7915 -3.0722  3.6057
  669SOL    HW2 2007   3.127   2.190   1.081 -3.5131  0.4400  0.6509
  670SOL     OW 2008   2.857   2.345   2.047 -0.0076  0.4906 -0.5922
  670SOL    HW1 2009   2.780   2.303   2.104 -2.5330  0.6012 -2.3171
  670SOL    HW2 2010   2.852   2.447   2.041 -0.9058 -4.5199 -0.8041
  671SOL     OW 2011   1.703   1.786   1.489 -0.5137  0.3304  0.3671
  671SOL    HW1 2012   1.708   1.767   1.389 -1.7806  0.0860  0.1221
  671SOL    HW2 2013   1.607   1.806   1.516  1.2444 -1.1199  0.7287
  672SOL     OW 2014   0.432   0.623   2.361 -0.0680  0.3909  0.0647
  672SOL    HW1 2015   0.479   0.646   2.273 -0.9034  1.1645 -0.8322
  672SOL    HW2 2016   0.355   0.690   2.388 -0.6833 -1.3952  2.5278
  673SOL     OW 2017   0.137   1.229   1.127 -0.1249  0.1555 -0.3446
  673SOL    HW1 2018   0.156   1.292   1.209 -2.4479 -0.4626 -0.5968
  673SOL    HW2 2019   0.218   1.174   1.095  0.4216  0.1032 -0.9330
  674SOL     OW 2020   1.709   2.983   0.271  0.1522 -0.0055 -0.3407
  674SOL    HW1 2021   1.730   3.082   0.252  2.4386 -0.0699 -1.8709
  674SOL    HW2 2022   1.779   2.921   0.223  1.0642 -3.1513 -0.7534
  675SOL     OW 2023   1.712   0.809   2.332  0.2052  0.1712  0.5044
  675SOL    HW1 2024   1.816   0.790   2.312  0.6663  0.5657  0.1499
  675SOL    HW2 2025   1.659   0.727   2.298  0.1968  1.3203 -2.9335
  676SOL     OW 2026   2.564   1.487   1.929 -0.0898 -0.2145  0.5341
  676SOL    HW1 2027   2.492   1.459   1.863  1.6053 -0.0514 -1.1488
  676SOL    HW2 2028   2.588   1.413   2.003  1.6621 -1.0034 -3.9941
  677SOL     OW 2029   1.890   0.656   0.907 -0.6506  0.1333 -0.0868
  677SOL    HW1 2030   1.803   0.660   0.970 -1.1948 -1.4577 -0.6900
  677SOL    HW2 2031   1.930   0.559   0.895  2.2130 -0.6171  0.0190
  678SOL     OW 2032   0.044   0.757   1.638 -0.7637 -0.1787  0.3095
  678SOL    HW1 2033   0.137   0.771   1.683 -0.0359  0.6478  1.8185
  678SOL    HW2 2034  -0.030   0.741   1.710  0.9863  1.5229 -0.3585
  679SOL     OW 2035   2.518   1.230   1.171  0.3742 -0.1717 -0.6118
  679SOL    HW1 2036   2.418   1.259   1.172  0.3956 -0.4193 -3.6868
  679SOL    HW2 2037   2.542   1.133   1.167 -1.3326  1.5794 -1.8279
  680SOL     OW 2038   2.809   0.520   1.693  0.3559  0.6696 -0.0549
  680SOL    HW1 2039   2.787   0.592   1.623 -0.3605 -1.5077  0.5331
  680SOL    HW2 2040   2.871   0.563   1.769  1.6636 -1.9846  1.9303
  681SOL     OW 2041   3.012   0.144   1.617  0.1816  0.5196  0.1011
  681SOL    HW1 2042   3.068   0.160   1.526  1.8568 -1.7010 -1.0800
  681SOL    HW2 2043   2.923   0.198   1.613 -3.3027  1.7172  3.7647
  682SOL     OW 2044   0.788   0.010   1.332  0.4492 -0.5311 -0.3243
  682SOL    HW1 2045   0.705  -0.030   1.382 -0.8219 -0.2140  0.1434
  682SOL    HW2 2046   0.786  -0.030   1.234  2.6059  0.0602 -3.1023
  683SOL     OW 2047   1.357   0.237   2.168 -0.4751  0.1265 -0.4826
  683SOL    HW1 2048   1.389   0.255   2.265  3.1436  1.4204 -0.7921
  683SOL    HW2 2049   1.404   0.293   2.097  2.0203  0.5297  1.6941
  684SOL     OW 2050   1.466   2.089   0.467  0.5194  0.1937  0.1172
  684SOL    HW1 2051   1.512   2.017   0.525  1.4406 -0.3804  0.7732
  684SOL    HW2 2052   1.370   2.051   0.439  0.1192 -3.1715 -2.0178
  685SOL     OW 2053   2.180   2.055   1.931  0.1924 -0.2666 -0.0792
  685SOL    HW1 2054   2.246   2.046   1.852 -1.6991 -3.7534  4.7129
  685SOL    HW2 2055   2.229   2.044   2.020  1.0051 -1.2016  0.7573
  686SOL     OW 2056   1.486   1.820   2.724  0.4924 -0.3346 -0.5682
  686SOL    HW1 2057   1.537   1.780   2.804 -0.1635  0.6805 -0.4334
  686SOL    HW2 2058   1.527   1.796   2.633  3.7428 -0.8016  0.7971
  687SOL     OW 2059   1.315   2.478   1.950 -0.2291  0.0670  0.5305
  687SOL    HW1 2060   1.338   2.373   1.948 -0.1824 -2.7206  1.3090
  687SOL    HW2 2061   1.315   2.519   2.042 -1.3657  2.0251  0.7230
  688SOL     OW 2062   2.035   1.500   1.808  0.2700 -0.0801  0.3336
  688SOL    HW1 2063   2.073   1.598   1.828  2.8980  0.6683 -1.5721
  688SOL    HW2 2064   2.041   1.482   1.705 -2.7255  3.2115 -1.4380
  689SOL     OW 2065   2.352   1.083   2.758 -0.1452 -0.1161  0.6463
  689SOL    HW1 2066   2.279   1.009   2.754  2.2063 -2.2657 -0.6617
  689SOL    HW2 2067   2.405   1.090   2.845  0.9044  2.3744 -0.0457
  690SOL     OW 2068   2.215   2.776   0.081  0.1724  0.0052  0.0354
  690SOL    HW1 2069   2.145   2.730   0.016  1.8301  0.8389 -0.7272
  690SOL    HW2 2070   2.169   2.821   0.164 -0.7909  1.0322  2.2089
  691SOL     OW 2071   2.588   0.429   2.177  0.2207  0.2685  0.5206
  691SOL    HW1 2072   2.623   0.339   2.155 -0.1388  1.4061  2.8361
  691SOL    HW2 2073   2.625   0.492   2.105  1.1938  2.1405 -1.6963
  692SOL     OW 2074   2.724   1.246   0.730  0.2363 -0.2799 -0.4274
  692SOL    HW1 2075   2.651   1.293   0.674 -0.1128 -1.8539  2.8254
  692SOL    HW2 2076   2.756   1.298   0.812  0.3819 -1.3868  1.4328
  693SOL     OW 2077   2.858   2.943   0.634  0.3443  0.0657 -0.1323
  693SOL    HW1 2078   2.841   3.032   0.688 -0.3970  0.0928 -0.2550
  693SOL    HW2 2079   2.833   2.964   0.533  1.5742 -1.3797 -1.2712
  694SOL     OW 2080   2.374   2.198   0.089 -0.3504 -0.4024 -0.2409
  694SOL    HW1 2081   2.395   2.275   0.154  0.5647 -1.1443  1.8093
  694SOL    HW2 2082   2.281   2.157   0.104 -0.9358  0.2797 -0.4727
  695SOL     OW 2083   0.561   3.005   1.445 -0.1453 -0.3667 -0.1529
  695SOL    HW1 2084   0.495   2.975   1.375 -0.8442 -0.8099 -1.5090
  695SOL    HW2 2085   0.521   3.002   1.539  0.7963  0.0437 -0.0036
  696SOL     OW 2086   2.805   2.033   0.708 -0.2639 -0.8155  0.0544
  696SOL    HW1 2087   2.881   1.967   0.733 -0.5721 -0.7383 -0.1035
  696SOL    HW2 2088   2.812   2.064   0.609 -0.2077 -0.1142 -0.4641
  697SOL     OW 2089   1.618   2.016   1.841  0.4890  0.2212 -0.0871
  697SOL    HW1 2090   1.667   1.925   1.867 -1.6516 -0.5390  0.3475
  697SOL    HW2 2091   1.682   2.088   1.795  2.0411  0.8254 -2.6815
  698SOL     OW 2092   2.915   0.440   2.791  0.0323  0.0111 -0.3117
  698SOL    HW1 2093   2.918   0.434   2.686  0.4047  0.8603  1.4830
  698SOL    HW2 2094   2.970   0.375   2.845 -0.9699  1.6689 -2.3779
  699SOL     OW 2095   1.542   0.097   2.912  0.1389  0.0989 -0.3359
  699SOL    HW1 2096   1.500   0.007   2.878  0.0564 -1.5669 -2.0496
  699SOL    HW2 2097   1.579   0.152   2.835  1.8767 -0.3960  2.9456
  700SOL     OW 2098   0.982   2.327   1.336 -0.8882 -0.3041 -0.3573
  700SOL    HW1 2099   1.079   2.295   1.309  0.5993  0.3374 -0.6483
  700SOL    HW2 2100   0.908   2.288   1.272 -1.2176  1.1350  0.8123
  701SOL     OW 2101   1.864   2.938   3.060  0.1279  0.0181 -0.0455
  701SOL    HW1 2102   1.842   2.855   3.118 -1.8163 -0.0691  0.1366
  701SOL    HW2 2103   1.945   2.993   3.088  2.3359 -0.9371 -1.5742
  702SOL     OW 2104   2.070   1.315   1.993 -0.7954  0.3537  0.3316
  702SOL    HW1 2105   2.162   1.268   1.976 -0.2748  0.5100  2.2418
  702SOL    HW2 2106   2.047   1.387   1.925  2.4193 -1.0859  1.4976
  703SOL     OW 2107   1.935   0.909   1.460 -0.2514 -0.3090  0.0202
  703SOL    HW1 2108   1.901   0.844   1.531  0.9744  2.1803  0.7540
  703SOL    HW2 2109   2.015   0.965   1.495 -0.8611 -1.2725 -0.5148
  704SOL     OW 2110   0.321   2.041   1.721 -0.1324  0.2586 -0.0638
  704SOL    HW1 2111   0.363   1.983   1.799 -3.5974 -0.9064 -2.8670
  704SOL    HW2 2112   0.382   2.111   1.674  0.9264 -1.1101 -0.8702
  705SOL     OW 2113   2.550   1.530   0.902 -0.5901 -0.2526 -0.1580
  705SOL    HW1 2114   2.502   1.447   0.861 -0.9107 -3.2251  0.0712
  705SOL    HW2 2115   2.647   1.505   0.929 -1.7566 -0.3907  0.3560
  706SOL     OW 2116   0.607   1.651   1.873  0.4604 -0.2971 -0.2776
  706SOL    HW1 2117   0.624   1.552   1.900 -0.2866 -1.6256  0.5847
  706SOL    HW2 2118   0.677   1.711   1.914 -0.4925 -1.1722  1.4642
  707SOL     OW 2119   2.265   1.173   1.844  0.3420  0.4979 -0.0361
  707SOL    HW1 2120   2.363   1.208   1.852 -0.5274  1.2847 -3.2768
  707SOL    HW2 2121   2.258   1.074   1.817 -0.6321  0.2264  0.4305
  708SOL     OW 2122   3.068   0.548   3.074 -0.1034 -0.0501 -0.1335
  708SOL    HW1 2123   3.099   0.598   2.987  3.0498  0.1650 -1.4543
  708SOL    HW2 2124   3.066   0.447   3.069 -1.4412 -1.1784 -0.1044
  709SOL     OW 2125   1.862   1.827   0.248  0.1077  0.0378 -0.1271
  709SOL    HW1 2126   1.864   1.928   0.277 -1.6126 -0.1032 -2.1659
  709SOL    HW2 2127   1.842   1.816   0.147  1.7063 -0.2541  1.7339
  710SOL     OW 2128   1.672   1.647   2.403  0.3557  0.3654  0.1555
  710SOL    HW1 2129   1.722   1.607   2.318  0.6324  1.9441 -0.3427
  710SOL    HW2 2130   1.671   1.586   2.487 -1.1350  0.4468 -0.6750
  711SOL     OW 2131   2.588   2.903   1.050  1.2258  0.2345 -0.1132
  711SOL    HW1 2132   2.564   2.993   1.006  2.1557  1.3755 -0.2910
  711SOL    HW2 2133   2.690   2.898   1.065  1.4515 -0.2160 -0.5846
  712SOL     OW 2134   1.398   2.211   1.962  0.1675 -0.0127  0.1779
  712SOL    HW1 2135   1.501   2.198   1.984 -0.2135 -0.0657  0.3248
  712SOL    HW2 2136   1.359   2.134   1.900 -0.3720  0.4558 -0.6030
  713SOL     OW 2137   2.842   1.463   2.528  0.5780  0.0892  0.4406
  713SOL    HW1 2138   2.843   1.359   2.507  1.9559 -0.2274  0.2471
  713SOL    HW2 2139   2.759   1.496   2.586 -3.6017 -0.4137 -1.8470
  714SOL     OW 2140   2.697   0.511   2.462  0.5551  0.5485  0.2753
  714SOL    HW1 2141   2.634   0.466   2.533  0.8937  1.3139  1.5658
  714SOL    HW2 2142   2.661   0.496   2.364 -0.3199 -1.4343 -0.5308
  715SOL     OW 2143   1.592   2.047   1.104 -0.1876 -0.3802  0.8225
  715SOL    HW1 2144   1.536   2.132   1.088  2.4309 -0.9035 -0.5520
  715SOL    HW2 2145   1.608   2.036   1.209 -0.6319 -0.3582  2.3736
  716SOL     OW 2146   1.177   0.173   1.507 -0.1699 -0.6764  0.4616
  716SOL    HW1 2147   1.086   0.201   1.465  0.0618  1.3872 -0.9109
  716SOL    HW2 2148   1.249   0.245   1.469 -3.0014  0.4986 -1.5268
  717SOL     OW 2149   1.171   0.557   1.522  0.1322 -0.5825  0.1621
  717SOL    HW1 2150   1.237   0.629   1.545 -1.6713 -0.0906 -2.1094
  717SOL    HW2 2151   1.148   0.557   1.421  2.9140 -0.0354  1.8235
  718SOL     OW 2152   0.668   0.902   1.032  0.0181 -0.0186  0.2318
  718SOL    HW1 2153   0.624   0.886   0.935 -2.1211 -1.0521  1.0951
  718SOL    HW2 2154   0.678   1.005   1.049 -1.5353 -1.2780  2.1426
  719SOL     OW 2155   0.616   1.727   2.317 -0.9400  0.9687 -0.5092
  719SOL    HW1 2156   0.687   1.778   2.376  1.0610  1.4821  3.0027
  719SOL    HW2 2157   0.542   1.687   2.373  0.4597  0.9715  1.4531
  720SOL     OW 2158   2.185   1.122   0.299 -0.1189  0.3114  0.1180
  720SOL    HW1 2159   2.246   1.066   0.232 -1.8384  0.0831 -0.2171
  720SOL    HW2 2160   2.155   1.061   0.384 -0.8553  0.2740 -0.5040
  721SOL     OW 2161   2.281   3.015   2.099  0.1596 -0.1031  0.4886
  721SOL    HW1 2162   2.303   3.061   2.007 -2.5507  0.5448 -1.5599
  721SOL    HW2 2163   2.196   3.038   2.147  1.0195  0.6719  0.7524
  722SOL     OW 2164   2.348   1.598   0.535  0.6193  0.6319  0.3581
  722SOL    HW1 2165   2.322   1.585   0.434 -1.4529 -2.7739 -0.3103
  722SOL    HW2 2166   2.284   1.672   0.574 -0.3141  1.5608  0.3154
  723SOL     OW 2167   2.592   2.735   1.946  0.0249  0.2514 -0.0797
  723SOL    HW1 2168   2.637   2.801   2.013 -0.4468 -0.4421  0.3759
  723SOL    HW2 2169   2.496   2.707   1.972 -1.3316 -2.0687 -0.9092
  724SOL     OW 2170   0.498   2.487   2.392  0.2859 -0.5860  0.2998
  724SOL    HW1 2171   0.416   2.528   2.439  1.4803  0.1792 -0.3535
  724SOL    HW2 2172   0.584   2.506   2.447 -0.2371  0.8390  0.7096
  725SOL     OW 2173   2.401   2.801   1.525  1.0430  0.3283  0.2880
  725SOL    HW1 2174   2.447   2.852   1.444  2.9071  2.7391  1.6587
  725SOL    HW2 2175   2.436   2.704   1.545  4.7966 -2.4851  0.7165
  726SOL     OW 2176   2.537   2.334   0.729 -0.1868 -0.0164  0.1991
  726SOL    HW1 2177   2.489   2.426   0.697 -0.1640 -2.2993 -0.9072
  726SOL    HW2 2178   2.523   2.259   0.659  1.2776 -1.2702 -2.6233
  727SOL     OW 2179   0.114   3.073   0.064 -0.1629 -0.0126  1.0479
  727SOL    HW1 2180   0.132   2.982   0.020 -2.8487  1.0869  1.4917
  727SOL    HW2 2181   0.038   3.131   0.016  1.1877  1.3440 -2.1100
  728SOL     OW 2182   2.905   0.634   0.952 -0.5094  0.1170  0.0215
  728SOL    HW1 2183   2.836   0.673   0.891  0.8833 -1.2443  1.1288
  728SOL    HW2 2184   2.873   0.625   1.050 -1.2281  0.2301  1.3605
  729SOL     OW 2185   3.027   2.514   0.761  0.0734  0.0060  0.4418
  729SOL    HW1 2186   3.003   2.428   0.805 -2.8596  1.5843 -0.1088
  729SOL    HW2 2187   3.107   2.508   0.693  2.3339  0.0217 -2.8160
  730SOL     OW 2188   2.648   0.714   0.865  0.0943  0.4634  0.0074
  730SOL    HW1 2189   2.599   0.805   0.867  0.2305  2.0574  0.3738
  730SOL    HW2 2190   2.686   0.683   0.774  0.7747 -1.0359  3.9528
  731SOL     OW 2191   0.049   2.115   2.472  0.4297  0.1738  0.9627
  731SOL    HW1 2192   0.041   2.161   2.564  0.3719 -0.5077  1.5812
  731SOL    HW2 2193  -0.019   2.145   2.400 -0.6042 -0.4437 -0.6678
  732SOL     OW 2194   1.190   2.853   1.963 -0.6868  0.1870  0.1565
  732SOL    HW1 2195   1.214   2.800   2.049  1.5343 -0.1127  0.7551
  732SOL    HW2 2196   1.160   2.793   1.883 -0.2087 -0.8198 -2.3157
  733SOL     OW 2197   3.060   0.589   2.213  0.2687  0.1467 -0.3168
  733SOL    HW1 2198   3.153   0.583   2.165 -1.2418  0.8037 -0.4635
  733SOL    HW2 2199   2.994   0.526   2.171 -2.0210 -0.7410 -0.0931
  734SOL     OW 2200   1.436   0.386   2.696  0.4670 -0.1362 -0.0930
  734SOL    HW1 2201   1.427   0.478   2.744  0.9665 -0.1443 -0.9806
  734SOL    HW2 2202   1.376   0.310   2.736 -0.0753  1.2184 -1.4468
  735SOL     OW 2203   2.889   2.660   2.299 -0.0889  0.2495 -0.3425
  735SOL    HW1 2204   2.879   2.668   2.199  0.0785  3.0314  1.6962
  735SOL    HW2 2205   2.988   2.681   2.322  0.1568 -3.2011  0.6909
  736SOL     OW 2206   0.845   0.323   2.573 -0.0894 -0.3891 -0.1561
  736SOL    HW1 2207   0.763   0.390   2.546 -1.6078 -0.9626 -4.5424
  736SOL    HW2 2208   0.849   0.246   2.500 -2.5707 -3.0448  0.4209
  737SOL     OW 2209   2.638   0.460   2.839  0.2720  0.1076  0.0907
  737SOL    HW1 2210   2.634   0.428   2.940 -1.5436 -0.0270  0.6448
  737SOL    HW2 2211   2.735   0.444   2.806  0.4910  2.0527  3.4722
  738SOL     OW 2212   1.649   1.246   2.887 -0.3497  0.2797 -0.3617
  738SOL    HW1 2213   1.756   1.235   2.877  3.1902 -1.1279  2.4753
  738SOL    HW2 2214   1.604   1.152   2.869 -0.1121 -1.6590  0.5397
  739SOL     OW 2215   1.724   0.689   0.684 -0.2360 -1.0640 -0.0051
  739SOL    HW1 2216   1.781   0.703   0.769 -0.4513 -0.1187 -0.2895
  739SOL    HW2 2217   1.753   0.608   0.632 -0.8420  0.7120  1.0967
  740SOL     OW 2218   1.980   1.933   2.363  0.4756 -0.0773 -0.3271
  740SOL    HW1 2219   2.037   1.849   2.362  0.4795  1.9281 -1.5346
  740SOL    HW2 2220   1.888   1.930   2.304 -0.3737  0.2684 -2.6790
  741SOL     OW 2221   2.571   0.108   2.570  0.0093  0.5091 -0.2156
  741SOL    HW1 2222   2.677   0.111   2.570  0.3148  0.6899 -1.2188
  741SOL    HW2 2223   2.531   0.075   2.482  2.4897  0.7300  1.5070
  742SOL     OW 2224   2.192   1.386   0.207 -0.1608 -0.0806 -0.3330
  742SOL    HW1 2225   2.105   1.436   0.221  2.6689 -0.5601 -1.8551
  742SOL    HW2 2226   2.183   1.291   0.252  0.5457  3.3373 -0.8239
  743SOL     OW 2227   1.808   0.643   2.589  0.4577  0.1956  1.1603
  743SOL    HW1 2228   1.795   0.599   2.489  0.6353  2.9827 -1.2376
  743SOL    HW2 2229   1.736   0.713   2.614  2.8591 -1.0775 -0.4195
  744SOL     OW 2230   2.624   2.050   0.153 -0.3873  0.3114  0.6554
  744SOL    HW1 2231   2.530   2.080   0.134  2.5045 -2.2101  3.5651
  744SOL    HW2 2232   2.630   1.990   0.233 -2.1222  0.6389  2.4831
  745SOL     OW 2233   2.128   2.656   2.215  0.0585  0.0532  0.3173
  745SOL    HW1 2234   2.023   2.645   2.222  1.1906 -1.9697 -0.9512
  745SOL    HW2 2235   2.182   2.682   2.303 -2.1629 -0.8802  2.4881
  746SOL     OW 2236   3.083   2.630   1.728 -0.7755 -0.3596  0.3104
  746SOL    HW1 2237   3.168   2.643   1.670 -0.1601  1.6692  1.1194
  746SOL    HW2 2238   3.060   2.718   1.784  2.3186 -0.0476 -0.3665
  747SOL     OW 2239   0.015   1.755   1.746  0.6117  0.1946 -0.3754
  747SOL    HW1 2240  -0.052   1.677   1.710  1.0190 -4.4519 -2.5224
  747SOL    HW2 2241   0.083   1.783   1.673  0.2566  0.3278 -0.0687
  748SOL     OW 2242   1.828   2.719   2.872 -0.1105  0.4485 -0.0624
  748SOL    HW1 2243   1.836   2.815   2.907  0.3546 -2.4132  0.9205
  748SOL    HW2 2244   1.731   2.699   2.850  0.6220 -1.5342  1.0634
  749SOL     OW 2245   1.382   3.027   0.886  0.1930  0.1412  0.1267
  749SOL    HW1 2246   1.298   2.962   0.913 -2.9951  1.3045  2.1058
  749SOL    HW2 2247   1.421   3.002   0.795 -0.7539  1.3621  2.4847
  750SOL     OW 2248   2.296   0.217   1.851 -0.1958 -0.3546  0.3494
  750SOL    HW1 2249   2.322   0.292   1.784 -1.5000  1.4853 -0.0907
  750SOL    HW2 2250   2.297   0.245   1.950  2.6748  0.2056 -1.4973
  751SOL     OW 2251   0.836   2.074   2.825 -0.2150  0.5044  0.3502
  751SOL    HW1 2252   0.907   2.087   2.902 -0.9252 -0.8140  1.0554
  751SOL    HW2 2253   0.739   2.070   2.861  0.3844 -0.0334  1.4118
  752SOL     OW 2254   1.322   0.866   1.246 -0.0513  0.4716  0.1689
  752SOL    HW1 2255   1.391   0.944   1.236 -0.7000  1.6974 -0.1124
  752SOL    HW2 2256   1.357   0.789   1.304 -1.6752 -1.6462  0.6143
  753SOL     OW 2257   0.921   2.623   1.670 -0.3550 -0.4030 -0.0379
  753SOL    HW1 2258   1.017   2.628   1.711  0.9464 -0.5882 -2.2729
  753SOL    HW2 2259   0.890   2.716   1.625  0.5092  0.1627 -4.6052
  754SOL     OW 2260   1.124   1.215   2.984 -0.1299  0.5265 -0.0139
  754SOL    HW1 2261   1.196   1.163   2.930  0.2704  2.9781  2.2993
  754SOL    HW2 2262   1.147   1.313   2.990  1.3271 -2.6983  1.1913
  755SOL     OW 2263   2.007   0.471   2.205 -0.1880  0.2520 -0.1719
  755SOL    HW1 2264   2.084   0.415   2.244 -2.2327  0.5203 -1.1276
  755SOL    HW2 2265   1.921   0.448   2.260  0.3061 -1.5916 -0.0601
  756SOL     OW 2266   2.559   1.012   2.966 -0.3339  0.6438 -0.5652
  756SOL    HW1 2267   2.660   0.982   2.980  1.0645  0.2878  0.0495
  756SOL    HW2 2268   2.501   0.936   3.006  0.0742 -2.6454  2.1270
  757SOL     OW 2269   0.084   0.522   1.959 -0.9778  0.4740 -0.2384
  757SOL    HW1 2270   0.174   0.478   1.931 -1.1537  1.6017 -2.6127
  757SOL    HW2 2271   0.005   0.464   1.923  3.3197  1.5269 -1.0841
  758SOL     OW 2272   2.297   0.127   1.505  0.3557  0.2423  0.8600
  758SOL    HW1 2273   2.267   0.032   1.530  0.5369  2.4916 -1.5003
  758SOL    HW2 2274   2.308   0.135   1.402  0.4309  0.3679  1.8414
  759SOL     OW 2275   1.709   0.118   0.038 -0.1096  0.1823 -0.5159
  759SOL    HW1 2276   1.661   0.089  -0.052  0.7648 -2.3635  1.0341
  759SOL    HW2 2277   1.813   0.101   0.040  1.0036 -0.0545 -0.5696
  760SOL     OW 2278   2.697   2.055   2.825  0.6067  0.4647 -0.0936
  760SOL    HW1 2279   2.738   1.980   2.884  1.4338  0.3021  0.7639
  760SOL    HW2 2280   2.661   2.137   2.882 -0.3740  0.4490 -1.3678
  761SOL     OW 2281   1.866   1.737   1.702  0.4499 -0.7667  0.3048
  761SOL    HW1 2282   1.883   1.642   1.734  0.7887 -0.2132  0.6750
  761SOL    HW2 2283   1.800   1.752   1.625  0.3270 -2.9459 -2.0528
  762SOL     OW 2284   0.511   2.341   0.949  0.0465  0.3075  0.2375
  762SOL    HW1 2285   0.563   2.345   0.863  0.0070  0.5437  0.8042
  762SOL    HW2 2286   0.545   2.415   1.018  1.8070  1.5926 -0.3993
  763SOL     OW 2287   2.078   1.592   2.984  0.1415  0.2563 -0.2670
  763SOL    HW1 2288   2.157   1.540   2.942  1.5621  1.2310 -0.5385
  763SOL    HW2 2289   2.040   1.537   3.066 -3.0214 -1.7218  1.0793
  764SOL     OW 2290   0.666   0.637   0.811  0.6323  0.6087 -0.1718
  764SOL    HW1 2291   0.603   0.556   0.812  1.2639  0.5361  0.7540
  764SOL    HW2 2292   0.763   0.614   0.827 -1.9234  0.3926  2.6591
  765SOL     OW 2293   0.733   0.216   0.766 -0.4433  0.4076  0.4202
  765SOL    HW1 2294   0.805   0.276   0.708  1.8268  0.6898 -2.7855
  765SOL    HW2 2295   0.715   0.249   0.860  1.3467 -4.1998  1.1959
  766SOL     OW 2296   2.856   2.099   3.074  0.1930 -0.2992  0.2999
  766SOL    HW1 2297   2.768   2.097   3.128  0.8169 -1.7510 -2.0648
  766SOL    HW2 2298   2.913   2.183   3.080  0.7518  0.9797 -1.3645
  767SOL     OW 2299   2.769   1.639   0.596 -0.6402 -0.2850 -0.1682
  767SOL    HW1 2300   2.696   1.710   0.619  2.4142  0.7810  1.9943
  767SOL    HW2 2301   2.865   1.644   0.646  1.1151 -2.6703  1.7617
  768SOL     OW 2302   0.989   0.062   0.254  0.8345  0.0662  0.5754
  768SOL    HW1 2303   0.945   0.060   0.351  1.7295  1.0400 -0.6782
  768SOL    HW2 2304   1.078   0.111   0.245  2.2588 -1.8256  0.4232
  769SOL     OW 2305   1.076   1.959   2.298 -0.3345  0.3459 -0.2003
  769SOL    HW1 2306   0.975   1.968   2.316 -1.9911 -0.0909 -0.0798
  769SOL    HW2 2307   1.132   1.914   2.374 -0.6810  1.0577 -2.2332
  770SOL     OW 2308   0.184   1.181   2.279  0.0214 -0.4261  0.1064
  770SOL    HW1 2309   0.172   1.233   2.365 -0.5111  0.8394 -1.0829
  770SOL    HW2 2310   0.095   1.146   2.234  0.7312 -2.3284  1.1685
  771SOL     OW 2311   2.984   2.839   1.875 -0.6415 -0.4284  0.2906
  771SOL    HW1 2312   2.938   2.897   1.805 -0.7794  0.4712  1.7325
  771SOL    HW2 2313   3.001   2.892   1.963 -1.0742  1.3742  0.1281
  772SOL     OW 2314   2.207   0.167   2.935 -0.4857  0.5846 -0.5306
  772SOL    HW1 2315   2.291   0.125   2.891 -1.6861  2.7568  2.5197
  772SOL    HW2 2316   2.238   0.232   3.009  0.3477  1.0783 -0.1494
  773SOL     OW 2317   0.728   2.136   2.442 -0.1669  0.4446 -0.4303
  773SOL    HW1 2318   0.682   2.172   2.356  0.9306 -1.1313 -1.7281
  773SOL    HW2 2319   0.676   2.140   2.535  2.3247  0.7181 -1.8368
  774SOL     OW 2320   2.024   0.009   2.594  0.0436 -0.0068 -0.0536
  774SOL    HW1 2321   2.034   0.109   2.630 -0.3973 -3.1353 -0.1864
  774SOL    HW2 2322   2.058  -0.060   2.670  3.5703 -0.5107  1.4468
  775SOL     OW 2323   2.548   2.912   2.358  0.1429 -0.0485  0.3963
  775SOL    HW1 2324   2.541   3.006   2.317  2.3086 -1.9821  1.0705
  775SOL    HW2 2325   2.641   2.889   2.393 -1.4445 -0.0719 -1.0093
  776SOL     OW 2326   0.033   1.236   0.210 -0.4912 -0.0236 -0.6986
  776SOL    HW1 2327  -0.008   1.218   0.116 -0.8940 -3.4725 -0.7001
  776SOL    HW2 2328  -0.036   1.199   0.282 -1.7081  0.8862 -0.9397
  777SOL     OW 2329   0.319   2.827   0.371  0.0652  0.5828  0.7808
  777SOL    HW1 2330   0.223   2.869   0.348 -3.9284  0.1445  0.0173
  777SOL    HW2 2331   0.392   2.899   0.351  0.9006  0.4822 -1.2572
  778SOL     OW 2332   1.357   1.956   0.175 -0.0715 -0.6370  0.5487
  778SOL    HW1 2333   1.302   1.969   0.261  1.8235  2.9476 -2.8139
  778SOL    HW2 2334   1.375   2.051   0.133  2.9137  0.0067  0.4633
  779SOL     OW 2335   0.182   0.858   0.481  0.0654  0.2024 -0.1705
  779SOL    HW1 2336   0.120   0.781   0.449  0.5643 -0.2754  3.1462
  779SOL    HW2 2337   0.133   0.932   0.531  0.0539  0.6693  1.6156
  780SOL     OW 2338   0.084   0.220   2.357  0.2635 -0.5079 -1.0832
  780SOL    HW1 2339  -0.007   0.257   2.386 -0.4876  0.6884  0.0619
  780SOL    HW2 2340   0.150   0.292   2.323  0.4632 -0.7100  0.5815
  781SOL     OW 2341   0.669   1.669   1.535 -0.1611  0.4951  0.1765
  781SOL    HW1 2342   0.749   1.602   1.546  1.7199  1.8348 -0.2134
  781SOL    HW2 2343   0.571   1.629   1.546 -0.7589 -0.2072 -1.0324
  782SOL     OW 2344   2.599   0.068   0.933 -0.0169  0.1145 -0.2824
  782SOL    HW1 2345   2.560   0.084   0.841  1.9969 -1.3931  1.0164
  782SOL    HW2 2346   2.607   0.153   0.997  0.5842  3.5769  0.5718
  783SOL     OW 2347   2.857   0.737   2.529  0.6771  0.6399  0.2630
  783SOL    HW1 2348   2.833   0.766   2.623  2.1573  0.9098 -3.3868
  783SOL    HW2 2349   2.792   0.663   2.497  0.2135  1.8643  2.4334
  784SOL     OW 2350   1.439   2.211   0.093  0.3415  0.4149  0.7365
  784SOL    HW1 2351   1.516   2.284   0.102 -0.9348  0.9708  0.6623
  784SOL    HW2 2352   1.415   2.190  -0.007 -0.2092  0.6714 -2.4362
  785SOL     OW 2353   2.124   0.347   0.077 -0.3981  0.1768 -0.4296
  785SOL    HW1 2354   2.040   0.349   0.131  1.5562 -1.2894  2.2210
  785SOL    HW2 2355   2.139   0.436   0.024 -0.6732 -0.7512  0.8986
  786SOL     OW 2356   2.030   2.195   2.244 -0.7424 -0.3351  0.0423
  786SOL    HW1 2357   2.010   2.103   2.301  1.8993 -0.0584  1.2644
  786SOL    HW2 2358   2.110   2.172   2.183 -2.9704 -0.0578  1.8435
  787SOL     OW 2359   1.367   0.523   0.988 -0.0168  0.4619  0.8719
  787SOL    HW1 2360   1.274   0.570   1.006 -0.4127  1.6336  0.1297
  787SOL    HW2 2361   1.390   0.523   0.885 -0.0845  1.7050  3.6670
  788SOL     OW 2362   1.288   0.393   0.064 -0.3586 -0.6519  0.0950
  788SOL    HW1 2363   1.199   0.375   0.018  1.7637 -1.5316  2.6736
  788SOL    HW2 2364   1.297   0.465   0.136 -0.0760  0.6300 -0.6753
  789SOL     OW 2365   2.575   0.092   1.925  0.1943  0.2289 -0.7688
  789SOL    HW1 2366   2.504   0.157   1.896  0.5532  1.3593 -0.5551
  789SOL    HW2 2367   2.545  -0.006   1.886 -1.1913  0.9406 -2.2323
  790SOL     OW 2368   2.679   2.766   0.817  0.2551  0.8016 -0.5993
  790SOL    HW1 2369   2.733   2.824   0.748  1.1796 -2.7631  0.1625
  790SOL    HW2 2370   2.675   2.811   0.909 -0.8993 -1.1423  2.1782
  791SOL     OW 2371   1.928   1.209   0.197  0.3865 -0.1669 -0.2812
  791SOL    HW1 2372   1.835   1.184   0.226  0.6036  1.0388  1.1373
  791SOL    HW2 2373   1.997   1.147   0.250  2.0991 -0.6274  1.7603
  792SOL     OW 2374   0.425   1.904   2.185  0.0664  1.0625 -0.5475
  792SOL    HW1 2375   0.476   1.824   2.227  0.9692  0.4065 -0.5798
  792SOL    HW2 2376   0.344   1.939   2.239 -1.3582  2.4984  0.6114
  793SOL     OW 2377   2.078   1.561   2.126 -0.0024  0.3396  0.2562
  793SOL    HW1 2378   2.172   1.595   2.110 -0.5698  0.1506  4.0238
  793SOL    HW2 2379   2.066   1.459   2.108 -0.9329  1.8025  2.3981
  794SOL     OW 2380   0.502   1.361   2.376 -0.3209 -0.2932  0.0660
  794SOL    HW1 2381   0.504   1.313   2.287 -1.3853  0.5958  2.0601
  794SOL    HW2 2382   0.449   1.449   2.373 -0.6236 -2.2496 -2.4896
  795SOL     OW 2383   2.498   2.261   1.868 -0.2843  0.3432 -0.5043
  795SOL    HW1 2384   2.517   2.195   1.946 -0.2469  0.6668 -0.5441
  795SOL    HW2 2385   2.435   2.221   1.797  1.2492  1.9414 -1.4733
  796SOL     OW 2386   3.041   1.135   2.685 -0.1278  0.0926 -0.1996
  796SOL    HW1 2387   2.940   1.141   2.700 -0.5789 -2.0045  1.6132
  796SOL    HW2 2388   3.092   1.133   2.770 -1.0805 -1.3136 -1.4603
  797SOL     OW 2389   0.782   0.641   1.385  0.2030 -0.0544  0.1177
  797SOL    HW1 2390   0.854   0.674   1.454  1.8437  0.6036 -0.1978
  797SOL    HW2 2391   0.725   0.723   1.359  0.3231  0.4048  0.7477
  798SOL     OW 2392   1.316   0.292   1.141  0.2820 -0.0513 -0.5683
  798SOL    HW1 2393   1.368   0.302   1.225 -2.7303 -0.9370 -4.8218
  798SOL    HW2 2394   1.336   0.367   1.072 -0.2534  0.9868 -0.2266
  799SOL     OW 2395   1.907   2.743   1.038 -0.4408  0.2692  0.4130
  799SOL    HW1 2396   1.915   2.687   1.122  1.2429 -0.0174 -3.3306
  799SOL    HW2 2397   1.847   2.698   0.965 -0.8984 -1.4243  0.4661
  800SOL     OW 2398   2.987   0.694   1.860 -0.1622  0.4262  0.0295
  800SOL    HW1 2399   2.964   0.794   1.886 -0.1614  0.0358  1.3203
  800SOL    HW2 2400   3.060   0.655   1.922 -0.6440  2.9895  1.4816
  801SOL     OW 2401   1.943   2.226   0.096 -0.3610 -0.0610 -0.6171
  801SOL    HW1 2402   1.851   2.231   0.048  0.6877 -2.5247  0.1832
  801SOL    HW2 2403   2.006   2.174   0.035  1.1238  0.1392 -2.3602
  802SOL     OW 2404   0.676   0.804   2.550 -0.3058 -0.2514 -0.8187
  802SOL    HW1 2405   0.740   0.745   2.489  0.8511 -0.2583 -0.4229
  802SOL    HW2 2406   0.584   0.823   2.512 -0.9795 -1.3790  1.0560
  803SOL     OW 2407   0.950   0.044   0.823  0.6794 -0.0327  0.0386
  803SOL    HW1 2408   1.041   0.084   0.843 -2.1504 -1.0004  2.2536
  803SOL    HW2 2409   0.891   0.118   0.780  1.4166 -0.2585  0.4979
  804SOL     OW 2410   0.309   0.045   2.140 -0.0441 -0.0349  0.4481
  804SOL    HW1 2411   0.317   0.141   2.181  0.7936  1.1246 -0.5828
  804SOL    HW2 2412   0.240   0.031   2.063 -0.4464  0.1652  0.0368
  805SOL     OW 2413   2.365   0.333   0.361 -0.5188  0.0842  0.7015
  805SOL    HW1 2414   2.440   0.384   0.413 -0.1669  0.6135 -2.6377
  805SOL    HW2 2415   2.400   0.289   0.273 -0.8449  0.9647  0.6412
  806SOL     OW 2416   0.629   2.444   1.780  0.6162 -0.2007  0.0474
  806SOL    HW1 2417   0.615   2.544   1.778  1.4877 -0.3806  2.5287
  806SOL    HW2 2418   0.700   2.410   1.711  0.0473 -0.9696 -0.6542
  807SOL     OW 2419   2.486   0.846   0.365 -0.1167  0.0109 -0.6936
  807SOL    HW1 2420   2.576   0.861   0.422 -0.8254  1.2852  2.0385
  807SOL    HW2 2421   2.471   0.927   0.305  2.7733  1.4549  2.7252
  808SOL     OW 2422   0.587   2.083   2.899  0.9182 -0.0449 -0.0173
  808SOL    HW1 2423   0.550   2.135   2.978  0.6909  1.1768 -0.7404
  808SOL    HW2 2424   0.576   1.982   2.912 -2.2353  0.4883  0.5924
  809SOL     OW 2425   2.694   1.990   1.907 -0.0648 -0.1132 -0.3662
  809SOL    HW1 2426   2.792   2.012   1.941 -0.5414  2.3128  1.6649
  809SOL    HW2 2427   2.682   1.970   1.806 -0.9608 -0.7346 -0.2974
  810SOL     OW 2428   2.102   1.039   0.539  0.3600  0.3440  0.7780
  810SOL    HW1 2429   2.096   0.972   0.621  1.1102 -1.7140  1.2810
  810SOL    HW2 2430   2.087   1.136   0.571  1.4890  0.9195  0.1706
  811SOL     OW 2431   1.335   2.498   1.185 -0.1347 -0.3635 -0.6169
  811SOL    HW1 2432   1.275   2.416   1.209 -0.9661  1.2254 -1.4598
  811SOL    HW2 2433   1.290   2.590   1.208  0.7034  2.5826 -1.1242
  812SOL     OW 2434   1.419   0.752   1.968 -0.3775  0.0004  0.1046
  812SOL    HW1 2435   1.488   0.822   1.987 -0.9082 -3.1455 -2.7351
  812SOL    HW2 2436   1.326   0.786   1.973  0.7748 -1.4777 -1.7293
  813SOL     OW 2437   1.707   2.038   2.496 -0.3484  0.2097  0.0237
  813SOL    HW1 2438   1.784   1.963   2.505  2.3683 -2.2340 -1.0533
  813SOL    HW2 2439   1.651   2.025   2.406 -1.3217  1.2277 -0.2504
  814SOL     OW 2440   2.904   1.545   2.838 -0.2261  1.0402 -0.8446
  814SOL    HW1 2441   2.994   1.503   2.868 -0.1845  0.0747 -1.9847
  814SOL    HW2 2442   2.922   1.628   2.782 -1.0725  0.3551  0.9654
  815SOL     OW 2443   2.135   2.910   2.776 -0.0881 -0.3621 -0.1525
  815SOL    HW1 2444   2.116   2.833   2.841  1.7948  1.7223 -0.7043
  815SOL    HW2 2445   2.229   2.948   2.801  0.8149  0.3428  2.8553
  816SOL     OW 2446   1.649   0.334   1.602 -0.3299 -0.0717 -0.3218
  816SOL    HW1 2447   1.696   0.244   1.634  0.7340  0.4780  0.7091
  816SOL    HW2 2448   1.565   0.361   1.655  0.8014  0.9601  1.5810
  817SOL     OW 2449   0.381   1.186   2.559 -0.3780 -0.5013  0.1141
  817SOL    HW1 2450   0.284   1.220   2.571  0.3470  0.9723 -0.4940
  817SOL    HW2 2451   0.427   1.258   2.496 -1.2273  0.9254  0.9822
  818SOL     OW 2452   1.888   0.874   0.440 -0.2749  0.3972 -0.5540
  818SOL    HW1 2453   1.969   0.933   0.472 -2.7580  1.0856  0.4186
  818SOL    HW2 2454   1.797   0.913   0.476 -1.9030  1.1424  0.8722
  819SOL     OW 2455   2.734   2.972   2.980  0.2311 -0.3011 -0.7583
  819SOL    HW1 2456   2.814   2.911   2.943  1.4563  1.4619  0.9415
  819SOL    HW2 2457   2.641   2.935   2.952  1.1720  1.3091  0.9323
  820SOL     OW 2458   1.264   1.070   0.672 -0.7046 -0.4300 -0.3274
  820SOL    HW1 2459   1.232   1.168   0.703  1.2332 -1.1313 -0.0335
  820SOL    HW2 2460   1.237   0.998   0.739  2.0671 -2.7944 -0.5457
  821SOL     OW 2461   3.086   1.318   0.669  0.2654 -0.1526 -0.0824
  821SOL    HW1 2462   3.066   1.330   0.772 -1.6409  2.3884 -4.1382
  821SOL    HW2 2463   3.140   1.393   0.624 -1.6068 -0.4765  1.4154
  822SOL     OW 2464   2.563   1.710   2.425 -0.3520 -0.2570 -0.5838
  822SOL    HW1 2465   2.582   1.790   2.490  0.3601 -0.2552  1.7367
  822SOL    HW2 2466   2.468   1.712   2.378 -0.1782  0.6402 -1.5238
  823SOL     OW 2467   2.096   0.905   1.218 -0.7069  0.0983 -0.4360
  823SOL    HW1 2468   2.035   0.871   1.292  0.6539  2.3327  0.9252
  823SOL    HW2 2469   2.041   0.956   1.145  1.0311  1.5623  1.7991
  824SOL     OW 2470   0.240   2.048   2.787  0.2524 -0.2363  0.1146
  824SOL    HW1 2471   0.190   1.975   2.847 -0.2191 -2.0713 -0.9594
  824SOL    HW2 2472   0.314   2.010   2.720  0.8247  1.1128  1.0211
  825SOL     OW 2473   1.293   1.123   0.270 -0.2314  0.4431  0.2887
  825SOL    HW1 2474   1.326   1.220   0.257  1.8702 -0.4220 -0.2568
  825SOL    HW2 2475   1.243   1.115   0.355  0.8222  1.6546  0.5886
  826SOL     OW 2476   1.902   0.702   1.631  0.2291 -0.5448 -0.2009
  826SOL    HW1 2477   1.986   0.645   1.654  0.9648  0.0994 -1.9457
  826SOL    HW2 2478   1.822   0.655   1.583 -1.1434 -0.7596 -0.7974
  827SOL     OW 2479   0.678   1.182   0.218 -0.4513 -0.4155 -0.4282
  827SOL    HW1 2480   0.780   1.186   0.188 -0.3219 -1.3828 -1.8613
  827SOL    HW2 2481   0.641   1.083   0.200  2.9778 -0.7414 -0.0452
  828SOL     OW 2482   2.565   0.109   1.571  0.2785  0.5856 -0.2078
  828SOL    HW1 2483   2.472   0.136   1.533  1.6481 -1.6145 -1.3034
  828SOL    HW2 2484   2.566   0.020   1.624 -0.6656  0.5439  1.4826
  829SOL     OW 2485   2.754   2.503   3.038  0.1655  0.1007  0.0357
  829SOL    HW1 2486   2.695   2.426   3.073 -0.5972  1.1573  1.6687
  829SOL    HW2 2487   2.731   2.595   3.076 -0.0111 -1.1187 -1.7157
  830SOL     OW 2488   2.840   0.936   3.004 -0.2085 -0.5082  1.5988
  830SOL    HW1 2489   2.908   1.017   3.020 -1.7302  1.5297  0.6682
  830SOL    HW2 2490   2.843   0.865   3.084  0.4620  0.1632  1.2443
  831SOL     OW 2491   0.017   0.642   0.403 -0.3867  0.4902 -0.3626
  831SOL    HW1 2492   0.004   0.575   0.485 -0.6577 -0.2670  0.3583
  831SOL    HW2 2493   0.076   0.604   0.325 -0.9636 -1.0336  0.0998
  832SOL     OW 2494   1.795   0.746   2.992  0.2616  0.0603  0.0310
  832SOL    HW1 2495   1.708   0.780   2.952  2.7244  1.2200 -0.3322
  832SOL    HW2 2496   1.799   0.643   3.010  1.2536  0.3782 -0.0151
  833SOL     OW 2497   2.479   2.155   0.552 -0.2221 -0.1695 -0.0195
  833SOL    HW1 2498   2.402   2.202   0.504  0.9269 -3.5357 -2.2689
  833SOL    HW2 2499   2.475   2.049   0.535  2.7706 -0.5004 -0.6501
  834SOL     OW 2500   0.207   0.216   0.513  0.2219  0.1298 -1.0185
  834SOL    HW1 2501   0.201   0.143   0.585 -3.7319 -1.6724  2.7261
  834SOL    HW2 2502   0.177   0.174   0.421  0.1823 -1.2426 -0.5995
  835SOL     OW 2503   2.337   1.565   1.100 -0.3613  0.4608 -0.5859
  835SOL    HW1 2504   2.330   1.662   1.129 -1.0687  1.9367 -1.1607
  835SOL    HW2 2505   2.424   1.554   1.050 -1.8834 -0.4918  3.0903
  836SOL     OW 2506   1.602   0.834   2.568  0.2057  0.0839  0.3464
  836SOL    HW1 2507   1.498   0.850   2.568 -2.9892 -0.6180 -0.4383
  836SOL    HW2 2508   1.644   0.830   2.471  2.0337 -1.4228 -1.8291
  837SOL     OW 2509   1.710   0.126   0.550  0.0010  0.2853 -0.0645
  837SOL    HW1 2510   1.661   0.194   0.618 -0.5701 -0.3328 -0.0860
  837SOL    HW2 2511   1.657   0.111   0.463  1.1556  1.0231 -0.9357
  838SOL     OW 2512   1.178   1.547   2.811 -0.5251 -0.0680  0.2945
  838SOL    HW1 2513   1.128   1.532   2.901 -0.0366 -0.6688 -0.4530
  838SOL    HW2 2514   1.129   1.491   2.736 -0.6267 -0.6763  0.4319
  839SOL     OW 2515   1.689   0.322   1.032  0.1558  0.1418  0.4653
  839SOL    HW1 2516   1.703   0.388   1.111 -0.9459  0.5614 -1.1639
  839SOL    HW2 2517   1.633   0.233   1.050 -1.1681 -0.0865  0.2881
  840SOL     OW 2518   2.509   2.968   1.748  0.3971 -0.3086  0.1603
  840SOL    HW1 2519   2.470   2.928   1.659 -0.3203 -3.8171 -1.7967
  840SOL    HW2 2520   2.535   2.894   1.816 -0.8756 -0.1559 -0.6030
  841SOL     OW 2521   1.533   0.829   2.957 -0.1450 -0.1880 -0.0374
  841SOL    HW1 2522   1.482   0.850   3.048 -4.1039 -0.8036  2.8735
  841SOL    HW2 2523   1.550   0.915   2.894 -0.1158  2.7521 -1.2450
  842SOL     OW 2524   0.797   1.547   0.951 -0.6041 -0.2191  0.2338
  842SOL    HW1 2525   0.761   1.637   0.983  0.1212 -0.0578  2.4297
  842SOL    HW2 2526   0.718   1.488   0.916 -1.8564  3.3635 -1.4773
  843SOL     OW 2527   0.050   0.040   1.381 -0.2296  0.0576  0.5900
  843SOL    HW1 2528   0.136   0.080   1.430  0.7098  0.8510 -1.1290
  843SOL    HW2 2529   0.028  -0.054   1.415 -0.6224  2.9628  0.8194
  844SOL     OW 2530   0.820   2.534   0.285 -0.2859  0.4407  0.4318
  844SOL    HW1 2531   0.764   2.509   0.371 -1.1670  1.4126 -0.6945
  844SOL    HW2 2532   0.755   2.599   0.230 -0.3719  1.1220  1.3022
  845SOL     OW 2533   1.635   2.895   1.363  0.3853  0.3938 -0.1274
  845SOL    HW1 2534   1.720   2.887   1.424  0.2961 -2.2632 -1.2394
  845SOL    HW2 2535   1.555   2.849   1.406  1.3821 -0.0876 -3.1129
  846SOL     OW 2536   1.567   2.900   0.679 -0.2018  0.0857  0.0834
  846SOL    HW1 2537   1.599   2.834   0.607 -0.8788  1.3208 -0.9175
  846SOL    HW2 2538   1.624   2.895   0.762 -1.5715 -1.0994  2.1337
  847SOL     OW 2539   2.066   1.655   0.305 -0.1720  0.3820 -0.2122
  847SOL    HW1 2540   2.016   1.568   0.338 -1.2543  1.0759  0.5070
  847SOL    HW2 2541   2.001   1.728   0.302 -0.4673 -0.7841  1.7098
  848SOL     OW 2542   2.440   0.869   2.583  0.3664 -0.2231  0.0144
  848SOL    HW1 2543   2.399   0.938   2.646 -1.5245 -2.1618 -2.2564
  848SOL    HW2 2544   2.377   0.790   2.559 -1.0003  1.5683  1.2374
  849SOL     OW 2545   2.591   0.807   2.350 -0.0239 -0.2171 -0.1146
  849SOL    HW1 2546   2.688   0.825   2.371 -0.5673 -1.3862 -2.4599
  849SOL    HW2 2547   2.530   0.848   2.425  0.9779  0.4860  0.4369
  850SOL     OW 2548   1.554   0.093   1.343 -0.0472  0.1809  0.4168
  850SOL    HW1 2549   1.567   0.078   1.244 -3.7175 -2.5393  1.5116
  850SOL    HW2 2550   1.487   0.029   1.386 -0.5423 -1.7380 -2.7030
  851SOL     OW 2551   0.461   1.804   0.596 -0.3921 -0.1563  0.1130
  851SOL    HW1 2552   0.497   1.900   0.601  1.9646  0.3072  1.0494
  851SOL    HW2 2553   0.491   1.758   0.506 -0.6077 -1.3388  0.2562
  852SOL     OW 2554   0.784   2.115   1.659 -0.5618  0.2495 -0.1278
  852SOL    HW1 2555   0.812   2.205   1.617  3.2220  1.8551  0.8446
  852SOL    HW2 2556   0.706   2.112   1.731 -0.3458  0.0562  2.1698
  853SOL     OW 2557   2.566   1.480   2.604  0.5697  0.0017  0.2269
  853SOL    HW1 2558   2.510   1.392   2.592  1.0592  1.2453 -2.0680
  853SOL    HW2 2559   2.571   1.536   2.514 -0.6634 -0.1555 -2.0662
  854SOL     OW 2560   2.376   1.412   1.736  0.3185 -0.4907 -0.2980
  854SOL    HW1 2561   2.425   1.423   1.644 -2.2055 -1.0577  1.1341
  854SOL    HW2 2562   2.291   1.352   1.732 -1.5305  0.8593 -0.5807
  855SOL     OW 2563   2.017   2.434   0.986  0.1551 -0.1617 -0.0112
  855SOL    HW1 2564   2.032   2.526   0.937 -1.8111  1.5947 -2.7393
  855SOL    HW2 2565   2.100   2.408   1.043  0.4343 -2.8652  1.8461
  856SOL     OW 2566   1.352   1.498   0.936  0.4855 -0.0565 -0.4013
  856SOL    HW1 2567   1.408   1.589   0.953  0.0129  1.3998  0.8949
  856SOL    HW2 2568   1.257   1.505   0.970 -0.5377 -1.2391 -0.1021
  857SOL     OW 2569   3.062   2.687   0.999 -0.7683  0.1037  0.9886
  857SOL    HW1 2570   3.029   2.649   0.903  0.1097  2.3619 -1.8020
  857SOL    HW2 2571   3.163   2.686   1.004 -1.6771 -0.9035  2.3355
  858SOL     OW 2572   2.340   2.058   1.695 -0.3345 -0.9058  0.0073
  858SOL    HW1 2573   2.254   2.010   1.658  1.6302  0.2835  1.0987
  858SOL    HW2 2574   2.423   1.996   1.679  0.3512 -0.9664  0.2840
  859SOL     OW 2575   2.474   0.542   1.010 -0.0266  0.2385  0.1980
  859SOL    HW1 2576   2.549   0.595   0.960  0.9297 -0.1376 -2.0129
  859SOL    HW2 2577   2.512   0.451   1.043  2.1170 -1.6081  0.3128
  860SOL     OW 2578   1.939   2.810   0.433  0.4289  0.7110 -0.2381
  860SOL    HW1 2579   1.918   2.800   0.332  1.3829 -1.0571 -1.9711
  860SOL    HW2 2580   2.040   2.779   0.455 -1.8230 -1.0515 -3.4090
  861SOL     OW 2581   1.064   2.442   2.881  1.0485  0.4213 -0.0638
  861SOL    HW1 2582   1.069   2.534   2.839  1.6172  0.3791  0.1355
  861SOL    HW2 2583   1.121   2.433   2.964  0.1848 -0.6929 -1.2763
  862SOL     OW 2584   2.819   2.577   1.604  0.1991  0.3863  0.1744
  862SOL    HW1 2585   2.897   2.592   1.669 -0.1963  0.5336 -0.6706
  862SOL    HW2 2586   2.788   2.657   1.544  0.9860 -1.4395 -2.2178
  863SOL     OW 2587   1.845   2.742   0.180 -0.1156 -0.4397 -0.2464
  863SOL    HW1 2588   1.898   2.658   0.205 -1.6963 -0.2906  0.5272
  863SOL    HW2 2589   1.747   2.721   0.151  0.3049  0.4264 -1.0534
  864SOL     OW 2590   1.911   1.192   2.869 -0.1108 -0.0631 -0.1954
  864SOL    HW1 2591   1.921   1.131   2.786 -0.8872 -0.4926  0.8799
  864SOL    HW2 2592   1.990   1.182   2.938 -0.0646  2.1210 -1.2556
  865SOL     OW 2593   2.212   1.826   0.632  0.1175 -1.0076 -0.3029
  865SOL    HW1 2594   2.270   1.815   0.719  0.1094  1.3035 -0.7374
  865SOL    HW2 2595   2.112   1.834   0.660 -0.7422  0.9219  1.3447
  866SOL     OW 2596   2.877   2.916   1.026 -0.0164  0.2171 -0.0771
  866SOL    HW1 2597   2.884   2.960   0.929 -0.2219 -1.4168 -0.9882
  866SOL    HW2 2598   2.942   2.833   1.040 -2.7217 -3.6863 -0.9407
  867SOL     OW 2599   0.321   1.385   0.885 -0.8024 -0.1686  0.5387
  867SOL    HW1 2600   0.338   1.295   0.831 -1.4274 -4.2183 -0.0193
  867SOL    HW2 2601   0.276   1.458   0.830  1.1377 -1.5112  0.6672
  868SOL     OW 2602   0.773   1.887   1.992 -0.3810 -0.2596 -0.2746
  868SOL    HW1 2603   0.793   1.887   2.093 -2.3899 -2.7030 -2.6329
  868SOL    HW2 2604   0.747   1.980   1.949 -0.1694  0.5821 -3.0216
  869SOL     OW 2605   2.568   1.909   1.638 -0.0226  0.5514 -0.3519
  869SOL    HW1 2606   2.652   1.962   1.610  1.7338 -0.4434 -1.7547
  869SOL    HW2 2607   2.586   1.805   1.639 -0.1259 -2.6471 -0.6492
  870SOL     OW 2608   2.217   2.641   1.242 -0.1981 -0.3339  0.1193
  870SOL    HW1 2609   2.220   2.538   1.232 -0.1989 -5.3861 -2.5526
  870SOL    HW2 2610   2.226   2.681   1.339 -0.5485 -1.5612  1.9169
  871SOL     OW 2611   3.030   2.207   0.513 -0.5095  0.1099 -0.2042
  871SOL    HW1 2612   3.008   2.273   0.591 -1.7390  1.0508  0.4227
  871SOL    HW2 2613   2.987   2.228   0.421  0.6877  1.1789 -0.7191
  872SOL     OW 2614   2.111   0.537   1.693 -0.3052 -0.1253 -0.1221
  872SOL    HW1 2615   2.071   0.515   1.788 -0.4259  1.5831  0.6042
  872SOL    HW2 2616   2.209   0.505   1.690 -1.0739  2.9000 -0.7015
  873SOL     OW 2617   1.716   2.122   3.068  0.5860 -0.1891 -0.3908
  873SOL    HW1 2618   1.622   2.123   3.108  1.7937 -2.2344  1.4437
  873SOL    HW2 2619   1.717   2.098   2.967  1.8436 -1.1283  1.7154
  874SOL     OW 2620   0.683   2.470   0.765  0.1438  0.2291  0.2212
  874SOL    HW1 2621   0.618   2.547   0.798  0.7829 -1.1059  1.7825
  874SOL    HW2 2622   0.768   2.465   0.821 -0.2482 -0.3752  1.0866
  875SOL     OW 2623   2.341   1.474   1.405 -0.0421  0.2260  0.1264
  875SOL    HW1 2624   2.398   1.562   1.422 -0.6772 -1.3791  1.4454
  875SOL    HW2 2625   2.327   1.455   1.301  2.4426  0.3111 -4.0347
  876SOL     OW 2626   0.063   2.258   2.752  0.1987 -0.2452  0.2038
  876SOL    HW1 2627   0.135   2.184   2.747  2.8291 -3.2043 -0.5221
  876SOL    HW2 2628   0.086   2.340   2.810  0.3043  1.2192 -1.4137
  877SOL     OW 2629   2.903   2.668   0.566 -0.0057 -0.2005  0.4130
  877SOL    HW1 2630   2.893   2.769   0.600  0.8782 -0.1148  1.6536
  877SOL    HW2 2631   2.934   2.602   0.641  0.9137  1.4142 -1.0021
  878SOL     OW 2632   2.780   1.483   2.263 -0.6394 -0.1302  0.0015
  878SOL    HW1 2633   2.780   1.573   2.220  2.8409  0.1785  0.0258
  878SOL    HW2 2634   2.813   1.489   2.360  1.4495  0.1624 -1.8290
  879SOL     OW 2635   2.402   0.118   1.240 -0.3081 -0.1914 -0.4332
  879SOL    HW1 2636   2.425   0.017   1.253 -0.5083  1.6190 -0.8393
  879SOL    HW2 2637   2.348   0.135   1.153  0.6005  0.3312 -1.3654
  880SOL     OW 2638   0.764   0.478   2.222  0.1193  0.0474 -0.2366
  880SOL    HW1 2639   0.712   0.448   2.307 -1.6119  1.8760 -3.0940
  880SOL    HW2 2640   0.822   0.404   2.178  0.1266  0.7036  1.3180
  881SOL     OW 2641   0.906   0.037   0.520 -0.3439  0.7217 -0.4333
  881SOL    HW1 2642   0.954  -0.048   0.560  1.0703 -3.7098 -0.9123
  881SOL    HW2 2643   0.808   0.010   0.504  0.1635 -3.5480  1.2049
  882SOL     OW 2644   2.701   1.681   1.687 -0.0140  0.1668  0.2725
  882SOL    HW1 2645   2.791   1.669   1.634  1.3791 -1.6275  0.3262
  882SOL    HW2 2646   2.707   1.686   1.788 -1.8695  0.7576 -2.7120
  883SOL     OW 2647   0.898   0.516   0.935 -0.0180  0.5703  0.0567
  883SOL    HW1 2648   0.902   0.593   1.007 -0.9810 -0.1954  0.4849
  883SOL    HW2 2649   0.908   0.423   0.979 -0.6325 -0.7252  0.3979
  884SOL     OW 2650   1.160   1.729   1.190  0.1831 -0.3347 -0.2132
  884SOL    HW1 2651   1.129   1.664   1.117  0.7605  4.2763  0.7459
  884SOL    HW2 2652   1.157   1.832   1.155 -1.6123  0.5799 -1.2100
  885SOL     OW 2653   2.331   1.776   2.284  0.2249  0.1983 -0.0567
  885SOL    HW1 2654   2.269   1.736   2.358 -1.4452  1.3098  2.4333
  885SOL    HW2 2655   2.294   1.873   2.271 -2.1192 -0.5958 -0.3380
  886SOL     OW 2656   2.603   0.360   1.803 -0.0132  0.3511  0.1197
  886SOL    HW1 2657   2.651   0.268   1.804  0.5334  2.0538 -0.0313
  886SOL    HW2 2658   2.667   0.441   1.793  2.1978  1.1535  0.8642
  887SOL     OW 2659   0.105   1.963   1.349  0.3197  0.3824  0.0599
  887SOL    HW1 2660   0.093   1.905   1.264 -1.0685  0.0930  0.4539
  887SOL    HW2 2661   0.112   2.064   1.326 -2.9559  0.0524  0.9530
  888SOL     OW 2662   0.569   1.212   1.549  0.5104  0.1157 -0.0706
  888SOL    HW1 2663   0.604   1.264   1.466 -0.4860  1.4623 -0.4862
  888SOL    HW2 2664   0.510   1.129   1.523 -2.5593 -2.6408 -0.1023
  889SOL     OW 2665   0.825   2.483   2.198  0.1725 -0.2439 -0.1295
  889SOL    HW1 2666   0.792   2.382   2.187 -2.3402  0.5207 -4.0517
  889SOL    HW2 2667   0.884   2.506   2.110  0.2809  2.4027 -3.0376
  890SOL     OW 2668   2.423   2.415   0.233 -0.0495 -0.3904 -0.2241
  890SOL    HW1 2669   2.502   2.469   0.194  1.6715  0.1189  2.0386
  890SOL    HW2 2670   2.351   2.480   0.273  1.9642  2.5669 -0.7309
  891SOL     OW 2671   2.518   1.721   0.689  0.2607 -0.2021  0.3117
  891SOL    HW1 2672   2.548   1.681   0.777 -1.2528  1.0012 -2.2479
  891SOL    HW2 2673   2.461   1.660   0.629  3.7315  0.0645  2.5815
  892SOL     OW 2674   0.360   0.297   2.254 -0.2742  0.0875 -0.3209
  892SOL    HW1 2675   0.395   0.373   2.190  1.5537  2.4545 -0.5536
  892SOL    HW2 2676   0.420   0.288   2.338 -1.4534  0.5492  0.2390
  893SOL     OW 2677   1.672   0.260   2.723  0.0767 -0.0807  0.3131
  893SOL    HW1 2678   1.764   0.309   2.725  1.1088 -2.6768  0.6848
  893SOL    HW2 2679   1.590   0.320   2.694 -2.4533 -0.0392 -0.0840
  894SOL     OW 2680   2.159   2.035   0.030 -0.7516 -0.1863 -0.0945
  894SOL    HW1 2681   2.130   2.003  -0.062 -0.2402 -0.9046 -2.5047
  894SOL    HW2 2682   2.177   1.958   0.099 -1.5708 -1.4152  0.1065
  895SOL     OW 2683   2.821   1.442   0.946  0.3244 -0.4689  0.3494
  895SOL    HW1 2684   2.910   1.394   0.953 -0.7136 -0.2829 -1.9987
  895SOL    HW2 2685   2.828   1.542   0.986  3.1680  1.4315  0.2040
  896SOL     OW 2686   1.718   1.807   1.191  0.7789 -0.0360 -0.2180
  896SOL    HW1 2687   1.767   1.749   1.124 -0.4234  0.0670 -0.4068
  896SOL    HW2 2688   1.682   1.896   1.149  0.3400 -1.0650  1.2484
  897SOL     OW 2689   0.314   0.551   3.057 -0.1576 -0.2317  0.1082
  897SOL    HW1 2690   0.278   0.592   2.967 -0.0569  0.5702 -0.8770
  897SOL    HW2 2691   0.402   0.596   3.078  0.0123 -1.3061 -1.2878
  898SOL     OW 2692   0.556   2.874   1.075 -0.6849 -0.0050  0.1626
  898SOL    HW1 2693   0.532   2.976   1.094 -1.0950 -0.0068  3.4748
  898SOL    HW2 2694   0.644   2.835   1.125  1.0411 -0.7893 -0.2891
  899SOL     OW 2695   2.834   0.909   1.282 -0.4313  0.1923 -1.1757
  899SOL    HW1 2696   2.744   0.892   1.231  0.8328  1.0887  0.3281
  899SOL    HW2 2697   2.916   0.899   1.220  0.4574  2.8971  1.8036
  900SOL     OW 2698   0.969   2.532   2.401  0.2534  0.2516 -0.4773
  900SOL    HW1 2699   0.907   2.521   2.318  1.0752  0.0174  2.4936
  900SOL    HW2 2700   0.928   2.486   2.491  2.4469  0.5896  3.9813
  901SOL     OW 2701   1.896   2.343   1.369  0.0977 -0.0372 -0.1199
  901SOL    HW1 2702   1.884   2.303   1.273 -2.2617 -2.2275  0.5054
  901SOL    HW2 2703   1.986   2.327   1.411 -1.1271 -0.0752 -0.8020
  902SOL     OW 2704   2.561   1.651   1.438 -0.2680  0.8035  0.9006
  902SOL    HW1 2705   2.600   1.640   1.534 -1.6691 -1.2971  0.6938
  902SOL    HW2 2706   2.630   1.612   1.367 -0.8039 -2.6335 -0.8192
  903SOL     OW 2707   0.242   2.473   1.980  0.1838 -0.2594  0.0574
  903SOL    HW1 2708   0.160   2.425   1.937  2.0319 -2.2672  1.0556
  903SOL    HW2 2709   0.274   2.555   1.919  1.9331 -1.3672  0.7986
  904SOL     OW 2710   2.037   0.793   2.554  0.1481  0.1221 -0.8274
  904SOL    HW1 2711   1.959   0.726   2.591 -1.6461 -0.3479 -1.0509
  904SOL    HW2 2712   2.052   0.793   2.452  1.2709  2.1640  0.0993
  905SOL     OW 2713   2.833   0.133   2.565 -0.3807 -0.3821  0.1147
  905SOL    HW1 2714   2.886   0.046   2.545 -0.2452  2.5209 -0.4562
  905SOL    HW2 2715   2.891   0.221   2.550  0.2201 -0.9955  0.1577
  906SOL     OW 2716   0.224   1.686   1.935 -0.3157 -0.2299  0.0047
  906SOL    HW1 2717   0.151   1.723   1.869  2.3383 -0.1146 -2.1884
  906SOL    HW2 2718   0.314   1.720   1.894 -2.1192 -0.2289 -2.0697
  907SOL     OW 2719   0.265   2.436   1.032  0.0469 -0.0002  0.0166
  907SOL    HW1 2720   0.340   2.376   0.991 -0.4589 -0.5960 -0.8799
  907SOL    HW2 2721   0.258   2.533   0.992  2.3646  2.0139  1.5645
  908SOL     OW 2722   2.816   2.975   0.354 -0.4315 -0.0111 -0.2864
  908SOL    HW1 2723   2.720   2.998   0.321 -0.7906 -0.4094 -0.0755
  908SOL    HW2 2724   2.875   2.935   0.279 -0.1955  0.5026  2.6983
  909SOL     OW 2725   0.833   1.049   2.656 -0.2761  0.0588 -0.1027
  909SOL    HW1 2726   0.805   0.952   2.636  1.8648 -0.8885  0.2326
  909SOL    HW2 2727   0.884   1.087   2.576  0.7184  0.9128  0.3304
  910SOL     OW 2728   1.781   1.904   2.180 -0.3902 -0.4999 -0.0411
  910SOL    HW1 2729   1.811   1.916   2.076 -0.3056  1.4939 -2.5965
  910SOL    HW2 2730   1.697   1.959   2.209 -1.4846 -1.7441  0.4060
  911SOL     OW 2731   1.807   2.944   1.594  0.0027  0.0723 -0.0797
  911SOL    HW1 2732   1.883   2.929   1.522 -0.4357  0.7516 -1.1725
  911SOL    HW2 2733   1.806   2.872   1.665  0.9624  2.5175 -0.6584
  912SOL     OW 2734   2.854   1.016   0.744 -0.0861 -0.0996 -0.1221
  912SOL    HW1 2735   2.870   0.988   0.844 -0.6476 -3.5232 -1.6737
  912SOL    HW2 2736   2.822   1.113   0.722  1.1382  0.7688 -0.1836
  913SOL     OW 2737   2.554   1.281   1.527  0.4286  0.0445 -0.4614
  913SOL    HW1 2738   2.573   1.180   1.515  1.0735  0.7238 -2.0963
  913SOL    HW2 2739   2.598   1.334   1.451 -1.1310 -2.5398  0.5302
  914SOL     OW 2740   2.790   0.590   1.198  0.2880  0.5451  0.1097
  914SOL    HW1 2741   2.791   0.488   1.224 -0.5297 -1.3223 -0.0785
  914SOL    HW2 2742   2.695   0.627   1.223 -1.8008  1.9217  1.3580
  915SOL     OW 2743   1.176   0.714   1.065  0.1898 -0.5871  0.2586
  915SOL    HW1 2744   1.235   0.775   1.131 -1.2956  1.8085  1.3913
  915SOL    HW2 2745   1.078   0.745   1.060  4.0841  1.8818  1.6524
  916SOL     OW 2746   0.587   0.021   0.647 -0.1336  0.0534 -0.4937
  916SOL    HW1 2747   0.628   0.100   0.704 -1.3981 -0.8339  0.5801
  916SOL    HW2 2748   0.592   0.046   0.551  0.4856 -1.2746  2.4234
  917SOL     OW 2749   2.838   2.615   1.995  0.4023  0.0224 -0.4128
  917SOL    HW1 2750   2.743   2.635   1.955  1.2680  0.7357  0.8111
  917SOL    HW2 2751   2.913   2.657   1.934  0.9062 -2.2534 -3.3625
  918SOL     OW 2752   1.013   2.103   3.037 -0.0946  0.1291  0.0257
  918SOL    HW1 2753   0.975   2.178   3.102 -2.8698 -0.1999  1.2131
  918SOL    HW2 2754   1.073   2.154   2.966  2.9806  2.7076  2.6951
  919SOL     OW 2755   0.851   1.623   2.849  0.4169  0.2015  0.4305
  919SOL    HW1 2756   0.876   1.713   2.800  0.1913 -1.1674 -0.8013
  919SOL    HW2 2757   0.800   1.555   2.786  3.1163 -0.0133  0.5139
  920SOL     OW 2758   1.246   1.840   2.494 -0.6507  0.5978 -0.2159
  920SOL    HW1 2759   1.321   1.792   2.441  0.9169 -1.3143  1.4071
  920SOL    HW2 2760   1.189   1.770   2.543  1.1287 -2.3713  0.4125
  921SOL     OW 2761   1.042   0.035   2.617 -0.0442  0.0708 -0.3459
  921SOL    HW1 2762   1.030  -0.008   2.522 -0.1279  1.7227 -1.0595
  921SOL    HW2 2763   0.980  -0.005   2.688 -2.1917 -3.3645  0.3970
  922SOL     OW 2764   2.196   2.373   2.780 -0.5363  0.6373 -0.2223
  922SOL    HW1 2765   2.207   2.273   2.767 -0.5336  2.0561 -2.5476
  922SOL    HW2 2766   2.171   2.417   2.689 -1.1330 -3.1408  2.0059
  923SOL     OW 2767   1.271   2.671   0.294 -0.2996 -0.2292 -0.0685
  923SOL    HW1 2768   1.349   2.738   0.313 -3.0968 -1.4761  0.0163
  923SOL    HW2 2769   1.300   2.573   0.291 -1.6676  2.7791  1.0437
  924SOL     OW 2770   2.839   1.612   0.169 -0.0057 -1.0239  0.7655
  924SOL    HW1 2771   2.765   1.610   0.097  1.4598 -2.8085  0.5035
  924SOL    HW2 2772   2.927   1.567   0.136 -0.1663 -0.5378  0.9997
  925SOL     OW 2773   0.017   2.875   1.486  0.2790 -0.3843  0.4042
  925SOL    HW1 2774  -0.060   2.864   1.558 -1.7293  2.3845  1.1989
  925SOL    HW2 2775   0.012   2.810   1.400 -0.0114  0.4292 -0.8961
  926SOL     OW 2776   1.284   2.789   1.301  0.4296  0.3622 -0.8350
  926SOL    HW1 2777   1.328   2.796   1.207 -0.0533 -3.4487 -0.1255
  926SOL    HW2 2778   1.294   2.872   1.361  0.3378 -0.7452  0.0510
  927SOL     OW 2779   0.316   2.670   1.780  0.0532  0.3803 -0.3241
  927SOL    HW1 2780   0.307   2.588   1.712  0.1478 -0.3851 -0.2683
  927SOL    HW2 2781   0.280   2.760   1.740  0.2010 -0.3009  1.0254
  928SOL     OW 2782   1.571   2.055   2.255  0.0290 -0.1946  0.4970
  928SOL    HW1 2783   1.610   2.145   2.214 -2.3002  0.4541 -2.1431
  928SOL    HW2 2784   1.470   2.058   2.257 -0.7946  2.6440  0.6051
  929SOL     OW 2785   2.398   2.529   2.867 -0.3526 -0.0819  0.3341
  929SOL    HW1 2786   2.321   2.454   2.862 -2.1314 -0.5843 -0.4396
  929SOL    HW2 2787   2.452   2.532   2.775  1.1861  0.3987  0.0655
  930SOL     OW 2788   2.183   2.021   1.080  0.2509 -0.5531  0.3478
  930SOL    HW1 2789   2.175   1.965   1.167  2.1040  0.8332  0.3111
  930SOL    HW2 2790   2.230   2.106   1.102 -1.4928  1.8543  0.3190
  931SOL     OW 2791   0.527   1.714   2.714  0.1849  0.1675  0.5592
  931SOL    HW1 2792   0.552   1.755   2.807 -0.5753  2.8767 -3.2299
  931SOL    HW2 2793   0.574   1.619   2.708 -0.9731  0.0410  0.2230
  932SOL     OW 2794   0.483   0.144   3.039  0.3918  0.4406 -0.3521
  932SOL    HW1 2795   0.573   0.191   3.041 -0.3375 -2.9035 -0.7144
  932SOL    HW2 2796   0.483   0.039   3.040 -0.7180 -3.0332 -0.4734
  933SOL     OW 2797   0.984   0.800   0.007  0.3103  0.0930  0.4439
  933SOL    HW1 2798   0.967   0.841   0.102  2.4521  1.3164 -1.6834
  933SOL    HW2 2799   0.977   0.872  -0.062 -2.1619 -1.6889  0.0319
  934SOL     OW 2800   0.784   2.950   2.682 -0.2490  0.5151 -0.0986
  934SOL    HW1 2801   0.783   2.910   2.587  0.5624  0.2498  1.1072
  934SOL    HW2 2802   0.857   2.905   2.742  2.2439 -0.4563 -2.2779
  935SOL     OW 2803   0.034   0.552   0.845  0.1915  0.5268  0.1069
  935SOL    HW1 2804   0.016   0.515   0.748 -1.6816 -2.5130 -1.3363
  935SOL    HW2 2805  -0.058   0.588   0.893 -1.0477 -0.7310  0.3800
  936SOL     OW 2806   1.126   2.768   0.074 -0.1487 -0.0518  0.1377
  936SOL    HW1 2807   1.195   2.822   0.013 -0.9149 -2.5650 -0.6534
  936SOL    HW2 2808   1.167   2.717   0.154  1.2980 -1.4467  0.0166
  937SOL     OW 2809   1.882   2.660   2.105  0.6339 -0.2669  0.3240
  937SOL    HW1 2810   1.780   2.687   2.106  2.7103  0.7117  0.5065
  937SOL    HW2 2811   1.948   2.723   2.054  0.3669 -0.0574 -1.0411
  938SOL     OW 2812   2.769   2.091   1.607  0.0882  0.2170  0.1017
  938SOL    HW1 2813   2.734   2.188   1.614 -0.7680  0.2680 -0.8870
  938SOL    HW2 2814   2.861   2.074   1.655  1.7856 -0.5796  0.5261
  939SOL     OW 2815   2.863   1.207   2.443  0.4430  0.5453  0.3876
  939SOL    HW1 2816   2.934   1.169   2.381 -2.3211  0.1807  0.5140
  939SOL    HW2 2817   2.854   1.146   2.524  1.1301 -0.6788 -3.2050
  940SOL     OW 2818   1.042   0.416   2.750 -0.1854 -0.1273  0.2052
  940SOL    HW1 2819   1.125   0.362   2.724 -1.7968  0.3953 -0.2191
  940SOL    HW2 2820   0.963   0.408   2.687  1.2546 -0.0409 -2.2739
  941SOL     OW 2821   0.046   2.781   2.259  0.7576 -0.2387  0.3255
  941SOL    HW1 2822   0.083   2.685   2.245 -0.4579  3.5219  1.3792
  941SOL    HW2 2823   0.114   2.843   2.310  1.9086  0.0053  0.4446
  942SOL     OW 2824   0.132   0.054   2.576  0.2654 -0.0195 -0.2224
  942SOL    HW1 2825   0.195   0.077   2.658  4.4374  1.9437  0.6179
  942SOL    HW2 2826   0.129   0.129   2.502  0.5582  0.9777 -1.6170
  943SOL     OW 2827   2.092   1.642   2.395  0.1434  0.0974 -0.0451
  943SOL    HW1 2828   2.059   1.611   2.303 -2.0473  0.0076 -1.6661
  943SOL    HW2 2829   2.099   1.566   2.471 -1.0644 -1.7376  3.3135
  944SOL     OW 2830   2.170   2.328   1.449  0.0608  0.0970 -0.1943
  944SOL    HW1 2831   2.260   2.366   1.486  1.3176 -4.2953  3.8574
  944SOL    HW2 2832   2.136   2.239   1.500  1.5883 -0.6215  0.1486
  945SOL     OW 2833   0.679   1.506   0.205  0.3454  0.3114  0.5992
  945SOL    HW1 2834   0.605   1.522   0.131 -0.5135 -0.9365 -0.7998
  945SOL    HW2 2835   0.703   1.405   0.208 -1.5149 -1.6646  2.0752
  946SOL     OW 2836   0.438   0.936   2.472  0.1937 -0.5669 -0.4962
  946SOL    HW1 2837   0.352   0.871   2.464 -1.1028  0.6407  1.4771
  946SOL    HW2 2838   0.409   1.033   2.504 -0.5632  0.1587 -2.2249
  947SOL     OW 2839   1.532   0.522   3.076  0.5207  0.8276  0.0297
  947SOL    HW1 2840   1.506   0.558   2.987  0.1181 -0.4021  3.6674
  947SOL    HW2 2841   1.466   0.456   3.117 -0.2381 -0.8040 -0.3512
  948SOL     OW 2842   1.830   3.014   2.121  0.0626  0.4456  0.2585
  948SOL    HW1 2843   1.861   2.966   2.041 -2.5359 -0.1506  2.4426
  948SOL    HW2 2844   1.837   2.953   2.206 -0.2722 -2.6696 -0.7194
  949SOL     OW 2845   0.616   2.486   0.493 -0.2794 -0.6602 -0.2444
  949SOL    HW1 2846   0.598   2.587   0.491 -2.1909  0.0732 -0.6628
  949SOL    HW2 2847   0.652   2.441   0.580 -0.2599 -0.4778  0.1413
  950SOL     OW 2848   0.205   2.246   3.034 -0.1390 -0.2130  0.5975
  950SOL    HW1 2849   0.152   2.329   3.009 -1.0959 -0.3882  1.6764
  950SOL    HW2 2850   0.228   2.180   2.954  1.5807  0.7629  0.1230
  951SOL     OW 2851   1.208   2.694   2.796 -0.3143  0.1234  0.4125
  951SOL    HW1 2852   1.268   2.622   2.845  0.3603 -1.9291 -1.3520
  951SOL    HW2 2853   1.254   2.732   2.713 -0.6606 -1.0976 -2.8546
  952SOL     OW 2854   0.024   1.658   0.393 -0.5167  0.4403 -0.1879
  952SOL    HW1 2855   0.064   1.749   0.402 -0.7770  3.9957  1.0096
  952SOL    HW2 2856   0.065   1.599   0.464 -3.0644 -1.3711 -1.9039
  953SOL     OW 2857   2.533   1.806   0.223  0.5188  0.9153 -0.2745
  953SOL    HW1 2858   2.503   1.705   0.221  0.4486  1.2804 -2.4963
  953SOL    HW2 2859   2.504   1.848   0.137  0.0120 -2.0478  0.9181
  954SOL     OW 2860   2.232   0.535   0.894  0.1747  0.0302  0.3528
  954SOL    HW1 2861   2.212   0.568   0.794  0.4302  0.0204 -0.2781
  954SOL    HW2 2862   2.334   0.537   0.922 -0.0592 -1.1995  0.3293
  955SOL     OW 2863   0.172   2.599   1.334  0.1809  0.0118 -0.4133
  955SOL    HW1 2864   0.070   2.604   1.309  1.5001 -0.4054  0.1098
  955SOL    HW2 2865   0.230   2.647   1.266 -1.1164  1.5998 -3.4880
  956SOL     OW 2866   2.844   2.450   2.506 -0.0915  0.1460  0.8053
  956SOL    HW1 2867   2.880   2.357   2.487 -0.8258  2.3857  1.0519
  956SOL    HW2 2868   2.866   2.514   2.427  1.9660 -0.9329 -0.1510
  957SOL     OW 2869   1.687   2.048   2.776 -0.1253 -0.0060 -0.1189
  957SOL    HW1 2870   1.597   2.000   2.785 -1.2174  0.0788 -0.4898
  957SOL    HW2 2871   1.710   2.068   2.673 -2.2327 -1.3803 -2.1476
  958SOL     OW 2872   2.550   2.289   3.006 -0.3279  0.3243  0.2284
  958SOL    HW1 2873   2.522   2.347   2.926 -0.4068 -3.0590 -0.0530
  958SOL    HW2 2874   2.476   2.245   3.064  0.8256 -2.2468 -0.2541
  959SOL     OW 2875   0.267   2.810   0.037 -0.3308 -0.0071  0.2241
  959SOL    HW1 2876   0.168   2.778   0.024 -2.3496 -0.7341  1.3647
  959SOL    HW2 2877   0.316   2.757   0.108 -1.5770 -1.0356  0.8423
  960SOL     OW 2878   1.958   0.474   1.933  0.4955  0.3211  0.2641
  960SOL    HW1 2879   1.903   0.567   1.926  2.1940  1.9098 -0.4585
  960SOL    HW2 2880   2.005   0.463   2.024  0.6151 -2.3226 -1.6480
  961SOL     OW 2881   2.573   1.866   1.004 -0.3935  0.4427 -0.3386
  961SOL    HW1 2882   2.569   1.957   0.949 -1.5591 -2.2721 -1.2296
  961SOL    HW2 2883   2.550   1.884   1.102  1.7122 -0.8588 -0.7578
  962SOL     OW 2884   1.317   0.923   0.036  0.2908  0.2938  0.0677
  962SOL    HW1 2885   1.256   0.917  -0.048  0.1162 -2.3492 -1.4665
  962SOL    HW2 2886   1.293   1.011   0.088 -1.0336 -0.7732 -0.0406
  963SOL     OW 2887   2.241   2.577   1.789 -1.0880  0.0300  0.5233
  963SOL    HW1 2888   2.206   2.488   1.826  1.1022 -1.7745  0.1713
  963SOL    HW2 2889   2.278   2.635   1.860 -0.8136 -1.9789 -1.7540
  964SOL     OW 2890   2.363   0.407   1.670  0.1476 -0.6175 -0.1530
  964SOL    HW1 2891   2.456   0.395   1.713 -2.9192  0.8574 -0.4927
  964SOL    HW2 2892   2.342   0.357   1.582 -0.2248 -0.7172 -0.6357
  965SOL     OW 2893   2.629   3.019   0.135  0.7080  1.0392  0.1256
  965SOL    HW1 2894   2.669   3.008   0.040 -1.8467 -1.0140  1.3973
  965SOL    HW2 2895   2.533   3.057   0.121 -0.3621 -1.0325 -1.0492
  966SOL     OW 2896   2.599   2.565   2.238  0.4831  0.1525 -0.8618
  966SOL    HW1 2897   2.696   2.596   2.219 -0.0823  0.9159 -1.4968
  966SOL    HW2 2898   2.529   2.619   2.186  1.1267  1.1703 -0.8261
  967SOL     OW 2899   2.768   2.831   2.488 -0.4909 -0.0982 -0.2085
  967SOL    HW1 2900   2.793   2.758   2.419 -1.1409  2.2190 -1.3164
  967SOL    HW2 2901   2.850   2.895   2.507 -0.4196  0.0254  1.0785
  968SOL     OW 2902   1.906   1.062   2.612 -0.2814  0.0637  0.2513
  968SOL    HW1 2903   1.836   1.121   2.563 -1.5301 -0.1009  1.0849
  968SOL    HW2 2904   1.921   0.976   2.563 -0.0061 -2.5967 -2.6968
  969SOL     OW 2905   2.830   2.516   1.099  1.0574 -0.1322 -0.1789
  969SOL    HW1 2906   2.799   2.503   0.999  2.2947 -0.5338  0.8907
  969SOL    HW2 2907   2.845   2.423   1.144 -0.1106 -2.4558 -0.6456
  970SOL     OW 2908   1.025   2.094   1.790 -0.3258 -0.0601  0.1142
  970SOL    HW1 2909   0.931   2.102   1.743  0.3295  2.1259 -0.0578
  970SOL    HW2 2910   1.020   2.137   1.885 -0.0652 -1.3551  0.2166
  971SOL     OW 2911   2.930   2.067   1.982 -0.6382  0.4266 -0.7688
  971SOL    HW1 2912   2.941   2.165   2.009  2.3954 -3.3677 -1.5626
  971SOL    HW2 2913   2.974   2.051   1.887 -0.0249  3.0468  0.4179
  972SOL     OW 2914   1.972   2.479   0.238  0.1464 -0.1275  0.1254
  972SOL    HW1 2915   1.953   2.404   0.175  0.4115  1.0237  3.2531
  972SOL    HW2 2916   2.005   2.455   0.336  1.8429  0.1498  0.4320
  973SOL     OW 2917   1.263   1.051   1.897  0.1911 -0.0936 -0.4249
  973SOL    HW1 2918   1.193   1.016   1.829 -0.1951 -1.3293  1.7248
  973SOL    HW2 2919   1.228   1.135   1.948 -0.9482  1.0591 -1.2400
  974SOL     OW 2920   1.604   0.556   1.973  0.2674 -0.1214  0.1748
  974SOL    HW1 2921   1.690   0.612   1.949  2.3658 -1.5686 -0.9414
  974SOL    HW2 2922   1.517   0.616   1.960 -1.2168 -4.3674 -1.5045
  975SOL     OW 2923   2.361   3.056   0.040 -0.4101 -0.0749  0.3725
  975SOL    HW1 2924   2.308   2.968   0.055  1.4777  0.3954  1.1770
  975SOL    HW2 2925   2.366   3.071  -0.062 -1.0520 -1.0645  0.1904
  976SOL     OW 2926   1.908   2.859   2.336  0.1932 -0.1013  0.0028
  976SOL    HW1 2927   1.825   2.793   2.333 -0.6918  2.4711  0.1424
  976SOL    HW2 2928   1.935   2.880   2.432  0.3791  0.2705  0.4965
  977SOL     OW 2929   0.473   0.666   1.048  0.0838 -0.0236 -0.8913
  977SOL    HW1 2930   0.422   0.698   0.957 -2.7607 -0.3926  0.3079
  977SOL    HW2 2931   0.574   0.698   1.048  1.1259 -2.3338  0.7514
   3.10000   3.10000   3.10000
