1000 SPC/Fw water molecules t=   1.54000 step= 1540
 2931
    1SOL     OW    1   2.451   0.358   2.649  0.1442  0.1920 -0.2927
    1SOL    HW1    2   2.448   0.263   2.617 -2.1426  2.8445 -2.7509
    1SOL    HW2    3   2.514   0.379   2.729  2.1551 -0.6655  2.8138
    2SOL     OW    4   2.713   2.991   1.396  0.0471  0.1163 -0.1523
    2SOL    HW1    5   2.807   2.963   1.352  0.6299 -1.8407  0.3736
    2SOL    HW2    6   2.727   3.050   1.479  1.1038 -2.0883 -2.6935
    3SOL     OW    7   2.670   2.547   0.388  0.3008 -0.2687 -0.6556
    3SOL    HW1    8   2.605   2.464   0.399 -0.8149 -0.7891  0.0690
    3SOL    HW2    9   2.682   2.602   0.475 -0.3108  1.1029 -0.9856
    4SOL     OW   10   1.252   1.540   2.416  0.3486  0.3177  0.2868
    4SOL    HW1   11   1.193   1.516   2.336  2.3896  1.4524 -0.4431
    4SOL    HW2   12   1.262   1.461   2.487  1.5855  1.1878  1.6958
    5SOL     OW   13   1.185   1.528   2.965 -0.4479 -0.7609  0.9250
    5SOL    HW1   14   1.247   1.596   3.015 -0.5309 -0.4787  1.9662
    5SOL    HW2   15   1.097   1.576   2.948  0.6631  0.0443  2.0887
    6SOL     OW   16   0.284   1.796   3.010 -0.1197  0.5336  0.1111
    6SOL    HW1   17   0.204   1.814   3.071  0.8978 -1.5017 -5.1319
    6SOL    HW2   18   0.309   1.701   3.017 -0.5512  2.1597  0.6874
    7SOL     OW   19   2.463   0.901   1.004  0.1082  0.2713 -0.3811
    7SOL    HW1   20   2.392   0.849   1.061  0.9553  0.0104 -1.1674
    7SOL    HW2   21   2.477   0.864   0.907 -1.9207 -0.5869 -0.8945
    8SOL     OW   22   0.369   0.675   1.549  0.1339 -0.5464  0.5314
    8SOL    HW1   23   0.465   0.637   1.562 -0.1025 -1.9382  0.9284
    8SOL    HW2   24   0.363   0.737   1.466 -0.4657  0.6853  1.5668
    9SOL     OW   25   1.165   0.865   2.328 -0.1556 -0.0025 -0.3641
    9SOL    HW1   26   1.248   0.898   2.278  1.8308  0.0568 -1.3023
    9SOL    HW2   27   1.138   0.774   2.294  1.0226  0.6888  1.3596
   10SOL     OW   28   0.743   1.415   1.249  0.0119  0.3299  0.1122
   10SOL    HW1   29   0.648   1.439   1.208 -2.8359  2.9262 -1.7731
   10SOL    HW2   30   0.790   1.499   1.290  2.8597 -1.5860 -4.1035
   11SOL     OW   31   2.318   2.834   0.858  0.5120  0.1899  0.0145
   11SOL    HW1   32   2.271   2.794   0.940  2.4756  2.5660 -3.2608
   11SOL    HW2   33   2.400   2.891   0.887  1.5912  1.6749 -0.7544
   12SOL     OW   34   1.520   0.906   0.382  0.2192 -0.1392  0.1640
   12SOL    HW1   35   1.446   0.937   0.319 -1.7662 -3.3288  1.1519
   12SOL    HW2   36   1.537   0.805   0.385 -0.0163  0.1448  0.0110
   13SOL     OW   37   2.447   0.740   1.795  0.1047  0.1355 -0.1859
   13SOL    HW1   38   2.369   0.694   1.841  2.6495 -0.8850  1.6504
   13SOL    HW2   39   2.450   0.706   1.698  1.2474 -2.2665 -0.5860
   14SOL     OW   40   1.969   3.079   0.597 -0.2240  0.2075  0.1389
   14SOL    HW1   41   1.877   3.133   0.585 -1.8238 -1.7895 -0.4269
   14SOL    HW2   42   1.976   3.046   0.695 -4.4306  1.8910 -0.9350
   15SOL     OW   43   1.882   2.067   2.650 -0.1250  0.2386 -0.1798
   15SOL    HW1   44   1.817   2.070   2.732 -1.0880 -1.4894 -0.3704
   15SOL    HW2   45   1.867   1.983   2.589  0.9333  0.4862 -1.5443
   16SOL     OW   46   1.599   1.747   3.026  0.5453 -0.4338 -0.1949
   16SOL    HW1   47   1.615   1.651   3.063  0.7362  2.3019  0.8129
   16SOL    HW2   48   1.680   1.809   3.058  1.1656  1.1988  0.4353
   17SOL     OW   49   0.124   0.431   0.183  0.1475  0.0889 -0.1710
   17SOL    HW1   50   0.216   0.447   0.143  0.0796  0.4706 -0.2124
   17SOL    HW2   51   0.048   0.417   0.114  3.0273 -0.0499 -0.3617
   18SOL     OW   52   0.883   2.934   2.139 -0.2234  0.0333  0.0733
   18SOL    HW1   53   0.856   2.853   2.202 -2.8044 -2.4213  2.5382
   18SOL    HW2   54   0.962   2.902   2.079 -0.3155 -1.2392  1.7298
   19SOL     OW   55   0.597   0.852   1.917 -0.1855 -0.0545  0.1713
   19SOL    HW1   56   0.659   0.818   1.993 -1.1834  1.3907  0.4019
   19SOL    HW2   57   0.637   0.938   1.870  0.3490  0.7153 -1.4506
   20SOL     OW   58   0.201   2.859   0.854 -0.4389 -0.0527  0.0924
   20SOL    HW1   59   0.109   2.885   0.819  0.7452 -0.9976  3.2394
   20SOL    HW2   60   0.236   2.766   0.815  1.5907 -2.2739  1.8799
   21SOL     OW   61   2.731   0.315   1.999 -0.5212  0.4119  0.4010
   21SOL    HW1   62   2.688   0.226   1.963 -0.8747 -1.8351  0.7424
   21SOL    HW2   63   2.832   0.306   2.023 -0.9407 -0.2885 -0.7128
   22SOL     OW   64   2.352   0.195   0.129  0.0657  0.1781 -0.1034
   22SOL    HW1   65   2.363   0.109   0.074 -0.1730 -2.1917 -2.7586
   22SOL    HW2   66   2.276   0.261   0.091 -1.8458  0.8659 -0.6503
   23SOL     OW   67   2.819   0.546   0.664 -0.5704  0.6845  0.0358
   23SOL    HW1   68   2.834   0.460   0.611  0.3129  2.5675 -2.6972
   23SOL    HW2   69   2.804   0.626   0.601  1.0357 -0.2189 -1.2357
   24SOL     OW   70   0.249   1.856   0.394  0.2906  0.3198 -0.4707
   24SOL    HW1   71   0.211   1.935   0.334 -1.9104  2.4541  0.4606
   24SOL    HW2   72   0.352   1.851   0.398 -3.0827 -0.8562  0.3742
   25SOL     OW   73   2.279   0.596   0.200  0.6114  0.0861 -0.3815
   25SOL    HW1   74   2.279   0.598   0.096  1.0497 -1.6752  0.1456
   25SOL    HW2   75   2.334   0.518   0.246  2.1673  0.7841  0.2759
   26SOL     OW   76   2.430   2.150   2.123  0.3009 -0.0240  0.1423
   26SOL    HW1   77   2.505   2.209   2.165  1.0934  0.0597 -0.8530
   26SOL    HW2   78   2.466   2.086   2.049 -2.8767  0.8824 -2.3510
   27SOL     OW   79   0.577   2.927   0.167  0.7501  0.2651  0.6488
   27SOL    HW1   80   0.675   2.970   0.165  1.9006  0.8729 -4.5766
   27SOL    HW2   81   0.535   2.927   0.073  1.6752  0.0717  1.6413
   28SOL     OW   82   1.608   0.143   0.286 -0.0986  0.3075 -0.6785
   28SOL    HW1   83   1.640   0.100   0.194  0.0712  1.3776  0.3806
   28SOL    HW2   84   1.641   0.236   0.309 -0.2399 -0.1120  1.5363
   29SOL     OW   85   2.020   0.617   0.288 -0.2152 -0.1923  0.0232
   29SOL    HW1   86   2.004   0.692   0.358  0.0489  1.1751 -1.8264
   29SOL    HW2   87   2.116   0.618   0.241 -0.2913  0.1364  3.0913
   30SOL     OW   88   0.172   2.082   0.920 -0.3579  0.3596  0.4845
   30SOL    HW1   89   0.225   2.020   0.856 -1.7804  1.8585 -1.3694
   30SOL    HW2   90   0.070   2.070   0.898 -0.1481 -0.3276  0.6698
   31SOL     OW   91   2.169   0.048   2.360 -0.4197 -0.0387  0.3087
   31SOL    HW1   92   2.158  -0.005   2.446  0.1696 -1.0300 -2.3241
   31SOL    HW2   93   2.092   0.027   2.297  0.8049  0.6550 -0.0115
   32SOL     OW   94   3.017   3.078   0.292  0.5676  0.1089  0.5031
   32SOL    HW1   95   3.000   2.981   0.307  0.5429  1.7750  0.0353
   32SOL    HW2   96   3.098   3.108   0.350  0.9425 -0.2665  0.3977
   33SOL     OW   97   0.897   0.184   0.612  0.1440 -0.2231 -0.6271
   33SOL    HW1   98   0.887   0.139   0.520 -0.9318 -1.2100 -1.4278
   33SOL    HW2   99   0.967   0.265   0.613 -0.1786 -0.5809 -0.0376
   34SOL     OW  100   0.328   2.694   1.053 -0.1136 -0.1494 -0.8692
   34SOL    HW1  101   0.275   2.756   0.991  2.3317  3.2019 -1.3828
   34SOL    HW2  102   0.419   2.735   1.080  1.3659  1.3690  0.4717
   35SOL     OW  103   0.050   0.126   1.889 -0.1101 -0.2757  0.0793
   35SOL    HW1  104   0.089   0.030   1.906  2.5111 -2.2199  0.7097
   35SOL    HW2  105   0.009   0.145   1.792 -0.8395  3.4569  0.0226
   36SOL     OW  106   1.894   1.180   1.518  0.2635 -0.3355  0.1827
   36SOL    HW1  107   1.960   1.106   1.551 -1.4653 -0.3531 -1.3728
   36SOL    HW2  108   1.935   1.229   1.432 -1.2300  1.0712 -0.3079
   37SOL     OW  109   1.124   0.207   0.974  0.0740  0.6478  0.5831
   37SOL    HW1  110   1.135   0.307   0.949  2.1917 -2.9316 -1.4616
   37SOL    HW2  111   1.202   0.146   0.940  0.8615  0.4867  0.1497
   38SOL     OW  112   1.151   2.889   2.465 -0.1910  0.0755 -0.0994
   38SOL    HW1  113   1.074   2.833   2.493 -1.5871  2.8391 -1.1971
   38SOL    HW2  114   1.119   2.969   2.407 -0.7551 -0.7601  0.8678
   39SOL     OW  115   2.453   1.400   3.063 -0.7022  0.0197  0.0198
   39SOL    HW1  116   2.524   1.328   3.080 -1.6737 -0.8324 -1.9539
   39SOL    HW2  117   2.358   1.370   3.100  0.4186  0.3044  1.3834
   40SOL     OW  118   2.026   2.533   2.609 -0.3422  0.1704 -0.4905
   40SOL    HW1  119   2.013   2.634   2.598  0.5389 -3.1120  0.5430
   40SOL    HW2  120   1.958   2.470   2.568 -0.1641  1.7922  1.4332
   41SOL     OW  121   3.028   0.731   2.812  0.0296  0.9130 -0.0060
   41SOL    HW1  122   2.929   0.765   2.820 -1.3246  1.2224 -0.6825
   41SOL    HW2  123   3.035   0.659   2.734  1.9132 -0.2677  1.8199
   42SOL     OW  124   1.799   1.725   0.564 -0.1568 -0.3443 -0.2735
   42SOL    HW1  125   1.754   1.635   0.549 -0.4365  0.6693  0.4753
   42SOL    HW2  126   1.840   1.759   0.472  1.9349  1.0768  0.3758
   43SOL     OW  127   0.460   1.677   1.190 -0.1815  0.2050 -0.9559
   43SOL    HW1  128   0.442   1.585   1.153 -0.5534  2.4863  2.7004
   43SOL    HW2  129   0.386   1.704   1.259 -0.7661 -2.4259  1.6290
   44SOL     OW  130   1.641   2.366   2.978  0.3742 -0.4768  0.0763
   44SOL    HW1  131   1.561   2.429   2.998 -0.1155  2.6880 -1.2573
   44SOL    HW2  132   1.694   2.404   2.899 -1.0243  0.3002 -2.6072
   45SOL     OW  133   0.350   1.909   2.560 -0.2574 -0.0466 -0.0675
   45SOL    HW1  134   0.289   1.903   2.477  0.7331 -0.6614 -0.5541
   45SOL    HW2  135   0.424   1.833   2.557  2.1672 -2.0120 -1.2121
   46SOL     OW  136   1.227   0.734   0.285 -0.7802  0.6779  0.0103
   46SOL    HW1  137   1.240   0.798   0.206  1.1399 -2.3147  1.2265
   46SOL    HW2  138   1.193   0.641   0.249  1.0974  0.5297 -0.0187
   47SOL     OW  139   0.165   2.440   1.542 -0.1956 -0.0093  0.0377
   47SOL    HW1  140   0.124   2.357   1.594 -0.4070 -1.2716  2.1062
   47SOL    HW2  141   0.193   2.416   1.446  0.0261 -2.4288 -2.2105
   48SOL     OW  142   2.666   0.641   0.139 -0.4029  0.6081  0.0173
   48SOL    HW1  143   2.633   0.653   0.241 -2.1108  0.1906  2.5321
   48SOL    HW2  144   2.760   0.678   0.121  2.1722  1.3878 -1.6559
   49SOL     OW  145   0.365   0.837   1.764  1.0212  0.1997  0.9409
   49SOL    HW1  146   0.448   0.847   1.824 -0.4376  1.0353 -0.2188
   49SOL    HW2  147   0.370   0.765   1.688 -0.7311 -0.0956  0.8824
   50SOL     OW  148   1.743   1.146   0.300  0.0241 -0.1809 -0.1742
   50SOL    HW1  149   1.755   1.043   0.280  0.4422  1.4125 -0.5159
   50SOL    HW2  150   1.675   1.162   0.377  0.1852 -0.0667 -0.9102
   51SOL     OW  151   3.016   1.762   0.268  0.3309  0.8010  0.5578
   51SOL    HW1  152   2.938   1.713   0.217  1.4066 -0.5819 -0.0045
   51SOL    HW2  153   3.070   1.696   0.325  1.4628  0.2996 -2.6401
   52SOL     OW  154   0.773   2.146   0.625 -0.3687  0.2041 -0.7921
   52SOL    HW1  155   0.680   2.137   0.577 -1.0244 -1.4977  0.1747
   52SOL    HW2  156   0.782   2.091   0.709  1.2737 -1.6082 -1.3845
   53SOL     OW  157   0.230   0.414   1.511  0.0117  0.0415  0.7562
   53SOL    HW1  158   0.300   0.487   1.524 -1.3518 -0.5894  0.3731
   53SOL    HW2  159   0.185   0.425   1.418  1.2869  0.7542 -0.0871
   54SOL     OW  160   1.727   0.471   3.093 -0.3480 -0.2877  0.3030
   54SOL    HW1  161   1.807   0.424   3.135  2.7711 -0.7418 -1.1667
   54SOL    HW2  162   1.643   0.473   3.155 -2.2396 -0.7452 -0.2128
   55SOL     OW  163   0.726   2.914   0.643  0.0831 -0.7794 -0.5708
   55SOL    HW1  164   0.668   3.000   0.627 -2.2199 -2.4373 -4.3661
   55SOL    HW2  165   0.823   2.912   0.611 -0.1243 -2.1254 -0.3475
   56SOL     OW  166   0.583   1.572   3.057 -0.0123 -0.0198 -0.2950
   56SOL    HW1  167   0.512   1.612   3.123 -0.5395  0.9877  2.5747
   56SOL    HW2  168   0.541   1.492   3.007 -0.2112 -0.4755 -0.6253
   57SOL     OW  169   1.729   2.503   2.372  0.3558 -0.6850 -0.5350
   57SOL    HW1  170   1.788   2.418   2.380 -1.1282  0.1477 -3.4596
   57SOL    HW2  171   1.646   2.506   2.439  0.7198  0.2203  1.6426
   58SOL     OW  172   0.664   0.232   1.104  0.0264  0.4651  0.2324
   58SOL    HW1  173   0.580   0.220   1.161  1.7581  0.8867 -0.3680
   58SOL    HW2  174   0.719   0.145   1.095 -0.7506 -0.9782  3.2227
   59SOL     OW  175   0.461   2.395   2.722  0.4496  0.7875  0.0133
   59SOL    HW1  176   0.441   2.297   2.689 -0.3615 -1.9184  0.4475
   59SOL    HW2  177   0.556   2.429   2.694 -2.6584 -1.2852  0.7224
   60SOL     OW  178   2.326   2.085   2.358  0.0745 -0.7661  0.3846
   60SOL    HW1  179   2.379   2.110   2.271  1.3648  1.7109  0.1254
   60SOL    HW2  180   2.364   2.139   2.441 -0.9458  1.7732  2.5092
   61SOL     OW  181   1.198   0.633   0.536  0.3191 -0.3531 -0.2494
   61SOL    HW1  182   1.111   0.655   0.587 -2.8684  2.0258 -0.4200
   61SOL    HW2  183   1.209   0.690   0.455 -3.1168  0.0659 -0.1892
   62SOL     OW  184   2.745   1.712   2.736  0.1926  0.0263 -0.2820
   62SOL    HW1  185   2.699   1.645   2.673  1.1443  1.6320  1.7005
   62SOL    HW2  186   2.835   1.674   2.778 -0.5754 -1.7966  1.1970
   63SOL     OW  187   0.494   0.926   0.205 -0.4701  0.3029  0.1234
   63SOL    HW1  188   0.541   0.967   0.121 -0.2827 -0.8442  0.1761
   63SOL    HW2  189   0.534   0.962   0.292  0.5226  2.4482 -1.3081
   64SOL     OW  190   3.014   0.587   2.294 -0.2629 -0.3207  0.0221
   64SOL    HW1  191   2.959   0.645   2.358  0.9140  1.8753  0.2830
   64SOL    HW2  192   3.038   0.626   2.205  0.3376  0.2168 -1.1496
   65SOL     OW  193   0.237   1.442   0.729  0.5035 -0.1241 -0.4054
   65SOL    HW1  194   0.234   1.519   0.802 -0.2945  2.0880  0.8246
   65SOL    HW2  195   0.305   1.474   0.655  2.2887 -0.5129  3.9250
   66SOL     OW  196   2.564   0.340   0.536  0.9533 -0.5797  0.4451
   66SOL    HW1  197   2.662   0.338   0.547 -0.6485  0.5838  0.1968
   66SOL    HW2  198   2.515   0.278   0.608  1.3482  0.5217  1.8140
   67SOL     OW  199   0.627   2.496   1.463 -0.0857  0.5359 -0.5513
   67SOL    HW1  200   0.714   2.447   1.493  2.2688  0.5229  2.4758
   67SOL    HW2  201   0.551   2.429   1.439  0.8027  1.4581  2.0624
   68SOL     OW  202   0.956   1.016   2.449 -0.7030  0.1927  0.3055
   68SOL    HW1  203   1.002   0.956   2.373  0.1373  1.6877  0.3680
   68SOL    HW2  204   0.890   1.083   2.401 -1.1851  1.3083  0.3705
   69SOL     OW  205   0.807   2.747   2.310 -0.0358  0.0700  0.0701
   69SOL    HW1  206   0.842   2.676   2.244 -1.6074 -0.5557 -0.9290
   69SOL    HW2  207   0.705   2.762   2.304 -0.7550 -2.0037 -0.4082
   70SOL     OW  208   0.430   0.135   2.494  0.1165  0.1972  0.1252
   70SOL    HW1  209   0.346   0.107   2.544  4.1128  1.6780  2.1751
   70SOL    HW2  210   0.507   0.068   2.488 -1.0731  1.4055  0.6725
   71SOL     OW  211   1.041   1.759   0.315 -0.2635  0.3827  0.1404
   71SOL    HW1  212   1.016   1.679   0.373 -0.1762  2.7478  0.3474
   71SOL    HW2  213   0.959   1.788   0.252 -2.6922 -2.8249 -1.7053
   72SOL     OW  214   1.837   0.228   2.167  0.3917  0.3068 -0.0407
   72SOL    HW1  215   1.903   0.307   2.147  1.2456  1.6307 -0.8622
   72SOL    HW2  216   1.886   0.138   2.174  0.4030 -3.5189 -1.4681
   73SOL     OW  217   2.775   2.178   2.467  0.3293  0.2165  0.6534
   73SOL    HW1  218   2.749   2.081   2.441  1.0065  0.2510  0.8947
   73SOL    HW2  219   2.823   2.192   2.560 -0.4910 -1.2898  2.1795
   74SOL     OW  220   2.713   2.875   2.156 -0.5885  0.0145 -0.2430
   74SOL    HW1  221   2.664   2.875   2.248  2.2625 -1.9950 -2.5341
   74SOL    HW2  222   2.793   2.942   2.144  0.0024  0.7893  0.1522
   75SOL     OW  223   0.974   0.842   1.117 -0.5865 -0.2092  0.2431
   75SOL    HW1  224   0.882   0.881   1.098 -1.1305 -1.3293 -0.9273
   75SOL    HW2  225   1.008   0.865   1.212  1.4630 -3.2624 -0.1927
   76SOL     OW  226   1.869   1.269   2.551  0.0208  0.0344  0.4884
   76SOL    HW1  227   1.771   1.270   2.572  0.3443  0.0545  1.0386
   76SOL    HW2  228   1.918   1.353   2.580 -1.8596  0.0629 -0.1827
   77SOL     OW  229   2.881   0.927   1.051  0.1114 -0.0893  0.0108
   77SOL    HW1  230   2.850   0.826   1.028 -1.1145 -2.5322  1.1085
   77SOL    HW2  231   2.980   0.942   1.080  0.2119  3.0100 -0.7854
   78SOL     OW  232   2.002   1.341   1.303 -0.2110  0.0367  0.4175
   78SOL    HW1  233   2.101   1.358   1.309 -0.8470 -1.0866 -1.3842
   78SOL    HW2  234   1.949   1.425   1.277  2.1081 -0.5087  2.4683
   79SOL     OW  235   0.686   1.427   0.843  0.3798 -0.3558  0.3771
   79SOL    HW1  236   0.607   1.391   0.890 -0.5505  0.5308 -1.4678
   79SOL    HW2  237   0.755   1.356   0.818 -0.0973 -0.2061 -1.9460
   80SOL     OW  238   0.559   0.480   1.543 -0.0314  0.2147 -0.4294
   80SOL    HW1  239   0.609   0.529   1.472 -0.5062  0.2585  1.6475
   80SOL    HW2  240   0.600   0.387   1.553 -1.2719  1.2296  0.6305
   81SOL     OW  241   1.016   1.238   2.569  0.7907 -0.6813 -0.3473
   81SOL    HW1  242   0.996   1.143   2.535 -0.4861 -0.3715 -0.7279
   81SOL    HW2  243   0.977   1.313   2.511 -1.5649 -1.0544 -1.4771
   82SOL     OW  244   0.933   2.875   1.520 -0.2299  0.1306 -0.1267
   82SOL    HW1  245   0.948   2.774   1.509  1.7065  2.0071 -0.4522
   82SOL    HW2  246   1.017   2.924   1.495 -2.6905  0.7518  1.5511
   83SOL     OW  247   2.564   2.374   0.886  0.1892 -0.5265 -0.2107
   83SOL    HW1  248   2.507   2.346   0.807  2.0846  1.5419  0.9304
   83SOL    HW2  249   2.593   2.476   0.880  1.1705  3.1041  0.3217
   84SOL     OW  250   0.739   0.019   2.300  0.4989 -0.2695 -0.7273
   84SOL    HW1  251   0.692  -0.037   2.377  0.3821  1.1466  0.4431
   84SOL    HW2  252   0.786  -0.040   2.230  1.1526 -0.9470 -0.9922
   85SOL     OW  253   0.288   1.686   1.408  0.1804  0.5055 -0.7931
   85SOL    HW1  254   0.247   1.779   1.440 -1.1433  2.7051  2.5686
   85SOL    HW2  255   0.344   1.646   1.484 -0.8874 -0.9012 -0.4929
   86SOL     OW  256   0.385   1.031   1.563  0.2473 -0.1067 -0.7068
   86SOL    HW1  257   0.373   0.986   1.470  1.4279  0.5723  0.8799
   86SOL    HW2  258   0.439   0.976   1.627 -0.4178  4.2631 -0.8172
   87SOL     OW  259   1.598   0.660   0.336 -0.1719  0.5187 -0.4258
   87SOL    HW1  260   1.696   0.693   0.323 -3.6071 -1.2863  2.4178
   87SOL    HW2  261   1.547   0.631   0.248 -0.1694 -0.4798  1.9247
   88SOL     OW  262   1.609   1.387   0.270  0.1295 -0.3327  0.2450
   88SOL    HW1  263   1.680   1.309   0.252  1.3000 -0.4571 -0.1085
   88SOL    HW2  264   1.512   1.351   0.257  1.2044 -1.4466  1.3844
   89SOL     OW  265   0.030   0.330   0.584  0.4888 -0.2410  0.1124
   89SOL    HW1  266   0.106   0.255   0.598  0.0031 -1.5476  0.2542
   89SOL    HW2  267  -0.052   0.287   0.541  2.4467  1.4656  3.3827
   90SOL     OW  268   0.780   1.557   0.152 -0.1519 -0.8951 -0.2539
   90SOL    HW1  269   0.841   1.473   0.169  1.5595 -0.7337  0.0168
   90SOL    HW2  270   0.718   1.542   0.072  0.1756 -1.7327  0.6087
   91SOL     OW  271   1.200   1.506   1.783  0.5032 -0.1901 -0.4399
   91SOL    HW1  272   1.218   1.585   1.853 -1.5079  2.0180  1.1508
   91SOL    HW2  273   1.167   1.415   1.818 -2.4090 -0.2803  0.0796
   92SOL     OW  274   0.014   0.994   1.210 -0.1040  0.0413  0.1091
   92SOL    HW1  275   0.074   1.078   1.185 -0.8635  1.0017  0.2208
   92SOL    HW2  276   0.027   0.974   1.312 -1.8523  0.4272  0.0303
   93SOL     OW  277   3.071   2.665   0.066  0.7211 -0.7592  0.7281
   93SOL    HW1  278   3.078   2.689  -0.033 -0.8385 -1.0935  2.7436
   93SOL    HW2  279   3.092   2.566   0.086  3.1498  2.6253  0.9248
   94SOL     OW  280   1.495   1.317   1.684 -0.0592 -0.6833 -0.3712
   94SOL    HW1  281   1.583   1.265   1.702 -0.6238 -0.5097 -2.4260
   94SOL    HW2  282   1.498   1.420   1.698 -0.8275  1.1011 -1.0034
   95SOL     OW  283   1.376   2.458   2.919 -0.3819  0.3228 -0.2716
   95SOL    HW1  284   1.300   2.463   2.987 -4.8838 -0.8460 -1.5187
   95SOL    HW2  285   1.389   2.364   2.871  0.7042  1.5112  0.6177
   96SOL     OW  286   0.574   2.146   1.285 -0.2020  0.7164  0.1287
   96SOL    HW1  287   0.499   2.129   1.215 -0.5629 -0.6419 -0.0056
   96SOL    HW2  288   0.582   2.067   1.353 -0.5489 -0.6674  1.6392
   97SOL     OW  289   0.271   1.644   2.438 -0.2176 -0.2347  0.1526
   97SOL    HW1  290   0.210   1.705   2.384  3.1826  0.7429  0.2366
   97SOL    HW2  291   0.242   1.647   2.536  0.9114  1.2775  2.5889
   98SOL     OW  292   2.199   1.664   1.228 -0.5173  0.1151 -0.7314
   98SOL    HW1  293   2.119   1.677   1.160 -0.3032  1.2188  1.2159
   98SOL    HW2  294   2.281   1.630   1.177 -1.2953  0.5465  2.6314
   99SOL     OW  295   2.594   2.109   1.272  0.3556 -0.6406 -0.3910
   99SOL    HW1  296   2.693   2.134   1.300  4.6161 -0.6497 -1.1299
   99SOL    HW2  297   2.565   2.012   1.293 -1.1016  1.5062 -0.3393
  100SOL     OW  298   2.302   0.390   2.114  0.1761 -0.5889 -0.0930
  100SOL    HW1  299   2.251   0.362   2.199  1.1786 -0.1223  0.7282
  100SOL    HW2  300   2.402   0.416   2.130 -1.3627  1.6566 -0.2640
  101SOL     OW  301   0.390   1.527   0.532 -0.4447 -0.3151  0.1398
  101SOL    HW1  302   0.425   1.615   0.579  0.1209 -1.4547 -4.5946
  101SOL    HW2  303   0.450   1.503   0.454 -0.1144 -0.7867  2.8411
  102SOL     OW  304   2.274   1.079   0.830 -0.8260 -0.2804 -0.5038
  102SOL    HW1  305   2.219   0.997   0.795  0.4892  1.6785 -2.2492
  102SOL    HW2  306   2.363   1.098   0.775  2.3776  1.7650 -1.8442
  103SOL     OW  307   2.263   0.045   0.351  0.0599 -0.4392 -0.0846
  103SOL    HW1  308   2.295   0.090   0.262 -3.9623  2.1283 -0.6598
  103SOL    HW2  309   2.334   0.035   0.429  2.0583  0.0927 -0.0981
  104SOL     OW  310   0.014   1.776   2.159 -0.9808  0.1139  0.8606
  104SOL    HW1  311   0.058   1.775   2.062  2.1539  1.5719 -0.5161
  104SOL    HW2  312  -0.086   1.800   2.146 -0.3392 -1.5124  1.6156
  105SOL     OW  313   1.399   2.111   0.779  0.1826  0.1521 -0.4318
  105SOL    HW1  314   1.377   2.149   0.683 -0.0742  1.3483 -1.3031
  105SOL    HW2  315   1.379   2.012   0.796 -0.9376  0.7308  1.0950
  106SOL     OW  316   2.154   0.398   1.433 -0.0851  0.3313 -0.6177
  106SOL    HW1  317   2.102   0.308   1.426 -1.8706  0.0085  0.1953
  106SOL    HW2  318   2.143   0.430   1.532 -3.0883 -3.7821  0.5812
  107SOL     OW  319   1.953   2.916   1.153 -0.1989 -0.4308 -0.0568
  107SOL    HW1  320   1.888   2.963   1.222  0.7644 -0.6725  0.3948
  107SOL    HW2  321   1.906   2.852   1.089  1.5207 -0.6940  2.9170
  108SOL     OW  322   0.826   2.835   1.201 -0.2488 -0.3371  0.0527
  108SOL    HW1  323   0.839   2.732   1.205  0.5129 -1.3134 -0.4819
  108SOL    HW2  324   0.905   2.885   1.248  0.8719  0.1445 -1.5440
  109SOL     OW  325   2.137   0.210   0.706 -0.2993  0.5736  0.1151
  109SOL    HW1  326   2.078   0.134   0.663 -0.3532  0.9205 -1.5907
  109SOL    HW2  327   2.120   0.228   0.807 -3.0610  0.9599 -0.7473
  110SOL     OW  328   0.480   2.760   2.768  0.1946 -0.3100  0.6283
  110SOL    HW1  329   0.464   2.779   2.671  1.3280  1.1437  1.9687
  110SOL    HW2  330   0.568   2.701   2.777  0.7850  0.5972 -1.7564
  111SOL     OW  331   1.279   0.502   2.281  0.1861  0.5461  0.1313
  111SOL    HW1  332   1.182   0.523   2.314 -1.4533  0.0386 -2.3165
  111SOL    HW2  333   1.324   0.437   2.342 -1.2664  0.6679 -4.1548
  112SOL     OW  334   1.752   0.371   1.490 -1.1861  0.6645  0.4284
  112SOL    HW1  335   1.736   0.414   1.396 -1.9546 -0.3366 -1.9454
  112SOL    HW2  336   1.669   0.366   1.551  1.4674  2.2006 -2.3686
  113SOL     OW  337   2.380   1.728   1.796 -0.2891  0.6330  0.4477
  113SOL    HW1  338   2.383   1.630   1.766  0.6955 -0.5845  0.0014
  113SOL    HW2  339   2.373   1.730   1.898  1.2384  0.2980  0.4358
  114SOL     OW  340   0.336   0.456   1.185  0.1417 -0.1018 -1.1906
  114SOL    HW1  341   0.401   0.534   1.151 -1.0314  2.4317  0.7299
  114SOL    HW2  342   0.240   0.464   1.139  2.2323 -1.2735 -1.1657
  115SOL     OW  343   2.676   1.555   1.206 -0.1397  0.0710  0.5049
  115SOL    HW1  344   2.683   1.463   1.249 -1.0821 -1.8997 -0.9095
  115SOL    HW2  345   2.757   1.582   1.148 -0.1318  0.4283  1.9931
  116SOL     OW  346   1.913   0.921   0.760  0.0616  0.2319 -0.0034
  116SOL    HW1  347   1.824   0.868   0.730 -0.1492  0.8738 -0.0618
  116SOL    HW2  348   1.904   1.028   0.766  1.8395 -0.9216  2.8502
  117SOL     OW  349   1.134   0.357   0.586 -0.0579  0.5126 -0.2211
  117SOL    HW1  350   1.134   0.455   0.593  0.2463  1.8108 -1.2706
  117SOL    HW2  351   1.144   0.315   0.493  0.7436 -1.3796  1.2267
  118SOL     OW  352   1.133   1.225   1.057  0.0470 -0.0870 -0.3230
  118SOL    HW1  353   1.056   1.199   1.119  1.7066  0.1247 -0.4495
  118SOL    HW2  354   1.196   1.305   1.093 -0.7022  0.8794 -1.4927
  119SOL     OW  355   1.850   1.568   2.184 -0.3711  0.5774 -0.4326
  119SOL    HW1  356   1.839   1.624   2.100  0.1245 -0.1395 -0.0448
  119SOL    HW2  357   1.947   1.584   2.222  0.4090  2.4612  0.3777
  120SOL     OW  358   2.898   2.794   0.250  0.3730  0.2214  0.0347
  120SOL    HW1  359   2.954   2.742   0.182  1.3998  1.7816  1.4159
  120SOL    HW2  360   2.797   2.773   0.232 -1.8673 -0.4844  2.0336
  121SOL     OW  361   1.986   0.752   2.280  0.3362  0.4839  0.6218
  121SOL    HW1  362   2.053   0.820   2.237  2.7710 -1.4212  2.3546
  121SOL    HW2  363   2.010   0.657   2.254  1.4984  0.3992  0.6801
  122SOL     OW  364   2.621   2.478   1.319  0.6503 -0.1899  0.2255
  122SOL    HW1  365   2.703   2.442   1.270 -0.0428  0.7038 -0.0776
  122SOL    HW2  366   2.610   2.442   1.417 -1.7539  1.7605 -2.4381
  123SOL     OW  367   1.694   0.135   1.773 -0.0124 -0.2391  0.3121
  123SOL    HW1  368   1.694   0.076   1.693 -1.6727  0.4624  2.0596
  123SOL    HW2  369   1.777   0.195   1.790 -0.3084  2.4471  0.0027
  124SOL     OW  370   3.066   0.429   1.104  0.0812 -0.4912  0.3180
  124SOL    HW1  371   3.024   0.509   1.149 -0.2683 -2.0324  0.9017
  124SOL    HW2  372   3.085   0.446   1.003  1.0485 -0.9886 -0.3685
  125SOL     OW  373   0.864   1.939   0.808 -0.5250  0.6387 -0.7046
  125SOL    HW1  374   0.955   1.883   0.800  1.8195 -2.8077 -1.8968
  125SOL    HW2  375   0.868   2.029   0.854  0.9617 -3.2303  0.7548
  126SOL     OW  376   1.879   2.302   2.498 -0.2475  0.4828  0.5475
  126SOL    HW1  377   1.914   2.265   2.404 -1.6892  0.3799 -0.4244
  126SOL    HW2  378   1.870   2.229   2.573  2.2729 -1.2788 -1.2465
  127SOL     OW  379   0.878   0.989   0.211  0.3305 -0.1559 -0.1245
  127SOL    HW1  380   0.945   1.020   0.287 -1.4174 -0.5289 -0.2709
  127SOL    HW2  381   0.878   0.887   0.201 -0.6545  0.3099 -1.1135
  128SOL     OW  382   0.963   0.232   1.451  0.0858 -0.3565 -0.3333
  128SOL    HW1  383   0.938   0.293   1.375  1.7158 -0.5807 -0.0535
  128SOL    HW2  384   0.906   0.151   1.436  0.3823  1.8115  3.3675
  129SOL     OW  385   1.866   0.733   1.870  0.3509  0.3542 -0.1445
  129SOL    HW1  386   1.859   0.738   1.769  0.9142  0.4846  3.6682
  129SOL    HW2  387   1.900   0.828   1.906  0.5406  1.0895 -2.6143
  130SOL     OW  388   1.331   2.294   0.964 -0.4115  0.0816 -0.0642
  130SOL    HW1  389   1.346   2.218   0.891  1.0057  0.0860 -0.4090
  130SOL    HW2  390   1.412   2.353   0.976 -1.3233 -0.6749  1.3324
  131SOL     OW  391   3.091   1.404   1.373 -0.3932 -0.3644  0.4305
  131SOL    HW1  392   3.004   1.356   1.411 -0.6990 -0.2200  0.4289
  131SOL    HW2  393   3.173   1.348   1.354  1.1625 -0.9303 -0.2985
  132SOL     OW  394   2.036   2.370   0.527 -0.3072  0.7387  0.0477
  132SOL    HW1  395   1.945   2.417   0.543  1.4117 -0.6517 -1.5608
  132SOL    HW2  396   2.053   2.294   0.597 -0.2258  0.1809  1.5478
  133SOL     OW  397   1.721   2.469   2.732 -0.8838  0.2625 -0.2807
  133SOL    HW1  398   1.644   2.472   2.663 -0.4096 -0.3018 -0.6181
  133SOL    HW2  399   1.808   2.510   2.692  1.3967  3.7054 -0.7276
  134SOL     OW  400   2.698   2.390   1.583 -0.1449 -0.1892 -0.0223
  134SOL    HW1  401   2.658   2.351   1.668  1.9645  0.8190 -0.8701
  134SOL    HW2  402   2.731   2.486   1.601  0.0972 -2.3599  2.3697
  135SOL     OW  403   0.753   1.432   2.658  0.6206  0.4613  0.4047
  135SOL    HW1  404   0.723   1.342   2.694  1.6037  2.7422  3.8293
  135SOL    HW2  405   0.770   1.436   2.555 -1.1448  0.5235  2.2855
  136SOL     OW  406   1.196   2.041   0.389  0.2726  0.2660  0.4554
  136SOL    HW1  407   1.136   2.113   0.436 -2.5271 -1.3512  0.6992
  136SOL    HW2  408   1.145   1.952   0.368 -1.0372 -1.7205 -2.8840
  137SOL     OW  409   0.404   1.214   2.262 -0.0731 -0.5202  0.6549
  137SOL    HW1  410   0.307   1.206   2.308 -0.7806 -1.7483  0.4003
  137SOL    HW2  411   0.447   1.123   2.238  0.6201  2.8808  2.5289
  138SOL     OW  412   2.417   1.534   0.268 -0.5802  0.0806  0.0004
  138SOL    HW1  413   2.359   1.519   0.182  0.5147  1.4894  0.1581
  138SOL    HW2  414   2.439   1.448   0.321  0.9945 -0.2418  0.5472
  139SOL     OW  415   1.842   2.677   1.578  0.7682 -0.2526 -0.0169
  139SOL    HW1  416   1.742   2.693   1.576  1.8092 -0.3492 -2.2788
  139SOL    HW2  417   1.870   2.603   1.508 -1.6240  0.7960 -1.2868
  140SOL     OW  418   2.991   2.967   2.589 -0.2065 -0.7105 -0.1514
  140SOL    HW1  419   3.056   2.884   2.584  0.6985  0.6179 -1.3017
  140SOL    HW2  420   3.034   3.062   2.565 -0.6779  1.2802 -1.4198
  141SOL     OW  421   1.304   1.609   1.549  0.2013  0.1264  0.1354
  141SOL    HW1  422   1.248   1.695   1.554 -1.5298 -1.0892  0.1493
  141SOL    HW2  423   1.281   1.548   1.633 -1.9878 -0.2924  0.0848
  142SOL     OW  424   1.505   0.669   2.210 -0.1573  0.1364 -0.0007
  142SOL    HW1  425   1.494   0.703   2.113  1.1418 -3.2165  1.1604
  142SOL    HW2  426   1.424   0.620   2.247  1.4092  0.2679  1.5493
  143SOL     OW  427   2.753   0.804   0.543 -0.6846 -0.2314 -0.3506
  143SOL    HW1  428   2.802   0.855   0.467 -2.0188 -2.4364  3.6693
  143SOL    HW2  429   2.788   0.835   0.634  2.0342 -1.5621 -0.6520
  144SOL     OW  430   2.918   1.199   1.477 -0.0517  0.8397 -0.5381
  144SOL    HW1  431   2.874   1.178   1.570 -1.7026  1.5662 -0.2209
  144SOL    HW2  432   3.005   1.138   1.472  1.3455  1.1296  1.0769
  145SOL     OW  433   0.863   1.838   0.117  0.1477  0.3414  0.2215
  145SOL    HW1  434   0.919   1.856   0.035 -1.4814  1.1427  2.3979
  145SOL    HW2  435   0.803   1.755   0.102  2.4384 -1.4491 -0.5058
  146SOL     OW  436   2.468   0.666   1.517  0.1013 -0.6819  0.1420
  146SOL    HW1  437   2.447   0.569   1.483 -1.7537  0.6707 -1.6433
  146SOL    HW2  438   2.413   0.737   1.466  4.8505  1.4285  0.9505
  147SOL     OW  439   1.114   2.502   0.594  0.4387 -0.1017  0.0431
  147SOL    HW1  440   1.059   2.553   0.519 -0.1491  1.4087  1.5343
  147SOL    HW2  441   1.212   2.479   0.560  1.2582  0.4771 -0.1514
  148SOL     OW  442   1.600   1.475   3.085 -0.9148 -0.2512  0.1049
  148SOL    HW1  443   1.622   1.384   3.044  1.5169  1.3521  1.0636
  148SOL    HW2  444   1.538   1.472   3.167  2.9633  0.0302  2.4591
  149SOL     OW  445   0.671   1.494   1.975 -0.3360 -0.5101 -0.2174
  149SOL    HW1  446   0.577   1.472   2.009 -0.6678 -0.7010  0.8847
  149SOL    HW2  447   0.683   1.455   1.881  1.0992  1.8327 -0.1502
  150SOL     OW  448   3.046   1.208   0.968  0.5802  0.5738  0.0823
  150SOL    HW1  449   3.131   1.218   1.024 -0.5235 -0.8440 -1.6227
  150SOL    HW2  450   3.007   1.118   0.977  0.4313  0.9602 -1.6608
  151SOL     OW  451   0.249   0.856   2.052 -0.8908  0.5073 -0.3037
  151SOL    HW1  452   0.276   0.930   1.988 -3.5217 -1.0522  0.8650
  151SOL    HW2  453   0.283   0.763   2.019 -2.8272 -0.4493 -0.1742
  152SOL     OW  454   1.456   1.843   1.085 -0.2105  0.3395 -0.3123
  152SOL    HW1  455   1.508   1.929   1.098 -0.2099 -0.8960 -1.2017
  152SOL    HW2  456   1.357   1.860   1.059  2.9011 -2.2943  0.9230
  153SOL     OW  457   0.139   1.534   0.224 -0.1580 -0.2623  0.3530
  153SOL    HW1  458   0.162   1.431   0.225 -0.1098 -0.5371  0.6145
  153SOL    HW2  459   0.126   1.569   0.322 -1.1722  0.0573  2.5171
  154SOL     OW  460   2.296   1.768   2.753  0.6215 -0.1613 -0.3643
  154SOL    HW1  461   2.341   1.684   2.787 -0.5497  2.0009 -1.8119
  154SOL    HW2  462   2.365   1.825   2.701  2.3340  0.0630 -1.0087
  155SOL     OW  463   2.410   1.280   0.390 -0.3698  0.0346  0.8535
  155SOL    HW1  464   2.505   1.246   0.364 -1.5913  2.4410 -1.2093
  155SOL    HW2  465   2.344   1.206   0.418 -1.3962 -1.6636 -0.7954
  156SOL     OW  466   2.422   0.821   0.697  1.7023 -0.3379 -0.0113
  156SOL    HW1  467   2.322   0.832   0.727 -0.0900 -0.0016  0.8533
  156SOL    HW2  468   2.464   0.895   0.639  2.7973 -3.1688  1.1248
  157SOL     OW  469   1.221   3.016   3.043  0.2898  0.3346  0.6355
  157SOL    HW1  470   1.304   2.980   2.990 -0.6024  1.8989  2.0813
  157SOL    HW2  471   1.235   3.115   3.076  3.8345  0.5680  0.4494
  158SOL     OW  472   1.069   1.891   1.844 -0.2541  1.2027  0.0647
  158SOL    HW1  473   1.090   1.990   1.815 -0.0726  1.6857  0.4872
  158SOL    HW2  474   0.986   1.882   1.904 -0.6474 -0.6189 -0.0807
  159SOL     OW  475   0.835   0.431   1.256 -0.8471 -0.0422  0.5753
  159SOL    HW1  476   0.769   0.506   1.285 -0.1675 -1.4802  2.5976
  159SOL    HW2  477   0.790   0.359   1.199 -0.9444 -0.4378 -3.9932
  160SOL     OW  478   1.417   2.444   1.450 -0.3770 -0.2775  0.0880
  160SOL    HW1  479   1.365   2.364   1.495 -0.4500 -0.7019 -1.5556
  160SOL    HW2  480   1.495   2.402   1.396  0.2687  1.9759 -0.6560
  161SOL     OW  481   3.053   2.658   0.433  0.0360 -0.0760  0.0782
  161SOL    HW1  482   3.014   2.568   0.447 -0.3895  0.1449 -1.6470
  161SOL    HW2  483   3.009   2.717   0.364  1.8479 -1.3583  3.1914
  162SOL     OW  484   2.538   1.876   0.443  0.0378  0.4371 -0.2869
  162SOL    HW1  485   2.559   1.886   0.339  1.6643  0.8844 -1.6807
  162SOL    HW2  486   2.490   1.786   0.479 -2.1545 -0.7218  1.3105
  163SOL     OW  487   1.949   2.704   0.770  0.2441  0.1223 -0.5494
  163SOL    HW1  488   1.960   2.714   0.667  1.3913 -0.8965  1.2119
  163SOL    HW2  489   1.994   2.618   0.807  0.8304  3.0717 -1.8061
  164SOL     OW  490   0.001   0.159   1.215 -0.1159 -0.0238  0.0346
  164SOL    HW1  491  -0.002   0.256   1.184  0.8487 -2.4275 -1.1220
  164SOL    HW2  492   0.054   0.132   1.299 -0.9875 -3.4485 -1.0420
  165SOL     OW  493   1.119   1.431   0.664 -0.8017  0.8900 -0.1607
  165SOL    HW1  494   1.119   1.480   0.757  2.0359  0.1959 -1.1814
  165SOL    HW2  495   1.061   1.482   0.596 -1.2667 -1.5615  0.3511
  166SOL     OW  496   1.522   1.008   1.810 -0.0625 -0.1326  0.0340
  166SOL    HW1  497   1.439   1.063   1.834  2.5048  1.8513 -1.2741
  166SOL    HW2  498   1.604   1.070   1.799 -0.6075 -1.9611 -0.1848
  167SOL     OW  499   0.676   1.987   1.512 -0.2691  0.3023  0.6553
  167SOL    HW1  500   0.735   2.037   1.579  1.2543  1.1116 -0.3896
  167SOL    HW2  501   0.672   1.887   1.538  0.6331 -0.4599 -1.6743
  168SOL     OW  502   1.595   2.337   0.155  0.4612 -0.0405  0.1195
  168SOL    HW1  503   1.631   2.345   0.061 -0.9287  1.1302  0.0612
  168SOL    HW2  504   1.664   2.303   0.225 -0.1215  4.1125  1.8182
  169SOL     OW  505   0.045   2.549   2.206 -0.6024  0.5121  0.1867
  169SOL    HW1  506   0.051   2.514   2.105  0.2025 -3.1212  1.7709
  169SOL    HW2  507   0.110   2.499   2.267 -1.0894  0.1669 -0.3721
  170SOL     OW  508   1.176   0.155   2.037 -0.1839 -0.2152 -0.0310
  170SOL    HW1  509   1.266   0.180   2.085  0.2835  1.0319 -0.0628
  170SOL    HW2  510   1.189   0.139   1.938 -1.0161  0.6315  2.3488
  171SOL     OW  511   0.193   0.847   2.396 -0.1980 -0.2867  0.7301
  171SOL    HW1  512   0.089   0.833   2.406  0.9497  0.0663  1.8600
  171SOL    HW2  513   0.217   0.847   2.298  1.4470 -0.0816  0.5420
  172SOL     OW  514   0.975   1.041   2.872  0.4343 -0.2415  0.1948
  172SOL    HW1  515   0.941   1.090   2.960 -0.5877 -3.9338  1.0879
  172SOL    HW2  516   0.921   1.063   2.784 -1.7484  1.3579  0.1574
  173SOL     OW  517   0.463   2.536   0.079 -1.0383  0.9724 -0.5332
  173SOL    HW1  518   0.505   2.469   0.015  0.0844 -0.3321  1.9805
  173SOL    HW2  519   0.413   2.504   0.160  0.9958 -0.6787 -1.0262
  174SOL     OW  520   1.507   2.882   1.067 -0.0212  0.4172 -0.0408
  174SOL    HW1  521   1.562   2.925   0.987 -1.5630 -0.8812 -3.9026
  174SOL    HW2  522   1.455   2.801   1.034 -0.9193  0.7623  2.5860
  175SOL     OW  523   0.404   3.065   1.720  0.1950 -0.5497 -0.2309
  175SOL    HW1  524   0.483   3.073   1.784  1.3951  2.6672  2.0641
  175SOL    HW2  525   0.370   3.159   1.690 -0.4191  1.7967 -0.4402
  176SOL     OW  526   2.655   0.404   0.007  0.4301 -0.2331 -0.8811
  176SOL    HW1  527   2.661   0.491   0.063  0.4053 -0.6604 -0.5544
  176SOL    HW2  528   2.680   0.326   0.066 -1.8717 -0.0204  0.2080
  177SOL     OW  529   0.381   0.300   0.922 -0.4900 -0.1047 -0.7503
  177SOL    HW1  530   0.335   0.206   0.916 -0.3895 -2.9580  0.4361
  177SOL    HW2  531   0.395   0.330   1.019  3.2801 -4.0233  2.4901
  178SOL     OW  532   0.056   2.753   2.581 -0.0348  0.3557  0.1337
  178SOL    HW1  533  -0.002   2.667   2.572 -1.9112 -0.4076  0.7847
  178SOL    HW2  534   0.118   2.738   2.662  0.4135 -1.0656 -1.4769
  179SOL     OW  535   2.960   1.552   1.143 -0.3795  0.4632  0.4074
  179SOL    HW1  536   3.002   1.635   1.114  2.3914 -2.7748  1.1417
  179SOL    HW2  537   3.027   1.494   1.195  0.1673 -1.1788 -0.4201
  180SOL     OW  538   0.213   1.376   1.773  0.6098 -0.0098 -0.4680
  180SOL    HW1  539   0.295   1.326   1.817 -1.9465  0.8204  0.2113
  180SOL    HW2  540   0.160   1.425   1.844  1.4680  0.7690 -2.8646
  181SOL     OW  541   2.950   1.878   2.529  0.1724 -0.6185 -0.4551
  181SOL    HW1  542   2.975   1.957   2.471  0.5652  0.3798  0.2070
  181SOL    HW2  543   2.850   1.854   2.512 -2.0953 -3.2034  1.0612
  182SOL     OW  544   2.268   1.356   1.234 -0.0888  0.7108 -1.1304
  182SOL    HW1  545   2.234   1.280   1.173  3.2218 -2.3930  1.9688
  182SOL    HW2  546   2.323   1.433   1.187 -1.9985  1.4484  0.5937
  183SOL     OW  547   1.417   2.286   2.436  0.1270  0.2565 -0.5411
  183SOL    HW1  548   1.341   2.227   2.477  0.7192 -2.8745 -1.9511
  183SOL    HW2  549   1.499   2.228   2.412  2.6366  2.5353  0.5196
  184SOL     OW  550   2.167   0.821   0.759  0.0504  0.3715  0.3118
  184SOL    HW1  551   2.065   0.855   0.759 -1.5354  2.1948  2.2957
  184SOL    HW2  552   2.174   0.716   0.747  0.6715 -3.6498 -0.6080
  185SOL     OW  553   1.580   2.780   2.002 -0.2038  0.0157 -0.5233
  185SOL    HW1  554   1.519   2.863   1.997 -0.2438 -0.2003  0.2223
  185SOL    HW2  555   1.618   2.769   2.097 -2.2112 -1.0195  0.9888
  186SOL     OW  556   0.106   2.191   1.712  0.3609  0.0570  0.6461
  186SOL    HW1  557   0.065   2.228   1.801 -0.9173  2.6347  0.0104
  186SOL    HW2  558   0.184   2.118   1.735  1.0531 -1.2949  2.0214
  187SOL     OW  559   1.373   0.654   1.651  0.3541  0.3667  0.0310
  187SOL    HW1  560   1.450   0.705   1.606  0.6213 -2.5653  1.3764
  187SOL    HW2  561   1.404   0.564   1.703 -0.0552  1.5716  0.3188
  188SOL     OW  562   2.732   2.700   1.481 -0.6648 -0.2766  0.3789
  188SOL    HW1  563   2.702   2.794   1.499  1.4816 -1.0640  0.0052
  188SOL    HW2  564   2.711   2.666   1.384  2.6318  2.6979  0.1641
  189SOL     OW  565   0.924   1.232   1.363  0.1145  0.3362 -0.4614
  189SOL    HW1  566   0.977   1.294   1.428 -1.2496  0.0886 -0.3880
  189SOL    HW2  567   0.872   1.291   1.294  1.8283 -0.0361 -1.7242
  190SOL     OW  568   1.453   1.873   1.526 -0.1596 -0.1517 -0.1491
  190SOL    HW1  569   1.472   1.774   1.503  0.2997  0.1413  3.2530
  190SOL    HW2  570   1.479   1.896   1.622  0.7496 -1.6389 -1.2652
  191SOL     OW  571   0.873   0.766   1.519  0.0053 -0.3816 -0.3456
  191SOL    HW1  572   0.916   0.703   1.588 -0.6314  1.3188 -0.1543
  191SOL    HW2  573   0.948   0.810   1.471 -1.4036 -0.4604 -0.0570
  192SOL     OW  574   1.829   2.439   1.110  0.8030 -0.2123  0.5844
  192SOL    HW1  575   1.743   2.442   1.052  1.3354 -0.7689 -1.5533
  192SOL    HW2  576   1.902   2.402   1.053 -3.6239 -0.1137  1.0514
  193SOL     OW  577   0.569   0.578   0.475 -0.0103 -0.0646 -0.1786
  193SOL    HW1  578   0.521   0.492   0.482  0.7727  0.0328  2.4693
  193SOL    HW2  579   0.598   0.603   0.377  2.0079 -1.4669 -0.7174
  194SOL     OW  580   0.358   0.873   1.323  0.0828  0.1396 -0.8741
  194SOL    HW1  581   0.292   0.846   1.252  1.8152 -0.3919  0.2000
  194SOL    HW2  582   0.455   0.867   1.281  2.7804  1.2780 -0.0986
  195SOL     OW  583   0.987   2.933   0.554  0.4271  0.2778  0.1020
  195SOL    HW1  584   0.974   2.840   0.513  0.4642  0.3271  0.8432
  195SOL    HW2  585   1.085   2.971   0.554  0.8291  0.6847 -2.0135
  196SOL     OW  586   0.285   1.396   1.319  0.0255 -0.5857 -0.4537
  196SOL    HW1  587   0.241   1.474   1.369  1.2232 -1.4985  2.3610
  196SOL    HW2  588   0.293   1.316   1.381 -0.0436 -0.3528 -0.4404
  197SOL     OW  589   0.834   2.021   0.316  0.4830 -0.4643 -0.1269
  197SOL    HW1  590   0.852   1.970   0.407 -0.9864 -0.5309  1.0244
  197SOL    HW2  591   0.843   1.965   0.231  1.0631 -0.7192  2.3988
  198SOL     OW  592   0.302   1.251   0.336 -0.4773 -0.1367  0.0637
  198SOL    HW1  593   0.206   1.212   0.321  1.0680  0.4983  1.7234
  198SOL    HW2  594   0.322   1.326   0.405  1.3126 -1.2605 -1.3260
  199SOL     OW  595   2.168   0.483   2.580 -0.0725  0.2034  0.1207
  199SOL    HW1  596   2.084   0.441   2.623  1.4583  0.2496 -1.0518
  199SOL    HW2  597   2.258   0.445   2.623 -0.3907 -0.8960  3.3755
  200SOL     OW  598   3.043   2.924   0.800 -0.5443 -0.2236 -0.7809
  200SOL    HW1  599   3.038   3.026   0.827  0.1168  2.0991  0.2692
  200SOL    HW2  600   3.006   2.909   0.701  1.5442 -1.1882 -2.9099
  201SOL     OW  601   0.932   0.676   0.506 -0.4319 -0.2263 -0.3286
  201SOL    HW1  602   0.906   0.760   0.561 -0.1231  0.3766 -0.0232
  201SOL    HW2  603   0.886   0.589   0.529 -2.3004  0.0516  0.3327
  202SOL     OW  604   0.445   1.232   1.848 -0.5798  0.1390  0.5700
  202SOL    HW1  605   0.544   1.201   1.822  2.0087 -1.9700  1.2179
  202SOL    HW2  606   0.448   1.294   1.932  3.0237  0.2681  2.4458
  203SOL     OW  607   0.671   0.244   1.594  0.6977 -1.0656  0.2302
  203SOL    HW1  608   0.713   0.204   1.509  2.1002 -4.0634 -0.4689
  203SOL    HW2  609   0.737   0.270   1.671  1.8382 -3.0832  1.5919
  204SOL     OW  610   2.080   1.795   2.942  0.0519  0.4699 -0.2249
  204SOL    HW1  611   2.078   1.693   2.977  0.1909 -3.5291 -1.8342
  204SOL    HW2  612   2.145   1.806   2.860  2.5815 -0.4546  1.1213
  205SOL     OW  613   1.831   1.906   3.081  0.1462  0.3122  0.3337
  205SOL    HW1  614   1.924   1.885   3.039  0.7785 -0.4026 -2.4609
  205SOL    HW2  615   1.777   1.983   3.042 -1.4262 -0.9501  0.0741
  206SOL     OW  616   2.393   2.736   0.265 -0.4851 -0.2216 -0.4839
  206SOL    HW1  617   2.362   2.656   0.323  2.5421  1.6060  2.9144
  206SOL    HW2  618   2.495   2.726   0.244  1.0334 -3.7334 -0.3532
  207SOL     OW  619   0.706   1.765   2.865 -0.3754 -0.5215  0.9041
  207SOL    HW1  620   0.805   1.729   2.867 -0.2692 -0.0279  2.1431
  207SOL    HW2  621   0.642   1.696   2.913  0.4258 -0.2593 -1.1125
  208SOL     OW  622   1.012   1.570   1.238 -0.3004 -0.3713  0.4397
  208SOL    HW1  623   0.971   1.553   1.144  1.6444 -0.2528  1.5886
  208SOL    HW2  624   1.013   1.669   1.262  1.0384 -1.2086 -0.7442
  209SOL     OW  625   0.268   0.958   3.090  0.2699 -0.0098 -0.5550
  209SOL    HW1  626   0.240   0.868   3.044 -1.7058  1.4156  3.1615
  209SOL    HW2  627   0.246   0.963   3.190 -0.8212  0.1961 -0.7214
  210SOL     OW  628   1.706   0.516   1.260 -0.2711  0.3123  0.5224
  210SOL    HW1  629   1.647   0.576   1.205  0.1493 -0.7789  2.3347
  210SOL    HW2  630   1.806   0.513   1.224  1.6383  2.8418 -2.1785
  211SOL     OW  631   2.117   1.011   1.586  0.8369  0.1342 -0.0586
  211SOL    HW1  632   2.174   0.955   1.655 -2.6859 -1.5562 -0.1101
  211SOL    HW2  633   2.172   1.084   1.546  0.5146 -3.7482 -1.5087
  212SOL     OW  634   0.032   0.987   1.497  0.5371  0.1122 -0.0250
  212SOL    HW1  635   0.100   1.059   1.532  1.7478  0.6363 -0.7914
  212SOL    HW2  636   0.031   0.900   1.559 -0.4530 -1.0813  0.4069
  213SOL     OW  637   2.830   0.163   0.307  0.4394 -0.5281  0.6096
  213SOL    HW1  638   2.891   0.076   0.295  1.6469  0.8968  2.0834
  213SOL    HW2  639   2.737   0.139   0.268  0.8382 -4.5345  1.1822
  214SOL     OW  640   2.170   0.339   2.350 -0.2957 -0.2514  0.2000
  214SOL    HW1  641   2.173   0.384   2.441  0.6130 -2.1838 -1.9662
  214SOL    HW2  642   2.168   0.234   2.362 -1.4123  1.2500  1.2311
  215SOL     OW  643   1.639   2.224   2.046 -0.4053 -0.3947 -0.4267
  215SOL    HW1  644   1.736   2.254   2.053 -0.3081  1.0850 -2.6954
  215SOL    HW2  645   1.577   2.296   2.014  0.7357 -0.6618 -0.5915
  216SOL     OW  646   2.178   0.551   0.705  0.6459 -0.1894  0.9323
  216SOL    HW1  647   2.126   0.528   0.620 -0.9120  1.2242 -1.6017
  216SOL    HW2  648   2.278   0.504   0.714  1.3265 -4.4566  1.9627
  217SOL     OW  649   0.926   2.796   2.565  0.3776  0.0780  1.0504
  217SOL    HW1  650   0.915   2.724   2.638 -3.3179 -0.7116  1.0390
  217SOL    HW2  651   0.870   2.763   2.479 -0.0251 -0.4204  2.0099
  218SOL     OW  652   1.891   1.461   0.043  0.1335  0.4142  0.1535
  218SOL    HW1  653   1.791   1.484   0.032 -0.7892 -1.5987  0.3327
  218SOL    HW2  654   1.907   1.379   0.104 -1.0683  0.9122 -1.6538
  219SOL     OW  655   2.450   1.263   2.540  0.1388 -0.0411  0.2652
  219SOL    HW1  656   2.503   1.201   2.481 -2.3063 -0.6376  1.9603
  219SOL    HW2  657   2.432   1.219   2.633  2.1160  0.7205  1.3914
  220SOL     OW  658   1.419   1.018   1.374 -0.2400  0.4741 -0.1422
  220SOL    HW1  659   1.517   0.984   1.381  0.6442 -0.2647  0.4981
  220SOL    HW2  660   1.402   1.052   1.276 -2.4432  0.3492 -1.1429
  221SOL     OW  661   1.380   0.956   2.194  0.5562 -0.0250 -0.7308
  221SOL    HW1  662   1.337   1.004   2.108  0.1178  0.3442  1.1219
  221SOL    HW2  663   1.446   1.015   2.246 -0.9190  1.4551  2.1660
  222SOL     OW  664   1.135   0.091   1.233  0.3045  0.3541 -0.1558
  222SOL    HW1  665   1.201   0.143   1.295  0.5838  1.1037 -1.1105
  222SOL    HW2  666   1.128   0.131   1.140 -0.0407 -1.6441 -0.8639
  223SOL     OW  667   2.711   0.956   2.102 -0.0002  0.3856 -0.0368
  223SOL    HW1  668   2.660   1.037   2.063  1.1791 -0.1428 -0.9496
  223SOL    HW2  669   2.803   0.977   2.143 -0.8972  0.6246  4.3912
  224SOL     OW  670   1.599   1.027   2.768 -0.1572  0.1532  0.3137
  224SOL    HW1  671   1.590   0.955   2.691 -0.6693  0.5079  0.2441
  224SOL    HW2  672   1.612   1.118   2.730 -1.0185 -1.9787  4.3532
  225SOL     OW  673   2.956   2.699   2.884 -0.2454 -0.0022  0.3191
  225SOL    HW1  674   2.863   2.694   2.836 -0.8876 -0.0173 -1.6466
  225SOL    HW2  675   2.989   2.794   2.889  0.6056  1.2211 -0.1460
  226SOL     OW  676   2.378   1.494   2.802  0.3132 -0.1813  0.0274
  226SOL    HW1  677   2.457   1.487   2.736  1.6776 -2.4290  3.3682
  226SOL    HW2  678   2.412   1.455   2.891 -1.1549 -0.5708  1.1307
  227SOL     OW  679   0.844   0.242   3.097  0.0318 -0.4924  0.4048
  227SOL    HW1  680   0.912   0.316   3.063 -1.5629  0.8315  0.7809
  227SOL    HW2  681   0.793   0.190   3.019  0.2329 -1.3914 -1.0553
  228SOL     OW  682   2.419   0.657   2.856  0.3735  0.0775  0.8960
  228SOL    HW1  683   2.437   0.725   2.780 -0.8108 -0.8077 -0.9611
  228SOL    HW2  684   2.487   0.581   2.857 -1.8592  2.1373 -0.8228
  229SOL     OW  685   0.451   0.501   1.821 -0.7484 -0.1609  0.0601
  229SOL    HW1  686   0.498   0.415   1.853  3.3703  3.0808  2.1354
  229SOL    HW2  687   0.461   0.511   1.716 -0.0072 -0.0666  1.3029
  230SOL     OW  688   1.890   1.197   1.980  0.5044  0.1334 -0.1721
  230SOL    HW1  689   1.966   1.264   1.960  0.4396 -1.9530 -1.9485
  230SOL    HW2  690   1.813   1.235   2.041 -0.4513 -0.7583  0.4187
  231SOL     OW  691   0.616   1.068   3.091 -0.9003  0.2715  0.1601
  231SOL    HW1  692   0.724   1.081   3.095  3.9562  0.4116  0.3283
  231SOL    HW2  693   0.557   1.142   3.130  2.9020 -1.9165  0.5257
  232SOL     OW  694   2.407   3.035   2.845 -0.0702  0.6257  0.2678
  232SOL    HW1  695   2.481   2.960   2.859  2.5994 -0.3256 -0.7505
  232SOL    HW2  696   2.419   3.081   2.753  0.3069  0.1799 -0.1844
  233SOL     OW  697   1.728   1.189   1.127  0.0885 -0.3285 -0.7170
  233SOL    HW1  698   1.803   1.254   1.141 -0.2206 -1.4568 -1.0906
  233SOL    HW2  699   1.748   1.106   1.070 -0.8545 -1.0130  0.7397
  234SOL     OW  700   1.653   2.588   1.820  0.0530  0.0766  0.2716
  234SOL    HW1  701   1.618   2.634   1.910 -0.0581  0.5315 -3.4099
  234SOL    HW2  702   1.621   2.490   1.806  1.2677 -0.0971 -0.3090
  235SOL     OW  703   3.085   2.930   2.888  0.1239  0.5185 -0.1868
  235SOL    HW1  704   3.061   2.947   2.785 -1.2694  0.9558 -1.3369
  235SOL    HW2  705   3.071   3.014   2.948  0.3158  0.1439 -1.5178
  236SOL     OW  706   2.956   0.684   0.064  0.1482 -0.3239 -0.5183
  236SOL    HW1  707   2.998   0.730   0.148  1.4865  2.1137  0.9155
  236SOL    HW2  708   3.012   0.607   0.022  2.3410  1.2463 -2.2263
  237SOL     OW  709   1.442   1.621   0.904  0.8739 -0.2153  0.0039
  237SOL    HW1  710   1.529   1.566   0.920  2.0934  0.4945  0.1141
  237SOL    HW2  711   1.443   1.703   0.971  1.5318  1.1392 -0.4122
  238SOL     OW  712   1.907   1.215   0.787 -0.0700 -0.1316  0.2014
  238SOL    HW1  713   1.955   1.253   0.872  2.0894  0.8422 -1.4278
  238SOL    HW2  714   1.809   1.241   0.781 -4.2381  1.2528  1.2638
  239SOL     OW  715   2.045   0.229   2.724 -0.7055 -0.2294  0.5611
  239SOL    HW1  716   2.079   0.183   2.815  0.0538  1.1364 -0.1256
  239SOL    HW2  717   1.981   0.301   2.748 -1.3641 -1.2356 -1.7066
  240SOL     OW  718   0.903   0.706   0.244  0.2432  0.6004  0.2905
  240SOL    HW1  719   0.977   0.651   0.196  1.0428 -1.4301 -1.9164
  240SOL    HW2  720   0.918   0.705   0.347  1.5290 -1.2403  2.4741
  241SOL     OW  721   0.574   0.145   0.348  0.0781 -0.0008 -0.5722
  241SOL    HW1  722   0.645   0.221   0.347 -2.0802 -0.2245 -0.7632
  241SOL    HW2  723   0.547   0.126   0.255  0.0152  1.8056  0.0802
  242SOL     OW  724   0.637   2.556   1.186  0.0834  0.0822  0.2314
  242SOL    HW1  725   0.634   2.540   1.288  1.0045  0.4782  1.3311
  242SOL    HW2  726   0.618   2.658   1.158 -1.6029  2.6707  3.6160
  243SOL     OW  727   1.040   0.590   2.378  0.1737 -0.1222 -0.4796
  243SOL    HW1  728   0.947   0.627   2.352  0.8611  2.7065 -0.3908
  243SOL    HW2  729   1.053   0.570   2.483  3.9508 -2.7132  1.3682
  244SOL     OW  730   2.743   1.932   2.345 -1.1223  0.0800 -0.1751
  244SOL    HW1  731   2.788   1.915   2.252 -0.0194 -1.2787  1.2418
  244SOL    HW2  732   2.684   1.854   2.370  1.4458  1.3110  0.3024
  245SOL     OW  733   2.174   0.991   2.151 -0.2054  0.5580  0.1560
  245SOL    HW1  734   2.263   0.939   2.172  0.5879  1.4304  2.6979
  245SOL    HW2  735   2.169   1.086   2.192 -0.5752  0.4913  0.6809
  246SOL     OW  736   0.262   2.832   1.816  0.5991  0.5210  0.2569
  246SOL    HW1  737   0.178   2.807   1.757  0.0823  2.1572  0.0280
  246SOL    HW2  738   0.316   2.911   1.777 -3.1756 -1.2889  1.4214
  247SOL     OW  739   2.227   0.602   3.030 -0.1088 -0.8044 -0.1153
  247SOL    HW1  740   2.288   0.628   2.946 -1.0302  1.4511  1.6840
  247SOL    HW2  741   2.159   0.678   3.058  1.9247  1.8618  0.6152
  248SOL     OW  742   2.192   1.848   1.628  0.4500 -0.1683 -0.3182
  248SOL    HW1  743   2.263   1.815   1.697 -2.8578 -1.9260 -1.5485
  248SOL    HW2  744   2.099   1.800   1.638 -1.5944 -3.7359  1.4377
  249SOL     OW  745   1.907   1.898   1.812 -0.2656  0.0186 -0.4401
  249SOL    HW1  746   1.906   1.817   1.746  1.8290  0.7272 -1.9912
  249SOL    HW2  747   2.000   1.910   1.857  0.8266  0.6254  0.3305
  250SOL     OW  748   1.005   0.708   1.881 -0.8423  0.2177  0.5262
  250SOL    HW1  749   1.045   0.660   1.960 -2.3545  0.8373 -1.5387
  250SOL    HW2  750   1.046   0.663   1.794 -2.1474 -1.2601 -1.0332
  251SOL     OW  751   3.068   1.587   2.517  0.2362 -1.0265 -0.5931
  251SOL    HW1  752   3.060   1.684   2.477  0.6467  1.5164 -1.3856
  251SOL    HW2  753   2.980   1.536   2.503 -1.4259  0.6825  1.5776
  252SOL     OW  754   1.542   0.838   1.549 -0.5333  0.4566 -0.1815
  252SOL    HW1  755   1.619   0.873   1.488  1.1677  0.8443  1.7998
  252SOL    HW2  756   1.523   0.902   1.627  0.5788  1.4847 -1.0787
  253SOL     OW  757   0.934   1.515   0.479 -0.0617 -0.2379 -0.2463
  253SOL    HW1  758   0.948   1.442   0.403 -2.5635  1.5852 -0.4269
  253SOL    HW2  759   0.834   1.539   0.510 -1.3017 -0.6742  1.0269
  254SOL     OW  760   2.029   2.203   1.603  0.1208  0.1602 -0.2966
  254SOL    HW1  761   1.979   2.135   1.545  0.2105 -2.6642 -1.5977
  254SOL    HW2  762   1.970   2.264   1.664 -1.6339 -2.2209 -0.2228
  255SOL     OW  763   0.132   1.145   2.936 -0.3765  0.0567  0.1301
  255SOL    HW1  764   0.150   1.240   2.912  0.7833 -3.2919  1.6161
  255SOL    HW2  765   0.218   1.094   2.971  2.1773  1.4351 -1.5058
  256SOL     OW  766   2.828   1.390   1.814 -0.0583  0.5626 -0.4114
  256SOL    HW1  767   2.767   1.470   1.779 -0.4453 -2.0365 -2.0652
  256SOL    HW2  768   2.811   1.305   1.759  1.5634  0.5700  0.2067
  257SOL     OW  769   0.810   0.202   1.821 -0.0862  1.0965  0.2320
  257SOL    HW1  770   0.882   0.260   1.781 -4.3456 -3.8190  0.1963
  257SOL    HW2  771   0.847   0.108   1.847  1.0561  0.8147  2.6012
  258SOL     OW  772   2.963   1.141   0.534 -0.6362  0.2970  0.1887
  258SOL    HW1  773   2.886   1.204   0.567  0.4267 -3.2660  0.6097
  258SOL    HW2  774   3.054   1.169   0.580  0.1413 -2.5687  0.1045
  259SOL     OW  775   0.464   2.938   2.996  0.2336  0.2678 -0.4313
  259SOL    HW1  776   0.390   2.872   3.039 -1.8579  0.8605  0.8385
  259SOL    HW2  777   0.513   2.901   2.913  1.4967 -0.7450 -1.2366
  260SOL     OW  778   2.717   0.757   2.721  0.2100 -0.1738  0.3221
  260SOL    HW1  779   2.625   0.798   2.689  2.7003 -0.1267  0.3225
  260SOL    HW2  780   2.693   0.690   2.797 -1.8785 -0.3065 -3.1264
  261SOL     OW  781   2.710   1.313   1.316  0.1091  0.0600 -0.4137
  261SOL    HW1  782   2.678   1.266   1.234 -3.3319  2.7541  0.7890
  261SOL    HW2  783   2.780   1.254   1.364 -0.6093  0.6091 -1.5473
  262SOL     OW  784   1.373   2.978   2.062  0.1167  0.1278  0.5630
  262SOL    HW1  785   1.415   3.060   2.007 -0.3430  0.6303  0.1437
  262SOL    HW2  786   1.282   2.956   2.022 -0.2791 -0.4568  3.3467
  263SOL     OW  787   0.806   0.665   2.261  0.0708 -0.7679 -0.3553
  263SOL    HW1  788   0.768   0.580   2.213 -1.6300  1.1148  0.2957
  263SOL    HW2  789   0.825   0.747   2.196 -1.1409  3.2648 -0.5807
  264SOL     OW  790   2.274   0.813   0.375 -0.0812 -0.3499 -0.4463
  264SOL    HW1  791   2.274   0.725   0.312 -1.8683 -1.8875 -0.8052
  264SOL    HW2  792   2.368   0.856   0.396 -0.0100 -0.2769  0.1031
  265SOL     OW  793   0.927   2.372   2.619  0.0043  0.2651  0.0315
  265SOL    HW1  794   1.005   2.415   2.660 -0.2633 -1.0262 -1.6203
  265SOL    HW2  795   0.881   2.295   2.680  0.1463 -2.3911 -1.3604
  266SOL     OW  796   1.326   1.759   3.059 -0.6005  0.2187 -0.1526
  266SOL    HW1  797   1.285   1.819   3.133 -1.6619 -0.7782  2.2528
  266SOL    HW2  798   1.426   1.743   3.072  0.6474  2.0076  1.1823
  267SOL     OW  799   1.067   0.045   2.277 -0.4781  0.2499  0.5833
  267SOL    HW1  800   0.978  -0.014   2.258  0.3928 -1.1552 -0.5702
  267SOL    HW2  801   1.122   0.073   2.194 -1.6769 -1.6089  1.6068
  268SOL     OW  802   0.823   1.231   1.037 -0.4649 -0.0037 -0.3817
  268SOL    HW1  803   0.770   1.290   1.109  1.7581 -0.7396 -0.2415
  268SOL    HW2  804   0.910   1.271   1.004 -0.8453 -0.1039  0.1096
  269SOL     OW  805   2.372   2.486   1.632  0.1283  0.4322  0.2504
  269SOL    HW1  806   2.435   2.409   1.660  0.0922 -1.4805 -2.5868
  269SOL    HW2  807   2.352   2.557   1.703 -0.0388  2.8675 -1.9852
  270SOL     OW  808   0.152   2.984   2.013  0.4452  0.2729  0.2109
  270SOL    HW1  809   0.185   2.917   1.940  1.0543 -1.6479  1.9969
  270SOL    HW2  810   0.104   2.938   2.093  1.5768  2.5811 -1.0106
  271SOL     OW  811   0.485   1.377   1.139 -0.7437 -0.2722  0.3982
  271SOL    HW1  812   0.449   1.363   1.040  0.8912 -3.4363 -0.8795
  271SOL    HW2  813   0.411   1.367   1.206  0.1777  1.5685 -1.3143
  272SOL     OW  814   1.900   3.086   1.943  0.1677  0.3617 -0.1649
  272SOL    HW1  815   1.864   3.015   1.874  2.6313  0.6992 -1.5628
  272SOL    HW2  816   1.968   3.144   1.894 -1.2967  2.2773 -1.0820
  273SOL     OW  817   1.536   1.481   2.809  0.0158  0.3676 -0.2364
  273SOL    HW1  818   1.440   1.442   2.803 -0.3172 -2.6467  0.5746
  273SOL    HW2  819   1.561   1.507   2.906 -1.7322  1.2994  0.0918
  274SOL     OW  820   1.119   0.514   2.063 -0.7600  0.0014 -0.1806
  274SOL    HW1  821   1.076   0.416   2.074  1.0329 -2.5945  2.8831
  274SOL    HW2  822   1.186   0.532   2.142 -0.1677 -1.1700 -1.8115
  275SOL     OW  823   0.644   2.115   1.944  0.0193  0.2535 -0.2715
  275SOL    HW1  824   0.644   2.205   2.000 -0.9818  1.2639 -0.7779
  275SOL    HW2  825   0.552   2.099   1.902  1.2933  2.5958 -0.4660
  276SOL     OW  826   2.225   0.976   2.796  0.1616 -0.5575  0.3022
  276SOL    HW1  827   2.147   1.038   2.757  1.9233  1.6781  0.4686
  276SOL    HW2  828   2.195   0.878   2.810 -0.4366 -0.5788  2.9005
  277SOL     OW  829   3.078   0.785   0.263  0.5261  0.0109  0.2194
  277SOL    HW1  830   3.161   0.845   0.247 -0.4151 -0.4747 -1.4416
  277SOL    HW2  831   3.096   0.715   0.337  0.8460  2.4248  0.8608
  278SOL     OW  832   0.277   0.270   3.041 -0.0927  0.1113  0.6796
  278SOL    HW1  833   0.355   0.211   3.013 -1.5795 -0.4708 -0.7994
  278SOL    HW2  834   0.307   0.371   3.042  0.6580 -0.0079  3.2984
  279SOL     OW  835   0.271   0.029   0.933 -0.2880  0.5324 -0.7377
  279SOL    HW1  836   0.289  -0.013   1.028  3.9543 -0.9841  0.1871
  279SOL    HW2  837   0.320  -0.023   0.864 -1.4492  0.6603  1.7036
  280SOL     OW  838   1.651   2.928   2.427 -0.0622 -0.3498  0.2568
  280SOL    HW1  839   1.714   2.982   2.486 -1.2485  0.0110  1.2894
  280SOL    HW2  840   1.576   2.999   2.392 -1.1464  0.0824 -1.0149
  281SOL     OW  841   0.524   0.959   2.254 -0.0915  0.7650  0.0881
  281SOL    HW1  842   0.522   0.872   2.201 -2.2274 -0.2995 -0.0166
  281SOL    HW2  843   0.507   0.945   2.356  0.6922 -2.0591  0.5650
  282SOL     OW  844   1.779   2.454   0.524 -0.0811  0.2522 -0.7241
  282SOL    HW1  845   1.718   2.386   0.470 -1.7660  0.9871  0.4140
  282SOL    HW2  846   1.753   2.553   0.514  2.0737 -2.3406 -0.2869
  283SOL     OW  847   1.129   0.882   0.737  0.1722 -0.4221 -0.7049
  283SOL    HW1  848   1.154   0.825   0.822 -0.2096  1.6818  0.8421
  283SOL    HW2  849   1.144   0.987   0.750 -2.2419  0.3719 -4.2710
  284SOL     OW  850   2.231   2.824   2.462 -0.1541 -0.0229  0.4859
  284SOL    HW1  851   2.320   2.799   2.410 -0.0431 -1.6507  0.6270
  284SOL    HW2  852   2.251   2.835   2.561  0.5223 -3.4219 -4.3507
  285SOL     OW  853   1.358   0.014   2.578 -0.8319 -0.3377  0.3087
  285SOL    HW1  854   1.391   0.013   2.478  0.6378  2.0247 -0.0311
  285SOL    HW2  855   1.293   0.093   2.585  0.4690  1.2668 -0.3120
  286SOL     OW  856   0.415   0.479   0.719 -0.7680 -0.2202 -0.1748
  286SOL    HW1  857   0.408   0.415   0.803  1.2989  1.7908  0.4125
  286SOL    HW2  858   0.419   0.436   0.623  1.7676 -3.0509 -1.9403
  287SOL     OW  859   0.081   1.317   2.650 -0.2444 -0.3067 -0.1412
  287SOL    HW1  860   0.020   1.237   2.679  2.8126 -0.3561 -3.2793
  287SOL    HW2  861   0.029   1.402   2.641  1.4523 -1.2494 -2.4746
  288SOL     OW  862   1.510   2.745   1.646  0.3009 -0.0504  0.2403
  288SOL    HW1  863   1.552   2.694   1.724 -2.0153 -3.0287 -0.2812
  288SOL    HW2  864   1.553   2.722   1.554 -1.7824  4.6653  0.7820
  289SOL     OW  865   0.623   2.753   0.859  0.1578  0.7513 -0.1276
  289SOL    HW1  866   0.664   2.795   0.775 -0.8971 -0.5784 -4.4073
  289SOL    HW2  867   0.650   2.791   0.946  2.7725 -3.2480 -1.0973
  290SOL     OW  868   2.818   1.139   1.710 -0.5516  0.2640  0.3073
  290SOL    HW1  869   2.739   1.072   1.723  3.2127 -2.1021  1.7285
  290SOL    HW2  870   2.906   1.111   1.763  2.3042 -1.9597  1.2665
  291SOL     OW  871   1.952   3.075   0.052 -0.0492 -0.3191 -0.0095
  291SOL    HW1  872   1.957   3.119   0.151  1.0597 -0.3486  0.7259
  291SOL    HW2  873   2.010   3.117  -0.025 -1.1003 -0.8555 -2.7847
  292SOL     OW  874   2.994   1.146   3.050  0.2182 -0.1385 -0.2668
  292SOL    HW1  875   2.953   1.221   2.998  0.1785  1.1202 -1.9534
  292SOL    HW2  876   3.087   1.124   3.015 -2.2071 -0.7705 -0.1636
  293SOL     OW  877   0.577   2.086   0.305 -0.3975  0.1042 -0.3406
  293SOL    HW1  878   0.545   2.166   0.369  1.0104 -2.6489  1.9987
  293SOL    HW2  879   0.680   2.064   0.315 -0.1880 -1.7521  1.7655
  294SOL     OW  880   1.870   2.372   1.771  0.2109 -0.4672  0.1176
  294SOL    HW1  881   1.873   2.365   1.876 -1.2864 -1.9879 -0.0441
  294SOL    HW2  882   1.833   2.467   1.739  1.0482 -1.1752 -0.9581
  295SOL     OW  883   1.023   1.038   0.446 -0.0158 -0.2231 -0.7534
  295SOL    HW1  884   1.124   1.067   0.468 -0.6351  1.7339  1.9886
  295SOL    HW2  885   0.966   1.004   0.523  1.0418 -2.8131 -1.0176
  296SOL     OW  886   1.127   2.147   2.750 -0.1965  0.2704 -0.3568
  296SOL    HW1  887   1.031   2.186   2.739 -2.1708 -2.4703  0.0351
  296SOL    HW2  888   1.154   2.099   2.663 -2.4586  0.3324 -0.9709
  297SOL     OW  889   1.311   0.543   1.190 -0.0434 -0.1332 -0.0569
  297SOL    HW1  890   1.333   0.483   1.273 -1.3460 -0.8624 -3.6172
  297SOL    HW2  891   1.383   0.615   1.161 -2.4393  0.7669 -1.4230
  298SOL     OW  892   0.481   1.332   2.943  0.4378 -0.2675 -0.0047
  298SOL    HW1  893   0.452   1.297   3.040  1.1915 -1.0500  0.6210
  298SOL    HW2  894   0.502   1.257   2.873  0.1602  0.9833 -2.0481
  299SOL     OW  895   0.428   0.215   1.234  0.3461 -0.2019 -0.2763
  299SOL    HW1  896   0.377   0.303   1.205  0.7766 -0.8456  2.1711
  299SOL    HW2  897   0.438   0.209   1.336 -0.9066  1.2018  0.9561
  300SOL     OW  898   1.298   1.786   2.559  0.6729  0.3993 -0.3149
  300SOL    HW1  899   1.284   1.697   2.503  1.3412 -1.0554 -0.4286
  300SOL    HW2  900   1.400   1.794   2.595  1.0850 -0.1299  3.4199
  301SOL     OW  901   0.421   0.353   0.467 -0.3223  0.5593 -0.2681
  301SOL    HW1  902   0.329   0.370   0.426 -1.0040  0.4029 -2.8790
  301SOL    HW2  903   0.469   0.269   0.433  1.7365  1.4048  0.4510
  302SOL     OW  904   1.278   2.448   2.263 -0.0445 -0.1162  0.9496
  302SOL    HW1  905   1.179   2.455   2.296  0.2853  0.5662  0.6264
  302SOL    HW2  906   1.328   2.374   2.317 -1.7281 -3.1084 -2.4795
  303SOL     OW  907   0.992   2.406   0.815 -0.0342  0.2335 -0.3164
  303SOL    HW1  908   1.053   2.452   0.749  1.4860  1.0867  1.2359
  303SOL    HW2  909   0.991   2.460   0.901  1.1385  3.0936 -1.1137
  304SOL     OW  910   0.139   1.907   0.676  0.4193 -0.0801 -0.0917
  304SOL    HW1  911   0.194   1.892   0.587  1.1576  0.6006  1.5248
  304SOL    HW2  912   0.059   1.963   0.655 -1.0420  1.1598 -3.8688
  305SOL     OW  913   1.580   0.823   0.694  0.3940 -0.2242 -0.4234
  305SOL    HW1  914   1.553   0.842   0.593 -2.5894  0.3181  0.7351
  305SOL    HW2  915   1.650   0.748   0.686 -1.1089 -0.2041  0.4677
  306SOL     OW  916   0.400   1.868   1.957 -0.6086 -0.3911  0.3716
  306SOL    HW1  917   0.493   1.841   1.924  1.0236 -0.6467  1.6578
  306SOL    HW2  918   0.404   1.921   2.046  0.3438  0.6777  2.0423
  307SOL     OW  919   3.040   0.885   2.474 -0.4679  0.4941  0.4214
  307SOL    HW1  920   3.075   0.948   2.550 -2.2508 -2.2277  1.8569
  307SOL    HW2  921   2.968   0.814   2.504 -1.5564  0.4402 -0.7106
  308SOL     OW  922   1.488   2.703   2.814  0.0861 -0.4483  0.2503
  308SOL    HW1  923   1.456   2.719   2.715  1.9970 -2.8340 -2.3888
  308SOL    HW2  924   1.465   2.610   2.844  0.1781 -1.4242  1.2909
  309SOL     OW  925   1.254   0.163   1.769  0.3514  0.5819 -0.0937
  309SOL    HW1  926   1.348   0.134   1.811  0.2262 -2.1966  0.3642
  309SOL    HW2  927   1.249   0.148   1.664 -2.5772 -1.5485 -0.3209
  310SOL     OW  928   1.454   2.593   0.644 -0.2983 -0.3292  0.6762
  310SOL    HW1  929   1.447   2.594   0.743 -1.2817  0.8435  0.7795
  310SOL    HW2  930   1.547   2.639   0.612  2.0627  1.0095 -0.5376
  311SOL     OW  931   1.067   0.980   1.788 -0.4629  0.5242 -0.1081
  311SOL    HW1  932   1.036   0.881   1.806  1.8844 -1.6477 -0.2665
  311SOL    HW2  933   1.149   0.980   1.724  1.4090  0.1109 -0.2209
  312SOL     OW  934   1.518   0.660   1.051  0.4367 -0.4201 -0.1412
  312SOL    HW1  935   1.612   0.705   1.045  0.3623  1.6056 -1.2941
  312SOL    HW2  936   1.474   0.641   0.961  1.7995 -0.1476 -0.8810
  313SOL     OW  937   1.640   1.262   0.764  0.3425 -0.4050  0.3478
  313SOL    HW1  938   1.547   1.282   0.810 -1.5272 -0.6040 -1.0026
  313SOL    HW2  939   1.637   1.182   0.699 -1.6396 -1.0005  3.5730
  314SOL     OW  940   2.962   3.074   0.001 -0.2711  0.1225 -0.1148
  314SOL    HW1  941   2.994   3.076   0.100 -0.3880  1.0125  0.4039
  314SOL    HW2  942   2.891   3.002  -0.011 -1.8688 -0.7953 -0.9050
  315SOL     OW  943   1.185   0.200   2.806 -0.2274  0.0619 -0.0792
  315SOL    HW1  944   1.144   0.157   2.721  0.4212 -1.6072 -0.3146
  315SOL    HW2  945   1.152   0.155   2.892 -0.5125 -0.5954 -2.7208
  316SOL     OW  946   1.707   2.089   0.886  0.3555  0.2439 -0.3297
  316SOL    HW1  947   1.645   2.102   0.970 -0.0589 -1.3635  4.5095
  316SOL    HW2  948   1.735   2.172   0.834  2.4830 -1.9668  0.5646
  317SOL     OW  949   1.184   0.682   2.784  0.5541 -0.2882  0.1559
  317SOL    HW1  950   1.118   0.739   2.844 -2.5909  0.6662 -0.2746
  317SOL    HW2  951   1.136   0.606   2.733 -0.3544  0.3725 -1.9380
  318SOL     OW  952   1.432   3.095   2.317  0.2937 -0.1459 -0.0895
  318SOL    HW1  953   1.462   3.189   2.283 -0.5382  1.9400 -0.2175
  318SOL    HW2  954   1.360   3.048   2.259 -1.3975  0.1599 -1.5992
  319SOL     OW  955   0.675   2.394   2.989  0.1033 -0.2692  0.3267
  319SOL    HW1  956   0.645   2.314   3.049 -0.0873  2.1137  1.0486
  319SOL    HW2  957   0.721   2.361   2.904  0.0169 -0.3254  3.1801
  320SOL     OW  958   1.671   2.229   0.398  0.1438 -0.4151  0.5752
  320SOL    HW1  959   1.756   2.173   0.404 -1.2683  0.4660  0.6809
  320SOL    HW2  960   1.582   2.190   0.424 -1.1977 -0.9360 -2.1532
  321SOL     OW  961   1.675   2.727   0.540  0.9868 -0.4642  0.5121
  321SOL    HW1  962   1.597   2.791   0.522  2.5145  1.7450 -0.1481
  321SOL    HW2  963   1.763   2.774   0.529 -2.2971 -1.8602 -0.2456
  322SOL     OW  964   2.591   1.120   2.325  0.5005  0.0432 -0.0161
  322SOL    HW1  965   2.671   1.109   2.396  0.9156 -0.4274 -0.8340
  322SOL    HW2  966   2.548   1.033   2.296  2.2759  3.1117  2.2006
  323SOL     OW  967   1.168   2.681   0.808 -0.6448 -0.5136 -0.2928
  323SOL    HW1  968   1.147   2.660   0.703 -2.0582  0.4345 -2.7599
  323SOL    HW2  969   1.136   2.774   0.840 -0.7094 -1.1336 -3.6043
  324SOL     OW  970   0.189   2.532   2.441 -0.2889 -0.0812 -0.0497
  324SOL    HW1  971   0.099   2.510   2.489 -0.0949  1.5479  1.6868
  324SOL    HW2  972   0.213   2.633   2.462  1.3053  0.6225  0.9943
  325SOL     OW  973   1.253   3.074   0.472  0.4642  0.8132 -0.1409
  325SOL    HW1  974   1.270   3.094   0.372 -2.8216 -2.0668 -1.4045
  325SOL    HW2  975   1.274   3.152   0.539  1.4120  2.1814  1.6696
  326SOL     OW  976   2.504   0.791   3.076 -0.1604  0.6082 -0.2555
  326SOL    HW1  977   2.453   0.734   3.004 -0.1952 -2.5448  0.7666
  326SOL    HW2  978   2.578   0.734   3.124 -0.2697  3.1844 -1.9238
  327SOL     OW  979   2.849   0.274   0.548 -0.1178 -0.5941  0.3519
  327SOL    HW1  980   2.835   0.227   0.456 -1.2781 -3.7935  2.4429
  327SOL    HW2  981   2.871   0.201   0.615  0.0795  2.1837 -1.1908
  328SOL     OW  982   2.564   0.667   0.402  0.6155  0.3793  0.6496
  328SOL    HW1  983   2.635   0.707   0.465  0.1306 -1.8095  1.2155
  328SOL    HW2  984   2.513   0.590   0.447  0.4546 -0.9648 -1.3082
  329SOL     OW  985   2.934   3.055   2.152 -0.0654 -0.3593  0.5818
  329SOL    HW1  986   3.008   2.996   2.191 -0.0512 -0.9686  2.0687
  329SOL    HW2  987   2.968   3.150   2.136 -2.3771 -1.4272 -1.0379
  330SOL     OW  988   0.525   0.221   1.861 -0.1942 -0.4569  0.0455
  330SOL    HW1  989   0.620   0.202   1.825 -1.6937  0.2041 -1.4138
  330SOL    HW2  990   0.512   0.188   1.960 -0.1050  0.7901 -2.1093
  331SOL     OW  991   3.038   1.915   1.140  0.0577  0.2303  0.0714
  331SOL    HW1  992   3.027   1.968   1.054  0.9341  0.5906  2.0053
  331SOL    HW2  993   2.947   1.884   1.176  0.1205 -1.1542  1.0431
  332SOL     OW  994   0.397   1.213   0.066  0.1418 -0.1286 -0.4165
  332SOL    HW1  995   0.368   1.117   0.028 -0.0883 -0.8615  0.8634
  332SOL    HW2  996   0.391   1.219   0.170 -0.4336 -0.9673  0.7011
  333SOL     OW  997   2.875   0.962   0.364  0.5182 -0.1829  0.0275
  333SOL    HW1  998   2.909   1.021   0.445  0.8343 -0.9615 -0.5566
  333SOL    HW2  999   2.948   0.945   0.284 -2.5929  0.6594  0.2536
  334SOL     OW 1000   1.736   1.158   1.756 -0.0720 -0.3775 -0.8465
  334SOL    HW1 1001   1.777   1.164   1.660  1.9495 -0.3466 -1.0477
  334SOL    HW2 1002   1.800   1.190   1.834  4.7048 -1.8255 -1.3524
  335SOL     OW 1003   1.892   2.810   2.637 -0.5027 -0.0230 -0.0471
  335SOL    HW1 1004   1.824   2.789   2.712 -2.5185 -1.0778 -1.0563
  335SOL    HW2 1005   1.935   2.900   2.652 -1.6495 -1.3584  1.4623
  336SOL     OW 1006   0.254   0.004   2.697  0.4243  0.2770 -0.0502
  336SOL    HW1 1007   0.298   0.030   2.788  1.9483 -0.4834  2.7832
  336SOL    HW2 1008   0.191  -0.079   2.705 -2.0886  2.8385 -1.0503
  337SOL     OW 1009   0.927   2.881   2.960 -0.3045 -0.2914  0.1736
  337SOL    HW1 1010   0.911   2.818   3.045  0.0881 -1.2810  0.4251
  337SOL    HW2 1011   1.021   2.909   2.945 -6.2599 -0.1756 -1.1911
  338SOL     OW 1012   3.094   0.911   0.679 -0.0344 -0.1780  0.4605
  338SOL    HW1 1013   2.995   0.924   0.706 -2.0251 -1.5555 -2.6064
  338SOL    HW2 1014   3.137   1.005   0.673 -1.8502 -0.2453 -0.8224
  339SOL     OW 1015   1.721   1.322   2.157  0.4880 -0.5003  0.2513
  339SOL    HW1 1016   1.625   1.328   2.130  2.5919  0.8720  2.1245
  339SOL    HW2 1017   1.756   1.415   2.136 -2.1191 -3.3641 -0.0355
  340SOL     OW 1018   2.242   0.811   1.132  0.0380 -0.0598 -1.0814
  340SOL    HW1 1019   2.166   0.870   1.179  0.0669  1.1882  2.5833
  340SOL    HW2 1020   2.199   0.736   1.077 -3.2442  1.5267 -1.2667
  341SOL     OW 1021   1.919   2.077   0.400  0.4017  0.1612 -0.6702
  341SOL    HW1 1022   1.947   2.112   0.306  0.8650  1.1578  0.2332
  341SOL    HW2 1023   1.999   2.075   0.461 -3.2561  3.5365  0.4936
  342SOL     OW 1024   2.167   2.106   2.702  0.5295 -0.1077  0.1060
  342SOL    HW1 1025   2.196   2.021   2.745  0.7201  0.3483 -0.0775
  342SOL    HW2 1026   2.067   2.106   2.679  2.4169 -0.5110  0.2163
  343SOL     OW 1027   0.365   0.817   2.752 -0.5469  0.4999  0.0942
  343SOL    HW1 1028   0.382   0.875   2.667  0.5862  1.2856  0.2622
  343SOL    HW2 1029   0.448   0.823   2.817  1.2568  1.6926  1.8069
  344SOL     OW 1030   1.949   1.484   0.414  0.5013  0.3711 -0.6682
  344SOL    HW1 1031   1.979   1.411   0.345  1.1331 -0.1254 -0.3259
  344SOL    HW2 1032   1.852   1.468   0.449 -0.4630 -1.3259  0.1143
  345SOL     OW 1033   1.370   2.201   2.848 -0.5942 -0.4436 -0.3995
  345SOL    HW1 1034   1.290   2.197   2.786  1.6326  1.6780  1.1763
  345SOL    HW2 1035   1.449   2.135   2.820  1.7018  0.6333  2.1663
  346SOL     OW 1036   2.319   0.876   1.389  0.1996  0.2453  0.3751
  346SOL    HW1 1037   2.278   0.973   1.400 -2.4769 -0.8297 -0.0235
  346SOL    HW2 1038   2.291   0.833   1.297 -1.1570  0.2681  0.9515
  347SOL     OW 1039   0.695   2.779   1.658 -0.3016  0.0104 -0.1803
  347SOL    HW1 1040   0.745   2.822   1.575  1.0634 -1.7309 -1.1234
  347SOL    HW2 1041   0.595   2.789   1.654  0.9566  0.9407  0.1317
  348SOL     OW 1042   0.188   0.726   2.928  0.3760 -0.8604 -0.1709
  348SOL    HW1 1043   0.093   0.714   2.887 -0.4344  0.1965  0.1266
  348SOL    HW2 1044   0.257   0.761   2.855  1.8941 -0.4841  2.6163
  349SOL     OW 1045   1.867   0.426   2.809  0.0228 -0.2370 -0.0215
  349SOL    HW1 1046   1.821   0.493   2.743  0.6807  0.9909  1.8699
  349SOL    HW2 1047   1.842   0.451   2.906  0.7726 -2.2061  2.5013
  350SOL     OW 1048   1.688   0.387   0.364  0.0653  0.0193  0.4195
  350SOL    HW1 1049   1.742   0.382   0.453  2.5146 -0.8026  1.3655
  350SOL    HW2 1050   1.635   0.473   0.357  1.3373 -1.4232 -1.7233
  351SOL     OW 1051   0.868   0.859   2.068 -0.4976 -0.0949 -0.0463
  351SOL    HW1 1052   0.901   0.959   2.082  0.8910  2.9561 -0.1571
  351SOL    HW2 1053   0.915   0.811   1.987 -2.1357 -3.0786  3.7580
  352SOL     OW 1054   2.070   1.334   0.615  0.2763 -0.5350 -0.1500
  352SOL    HW1 1055   2.024   1.373   0.531  2.7399  3.1308  0.5892
  352SOL    HW2 1056   1.997   1.283   0.672 -0.8190  2.7672 -0.2024
  353SOL     OW 1057   2.190   2.756   1.093  0.0250  0.3129  0.1262
  353SOL    HW1 1058   2.234   2.708   1.172  2.1888 -1.3890  1.9391
  353SOL    HW2 1059   2.103   2.809   1.115 -4.0429 -1.7857  1.2706
  354SOL     OW 1060   0.225   1.441   2.886 -0.9180  0.7865  0.0703
  354SOL    HW1 1061   0.198   1.487   2.797 -1.8032  0.0438 -0.1620
  354SOL    HW2 1062   0.320   1.397   2.887 -1.0830 -2.9171  0.2228
  355SOL     OW 1063   0.693   1.554   0.593 -0.2804 -0.6709 -0.5403
  355SOL    HW1 1064   0.687   1.506   0.685  1.3838  1.7239 -1.0064
  355SOL    HW2 1065   0.638   1.505   0.517 -0.8815  1.4313 -0.3511
  356SOL     OW 1066   0.924   0.299   2.084  0.4077  0.3516  0.7241
  356SOL    HW1 1067   1.001   0.229   2.090  0.8864  0.3257  1.4585
  356SOL    HW2 1068   0.859   0.280   2.002 -0.2956 -1.6261  2.1579
  357SOL     OW 1069   1.028   1.360   0.252  0.1788  0.3272 -0.5215
  357SOL    HW1 1070   1.090   1.391   0.177 -1.0198 -2.6801 -1.9677
  357SOL    HW2 1071   1.048   1.260   0.268  0.2890  2.5936 -1.9083
  358SOL     OW 1072   1.693   1.459   0.537 -0.1599 -0.4300 -0.2903
  358SOL    HW1 1073   1.645   1.425   0.623  2.7135  0.9086 -1.8589
  358SOL    HW2 1074   1.643   1.444   0.447 -0.4766  1.9249  1.4687
  359SOL     OW 1075   1.617   2.590   0.276 -0.7145 -0.5749 -0.8041
  359SOL    HW1 1076   1.580   2.513   0.216  0.3462 -1.0122 -1.9454
  359SOL    HW2 1077   1.547   2.636   0.334 -1.6254 -2.4447 -2.0485
  360SOL     OW 1078   0.812   0.448   0.585 -0.3419 -0.4291  0.0264
  360SOL    HW1 1079   0.715   0.487   0.602  0.4247 -0.1935  0.9294
  360SOL    HW2 1080   0.815   0.352   0.613  1.1172  2.5163 -0.7480
  361SOL     OW 1081   1.371   1.325   0.609 -0.1108  0.0843  0.4109
  361SOL    HW1 1082   1.388   1.315   0.714  0.3965 -0.0350  0.1422
  361SOL    HW2 1083   1.283   1.372   0.590 -0.0253 -0.0642 -0.0521
  362SOL     OW 1084   1.350   1.829   0.727  0.0639  0.0313 -0.3572
  362SOL    HW1 1085   1.375   1.767   0.804 -1.5625  1.5180 -0.0816
  362SOL    HW2 1086   1.365   1.784   0.636 -2.0318 -0.7953  0.5058
  363SOL     OW 1087   1.304   1.310   2.099  0.2151 -0.0030 -0.3330
  363SOL    HW1 1088   1.377   1.364   2.047  0.9606  2.7985  0.3065
  363SOL    HW2 1089   1.227   1.369   2.133 -1.5439 -1.5305  0.7025
  364SOL     OW 1090   0.539   2.375   2.045  0.0517 -0.0857 -0.4160
  364SOL    HW1 1091   0.441   2.355   2.016 -0.8783 -2.6295 -0.1193
  364SOL    HW2 1092   0.587   2.446   1.986  0.4878  1.7508  1.5141
  365SOL     OW 1093   0.934   1.955   1.374 -0.3379  0.0561  0.7657
  365SOL    HW1 1094   0.834   1.950   1.360 -0.0688  1.0777  2.0898
  365SOL    HW2 1095   0.984   1.973   1.286 -3.6354 -2.5382 -2.5376
  366SOL     OW 1096   2.796   1.951   0.277 -0.5966 -0.3168 -0.7388
  366SOL    HW1 1097   2.717   1.886   0.282 -0.1442  0.0457 -0.2805
  366SOL    HW2 1098   2.886   1.901   0.294 -2.8663  1.8174  0.2067
  367SOL     OW 1099   0.885   1.179   0.008 -0.1721 -0.9140 -0.3233
  367SOL    HW1 1100   0.884   1.107   0.085  2.2152  1.6702  0.7846
  367SOL    HW2 1101   0.977   1.228  -0.005 -1.9681 -1.8910 -1.1939
  368SOL     OW 1102   1.458   0.594   0.562  0.1859 -0.3299 -0.0856
  368SOL    HW1 1103   1.350   0.603   0.545 -1.4447 -2.2541  2.0352
  368SOL    HW2 1104   1.523   0.617   0.483 -0.3417 -1.3388 -0.1517
  369SOL     OW 1105   0.399   1.624   0.153  0.5999 -1.2721 -0.0853
  369SOL    HW1 1106   0.433   1.694   0.219 -1.4191 -1.5314 -2.1590
  369SOL    HW2 1107   0.309   1.583   0.192 -2.2615  0.6050 -0.0380
  370SOL     OW 1108   0.381   2.192   1.084  0.4514 -0.5468  0.1043
  370SOL    HW1 1109   0.418   2.282   1.042 -1.2371  3.3757 -1.1489
  370SOL    HW2 1110   0.297   2.158   1.035 -0.5378  1.1901  1.0994
  371SOL     OW 1111   2.923   2.236   2.725  0.0778 -0.5152  0.5755
  371SOL    HW1 1112   2.987   2.152   2.728 -0.2851 -0.7743  2.3110
  371SOL    HW2 1113   2.945   2.301   2.801  1.2764 -1.0104 -1.6501
  372SOL     OW 1114   1.040   2.077   1.144  0.4682 -0.7986  0.1379
  372SOL    HW1 1115   0.981   2.108   1.066  0.1628 -0.3482 -1.0969
  372SOL    HW2 1116   1.105   2.152   1.174  0.7071 -0.4037 -2.4966
  373SOL     OW 1117   1.898   1.939   0.995  0.0200  0.3107  0.3712
  373SOL    HW1 1118   1.972   2.012   0.993  0.8655 -0.6912  2.3571
  373SOL    HW2 1119   1.813   1.985   0.960  2.2661 -2.1430  1.4675
  374SOL     OW 1120   1.871   0.413   0.576 -0.2425 -0.3735 -0.7975
  374SOL    HW1 1121   1.862   0.356   0.669  3.0164  1.2296  2.4175
  374SOL    HW2 1122   1.957   0.401   0.522 -0.8646  1.1109  0.9440
  375SOL     OW 1123   2.410   2.210   1.080  0.2753 -0.4198  0.5206
  375SOL    HW1 1124   2.445   2.282   1.017 -1.1715  0.5363 -1.1288
  375SOL    HW2 1125   2.478   2.184   1.151  0.2964 -0.9914 -2.1885
  376SOL     OW 1126   0.011   0.649   1.400 -0.4881  0.1587  0.1776
  376SOL    HW1 1127   0.068   0.683   1.478  0.6858 -0.6372 -1.6816
  376SOL    HW2 1128  -0.087   0.655   1.424  4.5051 -1.7308 -0.1554
  377SOL     OW 1129   2.174   2.882   0.241  0.0278  0.9179 -0.6535
  377SOL    HW1 1130   2.204   2.976   0.271  2.5884  0.4425 -0.0932
  377SOL    HW2 1131   2.249   2.809   0.251 -3.2079 -0.7049  1.0054
  378SOL     OW 1132   1.801   1.895   2.444  0.5646 -0.0183 -0.1920
  378SOL    HW1 1133   1.871   1.908   2.365 -0.8385  1.6500 -1.3634
  378SOL    HW2 1134   1.768   1.797   2.457 -1.2567  1.6954  1.6150
  379SOL     OW 1135   0.727   0.136   2.834  0.6368 -0.4940 -0.7289
  379SOL    HW1 1136   0.758   0.055   2.773 -0.3558 -2.2184  1.6962
  379SOL    HW2 1137   0.736   0.222   2.785 -0.3691 -2.3537  2.0104
  380SOL     OW 1138   1.560   1.159   0.502  0.0303 -0.2201 -0.3065
  380SOL    HW1 1139   1.478   1.223   0.512 -2.4891  2.7337  0.4103
  380SOL    HW2 1140   1.543   1.057   0.478 -1.5690 -0.0861 -0.3165
  381SOL     OW 1141   1.291   1.211   1.552 -0.5611  0.3594 -0.6442
  381SOL    HW1 1142   1.327   1.159   1.469 -1.4278 -1.9057  3.6220
  381SOL    HW2 1143   1.371   1.248   1.606 -0.1440  0.3404 -0.9136
  382SOL     OW 1144   1.817   0.881   0.260  0.2040 -0.0973  0.1615
  382SOL    HW1 1145   1.818   0.853   0.159 -0.8961 -2.2232  0.4455
  382SOL    HW2 1146   1.907   0.864   0.309  0.6839 -0.2664  2.7335
  383SOL     OW 1147   2.544   1.010   1.473 -0.6929 -0.2734 -0.2354
  383SOL    HW1 1148   2.450   0.970   1.465 -0.2022 -0.5930 -1.1160
  383SOL    HW2 1149   2.606   0.983   1.397  2.2822 -0.0310 -1.9420
  384SOL     OW 1150   0.874   2.285   0.188  0.1313  0.5093  0.4080
  384SOL    HW1 1151   0.807   2.365   0.193  1.1416 -0.7508  1.7514
  384SOL    HW2 1152   0.876   2.232   0.276  1.9177  2.0794  0.8652
  385SOL     OW 1153   2.965   2.064   1.691 -0.2800  0.5831  0.1283
  385SOL    HW1 1154   3.050   2.121   1.664  3.0027 -0.4336 -2.6736
  385SOL    HW2 1155   2.995   1.962   1.692 -0.4306  0.2379 -2.5108
  386SOL     OW 1156   0.488   1.054   0.460 -0.1303 -0.3244 -0.5199
  386SOL    HW1 1157   0.471   0.948   0.467 -1.5437  0.5613 -2.1082
  386SOL    HW2 1158   0.405   1.103   0.430 -1.6997 -1.8045 -0.2444
  387SOL     OW 1159   0.977   0.362   1.698  0.9405  0.4938 -0.5037
  387SOL    HW1 1160   1.015   0.461   1.694  2.8661  1.2446  2.6069
  387SOL    HW2 1161   0.943   0.331   1.606  1.9628  0.8348  0.6962
  388SOL     OW 1162   1.222   2.686   1.727  0.5046 -0.5472 -0.4929
  388SOL    HW1 1163   1.272   2.712   1.641 -0.1445  0.9677  1.9139
  388SOL    HW2 1164   1.280   2.621   1.786  0.8130  0.7001 -3.7609
  389SOL     OW 1165   0.137   2.965   1.371  0.3932 -0.3588 -0.1153
  389SOL    HW1 1166   0.046   2.952   1.322 -0.0714 -1.4582 -0.2249
  389SOL    HW2 1167   0.192   2.879   1.368 -0.5841  1.4468  1.9357
  390SOL     OW 1168   1.045   0.945   1.379 -0.1388 -0.3994  0.3945
  390SOL    HW1 1169   1.120   0.946   1.456 -0.7517 -1.9063  3.0259
  390SOL    HW2 1170   1.023   1.039   1.347  0.2632 -1.5365  0.4170
  391SOL     OW 1171   2.170   1.150   1.085 -0.0660 -0.4626 -0.2507
  391SOL    HW1 1172   2.096   1.085   1.126  1.3114 -2.6051 -0.3697
  391SOL    HW2 1173   2.207   1.112   0.996 -0.0262 -0.1416  3.0933
  392SOL     OW 1174   0.902   2.639   0.018 -0.0475  0.2630  0.3087
  392SOL    HW1 1175   0.966   2.568  -0.007  0.1216  0.8537  0.0404
  392SOL    HW2 1176   0.818   2.611   0.075  0.0213 -0.4529 -0.0592
  393SOL     OW 1177   0.288   0.590   2.018 -0.5350  0.4029  0.2382
  393SOL    HW1 1178   0.192   0.546   2.037 -1.8657  0.1283  2.2658
  393SOL    HW2 1179   0.331   0.562   1.927 -4.1264 -1.0626  0.2726
  394SOL     OW 1180   3.041   1.998   2.767 -0.2328 -0.3229 -0.1880
  394SOL    HW1 1181   3.147   1.990   2.766  3.1998 -0.4545 -0.2626
  394SOL    HW2 1182   2.994   1.937   2.699  1.4734  1.8837 -0.4461
  395SOL     OW 1183   1.620   1.952   0.568 -0.0017 -0.0154 -0.8434
  395SOL    HW1 1184   1.676   1.864   0.563  1.6067  0.9001 -0.3848
  395SOL    HW2 1185   1.599   1.979   0.666 -2.1931 -0.9528  0.0229
  396SOL     OW 1186   2.829   1.809   1.304 -0.0571  0.1461 -0.4611
  396SOL    HW1 1187   2.771   1.724   1.312  0.5472  0.3492  2.9056
  396SOL    HW2 1188   2.849   1.850   1.396  2.0489  0.4299  0.8757
  397SOL     OW 1189   1.038   2.236   0.509  0.2023 -0.5022 -0.2046
  397SOL    HW1 1190   0.943   2.201   0.543 -0.7666 -0.2908  1.6370
  397SOL    HW2 1191   1.065   2.331   0.542  1.4842 -2.0220 -1.4228
  398SOL     OW 1192   2.135   0.011   1.078 -0.5196  0.5667  0.2507
  398SOL    HW1 1193   2.057  -0.039   1.126 -0.2587 -1.0888  0.4418
  398SOL    HW2 1194   2.120   0.112   1.065 -0.6815 -0.0363  1.0034
  399SOL     OW 1195   3.049   2.470   2.563 -0.1536  0.0462  0.0449
  399SOL    HW1 1196   2.945   2.494   2.554 -1.0170  0.4246 -2.3204
  399SOL    HW2 1197   3.060   2.379   2.605 -1.7652  0.8529 -2.6793
  400SOL     OW 1198   0.768   1.684   1.379 -0.4426  0.4368 -0.4599
  400SOL    HW1 1199   0.680   1.696   1.438 -3.0942 -1.4721 -1.0734
  400SOL    HW2 1200   0.756   1.736   1.291 -0.5651  1.9032  0.7117
  401SOL     OW 1201   1.882   0.154   1.193  0.3035  0.8650 -0.2637
  401SOL    HW1 1202   1.930   0.191   1.273  1.6494  1.3480  0.1450
  401SOL    HW2 1203   1.782   0.133   1.213 -2.7133  0.4266 -1.3518
  402SOL     OW 1204   1.344   0.173   3.051  0.3479  0.6213  0.7405
  402SOL    HW1 1205   1.417   0.141   2.983  0.5886  2.3222 -0.1227
  402SOL    HW2 1206   1.307   0.264   3.015 -0.2681  0.3375 -1.3516
  403SOL     OW 1207   2.279   1.762   0.911 -0.1953 -0.0632  0.1323
  403SOL    HW1 1208   2.373   1.794   0.880 -0.4226  1.1721 -0.3229
  403SOL    HW2 1209   2.238   1.836   0.963 -1.9547 -0.7299 -0.8082
  404SOL     OW 1210   0.202   2.442   2.796 -0.1119  0.1114 -0.3567
  404SOL    HW1 1211   0.302   2.433   2.763  2.7138 -0.3663  0.3808
  404SOL    HW2 1212   0.195   2.535   2.841 -1.7427  3.5182 -1.8048
  405SOL     OW 1213   0.100   2.455   0.738 -0.0119  0.2976 -0.4416
  405SOL    HW1 1214   0.129   2.358   0.695  1.5663 -2.6939  1.3212
  405SOL    HW2 1215   0.161   2.536   0.705  0.2113  4.3322  0.6542
  406SOL     OW 1216   0.054   1.572   3.068  0.1068 -0.1095  0.3664
  406SOL    HW1 1217   0.118   1.517   3.006 -2.4013  0.7414  0.9756
  406SOL    HW2 1218   0.086   1.574   3.167  3.9939  0.0202  0.8389
  407SOL     OW 1219   1.543   0.944   0.973 -0.0971 -0.4578  0.1257
  407SOL    HW1 1220   1.517   0.916   0.878  0.0267  3.1406  2.6113
  407SOL    HW2 1221   1.468   1.001   1.022  0.1796  3.4663 -0.9321
  408SOL     OW 1222   1.602   2.443   0.973  0.0588 -0.3004  0.0576
  408SOL    HW1 1223   1.641   2.414   0.882 -2.0232  1.7320  0.5328
  408SOL    HW2 1224   1.531   2.521   0.965  0.4668  0.8070  0.5921
  409SOL     OW 1225   0.676   0.754   0.767 -0.0753  0.0417 -0.0882
  409SOL    HW1 1226   0.580   0.782   0.739  0.6214 -1.0594  1.5927
  409SOL    HW2 1227   0.666   0.668   0.825  0.3228 -0.1935  0.5521
  410SOL     OW 1228   1.248   2.031   1.376 -0.5048 -0.4551  0.3930
  410SOL    HW1 1229   1.312   1.975   1.440  2.7888  0.3497  2.5539
  410SOL    HW2 1230   1.149   2.004   1.394  1.7228  0.9603  0.6047
  411SOL     OW 1231   2.609   1.841   2.993  0.0830  0.2693 -0.6340
  411SOL    HW1 1232   2.645   1.935   3.021 -1.9558  2.0758 -1.8634
  411SOL    HW2 1233   2.578   1.839   2.894 -4.5860  0.8305  0.6303
  412SOL     OW 1234   1.524   2.476   2.135  0.0011 -0.4717 -0.0663
  412SOL    HW1 1235   1.611   2.466   2.196  1.2111  4.2901  0.3172
  412SOL    HW2 1236   1.439   2.479   2.198 -0.5629 -1.6841  0.1777
  413SOL     OW 1237   0.000   0.193   2.903  0.3283 -0.2405 -0.0751
  413SOL    HW1 1238  -0.032   0.129   2.976 -0.0788  0.4758  0.2975
  413SOL    HW2 1239   0.089   0.241   2.923 -2.3918  1.3973  3.1022
  414SOL     OW 1240   1.853   1.532   1.201 -0.4214 -0.5306  0.3602
  414SOL    HW1 1241   1.821   1.630   1.209 -0.2951 -2.8905  1.1933
  414SOL    HW2 1242   1.849   1.493   1.103 -1.2374 -1.7449 -1.5732
  415SOL     OW 1243   0.349   2.274   0.707 -0.4542 -0.4273 -0.1567
  415SOL    HW1 1244   0.360   2.352   0.771 -5.3965 -1.0701  0.2188
  415SOL    HW2 1245   0.250   2.244   0.697 -0.3175 -0.0138  3.2908
  416SOL     OW 1246   0.367   1.028   1.052 -0.0384  0.5311 -0.0327
  416SOL    HW1 1247   0.323   0.992   0.966 -0.5954 -0.1547  3.3186
  416SOL    HW2 1248   0.469   1.022   1.046 -1.4523 -0.5119  0.2249
  417SOL     OW 1249   2.292   2.383   2.040  0.1477  0.1163  0.0434
  417SOL    HW1 1250   2.363   2.310   2.064  0.8644 -1.1739 -1.1161
  417SOL    HW2 1251   2.205   2.334   2.019 -2.4105 -0.2382  2.9488
  418SOL     OW 1252   1.050   0.568   1.331 -0.1431 -0.3878 -0.0682
  418SOL    HW1 1253   0.964   0.531   1.281 -4.9129 -1.3178  2.1962
  418SOL    HW2 1254   1.129   0.590   1.272  2.7636 -2.5710 -0.7228
  419SOL     OW 1255   0.942   0.509   2.958  0.0005  0.5597 -0.0659
  419SOL    HW1 1256   0.903   0.470   2.872  0.2281  2.1353  0.6637
  419SOL    HW2 1257   0.962   0.610   2.969  2.1220 -4.0074  2.5667
  420SOL     OW 1258   0.094   2.244   0.567  0.1094 -0.6750  0.1315
  420SOL    HW1 1259   0.089   2.309   0.488  2.9944  1.8152 -0.1134
  420SOL    HW2 1260   0.026   2.165   0.552 -0.6388 -1.6659 -2.5172
  421SOL     OW 1261   0.332   2.945   0.596  0.0782  0.1255 -0.1160
  421SOL    HW1 1262   0.277   2.946   0.684  0.9403 -0.0414 -0.1335
  421SOL    HW2 1263   0.398   3.022   0.587  0.1800 -1.3342 -0.3931
  422SOL     OW 1264   0.996   2.619   1.043 -0.1509  0.6721  0.4149
  422SOL    HW1 1265   1.076   2.651   0.985  3.0672  0.2300 -0.0890
  422SOL    HW2 1266   1.009   2.626   1.144  1.5727 -3.1962 -1.0096
  423SOL     OW 1267   0.150   0.736   1.171  0.2285  0.0586 -0.4717
  423SOL    HW1 1268   0.117   0.662   1.238 -2.4464 -3.0580  1.0511
  423SOL    HW2 1269   0.087   0.818   1.170 -0.0742  2.0002 -1.7976
  424SOL     OW 1270   1.144   2.184   2.045  0.3696 -0.7621 -0.2154
  424SOL    HW1 1271   1.131   2.284   2.030  1.7175 -1.6248 -0.7030
  424SOL    HW2 1272   1.126   2.157   2.145 -1.1310 -3.6612 -0.4232
  425SOL     OW 1273   1.958   1.347   1.008  0.0492  0.5545 -0.7339
  425SOL    HW1 1274   1.990   1.302   1.094  0.3329  1.5878 -1.2045
  425SOL    HW2 1275   2.013   1.438   1.003  0.1526 -0.5441 -1.4672
  426SOL     OW 1276   1.456   1.599   1.303 -0.5631  0.8094 -0.8500
  426SOL    HW1 1277   1.437   1.682   1.253  2.7786 -1.8778 -0.4708
  426SOL    HW2 1278   1.393   1.578   1.387 -0.5279  1.5838  1.8108
  427SOL     OW 1279   1.906   2.332   2.064 -0.1477 -0.2902 -0.9444
  427SOL    HW1 1280   1.935   2.275   2.140  1.0014 -0.5054 -0.7313
  427SOL    HW2 1281   1.918   2.436   2.084 -1.8244  1.4762  0.8098
  428SOL     OW 1282   0.811   0.003   0.127 -0.0064 -0.0086 -0.3514
  428SOL    HW1 1283   0.823   0.100   0.098  1.8731 -1.5907  1.0523
  428SOL    HW2 1284   0.897  -0.046   0.127 -2.1366  2.9274 -0.4833
  429SOL     OW 1285   1.350   0.124   0.223 -0.3531  0.3124  0.0461
  429SOL    HW1 1286   1.448   0.120   0.259 -2.1563  1.6976 -0.1274
  429SOL    HW2 1287   1.340   0.136   0.120 -4.1226 -2.0624  0.2451
  430SOL     OW 1288   2.876   1.393   0.290  0.4082 -0.0588  0.1928
  430SOL    HW1 1289   2.910   1.462   0.228 -1.2468 -3.0780  2.5957
  430SOL    HW2 1290   2.864   1.438   0.383  1.9222 -0.6563  1.5200
  431SOL     OW 1291   2.082   1.573   0.975 -0.3924  0.0693  0.0970
  431SOL    HW1 1292   2.168   1.582   0.924  0.4557  0.2149  0.5624
  431SOL    HW2 1293   1.996   1.605   0.923  1.1028 -2.4064 -0.1789
  432SOL     OW 1294   2.947   2.176   1.180 -0.2350 -0.5016  0.4807
  432SOL    HW1 1295   2.949   2.075   1.180  1.9745 -0.2855 -0.6503
  432SOL    HW2 1296   3.008   2.225   1.249  2.0021 -0.5322 -0.5933
  433SOL     OW 1297   1.849   0.284   0.816 -0.3309 -0.0343  0.5536
  433SOL    HW1 1298   1.761   0.256   0.846  4.4547 -0.1862  0.0159
  433SOL    HW2 1299   1.927   0.278   0.880  2.6437  1.2063  1.9920
  434SOL     OW 1300   1.557   0.349   0.691  0.2690  0.2781 -0.3019
  434SOL    HW1 1301   1.526   0.436   0.648 -0.6105 -2.8017 -1.5860
  434SOL    HW2 1302   1.548   0.359   0.795  2.0920 -0.8141  0.3068
  435SOL     OW 1303   1.512   1.481   2.002  0.7835 -0.3277 -0.3677
  435SOL    HW1 1304   1.508   1.526   2.097  3.8233  2.4456  1.8286
  435SOL    HW2 1305   1.522   1.547   1.925 -0.7255 -0.2695  0.2253
  436SOL     OW 1306   1.709   2.742   2.246  0.2867  0.3655 -0.3295
  436SOL    HW1 1307   1.693   2.810   2.328 -0.6095  0.2038  1.7667
  436SOL    HW2 1308   1.712   2.645   2.276  1.5098 -1.5706 -1.3706
  437SOL     OW 1309   1.120   2.941   0.916 -0.0641  0.3390  0.3210
  437SOL    HW1 1310   1.035   2.994   0.886  0.1032  1.3535  1.6072
  437SOL    HW2 1311   1.113   2.916   1.017 -0.0438  0.2006 -1.0738
  438SOL     OW 1312   1.010   2.642   1.313 -0.7547 -0.4932  0.3567
  438SOL    HW1 1313   1.093   2.706   1.327  2.4320  3.0614  1.3333
  438SOL    HW2 1314   1.029   2.548   1.352  3.4857 -0.7264 -0.7713
  439SOL     OW 1315   0.701   1.799   1.147 -0.1007 -0.4216 -0.2558
  439SOL    HW1 1316   0.714   1.868   1.072 -0.1879 -1.2895 -0.7848
  439SOL    HW2 1317   0.600   1.782   1.163  0.6891  0.7045 -0.2425
  440SOL     OW 1318   1.065   2.443   1.939 -0.1295  0.3469  0.1659
  440SOL    HW1 1319   1.012   2.489   1.865 -0.4355 -0.2039  1.7549
  440SOL    HW2 1320   1.167   2.458   1.929  1.7523 -1.9032  0.4097
  441SOL     OW 1321   0.457   2.724   1.505 -0.5419 -0.1367  0.6331
  441SOL    HW1 1322   0.511   2.635   1.520 -2.4520  0.8935  2.6012
  441SOL    HW2 1323   0.385   2.708   1.432 -2.9051  0.5936 -1.8301
  442SOL     OW 1324   2.262   0.744   2.491 -0.6033 -0.1172 -0.1000
  442SOL    HW1 1325   2.217   0.653   2.513 -0.9979  1.1789 -1.2689
  442SOL    HW2 1326   2.203   0.830   2.493 -0.4069 -0.0366 -0.7163
  443SOL     OW 1327   1.192   2.727   2.179  0.0254 -0.4848 -0.9540
  443SOL    HW1 1328   1.226   2.780   2.261 -1.7020 -0.6395  0.7289
  443SOL    HW2 1329   1.225   2.633   2.189  0.6283  1.0139  1.0505
  444SOL     OW 1330   1.068   1.342   1.565  0.3479 -0.1489  0.3556
  444SOL    HW1 1331   1.167   1.308   1.567  2.4343  1.9409  0.2614
  444SOL    HW2 1332   1.053   1.444   1.576  1.7094  0.4281 -1.9265
  445SOL     OW 1333   3.083   2.338   1.935 -0.1008  0.8257  0.1236
  445SOL    HW1 1334   3.092   2.431   1.891  1.4092  0.1690 -0.9262
  445SOL    HW2 1335   2.990   2.320   1.980  0.5072 -0.3169  0.6788
  446SOL     OW 1336   0.170   1.913   2.353  0.6813  0.1342 -0.3603
  446SOL    HW1 1337   0.110   1.991   2.386 -4.8939 -0.2468 -0.3921
  446SOL    HW2 1338   0.133   1.876   2.263  0.1850 -0.4153 -1.2545
  447SOL     OW 1339   1.239   1.701   1.957 -0.0554 -0.1624  0.0248
  447SOL    HW1 1340   1.186   1.769   1.901 -0.7802 -1.9850  0.2116
  447SOL    HW2 1341   1.318   1.751   2.005 -1.7541  2.2902  3.3278
  448SOL     OW 1342   0.140   1.498   2.014 -0.4727 -0.8156 -0.4749
  448SOL    HW1 1343   0.144   1.590   1.968 -1.2799 -1.7975 -1.7047
  448SOL    HW2 1344   0.120   1.509   2.121  2.2638 -2.3174  4.1940
  449SOL     OW 1345   2.016   2.996   0.837 -0.4192  0.5782  0.1723
  449SOL    HW1 1346   2.070   3.039   0.914  1.0677 -1.1314  0.3313
  449SOL    HW2 1347   1.998   2.899   0.855  1.7069 -0.9073  1.6918
  450SOL     OW 1348   2.272   1.354   0.776 -0.8192  0.0473 -0.0713
  450SOL    HW1 1349   2.258   1.262   0.827 -1.1431 -3.8875  1.7089
  450SOL    HW2 1350   2.203   1.357   0.698  0.0098 -3.3724 -1.7251
  451SOL     OW 1351   1.444   0.028   1.485 -0.1989 -0.2045  0.5598
  451SOL    HW1 1352   1.362   0.087   1.489 -1.6725 -2.2156 -1.5250
  451SOL    HW2 1353   1.454  -0.028   1.572 -1.1374  1.2360  0.2901
  452SOL     OW 1354   2.629   2.294   2.223 -0.2370  0.2105  0.1962
  452SOL    HW1 1355   2.601   2.388   2.248  1.7369 -0.5690  2.2882
  452SOL    HW2 1356   2.671   2.241   2.300 -0.5551 -1.7473  0.2861
  453SOL     OW 1357   2.438   2.641   3.066 -0.1563 -0.6843 -0.3675
  453SOL    HW1 1358   2.352   2.697   3.097 -1.6473  0.4025 -0.3841
  453SOL    HW2 1359   2.413   2.575   2.989 -0.2058 -0.7311 -2.0984
  454SOL     OW 1360   0.966   1.113   2.125  0.1464  0.0777  0.3327
  454SOL    HW1 1361   0.966   1.182   2.052  1.8754  1.3344  2.3950
  454SOL    HW2 1362   1.055   1.065   2.136 -0.5716 -0.6581 -1.4568
  455SOL     OW 1363   0.728   2.663   2.862  0.1644 -0.0760  0.0666
  455SOL    HW1 1364   0.819   2.708   2.886  0.0975  2.0002  0.0799
  455SOL    HW2 1365   0.694   2.600   2.933  2.1012  2.9144 -1.7651
  456SOL     OW 1366   0.523   1.807   0.331  0.0772 -0.5452 -0.0795
  456SOL    HW1 1367   0.615   1.756   0.335  1.0948  2.1016 -3.9446
  456SOL    HW2 1368   0.542   1.906   0.328 -0.1234 -2.1653  1.3117
  457SOL     OW 1369   0.335   2.643   0.744 -0.2829 -0.0971  0.0258
  457SOL    HW1 1370   0.294   2.665   0.651 -1.0417 -2.1182  0.8014
  457SOL    HW2 1371   0.433   2.676   0.767 -1.0827 -0.9638  0.8547
  458SOL     OW 1372   2.989   2.970   1.249 -0.0253  0.2251 -0.0122
  458SOL    HW1 1373   2.992   3.075   1.257  2.2844 -1.3310  4.1861
  458SOL    HW2 1374   2.964   2.930   1.156 -4.7801  2.4638  2.3583
  459SOL     OW 1375   2.114   2.550   0.926 -1.1251 -0.3675  0.4281
  459SOL    HW1 1376   2.118   2.635   0.988 -2.4619 -1.3656 -1.4817
  459SOL    HW2 1377   2.208   2.539   0.876 -0.0867  1.6409  1.5452
  460SOL     OW 1378   1.127   1.933   2.937 -0.4454 -0.1103 -0.2829
  460SOL    HW1 1379   1.150   2.028   2.897 -1.0761  0.5940  1.7632
  460SOL    HW2 1380   1.215   1.875   2.964  1.3242 -1.6505 -3.1253
  461SOL     OW 1381   0.465   2.121   2.682 -0.2464 -0.4441  0.0310
  461SOL    HW1 1382   0.410   2.044   2.634 -0.4861 -2.6226 -0.3158
  461SOL    HW2 1383   0.532   2.076   2.754  1.7217  0.2712  0.2827
  462SOL     OW 1384   0.937   1.219   1.841  0.0367  0.2882 -0.3406
  462SOL    HW1 1385   0.982   1.135   1.799 -1.0584 -2.0762 -0.7996
  462SOL    HW2 1386   0.921   1.296   1.781  1.3573 -4.5404  2.6258
  463SOL     OW 1387   0.441   0.786   0.620  0.0228 -0.1669 -0.0456
  463SOL    HW1 1388   0.496   0.708   0.582 -2.2398  0.2712  1.5765
  463SOL    HW2 1389   0.339   0.787   0.589  1.7630 -2.3031 -0.7377
  464SOL     OW 1390   0.585   2.234   2.263 -0.4493 -0.2258 -0.1772
  464SOL    HW1 1391   0.550   2.303   2.337 -2.9158  2.4136 -0.2250
  464SOL    HW2 1392   0.574   2.280   2.170  0.9492 -1.3566 -1.5635
  465SOL     OW 1393   0.248   0.930   0.847 -0.4334  0.0955  0.1011
  465SOL    HW1 1394   0.166   0.981   0.805  0.6760 -1.5808 -1.8946
  465SOL    HW2 1395   0.221   0.831   0.874 -0.1788 -0.3663  0.0163
  466SOL     OW 1396   1.382   1.109   1.121  0.1915 -0.0904 -0.6201
  466SOL    HW1 1397   1.415   1.203   1.154  2.0426  1.1890 -2.1686
  466SOL    HW2 1398   1.296   1.115   1.066  2.4643 -2.0905 -0.1708
  467SOL     OW 1399   0.466   0.364   2.351 -0.2014 -0.4146 -0.2077
  467SOL    HW1 1400   0.447   0.447   2.409 -1.2524  0.2632  1.0158
  467SOL    HW2 1401   0.448   0.277   2.406 -0.6060  0.2689 -0.6697
  468SOL     OW 1402   0.457   2.278   1.662  0.2462 -0.3055 -0.2259
  468SOL    HW1 1403   0.459   2.358   1.725  1.3424 -0.1714 -0.6177
  468SOL    HW2 1404   0.416   2.293   1.567  0.1084 -0.3327  0.6928
  469SOL     OW 1405   1.510   1.355   1.146  0.5833 -0.5749 -1.1451
  469SOL    HW1 1406   1.604   1.311   1.131  0.8951  1.0701 -0.3155
  469SOL    HW2 1407   1.525   1.434   1.212  1.0472  0.5983  2.3931
  470SOL     OW 1408   3.022   1.685   0.728 -0.1055 -0.0500  0.0155
  470SOL    HW1 1409   3.073   1.775   0.719  0.5256 -1.6677  0.1695
  470SOL    HW2 1410   2.972   1.685   0.819  1.3100 -0.9599 -2.4925
  471SOL     OW 1411   2.641   1.320   2.126  0.7547 -0.4604 -0.1148
  471SOL    HW1 1412   2.614   1.246   2.196  0.5354 -1.2893  0.8832
  471SOL    HW2 1413   2.709   1.392   2.161  2.2245 -1.8943 -1.7704
  472SOL     OW 1414   1.101   2.434   3.060  0.0121  0.2389  0.3475
  472SOL    HW1 1415   1.143   2.401   3.149  2.2011 -0.2112  0.6449
  472SOL    HW2 1416   1.046   2.361   3.009 -0.0103  0.6171  0.8121
  473SOL     OW 1417   1.112   1.554   0.913 -0.2650 -0.0077 -0.2577
  473SOL    HW1 1418   1.011   1.563   0.937  2.6638 -1.7878  1.3893
  473SOL    HW2 1419   1.167   1.513   0.988  1.8506  0.9691  0.2164
  474SOL     OW 1420   0.825   1.220   0.671  0.2792  0.1047  0.8416
  474SOL    HW1 1421   0.818   1.243   0.571 -1.8242 -0.5398  0.1900
  474SOL    HW2 1422   0.847   1.121   0.682 -3.0846  1.0921  1.9427
  475SOL     OW 1423   2.870   0.112   0.759  0.1943 -0.0209 -0.2910
  475SOL    HW1 1424   2.952   0.133   0.821 -1.3970 -0.2589 -0.8500
  475SOL    HW2 1425   2.779   0.119   0.806  0.8172  0.0569  0.9072
  476SOL     OW 1426   0.910   3.038   1.803 -0.2915  0.2674  0.0937
  476SOL    HW1 1427   0.970   2.977   1.855  0.0538  1.4445 -2.7280
  476SOL    HW2 1428   0.908   3.015   1.705  0.9778  1.2917  1.1207
  477SOL     OW 1429   1.423   0.324   2.451  0.0325 -0.1810 -0.0127
  477SOL    HW1 1430   1.433   0.346   2.552  0.5522 -0.1260 -0.8181
  477SOL    HW2 1431   1.499   0.261   2.419  0.7947  0.1784  0.6256
  478SOL     OW 1432   2.261   1.790   0.222 -0.1182  0.1864 -0.1258
  478SOL    HW1 1433   2.191   1.714   0.197  2.2134 -1.1300  1.4542
  478SOL    HW2 1434   2.356   1.762   0.203  0.7003 -0.4444 -0.9719
  479SOL     OW 1435   1.309   1.030   2.879  0.4054  0.1487 -0.4099
  479SOL    HW1 1436   1.361   1.046   2.793  2.6875  1.0790  0.3106
  479SOL    HW2 1437   1.221   0.989   2.861  0.2924  3.5531  0.0362
  480SOL     OW 1438   2.495   2.324   0.388 -0.7797  0.2630  0.0207
  480SOL    HW1 1439   2.443   2.236   0.411 -1.0497 -1.9218  0.4647
  480SOL    HW2 1440   2.446   2.369   0.312  1.9078 -0.7239 -1.3064
  481SOL     OW 1441   1.105   1.146   0.798  0.6469  0.2191  0.2175
  481SOL    HW1 1442   1.041   1.210   0.748 -1.9642 -0.4410  1.9134
  481SOL    HW2 1443   1.101   1.172   0.899  1.0796  2.0123 -0.5950
  482SOL     OW 1444   1.606   0.345   2.053  0.2866 -0.4927  0.0667
  482SOL    HW1 1445   1.628   0.426   1.990  0.2156  0.1310 -3.1655
  482SOL    HW2 1446   1.688   0.295   2.080 -2.5541  2.4984 -0.5734
  483SOL     OW 1447   0.159   2.337   1.260 -0.0385 -0.5620  0.0757
  483SOL    HW1 1448   0.065   2.333   1.296  2.6504 -1.9440  0.7410
  483SOL    HW2 1449   0.172   2.386   1.167 -1.0769 -0.4031  1.5373
  484SOL     OW 1450   1.717   0.974   1.405  0.2618  0.2159  0.1160
  484SOL    HW1 1451   1.779   0.896   1.375  1.8565 -0.6248 -0.6554
  484SOL    HW2 1452   1.768   1.050   1.451 -0.0485  3.1156 -0.3034
  485SOL     OW 1453   0.685   1.095   1.779 -0.1782  0.2761  0.0146
  485SOL    HW1 1454   0.683   1.104   1.679 -0.3149 -0.7199  2.3536
  485SOL    HW2 1455   0.759   1.160   1.813  2.5110  0.1112  0.0798
  486SOL     OW 1456   0.937   1.988   2.462  0.3714  0.3255 -0.7285
  486SOL    HW1 1457   0.963   1.923   2.535 -1.5292  1.7454 -0.2545
  486SOL    HW2 1458   0.836   2.009   2.474  0.4423 -3.0490 -1.7138
  487SOL     OW 1459   1.695   1.514   0.920 -0.5272  0.1210  0.5873
  487SOL    HW1 1460   1.699   1.434   0.858 -3.1101 -1.4534 -0.0754
  487SOL    HW2 1461   1.765   1.584   0.887  1.5897  2.9070 -1.0430
  488SOL     OW 1462   2.959   0.971   2.216 -0.4614  0.0695  0.2459
  488SOL    HW1 1463   2.982   0.902   2.142  0.4260 -0.6535 -2.1467
  488SOL    HW2 1464   2.979   0.934   2.311 -1.2917  3.7143 -0.6250
  489SOL     OW 1465   2.728   0.283   1.337  0.3428 -0.0757  0.1424
  489SOL    HW1 1466   2.693   0.219   1.410  0.3084 -1.5821 -0.9475
  489SOL    HW2 1467   2.814   0.253   1.299 -3.4540  1.5718 -0.6594
  490SOL     OW 1468   1.431   2.975   2.815 -0.0160  0.2143  0.8121
  490SOL    HW1 1469   1.443   2.869   2.818  0.3171 -1.0989 -2.0061
  490SOL    HW2 1470   1.421   3.025   2.722  0.4468  1.7533 -2.0624
  491SOL     OW 1471   1.852   1.549   2.713  0.5888  0.5165  0.5236
  491SOL    HW1 1472   1.794   1.567   2.792 -1.1489  1.0271 -2.1823
  491SOL    HW2 1473   1.954   1.537   2.728 -2.8933 -1.4619 -0.3903
  492SOL     OW 1474   0.493   2.023   0.765 -0.3936 -0.1937  0.2926
  492SOL    HW1 1475   0.543   2.045   0.853 -0.9387 -0.2879 -0.8731
  492SOL    HW2 1476   0.434   2.103   0.733  1.1334 -1.5990 -0.6235
  493SOL     OW 1477   0.414   1.397   2.067  0.1979 -1.0323 -0.2170
  493SOL    HW1 1478   0.333   1.461   2.089 -0.5375 -1.9788 -2.0872
  493SOL    HW2 1479   0.431   1.325   2.140 -2.5819 -0.4226  0.1560
  494SOL     OW 1480   2.655   2.687   0.155 -0.0601 -0.4088  0.1515
  494SOL    HW1 1481   2.658   2.624   0.238  1.0399  1.1220 -1.2465
  494SOL    HW2 1482   2.578   2.663   0.090 -0.1398 -1.5945 -0.2106
  495SOL     OW 1483   2.734   2.675   2.728 -0.0278  0.0666 -0.2205
  495SOL    HW1 1484   2.741   2.576   2.696 -0.0113 -1.2445 -2.2020
  495SOL    HW2 1485   2.703   2.734   2.651  1.4662 -2.0107  0.1669
  496SOL     OW 1486   2.062   2.173   0.726  0.4956  0.1844  0.5874
  496SOL    HW1 1487   2.083   2.203   0.823 -0.5786  2.4433 -1.3854
  496SOL    HW2 1488   2.080   2.067   0.711  1.9562 -2.3378 -1.3050
  497SOL     OW 1489   0.215   2.967   2.392 -0.1659  0.1968 -0.0827
  497SOL    HW1 1490   0.142   3.017   2.446 -1.6778 -0.9973 -0.4570
  497SOL    HW2 1491   0.263   3.021   2.318  0.5770 -0.3105  2.7445
  498SOL     OW 1492   1.244   1.452   1.139 -0.2035  0.2135 -0.2386
  498SOL    HW1 1493   1.330   1.455   1.200 -0.3025  0.2689 -0.2193
  498SOL    HW2 1494   1.172   1.507   1.185  0.7925 -4.5143 -0.1266
  499SOL     OW 1495   0.826   1.831   0.519  0.4672  0.3820  0.2590
  499SOL    HW1 1496   0.795   1.731   0.527  0.9279  2.6004  0.4351
  499SOL    HW2 1497   0.830   1.872   0.611  0.4872 -0.7645 -1.2453
  500SOL     OW 1498   1.396   2.981   1.694 -0.4155 -0.2795  0.1462
  500SOL    HW1 1499   1.380   3.002   1.793  2.0463  0.7165 -0.9234
  500SOL    HW2 1500   1.447   2.889   1.675  2.7954  1.2339 -0.1104
  501SOL     OW 1501   0.748   1.141   2.278 -0.9733  0.3128 -0.3675
  501SOL    HW1 1502   0.678   1.063   2.282  1.8386 -1.6864  1.2937
  501SOL    HW2 1503   0.821   1.122   2.202  0.8397 -1.3244  0.5605
  502SOL     OW 1504   2.584   0.960   1.732  0.8572  0.2978 -0.2409
  502SOL    HW1 1505   2.565   0.973   1.628 -0.0818 -2.3331  0.8126
  502SOL    HW2 1506   2.554   0.865   1.758  3.3803 -0.8640  0.0947
  503SOL     OW 1507   1.341   0.193   0.594  0.4208 -0.1180 -0.3262
  503SOL    HW1 1508   1.255   0.259   0.586 -0.4753  1.4546 -1.5162
  503SOL    HW2 1509   1.427   0.240   0.636 -0.2323  0.8611  0.2659
  504SOL     OW 1510   2.993   2.335   1.396 -0.2016 -0.1360 -0.5724
  504SOL    HW1 1511   3.003   2.416   1.460 -1.7036  2.1793  1.0393
  504SOL    HW2 1512   2.940   2.264   1.445  0.1008  5.7917 -0.1549
  505SOL     OW 1513   2.279   1.185   1.457 -0.0694  0.5948 -0.0004
  505SOL    HW1 1514   2.252   1.246   1.378 -0.1190  0.6276 -0.4020
  505SOL    HW2 1515   2.356   1.235   1.518  2.6192  0.4794 -0.6383
  506SOL     OW 1516   1.956   0.255   1.780 -1.2758 -0.2282  0.2087
  506SOL    HW1 1517   2.045   0.215   1.767 -0.3571  0.5290 -0.2014
  506SOL    HW2 1518   1.958   0.333   1.850  2.7148 -0.6843 -1.9524
  507SOL     OW 1519   0.499   0.637   2.169 -0.2021  0.1034  0.2905
  507SOL    HW1 1520   0.427   0.626   2.098  0.0769  0.7162  1.1915
  507SOL    HW2 1521   0.569   0.559   2.181  0.1459  0.5749 -1.6939
  508SOL     OW 1522   0.275   1.662   0.889 -0.0099  0.4259 -0.1786
  508SOL    HW1 1523   0.313   1.739   0.834 -1.1158  1.1127 -0.0953
  508SOL    HW2 1524   0.228   1.690   0.979  0.5188  1.8873 -1.1787
  509SOL     OW 1525   1.324   1.191   2.488  0.2007 -0.1085  0.1043
  509SOL    HW1 1526   1.232   1.136   2.479 -4.9504 -0.7465  3.9919
  509SOL    HW2 1527   1.392   1.182   2.415  0.2139 -1.6350  0.0496
  510SOL     OW 1528   1.322   1.973   2.036  0.8329 -0.1530  0.2884
  510SOL    HW1 1529   1.272   2.064   2.027 -1.3127  4.4788 -0.7699
  510SOL    HW2 1530   1.289   1.924   2.122 -0.7709  4.0208  0.6798
  511SOL     OW 1531   3.095   2.649   1.308  0.1846 -0.0530  0.2596
  511SOL    HW1 1532   3.055   2.608   1.224  2.5166 -0.3129  2.0320
  511SOL    HW2 1533   3.056   2.606   1.393  1.7584 -1.3419  2.3514
  512SOL     OW 1534   2.426   0.429   1.384  0.4714 -0.0409 -0.1156
  512SOL    HW1 1535   2.326   0.397   1.385  0.4732 -0.1762 -4.7149
  512SOL    HW2 1536   2.471   0.406   1.296 -0.7589  3.8348  0.7719
  513SOL     OW 1537   2.458   1.988   0.859 -0.1893  0.3649  0.1064
  513SOL    HW1 1538   2.419   2.079   0.832  1.0437 -0.1778 -0.3264
  513SOL    HW2 1539   2.549   1.967   0.809  2.2113  0.3281  1.3580
  514SOL     OW 1540   0.680   2.778   0.379  0.3774 -0.0114 -0.2690
  514SOL    HW1 1541   0.635   2.832   0.302 -0.0364  0.2378  1.3882
  514SOL    HW2 1542   0.696   2.842   0.458 -2.2346 -0.3933 -1.5719
  515SOL     OW 1543   2.006   1.175   2.296 -0.3545  0.2163 -0.2869
  515SOL    HW1 1544   1.963   1.173   2.203  0.9197 -2.3834 -2.4154
  515SOL    HW2 1545   1.953   1.224   2.368 -1.6977 -0.4010  3.8865
  516SOL     OW 1546   0.258   0.268   1.965  0.3179  0.5677 -0.1051
  516SOL    HW1 1547   0.332   0.278   1.896  1.6444  2.7449  0.4405
  516SOL    HW2 1548   0.170   0.228   1.923  1.6123  1.6914 -2.1580
  517SOL     OW 1549   0.362   3.052   1.160 -0.3944  0.4023  0.2540
  517SOL    HW1 1550   0.391   3.149   1.176 -0.6150 -2.2751  0.5048
  517SOL    HW2 1551   0.297   3.030   1.240 -1.4719  0.1979 -0.9168
  518SOL     OW 1552   2.153   0.048   1.786 -0.3853  1.0838  0.2602
  518SOL    HW1 1553   2.234   0.110   1.817  2.1149  0.6768  3.0844
  518SOL    HW2 1554   2.187  -0.043   1.758 -1.0570  1.1041  0.1253
  519SOL     OW 1555   2.402   2.204   2.594  0.2374 -0.4704 -0.1938
  519SOL    HW1 1556   2.307   2.185   2.629 -0.9268 -0.2174 -2.7454
  519SOL    HW2 1557   2.418   2.306   2.606  1.5565 -0.0842  2.0717
  520SOL     OW 1558   1.779   2.883   1.813  0.3481  0.5412 -0.3848
  520SOL    HW1 1559   1.698   2.841   1.868  0.3946  2.8706  0.3088
  520SOL    HW2 1560   1.855   2.812   1.799 -3.8735  0.3934 -2.9693
  521SOL     OW 1561   0.572   0.085   2.110  0.0169  0.4789 -0.0700
  521SOL    HW1 1562   0.483   0.058   2.148  2.5134  2.4910 -0.8147
  521SOL    HW2 1563   0.640   0.092   2.187  0.1586 -0.2270 -1.6314
  522SOL     OW 1564   0.152   1.905   1.513 -0.0532 -0.0155 -0.0709
  522SOL    HW1 1565   0.231   1.932   1.570 -0.8969 -0.1362 -0.0372
  522SOL    HW2 1566   0.144   1.963   1.428 -1.5097  0.2235  0.2456
  523SOL     OW 1567   2.207   2.918   1.612 -0.5453 -0.0518 -0.2489
  523SOL    HW1 1568   2.257   2.835   1.567 -1.1508  1.2844  0.4281
  523SOL    HW2 1569   2.103   2.919   1.600 -1.3108  2.4921  0.3521
  524SOL     OW 1570   0.198   2.754   2.809  1.0142 -0.1933  0.7691
  524SOL    HW1 1571   0.144   2.817   2.863  0.5518 -0.7222 -2.5005
  524SOL    HW2 1572   0.300   2.766   2.821 -0.5942 -0.4765  0.0403
  525SOL     OW 1573   2.187   1.907   0.488  0.3577 -0.2815 -0.4465
  525SOL    HW1 1574   2.165   1.839   0.565 -1.7558  1.5672  0.6335
  525SOL    HW2 1575   2.203   1.863   0.400 -1.7518 -0.1560 -1.8373
  526SOL     OW 1576   0.423   1.499   1.605 -0.3620 -0.1782  0.1130
  526SOL    HW1 1577   0.336   1.452   1.635 -0.8581 -0.1086  0.1542
  526SOL    HW2 1578   0.478   1.439   1.544 -1.6629  0.0603  0.9894
  527SOL     OW 1579   1.129   2.911   1.242  0.3749 -0.1083 -0.3606
  527SOL    HW1 1580   1.224   2.881   1.259 -2.3408 -0.6622 -0.2370
  527SOL    HW2 1581   1.129   3.015   1.228  2.6936  0.8135 -1.3683
  528SOL     OW 1582   1.345   2.412   0.492 -0.6397 -0.3783 -0.4810
  528SOL    HW1 1583   1.400   2.326   0.473 -2.0383 -0.2990  1.1785
  528SOL    HW2 1584   1.390   2.474   0.562 -1.2161 -1.4952  0.9945
  529SOL     OW 1585   1.884   1.695   0.842 -0.3640 -0.2266 -0.0798
  529SOL    HW1 1586   1.851   1.712   0.743  2.3926  0.1593  0.2382
  529SOL    HW2 1587   1.882   1.783   0.899 -0.6744  3.2052 -0.8181
  530SOL     OW 1588   0.286   2.423   0.336  0.0394 -0.3870 -0.0328
  530SOL    HW1 1589   0.326   2.509   0.384 -0.1488  2.1132  0.6397
  530SOL    HW2 1590   0.319   2.333   0.372 -2.6971  1.8241 -1.6976
  531SOL     OW 1591   1.808   0.919   1.031  0.0704 -0.7147  0.9507
  531SOL    HW1 1592   1.873   0.875   0.965 -0.1857 -4.5220 -2.9807
  531SOL    HW2 1593   1.707   0.910   1.001 -0.3229  1.5703 -1.6811
  532SOL     OW 1594   0.473   1.038   0.752  0.6093  0.3111 -0.1680
  532SOL    HW1 1595   0.501   1.035   0.653 -0.7880  0.0867  0.5839
  532SOL    HW2 1596   0.390   0.979   0.775 -1.5190 -0.7330 -1.2050
  533SOL     OW 1597   1.764   0.031   2.572  0.2247 -0.0545 -0.3577
  533SOL    HW1 1598   1.867   0.035   2.568  0.9618 -0.8635  2.5546
  533SOL    HW2 1599   1.732   0.104   2.635 -0.0876  0.2280  0.9197
  534SOL     OW 1600   0.399   0.202   1.550  0.5221 -0.4124 -0.3409
  534SOL    HW1 1601   0.500   0.219   1.583  1.6857 -0.5016  2.7889
  534SOL    HW2 1602   0.344   0.293   1.554  0.9348  0.5586 -2.0598
  535SOL     OW 1603   1.945   0.373   0.177 -0.2560 -0.0812  0.5383
  535SOL    HW1 1604   1.952   0.471   0.215 -0.5598  0.8722 -5.1639
  535SOL    HW2 1605   1.937   0.301   0.253 -0.2613  2.3464 -0.3997
  536SOL     OW 1606   1.393   2.626   0.954  0.1319 -0.2453 -0.0114
  536SOL    HW1 1607   1.351   2.618   1.049 -3.7983 -0.2122  1.1908
  536SOL    HW2 1608   1.318   2.653   0.892  1.5858  0.0821 -0.8815
  537SOL     OW 1609   0.836   0.277   2.412  0.3646 -0.3345 -0.3140
  537SOL    HW1 1610   0.886   0.314   2.334  1.0810 -0.4745 -0.3917
  537SOL    HW2 1611   0.761   0.215   2.388  1.0915  1.3721 -0.7729
  538SOL     OW 1612   1.648   2.302   1.344 -0.4511  0.1952 -0.4153
  538SOL    HW1 1613   1.648   2.207   1.386 -1.4026 -0.8469 -0.1870
  538SOL    HW2 1614   1.744   2.339   1.341  0.3747  0.4046  0.0185
  539SOL     OW 1615   0.158   1.641   2.697 -0.6327 -0.4331  0.0421
  539SOL    HW1 1616   0.072   1.634   2.639 -1.5966 -0.3723 -0.1351
  539SOL    HW2 1617   0.167   1.735   2.745 -1.3020  1.4234 -0.4907
  540SOL     OW 1618   2.670   1.720   1.936  0.4409 -0.6993 -0.1541
  540SOL    HW1 1619   2.626   1.630   1.959  0.9722 -1.6909  0.7074
  540SOL    HW2 1620   2.605   1.800   1.922  0.9571  0.5630  0.5907
  541SOL     OW 1621   0.577   2.163   0.040 -0.1528 -0.1325  0.0834
  541SOL    HW1 1622   0.589   2.130   0.139 -1.4783 -0.1625 -0.8394
  541SOL    HW2 1623   0.476   2.154   0.008 -0.5599  0.0632 -1.3007
  542SOL     OW 1624   2.229   2.605   0.467  0.0942 -0.0066  0.4385
  542SOL    HW1 1625   2.168   2.687   0.461 -1.0544 -1.0433 -0.9191
  542SOL    HW2 1626   2.174   2.522   0.490  2.5872  0.3129  0.2976
  543SOL     OW 1627   1.061   1.811   1.571 -0.3507  0.1801 -0.6016
  543SOL    HW1 1628   1.055   1.850   1.670  0.3518  1.5246  2.0831
  543SOL    HW2 1629   1.008   1.865   1.503  0.8098 -2.2695  1.2441
  544SOL     OW 1630   1.107   0.516   0.175  0.1041 -0.0163  0.3987
  544SOL    HW1 1631   1.088   0.431   0.231 -1.2550  1.5638 -3.5167
  544SOL    HW2 1632   1.138   0.484   0.083  0.0764  1.0920  1.0480
  545SOL     OW 1633   1.086   1.806   0.783 -0.0943  0.4626 -0.0326
  545SOL    HW1 1634   1.185   1.817   0.750  0.0618  3.2491 -0.2185
  545SOL    HW2 1635   1.077   1.713   0.829 -0.2400  1.4780  1.7686
  546SOL     OW 1636   2.684   1.551   3.012  0.1254  0.1386 -0.4042
  546SOL    HW1 1637   2.678   1.652   3.015 -0.8525  1.1832 -1.6232
  546SOL    HW2 1638   2.586   1.511   3.021 -2.6398 -1.9502  0.1439
  547SOL     OW 1639   0.629   3.016   2.540  0.1397  0.9661 -0.2816
  547SOL    HW1 1640   0.701   3.001   2.609 -1.3009 -1.3657 -2.8259
  547SOL    HW2 1641   0.554   2.940   2.540  0.6596 -4.0402 -1.6083
  548SOL     OW 1642   2.047   0.808   3.057 -0.2218 -0.3670  0.4013
  548SOL    HW1 1643   1.946   0.792   3.028  0.5239 -0.7678 -0.2958
  548SOL    HW2 1644   2.070   0.911   3.059  0.9089 -1.5273  1.8106
  549SOL     OW 1645   0.671   0.579   0.205  0.2155 -0.0116 -0.1455
  549SOL    HW1 1646   0.613   0.623   0.126 -0.7274  0.1384 -3.0033
  549SOL    HW2 1647   0.767   0.610   0.199  2.2862  2.2228 -2.3155
  550SOL     OW 1648   2.565   2.815   2.885  0.2241  0.5688 -0.1704
  550SOL    HW1 1649   2.524   2.762   2.962 -0.9246 -0.7036 -1.0003
  550SOL    HW2 1650   2.624   2.749   2.829 -0.0435  1.5454 -2.2017
  551SOL     OW 1651   0.226   0.903   0.258  0.0660 -0.4008  0.1510
  551SOL    HW1 1652   0.325   0.888   0.236 -0.6103 -1.5490 -1.8706
  551SOL    HW2 1653   0.193   0.880   0.357 -2.9270 -0.5502 -0.3121
  552SOL     OW 1654   0.653   2.977   1.907 -0.8164  0.6080  1.0574
  552SOL    HW1 1655   0.656   3.046   1.986 -1.2834  1.1479  0.9661
  552SOL    HW2 1656   0.734   2.980   1.844  0.4852  0.3132 -0.7995
  553SOL     OW 1657   2.918   2.411   0.327  0.6176 -0.5069 -0.1925
  553SOL    HW1 1658   2.893   2.317   0.360  1.8544  1.6676  1.3952
  553SOL    HW2 1659   2.840   2.476   0.306 -2.0522  3.6408 -0.1791
  554SOL     OW 1660   2.109   0.351   0.468  0.0635  0.0270  0.3062
  554SOL    HW1 1661   2.183   0.372   0.394 -0.5278 -0.9471 -0.0503
  554SOL    HW2 1662   2.145   0.288   0.543  2.7817 -2.0840  0.8981
  555SOL     OW 1663   0.429   2.851   2.508  0.3811  0.3096 -0.4326
  555SOL    HW1 1664   0.341   2.899   2.481  3.5191 -3.9166  0.6140
  555SOL    HW2 1665   0.471   2.798   2.431 -2.1073  0.3275 -2.6729
  556SOL     OW 1666   0.854   2.412   1.591 -0.1011  0.9225  0.4357
  556SOL    HW1 1667   0.880   2.469   1.669  0.3713 -0.4526 -3.5245
  556SOL    HW2 1668   0.929   2.401   1.520  0.5981 -0.9049  1.9572
  557SOL     OW 1669   0.165   2.042   0.231  0.5109 -0.1476  0.8865
  557SOL    HW1 1670   0.107   1.986   0.168  0.8230 -1.0453 -0.9739
  557SOL    HW2 1671   0.244   2.085   0.179  3.2589  0.5991  0.0763
  558SOL     OW 1672   2.755   2.178   0.427  0.4086 -0.5867 -0.4874
  558SOL    HW1 1673   2.657   2.195   0.441  2.1624  1.4274  2.4760
  558SOL    HW2 1674   2.765   2.092   0.372 -1.9176  1.9055  1.9730
  559SOL     OW 1675   0.416   2.338   1.389 -0.7171  0.1257  0.2169
  559SOL    HW1 1676   0.322   2.317   1.348 -0.8855 -0.0324  0.8018
  559SOL    HW2 1677   0.487   2.273   1.358 -2.4486  2.5032  1.2717
  560SOL     OW 1678   2.132   1.084   3.077  0.4925 -0.3951 -0.0209
  560SOL    HW1 1679   2.173   1.103   3.172 -0.1317  0.6993  2.3548
  560SOL    HW2 1680   2.206   1.103   3.003 -1.7373 -0.1096 -2.2265
  561SOL     OW 1681   0.026   1.876   0.051  0.2136 -0.2390  1.1028
  561SOL    HW1 1682  -0.016   1.808   0.118 -1.2972  1.3073  1.5359
  561SOL    HW2 1683  -0.052   1.939   0.019 -1.8253 -2.3477  1.8583
  562SOL     OW 1684   1.098   2.138   2.293  0.7866 -1.2554 -0.5296
  562SOL    HW1 1685   1.077   2.237   2.306 -1.8286 -1.0889 -0.1553
  562SOL    HW2 1686   1.038   2.076   2.360 -2.2768 -1.5071  2.3743
  563SOL     OW 1687   0.698   2.523   2.629 -0.2925  0.0160  0.5818
  563SOL    HW1 1688   0.778   2.456   2.629  0.4083  1.0356 -1.3072
  563SOL    HW2 1689   0.705   2.582   2.714 -0.3350 -0.8956 -0.0778
  564SOL     OW 1690   2.917   1.390   2.891  0.1101 -0.3487 -0.1315
  564SOL    HW1 1691   2.852   1.471   2.911  0.1601  3.7896 -3.4818
  564SOL    HW2 1692   3.014   1.414   2.913 -2.9714 -0.2821  0.6252
  565SOL     OW 1693   2.501   1.942   2.652  0.1970 -0.1209  0.0818
  565SOL    HW1 1694   2.447   2.032   2.638 -0.3670 -0.3706 -0.4119
  565SOL    HW2 1695   2.602   1.955   2.684  1.7124  0.8522  0.1783
  566SOL     OW 1696   1.966   2.896   1.474 -0.4964  0.1162 -0.0742
  566SOL    HW1 1697   1.925   2.803   1.503  0.5146  0.1149  1.4227
  566SOL    HW2 1698   2.003   2.885   1.381  2.1204 -1.0398  1.6906
  567SOL     OW 1699   2.445   0.005   2.335 -0.1823  0.2128 -0.2211
  567SOL    HW1 1700   2.342   0.018   2.321  0.4615 -0.0707 -0.9989
  567SOL    HW2 1701   2.505   0.037   2.259 -1.3837  1.9024  1.8473
  568SOL     OW 1702   1.520   1.757   0.322 -0.5403 -0.2414  0.1596
  568SOL    HW1 1703   1.469   1.833   0.274 -0.4724 -0.6573  1.5230
  568SOL    HW2 1704   1.620   1.782   0.335 -0.6272 -0.7898 -1.8614
  569SOL     OW 1705   0.235   0.631   0.893  0.0232 -0.4479  0.5142
  569SOL    HW1 1706   0.299   0.579   0.831 -1.6935  0.1742  2.3893
  569SOL    HW2 1707   0.139   0.603   0.889  1.1369 -0.4163 -1.3153
  570SOL     OW 1708   0.604   0.851   2.914 -0.1503 -0.2897  0.4825
  570SOL    HW1 1709   0.691   0.854   2.862 -1.6120 -1.9820  2.3444
  570SOL    HW2 1710   0.582   0.944   2.956  0.6234  2.0648  1.0027
  571SOL     OW 1711   0.811   3.102   1.120 -0.4233 -0.6240 -0.1185
  571SOL    HW1 1712   0.849   3.133   1.026  1.0084 -2.1522 -0.2156
  571SOL    HW2 1713   0.810   2.994   1.120  0.8505 -1.4454  0.5560
  572SOL     OW 1714   1.634   2.704   1.408  0.1460 -0.0666  0.6227
  572SOL    HW1 1715   1.618   2.624   1.342 -1.9383 -0.3919 -1.9876
  572SOL    HW2 1716   1.671   2.786   1.357 -1.7527 -3.3133 -0.8744
  573SOL     OW 1717   0.015   0.472   2.013  1.1957  0.1693 -0.8318
  573SOL    HW1 1718  -0.045   0.389   2.030 -0.0234 -3.3673  0.8911
  573SOL    HW2 1719   0.045   0.477   1.915 -0.0495 -0.3253 -0.1322
  574SOL     OW 1720   0.150   1.739   1.134 -0.1994 -0.9138 -0.0330
  574SOL    HW1 1721   0.187   1.702   1.225  0.6934  0.7453  0.6464
  574SOL    HW2 1722   0.070   1.807   1.146  1.2963  1.7070 -0.7478
  575SOL     OW 1723   0.868   2.186   0.945 -0.2957  0.2158  0.4514
  575SOL    HW1 1724   0.831   2.238   1.027  0.0377 -0.2254 -1.0446
  575SOL    HW2 1725   0.928   2.254   0.884  2.9040  2.5852  0.9343
  576SOL     OW 1726   2.914   3.002   1.703  0.5030 -0.5679  0.0818
  576SOL    HW1 1727   2.813   2.984   1.724 -2.2744 -0.9664 -0.0935
  576SOL    HW2 1728   2.938   3.106   1.690 -2.1451  0.4373  2.2188
  577SOL     OW 1729   2.672   1.234   0.008  0.0225 -0.1879 -0.5396
  577SOL    HW1 1730   2.694   1.143  -0.043 -0.7928 -2.9169 -0.1297
  577SOL    HW2 1731   2.686   1.224   0.109  3.5032 -3.4655  0.5605
  578SOL     OW 1732   1.441   2.776   2.532  0.4215 -0.6868  0.6836
  578SOL    HW1 1733   1.350   2.826   2.519  1.6929  0.3134 -0.9600
  578SOL    HW2 1734   1.521   2.831   2.497  2.8857 -1.2195 -1.2535
  579SOL     OW 1735   0.063   2.450   0.185  0.1281 -0.1711 -0.2482
  579SOL    HW1 1736  -0.028   2.444   0.238 -0.6099  2.2497  1.5861
  579SOL    HW2 1737   0.144   2.426   0.245 -0.1106  2.0533 -0.5793
  580SOL     OW 1738   0.961   2.642   0.402 -0.8181  0.3460  0.0488
  580SOL    HW1 1739   1.054   2.634   0.358 -1.4478  0.9583  3.1951
  580SOL    HW2 1740   0.883   2.628   0.340 -1.7527  0.4768 -1.0290
  581SOL     OW 1741   1.283   2.700   1.439 -0.0970  0.3016 -0.0516
  581SOL    HW1 1742   1.345   2.616   1.454 -1.8989  0.1977  3.2518
  581SOL    HW2 1743   1.341   2.781   1.415 -1.0734 -2.7553  0.7210
  582SOL     OW 1744   1.483   0.083   1.933  0.4859 -0.0175 -0.2452
  582SOL    HW1 1745   1.484   0.137   2.025  0.2747  0.5724 -0.2845
  582SOL    HW2 1746   1.569   0.109   1.882 -0.1331  1.0612  0.7140
  583SOL     OW 1747   2.453   3.078   0.537 -0.0742 -0.0228  0.8150
  583SOL    HW1 1748   2.536   3.023   0.516 -1.6553 -1.7541 -0.6285
  583SOL    HW2 1749   2.374   3.018   0.574 -1.7738  0.6488  0.9889
  584SOL     OW 1750   1.584   1.134   2.328  0.8796 -0.1311 -0.1571
  584SOL    HW1 1751   1.643   1.205   2.272 -1.1332  3.4565 -0.4517
  584SOL    HW2 1752   1.633   1.044   2.358 -1.3260 -0.6129  1.0037
  585SOL     OW 1753   2.059   2.658   2.887  0.2411 -0.1639 -0.0341
  585SOL    HW1 1754   2.072   2.566   2.838 -0.8551  1.8787  0.0983
  585SOL    HW2 1755   1.957   2.682   2.887 -0.9740  0.1292 -2.0107
  586SOL     OW 1756   2.907   0.401   1.529  0.0487 -0.2998  0.4125
  586SOL    HW1 1757   2.893   0.483   1.588 -0.7055 -0.5492 -0.4091
  586SOL    HW2 1758   2.826   0.366   1.472  3.4762  2.6633 -0.3993
  587SOL     OW 1759   2.118   1.462   2.693  0.2247  0.1605 -0.5948
  587SOL    HW1 1760   2.153   1.381   2.637  1.7629  0.0888  3.0294
  587SOL    HW2 1761   2.196   1.520   2.729 -0.5595  1.2660 -1.3551
  588SOL     OW 1762   0.540   2.702   2.306 -0.0798 -0.0711 -0.0892
  588SOL    HW1 1763   0.507   2.700   2.209 -2.8571 -2.1643 -3.4301
  588SOL    HW2 1764   0.529   2.607   2.351 -0.4321  1.0762  0.4201
  589SOL     OW 1765   2.184   1.300   2.502 -0.3622  0.1139 -0.2898
  589SOL    HW1 1766   2.135   1.253   2.419  0.5219  0.8602  0.6567
  589SOL    HW2 1767   2.287   1.282   2.506  0.5577  1.1050  0.8417
  590SOL     OW 1768   2.349   1.732   2.067 -0.5251 -0.3176  0.4034
  590SOL    HW1 1769   2.421   1.656   2.066 -2.6850 -2.8331 -2.1172
  590SOL    HW2 1770   2.331   1.790   2.155 -2.7509  0.0454 -0.8805
  591SOL     OW 1771   1.225   2.375   0.220 -0.0907 -0.1328 -0.5897
  591SOL    HW1 1772   1.259   2.291   0.180  0.1463  2.8175 -0.0263
  591SOL    HW2 1773   1.262   2.389   0.317  2.9154 -0.3498  2.8548
  592SOL     OW 1774   1.791   2.339   0.798  0.4172  0.0084  0.3049
  592SOL    HW1 1775   1.780   2.356   0.696  0.0767  0.0421 -2.4288
  592SOL    HW2 1776   1.888   2.331   0.828 -1.8287  0.7033  1.0177
  593SOL     OW 1777   0.729   0.328   0.245  0.1776  0.1640  0.5074
  593SOL    HW1 1778   0.781   0.289   0.161 -0.3377 -1.8256 -1.5274
  593SOL    HW2 1779   0.704   0.430   0.243 -0.0082  0.2578  1.2103
  594SOL     OW 1780   1.061   1.855   2.690 -0.1283 -0.3364 -0.2689
  594SOL    HW1 1781   1.155   1.830   2.647  0.8679 -2.0499  2.1363
  594SOL    HW2 1782   1.066   1.876   2.791  2.2091 -4.2913 -1.5075
  595SOL     OW 1783   1.506   0.083   0.987 -0.1485  0.5660 -0.5535
  595SOL    HW1 1784   1.579   0.011   0.956  1.3875 -1.8531  1.7126
  595SOL    HW2 1785   1.417   0.061   0.936 -0.9432  2.2604 -1.1585
  596SOL     OW 1786   0.067   1.470   2.285 -0.1237  0.1657 -0.2640
  596SOL    HW1 1787   0.061   1.368   2.291 -0.0826  2.7140 -2.1044
  596SOL    HW2 1788   0.102   1.517   2.374  4.3121 -0.8260  0.1923
  597SOL     OW 1789   1.976   2.676   1.814  0.1253 -0.0744 -0.4713
  597SOL    HW1 1790   1.931   2.664   1.725  0.9037 -1.9426 -0.7430
  597SOL    HW2 1791   2.078   2.685   1.812  3.8578  0.7465  0.4293
  598SOL     OW 1792   2.524   2.867   1.226  0.0931 -0.3891  0.2037
  598SOL    HW1 1793   2.602   2.867   1.296 -1.2323  1.6251  0.7729
  598SOL    HW2 1794   2.558   2.900   1.130  1.4358  0.4015  1.1151
  599SOL     OW 1795   2.797   0.268   2.500  0.0394 -0.2398  0.0291
  599SOL    HW1 1796   2.875   0.261   2.436  0.6412 -0.2764  0.9170
  599SOL    HW2 1797   2.730   0.346   2.491  1.5556  1.8014  3.6227
  600SOL     OW 1798   2.810   1.188   2.741  0.0582 -0.7993  0.0328
  600SOL    HW1 1799   2.722   1.157   2.790 -1.4422  0.8140 -1.0137
  600SOL    HW2 1800   2.843   1.274   2.783 -1.6329 -0.0329  0.7435
  601SOL     OW 1801   3.003   1.313   2.017 -0.7975 -0.1778 -0.1519
  601SOL    HW1 1802   2.922   1.350   1.961 -4.0298  1.4023 -1.0969
  601SOL    HW2 1803   3.081   1.380   2.028 -1.3078 -1.5848  3.7350
  602SOL     OW 1804   1.489   1.567   2.277  0.1294 -0.2607 -0.1824
  602SOL    HW1 1805   1.397   1.564   2.328  2.5529  0.2769  0.7445
  602SOL    HW2 1806   1.563   1.591   2.345 -1.1536 -1.9224  1.4113
  603SOL     OW 1807   0.665   1.179   2.705 -0.3908  0.6466 -0.1746
  603SOL    HW1 1808   0.561   1.194   2.711 -1.2181 -1.4160  1.1763
  603SOL    HW2 1809   0.684   1.080   2.680  0.2047  0.8464 -0.8705
  604SOL     OW 1810   2.476   0.985   0.200  0.4066  0.4514  0.6950
  604SOL    HW1 1811   2.536   1.062   0.170 -1.3014  0.2696  0.1847
  604SOL    HW2 1812   2.466   0.912   0.126  0.3983  0.7932 -0.2516
  605SOL     OW 1813   2.522   1.120   1.974  0.3083 -0.4101  0.6455
  605SOL    HW1 1814   2.567   1.074   1.889  1.7226  0.4992  0.5701
  605SOL    HW2 1815   2.581   1.200   2.015  2.3076  2.2970 -1.2812
  606SOL     OW 1816   1.508   2.510   2.555 -0.0505 -0.2373  0.9119
  606SOL    HW1 1817   1.457   2.597   2.536  2.0821 -0.1741  0.2807
  606SOL    HW2 1818   1.463   2.427   2.505  0.8073 -0.9052 -3.6099
  607SOL     OW 1819   1.308   1.600   0.241 -0.1863 -0.4191 -0.6349
  607SOL    HW1 1820   1.231   1.664   0.263 -0.5495  0.7032  2.1300
  607SOL    HW2 1821   1.400   1.639   0.266 -2.4590 -1.8405 -0.7913
  608SOL     OW 1822   1.428   2.862   0.390 -0.5435  0.3437 -0.2428
  608SOL    HW1 1823   1.455   2.873   0.288 -0.1289 -0.4514 -0.2217
  608SOL    HW2 1824   1.359   2.931   0.428 -2.4325 -0.5758  1.0632
  609SOL     OW 1825   1.348   1.332   0.145 -0.1989  0.0354 -0.0007
  609SOL    HW1 1826   1.312   1.419   0.174  2.8668 -2.6421 -0.3990
  609SOL    HW2 1827   1.286   1.282   0.073 -1.4152  0.9182  0.1970
  610SOL     OW 1828   3.035   1.227   2.269 -0.5151  0.0402 -0.3560
  610SOL    HW1 1829   3.000   1.130   2.262  2.3825 -0.9784  0.9907
  610SOL    HW2 1830   3.029   1.276   2.180 -0.2178 -0.7489 -1.0794
  611SOL     OW 1831   2.501   0.251   1.164  0.4124  0.1410 -0.6390
  611SOL    HW1 1832   2.463   0.150   1.178 -0.8332  0.6924  1.0904
  611SOL    HW2 1833   2.589   0.267   1.223  1.5106 -0.8161 -0.3945
  612SOL     OW 1834   0.791   2.317   1.165  0.5000  0.2177  0.1733
  612SOL    HW1 1835   0.740   2.258   1.237 -0.2609  1.3832  0.0522
  612SOL    HW2 1836   0.735   2.397   1.138  1.6650  0.4538 -0.0538
  613SOL     OW 1837   0.815   1.391   2.390 -0.2399  0.0737 -1.1062
  613SOL    HW1 1838   0.812   1.456   2.312 -1.0164 -1.2869 -0.0719
  613SOL    HW2 1839   0.783   1.301   2.352 -1.3948  2.9778 -1.3843
  614SOL     OW 1840   1.569   1.684   1.819 -0.0800 -0.0158  0.5019
  614SOL    HW1 1841   1.514   1.756   1.769  0.8695 -2.5949  0.4235
  614SOL    HW2 1842   1.622   1.731   1.895 -3.4804  0.0876  0.6212
  615SOL     OW 1843   0.745   1.403   1.724 -0.5977 -0.0957  0.1444
  615SOL    HW1 1844   0.714   1.346   1.648  0.5036 -0.9336  0.3638
  615SOL    HW2 1845   0.816   1.479   1.693 -0.9373  0.0212  0.7378
  616SOL     OW 1846   1.103   1.553   2.160  0.0626  0.4084  0.6217
  616SOL    HW1 1847   0.996   1.550   2.159 -1.0711  0.8776 -0.4490
  616SOL    HW2 1848   1.142   1.614   2.085  2.5416 -2.4932  1.6344
  617SOL     OW 1849   3.024   1.554   1.655  0.2162 -0.3649 -0.1687
  617SOL    HW1 1850   2.977   1.471   1.697 -0.8022  0.2329 -0.7796
  617SOL    HW2 1851   3.070   1.538   1.562  2.8511  1.0173 -2.0681
  618SOL     OW 1852   1.962   1.959   1.444  0.2454  0.4587  0.2418
  618SOL    HW1 1853   2.053   1.952   1.393  2.2680 -0.9106  0.0094
  618SOL    HW2 1854   1.957   1.886   1.522 -1.3182 -0.6543  1.4848
  619SOL     OW 1855   1.718   0.505   2.342 -0.0453  0.7961  0.0762
  619SOL    HW1 1856   1.655   0.554   2.280 -1.3705 -0.9371  0.2795
  619SOL    HW2 1857   1.681   0.414   2.374  1.6818  1.7023 -3.4405
  620SOL     OW 1858   2.249   2.938   0.622  0.7676 -0.1194  0.6269
  620SOL    HW1 1859   2.154   2.974   0.623  1.6405 -0.1808  0.9731
  620SOL    HW2 1860   2.270   2.875   0.707  0.9561 -0.5893  1.8652
  621SOL     OW 1861   2.234   1.894   1.356 -0.6657 -0.1057 -0.3023
  621SOL    HW1 1862   2.222   1.880   1.463 -0.4615  2.3238  0.1424
  621SOL    HW2 1863   2.216   1.805   1.303  0.0394 -0.6862  0.3350
  622SOL     OW 1864   2.227   0.918   1.823 -0.5258  0.3514  0.6015
  622SOL    HW1 1865   2.314   0.869   1.794  1.2019  1.0110 -0.0530
  622SOL    HW2 1866   2.159   0.867   1.877 -0.4451  3.9105  1.1560
  623SOL     OW 1867   1.308   0.816   2.571 -0.1704  0.4183  0.2971
  623SOL    HW1 1868   1.251   0.762   2.644 -1.6106 -0.4346  1.3858
  623SOL    HW2 1869   1.250   0.832   2.483 -2.9762 -0.8682 -1.6296
  624SOL     OW 1870   0.525   0.692   0.027 -0.0871  0.3124  0.2909
  624SOL    HW1 1871   0.560   0.716  -0.064  3.4749  1.0708 -1.3696
  624SOL    HW2 1872   0.503   0.766   0.088  3.6015 -2.6964  2.5415
  625SOL     OW 1873   2.730   1.690   0.883 -0.1582  0.1575 -0.3526
  625SOL    HW1 1874   2.661   1.748   0.939 -0.7593  0.8383  1.5224
  625SOL    HW2 1875   2.712   1.587   0.883  1.1219 -0.7713  0.0893
  626SOL     OW 1876   0.496   2.736   1.957 -0.0420 -0.4358  0.8587
  626SOL    HW1 1877   0.563   2.815   1.962 -1.5795 -1.8787  1.9241
  626SOL    HW2 1878   0.401   2.762   1.931  1.1902 -0.8856 -1.0228
  627SOL     OW 1879   0.746   1.080   1.507  0.2039  0.1051 -0.1355
  627SOL    HW1 1880   0.767   0.977   1.534 -2.7747  0.3397  2.2673
  627SOL    HW2 1881   0.818   1.131   1.452  2.3721 -0.5948 -0.0505
  628SOL     OW 1882   2.425   0.179   0.720  0.0775 -0.0651  0.2623
  628SOL    HW1 1883   2.437   0.106   0.650 -1.0593  0.3191 -0.8114
  628SOL    HW2 1884   2.321   0.187   0.733  1.0692 -0.8524 -2.7089
  629SOL     OW 1885   1.964   0.946   1.977  0.3628 -0.1343  0.2930
  629SOL    HW1 1886   2.041   0.943   2.050 -0.3128 -0.8491  0.4768
  629SOL    HW2 1887   1.923   1.042   1.956 -0.8969  2.2212 -0.4932
  630SOL     OW 1888   2.800   2.186   0.770  0.8614 -0.2326 -0.1964
  630SOL    HW1 1889   2.745   2.263   0.803 -0.3595 -1.0639  0.3520
  630SOL    HW2 1890   2.744   2.102   0.748  2.0160  4.9347  1.1880
  631SOL     OW 1891   3.024   0.224   2.115  0.0498  0.4300  0.2340
  631SOL    HW1 1892   3.072   0.281   2.188  1.9885  1.9194  2.0380
  631SOL    HW2 1893   3.084   0.188   2.037  2.0157 -2.0594  2.1998
  632SOL     OW 1894   2.308   2.557   0.749  1.0466  0.8113  0.6410
  632SOL    HW1 1895   2.396   2.581   0.803  0.8503 -2.4835 -0.8287
  632SOL    HW2 1896   2.292   2.602   0.656  1.5364  0.1216 -1.3107
  633SOL     OW 1897   1.594   1.288   2.595 -0.1877  0.3347  0.8850
  633SOL    HW1 1898   1.579   1.368   2.662 -1.0975  0.3362  2.4925
  633SOL    HW2 1899   1.527   1.286   2.515 -0.6854 -1.0105  0.1458
  634SOL     OW 1900   0.633   2.066   1.001 -0.6345  0.4783 -0.1084
  634SOL    HW1 1901   0.580   2.146   1.033  0.3600  0.1586 -1.5582
  634SOL    HW2 1902   0.734   2.084   0.988  2.8359 -0.8402 -1.9969
  635SOL     OW 1903   0.059   2.257   3.092 -0.2040 -0.7186 -0.1208
  635SOL    HW1 1904   0.027   2.327   3.023  1.8165 -0.0050 -0.7587
  635SOL    HW2 1905   0.062   2.298   3.189  3.5298 -1.8764  2.8411
  636SOL     OW 1906   2.305   2.849   2.020  0.9012 -0.7291 -0.4167
  636SOL    HW1 1907   2.290   2.950   1.999 -2.2297  0.5160  1.2114
  636SOL    HW2 1908   2.248   2.814   2.107  0.3568 -0.4686  2.8271
  637SOL     OW 1909   2.550   0.735   2.050  0.7908 -0.0125  0.1045
  637SOL    HW1 1910   2.517   0.754   1.954  0.7423  0.9189  0.0318
  637SOL    HW2 1911   2.621   0.805   2.078  0.0830  0.9586 -2.5066
  638SOL     OW 1912   2.497   1.868   1.358 -0.2645  0.2696  0.3559
  638SOL    HW1 1913   2.394   1.894   1.349  3.2963  1.1321 -0.2962
  638SOL    HW2 1914   2.518   1.776   1.413  2.6263 -1.9113 -0.0432
  639SOL     OW 1915   1.295   2.244   1.607 -0.1334  0.1313 -0.4649
  639SOL    HW1 1916   1.298   2.163   1.549 -0.4573 -0.4524  1.5292
  639SOL    HW2 1917   1.223   2.231   1.680 -1.3218  0.1335 -2.3747
  640SOL     OW 1918   0.209   1.221   1.534  0.1694  1.1842 -0.3281
  640SOL    HW1 1919   0.186   1.272   1.622 -1.3697 -0.9193  1.0921
  640SOL    HW2 1920   0.285   1.142   1.549  0.0749 -3.6624 -2.8066
  641SOL     OW 1921   1.953   0.201   1.451  0.1547  0.3342 -0.1058
  641SOL    HW1 1922   1.876   0.269   1.469  1.3780 -1.4731 -2.4305
  641SOL    HW2 1923   1.943   0.123   1.513 -1.3097 -1.1159  0.5297
  642SOL     OW 1924   1.993   0.094   0.320  0.2303  0.1192 -0.0916
  642SOL    HW1 1925   2.091   0.072   0.324 -2.7108 -1.4345 -1.5989
  642SOL    HW2 1926   1.949   0.083   0.413 -0.9702 -1.0835 -0.1757
  643SOL     OW 1927   2.837   1.869   2.101  0.1816 -0.4376  0.4770
  643SOL    HW1 1928   2.781   1.795   2.057 -1.3450  0.8946  0.5606
  643SOL    HW2 1929   2.835   1.955   2.038 -2.4513 -2.0776 -0.4230
  644SOL     OW 1930   2.189   2.289   1.234 -0.2684 -0.0003  0.1328
  644SOL    HW1 1931   2.247   2.207   1.210 -3.1635 -1.1732  1.2693
  644SOL    HW2 1932   2.206   2.341   1.321  0.3133 -0.2335 -3.6647
  645SOL     OW 1933   0.599   0.833   1.168 -0.0247  1.1533  0.2177
  645SOL    HW1 1934   0.525   0.773   1.123  0.8162  0.2429  1.1456
  645SOL    HW2 1935   0.610   0.917   1.106  1.7640 -1.3472 -0.3785
  646SOL     OW 1936   1.488   1.969   1.794 -0.4546  0.0200 -0.6105
  646SOL    HW1 1937   1.579   2.008   1.774 -2.2698 -2.2407  0.6507
  646SOL    HW2 1938   1.458   1.976   1.892 -0.6094 -0.1122 -0.2504
  647SOL     OW 1939   0.884   0.925   0.656  0.0186 -0.2939  0.0953
  647SOL    HW1 1940   0.978   0.894   0.691 -1.9930 -0.3516  1.2840
  647SOL    HW2 1941   0.806   0.881   0.702  2.9182  0.8407  1.0303
  648SOL     OW 1942   0.209   0.215   0.320  0.1461  0.2915  0.0396
  648SOL    HW1 1943   0.209   0.140   0.250  0.3330  0.4463 -0.2345
  648SOL    HW2 1944   0.157   0.291   0.277 -0.5529  3.1258 -0.5091
  649SOL     OW 1945   3.089   0.105   0.936  0.1375 -0.8677 -0.0560
  649SOL    HW1 1946   3.188   0.080   0.918 -1.9733  0.8058 -0.5803
  649SOL    HW2 1947   3.078   0.101   1.036  0.0979  0.6445 -1.2789
  650SOL     OW 1948   2.728   0.720   1.437  0.0652 -0.0203 -0.2030
  650SOL    HW1 1949   2.635   0.691   1.480 -2.5955 -1.2705  3.6518
  650SOL    HW2 1950   2.715   0.795   1.364  1.7376  1.4918 -1.9022
  651SOL     OW 1951   0.905   1.582   1.603  0.3891  0.1188 -0.4016
  651SOL    HW1 1952   0.980   1.655   1.607 -0.2942 -0.1766  0.7202
  651SOL    HW2 1953   0.865   1.590   1.511  2.4649  0.8908  3.2516
  652SOL     OW 1954   2.278   2.524   2.367  0.3073  0.5770 -0.0359
  652SOL    HW1 1955   2.211   2.508   2.439 -0.6298  0.6258 -2.0479
  652SOL    HW2 1956   2.245   2.594   2.293  1.2513 -0.0020  0.8727
  653SOL     OW 1957   2.699   1.184   0.280  0.2044 -0.3371 -0.0600
  653SOL    HW1 1958   2.747   1.278   0.280  1.4178  2.3242 -0.7187
  653SOL    HW2 1959   2.763   1.106   0.300 -1.6436 -0.0285  1.7470
  654SOL     OW 1960   1.236   2.279   1.218 -1.1464  0.1387  0.0115
  654SOL    HW1 1961   1.261   2.195   1.277 -4.1684  0.2431  2.7777
  654SOL    HW2 1962   1.279   2.280   1.125 -0.1632 -2.1653 -1.2683
  655SOL     OW 1963   0.237   1.064   1.850  0.6015  0.9002 -0.2110
  655SOL    HW1 1964   0.266   0.973   1.802 -1.0883 -3.9474 -0.9910
  655SOL    HW2 1965   0.316   1.127   1.870  1.9864 -0.5262  1.6044
  656SOL     OW 1966   2.504   2.478   2.561 -0.3761 -0.2906  0.1217
  656SOL    HW1 1967   2.595   2.474   2.514 -1.3501  1.8947  3.4426
  656SOL    HW2 1968   2.424   2.463   2.493  2.4880 -2.2214 -1.5129
  657SOL     OW 1969   3.051   1.104   1.852 -0.0586  0.5226 -0.2382
  657SOL    HW1 1970   3.030   1.176   1.927  0.3105 -4.4533  2.3433
  657SOL    HW2 1971   3.155   1.094   1.839  0.2914 -1.3052 -1.1143
  658SOL     OW 1972   1.649   0.204   2.362  0.2280  0.6883 -0.1047
  658SOL    HW1 1973   1.686   0.153   2.449  1.3247  0.6088  0.2307
  658SOL    HW2 1974   1.705   0.194   2.277 -1.8533 -2.6779  2.5908
  659SOL     OW 1975   1.404   0.568   2.874 -0.2817  0.1359 -0.6377
  659SOL    HW1 1976   1.479   0.639   2.866 -1.0985  0.1272  2.2547
  659SOL    HW2 1977   1.313   0.613   2.854  0.3891 -1.9310  1.4558
  660SOL     OW 1978   1.418   0.392   1.394  0.0995  0.4237 -0.3697
  660SOL    HW1 1979   1.463   0.444   1.472 -1.5182 -1.1047 -1.8568
  660SOL    HW2 1980   1.484   0.335   1.341 -2.0240 -0.3362 -1.9162
  661SOL     OW 1981   2.478   1.156   0.664 -0.1537  0.1059  0.3903
  661SOL    HW1 1982   2.496   1.085   0.587 -2.1581 -0.1619 -0.4262
  661SOL    HW2 1983   2.456   1.250   0.624  1.3333 -1.2256 -0.1542
  662SOL     OW 1984   1.306   0.432   1.822 -0.3529  0.2492 -0.2969
  662SOL    HW1 1985   1.265   0.337   1.800 -0.7663 -1.9501  1.4662
  662SOL    HW2 1986   1.261   0.478   1.905 -1.4984 -1.7150  0.6766
  663SOL     OW 1987   0.842   1.591   2.163  0.2169 -0.1256  0.4040
  663SOL    HW1 1988   0.808   1.688   2.191 -3.5191  0.5138  1.9688
  663SOL    HW2 1989   0.784   1.552   2.084  0.9042  1.6838 -0.5388
  664SOL     OW 1990   1.677   2.023   1.392  0.0533  0.2850 -0.0632
  664SOL    HW1 1991   1.610   1.957   1.437 -1.5096  1.8545  0.7283
  664SOL    HW2 1992   1.774   1.994   1.409 -0.6814 -1.2645  2.1180
  665SOL     OW 1993   2.261   0.627   1.984  0.8893  0.3479  0.0285
  665SOL    HW1 1994   2.263   0.529   2.015 -0.2860  0.2607  0.7280
  665SOL    HW2 1995   2.192   0.675   2.041 -0.3016 -1.0370  0.2913
  666SOL     OW 1996   0.490   2.299   0.449  0.5566  0.2895 -0.5293
  666SOL    HW1 1997   0.549   2.382   0.449 -2.3438 -2.2254  0.3100
  666SOL    HW2 1998   0.446   2.290   0.544 -0.7774 -0.2048  0.4794
  667SOL     OW 1999   2.078   0.283   0.999  0.7577 -0.0969 -0.7140
  667SOL    HW1 2000   2.125   0.374   0.998 -0.2801 -0.7771  2.4097
  667SOL    HW2 2001   2.009   0.276   1.080 -0.9428 -0.2432  0.2228
  668SOL     OW 2002   1.991   0.485   1.202  0.1024 -0.5390  0.1825
  668SOL    HW1 2003   2.051   0.545   1.149 -2.5718  0.1244  0.0577
  668SOL    HW2 2004   2.041   0.447   1.288 -0.6594  1.4966  2.9590
  669SOL     OW 2005   3.000   2.077   0.909  0.1141 -0.0130  0.0560
  669SOL    HW1 2006   2.941   2.102   0.830  4.6142  0.8723  1.7678
  669SOL    HW2 2007   2.994   2.136   0.991 -2.0048 -4.9317 -1.4215
  670SOL     OW 2008   2.817   2.358   2.006 -0.0804  0.4900 -0.3204
  670SOL    HW1 2009   2.765   2.353   2.096 -3.6262  1.6674  0.1461
  670SOL    HW2 2010   2.800   2.448   1.957  0.5590 -1.3726  1.1095
  671SOL     OW 2011   1.742   1.632   1.442 -0.2335  0.0321  0.2556
  671SOL    HW1 2012   1.744   1.675   1.352 -1.1602 -1.0931  0.1141
  671SOL    HW2 2013   1.687   1.543   1.446 -1.1200 -1.6859 -2.8655
  672SOL     OW 2014   0.419   0.678   2.439 -0.4023  0.6525  0.0159
  672SOL    HW1 2015   0.453   0.673   2.339  0.4166  0.0746 -3.0406
  672SOL    HW2 2016   0.335   0.732   2.453 -0.0576 -1.3276 -2.3042
  673SOL     OW 2017   0.183   1.203   1.131 -0.2425 -0.0625 -0.4293
  673SOL    HW1 2018   0.226   1.284   1.189  0.0912  1.8397 -2.2299
  673SOL    HW2 2019   0.252   1.123   1.112  0.5802 -0.5319  3.4090
  674SOL     OW 2020   1.524   2.847   0.140  0.1043 -0.5534 -0.2083
  674SOL    HW1 2021   1.567   2.939   0.107  1.1118 -0.3605  0.4003
  674SOL    HW2 2022   1.597   2.777   0.132  0.5841  2.4873  0.9916
  675SOL     OW 2023   1.707   0.805   2.346  0.5053  0.2012  0.4214
  675SOL    HW1 2024   1.797   0.804   2.300 -0.0210 -0.0305 -3.0830
  675SOL    HW2 2025   1.631   0.779   2.279 -1.7772 -3.5177 -0.0618
  676SOL     OW 2026   2.487   1.505   1.991  0.1382 -0.3175  0.2149
  676SOL    HW1 2027   2.454   1.477   1.899 -0.7107  1.2193  2.1614
  676SOL    HW2 2028   2.516   1.422   2.048 -1.9178  1.8749 -0.8304
  677SOL     OW 2029   1.795   0.535   0.967  0.3341 -0.6280 -0.6417
  677SOL    HW1 2030   1.868   0.530   1.039 -1.4259 -0.7404  0.2962
  677SOL    HW2 2031   1.730   0.458   0.970 -0.2766  1.1634 -1.2729
  678SOL     OW 2032   0.079   0.786   1.686  0.1649  0.5545  0.1697
  678SOL    HW1 2033   0.174   0.787   1.730  0.2739  0.2006  0.3665
  678SOL    HW2 2034   0.006   0.823   1.748  3.0632  0.5670 -0.7642
  679SOL     OW 2035   2.539   1.188   1.094  0.2878 -0.5004  0.8406
  679SOL    HW1 2036   2.469   1.205   1.166  0.5251 -1.2152 -0.4676
  679SOL    HW2 2037   2.540   1.091   1.060  1.3246  2.0262  1.8453
  680SOL     OW 2038   2.839   0.640   1.661  0.0835  0.2945  0.2914
  680SOL    HW1 2039   2.802   0.668   1.569 -0.2964 -0.5424  1.1150
  680SOL    HW2 2040   2.864   0.721   1.718 -0.2909  1.1546 -0.7734
  681SOL     OW 2041   3.016   0.173   1.639  0.4166 -0.0556  0.3222
  681SOL    HW1 2042   3.093   0.166   1.569 -0.0561 -0.6913  1.6350
  681SOL    HW2 2043   2.955   0.256   1.618 -0.3932  0.9562  0.5719
  682SOL     OW 2044   0.749   0.063   1.379 -0.7315  0.4213 -0.0084
  682SOL    HW1 2045   0.681  -0.002   1.413 -1.0445  0.9871 -1.7869
  682SOL    HW2 2046   0.762   0.050   1.276  0.9815  0.5143 -1.5213
  683SOL     OW 2047   1.393   0.229   2.183 -0.2768 -0.1316  0.1421
  683SOL    HW1 2048   1.372   0.243   2.287 -3.4265 -0.3054  0.4755
  683SOL    HW2 2049   1.459   0.296   2.137 -2.5866  0.1703  0.9197
  684SOL     OW 2050   1.438   2.137   0.490  0.0260 -0.5257  0.1441
  684SOL    HW1 2051   1.500   2.061   0.525 -0.4855 -0.5935 -1.3208
  684SOL    HW2 2052   1.345   2.101   0.461 -1.5064  1.0253  0.5305
  685SOL     OW 2053   2.153   1.876   1.938 -0.6734 -0.0361  0.5063
  685SOL    HW1 2054   2.195   1.958   1.892  0.1752  0.4468 -0.3231
  685SOL    HW2 2055   2.219   1.811   1.991  0.5980 -2.6456  0.9451
  686SOL     OW 2056   1.577   1.760   2.748 -0.4655  0.9399  0.7393
  686SOL    HW1 2057   1.588   1.671   2.695  2.8925 -0.4211 -0.1491
  686SOL    HW2 2058   1.563   1.747   2.848  2.5478 -2.9117  1.8801
  687SOL     OW 2059   1.343   2.526   1.927 -0.6381  0.2419 -0.1968
  687SOL    HW1 2060   1.383   2.437   1.891  0.2835 -0.2453  0.1952
  687SOL    HW2 2061   1.402   2.557   2.009  2.4911 -0.8502  2.9713
  688SOL     OW 2062   2.086   1.396   1.636  0.1430  0.6008 -0.2726
  688SOL    HW1 2063   2.164   1.441   1.586 -0.8903 -0.5165  0.2936
  688SOL    HW2 2064   2.029   1.332   1.576 -1.0980  1.2834 -1.1402
  689SOL     OW 2065   2.457   1.113   2.761  0.1469 -0.1906 -0.2278
  689SOL    HW1 2066   2.363   1.067   2.784 -1.1911  0.5254  0.7621
  689SOL    HW2 2067   2.525   1.087   2.834 -0.1213 -2.0079  2.1194
  690SOL     OW 2068   2.212   2.802   3.089 -0.6989 -0.4571  0.5576
  690SOL    HW1 2069   2.157   2.754   3.016  1.0337 -2.8870  0.1610
  690SOL    HW2 2070   2.148   2.824   3.165  2.6239 -0.4669  0.3222
  691SOL     OW 2071   2.552   0.487   2.177  0.1129  0.5273  0.1818
  691SOL    HW1 2072   2.624   0.430   2.133 -2.4029 -1.8252 -1.2668
  691SOL    HW2 2073   2.538   0.575   2.126 -1.7172 -1.4706 -1.6337
  692SOL     OW 2074   2.745   1.210   0.696 -0.7553 -0.0499 -0.7371
  692SOL    HW1 2075   2.643   1.193   0.710  1.0000  1.1327  1.5066
  692SOL    HW2 2076   2.769   1.299   0.743  1.9418  0.3525 -0.2554
  693SOL     OW 2077   2.875   2.972   0.587 -0.4045 -0.3724 -0.4065
  693SOL    HW1 2078   2.852   3.056   0.637 -0.4364 -1.9407 -0.8590
  693SOL    HW2 2079   2.794   2.947   0.535  0.9278 -0.4730  1.9593
  694SOL     OW 2080   2.375   2.174   0.063 -0.1378 -0.8950  0.0480
  694SOL    HW1 2081   2.335   2.265   0.083  0.4499 -0.7705 -0.1600
  694SOL    HW2 2082   2.306   2.099   0.069  4.8093  2.0168 -1.6236
  695SOL     OW 2083   0.533   2.995   1.480  0.2628 -0.4418  0.3810
  695SOL    HW1 2084   0.510   2.895   1.459 -2.0237 -2.0129  0.7040
  695SOL    HW2 2085   0.478   3.022   1.564  0.5332  1.2886 -0.4564
  696SOL     OW 2086   2.707   1.922   0.714  0.0939  0.6015 -0.6008
  696SOL    HW1 2087   2.754   1.851   0.774 -0.9350  0.2544 -0.4475
  696SOL    HW2 2088   2.689   1.881   0.618  3.6202  1.7501  0.5339
  697SOL     OW 2089   1.726   2.115   1.755 -0.4965  0.5804  0.4128
  697SOL    HW1 2090   1.803   2.050   1.747 -0.1301  0.6913 -3.5754
  697SOL    HW2 2091   1.755   2.214   1.737  2.1014  1.8180 -0.1209
  698SOL     OW 2092   2.937   0.364   2.737 -0.2702 -0.4384 -0.0076
  698SOL    HW1 2093   2.902   0.319   2.651 -0.2058  1.1667 -0.1530
  698SOL    HW2 2094   2.994   0.297   2.795  5.7152 -1.6445  1.7513
  699SOL     OW 2095   1.569   0.072   2.923  0.1253  0.3593 -0.1615
  699SOL    HW1 2096   1.536  -0.020   2.891  2.6151  0.8364 -2.5863
  699SOL    HW2 2097   1.616   0.129   2.852 -2.6506 -0.5304 -0.8413
  700SOL     OW 2098   1.038   2.369   1.374 -0.0122  0.3232  0.1444
  700SOL    HW1 2099   1.135   2.349   1.328  1.3224 -1.1830 -0.9356
  700SOL    HW2 2100   0.958   2.352   1.313 -0.6178 -1.5631  0.0188
  701SOL     OW 2101   1.853   2.825   0.031 -0.5320 -0.6496 -0.4904
  701SOL    HW1 2102   1.868   2.765   0.112 -0.7557 -1.7750 -4.0749
  701SOL    HW2 2103   1.892   2.924   0.034 -1.6337  0.8426  2.2228
  702SOL     OW 2104   2.079   1.402   1.909 -0.2730  0.1314  0.2703
  702SOL    HW1 2105   2.148   1.324   1.929 -0.4578  0.2133 -0.5857
  702SOL    HW2 2106   2.094   1.422   1.811  0.0698  0.8913  0.6042
  703SOL     OW 2107   1.957   0.830   1.436  0.2530  0.0160  0.9542
  703SOL    HW1 2108   1.933   0.741   1.480  1.5212  2.2774 -1.3744
  703SOL    HW2 2109   2.020   0.888   1.495  0.3586  1.1272 -1.1530
  704SOL     OW 2110   0.318   2.029   1.708  0.5390 -0.0401  0.8704
  704SOL    HW1 2111   0.354   1.990   1.796  0.7165  1.7123 -3.1926
  704SOL    HW2 2112   0.372   2.116   1.686  0.1511  0.0190  1.9325
  705SOL     OW 2113   2.535   1.406   0.872  0.5322 -0.0193 -0.0780
  705SOL    HW1 2114   2.452   1.368   0.827 -0.3225 -1.5464 -1.2209
  705SOL    HW2 2115   2.557   1.356   0.957  1.8151  1.9121 -2.1339
  706SOL     OW 2116   0.679   1.765   1.867  0.1890  0.0115  0.5434
  706SOL    HW1 2117   0.655   1.676   1.907  1.3569 -2.2776  0.4971
  706SOL    HW2 2118   0.774   1.796   1.888 -2.9049 -0.0318 -1.9851
  707SOL     OW 2119   2.270   1.209   1.870  0.1828  0.6278  1.0423
  707SOL    HW1 2120   2.358   1.191   1.920 -0.9618  0.5174 -0.2213
  707SOL    HW2 2121   2.226   1.118   1.846 -2.4837 -1.0430  0.4619
  708SOL     OW 2122   3.082   0.464   3.027  0.0378  0.0807  0.1946
  708SOL    HW1 2123   3.089   0.541   2.959 -0.2204 -1.9106  0.4089
  708SOL    HW2 2124   3.057   0.370   2.997 -1.2055  0.3811 -0.6646
  709SOL     OW 2125   1.824   1.834   0.294 -0.1501  0.8070  0.3855
  709SOL    HW1 2126   1.842   1.916   0.351 -0.8469 -1.5220 -2.2701
  709SOL    HW2 2127   1.846   1.854   0.193  0.5739  2.3640 -1.6283
  710SOL     OW 2128   1.736   1.644   2.465  0.3379  0.3472 -0.1161
  710SOL    HW1 2129   1.795   1.603   2.390  0.6368 -1.0432 -0.7649
  710SOL    HW2 2130   1.754   1.603   2.555 -0.1965 -0.4100  0.7896
  711SOL     OW 2131   2.629   2.933   0.972 -0.3423  0.0398  0.2425
  711SOL    HW1 2132   2.654   3.021   0.931 -2.8516  1.8135  0.1028
  711SOL    HW2 2133   2.704   2.860   0.967  2.0168 -1.9767 -2.6046
  712SOL     OW 2134   1.512   2.325   1.783 -0.1830 -0.6178  0.6104
  712SOL    HW1 2135   1.548   2.226   1.794 -0.3984 -2.6096 -3.2283
  712SOL    HW2 2136   1.429   2.330   1.719  1.1917  0.3986  1.5017
  713SOL     OW 2137   2.808   1.419   2.486  0.2522 -0.4229  0.2757
  713SOL    HW1 2138   2.857   1.347   2.431  0.4410 -0.0246  4.2491
  713SOL    HW2 2139   2.710   1.405   2.511  0.2173 -1.3531 -0.7270
  714SOL     OW 2140   2.628   0.464   2.459  0.5132  0.0722  0.4385
  714SOL    HW1 2141   2.562   0.451   2.537  0.5582 -2.2526  1.4871
  714SOL    HW2 2142   2.582   0.472   2.366 -2.8466 -1.4948  0.7380
  715SOL     OW 2143   1.569   2.095   1.131  0.0643 -0.2312  0.2378
  715SOL    HW1 2144   1.553   2.195   1.150  1.3035  1.4491 -0.8783
  715SOL    HW2 2145   1.638   2.066   1.203 -0.8060 -0.0381  0.8468
  716SOL     OW 2146   1.239   0.202   1.490 -0.0824 -0.4941 -0.4672
  716SOL    HW1 2147   1.136   0.206   1.504  0.7484  0.3157  1.1226
  716SOL    HW2 2148   1.279   0.297   1.469  1.0687  1.0368  0.6696
  717SOL     OW 2149   1.084   0.612   1.612  0.0646  0.2346 -0.0914
  717SOL    HW1 2150   1.180   0.652   1.634 -0.4479  0.0526  0.2191
  717SOL    HW2 2151   1.076   0.578   1.513 -1.8395  0.5984 -0.0852
  718SOL     OW 2152   0.626   1.072   0.993 -0.0878  0.7127 -0.5482
  718SOL    HW1 2153   0.590   1.082   0.892 -0.7593  0.8385 -1.8292
  718SOL    HW2 2154   0.710   1.136   1.017  0.2537  1.3424  0.6212
  719SOL     OW 2155   0.799   1.879   2.232  0.3443 -0.0849  0.1787
  719SOL    HW1 2156   0.861   1.931   2.295  0.7033 -1.3704 -1.7630
  719SOL    HW2 2157   0.693   1.901   2.233 -3.4095 -2.2906 -1.3104
  720SOL     OW 2158   2.215   1.088   0.236  0.3152  0.3676 -0.1732
  720SOL    HW1 2159   2.293   1.029   0.203 -2.7045 -0.4958  0.0056
  720SOL    HW2 2160   2.176   1.052   0.323 -1.0998  1.0398 -2.9435
  721SOL     OW 2161   2.267   0.014   2.048 -0.8792  0.9803  0.5773
  721SOL    HW1 2162   2.292   0.104   2.006  0.1744  1.7131  1.8707
  721SOL    HW2 2163   2.164   0.001   2.066 -1.4575  2.5906  1.6067
  722SOL     OW 2164   2.381   1.660   0.513 -0.4195 -0.5297 -0.6632
  722SOL    HW1 2165   2.386   1.582   0.445  0.5848 -0.0847  1.2255
  722SOL    HW2 2166   2.282   1.688   0.529 -2.5126 -3.1192  0.7658
  723SOL     OW 2167   2.550   2.839   1.935  0.4179 -0.0500 -0.1494
  723SOL    HW1 2168   2.617   2.847   2.016 -0.5893  2.4732 -0.6669
  723SOL    HW2 2169   2.455   2.843   1.969 -0.1940  3.5065  0.3200
  724SOL     OW 2170   0.452   2.433   2.438 -0.6261 -0.2935 -0.5548
  724SOL    HW1 2171   0.354   2.464   2.422 -1.9164 -1.2696  0.4677
  724SOL    HW2 2172   0.472   2.406   2.536 -3.3302  2.4877 -1.0918
  725SOL     OW 2173   2.364   2.763   1.431 -0.8579  0.0987  0.0609
  725SOL    HW1 2174   2.416   2.801   1.344 -0.2826 -0.7979 -2.9940
  725SOL    HW2 2175   2.372   2.657   1.429 -1.7162  0.1207 -1.8129
  726SOL     OW 2176   2.391   2.264   0.708  0.0525  0.3981  0.3694
  726SOL    HW1 2177   2.325   2.346   0.705 -3.7225 -1.4715  0.5809
  726SOL    HW2 2178   2.375   2.193   0.636  2.3479 -0.4212 -0.7429
  727SOL     OW 2179   0.216   0.011   0.123 -0.0532  0.2954  0.1170
  727SOL    HW1 2180   0.274  -0.071   0.109  0.3320 -1.1015 -1.1878
  727SOL    HW2 2181   0.229   0.079   0.046  0.7640  2.0079  1.7559
  728SOL     OW 2182   2.755   0.690   1.002 -0.0188  0.3712  0.5543
  728SOL    HW1 2183   2.664   0.667   0.956 -2.4634 -1.6437 -0.8396
  728SOL    HW2 2184   2.789   0.631   1.084  0.6706 -0.6521 -0.1136
  729SOL     OW 2185   2.900   2.466   0.697  0.1679 -0.0153  0.4743
  729SOL    HW1 2186   2.846   2.374   0.694 -2.5404 -1.7463 -0.1196
  729SOL    HW2 2187   3.003   2.454   0.711  0.9449  1.3160 -1.1427
  730SOL     OW 2188   2.578   0.613   0.817  0.1455  0.9293  0.1741
  730SOL    HW1 2189   2.524   0.684   0.762 -2.8238  1.4713 -1.6806
  730SOL    HW2 2190   2.658   0.584   0.762  0.4199 -0.1853  1.0149
  731SOL     OW 2191   0.021   2.117   2.475  0.2307  0.1956 -0.2195
  731SOL    HW1 2192   0.041   2.123   2.576 -1.1226 -0.2876  4.4919
  731SOL    HW2 2193   0.020   2.205   2.420  2.6856  1.2505  1.8964
  732SOL     OW 2194   1.116   2.893   1.958  0.4084 -0.4911  0.0983
  732SOL    HW1 2195   1.147   2.821   2.029  0.3924  1.4605  2.4294
  732SOL    HW2 2196   1.135   2.862   1.862 -1.2873 -2.0012  0.9560
  733SOL     OW 2197   3.065   0.756   2.040  0.2460  0.4134  0.1036
  733SOL    HW1 2198   3.155   0.806   2.031 -2.5464  0.2155  1.6138
  733SOL    HW2 2199   3.068   0.651   2.029  0.2470 -1.6353 -0.1822
  734SOL     OW 2200   1.405   0.342   2.720 -0.1344  0.1241 -0.5066
  734SOL    HW1 2201   1.423   0.423   2.785 -2.6952  2.3065  0.3590
  734SOL    HW2 2202   1.329   0.283   2.757  0.2641  2.8800 -1.4402
  735SOL     OW 2203   2.863   2.600   2.270  0.0183 -0.0702  0.1673
  735SOL    HW1 2204   2.796   2.638   2.197 -0.4600  0.9802  1.0796
  735SOL    HW2 2205   2.958   2.585   2.232  0.9598 -0.8147 -2.6985
  736SOL     OW 2206   0.794   0.410   2.671  0.5369  0.4165  0.2725
  736SOL    HW1 2207   0.731   0.487   2.644 -1.0968 -0.1135  1.3549
  736SOL    HW2 2208   0.807   0.338   2.592 -1.4363 -2.6986 -3.1368
  737SOL     OW 2209   2.670   0.488   2.855  0.4409 -0.3738 -0.2922
  737SOL    HW1 2210   2.641   0.437   2.945 -0.6697  0.4615 -1.4348
  737SOL    HW2 2211   2.761   0.455   2.816 -1.3155 -1.0159  1.3876
  738SOL     OW 2212   1.633   1.218   2.996  0.3031 -0.0127  0.5920
  738SOL    HW1 2213   1.735   1.218   2.971  2.7538  0.3763 -0.6908
  738SOL    HW2 2214   1.580   1.132   2.970 -0.6641  0.0782 -0.3260
  739SOL     OW 2215   1.805   0.654   0.693 -0.2719 -0.2096  0.0439
  739SOL    HW1 2216   1.813   0.631   0.793 -0.7502  0.8034  2.0509
  739SOL    HW2 2217   1.811   0.569   0.631 -0.4882 -0.5810 -0.7241
  740SOL     OW 2218   1.970   1.872   2.174  0.0807  0.2849 -0.2388
  740SOL    HW1 2219   2.045   1.868   2.102  0.8328  2.9283 -2.7323
  740SOL    HW2 2220   1.891   1.810   2.153  0.4530  1.5560  0.2277
  741SOL     OW 2221   2.479   0.076   2.592 -0.2438  0.9487 -0.5836
  741SOL    HW1 2222   2.571   0.037   2.620  1.6913  0.3086 -0.3250
  741SOL    HW2 2223   2.460   0.051   2.493 -0.7172  0.7777  0.9732
  742SOL     OW 2224   2.236   1.378   0.113  0.5351 -0.0629 -0.3892
  742SOL    HW1 2225   2.189   1.466   0.145 -0.5796  1.5936 -0.8992
  742SOL    HW2 2226   2.230   1.305   0.189 -1.3727  0.3589  0.7651
  743SOL     OW 2227   1.742   0.586   2.630  0.2354 -0.4440  0.0708
  743SOL    HW1 2228   1.747   0.558   2.531 -0.7317  1.7717  0.1332
  743SOL    HW2 2229   1.685   0.674   2.640 -3.5242 -0.3731 -0.5578
  744SOL     OW 2230   2.658   2.100   0.036 -0.7148  0.1612  0.2778
  744SOL    HW1 2231   2.560   2.111   0.054  1.7057 -3.3840 -0.7512
  744SOL    HW2 2232   2.709   2.082   0.127 -0.0488  0.9090  0.7323
  745SOL     OW 2233   2.161   2.708   2.211  0.3699 -0.3367  0.3373
  745SOL    HW1 2234   2.081   2.668   2.156  0.6589  0.4592 -1.2446
  745SOL    HW2 2235   2.137   2.756   2.298  1.6394  1.6974  1.1105
  746SOL     OW 2236   3.081   2.588   1.808 -0.0230  0.3587 -0.0560
  746SOL    HW1 2237   3.158   2.582   1.740 -0.8378 -2.0669  2.1000
  746SOL    HW2 2238   3.074   2.677   1.858 -0.6045 -1.1029 -0.9056
  747SOL     OW 2239   3.070   1.818   1.677 -0.2733  0.3719  0.3922
  747SOL    HW1 2240   3.048   1.715   1.683  0.3841  0.3961 -0.1435
  747SOL    HW2 2241   3.138   1.846   1.603 -0.4791  1.3004 -0.6815
  748SOL     OW 2242   1.777   2.716   2.889 -0.0945  1.0026  0.4421
  748SOL    HW1 2243   1.800   2.738   2.993 -1.6972  3.8041  0.9868
  748SOL    HW2 2244   1.675   2.692   2.883  1.1320  1.2038  0.8589
  749SOL     OW 2245   1.287   0.044   0.838 -0.6304  0.1756  0.4163
  749SOL    HW1 2246   1.234  -0.040   0.825 -0.5176  3.4856 -2.4647
  749SOL    HW2 2247   1.307   0.087   0.747  1.2540 -1.3050  1.8121
  750SOL     OW 2248   2.345   0.227   1.869  0.8237 -0.2725 -0.0786
  750SOL    HW1 2249   2.341   0.269   1.769  1.0070  0.2732 -2.7638
  750SOL    HW2 2250   2.306   0.291   1.936 -1.8881 -0.7026 -0.8796
  751SOL     OW 2251   0.827   2.213   2.802 -0.4860  0.2925 -0.0002
  751SOL    HW1 2252   0.882   2.210   2.891  0.8590 -0.6571 -1.0252
  751SOL    HW2 2253   0.751   2.144   2.798  1.0655  1.6436 -0.8093
  752SOL     OW 2254   1.244   0.898   1.580 -0.2620  0.2654  0.3433
  752SOL    HW1 2255   1.314   0.945   1.517  0.4050  0.6780 -0.0485
  752SOL    HW2 2256   1.289   0.814   1.621  1.1797 -0.8839 -0.4333
  753SOL     OW 2257   0.942   2.616   1.769 -0.3029 -0.1081  0.3396
  753SOL    HW1 2258   1.042   2.643   1.754  2.1716  1.7603 -0.3825
  753SOL    HW2 2259   0.885   2.699   1.781  0.2447 -0.2900  0.7857
  754SOL     OW 2260   1.165   1.267   3.059 -0.2472  0.1503  0.0947
  754SOL    HW1 2261   1.216   1.201   3.001 -2.7367 -0.8116  2.1021
  754SOL    HW2 2262   1.179   1.367   3.023 -1.6886  2.1371 -2.4350
  755SOL     OW 2263   1.967   0.477   2.208  0.7509  0.3539 -0.0552
  755SOL    HW1 2264   2.029   0.424   2.274  1.2399 -1.1174  1.9832
  755SOL    HW2 2265   1.878   0.500   2.257  2.3068  0.4475  0.6814
  756SOL     OW 2266   2.631   1.009   2.946  0.2012  0.7286 -0.3734
  756SOL    HW1 2267   2.724   0.957   2.951 -2.7552 -2.8732 -1.3611
  756SOL    HW2 2268   2.552   0.953   2.991 -3.2564  0.3737  2.1552
  757SOL     OW 2269   0.126   0.515   1.755  0.8940  0.3494 -0.9570
  757SOL    HW1 2270   0.111   0.615   1.729  1.7965 -0.9338 -0.6073
  757SOL    HW2 2271   0.130   0.461   1.668 -0.0478  0.0555 -2.1804
  758SOL     OW 2272   2.396   3.075   1.499 -0.1171 -0.1419  0.9163
  758SOL    HW1 2273   2.321   3.023   1.542 -0.4652  1.8662  1.1005
  758SOL    HW2 2274   2.383   3.092   1.398  0.6304 -0.2762  1.6466
  759SOL     OW 2275   1.674   3.088   0.064 -0.1452 -0.0474  0.0817
  759SOL    HW1 2276   1.628   3.147  -0.010 -0.2133  0.8925 -2.3304
  759SOL    HW2 2277   1.781   3.088   0.047  0.8006 -0.4459  1.5745
  760SOL     OW 2278   2.739   2.020   2.788 -0.6894  0.1273  0.2448
  760SOL    HW1 2279   2.801   1.939   2.790 -1.3071 -1.7022  2.3172
  760SOL    HW2 2280   2.781   2.111   2.788  0.1772 -2.8265  4.3218
  761SOL     OW 2281   1.941   1.700   1.616 -0.4126  0.1163  0.1495
  761SOL    HW1 2282   1.963   1.608   1.660  0.0345 -0.0894 -0.0518
  761SOL    HW2 2283   1.852   1.692   1.555  1.3898 -1.3347 -2.8747
  762SOL     OW 2284   0.519   2.402   0.955 -0.2146 -0.4727 -0.2734
  762SOL    HW1 2285   0.559   2.436   0.863 -0.5595  1.2030  0.9847
  762SOL    HW2 2286   0.528   2.477   1.024  2.6970  0.8983 -2.4459
  763SOL     OW 2287   2.098   1.532   2.999 -0.3325  0.3927  0.3630
  763SOL    HW1 2288   2.148   1.478   2.929 -0.9180  1.3915 -2.1166
  763SOL    HW2 2289   2.015   1.480   3.023  1.5601 -1.3107  0.8736
  764SOL     OW 2290   0.682   0.503   0.901 -0.0942 -0.2475 -0.3248
  764SOL    HW1 2291   0.646   0.422   0.847  1.5317  1.6441  0.6728
  764SOL    HW2 2292   0.784   0.528   0.893 -1.7217  0.0282  0.2722
  765SOL     OW 2293   0.669   0.245   0.791  0.1634  0.2865 -0.5112
  765SOL    HW1 2294   0.740   0.214   0.723  0.1986  1.1987  0.5624
  765SOL    HW2 2295   0.686   0.207   0.883 -1.5459  1.7651 -2.1626
  766SOL     OW 2296   2.943   2.095   0.034 -0.0894  0.2151 -0.2826
  766SOL    HW1 2297   2.860   2.124  -0.016  2.0568 -2.0479  2.1165
  766SOL    HW2 2298   3.031   2.149   0.014  0.5446 -0.0363 -1.9292
  767SOL     OW 2299   2.849   1.551   0.516  0.5645  0.4877 -0.1671
  767SOL    HW1 2300   2.756   1.539   0.564  0.4090 -1.4669  0.7155
  767SOL    HW2 2301   2.920   1.590   0.574 -1.7398  0.2820 -2.7048
  768SOL     OW 2302   1.101   0.261   0.303  0.4318  0.2919  0.0609
  768SOL    HW1 2303   1.015   0.222   0.343 -1.9718 -1.3486 -1.2458
  768SOL    HW2 2304   1.170   0.185   0.274 -0.7299 -0.6639 -1.4165
  769SOL     OW 2305   1.190   1.815   2.273  0.1228  0.3128  0.1822
  769SOL    HW1 2306   1.157   1.841   2.364  1.5042 -2.1688 -5.4401
  769SOL    HW2 2307   1.168   1.719   2.246 -1.6513  0.0294  1.1629
  770SOL     OW 2308   0.165   1.212   2.400  0.6464 -0.6723 -0.2859
  770SOL    HW1 2309   0.153   1.257   2.496 -2.3627  1.1132  2.7357
  770SOL    HW2 2310   0.078   1.207   2.346 -0.9921 -1.4075  0.6747
  771SOL     OW 2311   2.948   2.833   1.925 -0.6939  0.4571  0.5965
  771SOL    HW1 2312   2.939   2.897   1.850 -1.3108 -1.4137  0.2258
  771SOL    HW2 2313   2.935   2.873   2.022 -1.7624 -0.3785  0.9657
  772SOL     OW 2314   2.121   0.122   2.973  0.4900  0.3201 -0.4150
  772SOL    HW1 2315   2.202   0.063   2.970 -1.8845  0.9169  1.5929
  772SOL    HW2 2316   2.148   0.214   3.019 -2.2371 -1.4835 -1.1448
  773SOL     OW 2317   0.676   2.062   2.461 -0.2397  0.2620  0.0502
  773SOL    HW1 2318   0.655   2.116   2.376  0.2020  0.5125 -0.5647
  773SOL    HW2 2319   0.617   2.092   2.539 -2.1160 -0.2569 -2.7604
  774SOL     OW 2320   2.039   3.094   2.609  0.0971  0.4247 -0.3184
  774SOL    HW1 2321   2.050   3.193   2.635  1.1834 -0.8330  0.0954
  774SOL    HW2 2322   2.106   3.021   2.654  2.3941 -1.8844  0.6666
  775SOL     OW 2323   2.499   2.842   2.341 -0.3552  0.1167 -0.8516
  775SOL    HW1 2324   2.456   2.935   2.333 -2.7731  0.4830 -1.3520
  775SOL    HW2 2325   2.580   2.833   2.405 -1.9477 -1.4995 -0.4805
  776SOL     OW 2326   0.033   1.248   0.201  0.5100  0.1402  0.0845
  776SOL    HW1 2327   0.006   1.183   0.123  0.2356 -1.0450 -0.8759
  776SOL    HW2 2328  -0.053   1.297   0.230  3.3172 -0.3395 -0.2762
  777SOL     OW 2329   0.236   2.682   0.498  0.6432 -0.2606 -0.1646
  777SOL    HW1 2330   0.145   2.679   0.449  0.5774  2.1633  2.1483
  777SOL    HW2 2331   0.283   2.771   0.483  2.2207 -0.7126  0.6514
  778SOL     OW 2332   1.325   1.956   0.162  0.0681 -0.0672  0.0217
  778SOL    HW1 2333   1.260   1.988   0.235  2.4722  0.1534  0.5356
  778SOL    HW2 2334   1.354   2.031   0.097  0.8743 -2.0590  0.9179
  779SOL     OW 2335   0.183   0.813   0.506  0.0816  0.3954  0.9965
  779SOL    HW1 2336   0.146   0.713   0.487 -0.7535 -2.5301  0.0815
  779SOL    HW2 2337   0.132   0.859   0.583 -0.9045  0.5588  0.5588
  780SOL     OW 2338   0.044   0.314   2.401 -0.2561  0.4602  0.2860
  780SOL    HW1 2339   0.009   0.410   2.409 -0.1095  0.2947  1.0762
  780SOL    HW2 2340   0.124   0.303   2.333  0.4899 -2.8591 -0.8745
  781SOL     OW 2341   0.586   1.715   1.588 -0.1590 -0.6801  0.2870
  781SOL    HW1 2342   0.625   1.746   1.680  0.7383  2.6352 -1.1779
  781SOL    HW2 2343   0.537   1.629   1.603 -0.2166  0.5712  0.9050
  782SOL     OW 2344   2.629   0.134   0.920  0.9808 -0.5600 -0.2532
  782SOL    HW1 2345   2.555   0.173   0.862  1.3224  0.4549 -0.3944
  782SOL    HW2 2346   2.647   0.185   1.006 -0.1849 -0.2269 -2.0482
  783SOL     OW 2347   2.841   0.698   2.502 -0.5995 -0.2218 -0.0993
  783SOL    HW1 2348   2.795   0.731   2.590  0.3605  3.5456  0.9215
  783SOL    HW2 2349   2.783   0.618   2.471 -0.3062 -0.5604 -0.6568
  784SOL     OW 2350   1.362   2.190   0.012  0.6763 -0.4376 -0.1040
  784SOL    HW1 2351   1.448   2.240   0.043  0.0585  0.5598  1.0243
  784SOL    HW2 2352   1.348   2.190  -0.087 -0.8627 -0.4317  0.5403
  785SOL     OW 2353   2.165   0.351   0.007 -0.2782  0.7580  0.0650
  785SOL    HW1 2354   2.067   0.351   0.052 -2.1605  0.9012 -1.2618
  785SOL    HW2 2355   2.195   0.449  -0.028 -1.7638  0.2614 -1.2123
  786SOL     OW 2356   2.026   2.170   2.266 -0.2480 -0.2148  1.0352
  786SOL    HW1 2357   2.006   2.080   2.224 -2.4749  0.0560  0.5723
  786SOL    HW2 2358   2.126   2.176   2.283  2.3540  1.3245 -1.7975
  787SOL     OW 2359   1.378   0.629   0.824  0.1583 -0.1627 -0.4592
  787SOL    HW1 2360   1.306   0.696   0.860  1.8710 -1.9203 -0.7777
  787SOL    HW2 2361   1.400   0.637   0.724 -2.1820  0.0735  0.5376
  788SOL     OW 2362   1.209   0.437   3.026 -0.2249  0.5748  0.0239
  788SOL    HW1 2363   1.120   0.444   2.969 -1.8819 -0.3633 -3.9426
  788SOL    HW2 2364   1.287   0.486   2.979 -0.5701 -1.6838 -0.5680
  789SOL     OW 2365   2.626   0.099   1.826 -0.0682  0.1310  0.3308
  789SOL    HW1 2366   2.537   0.154   1.829 -2.8205 -0.0955  0.1033
  789SOL    HW2 2367   2.608  -0.002   1.800  3.0961  2.5231  2.8629
  790SOL     OW 2368   2.583   2.625   0.797 -0.6578  0.4552 -0.2466
  790SOL    HW1 2369   2.644   2.627   0.710  1.6981 -2.0929 -1.3111
  790SOL    HW2 2370   2.588   2.720   0.840 -1.6846 -1.3618  0.3120
  791SOL     OW 2371   1.977   1.283   0.221  0.3609 -0.4632  0.1547
  791SOL    HW1 2372   1.893   1.234   0.260 -0.3059 -3.4065  1.1180
  791SOL    HW2 2373   2.045   1.206   0.187  2.0513 -2.3287 -0.3319
  792SOL     OW 2374   0.408   1.978   2.209 -0.2074  0.0017 -0.0588
  792SOL    HW1 2375   0.462   2.050   2.258  1.1788 -0.2545 -2.1704
  792SOL    HW2 2376   0.336   1.932   2.265  1.0447  0.4492 -0.5158
  793SOL     OW 2377   2.148   1.541   2.141 -0.0036 -0.2267 -0.5995
  793SOL    HW1 2378   2.210   1.623   2.148  1.5920 -2.2103  1.3170
  793SOL    HW2 2379   2.143   1.504   2.042 -1.8633  1.5616  4.3180
  794SOL     OW 2380   0.480   1.461   2.475  0.3441  0.7372 -0.1793
  794SOL    HW1 2381   0.510   1.404   2.392  3.3484  0.1828 -0.4485
  794SOL    HW2 2382   0.406   1.534   2.448 -0.3355  0.0315  0.8814
  795SOL     OW 2383   2.540   2.320   1.807  0.2828 -0.0063 -0.0502
  795SOL    HW1 2384   2.553   2.368   1.894 -0.5874 -1.0999 -1.6690
  795SOL    HW2 2385   2.470   2.242   1.813 -2.3790 -0.0874  0.5773
  796SOL     OW 2386   3.050   1.064   2.694 -0.0951 -0.0523 -0.0411
  796SOL    HW1 2387   2.958   1.104   2.711 -0.3439 -2.0931 -1.4210
  796SOL    HW2 2388   3.086   1.002   2.763 -1.8212  3.8912  1.5923
  797SOL     OW 2389   0.680   0.657   1.361  0.0372 -0.5397  0.1339
  797SOL    HW1 2390   0.751   0.697   1.426 -0.1685 -1.1208  0.2950
  797SOL    HW2 2391   0.667   0.708   1.271 -0.7788  1.2586  1.3877
  798SOL     OW 2392   1.197   0.462   0.956 -0.3718  0.1381 -0.8403
  798SOL    HW1 2393   1.237   0.460   1.049  2.4895 -1.0438 -2.8593
  798SOL    HW2 2394   1.255   0.521   0.893 -3.9182  2.0776  1.4459
  799SOL     OW 2395   1.829   2.725   1.011 -0.4373 -0.2972  0.0488
  799SOL    HW1 2396   1.821   2.643   1.073 -0.2088 -0.2220  3.5281
  799SOL    HW2 2397   1.848   2.710   0.909  0.8956 -0.6597  0.7162
  800SOL     OW 2398   2.955   0.846   1.814 -0.3137  0.4229 -0.0054
  800SOL    HW1 2399   2.973   0.946   1.829  0.8673 -2.1465  0.6801
  800SOL    HW2 2400   2.959   0.798   1.906  0.5073 -1.8535 -1.6821
  801SOL     OW 2401   1.966   2.150   0.130 -0.1684 -0.4080 -0.1099
  801SOL    HW1 2402   1.894   2.092   0.088 -0.7110  1.5772 -1.5383
  801SOL    HW2 2403   2.064   2.110   0.116 -1.2934 -1.3906  1.0610
  802SOL     OW 2404   0.671   0.637   2.542 -0.4758 -1.0199 -0.1496
  802SOL    HW1 2405   0.710   0.643   2.447  1.5777 -1.0624  2.0812
  802SOL    HW2 2406   0.568   0.646   2.546  1.0983  0.9615  0.4793
  803SOL     OW 2407   0.912   0.085   0.867  0.0323 -0.1623  0.4278
  803SOL    HW1 2408   0.982   0.152   0.904 -0.2444  0.1192  1.0111
  803SOL    HW2 2409   0.902   0.097   0.768  1.3897  0.2693  0.7818
  804SOL     OW 2410   0.301   0.021   2.195 -0.7145  0.1020 -0.5222
  804SOL    HW1 2411   0.273   0.121   2.210  0.7213 -0.1177  1.2292
  804SOL    HW2 2412   0.252  -0.022   2.113  1.7132 -1.0209 -0.6016
  805SOL     OW 2413   2.390   0.387   0.332  0.3759  0.4757 -0.0025
  805SOL    HW1 2414   2.467   0.372   0.392 -2.6083  2.3439 -0.6308
  805SOL    HW2 2415   2.378   0.313   0.260  0.4796 -0.1477  1.8354
  806SOL     OW 2416   0.635   2.532   1.828 -0.1234  1.0408 -0.2757
  806SOL    HW1 2417   0.569   2.610   1.851  0.7118 -0.8417  0.4502
  806SOL    HW2 2418   0.666   2.536   1.731 -1.7057  1.1003 -0.4733
  807SOL     OW 2419   2.518   0.979   0.479 -0.1784 -0.5877  0.1973
  807SOL    HW1 2420   2.610   0.959   0.509 -3.4836 -1.2739  3.3350
  807SOL    HW2 2421   2.507   0.979   0.376  0.1623 -0.1869 -2.6754
  808SOL     OW 2422   0.639   2.032   2.875  0.6989  0.1098 -0.0867
  808SOL    HW1 2423   0.636   2.055   2.975  2.7359 -0.8453  1.0557
  808SOL    HW2 2424   0.662   1.930   2.861 -2.1827 -1.5122  2.0046
  809SOL     OW 2425   2.560   1.983   1.898  0.5714 -0.0080 -0.2781
  809SOL    HW1 2426   2.659   1.994   1.922 -2.1924  0.1731 -1.1167
  809SOL    HW2 2427   2.532   1.982   1.801 -3.4337  0.8193  1.0331
  810SOL     OW 2428   2.183   1.099   0.546  0.5700  0.8186 -0.1538
  810SOL    HW1 2429   2.235   1.034   0.607  1.4629 -1.5414 -0.1014
  810SOL    HW2 2430   2.151   1.190   0.582  0.7848  0.6208 -1.8876
  811SOL     OW 2431   1.275   2.595   1.198  0.3683 -0.0422 -0.3521
  811SOL    HW1 2432   1.252   2.496   1.196 -1.9682 -0.5573  1.9737
  811SOL    HW2 2433   1.258   2.629   1.294 -0.5192 -1.1899  0.0265
  812SOL     OW 2434   1.432   0.771   1.969  0.2857 -0.5045 -0.0443
  812SOL    HW1 2435   1.376   0.726   1.894  0.5477 -0.6208  1.3479
  812SOL    HW2 2436   1.446   0.871   1.970  2.9165 -3.0394 -0.0110
  813SOL     OW 2437   1.606   2.067   2.416  0.4541  0.0292 -0.6477
  813SOL    HW1 2438   1.694   2.011   2.432  1.9977  1.5180 -2.6173
  813SOL    HW2 2439   1.576   2.054   2.320  1.9135  1.4812 -0.8426
  814SOL     OW 2440   2.988   1.708   2.875  0.3586  0.7708 -0.8399
  814SOL    HW1 2441   3.048   1.663   2.953 -0.9800 -1.9985  0.4473
  814SOL    HW2 2442   2.998   1.810   2.867  1.5833 -0.9594  0.4159
  815SOL     OW 2443   2.174   2.900   2.764 -0.3002 -0.2640 -0.4387
  815SOL    HW1 2444   2.140   2.811   2.803  1.7827 -0.3011 -0.2584
  815SOL    HW2 2445   2.245   2.947   2.823  1.5065 -0.6810 -3.4264
  816SOL     OW 2446   1.526   0.368   1.650  0.2368 -0.4789  0.0531
  816SOL    HW1 2447   1.579   0.289   1.685 -0.0037  0.4122  0.5839
  816SOL    HW2 2448   1.443   0.392   1.707  0.3988  2.5490  0.4536
  817SOL     OW 2449   0.385   1.239   2.652  0.0019  0.2908 -0.0599
  817SOL    HW1 2450   0.281   1.225   2.653 -1.1196  2.6658  1.9351
  817SOL    HW2 2451   0.404   1.329   2.594  1.9119  1.1961 -2.4727
  818SOL     OW 2452   2.017   0.826   0.464  0.0019  0.1422 -0.0121
  818SOL    HW1 2453   2.118   0.838   0.458 -0.0511  3.9012 -0.6401
  818SOL    HW2 2454   1.975   0.835   0.559  0.9572  1.5929  0.6959
  819SOL     OW 2455   2.758   2.887   3.086  0.3066 -0.3964 -0.9505
  819SOL    HW1 2456   2.750   2.819   3.163 -1.0786 -1.3515 -1.5462
  819SOL    HW2 2457   2.707   2.858   3.005 -1.7056  1.3813  2.2951
  820SOL     OW 2458   1.280   1.053   0.554  0.1542 -0.0385  0.1412
  820SOL    HW1 2459   1.316   1.121   0.624  3.1047 -0.4148  0.2493
  820SOL    HW2 2460   1.233   0.970   0.603 -1.5324 -2.4959 -1.3218
  821SOL     OW 2461   0.094   1.187   0.709  0.3865  0.2334 -0.2379
  821SOL    HW1 2462   0.035   1.184   0.799 -0.6889  0.7306 -1.9895
  821SOL    HW2 2463   0.157   1.266   0.699  1.4320 -0.4163 -1.5313
  822SOL     OW 2464   2.527   1.762   2.428 -0.0006 -0.0664  0.2175
  822SOL    HW1 2465   2.529   1.799   2.523  0.3833 -0.8171 -0.8393
  822SOL    HW2 2466   2.439   1.784   2.382 -0.0771 -2.2030  0.9703
  823SOL     OW 2467   2.017   0.953   1.207 -0.1515  0.0398 -0.1767
  823SOL    HW1 2468   1.997   0.915   1.303  0.1472  2.8559  0.9685
  823SOL    HW2 2469   1.925   0.948   1.152  2.3891 -2.4201  1.1254
  824SOL     OW 2470   0.189   1.906   2.785 -0.7049  0.0559  0.4090
  824SOL    HW1 2471   0.232   1.868   2.873  0.9787 -0.9559  0.6605
  824SOL    HW2 2472   0.261   1.905   2.712  2.9310  0.4511 -0.8819
  825SOL     OW 2473   1.317   1.080   0.257 -0.1778  0.1669 -0.1718
  825SOL    HW1 2474   1.329   1.184   0.235 -1.1586 -0.1887  0.8877
  825SOL    HW2 2475   1.315   1.060   0.358  0.4557  1.9075  1.1991
  826SOL     OW 2476   1.928   0.596   1.578  0.0891 -0.1609 -0.0688
  826SOL    HW1 2477   2.016   0.579   1.630  0.1523  0.7472  0.1494
  826SOL    HW2 2478   1.888   0.512   1.529 -1.7770 -0.9078  0.8696
  827SOL     OW 2479   0.729   1.159   0.406 -0.0748  0.1605  0.2124
  827SOL    HW1 2480   0.788   1.085   0.359  1.8094 -0.5281  0.5241
  827SOL    HW2 2481   0.636   1.121   0.432 -0.3190 -0.0182  2.1488
  828SOL     OW 2482   2.631   0.129   1.556 -0.3445  0.0182 -0.0676
  828SOL    HW1 2483   2.553   0.068   1.528  1.4743 -0.3502 -0.3950
  828SOL    HW2 2484   2.648   0.128   1.663 -1.7912  0.5444  1.6230
  829SOL     OW 2485   2.914   2.420   2.938  0.2841 -0.4078  0.5728
  829SOL    HW1 2486   2.819   2.388   2.976 -0.2519 -1.7395 -0.1540
  829SOL    HW2 2487   2.929   2.519   2.929  1.1328  0.5063  0.1348
  830SOL     OW 2488   2.883   0.908   3.036  0.0917 -0.0710 -0.8171
  830SOL    HW1 2489   2.923   1.005   3.054 -0.3760  0.4686  1.0883
  830SOL    HW2 2490   2.915   0.828   3.102 -1.7464 -1.8401  0.9236
  831SOL     OW 2491   0.099   0.574   0.404  0.9455  0.6595 -0.3769
  831SOL    HW1 2492   0.071   0.503   0.475 -2.2138 -0.5123 -1.9128
  831SOL    HW2 2493   0.103   0.533   0.310  0.4011  0.0466 -0.0027
  832SOL     OW 2494   1.789   0.757   3.023 -0.0201 -0.7413  0.2069
  832SOL    HW1 2495   1.713   0.808   2.980  3.3895 -0.0811 -1.2428
  832SOL    HW2 2496   1.765   0.659   3.045  0.5522  0.9456 -0.3683
  833SOL     OW 2497   2.383   2.086   0.496 -0.4852  0.1853  0.5111
  833SOL    HW1 2498   2.291   2.039   0.491  0.6638 -1.1116 -2.3411
  833SOL    HW2 2499   2.458   2.025   0.449 -0.6616  2.1942  1.3331
  834SOL     OW 2500   0.173   0.118   0.585 -0.3969 -0.0108 -0.0295
  834SOL    HW1 2501   0.171   0.023   0.627 -2.3917 -1.7184 -0.0694
  834SOL    HW2 2502   0.220   0.124   0.490 -1.2902  0.7349  0.5425
  835SOL     OW 2503   2.424   1.567   1.094  0.5148  0.6034  0.3491
  835SOL    HW1 2504   2.504   1.602   1.152 -2.0198  0.4574  0.5275
  835SOL    HW2 2505   2.445   1.548   0.996 -1.7105  4.2210 -1.3968
  836SOL     OW 2506   1.583   0.815   2.580 -0.4050 -0.0392 -0.7238
  836SOL    HW1 2507   1.479   0.807   2.579  0.6536 -0.5877 -0.5518
  836SOL    HW2 2508   1.619   0.809   2.485 -2.3221 -4.7256  2.4778
  837SOL     OW 2509   1.716   0.108   0.572  0.3781  0.1117 -0.1023
  837SOL    HW1 2510   1.684   0.190   0.624  2.5561 -2.7864 -0.4817
  837SOL    HW2 2511   1.670   0.098   0.478 -1.0421 -0.8863  0.2303
  838SOL     OW 2512   1.206   1.418   2.708  0.2548  0.4597 -0.1908
  838SOL    HW1 2513   1.181   1.438   2.807 -1.5877  1.3147 -2.2113
  838SOL    HW2 2514   1.160   1.335   2.667 -0.8864  1.0707  0.2309
  839SOL     OW 2515   1.579   0.345   0.966  0.4125 -0.2342  0.2874
  839SOL    HW1 2516   1.548   0.403   1.045 -0.0496 -1.1047 -1.5953
  839SOL    HW2 2517   1.557   0.239   0.971 -2.4646  1.5986 -1.3128
  840SOL     OW 2518   2.601   2.947   1.682  0.5121  0.1870 -0.2660
  840SOL    HW1 2519   2.531   2.948   1.603  0.4447  0.3198 -1.4621
  840SOL    HW2 2520   2.574   2.904   1.773  1.4280 -1.3161 -1.1740
  841SOL     OW 2521   1.525   0.801   2.936 -0.4109  0.0707 -0.1649
  841SOL    HW1 2522   1.500   0.823   3.039 -2.4000  3.0701  0.3583
  841SOL    HW2 2523   1.517   0.886   2.873  1.0982 -0.3982  2.0928
  842SOL     OW 2524   0.852   1.580   1.019  0.1596  0.9186 -0.0372
  842SOL    HW1 2525   0.810   1.662   1.063  1.0138  0.0975  3.0338
  842SOL    HW2 2526   0.775   1.513   0.989 -1.1247 -0.3976 -0.8733
  843SOL     OW 2527   0.147   0.130   1.450  0.2935 -0.8744  0.0988
  843SOL    HW1 2528   0.226   0.186   1.482 -1.4139 -0.2745  1.8040
  843SOL    HW2 2529   0.157   0.027   1.443 -0.9326 -2.4179  1.7806
  844SOL     OW 2530   0.714   2.540   0.200 -0.1137 -0.1271  0.3693
  844SOL    HW1 2531   0.703   2.553   0.302  1.6015 -0.1445  1.2913
  844SOL    HW2 2532   0.632   2.582   0.152 -1.1485 -0.1109  0.4324
  845SOL     OW 2533   1.721   2.970   1.292  0.4759  1.0302  0.0186
  845SOL    HW1 2534   1.687   3.008   1.381  1.5030 -0.1508 -0.1031
  845SOL    HW2 2535   1.646   2.964   1.219  0.7843  1.7778 -0.5098
  846SOL     OW 2536   1.697   2.995   0.891 -0.3099  0.3824  0.2420
  846SOL    HW1 2537   1.765   3.042   0.832 -0.3764 -0.7845  0.6070
  846SOL    HW2 2538   1.739   2.917   0.938 -1.9871  1.7429  1.0851
  847SOL     OW 2539   2.066   1.601   0.191  0.1257 -0.1073  0.3366
  847SOL    HW1 2540   2.019   1.594   0.278 -0.4476 -1.5310 -1.0720
  847SOL    HW2 2541   2.018   1.538   0.120  0.3532 -1.1653  0.0792
  848SOL     OW 2542   2.466   0.857   2.637 -0.0695  0.4246 -0.5429
  848SOL    HW1 2543   2.462   0.958   2.647 -2.1314  2.9754 -1.3946
  848SOL    HW2 2544   2.389   0.825   2.577  2.2568  1.7806 -0.6872
  849SOL     OW 2545   2.401   0.840   2.253 -0.7522 -0.2701  0.0097
  849SOL    HW1 2546   2.473   0.811   2.178  0.9704 -1.2890 -0.5933
  849SOL    HW2 2547   2.378   0.768   2.321 -1.2436  1.4600  2.3883
  850SOL     OW 2548   1.553   0.168   1.254  0.3104  0.9889 -0.1080
  850SOL    HW1 2549   1.521   0.122   1.166 -1.3256  0.2737  0.2855
  850SOL    HW2 2550   1.523   0.110   1.338 -1.9971  0.7300 -0.4224
  851SOL     OW 2551   0.500   1.770   0.679  0.1358 -0.7375 -0.4241
  851SOL    HW1 2552   0.516   1.874   0.704  0.1105 -0.5631  1.3247
  851SOL    HW2 2553   0.584   1.709   0.673  0.4169 -1.1318  0.7657
  852SOL     OW 2554   0.806   2.140   1.700  0.5871  0.0477  0.8130
  852SOL    HW1 2555   0.813   2.233   1.657 -3.4641  1.4392 -1.8789
  852SOL    HW2 2556   0.757   2.135   1.790  1.2144  1.1551 -3.3514
  853SOL     OW 2557   2.540   1.519   2.583  0.6153  0.0586 -0.1624
  853SOL    HW1 2558   2.494   1.431   2.562  2.7845  2.4571 -0.4509
  853SOL    HW2 2559   2.532   1.596   2.511  3.6796 -0.0234  0.0242
  854SOL     OW 2560   2.391   1.442   1.757  0.6329 -0.3134 -0.1862
  854SOL    HW1 2561   2.420   1.423   1.659 -0.2956  2.9503  1.5158
  854SOL    HW2 2562   2.344   1.361   1.804  1.2577  1.4105 -1.0270
  855SOL     OW 2563   2.049   2.293   0.991 -0.1705 -0.4535  0.4689
  855SOL    HW1 2564   2.076   2.386   0.957 -0.7012 -2.5254  2.3718
  855SOL    HW2 2565   2.098   2.283   1.085 -0.6773 -0.5062 -0.5685
  856SOL     OW 2566   1.415   1.329   0.886 -0.0292 -0.0600 -0.1634
  856SOL    HW1 2567   1.394   1.432   0.876  0.4451 -2.1679 -1.3168
  856SOL    HW2 2568   1.438   1.300   0.988 -1.1963  0.8404  2.2805
  857SOL     OW 2569   2.921   2.562   1.033 -0.4880 -0.6756 -0.2672
  857SOL    HW1 2570   2.864   2.500   1.092 -1.6799  4.5853  1.6386
  857SOL    HW2 2571   2.973   2.515   0.953 -1.7190 -3.4685  0.5212
  858SOL     OW 2572   2.266   2.115   1.755 -0.3307 -0.1786  0.1801
  858SOL    HW1 2573   2.175   2.145   1.720 -0.4805 -2.2976  3.0503
  858SOL    HW2 2574   2.326   2.082   1.675  1.2552  0.4626  2.0806
  859SOL     OW 2575   2.413   0.479   0.996 -1.0756 -0.6562 -0.1094
  859SOL    HW1 2576   2.490   0.524   0.937  2.3338 -1.4277 -0.6321
  859SOL    HW2 2577   2.448   0.386   1.033  0.5378  4.1635  0.4842
  860SOL     OW 2578   1.961   2.781   0.497 -0.3181  0.4389 -0.3151
  860SOL    HW1 2579   1.943   2.771   0.397  0.8057  0.1481  2.6298
  860SOL    HW2 2580   1.988   2.874   0.520 -2.0947 -1.2500 -0.3033
  861SOL     OW 2581   1.067   2.579   2.770 -0.0938  0.1751  0.1875
  861SOL    HW1 2582   1.132   2.657   2.753 -1.2300 -1.6929 -0.0608
  861SOL    HW2 2583   1.049   2.551   2.869 -4.7667  0.2828  0.3210
  862SOL     OW 2584   2.957   2.568   1.561  0.2681  0.5159 -0.0554
  862SOL    HW1 2585   2.972   2.582   1.661  1.0768 -1.7784  1.7229
  862SOL    HW2 2586   2.877   2.617   1.520 -0.9989 -1.6967  2.7077
  863SOL     OW 2587   1.894   2.625   0.250  0.6866  0.3248  0.2695
  863SOL    HW1 2588   1.940   2.537   0.235  0.6078 -1.0502  1.2703
  863SOL    HW2 2589   1.793   2.617   0.267  2.9708  4.4912  0.7125
  864SOL     OW 2590   1.875   1.142   2.922  0.1935 -0.4058 -0.0289
  864SOL    HW1 2591   1.904   1.116   2.823 -0.4169  2.5088  2.2860
  864SOL    HW2 2592   1.942   1.108   2.995  1.5851 -1.3262 -0.2252
  865SOL     OW 2593   2.143   1.731   0.678  0.1890 -0.4624 -0.1923
  865SOL    HW1 2594   2.188   1.742   0.777  2.1629 -2.2347  1.0721
  865SOL    HW2 2595   2.040   1.704   0.684  0.4571  0.2997  0.3471
  866SOL     OW 2596   2.898   2.848   1.011 -0.5884 -0.0011  0.0781
  866SOL    HW1 2597   2.967   2.868   0.932 -1.3613 -2.7198 -1.3618
  866SOL    HW2 2598   2.913   2.758   1.057 -0.3293 -1.6246  0.6434
  867SOL     OW 2599   0.434   1.299   0.849  0.1877 -0.0486  0.0367
  867SOL    HW1 2600   0.458   1.205   0.809 -0.0952  0.7734  0.9305
  867SOL    HW2 2601   0.371   1.354   0.789 -1.5387  1.0878  1.9480
  868SOL     OW 2602   0.847   1.947   1.977  0.4357  0.2188  0.1644
  868SOL    HW1 2603   0.838   1.910   2.076  1.2083  0.5345 -3.2314
  868SOL    HW2 2604   0.782   2.032   1.963 -0.2502  2.0061 -1.6851
  869SOL     OW 2605   2.519   2.034   1.607  0.5063 -0.0760  0.0487
  869SOL    HW1 2606   2.578   2.102   1.558 -0.4236  2.1834  2.3082
  869SOL    HW2 2607   2.494   1.957   1.547  0.8351 -0.0597 -0.0485
  870SOL     OW 2608   2.369   2.524   1.190  0.3678 -0.5286  0.0242
  870SOL    HW1 2609   2.337   2.423   1.190  1.1029  0.0239 -1.5336
  870SOL    HW2 2610   2.470   2.536   1.209  1.7483 -1.1613 -3.0496
  871SOL     OW 2611   2.996   2.017   0.553 -0.1326 -0.1393  0.0456
  871SOL    HW1 2612   2.904   2.067   0.546  0.8946 -0.3079 -1.8777
  871SOL    HW2 2613   2.996   1.937   0.495  1.7566  0.0174 -0.1481
  872SOL     OW 2614   2.176   0.508   1.698  0.1687  0.4048  0.1379
  872SOL    HW1 2615   2.160   0.509   1.803  0.9020 -2.6928  1.1681
  872SOL    HW2 2616   2.267   0.458   1.672  1.6936  0.6141 -0.1757
  873SOL     OW 2617   1.722   2.103   2.938 -0.5940 -0.1439 -0.8275
  873SOL    HW1 2618   1.725   2.204   2.944  1.0723 -1.2805 -1.0482
  873SOL    HW2 2619   1.647   2.071   2.880  1.2701 -0.6188  0.1846
  874SOL     OW 2620   0.711   2.508   0.755  0.2173  0.5160 -0.2453
  874SOL    HW1 2621   0.710   2.591   0.819 -0.8525  0.8568 -2.3198
  874SOL    HW2 2622   0.789   2.446   0.782  0.7299 -1.9881  1.3229
  875SOL     OW 2623   2.339   1.507   1.486 -0.4203 -0.1404  0.0114
  875SOL    HW1 2624   2.411   1.579   1.473  1.7810  0.6676 -5.0456
  875SOL    HW2 2625   2.289   1.493   1.394  0.2863  1.0284 -1.2395
  876SOL     OW 2626   0.135   2.193   2.701  0.0142 -0.1561  0.0444
  876SOL    HW1 2627   0.224   2.152   2.730  0.7677 -1.3645 -2.1876
  876SOL    HW2 2628   0.124   2.291   2.725  1.1314 -3.4802  0.1384
  877SOL     OW 2629   2.764   2.682   0.602  0.3943  0.1844 -0.2871
  877SOL    HW1 2630   2.832   2.737   0.544  0.9451  2.1938 -0.2207
  877SOL    HW2 2631   2.818   2.614   0.656 -1.8274 -0.2955 -3.6526
  878SOL     OW 2632   2.812   1.552   2.212 -0.9716  0.2711  0.3555
  878SOL    HW1 2633   2.898   1.581   2.158 -0.1068  1.5814 -2.6971
  878SOL    HW2 2634   2.826   1.531   2.315  1.3841  1.8729  2.0707
  879SOL     OW 2635   2.379   0.005   1.212  0.0457 -0.1244 -0.1433
  879SOL    HW1 2636   2.435  -0.082   1.217 -2.6668 -0.5528 -0.1841
  879SOL    HW2 2637   2.283  -0.003   1.174  0.5091  0.7499  0.8488
  880SOL     OW 2638   0.666   0.414   2.173  0.0955 -0.3157  0.4064
  880SOL    HW1 2639   0.610   0.365   2.243  2.2604 -0.9108  2.8067
  880SOL    HW2 2640   0.738   0.348   2.145  1.8386 -2.1767  0.5797
  881SOL     OW 2641   0.907   0.048   0.380 -0.0011  0.3705 -0.0317
  881SOL    HW1 2642   0.917  -0.042   0.428  0.3209  2.4475 -0.2222
  881SOL    HW2 2643   0.855   0.034   0.291 -1.0131  0.5741 -1.3582
  882SOL     OW 2644   2.755   1.637   1.675  0.6191  0.0657  0.3114
  882SOL    HW1 2645   2.859   1.634   1.654 -2.3776  0.5240  1.5332
  882SOL    HW2 2646   2.727   1.681   1.765 -3.8223 -0.8331  1.4782
  883SOL     OW 2647   0.946   0.602   0.937 -0.1595  0.4030 -0.0114
  883SOL    HW1 2648   0.936   0.665   1.015  1.4060 -2.1339  0.1175
  883SOL    HW2 2649   1.039   0.552   0.925  0.2498  1.2171  1.1087
  884SOL     OW 2650   1.219   1.909   1.016  0.4997 -0.2707  0.5000
  884SOL    HW1 2651   1.168   1.877   0.935  0.7068 -0.2257  1.3538
  884SOL    HW2 2652   1.156   1.965   1.075  0.5395 -0.2464  0.0507
  885SOL     OW 2653   2.252   1.812   2.300  0.5735 -0.5101 -0.2141
  885SOL    HW1 2654   2.193   1.761   2.372 -0.9713 -3.6172  1.6792
  885SOL    HW2 2655   2.250   1.916   2.319  0.8282  0.6425 -1.6617
  886SOL     OW 2656   2.655   0.460   1.777  0.2652 -0.1161  0.1230
  886SOL    HW1 2657   2.683   0.419   1.869 -1.1503  1.7044  0.2609
  886SOL    HW2 2658   2.722   0.513   1.725  0.9656  1.9714  0.3740
  887SOL     OW 2659   0.120   2.062   1.296  0.7744 -0.0816  0.4273
  887SOL    HW1 2660   0.053   2.000   1.241  0.1118 -0.3465  0.4564
  887SOL    HW2 2661   0.158   2.139   1.243 -0.7686  0.4993  2.6649
  888SOL     OW 2662   0.577   1.306   1.495  0.3984  0.3571 -0.2440
  888SOL    HW1 2663   0.605   1.325   1.400 -1.9988  1.5942  1.3332
  888SOL    HW2 2664   0.596   1.211   1.531  1.1718 -1.1849 -0.9994
  889SOL     OW 2665   0.853   2.538   2.145  0.6658 -0.2478 -0.3018
  889SOL    HW1 2666   0.769   2.539   2.082 -0.9506 -1.4149 -0.4444
  889SOL    HW2 2667   0.936   2.526   2.085  0.0184 -0.8047  2.7959
  890SOL     OW 2668   2.324   2.445   0.175  0.2743 -0.2488 -0.1473
  890SOL    HW1 2669   2.362   2.506   0.097  1.1290 -1.1073  1.3212
  890SOL    HW2 2670   2.223   2.452   0.196  0.3202  0.2088 -3.1590
  891SOL     OW 2671   2.607   1.515   0.633 -1.1842  0.3490 -0.2828
  891SOL    HW1 2672   2.569   1.496   0.729  2.1724  0.4780  3.5619
  891SOL    HW2 2673   2.551   1.589   0.585 -4.7047  0.1692 -1.7381
  892SOL     OW 2674   0.239   0.298   2.224  0.0205 -0.5075 -0.0923
  892SOL    HW1 2675   0.244   0.298   2.115  2.5245 -0.3702 -2.1052
  892SOL    HW2 2676   0.324   0.347   2.258 -0.5904  1.5502 -2.9976
  893SOL     OW 2677   1.653   0.239   2.732 -0.0702 -0.0743  0.1311
  893SOL    HW1 2678   1.733   0.305   2.748  1.7719 -0.2598 -2.6066
  893SOL    HW2 2679   1.557   0.280   2.747 -0.8306 -0.5479  1.1388
  894SOL     OW 2680   2.153   1.977   0.039 -0.4163 -0.3662  0.5925
  894SOL    HW1 2681   2.124   1.919  -0.046 -0.3365 -2.7113 -0.7590
  894SOL    HW2 2682   2.204   1.921   0.108 -1.6717  0.0325 -1.8190
  895SOL     OW 2683   2.920   1.411   0.820  0.0264 -0.5828  0.2513
  895SOL    HW1 2684   2.981   1.347   0.873 -1.4184 -1.5833  2.9233
  895SOL    HW2 2685   2.965   1.499   0.785  0.2289 -0.8179  0.1840
  896SOL     OW 2686   1.750   1.778   1.179 -0.2961  0.7043  0.1105
  896SOL    HW1 2687   1.806   1.845   1.119  1.4808 -0.2362  1.4191
  896SOL    HW2 2688   1.647   1.779   1.163 -1.6520  2.9066 -1.4578
  897SOL     OW 2689   0.310   0.541   3.098  0.2722 -0.3313 -0.0188
  897SOL    HW1 2690   0.227   0.596   3.071 -1.5788  1.8483  1.7549
  897SOL    HW2 2691   0.401   0.591   3.095  2.3336 -1.1210 -0.5515
  898SOL     OW 2692   0.547   2.843   1.141 -0.1737 -0.8510 -0.2345
  898SOL    HW1 2693   0.486   2.930   1.136  0.8374 -0.0792  1.4159
  898SOL    HW2 2694   0.643   2.859   1.180  0.7868 -0.5554 -0.8568
  899SOL     OW 2695   2.677   0.917   1.253  0.1914 -0.0555  0.0289
  899SOL    HW1 2696   2.602   0.907   1.178  0.7099 -1.7497 -0.2832
  899SOL    HW2 2697   2.768   0.957   1.221  1.9073 -1.5914  1.0846
  900SOL     OW 2698   0.993   2.412   2.348 -0.3298 -0.2710 -0.2434
  900SOL    HW1 2699   0.929   2.457   2.286 -0.0085  0.4157  0.2811
  900SOL    HW2 2700   0.957   2.405   2.446 -2.4485 -1.4667  1.5832
  901SOL     OW 2701   1.908   2.441   1.380  0.0329  0.5222  0.5214
  901SOL    HW1 2702   1.900   2.463   1.277 -1.3329  0.9619 -2.5795
  901SOL    HW2 2703   2.007   2.425   1.398  1.3771  0.1690 -0.7080
  902SOL     OW 2704   2.590   1.636   1.460  0.0676  0.1064 -0.4520
  902SOL    HW1 2705   2.644   1.621   1.546  0.1118 -1.3360 -0.6030
  902SOL    HW2 2706   2.637   1.593   1.376  0.6167  1.2261  1.8891
  903SOL     OW 2707   0.259   2.348   1.982 -0.4960 -0.7215 -0.3371
  903SOL    HW1 2708   0.165   2.315   1.996  0.5659 -1.2339  0.9841
  903SOL    HW2 2709   0.271   2.421   1.907 -3.1507 -1.9421  1.5512
  904SOL     OW 2710   1.973   0.827   2.569  0.0367 -0.6635  0.3089
  904SOL    HW1 2711   1.921   0.742   2.605 -1.4398  0.2254  2.4210
  904SOL    HW2 2712   1.942   0.862   2.479  2.4532  0.1049  0.1808
  905SOL     OW 2713   2.738   0.001   2.633  0.0945 -0.1553  0.3219
  905SOL    HW1 2714   2.831  -0.049   2.631  0.1965  2.8513  0.1384
  905SOL    HW2 2715   2.748   0.101   2.606 -0.6568  1.7301  2.3802
  906SOL     OW 2716   0.144   1.764   1.921 -0.0196 -0.0773  0.8825
  906SOL    HW1 2717   0.086   1.814   1.852 -0.9342 -0.8567  0.4522
  906SOL    HW2 2718   0.239   1.802   1.923 -1.5267  0.6237  1.2962
  907SOL     OW 2719   0.163   2.461   1.018  0.0407 -0.2165  0.8816
  907SOL    HW1 2720   0.217   2.548   1.042  1.1670 -2.1409  0.5707
  907SOL    HW2 2721   0.124   2.458   0.921  0.1965 -0.0471  1.6534
  908SOL     OW 2722   2.651   2.910   0.442  0.6929 -0.7235  0.0179
  908SOL    HW1 2723   2.661   2.942   0.338  4.3662  1.1720 -0.8251
  908SOL    HW2 2724   2.611   2.813   0.451 -1.0791 -1.7715 -0.4274
  909SOL     OW 2725   0.811   0.899   2.652 -0.6818 -0.0101 -0.2454
  909SOL    HW1 2726   0.769   0.808   2.644 -0.1609 -1.2293  3.2616
  909SOL    HW2 2727   0.860   0.935   2.567  1.0833  0.7589 -2.5062
  910SOL     OW 2728   1.736   1.782   2.020  0.0547 -0.5552  0.0511
  910SOL    HW1 2729   1.811   1.825   1.963  0.9371 -1.2387  0.0026
  910SOL    HW2 2730   1.678   1.851   2.073 -1.6281 -1.6402 -0.2101
  911SOL     OW 2731   1.766   3.020   1.597  0.2541 -0.2361 -0.8634
  911SOL    HW1 2732   1.832   2.977   1.533 -0.3591  1.3760  0.4821
  911SOL    HW2 2733   1.772   2.968   1.686 -0.3157  2.7182 -2.6302
  912SOL     OW 2734   2.828   0.973   0.772 -0.0621 -0.0545  0.2908
  912SOL    HW1 2735   2.807   0.961   0.873  2.4874 -0.5121 -0.0812
  912SOL    HW2 2736   2.813   1.073   0.742 -1.6677  0.1947  0.4069
  913SOL     OW 2737   2.534   1.281   1.561  0.1824 -0.0051  0.3086
  913SOL    HW1 2738   2.552   1.182   1.536 -0.4656 -2.3901 -0.7235
  913SOL    HW2 2739   2.547   1.348   1.483 -2.3131 -1.6231  2.8354
  914SOL     OW 2740   2.830   0.536   1.228 -0.5237  0.6201  0.0366
  914SOL    HW1 2741   2.807   0.449   1.271  0.0669  2.7005  2.3143
  914SOL    HW2 2742   2.807   0.607   1.296 -0.1528  0.0860 -1.7665
  915SOL     OW 2743   1.245   0.789   1.007  0.3546 -0.0254  0.4790
  915SOL    HW1 2744   1.320   0.806   1.077 -0.2345  2.3290 -2.0313
  915SOL    HW2 2745   1.150   0.807   1.043 -0.1404 -0.6491 -0.2967
  916SOL     OW 2746   0.544   0.059   0.628 -0.5401  0.6332 -0.6344
  916SOL    HW1 2747   0.545   0.129   0.706 -0.9038 -1.2107 -0.2440
  916SOL    HW2 2748   0.550   0.109   0.537  0.7612 -0.4429  1.0451
  917SOL     OW 2749   2.742   2.619   1.943  0.0854 -0.3835 -0.1329
  917SOL    HW1 2750   2.653   2.663   1.928  1.4209  1.3016  0.0690
  917SOL    HW2 2751   2.830   2.668   1.906  0.8922  0.4203  0.0726
  918SOL     OW 2752   0.969   2.187   3.021  0.1593  0.1803  0.7696
  918SOL    HW1 2753   0.930   2.201   3.115  1.0584  0.5521  0.3157
  918SOL    HW2 2754   1.022   2.100   3.007  2.0590  2.3820  0.2183
  919SOL     OW 2755   0.943   1.611   2.819 -0.2022  0.1964  0.3405
  919SOL    HW1 2756   1.013   1.672   2.768  0.4604  1.5356 -2.5895
  919SOL    HW2 2757   0.884   1.546   2.758 -0.6159 -2.4902  0.2190
  920SOL     OW 2758   1.250   2.054   2.520 -0.3330 -0.4698  0.2993
  920SOL    HW1 2759   1.208   2.087   2.431 -0.5282  2.0772  2.2153
  920SOL    HW2 2760   1.281   1.957   2.533 -2.4340  1.5016  3.9092
  921SOL     OW 2761   1.054   0.130   2.567 -0.2468  1.1498  0.0323
  921SOL    HW1 2762   1.038   0.127   2.464  0.4943 -1.3430  3.0005
  921SOL    HW2 2763   0.970   0.082   2.610 -2.2382 -1.5208 -0.1756
  922SOL     OW 2764   2.193   2.387   2.765 -0.4942  0.2400 -0.1432
  922SOL    HW1 2765   2.166   2.290   2.783  0.2184  0.2368  0.3134
  922SOL    HW2 2766   2.138   2.443   2.696 -1.7453  0.7710  0.7433
  923SOL     OW 2767   1.208   2.653   0.301 -0.2060 -0.1520 -0.5033
  923SOL    HW1 2768   1.296   2.706   0.314 -0.0838  0.2623 -1.3258
  923SOL    HW2 2769   1.214   2.565   0.246 -0.7131  1.8607  1.2871
  924SOL     OW 2770   2.899   1.585   0.083  0.3328 -0.2860 -0.2885
  924SOL    HW1 2771   2.816   1.562   0.026 -0.9110 -0.1495 -0.3771
  924SOL    HW2 2772   2.986   1.600   0.026  0.7032  2.5344 -2.8410
  925SOL     OW 2773   0.024   2.829   1.675  0.1081  0.2335  0.2930
  925SOL    HW1 2774  -0.056   2.897   1.679  0.0789 -0.8640  2.1194
  925SOL    HW2 2775   0.032   2.787   1.580 -0.9080 -1.3754  0.4771
  926SOL     OW 2776   1.388   2.925   1.314  0.6604  0.0310 -0.1818
  926SOL    HW1 2777   1.424   2.928   1.216  0.7838 -3.8665 -2.4425
  926SOL    HW2 2778   1.412   3.008   1.374  1.5013 -0.2974  1.1289
  927SOL     OW 2779   0.278   2.537   1.784  0.4419 -0.1042 -0.1071
  927SOL    HW1 2780   0.260   2.542   1.680  0.5091 -1.4391 -2.2873
  927SOL    HW2 2781   0.327   2.621   1.815  0.6117 -0.7258 -1.8717
  928SOL     OW 2782   1.581   1.965   2.142 -0.1874 -0.0430  0.0638
  928SOL    HW1 2783   1.615   2.056   2.094  4.6642  1.2219 -0.4367
  928SOL    HW2 2784   1.487   1.943   2.102 -0.4837 -1.0641 -1.0786
  929SOL     OW 2785   2.456   2.460   2.840 -0.2835  0.0080 -0.1470
  929SOL    HW1 2786   2.361   2.427   2.829 -0.0620  4.5867 -0.8729
  929SOL    HW2 2787   2.511   2.474   2.755  0.0934  0.0052 -3.3817
  930SOL     OW 2788   2.210   1.977   1.080  0.3491 -0.1651  0.2117
  930SOL    HW1 2789   2.207   1.951   1.185 -0.8153  0.0085  1.2503
  930SOL    HW2 2790   2.287   2.047   1.053 -0.4647  2.2468 -1.8257
  931SOL     OW 2791   0.547   1.722   2.606 -0.0729  0.1415 -0.4889
  931SOL    HW1 2792   0.573   1.751   2.702 -0.6331 -2.8077  2.0396
  931SOL    HW2 2793   0.570   1.621   2.598  3.5900  0.1642  1.4644
  932SOL     OW 2794   0.482   0.105   2.939 -0.4988 -0.2728  0.3224
  932SOL    HW1 2795   0.575   0.135   2.909  0.6026 -3.1268  2.2133
  932SOL    HW2 2796   0.485   0.004   2.973  0.5144 -0.0142  0.4487
  933SOL     OW 2797   1.036   0.809   2.985  0.2711  0.1476  0.0423
  933SOL    HW1 2798   1.103   0.846   3.050 -1.4757 -0.1720 -0.2052
  933SOL    HW2 2799   0.989   0.888   2.940 -1.3049 -1.4098  0.7969
  934SOL     OW 2800   0.844   3.015   2.718 -0.1069 -1.0835  0.1401
  934SOL    HW1 2801   0.877   2.939   2.655 -0.3689 -0.4100 -2.6421
  934SOL    HW2 2802   0.864   2.984   2.817 -2.0499 -0.3962 -0.3564
  935SOL     OW 2803   3.086   0.500   0.809 -0.2509  0.0004  0.4202
  935SOL    HW1 2804   3.133   0.422   0.751  1.0772 -1.5651  0.2616
  935SOL    HW2 2805   2.995   0.533   0.769  2.3001  0.5089  2.7176
  936SOL     OW 2806   1.078   2.925   0.175 -0.2520  0.3759  0.1622
  936SOL    HW1 2807   1.142   2.953   0.097  0.1798  0.4695 -0.0854
  936SOL    HW2 2808   1.095   2.833   0.208  0.6055  0.4357 -2.6484
  937SOL     OW 2809   1.918   2.615   2.098 -0.2531  0.2687  0.0796
  937SOL    HW1 2810   1.849   2.664   2.156  0.5770  1.6585 -0.9531
  937SOL    HW2 2811   1.921   2.658   2.001 -0.1390  0.8832 -0.1390
  938SOL     OW 2812   2.806   2.163   1.482  0.1201 -0.0279 -0.1513
  938SOL    HW1 2813   2.752   2.250   1.504 -2.4894  1.9541 -1.9852
  938SOL    HW2 2814   2.849   2.114   1.565 -1.4705 -0.4913  1.7892
  939SOL     OW 2815   2.790   1.093   2.491 -0.6212 -0.2959 -0.4506
  939SOL    HW1 2816   2.881   1.064   2.459 -1.6550 -1.9964  2.1938
  939SOL    HW2 2817   2.788   1.148   2.579 -0.8276 -0.2578 -1.4039
  940SOL     OW 2818   1.056   0.487   2.644  0.2690  0.1566  0.2505
  940SOL    HW1 2819   1.108   0.403   2.625 -5.0205  1.4793  1.4650
  940SOL    HW2 2820   0.958   0.455   2.660  4.0054  3.9435 -0.9314
  941SOL     OW 2821   0.060   2.833   2.219  0.2887 -0.0250 -0.6333
  941SOL    HW1 2822   0.052   2.735   2.221  0.3423  0.7734  1.1073
  941SOL    HW2 2823   0.125   2.870   2.293  1.4038  2.6719  1.6218
  942SOL     OW 2824   0.044   0.070   2.515  0.2940 -0.1005 -0.2462
  942SOL    HW1 2825   0.098   0.077   2.603 -1.8231 -1.2886  2.2730
  942SOL    HW2 2826   0.035   0.162   2.462  0.2244 -1.0004 -0.1700
  943SOL     OW 2827   2.083   1.592   2.429 -0.1982 -0.6970  0.4465
  943SOL    HW1 2828   2.096   1.517   2.353  0.8079  1.2206  0.1212
  943SOL    HW2 2829   2.097   1.545   2.521  0.9222  0.0305 -3.3179
  944SOL     OW 2830   2.166   2.409   1.474 -0.1621  0.2673 -0.0515
  944SOL    HW1 2831   2.229   2.436   1.549 -3.8224 -0.5919 -3.1319
  944SOL    HW2 2832   2.113   2.323   1.502 -2.4207  1.1026  1.2324
  945SOL     OW 2833   0.583   1.417   0.365 -0.5845  0.6183  0.1429
  945SOL    HW1 2834   0.585   1.475   0.281  2.1011 -0.2975  2.0907
  945SOL    HW2 2835   0.624   1.322   0.358 -1.5718  1.5982  2.0362
  946SOL     OW 2836   0.421   0.994   2.540 -0.1331  0.5688  0.2243
  946SOL    HW1 2837   0.338   0.981   2.477  0.3834  0.2948  0.4724
  946SOL    HW2 2838   0.406   1.089   2.590 -0.5107  4.4866 -0.2305
  947SOL     OW 2839   1.472   0.526   0.111 -0.0001 -0.3005  0.4622
  947SOL    HW1 2840   1.449   0.523   0.011  0.1505 -1.1744 -1.1460
  947SOL    HW2 2841   1.409   0.468   0.172  1.7791 -0.1039 -1.0246
  948SOL     OW 2842   1.956   3.082   2.205 -0.6137 -0.0551 -0.2644
  948SOL    HW1 2843   1.916   3.069   2.109 -0.0317  0.1006  0.1894
  948SOL    HW2 2844   1.962   2.991   2.264  0.1867 -1.1347 -3.1259
  949SOL     OW 2845   0.625   2.540   0.493 -0.2348  0.0968  0.0855
  949SOL    HW1 2846   0.634   2.638   0.462  0.1455 -0.9213 -2.3457
  949SOL    HW2 2847   0.661   2.527   0.589  3.7575 -1.1064 -1.3419
  950SOL     OW 2848   0.305   2.127   3.089 -0.0702 -0.3743 -0.3569
  950SOL    HW1 2849   0.231   2.190   3.049 -1.1736 -0.3542 -0.0690
  950SOL    HW2 2850   0.309   2.038   3.035  0.2916 -0.3139  0.8742
  951SOL     OW 2851   1.188   2.812   2.746 -0.0183 -0.8289  0.5879
  951SOL    HW1 2852   1.182   2.862   2.654  2.3180 -1.2777  0.4803
  951SOL    HW2 2853   1.236   2.869   2.816 -0.7175 -4.2970  0.0753
  952SOL     OW 2854   0.105   1.635   0.474  0.4565  0.4107 -0.2386
  952SOL    HW1 2855   0.169   1.711   0.447  1.4670 -1.0443 -0.6520
  952SOL    HW2 2856   0.126   1.601   0.563 -1.9259 -0.5770 -0.1994
  953SOL     OW 2857   2.583   1.772   0.204  0.2471  0.4016  0.0255
  953SOL    HW1 2858   2.570   1.671   0.234  1.5849  0.0579 -0.5975
  953SOL    HW2 2859   2.609   1.776   0.110  0.7176  0.1242  3.8148
  954SOL     OW 2860   2.161   0.580   0.984  0.1010 -0.6575  0.2455
  954SOL    HW1 2861   2.139   0.586   0.878 -1.0977 -1.9323 -1.3187
  954SOL    HW2 2862   2.253   0.531   0.996 -2.7944 -0.5159  1.0313
  955SOL     OW 2863   0.270   2.652   1.311  0.3104  0.1367 -0.4900
  955SOL    HW1 2864   0.175   2.614   1.326  1.9382  2.0144  0.0749
  955SOL    HW2 2865   0.295   2.655   1.211  2.0815  0.7817 -1.4625
  956SOL     OW 2866   2.778   2.455   2.478  0.0959 -0.4294  0.6569
  956SOL    HW1 2867   2.784   2.352   2.464 -1.3929 -2.8996 -1.2087
  956SOL    HW2 2868   2.825   2.509   2.395  0.0732  1.0406  0.1294
  957SOL     OW 2869   1.542   2.047   2.701 -0.3090 -0.6257  0.3254
  957SOL    HW1 2870   1.574   1.951   2.698  1.4125  0.4749  2.4479
  957SOL    HW2 2871   1.539   2.077   2.601 -0.1516 -1.1659 -2.3661
  958SOL     OW 2872   2.661   2.349   2.977 -0.6420 -0.0230  0.2978
  958SOL    HW1 2873   2.574   2.384   2.928  1.9967 -2.6500 -0.8455
  958SOL    HW2 2874   2.663   2.253   3.017 -0.0079  0.5068 -0.6190
  959SOL     OW 2875   0.289   2.774   0.050  0.1114  0.6662 -0.7804
  959SOL    HW1 2876   0.191   2.759   0.077  0.3671 -1.1653 -0.8193
  959SOL    HW2 2877   0.352   2.698   0.073 -0.6092 -2.7640 -3.0834
  960SOL     OW 2878   1.987   0.487   1.936 -0.0865  0.3791  0.1257
  960SOL    HW1 2879   1.932   0.568   1.891  0.0043  2.2023 -1.9286
  960SOL    HW2 2880   1.999   0.497   2.039 -2.5958 -2.4415 -1.1558
  961SOL     OW 2881   2.579   1.830   1.053  0.2545 -0.7853  0.4847
  961SOL    HW1 2882   2.530   1.903   1.000 -0.8101  0.5730  1.5410
  961SOL    HW2 2883   2.572   1.845   1.154 -0.5649  1.7717 -0.7713
  962SOL     OW 2884   1.291   0.904   0.044 -0.2504 -0.2245  0.3879
  962SOL    HW1 2885   1.326   0.939  -0.047 -2.2422  0.6018  2.4250
  962SOL    HW2 2886   1.291   0.985   0.110 -1.0335 -0.9712  2.0389
  963SOL     OW 2887   2.292   2.602   1.887  0.7569  0.8249  0.0501
  963SOL    HW1 2888   2.287   2.527   1.962 -0.7039 -0.0717  0.9601
  963SOL    HW2 2889   2.296   2.698   1.927  0.4580  2.3565 -2.6789
  964SOL     OW 2890   2.420   0.358   1.662 -0.0157  0.1350 -0.1517
  964SOL    HW1 2891   2.509   0.399   1.708  1.1772 -0.7247  2.0383
  964SOL    HW2 2892   2.430   0.326   1.563 -1.0626 -4.7646 -0.8894
  965SOL     OW 2893   2.610   3.011   0.171  0.5961 -0.6777  0.2170
  965SOL    HW1 2894   2.663   3.005   0.081 -2.3854 -2.3563 -1.1278
  965SOL    HW2 2895   2.503   3.014   0.142 -2.1009  0.5879 -1.1971
  966SOL     OW 2896   2.528   2.556   2.243  0.7403  0.6896 -0.4382
  966SOL    HW1 2897   2.438   2.535   2.289  0.6135 -1.4854 -2.3755
  966SOL    HW2 2898   2.520   2.644   2.186 -0.3175  3.9526 -0.4855
  967SOL     OW 2899   2.747   2.790   2.466  0.1800 -0.0116 -0.6119
  967SOL    HW1 2900   2.783   2.717   2.403  0.2324 -0.0235 -0.2284
  967SOL    HW2 2901   2.828   2.852   2.500  0.0012 -1.0613 -1.0128
  968SOL     OW 2902   1.994   1.058   2.700  0.6545 -0.0164 -0.0309
  968SOL    HW1 2903   1.946   1.131   2.648  3.7251  1.0421  2.7521
  968SOL    HW2 2904   1.973   0.956   2.676  0.9683  2.2082  1.2328
  969SOL     OW 2905   2.750   2.343   1.118  0.5551 -0.5798  0.2585
  969SOL    HW1 2906   2.674   2.339   1.047 -0.4242  1.1326  2.0722
  969SOL    HW2 2907   2.799   2.253   1.136 -0.4752 -0.4790  0.6035
  970SOL     OW 2908   1.102   2.162   1.772  0.6193  0.4976  0.1007
  970SOL    HW1 2909   1.010   2.154   1.728  1.7665  0.2043  2.5824
  970SOL    HW2 2910   1.096   2.193   1.870  0.3119  0.3519 -0.8091
  971SOL     OW 2911   2.825   2.057   1.917  0.1851 -0.1821  0.0229
  971SOL    HW1 2912   2.822   2.161   1.917  0.1889 -0.9785 -0.3829
  971SOL    HW2 2913   2.882   2.030   1.833 -0.2780  1.2318  0.1207
  972SOL     OW 2914   2.066   2.391   0.256 -0.8252 -0.0972  0.6486
  972SOL    HW1 2915   2.051   2.316   0.182  0.4684 -1.8380 -0.7281
  972SOL    HW2 2916   2.038   2.360   0.352 -1.8582 -1.7255  1.9186
  973SOL     OW 2917   1.243   1.074   1.972 -0.9282 -0.1687 -0.4722
  973SOL    HW1 2918   1.165   1.045   1.911  0.1528 -1.1935 -2.0477
  973SOL    HW2 2919   1.258   1.171   2.005  1.5366  2.4095 -1.4238
  974SOL     OW 2920   1.626   0.575   1.915  0.3925 -0.4835 -0.0672
  974SOL    HW1 2921   1.718   0.612   1.877 -2.2752  0.5242 -3.5166
  974SOL    HW2 2922   1.564   0.656   1.946 -0.7268  1.2001 -0.1606
  975SOL     OW 2923   2.351   3.056   3.099 -0.2359 -0.0526 -0.6215
  975SOL    HW1 2924   2.292   2.986   3.137  1.6892 -0.1436 -1.3693
  975SOL    HW2 2925   2.369   3.047   2.996 -0.0815  0.1856 -3.0198
  976SOL     OW 2926   1.947   2.850   2.353 -0.4276  0.4023  0.4951
  976SOL    HW1 2927   1.854   2.814   2.317  0.2661  1.7183  0.9456
  976SOL    HW2 2928   1.958   2.833   2.449  1.2350 -2.0312 -3.0220
  977SOL     OW 2929   0.479   0.626   1.044  0.6680  0.0679  0.1373
  977SOL    HW1 2930   0.401   0.663   0.982 -4.3130  1.9240 -0.0577
  977SOL    HW2 2931   0.552   0.575   0.987 -1.6767 -0.1833  0.8175
   3.10000   3.10000   3.10000
