1000 SPC/Fw water molecules t=   1.66000 step= 1660
 2931
    1SOL     OW    1   2.483   0.398   2.657  0.8445 -0.5813 -0.0191
    1SOL    HW1    2   2.477   0.293   2.632 -2.0900  0.0700 -1.9579
    1SOL    HW2    3   2.564   0.416   2.719  2.5406  0.5495 -2.2122
    2SOL     OW    4   2.717   2.979   1.383 -0.4280 -0.1663  0.1888
    2SOL    HW1    5   2.809   2.985   1.345 -2.1385 -0.6787  0.6443
    2SOL    HW2    6   2.710   2.987   1.486  0.4701 -3.1178 -1.2809
    3SOL     OW    7   2.703   2.493   0.375  0.1996  0.2818 -0.1836
    3SOL    HW1    8   2.613   2.438   0.381 -0.0173 -0.0383  2.0901
    3SOL    HW2    9   2.722   2.552   0.460  0.4450  0.1765 -0.8559
    4SOL     OW   10   1.326   1.585   2.441  0.3505  0.2128 -0.1280
    4SOL    HW1   11   1.256   1.569   2.366  3.0482  1.3431 -0.3130
    4SOL    HW2   12   1.300   1.532   2.526  0.2166 -1.3275 -1.2298
    5SOL     OW   13   1.113   1.530   3.023 -0.0516 -0.5445  0.5905
    5SOL    HW1   14   1.189   1.600   3.043  0.4976  1.9227 -1.6180
    5SOL    HW2   15   1.032   1.571   2.972  1.0302  0.1230 -1.8978
    6SOL     OW   16   0.266   1.814   3.085  0.0192 -0.4578 -0.0041
    6SOL    HW1   17   0.183   1.817   3.149 -2.5543 -0.4531  1.6792
    6SOL    HW2   18   0.310   1.726   3.063  0.3147 -0.4585  1.5358
    7SOL     OW   19   2.494   0.921   1.011 -0.0951 -0.3059  1.0607
    7SOL    HW1   20   2.405   0.891   1.055  1.2866  0.6368  0.0572
    7SOL    HW2   21   2.498   0.895   0.913 -0.0853 -1.0809  2.0695
    8SOL     OW   22   0.400   0.672   1.546  0.8186 -0.9221  0.4389
    8SOL    HW1   23   0.478   0.605   1.546  1.3314 -1.8871 -0.4552
    8SOL    HW2   24   0.395   0.725   1.455  1.8772 -0.9082  0.3391
    9SOL     OW   25   1.141   0.879   2.329 -0.2117  0.6067  0.2131
    9SOL    HW1   26   1.218   0.908   2.262 -0.4877 -0.8171 -2.6806
    9SOL    HW2   27   1.116   0.772   2.326  0.5632 -2.0274 -0.4478
   10SOL     OW   28   0.733   1.415   1.244  0.0868 -0.0741 -0.0401
   10SOL    HW1   29   0.645   1.388   1.202  1.8075 -1.3779  2.6530
   10SOL    HW2   30   0.725   1.512   1.289 -1.6826 -1.1028 -0.6786
   11SOL     OW   31   2.345   2.880   0.914 -0.4351  0.4457 -0.1993
   11SOL    HW1   32   2.303   2.821   0.994  0.0694 -1.1558  1.4963
   11SOL    HW2   33   2.435   2.918   0.935  0.5365 -0.4265 -1.2701
   12SOL     OW   34   1.508   0.889   0.447  0.5053 -0.7604  0.2738
   12SOL    HW1   35   1.411   0.872   0.406 -0.2266  0.0467  2.0446
   12SOL    HW2   36   1.588   0.836   0.404  0.9579 -0.3784  0.3367
   13SOL     OW   37   2.473   0.733   1.815 -0.3428 -0.2552  0.2779
   13SOL    HW1   38   2.410   0.680   1.886  0.6154 -1.3427  1.5474
   13SOL    HW2   39   2.462   0.687   1.722 -0.7301 -1.3817 -0.1496
   14SOL     OW   40   1.957   0.017   0.608 -0.0142  0.5986 -0.1402
   14SOL    HW1   41   1.868   0.064   0.598 -0.9895  0.4737  1.7346
   14SOL    HW2   42   1.966  -0.029   0.702 -1.7348  1.3892 -1.5219
   15SOL     OW   43   1.918   2.084   2.673  0.0227  0.1608  0.1000
   15SOL    HW1   44   1.856   2.063   2.752 -1.6286 -1.2091 -1.3843
   15SOL    HW2   45   1.910   2.013   2.600  1.9048  2.0496  1.3984
   16SOL     OW   46   1.620   1.725   3.036 -0.7350  0.4983 -0.3627
   16SOL    HW1   47   1.615   1.625   3.059 -1.1311  0.5016 -0.9151
   16SOL    HW2   48   1.698   1.772   3.080  1.1215 -0.4473 -0.7939
   17SOL     OW   49   0.118   0.465   0.179 -0.0274 -0.0235  0.0093
   17SOL    HW1   50   0.213   0.496   0.147  1.3817  0.9113  0.0088
   17SOL    HW2   51   0.046   0.466   0.100 -3.3501  2.6246 -2.4632
   18SOL     OW   52   0.917   2.915   2.132 -0.0775  0.0067 -0.1175
   18SOL    HW1   53   0.904   2.841   2.203  2.7202 -0.5533  1.0799
   18SOL    HW2   54   1.011   2.903   2.081  1.0380 -2.4789  0.3612
   19SOL     OW   55   0.585   0.893   1.922 -0.6781 -0.0150 -0.1837
   19SOL    HW1   56   0.634   0.870   2.011 -0.4935  0.3143 -0.5304
   19SOL    HW2   57   0.620   0.980   1.884 -0.4268 -1.3707 -1.0418
   20SOL     OW   58   0.206   2.824   0.799 -0.0387 -0.5887 -0.4101
   20SOL    HW1   59   0.100   2.829   0.810  1.1668  0.0240 -0.7606
   20SOL    HW2   60   0.234   2.736   0.757  3.7552 -0.7807 -2.7886
   21SOL     OW   61   2.734   0.300   2.051  0.8839 -0.4235  0.2214
   21SOL    HW1   62   2.690   0.246   1.976  0.9783  1.1484  0.2304
   21SOL    HW2   63   2.835   0.277   2.073  1.0038  1.2323 -0.5318
   22SOL     OW   64   2.353   0.208   0.129  0.0884 -0.4063 -0.2131
   22SOL    HW1   65   2.356   0.124   0.067  2.8566  1.8350 -0.6233
   22SOL    HW2   66   2.269   0.271   0.104 -0.0116  2.1115  1.2545
   23SOL     OW   67   2.805   0.554   0.677  0.2131 -0.4643  0.3128
   23SOL    HW1   68   2.834   0.463   0.639  1.0816  2.1225 -0.8675
   23SOL    HW2   69   2.827   0.639   0.623  0.4688 -0.2081  1.2655
   24SOL     OW   70   0.313   1.874   0.451 -0.2480  0.7267  0.0705
   24SOL    HW1   71   0.283   1.956   0.402  1.0461  2.1251  0.8367
   24SOL    HW2   72   0.392   1.825   0.404  1.8117  0.0061  1.4835
   25SOL     OW   73   2.290   0.601   0.185 -0.3377 -0.1613  0.2589
   25SOL    HW1   74   2.285   0.596   0.080 -0.1828 -0.5588  0.4959
   25SOL    HW2   75   2.351   0.530   0.228 -0.8086  0.5645  3.3474
   26SOL     OW   76   2.451   2.125   2.100  0.2015 -0.0974  0.2601
   26SOL    HW1   77   2.514   2.156   2.176  1.1320  0.8877 -0.0429
   26SOL    HW2   78   2.502   2.066   2.031  0.0489  0.4404 -1.0139
   27SOL     OW   79   0.607   2.982   0.164  0.1172  0.5191 -0.8272
   27SOL    HW1   80   0.700   3.025   0.162 -0.8972 -0.1685 -0.0076
   27SOL    HW2   81   0.572   2.945   0.074 -0.0944  3.8279  2.0470
   28SOL     OW   82   1.572   0.138   0.294  0.1212  0.2011 -0.0094
   28SOL    HW1   83   1.621   0.093   0.212 -0.2311 -2.9412 -1.7934
   28SOL    HW2   84   1.590   0.239   0.299 -1.6655 -1.3461 -1.2979
   29SOL     OW   85   2.020   0.598   0.288  0.5191 -0.4180  0.2434
   29SOL    HW1   86   2.001   0.665   0.361 -2.0736 -0.4274 -1.8685
   29SOL    HW2   87   2.107   0.615   0.231 -0.0403  0.2331 -2.4175
   30SOL     OW   88   0.188   2.071   0.913 -0.0205 -0.4545 -0.5560
   30SOL    HW1   89   0.170   2.023   0.823 -0.4064  1.5381 -0.8532
   30SOL    HW2   90   0.104   2.098   0.960 -0.2803  0.1943 -1.0699
   31SOL     OW   91   2.133   0.054   2.395 -0.1458  0.1821  0.4654
   31SOL    HW1   92   2.087   0.022   2.484 -0.5380  0.9657  1.0338
   31SOL    HW2   93   2.097   0.004   2.314  0.3477  1.6152 -0.1695
   32SOL     OW   94   3.083   3.068   0.265 -0.7753  0.5038 -0.4925
   32SOL    HW1   95   3.048   2.971   0.280  1.2082  0.0325 -2.3142
   32SOL    HW2   96   3.184   3.074   0.240  1.5261  0.0291 -1.5811
   33SOL     OW   97   0.924   0.190   0.649 -0.0834 -0.4127 -0.0973
   33SOL    HW1   98   0.932   0.132   0.567  1.3959  0.7705  2.2577
   33SOL    HW2   99   0.999   0.262   0.644  1.2309  1.4122  0.2075
   34SOL     OW  100   0.352   2.694   1.030  0.1791  0.1903 -0.5093
   34SOL    HW1  101   0.322   2.738   0.937  3.0367  2.8618  0.7236
   34SOL    HW2  102   0.433   2.744   1.076  0.5974 -1.1483 -0.3613
   35SOL     OW  103   0.051   0.134   1.908  0.2091 -0.3522 -0.5190
   35SOL    HW1  104   0.089   0.038   1.912  0.2586  1.7408  0.3517
   35SOL    HW2  105   0.021   0.156   1.809  0.1342  2.0607  1.0225
   36SOL     OW  106   1.943   1.143   1.517  0.1589  0.0466 -0.1321
   36SOL    HW1  107   2.034   1.100   1.548  0.5199  1.5245 -2.2090
   36SOL    HW2  108   1.967   1.227   1.465 -1.1351  1.2021  0.9110
   37SOL     OW  109   1.117   0.245   0.990  0.0196  0.3603  0.2259
   37SOL    HW1  110   1.107   0.343   0.954 -1.3699 -1.2845 -2.0812
   37SOL    HW2  111   1.174   0.180   0.938  0.3038  1.2971  2.7674
   38SOL     OW  112   1.161   2.847   2.432 -0.3645 -1.1358 -0.4224
   38SOL    HW1  113   1.084   2.801   2.485  0.0551  4.2705  1.1899
   38SOL    HW2  114   1.140   2.943   2.389  2.1664  2.8043  1.6188
   39SOL     OW  115   2.475   1.422   3.015  0.2699  0.4507 -0.3782
   39SOL    HW1  116   2.544   1.347   3.037 -0.0753  1.1333  0.7305
   39SOL    HW2  117   2.381   1.396   3.053 -0.9400 -0.4441  2.4835
   40SOL     OW  118   2.028   2.551   2.551  0.9527 -0.4221 -0.7799
   40SOL    HW1  119   1.970   2.635   2.569  0.0772  3.6211 -0.9871
   40SOL    HW2  120   1.986   2.479   2.493  0.5415 -1.7212  0.5428
   41SOL     OW  121   3.056   0.749   2.785  0.5546 -0.5646 -0.3093
   41SOL    HW1  122   2.993   0.799   2.847  0.4417 -1.5844 -2.1483
   41SOL    HW2  123   3.001   0.688   2.718 -3.2402  0.2955  0.2419
   42SOL     OW  124   1.786   1.727   0.525 -0.2636  0.2700  0.0244
   42SOL    HW1  125   1.749   1.629   0.520 -0.8051  1.8224 -0.8372
   42SOL    HW2  126   1.799   1.760   0.426  0.8096  0.6671 -0.8152
   43SOL     OW  127   0.464   1.666   1.124 -0.1525  0.3274 -0.4964
   43SOL    HW1  128   0.477   1.564   1.102  2.7646  0.9205  2.9367
   43SOL    HW2  129   0.423   1.692   1.212  0.9028  0.5668 -0.6765
   44SOL     OW  130   1.659   2.337   2.965  0.2826 -0.1070 -0.4375
   44SOL    HW1  131   1.557   2.354   2.969  0.1449  0.1524 -2.1004
   44SOL    HW2  132   1.711   2.406   2.904 -1.3859 -0.6941 -1.7539
   45SOL     OW  133   0.364   1.900   2.579  0.0230  0.1723  0.9022
   45SOL    HW1  134   0.323   1.917   2.480  2.7414 -0.3566 -1.8251
   45SOL    HW2  135   0.453   1.839   2.581  2.0711 -0.1196  1.1802
   46SOL     OW  136   1.268   0.745   0.262  1.0858 -0.0819 -0.3102
   46SOL    HW1  137   1.277   0.835   0.213  0.6458  0.3009 -1.2589
   46SOL    HW2  138   1.223   0.676   0.205  2.4067 -2.6947 -2.0087
   47SOL     OW  139   0.113   2.420   1.577 -0.3286 -0.3181 -0.0402
   47SOL    HW1  140   0.077   2.328   1.617 -1.0902  1.5671  0.5656
   47SOL    HW2  141   0.134   2.416   1.476  0.6019  0.8384  2.8180
   48SOL     OW  142   2.648   0.679   0.118 -0.3700 -0.3587 -0.2020
   48SOL    HW1  143   2.618   0.643   0.214 -2.7287  1.0966 -0.8953
   48SOL    HW2  144   2.751   0.666   0.101 -2.3625  0.4342  0.9870
   49SOL     OW  145   0.365   0.821   1.773 -0.2568  0.1524 -0.4830
   49SOL    HW1  146   0.441   0.855   1.837 -1.8911  1.9848  1.3786
   49SOL    HW2  147   0.398   0.760   1.697  1.4055  1.1726 -1.0779
   50SOL     OW  148   1.741   1.096   0.310  0.2055 -0.1566 -0.0270
   50SOL    HW1  149   1.746   0.999   0.270  0.1600 -2.1362 -0.4355
   50SOL    HW2  150   1.688   1.099   0.399 -1.1083  1.4819 -0.6717
   51SOL     OW  151   2.975   1.787   0.341 -0.5630 -0.4480  0.0733
   51SOL    HW1  152   2.892   1.728   0.360 -0.4224 -2.2707 -0.7638
   51SOL    HW2  153   3.064   1.743   0.371 -0.4503 -1.2578 -2.4201
   52SOL     OW  154   0.749   2.180   0.545  0.6462 -0.2958  0.1601
   52SOL    HW1  155   0.646   2.197   0.525 -0.6896  2.6383 -0.1400
   52SOL    HW2  156   0.770   2.092   0.594 -0.1280  0.5020 -0.5985
   53SOL     OW  157   0.277   0.408   1.463  0.3907  0.4391 -0.6778
   53SOL    HW1  158   0.336   0.481   1.508  0.4493  0.3681 -1.4865
   53SOL    HW2  159   0.272   0.411   1.359 -1.2592  0.4083 -1.9561
   54SOL     OW  160   1.720   0.425  -0.001 -0.3487 -0.2918  0.3191
   54SOL    HW1  161   1.789   0.377   0.060 -1.2774  0.3697 -1.6596
   54SOL    HW2  162   1.628   0.437   0.051 -2.0467 -1.0035 -1.7399
   55SOL     OW  163   0.733   2.969   0.609  0.5390  0.6282  0.2459
   55SOL    HW1  164   0.654   3.035   0.606 -0.4629  0.2923  0.9756
   55SOL    HW2  165   0.824   3.014   0.593  1.4395 -2.5196 -3.0508
   56SOL     OW  166   0.584   1.531   3.061  0.1503 -0.1849 -0.3707
   56SOL    HW1  167   0.511   1.543   3.138 -0.6663 -0.6692  0.0937
   56SOL    HW2  168   0.553   1.453   2.993 -0.1234 -0.4029 -1.0758
   57SOL     OW  169   1.677   2.468   2.341  0.0964 -0.2347 -0.2525
   57SOL    HW1  170   1.773   2.428   2.357  1.1647  2.6122 -1.2663
   57SOL    HW2  171   1.623   2.477   2.428 -0.1853 -0.4603 -0.4233
   58SOL     OW  172   0.661   0.227   1.070 -0.3754 -0.2755 -0.0925
   58SOL    HW1  173   0.569   0.231   1.122 -1.2557 -2.7576 -1.4850
   58SOL    HW2  174   0.708   0.133   1.068  1.1869 -0.2104  1.0268
   59SOL     OW  175   0.447   2.373   2.668  0.0300 -0.5376 -0.8460
   59SOL    HW1  176   0.473   2.281   2.697 -0.0758  1.9599  1.0787
   59SOL    HW2  177   0.528   2.441   2.671  0.1473  0.9600 -2.8651
   60SOL     OW  178   2.284   2.048   2.321  0.1319 -0.1206 -0.4878
   60SOL    HW1  179   2.346   2.040   2.236  0.8916  0.5430  0.1301
   60SOL    HW2  180   2.333   2.092   2.403  1.2949  0.8676 -0.5617
   61SOL     OW  181   1.183   0.637   0.508  0.3133 -0.1531  0.0453
   61SOL    HW1  182   1.080   0.643   0.528 -1.2565  2.0059 -1.3126
   61SOL    HW2  183   1.216   0.687   0.418 -1.2686 -1.1582 -0.0408
   62SOL     OW  184   2.783   1.736   2.692  0.6654 -0.1535 -0.4357
   62SOL    HW1  185   2.714   1.659   2.680 -0.8794  1.9046  0.2332
   62SOL    HW2  186   2.849   1.720   2.766  0.7799 -2.2700 -1.3848
   63SOL     OW  187   0.537   0.933   0.208  0.3130 -0.5297  0.2116
   63SOL    HW1  188   0.608   0.984   0.153  1.0412 -0.0558 -0.3028
   63SOL    HW2  189   0.530   0.973   0.301  1.4529 -0.0230 -1.2400
   64SOL     OW  190   2.986   0.566   2.328 -0.1721 -0.3322  0.3539
   64SOL    HW1  191   2.918   0.620   2.391 -2.0815  0.7991  3.6860
   64SOL    HW2  192   3.000   0.617   2.240  1.9426 -0.9364 -1.5596
   65SOL     OW  193   0.237   1.435   0.728  0.0039  0.1419 -0.2980
   65SOL    HW1  194   0.231   1.524   0.779  1.3002  0.7284 -4.2893
   65SOL    HW2  195   0.266   1.453   0.627  0.9678 -2.5908 -1.0143
   66SOL     OW  196   2.575   0.338   0.564  0.2280  0.1595  0.2088
   66SOL    HW1  197   2.671   0.318   0.588 -2.1256  0.0214 -0.2584
   66SOL    HW2  198   2.507   0.286   0.621 -1.8749 -1.8126 -0.6634
   67SOL     OW  199   0.600   2.526   1.472 -0.0914 -0.0260 -0.4032
   67SOL    HW1  200   0.688   2.504   1.520 -0.0731  0.5900  0.2242
   67SOL    HW2  201   0.536   2.441   1.462 -1.0388 -0.9162  2.1008
   68SOL     OW  202   0.894   0.977   2.440 -0.3113 -0.2104  0.5094
   68SOL    HW1  203   0.980   0.960   2.382  0.8533 -0.1740 -1.9077
   68SOL    HW2  204   0.826   1.021   2.381  1.8456  1.9405  0.9645
   69SOL     OW  205   0.784   2.666   2.345 -0.5066 -0.5889  0.7738
   69SOL    HW1  206   0.823   2.594   2.280 -2.2157  2.9369 -3.3605
   69SOL    HW2  207   0.679   2.679   2.335 -0.5718  0.5099 -1.1198
   70SOL     OW  208   0.450   0.158   2.548  0.1895  0.2592  0.3216
   70SOL    HW1  209   0.381   0.126   2.619 -1.3332  0.7519  1.9655
   70SOL    HW2  210   0.533   0.099   2.534  2.7191 -1.2545 -0.7561
   71SOL     OW  211   1.055   1.754   0.319 -0.8460 -0.2895 -0.3207
   71SOL    HW1  212   1.006   1.694   0.388 -0.1713 -0.5536 -4.9429
   71SOL    HW2  213   1.010   1.764   0.228  0.8703  0.1835 -0.2033
   72SOL     OW  214   1.851   0.260   2.165 -0.0606 -0.0512  0.1174
   72SOL    HW1  215   1.921   0.338   2.144  0.0750  1.8396  0.2739
   72SOL    HW2  216   1.897   0.164   2.165  0.2812  1.5361 -2.1034
   73SOL     OW  217   2.778   2.195   2.500 -0.4196  0.3804 -0.2956
   73SOL    HW1  218   2.728   2.106   2.467  0.4942 -0.6172 -2.1050
   73SOL    HW2  219   2.828   2.192   2.593  1.5582  0.3028  0.1016
   74SOL     OW  220   2.697   2.905   2.131  0.3103  0.5779 -0.4951
   74SOL    HW1  221   2.604   2.897   2.179 -2.1780 -0.7490 -1.6290
   74SOL    HW2  222   2.770   2.955   2.178  1.1219 -1.9447  1.2010
   75SOL     OW  223   0.965   0.809   1.160 -0.1167  0.0722 -0.0209
   75SOL    HW1  224   0.860   0.818   1.158  0.1102 -1.2716  1.2072
   75SOL    HW2  225   1.003   0.879   1.232 -1.2798  2.0979 -0.2633
   76SOL     OW  226   1.855   1.279   2.569 -0.1616  0.1358  0.4679
   76SOL    HW1  227   1.764   1.230   2.597 -2.0384  0.5874  0.5373
   76SOL    HW2  228   1.868   1.373   2.619  0.3263  0.8113  2.9272
   77SOL     OW  229   2.910   0.972   1.042 -0.0718 -0.2550  0.3173
   77SOL    HW1  230   2.876   0.875   1.021  0.0032  0.2528 -1.0257
   77SOL    HW2  231   2.980   0.974   1.121  0.5810  1.8673 -2.1517
   78SOL     OW  232   2.000   1.401   1.331  0.0541  0.8541  0.2347
   78SOL    HW1  233   2.072   1.380   1.262 -1.3670 -0.6234 -0.6483
   78SOL    HW2  234   1.901   1.420   1.293 -2.5162  0.0850  0.4702
   79SOL     OW  235   0.715   1.442   0.833  0.0060  0.2630  0.2682
   79SOL    HW1  236   0.613   1.436   0.862 -0.4821  0.2679 -3.1286
   79SOL    HW2  237   0.748   1.350   0.791  4.5109 -1.3902 -1.9543
   80SOL     OW  238   0.583   0.451   1.570  0.1863  0.4118  0.1688
   80SOL    HW1  239   0.595   0.487   1.473 -1.3890  0.4122 -1.9861
   80SOL    HW2  240   0.623   0.354   1.573  1.2142 -2.3850 -0.6467
   81SOL     OW  241   1.072   1.256   2.542  0.0588  0.0245 -0.3587
   81SOL    HW1  242   1.041   1.156   2.529  1.1701  0.9280 -0.6140
   81SOL    HW2  243   1.034   1.326   2.475  0.9969 -0.4032 -0.5339
   82SOL     OW  244   0.906   2.914   1.504 -0.5592  0.8914 -0.1193
   82SOL    HW1  245   0.996   2.872   1.471  2.0098  1.8397 -0.6297
   82SOL    HW2  246   0.849   2.960   1.431  0.5257  2.0837 -1.5194
   83SOL     OW  247   2.625   2.351   0.864  0.5763  0.6466 -0.5767
   83SOL    HW1  248   2.534   2.319   0.815 -0.4680  1.5439 -0.4106
   83SOL    HW2  249   2.643   2.451   0.862 -0.7167  1.8990 -0.0657
   84SOL     OW  250   0.771   0.034   2.271  0.1799 -0.8488  0.0063
   84SOL    HW1  251   0.716   0.006   2.356 -2.1233 -1.3789  0.3745
   84SOL    HW2  252   0.808  -0.048   2.222  1.0636  0.7287 -0.0068
   85SOL     OW  253   0.285   1.697   1.360  0.0178  0.5681 -0.1887
   85SOL    HW1  254   0.243   1.789   1.386 -0.3656  0.8704 -0.4072
   85SOL    HW2  255   0.322   1.645   1.445 -2.5898  2.3558 -0.4514
   86SOL     OW  256   0.408   1.049   1.493  0.7294  0.1484  0.0086
   86SOL    HW1  257   0.391   0.989   1.409 -0.8731 -1.8605 -1.9228
   86SOL    HW2  258   0.478   1.004   1.553  1.2747 -0.9878 -1.1689
   87SOL     OW  259   1.621   0.664   0.297 -0.5036 -0.0421  0.3003
   87SOL    HW1  260   1.706   0.721   0.276 -0.8268  0.5942 -1.5139
   87SOL    HW2  261   1.567   0.664   0.215  0.8635 -1.1611 -0.9219
   88SOL     OW  262   1.590   1.344   0.264 -0.2529 -0.6603 -0.0400
   88SOL    HW1  263   1.630   1.254   0.279 -0.9394 -0.2027 -2.8203
   88SOL    HW2  264   1.490   1.339   0.240  2.2716 -0.3736 -1.1728
   89SOL     OW  265   0.024   0.406   0.630 -0.0195  0.0732  0.8310
   89SOL    HW1  266   0.108   0.356   0.656 -0.5765 -0.8430  0.5898
   89SOL    HW2  267  -0.042   0.350   0.573  2.2237  0.7235  0.5355
   90SOL     OW  268   0.761   1.525   0.153 -0.2885  0.8052 -0.0334
   90SOL    HW1  269   0.846   1.467   0.143 -0.4921 -0.7520  0.7057
   90SOL    HW2  270   0.703   1.523   0.065  0.7937 -0.9076  0.1102
   91SOL     OW  271   1.269   1.490   1.755  0.9598  0.2294 -0.2451
   91SOL    HW1  272   1.239   1.559   1.829 -3.5798  2.6160 -1.5069
   91SOL    HW2  273   1.328   1.413   1.792  1.4323 -0.6770 -1.2525
   92SOL     OW  274   0.013   1.008   1.220  0.0563 -0.3582  0.0038
   92SOL    HW1  275   0.052   1.099   1.183 -0.0168 -0.3708 -1.3249
   92SOL    HW2  276   0.015   1.009   1.328 -0.6962  3.0259  1.5210
   93SOL     OW  277   3.094   2.676   0.078 -0.5974 -0.7708 -0.2994
   93SOL    HW1  278   3.024   2.646   0.010 -3.0155 -1.2687 -1.1328
   93SOL    HW2  279   3.148   2.595   0.116  1.4602 -3.7137  0.0349
   94SOL     OW  280   1.508   1.285   1.677 -0.3239  0.1702  0.0492
   94SOL    HW1  281   1.601   1.239   1.697 -1.5217 -1.4781  1.7186
   94SOL    HW2  282   1.516   1.386   1.669  0.0807  0.7123 -1.3642
   95SOL     OW  283   1.330   2.467   2.920  0.1887  0.1024  0.0240
   95SOL    HW1  284   1.244   2.508   2.954  1.9041 -0.2832  1.3787
   95SOL    HW2  285   1.331   2.359   2.912  0.9929 -1.5078 -0.9613
   96SOL     OW  286   0.592   2.178   1.327 -0.3846 -0.2913  0.0818
   96SOL    HW1  287   0.541   2.132   1.249  1.5874 -0.1572  0.3125
   96SOL    HW2  288   0.624   2.112   1.402 -2.9545 -2.6599  0.3279
   97SOL     OW  289   0.246   1.608   2.432  0.3005  0.0257 -0.4641
   97SOL    HW1  290   0.265   1.708   2.396  0.2048  1.7177  2.9846
   97SOL    HW2  291   0.210   1.604   2.531  1.0597 -0.0891  0.6820
   98SOL     OW  292   2.164   1.666   1.206  0.1324 -0.1958 -0.5052
   98SOL    HW1  293   2.114   1.577   1.227  0.1655 -0.9589  4.5834
   98SOL    HW2  294   2.245   1.642   1.149 -1.7888 -0.0396 -1.4462
   99SOL     OW  295   2.648   2.054   1.260 -0.5691 -0.4839  0.7220
   99SOL    HW1  296   2.696   2.122   1.318  0.6817  0.3388 -1.4043
   99SOL    HW2  297   2.591   1.985   1.316 -2.0335 -0.2714 -0.8296
  100SOL     OW  298   2.327   0.372   2.140 -0.4591 -0.2337  0.0640
  100SOL    HW1  299   2.274   0.374   2.227 -0.6458  2.5282  0.1523
  100SOL    HW2  300   2.425   0.409   2.147  1.3469  1.4426 -1.4115
  101SOL     OW  301   0.359   1.500   0.487  0.0959 -0.5260 -0.5931
  101SOL    HW1  302   0.388   1.588   0.530  1.1728 -0.1321 -3.0683
  101SOL    HW2  303   0.417   1.473   0.413  0.5543  0.0246  1.5277
  102SOL     OW  304   2.232   1.064   0.818  0.2925 -0.0616 -0.2534
  102SOL    HW1  305   2.200   0.971   0.771 -0.7146 -0.9782  0.3218
  102SOL    HW2  306   2.329   1.084   0.797 -0.6869 -1.7103 -1.1009
  103SOL     OW  307   2.283   0.081   0.364 -0.1655  0.3096  0.4911
  103SOL    HW1  308   2.336   0.121   0.282 -1.3250  0.5071 -1.0010
  103SOL    HW2  309   2.340   0.023   0.425 -0.3535 -0.3706  2.4642
  104SOL     OW  310   3.067   1.784   2.231 -0.2230 -0.0251  0.0538
  104SOL    HW1  311   3.118   1.753   2.146 -1.2208 -1.2771 -0.7177
  104SOL    HW2  312   2.971   1.819   2.194 -1.8203 -0.9591 -0.7732
  105SOL     OW  313   1.365   2.099   0.776 -0.4710 -0.6121 -0.0207
  105SOL    HW1  314   1.383   2.156   0.692  0.2055  2.0520  0.7899
  105SOL    HW2  315   1.347   2.002   0.749 -1.8778  0.7976  0.4251
  106SOL     OW  316   2.142   0.408   1.416 -0.3748 -0.1241  0.1583
  106SOL    HW1  317   2.060   0.348   1.412  0.3377  2.3819  2.3378
  106SOL    HW2  318   2.165   0.439   1.512 -3.4623 -0.1397 -1.9348
  107SOL     OW  319   1.909   2.884   1.162 -0.6436  0.2619 -0.3438
  107SOL    HW1  320   1.837   2.956   1.169 -0.9504  3.4581  0.7685
  107SOL    HW2  321   1.874   2.796   1.119 -0.4748  0.6885 -0.8521
  108SOL     OW  322   0.831   2.824   1.171  0.1245 -0.0401 -0.4947
  108SOL    HW1  323   0.831   2.743   1.106 -0.3047  1.3872 -0.8502
  108SOL    HW2  324   0.913   2.821   1.236 -0.1152  0.8946 -1.7342
  109SOL     OW  325   2.164   0.182   0.714  0.2547 -0.6930 -0.1869
  109SOL    HW1  326   2.094   0.139   0.652  1.3273 -0.0396 -0.0572
  109SOL    HW2  327   2.120   0.217   0.802  1.0898  0.3202 -0.8874
  110SOL     OW  328   0.507   2.777   2.748 -0.6499  0.7896 -0.0597
  110SOL    HW1  329   0.504   2.795   2.647  0.7296 -0.8251  0.7889
  110SOL    HW2  330   0.591   2.725   2.775  2.0493 -1.1417 -1.0078
  111SOL     OW  331   1.306   0.543   2.278  0.2854  0.5028 -0.3222
  111SOL    HW1  332   1.215   0.570   2.311  1.6714  2.8407  0.9682
  111SOL    HW2  333   1.342   0.465   2.339  2.1246 -0.1894 -0.2474
  112SOL     OW  334   1.741   0.432   1.520 -0.5865  0.5054 -0.0189
  112SOL    HW1  335   1.700   0.478   1.440 -0.6900  0.6551  0.3625
  112SOL    HW2  336   1.677   0.410   1.604 -0.0478  1.1838  2.6630
  113SOL     OW  337   2.381   1.704   1.786 -0.0478 -0.6096 -0.0426
  113SOL    HW1  338   2.396   1.601   1.779 -0.7817 -1.2686  0.7184
  113SOL    HW2  339   2.352   1.729   1.885 -0.6929 -1.4925  1.5913
  114SOL     OW  340   0.314   0.414   1.160 -0.1772 -0.2045  0.0169
  114SOL    HW1  341   0.237   0.475   1.165 -1.4521 -2.4174  2.7348
  114SOL    HW2  342   0.366   0.425   1.071 -0.9973  1.1083 -1.1424
  115SOL     OW  343   2.716   1.549   1.250 -0.3487 -0.1880  0.6735
  115SOL    HW1  344   2.713   1.454   1.294 -3.4903 -0.7340 -0.3869
  115SOL    HW2  345   2.797   1.566   1.186  1.2626 -0.2148 -1.1595
  116SOL     OW  346   1.915   0.889   0.756 -0.0544 -0.3418 -0.0857
  116SOL    HW1  347   1.822   0.869   0.722  0.5721 -1.1193  0.0524
  116SOL    HW2  348   1.926   0.990   0.764 -2.0971 -1.1832  1.0092
  117SOL     OW  349   1.140   0.363   0.564  0.2289  0.2280  0.0017
  117SOL    HW1  350   1.162   0.465   0.561  1.3805  1.4410  2.0017
  117SOL    HW2  351   1.128   0.328   0.463  0.9152 -2.0769 -4.2831
  118SOL     OW  352   1.133   1.221   1.076  0.3590 -0.0579  0.1919
  118SOL    HW1  353   1.065   1.195   1.147  2.0674 -0.6363 -1.9344
  118SOL    HW2  354   1.160   1.321   1.083 -2.8915  2.4345 -1.8998
  119SOL     OW  355   1.837   1.579   2.193 -0.3863  0.2915  0.0416
  119SOL    HW1  356   1.801   1.646   2.121  1.5007 -1.4528 -0.8975
  119SOL    HW2  357   1.932   1.550   2.165  0.2536 -2.9222 -1.4459
  120SOL     OW  358   2.962   2.819   0.260  0.4406 -0.1118  0.4018
  120SOL    HW1  359   3.026   2.763   0.196  0.0794 -0.1000  0.2835
  120SOL    HW2  360   2.865   2.803   0.229 -0.5886 -1.8899 -0.6286
  121SOL     OW  361   2.000   0.804   2.320  0.2411 -0.3934  0.2269
  121SOL    HW1  362   2.058   0.887   2.285  0.9096  1.1411 -2.7607
  121SOL    HW2  363   1.992   0.729   2.250  0.4005 -0.2317  0.4417
  122SOL     OW  364   2.621   2.504   1.320 -0.3343  0.0902 -0.3723
  122SOL    HW1  365   2.673   2.472   1.242 -0.9108  1.5341  1.0945
  122SOL    HW2  366   2.639   2.435   1.396  2.4362  0.4786  0.2707
  123SOL     OW  367   1.657   0.136   1.708  0.0602  0.1577 -0.2784
  123SOL    HW1  368   1.687   0.059   1.646 -1.7640 -2.0281 -0.5286
  123SOL    HW2  369   1.735   0.181   1.757  0.2178  1.2753  2.8166
  124SOL     OW  370   3.057   0.385   1.131 -0.4174  0.3223  0.5000
  124SOL    HW1  371   2.979   0.435   1.179 -0.9320  0.0743 -2.4694
  124SOL    HW2  372   3.062   0.414   1.032  1.2900 -0.8920  0.9130
  125SOL     OW  373   0.854   2.000   0.758  0.2887 -0.0792 -0.3540
  125SOL    HW1  374   0.950   1.969   0.781  2.9389  1.0638 -1.0143
  125SOL    HW2  375   0.804   2.047   0.840 -0.9889  0.4037 -2.3912
  126SOL     OW  376   1.887   2.318   2.461 -0.5371 -0.1048 -0.2157
  126SOL    HW1  377   1.958   2.266   2.403  1.3560  2.2290 -3.7291
  126SOL    HW2  378   1.845   2.268   2.540  0.3910  0.2608 -1.3297
  127SOL     OW  379   0.897   0.976   0.203  0.1883  0.0045 -0.3418
  127SOL    HW1  380   0.924   1.024   0.291 -2.3021 -0.6404  2.3893
  127SOL    HW2  381   0.917   0.876   0.210 -2.5279  0.7968 -1.6982
  128SOL     OW  382   0.945   0.231   1.437  0.1192 -0.6483  0.6293
  128SOL    HW1  383   0.878   0.304   1.395 -2.5421  2.7461 -0.7617
  128SOL    HW2  384   0.939   0.138   1.385 -2.0186 -2.3435 -2.3108
  129SOL     OW  385   1.864   0.716   1.829 -0.1390 -0.3990  0.5769
  129SOL    HW1  386   1.886   0.685   1.731 -1.7770 -0.4309  2.5204
  129SOL    HW2  387   1.901   0.806   1.859  0.6242  1.6153 -1.1212
  130SOL     OW  388   1.357   2.266   0.993  0.2867 -0.8537  0.6489
  130SOL    HW1  389   1.339   2.212   0.904 -0.4734  0.0128 -2.0310
  130SOL    HW2  390   1.442   2.327   0.990 -0.2798 -0.1176  1.6609
  131SOL     OW  391   3.066   1.429   1.392 -0.0378 -0.7054  0.2601
  131SOL    HW1  392   3.046   1.325   1.398 -2.0082 -2.2694  0.6382
  131SOL    HW2  393   3.165   1.447   1.383 -0.8717  3.3106  1.2561
  132SOL     OW  394   2.068   2.421   0.562  0.5666  0.5941 -0.0021
  132SOL    HW1  395   1.965   2.443   0.550 -1.3596 -1.0531 -0.6729
  132SOL    HW2  396   2.082   2.356   0.639  0.2083  1.3785 -2.1350
  133SOL     OW  397   1.748   2.506   2.756  0.4120  0.1620  0.0868
  133SOL    HW1  398   1.669   2.493   2.684 -0.7762  1.6489  0.1078
  133SOL    HW2  399   1.764   2.602   2.785 -0.7907  1.6234  0.2090
  134SOL     OW  400   2.668   2.401   1.593 -0.6097  0.0258  0.1825
  134SOL    HW1  401   2.599   2.357   1.657  0.6846  0.3183  1.0359
  134SOL    HW2  402   2.703   2.495   1.614 -0.7167  0.1263 -0.4540
  135SOL     OW  403   0.814   1.427   2.655  0.1421 -0.4542 -0.0051
  135SOL    HW1  404   0.738   1.364   2.681  2.9872 -1.5531  0.6235
  135SOL    HW2  405   0.821   1.420   2.550  0.5934 -1.4296 -2.3812
  136SOL     OW  406   1.176   2.013   0.405 -0.3685  0.2158  0.1173
  136SOL    HW1  407   1.107   2.092   0.426  1.0310 -0.1222 -0.0070
  136SOL    HW2  408   1.132   1.920   0.396 -0.9744  1.8932 -0.3277
  137SOL     OW  409   0.418   1.216   2.334 -0.2760 -0.0057 -0.0145
  137SOL    HW1  410   0.324   1.182   2.343 -0.0103 -0.4916  1.1518
  137SOL    HW2  411   0.490   1.140   2.332  1.5342  0.8451  3.7662
  138SOL     OW  412   2.444   1.508   0.237  0.1846 -0.8833 -0.1935
  138SOL    HW1  413   2.374   1.482   0.165 -0.4045  0.9823  0.5283
  138SOL    HW2  414   2.445   1.440   0.312  0.8641  1.1385  0.0539
  139SOL     OW  415   1.875   2.670   1.594 -0.6531 -0.2329 -0.0409
  139SOL    HW1  416   1.772   2.670   1.596  0.2420  1.0487 -0.1553
  139SOL    HW2  417   1.921   2.596   1.534  2.3156 -1.1219 -1.2964
  140SOL     OW  418   2.968   2.951   2.560  1.0016 -0.1142  0.0438
  140SOL    HW1  419   3.012   2.863   2.596 -1.0572  1.7638 -0.3173
  140SOL    HW2  420   3.028   3.033   2.562 -1.9746  0.6983  0.0908
  141SOL     OW  421   1.309   1.651   1.493  0.4359 -0.1284 -0.7183
  141SOL    HW1  422   1.217   1.697   1.503  2.2232 -1.2423  0.7338
  141SOL    HW2  423   1.313   1.558   1.539 -2.0937 -1.1649 -1.6069
  142SOL     OW  424   1.570   0.694   2.246  0.7306  0.0399 -0.2846
  142SOL    HW1  425   1.561   0.724   2.146 -1.2611 -0.4282 -2.1503
  142SOL    HW2  426   1.478   0.662   2.277 -0.3077 -0.1602  3.2024
  143SOL     OW  427   2.747   0.810   0.553 -0.3440 -0.3565 -0.0882
  143SOL    HW1  428   2.789   0.845   0.464  0.8752 -2.3313 -1.7093
  143SOL    HW2  429   2.769   0.864   0.634  2.4189  0.7666 -2.0061
  144SOL     OW  430   2.899   1.157   1.451  0.1344 -0.3397 -0.4961
  144SOL    HW1  431   2.858   1.151   1.547  4.7661 -1.2798  1.0860
  144SOL    HW2  432   2.981   1.093   1.444 -0.6903 -3.7885 -1.7966
  145SOL     OW  433   0.880   1.775   0.103  0.3272 -0.6527  0.2804
  145SOL    HW1  434   0.900   1.790   0.001  0.8061 -1.1834  0.0256
  145SOL    HW2  435   0.819   1.693   0.122  1.0235 -3.4631  0.4931
  146SOL     OW  436   2.451   0.662   1.506  0.1114 -0.2028  0.0163
  146SOL    HW1  437   2.439   0.573   1.451  0.9001 -2.1936 -2.4019
  146SOL    HW2  438   2.392   0.741   1.468  1.2073  0.2870  0.6683
  147SOL     OW  439   1.068   2.486   0.562 -0.3842 -0.3867  0.0945
  147SOL    HW1  440   1.040   2.572   0.510  3.6110 -0.7849 -1.5561
  147SOL    HW2  441   1.164   2.457   0.538 -0.6157 -1.8989  1.5837
  148SOL     OW  442   1.575   1.459   0.005  0.1327 -0.5846 -0.0351
  148SOL    HW1  443   1.608   1.367  -0.033 -0.1839 -2.0326  0.0249
  148SOL    HW2  444   1.558   1.443   0.105 -0.4959  0.9912  1.3424
  149SOL     OW  445   0.653   1.493   1.979  0.5515 -0.0846 -0.3081
  149SOL    HW1  446   0.560   1.452   2.005 -0.6794  1.4987  2.2399
  149SOL    HW2  447   0.681   1.460   1.881 -0.1040 -1.1890 -0.3787
  150SOL     OW  448   3.036   1.184   0.929 -0.6297 -0.3367 -0.1778
  150SOL    HW1  449   3.102   1.227   1.003  2.5058 -0.9767  2.1945
  150SOL    HW2  450   2.974   1.112   0.970 -0.1985  1.4040  0.5551
  151SOL     OW  451   0.143   0.913   2.096 -0.7631 -0.3636  0.2866
  151SOL    HW1  452   0.172   0.987   2.027  1.4775 -0.4907  0.0360
  151SOL    HW2  453   0.208   0.836   2.089  0.8410 -0.6714 -0.1568
  152SOL     OW  454   1.478   1.866   1.101  0.1601  0.1996  0.4281
  152SOL    HW1  455   1.520   1.957   1.086  3.6422 -2.5060 -0.9482
  152SOL    HW2  456   1.375   1.868   1.094 -1.3430  1.7711  0.6164
  153SOL     OW  457   0.147   1.495   0.242 -0.5091  0.2053  0.6752
  153SOL    HW1  458   0.090   1.408   0.231 -0.7737  0.5161 -0.1527
  153SOL    HW2  459   0.143   1.538   0.336 -0.7806 -2.6759 -0.2081
  154SOL     OW  460   2.335   1.813   2.778  0.5803  1.0271  0.3922
  154SOL    HW1  461   2.356   1.708   2.785  1.7710 -1.4736  0.8377
  154SOL    HW2  462   2.406   1.861   2.721  0.9308  0.7287 -0.0108
  155SOL     OW  463   2.461   1.325   0.431  0.8035  0.1002  0.2719
  155SOL    HW1  464   2.547   1.280   0.390  0.8591  1.1415 -0.0118
  155SOL    HW2  465   2.390   1.254   0.446  1.2587  0.2586 -3.6480
  156SOL     OW  466   2.458   0.820   0.765 -0.4161 -0.7163  0.0678
  156SOL    HW1  467   2.360   0.793   0.756 -1.7402  1.9243  0.3141
  156SOL    HW2  468   2.485   0.870   0.675  1.4705  1.7153  1.0889
  157SOL     OW  469   1.268   3.073   3.072  0.4078  0.5206 -0.3518
  157SOL    HW1  470   1.321   3.006   3.007 -1.3885 -2.4110 -0.7015
  157SOL    HW2  471   1.299   3.171   3.084 -0.6738  0.8103  0.8293
  158SOL     OW  472   1.095   1.930   1.823 -0.3844  0.1097  0.5822
  158SOL    HW1  473   1.151   2.016   1.847 -0.4306  1.3766  1.1147
  158SOL    HW2  474   1.009   1.927   1.880  2.3030 -2.2411 -1.6576
  159SOL     OW  475   0.778   0.415   1.281 -0.3706  0.2453 -0.6390
  159SOL    HW1  476   0.725   0.506   1.307 -0.2458  0.7784  2.4525
  159SOL    HW2  477   0.732   0.360   1.209 -1.4314  0.6486 -0.0421
  160SOL     OW  478   1.423   2.470   1.449  0.2577 -0.1417 -0.1177
  160SOL    HW1  479   1.393   2.387   1.506  1.5717 -0.4527  0.1198
  160SOL    HW2  480   1.517   2.449   1.411  1.4097  0.5331  1.8312
  161SOL     OW  481   0.013   2.617   0.443  0.2914 -0.1404 -0.1346
  161SOL    HW1  482  -0.028   2.524   0.426  1.0047 -2.3039 -2.4246
  161SOL    HW2  483  -0.056   2.695   0.418 -2.5740  2.8252 -1.2639
  162SOL     OW  484   2.517   1.883   0.491 -0.7125 -0.5345 -0.0403
  162SOL    HW1  485   2.553   1.855   0.400  2.2194  3.2114 -1.3615
  162SOL    HW2  486   2.451   1.818   0.533 -1.0065  1.3092  2.1675
  163SOL     OW  487   1.976   2.748   0.759  0.2548 -0.4626  0.1376
  163SOL    HW1  488   1.958   2.775   0.663 -1.5551  0.2999  0.4082
  163SOL    HW2  489   2.034   2.665   0.774  0.7306 -0.7137 -0.6833
  164SOL     OW  490   3.092   0.143   1.216  0.5114  0.1434  0.1695
  164SOL    HW1  491   3.102   0.241   1.188 -0.2118  0.4151 -0.3334
  164SOL    HW2  492   3.133   0.123   1.306 -1.1670 -2.6467  2.0763
  165SOL     OW  493   1.114   1.453   0.623 -0.1977 -0.0744 -0.3361
  165SOL    HW1  494   1.105   1.521   0.702 -0.3833  2.8565 -1.6209
  165SOL    HW2  495   1.049   1.486   0.549 -0.7513 -3.3787  0.3397
  166SOL     OW  496   1.508   1.000   1.827  0.1999  0.1669  0.2239
  166SOL    HW1  497   1.429   1.049   1.871 -0.7952  0.1346  0.6661
  166SOL    HW2  498   1.597   1.052   1.823  0.5327  2.7168 -0.4886
  167SOL     OW  499   0.668   2.019   1.528  0.2650  0.3495  0.0482
  167SOL    HW1  500   0.628   2.070   1.610 -2.2199 -0.5299 -0.2681
  167SOL    HW2  501   0.646   1.914   1.534  1.3090 -1.9662  1.8711
  168SOL     OW  502   1.629   2.294   0.145  0.0724  0.0582 -0.3654
  168SOL    HW1  503   1.703   2.334   0.087  1.1015 -2.7452  1.5248
  168SOL    HW2  504   1.664   2.273   0.242 -1.7168 -1.8624  1.2628
  169SOL     OW  505   0.000   2.573   2.177 -0.2209  0.1178 -0.4483
  169SOL    HW1  506  -0.021   2.496   2.109 -0.9425 -0.7117 -2.3529
  169SOL    HW2  507   0.062   2.551   2.257 -0.9022  0.9509 -2.0100
  170SOL     OW  508   1.146   0.140   2.062 -0.1193 -0.2296  0.0062
  170SOL    HW1  509   1.237   0.170   2.103  1.3341 -0.1393 -0.8429
  170SOL    HW2  510   1.152   0.144   1.956 -1.2451 -0.7688  0.1124
  171SOL     OW  511   0.169   0.863   2.421 -0.2250  0.1634 -0.0726
  171SOL    HW1  512   0.079   0.833   2.472 -1.3167 -0.4973  2.3853
  171SOL    HW2  513   0.141   0.939   2.357 -2.5338 -0.7378  0.1351
  172SOL     OW  514   1.009   0.994   2.845 -0.1010 -0.4422 -0.5824
  172SOL    HW1  515   0.956   1.058   2.907  0.7575 -1.6811  1.8650
  172SOL    HW2  516   0.961   0.961   2.762  1.9312 -2.3927  0.2215
  173SOL     OW  517   0.394   2.580   0.030 -0.2908  0.3796 -0.1200
  173SOL    HW1  518   0.402   2.498  -0.039 -2.6345 -0.2209 -4.7645
  173SOL    HW2  519   0.390   2.549   0.134 -1.8584 -1.4191  2.2727
  174SOL     OW  520   1.465   2.867   1.045 -0.2577 -0.1111  0.0241
  174SOL    HW1  521   1.550   2.921   1.022  0.6184  1.5646 -0.5961
  174SOL    HW2  522   1.449   2.784   0.986  0.9100  0.3216  1.4056
  175SOL     OW  523   0.470   3.050   1.714  0.5465 -0.3475  0.1724
  175SOL    HW1  524   0.518   3.062   1.807  0.7364  0.4614 -2.0088
  175SOL    HW2  525   0.423   3.135   1.675  0.2731 -1.6342  1.3957
  176SOL     OW  526   2.651   0.439   3.062 -0.4980  0.9651 -0.0005
  176SOL    HW1  527   2.627   0.523   3.121 -0.0702 -0.0039  1.4777
  176SOL    HW2  528   2.691   0.356   3.107  0.5182  1.7704 -0.8723
  177SOL     OW  529   0.391   0.269   0.881  0.2236 -0.3803 -0.6190
  177SOL    HW1  530   0.331   0.181   0.875  4.4950 -1.4848  0.6146
  177SOL    HW2  531   0.487   0.259   0.846 -0.8841 -1.6547  1.9835
  178SOL     OW  532   0.016   2.734   2.656 -0.9404  0.6138  0.8379
  178SOL    HW1  533   0.009   2.633   2.646  0.9826  0.3714 -1.2418
  178SOL    HW2  534   0.104   2.762   2.706  1.4793 -2.1947  0.4316
  179SOL     OW  535   2.978   1.596   1.198 -0.1644  0.7346  0.0371
  179SOL    HW1  536   3.072   1.611   1.157 -1.9041  0.6252  0.5241
  179SOL    HW2  537   2.975   1.529   1.278  1.9200 -1.1058  1.6246
  180SOL     OW  538   0.256   1.388   1.744  0.0138  1.1615 -0.3005
  180SOL    HW1  539   0.338   1.339   1.783  1.5216 -1.1832  0.5443
  180SOL    HW2  540   0.193   1.424   1.820  0.1951 -0.1689 -1.1311
  181SOL     OW  541   2.985   1.801   2.480  0.3103 -0.4102 -0.3404
  181SOL    HW1  542   3.001   1.797   2.375 -1.6234 -1.3123  0.0186
  181SOL    HW2  543   2.885   1.799   2.513 -2.1560 -0.9449 -1.7145
  182SOL     OW  544   2.248   1.366   1.194 -0.5293 -0.0876 -0.1938
  182SOL    HW1  545   2.233   1.277   1.148  0.6557  0.0705  1.8989
  182SOL    HW2  546   2.322   1.425   1.149  1.6683  3.5821  1.7630
  183SOL     OW  547   1.425   2.245   2.412  0.6314 -0.3723 -0.1061
  183SOL    HW1  548   1.347   2.182   2.440  2.0840 -0.5883 -1.3655
  183SOL    HW2  549   1.517   2.195   2.396  0.1674  0.5956  0.9707
  184SOL     OW  550   2.181   0.789   0.750 -0.1253 -0.1366 -0.5046
  184SOL    HW1  551   2.083   0.813   0.785  1.6672  0.7135  1.4539
  184SOL    HW2  552   2.192   0.682   0.740  1.6309  1.1823  1.3278
  185SOL     OW  553   1.582   2.791   2.001  0.0606 -0.0570 -0.0413
  185SOL    HW1  554   1.486   2.831   2.011  0.0155  0.1681  1.4313
  185SOL    HW2  555   1.633   2.777   2.092 -0.4165 -0.5817 -0.8594
  186SOL     OW  556   0.087   2.210   1.771 -0.3197  0.0163  0.0673
  186SOL    HW1  557   0.058   2.254   1.863 -0.4110 -2.6311 -0.2210
  186SOL    HW2  558   0.173   2.152   1.790 -1.6044 -2.4619  6.0711
  187SOL     OW  559   1.337   0.689   1.657 -0.0923  0.3546 -0.6540
  187SOL    HW1  560   1.416   0.694   1.595 -1.8573 -0.5872  1.3467
  187SOL    HW2  561   1.337   0.617   1.734 -1.8975  0.2110  0.8915
  188SOL     OW  562   2.712   2.667   1.557 -0.1150  0.1625  0.7964
  188SOL    HW1  563   2.650   2.731   1.603 -0.3221 -0.9294  0.1202
  188SOL    HW2  564   2.692   2.655   1.456 -0.9071 -2.2065 -1.3333
  189SOL     OW  565   0.953   1.200   1.335 -0.2226 -0.0314 -0.1730
  189SOL    HW1  566   0.967   1.234   1.433 -1.9391  0.4715  1.1160
  189SOL    HW2  567   0.880   1.258   1.288 -0.2566  1.9911  0.1396
  190SOL     OW  568   1.476   1.895   1.502 -0.0470  0.2050  0.0964
  190SOL    HW1  569   1.428   1.805   1.489 -0.2784 -0.0714  0.5456
  190SOL    HW2  570   1.484   1.924   1.600 -1.8584 -1.0323  0.2346
  191SOL     OW  571   0.844   0.772   1.510 -0.2648  0.6118 -0.2444
  191SOL    HW1  572   0.905   0.687   1.534  2.0973 -3.0921  0.5305
  191SOL    HW2  573   0.903   0.837   1.454  2.5830  0.0010 -0.8637
  192SOL     OW  574   1.817   2.438   1.095  0.0183 -0.0966  0.0633
  192SOL    HW1  575   1.721   2.445   1.064 -0.6270 -3.0753  0.0117
  192SOL    HW2  576   1.869   2.353   1.080 -2.1587  2.4016 -0.3404
  193SOL     OW  577   0.549   0.582   0.440 -0.5939  0.1531 -0.3790
  193SOL    HW1  578   0.480   0.505   0.434 -0.9523  0.4049  1.9293
  193SOL    HW2  579   0.612   0.579   0.357  1.0243 -0.1218 -2.5709
  194SOL     OW  580   0.386   0.817   1.318  0.2293  0.1019 -0.6161
  194SOL    HW1  581   0.283   0.801   1.294  0.6916 -0.3187 -1.5310
  194SOL    HW2  582   0.438   0.821   1.229  1.1342 -0.0934 -2.8304
  195SOL     OW  583   1.025   2.945   0.503  0.0166  0.3990  0.1775
  195SOL    HW1  584   1.004   2.854   0.456  0.6070 -0.7771  0.4530
  195SOL    HW2  585   1.115   2.992   0.477  1.9682  0.6224  2.4717
  196SOL     OW  586   0.243   1.425   1.307 -0.2147 -0.4479  0.2469
  196SOL    HW1  587   0.250   1.530   1.298  0.1937  1.8120  1.0250
  196SOL    HW2  588   0.247   1.386   1.404 -1.2669 -0.8603  0.0027
  197SOL     OW  589   0.845   1.989   0.297  0.0853 -0.9449 -0.6596
  197SOL    HW1  590   0.866   1.947   0.387  1.4075 -0.8112 -0.0414
  197SOL    HW2  591   0.845   1.919   0.218  0.5043 -1.0230 -0.3077
  198SOL     OW  592   0.275   1.212   0.350 -0.4150 -0.2985 -0.0523
  198SOL    HW1  593   0.191   1.200   0.292 -1.8309 -1.9762 -0.8455
  198SOL    HW2  594   0.294   1.307   0.381  0.5406  0.5848 -0.1961
  199SOL     OW  595   2.218   0.456   2.594 -0.0188 -0.6005 -0.2192
  199SOL    HW1  596   2.152   0.388   2.635  1.2182  1.0921 -0.0710
  199SOL    HW2  597   2.316   0.445   2.622 -0.4510  1.0526 -0.5814
  200SOL     OW  598   3.027   2.887   0.809  0.3190 -0.1642 -0.0540
  200SOL    HW1  599   3.059   2.975   0.851 -1.9489 -1.1844 -0.9179
  200SOL    HW2  600   2.946   2.902   0.745 -1.2310 -1.2846  1.3084
  201SOL     OW  601   0.908   0.700   0.503 -0.0683 -0.1378 -0.0929
  201SOL    HW1  602   0.870   0.777   0.565  1.6948  3.9150  2.5695
  201SOL    HW2  603   0.866   0.607   0.528  1.3382 -1.0181  2.8212
  202SOL     OW  604   0.467   1.224   1.856  0.4459 -0.4274  0.8492
  202SOL    HW1  605   0.553   1.182   1.814  0.6366  1.3797  1.0023
  202SOL    HW2  606   0.481   1.257   1.952  0.9315  0.1084 -2.8438
  203SOL     OW  607   0.683   0.194   1.582  0.2583 -0.5276 -0.5980
  203SOL    HW1  608   0.700   0.136   1.497  0.6748 -0.0191  1.7922
  203SOL    HW2  609   0.769   0.219   1.638  0.4447  1.9564 -0.4103
  204SOL     OW  610   2.110   1.826   2.921 -0.1824 -0.0495  0.3332
  204SOL    HW1  611   2.093   1.729   2.958  0.4921  1.9841 -0.0043
  204SOL    HW2  612   2.191   1.836   2.853 -2.1482 -0.6174  2.1485
  205SOL     OW  613   1.836   1.899   3.065  0.0588  0.0798 -0.3991
  205SOL    HW1  614   1.933   1.878   3.032  2.1439 -0.3273 -0.2198
  205SOL    HW2  615   1.789   1.966   3.000 -2.8643  0.5069  0.5300
  206SOL     OW  616   2.353   2.713   0.283  0.3246 -0.2434  0.5206
  206SOL    HW1  617   2.305   2.667   0.361 -1.7916 -0.4902 -4.3123
  206SOL    HW2  618   2.431   2.663   0.244 -2.6330 -3.3764  1.0227
  207SOL     OW  619   0.701   1.745   2.921 -0.2859  0.0822  0.5403
  207SOL    HW1  620   0.792   1.707   2.892 -1.8565  0.1170 -0.2908
  207SOL    HW2  621   0.646   1.669   2.967  0.6403 -2.2701  0.1430
  208SOL     OW  622   0.988   1.546   1.272 -0.2776  0.1413 -0.0867
  208SOL    HW1  623   0.913   1.598   1.221 -1.7489  1.4657  0.1901
  208SOL    HW2  624   1.004   1.576   1.368  1.1534 -1.3661  0.2074
  209SOL     OW  625   0.257   0.965   3.040 -0.6014  0.1664  0.1809
  209SOL    HW1  626   0.303   0.956   2.941 -0.5837  3.3813 -1.0221
  209SOL    HW2  627   0.247   0.880   3.095  0.5892  0.2463 -0.2449
  210SOL     OW  628   1.687   0.563   1.280 -0.7169 -0.0886  0.8960
  210SOL    HW1  629   1.624   0.581   1.195  0.6431 -1.5387  0.6112
  210SOL    HW2  630   1.787   0.580   1.263 -0.5538  2.7505  0.6242
  211SOL     OW  631   2.190   1.028   1.571  0.4414 -0.1949 -0.3318
  211SOL    HW1  632   2.217   1.029   1.672 -0.3591  1.5941  2.4206
  211SOL    HW2  633   2.249   1.095   1.519 -3.6385 -0.7108 -0.2004
  212SOL     OW  634   0.038   1.033   1.487 -0.4033  0.3010  0.4879
  212SOL    HW1  635   0.088   1.122   1.508 -1.3212 -1.7243  0.4988
  212SOL    HW2  636   0.067   0.961   1.558 -1.2000  1.8214  0.4592
  213SOL     OW  637   2.821   0.068   0.365  0.2840 -0.6874  0.3887
  213SOL    HW1  638   2.918   0.038   0.355  0.5507 -2.4287 -3.0871
  213SOL    HW2  639   2.762   0.029   0.295  0.6882  0.1300  2.2916
  214SOL     OW  640   2.161   0.340   2.352  0.2757  0.6366  0.0822
  214SOL    HW1  641   2.193   0.395   2.432 -0.2504 -1.7909 -1.0403
  214SOL    HW2  642   2.141   0.244   2.377 -0.8917 -1.1098  2.6808
  215SOL     OW  643   1.657   2.244   2.058 -0.2154  0.4545  0.3653
  215SOL    HW1  644   1.760   2.274   2.066  2.1503  0.7497  3.3635
  215SOL    HW2  645   1.585   2.314   2.094 -0.4182  1.1168  0.6636
  216SOL     OW  646   2.219   0.524   0.733  0.5411 -0.3290 -0.0848
  216SOL    HW1  647   2.210   0.490   0.637  0.1617  1.7228  3.8717
  216SOL    HW2  648   2.312   0.495   0.779  0.1051 -2.3816  3.5987
  217SOL     OW  649   0.939   2.733   2.566  0.2846  0.1598 -0.1306
  217SOL    HW1  650   0.954   2.676   2.644  2.6113  2.4274 -2.7118
  217SOL    HW2  651   0.872   2.694   2.495 -0.6498 -3.0055  0.3640
  218SOL     OW  652   1.871   1.429   0.026  0.2482 -0.5209  0.1004
  218SOL    HW1  653   1.773   1.455   0.043 -0.0830 -0.2458 -2.5473
  218SOL    HW2  654   1.895   1.328   0.034  1.0089 -0.3107 -1.1623
  219SOL     OW  655   2.460   1.295   2.521 -0.4134 -0.0528 -0.1107
  219SOL    HW1  656   2.463   1.234   2.437  0.0880  0.3902 -0.4888
  219SOL    HW2  657   2.471   1.242   2.611  1.4864 -2.0434  0.3128
  220SOL     OW  658   1.382   1.019   1.329 -0.0790 -0.1553 -0.0131
  220SOL    HW1  659   1.482   1.024   1.359 -0.2553 -0.0558 -0.9142
  220SOL    HW2  660   1.377   1.020   1.224  1.9454 -2.5959  0.2065
  221SOL     OW  661   1.380   0.946   2.188 -0.4282 -0.7742  0.6933
  221SOL    HW1  662   1.336   0.986   2.100 -2.9292 -1.5687 -1.6973
  221SOL    HW2  663   1.464   0.994   2.218 -3.2845 -2.1810 -1.7594
  222SOL     OW  664   1.173   0.077   1.224  0.0300 -0.3059 -0.3832
  222SOL    HW1  665   1.193   0.125   1.315 -1.1429  1.9252 -0.0263
  222SOL    HW2  666   1.151   0.145   1.149 -1.1151 -1.2987  0.1125
  223SOL     OW  667   2.730   0.947   2.129  0.2126 -0.3896  0.3097
  223SOL    HW1  668   2.717   1.045   2.091 -0.4798 -0.0160  0.0314
  223SOL    HW2  669   2.827   0.932   2.163  0.2400  0.6551  1.6363
  224SOL     OW  670   1.542   1.010   2.782 -0.6100 -0.4501  0.8296
  224SOL    HW1  671   1.528   0.927   2.722 -1.3817 -3.8265  0.0600
  224SOL    HW2  672   1.600   1.078   2.729 -2.2528 -0.6863  1.7756
  225SOL     OW  673   2.954   2.677   2.924  0.2242  0.1929  0.3364
  225SOL    HW1  674   2.868   2.670   2.857 -0.4048  2.9512 -3.5217
  225SOL    HW2  675   3.027   2.742   2.886  0.7983 -1.7381  0.2594
  226SOL     OW  676   2.422   1.544   2.768  0.5948  0.7810 -0.5019
  226SOL    HW1  677   2.487   1.519   2.692  1.6726 -2.3218  0.0397
  226SOL    HW2  678   2.428   1.475   2.843 -0.8957 -0.8432 -0.3103
  227SOL     OW  679   0.862   0.259   3.071  0.3123  0.6263  0.1992
  227SOL    HW1  680   0.882   0.353   3.037  3.3138 -1.5479  0.2890
  227SOL    HW2  681   0.812   0.207   3.001  2.3727  2.6054  1.2195
  228SOL     OW  682   2.448   0.670   2.849 -0.2876  0.1341  0.0406
  228SOL    HW1  683   2.455   0.730   2.767 -0.6504 -0.3381 -1.4284
  228SOL    HW2  684   2.493   0.576   2.829 -0.5205 -1.7305  3.6830
  229SOL     OW  685   0.497   0.560   1.824  0.9738  1.0988  0.2328
  229SOL    HW1  686   0.578   0.606   1.857 -0.7069 -0.3919  1.2522
  229SOL    HW2  687   0.513   0.519   1.728  3.9637  1.4856 -2.3952
  230SOL     OW  688   1.867   1.210   1.941  0.2298  0.4239  0.0505
  230SOL    HW1  689   1.934   1.286   1.916 -1.9115  0.6041 -0.6323
  230SOL    HW2  690   1.833   1.222   2.036  1.8181 -1.9413  1.8626
  231SOL     OW  691   0.615   1.083   3.079 -0.3091  0.7294 -0.1640
  231SOL    HW1  692   0.691   1.146   3.057  1.2258 -1.3940 -0.7848
  231SOL    HW2  693   0.525   1.127   3.121  0.1709 -0.9027 -0.3216
  232SOL     OW  694   2.392   3.033   2.790 -0.1807 -0.7970  0.1921
  232SOL    HW1  695   2.466   2.960   2.787 -0.5057 -0.4981 -1.5808
  232SOL    HW2  696   2.396   3.102   2.711 -1.9104 -1.7704  0.7902
  233SOL     OW  697   1.789   1.164   1.082  0.3191  0.2270  0.1016
  233SOL    HW1  698   1.873   1.191   1.026  0.4908  0.4936 -1.7742
  233SOL    HW2  699   1.816   1.094   1.156  0.3829 -0.7983  1.2220
  234SOL     OW  700   1.637   2.529   1.839 -0.1251 -0.3785 -0.1150
  234SOL    HW1  701   1.595   2.585   1.916  0.0141 -1.9180  2.9090
  234SOL    HW2  702   1.601   2.437   1.846 -2.6828  1.7303  0.4520
  235SOL     OW  703   3.099   2.971   2.828  0.1770 -0.2334 -0.3820
  235SOL    HW1  704   3.035   3.013   2.761  0.8830  0.5782 -1.4506
  235SOL    HW2  705   3.077   2.991   2.926  0.3522  0.6408 -0.8665
  236SOL     OW  706   2.913   0.692   0.067  0.0136  0.0954  0.6452
  236SOL    HW1  707   2.978   0.716   0.148  1.0852  0.9603  0.1732
  236SOL    HW2  708   2.953   0.610   0.007  1.2789  0.9268 -4.0450
  237SOL     OW  709   1.481   1.673   0.885  1.0058  0.3183 -0.4031
  237SOL    HW1  710   1.569   1.620   0.897 -0.9219  1.3271  1.5171
  237SOL    HW2  711   1.471   1.743   0.958  0.6426 -0.5343  1.7995
  238SOL     OW  712   1.885   1.202   0.759 -0.4153 -0.1655 -0.0334
  238SOL    HW1  713   1.929   1.252   0.845  3.0911  1.4123  1.7981
  238SOL    HW2  714   1.780   1.191   0.769  1.1229 -0.8608 -0.1575
  239SOL     OW  715   2.008   0.219   2.769 -0.4458  0.6277  0.3048
  239SOL    HW1  716   2.053   0.182   2.854 -0.0223 -0.8557  3.0751
  239SOL    HW2  717   1.932   0.281   2.798  0.2999 -1.5059  0.2823
  240SOL     OW  718   0.943   0.698   0.239  0.0025  0.0876  0.0200
  240SOL    HW1  719   1.024   0.633   0.211  2.4828 -1.2394  1.7293
  240SOL    HW2  720   0.921   0.699   0.344 -0.3804  0.1585  0.8159
  241SOL     OW  721   0.564   0.133   0.313  0.3076 -0.1864  0.1236
  241SOL    HW1  722   0.631   0.210   0.282  1.2128  2.0369 -3.6948
  241SOL    HW2  723   0.575   0.046   0.260 -0.0247  0.5158  0.3991
  242SOL     OW  724   0.637   2.569   1.179 -0.6330  0.3697  0.1664
  242SOL    HW1  725   0.623   2.584   1.283  0.6391 -1.2073 -2.9993
  242SOL    HW2  726   0.622   2.652   1.116  0.4425  1.4635 -0.1548
  243SOL     OW  727   1.069   0.621   2.387  0.0315  0.3977  0.4054
  243SOL    HW1  728   0.969   0.636   2.359  4.7112  1.8409 -0.1276
  243SOL    HW2  729   1.075   0.560   2.468 -1.6934  0.1911  0.6425
  244SOL     OW  730   2.675   1.961   2.355  0.0468  0.2347  0.2202
  244SOL    HW1  731   2.720   1.929   2.268  1.8940 -0.0641 -0.9343
  244SOL    HW2  732   2.617   1.889   2.404 -0.0591 -2.2308 -0.1119
  245SOL     OW  733   2.124   1.009   2.223 -0.7593  0.2077  0.5188
  245SOL    HW1  734   2.226   1.002   2.239 -0.5521  0.1349 -0.8691
  245SOL    HW2  735   2.080   1.098   2.262 -0.5412  2.1616 -2.1202
  246SOL     OW  736   0.314   2.837   1.800  0.1205  0.0274  0.0332
  246SOL    HW1  737   0.231   2.820   1.743  1.1358 -0.3797 -2.1280
  246SOL    HW2  738   0.382   2.910   1.763  0.2793  0.0329  0.6369
  247SOL     OW  739   2.240   0.577   3.007 -0.1483 -0.0998  0.1591
  247SOL    HW1  740   2.297   0.596   2.919 -0.0262  1.7909  0.2573
  247SOL    HW2  741   2.169   0.648   3.030  1.6741 -3.8346 -0.6000
  248SOL     OW  742   2.195   1.801   1.591 -0.0521  0.1241  0.1927
  248SOL    HW1  743   2.281   1.787   1.656  0.5275 -0.3333 -0.8796
  248SOL    HW2  744   2.115   1.745   1.611  2.4350  1.3610  1.1731
  249SOL     OW  745   1.884   1.908   1.785  0.4854  0.0830  0.0642
  249SOL    HW1  746   1.907   1.837   1.709  1.9718  1.9917 -2.9877
  249SOL    HW2  747   1.965   1.926   1.849  0.9830 -0.1136 -0.9220
  250SOL     OW  748   0.950   0.725   1.874  0.0157  0.1401 -0.0888
  250SOL    HW1  749   1.014   0.646   1.902  0.2778 -0.0110 -2.3924
  250SOL    HW2  750   0.895   0.702   1.788 -2.3784 -3.0381 -1.6928
  251SOL     OW  751   3.024   1.529   2.545 -0.1181 -0.8996  0.6863
  251SOL    HW1  752   2.996   1.630   2.547 -0.7037 -0.2963 -0.3463
  251SOL    HW2  753   2.942   1.470   2.512 -0.8710  0.3494  0.1513
  252SOL     OW  754   1.574   0.852   1.577  0.0005 -0.2744  0.1035
  252SOL    HW1  755   1.627   0.910   1.506 -0.8480 -0.2228 -0.3570
  252SOL    HW2  756   1.552   0.899   1.666  1.4515  0.8611  0.0349
  253SOL     OW  757   0.926   1.529   0.411 -0.0360 -0.1816 -0.4372
  253SOL    HW1  758   0.917   1.452   0.339  3.0193 -1.2091  1.0241
  253SOL    HW2  759   0.842   1.560   0.464  1.0734  0.4607 -0.0009
  254SOL     OW  760   2.070   2.182   1.635  0.0895 -0.5196  0.5819
  254SOL    HW1  761   2.025   2.099   1.592  1.1653  1.3486 -0.3246
  254SOL    HW2  762   1.997   2.250   1.676 -1.0593  0.6312  0.1336
  255SOL     OW  763   0.120   1.177   2.912 -0.0768  0.6695  0.3118
  255SOL    HW1  764   0.164   1.269   2.886 -2.2160 -1.6852 -0.5398
  255SOL    HW2  765   0.173   1.106   2.962  1.2821 -0.4584  2.0062
  256SOL     OW  766   2.819   1.425   1.769  0.0400 -0.2844 -0.0305
  256SOL    HW1  767   2.734   1.483   1.751 -2.6044  1.4553 -1.7335
  256SOL    HW2  768   2.815   1.331   1.727 -1.0105  2.1980 -0.6771
  257SOL     OW  769   0.882   0.250   1.879  0.1056 -0.2281  0.0962
  257SOL    HW1  770   0.936   0.296   1.799  2.0025 -1.1078 -0.0636
  257SOL    HW2  771   0.867   0.154   1.862 -2.1979 -0.7915 -2.6618
  258SOL     OW  772   2.965   1.158   0.515 -0.0810  0.1511  0.0889
  258SOL    HW1  773   2.888   1.192   0.577  0.9203  2.3361 -1.8179
  258SOL    HW2  774   3.052   1.170   0.567 -2.3680  1.6822 -0.5939
  259SOL     OW  775   0.471   2.937   3.004  0.1883 -0.4196 -0.0116
  259SOL    HW1  776   0.378   2.890   3.024 -3.0561  2.6143  3.8514
  259SOL    HW2  777   0.522   2.898   2.924  0.1764  0.6091  2.3276
  260SOL     OW  778   2.737   0.749   2.729  0.3339 -0.1462  0.0799
  260SOL    HW1  779   2.647   0.778   2.688 -2.9334 -0.9828  1.5815
  260SOL    HW2  780   2.718   0.689   2.808  1.8121  1.5903  3.1311
  261SOL     OW  781   2.693   1.288   1.317 -0.2199 -0.4428  0.1410
  261SOL    HW1  782   2.626   1.260   1.243  1.3394 -0.8438 -1.8050
  261SOL    HW2  783   2.753   1.203   1.338  2.5064 -1.7272 -0.6190
  262SOL     OW  784   1.354   2.961   2.057 -0.1049 -0.1004 -0.1897
  262SOL    HW1  785   1.387   3.052   2.018 -1.0957  1.5590 -2.8457
  262SOL    HW2  786   1.263   2.935   2.010  0.5279  0.8605  0.5024
  263SOL     OW  787   0.809   0.641   2.300 -0.0108  0.0671  0.0651
  263SOL    HW1  788   0.782   0.547   2.257 -0.4395 -1.0538 -0.5671
  263SOL    HW2  789   0.800   0.720   2.236  1.8233 -0.1941  1.6550
  264SOL     OW  790   2.276   0.818   0.396  0.5166 -0.0300  0.4119
  264SOL    HW1  791   2.292   0.760   0.315 -1.6430  1.4672 -0.3120
  264SOL    HW2  792   2.357   0.872   0.432 -1.7256  1.3853  1.2424
  265SOL     OW  793   0.926   2.400   2.583 -0.0073  0.0884  0.4766
  265SOL    HW1  794   0.974   2.456   2.656 -0.8324 -1.0997 -0.7578
  265SOL    HW2  795   0.864   2.329   2.628 -1.5979 -3.8748  0.5661
  266SOL     OW  796   1.298   1.780   3.055  0.1881  0.2401  0.3303
  266SOL    HW1  797   1.309   1.794   3.160  1.5756  0.7090 -0.4591
  266SOL    HW2  798   1.388   1.788   3.004 -3.8959  0.1611 -1.5307
  267SOL     OW  799   1.073   0.039   2.333  0.4961 -0.2974 -0.2890
  267SOL    HW1  800   0.972   0.066   2.316 -2.6626 -2.7814  2.6331
  267SOL    HW2  801   1.140   0.044   2.256  0.7270 -1.8656  2.0268
  268SOL     OW  802   0.846   1.262   1.050  0.2200  0.5172  0.3637
  268SOL    HW1  803   0.809   1.345   1.104 -0.7344  1.7847  0.8158
  268SOL    HW2  804   0.926   1.280   0.991 -1.5699 -0.4402  1.1163
  269SOL     OW  805   2.371   2.545   1.580  0.1371  0.4044  0.0767
  269SOL    HW1  806   2.468   2.514   1.578 -0.5352  2.4644 -3.3491
  269SOL    HW2  807   2.351   2.580   1.674  0.6331 -3.8478 -0.3977
  270SOL     OW  808   0.166   2.991   1.973  0.0651 -0.0980 -0.1845
  270SOL    HW1  809   0.224   2.931   1.916 -2.2028 -0.5599 -1.6457
  270SOL    HW2  810   0.122   2.945   2.059  1.7587  1.4515  2.9551
  271SOL     OW  811   0.478   1.387   1.125 -0.5432 -0.2977 -0.1215
  271SOL    HW1  812   0.454   1.370   1.024 -2.6678  0.0372 -2.5040
  271SOL    HW2  813   0.393   1.407   1.185 -0.1154 -1.5856  1.3988
  272SOL     OW  814   1.898   3.097   1.925  0.0009  0.1031  0.1953
  272SOL    HW1  815   1.868   3.021   1.862 -4.2247  1.0323 -0.2510
  272SOL    HW2  816   1.892   3.193   1.888 -1.1524 -1.3446 -0.3791
  273SOL     OW  817   1.463   1.484   2.815 -0.2974 -0.1220  0.4786
  273SOL    HW1  818   1.368   1.485   2.769 -0.7215 -0.5018  0.4799
  273SOL    HW2  819   1.462   1.471   2.919  1.2027 -2.5940 -0.1878
  274SOL     OW  820   1.103   0.527   2.035 -0.1075  0.2457  0.8853
  274SOL    HW1  821   1.030   0.461   2.051  0.0665  1.1254  0.0611
  274SOL    HW2  822   1.186   0.522   2.095 -1.2046 -0.9695 -2.0617
  275SOL     OW  823   0.647   2.128   1.908 -0.1771 -0.5600  0.6064
  275SOL    HW1  824   0.609   2.206   1.963 -0.4694 -0.2992 -0.8990
  275SOL    HW2  825   0.576   2.074   1.857  1.9065  1.6419 -1.2267
  276SOL     OW  826   2.230   0.930   2.849 -0.4684 -0.1442 -0.0555
  276SOL    HW1  827   2.161   0.983   2.795  0.2536  0.5033  3.3359
  276SOL    HW2  828   2.211   0.831   2.845 -0.0573  1.7039 -3.1822
  277SOL     OW  829   3.084   0.766   0.265  0.1003 -0.3479 -0.3456
  277SOL    HW1  830   3.172   0.820   0.256  0.0044 -0.1667  0.5023
  277SOL    HW2  831   3.104   0.671   0.303  0.2360 -0.5962  1.2217
  278SOL     OW  832   0.253   0.240   3.042 -0.2980 -0.2102 -0.5255
  278SOL    HW1  833   0.322   0.181   2.992 -0.7244  0.7109 -1.5084
  278SOL    HW2  834   0.290   0.338   3.053  2.1929  1.1018  2.5372
  279SOL     OW  835   0.273   3.091   0.896  0.2475 -0.5993  0.6203
  279SOL    HW1  836   0.329   3.065   0.976  0.6033  0.5554  0.5762
  279SOL    HW2  837   0.232   3.013   0.839  2.2915 -0.3080  2.4611
  280SOL     OW  838   1.628   2.919   2.437 -0.4245 -0.3370 -0.2776
  280SOL    HW1  839   1.695   2.973   2.494 -3.8404 -0.0104 -1.2891
  280SOL    HW2  840   1.555   2.988   2.403 -2.2464  2.0989 -0.6522
  281SOL     OW  841   0.530   0.939   2.294  0.3167 -0.1880  0.4622
  281SOL    HW1  842   0.499   0.861   2.234 -1.5498  1.8402  0.9371
  281SOL    HW2  843   0.510   0.931   2.398  4.0807 -1.5090 -0.5731
  282SOL     OW  844   1.792   2.456   0.543  0.0113  0.3032  0.2269
  282SOL    HW1  845   1.749   2.377   0.498 -2.8941 -0.7776  0.9672
  282SOL    HW2  846   1.749   2.547   0.521  0.8831  0.5587  1.3740
  283SOL     OW  847   1.158   0.897   0.749 -0.2543  0.5240  0.1713
  283SOL    HW1  848   1.170   0.848   0.839 -0.1111  1.0553 -1.5325
  283SOL    HW2  849   1.155   0.998   0.764  0.5633 -1.4022 -0.3904
  284SOL     OW  850   2.233   2.804   2.460  0.0345  0.0703 -0.1084
  284SOL    HW1  851   2.321   2.832   2.420  1.5011 -2.5533 -1.6640
  284SOL    HW2  852   2.219   2.810   2.563  1.1332 -0.4749 -0.7603
  285SOL     OW  853   1.322   3.062   2.618 -0.0267 -0.5822  0.3324
  285SOL    HW1  854   1.360   3.080   2.522  0.3605 -0.3288 -0.1492
  285SOL    HW2  855   1.228   3.095   2.636  0.6728  0.8142 -0.8729
  286SOL     OW  856   0.313   0.451   0.659 -0.8231 -0.4623 -0.3733
  286SOL    HW1  857   0.334   0.394   0.749 -0.4558  1.9288  2.3147
  286SOL    HW2  858   0.350   0.418   0.571  0.6161  1.2528 -0.2151
  287SOL     OW  859   0.095   1.313   2.597 -0.0136  0.1465 -0.9026
  287SOL    HW1  860   0.032   1.237   2.640 -3.1615  0.0405  1.7856
  287SOL    HW2  861   0.028   1.383   2.562  0.6847  0.3033  0.5370
  288SOL     OW  862   1.529   2.744   1.674  0.2704 -0.2897  0.3341
  288SOL    HW1  863   1.562   2.663   1.727 -1.7631  0.3579 -1.5683
  288SOL    HW2  864   1.545   2.726   1.572  0.5386  1.7957 -0.1923
  289SOL     OW  865   0.634   2.774   0.811 -0.0537  0.3460  0.0451
  289SOL    HW1  866   0.674   2.844   0.746  0.1502 -2.1488 -3.6086
  289SOL    HW2  867   0.626   2.818   0.904  1.2228  0.1177 -2.2319
  290SOL     OW  868   2.825   1.145   1.714 -0.1833 -0.3020 -0.0282
  290SOL    HW1  869   2.752   1.067   1.708  0.6466 -0.3378  0.3931
  290SOL    HW2  870   2.915   1.117   1.756 -1.7073 -3.1303 -2.7294
  291SOL     OW  871   1.947   3.074   0.035  0.2902  0.2585 -0.0851
  291SOL    HW1  872   1.980   3.070   0.132 -1.1316 -3.9757  0.2691
  291SOL    HW2  873   2.009   3.115  -0.036 -3.1638  0.1045 -1.2637
  292SOL     OW  874   2.995   1.168   3.058  0.0163  0.1205  0.0344
  292SOL    HW1  875   2.912   1.228   3.045 -1.5069 -1.9240 -1.3414
  292SOL    HW2  876   3.080   1.190   2.991  1.9662  1.1527 -1.8036
  293SOL     OW  877   0.584   2.071   0.283 -0.0298  0.2012 -0.2545
  293SOL    HW1  878   0.528   2.121   0.356 -0.7972 -0.7318 -0.6731
  293SOL    HW2  879   0.686   2.064   0.299 -2.1232 -0.0535 -1.4193
  294SOL     OW  880   1.880   2.346   1.751 -0.0156  0.1543  0.3345
  294SOL    HW1  881   1.867   2.323   1.849  0.1807  0.5526 -0.7802
  294SOL    HW2  882   1.808   2.412   1.720 -2.8144 -1.4098 -0.3155
  295SOL     OW  883   0.968   1.054   0.453 -1.2817  0.5063  0.4031
  295SOL    HW1  884   1.063   1.101   0.458  0.9925 -0.0464 -2.1157
  295SOL    HW2  885   0.935   1.004   0.538 -2.2237  3.2060 -1.7711
  296SOL     OW  886   1.093   2.167   2.745  0.6394  0.0399  0.0912
  296SOL    HW1  887   0.994   2.199   2.762 -0.7454 -0.6662  0.5276
  296SOL    HW2  888   1.126   2.177   2.650 -3.5694 -1.7673 -0.4206
  297SOL     OW  889   1.272   0.534   1.165 -0.0419  0.2329  0.0328
  297SOL    HW1  890   1.333   0.473   1.219 -1.0750 -0.6835 -0.5224
  297SOL    HW2  891   1.316   0.624   1.164  1.1163 -0.9769  0.5890
  298SOL     OW  892   0.468   1.314   2.929 -0.8386 -0.0182  0.7398
  298SOL    HW1  893   0.431   1.251   3.001  1.5833  1.1874 -0.3465
  298SOL    HW2  894   0.518   1.265   2.851 -0.0907  1.3949  0.2960
  299SOL     OW  895   0.444   0.194   1.254  0.0479 -0.4334 -0.2371
  299SOL    HW1  896   0.382   0.270   1.214  0.9594  0.4128  0.2300
  299SOL    HW2  897   0.441   0.179   1.355  0.3210 -1.0546 -2.3511
  300SOL     OW  898   1.357   1.817   2.586  0.1821  0.2077 -0.0543
  300SOL    HW1  899   1.338   1.730   2.533 -1.6565  3.6537  2.2349
  300SOL    HW2  900   1.416   1.788   2.667 -2.5018 -0.7979 -0.4324
  301SOL     OW  901   0.419   0.345   0.413  0.0457 -1.1209 -0.7467
  301SOL    HW1  902   0.323   0.315   0.386 -2.1146  0.5342 -2.4756
  301SOL    HW2  903   0.488   0.271   0.382  1.1548 -0.5459 -2.8165
  302SOL     OW  904   1.275   2.438   2.308 -0.1438 -0.2685  0.2063
  302SOL    HW1  905   1.178   2.408   2.289 -0.9725 -2.2917 -1.6024
  302SOL    HW2  906   1.317   2.381   2.384  0.4660 -2.0315 -1.4773
  303SOL     OW  907   0.940   2.449   0.831 -0.2521 -0.3523 -0.3162
  303SOL    HW1  908   0.999   2.460   0.745 -2.2696  0.5427  0.3120
  303SOL    HW2  909   0.950   2.523   0.906  1.1383  2.7054 -2.5129
  304SOL     OW  910   0.145   1.930   0.675 -0.3486  0.1469  0.3766
  304SOL    HW1  911   0.225   1.918   0.604  0.6886 -0.6144 -1.1597
  304SOL    HW2  912   0.052   1.935   0.633  2.8890  0.6534 -0.7343
  305SOL     OW  913   1.639   0.879   0.691  0.8517  0.0062  0.3252
  305SOL    HW1  914   1.577   0.896   0.606  0.6460 -1.2832 -1.2746
  305SOL    HW2  915   1.642   0.774   0.697  2.4098  1.5215  0.3243
  306SOL     OW  916   0.386   1.845   1.963 -0.7085 -0.0895 -0.1868
  306SOL    HW1  917   0.467   1.791   1.923 -0.6486 -1.0196  1.1539
  306SOL    HW2  918   0.408   1.882   2.059  0.3875  0.2027  0.7877
  307SOL     OW  919   3.007   0.884   2.519  0.2977 -0.2193 -0.0778
  307SOL    HW1  920   3.039   0.942   2.600 -0.5097  1.2257 -0.1453
  307SOL    HW2  921   2.931   0.818   2.535  0.1981 -0.0895 -0.5953
  308SOL     OW  922   1.468   2.691   2.813 -0.6318  0.2313  0.2574
  308SOL    HW1  923   1.437   2.725   2.715  0.6677 -0.0943 -2.9287
  308SOL    HW2  924   1.417   2.602   2.841  0.1305  0.7052 -1.2372
  309SOL     OW  925   1.244   0.175   1.791 -0.5889 -0.1875  0.5887
  309SOL    HW1  926   1.324   0.114   1.810 -0.2326  1.9985 -1.8449
  309SOL    HW2  927   1.198   0.149   1.704  0.3272  1.4455  0.9006
  310SOL     OW  928   1.486   2.519   0.669  0.0755 -1.3248 -0.1164
  310SOL    HW1  929   1.430   2.541   0.755  0.7832 -1.6973 -1.5037
  310SOL    HW2  930   1.557   2.594   0.645 -0.7779  3.3890 -0.8642
  311SOL     OW  931   1.036   0.971   1.764  0.2329  0.0648  0.3448
  311SOL    HW1  932   1.022   0.879   1.811 -0.1326 -0.3884 -1.9805
  311SOL    HW2  933   1.101   0.966   1.682 -1.7439 -1.9084  0.3194
  312SOL     OW  934   1.536   0.622   1.047 -0.4724 -0.4353  0.1586
  312SOL    HW1  935   1.563   0.721   1.071  1.0209  0.7798 -1.8897
  312SOL    HW2  936   1.498   0.611   0.950  0.5998 -0.3269  1.0725
  313SOL     OW  937   1.622   1.245   0.778  0.1176  0.6142  0.4047
  313SOL    HW1  938   1.559   1.289   0.847 -1.7780  0.6502  0.5450
  313SOL    HW2  939   1.576   1.195   0.696 -1.2108 -1.1389  0.9531
  314SOL     OW  940   2.986   3.092   3.079  0.3599 -0.1275  0.4309
  314SOL    HW1  941   3.001   3.093   3.185 -0.0236 -0.8753  2.4745
  314SOL    HW2  942   2.905   3.033   3.052  0.0023  0.2843 -0.3402
  315SOL     OW  943   1.188   0.201   2.802  0.0294  0.0086  0.2000
  315SOL    HW1  944   1.117   0.180   2.732  1.1191 -1.2775  1.5749
  315SOL    HW2  945   1.160   0.187   2.903 -0.3736  0.9010  0.9592
  316SOL     OW  946   1.766   2.075   0.889  0.6112 -0.0210  0.1746
  316SOL    HW1  947   1.709   2.087   0.968  1.6263 -0.6519  1.5813
  316SOL    HW2  948   1.777   2.166   0.839  2.6410 -1.6592 -1.1631
  317SOL     OW  949   1.167   0.701   2.756 -0.0574 -0.1030 -0.5075
  317SOL    HW1  950   1.156   0.724   2.857  0.3070 -0.5197 -0.6301
  317SOL    HW2  951   1.118   0.616   2.723 -1.4432  1.1356  1.9999
  318SOL     OW  952   1.416   3.087   2.335 -0.3178 -0.0524  0.2631
  318SOL    HW1  953   1.396   3.187   2.314 -3.2021 -0.9986  0.3483
  318SOL    HW2  954   1.419   3.028   2.247  2.3031 -1.9342  3.5569
  319SOL     OW  955   0.657   2.402   3.025 -0.4744 -0.1133  0.2284
  319SOL    HW1  956   0.615   2.325   3.075 -2.0348 -0.8179 -1.1269
  319SOL    HW2  957   0.737   2.369   2.969  0.5621 -0.9505  0.4316
  320SOL     OW  958   1.679   2.229   0.392  0.2621  0.2044  0.3820
  320SOL    HW1  959   1.762   2.166   0.405  3.0243 -1.1097 -1.7263
  320SOL    HW2  960   1.599   2.199   0.448 -0.8752  0.6320  0.5553
  321SOL     OW  961   1.660   2.713   0.555 -0.3432  0.0116 -0.2633
  321SOL    HW1  962   1.581   2.773   0.534  0.5346  0.4672 -2.7753
  321SOL    HW2  963   1.756   2.755   0.556  0.3527 -0.8541  1.0368
  322SOL     OW  964   2.571   1.133   2.308 -0.1241 -0.3261 -0.2670
  322SOL    HW1  965   2.636   1.146   2.386  0.6099  1.2018  1.4236
  322SOL    HW2  966   2.534   1.036   2.294 -0.6944  1.0484 -0.3909
  323SOL     OW  967   1.140   2.707   0.788 -0.1920  0.2751 -0.5720
  323SOL    HW1  968   1.094   2.677   0.700 -2.1941 -0.2087 -0.8811
  323SOL    HW2  969   1.110   2.800   0.831  4.4315 -1.9717  2.2454
  324SOL     OW  970   0.131   2.553   2.418 -0.8323  0.3122 -0.1240
  324SOL    HW1  971   0.057   2.513   2.479 -1.5808  2.1603 -2.1138
  324SOL    HW2  972   0.183   2.629   2.467 -1.6023  1.0890  1.7224
  325SOL     OW  973   1.271   3.066   0.454  0.8639 -0.3071 -0.2912
  325SOL    HW1  974   1.274   3.099   0.354  0.8569 -1.5573 -0.3408
  325SOL    HW2  975   1.312   3.138   0.515  1.0360 -3.3095  2.8455
  326SOL     OW  976   2.476   0.869   0.021 -0.5060  0.0461  0.1658
  326SOL    HW1  977   2.426   0.810  -0.044  0.0251 -0.4076  0.2054
  326SOL    HW2  978   2.553   0.818   0.075  1.8971  1.0157 -1.6888
  327SOL     OW  979   2.876   0.292   0.555  0.0149  0.0446 -0.2636
  327SOL    HW1  980   2.854   0.243   0.469 -2.3363 -3.1485 -0.2095
  327SOL    HW2  981   2.879   0.225   0.635 -0.4704 -0.7204  1.1776
  328SOL     OW  982   2.591   0.606   0.380  0.3769 -0.6260 -0.5641
  328SOL    HW1  983   2.645   0.629   0.465  0.0203 -1.5982 -0.3850
  328SOL    HW2  984   2.534   0.519   0.388  0.0568 -0.9718  0.9096
  329SOL     OW  985   2.932   3.017   2.230 -0.7573  0.4627  0.4487
  329SOL    HW1  986   3.019   2.960   2.231 -0.0732 -0.7150  0.7771
  329SOL    HW2  987   2.946   3.110   2.181  1.1951  0.7788  0.6144
  330SOL     OW  988   0.536   0.220   1.873 -0.0406  0.7477  0.5861
  330SOL    HW1  989   0.620   0.238   1.821 -0.6232 -0.7763  2.1703
  330SOL    HW2  990   0.556   0.203   1.972 -0.0111  0.0157  1.4001
  331SOL     OW  991   3.084   1.869   1.123  0.5059  0.2966 -0.5089
  331SOL    HW1  992   3.066   1.901   1.024  0.2106  1.7387 -1.1840
  331SOL    HW2  993   2.992   1.869   1.173  0.7042 -1.6477  0.1423
  332SOL     OW  994   0.377   1.195   0.047 -0.0556 -0.0094 -0.0693
  332SOL    HW1  995   0.319   1.121   0.001  0.0980  0.9208 -0.7892
  332SOL    HW2  996   0.343   1.227   0.136  1.6045 -0.5443 -0.5015
  333SOL     OW  997   2.906   0.959   0.362  0.6358  0.0165 -0.0380
  333SOL    HW1  998   2.943   1.038   0.408 -1.8002 -4.1746 -2.0534
  333SOL    HW2  999   2.970   0.883   0.335 -0.6059 -3.2244  1.1863
  334SOL     OW 1000   1.738   1.135   1.721 -0.2823 -0.4668 -0.4991
  334SOL    HW1 1001   1.799   1.103   1.640 -1.1993 -0.6718  1.1691
  334SOL    HW2 1002   1.788   1.152   1.813 -0.6866 -0.6216 -0.4028
  335SOL     OW 1003   1.916   2.797   2.610  0.5438  0.7321 -0.3891
  335SOL    HW1 1004   1.844   2.806   2.684  0.4181 -1.3207  1.7431
  335SOL    HW2 1005   2.009   2.830   2.645  0.5482 -0.8826  0.8585
  336SOL     OW 1006   0.267   0.056   2.745 -0.5417  0.1916  0.0892
  336SOL    HW1 1007   0.338   0.082   2.814 -1.2869  1.3183 -2.5936
  336SOL    HW2 1008   0.208  -0.024   2.778  0.5144  2.5732  3.3923
  337SOL     OW 1009   0.915   2.865   3.012 -0.0257  0.2677  0.6310
  337SOL    HW1 1010   0.920   2.785   3.071 -0.0996 -2.7015 -1.0758
  337SOL    HW2 1011   0.914   2.953   3.067 -1.5260 -2.2516 -0.6024
  338SOL     OW 1012   0.005   0.950   0.731  0.5669  0.0599  0.2690
  338SOL    HW1 1013  -0.097   0.937   0.722  0.3636  1.6576  0.7723
  338SOL    HW2 1014   0.031   1.051   0.714  0.7199  1.2046 -0.9193
  339SOL     OW 1015   1.768   1.315   2.186  0.3608 -0.2068  0.1772
  339SOL    HW1 1016   1.685   1.319   2.125  0.1087  1.6855 -1.6660
  339SOL    HW2 1017   1.800   1.406   2.223 -0.3962  1.5749  0.1001
  340SOL     OW 1018   2.240   0.833   1.064  0.4651  0.0310 -0.1284
  340SOL    HW1 1019   2.168   0.883   1.122  0.0710 -0.0267  0.2870
  340SOL    HW2 1020   2.226   0.731   1.065 -0.2363  3.5385  1.2303
  341SOL     OW 1021   1.934   2.099   0.395 -0.1581 -0.1357  0.0804
  341SOL    HW1 1022   1.950   2.136   0.301 -2.2969 -0.5543 -2.9186
  341SOL    HW2 1023   2.014   2.040   0.425 -0.2126 -1.6147 -2.4631
  342SOL     OW 1024   2.181   2.115   2.726  0.6692  0.5382  0.2682
  342SOL    HW1 1025   2.171   2.060   2.812  0.1471  1.2631  1.4393
  342SOL    HW2 1026   2.091   2.110   2.669 -1.5668  1.5205 -2.2301
  343SOL     OW 1027   0.360   0.887   2.816  0.2566  0.0691 -0.0586
  343SOL    HW1 1028   0.352   0.933   2.722 -0.0156 -0.4293  1.1968
  343SOL    HW2 1029   0.461   0.880   2.844  1.6461  1.2927 -3.4814
  344SOL     OW 1030   1.937   1.466   0.362  0.0605  0.0705 -0.3598
  344SOL    HW1 1031   1.951   1.370   0.316 -0.5726 -0.9149  1.8741
  344SOL    HW2 1032   1.843   1.477   0.400  0.9176 -0.3736  1.9086
  345SOL     OW 1033   1.339   2.202   2.849 -0.1119  0.0059  0.1563
  345SOL    HW1 1034   1.246   2.193   2.806  2.5005 -2.2088  1.4250
  345SOL    HW2 1035   1.402   2.159   2.781  1.3184  0.2021  0.6985
  346SOL     OW 1036   2.300   0.839   1.395 -0.1522 -0.0293 -0.2628
  346SOL    HW1 1037   2.265   0.911   1.458  0.7769 -0.4907  1.6435
  346SOL    HW2 1038   2.231   0.772   1.364 -1.2885  2.1160  0.2869
  347SOL     OW 1039   0.739   2.770   1.672 -0.0850  0.2545  0.1532
  347SOL    HW1 1040   0.817   2.813   1.620  1.0622  1.9412 -0.5814
  347SOL    HW2 1041   0.649   2.778   1.623  2.0150 -1.2782  0.8434
  348SOL     OW 1042   0.179   0.661   2.892 -0.0259 -0.2994 -0.8952
  348SOL    HW1 1043   0.090   0.700   2.857  1.3424 -2.3975 -1.2730
  348SOL    HW2 1044   0.258   0.721   2.860  0.4766  1.1217  2.7140
  349SOL     OW 1045   1.797   0.438   2.837 -0.3347 -0.2972 -0.3277
  349SOL    HW1 1046   1.776   0.518   2.769 -1.9767  1.7182 -0.2558
  349SOL    HW2 1047   1.758   0.449   2.933 -0.2817 -0.7303  0.7295
  350SOL     OW 1048   1.678   0.385   0.365  0.0035  0.0775  0.2256
  350SOL    HW1 1049   1.752   0.379   0.435 -0.1165 -2.2655 -1.5279
  350SOL    HW2 1050   1.684   0.480   0.324 -1.1481 -2.0526  0.1828
  351SOL     OW 1051   0.841   0.846   2.124  0.4477 -0.0398  0.0253
  351SOL    HW1 1052   0.884   0.938   2.124 -0.2178  0.0599 -0.1944
  351SOL    HW2 1053   0.856   0.805   2.028 -0.4943  0.7170  1.6001
  352SOL     OW 1054   2.069   1.322   0.599  0.2561  0.2486 -0.1456
  352SOL    HW1 1055   2.023   1.385   0.533  0.6307  1.3061  1.6421
  352SOL    HW2 1056   1.993   1.276   0.657 -1.7470 -0.8236  0.1459
  353SOL     OW 1057   2.217   2.719   1.108  0.1171 -0.9451  0.4249
  353SOL    HW1 1058   2.275   2.631   1.109 -3.1975 -0.4913 -0.2328
  353SOL    HW2 1059   2.189   2.748   1.205  0.0527  2.3704 -1.5898
  354SOL     OW 1060   0.231   1.424   2.890  0.4421 -0.2637 -0.0659
  354SOL    HW1 1061   0.227   1.473   2.798 -0.2969 -0.7330 -0.5287
  354SOL    HW2 1062   0.328   1.401   2.915 -0.4131  0.7081  2.4933
  355SOL     OW 1063   0.716   1.578   0.578 -0.0596  0.0138 -0.0425
  355SOL    HW1 1064   0.706   1.548   0.675  2.0528 -0.3671 -1.6637
  355SOL    HW2 1065   0.663   1.516   0.519  0.7373  1.0105 -0.2863
  356SOL     OW 1066   0.936   0.303   2.137  0.6239  0.4960 -0.1510
  356SOL    HW1 1067   1.029   0.262   2.145 -2.3740  0.9569 -0.1245
  356SOL    HW2 1068   0.903   0.293   2.039  1.6609  0.8356 -0.7705
  357SOL     OW 1069   0.993   1.370   0.164  0.1132 -0.1072 -0.3487
  357SOL    HW1 1070   1.021   1.297   0.100 -1.1845  1.3865 -1.3381
  357SOL    HW2 1071   1.059   1.447   0.182  0.7158  0.1360 -1.8318
  358SOL     OW 1072   1.686   1.457   0.497 -0.4202  0.2364 -0.1315
  358SOL    HW1 1073   1.690   1.388   0.575  1.5253 -1.7416  0.6661
  358SOL    HW2 1074   1.650   1.415   0.412 -1.6519  1.1108 -0.1778
  359SOL     OW 1075   1.597   2.588   0.210  0.2948 -0.1646 -0.1909
  359SOL    HW1 1076   1.586   2.486   0.198  0.2641 -1.6241  1.1752
  359SOL    HW2 1077   1.522   2.634   0.265  1.4011  0.3081  0.4106
  360SOL     OW 1078   0.750   0.461   0.590 -0.1169  0.2830  0.2400
  360SOL    HW1 1079   0.678   0.508   0.533 -3.8115  0.1350 -2.5925
  360SOL    HW2 1080   0.761   0.366   0.554 -1.8809  0.0704  1.5729
  361SOL     OW 1081   1.347   1.291   0.622 -0.0057  0.4547  0.2890
  361SOL    HW1 1082   1.373   1.309   0.722  1.8875  0.4501  1.8164
  361SOL    HW2 1083   1.268   1.354   0.594  2.5214  0.0601 -1.6600
  362SOL     OW 1084   1.378   1.834   0.681 -0.1011  0.4580 -0.2403
  362SOL    HW1 1085   1.410   1.772   0.759 -0.4540 -0.5445  0.1820
  362SOL    HW2 1086   1.460   1.853   0.620  1.4797  0.6798  0.2633
  363SOL     OW 1087   1.299   1.341   2.021  0.0501  0.4124 -0.4863
  363SOL    HW1 1088   1.393   1.384   2.042 -0.6367  0.2153  0.2058
  363SOL    HW2 1089   1.222   1.381   2.078 -0.2984  1.9591 -3.1729
  364SOL     OW 1090   0.540   2.377   1.970  0.4039 -0.1306 -0.1709
  364SOL    HW1 1091   0.438   2.356   1.983  1.7615 -0.1265  1.0669
  364SOL    HW2 1092   0.553   2.464   1.912  2.4498 -2.2351 -1.3643
  365SOL     OW 1093   0.937   1.972   1.417  0.3748 -0.1955  0.4396
  365SOL    HW1 1094   0.853   2.024   1.456 -0.5936  0.7440 -0.1161
  365SOL    HW2 1095   0.962   1.987   1.318 -1.4315 -0.3830  0.2728
  366SOL     OW 1096   2.745   1.924   0.226 -0.6481 -0.6756 -0.1312
  366SOL    HW1 1097   2.696   1.846   0.191 -1.0760  1.4745 -1.3448
  366SOL    HW2 1098   2.834   1.896   0.269 -1.5351 -3.6358  1.3631
  367SOL     OW 1099   0.888   1.136   3.074  0.5542 -0.2817 -0.2923
  367SOL    HW1 1100   0.867   1.083   3.159  0.9646  0.5942 -1.6027
  367SOL    HW2 1101   0.987   1.167   3.063  0.3725  0.7651 -0.3667
  368SOL     OW 1102   1.456   0.555   0.515 -0.1192  0.1446 -0.2916
  368SOL    HW1 1103   1.358   0.584   0.533 -0.3223 -1.9586  1.2550
  368SOL    HW2 1104   1.503   0.594   0.435 -0.6712 -0.7669  1.8894
  369SOL     OW 1105   0.412   1.577   0.163  0.1283  0.3227 -0.4709
  369SOL    HW1 1106   0.437   1.664   0.219  0.4621 -0.4300 -0.6376
  369SOL    HW2 1107   0.326   1.534   0.198 -1.1035  0.8335  2.2291
  370SOL     OW 1108   0.428   2.193   1.089  0.4783  0.2289  0.0552
  370SOL    HW1 1109   0.460   2.282   1.047  0.8104 -0.0721 -0.3499
  370SOL    HW2 1110   0.337   2.158   1.050  0.6495  1.3924  0.5462
  371SOL     OW 1111   2.906   2.211   2.748 -0.4017  0.0803  0.0427
  371SOL    HW1 1112   2.970   2.132   2.755  0.8498 -1.0397  0.6226
  371SOL    HW2 1113   2.918   2.282   2.822  0.4687 -0.2608 -0.0243
  372SOL     OW 1114   1.003   2.040   1.172 -0.2823 -0.3389  0.3086
  372SOL    HW1 1115   0.950   2.083   1.096  1.0687  1.9768  1.8583
  372SOL    HW2 1116   1.086   2.100   1.203  1.4582 -0.3403  0.5843
  373SOL     OW 1117   1.946   1.920   1.027  0.1026  0.1683  0.1612
  373SOL    HW1 1118   2.045   1.948   1.031  1.1867  0.5004 -1.1512
  373SOL    HW2 1119   1.891   2.005   0.992  0.2727  1.4427  1.1512
  374SOL     OW 1120   1.907   0.398   0.578  0.4085  0.2598 -0.3912
  374SOL    HW1 1121   1.889   0.329   0.656 -0.5254 -3.0121  1.5738
  374SOL    HW2 1122   2.005   0.423   0.553 -1.2650  0.0423 -0.1622
  375SOL     OW 1123   2.430   2.179   1.117 -0.1415  0.0877  0.2950
  375SOL    HW1 1124   2.439   2.222   1.024  1.6225 -0.0938 -0.4600
  375SOL    HW2 1125   2.513   2.115   1.145  1.2573 -1.4507  1.4508
  376SOL     OW 1126   0.013   0.635   1.422 -0.1915 -0.1180  0.0721
  376SOL    HW1 1127   0.046   0.709   1.487  3.6203 -0.7436  4.1018
  376SOL    HW2 1128  -0.050   0.570   1.478 -1.2236 -2.0681  2.3640
  377SOL     OW 1129   2.190   2.914   0.210  0.0520  0.1864 -0.3198
  377SOL    HW1 1130   2.191   2.997   0.270  2.5708  1.4647 -1.4981
  377SOL    HW2 1131   2.261   2.840   0.236  0.5463 -1.7495 -2.1677
  378SOL     OW 1132   1.897   1.899   2.472 -0.1791 -0.3907  0.9123
  378SOL    HW1 1133   1.918   1.900   2.373  2.3471  0.5426  2.6374
  378SOL    HW2 1134   1.862   1.805   2.495  1.3600  0.8665 -0.3000
  379SOL     OW 1135   0.765   0.162   2.818 -0.2270  0.3660 -0.8329
  379SOL    HW1 1136   0.760   0.072   2.765 -0.9887 -1.1822 -0.7730
  379SOL    HW2 1137   0.785   0.237   2.744 -1.1924 -0.1750  1.7096
  380SOL     OW 1138   1.553   1.163   0.504 -0.6803 -0.6979 -0.0826
  380SOL    HW1 1139   1.470   1.221   0.524  2.2037  0.4282  1.8716
  380SOL    HW2 1140   1.534   1.056   0.503 -2.4702 -2.1361 -1.8468
  381SOL     OW 1141   1.273   1.280   1.521 -0.3112  0.8931  0.1688
  381SOL    HW1 1142   1.261   1.208   1.446 -0.5961 -1.8214 -0.4029
  381SOL    HW2 1143   1.362   1.266   1.568  0.6199  1.3836 -1.5840
  382SOL     OW 1144   1.820   0.833   0.251  0.3512  0.1442 -0.0349
  382SOL    HW1 1145   1.877   0.782   0.180  1.1025  1.3078  0.2721
  382SOL    HW2 1146   1.876   0.849   0.336  0.9394 -0.8335 -2.0970
  383SOL     OW 1147   2.558   0.983   1.458 -0.3801 -0.3315  0.1661
  383SOL    HW1 1148   2.456   0.947   1.443 -1.8042 -0.6570 -0.1085
  383SOL    HW2 1149   2.613   0.976   1.368  0.8678  1.8379  2.5303
  384SOL     OW 1150   0.917   2.299   0.233  0.8445 -0.5724  0.4382
  384SOL    HW1 1151   0.832   2.358   0.228  0.3154  0.8515  1.3064
  384SOL    HW2 1152   0.938   2.264   0.325  0.3219 -0.6023  0.1189
  385SOL     OW 1153   2.973   2.061   1.669 -0.3740 -0.5679  0.0444
  385SOL    HW1 1154   3.049   2.118   1.709 -1.7539 -3.4997  0.9073
  385SOL    HW2 1155   2.999   1.958   1.671  1.3527 -0.1570 -0.1884
  386SOL     OW 1156   0.477   1.040   0.448  0.3854  0.8289 -0.0186
  386SOL    HW1 1157   0.459   0.946   0.495 -1.3963  0.0973 -0.2602
  386SOL    HW2 1158   0.402   1.091   0.405  3.4675  1.2378  3.6411
  387SOL     OW 1159   1.007   0.352   1.672 -0.3130  0.1330 -0.7084
  387SOL    HW1 1160   1.011   0.454   1.663 -1.0123 -0.7597 -0.9159
  387SOL    HW2 1161   0.967   0.313   1.584  1.6842  0.0579 -1.6205
  388SOL     OW 1162   1.211   2.690   1.735  0.4114  0.2205  0.0111
  388SOL    HW1 1163   1.258   2.721   1.650  0.1171 -1.3930 -1.1780
  388SOL    HW2 1164   1.266   2.630   1.800  1.4602  1.4010  1.6474
  389SOL     OW 1165   0.159   2.915   1.352 -0.5678  0.1130 -0.0276
  389SOL    HW1 1166   0.068   2.895   1.312  0.9207 -1.1469 -3.1271
  389SOL    HW2 1167   0.222   2.833   1.345  0.9479  2.0126 -2.3452
  390SOL     OW 1168   1.027   0.953   1.375 -0.2715 -0.1966  0.1325
  390SOL    HW1 1169   1.103   0.960   1.445  0.8802  0.2151  0.3282
  390SOL    HW2 1170   1.006   1.046   1.333  2.9929 -1.1120 -1.4122
  391SOL     OW 1171   2.191   1.113   1.100  0.5589 -0.3564  0.9103
  391SOL    HW1 1172   2.151   1.045   1.161 -2.6661 -0.5468 -1.6278
  391SOL    HW2 1173   2.217   1.074   1.007 -3.1329 -0.2086  1.0823
  392SOL     OW 1174   0.884   2.643   0.076  0.0221  0.1002  0.5408
  392SOL    HW1 1175   0.972   2.588   0.074 -1.5387  1.0750 -1.3048
  392SOL    HW2 1176   0.810   2.603   0.142 -3.1651 -2.2539  0.3934
  393SOL     OW 1177   0.276   0.649   1.998  0.0634  0.3530 -0.6401
  393SOL    HW1 1178   0.213   0.570   1.981 -1.1576 -0.1697  0.0693
  393SOL    HW2 1179   0.341   0.668   1.920 -2.1863  1.9211  0.7678
  394SOL     OW 1180   3.035   1.965   2.713  0.3509 -0.2899 -0.7316
  394SOL    HW1 1181   3.124   1.951   2.761  0.4794 -0.3769 -1.1606
  394SOL    HW2 1182   3.020   1.902   2.628 -0.7619 -0.4399 -2.1533
  395SOL     OW 1183   1.618   1.940   0.583 -0.2472 -0.0474  0.6203
  395SOL    HW1 1184   1.686   1.863   0.566  0.5456  2.3299 -1.4648
  395SOL    HW2 1185   1.648   2.003   0.658  0.7653 -2.2918  2.4608
  396SOL     OW 1186   2.842   1.839   1.298  0.6374 -0.0867  0.0494
  396SOL    HW1 1187   2.870   1.737   1.291  0.0152 -0.5961 -0.6172
  396SOL    HW2 1188   2.744   1.858   1.304  0.7383 -0.8289 -2.3068
  397SOL     OW 1189   1.020   2.211   0.505  0.1778  0.1971 -0.2102
  397SOL    HW1 1190   0.926   2.184   0.534 -0.9147 -0.0891 -1.7342
  397SOL    HW2 1191   1.047   2.308   0.533  2.1539  0.2269 -1.6171
  398SOL     OW 1192   2.128   3.080   1.098  0.2974 -0.5547  0.1398
  398SOL    HW1 1193   2.059   3.019   1.142  0.9738 -1.6920  1.2476
  398SOL    HW2 1194   2.093   3.174   1.071  0.9474 -0.0147  1.2178
  399SOL     OW 1195   3.044   2.459   2.624  0.0297 -0.6087  0.8512
  399SOL    HW1 1196   2.949   2.476   2.583 -1.0927  0.7624 -1.9656
  399SOL    HW2 1197   3.046   2.387   2.699 -1.5338  1.1051  0.5302
  400SOL     OW 1198   0.706   1.659   1.377 -0.6102 -0.1362  0.0273
  400SOL    HW1 1199   0.640   1.691   1.449 -2.6812  2.6974 -0.6245
  400SOL    HW2 1200   0.686   1.702   1.286 -1.0747 -1.9956  0.7173
  401SOL     OW 1201   1.858   0.245   1.159 -0.7467  0.4032  0.4381
  401SOL    HW1 1202   1.885   0.221   1.259 -0.2466 -1.3011 -1.8227
  401SOL    HW2 1203   1.770   0.302   1.163 -1.4030 -0.6124 -0.4619
  402SOL     OW 1204   1.354   0.244   3.090  0.0888  0.3273  0.0839
  402SOL    HW1 1205   1.429   0.204   3.030  0.6890  2.3681 -1.2731
  402SOL    HW2 1206   1.305   0.321   3.042  0.1468 -2.0057 -2.1066
  403SOL     OW 1207   2.273   1.817   0.899 -1.0303 -0.1298 -0.4713
  403SOL    HW1 1208   2.365   1.865   0.868  0.9483  3.2047 -1.7577
  403SOL    HW2 1209   2.223   1.877   0.973 -0.8133  1.3833 -1.6772
  404SOL     OW 1210   0.200   2.478   2.755  0.1775  0.0133 -0.3162
  404SOL    HW1 1211   0.294   2.462   2.709  1.3345  2.3539  0.7464
  404SOL    HW2 1212   0.208   2.563   2.816  1.7961 -0.2652  0.0950
  405SOL     OW 1213   0.090   2.444   0.751 -0.0217 -1.2408  0.1989
  405SOL    HW1 1214   0.068   2.374   0.677  2.1187  1.5774  0.0833
  405SOL    HW2 1215   0.167   2.505   0.717 -3.2272 -2.4956  0.3463
  406SOL     OW 1216   0.056   1.575   3.093  0.4116 -0.5625  0.2222
  406SOL    HW1 1217   0.102   1.510   3.023  2.3385  0.7337  0.2311
  406SOL    HW2 1218   0.095   1.577   3.187 -1.0621 -1.4596 -0.5309
  407SOL     OW 1219   1.561   0.885   0.956  0.2650  0.3868 -0.1648
  407SOL    HW1 1220   1.580   0.881   0.853 -1.5427 -0.1346 -0.1741
  407SOL    HW2 1221   1.493   0.951   0.987  0.7481  0.8478  0.4323
  408SOL     OW 1222   1.582   2.406   0.981 -0.2671 -0.1114 -0.6156
  408SOL    HW1 1223   1.649   2.383   0.903 -1.8511  0.7928 -0.6263
  408SOL    HW2 1224   1.527   2.491   0.965 -2.5400 -0.1919 -0.4664
  409SOL     OW 1225   0.655   0.807   0.767  0.4002  1.1089 -0.1115
  409SOL    HW1 1226   0.567   0.811   0.712 -0.0551  0.7976  0.0269
  409SOL    HW2 1227   0.650   0.725   0.824 -1.5902  2.3945 -0.6768
  410SOL     OW 1228   1.253   2.029   1.393  0.1620  0.1508 -0.5174
  410SOL    HW1 1229   1.336   1.971   1.410  1.8561  0.9828  3.0791
  410SOL    HW2 1230   1.186   2.015   1.474  1.0730 -0.9901 -1.6814
  411SOL     OW 1231   2.525   1.832   3.004 -0.9754 -0.1492 -0.8158
  411SOL    HW1 1232   2.578   1.922   2.997 -0.4601  0.6756 -1.1177
  411SOL    HW2 1233   2.454   1.815   2.930 -3.1599  0.1705  1.3005
  412SOL     OW 1234   1.486   2.459   2.146 -0.5355 -0.2740 -0.2246
  412SOL    HW1 1235   1.564   2.471   2.214 -1.5577  1.2069  0.0054
  412SOL    HW2 1236   1.403   2.428   2.201  2.5864 -0.7290  1.9704
  413SOL     OW 1237   3.095   0.188   2.948 -0.0621  0.3765  0.3920
  413SOL    HW1 1238   3.060   0.103   3.002  0.2171 -2.6155 -0.3052
  413SOL    HW2 1239   3.198   0.207   2.963  1.3916  0.9415 -1.1229
  414SOL     OW 1240   1.770   1.496   1.205 -0.6579 -0.1649 -0.1134
  414SOL    HW1 1241   1.745   1.595   1.224  2.3970 -0.7193  1.7307
  414SOL    HW2 1242   1.768   1.472   1.106  0.3654 -0.2741 -0.7823
  415SOL     OW 1243   0.329   2.223   0.697 -0.6101 -0.5616  0.8875
  415SOL    HW1 1244   0.295   2.200   0.790 -1.0864  0.0957 -4.0501
  415SOL    HW2 1245   0.259   2.216   0.618  1.9212 -0.7041  0.8772
  416SOL     OW 1246   0.345   1.047   1.047  0.1673  0.2343 -0.0554
  416SOL    HW1 1247   0.293   0.974   0.989  0.6261 -1.0121 -1.6704
  416SOL    HW2 1248   0.444   1.055   1.015  1.0349  3.2060  1.9645
  417SOL     OW 1249   2.317   2.430   2.056  0.6344  0.9756  0.0913
  417SOL    HW1 1250   2.313   2.326   2.043 -1.2246 -1.1075  3.1470
  417SOL    HW2 1251   2.257   2.465   2.130  0.0465 -0.9634 -0.2089
  418SOL     OW 1252   1.060   0.500   1.344 -0.3643 -0.5395 -0.3454
  418SOL    HW1 1253   0.965   0.481   1.298 -0.6133  1.0406  0.5791
  418SOL    HW2 1254   1.134   0.516   1.272  1.3366 -2.1517  4.9144
  419SOL     OW 1255   0.929   0.512   2.964 -0.1772 -0.5052  0.1970
  419SOL    HW1 1256   0.879   0.571   2.901 -1.2047 -0.2297 -0.5310
  419SOL    HW2 1257   0.974   0.578   3.034  4.3645  1.3522  0.0053
  420SOL     OW 1258   0.118   2.205   0.517  0.1372  0.2168 -0.7010
  420SOL    HW1 1259   0.185   2.207   0.437 -1.9328 -2.5506 -0.9818
  420SOL    HW2 1260   0.046   2.128   0.505  0.0563 -0.5989 -2.6812
  421SOL     OW 1261   0.327   2.927   0.588 -0.1476 -0.3886 -0.7014
  421SOL    HW1 1262   0.285   2.904   0.681  0.7787 -1.7459  0.4120
  421SOL    HW2 1263   0.406   2.994   0.597 -1.2505 -0.0394  0.3568
  422SOL     OW 1264   1.000   2.621   1.034  0.4248  0.0302  0.3900
  422SOL    HW1 1265   1.058   2.684   0.976  0.8382 -0.0901 -1.5582
  422SOL    HW2 1266   1.051   2.588   1.123 -1.1494 -0.7354  0.0944
  423SOL     OW 1267   0.130   0.755   1.209 -0.3010  0.0032  0.4400
  423SOL    HW1 1268   0.090   0.705   1.292  0.5708 -0.0914 -0.3584
  423SOL    HW2 1269   0.084   0.849   1.190 -2.6087 -3.2173  1.1622
  424SOL     OW 1270   1.177   2.215   2.034  0.3611  0.1553 -0.0186
  424SOL    HW1 1271   1.148   2.316   2.028  0.7033  1.3723 -2.2597
  424SOL    HW2 1272   1.157   2.177   2.130  1.8738 -0.7372  1.0919
  425SOL     OW 1273   2.006   1.311   0.982  0.0203 -0.3261 -0.4918
  425SOL    HW1 1274   2.076   1.241   1.003  0.8579  2.2761 -0.1851
  425SOL    HW2 1275   2.044   1.405   0.998  0.1956  1.5712 -1.3045
  426SOL     OW 1276   1.426   1.613   1.238  0.1375  0.2742 -0.1666
  426SOL    HW1 1277   1.429   1.704   1.194 -2.2482 -2.8507  0.7727
  426SOL    HW2 1278   1.380   1.617   1.329  0.4013 -3.2468  2.7130
  427SOL     OW 1279   1.918   2.348   2.064  0.4880 -0.3452  0.2082
  427SOL    HW1 1280   1.987   2.290   2.117 -0.0166  3.3120  0.6906
  427SOL    HW2 1281   1.937   2.454   2.066 -0.1402  2.8778 -0.3571
  428SOL     OW 1282   0.854   0.009   0.099 -0.1140  0.3204  0.1734
  428SOL    HW1 1283   0.849   0.106   0.064  1.1100  0.8791 -0.9825
  428SOL    HW2 1284   0.946  -0.034   0.123  0.4733  1.2520 -2.3215
  429SOL     OW 1285   1.301   0.156   0.242 -0.7782  0.4768  0.0456
  429SOL    HW1 1286   1.397   0.155   0.283 -1.6393  0.1177  1.7584
  429SOL    HW2 1287   1.310   0.162   0.142  0.2402 -0.8232  1.8387
  430SOL     OW 1288   2.917   1.389   0.301  0.1281 -0.2149 -0.0296
  430SOL    HW1 1289   2.892   1.451   0.216 -0.8437  1.4418 -2.1524
  430SOL    HW2 1290   2.877   1.434   0.385 -2.4429  2.6557  2.6142
  431SOL     OW 1291   2.054   1.600   0.933  0.2892 -0.3266  0.0504
  431SOL    HW1 1292   2.144   1.642   0.912 -0.3572  0.8654  1.6724
  431SOL    HW2 1293   1.973   1.660   0.906 -0.8582 -0.2474  0.1640
  432SOL     OW 1294   2.945   2.152   1.215 -0.1906 -0.0794  0.4229
  432SOL    HW1 1295   2.913   2.057   1.245  1.4450 -1.4343 -3.8545
  432SOL    HW2 1296   2.990   2.210   1.287 -0.9119  0.6584  2.0929
  433SOL     OW 1297   1.839   0.202   0.797  0.2078 -0.7673 -0.1423
  433SOL    HW1 1298   1.834   0.290   0.859 -1.9784 -1.5600  0.5264
  433SOL    HW2 1299   1.883   0.126   0.852  1.9441 -3.8384 -0.9209
  434SOL     OW 1300   1.594   0.332   0.671 -0.6082 -0.2817 -0.1664
  434SOL    HW1 1301   1.571   0.423   0.619 -0.4308 -1.7274 -0.6502
  434SOL    HW2 1302   1.608   0.353   0.773  0.5261  2.9517 -0.1256
  435SOL     OW 1303   1.565   1.437   2.036 -0.1769 -0.1557  0.3830
  435SOL    HW1 1304   1.582   1.496   2.120 -0.4208 -0.8509 -0.5466
  435SOL    HW2 1305   1.529   1.491   1.951 -2.7148  0.7049  2.1721
  436SOL     OW 1306   1.704   2.726   2.232  0.0541 -0.5808  0.5426
  436SOL    HW1 1307   1.669   2.788   2.312 -0.2178  0.0592  2.4058
  436SOL    HW2 1308   1.701   2.626   2.260  0.4335  2.0285 -1.6672
  437SOL     OW 1309   1.089   2.926   0.909 -0.2698  0.2502 -0.4694
  437SOL    HW1 1310   1.017   2.993   0.888  0.1445 -0.4271 -1.4573
  437SOL    HW2 1311   1.112   2.913   1.009 -0.7117  0.6346 -0.0932
  438SOL     OW 1312   1.008   2.673   1.408 -0.5162 -0.0053  0.7609
  438SOL    HW1 1313   1.109   2.674   1.428 -1.5144 -5.0030  1.1642
  438SOL    HW2 1314   0.966   2.581   1.434  1.1577  1.3995  0.2787
  439SOL     OW 1315   0.674   1.825   1.071  0.0887 -0.0263 -0.1088
  439SOL    HW1 1316   0.667   1.909   1.011 -2.2881  0.0095 -0.8836
  439SOL    HW2 1317   0.582   1.777   1.091 -0.7599  0.1836  3.4004
  440SOL     OW 1318   1.088   2.469   1.971 -0.4925  0.5958 -0.1155
  440SOL    HW1 1319   1.030   2.526   1.903 -1.8348  0.4293 -1.3820
  440SOL    HW2 1320   1.190   2.492   1.966  0.9306  1.2801 -1.0809
  441SOL     OW 1321   0.414   2.699   1.538 -0.2764 -0.2552  0.4940
  441SOL    HW1 1322   0.497   2.631   1.537  1.9293 -0.4020  1.5143
  441SOL    HW2 1323   0.354   2.677   1.457  3.5237  0.1208 -1.1585
  442SOL     OW 1324   2.256   0.717   2.526  0.5258 -0.7147  0.5684
  442SOL    HW1 1325   2.265   0.615   2.539  1.3346 -1.8856  0.7800
  442SOL    HW2 1326   2.165   0.752   2.563 -0.8119  2.2784  0.9882
  443SOL     OW 1327   1.187   2.700   2.193 -0.1239  0.5284  0.0276
  443SOL    HW1 1328   1.171   2.761   2.276 -1.0636 -0.1465  2.9252
  443SOL    HW2 1329   1.244   2.618   2.213  3.0164  2.8433  0.2547
  444SOL     OW 1330   0.996   1.319   1.596 -0.2212  0.0643  0.0838
  444SOL    HW1 1331   1.100   1.304   1.588  0.0658 -0.5628 -0.5934
  444SOL    HW2 1332   0.968   1.417   1.570 -0.6479 -0.3394 -0.5341
  445SOL     OW 1333   3.068   2.382   1.984 -0.0267  0.5504  0.2126
  445SOL    HW1 1334   3.064   2.474   1.938  2.5077  1.2507  0.6408
  445SOL    HW2 1335   2.973   2.345   2.001  0.0271 -0.9208  0.4565
  446SOL     OW 1336   0.208   1.912   2.343  0.4973 -0.1254  0.0640
  446SOL    HW1 1337   0.172   1.977   2.416 -0.3048  1.8409 -1.5576
  446SOL    HW2 1338   0.126   1.890   2.279 -1.8346  0.3417 -0.7498
  447SOL     OW 1339   1.190   1.678   1.952 -0.0534 -0.7480 -0.2799
  447SOL    HW1 1340   1.132   1.750   1.903 -0.3138 -1.1014 -0.0560
  447SOL    HW2 1341   1.283   1.717   1.967  0.0892  0.9470 -0.0544
  448SOL     OW 1342   0.095   1.477   1.966  0.3227  0.3806  0.0929
  448SOL    HW1 1343   0.116   1.578   1.945  1.4236 -1.8538  0.4350
  448SOL    HW2 1344   0.099   1.465   2.067  1.2301 -2.1322 -0.8416
  449SOL     OW 1345   1.991   3.003   0.861 -0.1704  0.5315 -0.0584
  449SOL    HW1 1346   2.074   3.010   0.930  0.4356 -1.4521  1.9979
  449SOL    HW2 1347   1.976   2.908   0.822  1.0257  0.9176  2.1082
  450SOL     OW 1348   2.274   1.371   0.866  0.4360  0.2847  0.7955
  450SOL    HW1 1349   2.262   1.275   0.832 -2.6091  1.3617 -1.0396
  450SOL    HW2 1350   2.215   1.442   0.818 -1.2571 -2.8655  0.4594
  451SOL     OW 1351   1.435   0.030   1.455 -0.0645  0.0285 -0.2680
  451SOL    HW1 1352   1.348   0.087   1.466 -1.0705 -0.2944 -1.1593
  451SOL    HW2 1353   1.464  -0.015   1.546 -0.0820 -0.6058  1.4933
  452SOL     OW 1354   2.664   2.310   2.257 -0.2076 -0.2154  0.0554
  452SOL    HW1 1355   2.592   2.391   2.255 -0.7240 -0.8766  1.6170
  452SOL    HW2 1356   2.691   2.277   2.353  1.6567 -1.1306  1.6106
  453SOL     OW 1357   2.435   2.606   3.053  0.1184 -0.4985 -0.3404
  453SOL    HW1 1358   2.352   2.669   3.064 -1.6370 -1.6822 -1.8686
  453SOL    HW2 1359   2.422   2.547   2.966 -0.5626  0.7194 -0.4569
  454SOL     OW 1360   0.947   1.101   2.090 -0.0216 -0.6203 -0.3492
  454SOL    HW1 1361   0.937   1.138   1.990  0.2315 -0.0972 -1.1863
  454SOL    HW2 1362   1.042   1.065   2.120 -0.4638 -1.7758 -1.3495
  455SOL     OW 1363   0.725   2.633   2.902 -0.1962 -0.5861  0.4031
  455SOL    HW1 1364   0.768   2.706   2.959  0.3011  0.9155  1.3343
  455SOL    HW2 1365   0.691   2.551   2.959 -1.6103  0.5600 -0.7592
  456SOL     OW 1366   0.549   1.779   0.278  0.0331  0.3781  0.2678
  456SOL    HW1 1367   0.636   1.728   0.303  3.3627 -1.5718 -2.3768
  456SOL    HW2 1368   0.558   1.875   0.250  0.1345 -1.2291  0.8287
  457SOL     OW 1369   0.320   2.595   0.717  0.3965 -0.0004 -0.8088
  457SOL    HW1 1370   0.342   2.634   0.627 -0.4167 -1.4965 -0.2113
  457SOL    HW2 1371   0.409   2.566   0.761  1.4043 -1.2639 -1.6989
  458SOL     OW 1372   2.968   2.975   1.249 -0.0605 -1.0979 -0.4534
  458SOL    HW1 1373   2.974   3.067   1.211 -2.6740 -1.4141  0.3762
  458SOL    HW2 1374   2.969   2.902   1.178  1.9839 -0.1908  0.7877
  459SOL     OW 1375   2.085   2.521   0.924 -0.2020  0.4276  0.0623
  459SOL    HW1 1376   2.108   2.569   1.014 -2.2484  0.2005 -0.4155
  459SOL    HW2 1377   2.168   2.507   0.869  0.1201  0.1272  2.9117
  460SOL     OW 1378   1.073   1.923   2.905 -0.2755 -0.0938 -0.6341
  460SOL    HW1 1379   1.079   2.003   2.844 -2.0194  0.7256  3.9825
  460SOL    HW2 1380   1.160   1.893   2.951 -0.0966  1.2587 -0.9404
  461SOL     OW 1381   0.501   2.116   2.702  0.5450  0.3104 -0.1560
  461SOL    HW1 1382   0.416   2.057   2.697  2.5594 -0.6217 -1.7964
  461SOL    HW2 1383   0.566   2.080   2.779 -1.6461 -0.7996  0.6054
  462SOL     OW 1384   0.944   1.201   1.842  0.2522  0.3484 -0.5087
  462SOL    HW1 1385   0.982   1.110   1.811 -0.0615 -3.4941 -0.3714
  462SOL    HW2 1386   0.970   1.276   1.768  2.0739  0.5725 -0.5537
  463SOL     OW 1387   0.460   0.794   0.566 -0.1934 -0.3990 -0.4454
  463SOL    HW1 1388   0.506   0.713   0.522  0.3210  1.9833 -0.8664
  463SOL    HW2 1389   0.357   0.801   0.558 -1.1850  1.5857 -3.7360
  464SOL     OW 1390   0.507   2.242   2.228 -0.2507  0.4259 -0.6738
  464SOL    HW1 1391   0.451   2.309   2.285 -0.0715  2.4606 -2.9550
  464SOL    HW2 1392   0.540   2.285   2.138  0.6695 -0.5881  0.7694
  465SOL     OW 1393   0.229   0.891   0.880 -0.1969  0.2002  0.0681
  465SOL    HW1 1394   0.140   0.913   0.836  0.8453 -1.0665  0.5513
  465SOL    HW2 1395   0.240   0.792   0.887 -2.1991  1.2606 -1.0511
  466SOL     OW 1396   1.378   1.090   1.056 -0.1874 -0.5317 -0.4851
  466SOL    HW1 1397   1.439   1.167   1.088  1.4533 -0.8040 -0.0042
  466SOL    HW2 1398   1.281   1.129   1.046  1.2739  0.2899 -0.9020
  467SOL     OW 1399   0.451   0.374   2.380 -0.2175  0.3007  0.2599
  467SOL    HW1 1400   0.441   0.466   2.423  0.4059 -0.3174 -0.0872
  467SOL    HW2 1401   0.449   0.295   2.449 -1.3848  0.6780  2.3613
  468SOL     OW 1402   0.480   2.242   1.681  0.1162  0.0695  0.4126
  468SOL    HW1 1403   0.502   2.318   1.747 -0.0967 -0.6133  0.5198
  468SOL    HW2 1404   0.429   2.274   1.597  2.2658 -1.5759 -1.5095
  469SOL     OW 1405   1.550   1.305   1.119 -0.2139 -0.7757 -0.4199
  469SOL    HW1 1406   1.645   1.256   1.120  1.2410  0.1773  1.7698
  469SOL    HW2 1407   1.548   1.387   1.178  2.6101 -1.0177 -0.5966
  470SOL     OW 1408   3.028   1.659   0.737  0.0553 -0.4419 -0.1021
  470SOL    HW1 1409   3.105   1.720   0.764  1.8948 -0.2556  1.9309
  470SOL    HW2 1410   2.939   1.705   0.767 -0.4054  2.6386  1.5561
  471SOL     OW 1411   2.693   1.299   2.125 -0.0612 -0.1794  0.6027
  471SOL    HW1 1412   2.654   1.232   2.193  0.0887 -0.2920 -1.8468
  471SOL    HW2 1413   2.746   1.379   2.171 -0.3038 -0.8018  0.5680
  472SOL     OW 1414   1.098   2.463   3.087  0.0303  0.1394  0.1318
  472SOL    HW1 1415   1.188   2.460   3.142  0.7705 -1.4961 -0.9534
  472SOL    HW2 1416   1.051   2.370   3.072 -2.9970 -0.4854  0.9623
  473SOL     OW 1417   1.088   1.576   0.886 -0.0516  0.0540 -0.6795
  473SOL    HW1 1418   0.986   1.584   0.910 -1.8537 -1.2646  0.7125
  473SOL    HW2 1419   1.144   1.539   0.961 -1.2772  1.1119 -0.8983
  474SOL     OW 1420   0.822   1.197   0.723 -0.4780  0.3337 -0.1194
  474SOL    HW1 1421   0.756   1.204   0.642 -1.8842  1.7656 -0.4801
  474SOL    HW2 1422   0.863   1.100   0.728 -2.0108 -0.9148  0.2310
  475SOL     OW 1423   2.873   0.088   0.733 -0.4848  0.2878 -0.1208
  475SOL    HW1 1424   2.959   0.099   0.785  0.2762  1.8173 -0.3382
  475SOL    HW2 1425   2.786   0.088   0.783  1.4299  0.9071 -1.5734
  476SOL     OW 1426   0.883   3.081   1.818 -0.2688  0.2339  0.1084
  476SOL    HW1 1427   0.918   3.007   1.885 -0.4658  0.1995  1.5245
  476SOL    HW2 1428   0.893   3.056   1.717  1.8170 -0.8932 -0.6675
  477SOL     OW 1429   1.435   0.322   2.427  0.6617 -0.0095 -0.3486
  477SOL    HW1 1430   1.426   0.349   2.528  0.0839 -0.9990  0.4994
  477SOL    HW2 1431   1.528   0.280   2.408 -0.1527  0.8193 -0.4138
  478SOL     OW 1432   2.318   1.818   0.232 -0.0490  0.4795  0.0788
  478SOL    HW1 1433   2.250   1.745   0.199 -0.0656 -2.2155 -0.9362
  478SOL    HW2 1434   2.414   1.803   0.203 -1.1702 -0.2481  1.3441
  479SOL     OW 1435   1.275   1.083   2.908 -1.1252  0.4851  0.3723
  479SOL    HW1 1436   1.362   1.070   2.849  1.4617  1.4961 -0.8958
  479SOL    HW2 1437   1.186   1.062   2.852 -0.4356  0.3691  0.3090
  480SOL     OW 1438   2.464   2.346   0.386 -0.2317 -0.2900 -0.0357
  480SOL    HW1 1439   2.428   2.267   0.442 -1.3094  0.5877  0.6589
  480SOL    HW2 1440   2.408   2.353   0.294 -0.9688  0.5485 -0.5827
  481SOL     OW 1441   1.134   1.165   0.784 -0.1192  0.1466  0.5915
  481SOL    HW1 1442   1.090   1.245   0.738 -2.1114 -0.0566  1.4089
  481SOL    HW2 1443   1.144   1.178   0.885  0.1892  3.8389  0.2603
  482SOL     OW 1444   1.609   0.307   2.035  0.0538 -0.2457 -0.1519
  482SOL    HW1 1445   1.631   0.375   1.962  0.5613 -1.7875 -3.0960
  482SOL    HW2 1446   1.700   0.274   2.087  0.5921 -0.9166 -0.3908
  483SOL     OW 1447   0.146   2.341   1.298  0.0887  0.3910  0.0943
  483SOL    HW1 1448   0.049   2.364   1.325  0.2023 -1.9552  2.3297
  483SOL    HW2 1449   0.170   2.375   1.205 -0.1320  1.7176 -0.9793
  484SOL     OW 1450   1.727   0.987   1.388 -0.1414 -0.0533 -0.3789
  484SOL    HW1 1451   1.778   0.895   1.380  1.8636  1.9699 -0.1237
  484SOL    HW2 1452   1.794   1.065   1.404 -2.6546 -0.4351 -0.2536
  485SOL     OW 1453   0.704   1.113   1.771 -0.4912  0.2533  0.0896
  485SOL    HW1 1454   0.716   1.080   1.669  0.0141  1.2898 -0.4544
  485SOL    HW2 1455   0.793   1.156   1.806  2.5959  0.4686 -0.0802
  486SOL     OW 1456   0.911   1.928   2.469  0.0177 -0.5804 -0.3132
  486SOL    HW1 1457   0.938   1.865   2.546 -2.0020 -0.3931  1.9806
  486SOL    HW2 1458   0.852   2.009   2.498  0.0436  1.9539  2.1320
  487SOL     OW 1459   1.753   1.489   0.911 -0.0855 -0.0877 -0.1855
  487SOL    HW1 1460   1.726   1.403   0.851  2.1564  0.6911 -3.6415
  487SOL    HW2 1461   1.795   1.572   0.858  1.5246 -0.5709 -1.2503
  488SOL     OW 1462   2.968   0.947   2.248 -0.3544  0.4519  1.1256
  488SOL    HW1 1463   2.990   0.866   2.191  0.3625  3.4727 -0.6845
  488SOL    HW2 1464   2.991   0.929   2.351 -0.4244  0.1886  1.3081
  489SOL     OW 1465   2.784   0.250   1.314  0.8862 -0.6845 -0.4804
  489SOL    HW1 1466   2.729   0.213   1.394 -0.7838 -0.7988 -0.1895
  489SOL    HW2 1467   2.863   0.183   1.295 -0.4562 -2.2095 -0.2307
  490SOL     OW 1468   1.411   2.974   2.868 -0.0662 -0.0325  0.2057
  490SOL    HW1 1469   1.431   2.869   2.878  1.7511 -1.6837  4.5504
  490SOL    HW2 1470   1.410   3.009   2.769 -1.3288  1.9705 -1.0636
  491SOL     OW 1471   1.876   1.576   2.690  0.3005 -0.3182 -0.2866
  491SOL    HW1 1472   1.843   1.659   2.736  2.9590  1.2093 -1.7662
  491SOL    HW2 1473   1.963   1.555   2.744  0.4449 -1.0828  0.6668
  492SOL     OW 1474   0.461   1.958   0.738  0.1604 -0.2558  0.0570
  492SOL    HW1 1475   0.546   1.956   0.792  1.2905  2.3090 -1.6522
  492SOL    HW2 1476   0.418   2.053   0.737 -2.5793  0.2006  0.6514
  493SOL     OW 1477   0.428   1.409   2.105 -0.1470  0.1541  0.1791
  493SOL    HW1 1478   0.343   1.468   2.115 -2.0669 -0.6666  0.0965
  493SOL    HW2 1479   0.424   1.320   2.160  2.8602 -0.4352  0.0691
  494SOL     OW 1480   2.638   2.656   0.131 -0.1392  0.0682  0.5679
  494SOL    HW1 1481   2.678   2.575   0.186  1.7854 -2.3955 -0.3926
  494SOL    HW2 1482   2.577   2.624   0.053  0.5473  0.3957  0.8254
  495SOL     OW 1483   2.748   2.681   2.688  0.0946  0.2035  0.0641
  495SOL    HW1 1484   2.746   2.582   2.664  2.6052 -0.6976 -1.3541
  495SOL    HW2 1485   2.730   2.746   2.607  1.7258 -1.4673  0.0559
  496SOL     OW 1486   2.103   2.201   0.737 -0.4179 -0.2426 -0.0652
  496SOL    HW1 1487   2.076   2.197   0.837  4.2118  1.1962 -4.3477
  496SOL    HW2 1488   2.121   2.104   0.704 -2.0569 -2.5901  1.6299
  497SOL     OW 1489   0.236   2.978   2.406  0.2234 -0.2721  0.4620
  497SOL    HW1 1490   0.165   3.024   2.463 -1.1685 -1.0979  2.2489
  497SOL    HW2 1491   0.268   3.034   2.324  1.0433 -1.3320 -1.8297
  498SOL     OW 1492   1.201   1.479   1.123 -0.4968 -0.1800 -0.1655
  498SOL    HW1 1493   1.286   1.536   1.130  0.9378  2.5445 -1.4855
  498SOL    HW2 1494   1.128   1.518   1.185  1.7623 -2.4644  0.6463
  499SOL     OW 1495   0.851   1.796   0.532  0.2625  0.5313 -0.2952
  499SOL    HW1 1496   0.785   1.718   0.551 -0.0749 -1.3004  0.9292
  499SOL    HW2 1497   0.876   1.849   0.613  1.5034 -0.1553 -0.7286
  500SOL     OW 1498   1.410   2.981   1.739  0.3705 -0.1470 -0.7655
  500SOL    HW1 1499   1.454   3.022   1.823  0.7971  1.3133 -2.4736
  500SOL    HW2 1500   1.442   2.888   1.711 -2.2640 -2.2177  0.9903
  501SOL     OW 1501   0.743   1.144   2.252 -0.5954  0.0034  0.2940
  501SOL    HW1 1502   0.675   1.073   2.225  2.4744  0.7379  1.9412
  501SOL    HW2 1503   0.824   1.145   2.188  1.0840 -1.3420  1.3191
  502SOL     OW 1504   2.619   0.967   1.731  0.3988  0.4291  0.0626
  502SOL    HW1 1505   2.621   0.965   1.627 -1.6478  1.3100 -2.4332
  502SOL    HW2 1506   2.549   0.902   1.766  0.8538 -0.4066 -1.8504
  503SOL     OW 1507   1.340   0.185   0.614 -0.0641  0.0201 -0.2773
  503SOL    HW1 1508   1.264   0.256   0.603 -1.7266 -1.8302  4.1554
  503SOL    HW2 1509   1.437   0.221   0.621 -1.5134 -1.3672  0.7949
  504SOL     OW 1510   2.961   2.369   1.395 -0.1560  0.5422  0.0252
  504SOL    HW1 1511   2.970   2.444   1.462 -0.8770  0.8852  3.3560
  504SOL    HW2 1512   2.907   2.284   1.428  1.6861 -0.1498  0.6010
  505SOL     OW 1513   2.290   1.238   1.435  0.4022  0.3366 -0.1847
  505SOL    HW1 1514   2.274   1.319   1.377  1.8688 -2.9425  1.3054
  505SOL    HW2 1515   2.388   1.235   1.467  0.9611  1.3142 -0.5654
  506SOL     OW 1516   1.897   0.253   1.823 -0.3592 -0.6113 -0.2418
  506SOL    HW1 1517   1.968   0.234   1.752 -1.1656  0.9370 -0.1897
  506SOL    HW2 1518   1.918   0.332   1.891  2.8669 -1.3154  1.7062
  507SOL     OW 1519   0.506   0.650   2.181  0.0977  0.7982  0.1791
  507SOL    HW1 1520   0.426   0.637   2.115 -1.5475  0.3915  1.4966
  507SOL    HW2 1521   0.574   0.569   2.181  1.9964 -1.4599  1.3957
  508SOL     OW 1522   0.209   1.673   0.864 -0.7950  0.0531 -0.2280
  508SOL    HW1 1523   0.256   1.763   0.843 -2.1321 -0.3107 -0.0000
  508SOL    HW2 1524   0.189   1.652   0.967 -3.3104 -1.4854  0.3139
  509SOL     OW 1525   1.364   1.192   2.556  0.1979 -0.2446  0.3297
  509SOL    HW1 1526   1.284   1.256   2.536  0.7728  1.9149  1.2047
  509SOL    HW2 1527   1.372   1.120   2.487  0.3021  3.5528  4.2160
  510SOL     OW 1528   1.342   1.977   2.043 -0.0694  0.5875 -0.7806
  510SOL    HW1 1529   1.317   2.074   2.031 -0.4620 -1.7090  1.8584
  510SOL    HW2 1530   1.273   1.925   2.108 -2.0258  0.6052 -0.6097
  511SOL     OW 1531   0.020   2.642   1.316 -0.3783 -0.1248 -0.5443
  511SOL    HW1 1532  -0.034   2.623   1.229 -2.1034 -0.2458  0.9583
  511SOL    HW2 1533  -0.038   2.631   1.401  0.0323  0.3516  1.8925
  512SOL     OW 1534   2.414   0.429   1.353  0.1426 -0.2456  0.0529
  512SOL    HW1 1535   2.311   0.412   1.374 -0.9972  0.9234 -0.8294
  512SOL    HW2 1536   2.447   0.409   1.256 -0.8271  2.9795  1.5027
  513SOL     OW 1537   2.494   2.001   0.846  0.2813  0.3312  0.1422
  513SOL    HW1 1538   2.438   2.090   0.838 -0.0486 -1.1962 -0.5395
  513SOL    HW2 1539   2.573   1.999   0.778 -3.0026  0.7065 -3.1204
  514SOL     OW 1540   0.673   2.783   0.381 -0.1168  0.4785  0.5100
  514SOL    HW1 1541   0.657   2.841   0.299  0.1884  0.9688  0.3522
  514SOL    HW2 1542   0.708   2.835   0.461 -0.7999  1.9568 -0.0214
  515SOL     OW 1543   1.966   1.214   2.345 -0.2650  0.1745  0.5830
  515SOL    HW1 1544   1.886   1.243   2.285  1.7173  0.7808 -1.2212
  515SOL    HW2 1545   1.941   1.235   2.443  4.8355 -0.5674  0.3233
  516SOL     OW 1546   0.261   0.298   1.957  0.0706  0.0248  0.2577
  516SOL    HW1 1547   0.340   0.277   1.896 -0.2285  0.1075  3.0982
  516SOL    HW2 1548   0.173   0.238   1.936 -0.3229  0.3314 -2.4841
  517SOL     OW 1549   0.355   3.043   1.172  0.4536  0.3736 -0.6338
  517SOL    HW1 1550   0.389   3.136   1.205 -1.0094 -0.7030  3.2325
  517SOL    HW2 1551   0.278   3.007   1.230 -2.7705 -1.1812 -0.9335
  518SOL     OW 1552   2.149   0.156   1.687 -0.0247  0.4905 -1.0597
  518SOL    HW1 1553   2.221   0.190   1.757  2.1034  0.5199  0.2352
  518SOL    HW2 1554   2.157   0.054   1.664  0.2461  2.4168 -0.1323
  519SOL     OW 1555   2.387   2.185   2.552 -0.9163 -0.8043 -0.7703
  519SOL    HW1 1556   2.306   2.174   2.619 -0.8713  2.0863  2.0881
  519SOL    HW2 1557   2.419   2.283   2.544 -1.0342  1.7518  0.3881
  520SOL     OW 1558   1.770   2.883   1.797  0.1604 -0.2529 -0.5249
  520SOL    HW1 1559   1.681   2.867   1.843 -0.3685 -1.6635  1.1704
  520SOL    HW2 1560   1.822   2.796   1.799 -0.6235 -1.2549 -0.9149
  521SOL     OW 1561   0.563   0.146   2.134  0.4156  0.1878 -0.0261
  521SOL    HW1 1562   0.476   0.109   2.179 -0.4571  0.8326  0.2709
  521SOL    HW2 1563   0.646   0.117   2.188  0.2481 -0.3575  1.8682
  522SOL     OW 1564   0.202   1.907   1.566  0.0115 -0.4400 -0.4874
  522SOL    HW1 1565   0.254   1.965   1.636  0.1008 -0.8842  0.0471
  522SOL    HW2 1566   0.182   1.961   1.478  0.8214  0.1944 -2.2902
  523SOL     OW 1567   2.187   2.956   1.619  0.1459  0.4869 -0.0410
  523SOL    HW1 1568   2.234   2.881   1.563  0.2837  0.6750 -0.5830
  523SOL    HW2 1569   2.089   2.953   1.599  0.7530  1.6405  1.5080
  524SOL     OW 1570   0.245   2.737   2.834  0.1347  0.1338 -0.3017
  524SOL    HW1 1571   0.227   2.779   2.929  2.8044 -1.0889  2.4291
  524SOL    HW2 1572   0.339   2.754   2.791  1.7699  2.7945 -4.3799
  525SOL     OW 1573   2.131   1.938   0.459 -0.4996  0.3175  0.1281
  525SOL    HW1 1574   2.114   1.845   0.509 -2.5252 -2.3695  0.2280
  525SOL    HW2 1575   2.196   1.922   0.378 -0.0537  1.7536  1.5738
  526SOL     OW 1576   0.411   1.517   1.540  0.4222 -0.1835  0.1554
  526SOL    HW1 1577   0.341   1.487   1.611 -0.6735  0.6212  2.1432
  526SOL    HW2 1578   0.482   1.442   1.518  0.6161 -1.8030  0.4475
  527SOL     OW 1579   1.100   2.887   1.194 -0.0476 -0.4069  0.0393
  527SOL    HW1 1580   1.147   2.816   1.255 -1.5235 -0.0838 -0.6661
  527SOL    HW2 1581   1.138   2.983   1.199  1.2984  0.8109  2.4494
  528SOL     OW 1582   1.348   2.387   0.457  0.1931  0.5129  0.0300
  528SOL    HW1 1583   1.350   2.282   0.452  0.4223 -1.1216  0.0627
  528SOL    HW2 1584   1.402   2.425   0.537 -0.9027 -0.2130  0.1286
  529SOL     OW 1585   1.839   1.739   0.802 -0.5177  0.1772 -0.6343
  529SOL    HW1 1586   1.813   1.755   0.701 -1.5577  0.8182  0.1858
  529SOL    HW2 1587   1.835   1.820   0.861  0.3988 -0.9838 -1.1339
  530SOL     OW 1588   0.321   2.445   0.318  0.4733  0.1514 -0.5370
  530SOL    HW1 1589   0.302   2.532   0.362 -1.6660 -0.4520  2.2283
  530SOL    HW2 1590   0.400   2.397   0.364  0.3765  0.4110 -3.9590
  531SOL     OW 1591   1.838   0.820   1.030  0.7350 -0.5149 -0.5797
  531SOL    HW1 1592   1.880   0.814   0.939 -2.8566  1.4515  1.8382
  531SOL    HW2 1593   1.733   0.840   1.027  2.8653  0.7038 -2.0261
  532SOL     OW 1594   0.491   1.086   0.730 -0.2203  0.2914  0.4323
  532SOL    HW1 1595   0.491   1.073   0.624  1.4935  2.7047  0.8559
  532SOL    HW2 1596   0.468   1.000   0.782  0.9364 -0.1520 -0.4651
  533SOL     OW 1597   1.779   0.044   2.544 -0.0334 -0.0159 -0.3747
  533SOL    HW1 1598   1.863   0.001   2.594 -0.0461 -0.6150  3.5566
  533SOL    HW2 1599   1.722   0.108   2.607  0.5569  0.7027  0.6816
  534SOL     OW 1600   0.398   0.166   1.547 -0.5293 -0.2282  0.4285
  534SOL    HW1 1601   0.495   0.190   1.577 -0.5363  0.5309 -1.9126
  534SOL    HW2 1602   0.341   0.253   1.531  1.6979  1.8645  1.3569
  535SOL     OW 1603   1.923   0.346   0.200  0.3321 -0.5161  0.0605
  535SOL    HW1 1604   1.949   0.416   0.270  0.3725  0.0959 -2.2086
  535SOL    HW2 1605   1.959   0.254   0.238  1.3523  1.1749  0.7356
  536SOL     OW 1606   1.373   2.632   0.936  0.1352 -0.3382 -0.0705
  536SOL    HW1 1607   1.332   2.596   1.027 -1.4212 -0.0853  2.9087
  536SOL    HW2 1608   1.301   2.680   0.870 -3.8546 -0.2680 -0.5839
  537SOL     OW 1609   0.835   0.285   2.393  0.0882 -0.0441 -0.6126
  537SOL    HW1 1610   0.859   0.342   2.309  2.1929 -0.2347 -1.1956
  537SOL    HW2 1611   0.819   0.180   2.363  0.5049 -2.3096 -2.2389
  538SOL     OW 1612   1.645   2.347   1.360  0.5583  0.3135  0.4853
  538SOL    HW1 1613   1.628   2.243   1.375 -0.1876 -0.6973 -0.9737
  538SOL    HW2 1614   1.741   2.377   1.397  1.4092 -2.2139  1.4161
  539SOL     OW 1615   0.166   1.612   2.693  0.3566 -0.3399  0.0906
  539SOL    HW1 1616   0.074   1.595   2.647  0.7017  1.1278  1.3956
  539SOL    HW2 1617   0.174   1.703   2.747  2.8181  0.3492  0.9466
  540SOL     OW 1618   2.660   1.711   1.918 -0.3989  0.2912 -0.7356
  540SOL    HW1 1619   2.596   1.632   1.940  2.6668 -0.2788  1.4136
  540SOL    HW2 1620   2.604   1.801   1.915 -0.8527 -0.1086  1.6717
  541SOL     OW 1621   0.561   2.153   0.026  0.1597  0.0648  0.3766
  541SOL    HW1 1622   0.573   2.126   0.127 -2.1454  1.9995 -0.2190
  541SOL    HW2 1623   0.469   2.124  -0.010  0.6342  2.2367  0.4962
  542SOL     OW 1624   2.235   2.618   0.504  0.1277  0.4189  0.0908
  542SOL    HW1 1625   2.185   2.698   0.551 -0.0512  0.9056  0.7140
  542SOL    HW2 1626   2.182   2.526   0.518 -2.1978  0.3512  0.1049
  543SOL     OW 1627   1.085   1.816   1.560 -0.3089  0.1412  0.1180
  543SOL    HW1 1628   1.100   1.853   1.652 -1.1486 -0.6056 -0.1567
  543SOL    HW2 1629   1.009   1.871   1.505  1.0394  0.2558 -1.9428
  544SOL     OW 1630   1.134   0.513   0.171  0.7137  0.3428 -0.2912
  544SOL    HW1 1631   1.092   0.422   0.205  1.9605 -1.8026  2.2673
  544SOL    HW2 1632   1.157   0.508   0.071 -1.9817 -2.6518 -2.6816
  545SOL     OW 1633   1.099   1.843   0.776  0.2000  0.4863 -0.2597
  545SOL    HW1 1634   1.191   1.855   0.728  1.4059 -0.7006 -0.1306
  545SOL    HW2 1635   1.085   1.742   0.803  0.0035 -0.1790 -1.2320
  546SOL     OW 1636   2.702   1.587   2.970  0.0473  0.3571  0.0358
  546SOL    HW1 1637   2.673   1.680   2.932 -0.5809 -1.8478  0.2530
  546SOL    HW2 1638   2.616   1.526   2.990 -4.0798  1.5095 -0.4496
  547SOL     OW 1639   0.660   3.038   2.520  0.0408 -0.2665 -0.1190
  547SOL    HW1 1640   0.725   3.028   2.605 -1.2744 -2.9469 -1.6249
  547SOL    HW2 1641   0.594   2.964   2.509  0.0791  1.5654 -1.9495
  548SOL     OW 1642   2.054   0.778   3.064  0.3510 -0.4589 -0.6055
  548SOL    HW1 1643   1.953   0.758   3.055  0.8636  0.8727  1.3844
  548SOL    HW2 1644   2.068   0.877   3.092  0.8398 -0.3824 -0.8909
  549SOL     OW 1645   0.706   0.572   0.216  0.1538 -0.7955  0.1499
  549SOL    HW1 1646   0.637   0.613   0.147  0.3567  2.3282 -1.8155
  549SOL    HW2 1647   0.792   0.630   0.225 -0.9493 -1.6700 -3.2544
  550SOL     OW 1648   2.564   2.811   2.842 -0.2467  0.0390  0.0422
  550SOL    HW1 1649   2.513   2.751   2.911  1.9546 -2.1858  0.6193
  550SOL    HW2 1650   2.622   2.751   2.774  2.1192 -1.6664 -0.7826
  551SOL     OW 1651   0.229   0.883   0.270  0.0180 -0.3633  0.1434
  551SOL    HW1 1652   0.325   0.880   0.235 -2.2585  0.3530 -2.7449
  551SOL    HW2 1653   0.224   0.859   0.371 -0.3214 -0.3850  1.7371
  552SOL     OW 1654   0.581   3.013   1.972  0.3817  0.8050  0.3084
  552SOL    HW1 1655   0.561   3.088   2.043 -0.7809  1.4626  0.3426
  552SOL    HW2 1656   0.680   3.007   1.950 -0.5642  1.2695  0.0936
  553SOL     OW 1657   2.963   2.398   0.370  0.4857 -0.0370  0.4125
  553SOL    HW1 1658   2.952   2.294   0.399  4.4196 -0.4453  2.9627
  553SOL    HW2 1659   2.875   2.448   0.374  2.0413  2.1531  0.1368
  554SOL     OW 1660   2.195   0.388   0.512  0.5992 -0.0547  0.7585
  554SOL    HW1 1661   2.279   0.396   0.447  0.8050 -0.4331 -1.6179
  554SOL    HW2 1662   2.198   0.308   0.579  1.7485  0.9460 -0.8300
  555SOL     OW 1663   0.476   2.843   2.482  0.6519 -0.2551 -0.6164
  555SOL    HW1 1664   0.398   2.912   2.453 -1.5199  0.8419  0.0841
  555SOL    HW2 1665   0.486   2.757   2.431 -1.0437  1.3323  0.1269
  556SOL     OW 1666   0.812   2.460   1.607 -0.5474  0.6838 -0.0026
  556SOL    HW1 1667   0.850   2.505   1.696  2.4324  0.6916 -1.0049
  556SOL    HW2 1668   0.881   2.430   1.538 -1.4203  1.1226 -2.4127
  557SOL     OW 1669   0.226   2.093   0.278  0.5698 -0.0006  0.8276
  557SOL    HW1 1670   0.151   2.046   0.216  1.0436  2.7390  1.8344
  557SOL    HW2 1671   0.323   2.098   0.237  0.3880 -0.6810 -1.5882
  558SOL     OW 1672   2.829   2.158   0.405  0.4464 -0.1161 -0.0149
  558SOL    HW1 1673   2.754   2.169   0.471 -1.8417 -0.5033 -0.0234
  558SOL    HW2 1674   2.795   2.090   0.332 -1.3213 -3.8223 -0.8618
  559SOL     OW 1675   0.406   2.354   1.433  0.2638 -0.0032  0.3540
  559SOL    HW1 1676   0.319   2.369   1.384 -3.7760 -2.1324  0.2271
  559SOL    HW2 1677   0.475   2.293   1.381  1.8823  2.2364 -0.5501
  560SOL     OW 1678   2.132   1.055   3.098 -0.6511 -0.2945 -0.0415
  560SOL    HW1 1679   2.195   1.070   3.182  2.2184 -1.4152 -1.6949
  560SOL    HW2 1680   2.189   1.009   3.019  0.4671  1.4817 -0.2966
  561SOL     OW 1681   0.042   1.916   0.138 -0.0190  0.3631  1.2799
  561SOL    HW1 1682  -0.014   1.863   0.204 -1.9200  2.3396  1.6355
  561SOL    HW2 1683  -0.016   1.943   0.059 -1.2830 -4.1021 -0.5801
  562SOL     OW 1684   1.116   2.096   2.282 -0.2152 -0.5732 -0.0933
  562SOL    HW1 1685   1.059   2.182   2.315 -1.4044 -3.3740 -0.3938
  562SOL    HW2 1686   1.065   2.008   2.291 -0.5623 -1.3102  0.0960
  563SOL     OW 1687   0.673   2.533   2.646 -0.5954 -0.0891  0.1505
  563SOL    HW1 1688   0.758   2.499   2.603  0.8303  2.1251  1.3655
  563SOL    HW2 1689   0.693   2.560   2.743 -0.8559 -0.9308  0.3777
  564SOL     OW 1690   2.865   1.392   2.886 -0.4085  0.0988 -0.0290
  564SOL    HW1 1691   2.798   1.463   2.917 -1.9978  0.4387 -1.1283
  564SOL    HW2 1692   2.959   1.429   2.859 -2.0663  1.1655  0.8683
  565SOL     OW 1693   2.524   1.959   2.637  0.1669  0.3674  0.2102
  565SOL    HW1 1694   2.490   2.050   2.602 -0.5853 -0.7078  0.3615
  565SOL    HW2 1695   2.607   1.960   2.698 -0.4553 -1.7078 -0.9533
  566SOL     OW 1696   1.979   2.903   1.464  0.5826  0.2198 -0.2892
  566SOL    HW1 1697   1.948   2.821   1.523 -0.0898 -1.1057  0.6583
  566SOL    HW2 1698   1.952   2.886   1.365  1.0395 -3.5331  0.9808
  567SOL     OW 1699   2.393   0.026   2.318 -0.1855 -0.1476  0.2484
  567SOL    HW1 1700   2.302   0.024   2.366 -1.9483 -1.8006  1.1895
  567SOL    HW2 1701   2.385   0.049   2.219  1.3006 -0.5458  0.0436
  568SOL     OW 1702   1.491   1.726   0.285  0.3327 -0.4725 -0.4769
  568SOL    HW1 1703   1.458   1.811   0.242  0.3984 -0.5136  0.5853
  568SOL    HW2 1704   1.581   1.738   0.330  0.2569  0.4071 -0.1346
  569SOL     OW 1705   0.266   0.603   0.890 -0.0040 -0.4963  0.4408
  569SOL    HW1 1706   0.300   0.559   0.799  1.2865 -1.5882 -2.0869
  569SOL    HW2 1707   0.169   0.585   0.916  1.2087  1.0416 -3.0778
  570SOL     OW 1708   0.636   0.883   2.898 -0.1087 -0.3810  0.5367
  570SOL    HW1 1709   0.682   0.912   2.805  1.0809  0.6890 -0.6723
  570SOL    HW2 1710   0.642   0.958   2.969 -0.1215  1.1547  0.7063
  571SOL     OW 1711   0.763   3.071   1.083 -0.2542 -0.1592 -0.8268
  571SOL    HW1 1712   0.838   3.091   1.014  0.2996 -2.5750  1.4978
  571SOL    HW2 1713   0.772   2.975   1.113  1.0506  2.4949  1.1265
  572SOL     OW 1714   1.628   2.686   1.411  0.1500 -0.2170  0.2590
  572SOL    HW1 1715   1.657   2.637   1.330  1.4278  1.6323 -0.5145
  572SOL    HW2 1716   1.560   2.763   1.394  2.3537 -0.3701  1.7174
  573SOL     OW 1717   3.079   0.495   1.956 -0.8008 -0.1983 -0.6978
  573SOL    HW1 1718   3.056   0.407   2.003  1.7684  0.6344  0.4991
  573SOL    HW2 1719   3.134   0.480   1.863  1.2636 -1.8131  0.2415
  574SOL     OW 1720   0.156   1.642   1.138  0.2325  0.0274 -0.4609
  574SOL    HW1 1721   0.187   1.652   1.236  0.3995  0.1229 -1.5741
  574SOL    HW2 1722   0.134   1.734   1.100 -1.4775  0.2440  0.2511
  575SOL     OW 1723   0.863   2.227   0.996 -0.5586  0.0812  0.3297
  575SOL    HW1 1724   0.826   2.260   1.089 -1.3416  1.2534 -2.1352
  575SOL    HW2 1725   0.906   2.303   0.943 -0.1645 -0.0624 -1.4057
  576SOL     OW 1726   2.943   3.002   1.728  0.3641 -0.1586  0.1028
  576SOL    HW1 1727   2.853   2.986   1.684  2.9458  1.2424  2.8175
  576SOL    HW2 1728   2.988   3.097   1.704  1.2333 -0.4876 -0.8845
  577SOL     OW 1729   2.676   1.221   0.013  0.1585  0.0964 -0.2360
  577SOL    HW1 1730   2.659   1.134  -0.043  2.0404 -1.0035  1.7605
  577SOL    HW2 1731   2.738   1.213   0.094 -4.0253 -2.0943  0.0619
  578SOL     OW 1732   1.414   2.751   2.554 -0.4395 -0.1309 -0.1048
  578SOL    HW1 1733   1.326   2.783   2.501 -0.7435  0.0948 -3.0081
  578SOL    HW2 1734   1.498   2.806   2.532 -0.6182 -1.0787  0.4602
  579SOL     OW 1735   0.068   2.410   0.177  0.4658  0.3309 -0.0309
  579SOL    HW1 1736  -0.010   2.421   0.244 -0.1069 -1.5930 -0.6254
  579SOL    HW2 1737   0.156   2.384   0.226 -0.6540  1.0306 -0.1846
  580SOL     OW 1738   0.958   2.705   0.424 -0.0372 -0.2677 -0.6025
  580SOL    HW1 1739   1.009   2.686   0.331  1.8503 -0.4484 -1.2981
  580SOL    HW2 1740   0.857   2.711   0.410 -0.3967 -0.2616  1.4606
  581SOL     OW 1741   1.271   2.691   1.433  0.5812  0.8068  0.2354
  581SOL    HW1 1742   1.312   2.598   1.436  0.2678 -0.8446  0.2576
  581SOL    HW2 1743   1.342   2.759   1.398  2.0551 -1.2775  0.2527
  582SOL     OW 1744   1.499   0.074   1.919  0.5807 -0.0197 -0.0279
  582SOL    HW1 1745   1.499   0.157   1.980  1.3736  1.6263  0.4927
  582SOL    HW2 1746   1.570   0.079   1.848 -1.4588  0.1485  1.3125
  583SOL     OW 1747   2.459   3.049   0.553 -0.7680 -0.4124 -0.1653
  583SOL    HW1 1748   2.548   3.009   0.511 -1.1087  1.1070  1.0483
  583SOL    HW2 1749   2.397   2.974   0.600  0.7274 -2.0743  1.9458
  584SOL     OW 1750   1.605   1.098   2.277 -0.0400  0.5779 -0.6805
  584SOL    HW1 1751   1.661   1.177   2.259 -2.8305 -0.5498  0.2562
  584SOL    HW2 1752   1.658   1.020   2.321 -4.0128  2.9057  0.7895
  585SOL     OW 1753   2.045   2.663   2.874 -0.6055  0.0933  0.4488
  585SOL    HW1 1754   2.081   2.567   2.855  0.0977  1.2376 -1.5006
  585SOL    HW2 1755   1.946   2.674   2.873  0.8024  0.2749 -0.7421
  586SOL     OW 1756   2.943   0.383   1.595  0.5622 -0.2109  0.7141
  586SOL    HW1 1757   2.939   0.472   1.640  0.0550 -0.1203  0.0129
  586SOL    HW2 1758   2.854   0.360   1.542 -1.8335 -2.1744 -2.2074
  587SOL     OW 1759   2.148   1.456   2.716  0.1951 -0.0579  0.5418
  587SOL    HW1 1760   2.146   1.387   2.638  0.6360 -2.2318  2.8323
  587SOL    HW2 1761   2.243   1.482   2.742 -1.3792 -1.0135  1.8557
  588SOL     OW 1762   0.515   2.644   2.290  0.6178  0.4767  0.4225
  588SOL    HW1 1763   0.470   2.672   2.203 -0.5330 -1.7251  2.9292
  588SOL    HW2 1764   0.473   2.553   2.337  0.1972 -0.6543  2.6260
  589SOL     OW 1765   2.179   1.323   2.490 -0.0379  0.6711  0.0906
  589SOL    HW1 1766   2.133   1.268   2.414  0.6622  0.9853 -0.7008
  589SOL    HW2 1767   2.278   1.319   2.488 -2.0910  1.2490  1.1145
  590SOL     OW 1768   2.310   1.696   2.076  0.2078 -0.1703  0.4139
  590SOL    HW1 1769   2.386   1.632   2.054 -2.1397 -1.0810 -1.6217
  590SOL    HW2 1770   2.300   1.722   2.178 -0.9055  1.4596  0.2768
  591SOL     OW 1771   1.306   2.419   0.172  0.7561  0.6577 -0.3162
  591SOL    HW1 1772   1.325   2.321   0.127  1.3174 -0.0858  1.7809
  591SOL    HW2 1773   1.319   2.420   0.273  2.0103  1.8777  0.8108
  592SOL     OW 1774   1.779   2.367   0.795 -0.3575 -0.0997  0.5140
  592SOL    HW1 1775   1.789   2.399   0.697  0.0981 -2.0419  0.3913
  592SOL    HW2 1776   1.851   2.415   0.855 -2.1231  0.7394  0.1468
  593SOL     OW 1777   0.769   0.293   0.236 -0.5761  0.0905 -0.6930
  593SOL    HW1 1778   0.839   0.264   0.167  2.6425 -0.0030  2.5057
  593SOL    HW2 1779   0.735   0.391   0.216 -2.0127 -0.7995 -0.8727
  594SOL     OW 1780   1.072   1.799   2.659  0.6286  0.1532  0.2118
  594SOL    HW1 1781   1.151   1.794   2.589  0.8117  1.4339 -0.3310
  594SOL    HW2 1782   1.086   1.863   2.743 -2.1477 -1.6703  0.5449
  595SOL     OW 1783   1.510   0.125   0.991 -0.1047  0.3702  0.0546
  595SOL    HW1 1784   1.573   0.043   0.968  0.6439  1.4747 -0.7286
  595SOL    HW2 1785   1.435   0.127   0.918  1.8906 -1.9554  0.7883
  596SOL     OW 1786   0.133   1.443   2.228  0.3988 -1.2603 -0.5655
  596SOL    HW1 1787   0.056   1.388   2.269 -0.5454  1.7689 -1.6438
  596SOL    HW2 1788   0.183   1.501   2.298 -0.1238  1.7176 -0.4834
  597SOL     OW 1789   2.043   2.677   1.818  0.0767  0.2998  0.0400
  597SOL    HW1 1790   1.989   2.688   1.724 -0.6355  1.0065  0.8921
  597SOL    HW2 1791   2.145   2.653   1.805  1.1483  0.8089  0.3440
  598SOL     OW 1792   2.491   2.842   1.295  0.1034  0.0470  0.3946
  598SOL    HW1 1793   2.568   2.897   1.332 -2.4252  0.7448 -1.9184
  598SOL    HW2 1794   2.488   2.837   1.193 -2.6556 -1.0785  0.9682
  599SOL     OW 1795   2.876   0.262   2.508  0.4871  0.2467  0.1101
  599SOL    HW1 1796   2.960   0.292   2.453  3.0116 -1.0076 -2.0825
  599SOL    HW2 1797   2.793   0.319   2.477 -1.2468  3.2801  3.6328
  600SOL     OW 1798   2.793   1.160   2.773  0.2396  0.3436 -0.1392
  600SOL    HW1 1799   2.750   1.093   2.839  0.3708 -0.0377  1.1367
  600SOL    HW2 1800   2.820   1.249   2.817 -0.9641 -1.9827  0.4288
  601SOL     OW 1801   2.965   1.339   2.000 -0.1281 -0.2172 -0.0277
  601SOL    HW1 1802   2.876   1.372   1.967 -0.6807 -2.0249 -0.2186
  601SOL    HW2 1803   3.045   1.405   1.971  1.4945 -2.5005 -1.4168
  602SOL     OW 1804   1.552   1.551   2.300  0.3516 -0.0244  0.0894
  602SOL    HW1 1805   1.456   1.564   2.336  0.6603  0.2268  2.8998
  602SOL    HW2 1806   1.624   1.598   2.355 -0.1720 -2.6975  0.1053
  603SOL     OW 1807   0.607   1.216   2.705 -0.5018 -0.0719 -0.3205
  603SOL    HW1 1808   0.524   1.253   2.657  1.2405  1.3572 -1.5796
  603SOL    HW2 1809   0.637   1.124   2.672 -1.2849  1.4776 -2.0770
  604SOL     OW 1810   2.508   1.070   0.209  0.6929  0.6701  0.1947
  604SOL    HW1 1811   2.603   1.112   0.212  0.6566 -1.0554  1.2018
  604SOL    HW2 1812   2.496   1.008   0.127  1.9636  1.0821 -1.8008
  605SOL     OW 1813   2.568   1.161   1.929  0.3964  0.6202 -0.6848
  605SOL    HW1 1814   2.604   1.108   1.848 -1.2206  4.1528 -1.2923
  605SOL    HW2 1815   2.638   1.208   1.988 -0.8018 -1.3544 -2.5474
  606SOL     OW 1816   1.527   2.462   2.554  0.3626  0.0637  0.4948
  606SOL    HW1 1817   1.454   2.536   2.573  1.9345 -0.5545  3.9051
  606SOL    HW2 1818   1.484   2.382   2.505 -2.0899  1.4250 -1.5159
  607SOL     OW 1819   1.250   1.592   0.242 -0.1859 -0.3129  0.3068
  607SOL    HW1 1820   1.175   1.660   0.264 -0.2316 -0.5969  1.1572
  607SOL    HW2 1821   1.349   1.625   0.262  1.0105 -0.8726  0.0198
  608SOL     OW 1822   1.372   2.811   0.345 -0.2277  0.0224 -0.1118
  608SOL    HW1 1823   1.440   2.842   0.270 -0.4196 -1.5765 -0.9362
  608SOL    HW2 1824   1.338   2.891   0.401  0.0104 -2.1147 -0.3657
  609SOL     OW 1825   1.325   1.341   0.177 -0.5319  0.7430  0.3336
  609SOL    HW1 1826   1.289   1.436   0.199  0.0792  0.5786 -0.5517
  609SOL    HW2 1827   1.270   1.294   0.103 -4.0965  0.1883 -2.4527
  610SOL     OW 1828   3.008   1.221   2.242  0.3411 -0.0789 -0.7285
  610SOL    HW1 1829   2.982   1.118   2.238  0.2942 -3.6861 -0.4957
  610SOL    HW2 1830   2.993   1.267   2.147 -0.3051  1.4363 -1.2711
  611SOL     OW 1831   2.565   0.218   1.141  0.0401 -0.7564  0.4730
  611SOL    HW1 1832   2.509   0.152   1.194 -0.0249  0.4977 -0.3507
  611SOL    HW2 1833   2.649   0.239   1.192 -3.3896 -1.2060  1.6978
  612SOL     OW 1834   0.775   2.342   1.205 -0.2369  0.4974  0.2267
  612SOL    HW1 1835   0.714   2.278   1.264 -2.0608 -3.3896 -0.0694
  612SOL    HW2 1836   0.731   2.437   1.191 -1.9496 -0.1686 -1.3894
  613SOL     OW 1837   0.779   1.393   2.396 -0.0412 -0.0860  0.1791
  613SOL    HW1 1838   0.795   1.467   2.325  1.1632  0.1288 -0.9101
  613SOL    HW2 1839   0.771   1.301   2.352 -0.9338 -0.7619 -1.8414
  614SOL     OW 1840   1.525   1.653   1.870 -0.4711 -0.4699  0.4874
  614SOL    HW1 1841   1.465   1.679   1.790 -1.7873  1.2761 -1.4289
  614SOL    HW2 1842   1.597   1.719   1.893  1.4532 -0.7147  1.1519
  615SOL     OW 1843   0.730   1.450   1.721 -0.2714  0.5284  0.5744
  615SOL    HW1 1844   0.657   1.408   1.667  2.5039  2.1916  1.8416
  615SOL    HW2 1845   0.811   1.486   1.665  2.6089  0.7085 -0.6302
  616SOL     OW 1846   1.121   1.555   2.220 -0.3609 -0.2803 -0.3525
  616SOL    HW1 1847   1.025   1.523   2.209  0.0879  0.9486  0.6664
  616SOL    HW2 1848   1.156   1.591   2.128 -1.1635  0.6027  0.1764
  617SOL     OW 1849   3.028   1.566   1.640 -0.4752  0.1715  0.1586
  617SOL    HW1 1850   2.946   1.523   1.689 -0.8592  2.4174 -0.9077
  617SOL    HW2 1851   3.047   1.517   1.551  0.8681  1.0874  1.7567
  618SOL     OW 1852   1.904   1.973   1.482 -0.3622  0.1433 -0.1352
  618SOL    HW1 1853   1.965   1.969   1.400 -1.4380  1.9997  2.4616
  618SOL    HW2 1854   1.906   1.883   1.537  0.4919 -0.2487 -0.5265
  619SOL     OW 1855   1.767   0.512   2.349  0.4995  0.8863  0.2632
  619SOL    HW1 1856   1.705   0.582   2.309 -0.3141 -0.8733 -1.8721
  619SOL    HW2 1857   1.724   0.424   2.387 -0.5588 -0.6579  0.0021
  620SOL     OW 1858   2.259   2.917   0.671  0.0812  0.0885  0.2848
  620SOL    HW1 1859   2.185   2.987   0.678  2.2295 -1.7360  2.3972
  620SOL    HW2 1860   2.296   2.894   0.765 -1.2231 -3.0980  0.0940
  621SOL     OW 1861   2.179   1.908   1.345 -0.3553 -0.1269 -0.0438
  621SOL    HW1 1862   2.169   1.873   1.445  1.4739  1.5565  0.5603
  621SOL    HW2 1863   2.179   1.827   1.279  1.9524  1.8163  0.9403
  622SOL     OW 1864   2.218   1.004   1.847  0.1606  0.1994  0.3742
  622SOL    HW1 1865   2.295   0.941   1.865  1.6196  0.9313 -0.3737
  622SOL    HW2 1866   2.135   0.975   1.902  0.8574  2.2940 -0.7934
  623SOL     OW 1867   1.285   0.890   2.567  0.2942  0.8864 -0.0802
  623SOL    HW1 1868   1.238   0.855   2.651  2.0648  1.0658 -2.6128
  623SOL    HW2 1869   1.219   0.896   2.486 -1.8635 -2.6208  3.1874
  624SOL     OW 1870   0.528   0.699   0.043  0.2121  0.0803 -0.4352
  624SOL    HW1 1871   0.571   0.711  -0.048  3.8715 -3.6249 -1.5393
  624SOL    HW2 1872   0.523   0.796   0.081 -4.0443  1.9206 -0.6390
  625SOL     OW 1873   2.768   1.738   0.815  0.3614  0.2759 -0.5334
  625SOL    HW1 1874   2.767   1.720   0.916  0.5877  1.5942 -1.7255
  625SOL    HW2 1875   2.726   1.660   0.760  1.8127  1.0630 -3.1934
  626SOL     OW 1876   0.450   2.765   2.031 -0.9748 -0.0086  0.0557
  626SOL    HW1 1877   0.508   2.849   2.007  0.6637  1.3416  0.5191
  626SOL    HW2 1878   0.362   2.764   1.978 -1.6663 -1.3130 -1.1958
  627SOL     OW 1879   0.748   1.048   1.519 -0.0951 -0.5062 -0.7525
  627SOL    HW1 1880   0.763   0.944   1.526  1.7700 -2.6934  2.7970
  627SOL    HW2 1881   0.808   1.093   1.457 -0.8402 -0.6585  1.4689
  628SOL     OW 1882   2.432   0.159   0.718  0.2750 -0.5191 -0.6606
  628SOL    HW1 1883   2.432   0.077   0.658 -1.2651  0.6564  0.1209
  628SOL    HW2 1884   2.336   0.188   0.742 -3.1352 -1.5730 -0.9550
  629SOL     OW 1885   1.979   0.955   1.983 -0.2486  0.3471 -0.5204
  629SOL    HW1 1886   2.044   0.962   2.068  0.9656 -3.5162 -0.4715
  629SOL    HW2 1887   1.907   1.028   1.979 -1.7194 -1.0624  0.7256
  630SOL     OW 1888   2.812   2.201   0.743  0.1665 -0.0374  0.0066
  630SOL    HW1 1889   2.742   2.258   0.788  3.4215 -0.0819  0.6367
  630SOL    HW2 1890   2.786   2.102   0.712 -2.5797 -0.1429 -1.5959
  631SOL     OW 1891   2.981   0.234   2.129 -1.1607 -0.0846  0.0629
  631SOL    HW1 1892   3.034   0.230   2.219 -2.4344 -0.3289  2.4164
  631SOL    HW2 1893   3.033   0.197   2.042 -1.5051 -0.7574 -1.2178
  632SOL     OW 1894   2.318   2.519   0.764  1.1839 -0.5795 -0.2617
  632SOL    HW1 1895   2.400   2.561   0.816  2.1910 -2.2923  2.4600
  632SOL    HW2 1896   2.313   2.535   0.664 -1.8553  0.7462  1.1599
  633SOL     OW 1897   1.594   1.263   2.670  0.2152  0.4550  0.3416
  633SOL    HW1 1898   1.587   1.346   2.732 -1.9066  2.2830 -1.7316
  633SOL    HW2 1899   1.501   1.249   2.622  1.5267 -1.4535 -1.2447
  634SOL     OW 1900   0.648   2.085   0.954  0.2892  0.8246 -0.6653
  634SOL    HW1 1901   0.564   2.121   1.013 -0.3603  1.0709  0.8151
  634SOL    HW2 1902   0.733   2.141   0.972  2.8979 -2.4117 -2.5996
  635SOL     OW 1903   0.066   2.239   3.020 -0.6573  0.3078 -0.4064
  635SOL    HW1 1904  -0.022   2.276   2.976  2.5128 -0.6319 -1.6435
  635SOL    HW2 1905   0.084   2.295   3.107 -2.9867  1.7332 -2.5735
  636SOL     OW 1906   2.326   2.884   2.044 -0.2148  0.4383 -0.2540
  636SOL    HW1 1907   2.280   2.974   2.022 -0.1908 -2.6767  2.1007
  636SOL    HW2 1908   2.272   2.822   2.111  0.9868 -0.6961  0.3902
  637SOL     OW 1909   2.608   0.710   2.060  0.0892  0.0440  0.4120
  637SOL    HW1 1910   2.583   0.727   1.962  1.2355  0.8471 -0.6964
  637SOL    HW2 1911   2.662   0.786   2.103  0.7386  0.6476 -0.9135
  638SOL     OW 1912   2.463   1.894   1.416 -0.6815  0.0010  0.3679
  638SOL    HW1 1913   2.363   1.900   1.385  1.5794 -1.6923  0.9556
  638SOL    HW2 1914   2.479   1.799   1.436 -2.4918  2.2001 -1.0240
  639SOL     OW 1915   1.314   2.266   1.559  0.1145  0.1307 -0.7027
  639SOL    HW1 1916   1.323   2.173   1.514 -1.1077  0.3246  1.6248
  639SOL    HW2 1917   1.225   2.273   1.613 -0.8497 -1.8510  1.8494
  640SOL     OW 1918   0.220   1.241   1.523  0.0632  0.2559 -0.5472
  640SOL    HW1 1919   0.228   1.296   1.612  0.4978  1.7170 -4.9487
  640SOL    HW2 1920   0.296   1.173   1.505 -2.4371 -0.9229 -1.7595
  641SOL     OW 1921   1.924   0.245   1.437  0.1539  0.2917 -0.6905
  641SOL    HW1 1922   1.852   0.311   1.486 -1.1891  3.0769  1.5196
  641SOL    HW2 1923   1.941   0.158   1.484 -1.5797  0.1061 -0.6663
  642SOL     OW 1924   1.995   0.101   0.300  0.3869  0.1851  0.2200
  642SOL    HW1 1925   2.088   0.111   0.347 -0.3632 -0.0404  0.9073
  642SOL    HW2 1926   1.921   0.094   0.371 -1.3807 -0.4195  1.1350
  643SOL     OW 1927   2.812   1.864   2.123 -0.2251  0.7621  0.3984
  643SOL    HW1 1928   2.786   1.784   2.066  1.0216  2.3905 -0.4931
  643SOL    HW2 1929   2.833   1.951   2.071 -0.4498  0.5695  0.5311
  644SOL     OW 1930   2.168   2.257   1.240 -0.0647 -0.0645  0.1501
  644SOL    HW1 1931   2.261   2.217   1.241  1.8254  0.8905 -2.2765
  644SOL    HW2 1932   2.147   2.314   1.323  1.2378  2.0797  0.1984
  645SOL     OW 1933   0.668   0.859   1.161  0.6880 -0.1716 -0.3546
  645SOL    HW1 1934   0.613   0.794   1.100  2.9521 -1.5933  0.6475
  645SOL    HW2 1935   0.672   0.945   1.102  2.2893 -1.4636  0.8266
  646SOL     OW 1936   1.452   1.946   1.780 -0.3017 -0.4988  0.1452
  646SOL    HW1 1937   1.549   1.989   1.771  1.3235 -0.4067 -1.4186
  646SOL    HW2 1938   1.412   1.945   1.875 -0.5578 -0.4524  2.5179
  647SOL     OW 1939   0.887   0.930   0.679  0.3058 -0.3654  0.7554
  647SOL    HW1 1940   0.986   0.913   0.709  2.1908  0.6857  2.5543
  647SOL    HW2 1941   0.807   0.887   0.731  0.8543  0.0273  0.4929
  648SOL     OW 1942   0.159   0.239   0.330 -0.7706  0.4984  0.4622
  648SOL    HW1 1943   0.134   0.149   0.275 -2.3285 -1.6364 -2.6244
  648SOL    HW2 1944   0.147   0.325   0.272 -0.3737  0.4081 -2.4963
  649SOL     OW 1945   3.086   0.025   0.953 -0.1501 -0.3675  0.3873
  649SOL    HW1 1946   3.189   0.046   0.940  2.1404  0.8950 -0.3045
  649SOL    HW2 1947   3.063   0.065   1.046  0.6838  1.2830 -0.4019
  650SOL     OW 1948   2.722   0.728   1.443 -0.2988  0.1464 -0.1075
  650SOL    HW1 1949   2.625   0.736   1.478  2.5343 -0.7060  0.6093
  650SOL    HW2 1950   2.736   0.791   1.360  0.8258 -2.6301  0.6167
  651SOL     OW 1951   0.917   1.585   1.554  0.0410 -0.3243 -0.4527
  651SOL    HW1 1952   0.972   1.671   1.561  1.6590  2.2570 -1.4294
  651SOL    HW2 1953   0.831   1.604   1.501  0.8082  1.0165 -0.9280
  652SOL     OW 1954   2.293   2.520   2.392 -0.8151 -0.2275  0.1022
  652SOL    HW1 1955   2.227   2.503   2.465  3.2236  0.0390  0.3180
  652SOL    HW2 1956   2.265   2.596   2.324 -0.8591  2.4951 -0.7105
  653SOL     OW 1957   2.752   1.166   0.275  0.9451  0.2722 -0.0906
  653SOL    HW1 1958   2.776   1.263   0.303  0.7780  1.6838  0.3910
  653SOL    HW2 1959   2.830   1.100   0.303 -0.3363  1.3519 -0.8409
  654SOL     OW 1960   1.209   2.230   1.226  0.1835 -0.1468 -0.0621
  654SOL    HW1 1961   1.232   2.153   1.297 -4.1565 -2.9576  1.2622
  654SOL    HW2 1962   1.269   2.223   1.139 -0.8791 -1.7951 -0.7942
  655SOL     OW 1963   0.238   1.051   1.850  0.6220  0.4267  0.4638
  655SOL    HW1 1964   0.280   0.961   1.817 -0.9206 -2.0128  1.0894
  655SOL    HW2 1965   0.309   1.133   1.851 -1.3381 -0.5732  0.4089
  656SOL     OW 1966   2.495   2.432   2.574 -0.1166 -0.3000  0.4048
  656SOL    HW1 1967   2.597   2.442   2.555 -0.9141 -2.4029 -2.4291
  656SOL    HW2 1968   2.437   2.484   2.509 -0.9269  2.5460  0.9392
  657SOL     OW 1969   3.059   1.124   1.856 -0.4527  0.1761  0.5972
  657SOL    HW1 1970   3.034   1.204   1.920  0.9897  1.5284  0.1634
  657SOL    HW2 1971   3.161   1.112   1.842 -1.0655 -1.5624 -1.6235
  658SOL     OW 1972   1.688   0.241   2.381 -0.2207 -0.2746 -0.2344
  658SOL    HW1 1973   1.723   0.169   2.446  0.9643 -1.7382  2.6155
  658SOL    HW2 1974   1.748   0.264   2.296 -2.6228  0.1306  0.1814
  659SOL     OW 1975   1.406   0.594   2.862 -0.1448  0.6254  0.0185
  659SOL    HW1 1976   1.481   0.655   2.894  2.0306 -0.8367 -3.0287
  659SOL    HW2 1977   1.333   0.644   2.805 -1.5828  1.4952 -0.2210
  660SOL     OW 1978   1.408   0.405   1.398  0.1186  0.2596 -0.1188
  660SOL    HW1 1979   1.422   0.402   1.504  1.4565 -0.3049  0.4959
  660SOL    HW2 1980   1.491   0.365   1.355  0.7193  2.6478 -0.2723
  661SOL     OW 1981   2.465   1.149   0.674  0.1409 -0.4201 -0.1884
  661SOL    HW1 1982   2.471   1.068   0.610 -2.7720 -1.2075  0.6270
  661SOL    HW2 1983   2.445   1.240   0.629  0.3241 -0.8716 -0.2322
  662SOL     OW 1984   1.285   0.456   1.825  0.0780 -0.1645 -0.3389
  662SOL    HW1 1985   1.256   0.360   1.796  1.0841  2.0681  3.2490
  662SOL    HW2 1986   1.233   0.492   1.909  1.5693 -1.1209 -2.0123
  663SOL     OW 1987   0.854   1.571   2.166  0.3498 -0.5050  0.3154
  663SOL    HW1 1988   0.823   1.664   2.191 -0.2142 -3.5497 -1.1078
  663SOL    HW2 1989   0.809   1.542   2.075  1.4848  2.2784  0.0802
  664SOL     OW 1990   1.658   2.074   1.405  0.2029  0.8956 -0.4118
  664SOL    HW1 1991   1.573   2.016   1.425 -1.5333  1.8078  2.3390
  664SOL    HW2 1992   1.744   2.027   1.438 -1.7405  0.0233  0.3865
  665SOL     OW 1993   2.295   0.606   1.989  0.2359 -0.2912 -0.1585
  665SOL    HW1 1994   2.307   0.516   2.033 -0.4839  1.4381  1.4862
  665SOL    HW2 1995   2.247   0.679   2.041  1.5478 -0.2200  0.7379
  666SOL     OW 1996   0.506   2.264   0.499 -0.5292 -0.0766 -0.4446
  666SOL    HW1 1997   0.558   2.354   0.512 -0.8879  1.0908  0.9817
  666SOL    HW2 1998   0.449   2.242   0.578 -1.3858  0.1021 -1.9564
  667SOL     OW 1999   2.090   0.257   0.988  0.1769 -0.1394 -0.0357
  667SOL    HW1 2000   2.160   0.330   0.989 -0.7926 -3.3155  2.5045
  667SOL    HW2 2001   2.024   0.256   1.069  0.7863 -2.6519  1.1117
  668SOL     OW 2002   1.962   0.557   1.248  1.1870  1.3154  0.5523
  668SOL    HW1 2003   2.009   0.536   1.158 -2.1305  0.1425  1.9589
  668SOL    HW2 2004   2.011   0.505   1.326 -0.2881 -1.0293  1.3642
  669SOL     OW 2005   2.991   2.078   0.946  0.3204 -0.0312  0.0813
  669SOL    HW1 2006   2.920   2.114   0.882 -2.3498  1.2393 -1.0723
  669SOL    HW2 2007   2.981   2.105   1.042  1.8910  0.2694  1.9909
  670SOL     OW 2008   2.776   2.341   2.007 -0.2321 -0.7164  0.2124
  670SOL    HW1 2009   2.729   2.318   2.094 -0.5210  0.9428 -0.7788
  670SOL    HW2 2010   2.768   2.444   1.980  1.3264  0.0263  0.3655
  671SOL     OW 2011   1.695   1.682   1.465 -0.3290  0.2125  0.0397
  671SOL    HW1 2012   1.747   1.717   1.379 -0.1824 -1.2093  2.1233
  671SOL    HW2 2013   1.589   1.674   1.449 -2.8289  2.6788  1.2035
  672SOL     OW 2014   0.408   0.680   2.437 -0.5311 -0.4060 -0.0249
  672SOL    HW1 2015   0.438   0.679   2.339 -0.2425 -0.1802 -0.5482
  672SOL    HW2 2016   0.308   0.718   2.451  0.6965  1.4484 -1.5162
  673SOL     OW 2017   0.149   1.217   1.140  0.1746  0.5534 -0.3987
  673SOL    HW1 2018   0.174   1.273   1.220  0.0123 -0.4342 -1.8420
  673SOL    HW2 2019   0.224   1.158   1.103 -3.0439  2.0234 -0.1545
  674SOL     OW 2020   1.535   2.876   0.147 -0.0320  0.4473  0.0950
  674SOL    HW1 2021   1.592   2.963   0.145  1.9477  1.3049  1.1875
  674SOL    HW2 2022   1.585   2.796   0.109 -0.0030  2.1512  0.9781
  675SOL     OW 2023   1.748   0.865   2.345 -0.3941  0.2081  0.5936
  675SOL    HW1 2024   1.854   0.846   2.341 -0.8152 -0.8305  1.8506
  675SOL    HW2 2025   1.689   0.790   2.298  0.3014 -2.0459  1.0015
  676SOL     OW 2026   2.502   1.500   2.039 -0.6396  0.4488 -0.0172
  676SOL    HW1 2027   2.469   1.456   1.954  2.3860  0.3072 -0.7539
  676SOL    HW2 2028   2.580   1.441   2.078  1.0213 -0.1142  1.8786
  677SOL     OW 2029   1.864   0.557   0.945  0.2186  0.1275 -0.5613
  677SOL    HW1 2030   1.872   0.634   1.020 -2.0111  3.2087  0.5971
  677SOL    HW2 2031   1.788   0.487   0.966  0.6900 -1.0564  0.5047
  678SOL     OW 2032   0.094   0.841   1.657 -0.3682 -0.0704 -0.2477
  678SOL    HW1 2033   0.186   0.841   1.698 -0.2417  1.9127 -0.2598
  678SOL    HW2 2034   0.015   0.815   1.719  0.2371 -0.0149 -0.5533
  679SOL     OW 2035   2.511   1.169   1.143 -0.7284  0.9629  0.2479
  679SOL    HW1 2036   2.412   1.174   1.168 -2.1519  0.0008  2.1555
  679SOL    HW2 2037   2.533   1.086   1.088 -0.4454 -0.0432 -0.4190
  680SOL     OW 2038   2.853   0.655   1.675  0.5525 -0.0316  0.2538
  680SOL    HW1 2039   2.792   0.698   1.598  0.0361  0.4295 -1.5969
  680SOL    HW2 2040   2.891   0.726   1.741  0.4836  1.4455  2.3841
  681SOL     OW 2041   3.046   0.126   1.651 -0.0107  0.5009 -0.0993
  681SOL    HW1 2042   3.132   0.116   1.588  1.2043 -0.8449  1.4806
  681SOL    HW2 2043   3.009   0.221   1.642  1.0660 -0.0150 -1.7993
  682SOL     OW 2044   0.724   3.099   1.371  0.6434 -0.5082  0.6437
  682SOL    HW1 2045   0.646   3.031   1.398 -2.8301 -1.5781 -1.3568
  682SOL    HW2 2046   0.732   3.117   1.270 -0.5893 -0.6855 -1.8062
  683SOL     OW 2047   1.373   0.237   2.167  0.5776  0.2074  0.2909
  683SOL    HW1 2048   1.368   0.272   2.262 -1.2844  0.0659 -0.3202
  683SOL    HW2 2049   1.455   0.275   2.114  0.0429  0.2849 -0.6771
  684SOL     OW 2050   1.416   2.103   0.460  0.3850  0.2280 -0.0375
  684SOL    HW1 2051   1.474   2.023   0.492  1.3436  0.5929  0.3497
  684SOL    HW2 2052   1.322   2.069   0.428  0.9353 -0.9773 -1.2606
  685SOL     OW 2053   2.116   1.944   1.962 -0.1516  0.2010  0.1521
  685SOL    HW1 2054   2.172   2.001   1.890 -1.7256  1.6987 -0.0849
  685SOL    HW2 2055   2.172   1.871   2.011 -0.5201 -0.4746  1.3840
  686SOL     OW 2056   1.534   1.750   2.770 -0.0271 -0.2501  0.3913
  686SOL    HW1 2057   1.509   1.650   2.746  0.2554 -1.8842 -1.7561
  686SOL    HW2 2058   1.575   1.758   2.867 -1.6929  0.0433 -0.6384
  687SOL     OW 2059   1.353   2.514   1.904  0.2354  0.1349 -0.1639
  687SOL    HW1 2060   1.361   2.432   1.837  1.8021  0.1280  3.0933
  687SOL    HW2 2061   1.412   2.501   1.986 -1.9638  2.2816 -1.5984
  688SOL     OW 2062   2.100   1.501   1.599 -0.1416  0.1126 -0.0873
  688SOL    HW1 2063   2.194   1.532   1.560  0.4829 -0.3163  1.7860
  688SOL    HW2 2064   2.032   1.473   1.525 -2.4258  0.4214 -0.6062
  689SOL     OW 2065   2.435   1.098   2.715 -0.1261 -0.2736 -0.7741
  689SOL    HW1 2066   2.339   1.078   2.753 -0.9446  0.0625  1.0938
  689SOL    HW2 2067   2.512   1.066   2.779 -2.5052 -2.1090 -2.0421
  690SOL     OW 2068   2.210   2.749   3.077  0.2649 -0.0603 -0.3034
  690SOL    HW1 2069   2.137   2.726   3.005 -2.3360  2.3429  0.0256
  690SOL    HW2 2070   2.159   2.769   3.171  0.0750  0.3743  0.7542
  691SOL     OW 2071   2.572   0.481   2.190  0.6764 -0.0520 -0.6759
  691SOL    HW1 2072   2.619   0.400   2.142 -1.7692 -1.5463 -1.4760
  691SOL    HW2 2073   2.574   0.572   2.137 -1.1250  1.4579 -1.9837
  692SOL     OW 2074   2.737   1.204   0.685  0.3328 -0.5135 -0.1833
  692SOL    HW1 2075   2.632   1.190   0.692 -2.4739  0.9730  2.6245
  692SOL    HW2 2076   2.770   1.282   0.742 -0.0661 -0.5589 -0.4836
  693SOL     OW 2077   2.856   2.951   0.584  0.1032 -0.8005  0.5552
  693SOL    HW1 2078   2.878   3.048   0.617 -1.4053  1.9327  1.3309
  693SOL    HW2 2079   2.801   2.950   0.493 -0.2007  0.5292 -2.1981
  694SOL     OW 2080   2.371   2.114   0.075  0.6405 -0.0635 -0.0053
  694SOL    HW1 2081   2.340   2.207   0.075  0.8768 -0.2112  1.7800
  694SOL    HW2 2082   2.284   2.053   0.077 -0.2090 -1.6133 -0.1459
  695SOL     OW 2083   0.544   2.922   1.491  0.1769 -0.6778 -0.3967
  695SOL    HW1 2084   0.503   2.828   1.482  1.0012 -3.9028  1.9234
  695SOL    HW2 2085   0.523   2.964   1.588 -2.3501  0.1679  0.3217
  696SOL     OW 2086   2.719   1.964   0.674  0.8207 -0.0648 -0.2082
  696SOL    HW1 2087   2.751   1.881   0.720 -0.9720  1.3616  0.0318
  696SOL    HW2 2088   2.655   1.945   0.596  1.8324 -1.1455 -0.3395
  697SOL     OW 2089   1.678   2.085   1.742 -0.3452 -0.3703 -0.0476
  697SOL    HW1 2090   1.743   2.003   1.765  2.0756  1.7045 -1.2185
  697SOL    HW2 2091   1.726   2.158   1.684 -0.3222 -2.1184 -2.8665
  698SOL     OW 2092   2.931   0.317   2.793 -0.1258 -0.3384  0.1705
  698SOL    HW1 2093   2.924   0.294   2.687  0.1691  0.4916  0.3795
  698SOL    HW2 2094   2.994   0.250   2.839 -1.7292  1.0338 -0.9843
  699SOL     OW 2095   1.535   0.115   2.931 -0.5463  0.3488  0.0197
  699SOL    HW1 2096   1.523   0.010   2.920  1.6234 -0.5183  0.3713
  699SOL    HW2 2097   1.585   0.165   2.851 -1.2136 -0.2046 -1.8676
  700SOL     OW 2098   0.983   2.353   1.403  0.1394  0.0309  0.0393
  700SOL    HW1 2099   1.084   2.353   1.372  2.7912  0.5487  1.3326
  700SOL    HW2 2100   0.913   2.358   1.326  0.6655 -0.6227  2.3529
  701SOL     OW 2101   1.859   2.805   0.039  0.3637  0.1510 -0.3393
  701SOL    HW1 2102   1.890   2.770   0.134 -2.5817  2.0958  1.5691
  701SOL    HW2 2103   1.906   2.891   0.008 -0.0967  0.8841 -2.4354
  702SOL     OW 2104   2.094   1.395   1.870 -0.5271 -0.0780 -0.4265
  702SOL    HW1 2105   2.180   1.337   1.893  3.2782  0.2271  0.9425
  702SOL    HW2 2106   2.114   1.448   1.786  1.5645 -0.6250  0.6129
  703SOL     OW 2107   1.982   0.840   1.471  0.5410 -0.0716 -0.1337
  703SOL    HW1 2108   1.964   0.748   1.520  0.2567  1.3969  0.8027
  703SOL    HW2 2109   2.048   0.893   1.527  0.2429  0.5390  0.1006
  704SOL     OW 2110   0.331   2.037   1.766 -0.3334  0.5484  0.4971
  704SOL    HW1 2111   0.335   1.985   1.857 -0.1078  1.8708  2.2180
  704SOL    HW2 2112   0.396   2.111   1.761  0.2016  0.8182  1.3082
  705SOL     OW 2113   2.541   1.409   0.852 -0.0349  0.3850 -0.7241
  705SOL    HW1 2114   2.436   1.396   0.861 -1.8687 -0.8384 -0.9985
  705SOL    HW2 2115   2.592   1.405   0.945  0.1794  0.2855  0.0314
  706SOL     OW 2116   0.639   1.753   1.911  0.1112  0.5564  0.3482
  706SOL    HW1 2117   0.636   1.658   1.952 -0.1967 -1.5372  0.4007
  706SOL    HW2 2118   0.726   1.809   1.945  4.4436 -1.4821  0.3364
  707SOL     OW 2119   2.302   1.240   1.950  0.4391  0.1761 -0.0083
  707SOL    HW1 2120   2.398   1.224   1.994 -0.8798  0.3222  0.7884
  707SOL    HW2 2121   2.262   1.151   1.915  0.8606  0.4947  0.0853
  708SOL     OW 2122   3.066   0.487   3.030 -0.4460  0.6362  0.2281
  708SOL    HW1 2123   3.119   0.542   2.956  2.6678  3.8456  0.2746
  708SOL    HW2 2124   3.071   0.385   3.009  1.1454 -3.3706  1.9668
  709SOL     OW 2125   1.771   1.862   0.291 -0.4128 -0.1015 -0.2581
  709SOL    HW1 2126   1.792   1.945   0.352 -0.0130 -1.6332  0.2349
  709SOL    HW2 2127   1.827   1.853   0.207  0.0542  0.8831 -2.2177
  710SOL     OW 2128   1.759   1.639   2.453 -0.0020  0.6720  0.0848
  710SOL    HW1 2129   1.824   1.615   2.370  0.9208 -1.8194 -1.1274
  710SOL    HW2 2130   1.793   1.605   2.548 -1.3313  0.7294 -0.5264
  711SOL     OW 2131   2.637   2.954   0.964 -0.2419 -0.1274 -0.0200
  711SOL    HW1 2132   2.650   3.056   0.933 -3.8642 -0.7781 -0.3815
  711SOL    HW2 2133   2.728   2.909   1.001  0.3486  1.7725  3.4647
  712SOL     OW 2134   1.465   2.279   1.777  0.5472 -0.4744 -0.0789
  712SOL    HW1 2135   1.530   2.202   1.796 -0.0806 -1.1671 -1.3905
  712SOL    HW2 2136   1.413   2.275   1.684 -1.6302  2.5644 -0.0229
  713SOL     OW 2137   2.831   1.347   2.482  0.1776  0.4876 -0.3625
  713SOL    HW1 2138   2.821   1.241   2.468  2.9734 -2.9830  0.0555
  713SOL    HW2 2139   2.754   1.386   2.535 -0.8493  1.1036  1.3494
  714SOL     OW 2140   2.638   0.452   2.447  0.5338 -0.5429  0.7080
  714SOL    HW1 2141   2.575   0.418   2.524 -0.3048 -2.3471  0.4897
  714SOL    HW2 2142   2.592   0.466   2.354 -0.5395  1.3366  0.6061
  715SOL     OW 2143   1.612   2.118   1.124  0.2514  0.4633 -0.5664
  715SOL    HW1 2144   1.591   2.218   1.107  1.2277  1.0411  2.0500
  715SOL    HW2 2145   1.630   2.099   1.226  2.8222  1.8030  0.4633
  716SOL     OW 2146   1.223   0.215   1.456 -0.0037  0.0358  0.1005
  716SOL    HW1 2147   1.125   0.237   1.484 -1.0399  0.2128 -1.2255
  716SOL    HW2 2148   1.280   0.299   1.441  0.3224 -0.2964  1.5739
  717SOL     OW 2149   1.065   0.624   1.597 -0.4727 -0.3408  0.0462
  717SOL    HW1 2150   1.153   0.662   1.632 -2.4701  0.9468  0.2052
  717SOL    HW2 2151   1.076   0.595   1.497  0.6751  0.2360  2.4600
  718SOL     OW 2152   0.657   1.087   0.979  0.1545  0.1586 -0.0031
  718SOL    HW1 2153   0.633   1.103   0.881  1.1724  0.5227  2.0744
  718SOL    HW2 2154   0.720   1.159   1.018 -0.1826 -3.3905  0.1247
  719SOL     OW 2155   0.759   1.845   2.248 -0.4085 -0.1901  0.2192
  719SOL    HW1 2156   0.812   1.886   2.324 -0.9931 -0.8722 -3.6272
  719SOL    HW2 2157   0.664   1.828   2.271 -2.7858  1.2896 -2.5857
  720SOL     OW 2158   2.254   1.116   0.234  0.0721  0.5036  0.0863
  720SOL    HW1 2159   2.352   1.077   0.228  1.8121 -0.6357  3.1714
  720SOL    HW2 2160   2.219   1.118   0.333 -0.2243  3.1264  1.0112
  721SOL     OW 2161   2.205   0.048   2.062  0.2542 -0.3661 -0.8639
  721SOL    HW1 2162   2.229   0.108   1.980  0.3596 -0.9799 -1.2144
  721SOL    HW2 2163   2.109   0.065   2.099 -0.0921 -1.1450  0.8553
  722SOL     OW 2164   2.356   1.669   0.502  0.5934  0.3339 -0.1199
  722SOL    HW1 2165   2.328   1.680   0.400  0.2774 -0.1723  0.2650
  722SOL    HW2 2166   2.278   1.635   0.560  2.0107  0.6054 -0.1003
  723SOL     OW 2167   2.568   2.837   1.896 -0.4993  0.1167 -0.0729
  723SOL    HW1 2168   2.627   2.885   1.971  2.1115  1.8946  2.4625
  723SOL    HW2 2169   2.468   2.845   1.923  1.4108 -2.0214  0.4783
  724SOL     OW 2170   0.381   2.431   2.415 -0.6868 -0.4159  0.2888
  724SOL    HW1 2171   0.279   2.453   2.401  0.0250 -0.1148 -0.3122
  724SOL    HW2 2172   0.412   2.395   2.512 -0.6922  0.5691  0.0823
  725SOL     OW 2173   2.279   2.756   1.443 -0.4530  0.0005  0.3955
  725SOL    HW1 2174   2.353   2.798   1.390 -1.9297  0.5061  3.7843
  725SOL    HW2 2175   2.314   2.669   1.490  2.9035  2.4165 -2.4903
  726SOL     OW 2176   2.386   2.254   0.792 -0.1746 -0.1995  0.5417
  726SOL    HW1 2177   2.349   2.352   0.802 -3.2289  1.8116 -1.4933
  726SOL    HW2 2178   2.360   2.210   0.703  3.3696 -1.9432  1.5864
  727SOL     OW 2179   0.219   3.094   0.153  0.1522 -0.9660  0.1833
  727SOL    HW1 2180   0.286   3.018   0.143  1.6487  0.2264 -1.1071
  727SOL    HW2 2181   0.247   3.182   0.105  1.9647  0.8203  2.0477
  728SOL     OW 2182   2.801   0.708   1.045  0.9852 -0.6547 -0.0867
  728SOL    HW1 2183   2.743   0.642   0.991 -0.1568  1.7456 -0.4269
  728SOL    HW2 2184   2.811   0.678   1.146  0.8483  0.7602  1.1304
  729SOL     OW 2185   2.902   2.468   0.757  0.0071 -0.3253  0.4679
  729SOL    HW1 2186   2.891   2.369   0.729  0.5427  0.2685  0.7829
  729SOL    HW2 2187   3.004   2.498   0.756 -3.0693  1.4920 -0.1747
  730SOL     OW 2188   2.604   0.566   0.879  0.5943  0.2857  0.1082
  730SOL    HW1 2189   2.593   0.665   0.839 -1.4511  1.0001 -0.5611
  730SOL    HW2 2190   2.668   0.513   0.808 -2.3169 -0.7169 -0.9249
  731SOL     OW 2191   0.052   2.128   2.462  0.2624  0.0464  0.3694
  731SOL    HW1 2192   0.078   2.191   2.541  3.8991  0.0838  0.6060
  731SOL    HW2 2193  -0.025   2.057   2.490 -1.3165 -1.1644 -1.5042
  732SOL     OW 2194   1.137   2.836   1.966 -0.0957 -0.3832  0.7275
  732SOL    HW1 2195   1.162   2.781   2.050 -1.0459 -1.6024  1.3741
  732SOL    HW2 2196   1.179   2.798   1.880 -0.6832  0.9979  0.5028
  733SOL     OW 2197   3.025   0.720   2.104  0.1190  0.0907  0.0502
  733SOL    HW1 2198   3.114   0.775   2.100  1.3358 -0.1149  0.5876
  733SOL    HW2 2199   3.032   0.624   2.065 -1.3797 -0.8689  2.5661
  734SOL     OW 2200   1.400   0.362   2.700  0.5131 -0.0474  0.0347
  734SOL    HW1 2201   1.415   0.446   2.753 -3.1494  1.3197 -1.4414
  734SOL    HW2 2202   1.337   0.295   2.755  0.0833  0.8512  1.1555
  735SOL     OW 2203   2.830   2.589   2.277 -0.1549  0.0349 -0.1654
  735SOL    HW1 2204   2.732   2.604   2.235 -0.7262 -1.1002  0.1236
  735SOL    HW2 2205   2.904   2.586   2.207 -1.6957  1.2057  2.2261
  736SOL     OW 2206   0.791   0.363   2.635 -0.3945  0.1956  0.6146
  736SOL    HW1 2207   0.750   0.458   2.636  3.3479 -2.1607  4.0835
  736SOL    HW2 2208   0.809   0.324   2.540 -3.3155 -0.8813  0.3309
  737SOL     OW 2209   2.684   0.462   2.808  0.3325 -0.0407  0.3078
  737SOL    HW1 2210   2.663   0.455   2.907  2.0614  0.6780  0.3024
  737SOL    HW2 2211   2.769   0.412   2.780 -0.3255  2.3182 -0.1832
  738SOL     OW 2212   1.662   1.208   3.032 -0.0245 -0.3317 -0.2124
  738SOL    HW1 2213   1.755   1.182   2.994  1.4837  3.6856  1.3605
  738SOL    HW2 2214   1.582   1.161   2.982 -1.4037  0.0020 -0.0918
  739SOL     OW 2215   1.750   0.624   0.693 -0.4239 -0.4395 -0.0441
  739SOL    HW1 2216   1.791   0.614   0.788  0.5630  2.3272 -0.7981
  739SOL    HW2 2217   1.797   0.557   0.626  0.2485  0.3209 -2.6080
  740SOL     OW 2218   1.931   1.965   2.149 -0.4158  0.3791 -0.5811
  740SOL    HW1 2219   2.009   1.965   2.080 -1.8790  1.1409 -1.9082
  740SOL    HW2 2220   1.851   1.908   2.108 -0.8192  0.8553  0.7661
  741SOL     OW 2221   2.496   0.140   2.563 -0.0478  0.6031 -0.2556
  741SOL    HW1 2222   2.585   0.097   2.591 -0.5977  0.1331 -0.2813
  741SOL    HW2 2223   2.465   0.108   2.466  0.2072  0.2848 -3.0928
  742SOL     OW 2224   2.256   1.376   0.094  0.2049 -0.0730 -0.5358
  742SOL    HW1 2225   2.168   1.408   0.128  2.4310 -1.8548 -0.7493
  742SOL    HW2 2226   2.304   1.308   0.155 -0.7378  0.1780 -0.1033
  743SOL     OW 2227   1.748   0.617   2.605  0.2390  0.4252  0.2546
  743SOL    HW1 2228   1.771   0.559   2.521 -1.1215  3.0402  0.5717
  743SOL    HW2 2229   1.680   0.693   2.591  0.5928 -0.3131  1.9825
  744SOL     OW 2230   2.632   2.092   0.022 -0.2600 -0.1574 -0.5760
  744SOL    HW1 2231   2.527   2.093   0.026  0.8778  1.2017 -0.4009
  744SOL    HW2 2232   2.665   2.036   0.100 -0.8215 -0.7948 -0.1711
  745SOL     OW 2233   2.168   2.718   2.209  0.5750 -0.0001 -0.0276
  745SOL    HW1 2234   2.068   2.712   2.175  1.3876  2.0832 -1.8383
  745SOL    HW2 2235   2.170   2.742   2.309  0.3894  1.2885 -2.6242
  746SOL     OW 2236   3.095   2.617   1.834  0.2936 -0.2083  0.0362
  746SOL    HW1 2237   3.198   2.613   1.819  2.2344  0.7108  0.6939
  746SOL    HW2 2238   3.069   2.716   1.855 -0.1772  0.1441  4.5396
  747SOL     OW 2239   0.002   1.807   1.719  0.6702  0.4284  0.4526
  747SOL    HW1 2240  -0.031   1.708   1.695  0.0196  0.0182  1.2663
  747SOL    HW2 2241   0.076   1.841   1.654  3.2346 -1.5237  0.5400
  748SOL     OW 2242   1.751   2.776   2.887  0.1107 -0.2461  0.0682
  748SOL    HW1 2243   1.780   2.772   2.985  1.1416 -0.7525 -0.4975
  748SOL    HW2 2244   1.651   2.745   2.884  0.6696  3.3262  2.9825
  749SOL     OW 2245   1.272   0.075   0.856  0.2291 -0.1632  0.8103
  749SOL    HW1 2246   1.245  -0.023   0.872  0.5994 -0.8467 -2.2623
  749SOL    HW2 2247   1.287   0.107   0.756 -1.9064  2.4100 -0.9103
  750SOL     OW 2248   2.360   0.229   1.884 -0.8970  0.3368 -0.0623
  750SOL    HW1 2249   2.407   0.292   1.809  0.2145  0.9322 -2.7447
  750SOL    HW2 2250   2.359   0.276   1.981  0.6961  0.2892 -1.6863
  751SOL     OW 2251   0.840   2.234   2.852 -0.4705  0.0273  0.1975
  751SOL    HW1 2252   0.902   2.242   2.933 -1.9770  2.9118  1.5941
  751SOL    HW2 2253   0.760   2.167   2.868 -0.6102 -1.3564 -2.0959
  752SOL     OW 2254   1.235   0.934   1.547 -0.0931  0.3824 -0.6016
  752SOL    HW1 2255   1.303   0.967   1.472  1.4215  0.0420  0.6883
  752SOL    HW2 2256   1.274   0.854   1.602 -0.5537  0.9046 -1.1553
  753SOL     OW 2257   0.927   2.618   1.796 -0.1874 -0.6781  0.6696
  753SOL    HW1 2258   1.012   2.666   1.770 -0.9200  1.3053 -0.0565
  753SOL    HW2 2259   0.843   2.681   1.788  1.8685  2.5346  1.9922
  754SOL     OW 2260   1.139   1.268   3.059  0.7340  0.5649 -0.4531
  754SOL    HW1 2261   1.197   1.207   2.993 -1.8261  0.5652  0.8466
  754SOL    HW2 2262   1.143   1.369   3.032  2.1726  0.5283 -1.3519
  755SOL     OW 2263   2.004   0.528   2.217  0.4379  0.4420 -0.5824
  755SOL    HW1 2264   2.077   0.502   2.280 -1.0835  0.3581 -1.2111
  755SOL    HW2 2265   1.908   0.528   2.264  0.8073  1.5152  2.2193
  756SOL     OW 2266   2.631   0.978   2.919 -0.0237 -0.5000  0.4033
  756SOL    HW1 2267   2.721   0.924   2.904 -1.8221  0.3319 -1.6780
  756SOL    HW2 2268   2.563   0.926   2.974  1.0467 -1.1609 -2.2072
  757SOL     OW 2269   0.113   0.548   1.695 -0.6859 -0.2438 -0.4809
  757SOL    HW1 2270   0.128   0.648   1.671  1.2370  1.6083 -1.2132
  757SOL    HW2 2271   0.135   0.487   1.618 -1.8658  0.8265 -0.5646
  758SOL     OW 2272   2.422   3.093   1.531  0.3074  0.3307 -0.3883
  758SOL    HW1 2273   2.342   3.035   1.566  1.3260 -0.9812 -0.5087
  758SOL    HW2 2274   2.422   3.105   1.425  2.2936 -0.9885 -3.0396
  759SOL     OW 2275   1.661   0.003   0.070 -0.3537  0.7722 -0.0399
  759SOL    HW1 2276   1.621   0.056  -0.011  2.0998 -1.0456  0.9273
  759SOL    HW2 2277   1.765  -0.001   0.058 -1.3363  2.0958 -1.4399
  760SOL     OW 2278   2.731   2.005   2.814  0.2442  0.0998  0.2767
  760SOL    HW1 2279   2.813   1.954   2.775  0.8618 -3.5635  0.8634
  760SOL    HW2 2280   2.757   2.108   2.822 -0.0117  0.8419 -1.5000
  761SOL     OW 2281   1.911   1.729   1.598 -0.3191  0.3271  0.1289
  761SOL    HW1 2282   1.972   1.650   1.620 -1.8049  1.5984 -1.0536
  761SOL    HW2 2283   1.820   1.699   1.550 -2.0094  1.2603  0.1693
  762SOL     OW 2284   0.536   2.411   0.950  0.2233  0.2123  0.6159
  762SOL    HW1 2285   0.571   2.450   0.859  0.3059  1.7028  0.1955
  762SOL    HW2 2286   0.581   2.447   1.032 -1.0733 -0.4938 -2.4188
  763SOL     OW 2287   2.033   1.560   2.957 -0.5166  0.5771 -0.4674
  763SOL    HW1 2288   2.074   1.490   2.893 -0.6823 -1.4845 -0.5839
  763SOL    HW2 2289   1.967   1.520   3.031 -3.8485 -2.2664 -1.3254
  764SOL     OW 2290   0.673   0.529   0.874 -0.1948  0.1069 -0.2660
  764SOL    HW1 2291   0.667   0.455   0.802 -1.5062 -0.7759 -0.5036
  764SOL    HW2 2292   0.764   0.567   0.897 -0.6152  0.6568  0.0850
  765SOL     OW 2293   0.656   0.213   0.795 -0.5183 -0.7231  0.2402
  765SOL    HW1 2294   0.747   0.224   0.750  0.6048 -1.0276  1.0046
  765SOL    HW2 2295   0.665   0.222   0.900 -0.2775  2.4567  0.6564
  766SOL     OW 2296   2.942   2.040   3.078 -0.0746 -0.4504 -0.7996
  766SOL    HW1 2297   2.841   2.054   3.055 -0.0535  1.3974  0.0290
  766SOL    HW2 2298   2.994   2.126   3.071  2.2899 -0.2636  1.6040
  767SOL     OW 2299   2.846   1.570   0.504 -0.1929  0.0628 -0.0301
  767SOL    HW1 2300   2.745   1.560   0.527 -2.2523  2.8179  1.1730
  767SOL    HW2 2301   2.905   1.577   0.590  1.9319  0.0925 -0.9316
  768SOL     OW 2302   1.057   0.280   0.285 -0.0149 -0.1388 -0.1869
  768SOL    HW1 2303   0.984   0.234   0.335  1.7086  1.2110 -1.7100
  768SOL    HW2 2304   1.136   0.215   0.267 -0.5029  0.7799  0.6650
  769SOL     OW 2305   1.223   1.819   2.297  0.6043  0.1540  0.8630
  769SOL    HW1 2306   1.304   1.817   2.368  0.4169 -0.5580  2.2513
  769SOL    HW2 2307   1.175   1.735   2.271 -1.0680 -0.8659 -0.1480
  770SOL     OW 2308   0.142   1.135   2.360 -0.4000  0.2650 -0.8341
  770SOL    HW1 2309   0.152   1.184   2.452 -0.7393 -1.7277  0.5675
  770SOL    HW2 2310   0.056   1.169   2.304  1.5631 -2.6245  0.8097
  771SOL     OW 2311   2.934   2.837   1.936  0.5647  0.0286 -0.5708
  771SOL    HW1 2312   2.952   2.919   1.875  0.1045 -2.1101  0.0358
  771SOL    HW2 2313   2.880   2.865   2.022 -1.3078 -0.3849  3.9696
  772SOL     OW 2314   2.125   0.103   2.978 -0.4381 -0.2813  0.2292
  772SOL    HW1 2315   2.202   0.042   3.009 -0.0405  1.8232 -0.5271
  772SOL    HW2 2316   2.118   0.186   3.040 -1.3934 -0.8437  1.8316
  773SOL     OW 2317   0.667   2.097   2.480  0.1080  0.2873  0.3046
  773SOL    HW1 2318   0.623   2.120   2.390 -1.1218  1.6581  1.1005
  773SOL    HW2 2319   0.610   2.120   2.565 -0.9579  1.4045  0.9647
  774SOL     OW 2320   2.026   3.072   2.639 -0.2110 -0.2840  0.7572
  774SOL    HW1 2321   2.022   3.171   2.681 -0.0380 -0.4689 -0.8286
  774SOL    HW2 2322   2.088   3.003   2.683 -0.0461 -0.4040  0.9994
  775SOL     OW 2323   2.503   2.860   2.360  0.0856  0.7413  0.7481
  775SOL    HW1 2324   2.461   2.949   2.334 -0.4754 -1.4657 -0.0677
  775SOL    HW2 2325   2.600   2.872   2.400 -1.0666  0.0587  0.5028
  776SOL     OW 2326   0.015   1.228   0.229 -0.1608 -0.2916  0.6286
  776SOL    HW1 2327  -0.001   1.141   0.181 -0.7206  0.3049 -1.5009
  776SOL    HW2 2328  -0.077   1.271   0.253 -2.0253 -1.9620  1.0183
  777SOL     OW 2329   0.273   2.707   0.454  0.7801  0.2246 -0.0748
  777SOL    HW1 2330   0.171   2.685   0.450 -0.3010 -0.1214 -1.2860
  777SOL    HW2 2331   0.292   2.803   0.490 -1.9741 -0.5219  0.9898
  778SOL     OW 2332   1.341   1.952   0.188 -0.4819 -0.1181  0.0594
  778SOL    HW1 2333   1.264   1.966   0.256 -0.7741 -0.5360  1.6664
  778SOL    HW2 2334   1.365   2.042   0.144 -0.7909  0.5420 -0.3961
  779SOL     OW 2335   0.187   0.805   0.536 -0.4213  0.2005 -0.1147
  779SOL    HW1 2336   0.164   0.717   0.486  1.1673  1.0971 -0.0430
  779SOL    HW2 2337   0.113   0.831   0.606  2.6853 -0.7973 -0.3896
  780SOL     OW 2338   0.003   0.311   2.386  0.3330 -0.2700 -0.6168
  780SOL    HW1 2339  -0.037   0.408   2.369 -0.4267  0.2467  1.4943
  780SOL    HW2 2340   0.093   0.306   2.337 -0.1084 -0.1824  1.5241
  781SOL     OW 2341   0.588   1.736   1.621 -0.1699  0.4772 -0.6277
  781SOL    HW1 2342   0.622   1.761   1.718  1.1348  3.1312  1.6291
  781SOL    HW2 2343   0.532   1.649   1.628  1.8076  0.9175  0.4057
  782SOL     OW 2344   2.639   0.112   0.885  0.3305  0.5697 -0.5244
  782SOL    HW1 2345   2.553   0.103   0.823 -2.4292 -0.3960  1.3969
  782SOL    HW2 2346   2.625   0.173   0.972  0.7385 -1.3645  1.7666
  783SOL     OW 2347   2.818   0.681   2.501 -0.0688 -0.0932  0.0434
  783SOL    HW1 2348   2.783   0.701   2.599  2.9234  0.5609 -0.6536
  783SOL    HW2 2349   2.756   0.597   2.470  0.2424 -2.1402  0.7775
  784SOL     OW 2350   1.385   2.172   0.040 -0.3438  0.3556 -0.5814
  784SOL    HW1 2351   1.485   2.197   0.055  3.5068 -0.2287  0.8929
  784SOL    HW2 2352   1.368   2.142  -0.056 -1.4990  0.8334  1.0294
  785SOL     OW 2353   2.134   0.346   0.016  0.2284  0.5054 -0.1216
  785SOL    HW1 2354   2.047   0.367   0.065  3.2267 -2.7457 -1.5924
  785SOL    HW2 2355   2.177   0.426  -0.036  0.4074 -2.9122  1.4216
  786SOL     OW 2356   2.047   2.155   2.309  0.3452  0.6083 -0.0791
  786SOL    HW1 2357   1.972   2.095   2.254 -0.1146 -2.6221 -2.3500
  786SOL    HW2 2358   2.141   2.103   2.310  1.5283  0.2598 -1.7284
  787SOL     OW 2359   1.427   0.612   0.799  0.5542 -0.0161 -0.6289
  787SOL    HW1 2360   1.376   0.704   0.784 -3.7453  0.9748 -0.1031
  787SOL    HW2 2361   1.472   0.572   0.718 -2.8499 -1.6018 -0.7792
  788SOL     OW 2362   1.216   0.467   3.013 -0.1637  0.4402 -0.4087
  788SOL    HW1 2363   1.128   0.475   2.967  2.3035  1.0900 -1.1111
  788SOL    HW2 2364   1.298   0.506   2.957 -1.3102 -1.4717  0.3985
  789SOL     OW 2365   2.652   0.096   1.879  0.5408 -0.3659 -0.0021
  789SOL    HW1 2366   2.556   0.072   1.871  1.4444  0.1092 -0.3549
  789SOL    HW2 2367   2.719   0.019   1.853 -0.8983 -2.0610  0.7692
  790SOL     OW 2368   2.611   2.670   0.807  0.2284 -0.3819  0.2566
  790SOL    HW1 2369   2.660   2.693   0.722 -1.4835  2.7564 -0.2073
  790SOL    HW2 2370   2.627   2.746   0.880  2.2153  1.2109 -1.0674
  791SOL     OW 2371   1.968   1.224   0.234 -0.5016 -0.6389 -0.2406
  791SOL    HW1 2372   1.889   1.164   0.261  2.2621 -0.2584 -2.7502
  791SOL    HW2 2373   2.033   1.177   0.168 -0.5319 -2.8440 -2.2755
  792SOL     OW 2374   0.427   1.973   2.184 -0.2132 -0.5707 -0.0375
  792SOL    HW1 2375   0.445   2.075   2.197  2.5562  1.1275  0.3941
  792SOL    HW2 2376   0.344   1.944   2.240  0.2138 -0.4131  1.2821
  793SOL     OW 2377   2.094   1.500   2.131  0.3654 -0.5909 -0.8792
  793SOL    HW1 2378   2.177   1.548   2.110 -3.6947  1.0102 -1.2222
  793SOL    HW2 2379   2.069   1.462   2.034  2.4362  0.4179 -1.5454
  794SOL     OW 2380   0.522   1.510   2.458  0.0756  0.7714 -0.2749
  794SOL    HW1 2381   0.593   1.451   2.416 -1.2253 -0.2191  1.6037
  794SOL    HW2 2382   0.432   1.504   2.402  2.0555 -3.6451 -2.6936
  795SOL     OW 2383   2.505   2.300   1.801 -0.1719 -0.3542  0.0310
  795SOL    HW1 2384   2.552   2.304   1.894 -1.4983  2.5698 -1.3936
  795SOL    HW2 2385   2.423   2.236   1.795 -2.8203 -0.7542  0.5945
  796SOL     OW 2386   3.046   1.083   2.722 -0.0483  0.1881 -0.3183
  796SOL    HW1 2387   2.954   1.118   2.762 -3.1649  1.2913  0.4927
  796SOL    HW2 2388   3.130   1.096   2.784  1.2946  0.3357  0.3317
  797SOL     OW 2389   0.651   0.653   1.347 -0.0975 -0.2431  0.2290
  797SOL    HW1 2390   0.683   0.681   1.441  0.2045  0.2857  1.5603
  797SOL    HW2 2391   0.653   0.727   1.273  1.5976 -0.5128 -2.0215
  798SOL     OW 2392   1.173   0.514   0.905  0.3022  0.0992  0.1424
  798SOL    HW1 2393   1.197   0.509   1.003  1.2630  1.3497 -2.2007
  798SOL    HW2 2394   1.258   0.520   0.844  1.6125  1.0776 -0.4532
  799SOL     OW 2395   1.830   2.698   0.999  0.3574 -0.1726 -0.4090
  799SOL    HW1 2396   1.815   2.600   1.014 -0.7910  1.4547  0.3003
  799SOL    HW2 2397   1.881   2.721   0.911  0.7823  3.0049 -0.5768
  800SOL     OW 2398   2.983   0.845   1.852  0.7293 -0.1906  0.2182
  800SOL    HW1 2399   3.016   0.942   1.854  1.1383  0.1867  0.9784
  800SOL    HW2 2400   3.000   0.803   1.943  0.2993  0.7662  1.2233
  801SOL     OW 2401   1.963   2.175   0.101 -0.0728  0.1287 -0.2411
  801SOL    HW1 2402   1.866   2.151   0.085  0.8474  0.3991  0.8569
  801SOL    HW2 2403   2.029   2.094   0.103  0.2812  0.1152 -0.1191
  802SOL     OW 2404   0.682   0.618   2.530  0.1483  0.4810  0.7596
  802SOL    HW1 2405   0.730   0.639   2.442  1.6500  0.2595  1.0889
  802SOL    HW2 2406   0.581   0.633   2.516 -0.2145 -0.9774  0.0280
  803SOL     OW 2407   0.929   0.075   0.897 -0.2042  0.0129 -0.0619
  803SOL    HW1 2408   0.980   0.145   0.957  0.8475  2.3610 -0.1231
  803SOL    HW2 2409   0.919   0.110   0.797 -1.3304  2.1388  1.2636
  804SOL     OW 2410   0.293   0.024   2.183 -0.5401  0.5547 -0.4067
  804SOL    HW1 2411   0.261   0.121   2.188 -0.0941 -1.1969 -0.8709
  804SOL    HW2 2412   0.248  -0.022   2.104 -0.0510  1.4547  1.0003
  805SOL     OW 2413   2.415   0.381   0.339 -0.1069  0.5107 -0.0728
  805SOL    HW1 2414   2.477   0.339   0.410  1.4197 -0.9744 -0.6626
  805SOL    HW2 2415   2.390   0.317   0.259 -2.2775 -1.1275 -3.0233
  806SOL     OW 2416   0.574   2.613   1.842 -0.4457  0.7286  0.3979
  806SOL    HW1 2417   0.539   2.660   1.929 -2.7774  3.2782  1.2200
  806SOL    HW2 2418   0.623   2.675   1.780  0.0264 -0.6853  1.9569
  807SOL     OW 2419   2.516   0.948   0.467  0.0255  0.1543  0.0327
  807SOL    HW1 2420   2.593   0.875   0.478 -0.9815  0.5456  1.6221
  807SOL    HW2 2421   2.513   0.982   0.367 -0.5664  1.2655 -1.4480
  808SOL     OW 2422   0.652   2.018   2.904  0.4730  0.4272 -0.0515
  808SOL    HW1 2423   0.627   2.064   2.994  1.3390 -2.6218 -0.0215
  808SOL    HW2 2424   0.664   1.913   2.912 -2.2139 -0.3864  1.1847
  809SOL     OW 2425   2.587   1.970   1.912  0.2639  0.0629  0.1275
  809SOL    HW1 2426   2.680   2.009   1.927  2.1661 -0.9659  0.8768
  809SOL    HW2 2427   2.560   1.985   1.817 -1.8944 -0.9556  1.5244
  810SOL     OW 2428   2.209   1.115   0.488 -0.4126 -0.0894  0.2039
  810SOL    HW1 2429   2.139   1.045   0.506 -0.2917 -0.1895 -1.6544
  810SOL    HW2 2430   2.182   1.201   0.540  2.9186 -0.9678  1.0391
  811SOL     OW 2431   1.294   2.512   1.161  0.0469 -0.6863 -0.8512
  811SOL    HW1 2432   1.235   2.434   1.133 -0.1091 -0.3700  0.4793
  811SOL    HW2 2433   1.356   2.498   1.242 -2.0155 -2.5389  0.8701
  812SOL     OW 2434   1.474   0.747   1.938  0.6039  0.1338  0.5544
  812SOL    HW1 2435   1.373   0.729   1.951 -0.6568 -4.2939 -0.1786
  812SOL    HW2 2436   1.484   0.832   1.885 -0.2540  0.6182  2.1106
  813SOL     OW 2437   1.663   2.072   2.388  0.1538 -0.3276  0.3973
  813SOL    HW1 2438   1.755   2.038   2.422  2.2526  0.8623 -0.7661
  813SOL    HW2 2439   1.637   2.033   2.294  3.4153  0.4784 -0.7892
  814SOL     OW 2440   2.987   1.671   2.888 -0.4805 -0.1700  0.4805
  814SOL    HW1 2441   2.994   1.598   2.956 -1.4348 -1.2288 -0.3229
  814SOL    HW2 2442   3.018   1.762   2.925  0.3030 -1.7466 -0.8124
  815SOL     OW 2443   2.186   2.874   2.739 -0.1325  0.1607 -0.2498
  815SOL    HW1 2444   2.145   2.796   2.793  1.5375 -1.0128 -2.3195
  815SOL    HW2 2445   2.261   2.928   2.793  1.9811 -0.8500  0.9794
  816SOL     OW 2446   1.488   0.364   1.653 -0.1987  0.8103 -0.9154
  816SOL    HW1 2447   1.535   0.285   1.697  0.4227  0.7666 -1.9890
  816SOL    HW2 2448   1.439   0.418   1.727 -3.1478 -0.4766 -1.0201
  817SOL     OW 2449   0.368   1.319   2.619 -0.0634 -0.4853 -0.0452
  817SOL    HW1 2450   0.266   1.336   2.597  1.6389 -0.3242 -2.4459
  817SOL    HW2 2451   0.425   1.375   2.550 -2.9311  1.7835 -0.9719
  818SOL     OW 2452   2.011   0.866   0.467 -0.1641  0.1916 -0.2115
  818SOL    HW1 2453   2.109   0.850   0.425 -1.0861 -3.5519 -0.2458
  818SOL    HW2 2454   2.008   0.849   0.573 -1.7747  0.3240  1.1171
  819SOL     OW 2455   2.795   2.894   3.020  0.1651  0.5338 -0.6159
  819SOL    HW1 2456   2.857   2.810   3.022  1.0538 -1.0664  0.1332
  819SOL    HW2 2457   2.720   2.898   2.942 -1.2907 -1.1179 -2.3699
  820SOL     OW 2458   1.262   1.041   0.536 -0.2341 -0.3180 -0.2518
  820SOL    HW1 2459   1.260   1.134   0.587  2.6533 -1.6741  0.7589
  820SOL    HW2 2460   1.237   0.962   0.603 -3.9897  2.5127  1.9210
  821SOL     OW 2461   0.068   1.236   0.689 -0.0971  0.4973  0.1221
  821SOL    HW1 2462   0.026   1.211   0.782 -2.5225 -0.0793  3.2473
  821SOL    HW2 2463   0.141   1.306   0.694 -1.7568 -1.6806 -3.4518
  822SOL     OW 2464   2.535   1.726   2.476  0.0430  0.0771 -0.1031
  822SOL    HW1 2465   2.534   1.790   2.556 -0.4762  1.3402 -0.5381
  822SOL    HW2 2466   2.440   1.727   2.430 -0.5235  0.5149 -0.7062
  823SOL     OW 2467   2.025   0.919   1.220  0.2056 -0.6107 -0.1179
  823SOL    HW1 2468   2.001   0.896   1.316  1.2880  0.5993 -2.0528
  823SOL    HW2 2469   1.953   0.871   1.159 -0.8990 -0.9205  2.5245
  824SOL     OW 2470   0.181   1.880   2.797 -0.2478 -0.4285  0.4942
  824SOL    HW1 2471   0.223   1.854   2.891  3.6570  0.3704  1.3043
  824SOL    HW2 2472   0.251   1.898   2.722  1.1779  1.7921  1.4697
  825SOL     OW 2473   1.301   1.069   0.266 -0.1332 -0.3578  0.3957
  825SOL    HW1 2474   1.285   1.166   0.235  0.5364  0.9297  0.8834
  825SOL    HW2 2475   1.283   1.052   0.367  0.1778  1.4085 -3.0543
  826SOL     OW 2476   1.941   0.606   1.584  0.2753  0.1728 -0.4280
  826SOL    HW1 2477   2.031   0.553   1.585 -0.9753  0.8822  1.5894
  826SOL    HW2 2478   1.863   0.544   1.554  1.1533  0.3998 -1.0725
  827SOL     OW 2479   0.703   1.179   0.460 -0.0082 -0.4968  0.7313
  827SOL    HW1 2480   0.798   1.134   0.462  0.5146 -0.6959  0.7119
  827SOL    HW2 2481   0.627   1.110   0.475  2.1443  1.1252  2.8474
  828SOL     OW 2482   2.639   0.162   1.535  0.1439  0.3586  0.3770
  828SOL    HW1 2483   2.551   0.112   1.520  2.3159  1.2586  0.8703
  828SOL    HW2 2484   2.655   0.182   1.633 -0.1093  0.5455  1.4684
  829SOL     OW 2485   2.928   2.379   2.976  0.0787 -0.2664 -0.0227
  829SOL    HW1 2486   2.826   2.371   2.995 -1.6103 -1.3302  2.6926
  829SOL    HW2 2487   2.957   2.478   2.959  2.5188 -1.9540 -1.6816
  830SOL     OW 2488   2.917   0.919   2.996  0.2756  0.8124  0.5244
  830SOL    HW1 2489   2.955   1.013   3.024 -0.1935  0.2050 -1.1758
  830SOL    HW2 2490   2.915   0.846   3.070  3.3530 -1.0015 -1.2948
  831SOL     OW 2491   0.119   0.564   0.441 -0.3427  0.1639  0.0202
  831SOL    HW1 2492   0.077   0.507   0.519 -1.6208 -0.3591 -1.5732
  831SOL    HW2 2493   0.141   0.513   0.353  0.6742  0.1801  1.4151
  832SOL     OW 2494   1.793   0.716   3.064 -0.2449  0.3285  0.3172
  832SOL    HW1 2495   1.705   0.763   3.042  1.3677  1.0464  1.7353
  832SOL    HW2 2496   1.778   0.613   3.057 -1.1621 -1.7939  0.7194
  833SOL     OW 2497   2.358   2.120   0.523 -0.2363  0.2313  0.3152
  833SOL    HW1 2498   2.264   2.083   0.512  0.6470 -1.4286  0.2032
  833SOL    HW2 2499   2.434   2.055   0.491  2.8297  0.6543 -0.6646
  834SOL     OW 2500   0.140   0.055   0.553 -0.4145 -0.0503 -0.2030
  834SOL    HW1 2501   0.204  -0.021   0.546 -1.1366  2.0950  2.0464
  834SOL    HW2 2502   0.145   0.123   0.474 -1.5852 -1.5548 -2.2018
  835SOL     OW 2503   2.436   1.621   1.154  0.3785  0.6997  0.6357
  835SOL    HW1 2504   2.522   1.564   1.174  1.4420 -0.9987  1.9131
  835SOL    HW2 2505   2.461   1.713   1.123 -1.2988  0.2712 -1.5806
  836SOL     OW 2506   1.560   0.814   2.579  0.1733  0.0457 -0.5923
  836SOL    HW1 2507   1.458   0.814   2.584 -2.0068  1.5958  0.1490
  836SOL    HW2 2508   1.595   0.837   2.483 -1.7044 -0.6969 -1.6653
  837SOL     OW 2509   1.712   0.118   0.532  0.5182 -0.5162  0.2502
  837SOL    HW1 2510   1.670   0.199   0.585  3.2865  1.6435 -1.1360
  837SOL    HW2 2511   1.661   0.106   0.446  0.6779  0.6896  1.4789
  838SOL     OW 2512   1.230   1.467   2.696 -0.4337  0.0860  0.0730
  838SOL    HW1 2513   1.177   1.547   2.739  2.0525  3.1575  0.3992
  838SOL    HW2 2514   1.176   1.378   2.685 -1.6298  0.0618  1.3839
  839SOL     OW 2515   1.646   0.379   0.968  0.7442  0.4317  0.1815
  839SOL    HW1 2516   1.599   0.467   0.995  0.8130 -0.2161 -3.6268
  839SOL    HW2 2517   1.608   0.286   0.995  0.5094 -2.6015 -1.1718
  840SOL     OW 2518   2.652   2.964   1.653 -0.2819  0.0657  0.2417
  840SOL    HW1 2519   2.574   3.028   1.630 -0.9514  0.9844 -2.4439
  840SOL    HW2 2520   2.633   2.900   1.735  0.3856 -1.1569  0.8267
  841SOL     OW 2521   1.530   0.825   3.005  0.6623  0.1415  0.8575
  841SOL    HW1 2522   1.538   0.852   3.100 -0.7655  0.4080 -0.1339
  841SOL    HW2 2523   1.557   0.889   2.932 -0.2006 -4.9767  1.8377
  842SOL     OW 2524   0.830   1.625   1.001 -0.3150 -0.0719  0.0837
  842SOL    HW1 2525   0.765   1.704   1.006  2.0802 -2.4984 -1.0721
  842SOL    HW2 2526   0.786   1.545   0.952 -0.8142 -0.7320 -1.8571
  843SOL     OW 2527   0.158   0.050   1.471  0.5975 -0.0828 -0.0208
  843SOL    HW1 2528   0.253   0.079   1.498  0.0924  1.4726  1.2063
  843SOL    HW2 2529   0.152  -0.051   1.450 -2.5507 -2.0737 -0.6454
  844SOL     OW 2530   0.699   2.494   0.210 -0.3092 -0.2019  0.0652
  844SOL    HW1 2531   0.643   2.489   0.298 -1.7444 -1.6890 -1.1754
  844SOL    HW2 2532   0.654   2.449   0.129 -0.0948 -0.8787  0.5598
  845SOL     OW 2533   1.731   3.090   1.246  0.6276  0.2205 -0.5004
  845SOL    HW1 2534   1.692   3.071   1.337  3.2871 -0.7218 -1.5539
  845SOL    HW2 2535   1.736   3.192   1.226 -0.2379  1.3215  0.1039
  846SOL     OW 2536   1.707   3.030   0.925  0.0499  0.3018  0.2689
  846SOL    HW1 2537   1.695   3.071   0.828 -0.5352 -1.2633 -3.1261
  846SOL    HW2 2538   1.806   2.999   0.944  0.7009  1.7612 -0.8639
  847SOL     OW 2539   2.102   1.623   0.191  0.5486  0.1400 -0.3165
  847SOL    HW1 2540   2.045   1.575   0.265 -0.8325  4.8817 -0.0367
  847SOL    HW2 2541   2.053   1.624   0.098 -4.4125  2.2236 -2.3197
  848SOL     OW 2542   2.493   0.816   2.621  0.2600 -0.3218  0.3271
  848SOL    HW1 2543   2.483   0.915   2.633  0.7390 -0.8970 -1.2201
  848SOL    HW2 2544   2.419   0.770   2.562 -2.7328  2.7786  1.3428
  849SOL     OW 2545   2.365   0.826   2.283  0.0957 -0.1878  0.6676
  849SOL    HW1 2546   2.433   0.766   2.231  1.4969 -0.1376 -1.0908
  849SOL    HW2 2547   2.327   0.781   2.368 -1.3844  1.3123 -2.8037
  850SOL     OW 2548   1.555   0.199   1.244 -0.7002  0.6415  0.3974
  850SOL    HW1 2549   1.527   0.160   1.150 -0.1805  0.8900  0.9643
  850SOL    HW2 2550   1.519   0.144   1.323 -1.2811 -0.0456  0.0541
  851SOL     OW 2551   0.465   1.704   0.644 -0.3084 -1.1070 -0.1223
  851SOL    HW1 2552   0.433   1.800   0.650 -0.6122 -2.5510 -1.2188
  851SOL    HW2 2553   0.562   1.691   0.671 -1.7526 -1.9089 -3.0795
  852SOL     OW 2554   0.830   2.194   1.711 -0.2779 -0.2917 -0.2803
  852SOL    HW1 2555   0.812   2.279   1.664 -2.7995 -1.5704  0.0321
  852SOL    HW2 2556   0.769   2.171   1.798  0.8580 -2.1683  3.4203
  853SOL     OW 2557   2.607   1.499   2.590  0.1399 -0.5682  0.3583
  853SOL    HW1 2558   2.565   1.411   2.554  1.3861  0.2923 -1.0718
  853SOL    HW2 2559   2.597   1.581   2.531  3.6290  1.6368  1.0109
  854SOL     OW 2560   2.429   1.435   1.790  0.6064 -0.4017 -0.0287
  854SOL    HW1 2561   2.454   1.409   1.694 -0.6443  0.0999 -1.3120
  854SOL    HW2 2562   2.378   1.354   1.830  2.0794 -3.1425  0.8059
  855SOL     OW 2563   2.018   2.278   1.000  0.0383  0.0723  0.2616
  855SOL    HW1 2564   2.046   2.372   0.971  0.2295 -1.8267  0.9944
  855SOL    HW2 2565   2.072   2.248   1.080 -0.0136 -0.8197  2.1852
  856SOL     OW 2566   1.404   1.404   0.881  0.3714  0.3886 -0.2519
  856SOL    HW1 2567   1.414   1.501   0.846  0.0332 -1.2616 -0.1573
  856SOL    HW2 2568   1.444   1.382   0.970 -1.9412 -1.3136 -0.6484
  857SOL     OW 2569   2.888   2.546   1.011 -0.1402 -0.4810  0.2744
  857SOL    HW1 2570   2.846   2.467   1.060  2.5335 -2.1011  0.1752
  857SOL    HW2 2571   2.911   2.522   0.912 -2.0554  3.5877 -3.2405
  858SOL     OW 2572   2.265   2.089   1.783  0.6689  0.1911 -0.2302
  858SOL    HW1 2573   2.194   2.122   1.712  0.3838 -0.5418 -0.7783
  858SOL    HW2 2574   2.343   2.045   1.728  2.1675 -0.8281 -0.8542
  859SOL     OW 2575   2.399   0.410   0.963 -0.0630 -0.8859  0.0400
  859SOL    HW1 2576   2.471   0.462   0.919 -1.6422 -3.1524 -0.3328
  859SOL    HW2 2577   2.432   0.327   1.013  0.8659  1.2329 -2.4361
  860SOL     OW 2578   1.958   2.835   0.500  0.1179  0.1329  0.5820
  860SOL    HW1 2579   1.961   2.789   0.406 -3.0716  0.3531 -3.6528
  860SOL    HW2 2580   1.959   2.937   0.495 -1.1826  1.4896  0.5245
  861SOL     OW 2581   1.023   2.555   2.809 -0.1715 -0.4550  0.1811
  861SOL    HW1 2582   1.094   2.627   2.791  0.7299 -0.5378  0.3210
  861SOL    HW2 2583   0.973   2.573   2.895 -2.6138 -1.9925  0.1818
  862SOL     OW 2584   2.976   2.607   1.562  0.1040  0.1455  0.1148
  862SOL    HW1 2585   3.031   2.613   1.649  2.3167 -0.5098 -0.5375
  862SOL    HW2 2586   2.877   2.643   1.573 -0.8620  0.6531  0.4193
  863SOL     OW 2587   1.901   2.641   0.278 -0.7196  0.0403  0.0710
  863SOL    HW1 2588   1.954   2.554   0.276 -0.3004  1.6305  0.9874
  863SOL    HW2 2589   1.798   2.614   0.266 -3.0593  0.4012  0.3391
  864SOL     OW 2590   1.907   1.131   2.957  0.4591 -0.0583 -0.0315
  864SOL    HW1 2591   1.939   1.101   2.864 -1.6212 -0.3590 -0.9698
  864SOL    HW2 2592   1.975   1.117   3.029 -0.0022  0.8475 -1.8995
  865SOL     OW 2593   2.111   1.687   0.655 -0.4193  0.5480 -0.4985
  865SOL    HW1 2594   2.159   1.730   0.731 -0.4121 -0.9634 -0.2925
  865SOL    HW2 2595   2.022   1.648   0.683  3.1714 -0.0468  0.6168
  866SOL     OW 2596   2.874   2.820   1.007  0.6635 -0.2569  0.5972
  866SOL    HW1 2597   2.947   2.837   0.927 -0.1909 -0.4081 -2.5682
  866SOL    HW2 2598   2.854   2.718   1.019 -1.7132  2.0275 -0.2119
  867SOL     OW 2599   0.456   1.330   0.845 -0.0482  0.5958 -0.5323
  867SOL    HW1 2600   0.475   1.238   0.794  0.8728 -2.8640  0.8132
  867SOL    HW2 2601   0.379   1.377   0.800  0.9084 -1.7564 -0.2680
  868SOL     OW 2602   0.842   1.944   1.992  0.0563 -0.5526 -0.2450
  868SOL    HW1 2603   0.825   1.929   2.095 -2.0860  0.8866 -1.1315
  868SOL    HW2 2604   0.799   2.030   1.965  1.6723 -2.3041  1.1774
  869SOL     OW 2605   2.518   2.036   1.651 -0.4453 -0.2118  0.4186
  869SOL    HW1 2606   2.597   2.107   1.637  0.2685  1.1849  0.4538
  869SOL    HW2 2607   2.499   1.981   1.562  2.3892  0.7773  0.2572
  870SOL     OW 2608   2.392   2.532   1.180  0.2978  0.2048  0.0988
  870SOL    HW1 2609   2.345   2.440   1.199 -2.3923 -0.3504 -0.8749
  870SOL    HW2 2610   2.475   2.551   1.238 -0.6352  0.3922 -1.0067
  871SOL     OW 2611   3.028   1.988   0.508  0.8906 -0.3015  0.3828
  871SOL    HW1 2612   2.962   2.068   0.484 -0.0366  3.1902 -2.6692
  871SOL    HW2 2613   2.987   1.900   0.471  0.0856  2.4465 -2.2972
  872SOL     OW 2614   2.171   0.483   1.675  0.1401 -0.6729  0.1150
  872SOL    HW1 2615   2.125   0.497   1.766  2.0654  0.1491 -2.1898
  872SOL    HW2 2616   2.257   0.425   1.682 -1.8953 -0.8139 -0.3786
  873SOL     OW 2617   1.718   2.079   2.876  0.6024 -0.2257 -0.3460
  873SOL    HW1 2618   1.709   2.175   2.918 -1.1134  1.4484  0.5329
  873SOL    HW2 2619   1.634   2.069   2.813 -2.8657 -2.4560 -1.9468
  874SOL     OW 2620   0.685   2.504   0.746 -0.7830 -0.2869  0.1783
  874SOL    HW1 2621   0.690   2.612   0.746  0.3308  1.7281 -2.1264
  874SOL    HW2 2622   0.781   2.473   0.771 -0.5500  0.4666 -0.1293
  875SOL     OW 2623   2.305   1.541   1.444  0.2333  0.7344 -0.2667
  875SOL    HW1 2624   2.403   1.565   1.463 -2.2838 -0.7520 -3.6492
  875SOL    HW2 2625   2.269   1.573   1.352  1.0906  1.8943 -0.6681
  876SOL     OW 2626   0.167   2.203   2.694 -0.5069 -0.2024 -0.3555
  876SOL    HW1 2627   0.215   2.150   2.767  0.7936 -1.4504  1.3716
  876SOL    HW2 2628   0.171   2.308   2.714  0.8015  3.3500 -0.3992
  877SOL     OW 2629   2.794   2.652   0.580 -0.2724 -0.0564  0.0289
  877SOL    HW1 2630   2.850   2.738   0.575  0.2133  2.3966 -2.2037
  877SOL    HW2 2631   2.847   2.580   0.640  0.8382  1.1831  0.7057
  878SOL     OW 2632   2.760   1.536   2.261  0.1659 -0.1166  0.5861
  878SOL    HW1 2633   2.745   1.632   2.235 -0.6775 -2.5720  1.5397
  878SOL    HW2 2634   2.833   1.525   2.331 -0.8199 -1.0293 -1.9341
  879SOL     OW 2635   2.397   0.010   1.233  0.3046  0.1259  0.3208
  879SOL    HW1 2636   2.433  -0.085   1.253  0.0415 -0.1440  2.0659
  879SOL    HW2 2637   2.311   0.014   1.174  0.5000  0.9783  0.6553
  880SOL     OW 2638   0.646   0.420   2.191 -0.3709  0.5476 -0.0144
  880SOL    HW1 2639   0.579   0.387   2.264 -2.2933 -2.5496  1.2925
  880SOL    HW2 2640   0.664   0.350   2.119 -4.2142 -2.8106 -0.4716
  881SOL     OW 2641   0.922   0.050   0.396 -0.3891  0.3256  0.8835
  881SOL    HW1 2642   0.979  -0.030   0.435 -0.1922 -0.7882 -0.1497
  881SOL    HW2 2643   0.869   0.021   0.312 -0.2269  1.0293 -1.6238
  882SOL     OW 2644   2.752   1.695   1.650 -0.2011  1.2934  0.0696
  882SOL    HW1 2645   2.848   1.710   1.607 -0.2627 -1.1639 -1.6401
  882SOL    HW2 2646   2.756   1.709   1.748  1.0073 -1.5514 -1.7775
  883SOL     OW 2647   0.921   0.626   0.963 -0.2654  0.4149  0.3329
  883SOL    HW1 2648   0.930   0.675   1.055 -0.6558 -4.3226  0.3823
  883SOL    HW2 2649   1.008   0.590   0.919  0.3358 -0.2038  0.5165
  884SOL     OW 2650   1.202   1.845   1.061 -0.6163 -0.3635  0.5202
  884SOL    HW1 2651   1.175   1.826   0.964 -3.4252  0.3333  0.3112
  884SOL    HW2 2652   1.122   1.871   1.120 -1.6966  2.1232  0.2301
  885SOL     OW 2653   2.272   1.749   2.349  0.1523 -0.0725  0.0289
  885SOL    HW1 2654   2.207   1.692   2.406  0.7533  1.4719  0.1626
  885SOL    HW2 2655   2.246   1.853   2.363 -2.4212 -1.6760 -0.8107
  886SOL     OW 2656   2.669   0.467   1.792  0.1489 -0.1992  0.2064
  886SOL    HW1 2657   2.709   0.438   1.888  0.0296 -1.2765  4.0163
  886SOL    HW2 2658   2.729   0.537   1.746 -0.8576  1.3181 -0.4048
  887SOL     OW 2659   0.183   2.020   1.318  0.4305 -0.2590  0.5530
  887SOL    HW1 2660   0.135   1.983   1.234 -0.2980 -3.5379 -0.0808
  887SOL    HW2 2661   0.203   2.120   1.313 -1.0870 -0.9364 -0.9198
  888SOL     OW 2662   0.587   1.331   1.482 -0.3965  0.0879 -0.1766
  888SOL    HW1 2663   0.653   1.398   1.434  0.2952 -0.3868  0.0835
  888SOL    HW2 2664   0.619   1.233   1.466  0.5186 -4.1569  3.1102
  889SOL     OW 2665   0.869   2.498   2.140  0.1990 -0.6143 -0.2359
  889SOL    HW1 2666   0.784   2.474   2.089 -1.7816 -2.6823 -1.0939
  889SOL    HW2 2667   0.948   2.508   2.068  0.2131 -0.6042 -3.5306
  890SOL     OW 2668   2.323   2.380   0.121 -0.5489  0.0718 -0.4008
  890SOL    HW1 2669   2.364   2.434   0.041  1.4887  2.7087 -1.0610
  890SOL    HW2 2670   2.222   2.391   0.135 -0.3011 -1.5000 -0.0339
  891SOL     OW 2671   2.609   1.543   0.610  0.3653  0.2914  0.4131
  891SOL    HW1 2672   2.602   1.480   0.696  0.1065  0.4607  0.5793
  891SOL    HW2 2673   2.516   1.552   0.563  0.4031 -2.6879  1.4464
  892SOL     OW 2674   0.226   0.317   2.223 -0.0952 -0.1085  0.5567
  892SOL    HW1 2675   0.233   0.333   2.122  2.0003  2.4885  0.7275
  892SOL    HW2 2676   0.308   0.361   2.272 -0.4743  0.8308 -2.8399
  893SOL     OW 2677   1.655   0.239   2.705 -0.6010 -0.0979  0.4961
  893SOL    HW1 2678   1.718   0.305   2.753  1.1378 -0.7217 -2.4366
  893SOL    HW2 2679   1.559   0.275   2.695 -0.7162 -0.4611 -0.4292
  894SOL     OW 2680   2.140   1.961   0.053 -0.0680 -0.2451  0.2884
  894SOL    HW1 2681   2.141   1.923  -0.042 -0.2145  0.9363  1.3899
  894SOL    HW2 2682   2.191   1.903   0.122 -0.6417 -1.4027 -2.7277
  895SOL     OW 2683   2.891   1.427   0.818  0.1578  0.2794  0.0435
  895SOL    HW1 2684   2.928   1.361   0.888 -2.9465  1.9883  0.8996
  895SOL    HW2 2685   2.966   1.484   0.775  0.4353  2.2704  2.1153
  896SOL     OW 2686   1.746   1.774   1.214  0.1244 -0.0183 -0.3179
  896SOL    HW1 2687   1.834   1.797   1.163  1.4983 -1.6476  0.9633
  896SOL    HW2 2688   1.664   1.816   1.174  2.4090  1.5987  0.5741
  897SOL     OW 2689   0.318   0.503   3.072 -0.4492 -0.1788 -0.2423
  897SOL    HW1 2690   0.265   0.572   3.015 -1.1321  0.3818  1.0227
  897SOL    HW2 2691   0.415   0.537   3.097  1.0326 -2.2164  0.3144
  898SOL     OW 2692   0.544   2.856   1.138  0.1612  0.2383 -0.4308
  898SOL    HW1 2693   0.479   2.939   1.135 -0.9930 -0.2646 -1.4752
  898SOL    HW2 2694   0.618   2.857   1.211 -0.9326 -0.1899 -0.6781
  899SOL     OW 2695   2.696   0.925   1.238  0.1796  0.3925  0.1535
  899SOL    HW1 2696   2.640   0.882   1.161  0.3076 -1.9126 -0.1765
  899SOL    HW2 2697   2.760   0.991   1.194 -0.0457 -0.6411  0.7907
  900SOL     OW 2698   0.978   2.348   2.328 -0.2201 -0.1782 -0.2131
  900SOL    HW1 2699   0.926   2.407   2.254 -2.5318  1.1705  0.9143
  900SOL    HW2 2700   0.943   2.365   2.427  0.4912  1.8071  3.2596
  901SOL     OW 2701   1.893   2.434   1.391 -0.2373  0.0478  0.2180
  901SOL    HW1 2702   1.881   2.428   1.286  1.3778 -0.7763 -1.4799
  901SOL    HW2 2703   1.997   2.427   1.415 -0.2598 -0.9703 -0.1480
  902SOL     OW 2704   2.555   1.639   1.466 -0.1860  0.3686 -0.3449
  902SOL    HW1 2705   2.610   1.676   1.545  0.4085 -0.5147 -2.4969
  902SOL    HW2 2706   2.614   1.609   1.382  2.7199 -0.6504 -0.3048
  903SOL     OW 2707   0.273   2.331   1.963 -0.2947  0.3348  0.0897
  903SOL    HW1 2708   0.182   2.329   2.006  0.6619  1.6617  1.3468
  903SOL    HW2 2709   0.278   2.399   1.880 -0.6697  1.5719 -3.3592
  904SOL     OW 2710   1.964   0.789   2.592  0.0262  0.1467 -0.4676
  904SOL    HW1 2711   1.879   0.733   2.616  0.3452  0.1903  1.1678
  904SOL    HW2 2712   1.984   0.782   2.493  0.8000  0.5144  3.8826
  905SOL     OW 2713   2.741   0.037   2.643  0.3381  0.3052 -0.0936
  905SOL    HW1 2714   2.786  -0.058   2.640  1.0539 -0.4634 -2.4577
  905SOL    HW2 2715   2.799   0.108   2.600 -2.4472 -0.4854 -1.4230
  906SOL     OW 2716   0.103   1.741   1.975 -0.3080  0.6671  0.0303
  906SOL    HW1 2717   0.054   1.770   1.887 -0.6799  1.4409 -2.5520
  906SOL    HW2 2718   0.201   1.784   1.978  2.9723  0.2259 -2.3470
  907SOL     OW 2719   0.186   2.463   1.049 -0.0538 -0.0930 -0.1519
  907SOL    HW1 2720   0.274   2.516   1.040  2.2965 -2.5056  0.4941
  907SOL    HW2 2721   0.134   2.466   0.963  2.2870  0.1648  0.0526
  908SOL     OW 2722   2.629   2.866   0.420 -0.0571 -0.2531 -0.1755
  908SOL    HW1 2723   2.585   2.869   0.328  0.6990 -3.4015  1.2830
  908SOL    HW2 2724   2.620   2.773   0.459 -1.6721  1.2013 -1.4498
  909SOL     OW 2725   0.713   0.902   2.627 -0.0068 -0.0589 -1.2898
  909SOL    HW1 2726   0.687   0.805   2.598 -3.2480  1.1276 -0.0143
  909SOL    HW2 2727   0.792   0.934   2.566  0.3653  2.5856 -0.8493
  910SOL     OW 2728   1.764   1.767   2.022 -0.1280 -0.3207  0.2943
  910SOL    HW1 2729   1.803   1.795   1.931  0.8667  0.0866  1.0697
  910SOL    HW2 2730   1.703   1.841   2.067 -1.0526 -1.3179  2.3955
  911SOL     OW 2731   1.766   3.023   1.556 -0.7292 -0.1494  0.7161
  911SOL    HW1 2732   1.856   2.999   1.514  0.0369 -0.9552  0.1203
  911SOL    HW2 2733   1.757   2.964   1.641  0.3439 -0.1480  3.0684
  912SOL     OW 2734   2.802   0.973   0.791 -0.4531  0.5088 -0.2844
  912SOL    HW1 2735   2.833   0.982   0.891  1.4145 -0.8346 -0.7470
  912SOL    HW2 2736   2.795   1.067   0.745  5.0279  0.7747 -1.4209
  913SOL     OW 2737   2.551   1.273   1.545 -0.2468  0.2052  0.2325
  913SOL    HW1 2738   2.563   1.183   1.588  0.0801  2.3415  2.1864
  913SOL    HW2 2739   2.615   1.291   1.461 -0.2630 -0.5565 -1.6785
  914SOL     OW 2740   2.799   0.533   1.252  0.4356  0.5806  0.1079
  914SOL    HW1 2741   2.788   0.432   1.254 -1.7572 -1.4905  1.0628
  914SOL    HW2 2742   2.753   0.584   1.330 -4.1087  0.3316 -0.2261
  915SOL     OW 2743   1.214   0.856   1.007 -0.5239  0.3366  0.7191
  915SOL    HW1 2744   1.262   0.947   1.026 -0.8146  1.7138 -0.8973
  915SOL    HW2 2745   1.132   0.841   1.066  0.5985 -0.5363  1.6480
  916SOL     OW 2746   0.548   0.041   0.600  0.4756  0.2468  0.0954
  916SOL    HW1 2747   0.578   0.102   0.676  0.3581  0.5583  0.2259
  916SOL    HW2 2748   0.525   0.096   0.517 -0.9645  1.9806  1.1890
  917SOL     OW 2749   2.772   2.588   1.915 -0.2001  0.3012 -0.4555
  917SOL    HW1 2750   2.695   2.655   1.900  0.0127 -1.7072 -0.3727
  917SOL    HW2 2751   2.866   2.634   1.928  4.1272  0.1253 -0.0227
  918SOL     OW 2752   0.980   2.215   3.082  0.2526 -0.2223  0.5933
  918SOL    HW1 2753   0.956   2.229   3.182 -0.3721 -0.0777  0.9449
  918SOL    HW2 2754   1.042   2.133   3.071  1.2364  0.6500 -0.6018
  919SOL     OW 2755   0.923   1.640   2.829 -0.4272 -0.2013 -0.8917
  919SOL    HW1 2756   0.982   1.718   2.792 -0.2487 -0.4518  0.6800
  919SOL    HW2 2757   0.880   1.578   2.756 -2.0405 -2.6244  2.2657
  920SOL     OW 2758   1.259   2.053   2.514 -0.4661 -0.5626  0.0342
  920SOL    HW1 2759   1.214   2.038   2.424 -0.7587  2.4949 -2.8509
  920SOL    HW2 2760   1.306   1.971   2.551 -0.2433  0.2819  0.4552
  921SOL     OW 2761   1.037   0.144   2.588  0.1414 -0.1569  0.3982
  921SOL    HW1 2762   1.052   0.076   2.511  0.7998  1.8396  0.7841
  921SOL    HW2 2763   0.985   0.222   2.556 -1.0134 -0.3146 -1.0020
  922SOL     OW 2764   2.104   2.410   2.767 -0.6459 -0.3315 -0.1730
  922SOL    HW1 2765   2.086   2.309   2.768 -1.2167 -0.6310  1.9449
  922SOL    HW2 2766   2.077   2.461   2.682 -0.6856  1.3716 -0.7362
  923SOL     OW 2767   1.155   2.703   0.239 -0.6166  0.1966 -0.2222
  923SOL    HW1 2768   1.238   2.743   0.282  0.9084  0.5250 -3.5841
  923SOL    HW2 2769   1.170   2.602   0.216 -0.5901 -2.1351 -2.0713
  924SOL     OW 2770   2.870   1.566   0.103 -0.5215 -0.0214  0.2248
  924SOL    HW1 2771   2.790   1.590   0.039  0.1963 -2.8331 -1.0597
  924SOL    HW2 2772   2.965   1.568   0.058  0.6424  2.2511 -0.2273
  925SOL     OW 2773   0.068   2.856   1.654  0.1047  0.1272 -0.1912
  925SOL    HW1 2774  -0.020   2.904   1.681  1.0254 -1.5274 -2.2323
  925SOL    HW2 2775   0.081   2.863   1.550  1.0621  3.1759 -0.0968
  926SOL     OW 2776   1.443   2.870   1.319 -0.1026  0.0452 -0.6375
  926SOL    HW1 2777   1.424   2.863   1.219 -0.2134 -1.8243  1.3407
  926SOL    HW2 2778   1.445   2.970   1.348  1.6443  0.2908  1.0967
  927SOL     OW 2779   0.289   2.534   1.782 -0.4817  0.0354  0.5189
  927SOL    HW1 2780   0.230   2.488   1.710 -0.8938  0.7505 -0.4019
  927SOL    HW2 2781   0.345   2.614   1.745 -1.8623 -0.9892 -1.0190
  928SOL     OW 2782   1.604   1.978   2.115 -0.4133  0.8302 -0.5190
  928SOL    HW1 2783   1.645   2.069   2.084  3.4869  0.4200  0.2630
  928SOL    HW2 2784   1.505   1.969   2.081  1.1649 -0.4192 -0.9297
  929SOL     OW 2785   2.382   2.471   2.826 -0.3075 -0.1131  0.2841
  929SOL    HW1 2786   2.276   2.448   2.813 -4.2897  1.1094  1.1847
  929SOL    HW2 2787   2.436   2.455   2.738  0.7332  0.5441 -0.9534
  930SOL     OW 2788   2.215   2.007   1.092 -0.3863  0.1591  0.1607
  930SOL    HW1 2789   2.177   1.994   1.186  0.5499  1.1396 -2.7402
  930SOL    HW2 2790   2.289   2.078   1.093 -1.0853 -1.9187 -1.3290
  931SOL     OW 2791   0.572   1.725   2.619  0.2975  0.2908  0.3979
  931SOL    HW1 2792   0.625   1.721   2.704  0.5549 -1.5405 -2.4927
  931SOL    HW2 2793   0.556   1.638   2.567  0.6579  1.1595  3.9187
  932SOL     OW 2794   0.477   0.110   2.921  0.6768  0.3474 -0.2111
  932SOL    HW1 2795   0.560   0.141   2.867  0.1268 -2.9296  0.2637
  932SOL    HW2 2796   0.493   0.032   2.985  1.0495  0.2658 -0.9101
  933SOL     OW 2797   1.059   0.787   3.016  0.2054 -0.0275  0.0447
  933SOL    HW1 2798   1.129   0.843   3.075  1.3153  1.2081  0.8547
  933SOL    HW2 2799   0.995   0.855   2.967 -1.0283  2.2031  0.8906
  934SOL     OW 2800   0.793   2.961   2.744  0.1415 -0.5275  0.2125
  934SOL    HW1 2801   0.816   2.887   2.679 -2.4262  1.7772  1.7040
  934SOL    HW2 2802   0.839   2.937   2.836  0.8118 -0.7365  0.5359
  935SOL     OW 2803   3.081   0.510   0.883 -0.0946  0.4809  0.2157
  935SOL    HW1 2804   3.084   0.462   0.797 -1.3553  1.4088  2.2687
  935SOL    HW2 2805   3.003   0.577   0.885  2.0648 -0.0008 -0.3995
  936SOL     OW 2806   1.095   2.940   0.137  0.6008 -0.1605 -0.3074
  936SOL    HW1 2807   1.166   2.976   0.066  3.0383 -0.9335 -1.8744
  936SOL    HW2 2808   1.115   2.847   0.181 -0.8058  1.0368 -0.6211
  937SOL     OW 2809   1.942   2.613   2.073  0.0361 -0.0692  0.4815
  937SOL    HW1 2810   1.854   2.652   2.109  1.0864 -0.1492  0.0303
  937SOL    HW2 2811   1.973   2.650   1.982 -0.8080  0.9545 -1.3563
  938SOL     OW 2812   2.784   2.173   1.479 -0.2883  0.3944  0.6524
  938SOL    HW1 2813   2.733   2.251   1.526 -0.5297 -2.6908  2.5333
  938SOL    HW2 2814   2.857   2.128   1.543  1.6456 -0.7951 -2.3398
  939SOL     OW 2815   2.752   1.092   2.508 -0.5213 -0.6457  0.1566
  939SOL    HW1 2816   2.798   1.015   2.457 -1.2932  0.1249  0.5117
  939SOL    HW2 2817   2.793   1.111   2.604 -1.1284  0.9255  2.5636
  940SOL     OW 2818   1.072   0.467   2.619  0.1917 -0.0817 -0.1317
  940SOL    HW1 2819   1.142   0.393   2.623  2.0433 -1.0063  1.6793
  940SOL    HW2 2820   0.974   0.436   2.635 -4.1870 -3.5429 -1.2131
  941SOL     OW 2821   0.054   2.843   2.205  0.5466 -0.2884  0.0664
  941SOL    HW1 2822   0.032   2.738   2.190 -0.9641 -0.1854  0.8375
  941SOL    HW2 2823   0.091   2.859   2.302  0.0024  0.9223  1.9487
  942SOL     OW 2824   0.061   0.086   2.555  0.3759  0.0375  0.5233
  942SOL    HW1 2825   0.134   0.115   2.619 -1.7029 -1.8100 -0.5099
  942SOL    HW2 2826   0.030   0.164   2.491 -1.8263 -0.4191  0.6281
  943SOL     OW 2827   2.061   1.598   2.423 -0.2878  0.1480  0.2917
  943SOL    HW1 2828   2.058   1.539   2.342 -0.1980 -3.2186  1.7710
  943SOL    HW2 2829   2.082   1.545   2.506  0.7528  0.8732 -0.2638
  944SOL     OW 2830   2.155   2.408   1.477 -0.1565 -0.3667 -0.3220
  944SOL    HW1 2831   2.246   2.455   1.505  1.6315 -0.6397  0.2358
  944SOL    HW2 2832   2.128   2.336   1.540  0.2367 -3.1034  0.2577
  945SOL     OW 2833   0.614   1.443   0.369  0.1947  0.5648  1.0048
  945SOL    HW1 2834   0.650   1.477   0.278 -1.8593  2.4600  1.2737
  945SOL    HW2 2835   0.644   1.347   0.393  0.9701 -0.6672 -0.5654
  946SOL     OW 2836   0.375   1.014   2.558 -0.2159 -0.2526  0.6245
  946SOL    HW1 2837   0.296   0.960   2.511 -0.3152  2.0120  1.1465
  946SOL    HW2 2838   0.347   1.111   2.575 -1.2974  0.4020  0.6067
  947SOL     OW 2839   1.466   0.455   0.111  0.0647 -0.5668 -0.2422
  947SOL    HW1 2840   1.394   0.521   0.130  1.3783 -0.6423  1.6775
  947SOL    HW2 2841   1.427   0.362   0.076 -1.2713 -0.7364  0.3924
  948SOL     OW 2842   1.948   3.105   2.188  0.0853  0.1215 -0.3593
  948SOL    HW1 2843   1.923   3.098   2.087 -1.2478  1.5375  3.6189
  948SOL    HW2 2844   1.928   3.021   2.246 -2.0236 -0.8692 -0.1200
  949SOL     OW 2845   0.625   2.515   0.479 -0.0960 -0.4983 -0.2011
  949SOL    HW1 2846   0.627   2.614   0.450 -2.0614 -1.3388 -2.9682
  949SOL    HW2 2847   0.671   2.505   0.573 -1.2476  1.9818  1.4922
  950SOL     OW 2848   0.307   2.109   3.031  0.2468  0.3230 -0.5664
  950SOL    HW1 2849   0.216   2.160   3.037  0.9773 -0.4835  0.5651
  950SOL    HW2 2850   0.289   2.009   3.013 -1.6928  0.3597 -0.1357
  951SOL     OW 2851   1.184   2.758   2.769 -0.6095 -0.0268  0.0195
  951SOL    HW1 2852   1.149   2.824   2.700  0.7968  2.4154 -2.5807
  951SOL    HW2 2853   1.253   2.797   2.833  0.1477  0.6801 -0.8626
  952SOL     OW 2854   0.078   1.652   0.482 -0.3998  0.2401  0.1154
  952SOL    HW1 2855   0.168   1.702   0.519  2.9840 -0.2986  0.1788
  952SOL    HW2 2856   0.019   1.627   0.565  0.4427 -0.7274  0.1363
  953SOL     OW 2857   2.569   1.728   0.162  0.3897  0.5637  0.5444
  953SOL    HW1 2858   2.524   1.639   0.192 -0.4904 -2.1224  0.3629
  953SOL    HW2 2859   2.555   1.742   0.059  2.8073 -3.3950  0.9134
  954SOL     OW 2860   2.173   0.547   1.019  0.5478 -0.0479  0.1339
  954SOL    HW1 2861   2.132   0.555   0.925 -0.8454 -1.5261 -2.4090
  954SOL    HW2 2862   2.264   0.497   1.012  0.0959  3.3960 -0.6442
  955SOL     OW 2863   0.288   2.674   1.297  0.0206 -0.5758  0.4119
  955SOL    HW1 2864   0.190   2.635   1.295 -3.2155 -1.3283 -0.2088
  955SOL    HW2 2865   0.325   2.673   1.200  0.3732  2.0519 -0.0403
  956SOL     OW 2866   2.784   2.462   2.505  0.5882 -0.0792  0.6104
  956SOL    HW1 2867   2.803   2.361   2.490 -1.7089  3.2008  0.0402
  956SOL    HW2 2868   2.799   2.516   2.413  1.3481  0.8273 -0.3842
  957SOL     OW 2869   1.538   2.068   2.646  0.3347  0.3578  0.2160
  957SOL    HW1 2870   1.497   1.975   2.611  0.1370  0.8889 -4.1207
  957SOL    HW2 2871   1.601   2.104   2.573  2.4351  0.8612 -0.6870
  958SOL     OW 2872   2.671   2.341   3.008  0.2342 -0.5097  0.0422
  958SOL    HW1 2873   2.588   2.366   2.948 -1.3247  2.0481 -0.5991
  958SOL    HW2 2874   2.668   2.254   3.059 -0.3124  2.0801  2.2251
  959SOL     OW 2875   0.235   2.812  -0.000  0.4550  0.4059 -0.0547
  959SOL    HW1 2876   0.142   2.785   0.040 -0.4902  1.5637  0.7321
  959SOL    HW2 2877   0.312   2.742   0.020 -0.0536 -0.8647  0.1453
  960SOL     OW 2878   2.021   0.510   1.932  0.1460  0.6829  0.3085
  960SOL    HW1 2879   1.948   0.567   1.893 -0.5589 -1.1356  1.2221
  960SOL    HW2 2880   2.037   0.531   2.034  0.2489 -3.5601 -0.3944
  961SOL     OW 2881   2.593   1.851   1.052  0.4223  0.4223 -0.3956
  961SOL    HW1 2882   2.552   1.862   0.956  0.3324 -0.3325  0.3402
  961SOL    HW2 2883   2.624   1.941   1.100 -1.0387  0.9334 -2.3028
  962SOL     OW 2884   1.250   0.957   0.031 -0.2954  0.1862 -0.2150
  962SOL    HW1 2885   1.269   1.019  -0.055 -0.0470  2.9211 -1.5984
  962SOL    HW2 2886   1.273   1.014   0.114  1.5871 -0.1565 -0.9603
  963SOL     OW 2887   2.294   2.639   1.877 -0.0215  0.2790  0.4716
  963SOL    HW1 2888   2.309   2.557   1.943  1.8429 -0.0877  0.1097
  963SOL    HW2 2889   2.286   2.727   1.934 -1.3585 -1.3874 -0.4772
  964SOL     OW 2890   2.428   0.377   1.676  0.2976  0.0832  0.2402
  964SOL    HW1 2891   2.497   0.441   1.721 -0.8987 -0.2041  2.5715
  964SOL    HW2 2892   2.434   0.376   1.575 -3.4003  1.0058  2.3987
  965SOL     OW 2893   2.637   3.003   0.125  0.4391  0.0599 -0.4379
  965SOL    HW1 2894   2.708   2.991   0.060 -3.5648  0.0809  2.6911
  965SOL    HW2 2895   2.548   3.003   0.080  1.7810  2.1087 -5.1981
  966SOL     OW 2896   2.562   2.585   2.177 -0.2187 -0.0213 -0.7503
  966SOL    HW1 2897   2.519   2.561   2.085 -1.5211  1.5417 -0.3230
  966SOL    HW2 2898   2.519   2.667   2.223  0.9094  0.0069  0.5797
  967SOL     OW 2899   2.748   2.826   2.438 -0.2058  0.2650  0.0620
  967SOL    HW1 2900   2.783   2.756   2.375  0.2815  3.9418 -0.6600
  967SOL    HW2 2901   2.824   2.889   2.470  1.5021  1.6406  0.9150
  968SOL     OW 2902   2.039   1.034   2.677  0.1630 -0.5743  0.2647
  968SOL    HW1 2903   1.995   1.115   2.642  0.7342 -0.9147  2.9312
  968SOL    HW2 2904   2.007   0.947   2.632 -0.9164 -2.8820  1.1903
  969SOL     OW 2905   2.740   2.335   1.134 -0.0075  0.1313  0.7473
  969SOL    HW1 2906   2.707   2.319   1.037  0.8091  0.8098 -0.6196
  969SOL    HW2 2907   2.801   2.259   1.169 -0.0604  0.8472  1.6007
  970SOL     OW 2908   1.119   2.221   1.741  0.1751  0.2644  0.1056
  970SOL    HW1 2909   1.023   2.226   1.708 -0.2683  0.3023  1.8979
  970SOL    HW2 2910   1.131   2.204   1.841  1.8306  0.3516  0.5627
  971SOL     OW 2911   2.829   2.085   1.948  0.0081 -0.4279 -0.0314
  971SOL    HW1 2912   2.816   2.184   1.969  0.6878 -1.0869 -1.7833
  971SOL    HW2 2913   2.865   2.066   1.855  2.4156 -0.6949  2.1752
  972SOL     OW 2914   2.020   2.396   0.250  0.6997 -0.0035 -0.0978
  972SOL    HW1 2915   1.992   2.310   0.194 -0.4820  0.6844  0.9992
  972SOL    HW2 2916   2.050   2.374   0.346 -3.6365  1.7306 -0.7868
  973SOL     OW 2917   1.244   1.079   1.974  0.5087  0.1435 -0.4166
  973SOL    HW1 2918   1.228   1.040   1.879 -0.2878 -3.1780 -1.6771
  973SOL    HW2 2919   1.246   1.181   1.976 -1.7237  1.7323  1.9200
  974SOL     OW 2920   1.668   0.535   1.896  0.0277  0.2331 -0.1984
  974SOL    HW1 2921   1.739   0.610   1.880 -2.0155  0.0398  0.7416
  974SOL    HW2 2922   1.577   0.577   1.900  3.2781  0.5069  2.8224
  975SOL     OW 2923   2.344   3.050   3.078  0.3668 -0.0909  0.1046
  975SOL    HW1 2924   2.307   2.953   3.108  0.2745 -0.2130 -0.7459
  975SOL    HW2 2925   2.373   3.051   2.974  2.8880  0.2757 -2.1190
  976SOL     OW 2926   1.916   2.873   2.345 -0.0495  0.0069 -0.3034
  976SOL    HW1 2927   1.830   2.830   2.300 -5.1127 -0.2949 -0.8219
  976SOL    HW2 2928   1.927   2.848   2.445 -0.0412  0.9986 -1.7960
  977SOL     OW 2929   0.505   0.693   1.032 -0.4525 -0.0602 -0.4416
  977SOL    HW1 2930   0.409   0.686   1.000  1.5430 -1.2885  1.2379
  977SOL    HW2 2931   0.559   0.610   0.991 -0.3810  0.7472  0.8573
   3.10000   3.10000   3.10000
