1000 SPC/Fw water molecules t=   1.76000 step= 1760
 2931
    1SOL     OW    1   2.507   0.370   2.668  0.4373 -0.3495 -0.2681
    1SOL    HW1    2   2.511   0.265   2.665 -0.4866 -0.1305  2.6304
    1SOL    HW2    3   2.590   0.412   2.713  1.8958 -1.4949  2.1414
    2SOL     OW    4   2.730   2.926   1.375 -0.2057 -0.8272  0.2191
    2SOL    HW1    5   2.830   2.912   1.343 -0.8548  0.7907  0.0415
    2SOL    HW2    6   2.718   2.919   1.478 -0.2196 -1.1963 -2.2925
    3SOL     OW    7   2.712   2.464   0.381  0.2390 -0.6383  0.7452
    3SOL    HW1    8   2.619   2.421   0.391 -0.2967 -1.1032 -1.8941
    3SOL    HW2    9   2.728   2.538   0.449  1.1060 -0.7585 -0.4943
    4SOL     OW   10   1.300   1.543   2.449 -0.3673 -0.2521 -0.3088
    4SOL    HW1   11   1.268   1.514   2.353 -1.8935 -3.0475  1.2578
    4SOL    HW2   12   1.233   1.524   2.528 -0.4188 -0.8943  1.6027
    5SOL     OW   13   1.120   1.584   2.992 -0.0935  0.0270 -0.6623
    5SOL    HW1   14   1.170   1.654   3.048  0.6689 -0.2359  0.3267
    5SOL    HW2   15   1.041   1.625   2.946  1.3587  0.1155 -2.0944
    6SOL     OW   16   0.244   1.823   3.094 -0.3932  0.6128  0.2188
    6SOL    HW1   17   0.154   1.838   3.145  1.8816 -0.5715  1.3362
    6SOL    HW2   18   0.290   1.747   3.143 -3.1676  0.9903 -0.1608
    7SOL     OW   19   2.505   0.914   1.079  0.1665  0.0691 -0.1199
    7SOL    HW1   20   2.411   0.868   1.098  0.6218  2.5213  0.9857
    7SOL    HW2   21   2.538   0.889   0.985  0.3100  2.2486 -1.1609
    8SOL     OW   22   0.403   0.665   1.539  0.1573  0.5371 -0.4350
    8SOL    HW1   23   0.493   0.625   1.568 -0.3969 -0.8412 -1.3170
    8SOL    HW2   24   0.408   0.720   1.450 -2.7295 -0.1008 -1.0641
    9SOL     OW   25   1.131   0.893   2.348 -0.1106 -0.0076  0.0444
    9SOL    HW1   26   1.212   0.906   2.290  0.7138  1.4385 -3.0096
    9SOL    HW2   27   1.096   0.794   2.357 -1.8548 -2.1286  0.3567
   10SOL     OW   28   0.661   1.398   1.259  0.0447  0.1192  0.5528
   10SOL    HW1   29   0.582   1.405   1.192 -1.1440 -1.3151  0.0255
   10SOL    HW2   30   0.688   1.490   1.306 -0.3073 -2.0473 -0.2594
   11SOL     OW   31   2.328   2.866   0.927 -0.7606 -0.2224 -0.5572
   11SOL    HW1   32   2.261   2.819   0.990  1.8961 -0.8696 -1.1845
   11SOL    HW2   33   2.418   2.872   0.967  0.1293  0.5393 -1.1523
   12SOL     OW   34   1.488   0.851   0.479 -0.4082  0.3303  0.3928
   12SOL    HW1   35   1.405   0.827   0.420 -0.1511  0.0593 -0.7111
   12SOL    HW2   36   1.563   0.783   0.448 -0.3165 -2.9062  1.5980
   13SOL     OW   37   2.463   0.742   1.786 -0.1779  0.1668 -0.0664
   13SOL    HW1   38   2.405   0.682   1.853  1.6994  0.3493  0.3088
   13SOL    HW2   39   2.470   0.710   1.687 -2.1021 -1.2615 -1.6907
   14SOL     OW   40   1.961   3.075   0.592 -0.7196 -0.4935  0.3005
   14SOL    HW1   41   1.870   3.126   0.576 -1.2894  0.9102 -0.5219
   14SOL    HW2   42   1.975   3.039   0.692  0.1870 -1.9798 -2.4448
   15SOL     OW   43   1.930   2.138   2.672  0.0863  0.4188 -0.1428
   15SOL    HW1   44   1.873   2.159   2.758  0.2119  0.6329  0.2252
   15SOL    HW2   45   1.906   2.045   2.629  1.1055  2.8040  0.0006
   16SOL     OW   46   1.567   1.768   3.061 -0.3950  0.1251 -0.4098
   16SOL    HW1   47   1.550   1.689   3.123 -0.0706  4.7173  1.7348
   16SOL    HW2   48   1.666   1.796   3.057 -1.2629  0.7673  0.8054
   17SOL     OW   49   0.116   0.475   0.171 -0.0075  0.0425 -0.0038
   17SOL    HW1   50   0.192   0.464   0.106 -1.5049 -0.6599 -0.4805
   17SOL    HW2   51   0.041   0.519   0.118 -0.0922 -0.5603 -0.2423
   18SOL     OW   52   0.910   2.884   2.156 -0.2558 -0.5567  0.3252
   18SOL    HW1   53   0.835   2.814   2.155 -2.1297 -2.5186  1.3560
   18SOL    HW2   54   0.989   2.863   2.090  0.1056  2.0354 -1.2433
   19SOL     OW   55   0.544   0.934   1.905 -0.4318  0.9110 -0.0893
   19SOL    HW1   56   0.576   0.862   1.973 -0.8947  0.6792 -2.3372
   19SOL    HW2   57   0.618   0.988   1.858 -1.2070  0.1323  0.1214
   20SOL     OW   58   0.234   2.803   0.771  0.3090  0.3244 -0.6967
   20SOL    HW1   59   0.130   2.806   0.778  2.8278 -0.9495 -1.5192
   20SOL    HW2   60   0.268   2.712   0.736 -0.3699 -3.6101 -2.0730
   21SOL     OW   61   2.763   0.281   2.015  0.9179 -0.3525  0.2892
   21SOL    HW1   62   2.698   0.229   1.955  1.0139  1.5729 -0.3721
   21SOL    HW2   63   2.839   0.218   2.050 -0.0613 -0.5429 -0.8902
   22SOL     OW   64   2.373   0.178   0.142  0.6399 -0.1791  0.1309
   22SOL    HW1   65   2.407   0.106   0.081 -2.7791 -0.7284 -1.0977
   22SOL    HW2   66   2.295   0.238   0.104 -2.3895 -2.6565 -0.1208
   23SOL     OW   67   2.819   0.528   0.687  0.1921 -0.1308 -0.1534
   23SOL    HW1   68   2.860   0.451   0.635 -1.1890  1.8472 -0.8168
   23SOL    HW2   69   2.838   0.616   0.637 -0.8965 -0.7872  2.0335
   24SOL     OW   70   0.314   1.877   0.469  0.2441 -0.3064 -0.3974
   24SOL    HW1   71   0.306   1.968   0.427  2.0380  1.0060 -0.9622
   24SOL    HW2   72   0.398   1.829   0.436 -0.6363  0.6496 -0.2994
   25SOL     OW   73   2.298   0.609   0.222  0.2906 -0.0800 -0.0393
   25SOL    HW1   74   2.284   0.599   0.118  0.9724  0.9938  0.1231
   25SOL    HW2   75   2.357   0.534   0.263 -0.1140 -1.9119 -1.4157
   26SOL     OW   76   2.456   2.155   2.100 -0.6151  0.0955 -0.7518
   26SOL    HW1   77   2.524   2.205   2.158 -1.3517  0.0701  0.6542
   26SOL    HW2   78   2.497   2.079   2.043  1.1573  2.6726 -0.5288
   27SOL     OW   79   0.636   3.030   0.121  0.5214  0.0287 -0.1099
   27SOL    HW1   80   0.734   3.079   0.117  0.9171  1.2325 -1.2684
   27SOL    HW2   81   0.604   2.999   0.024 -1.7382  1.5607  2.1190
   28SOL     OW   82   1.576   0.161   0.307  0.1857  0.3714  0.2661
   28SOL    HW1   83   1.627   0.131   0.217  2.0163 -0.2848 -1.3218
   28SOL    HW2   84   1.626   0.236   0.354  1.8508 -2.2055 -0.9157
   29SOL     OW   85   2.015   0.553   0.312 -0.2355 -0.2448  0.1735
   29SOL    HW1   86   1.983   0.593   0.399  0.1132  0.1560  0.8748
   29SOL    HW2   87   2.098   0.601   0.269  0.1519 -0.3890  1.9824
   30SOL     OW   88   0.193   2.085   0.928  0.7691  0.5490  0.2004
   30SOL    HW1   89   0.195   1.997   0.874 -0.4901  3.1283 -0.3197
   30SOL    HW2   90   0.097   2.121   0.941  2.6089  1.8230  0.1361
   31SOL     OW   91   2.097   0.087   2.420 -0.4605 -0.0626  0.1572
   31SOL    HW1   92   2.081   0.059   2.520 -2.0925 -1.0089 -0.8231
   31SOL    HW2   93   2.021   0.058   2.360 -1.5009  0.5883  1.6912
   32SOL     OW   94   3.082   3.062   0.252  0.2051 -0.7764  0.1707
   32SOL    HW1   95   3.050   2.977   0.297  0.2077  1.7644  0.3063
   32SOL    HW2   96   3.183   3.058   0.230  0.6237  1.0908  1.9648
   33SOL     OW   97   0.900   0.237   0.645 -0.2230  0.8750 -0.2669
   33SOL    HW1   98   0.879   0.172   0.568 -2.1258  4.0553  1.5064
   33SOL    HW2   99   0.992   0.290   0.635 -0.4957 -0.2421  0.3063
   34SOL     OW  100   0.334   2.680   1.013 -0.4745 -0.2574  0.4669
   34SOL    HW1  101   0.283   2.720   0.932 -1.2295 -3.1907 -0.3750
   34SOL    HW2  102   0.433   2.718   1.021  2.5966 -2.9491  0.6639
   35SOL     OW  103   0.055   0.145   1.918  0.3992  0.6632  0.0652
   35SOL    HW1  104   0.084   0.050   1.950 -1.0655 -2.0543 -3.4553
   35SOL    HW2  105   0.036   0.148   1.815  0.3654  0.7351  0.5647
   36SOL     OW  106   1.904   1.209   1.496 -0.3205  0.7120  0.0045
   36SOL    HW1  107   2.002   1.176   1.501 -1.9221  1.0423 -1.9866
   36SOL    HW2  108   1.890   1.291   1.433 -2.3920  0.5913 -1.7486
   37SOL     OW  109   1.135   0.254   1.013  0.3722  0.2434 -0.4339
   37SOL    HW1  110   1.144   0.354   0.980  1.0235 -2.4708  1.6492
   37SOL    HW2  111   1.206   0.193   0.972 -0.5420 -0.4775  1.8514
   38SOL     OW  112   1.167   2.852   2.458 -0.2507 -0.1161  0.2624
   38SOL    HW1  113   1.076   2.818   2.485  2.2625 -0.6635 -1.3266
   38SOL    HW2  114   1.154   2.952   2.425 -0.3226  0.4590  0.4024
   39SOL     OW  115   2.481   1.413   2.991  0.1020  0.2009 -0.6434
   39SOL    HW1  116   2.565   1.354   2.996 -1.9000 -0.8795 -1.5699
   39SOL    HW2  117   2.410   1.390   3.063 -0.4493  2.3666 -0.1076
   40SOL     OW  118   2.038   2.520   2.511  0.0224 -0.0055 -0.0121
   40SOL    HW1  119   2.005   2.619   2.520 -1.2025 -0.8074 -0.4791
   40SOL    HW2  120   1.966   2.464   2.471  0.5642  3.2490  0.7344
   41SOL     OW  121   3.029   0.714   2.797 -0.1208 -0.1921  0.6140
   41SOL    HW1  122   2.995   0.787   2.861  0.5753  0.7642  2.5485
   41SOL    HW2  123   2.948   0.665   2.751  1.0990 -0.5328 -2.0570
   42SOL     OW  124   1.728   1.743   0.501 -0.6044  0.4678 -0.3909
   42SOL    HW1  125   1.706   1.644   0.477  0.8408  0.7919 -1.1697
   42SOL    HW2  126   1.751   1.803   0.416 -0.4628  1.9746 -1.1810
   43SOL     OW  127   0.470   1.683   1.131  0.7058 -0.0216  0.0838
   43SOL    HW1  128   0.464   1.582   1.118 -0.5774  3.6610 -0.1735
   43SOL    HW2  129   0.447   1.706   1.228  0.3617  1.2194 -1.4791
   44SOL     OW  130   1.678   2.327   2.921  0.0950  0.4856  0.0395
   44SOL    HW1  131   1.575   2.327   2.911 -0.8992 -0.9262  2.5342
   44SOL    HW2  132   1.723   2.399   2.860 -0.5965 -0.6256 -1.0232
   45SOL     OW  133   0.364   1.904   2.643  0.0191 -0.0383 -0.1222
   45SOL    HW1  134   0.305   1.893   2.560 -1.3263 -1.1845  0.6949
   45SOL    HW2  135   0.439   1.833   2.637  0.4606 -1.6944  2.3112
   46SOL     OW  136   1.334   0.728   0.245  0.0258  0.2305 -0.4062
   46SOL    HW1  137   1.321   0.809   0.185  0.3416 -2.7830 -0.4158
   46SOL    HW2  138   1.299   0.639   0.211  1.2642  0.0493  3.9505
   47SOL     OW  139   0.120   2.376   1.605  0.3864 -0.0440  0.2407
   47SOL    HW1  140   0.073   2.298   1.662  0.2704 -1.8175 -0.1503
   47SOL    HW2  141   0.114   2.365   1.500 -1.7471 -2.0365 -0.1966
   48SOL     OW  142   2.635   0.737   0.125 -0.2391  1.0237  0.0663
   48SOL    HW1  143   2.621   0.690   0.220 -0.3924 -0.7594  1.4874
   48SOL    HW2  144   2.737   0.734   0.096  0.6318 -3.6382  0.1032
   49SOL     OW  145   0.345   0.843   1.737  0.0514  0.2614  0.2681
   49SOL    HW1  146   0.414   0.881   1.806 -2.2135 -1.1808  0.9758
   49SOL    HW2  147   0.390   0.780   1.670  1.7793  2.8601  0.6577
   50SOL     OW  148   1.711   1.089   0.313 -0.4784  0.2733 -0.1412
   50SOL    HW1  149   1.766   1.000   0.305  0.8640 -0.1513  0.3932
   50SOL    HW2  150   1.667   1.102   0.405  0.9122  0.1449  0.7679
   51SOL     OW  151   2.970   1.742   0.306  0.3602 -0.2040 -0.4810
   51SOL    HW1  152   2.898   1.688   0.359  0.2483  1.9283 -0.2063
   51SOL    HW2  153   3.062   1.715   0.342 -0.6241  0.8154  1.0328
   52SOL     OW  154   0.768   2.158   0.566 -0.0249 -0.1584  0.0608
   52SOL    HW1  155   0.666   2.168   0.549 -0.2620  0.8087  2.7613
   52SOL    HW2  156   0.793   2.105   0.651 -0.2223  0.0888  0.7139
   53SOL     OW  157   0.314   0.424   1.438 -0.0637  0.2411  0.0089
   53SOL    HW1  158   0.338   0.520   1.470  0.1570 -0.5535 -0.3802
   53SOL    HW2  159   0.286   0.429   1.337  0.7525  1.1086 -0.5100
   54SOL     OW  160   1.746   0.439   0.003  0.0856 -0.3575 -0.3817
   54SOL    HW1  161   1.821   0.387   0.053 -0.3058 -0.2819 -0.2367
   54SOL    HW2  162   1.651   0.428   0.046  0.2507 -1.2620  2.0980
   55SOL     OW  163   0.791   2.953   0.625  0.2474 -0.0012 -0.2689
   55SOL    HW1  164   0.755   3.049   0.619  1.5924 -0.4625  0.1584
   55SOL    HW2  165   0.891   2.951   0.603 -0.1635  2.8108  3.5077
   56SOL     OW  166   0.552   1.538   3.056 -0.3881 -0.1867 -0.3506
   56SOL    HW1  167   0.484   1.587   3.117 -1.1831  3.0428  0.4545
   56SOL    HW2  168   0.515   1.451   3.010 -2.5004 -0.6802 -0.7951
   57SOL     OW  169   1.669   2.464   2.348 -0.2563  0.4188  0.3910
   57SOL    HW1  170   1.745   2.398   2.378 -0.5716  0.6686  0.5346
   57SOL    HW2  171   1.600   2.470   2.426 -0.6670 -1.0273  1.2200
   58SOL     OW  172   0.643   0.213   1.104 -0.0295 -0.2442  0.2770
   58SOL    HW1  173   0.545   0.206   1.138  0.2691  4.8075  1.2079
   58SOL    HW2  174   0.686   0.119   1.089 -1.3158 -2.4255 -1.2212
   59SOL     OW  175   0.467   2.360   2.603  0.1451  0.1090 -1.1085
   59SOL    HW1  176   0.497   2.270   2.637 -0.3133  1.1425  2.1685
   59SOL    HW2  177   0.537   2.437   2.625  0.0008 -0.6919 -1.5548
   60SOL     OW  178   2.302   2.030   2.285 -0.3487  0.6134 -0.1095
   60SOL    HW1  179   2.342   2.066   2.196 -1.4788 -0.1923 -0.6379
   60SOL    HW2  180   2.329   2.084   2.368  0.9509  0.2532  1.4878
   61SOL     OW  181   1.195   0.658   0.471 -0.1601  0.1766 -0.3690
   61SOL    HW1  182   1.096   0.671   0.499 -2.1875  0.1329 -0.1640
   61SOL    HW2  183   1.211   0.692   0.375  2.0295 -1.8790  0.9199
   62SOL     OW  184   2.801   1.698   2.691 -0.0835 -0.4707  0.2682
   62SOL    HW1  185   2.744   1.613   2.705  0.2876  2.9346  1.3053
   62SOL    HW2  186   2.894   1.691   2.731 -0.1118 -1.1923 -0.8840
   63SOL     OW  187   0.537   0.891   0.182  0.0176 -0.2875 -0.2605
   63SOL    HW1  188   0.598   0.949   0.118 -0.6233 -0.7349 -2.0087
   63SOL    HW2  189   0.559   0.898   0.281 -1.3594 -1.1364 -1.2621
   64SOL     OW  190   2.998   0.557   2.345 -0.0363  0.0028  0.5594
   64SOL    HW1  191   2.941   0.602   2.415 -0.7268 -0.4684 -0.0928
   64SOL    HW2  192   2.998   0.599   2.255 -0.5533  0.6559  1.5665
   65SOL     OW  193   0.227   1.434   0.680 -0.0955 -0.4709 -0.4332
   65SOL    HW1  194   0.218   1.536   0.708  1.8909  0.2954  1.8785
   65SOL    HW2  195   0.267   1.415   0.582 -0.6752  1.5677  0.1307
   66SOL     OW  196   2.580   0.336   0.531  0.8167 -0.2819 -0.0807
   66SOL    HW1  197   2.679   0.315   0.528 -3.5665 -2.4572  1.4196
   66SOL    HW2  198   2.529   0.257   0.581  0.1537 -0.4602 -3.0395
   67SOL     OW  199   0.589   2.518   1.462 -0.4180 -0.6022  1.1561
   67SOL    HW1  200   0.676   2.480   1.500  1.9288 -0.9163 -0.3468
   67SOL    HW2  201   0.515   2.444   1.454  1.3345 -0.6217  0.9233
   68SOL     OW  202   0.912   1.048   2.480  0.1849  0.9819  0.9427
   68SOL    HW1  203   0.992   0.987   2.454  0.0954  0.6396  3.1948
   68SOL    HW2  204   0.854   1.084   2.403 -0.3797 -1.6951  1.4713
   69SOL     OW  205   0.800   2.605   2.359 -0.1363 -0.6482 -0.2796
   69SOL    HW1  206   0.832   2.570   2.270  1.7236 -0.5980  0.6407
   69SOL    HW2  207   0.706   2.564   2.375 -0.1971 -1.4998  1.1434
   70SOL     OW  208   0.479   0.161   2.573  0.3299  0.0243  0.1169
   70SOL    HW1  209   0.403   0.136   2.636 -0.1953  0.7886  0.5168
   70SOL    HW2  210   0.549   0.086   2.575 -0.9807 -1.8598  3.2370
   71SOL     OW  211   1.063   1.763   0.310 -0.3206 -0.1221 -0.2740
   71SOL    HW1  212   0.991   1.747   0.383  3.1774  1.3258 -0.8388
   71SOL    HW2  213   1.019   1.774   0.216  0.0954  0.0010  0.3796
   72SOL     OW  214   1.876   0.267   2.151 -0.0783 -0.0469 -0.1216
   72SOL    HW1  215   1.911   0.322   2.066  1.7245  1.9182 -1.3323
   72SOL    HW2  216   1.935   0.181   2.175  1.6045 -3.1923 -1.0542
   73SOL     OW  217   2.751   2.205   2.496 -0.0421  0.2974  0.1462
   73SOL    HW1  218   2.735   2.110   2.456  1.1158  1.3095 -1.2006
   73SOL    HW2  219   2.799   2.189   2.588 -3.9644 -0.7294  2.6340
   74SOL     OW  220   2.719   2.940   2.117  0.0844  0.4571  0.5671
   74SOL    HW1  221   2.646   2.943   2.191  2.2731  2.3714  0.2234
   74SOL    HW2  222   2.800   2.987   2.156 -1.7679 -0.3865  0.8195
   75SOL     OW  223   0.945   0.807   1.166 -0.5271 -0.3707  0.1405
   75SOL    HW1  224   0.841   0.796   1.154 -2.1790 -0.9890  0.5325
   75SOL    HW2  225   0.980   0.869   1.246  0.8983  2.1642  1.2169
   76SOL     OW  226   1.874   1.264   2.632  0.1361 -0.7647  0.1054
   76SOL    HW1  227   1.771   1.281   2.639 -2.9311 -2.1963 -2.0739
   76SOL    HW2  228   1.927   1.339   2.684 -0.6409  1.5776  0.6626
   77SOL     OW  229   2.913   0.929   1.047  0.2063 -0.1084 -0.3141
   77SOL    HW1  230   2.915   0.825   1.032  1.6767 -1.4195  0.1182
   77SOL    HW2  231   2.985   0.957   1.119 -0.1389 -0.1625 -0.0014
   78SOL     OW  232   1.959   1.426   1.345 -0.6441 -0.4904 -0.3781
   78SOL    HW1  233   2.046   1.409   1.297 -0.8180  1.8758 -0.5151
   78SOL    HW2  234   1.886   1.461   1.278 -0.7332 -0.1265  0.6517
   79SOL     OW  235   0.707   1.461   0.842 -0.1424  0.4068  0.1773
   79SOL    HW1  236   0.605   1.464   0.839 -0.9487  1.3170  4.5336
   79SOL    HW2  237   0.745   1.363   0.823 -1.2932 -2.9150 -2.7196
   80SOL     OW  238   0.660   0.460   1.589  0.5850  0.4088  0.4967
   80SOL    HW1  239   0.677   0.514   1.504  0.7085  2.8149  3.3283
   80SOL    HW2  240   0.643   0.358   1.579  0.1689 -1.2698 -0.1663
   81SOL     OW  241   1.082   1.265   2.503 -0.1682  0.1152 -0.2523
   81SOL    HW1  242   1.023   1.177   2.495 -0.6342 -0.1949 -0.5464
   81SOL    HW2  243   1.021   1.341   2.544 -1.5271  0.3806 -0.1675
   82SOL     OW  244   0.921   2.952   1.585  0.2503  0.1082  0.8313
   82SOL    HW1  245   1.022   2.928   1.583  0.3393 -0.0047  3.3744
   82SOL    HW2  246   0.886   2.956   1.492  2.2877  1.8282  0.6552
   83SOL     OW  247   2.649   2.366   0.868 -0.1801 -1.0262  0.2678
   83SOL    HW1  248   2.547   2.344   0.865  2.7218 -0.4059  0.0183
   83SOL    HW2  249   2.672   2.446   0.925  1.3250  0.0500  0.5532
   84SOL     OW  250   0.772   3.093   2.286 -0.3066 -0.2047  0.1747
   84SOL    HW1  251   0.742   3.080   2.386 -2.1663 -1.0294  0.2015
   84SOL    HW2  252   0.825   3.017   2.248 -0.3249  1.4319  2.1588
   85SOL     OW  253   0.322   1.709   1.353 -0.0507 -0.1518 -0.4452
   85SOL    HW1  254   0.307   1.808   1.391 -1.8132  1.3445 -0.6274
   85SOL    HW2  255   0.351   1.645   1.431  0.1942  0.8096 -1.2105
   86SOL     OW  256   0.451   1.046   1.441 -0.2067 -0.0817 -1.1247
   86SOL    HW1  257   0.408   0.978   1.375 -2.7132 -1.4389 -1.2547
   86SOL    HW2  258   0.552   1.040   1.450 -2.7226  0.8593 -1.6361
   87SOL     OW  259   1.635   0.633   0.287  0.7484  0.2506 -0.1156
   87SOL    HW1  260   1.688   0.723   0.264  2.1615 -1.3587  2.0763
   87SOL    HW2  261   1.569   0.593   0.215  1.4425 -1.7689 -1.2816
   88SOL     OW  262   1.567   1.328   0.250 -0.0040  0.0569  0.0701
   88SOL    HW1  263   1.612   1.234   0.250  0.8897  1.0816  1.2847
   88SOL    HW2  264   1.462   1.322   0.261  4.5363  1.0894  0.3341
   89SOL     OW  265   0.005   0.391   0.683 -0.0366 -0.3905  0.0523
   89SOL    HW1  266   0.106   0.375   0.706  0.1237  0.9909  1.1441
   89SOL    HW2  267  -0.047   0.304   0.666 -1.3789  2.7569  2.9854
   90SOL     OW  268   0.741   1.523   0.144  0.2687  0.0286 -0.9214
   90SOL    HW1  269   0.837   1.486   0.127  0.4187  0.9010 -0.2486
   90SOL    HW2  270   0.680   1.535   0.060  0.9516  0.1045 -0.2910
   91SOL     OW  271   1.309   1.514   1.695 -0.1377  0.0280 -0.3839
   91SOL    HW1  272   1.244   1.563   1.756  0.9224 -0.0128  3.4155
   91SOL    HW2  273   1.341   1.426   1.734 -0.1236 -0.9954  0.2318
   92SOL     OW  274   0.023   1.006   1.210  0.3969 -0.0273 -0.6677
   92SOL    HW1  275   0.091   1.068   1.162  1.6535  2.6424 -0.8766
   92SOL    HW2  276   0.037   1.004   1.316  1.0183 -2.3072  3.3236
   93SOL     OW  277   3.045   2.643   0.067 -0.1994  0.1037 -0.1187
   93SOL    HW1  278   2.994   2.638  -0.017 -2.6575 -1.3369  1.8172
   93SOL    HW2  279   3.085   2.555   0.098 -0.3210  1.7964  0.7829
   94SOL     OW  280   1.516   1.313   1.680  0.7589  0.0923  0.2692
   94SOL    HW1  281   1.581   1.233   1.673 -0.5088  0.7509 -2.0181
   94SOL    HW2  282   1.550   1.399   1.638  0.5571  0.2196 -2.3305
   95SOL     OW  283   1.357   2.459   2.925  0.1005 -0.3503  0.1897
   95SOL    HW1  284   1.278   2.458   2.988 -1.2434 -0.6589  0.5743
   95SOL    HW2  285   1.353   2.373   2.861  1.1318 -0.9414  0.8354
   96SOL     OW  286   0.568   2.165   1.305 -0.0805 -0.1502 -0.2208
   96SOL    HW1  287   0.526   2.138   1.215 -0.5450  1.1983  1.0351
   96SOL    HW2  288   0.626   2.092   1.352  2.8276  0.8328 -0.0431
   97SOL     OW  289   0.242   1.604   2.385 -0.0561 -0.3085  0.0427
   97SOL    HW1  290   0.241   1.706   2.375  2.7858 -1.5478 -1.2681
   97SOL    HW2  291   0.263   1.587   2.485  1.5248 -2.8569  1.2410
   98SOL     OW  292   2.197   1.673   1.187  1.1193  0.0002 -0.5837
   98SOL    HW1  293   2.146   1.582   1.177  1.0425  1.2877  0.3023
   98SOL    HW2  294   2.297   1.677   1.162 -0.6973 -1.0351  0.5063
   99SOL     OW  295   2.617   2.040   1.293  0.1400  0.4679 -0.0597
   99SOL    HW1  296   2.682   2.072   1.365  1.6647 -0.2153  2.3494
   99SOL    HW2  297   2.543   1.978   1.335  0.2741  0.4569  1.2852
  100SOL     OW  298   2.338   0.355   2.124  0.0095 -0.3455  0.3083
  100SOL    HW1  299   2.278   0.339   2.205 -0.1919  2.4397 -0.0454
  100SOL    HW2  300   2.435   0.385   2.152 -0.8525  0.1528 -0.6672
  101SOL     OW  301   0.362   1.456   0.422  0.1567  0.6749 -0.0357
  101SOL    HW1  302   0.355   1.544   0.479 -2.7225 -2.3670  1.0542
  101SOL    HW2  303   0.459   1.430   0.397 -1.6113 -0.7843 -1.1228
  102SOL     OW  304   2.252   1.071   0.856  0.2184  0.2276  0.7116
  102SOL    HW1  305   2.212   0.979   0.816 -0.0990 -0.9971  3.0138
  102SOL    HW2  306   2.346   1.088   0.821  2.9670 -2.7833  0.5840
  103SOL     OW  307   2.282   0.086   0.375 -0.1285  0.4022 -0.4048
  103SOL    HW1  308   2.312   0.124   0.285  2.3649  1.1541  2.8609
  103SOL    HW2  309   2.351   0.018   0.411 -1.0040 -3.5933 -0.3876
  104SOL     OW  310   3.051   1.800   2.203  0.1569  0.4516  0.7929
  104SOL    HW1  311   3.106   1.810   2.120  0.4049  0.0180  1.2213
  104SOL    HW2  312   2.947   1.782   2.190  1.5816 -1.9882 -0.9912
  105SOL     OW  313   1.320   2.096   0.758 -0.4889 -0.1987 -0.2797
  105SOL    HW1  314   1.285   2.152   0.678 -0.5206 -0.7542 -0.3897
  105SOL    HW2  315   1.320   1.996   0.745 -2.5234  1.9984  0.0308
  106SOL     OW  316   2.136   0.409   1.429 -0.3428 -0.1044  0.6339
  106SOL    HW1  317   2.062   0.346   1.397 -0.0944 -0.2613 -2.5565
  106SOL    HW2  318   2.124   0.435   1.529  1.9032  0.8150 -0.0907
  107SOL     OW  319   1.928   2.901   1.151 -0.2321 -0.1112  0.0743
  107SOL    HW1  320   1.867   2.966   1.203 -2.3559 -2.4676  0.7944
  107SOL    HW2  321   1.871   2.834   1.095  0.0775  1.5885  3.4482
  108SOL     OW  322   0.854   2.815   1.122  0.0795 -0.2169 -0.2626
  108SOL    HW1  323   0.880   2.720   1.085  2.7619 -0.5536 -1.1509
  108SOL    HW2  324   0.933   2.853   1.182  0.4325  0.4251 -1.3116
  109SOL     OW  325   2.173   0.164   0.729  0.1582  0.0688  0.3294
  109SOL    HW1  326   2.121   0.112   0.655  0.2830 -0.8229  0.3914
  109SOL    HW2  327   2.128   0.157   0.824  0.9749 -2.2599 -0.5009
  110SOL     OW  328   0.506   2.835   2.754  0.1697  0.0860 -0.2281
  110SOL    HW1  329   0.485   2.832   2.654 -1.0091  0.9480  2.7569
  110SOL    HW2  330   0.576   2.766   2.788 -0.5666 -1.7681  1.4311
  111SOL     OW  331   1.330   0.582   2.283 -0.1023  0.3107  0.6214
  111SOL    HW1  332   1.237   0.609   2.315 -0.5055 -2.3978  0.8191
  111SOL    HW2  333   1.365   0.491   2.320 -0.4339  1.3545 -1.1505
  112SOL     OW  334   1.739   0.470   1.542 -0.2132  0.7643 -0.0220
  112SOL    HW1  335   1.711   0.518   1.457  0.1567  1.9251  0.1716
  112SOL    HW2  336   1.653   0.463   1.604  1.5985  0.0985 -1.7724
  113SOL     OW  337   2.311   1.673   1.796 -1.2661  0.4905  0.0763
  113SOL    HW1  338   2.369   1.591   1.775  0.6080 -0.0199 -1.4192
  113SOL    HW2  339   2.283   1.692   1.897  0.9067  0.3776  1.7864
  114SOL     OW  340   0.237   0.396   1.153 -0.8091 -0.1021 -0.1059
  114SOL    HW1  341   0.137   0.389   1.167 -2.0930  1.9634  1.6737
  114SOL    HW2  342   0.258   0.442   1.064 -4.0703 -0.6330  1.9842
  115SOL     OW  343   2.685   1.532   1.256 -0.4234  0.4137 -0.2590
  115SOL    HW1  344   2.671   1.432   1.265  2.5110  1.3872  3.1246
  115SOL    HW2  345   2.788   1.551   1.268 -0.6124  2.5732 -1.5140
  116SOL     OW  346   1.937   0.916   0.733 -0.2742 -0.1425 -0.5164
  116SOL    HW1  347   1.840   0.893   0.711  1.1342 -0.6324 -0.9254
  116SOL    HW2  348   1.959   1.016   0.745  1.3523 -2.9971 -0.3484
  117SOL     OW  349   1.132   0.357   0.551 -0.0137 -0.0407  0.5931
  117SOL    HW1  350   1.150   0.452   0.571  1.7085 -0.4464  2.9027
  117SOL    HW2  351   1.115   0.330   0.452 -0.3799  0.3603 -1.3330
  118SOL     OW  352   1.151   1.223   1.091 -0.1224  0.1239  0.2086
  118SOL    HW1  353   1.052   1.209   1.107  1.8944 -0.7060 -2.5911
  118SOL    HW2  354   1.181   1.323   1.109 -1.4695  0.1007  0.4808
  119SOL     OW  355   1.872   1.587   2.201  0.0493  0.2692 -0.3410
  119SOL    HW1  356   1.828   1.654   2.138 -1.0885 -1.2650  2.1633
  119SOL    HW2  357   1.966   1.546   2.171  2.2933  2.4825 -0.8201
  120SOL     OW  358   2.975   2.804   0.270 -0.1480  0.1637 -0.4849
  120SOL    HW1  359   3.006   2.759   0.182 -0.9417  2.1769  0.5256
  120SOL    HW2  360   2.873   2.833   0.276 -1.1156  2.7493  1.4986
  121SOL     OW  361   2.008   0.781   2.321 -0.4994 -0.1007  0.0700
  121SOL    HW1  362   2.039   0.865   2.265  2.7612  1.1260  0.9570
  121SOL    HW2  363   2.028   0.691   2.278 -0.3299 -0.5481  0.6684
  122SOL     OW  364   2.639   2.496   1.358 -0.0639 -0.3248  0.0933
  122SOL    HW1  365   2.695   2.444   1.290  0.2506  1.2483  0.8143
  122SOL    HW2  366   2.622   2.447   1.451  1.7309  1.1480 -1.0833
  123SOL     OW  367   1.649   0.183   1.669  0.1545  0.0998 -0.5810
  123SOL    HW1  368   1.662   0.091   1.624 -0.2855  1.3852  1.0413
  123SOL    HW2  369   1.740   0.222   1.698  0.7368 -2.2597 -1.3115
  124SOL     OW  370   3.073   0.412   1.165  1.0980 -0.5347  0.1736
  124SOL    HW1  371   3.020   0.444   1.250  2.8296 -1.7422 -0.8333
  124SOL    HW2  372   3.056   0.473   1.079  1.4913  0.8009 -0.0954
  125SOL     OW  373   0.892   1.990   0.755 -0.1206  0.1921  0.4477
  125SOL    HW1  374   0.975   1.927   0.765  0.7858 -3.1880  0.8085
  125SOL    HW2  375   0.825   1.988   0.832  2.6067  0.5193 -0.3862
  126SOL     OW  376   1.894   2.298   2.452 -0.1381 -0.7949  0.0095
  126SOL    HW1  377   1.973   2.273   2.388  3.4529  0.7626  0.9221
  126SOL    HW2  378   1.911   2.248   2.542  2.2464  1.5520 -1.1378
  127SOL     OW  379   0.899   0.969   0.167  0.3716 -0.1668 -0.0700
  127SOL    HW1  380   0.911   0.998   0.268 -3.2969  0.7472  0.1110
  127SOL    HW2  381   0.885   0.868   0.161 -0.8252  1.4987  1.0345
  128SOL     OW  382   0.930   0.182   1.394  0.2412 -0.1130 -0.4480
  128SOL    HW1  383   0.886   0.267   1.354 -2.3748  2.0564 -1.7934
  128SOL    HW2  384   0.879   0.101   1.360 -0.7442 -1.9699 -0.4679
  129SOL     OW  385   1.886   0.724   1.848  0.1289 -0.3217 -0.2771
  129SOL    HW1  386   1.924   0.730   1.753 -0.7128  1.1171  2.9237
  129SOL    HW2  387   1.914   0.808   1.905  1.9830 -0.2246  2.7385
  130SOL     OW  388   1.390   2.169   1.026  0.4806 -0.3753  0.2262
  130SOL    HW1  389   1.358   2.124   0.937  0.9231  0.0639 -1.2637
  130SOL    HW2  390   1.439   2.259   1.004  0.1238 -1.0114  1.1267
  131SOL     OW  391   3.023   1.391   1.423 -0.5233  0.0170  0.6283
  131SOL    HW1  392   2.971   1.305   1.407  0.7101  1.3455  1.0447
  131SOL    HW2  393   3.121   1.384   1.408  0.7265 -2.6445 -2.1161
  132SOL     OW  394   2.053   2.423   0.550  0.3685  0.0458 -0.2175
  132SOL    HW1  395   1.955   2.462   0.561  0.4210  0.4222 -2.0340
  132SOL    HW2  396   2.066   2.338   0.608 -1.9864 -0.2722  0.1573
  133SOL     OW  397   1.769   2.511   2.732  0.4991 -0.3924 -0.6117
  133SOL    HW1  398   1.711   2.479   2.652 -0.2673 -1.6275  1.0319
  133SOL    HW2  399   1.751   2.609   2.760  1.6801  2.3596  1.2893
  134SOL     OW  400   2.619   2.411   1.621 -0.0515  0.2052  0.5868
  134SOL    HW1  401   2.575   2.357   1.701 -0.8224  2.5798 -0.0794
  134SOL    HW2  402   2.662   2.498   1.661 -0.1747 -0.7282 -0.1048
  135SOL     OW  403   0.802   1.349   2.655 -0.3510 -0.7457  0.3222
  135SOL    HW1  404   0.742   1.276   2.691  0.1274  1.5457 -0.2635
  135SOL    HW2  405   0.792   1.370   2.551  3.5705 -2.3922  0.2377
  136SOL     OW  406   1.188   1.993   0.402  1.0783  0.2615  0.3453
  136SOL    HW1  407   1.124   2.071   0.438  0.9518  1.2210  1.7401
  136SOL    HW2  408   1.134   1.907   0.372 -0.3727 -0.2845  0.0367
  137SOL     OW  409   0.432   1.192   2.305  1.0623 -0.8159 -0.1172
  137SOL    HW1  410   0.335   1.164   2.310  0.5440  1.3013  0.2927
  137SOL    HW2  411   0.494   1.111   2.318 -2.3090 -1.1230  1.7695
  138SOL     OW  412   2.448   1.480   0.258 -0.4317  0.0503  0.3243
  138SOL    HW1  413   2.386   1.433   0.187  1.7338 -1.4961  2.8975
  138SOL    HW2  414   2.503   1.413   0.315  0.5406 -0.3321 -1.0482
  139SOL     OW  415   1.890   2.645   1.580  0.6196  0.1165  0.1081
  139SOL    HW1  416   1.795   2.679   1.559 -0.1673 -0.4489 -1.1457
  139SOL    HW2  417   1.919   2.576   1.504 -0.4242 -2.4250 -1.8585
  140SOL     OW  418   2.995   2.962   2.588 -0.2366 -0.4964  0.5648
  140SOL    HW1  419   3.048   2.875   2.617  1.2967  1.2370  0.6068
  140SOL    HW2  420   3.062   3.043   2.564  1.8371  1.3551  2.3470
  141SOL     OW  421   1.316   1.645   1.464 -0.6958 -0.5536 -1.0183
  141SOL    HW1  422   1.226   1.692   1.465  1.4249  1.2974  0.3136
  141SOL    HW2  423   1.318   1.570   1.538  2.7099 -0.4721  0.7731
  142SOL     OW  424   1.593   0.671   2.228  0.0685  0.1000  0.0976
  142SOL    HW1  425   1.602   0.702   2.131  2.1556 -1.8341  1.5012
  142SOL    HW2  426   1.498   0.650   2.259 -0.5404  0.2688 -1.1745
  143SOL     OW  427   2.746   0.791   0.531  0.5198 -0.4776 -0.2068
  143SOL    HW1  428   2.810   0.833   0.457 -0.7704 -1.4484  1.0804
  143SOL    HW2  429   2.756   0.842   0.617 -1.5211 -0.4954 -0.6075
  144SOL     OW  430   2.914   1.151   1.430  0.1735  0.0623  0.1223
  144SOL    HW1  431   2.878   1.156   1.526 -3.7726 -0.3906 -0.1183
  144SOL    HW2  432   2.989   1.077   1.421  0.4509 -1.7222 -1.3404
  145SOL     OW  433   0.904   1.765   0.047  0.6302  0.2748 -0.0980
  145SOL    HW1  434   0.905   1.793  -0.052  0.0299  0.3668  0.6069
  145SOL    HW2  435   0.831   1.694   0.069 -2.4139  0.2988  0.2591
  146SOL     OW  436   2.470   0.662   1.525 -0.1532  0.6375 -0.1438
  146SOL    HW1  437   2.456   0.565   1.485 -2.4164 -1.2456 -3.3401
  146SOL    HW2  438   2.409   0.725   1.473  0.8392 -0.1141  2.3466
  147SOL     OW  439   1.100   2.508   0.560  0.5682  0.7338 -0.6226
  147SOL    HW1  440   1.037   2.552   0.490 -0.1834 -0.8713 -0.3287
  147SOL    HW2  441   1.193   2.479   0.520  2.1733 -0.1541  0.9107
  148SOL     OW  442   1.605   1.430   3.093  0.3869 -0.8190  0.1338
  148SOL    HW1  443   1.618   1.339   3.045 -0.2401  1.2224 -0.0814
  148SOL    HW2  444   1.570   1.424   3.191  2.1431  0.5065  0.4744
  149SOL     OW  445   0.665   1.498   2.000  0.2001  0.0040 -0.5812
  149SOL    HW1  446   0.571   1.473   2.032 -0.8735  1.4656 -0.5131
  149SOL    HW2  447   0.697   1.452   1.913 -1.3509 -0.1963  1.4805
  150SOL     OW  448   2.993   1.217   0.972 -0.8060 -0.0402  0.6056
  150SOL    HW1  449   3.080   1.248   1.028  1.0433  0.9570  2.0801
  150SOL    HW2  450   2.959   1.125   0.995 -1.6316 -0.7829  1.3186
  151SOL     OW  451   0.150   0.876   2.092  0.0595 -0.0859  0.1096
  151SOL    HW1  452   0.165   0.963   2.034 -1.3605  0.2805  1.1175
  151SOL    HW2  453   0.203   0.790   2.066  1.2785 -1.1820  1.3514
  152SOL     OW  454   1.464   1.868   1.112 -0.3771 -0.0868 -0.2918
  152SOL    HW1  455   1.502   1.961   1.096 -3.7581 -0.5646 -0.0287
  152SOL    HW2  456   1.361   1.873   1.113  1.7440  0.9863  1.8229
  153SOL     OW  457   0.092   1.484   0.259 -0.8989  0.0319 -0.2133
  153SOL    HW1  458  -0.009   1.458   0.271  1.2707 -1.4447 -0.4858
  153SOL    HW2  459   0.132   1.506   0.351  0.2443  0.0288 -1.7029
  154SOL     OW  460   2.293   1.849   2.769 -0.7141  0.2981  0.0760
  154SOL    HW1  461   2.324   1.749   2.783 -1.3553  0.0162  0.3455
  154SOL    HW2  462   2.355   1.906   2.712  0.1025 -0.1776 -0.7608
  155SOL     OW  463   2.559   1.297   0.436  1.1812 -0.1225 -0.1753
  155SOL    HW1  464   2.603   1.322   0.528  0.3758 -1.2719 -1.0466
  155SOL    HW2  465   2.602   1.213   0.393  1.5810  1.5004 -3.3404
  156SOL     OW  466   2.466   0.791   0.772  0.0583  0.2103 -0.2446
  156SOL    HW1  467   2.364   0.790   0.786 -0.5635  3.6136  1.1473
  156SOL    HW2  468   2.503   0.821   0.681  0.9626 -1.3358  2.9218
  157SOL     OW  469   1.256   3.090   3.042 -0.5189 -0.2118 -0.5686
  157SOL    HW1  470   1.331   3.026   3.003  0.3784  0.7318  0.5143
  157SOL    HW2  471   1.308   3.174   3.074  0.0399  0.6836 -0.2962
  158SOL     OW  472   1.084   1.882   1.853  0.4369 -0.4108  0.6070
  158SOL    HW1  473   1.121   1.975   1.811 -0.0788  0.3883  0.1360
  158SOL    HW2  474   0.983   1.885   1.877  0.7347 -0.9620 -4.3658
  159SOL     OW  475   0.793   0.388   1.238  0.3183 -0.3972 -0.1989
  159SOL    HW1  476   0.747   0.481   1.240 -0.9108 -1.1029 -0.4207
  159SOL    HW2  477   0.747   0.327   1.171 -2.4264 -0.6863 -0.3416
  160SOL     OW  478   1.391   2.468   1.409 -0.4421 -0.4590 -0.1306
  160SOL    HW1  479   1.327   2.408   1.463  0.8476  1.8408  1.1487
  160SOL    HW2  480   1.487   2.428   1.397 -0.4025  0.4886 -1.4452
  161SOL     OW  481   0.052   2.644   0.430  0.2499 -0.1371  0.0786
  161SOL    HW1  482   0.017   2.553   0.424  0.6843 -0.3002 -0.2076
  161SOL    HW2  483  -0.007   2.716   0.387  0.1633 -0.5055 -0.0083
  162SOL     OW  484   2.520   1.924   0.452 -0.0251  0.3978 -0.3713
  162SOL    HW1  485   2.582   1.927   0.368  0.5208 -1.9341 -2.3413
  162SOL    HW2  486   2.461   1.839   0.445 -0.2359 -1.8845 -4.4377
  163SOL     OW  487   1.972   2.748   0.772 -0.3106  0.2175  0.1955
  163SOL    HW1  488   1.946   2.749   0.674 -1.0834 -1.5905  2.9344
  163SOL    HW2  489   2.032   2.667   0.796 -0.2275  1.6875 -1.6221
  164SOL     OW  490   3.080   0.128   1.238 -0.7075  0.2382 -0.0520
  164SOL    HW1  491   3.075   0.224   1.202  1.1923 -0.2634  1.5996
  164SOL    HW2  492   3.158   0.120   1.304 -2.0633  3.6710 -0.0199
  165SOL     OW  493   1.105   1.415   0.636 -0.1708 -0.2637  0.6868
  165SOL    HW1  494   1.090   1.472   0.724 -3.8338 -1.1261 -0.6014
  165SOL    HW2  495   1.049   1.446   0.553 -0.6591 -2.4940  1.4160
  166SOL     OW  496   1.534   0.980   1.841  0.7665  0.4097 -0.5885
  166SOL    HW1  497   1.450   1.030   1.871  0.9882 -1.3740 -3.8461
  166SOL    HW2  498   1.606   1.050   1.816 -0.8600  1.3087 -0.8795
  167SOL     OW  499   0.668   2.012   1.518  0.0030  0.4260 -0.3003
  167SOL    HW1  500   0.678   2.093   1.581 -0.7606  2.5849 -0.4530
  167SOL    HW2  501   0.626   1.925   1.561  2.1214 -1.6627  0.8368
  168SOL     OW  502   1.628   2.292   0.134  0.5768 -0.1031  0.4442
  168SOL    HW1  503   1.695   2.277   0.060 -1.2952  1.9946  0.3726
  168SOL    HW2  504   1.660   2.283   0.233  0.5087  2.0253 -1.6423
  169SOL     OW  505   3.064   2.613   2.185 -0.3015  0.3270  0.2077
  169SOL    HW1  506   3.086   2.547   2.105 -0.5298 -1.0169  0.3015
  169SOL    HW2  507   3.101   2.574   2.274  2.4155  1.3851 -1.2614
  170SOL     OW  508   1.178   0.134   2.106  0.1779 -0.0259  0.1231
  170SOL    HW1  509   1.264   0.177   2.149  1.3113  2.2317  0.7049
  170SOL    HW2  510   1.191   0.108   2.005  0.8584  1.9485  0.7723
  171SOL     OW  511   0.197   0.855   2.432 -0.0781 -0.1325  0.4920
  171SOL    HW1  512   0.113   0.837   2.494 -0.7906 -1.4558 -1.2954
  171SOL    HW2  513   0.184   0.916   2.348  0.5422  1.0312 -2.5082
  172SOL     OW  514   0.964   0.960   2.793 -0.4521 -0.7352 -0.6345
  172SOL    HW1  515   0.928   1.020   2.873 -3.1319  0.7132 -1.7568
  172SOL    HW2  516   0.917   0.985   2.707 -2.0481  0.8965 -0.5758
  173SOL     OW  517   0.349   2.571   0.002 -0.2544  0.1377 -0.9940
  173SOL    HW1  518   0.429   2.550  -0.062  2.0870 -0.0700 -3.6290
  173SOL    HW2  519   0.352   2.532   0.097  2.5859 -0.5867  1.4939
  174SOL     OW  520   1.477   2.873   1.021  0.1047 -0.1413 -0.1480
  174SOL    HW1  521   1.523   2.946   0.960  0.5926 -0.3590 -0.3540
  174SOL    HW2  522   1.472   2.782   0.977 -0.7683  0.7050  0.7098
  175SOL     OW  523   0.502   3.022   1.714  0.1367 -0.0130 -0.2036
  175SOL    HW1  524   0.560   3.022   1.804  0.1379 -0.3568  0.4989
  175SOL    HW2  525   0.467   3.120   1.696 -0.9294  0.0874 -0.3210
  176SOL     OW  526   2.596   0.465   3.073 -0.6600  0.0629  0.4096
  176SOL    HW1  527   2.619   0.537   3.144 -1.6368  0.2377 -1.3813
  176SOL    HW2  528   2.521   0.407   3.113 -2.3537  1.5326 -1.3933
  177SOL     OW  529   0.371   0.189   0.831  0.1675 -1.0392 -0.3307
  177SOL    HW1  530   0.327   0.094   0.836 -2.8075  0.4223 -1.7385
  177SOL    HW2  531   0.469   0.185   0.861  2.0612  0.7075  2.0113
  178SOL     OW  532   0.009   2.725   2.665  0.3150  0.3049 -0.3109
  178SOL    HW1  533   0.004   2.625   2.644  1.1557 -0.7029  0.0235
  178SOL    HW2  534   0.097   2.758   2.708 -1.6324  2.7586 -0.5751
  179SOL     OW  535   2.960   1.577   1.243  0.1536 -0.1058  0.3516
  179SOL    HW1  536   3.047   1.600   1.195 -2.4920 -0.3435  0.0962
  179SOL    HW2  537   2.983   1.517   1.324  0.1046 -0.9004  0.1277
  180SOL     OW  538   0.294   1.405   1.741  0.0996  0.0638 -0.4500
  180SOL    HW1  539   0.349   1.335   1.798  1.9517 -0.2197  0.8737
  180SOL    HW2  540   0.247   1.473   1.799  1.1481 -2.6615 -0.5155
  181SOL     OW  541   3.006   1.752   2.480  0.2221 -0.2528 -0.0460
  181SOL    HW1  542   3.047   1.769   2.389  0.3549 -1.2375 -0.2410
  181SOL    HW2  543   2.904   1.769   2.470 -1.0445 -0.0395  0.2452
  182SOL     OW  544   2.177   1.390   1.189 -0.9584  0.3837 -0.1366
  182SOL    HW1  545   2.173   1.290   1.206  0.4742  1.8989  0.3928
  182SOL    HW2  546   2.223   1.412   1.096  0.0107 -1.9730 -0.4474
  183SOL     OW  547   1.456   2.236   2.430 -0.3910  0.2034  0.3006
  183SOL    HW1  548   1.383   2.182   2.482 -0.0398  1.3810  1.0501
  183SOL    HW2  549   1.527   2.169   2.386  0.2073  0.3877  1.4876
  184SOL     OW  550   2.177   0.780   0.740  0.4073 -0.0406  0.3217
  184SOL    HW1  551   2.075   0.810   0.741 -1.9068 -0.1697  0.2626
  184SOL    HW2  552   2.194   0.674   0.738 -0.8114 -3.4195  2.2497
  185SOL     OW  553   1.591   2.762   2.011 -0.2634 -0.9231  0.0871
  185SOL    HW1  554   1.516   2.833   2.011  1.7093  2.4332 -1.0886
  185SOL    HW2  555   1.622   2.744   2.109  0.2300 -0.3942 -0.0071
  186SOL     OW  556   0.022   2.192   1.771 -0.6352 -0.1103 -0.0930
  186SOL    HW1  557   0.000   2.258   1.851 -2.6862  0.1345  1.4386
  186SOL    HW2  558   0.100   2.119   1.788  2.4860 -2.9496 -1.7843
  187SOL     OW  559   1.316   0.678   1.625 -0.1650 -0.9891  0.0350
  187SOL    HW1  560   1.405   0.703   1.581 -2.0893 -0.1461  0.1845
  187SOL    HW2  561   1.339   0.640   1.722  0.1329  1.1161 -0.8057
  188SOL     OW  562   2.697   2.688   1.592  0.2496 -0.2305  0.0490
  188SOL    HW1  563   2.672   2.784   1.584  1.5068 -1.4645 -1.4059
  188SOL    HW2  564   2.659   2.631   1.513  0.6277  0.0070  0.7164
  189SOL     OW  565   0.897   1.205   1.362 -1.0709  0.1498  0.3303
  189SOL    HW1  566   0.916   1.285   1.428 -1.5017  0.2831  1.5779
  189SOL    HW2  567   0.882   1.230   1.262 -0.1354 -1.5365 -0.7132
  190SOL     OW  568   1.443   1.872   1.529  0.0705  0.2027  0.3378
  190SOL    HW1  569   1.405   1.776   1.512 -0.1406  2.4746 -1.2648
  190SOL    HW2  570   1.440   1.899   1.626 -3.2919 -0.2259 -1.0767
  191SOL     OW  571   0.853   0.783   1.500  0.2271  0.6691  0.0144
  191SOL    HW1  572   0.899   0.721   1.574 -0.9458 -0.7195  1.6518
  191SOL    HW2  573   0.911   0.853   1.454  2.0312 -1.9648 -0.8504
  192SOL     OW  574   1.828   2.449   1.134  0.1219 -0.2455  0.1440
  192SOL    HW1  575   1.746   2.388   1.148  0.8651  1.3463 -1.0166
  192SOL    HW2  576   1.892   2.402   1.075 -2.3943  6.1269  2.9937
  193SOL     OW  577   0.510   0.517   0.396 -0.3154 -0.7259 -0.2281
  193SOL    HW1  578   0.446   0.438   0.390  1.9183  1.5789 -0.4120
  193SOL    HW2  579   0.563   0.538   0.311  0.2794 -1.8791  0.8966
  194SOL     OW  580   0.393   0.833   1.274  0.0246 -0.0914  0.0562
  194SOL    HW1  581   0.299   0.793   1.253 -0.2055  0.4159 -0.3250
  194SOL    HW2  582   0.467   0.811   1.203  2.9071 -0.9573 -1.6289
  195SOL     OW  583   1.055   2.939   0.530  0.1503 -0.2893 -0.2143
  195SOL    HW1  584   1.027   2.849   0.490  2.0059 -0.5424  0.1431
  195SOL    HW2  585   1.145   2.971   0.489  0.7282 -0.9672  0.3001
  196SOL     OW  586   0.228   1.401   1.295 -0.2652 -0.3516 -0.0042
  196SOL    HW1  587   0.280   1.487   1.326  0.4900  0.2365  2.0204
  196SOL    HW2  588   0.257   1.318   1.350  0.8076 -2.3040 -1.9541
  197SOL     OW  589   0.795   1.938   0.250 -0.0938  0.1230 -0.6310
  197SOL    HW1  590   0.826   1.901   0.341  0.2511 -0.1321 -0.1520
  197SOL    HW2  591   0.799   1.869   0.173 -0.4343  1.4941  0.3782
  198SOL     OW  592   0.267   1.214   0.348 -0.2426  0.1076  0.2180
  198SOL    HW1  593   0.169   1.214   0.314  1.5155  1.4487 -0.6791
  198SOL    HW2  594   0.293   1.304   0.392 -1.0459 -1.1234 -1.2293
  199SOL     OW  595   2.212   0.411   2.632 -0.3875 -0.3587  0.3050
  199SOL    HW1  596   2.154   0.358   2.701  1.3812  1.9151  0.2802
  199SOL    HW2  597   2.316   0.391   2.646 -0.4790 -0.5498  0.1152
  200SOL     OW  598   3.071   2.882   0.808 -0.0254 -0.1793  0.1976
  200SOL    HW1  599   3.077   2.968   0.865  1.3121 -1.1815  0.6764
  200SOL    HW2  600   3.045   2.904   0.708  2.0585  0.2402 -1.2125
  201SOL     OW  601   0.929   0.688   0.545  0.5933 -0.2470  0.0156
  201SOL    HW1  602   0.919   0.773   0.603 -2.4886  0.9975  0.6875
  201SOL    HW2  603   0.854   0.625   0.566  1.6053  0.6445 -1.6338
  202SOL     OW  604   0.440   1.258   1.897 -0.2904  0.0483 -0.0813
  202SOL    HW1  605   0.505   1.176   1.878 -0.0353 -0.4200 -2.0980
  202SOL    HW2  606   0.460   1.304   1.989  1.9204 -1.5414 -0.9538
  203SOL     OW  607   0.670   0.170   1.552 -0.0859 -0.2028 -0.2153
  203SOL    HW1  608   0.692   0.114   1.468  0.0500  0.4383  0.6405
  203SOL    HW2  609   0.746   0.160   1.624 -0.9066 -2.0364 -0.0876
  204SOL     OW  610   2.081   1.843   2.950  0.1324  0.0005  0.2922
  204SOL    HW1  611   2.061   1.737   2.948 -1.4786 -1.0130  0.9998
  204SOL    HW2  612   2.165   1.865   2.888 -0.8640  1.9900 -1.7716
  205SOL     OW  613   1.823   1.886   3.040 -0.4428 -0.4797  0.2404
  205SOL    HW1  614   1.922   1.877   3.012  0.5121  0.5704  1.9874
  205SOL    HW2  615   1.776   1.962   2.994  1.7550 -2.3339 -0.6373
  206SOL     OW  616   2.361   2.711   0.270 -0.2432 -0.1421  0.5426
  206SOL    HW1  617   2.338   2.677   0.364 -0.0797  1.4130 -2.0723
  206SOL    HW2  618   2.462   2.704   0.246 -0.7320  5.1053 -0.9647
  207SOL     OW  619   0.718   1.744   2.922  0.6469 -0.4455 -0.6724
  207SOL    HW1  620   0.804   1.697   2.890  0.1473  0.2192  1.2376
  207SOL    HW2  621   0.638   1.683   2.953 -0.8590  1.5444  0.4579
  208SOL     OW  622   0.995   1.562   1.228  0.1021  0.1113 -0.6039
  208SOL    HW1  623   0.921   1.579   1.153 -1.3768 -0.5699  0.4443
  208SOL    HW2  624   0.954   1.570   1.321  0.3487 -1.7496 -1.6288
  209SOL     OW  625   0.220   0.985   3.058  0.0037  0.2025 -0.1652
  209SOL    HW1  626   0.279   0.944   2.978  0.3213 -3.0682  1.3098
  209SOL    HW2  627   0.245   0.935   3.147  0.2916 -0.9822  2.2745
  210SOL     OW  628   1.688   0.581   1.283  0.4285  0.1216 -0.2812
  210SOL    HW1  629   1.617   0.569   1.209  2.3137  0.2918  0.3054
  210SOL    HW2  630   1.737   0.673   1.277  0.5954  2.0902  1.4165
  211SOL     OW  631   2.174   1.054   1.582 -0.9101  0.4967 -0.3652
  211SOL    HW1  632   2.216   1.030   1.678  2.0284  3.1594  1.6762
  211SOL    HW2  633   2.233   1.120   1.533 -0.7289  0.8356  2.4767
  212SOL     OW  634   0.041   1.015   1.492  0.5753 -0.7288 -0.2127
  212SOL    HW1  635   0.126   1.076   1.507  2.1840 -1.2994  0.1193
  212SOL    HW2  636   0.044   0.921   1.543 -2.1141 -1.2148  0.6998
  213SOL     OW  637   2.812   0.028   0.361 -0.3130 -0.3089 -0.7903
  213SOL    HW1  638   2.905   0.032   0.318 -3.6628  1.7204  0.5515
  213SOL    HW2  639   2.743  -0.015   0.302 -0.2958  0.0543  2.6851
  214SOL     OW  640   2.168   0.337   2.356  0.8474  0.1481  0.4839
  214SOL    HW1  641   2.195   0.404   2.427 -0.8011 -1.6070 -2.4904
  214SOL    HW2  642   2.160   0.236   2.391 -0.1038 -2.5843 -1.5465
  215SOL     OW  643   1.683   2.271   2.083  0.2712  0.0411 -0.0876
  215SOL    HW1  644   1.774   2.310   2.054  1.2648  0.1471 -0.6942
  215SOL    HW2  645   1.617   2.347   2.095 -0.8381 -0.2657 -1.0380
  216SOL     OW  646   2.289   0.515   0.761  0.3142  0.1486 -0.1339
  216SOL    HW1  647   2.268   0.478   0.667  3.5367 -0.2109 -1.6238
  216SOL    HW2  648   2.327   0.438   0.828  1.3886 -1.9409 -0.6357
  217SOL     OW  649   0.909   2.746   2.577 -0.2365 -0.5355  0.0501
  217SOL    HW1  650   0.959   2.671   2.620 -1.3274 -0.6551 -1.9129
  217SOL    HW2  651   0.858   2.714   2.487 -0.4604  2.4852  1.3225
  218SOL     OW  652   1.879   1.410   0.026 -0.3173  0.2583  0.1624
  218SOL    HW1  653   1.778   1.429   0.009 -0.6494 -0.7597  1.2307
  218SOL    HW2  654   1.886   1.317   0.074 -2.0137  0.8941 -0.8275
  219SOL     OW  655   2.433   1.260   2.513 -0.3172 -0.0010  0.2963
  219SOL    HW1  656   2.459   1.207   2.428 -1.2942 -1.4595  2.5552
  219SOL    HW2  657   2.425   1.193   2.594  0.4764  1.1166  2.6960
  220SOL     OW  658   1.434   1.022   1.333  0.6721  0.1556  0.2649
  220SOL    HW1  659   1.532   1.019   1.371  1.7967  1.1851  1.9398
  220SOL    HW2  660   1.430   1.015   1.228 -0.3126 -1.0251 -0.7903
  221SOL     OW  661   1.337   0.956   2.180 -0.4867  0.4074 -0.5271
  221SOL    HW1  662   1.320   1.009   2.088  1.0259 -0.5150 -2.3394
  221SOL    HW2  663   1.414   1.000   2.231 -3.2629  1.0139 -1.2222
  222SOL     OW  664   1.154   0.058   1.205 -0.1057  0.4499  0.3770
  222SOL    HW1  665   1.209   0.108   1.278  0.7324  0.6548  0.8942
  222SOL    HW2  666   1.092   0.123   1.153  1.3959 -0.8593 -1.4407
  223SOL     OW  667   2.723   0.976   2.122 -0.3462  0.3611 -0.5084
  223SOL    HW1  668   2.646   1.037   2.159 -0.9337 -1.7712  2.1521
  223SOL    HW2  669   2.814   0.983   2.174  1.1812  1.6368 -0.8949
  224SOL     OW  670   1.492   0.985   2.828 -0.0163  0.1297  0.5771
  224SOL    HW1  671   1.517   0.997   2.726  1.2700  1.2992 -1.0475
  224SOL    HW2  672   1.520   1.058   2.890 -1.8311 -2.4870 -0.0160
  225SOL     OW  673   2.943   2.676   2.896  0.0067  0.2923 -0.2481
  225SOL    HW1  674   2.865   2.688   2.821 -0.6108 -2.4642 -1.3136
  225SOL    HW2  675   3.030   2.681   2.844  1.0985  0.1072  1.2186
  226SOL     OW  676   2.417   1.589   2.802  0.4083  0.1219  0.4913
  226SOL    HW1  677   2.493   1.581   2.732 -0.4993  2.2957  0.7525
  226SOL    HW2  678   2.428   1.531   2.889 -0.6741  1.9814  0.7313
  227SOL     OW  679   0.909   0.228   3.034  0.0201 -0.0864 -0.6683
  227SOL    HW1  680   0.913   0.332   3.043 -0.0523 -2.1564 -0.5810
  227SOL    HW2  681   0.870   0.195   2.942  1.5864 -1.8893  1.4497
  228SOL     OW  682   2.440   0.657   2.876  0.0182 -0.3004  0.5075
  228SOL    HW1  683   2.450   0.704   2.787  1.3412  0.7353  0.0938
  228SOL    HW2  684   2.513   0.589   2.896  0.5890  0.4441 -2.0611
  229SOL     OW  685   0.604   0.623   1.836  1.2154  0.0478 -0.2805
  229SOL    HW1  686   0.685   0.680   1.833 -0.4468  1.8606 -0.0581
  229SOL    HW2  687   0.600   0.546   1.764 -0.0843  0.0201  0.1846
  230SOL     OW  688   1.872   1.211   1.915 -0.1196  0.0087 -0.5659
  230SOL    HW1  689   1.941   1.275   1.872 -2.6164 -1.3472  0.7684
  230SOL    HW2  690   1.819   1.252   1.996 -2.7746 -1.2048 -1.5660
  231SOL     OW  691   0.646   1.075   3.082 -0.1023 -0.5717  0.2915
  231SOL    HW1  692   0.748   1.101   3.072  4.0360  0.7422  2.9941
  231SOL    HW2  693   0.589   1.148   3.131  1.4564 -0.5809 -1.1674
  232SOL     OW  694   2.412   2.983   2.797  0.0844 -0.4714 -0.1753
  232SOL    HW1  695   2.474   2.910   2.835 -0.2921 -1.0219 -0.1051
  232SOL    HW2  696   2.448   3.016   2.706  0.0018  0.6111  2.4205
  233SOL     OW  697   1.811   1.154   1.113  0.0277 -0.6292  0.5809
  233SOL    HW1  698   1.841   1.245   1.076 -2.2068  0.1799 -0.1097
  233SOL    HW2  699   1.882   1.077   1.109  1.1680 -0.7370  0.3191
  234SOL     OW  700   1.666   2.515   1.828  0.1966  0.5392  0.3234
  234SOL    HW1  701   1.652   2.573   1.917  2.1262  2.3559 -0.0436
  234SOL    HW2  702   1.605   2.434   1.811  0.1285 -0.7878 -3.3460
  235SOL     OW  703   0.062   3.016   2.845  1.1263  0.1410 -0.2539
  235SOL    HW1  704   0.008   3.022   2.758  2.1042 -0.1095 -0.7616
  235SOL    HW2  705   0.003   3.037   2.929 -0.8817 -0.8861 -2.5785
  236SOL     OW  706   2.897   0.714   0.067  0.2381  0.3379 -0.1974
  236SOL    HW1  707   2.954   0.732   0.150  1.1777  0.9802  0.4825
  236SOL    HW2  708   2.938   0.635   0.012  0.7579 -1.1854 -1.2121
  237SOL     OW  709   1.538   1.702   0.894 -0.0164 -0.2787  0.5544
  237SOL    HW1  710   1.609   1.632   0.918 -0.2816  3.1836 -1.4575
  237SOL    HW2  711   1.516   1.763   0.976 -0.5384  3.2873  0.4471
  238SOL     OW  712   1.907   1.190   0.758  0.1289  0.6670 -0.3652
  238SOL    HW1  713   1.962   1.222   0.844  1.2163  0.7678  3.6146
  238SOL    HW2  714   1.808   1.214   0.764  0.6213  2.3244 -0.6705
  239SOL     OW  715   2.008   0.272   2.798  0.4926  1.1926  0.3643
  239SOL    HW1  716   2.033   0.233   2.893  2.4992 -0.3568  1.2323
  239SOL    HW2  717   1.931   0.339   2.794  0.3572 -3.3198  0.7212
  240SOL     OW  718   0.942   0.698   0.246  0.0796 -0.1458  0.3749
  240SOL    HW1  719   1.031   0.653   0.218  1.5670  0.4994 -1.5049
  240SOL    HW2  720   0.935   0.691   0.348  0.8184  0.9434  0.4055
  241SOL     OW  721   0.590   0.104   0.327 -0.1870  0.3271 -0.4114
  241SOL    HW1  722   0.652   0.182   0.295  2.5502 -0.3961 -0.9187
  241SOL    HW2  723   0.590   0.028   0.258 -2.5033  0.3574  0.0225
  242SOL     OW  724   0.589   2.610   1.189 -0.0347 -0.0482  0.5338
  242SOL    HW1  725   0.583   2.619   1.295  1.5343 -0.7967  0.7354
  242SOL    HW2  726   0.596   2.710   1.144  2.5933  3.4603 -1.0062
  243SOL     OW  727   1.079   0.631   2.414 -0.1881 -0.3059 -0.4479
  243SOL    HW1  728   0.981   0.617   2.380  3.4390  3.0641  0.8616
  243SOL    HW2  729   1.090   0.595   2.510 -2.6930 -0.1598  0.8618
  244SOL     OW  730   2.716   1.951   2.377  0.5230 -0.5599 -0.0046
  244SOL    HW1  731   2.739   1.931   2.281  0.6078  1.2042  0.9401
  244SOL    HW2  732   2.644   1.887   2.413  0.8457  0.4097 -0.4456
  245SOL     OW  733   2.089   1.007   2.201 -0.2103  0.0364 -0.4783
  245SOL    HW1  734   2.191   0.998   2.209  1.3059 -0.1699 -0.7672
  245SOL    HW2  735   2.050   1.089   2.251  0.5500  0.1783  0.0277
  246SOL     OW  736   0.281   2.861   1.814 -0.0906  0.7047  0.3110
  246SOL    HW1  737   0.225   2.834   1.732 -4.0716 -0.9361  2.3236
  246SOL    HW2  738   0.364   2.913   1.781 -3.8088 -0.0056 -1.4110
  247SOL     OW  739   2.243   0.578   3.049 -0.1168  0.5461  0.7140
  247SOL    HW1  740   2.314   0.586   2.968  3.7858 -0.1000  0.5050
  247SOL    HW2  741   2.170   0.654   3.045 -0.3967  1.9570  0.6034
  248SOL     OW  742   2.178   1.842   1.628 -0.7332  0.3805  0.3069
  248SOL    HW1  743   2.247   1.788   1.691 -2.7240  0.1889  0.9729
  248SOL    HW2  744   2.084   1.809   1.645 -3.1303  1.3401 -0.7830
  249SOL     OW  745   1.890   1.908   1.843  0.0561 -0.5533 -0.0585
  249SOL    HW1  746   1.886   1.850   1.756  1.1113 -0.7277 -0.9129
  249SOL    HW2  747   1.985   1.934   1.872 -0.4415  1.9903  0.3771
  250SOL     OW  748   0.974   0.682   1.871  0.9379 -0.4038 -0.3291
  250SOL    HW1  749   1.056   0.653   1.928  0.2772 -1.2963  2.3481
  250SOL    HW2  750   0.968   0.635   1.775 -0.7101 -2.7773 -3.4606
  251SOL     OW  751   3.040   1.511   2.614 -0.5916 -0.6980  0.0467
  251SOL    HW1  752   3.043   1.598   2.552  0.4459 -0.3914 -0.1790
  251SOL    HW2  753   2.954   1.452   2.605  0.2357 -0.9185  0.3105
  252SOL     OW  754   1.544   0.832   1.608 -0.0187  0.1442  0.2813
  252SOL    HW1  755   1.608   0.882   1.543  0.2895 -0.6864  0.4639
  252SOL    HW2  756   1.534   0.888   1.696 -0.0689  0.8049  0.6516
  253SOL     OW  757   0.940   1.495   0.442  0.0165 -0.0924  0.7116
  253SOL    HW1  758   0.937   1.436   0.351 -0.8666 -1.2877  0.2299
  253SOL    HW2  759   0.842   1.531   0.466 -2.6198  0.4604  1.3653
  254SOL     OW  760   2.027   2.179   1.659 -0.4225  0.2116  0.5472
  254SOL    HW1  761   1.980   2.101   1.612  1.3475 -1.5395  0.8439
  254SOL    HW2  762   1.962   2.246   1.714 -1.8306  0.1887  0.4206
  255SOL     OW  763   0.089   1.191   2.913 -0.3175  0.4429  0.3145
  255SOL    HW1  764   0.127   1.284   2.924 -0.7667 -3.9082 -1.4237
  255SOL    HW2  765   0.147   1.123   2.967  0.5013 -0.6978  1.7943
  256SOL     OW  766   2.768   1.413   1.749 -0.8543 -0.0196 -0.3661
  256SOL    HW1  767   2.667   1.411   1.784 -2.7011  2.1198  0.7511
  256SOL    HW2  768   2.798   1.324   1.714 -0.9796  0.3352  1.2774
  257SOL     OW  769   0.824   0.246   1.868 -0.5744  0.0613 -0.2206
  257SOL    HW1  770   0.876   0.301   1.795 -2.5872 -1.6832  3.0660
  257SOL    HW2  771   0.850   0.150   1.878 -2.0270 -1.3725  2.1284
  258SOL     OW  772   2.964   1.164   0.497 -0.0030  0.0807 -0.2106
  258SOL    HW1  773   2.864   1.200   0.512  1.8089 -0.6581  2.2647
  258SOL    HW2  774   3.031   1.189   0.576  1.2275  0.8582 -2.1559
  259SOL     OW  775   0.491   2.946   2.993  0.0504 -0.2527 -0.3530
  259SOL    HW1  776   0.419   2.892   3.050 -1.4885 -2.5843  1.8429
  259SOL    HW2  777   0.504   2.903   2.901 -1.2785 -2.2339  0.8929
  260SOL     OW  778   2.744   0.752   2.786 -0.5052  0.2424  0.0127
  260SOL    HW1  779   2.655   0.781   2.743  1.3902  1.5666 -1.7541
  260SOL    HW2  780   2.735   0.661   2.832 -3.2898  0.9461 -0.8662
  261SOL     OW  781   2.660   1.252   1.307  0.1511 -0.2813 -0.2642
  261SOL    HW1  782   2.580   1.238   1.243 -0.1683 -0.2400  1.6122
  261SOL    HW2  783   2.732   1.177   1.314 -0.2711 -0.8303  0.8113
  262SOL     OW  784   1.392   2.979   2.071 -0.1660 -0.2076  0.2204
  262SOL    HW1  785   1.437   3.037   1.994  2.4574  0.5418 -1.6197
  262SOL    HW2  786   1.297   2.945   2.051  0.9889 -1.7134 -0.2689
  263SOL     OW  787   0.810   0.622   2.314 -0.5220 -0.0422  0.5070
  263SOL    HW1  788   0.743   0.549   2.270  2.1906 -1.1797 -0.8766
  263SOL    HW2  789   0.832   0.696   2.243  2.9186 -0.8319 -2.0400
  264SOL     OW  790   2.279   0.797   0.412  0.1816  0.0984 -0.0579
  264SOL    HW1  791   2.291   0.728   0.335  1.9605 -2.3662  2.0728
  264SOL    HW2  792   2.372   0.828   0.445  1.0720 -2.3732 -0.5252
  265SOL     OW  793   0.885   2.352   2.613 -0.3443 -0.2858  0.4138
  265SOL    HW1  794   0.934   2.395   2.688 -0.5237 -2.1833 -1.7843
  265SOL    HW2  795   0.852   2.252   2.626  0.6289 -2.1091 -0.9436
  266SOL     OW  796   1.278   1.804   3.052  0.1660  0.1649 -0.2266
  266SOL    HW1  797   1.292   1.860   3.144  0.5619  1.0248  0.5998
  266SOL    HW2  798   1.371   1.782   3.008  0.5251  0.1239  0.9600
  267SOL     OW  799   1.078   3.080   2.327 -0.4214 -0.7734  0.4336
  267SOL    HW1  800   0.980   3.086   2.279 -2.9186  1.6750 -1.4738
  267SOL    HW2  801   1.150   3.127   2.265 -0.7468  1.0370 -3.9612
  268SOL     OW  802   0.862   1.308   1.077 -0.1453  0.5469  0.7629
  268SOL    HW1  803   0.778   1.343   1.134 -1.7553  1.4785  0.3638
  268SOL    HW2  804   0.906   1.381   1.022 -0.9144  0.5746  0.2815
  269SOL     OW  805   2.352   2.547   1.608 -0.7162 -0.2591  0.6430
  269SOL    HW1  806   2.427   2.479   1.584 -1.7822  1.7100 -2.2941
  269SOL    HW2  807   2.352   2.584   1.708  0.8884  1.7652 -1.0797
  270SOL     OW  808   0.140   3.003   1.989 -0.1988  0.8001  0.1873
  270SOL    HW1  809   0.174   2.939   1.916  0.9868 -0.3071 -0.2041
  270SOL    HW2  810   0.086   2.950   2.063 -0.4665 -0.4143 -1.8199
  271SOL     OW  811   0.448   1.395   1.099 -0.6523  0.7277 -0.1429
  271SOL    HW1  812   0.448   1.384   0.995 -0.9084 -0.1189 -2.2369
  271SOL    HW2  813   0.361   1.359   1.140  0.3210  1.4355  0.1843
  272SOL     OW  814   1.874   3.084   1.937 -0.0190  0.3823 -0.1735
  272SOL    HW1  815   1.831   2.995   1.904 -0.9378 -0.2994  2.6548
  272SOL    HW2  816   1.868   3.154   1.862  0.0277 -0.0355  0.6654
  273SOL     OW  817   1.455   1.469   2.858 -0.3099 -0.0358  0.1257
  273SOL    HW1  818   1.353   1.481   2.876 -0.7810  1.5849  1.3034
  273SOL    HW2  819   1.508   1.462   2.947 -1.2332  1.2037  0.4418
  274SOL     OW  820   1.155   0.603   2.059  1.0380  0.5269 -0.0110
  274SOL    HW1  821   1.099   0.516   2.080  0.7309  0.7816  1.0686
  274SOL    HW2  822   1.225   0.617   2.135 -0.5648  0.8774 -2.3358
  275SOL     OW  823   0.664   2.097   1.943 -0.1092  0.0578  0.4425
  275SOL    HW1  824   0.598   2.149   1.880 -0.2747 -1.4474 -1.1421
  275SOL    HW2  825   0.617   2.059   2.026  0.3855  3.6016 -0.1075
  276SOL     OW  826   2.250   0.954   2.859 -0.1970  0.1513 -0.2729
  276SOL    HW1  827   2.174   0.991   2.798  1.1206  0.4479  2.0106
  276SOL    HW2  828   2.249   0.850   2.868  0.8991 -0.0050 -2.2090
  277SOL     OW  829  -0.001   0.770   0.248  0.2590  0.5744 -0.1612
  277SOL    HW1  830   0.095   0.789   0.220 -0.2165 -1.6458 -1.6535
  277SOL    HW2  831  -0.012   0.690   0.313 -1.2753  1.1991 -0.0378
  278SOL     OW  832   0.296   0.231   3.042 -0.0835  0.5494  0.9065
  278SOL    HW1  833   0.375   0.181   3.002 -2.7548 -1.2673  1.6415
  278SOL    HW2  834   0.312   0.334   3.054  2.1251  1.6276 -0.3807
  279SOL     OW  835   0.266   3.056   0.893  0.1008 -0.8746 -0.2095
  279SOL    HW1  836   0.331   3.063   0.974 -1.0714 -0.7337  2.0298
  279SOL    HW2  837   0.282   2.970   0.837 -0.8905  1.6386  0.4012
  280SOL     OW  838   1.572   2.899   2.435  0.0408  0.1078  0.5102
  280SOL    HW1  839   1.655   2.931   2.481 -0.3907 -1.8078 -1.2933
  280SOL    HW2  840   1.510   2.976   2.396 -1.4888  0.7816 -1.7423
  281SOL     OW  841   0.565   0.927   2.353 -0.4201 -0.1001  0.4631
  281SOL    HW1  842   0.526   0.862   2.274  0.9354 -0.7463 -0.8888
  281SOL    HW2  843   0.516   0.901   2.443  1.0765 -1.4992 -0.2439
  282SOL     OW  844   1.786   2.478   0.562 -0.0846  0.4918  0.3644
  282SOL    HW1  845   1.735   2.403   0.516 -0.4799  1.5195  1.1380
  282SOL    HW2  846   1.732   2.566   0.551  2.0142 -2.6397 -1.8087
  283SOL     OW  847   1.186   0.938   0.803  0.2317  0.5438  0.3088
  283SOL    HW1  848   1.181   0.878   0.890 -0.5854  1.0604 -0.1234
  283SOL    HW2  849   1.149   1.035   0.817  0.0247 -0.5423 -0.5976
  284SOL     OW  850   2.239   2.813   2.450  0.0912 -0.1288 -0.2197
  284SOL    HW1  851   2.334   2.843   2.419 -0.0691 -0.7343 -0.4649
  284SOL    HW2  852   2.233   2.821   2.554  1.3635 -0.3433 -2.6880
  285SOL     OW  853   1.301   3.049   2.617 -0.3705  0.5043 -0.1538
  285SOL    HW1  854   1.332   3.041   2.519 -1.5375  0.8224  1.5320
  285SOL    HW2  855   1.217   3.105   2.624 -0.2159  0.2811 -0.3173
  286SOL     OW  856   0.273   0.381   0.648 -0.6890 -0.2885 -0.0809
  286SOL    HW1  857   0.309   0.305   0.715 -0.9014 -2.1447 -0.7923
  286SOL    HW2  858   0.297   0.348   0.554  0.2234 -1.8854 -2.4725
  287SOL     OW  859   0.075   1.279   2.549 -0.0731  0.2752  0.0073
  287SOL    HW1  860   0.026   1.197   2.597  0.7401 -0.4955 -1.0815
  287SOL    HW2  861   0.031   1.370   2.551 -0.3973  0.0468 -0.8646
  288SOL     OW  862   1.521   2.700   1.665 -0.2301 -0.0583 -0.2990
  288SOL    HW1  863   1.546   2.615   1.715  0.0035  0.9047 -0.6613
  288SOL    HW2  864   1.567   2.711   1.569 -1.9158 -1.4730 -0.8120
  289SOL     OW  865   0.646   2.790   0.801 -0.0560  0.2718  0.3998
  289SOL    HW1  866   0.730   2.820   0.747  0.3354  1.0126  1.6119
  289SOL    HW2  867   0.618   2.843   0.883  1.4558 -3.5954 -0.6433
  290SOL     OW  868   2.848   1.140   1.692  0.2739 -0.6938 -0.1320
  290SOL    HW1  869   2.768   1.070   1.687  0.0732  1.4064 -1.9962
  290SOL    HW2  870   2.902   1.133   1.781  1.2028  1.4017  1.6022
  291SOL     OW  871   1.927   0.001   0.088 -0.0436  0.3376  0.5458
  291SOL    HW1  872   1.962   0.043   0.178  2.6710  3.2657  0.6299
  291SOL    HW2  873   1.995   0.023   0.011  2.8086  0.8310  1.4728
  292SOL     OW  874   2.975   1.240   3.096 -0.3240  0.6925  0.5666
  292SOL    HW1  875   2.934   1.330   3.072 -0.0340  3.4695 -0.6923
  292SOL    HW2  876   3.062   1.226   3.038  1.3884  0.3180  0.1160
  293SOL     OW  877   0.566   2.080   0.294 -0.7000  0.0786 -0.1873
  293SOL    HW1  878   0.525   2.154   0.363 -0.3732  1.1770  0.4992
  293SOL    HW2  879   0.672   2.070   0.303  0.0122  0.5489  0.1898
  294SOL     OW  880   1.884   2.341   1.814  0.3251 -0.4133  0.2865
  294SOL    HW1  881   1.931   2.348   1.905  1.2206  0.0303 -2.5188
  294SOL    HW2  882   1.814   2.415   1.798 -0.1284 -1.2470  0.3748
  295SOL     OW  883   0.942   1.054   0.452  0.0345 -0.2951 -0.5352
  295SOL    HW1  884   1.047   1.042   0.433  3.2067 -1.0275 -0.2009
  295SOL    HW2  885   0.917   1.006   0.543  0.7239 -0.3077 -0.0882
  296SOL     OW  886   1.127   2.155   2.751  0.3676 -0.4910  0.2171
  296SOL    HW1  887   1.033   2.197   2.775  1.7288  1.4043  0.5829
  296SOL    HW2  888   1.144   2.154   2.649  2.5464  0.2072  1.1751
  297SOL     OW  889   1.269   0.577   1.171  0.3788  0.4770  0.7109
  297SOL    HW1  890   1.306   0.525   1.255  0.3948 -0.5951 -2.6775
  297SOL    HW2  891   1.340   0.626   1.115 -2.0515  2.1383  1.8746
  298SOL     OW  892   0.469   1.293   2.923 -0.0847 -0.1458 -0.0343
  298SOL    HW1  893   0.441   1.223   2.992  0.7735  1.5681  0.4167
  298SOL    HW2  894   0.525   1.254   2.840  0.0288 -2.3373  0.4256
  299SOL     OW  895   0.413   0.206   1.276 -0.6200  0.0464  0.0344
  299SOL    HW1  896   0.332   0.248   1.219  0.0721 -1.3438  0.4669
  299SOL    HW2  897   0.395   0.220   1.378 -1.4817  0.6777  0.3387
  300SOL     OW  898   1.362   1.817   2.575 -0.3265  0.3291 -0.3629
  300SOL    HW1  899   1.350   1.770   2.483  0.7337  0.8099  1.9216
  300SOL    HW2  900   1.425   1.765   2.646 -0.2945 -1.9044  0.7032
  301SOL     OW  901   0.344   0.295   0.378 -0.8236 -0.3229 -0.1516
  301SOL    HW1  902   0.244   0.278   0.368 -0.5524  0.0400  2.4672
  301SOL    HW2  903   0.399   0.209   0.370 -1.8646  0.0492  2.3026
  302SOL     OW  904   1.247   2.394   2.298  0.2800 -0.2994 -0.2007
  302SOL    HW1  905   1.150   2.393   2.331  0.1325 -0.7755  0.1971
  302SOL    HW2  906   1.302   2.316   2.338 -0.0039  0.6285 -1.1911
  303SOL     OW  907   0.903   2.441   0.796 -0.4103  0.5400 -0.2510
  303SOL    HW1  908   0.953   2.473   0.713  1.0600 -1.9870  1.5821
  303SOL    HW2  909   0.954   2.474   0.880 -0.5666 -1.9124  2.1373
  304SOL     OW  910   0.142   1.905   0.709 -0.5718  0.3943  0.2718
  304SOL    HW1  911   0.219   1.913   0.634  0.8626  0.0607  1.0029
  304SOL    HW2  912   0.052   1.934   0.670 -0.5078  1.3853  2.0784
  305SOL     OW  913   1.665   0.812   0.697  0.0823 -0.7725  0.2094
  305SOL    HW1  914   1.599   0.855   0.625 -2.1089 -2.4144 -0.1843
  305SOL    HW2  915   1.686   0.711   0.685 -0.4110 -0.1314  0.0597
  306SOL     OW  916   0.392   1.854   1.972  0.5209  0.8292  0.3549
  306SOL    HW1  917   0.483   1.817   1.941 -1.4424 -1.5927  0.5323
  306SOL    HW2  918   0.395   1.900   2.065  0.9727  2.6957 -0.0660
  307SOL     OW  919   3.028   0.888   2.555  0.9769  0.4416  0.4786
  307SOL    HW1  920   3.035   0.975   2.610 -0.3312 -0.9708  0.2589
  307SOL    HW2  921   3.023   0.809   2.620 -0.3209  0.4730 -0.1017
  308SOL     OW  922   1.452   2.701   2.815  0.4294 -0.0324 -0.1605
  308SOL    HW1  923   1.432   2.707   2.712  0.7875  0.3494 -2.6330
  308SOL    HW2  924   1.432   2.608   2.855 -2.5994  0.4925 -0.6455
  309SOL     OW  925   1.204   0.173   1.812 -0.4184 -0.0804  0.0088
  309SOL    HW1  926   1.291   0.131   1.773 -0.7876  0.6485 -0.0714
  309SOL    HW2  927   1.129   0.181   1.741 -0.6773 -0.4966  0.5474
  310SOL     OW  928   1.492   2.493   0.662 -0.4784  0.4407 -0.0683
  310SOL    HW1  929   1.439   2.539   0.735  0.5470  0.7878 -1.5115
  310SOL    HW2  930   1.560   2.561   0.618  0.0858  2.8425 -2.6445
  311SOL     OW  931   1.101   0.961   1.783  0.6579 -0.2306 -0.0439
  311SOL    HW1  932   1.051   0.873   1.800  0.1316  0.3428 -0.4236
  311SOL    HW2  933   1.163   0.958   1.698  0.0089  2.7539  0.8653
  312SOL     OW  934   1.503   0.636   1.025 -0.3365  0.3313 -0.1638
  312SOL    HW1  935   1.570   0.719   1.024 -0.9398  1.2520  1.3628
  312SOL    HW2  936   1.467   0.615   0.927  2.3867 -2.0495 -0.8575
  313SOL     OW  937   1.649   1.271   0.746  0.4198 -0.0127 -0.9633
  313SOL    HW1  938   1.577   1.299   0.814 -0.0634  0.6716 -0.2127
  313SOL    HW2  939   1.610   1.204   0.677  3.2582 -3.0928  0.8015
  314SOL     OW  940   2.996   3.071   3.059 -0.1837  0.2453  0.2254
  314SOL    HW1  941   3.015   3.072   3.162  0.6596  1.3085 -0.9316
  314SOL    HW2  942   2.904   3.034   3.034 -2.2389  2.4191  1.5885
  315SOL     OW  943   1.197   0.198   2.803  0.0549 -0.2872  0.0977
  315SOL    HW1  944   1.147   0.184   2.713  3.7607 -2.3999 -1.7759
  315SOL    HW2  945   1.155   0.136   2.878 -1.5105  0.8194 -0.7511
  316SOL     OW  946   1.787   2.082   0.871 -0.2977 -0.4058 -0.4560
  316SOL    HW1  947   1.742   2.089   0.960  1.3268  1.5337 -0.1339
  316SOL    HW2  948   1.783   2.174   0.823 -0.3521 -2.8043  2.9934
  317SOL     OW  949   1.170   0.725   2.713 -0.0388  0.0545 -0.2038
  317SOL    HW1  950   1.103   0.746   2.791 -0.6216  3.4831 -1.6240
  317SOL    HW2  951   1.154   0.630   2.676  2.2462 -1.0012  2.6111
  318SOL     OW  952   1.373   3.059   2.326  0.1446 -0.2289 -0.2466
  318SOL    HW1  953   1.363   3.163   2.323 -1.9850  0.3977 -2.1019
  318SOL    HW2  954   1.385   3.014   2.233  1.2179  2.0304 -1.1845
  319SOL     OW  955   0.627   2.389   3.022 -0.0971 -0.1902  0.0219
  319SOL    HW1  956   0.577   2.302   3.040 -0.5393  0.3822  0.7537
  319SOL    HW2  957   0.706   2.373   2.958 -2.7512  1.1283 -0.9035
  320SOL     OW  958   1.684   2.266   0.408  0.0309  0.1748 -0.5142
  320SOL    HW1  959   1.765   2.205   0.409 -3.3755 -2.3119 -1.9163
  320SOL    HW2  960   1.601   2.220   0.442  1.0213  1.2764 -1.6792
  321SOL     OW  961   1.633   2.698   0.524 -0.2679 -0.1196 -0.1575
  321SOL    HW1  962   1.558   2.727   0.456  0.0295 -0.3725 -2.2110
  321SOL    HW2  963   1.723   2.738   0.493 -3.0743  0.2001  0.3276
  322SOL     OW  964   2.547   1.086   2.317 -0.3069 -0.7444 -0.1090
  322SOL    HW1  965   2.626   1.045   2.373 -0.3426 -4.4718  0.8767
  322SOL    HW2  966   2.476   1.012   2.301  0.9641  1.9197  1.3559
  323SOL     OW  967   1.144   2.696   0.761 -0.1102  0.2159  0.0696
  323SOL    HW1  968   1.091   2.644   0.684 -3.2345  0.1389 -3.7374
  323SOL    HW2  969   1.122   2.796   0.770 -1.9369 -0.6371 -0.6708
  324SOL     OW  970   0.063   2.566   2.435 -0.0928 -0.0776 -0.0253
  324SOL    HW1  971   0.023   2.491   2.496 -3.9401 -0.7123 -2.6081
  324SOL    HW2  972   0.080   2.656   2.485  2.2879 -1.3240  1.3313
  325SOL     OW  973   1.313   3.041   0.461 -0.2832 -0.3610 -0.2044
  325SOL    HW1  974   1.313   3.094   0.373  0.1152 -0.0456  1.0014
  325SOL    HW2  975   1.341   3.096   0.544  0.5058  2.6916 -0.9542
  326SOL     OW  976   2.443   0.898   0.030 -0.2228  0.3904  0.5319
  326SOL    HW1  977   2.366   0.849  -0.014 -0.0935  0.7292 -2.8729
  326SOL    HW2  978   2.508   0.828   0.073 -1.7065  1.0487  0.7576
  327SOL     OW  979   2.843   0.245   0.538 -0.4336 -0.9324  0.7141
  327SOL    HW1  980   2.849   0.175   0.462  0.3038  0.0790 -0.7452
  327SOL    HW2  981   2.863   0.199   0.628 -0.8641 -0.7782 -0.3605
  328SOL     OW  982   2.632   0.595   0.369  0.4647  0.3625  0.0858
  328SOL    HW1  983   2.682   0.654   0.437 -1.3155  2.4773 -1.0162
  328SOL    HW2  984   2.596   0.511   0.417  1.5478  0.9983  1.8496
  329SOL     OW  985   2.930   3.044   2.240  0.5453 -0.3164 -0.0318
  329SOL    HW1  986   3.009   2.983   2.269  2.2286 -0.6143 -0.2458
  329SOL    HW2  987   2.958   3.142   2.216 -1.0132 -0.7916  0.4592
  330SOL     OW  988   0.543   0.285   1.912  0.6133  0.3052  0.5526
  330SOL    HW1  989   0.638   0.303   1.882 -1.5739  0.3148  2.4975
  330SOL    HW2  990   0.539   0.217   1.991 -2.1021  0.6751 -1.2906
  331SOL     OW  991   0.029   1.919   1.110  0.5298  0.3000 -0.1284
  331SOL    HW1  992   0.008   2.009   1.062 -0.1615 -0.9380  0.9717
  331SOL    HW2  993  -0.047   1.876   1.165  0.1929  1.4638 -1.5246
  332SOL     OW  994   0.383   1.176   0.097  0.6968 -0.2124 -0.1487
  332SOL    HW1  995   0.326   1.103   0.044  0.9344 -0.4649  0.1160
  332SOL    HW2  996   0.347   1.186   0.193  0.7175 -1.4425  0.5913
  333SOL     OW  997   2.912   0.930   0.379 -0.0430  0.4004  0.3498
  333SOL    HW1  998   2.955   1.012   0.427  1.0442 -3.0263 -0.8549
  333SOL    HW2  999   2.991   0.878   0.322  0.4315 -0.6968  1.5152
  334SOL     OW 1000   1.726   1.144   1.702 -0.1841  0.5027  0.0973
  334SOL    HW1 1001   1.794   1.163   1.623 -0.0327  1.0323 -0.0938
  334SOL    HW2 1002   1.777   1.169   1.795  0.1886  0.5262  2.2346
  335SOL     OW 1003   1.931   2.783   2.570  0.0068 -0.7270 -0.1104
  335SOL    HW1 1004   1.840   2.813   2.614 -1.5565  0.9343 -0.2503
  335SOL    HW2 1005   2.015   2.802   2.628  0.1239 -0.4982 -1.4256
  336SOL     OW 1006   0.246   0.073   2.763 -0.0800 -0.1279 -0.1725
  336SOL    HW1 1007   0.332   0.103   2.817  0.9229  3.2453 -2.8764
  336SOL    HW2 1008   0.177   0.016   2.822  1.4847 -0.2550 -0.5975
  337SOL     OW 1009   0.827   2.852   3.033 -0.8142  0.2161 -0.0319
  337SOL    HW1 1010   0.859   2.772   3.090  1.8304  0.4487  1.8621
  337SOL    HW2 1011   0.862   2.936   3.076 -4.0002 -5.7351  2.4119
  338SOL     OW 1012   0.013   0.974   0.706  0.0280  0.1606  0.0259
  338SOL    HW1 1013  -0.090   0.962   0.719 -1.7786 -0.7723 -0.3967
  338SOL    HW2 1014   0.049   1.073   0.703 -0.0772  1.2941  0.4943
  339SOL     OW 1015   1.772   1.327   2.162  0.0291  0.4169 -0.2155
  339SOL    HW1 1016   1.686   1.349   2.110  1.8417  0.3195 -0.1813
  339SOL    HW2 1017   1.805   1.415   2.201 -0.1279 -1.8432 -2.5324
  340SOL     OW 1018   2.268   0.799   1.097  0.0648 -0.5019  0.5677
  340SOL    HW1 1019   2.178   0.852   1.127 -3.2601  0.6035  1.3237
  340SOL    HW2 1020   2.242   0.706   1.061  3.4272 -1.0611  1.6004
  341SOL     OW 1021   1.895   2.052   0.351 -0.0464 -0.4286  0.1856
  341SOL    HW1 1022   1.913   2.114   0.271 -1.4318  1.2086  1.9708
  341SOL    HW2 1023   1.980   2.017   0.395 -1.1012  0.1948 -1.8726
  342SOL     OW 1024   2.177   2.159   2.771 -0.5551  0.2222  0.0510
  342SOL    HW1 1025   2.215   2.081   2.820  1.2603  0.7154  0.8578
  342SOL    HW2 1026   2.085   2.141   2.724 -1.5430 -2.4252  1.5574
  343SOL     OW 1027   0.366   0.860   2.842 -0.5609  0.1913  0.2883
  343SOL    HW1 1028   0.360   0.915   2.754 -2.0829  2.5984  1.6301
  343SOL    HW2 1029   0.453   0.804   2.857  1.8830 -1.2071  1.0924
  344SOL     OW 1030   1.958   1.440   0.358 -0.0599 -0.4757 -0.5258
  344SOL    HW1 1031   1.972   1.354   0.298  1.8413 -0.1675  1.3952
  344SOL    HW2 1032   1.870   1.434   0.411  0.0278 -0.3658  1.0521
  345SOL     OW 1033   1.386   2.197   2.847  0.1222  0.2169 -0.2052
  345SOL    HW1 1034   1.287   2.186   2.812  3.9115  1.4603 -0.3706
  345SOL    HW2 1035   1.457   2.126   2.808 -0.5449 -1.9038  0.5550
  346SOL     OW 1036   2.310   0.823   1.359  0.0595 -0.8508 -0.3783
  346SOL    HW1 1037   2.219   0.843   1.399  0.8365 -1.6072 -0.9108
  346SOL    HW2 1038   2.301   0.780   1.267  1.9199 -0.0435 -0.0098
  347SOL     OW 1039   0.718   2.801   1.701 -0.7274  0.0066  0.1881
  347SOL    HW1 1040   0.794   2.861   1.659 -1.1753  0.4296  0.0339
  347SOL    HW2 1041   0.636   2.814   1.644  1.5099  0.5059  2.9487
  348SOL     OW 1042   0.211   0.636   2.844 -0.2580 -0.6239 -0.2413
  348SOL    HW1 1043   0.116   0.646   2.807  0.0210  1.9566  2.0048
  348SOL    HW2 1044   0.269   0.723   2.833  0.2444 -1.9454 -2.1304
  349SOL     OW 1045   1.772   0.427   2.826 -0.3810  0.2390  0.1353
  349SOL    HW1 1046   1.760   0.510   2.762 -0.1834  0.5923 -0.3404
  349SOL    HW2 1047   1.753   0.453   2.925 -0.0424  0.9774  2.0978
  350SOL     OW 1048   1.698   0.379   0.392  0.4690 -0.1267 -0.2955
  350SOL    HW1 1049   1.781   0.374   0.454 -0.3497  1.5820 -1.0056
  350SOL    HW2 1050   1.684   0.470   0.346  3.3866  0.2662  6.7255
  351SOL     OW 1051   0.843   0.810   2.092 -0.1123 -0.3910 -0.2434
  351SOL    HW1 1052   0.879   0.909   2.079  0.8277  0.5961 -1.9628
  351SOL    HW2 1053   0.882   0.741   2.025 -2.9891  1.2021  0.8656
  352SOL     OW 1054   2.061   1.359   0.597 -0.1763  0.1003 -0.0367
  352SOL    HW1 1055   2.037   1.406   0.509  0.1686 -0.4812  1.0788
  352SOL    HW2 1056   1.985   1.328   0.663  0.8885  1.2725  1.6589
  353SOL     OW 1057   2.185   2.706   1.130 -0.2111 -0.4827 -0.0207
  353SOL    HW1 1058   2.243   2.643   1.192  0.6761  1.3785  4.2621
  353SOL    HW2 1059   2.099   2.750   1.172 -0.3900  0.6795  1.1467
  354SOL     OW 1060   0.237   1.438   2.903  0.4757 -0.3130  0.1140
  354SOL    HW1 1061   0.218   1.495   2.817  0.4196  0.1450 -0.2317
  354SOL    HW2 1062   0.331   1.393   2.905  1.7808  1.1515 -2.6427
  355SOL     OW 1063   0.731   1.616   0.585 -0.1964  0.3328 -0.2838
  355SOL    HW1 1064   0.758   1.572   0.675  1.1817 -0.2604 -3.2417
  355SOL    HW2 1065   0.674   1.555   0.520  0.2697 -0.2072  1.3954
  356SOL     OW 1066   0.986   0.334   2.103  0.4536 -0.1647 -0.4836
  356SOL    HW1 1067   1.058   0.258   2.107 -1.6368  0.5793 -0.8966
  356SOL    HW2 1068   0.907   0.315   2.034 -2.0436  2.4833  2.5585
  357SOL     OW 1069   0.990   1.424   0.156  0.3696  0.5553 -0.4139
  357SOL    HW1 1070   1.017   1.359   0.081  1.3510  2.2289  0.6393
  357SOL    HW2 1071   1.070   1.487   0.176  0.3910 -0.5691 -1.6939
  358SOL     OW 1072   1.677   1.464   0.465 -0.2495  0.0199 -0.6556
  358SOL    HW1 1073   1.613   1.457   0.545  0.4607 -1.7753 -1.5595
  358SOL    HW2 1074   1.639   1.425   0.380  1.1257 -0.7660 -0.1040
  359SOL     OW 1075   1.598   2.564   0.210 -0.0873 -0.1921 -0.1677
  359SOL    HW1 1076   1.610   2.464   0.183  0.3952 -0.6338 -0.2121
  359SOL    HW2 1077   1.501   2.592   0.191 -0.8553 -1.2005  1.1690
  360SOL     OW 1078   0.716   0.507   0.591 -0.3308 -0.0040 -0.7362
  360SOL    HW1 1079   0.622   0.522   0.547 -1.1296  1.4795  0.4993
  360SOL    HW2 1080   0.757   0.415   0.590  0.5583  3.4406  1.6832
  361SOL     OW 1081   1.363   1.316   0.617  0.6652 -0.4504 -0.3460
  361SOL    HW1 1082   1.398   1.355   0.708  0.4865  0.8993  2.4904
  361SOL    HW2 1083   1.267   1.349   0.600  0.6659 -0.4694  2.2720
  362SOL     OW 1084   1.375   1.815   0.696  0.5157 -0.1742  0.5808
  362SOL    HW1 1085   1.415   1.755   0.771  0.6910  0.1717  0.2356
  362SOL    HW2 1086   1.441   1.878   0.646 -0.9454 -0.7421 -1.7124
  363SOL     OW 1087   1.273   1.338   1.952 -0.4026 -0.4619 -0.6975
  363SOL    HW1 1088   1.374   1.368   1.964  0.2521 -1.5910 -0.5155
  363SOL    HW2 1089   1.208   1.387   2.015 -0.4413 -0.2671 -2.1676
  364SOL     OW 1090   0.557   2.379   1.954  0.1427 -0.1219 -0.1345
  364SOL    HW1 1091   0.454   2.374   1.979 -0.0975  4.2349  1.8580
  364SOL    HW2 1092   0.582   2.481   1.933  1.7293  0.5551  0.9514
  365SOL     OW 1093   0.935   1.960   1.444  0.4064 -0.6097 -0.2226
  365SOL    HW1 1094   0.844   1.986   1.485  1.3946 -1.3730  0.2604
  365SOL    HW2 1095   0.937   1.994   1.349  1.1065 -0.7658  0.5248
  366SOL     OW 1096   2.744   1.905   0.250 -0.2433 -1.2426  0.1084
  366SOL    HW1 1097   2.672   1.844   0.211  3.0659 -0.6550  0.8837
  366SOL    HW2 1098   2.824   1.852   0.290 -1.6294  1.6638 -0.6826
  367SOL     OW 1099   0.957   1.102   3.029  0.1720 -0.1262 -0.0722
  367SOL    HW1 1100   0.938   1.046   3.115  3.1959 -2.2027 -1.9056
  367SOL    HW2 1101   1.029   1.177   3.053  0.9647 -1.0722  1.2571
  368SOL     OW 1102   1.445   0.531   0.497 -0.0652 -0.6846 -0.1889
  368SOL    HW1 1103   1.347   0.567   0.469  0.0685  0.5626  0.0265
  368SOL    HW2 1104   1.513   0.564   0.425 -2.0877  0.7296  0.8415
  369SOL     OW 1105   0.379   1.648   0.142 -0.2227  0.9922  0.5044
  369SOL    HW1 1106   0.448   1.688   0.209 -2.6966  1.5720 -1.6690
  369SOL    HW2 1107   0.302   1.591   0.184 -1.3826 -1.9431  0.2673
  370SOL     OW 1108   0.425   2.158   1.042 -0.4599 -1.0138 -0.8878
  370SOL    HW1 1109   0.453   2.260   1.044  1.4578  0.8238  0.2586
  370SOL    HW2 1110   0.327   2.144   1.006  0.1542  0.4500 -1.4812
  371SOL     OW 1111   2.909   2.167   2.711  0.3215 -0.3781 -0.4719
  371SOL    HW1 1112   2.988   2.102   2.715 -0.1291  0.2983  1.8617
  371SOL    HW2 1113   2.916   2.247   2.772 -2.2050 -1.7135 -2.7604
  372SOL     OW 1114   0.975   2.050   1.164 -0.5903  0.1456  0.4185
  372SOL    HW1 1115   0.921   2.089   1.086  1.0230 -2.5964 -2.6541
  372SOL    HW2 1116   1.046   2.121   1.194 -0.3588 -0.5486 -0.7354
  373SOL     OW 1117   1.940   1.908   1.045 -0.3902 -0.0115 -0.2744
  373SOL    HW1 1118   2.040   1.936   1.062  1.2164 -0.4194 -0.1841
  373SOL    HW2 1119   1.881   1.970   0.984  0.9195  0.3146  0.8379
  374SOL     OW 1120   1.917   0.381   0.546  0.3122 -0.6405 -0.2990
  374SOL    HW1 1121   1.904   0.319   0.632 -0.2836 -1.2118  1.6584
  374SOL    HW2 1122   2.018   0.389   0.534 -1.1185 -1.7173  1.8091
  375SOL     OW 1123   2.435   2.191   1.138  0.4031 -0.0619 -0.1207
  375SOL    HW1 1124   2.466   2.181   1.041  1.1814 -0.0661 -2.7895
  375SOL    HW2 1125   2.497   2.140   1.206  0.4567 -0.9454  0.9019
  376SOL     OW 1126   3.077   0.628   1.439 -0.6218  0.1284 -0.1230
  376SOL    HW1 1127   3.120   0.687   1.515  2.6654 -0.4605  1.6840
  376SOL    HW2 1128   2.996   0.567   1.458  0.0177 -1.0421 -1.2778
  377SOL     OW 1129   2.244   2.930   0.181  0.5827  0.1451 -0.8002
  377SOL    HW1 1130   2.161   2.942   0.238  1.4845  0.2511  2.5275
  377SOL    HW2 1131   2.301   2.851   0.219 -0.0733 -0.1914  0.0626
  378SOL     OW 1132   1.898   1.910   2.518  0.1967  0.1927  0.3765
  378SOL    HW1 1133   1.998   1.889   2.503 -1.4425  1.2800 -0.6260
  378SOL    HW2 1134   1.837   1.826   2.531  1.9333  0.7417 -0.9846
  379SOL     OW 1135   0.761   0.149   2.826  0.6086  0.4089  0.2121
  379SOL    HW1 1136   0.741   0.055   2.786  0.0183 -0.9772 -1.8909
  379SOL    HW2 1137   0.758   0.234   2.767 -2.2876 -2.1632 -0.8535
  380SOL     OW 1138   1.540   1.121   0.540  0.1399 -0.2768  0.5025
  380SOL    HW1 1139   1.469   1.195   0.532  0.5771  2.2710  0.7949
  380SOL    HW2 1140   1.496   1.024   0.530 -0.4880 -0.0294  0.5042
  381SOL     OW 1141   1.261   1.310   1.487  0.3749 -0.1129 -0.6143
  381SOL    HW1 1142   1.294   1.216   1.457 -1.8522 -0.1615 -1.8776
  381SOL    HW2 1143   1.312   1.352   1.563 -0.2843  0.7210  0.4519
  382SOL     OW 1144   1.815   0.838   0.259 -0.3752  0.0589  0.4687
  382SOL    HW1 1145   1.825   0.803   0.160 -3.3980  1.1819 -0.6524
  382SOL    HW2 1146   1.896   0.814   0.320  1.2717  0.1051  1.5880
  383SOL     OW 1147   2.518   0.994   1.468  0.3359  0.5990  0.5027
  383SOL    HW1 1148   2.442   0.930   1.425 -1.7903  1.7533 -1.2830
  383SOL    HW2 1149   2.597   1.009   1.403 -0.2787  2.0659 -2.3701
  384SOL     OW 1150   0.943   2.309   0.230  0.2601  0.2485 -0.3279
  384SOL    HW1 1151   0.868   2.382   0.240  2.0020 -0.5056 -2.9094
  384SOL    HW2 1152   0.965   2.267   0.319 -1.4775  1.3546 -1.1887
  385SOL     OW 1153   2.941   2.032   1.670 -0.0655 -0.2075 -0.5897
  385SOL    HW1 1154   3.013   2.107   1.684 -0.0021  1.4998 -0.0140
  385SOL    HW2 1155   2.976   1.936   1.699 -1.5104 -1.2702 -1.0815
  386SOL     OW 1156   0.474   1.071   0.468 -0.2559  0.0602  0.3249
  386SOL    HW1 1157   0.451   0.964   0.469  3.4399 -0.3172 -1.0902
  386SOL    HW2 1158   0.401   1.120   0.415  2.8102  1.0970 -0.4138
  387SOL     OW 1159   0.967   0.325   1.643 -0.2803 -0.7074 -0.3503
  387SOL    HW1 1160   1.016   0.417   1.638 -1.1252 -1.7961 -0.8981
  387SOL    HW2 1161   0.976   0.263   1.562 -0.8254 -0.5812 -0.1852
  388SOL     OW 1162   1.196   2.709   1.748  0.0575 -0.0037 -0.0416
  388SOL    HW1 1163   1.202   2.746   1.653 -0.9945  0.9610  0.9507
  388SOL    HW2 1164   1.280   2.651   1.765  0.2126  1.6920 -2.6801
  389SOL     OW 1165   0.144   2.906   1.320  0.5775  0.2447 -0.6240
  389SOL    HW1 1166   0.042   2.916   1.303  1.7750 -0.1766  1.3735
  389SOL    HW2 1167   0.176   2.811   1.298  0.0205  2.4713  1.6662
  390SOL     OW 1168   1.020   0.971   1.379  0.0603 -0.0359 -0.1838
  390SOL    HW1 1169   1.106   0.970   1.435 -1.4955 -0.6073  0.2557
  390SOL    HW2 1170   0.990   1.065   1.353 -0.1056 -2.0819 -0.7828
  391SOL     OW 1171   2.173   1.118   1.125 -0.1734  0.5522 -0.5585
  391SOL    HW1 1172   2.109   1.041   1.156 -2.2306  2.6234 -1.6379
  391SOL    HW2 1173   2.243   1.084   1.056 -1.1660  2.9805  1.1098
  392SOL     OW 1174   0.880   2.628   0.075  0.2152 -0.2358 -0.1264
  392SOL    HW1 1175   0.970   2.586   0.056 -1.5105 -0.2633 -0.0807
  392SOL    HW2 1176   0.813   2.556   0.116 -0.8442 -1.7348 -0.6712
  393SOL     OW 1177   0.287   0.668   1.973  0.2261 -0.2005 -0.7650
  393SOL    HW1 1178   0.266   0.566   1.955  2.0116 -0.8759 -1.1545
  393SOL    HW2 1179   0.331   0.710   1.891  0.0848 -2.7179  0.4137
  394SOL     OW 1180   3.068   1.949   2.688  0.4157 -0.4911  0.2884
  394SOL    HW1 1181   3.140   1.912   2.750  2.3970  1.3075 -0.2642
  394SOL    HW2 1182   3.048   1.878   2.614  1.4396  0.7830  1.3265
  395SOL     OW 1183   1.617   1.972   0.637  0.2596  0.2258  0.3580
  395SOL    HW1 1184   1.661   1.901   0.576 -0.9889  1.5405 -0.5484
  395SOL    HW2 1185   1.663   1.985   0.731 -0.8948  0.7098  1.7363
  396SOL     OW 1186   2.912   1.877   1.274 -0.0581 -0.2543  0.1882
  396SOL    HW1 1187   2.902   1.772   1.267 -0.9438  1.1742  1.3406
  396SOL    HW2 1188   2.836   1.914   1.332 -0.5568  0.8582  1.8897
  397SOL     OW 1189   1.040   2.207   0.506 -0.0013 -0.2378  0.3723
  397SOL    HW1 1190   0.942   2.193   0.538 -1.1852  3.3129  0.8145
  397SOL    HW2 1191   1.067   2.305   0.529  0.4435 -1.2956 -0.4478
  398SOL     OW 1192   2.149   3.073   1.129  0.0893  0.1018  0.1725
  398SOL    HW1 1193   2.062   3.018   1.128 -0.4699 -0.5065 -1.6906
  398SOL    HW2 1194   2.133   3.171   1.094 -2.3842 -1.5086 -0.6848
  399SOL     OW 1195   3.053   2.449   2.655  0.4483 -0.3116  0.1997
  399SOL    HW1 1196   2.977   2.376   2.641 -1.6572 -1.0026  2.9623
  399SOL    HW2 1197   3.103   2.431   2.740 -1.2628  0.6602  0.2321
  400SOL     OW 1198   0.674   1.676   1.367 -0.6277  0.6074 -0.1077
  400SOL    HW1 1199   0.661   1.707   1.466  1.1255 -0.3579  1.0295
  400SOL    HW2 1200   0.652   1.747   1.297  2.8323 -0.1923 -1.3877
  401SOL     OW 1201   1.848   0.274   1.140  0.7025  0.0983 -0.3085
  401SOL    HW1 1202   1.857   0.273   1.243  0.7612  0.3940 -1.4457
  401SOL    HW2 1203   1.754   0.294   1.098 -1.8137 -0.5380  1.4806
  402SOL     OW 1204   1.345   0.265   3.085  0.4603 -0.0693  0.2367
  402SOL    HW1 1205   1.419   0.225   3.022  1.1583  0.3637 -0.2380
  402SOL    HW2 1206   1.282   0.340   3.044 -0.2018  0.9077  2.5003
  403SOL     OW 1207   2.220   1.860   0.843  0.0640  0.7363 -0.1131
  403SOL    HW1 1208   2.324   1.863   0.818  3.8641  1.2131 -1.3986
  403SOL    HW2 1209   2.215   1.880   0.945 -0.5945  2.2204  1.3513
  404SOL     OW 1210   0.246   2.480   2.756  0.2724  0.1761 -0.0484
  404SOL    HW1 1211   0.334   2.444   2.711  0.5302 -0.6220  0.6606
  404SOL    HW2 1212   0.237   2.584   2.767 -0.4512  1.0570  1.3172
  405SOL     OW 1213   0.115   2.379   0.747  0.9277  0.0907 -0.3764
  405SOL    HW1 1214   0.099   2.318   0.660  0.7746 -2.2012 -0.3076
  405SOL    HW2 1215   0.203   2.442   0.732  2.7770  1.9334  3.4592
  406SOL     OW 1216   0.047   1.540  -0.001 -0.1054  0.0044 -0.1388
  406SOL    HW1 1217   0.124   1.498  -0.058 -2.7170 -1.5968 -0.5827
  406SOL    HW2 1218   0.056   1.510   0.098 -2.5668  2.2985  0.5851
  407SOL     OW 1219   1.592   0.888   0.974 -0.1943 -0.2101 -0.2056
  407SOL    HW1 1220   1.616   0.887   0.873 -2.4443 -0.6004  1.1053
  407SOL    HW2 1221   1.505   0.941   0.987  0.2733  0.5742  0.9032
  408SOL     OW 1222   1.535   2.391   0.962  0.2862 -0.7159  0.0286
  408SOL    HW1 1223   1.615   2.361   0.904 -2.2864  0.6992  1.1917
  408SOL    HW2 1224   1.487   2.473   0.922 -0.2840 -0.6565  0.3361
  409SOL     OW 1225   0.619   0.833   0.756 -0.3394 -0.6470 -0.1554
  409SOL    HW1 1226   0.551   0.823   0.675  0.7041  0.7160  0.0926
  409SOL    HW2 1227   0.663   0.745   0.790  3.3988  1.0697 -0.1649
  410SOL     OW 1228   1.254   2.004   1.383 -0.4163 -0.3540 -0.0439
  410SOL    HW1 1229   1.338   1.961   1.434  2.6465 -0.4612 -1.5760
  410SOL    HW2 1230   1.174   1.941   1.366  0.5871  1.6303  0.4636
  411SOL     OW 1231   2.529   1.844   3.015 -0.2419  0.4094 -0.1535
  411SOL    HW1 1232   2.595   1.926   3.030 -0.7344  1.4195  0.6027
  411SOL    HW2 1233   2.434   1.879   3.002  0.0719 -1.0299 -1.0444
  412SOL     OW 1234   1.471   2.469   2.152  0.0484  0.0838  0.3910
  412SOL    HW1 1235   1.548   2.484   2.222  0.2117  0.5491  1.0356
  412SOL    HW2 1236   1.387   2.420   2.192 -1.1470  0.7064 -1.5019
  413SOL     OW 1237   3.097   0.231   2.997  0.3475  0.4417  0.3762
  413SOL    HW1 1238   3.041   0.157   3.039  0.4106  1.5124  3.9011
  413SOL    HW2 1239   3.196   0.207   2.996 -0.0641  1.3998  3.0795
  414SOL     OW 1240   1.772   1.493   1.163  0.5705  0.4699  0.2199
  414SOL    HW1 1241   1.764   1.596   1.172  0.1171 -1.6343 -1.3070
  414SOL    HW2 1242   1.776   1.471   1.062 -1.2341  2.9446 -1.4560
  415SOL     OW 1243   0.328   2.167   0.680  0.3816 -0.4650 -0.2806
  415SOL    HW1 1244   0.297   2.189   0.777  4.8061 -2.4902 -0.3045
  415SOL    HW2 1245   0.254   2.203   0.610 -0.6096 -2.6331 -1.1354
  416SOL     OW 1246   0.378   1.106   1.062 -0.2111  0.3416 -0.1061
  416SOL    HW1 1247   0.334   1.019   1.024 -1.6720 -1.1485  1.4758
  416SOL    HW2 1248   0.481   1.113   1.044  1.1796 -3.5544 -0.4398
  417SOL     OW 1249   2.349   2.429   2.108  0.2188 -0.6933  0.3486
  417SOL    HW1 1250   2.365   2.329   2.091  1.9071 -0.8926 -3.0016
  417SOL    HW2 1251   2.322   2.444   2.205 -1.1190 -1.3423  1.0523
  418SOL     OW 1252   1.020   0.490   1.342  0.3245  0.2400  0.3215
  418SOL    HW1 1253   0.931   0.449   1.299 -0.4315  0.0797 -1.8447
  418SOL    HW2 1254   1.090   0.526   1.276 -2.2234  2.6867 -2.4963
  419SOL     OW 1255   0.932   0.550   2.975 -0.6276  0.1351 -0.1994
  419SOL    HW1 1256   0.840   0.556   2.934 -1.5213 -1.8654  0.9685
  419SOL    HW2 1257   0.994   0.633   2.979 -1.4495 -2.0021  1.1960
  420SOL     OW 1258   0.124   2.209   0.503 -0.2648 -0.3255 -0.0726
  420SOL    HW1 1259   0.158   2.244   0.410  1.7566  2.4456 -1.4041
  420SOL    HW2 1260   0.052   2.133   0.497 -0.1592 -4.9651 -0.3809
  421SOL     OW 1261   0.331   2.988   0.545 -0.3629  0.1042 -0.1733
  421SOL    HW1 1262   0.315   2.927   0.629 -0.5763 -0.8412 -0.5944
  421SOL    HW2 1263   0.416   3.052   0.552 -0.7866  0.0273 -0.4989
  422SOL     OW 1264   1.039   2.585   1.007  0.5316 -0.9701 -0.9214
  422SOL    HW1 1265   1.054   2.672   0.949  1.4329  2.1771 -2.1182
  422SOL    HW2 1266   1.121   2.547   1.059 -1.4297  1.9626  1.3144
  423SOL     OW 1267   0.142   0.733   1.247  0.2728  0.0766  0.4026
  423SOL    HW1 1268   0.081   0.677   1.312  0.4085 -3.7713  0.4627
  423SOL    HW2 1269   0.093   0.818   1.212  0.0100 -0.2759  0.4939
  424SOL     OW 1270   1.176   2.223   2.045 -0.1394 -0.2389  0.0835
  424SOL    HW1 1271   1.158   2.322   2.057 -0.4594 -0.7192  2.0939
  424SOL    HW2 1272   1.128   2.167   2.119 -2.5849  0.8169 -0.4249
  425SOL     OW 1273   1.994   1.304   0.980 -0.0660  0.0035  0.3977
  425SOL    HW1 1274   2.073   1.260   1.025 -1.1014 -2.0985 -0.6571
  425SOL    HW2 1275   2.003   1.402   0.951 -2.6398 -0.3751  0.5847
  426SOL     OW 1276   1.435   1.605   1.199  0.3686  0.0312 -0.3798
  426SOL    HW1 1277   1.429   1.702   1.172 -0.0323 -3.3748  2.0580
  426SOL    HW2 1278   1.402   1.590   1.298 -0.1993  2.8129  1.1018
  427SOL     OW 1279   1.943   2.364   2.063  0.2339  0.8405  0.3442
  427SOL    HW1 1280   1.998   2.301   2.121  0.5233  1.1828 -2.7792
  427SOL    HW2 1281   1.961   2.466   2.088 -0.8010  2.2888  1.4787
  428SOL     OW 1282   0.876   0.040   0.112  0.1337  0.3903 -0.1334
  428SOL    HW1 1283   0.906   0.111   0.038  0.1303 -0.4343  0.2149
  428SOL    HW2 1284   0.959  -0.017   0.136 -3.1257  0.1616  1.2196
  429SOL     OW 1285   1.308   0.168   0.250 -0.0345  0.2005 -0.2655
  429SOL    HW1 1286   1.408   0.161   0.289 -0.1823 -1.5099 -0.7433
  429SOL    HW2 1287   1.305   0.209   0.156 -1.4963 -0.6852  0.6836
  430SOL     OW 1288   2.903   1.424   0.308  0.0281  0.3715 -0.3923
  430SOL    HW1 1289   2.879   1.481   0.225  1.1740 -3.6224  0.2280
  430SOL    HW2 1290   2.879   1.452   0.402 -0.9506 -0.5174 -0.2067
  431SOL     OW 1291   2.058   1.580   0.915 -0.1459  0.1551 -0.4921
  431SOL    HW1 1292   2.116   1.657   0.949  1.1731 -0.7264 -0.4991
  431SOL    HW2 1293   1.958   1.602   0.916  0.7634 -0.0958  1.2586
  432SOL     OW 1294   2.917   2.153   1.225 -0.1296  0.5288 -0.5981
  432SOL    HW1 1295   2.927   2.050   1.216 -0.0164  1.9924  0.9007
  432SOL    HW2 1296   2.962   2.189   1.312 -1.8038 -0.3662  1.4962
  433SOL     OW 1297   1.860   0.200   0.823 -0.3134  0.7300 -0.1291
  433SOL    HW1 1298   1.809   0.269   0.879  1.7943 -0.2677 -2.0265
  433SOL    HW2 1299   1.883   0.108   0.865  3.1459 -1.0995  2.1899
  434SOL     OW 1300   1.550   0.319   0.656 -0.1908 -0.5325  0.1438
  434SOL    HW1 1301   1.538   0.391   0.577  0.6939 -1.9313 -1.9280
  434SOL    HW2 1302   1.566   0.360   0.754  2.0215  3.1779  2.1230
  435SOL     OW 1303   1.520   1.419   2.073 -0.3835  0.1964  0.1404
  435SOL    HW1 1304   1.520   1.446   2.174 -1.7210 -0.4395  1.2113
  435SOL    HW2 1305   1.510   1.508   2.013 -1.9423 -1.2756 -0.9524
  436SOL     OW 1306   1.702   2.727   2.249  0.5102 -0.3373 -0.0288
  436SOL    HW1 1307   1.647   2.799   2.305 -1.6580  0.0043  3.0056
  436SOL    HW2 1308   1.676   2.630   2.269 -0.2284  0.6610 -2.4706
  437SOL     OW 1309   1.100   2.961   0.923  0.3869 -0.1611  0.1690
  437SOL    HW1 1310   1.026   3.030   0.904 -0.2650 -2.2141  2.5409
  437SOL    HW2 1311   1.100   2.938   1.024 -0.5310  0.8426 -1.3164
  438SOL     OW 1312   1.015   2.677   1.468  0.2320  0.0057  0.5255
  438SOL    HW1 1313   1.115   2.679   1.443  2.8839  4.4820  1.1427
  438SOL    HW2 1314   0.975   2.585   1.446 -0.1927  0.2915  2.0011
  439SOL     OW 1315   0.687   1.844   1.059  0.1720 -0.4251  0.1206
  439SOL    HW1 1316   0.685   1.942   1.028 -0.6623 -0.2370 -3.0727
  439SOL    HW2 1317   0.591   1.804   1.070  0.5928 -1.3933 -1.3603
  440SOL     OW 1318   1.077   2.480   1.986 -0.8504  0.2894 -0.2194
  440SOL    HW1 1319   1.027   2.556   1.941 -1.3607  1.2943  2.5496
  440SOL    HW2 1320   1.177   2.485   1.961  0.3768  0.2923 -0.4592
  441SOL     OW 1321   0.377   2.662   1.547  0.0029  0.1350 -0.8441
  441SOL    HW1 1322   0.466   2.606   1.551 -0.1951  0.0227 -0.3142
  441SOL    HW2 1323   0.315   2.635   1.470 -2.3731 -0.4237  2.8378
  442SOL     OW 1324   2.266   0.686   2.555  0.3904 -0.1474  0.0697
  442SOL    HW1 1325   2.255   0.591   2.590  0.3747 -0.7608  0.6614
  442SOL    HW2 1326   2.176   0.737   2.569 -2.4301 -2.7000 -1.3905
  443SOL     OW 1327   1.207   2.665   2.200  0.0472 -0.4024  0.0063
  443SOL    HW1 1328   1.191   2.717   2.287 -0.1044  0.2735 -1.3617
  443SOL    HW2 1329   1.222   2.567   2.216  0.3313  0.6339  0.6118
  444SOL     OW 1330   0.993   1.365   1.558 -0.2370  0.6376 -0.0948
  444SOL    HW1 1331   1.091   1.339   1.533  0.4291 -0.0830 -1.4168
  444SOL    HW2 1332   0.972   1.466   1.550  1.0279 -0.3529 -0.0625
  445SOL     OW 1333   3.061   2.363   1.968  0.3469 -0.1125  0.0334
  445SOL    HW1 1334   3.070   2.442   1.903 -0.7140 -0.3024  2.0535
  445SOL    HW2 1335   2.963   2.335   1.978  0.7720  0.4788 -2.6903
  446SOL     OW 1336   0.195   1.885   2.346 -0.4034 -0.4359 -0.2882
  446SOL    HW1 1337   0.187   1.980   2.382  1.8147  0.4417 -0.9174
  446SOL    HW2 1338   0.118   1.855   2.282  0.2760 -0.2266 -1.9481
  447SOL     OW 1339   1.228   1.662   1.938  0.5150  0.2571 -0.2214
  447SOL    HW1 1340   1.176   1.744   1.895  0.3586  0.4111  1.5311
  447SOL    HW2 1341   1.332   1.656   1.933  1.0101  0.4026  0.6136
  448SOL     OW 1342   0.111   1.522   1.956 -0.1979  0.7809 -0.1027
  448SOL    HW1 1343   0.116   1.627   1.960  2.2917 -1.4520 -0.9637
  448SOL    HW2 1344   0.132   1.477   2.050  1.9324  2.1267  1.2405
  449SOL     OW 1345   2.001   3.011   0.844  0.2576 -0.4728 -0.0595
  449SOL    HW1 1346   2.047   3.056   0.927 -1.5121  1.0131  0.6836
  449SOL    HW2 1347   2.007   2.910   0.855 -1.0728 -0.5243 -0.4793
  450SOL     OW 1348   2.274   1.371   0.893 -0.4870  0.0712  0.0990
  450SOL    HW1 1349   2.262   1.273   0.877  1.3442 -1.6390  2.7379
  450SOL    HW2 1350   2.192   1.423   0.871  3.2977  1.1330 -1.3053
  451SOL     OW 1351   1.419   0.035   1.435  0.0416  0.1067 -0.2547
  451SOL    HW1 1352   1.323   0.072   1.445  0.0937 -1.7238 -2.0920
  451SOL    HW2 1353   1.451  -0.014   1.522 -1.1729 -0.7320  1.0824
  452SOL     OW 1354   2.648   2.314   2.251  0.3783  0.9084 -0.0346
  452SOL    HW1 1355   2.600   2.396   2.292  1.3457 -0.3632 -0.8980
  452SOL    HW2 1356   2.688   2.253   2.326  2.6176 -1.1579  2.3996
  453SOL     OW 1357   2.437   2.589   3.034 -0.2986 -0.1787 -0.2669
  453SOL    HW1 1358   2.368   2.667   3.049  0.9616  2.1639  3.0661
  453SOL    HW2 1359   2.412   2.521   2.958  0.2026  2.5413 -1.0901
  454SOL     OW 1360   0.964   1.087   2.082 -0.1602  0.3161  0.1559
  454SOL    HW1 1361   0.945   1.132   1.988 -0.2962 -0.5264 -0.0721
  454SOL    HW2 1362   1.064   1.105   2.099 -1.0140 -2.4496 -0.2232
  455SOL     OW 1363   0.683   2.653   2.916 -0.8804  0.4888 -0.0170
  455SOL    HW1 1364   0.741   2.731   2.960  0.4607  2.1286  0.8563
  455SOL    HW2 1365   0.678   2.569   2.974  0.9718  3.1546 -1.1067
  456SOL     OW 1366   0.542   1.795   0.294 -1.0787 -0.1951  0.2958
  456SOL    HW1 1367   0.625   1.740   0.331 -1.2670 -0.4006  0.0157
  456SOL    HW2 1368   0.570   1.890   0.281  1.3003 -2.8454 -0.2763
  457SOL     OW 1369   0.333   2.536   0.670 -0.1051 -0.5359 -0.2259
  457SOL    HW1 1370   0.317   2.575   0.576 -0.2590 -0.7961  1.6729
  457SOL    HW2 1371   0.434   2.521   0.698 -1.6923 -2.2851  0.6747
  458SOL     OW 1372   2.973   2.946   1.277  0.1046  0.5091 -0.2267
  458SOL    HW1 1373   2.982   3.049   1.285  2.7597 -0.9682 -0.4261
  458SOL    HW2 1374   2.962   2.917   1.178  1.9140  0.6961  2.4003
  459SOL     OW 1375   2.148   2.529   0.899  1.2708  0.3334 -0.4584
  459SOL    HW1 1376   2.126   2.589   0.984  0.1054 -2.9143 -0.7539
  459SOL    HW2 1377   2.249   2.533   0.868  2.4431 -0.2299 -0.3115
  460SOL     OW 1378   1.070   1.915   2.925  0.0889  0.2285  0.0005
  460SOL    HW1 1379   1.114   1.983   2.865 -0.1373 -1.2816  1.1268
  460SOL    HW2 1380   1.143   1.870   2.989 -0.6311 -0.0116  0.1312
  461SOL     OW 1381   0.543   2.115   2.712  0.6333  0.0155 -0.0325
  461SOL    HW1 1382   0.472   2.047   2.676 -2.1726  0.6903  0.9977
  461SOL    HW2 1383   0.586   2.080   2.802  1.9768  0.1665 -0.8512
  462SOL     OW 1384   0.959   1.194   1.802 -0.2283 -0.2090 -0.5962
  462SOL    HW1 1385   1.024   1.116   1.796 -0.6838 -2.8488 -0.1339
  462SOL    HW2 1386   0.949   1.248   1.716  1.3024 -2.5385  2.1949
  463SOL     OW 1387   0.445   0.807   0.538 -0.2888 -0.4992 -0.4046
  463SOL    HW1 1388   0.450   0.713   0.500 -1.1629  0.9085  0.7264
  463SOL    HW2 1389   0.342   0.831   0.554 -1.6899  0.4238 -0.7365
  464SOL     OW 1390   0.493   2.244   2.226  0.2646 -0.1868  0.0526
  464SOL    HW1 1391   0.414   2.301   2.265 -1.0924 -1.0340  2.3904
  464SOL    HW2 1392   0.539   2.292   2.145  0.0018 -0.4511  0.1085
  465SOL     OW 1393   0.273   0.874   0.889  0.4217  0.3706  0.2116
  465SOL    HW1 1394   0.179   0.908   0.861  2.8885  1.5205 -1.2883
  465SOL    HW2 1395   0.281   0.772   0.908  4.1451  0.6956  0.3034
  466SOL     OW 1396   1.388   1.056   1.049 -0.0566 -0.3516  0.3278
  466SOL    HW1 1397   1.455   1.134   1.064 -0.5312  0.0233  1.6840
  466SOL    HW2 1398   1.291   1.088   1.032  2.2242 -0.0184  0.1125
  467SOL     OW 1399   0.448   0.391   2.429  0.3545 -0.4007  0.8206
  467SOL    HW1 1400   0.391   0.458   2.479  2.4971  0.6759 -0.5513
  467SOL    HW2 1401   0.472   0.309   2.488  0.2686  0.6835 -1.3567
  468SOL     OW 1402   0.502   2.235   1.702 -0.1463 -0.4000  0.1844
  468SOL    HW1 1403   0.518   2.314   1.767 -2.0409 -0.8417  0.1615
  468SOL    HW2 1404   0.461   2.266   1.611  0.4808  1.5182  1.9077
  469SOL     OW 1405   1.559   1.263   1.097  0.6107  0.1841  0.2442
  469SOL    HW1 1406   1.642   1.202   1.097 -0.4351 -0.3945 -3.0381
  469SOL    HW2 1407   1.574   1.348   1.150  0.9869  2.1048 -0.7794
  470SOL     OW 1408   3.023   1.638   0.712  0.3940  0.1895  0.9016
  470SOL    HW1 1409   3.114   1.654   0.753  1.1098 -1.7703 -1.4526
  470SOL    HW2 1410   2.938   1.680   0.757  2.2561 -0.7234  0.5394
  471SOL     OW 1411   2.666   1.292   2.146 -0.4114  0.0744  0.2936
  471SOL    HW1 1412   2.618   1.232   2.217  1.1415 -1.9025  1.6148
  471SOL    HW2 1413   2.716   1.375   2.194  0.7319  0.5533  0.6859
  472SOL     OW 1414   1.121   2.465   0.029  0.1759  0.0223 -0.0515
  472SOL    HW1 1415   1.210   2.451   0.081 -1.7125  2.5430  3.6866
  472SOL    HW2 1416   1.066   2.376   0.029  1.1024 -1.1090 -2.1312
  473SOL     OW 1417   1.054   1.588   0.842  0.0287 -0.6213  0.3949
  473SOL    HW1 1418   0.964   1.600   0.896 -0.2121  3.3721 -1.9541
  473SOL    HW2 1419   1.128   1.561   0.904 -0.9712  2.3315  1.4412
  474SOL     OW 1420   0.808   1.206   0.762  0.1527  0.3192  0.6674
  474SOL    HW1 1421   0.778   1.203   0.663  1.5633 -2.5385 -1.4313
  474SOL    HW2 1422   0.909   1.201   0.776 -0.6383 -1.5795  1.1240
  475SOL     OW 1423   2.889   0.083   0.768  0.1482 -0.2771  0.4700
  475SOL    HW1 1424   2.968   0.067   0.837 -1.0900  1.2122  0.6475
  475SOL    HW2 1425   2.805   0.111   0.821  4.4533  0.4374 -0.6324
  476SOL     OW 1426   0.874   3.044   1.839  0.3333 -0.2927  0.2214
  476SOL    HW1 1427   0.926   2.979   1.902 -1.1759  0.8705  1.3286
  476SOL    HW2 1428   0.895   3.027   1.738  2.9702 -2.1980  0.7851
  477SOL     OW 1429   1.443   0.376   2.429  0.1180  0.4137 -0.0233
  477SOL    HW1 1430   1.409   0.377   2.530  1.2183  3.1178  0.5342
  477SOL    HW2 1431   1.536   0.330   2.418 -1.1293  1.1088  1.4972
  478SOL     OW 1432   2.265   1.806   0.276 -0.3457 -0.4477  0.1776
  478SOL    HW1 1433   2.199   1.731   0.248 -0.9496  0.4020  2.2765
  478SOL    HW2 1434   2.356   1.799   0.232 -1.7008 -0.3374 -1.6318
  479SOL     OW 1435   1.220   1.096   2.843 -0.5763  0.2415  0.4343
  479SOL    HW1 1436   1.304   1.121   2.784  1.2719  1.0961 -3.1293
  479SOL    HW2 1437   1.154   1.034   2.795 -2.5196  0.9128  0.5255
  480SOL     OW 1438   2.468   2.345   0.363  0.1929  0.2999 -0.2991
  480SOL    HW1 1439   2.410   2.300   0.434  0.0635 -1.2728  0.5017
  480SOL    HW2 1440   2.424   2.356   0.268  0.2271 -2.6906 -0.3738
  481SOL     OW 1441   1.085   1.205   0.807 -0.4298  0.5376 -0.0968
  481SOL    HW1 1442   1.105   1.276   0.734 -0.9108 -0.8010 -1.9687
  481SOL    HW2 1443   1.116   1.232   0.900 -0.8096 -0.9917 -0.6709
  482SOL     OW 1444   1.617   0.293   2.032 -0.0486 -0.4964  0.1639
  482SOL    HW1 1445   1.616   0.380   1.978  1.3425  0.9364 -1.4571
  482SOL    HW2 1446   1.709   0.278   2.076 -0.9343 -0.9244  1.3896
  483SOL     OW 1447   0.136   2.352   1.317 -0.3367 -0.4224  0.1698
  483SOL    HW1 1448   0.034   2.366   1.324  2.5440  1.0925 -3.5692
  483SOL    HW2 1449   0.171   2.384   1.225  0.1833 -0.1956  1.0497
  484SOL     OW 1450   1.724   0.963   1.385 -0.0382 -0.3889  0.1609
  484SOL    HW1 1451   1.814   0.915   1.419  0.0325 -1.2927  2.9125
  484SOL    HW2 1452   1.749   1.053   1.338  0.0990  0.0659 -0.1226
  485SOL     OW 1453   0.695   1.112   1.777  0.0042 -0.0270  0.0730
  485SOL    HW1 1454   0.681   1.106   1.674  1.0375 -0.9972  1.1435
  485SOL    HW2 1455   0.787   1.149   1.803  1.6027  1.6794  2.6988
  486SOL     OW 1456   0.881   1.910   2.425 -0.1929  0.0456 -0.4957
  486SOL    HW1 1457   0.933   1.885   2.508  2.6616  1.4868 -0.8577
  486SOL    HW2 1458   0.809   1.980   2.446 -0.0492  0.4472 -0.9814
  487SOL     OW 1459   1.738   1.495   0.893 -0.0457  0.0967 -0.5030
  487SOL    HW1 1460   1.732   1.411   0.836 -2.2130 -1.7407  0.7834
  487SOL    HW2 1461   1.781   1.569   0.835  0.9410  0.5880 -1.3959
  488SOL     OW 1462   2.956   0.961   2.289  0.0130 -0.2395 -0.0406
  488SOL    HW1 1463   3.016   0.912   2.223  2.4864 -2.6815  0.9590
  488SOL    HW2 1464   2.955   0.911   2.380  0.9277  0.5243 -1.8292
  489SOL     OW 1465   2.797   0.202   1.307 -0.2621 -0.1316 -0.0426
  489SOL    HW1 1466   2.777   0.179   1.408 -0.5254 -2.7882  0.6511
  489SOL    HW2 1467   2.894   0.184   1.272 -2.9193 -0.7210 -1.1076
  490SOL     OW 1468   1.426   2.977   2.847 -0.1595 -0.1012 -0.3900
  490SOL    HW1 1469   1.441   2.878   2.859 -0.4702 -2.2651 -1.7562
  490SOL    HW2 1470   1.386   2.993   2.756 -0.7466 -1.5158 -1.0448
  491SOL     OW 1471   1.915   1.554   2.658  0.2967  0.3976 -0.0731
  491SOL    HW1 1472   1.882   1.557   2.757 -0.0646  0.3912 -0.1649
  491SOL    HW2 1473   2.007   1.600   2.634 -2.2844 -1.3128 -2.4348
  492SOL     OW 1474   0.470   1.934   0.725 -0.2342 -0.3992 -0.5394
  492SOL    HW1 1475   0.550   1.972   0.772 -0.1083 -1.7863  0.8317
  492SOL    HW2 1476   0.408   2.009   0.686  0.5472  0.2444  0.3635
  493SOL     OW 1477   0.453   1.402   2.126  0.4816  0.5325  0.4073
  493SOL    HW1 1478   0.364   1.453   2.144 -0.2559 -0.3960  1.7336
  493SOL    HW2 1479   0.462   1.320   2.189  0.6368  0.4213  0.6212
  494SOL     OW 1480   2.621   2.668   0.183 -0.4572 -0.1784 -0.2490
  494SOL    HW1 1481   2.673   2.585   0.225  0.4933 -0.4508  1.5636
  494SOL    HW2 1482   2.597   2.652   0.085  2.8091 -0.3822 -1.2324
  495SOL     OW 1483   2.773   2.697   2.694 -0.2803  0.1219 -0.2561
  495SOL    HW1 1484   2.780   2.608   2.640 -0.9151 -2.0211 -0.7995
  495SOL    HW2 1485   2.762   2.774   2.629 -2.1058 -2.5928  1.9784
  496SOL     OW 1486   2.041   2.189   0.712 -0.7081  0.1176 -0.1843
  496SOL    HW1 1487   2.038   2.185   0.816 -0.2731  3.4856 -2.2092
  496SOL    HW2 1488   2.055   2.089   0.665  1.4579 -1.5962 -0.3442
  497SOL     OW 1489   0.229   2.985   2.404 -0.1154  0.0867 -0.5529
  497SOL    HW1 1490   0.185   3.062   2.455 -0.5260  2.0601 -1.1002
  497SOL    HW2 1491   0.272   3.024   2.320 -1.2003  2.5077  0.0187
  498SOL     OW 1492   1.211   1.493   1.078 -0.2520  0.0386 -0.6262
  498SOL    HW1 1493   1.309   1.512   1.117  0.4171  1.0292 -1.6353
  498SOL    HW2 1494   1.137   1.527   1.140  4.7177 -1.4622 -0.7049
  499SOL     OW 1495   0.848   1.831   0.500  0.1171 -0.3940 -0.3144
  499SOL    HW1 1496   0.803   1.751   0.551  0.6221  1.6599 -1.8529
  499SOL    HW2 1497   0.878   1.901   0.566 -3.1652 -0.8695 -0.9697
  500SOL     OW 1498   1.454   2.978   1.661  0.3335 -0.3086 -0.1160
  500SOL    HW1 1499   1.481   3.024   1.751  1.2515 -2.2058 -1.9655
  500SOL    HW2 1500   1.465   2.874   1.670  0.6914 -1.6309 -0.4234
  501SOL     OW 1501   0.748   1.129   2.270  0.4173 -0.3673 -0.5296
  501SOL    HW1 1502   0.680   1.054   2.299  1.8824  1.0165 -2.9171
  501SOL    HW2 1503   0.802   1.103   2.182  1.2936 -0.2996 -0.3653
  502SOL     OW 1504   2.610   0.959   1.731 -0.0200  0.1666  0.1047
  502SOL    HW1 1505   2.554   0.983   1.650 -0.7331  2.1439  0.8362
  502SOL    HW2 1506   2.583   0.874   1.776  1.8253  1.3635  0.3732
  503SOL     OW 1507   1.322   0.148   0.636 -0.4139 -0.0907  0.4222
  503SOL    HW1 1508   1.248   0.212   0.599 -0.6000 -0.4035  0.9874
  503SOL    HW2 1509   1.414   0.201   0.637 -1.3609  0.6737 -0.3458
  504SOL     OW 1510   2.971   2.352   1.409 -0.1385 -1.0452  0.3897
  504SOL    HW1 1511   2.982   2.437   1.463  1.8082 -0.0040  1.0339
  504SOL    HW2 1512   2.888   2.301   1.437  1.7059  2.4161 -2.2787
  505SOL     OW 1513   2.315   1.251   1.422  0.0182  0.5216  0.1110
  505SOL    HW1 1514   2.285   1.347   1.433  0.1256 -2.1211 -0.2812
  505SOL    HW2 1515   2.418   1.240   1.446 -0.6153 -1.4454  0.3927
  506SOL     OW 1516   1.908   0.234   1.765 -0.2898  0.2933 -0.0973
  506SOL    HW1 1517   1.989   0.209   1.703  1.1558  0.3995  1.2317
  506SOL    HW2 1518   1.932   0.324   1.814 -1.9023 -1.1012 -2.0231
  507SOL     OW 1519   0.471   0.738   2.174  0.0543  0.7917  0.2249
  507SOL    HW1 1520   0.400   0.730   2.098  0.0018 -0.9392  0.9425
  507SOL    HW2 1521   0.524   0.650   2.181 -1.2541  0.3087  1.8310
  508SOL     OW 1522   0.180   1.669   0.815  0.0313 -0.6692 -0.2833
  508SOL    HW1 1523   0.188   1.763   0.770  1.9813  0.3934  2.1494
  508SOL    HW2 1524   0.162   1.676   0.920  1.6505 -0.6025  0.7855
  509SOL     OW 1525   1.354   1.189   2.585  0.0863  0.1238  0.1747
  509SOL    HW1 1526   1.273   1.241   2.533 -2.2506 -1.5387 -0.9586
  509SOL    HW2 1527   1.338   1.087   2.586  0.3780  2.1906 -0.4563
  510SOL     OW 1528   1.325   1.994   2.031 -0.1878 -0.1215  0.4798
  510SOL    HW1 1529   1.282   2.087   2.030  0.0478  0.1608 -1.5903
  510SOL    HW2 1530   1.252   1.920   2.059  1.7480 -0.6421 -0.9246
  511SOL     OW 1531   3.070   2.631   1.284 -0.5556 -0.2757 -0.3545
  511SOL    HW1 1532   3.011   2.588   1.214  1.5788  0.8353  0.2600
  511SOL    HW2 1533   3.023   2.660   1.372 -2.2205  0.9189 -0.8106
  512SOL     OW 1534   2.414   0.407   1.384  0.2523 -0.5907  0.5862
  512SOL    HW1 1535   2.309   0.390   1.394  0.2429 -1.1147  0.8787
  512SOL    HW2 1536   2.455   0.334   1.327  0.8090  2.0754  0.1494
  513SOL     OW 1537   2.511   1.974   0.812 -0.2123 -0.1510 -0.3265
  513SOL    HW1 1538   2.452   2.060   0.809 -1.2797 -0.8656 -0.8037
  513SOL    HW2 1539   2.571   1.966   0.728  2.3847 -0.9505  1.1203
  514SOL     OW 1540   0.673   2.795   0.417 -0.0594 -0.1658  0.2312
  514SOL    HW1 1541   0.638   2.841   0.332  1.1588 -1.4221  0.4375
  514SOL    HW2 1542   0.691   2.862   0.491 -1.0495 -1.7816 -1.3181
  515SOL     OW 1543   1.957   1.234   2.379 -0.0673  0.2274  0.0727
  515SOL    HW1 1544   1.891   1.250   2.301 -2.3050 -1.9806  0.3086
  515SOL    HW2 1545   1.905   1.224   2.467 -4.7607 -1.2059  0.1776
  516SOL     OW 1546   0.273   0.347   1.968  0.0423  0.8140 -0.0082
  516SOL    HW1 1547   0.367   0.332   1.928  0.5734  0.5792 -0.1910
  516SOL    HW2 1548   0.196   0.287   1.921 -1.0842  0.9804 -0.1876
  517SOL     OW 1549   0.362   3.027   1.203  0.1870 -0.2511  0.5349
  517SOL    HW1 1550   0.387   3.117   1.240 -0.8294 -1.7748 -1.0264
  517SOL    HW2 1551   0.274   2.993   1.248 -0.5050 -1.1379  1.5698
  518SOL     OW 1552   2.121   0.173   1.637 -0.2056  0.3314 -0.5642
  518SOL    HW1 1553   2.183   0.209   1.716  1.8245  0.6792  0.0732
  518SOL    HW2 1554   2.169   0.096   1.589 -3.1093 -0.1897 -0.1190
  519SOL     OW 1555   2.351   2.171   2.530 -0.1945  0.2523  0.3815
  519SOL    HW1 1556   2.292   2.142   2.606  0.6019 -3.3907 -0.2313
  519SOL    HW2 1557   2.405   2.259   2.546  1.8586  0.3412 -0.8643
  520SOL     OW 1558   1.768   2.858   1.828  0.2096  0.0002  0.0775
  520SOL    HW1 1559   1.698   2.808   1.886 -1.2215  4.0058  2.3988
  520SOL    HW2 1560   1.859   2.812   1.816 -0.7532  0.6011 -0.6556
  521SOL     OW 1561   0.569   0.140   2.174 -0.1828 -0.3265  0.0126
  521SOL    HW1 1562   0.473   0.124   2.212  0.0535  0.8434 -0.0238
  521SOL    HW2 1563   0.641   0.078   2.216  0.0039  0.4722 -0.2079
  522SOL     OW 1564   0.238   1.915   1.555  0.1689  0.3450 -0.2195
  522SOL    HW1 1565   0.269   1.968   1.638 -1.4709  1.6645 -2.3471
  522SOL    HW2 1566   0.222   1.977   1.473  1.0068 -0.3217 -1.8877
  523SOL     OW 1567   2.223   3.027   1.596  0.2511  0.3330 -0.5207
  523SOL    HW1 1568   2.214   2.954   1.520  0.5868 -0.4817  2.0787
  523SOL    HW2 1569   2.169   2.998   1.677  1.9645 -1.6282  0.5410
  524SOL     OW 1570   0.226   2.769   2.809  0.0226  0.6193 -0.3175
  524SOL    HW1 1571   0.189   2.852   2.853  1.4747 -0.8089 -1.7822
  524SOL    HW2 1572   0.323   2.795   2.792 -1.9627  0.8821  1.2774
  525SOL     OW 1573   2.134   1.963   0.444 -0.0852  1.0179 -0.3289
  525SOL    HW1 1574   2.108   1.886   0.514 -0.7986 -0.8931  0.7256
  525SOL    HW2 1575   2.187   1.925   0.364 -0.4549  0.4557  0.6641
  526SOL     OW 1576   0.431   1.551   1.552  0.3573 -0.6926  0.5243
  526SOL    HW1 1577   0.391   1.501   1.632  1.7478  0.5882  1.0032
  526SOL    HW2 1578   0.491   1.484   1.503 -1.9283 -2.1771  1.1399
  527SOL     OW 1579   1.104   2.888   1.196  0.1173 -0.6320 -0.1729
  527SOL    HW1 1580   1.182   2.823   1.203 -1.9373  0.4437 -1.4310
  527SOL    HW2 1581   1.139   2.987   1.196  0.6537  1.0453  1.4311
  528SOL     OW 1582   1.337   2.392   0.444 -0.1121 -0.0378  0.2886
  528SOL    HW1 1583   1.362   2.291   0.436 -0.1141  0.0363 -0.2136
  528SOL    HW2 1584   1.400   2.439   0.507 -2.1849 -0.5574  0.5831
  529SOL     OW 1585   1.842   1.719   0.779  0.6291 -0.5055 -0.4012
  529SOL    HW1 1586   1.830   1.718   0.675 -0.6945  0.6237  1.3767
  529SOL    HW2 1587   1.801   1.801   0.823 -0.5090 -0.7180  0.9371
  530SOL     OW 1588   0.354   2.446   0.259  0.4470 -0.7284 -0.0628
  530SOL    HW1 1589   0.348   2.535   0.308  2.0954  0.4662 -1.7188
  530SOL    HW2 1590   0.437   2.396   0.278 -4.2481  1.5190  0.3359
  531SOL     OW 1591   1.853   0.835   0.986  0.3067  0.0491 -0.6516
  531SOL    HW1 1592   1.878   0.878   0.895  2.9516  0.2440 -2.3769
  531SOL    HW2 1593   1.749   0.853   1.011 -0.1093 -1.4361  2.3813
  532SOL     OW 1594   0.469   1.105   0.769 -0.7715  0.6845  0.2373
  532SOL    HW1 1595   0.498   1.091   0.668  0.9434  0.8473 -0.0969
  532SOL    HW2 1596   0.415   1.024   0.809  0.0356 -2.8457 -0.4748
  533SOL     OW 1597   1.742   0.009   2.558 -0.5306 -0.7377 -0.0821
  533SOL    HW1 1598   1.843   0.014   2.586  1.5444  0.0188  0.4805
  533SOL    HW2 1599   1.683   0.068   2.616 -2.3704 -1.0299 -1.6197
  534SOL     OW 1600   0.398   0.209   1.555 -0.0275  0.0236 -0.0980
  534SOL    HW1 1601   0.502   0.189   1.557  1.3625 -0.6963  1.1210
  534SOL    HW2 1602   0.373   0.308   1.527 -2.6792  1.0794 -0.4702
  535SOL     OW 1603   1.941   0.337   0.158 -0.0601 -0.3526  0.0537
  535SOL    HW1 1604   1.966   0.416   0.223 -1.3369 -0.9926  0.8417
  535SOL    HW2 1605   1.926   0.242   0.204 -0.3832  1.6335  0.5201
  536SOL     OW 1606   1.359   2.605   0.897  0.1894 -0.1181  0.0853
  536SOL    HW1 1607   1.333   2.580   0.990 -0.1110 -1.8883 -0.1789
  536SOL    HW2 1608   1.274   2.629   0.843  0.2142 -1.8732 -0.6542
  537SOL     OW 1609   0.846   0.245   2.360  0.1611  0.2541  0.1107
  537SOL    HW1 1610   0.882   0.292   2.277  1.1229  2.5179 -2.2468
  537SOL    HW2 1611   0.797   0.154   2.333 -0.1640 -2.4501  0.1718
  538SOL     OW 1612   1.665   2.386   1.398  0.0589  0.6167  0.3277
  538SOL    HW1 1613   1.681   2.283   1.398 -0.6411 -1.2679 -1.6786
  538SOL    HW2 1614   1.752   2.442   1.405  1.5154  0.6629  1.5574
  539SOL     OW 1615   0.191   1.621   2.669  0.7373  0.2239 -0.5209
  539SOL    HW1 1616   0.096   1.585   2.656  1.5951 -0.4469 -0.0768
  539SOL    HW2 1617   0.184   1.715   2.718 -0.5385  0.4943  0.2616
  540SOL     OW 1618   2.677   1.723   1.926  0.2774  0.5706  0.3037
  540SOL    HW1 1619   2.617   1.655   1.982  0.2730  0.4398  0.4155
  540SOL    HW2 1620   2.637   1.822   1.913  0.1282  0.1379  3.0384
  541SOL     OW 1621   0.535   2.133   0.035 -0.2105 -0.1463  0.0204
  541SOL    HW1 1622   0.535   2.096   0.136 -0.1796 -1.5514 -0.0927
  541SOL    HW2 1623   0.445   2.125  -0.018 -0.3050  0.1205 -1.1862
  542SOL     OW 1624   2.263   2.662   0.564  0.4632 -0.2321  0.1161
  542SOL    HW1 1625   2.220   2.744   0.614 -1.5998 -0.0754 -0.5613
  542SOL    HW2 1626   2.203   2.576   0.561  0.0234 -1.9040 -1.3584
  543SOL     OW 1627   1.084   1.784   1.604 -0.6380  0.0110 -0.6679
  543SOL    HW1 1628   1.072   1.798   1.705 -0.2404  0.0071  0.7279
  543SOL    HW2 1629   1.027   1.856   1.550  0.5208  1.2148  3.0465
  544SOL     OW 1630   1.177   0.514   0.158 -0.5548 -0.3403  0.0157
  544SOL    HW1 1631   1.144   0.425   0.200  0.1990  0.9948  0.3102
  544SOL    HW2 1632   1.163   0.521   0.058  1.4283  0.7022 -0.9757
  545SOL     OW 1633   1.113   1.844   0.795  0.2846 -0.3815  0.5753
  545SOL    HW1 1634   1.203   1.850   0.745  1.1259  0.7506 -0.3547
  545SOL    HW2 1635   1.078   1.746   0.804  0.4008  0.9298  0.6654
  546SOL     OW 1636   2.670   1.609   2.991 -0.1287 -0.2773 -0.0707
  546SOL    HW1 1637   2.621   1.698   2.986  1.7290 -0.2643 -1.5332
  546SOL    HW2 1638   2.600   1.530   2.995 -0.5672 -2.7887 -1.4668
  547SOL     OW 1639   0.672   3.043   2.559  0.5808 -0.1555  1.1366
  547SOL    HW1 1640   0.743   3.005   2.631 -1.2412  1.5692 -0.1399
  547SOL    HW2 1641   0.607   2.969   2.528 -1.1142  0.2747  0.3680
  548SOL     OW 1642   2.042   0.762   3.030 -0.0063 -0.0968 -0.3038
  548SOL    HW1 1643   1.950   0.724   3.061  0.0734 -0.0206  0.6555
  548SOL    HW2 1644   2.059   0.864   3.053  0.4249  1.8992 -1.1299
  549SOL     OW 1645   0.702   0.586   0.184  0.0082  0.1762 -0.1127
  549SOL    HW1 1646   0.657   0.616   0.094  0.7437 -1.8114 -1.3217
  549SOL    HW2 1647   0.792   0.628   0.202 -1.8262  0.0925  3.1460
  550SOL     OW 1648   2.579   2.764   2.877 -0.0056 -0.6410  0.2929
  550SOL    HW1 1649   2.530   2.690   2.930 -0.8262 -1.5845  1.3028
  550SOL    HW2 1650   2.647   2.730   2.805  3.0906 -0.5157  0.8902
  551SOL     OW 1651   0.265   0.873   0.233  0.3852 -0.1239 -0.8008
  551SOL    HW1 1652   0.366   0.882   0.226 -0.8191  4.6897  0.5660
  551SOL    HW2 1653   0.222   0.912   0.320 -1.3532 -0.7773 -1.7671
  552SOL     OW 1654   0.637   3.040   1.959  0.4895  0.0397 -0.1040
  552SOL    HW1 1655   0.624   3.112   2.034 -0.1189  0.1813 -1.4396
  552SOL    HW2 1656   0.728   3.044   1.911  1.1087  0.6712 -1.0990
  553SOL     OW 1657   2.998   2.404   0.370  0.3102  0.0831 -0.4347
  553SOL    HW1 1658   2.994   2.310   0.413 -2.4451  3.7998  1.2759
  553SOL    HW2 1659   2.905   2.441   0.349 -1.6074  0.8288 -0.6635
  554SOL     OW 1660   2.192   0.365   0.539 -0.3375  0.0142  0.2106
  554SOL    HW1 1661   2.267   0.356   0.463  0.4788  0.1245 -0.5909
  554SOL    HW2 1662   2.202   0.287   0.609 -0.3666  0.1487  1.7334
  555SOL     OW 1663   0.473   2.854   2.479 -0.0260 -0.2374 -0.0442
  555SOL    HW1 1664   0.378   2.897   2.451  1.9855  1.1640  2.2503
  555SOL    HW2 1665   0.493   2.777   2.416 -1.9615 -0.2561  2.0268
  556SOL     OW 1666   0.818   2.430   1.614  0.0192  0.0491  0.1855
  556SOL    HW1 1667   0.850   2.504   1.680 -2.0873 -3.8712 -0.1597
  556SOL    HW2 1668   0.889   2.414   1.541  0.2550  1.6087 -0.7302
  557SOL     OW 1669   0.265   2.095   0.260 -0.6080 -0.2668 -0.5416
  557SOL    HW1 1670   0.174   2.054   0.229  0.2660 -0.1226  1.1574
  557SOL    HW2 1671   0.341   2.040   0.208  1.7624 -2.6756  2.2578
  558SOL     OW 1672   2.840   2.146   0.396 -0.0151  0.7888 -0.4712
  558SOL    HW1 1673   2.764   2.215   0.413 -0.3370  2.0595  2.7362
  558SOL    HW2 1674   2.827   2.056   0.344  1.5542 -0.0257  3.3313
  559SOL     OW 1675   0.395   2.312   1.455  0.4584 -0.4589 -0.0463
  559SOL    HW1 1676   0.315   2.348   1.401  0.1171  2.9400 -0.9747
  559SOL    HW2 1677   0.449   2.247   1.398 -3.3332  1.2951 -0.0896
  560SOL     OW 1678   2.145   1.007   0.012  0.0779 -0.1119  0.4405
  560SOL    HW1 1679   2.205   1.014   0.099  2.1474 -1.5218  3.3022
  560SOL    HW2 1680   2.199   1.011  -0.081  0.8754  0.5144 -1.8544
  561SOL     OW 1681   0.013   1.966   0.199 -0.6173  0.6979 -0.2636
  561SOL    HW1 1682  -0.051   1.904   0.249  2.3387 -0.0379  1.4918
  561SOL    HW2 1683  -0.018   1.993   0.105  1.4244  0.5497 -0.8779
  562SOL     OW 1684   1.057   2.087   2.242 -0.6331 -0.0631 -0.2248
  562SOL    HW1 1685   1.013   2.168   2.291  2.2238 -0.6600 -2.1053
  562SOL    HW2 1686   1.003   2.000   2.259 -1.0915 -1.9424  0.9524
  563SOL     OW 1687   0.667   2.546   2.667  0.2468 -0.0272 -0.1431
  563SOL    HW1 1688   0.733   2.481   2.624 -0.3716 -1.0720 -0.2764
  563SOL    HW2 1689   0.690   2.578   2.765 -1.1563  0.8818 -0.9506
  564SOL     OW 1690   2.852   1.418   2.865  0.3090  0.4924 -0.5805
  564SOL    HW1 1691   2.784   1.482   2.911 -1.4891 -0.4378  1.5219
  564SOL    HW2 1692   2.932   1.469   2.828 -3.1914 -0.2926 -0.1832
  565SOL     OW 1693   2.510   1.967   2.638 -0.7136 -0.1594  0.1318
  565SOL    HW1 1694   2.475   2.058   2.599  0.3187 -1.5356  1.2500
  565SOL    HW2 1695   2.590   1.982   2.706 -1.3087  0.8528 -1.0250
  566SOL     OW 1696   1.928   2.903   1.439 -0.6724 -0.1421 -0.1029
  566SOL    HW1 1697   1.926   2.816   1.498 -0.2359 -1.1262  0.7546
  566SOL    HW2 1698   1.977   2.888   1.349  0.6702  4.2542  0.2813
  567SOL     OW 1699   2.349   0.033   2.313 -0.2551  0.1576 -0.3482
  567SOL    HW1 1700   2.254   0.028   2.353 -1.4537  1.7996 -3.0629
  567SOL    HW2 1701   2.346   0.020   2.214  0.0908 -1.4737  0.4957
  568SOL     OW 1702   1.508   1.736   0.231 -0.0095  0.5694 -0.2019
  568SOL    HW1 1703   1.441   1.813   0.222  1.9903 -0.8566  1.1803
  568SOL    HW2 1704   1.606   1.770   0.230 -1.1856 -1.3260 -2.7789
  569SOL     OW 1705   0.252   0.582   0.894  0.1743 -0.2341 -0.2973
  569SOL    HW1 1706   0.270   0.535   0.800 -0.7751  0.4645 -1.8898
  569SOL    HW2 1707   0.150   0.595   0.905  2.0456  0.3300  1.9977
  570SOL     OW 1708   0.651   0.859   2.897  0.6895  0.0461 -0.3337
  570SOL    HW1 1709   0.680   0.883   2.801 -1.6230 -0.0421  0.1260
  570SOL    HW2 1710   0.660   0.935   2.964  0.4549  0.7023  1.1108
  571SOL     OW 1711   0.782   3.071   1.070  0.8781  0.0850  0.0491
  571SOL    HW1 1712   0.840   3.122   0.997 -1.2471  1.2974  0.9742
  571SOL    HW2 1713   0.813   2.971   1.084 -0.0044  1.0727 -0.6551
  572SOL     OW 1714   1.648   2.728   1.423  0.1319  0.5965  0.2985
  572SOL    HW1 1715   1.566   2.680   1.380 -0.4206  0.4156 -2.8793
  572SOL    HW2 1716   1.664   2.820   1.382 -0.5689 -2.6508  0.9957
  573SOL     OW 1717   3.034   0.488   1.930 -0.5851 -0.2740  0.4844
  573SOL    HW1 1718   2.971   0.405   1.933 -1.6329 -2.2137 -1.6233
  573SOL    HW2 1719   3.086   0.496   1.835  0.5830  2.4966  1.1219
  574SOL     OW 1720   0.120   1.660   1.105 -0.3535  0.1650  0.1478
  574SOL    HW1 1721   0.208   1.659   1.158  0.1392  0.2380 -2.5639
  574SOL    HW2 1722   0.092   1.756   1.075 -1.7826 -0.4029  0.8906
  575SOL     OW 1723   0.872   2.250   0.996 -0.5947  0.3108  0.3301
  575SOL    HW1 1724   0.833   2.314   1.065  0.5511 -0.7880 -2.3046
  575SOL    HW2 1725   0.886   2.297   0.902 -1.8016  0.8522 -0.5690
  576SOL     OW 1726   2.933   2.994   1.703 -0.2567 -0.2266 -0.3278
  576SOL    HW1 1727   2.832   2.987   1.693  0.2758 -0.0958  0.3239
  576SOL    HW2 1728   2.971   3.092   1.670 -0.3716  0.9754  1.5526
  577SOL     OW 1729   2.666   1.226   3.047  0.1941 -0.7624 -0.3587
  577SOL    HW1 1730   2.650   1.130   3.007 -0.5333  0.1640  0.4146
  577SOL    HW2 1731   2.735   1.217   3.120 -1.3110  2.6819  2.0637
  578SOL     OW 1732   1.399   2.705   2.542  0.0740 -0.6526  0.2899
  578SOL    HW1 1733   1.304   2.740   2.512 -1.0647 -1.3705 -0.5165
  578SOL    HW2 1734   1.471   2.761   2.495 -0.1115  0.5834  1.5170
  579SOL     OW 1735   0.100   2.398   0.163  0.0623  0.0833  0.3511
  579SOL    HW1 1736   0.028   2.374   0.237 -1.1315  0.7488  1.6802
  579SOL    HW2 1737   0.198   2.413   0.201 -0.4698 -3.1241 -1.8303
  580SOL     OW 1738   0.939   2.669   0.410  0.2646 -0.2301 -0.0073
  580SOL    HW1 1739   0.995   2.688   0.326 -1.0162 -0.8306 -0.6052
  580SOL    HW2 1740   0.840   2.693   0.402  0.6047  3.4230  0.2615
  581SOL     OW 1741   1.276   2.745   1.476  0.1433  0.7187  0.1492
  581SOL    HW1 1742   1.333   2.660   1.471 -2.3406 -1.1684 -0.4178
  581SOL    HW2 1743   1.316   2.824   1.425 -1.1388 -2.0973  1.9204
  582SOL     OW 1744   1.509   0.053   1.872 -0.0101  0.1820 -0.7485
  582SOL    HW1 1745   1.505   0.108   1.962  1.1062 -0.0575 -0.4161
  582SOL    HW2 1746   1.563   0.104   1.803 -3.5207 -1.3399  0.1578
  583SOL     OW 1747   2.431   2.991   0.492 -0.1404 -0.5975 -0.0536
  583SOL    HW1 1748   2.505   2.929   0.451  1.0029  1.1263 -0.5317
  583SOL    HW2 1749   2.360   2.934   0.549 -1.8495 -1.9285  0.5151
  584SOL     OW 1750   1.553   1.083   2.247 -0.4208 -0.2897  0.0375
  584SOL    HW1 1751   1.609   1.160   2.202  1.9900 -1.2736  0.8958
  584SOL    HW2 1752   1.614   1.020   2.310  0.3739  1.7564 -1.6239
  585SOL     OW 1753   2.033   2.663   2.886  0.2941 -0.3785 -0.1451
  585SOL    HW1 1754   2.037   2.559   2.864 -1.8835  2.0987  1.3921
  585SOL    HW2 1755   1.932   2.689   2.899  0.2458 -0.2174  1.7124
  586SOL     OW 1756   2.922   0.395   1.595 -0.6185 -0.1635 -0.2441
  586SOL    HW1 1757   2.906   0.478   1.645 -1.6392 -1.0456 -0.3941
  586SOL    HW2 1758   2.834   0.345   1.569  1.0961 -0.3083 -1.6011
  587SOL     OW 1759   2.177   1.472   2.770 -0.0540  0.2715  0.2748
  587SOL    HW1 1760   2.193   1.408   2.686 -0.4852  1.5599 -0.0511
  587SOL    HW2 1761   2.262   1.529   2.788 -1.7464 -0.1190 -0.5880
  588SOL     OW 1762   0.487   2.630   2.279 -0.3653  0.4313 -0.4422
  588SOL    HW1 1763   0.472   2.679   2.192  2.3163  0.8780 -1.5593
  588SOL    HW2 1764   0.422   2.542   2.284 -0.7808 -1.4392 -1.0031
  589SOL     OW 1765   2.175   1.367   2.517 -0.0641  0.4394  0.0872
  589SOL    HW1 1766   2.102   1.340   2.443  1.3732 -2.1358  2.3838
  589SOL    HW2 1767   2.269   1.333   2.497 -0.8312  1.5912  0.3406
  590SOL     OW 1768   2.299   1.701   2.074  0.3355  0.0084 -0.2884
  590SOL    HW1 1769   2.369   1.626   2.061 -0.1121  0.8935  1.1732
  590SOL    HW2 1770   2.300   1.723   2.178 -1.5722 -0.5431  0.1282
  591SOL     OW 1771   1.342   2.450   0.177  0.1918 -0.4323 -0.0378
  591SOL    HW1 1772   1.391   2.372   0.128 -0.0853  2.3118  0.2660
  591SOL    HW2 1773   1.350   2.444   0.280  0.7751  1.1432  3.4026
  592SOL     OW 1774   1.790   2.351   0.809  0.3419  0.1694  0.0901
  592SOL    HW1 1775   1.776   2.380   0.707 -0.6953  0.4201 -0.3743
  592SOL    HW2 1776   1.887   2.364   0.847  0.7461  0.5286 -2.3185
  593SOL     OW 1777   0.743   0.290   0.196 -0.1900  0.1842 -0.3900
  593SOL    HW1 1778   0.801   0.263   0.115  1.4668 -0.7782 -0.1620
  593SOL    HW2 1779   0.705   0.386   0.186  2.9395 -0.2848 -1.1797
  594SOL     OW 1780   1.088   1.785   2.659 -0.6884 -0.1527 -0.0196
  594SOL    HW1 1781   1.186   1.791   2.618  3.4595 -0.3207 -0.6270
  594SOL    HW2 1782   1.082   1.832   2.754 -0.1384  2.2039  0.6569
  595SOL     OW 1783   1.530   0.152   0.995 -0.2673 -0.1342  0.0474
  595SOL    HW1 1784   1.603   0.079   0.964  0.6355 -1.6282 -0.6351
  595SOL    HW2 1785   1.429   0.124   0.982 -0.4846  0.3054 -1.7957
  596SOL     OW 1786   0.172   1.410   2.192 -0.0804  0.4129 -0.5035
  596SOL    HW1 1787   0.082   1.369   2.208  2.3957  2.8121 -0.5493
  596SOL    HW2 1788   0.202   1.467   2.275 -0.9429  1.5994 -0.6127
  597SOL     OW 1789   1.990   2.694   1.820 -0.5606 -0.0369 -0.1445
  597SOL    HW1 1790   1.937   2.658   1.735  0.6672  0.2563 -0.7880
  597SOL    HW2 1791   2.091   2.667   1.817  3.1060 -0.6223 -0.2452
  598SOL     OW 1792   2.482   2.818   1.292  0.0463 -0.3873 -0.2977
  598SOL    HW1 1793   2.577   2.863   1.290 -0.7008 -2.3086  1.3467
  598SOL    HW2 1794   2.464   2.757   1.209  1.3550 -0.2875  0.1765
  599SOL     OW 1795   2.906   0.268   2.513  0.1883 -0.2744 -0.2693
  599SOL    HW1 1796   2.994   0.261   2.459 -0.0234  2.2161  0.5748
  599SOL    HW2 1797   2.833   0.328   2.477  2.3888 -0.3422  0.8570
  600SOL     OW 1798   2.772   1.159   2.761  0.0769  0.3861 -0.0235
  600SOL    HW1 1799   2.738   1.084   2.825  0.1042 -0.8646 -0.4816
  600SOL    HW2 1800   2.775   1.252   2.804 -0.0586 -0.4284 -2.4905
  601SOL     OW 1801   2.978   1.365   1.938  0.5071  0.2319 -0.2572
  601SOL    HW1 1802   2.916   1.396   1.863  2.5864  2.4570 -3.9207
  601SOL    HW2 1803   3.063   1.426   1.944  0.5814 -1.9912 -1.4798
  602SOL     OW 1804   1.544   1.551   2.326 -0.6039  0.0241  0.5559
  602SOL    HW1 1805   1.461   1.538   2.390  0.2834 -0.0195 -0.2971
  602SOL    HW2 1806   1.617   1.602   2.375 -3.1421  1.7226  0.1975
  603SOL     OW 1807   0.597   1.171   2.700  0.0419 -0.6787  0.1391
  603SOL    HW1 1808   0.539   1.225   2.633 -0.7261  0.1437  1.8597
  603SOL    HW2 1809   0.599   1.071   2.676 -2.8582  0.7703  2.6630
  604SOL     OW 1810   2.534   1.063   0.230  0.1065 -0.2208 -0.2928
  604SOL    HW1 1811   2.631   1.099   0.232 -2.0383  0.7949 -1.5921
  604SOL    HW2 1812   2.511   0.989   0.160 -1.8480 -0.8028  1.2270
  605SOL     OW 1813   2.595   1.197   1.904  0.3723 -0.1804 -0.1590
  605SOL    HW1 1814   2.616   1.104   1.861 -0.0863  0.6140 -0.4898
  605SOL    HW2 1815   2.660   1.220   1.986 -1.5591 -0.1839  1.3831
  606SOL     OW 1816   1.536   2.476   2.578 -0.4220  0.1922 -0.3830
  606SOL    HW1 1817   1.500   2.572   2.583  1.2916 -1.7712 -1.9490
  606SOL    HW2 1818   1.467   2.401   2.551 -1.5827 -0.5759 -2.3058
  607SOL     OW 1819   1.280   1.565   0.277  0.5734 -0.1681  0.4415
  607SOL    HW1 1820   1.220   1.641   0.317 -0.2667  0.4096 -0.6136
  607SOL    HW2 1821   1.380   1.597   0.286 -0.4865 -0.8695  0.4395
  608SOL     OW 1822   1.397   2.783   0.328  0.7524 -0.1488 -0.1215
  608SOL    HW1 1823   1.478   2.809   0.263  0.5550  1.7676 -0.2558
  608SOL    HW2 1824   1.360   2.866   0.380  2.3242 -0.9182  0.2309
  609SOL     OW 1825   1.298   1.325   0.190 -0.3575  0.0071  0.2753
  609SOL    HW1 1826   1.297   1.419   0.232  2.0002 -1.8674 -0.7021
  609SOL    HW2 1827   1.239   1.317   0.105  1.0646 -0.9767 -4.3716
  610SOL     OW 1828   3.046   1.236   2.178  0.6454  0.6915 -0.4568
  610SOL    HW1 1829   2.992   1.168   2.235  0.1054 -1.8595 -0.1009
  610SOL    HW2 1830   3.003   1.273   2.095  0.5579 -2.4089 -2.1676
  611SOL     OW 1831   2.558   0.184   1.156 -0.2459 -0.2362  0.7775
  611SOL    HW1 1832   2.493   0.110   1.198  0.1850  0.5770  1.0085
  611SOL    HW2 1833   2.654   0.188   1.199 -0.0565 -0.5293 -0.7909
  612SOL     OW 1834   0.767   2.360   1.251 -0.0512 -0.0291 -0.5279
  612SOL    HW1 1835   0.686   2.299   1.274 -0.9951  0.0239  3.0740
  612SOL    HW2 1836   0.732   2.456   1.255 -0.9965  0.6028  0.3306
  613SOL     OW 1837   0.776   1.372   2.399 -0.1114  0.0614 -0.1428
  613SOL    HW1 1838   0.806   1.456   2.347  0.2348 -0.2990  1.3955
  613SOL    HW2 1839   0.763   1.286   2.344  0.9354  0.3880  0.4092
  614SOL     OW 1840   1.496   1.653   1.936 -0.4635 -0.4198  0.7221
  614SOL    HW1 1841   1.453   1.725   1.877  1.3919 -0.0252  1.8267
  614SOL    HW2 1842   1.580   1.694   1.969 -1.2284 -1.1695 -0.0928
  615SOL     OW 1843   0.703   1.472   1.704 -0.5616 -0.2907 -0.2513
  615SOL    HW1 1844   0.655   1.411   1.641  1.9952  1.9023 -0.5328
  615SOL    HW2 1845   0.787   1.515   1.658 -0.1703  0.9931  1.8315
  616SOL     OW 1846   1.143   1.597   2.204  0.0574  0.5891  0.1449
  616SOL    HW1 1847   1.039   1.585   2.212 -0.2557 -1.8379 -0.0019
  616SOL    HW2 1848   1.175   1.630   2.109 -2.2015 -0.1835 -0.1422
  617SOL     OW 1849   2.959   1.584   1.636 -0.9956 -0.2210 -0.3951
  617SOL    HW1 1850   2.890   1.533   1.699  0.0906 -2.4232 -0.1231
  617SOL    HW2 1851   2.978   1.532   1.548 -1.7571 -0.2846 -0.7009
  618SOL     OW 1852   1.922   2.001   1.456 -0.1867  0.1291  0.0043
  618SOL    HW1 1853   2.011   1.994   1.404 -0.6767 -0.5779  0.7184
  618SOL    HW2 1854   1.902   1.911   1.510  0.2851  0.1168  0.9780
  619SOL     OW 1855   1.783   0.539   2.369  0.1889 -0.4403  0.4372
  619SOL    HW1 1856   1.712   0.581   2.308  1.1438  0.1320  2.2970
  619SOL    HW2 1857   1.773   0.435   2.362 -1.0769  0.7507 -1.7805
  620SOL     OW 1858   2.224   2.905   0.675  0.1017  0.3132  0.2185
  620SOL    HW1 1859   2.132   2.950   0.673  3.0503  0.3096  1.1927
  620SOL    HW2 1860   2.264   2.887   0.771  1.6569  1.0125 -0.4929
  621SOL     OW 1861   2.140   1.883   1.358 -0.3780 -0.1032 -0.1047
  621SOL    HW1 1862   2.137   1.854   1.461 -1.7506 -2.5536  3.2763
  621SOL    HW2 1863   2.133   1.803   1.289  0.3231 -3.0383  0.6712
  622SOL     OW 1864   2.239   0.980   1.847  0.0026 -0.4302 -0.0382
  622SOL    HW1 1865   2.290   0.892   1.862  1.0598  0.8819  1.3809
  622SOL    HW2 1866   2.149   0.990   1.892  3.6035 -2.4697 -1.6005
  623SOL     OW 1867   1.264   0.926   2.574 -0.5214 -0.3078  0.1366
  623SOL    HW1 1868   1.248   0.834   2.622  1.8459  2.0449  2.7938
  623SOL    HW2 1869   1.200   0.935   2.491 -2.4751  2.3760  0.7453
  624SOL     OW 1870   0.538   0.690   3.084 -0.4690  0.3180 -0.7504
  624SOL    HW1 1871   0.596   0.740   3.018 -0.7389 -2.5366  1.7402
  624SOL    HW2 1872   0.473   0.741   3.140  3.9778 -2.9572 -1.3645
  625SOL     OW 1873   2.787   1.746   0.811  0.2766  0.5160  0.3052
  625SOL    HW1 1874   2.730   1.746   0.897 -1.3358  0.3523 -0.8052
  625SOL    HW2 1875   2.737   1.703   0.729 -1.4777 -1.7763  1.6962
  626SOL     OW 1876   0.386   2.799   2.073 -0.0502  0.1745  0.5306
  626SOL    HW1 1877   0.452   2.876   2.063  0.5777 -0.6567  0.3582
  626SOL    HW2 1878   0.318   2.797   1.998  1.1340  1.1917 -0.9431
  627SOL     OW 1879   0.715   1.024   1.503  0.5780 -0.3535  0.3434
  627SOL    HW1 1880   0.745   0.924   1.506  1.5739  2.2113 -0.2717
  627SOL    HW2 1881   0.770   1.073   1.436 -0.4047 -0.7099  0.5160
  628SOL     OW 1882   2.453   0.129   0.673  0.1388 -0.5017 -0.4536
  628SOL    HW1 1883   2.487   0.046   0.628  1.4795  1.5898 -0.4844
  628SOL    HW2 1884   2.351   0.132   0.690  0.1251  2.3669 -1.2686
  629SOL     OW 1885   1.981   0.975   1.953  0.4317  0.1333  0.0813
  629SOL    HW1 1886   2.002   0.972   2.057 -0.5640  2.6547  0.0018
  629SOL    HW2 1887   1.934   1.067   1.929 -0.6907  1.9710 -0.4030
  630SOL     OW 1888   2.840   2.205   0.772 -0.2196  0.2937  0.0223
  630SOL    HW1 1889   2.766   2.268   0.807  0.3570 -0.4284  0.4581
  630SOL    HW2 1890   2.797   2.126   0.712  0.8207  1.0873  1.4452
  631SOL     OW 1891   3.000   0.166   2.128 -0.2694 -0.1671 -0.4250
  631SOL    HW1 1892   3.031   0.242   2.192  3.7678  1.8106  1.0068
  631SOL    HW2 1893   3.063   0.159   2.042 -0.3539 -0.6544 -2.4992
  632SOL     OW 1894   2.381   2.527   0.772  0.0799  0.1725  0.7433
  632SOL    HW1 1895   2.465   2.592   0.787 -0.8868  2.3513 -2.2875
  632SOL    HW2 1896   2.324   2.574   0.700  2.1832 -0.5878 -4.5650
  633SOL     OW 1897   1.590   1.263   2.699  0.1917 -0.2088  0.0108
  633SOL    HW1 1898   1.552   1.331   2.768 -2.3747 -2.2958  1.5427
  633SOL    HW2 1899   1.516   1.221   2.638  0.5759 -1.6082  0.3454
  634SOL     OW 1900   0.650   2.074   0.898  0.3574 -0.0891 -0.1270
  634SOL    HW1 1901   0.550   2.086   0.930  0.7375  1.0217 -1.4851
  634SOL    HW2 1902   0.712   2.147   0.933  0.2804  1.7964  4.6647
  635SOL     OW 1903   0.058   2.246   3.051 -0.6929 -0.0927 -0.0179
  635SOL    HW1 1904   0.048   2.289   2.956  2.5497 -0.1211  0.0985
  635SOL    HW2 1905   0.074   2.320   3.131 -1.3973 -0.6047  2.0929
  636SOL     OW 1906   2.335   2.860   2.017 -0.2487 -0.1345 -0.0973
  636SOL    HW1 1907   2.291   2.954   2.013  0.2933  0.5235  2.5767
  636SOL    HW2 1908   2.277   2.790   2.080  0.1661 -4.1350 -0.8077
  637SOL     OW 1909   2.580   0.721   2.076  0.0184  0.3049  0.3649
  637SOL    HW1 1910   2.575   0.696   1.978 -2.8038  0.9631  0.4557
  637SOL    HW2 1911   2.634   0.804   2.093 -0.6043 -2.3821  1.4658
  638SOL     OW 1912   2.403   1.897   1.429 -0.2944  0.1919 -0.2997
  638SOL    HW1 1913   2.298   1.877   1.420  0.5817  3.2682 -0.3300
  638SOL    HW2 1914   2.468   1.813   1.436  1.7793 -0.4758 -1.0422
  639SOL     OW 1915   1.289   2.235   1.570 -0.0682 -0.1534  0.3725
  639SOL    HW1 1916   1.281   2.161   1.499  0.7313  2.0141  0.0047
  639SOL    HW2 1917   1.206   2.244   1.634 -0.4074  0.6547  1.5793
  640SOL     OW 1918   0.261   1.203   1.549  0.4968  0.0221  0.7235
  640SOL    HW1 1919   0.278   1.248   1.642  1.5244 -1.2113 -0.2636
  640SOL    HW2 1920   0.336   1.132   1.520  0.5590 -3.1310  2.3531
  641SOL     OW 1921   1.876   0.263   1.431 -0.2148  0.2731 -0.0692
  641SOL    HW1 1922   1.823   0.341   1.478  2.7873  0.9029  1.8164
  641SOL    HW2 1923   1.909   0.195   1.498 -0.9176 -4.0633  0.4997
  642SOL     OW 1924   1.997   0.111   0.321  0.0247  0.2474 -0.4308
  642SOL    HW1 1925   2.099   0.122   0.326 -0.6941 -0.9467  1.0559
  642SOL    HW2 1926   1.952   0.068   0.407 -3.0932 -0.9456  0.6122
  643SOL     OW 1927   2.798   1.883   2.120 -0.4459 -0.2457 -0.4891
  643SOL    HW1 1928   2.750   1.809   2.065  0.4979 -0.5296  0.4665
  643SOL    HW2 1929   2.816   1.964   2.056  0.1943 -2.6325 -0.7409
  644SOL     OW 1930   2.198   2.278   1.236  0.1118  0.3253  0.4478
  644SOL    HW1 1931   2.289   2.237   1.212 -0.0186  2.1279  1.0779
  644SOL    HW2 1932   2.193   2.299   1.336 -1.2864 -0.1258 -3.4348
  645SOL     OW 1933   0.675   0.828   1.091 -0.0644 -0.1545 -0.0504
  645SOL    HW1 1934   0.635   0.760   1.022 -1.9824  2.7577 -2.1353
  645SOL    HW2 1935   0.663   0.927   1.058  0.2730 -1.0234 -2.5825
  646SOL     OW 1936   1.452   1.892   1.801  0.2734  0.2385  0.1535
  646SOL    HW1 1937   1.540   1.942   1.782 -1.1343 -0.5017  0.9186
  646SOL    HW2 1938   1.416   1.934   1.887  0.8785  0.1415  0.0207
  647SOL     OW 1939   0.897   0.927   0.689 -0.3347 -0.4678 -0.0393
  647SOL    HW1 1940   0.968   0.926   0.766 -0.0218  0.6215 -0.3633
  647SOL    HW2 1941   0.805   0.909   0.732  2.1095 -0.2061 -0.1973
  648SOL     OW 1942   0.077   0.244   0.331 -0.8199 -0.5530  0.0764
  648SOL    HW1 1943   0.039   0.159   0.286  0.1031  0.4084 -0.8673
  648SOL    HW2 1944   0.078   0.321   0.269 -0.6282  2.2245  1.8087
  649SOL     OW 1945   0.003   0.018   0.947 -0.0836  0.3674 -0.0893
  649SOL    HW1 1946   0.092   0.007   0.888 -0.1213  0.4084 -0.8454
  649SOL    HW2 1947   0.017   0.045   1.046 -0.7028 -1.1744  0.3105
  650SOL     OW 1948   2.740   0.715   1.453  0.7455 -0.2964  0.1723
  650SOL    HW1 1949   2.645   0.687   1.491 -0.4614  2.9652  1.4093
  650SOL    HW2 1950   2.733   0.799   1.389 -2.5321  0.3660  1.1019
  651SOL     OW 1951   0.893   1.616   1.505 -0.7084  0.4998 -0.4257
  651SOL    HW1 1952   0.969   1.668   1.553  1.1963 -0.8505 -0.5316
  651SOL    HW2 1953   0.820   1.672   1.466  3.5038 -1.5864 -1.0431
  652SOL     OW 1954   2.313   2.505   2.372 -0.2015  0.2398 -0.8174
  652SOL    HW1 1955   2.229   2.487   2.427  0.6577  2.2805 -1.4201
  652SOL    HW2 1956   2.308   2.607   2.335 -1.8331  0.3537  0.9397
  653SOL     OW 1957   2.797   1.157   0.242 -0.0726 -0.7153 -0.6855
  653SOL    HW1 1958   2.823   1.258   0.260 -2.1171  2.2715  2.3926
  653SOL    HW2 1959   2.862   1.085   0.282  0.5193  1.8925 -1.9658
  654SOL     OW 1960   1.183   2.227   1.231 -0.1357  0.3800  0.1898
  654SOL    HW1 1961   1.218   2.144   1.285 -0.6840 -0.8940  0.7734
  654SOL    HW2 1962   1.235   2.226   1.142  2.2591 -0.7097  1.0669
  655SOL     OW 1963   0.225   1.065   1.912 -0.0551 -0.0823  0.4863
  655SOL    HW1 1964   0.272   0.988   1.858  3.9964 -2.8829 -2.1219
  655SOL    HW2 1965   0.282   1.155   1.908  0.8657 -0.1642  0.8523
  656SOL     OW 1966   2.464   2.408   2.566  0.6247 -0.2084  0.2855
  656SOL    HW1 1967   2.561   2.435   2.566 -1.6356 -5.0898  0.5979
  656SOL    HW2 1968   2.411   2.446   2.486  1.3662 -0.6272  1.6696
  657SOL     OW 1969   3.065   1.104   1.883 -0.5435  0.2232  0.0208
  657SOL    HW1 1970   3.033   1.202   1.905  1.6878  0.6415 -1.4650
  657SOL    HW2 1971   3.168   1.099   1.877 -0.2574 -1.3551  0.7748
  658SOL     OW 1972   1.692   0.241   2.371  0.1835  0.5972 -0.1652
  658SOL    HW1 1973   1.717   0.158   2.432  1.0864 -1.5334  0.8741
  658SOL    HW2 1974   1.761   0.238   2.294 -3.0293 -1.2132  2.2673
  659SOL     OW 1975   1.410   0.625   2.830  0.1366 -0.1538 -0.2550
  659SOL    HW1 1976   1.484   0.679   2.874 -0.7218  0.7045  0.3580
  659SOL    HW2 1977   1.353   0.688   2.770 -0.1854 -0.4904 -0.2829
  660SOL     OW 1978   1.381   0.433   1.397 -0.3532 -0.1439  1.1244
  660SOL    HW1 1979   1.419   0.461   1.492  1.8025  0.4468 -1.6760
  660SOL    HW2 1980   1.439   0.358   1.352  0.4979 -0.1610 -1.2494
  661SOL     OW 1981   2.461   1.126   0.673 -0.5041 -0.1868  0.2028
  661SOL    HW1 1982   2.486   1.048   0.611 -0.7321 -0.8840  2.1271
  661SOL    HW2 1983   2.397   1.193   0.628  3.0551 -0.0311 -0.9839
  662SOL     OW 1984   1.268   0.450   1.838 -0.3041  0.1629  0.4868
  662SOL    HW1 1985   1.208   0.364   1.851 -0.0301 -2.1507 -0.5068
  662SOL    HW2 1986   1.237   0.527   1.906  1.7088  2.8488 -0.0766
  663SOL     OW 1987   0.851   1.579   2.212  0.4579  0.1672  0.1484
  663SOL    HW1 1988   0.806   1.673   2.229  1.1619 -0.2710  2.5259
  663SOL    HW2 1989   0.802   1.520   2.134  0.9734 -2.4272 -0.0747
  664SOL     OW 1990   1.651   2.068   1.384  0.2071 -0.2803 -0.0280
  664SOL    HW1 1991   1.575   2.018   1.436 -1.5073  0.7238 -2.2007
  664SOL    HW2 1992   1.744   2.029   1.400 -1.0737 -2.1404  0.8190
  665SOL     OW 1993   2.311   0.619   1.994 -0.5459  0.0326 -0.0490
  665SOL    HW1 1994   2.314   0.529   2.038  0.8047  2.7452 -1.9844
  665SOL    HW2 1995   2.237   0.675   2.035  1.8455  0.1088 -1.2918
  666SOL     OW 1996   0.461   2.268   0.463  0.2928  0.3283  0.0376
  666SOL    HW1 1997   0.481   2.363   0.499 -1.0797 -0.4527 -0.7017
  666SOL    HW2 1998   0.417   2.206   0.531  1.5368 -1.0797 -0.1663
  667SOL     OW 1999   2.088   0.191   1.020  0.0382 -0.1028  0.4024
  667SOL    HW1 2000   2.154   0.263   0.994 -1.4972 -0.6086 -0.5540
  667SOL    HW2 2001   2.009   0.233   1.080 -0.5593 -0.2385  0.0140
  668SOL     OW 2002   2.029   0.648   1.273  0.2848  0.2109  0.1649
  668SOL    HW1 2003   2.075   0.589   1.202  0.9243  2.0635 -0.0880
  668SOL    HW2 2004   2.063   0.624   1.371  1.1519 -0.8722  0.5111
  669SOL     OW 2005   3.009   2.129   0.960  0.0396  0.9184  0.2279
  669SOL    HW1 2006   2.957   2.154   0.875 -0.8222  0.7132  3.5272
  669SOL    HW2 2007   2.958   2.161   1.037  0.0894 -0.1010 -1.3151
  670SOL     OW 2008   2.798   2.335   2.002 -0.0455  0.4430 -0.0528
  670SOL    HW1 2009   2.754   2.330   2.095  0.1985  1.4215 -0.3598
  670SOL    HW2 2010   2.777   2.427   1.954  2.0995 -0.4653 -0.2853
  671SOL     OW 2011   1.665   1.717   1.478  1.0483  0.1662  0.0383
  671SOL    HW1 2012   1.682   1.722   1.376 -0.7714  0.1994 -2.0982
  671SOL    HW2 2013   1.586   1.785   1.508 -1.6119  1.8268  1.3604
  672SOL     OW 2014   0.386   0.668   2.450  0.0829  0.6238  0.2899
  672SOL    HW1 2015   0.416   0.651   2.353  1.8184 -1.2006 -0.7934
  672SOL    HW2 2016   0.318   0.749   2.458  0.2899 -1.8648  0.8497
  673SOL     OW 2017   0.146   1.250   1.070  0.3832  0.1300 -0.0519
  673SOL    HW1 2018   0.164   1.331   1.134  1.5699  1.1344 -2.2873
  673SOL    HW2 2019   0.234   1.199   1.045 -2.8580 -0.3874  1.8093
  674SOL     OW 2020   1.578   2.904   0.147  0.5770 -0.0025 -0.0900
  674SOL    HW1 2021   1.582   2.997   0.099  1.0704  1.2863  1.0602
  674SOL    HW2 2022   1.619   2.828   0.098  0.6649  1.3438  0.4944
  675SOL     OW 2023   1.718   0.897   2.341  0.2397 -0.0384 -0.4758
  675SOL    HW1 2024   1.821   0.886   2.350  0.4145 -1.0323 -1.1360
  675SOL    HW2 2025   1.678   0.804   2.310 -2.3690 -2.4252  0.5168
  676SOL     OW 2026   2.522   1.522   2.029  0.5688  0.0841 -0.2078
  676SOL    HW1 2027   2.502   1.513   1.928  0.3715  2.2438  0.4214
  676SOL    HW2 2028   2.574   1.441   2.072 -2.2917 -0.6360  1.4204
  677SOL     OW 2029   1.924   0.547   0.903  0.8451 -0.0793  0.0274
  677SOL    HW1 2030   1.908   0.650   0.918  1.5737  1.3670 -0.4814
  677SOL    HW2 2031   1.861   0.483   0.951 -0.3105  0.3913  2.3502
  678SOL     OW 2032   0.083   0.787   1.644 -0.2672 -0.7289 -0.2733
  678SOL    HW1 2033   0.178   0.815   1.673 -0.8713 -0.4008 -0.8056
  678SOL    HW2 2034   0.020   0.781   1.729  1.0932  2.6942 -1.1831
  679SOL     OW 2035   2.449   1.196   1.157 -0.4250 -0.6871 -0.4488
  679SOL    HW1 2036   2.350   1.212   1.175 -0.5242 -0.4487 -0.1676
  679SOL    HW2 2037   2.465   1.102   1.126 -1.9522  0.3983  0.1464
  680SOL     OW 2038   2.877   0.643   1.702 -0.1036  0.0002 -0.2118
  680SOL    HW1 2039   2.834   0.687   1.618 -2.0921  1.7051  3.3892
  680SOL    HW2 2040   2.932   0.706   1.760 -0.2248  0.3215  0.7642
  681SOL     OW 2041   3.071   0.144   1.651 -0.1975  0.0351  0.1739
  681SOL    HW1 2042   3.134   0.111   1.572  0.2841  1.3321  0.2000
  681SOL    HW2 2043   3.021   0.231   1.632 -1.3224 -0.4142  0.3828
  682SOL     OW 2044   0.717   3.087   1.336 -0.2256 -0.1786 -0.4905
  682SOL    HW1 2045   0.644   3.026   1.368 -1.1505  2.3682  0.4434
  682SOL    HW2 2046   0.745   3.072   1.240  1.5165  0.0775 -0.7146
  683SOL     OW 2047   1.411   0.232   2.183  0.7876  0.0205  0.5269
  683SOL    HW1 2048   1.414   0.294   2.264  1.4488 -0.1208 -0.6389
  683SOL    HW2 2049   1.494   0.253   2.120 -0.8364 -0.0999  0.9020
  684SOL     OW 2050   1.446   2.130   0.479 -0.4266 -0.0715  0.0296
  684SOL    HW1 2051   1.497   2.099   0.563  0.4343  1.7681 -0.4006
  684SOL    HW2 2052   1.367   2.067   0.453 -1.1072 -0.6429  1.2228
  685SOL     OW 2053   2.159   1.932   1.971 -0.0847 -0.6790  0.5393
  685SOL    HW1 2054   2.210   2.018   1.940  0.7575 -0.2398  1.0388
  685SOL    HW2 2055   2.222   1.866   2.023  1.5280 -0.4750  2.5706
  686SOL     OW 2056   1.535   1.710   2.773  0.4226 -0.0724  0.1077
  686SOL    HW1 2057   1.484   1.616   2.792 -3.6116 -1.7192  2.5475
  686SOL    HW2 2058   1.584   1.743   2.857  0.8402 -0.3254 -0.0119
  687SOL     OW 2059   1.351   2.496   1.897  0.2536 -0.0686  0.0066
  687SOL    HW1 2060   1.386   2.409   1.846 -2.2654 -0.6499  2.5242
  687SOL    HW2 2061   1.403   2.517   1.985  0.1421 -0.1041  0.0009
  688SOL     OW 2062   2.086   1.511   1.586  0.4316  0.3782  0.0034
  688SOL    HW1 2063   2.175   1.552   1.546 -0.6378 -1.3666 -2.6691
  688SOL    HW2 2064   2.036   1.463   1.507 -1.3089  0.7145 -2.1171
  689SOL     OW 2065   2.441   1.058   2.703  0.7612  0.0624  0.0508
  689SOL    HW1 2066   2.379   1.018   2.782 -2.8456  1.8216  0.5418
  689SOL    HW2 2067   2.524   1.101   2.748 -0.5009  0.8762  0.2126
  690SOL     OW 2068   2.229   2.774   3.051  0.5885  0.2315 -0.3560
  690SOL    HW1 2069   2.150   2.717   3.009 -2.4464 -0.0558 -2.4899
  690SOL    HW2 2070   2.222   2.812   3.149  0.8606 -0.2558 -0.2844
  691SOL     OW 2071   2.582   0.453   2.179  0.4191 -0.1202 -0.2390
  691SOL    HW1 2072   2.650   0.400   2.123 -0.0392 -0.1663 -0.1833
  691SOL    HW2 2073   2.603   0.554   2.174 -0.3369 -0.3609  0.0672
  692SOL     OW 2074   2.720   1.257   0.659 -0.4602  0.0859 -0.4567
  692SOL    HW1 2075   2.621   1.247   0.692 -2.1273  0.3615 -1.7400
  692SOL    HW2 2076   2.779   1.299   0.730 -0.3078  0.4951 -0.2803
  693SOL     OW 2077   2.826   2.941   0.619 -0.4943  0.5126  0.2811
  693SOL    HW1 2078   2.840   3.029   0.667 -0.1079  1.2681  0.4750
  693SOL    HW2 2079   2.787   2.960   0.525  0.8695  0.5767 -0.4935
  694SOL     OW 2080   2.393   2.145   0.072  0.4858  0.3776 -0.3052
  694SOL    HW1 2081   2.375   2.243   0.084 -0.9093 -0.9740  1.6616
  694SOL    HW2 2082   2.308   2.086   0.051  2.5478  2.8306 -0.2093
  695SOL     OW 2083   0.553   2.902   1.483  0.0257  0.0002  0.4425
  695SOL    HW1 2084   0.477   2.836   1.467 -1.7015 -1.0031 -1.7206
  695SOL    HW2 2085   0.533   2.969   1.559  0.7809  0.0093 -0.7594
  696SOL     OW 2086   2.728   1.981   0.647  0.0598  0.1498  0.2312
  696SOL    HW1 2087   2.756   1.898   0.698 -0.5694  1.4512 -0.4231
  696SOL    HW2 2088   2.685   1.959   0.555  2.2448  2.3983  1.0773
  697SOL     OW 2089   1.668   2.043   1.719 -0.0540 -0.4178  0.1026
  697SOL    HW1 2090   1.756   2.006   1.757 -0.7211 -1.3406  1.8816
  697SOL    HW2 2091   1.687   2.116   1.648 -0.0415  1.0976 -0.5588
  698SOL     OW 2092   2.922   0.324   2.807 -0.2470  0.6774  0.3345
  698SOL    HW1 2093   2.928   0.309   2.700  0.5652  1.3625  0.5518
  698SOL    HW2 2094   2.995   0.279   2.868  0.1464 -3.0895  0.5876
  699SOL     OW 2095   1.524   0.109   2.928  0.1579  0.5067  0.1038
  699SOL    HW1 2096   1.486   0.017   2.899  0.5543  0.3539 -0.2944
  699SOL    HW2 2097   1.574   0.155   2.849 -0.5405  1.4766 -1.1613
  700SOL     OW 2098   0.997   2.404   1.386  0.4129  0.7462 -0.4547
  700SOL    HW1 2099   1.068   2.327   1.367 -0.4456 -1.5224 -1.1224
  700SOL    HW2 2100   0.909   2.386   1.339  0.5196 -0.7548  1.2652
  701SOL     OW 2101   1.855   2.809   0.028 -0.4856  0.1988  0.0710
  701SOL    HW1 2102   1.846   2.740   0.105 -1.5787  2.4694  0.2747
  701SOL    HW2 2103   1.879   2.902   0.066 -0.5318  1.1858  0.2640
  702SOL     OW 2104   2.087   1.366   1.819  0.2994 -0.0828 -0.0774
  702SOL    HW1 2105   2.185   1.323   1.828  0.4754 -2.6682 -0.3878
  702SOL    HW2 2106   2.063   1.419   1.736 -0.5282 -0.7421 -0.6712
  703SOL     OW 2107   1.986   0.877   1.476 -0.4078  0.2567  0.2073
  703SOL    HW1 2108   1.973   0.793   1.540 -1.9978  2.1360 -0.2010
  703SOL    HW2 2109   2.037   0.958   1.515 -0.5155  1.4485  0.0900
  704SOL     OW 2110   0.270   2.069   1.787  0.3955  0.0155  0.2738
  704SOL    HW1 2111   0.311   1.988   1.835 -4.3017  0.8416 -0.4964
  704SOL    HW2 2112   0.332   2.144   1.759 -0.3257  1.1784  0.0673
  705SOL     OW 2113   2.552   1.406   0.852  0.3214  0.2393  0.1096
  705SOL    HW1 2114   2.450   1.387   0.860 -1.3879 -2.0514  1.6031
  705SOL    HW2 2115   2.594   1.401   0.946 -0.1115  0.3392 -0.0603
  706SOL     OW 2116   0.631   1.748   1.881  0.2132 -0.2487  0.0214
  706SOL    HW1 2117   0.638   1.652   1.914 -0.3041 -2.7189  1.5344
  706SOL    HW2 2118   0.712   1.809   1.906 -0.0045  1.2619 -1.2986
  707SOL     OW 2119   2.323   1.248   1.912 -0.0150 -0.1777 -1.1788
  707SOL    HW1 2120   2.429   1.235   1.928  1.0404  0.3961 -0.6419
  707SOL    HW2 2121   2.278   1.157   1.886  0.1660 -2.3097  0.0094
  708SOL     OW 2122   3.058   0.529   3.026 -0.1481  0.2434 -0.1810
  708SOL    HW1 2123   3.053   0.575   2.938 -3.1530 -1.0641 -1.2072
  708SOL    HW2 2124   3.073   0.430   3.022  2.0012 -1.6783  0.1309
  709SOL     OW 2125   1.756   1.853   0.224 -0.2760 -0.4098 -0.5288
  709SOL    HW1 2126   1.799   1.936   0.268  1.6464 -4.6261 -2.3450
  709SOL    HW2 2127   1.777   1.853   0.122 -2.1292  0.5171 -3.3568
  710SOL     OW 2128   1.768   1.662   2.436 -0.1178  0.0276  0.3930
  710SOL    HW1 2129   1.817   1.613   2.352  0.9535 -0.2475 -3.7986
  710SOL    HW2 2130   1.776   1.601   2.521  1.1531 -2.6287  0.0823
  711SOL     OW 2131   2.618   2.904   0.968  0.4138 -0.5983  0.1072
  711SOL    HW1 2132   2.594   2.994   0.920 -0.6084 -0.3046 -0.8230
  711SOL    HW2 2133   2.722   2.895   0.988  3.4659  2.4547  0.9378
  712SOL     OW 2134   1.495   2.293   1.766 -0.1532  0.0029 -0.6677
  712SOL    HW1 2135   1.534   2.199   1.784 -0.8970 -1.6008 -0.4553
  712SOL    HW2 2136   1.432   2.287   1.680  1.4526 -1.8089 -1.5680
  713SOL     OW 2137   2.858   1.342   2.489  0.3997 -0.2161  0.4531
  713SOL    HW1 2138   2.895   1.247   2.471  1.1868  0.2360  1.7216
  713SOL    HW2 2139   2.768   1.344   2.533 -0.3089 -1.6771  2.7159
  714SOL     OW 2140   2.678   0.434   2.427 -0.4288 -0.1496 -0.2680
  714SOL    HW1 2141   2.594   0.415   2.484  0.3187  1.8786  2.1289
  714SOL    HW2 2142   2.656   0.428   2.327 -2.8947  0.2433 -0.2214
  715SOL     OW 2143   1.645   2.128   1.104 -0.0046 -0.6338  0.4106
  715SOL    HW1 2144   1.551   2.159   1.074  0.0976 -1.8146 -1.9855
  715SOL    HW2 2145   1.645   2.106   1.206  1.7548 -0.1492 -0.4928
  716SOL     OW 2146   1.214   0.206   1.450 -0.6802  0.1686 -0.1995
  716SOL    HW1 2147   1.117   0.217   1.418  0.5049 -1.8669  0.1951
  716SOL    HW2 2148   1.267   0.293   1.455 -1.2020 -0.3783 -1.2361
  717SOL     OW 2149   1.056   0.610   1.589  0.1958 -0.3199 -0.1063
  717SOL    HW1 2150   1.161   0.624   1.593  1.1154 -2.6996  2.8469
  717SOL    HW2 2151   1.024   0.573   1.495  0.1003  1.1209  0.4844
  718SOL     OW 2152   0.659   1.090   1.006  0.4733  0.5601 -0.0682
  718SOL    HW1 2153   0.604   1.092   0.915 -0.8680 -1.6314  2.1336
  718SOL    HW2 2154   0.730   1.166   1.012 -2.5081  2.2363 -0.8057
  719SOL     OW 2155   0.725   1.814   2.234 -0.1916  0.2219  0.0879
  719SOL    HW1 2156   0.790   1.853   2.304 -4.8424 -2.5244  0.8470
  719SOL    HW2 2157   0.625   1.824   2.269 -1.9423  2.7003  1.8521
  720SOL     OW 2158   2.264   1.137   0.222  0.2299  0.2347  0.2063
  720SOL    HW1 2159   2.365   1.118   0.216 -0.1264 -1.4848 -2.2913
  720SOL    HW2 2160   2.236   1.164   0.315 -0.0129 -1.9059  0.9437
  721SOL     OW 2161   2.238   0.018   2.002  0.0620 -0.3321 -0.2080
  721SOL    HW1 2162   2.252   0.104   1.947  1.1210  0.6966  0.6964
  721SOL    HW2 2163   2.156   0.021   2.065 -1.0642  1.6428 -0.7492
  722SOL     OW 2164   2.389   1.645   0.499  0.4009 -0.0741 -0.3794
  722SOL    HW1 2165   2.390   1.590   0.407  0.5020  2.0908 -0.7927
  722SOL    HW2 2166   2.293   1.667   0.537 -0.6390 -1.7764  0.1290
  723SOL     OW 2167   2.580   2.854   1.903  0.7476 -0.0441 -0.2350
  723SOL    HW1 2168   2.654   2.888   1.970  0.8497 -0.4331  2.0425
  723SOL    HW2 2169   2.486   2.862   1.938  2.6991  0.4433  0.6557
  724SOL     OW 2170   0.308   2.423   2.356 -0.7265 -0.1453 -0.1076
  724SOL    HW1 2171   0.217   2.466   2.383 -2.6517  0.6847  0.5582
  724SOL    HW2 2172   0.353   2.392   2.446 -0.0656  0.6202 -0.4410
  725SOL     OW 2173   2.274   2.785   1.474  0.4440  0.0007  0.2120
  725SOL    HW1 2174   2.350   2.787   1.399  0.1819  0.8347 -4.1659
  725SOL    HW2 2175   2.282   2.699   1.540 -0.4883  1.4255  3.3038
  726SOL     OW 2176   2.389   2.252   0.808  0.1971 -0.1943  0.1808
  726SOL    HW1 2177   2.368   2.355   0.807  1.3332  1.3853 -2.4013
  726SOL    HW2 2178   2.352   2.212   0.723  0.3733 -0.7974  1.6204
  727SOL     OW 2179   0.230   3.059   0.166  0.0628  0.3474 -0.1625
  727SOL    HW1 2180   0.254   2.967   0.132 -0.6100  0.5531  1.5540
  727SOL    HW2 2181   0.278   3.134   0.116 -0.0017  0.1260  1.2264
  728SOL     OW 2182   2.854   0.648   1.011 -0.7232 -0.2184  0.7156
  728SOL    HW1 2183   2.768   0.654   0.951 -2.2076 -1.4255 -0.4275
  728SOL    HW2 2184   2.836   0.596   1.099 -1.0139 -0.7585  0.1969
  729SOL     OW 2185   2.951   2.481   0.732  0.4093  0.4909 -0.2309
  729SOL    HW1 2186   2.895   2.392   0.744 -1.4414 -1.2592 -0.0093
  729SOL    HW2 2187   3.055   2.466   0.755  0.0194 -1.8591 -0.6023
  730SOL     OW 2188   2.632   0.587   0.878  0.5494 -0.3599  0.2383
  730SOL    HW1 2189   2.562   0.647   0.826 -0.3480 -0.1650 -4.1050
  730SOL    HW2 2190   2.692   0.521   0.823 -3.7197 -3.7298  0.1395
  731SOL     OW 2191   0.086   2.120   2.457  0.3349  0.1945 -0.0825
  731SOL    HW1 2192   0.104   2.151   2.552 -0.0742  1.4234  3.1874
  731SOL    HW2 2193  -0.008   2.145   2.421  1.9479  1.4497  1.7194
  732SOL     OW 2194   1.120   2.838   1.979  0.4126  0.2774  0.6800
  732SOL    HW1 2195   1.145   2.761   2.043  0.8488 -0.3042 -0.8455
  732SOL    HW2 2196   1.155   2.816   1.883  0.3402  0.7667  1.6708
  733SOL     OW 2197   3.031   0.680   2.107  0.3931 -0.1582 -0.3336
  733SOL    HW1 2198   3.113   0.742   2.120 -1.6652 -0.7638  0.4299
  733SOL    HW2 2199   3.051   0.606   2.036 -1.3690  2.4793 -2.0829
  734SOL     OW 2200   1.388   0.376   2.705 -0.1155  0.2791 -0.2204
  734SOL    HW1 2201   1.402   0.464   2.753  1.8680 -0.4305  1.0862
  734SOL    HW2 2202   1.325   0.304   2.753  1.4588 -0.3941 -0.3926
  735SOL     OW 2203   2.803   2.636   2.289  0.0956  0.6454  0.5282
  735SOL    HW1 2204   2.723   2.631   2.216 -1.4814 -2.3044  2.3761
  735SOL    HW2 2205   2.897   2.643   2.243 -0.6996 -0.9140 -3.3664
  736SOL     OW 2206   0.795   0.400   2.621  0.2501  0.0733 -0.3587
  736SOL    HW1 2207   0.740   0.489   2.627 -1.2254 -3.0028 -2.7062
  736SOL    HW2 2208   0.787   0.357   2.522  0.9654  0.4259 -2.6418
  737SOL     OW 2209   2.706   0.488   2.831  0.1948 -0.7923  0.4999
  737SOL    HW1 2210   2.662   0.481   2.926 -1.3208  1.2336 -2.1287
  737SOL    HW2 2211   2.784   0.417   2.822 -1.1412  0.5485  0.2853
  738SOL     OW 2212   1.653   1.173   3.003 -0.2726  0.0909  0.2657
  738SOL    HW1 2213   1.744   1.169   2.954  0.0905 -3.8036 -1.2797
  738SOL    HW2 2214   1.653   1.106   3.081  1.7220 -1.7532 -1.7763
  739SOL     OW 2215   1.763   0.567   0.676  0.3079 -0.2769 -0.0197
  739SOL    HW1 2216   1.824   0.555   0.757  1.5251 -2.2406 -1.2693
  739SOL    HW2 2217   1.774   0.491   0.606 -0.0143 -1.6577 -1.1385
  740SOL     OW 2218   1.896   2.005   2.144 -0.2835  0.2194 -0.1678
  740SOL    HW1 2219   1.947   1.941   2.083 -0.5635 -0.6748 -1.3478
  740SOL    HW2 2220   1.808   2.040   2.104  1.8329  0.5581  0.0912
  741SOL     OW 2221   2.513   0.103   2.559  0.1043 -0.4826  0.4197
  741SOL    HW1 2222   2.603   0.055   2.554 -0.0837  0.2774 -0.6066
  741SOL    HW2 2223   2.460   0.103   2.470 -2.1162 -0.8750  0.8876
  742SOL     OW 2224   2.249   1.390   0.039 -0.4747 -0.2694  0.2383
  742SOL    HW1 2225   2.169   1.441   0.069  2.5759  2.0536 -1.3541
  742SOL    HW2 2226   2.232   1.289   0.046 -1.6966  2.9657 -1.4130
  743SOL     OW 2227   1.744   0.641   2.650 -0.3377 -0.1470 -0.0908
  743SOL    HW1 2228   1.752   0.624   2.548  2.1523  1.0254  2.2433
  743SOL    HW2 2229   1.665   0.708   2.668  1.4078  2.1682  0.8530
  744SOL     OW 2230   2.656   2.051   0.026  0.1197  0.7353  0.2571
  744SOL    HW1 2231   2.559   2.087   0.048  2.6418 -0.2529  1.7559
  744SOL    HW2 2232   2.713   2.023   0.110 -2.2627 -2.1882  1.1202
  745SOL     OW 2233   2.201   2.712   2.202  0.0422  0.1548  0.2888
  745SOL    HW1 2234   2.115   2.664   2.159 -1.0661  1.8230 -0.1562
  745SOL    HW2 2235   2.182   2.764   2.291  0.1652  0.8928  1.0717
  746SOL     OW 2236   3.090   2.602   1.841 -0.6498  0.0116 -0.1403
  746SOL    HW1 2237   3.191   2.596   1.814 -1.1034 -2.3464  0.4048
  746SOL    HW2 2238   3.055   2.695   1.869  0.6188 -0.4793 -1.2363
  747SOL     OW 2239   0.015   1.798   1.710  0.0402 -0.3305 -0.3320
  747SOL    HW1 2240  -0.048   1.721   1.677  0.4231  0.5782  0.3641
  747SOL    HW2 2241   0.082   1.828   1.639 -0.4114  0.9498 -0.4779
  748SOL     OW 2242   1.747   2.754   2.874 -0.6788  0.0296 -0.0461
  748SOL    HW1 2243   1.786   2.772   2.972  0.0725  0.0813 -0.8204
  748SOL    HW2 2244   1.644   2.744   2.865  2.4170  1.5466 -0.0854
  749SOL     OW 2245   1.294   0.069   0.894  0.4265  0.5109  0.3178
  749SOL    HW1 2246   1.224  -0.004   0.912  0.1741  1.5321  2.4987
  749SOL    HW2 2247   1.295   0.094   0.790 -0.4170 -2.0323 -1.3453
  750SOL     OW 2248   2.281   0.264   1.861 -0.6296  0.3973 -0.4211
  750SOL    HW1 2249   2.361   0.289   1.795  3.6486 -0.7570 -1.7007
  750SOL    HW2 2250   2.302   0.287   1.959  0.7048 -1.0318 -0.9735
  751SOL     OW 2251   0.837   2.251   2.883  0.3210 -0.0018  0.5744
  751SOL    HW1 2252   0.909   2.232   2.953  2.0271  0.1290 -1.0244
  751SOL    HW2 2253   0.772   2.172   2.873  1.8284  0.8512  2.6378
  752SOL     OW 2254   1.241   0.946   1.545  0.2909  0.1305 -0.1053
  752SOL    HW1 2255   1.305   0.977   1.467  0.7988  0.3630 -1.3067
  752SOL    HW2 2256   1.263   0.847   1.572 -1.5034 -0.8847 -0.2922
  753SOL     OW 2257   0.937   2.641   1.765 -0.0179 -0.1397 -0.5239
  753SOL    HW1 2258   1.036   2.660   1.744  2.0350 -2.8587 -0.2630
  753SOL    HW2 2259   0.870   2.713   1.733 -0.8107 -1.1767 -0.8492
  754SOL     OW 2260   1.149   1.310   3.042 -0.1806  0.3001 -0.6527
  754SOL    HW1 2261   1.181   1.245   2.966 -0.5126  1.5911  0.1742
  754SOL    HW2 2262   1.125   1.406   3.009 -1.0003  1.8729 -1.4084
  755SOL     OW 2263   2.026   0.518   2.214 -0.3156 -0.0239 -0.1647
  755SOL    HW1 2264   2.077   0.440   2.258  2.0382  1.5292  0.4859
  755SOL    HW2 2265   1.924   0.517   2.243  0.1727  0.2053 -0.2915
  756SOL     OW 2266   2.637   0.987   2.939  0.2236 -0.0054 -0.0312
  756SOL    HW1 2267   2.714   0.927   2.897 -2.2725 -0.8039  1.1237
  756SOL    HW2 2268   2.558   0.928   2.977  0.3871  0.9484  4.4449
  757SOL     OW 2269   0.114   0.506   1.711  0.7420 -0.5217 -0.0498
  757SOL    HW1 2270   0.121   0.607   1.681  0.5931  0.1282  1.2458
  757SOL    HW2 2271   0.170   0.445   1.655  3.1576 -0.3041  0.7078
  758SOL     OW 2272   2.487   0.028   1.520  0.4747  0.6075  0.1196
  758SOL    HW1 2273   2.400  -0.008   1.560  0.4065 -0.6444 -0.5835
  758SOL    HW2 2274   2.469   0.049   1.418  0.5939  0.4652 -1.3376
  759SOL     OW 2275   1.657   0.085   0.067 -0.2319  0.5877  0.6416
  759SOL    HW1 2276   1.620   0.088  -0.031 -1.0046  2.2562 -0.1015
  759SOL    HW2 2277   1.756   0.046   0.083  1.0498 -1.8992  1.1909
  760SOL     OW 2278   2.740   1.962   2.802  0.2686 -0.3727 -0.5817
  760SOL    HW1 2279   2.753   1.859   2.782 -0.3073 -3.0927  2.8732
  760SOL    HW2 2280   2.808   2.029   2.759  2.6164 -4.3539 -0.0398
  761SOL     OW 2281   1.900   1.748   1.611 -0.1115  0.8802  0.5015
  761SOL    HW1 2282   1.950   1.661   1.603 -2.0126  1.2372  0.4935
  761SOL    HW2 2283   1.813   1.747   1.550 -0.9653  1.3579 -0.4219
  762SOL     OW 2284   0.530   2.427   1.003 -0.2747 -0.2866 -0.1320
  762SOL    HW1 2285   0.551   2.450   0.902  1.4516  0.3470  1.2839
  762SOL    HW2 2286   0.550   2.504   1.067 -0.4741 -2.4433  0.1164
  763SOL     OW 2287   2.004   1.575   2.968  0.4187  0.1453 -0.1155
  763SOL    HW1 2288   2.069   1.531   2.905  2.9089  1.7915  1.6711
  763SOL    HW2 2289   1.959   1.508   3.033 -0.5286  1.8538  1.6027
  764SOL     OW 2290   0.681   0.574   0.853  0.2947  0.7318 -0.0088
  764SOL    HW1 2291   0.693   0.548   0.752 -1.2564 -0.4064  0.9254
  764SOL    HW2 2292   0.777   0.580   0.894  0.7978  0.5940 -1.9116
  765SOL     OW 2293   0.667   0.209   0.804 -0.3064  0.2456 -0.0524
  765SOL    HW1 2294   0.758   0.221   0.760 -0.4416  0.2319 -1.5555
  765SOL    HW2 2295   0.669   0.226   0.906 -0.6480  1.4713 -1.1144
  766SOL     OW 2296   2.980   1.999   3.040  0.7041 -0.5592 -0.1797
  766SOL    HW1 2297   2.899   2.005   2.980  2.4234 -0.3171  1.9903
  766SOL    HW2 2298   3.039   2.084   3.044 -0.1295  0.8571  1.5329
  767SOL     OW 2299   2.834   1.568   0.517 -0.9853 -0.5076 -0.9410
  767SOL    HW1 2300   2.744   1.587   0.565 -0.7299  2.2487 -1.5879
  767SOL    HW2 2301   2.914   1.589   0.577 -3.4328 -0.5899 -2.6523
  768SOL     OW 2302   1.048   0.315   0.289  0.2054  0.3205 -0.9182
  768SOL    HW1 2303   0.950   0.291   0.282  0.6689  1.2583 -0.5055
  768SOL    HW2 2304   1.116   0.240   0.258 -1.9455  2.4412  0.3944
  769SOL     OW 2305   1.248   1.825   2.281  0.6146  0.4427 -0.7397
  769SOL    HW1 2306   1.348   1.833   2.267 -3.0803 -1.8432 -1.4585
  769SOL    HW2 2307   1.217   1.729   2.259 -0.0864 -1.9708 -0.3086
  770SOL     OW 2308   0.168   1.115   2.330  0.1463 -1.0667 -0.7487
  770SOL    HW1 2309   0.128   1.178   2.409 -0.6192  3.1185  0.4350
  770SOL    HW2 2310   0.116   1.124   2.241 -0.3086 -1.4246  1.0757
  771SOL     OW 2311   2.956   2.824   1.940  0.1177  0.3430 -0.5245
  771SOL    HW1 2312   2.952   2.872   1.854  0.9565 -0.1656  1.6324
  771SOL    HW2 2313   2.955   2.881   2.029 -0.1084  1.3864 -0.2706
  772SOL     OW 2314   2.125   0.085   2.995 -0.0330 -0.6320  0.1302
  772SOL    HW1 2315   2.201   0.020   2.978 -0.5465  0.0617 -0.3202
  772SOL    HW2 2316   2.160   0.171   3.044 -0.7573 -0.5980  0.4685
  773SOL     OW 2317   0.727   2.135   2.468  0.5461  0.3193 -0.2102
  773SOL    HW1 2318   0.667   2.164   2.393  1.3121  0.7523 -0.1184
  773SOL    HW2 2319   0.676   2.141   2.557 -0.4102 -2.4404 -0.0510
  774SOL     OW 2320   2.015   0.030   2.666 -0.2576  0.4079 -0.4758
  774SOL    HW1 2321   2.016   0.129   2.705  1.3021 -1.9787 -1.0303
  774SOL    HW2 2322   2.067  -0.031   2.732 -1.0687 -2.8567  0.7773
  775SOL     OW 2323   2.516   2.884   2.385  0.5104  0.1226 -0.0054
  775SOL    HW1 2324   2.483   2.979   2.359  1.5441 -0.5274 -1.3117
  775SOL    HW2 2325   2.619   2.877   2.413 -1.2813  2.1585  1.8138
  776SOL     OW 2326   0.008   1.190   0.261 -0.1428 -0.5897  0.3497
  776SOL    HW1 2327  -0.041   1.238   0.185  1.4111 -0.0704 -0.1308
  776SOL    HW2 2328  -0.023   1.204   0.359  1.6115 -2.1757 -0.2536
  777SOL     OW 2329   0.323   2.679   0.407  0.5493  0.7166 -0.2551
  777SOL    HW1 2330   0.218   2.669   0.405  1.8122 -2.7977  2.0144
  777SOL    HW2 2331   0.353   2.777   0.406  0.3815 -0.7126 -1.3608
  778SOL     OW 2332   1.324   1.944   0.174  0.2745  0.5318 -0.5588
  778SOL    HW1 2333   1.272   1.951   0.265 -1.6341  0.2457 -1.3201
  778SOL    HW2 2334   1.338   2.031   0.125  1.3207 -0.2364  0.4483
  779SOL     OW 2335   0.171   0.831   0.529  0.4041  0.0667 -0.4439
  779SOL    HW1 2336   0.126   0.745   0.487  0.4508 -1.8322  0.8504
  779SOL    HW2 2337   0.112   0.877   0.603 -2.1916 -2.5696 -0.8836
  780SOL     OW 2338   0.025   0.287   2.369  0.7144 -0.0073 -0.0651
  780SOL    HW1 2339  -0.010   0.385   2.373  1.3511 -1.7206  1.1659
  780SOL    HW2 2340   0.118   0.283   2.324 -0.3841  2.0515  0.5401
  781SOL     OW 2341   0.569   1.780   1.624 -0.6339  0.0508 -0.2738
  781SOL    HW1 2342   0.571   1.797   1.728  0.7636  1.1716 -0.0973
  781SOL    HW2 2343   0.522   1.695   1.598  1.1369  0.7928  0.7636
  782SOL     OW 2344   2.641   0.130   0.891  0.3697 -0.4603 -0.1366
  782SOL    HW1 2345   2.567   0.163   0.823 -1.4389 -2.8917 -2.3652
  782SOL    HW2 2346   2.611   0.152   0.990  0.3864 -0.3897  2.0827
  783SOL     OW 2347   2.816   0.669   2.526  0.2312 -0.1975  0.4382
  783SOL    HW1 2348   2.787   0.704   2.616 -1.4378 -1.5321 -1.7301
  783SOL    HW2 2349   2.752   0.600   2.479 -1.4655  0.5867  1.5467
  784SOL     OW 2350   1.377   2.214   0.040 -0.3356  0.0555  0.1222
  784SOL    HW1 2351   1.474   2.229   0.076  2.0623 -0.6600 -0.3746
  784SOL    HW2 2352   1.375   2.205  -0.060  1.0978 -0.2596  2.8051
  785SOL     OW 2353   2.176   0.322   0.024  0.7585 -0.6770  0.1598
  785SOL    HW1 2354   2.081   0.338   0.066 -0.7495  2.0096  0.4084
  785SOL    HW2 2355   2.218   0.413  -0.017 -1.3920  1.8294 -0.8615
  786SOL     OW 2356   2.066   2.199   2.251  0.7118  0.1680 -0.2973
  786SOL    HW1 2357   1.993   2.130   2.221 -1.6909 -1.2793 -1.2730
  786SOL    HW2 2358   2.145   2.153   2.293  2.1743 -0.5639  1.0090
  787SOL     OW 2359   1.413   0.626   0.771 -0.3962  0.2605 -0.1837
  787SOL    HW1 2360   1.442   0.728   0.752 -1.3417  0.4196 -2.0629
  787SOL    HW2 2361   1.401   0.583   0.677  2.2146  1.7210 -3.2543
  788SOL     OW 2362   1.208   0.473   2.974  0.2942  0.6376 -0.4997
  788SOL    HW1 2363   1.141   0.444   2.901 -0.1540 -2.2393  0.2896
  788SOL    HW2 2364   1.266   0.556   2.944 -1.2358 -2.6256  0.3114
  789SOL     OW 2365   2.647   0.063   1.862 -0.2659 -0.5259 -0.0742
  789SOL    HW1 2366   2.564   0.010   1.835 -1.0113 -1.3497 -0.8910
  789SOL    HW2 2367   2.709   0.006   1.921 -1.7484  2.6361 -1.4909
  790SOL     OW 2368   2.607   2.669   0.828 -0.2200  0.4715  0.2374
  790SOL    HW1 2369   2.658   2.676   0.740  2.3025 -1.7074 -1.4576
  790SOL    HW2 2370   2.628   2.748   0.893 -2.2277 -0.0188  0.7474
  791SOL     OW 2371   1.944   1.211   0.189 -0.2936 -0.2729  0.4851
  791SOL    HW1 2372   1.877   1.170   0.253 -1.1408 -0.8144 -0.7603
  791SOL    HW2 2373   2.019   1.141   0.154  1.3172 -0.5662 -3.5398
  792SOL     OW 2374   0.454   1.978   2.209  0.0396 -0.1547  0.2439
  792SOL    HW1 2375   0.464   2.082   2.211 -0.2604  0.3230  0.1460
  792SOL    HW2 2376   0.388   1.944   2.276  1.9929  0.4170 -0.4648
  793SOL     OW 2377   2.102   1.499   2.071 -0.1026  0.0464 -0.9030
  793SOL    HW1 2378   2.158   1.588   2.073  2.2167 -1.3851 -1.5318
  793SOL    HW2 2379   2.107   1.438   1.980  0.9805 -0.2646  3.4913
  794SOL     OW 2380   0.548   1.538   2.468  0.0534  0.4707  0.2315
  794SOL    HW1 2381   0.637   1.492   2.439  3.1053 -0.9896  2.5941
  794SOL    HW2 2382   0.476   1.535   2.391 -0.5001  1.6070 -0.3524
  795SOL     OW 2383   2.475   2.313   1.824 -0.0171  0.6618  0.8168
  795SOL    HW1 2384   2.496   2.332   1.922 -0.2883 -0.9687 -1.1901
  795SOL    HW2 2385   2.387   2.254   1.818 -3.2196  0.4655  0.5901
  796SOL     OW 2386   3.042   1.102   2.708 -0.6156  0.0731  0.0385
  796SOL    HW1 2387   2.944   1.113   2.741 -2.6177 -0.4051  1.3671
  796SOL    HW2 2388   3.107   1.126   2.784 -1.6698  0.4078  1.4202
  797SOL     OW 2389   0.665   0.633   1.363 -0.1698 -0.5437 -0.4220
  797SOL    HW1 2390   0.728   0.684   1.426 -0.4722  0.1757 -2.5167
  797SOL    HW2 2391   0.651   0.699   1.283  2.1081  0.0817  0.0227
  798SOL     OW 2392   1.176   0.519   0.923 -0.0751 -0.3911 -0.2194
  798SOL    HW1 2393   1.204   0.539   1.021 -2.9194  4.2280 -1.2192
  798SOL    HW2 2394   1.249   0.548   0.849 -0.2838 -1.6717 -1.3427
  799SOL     OW 2395   1.816   2.707   1.005 -0.4321  0.3441  0.9072
  799SOL    HW1 2396   1.816   2.619   1.060  0.0802 -1.5988 -3.4182
  799SOL    HW2 2397   1.828   2.692   0.903 -0.0456 -0.0972  1.2357
  800SOL     OW 2398   3.011   0.823   1.863 -0.1588 -0.2567  0.3602
  800SOL    HW1 2399   3.032   0.924   1.872 -0.5472 -1.9813 -0.6048
  800SOL    HW2 2400   2.988   0.771   1.950 -2.1605 -0.5307 -1.5953
  801SOL     OW 2401   1.955   2.173   0.101  0.1616  0.6200 -0.2253
  801SOL    HW1 2402   1.952   2.229   0.016 -0.9104  1.9131 -0.0647
  801SOL    HW2 2403   2.031   2.099   0.094 -0.9928  0.8022 -1.3895
  802SOL     OW 2404   0.650   0.642   2.573 -0.6287  0.1301 -0.5235
  802SOL    HW1 2405   0.718   0.659   2.499 -1.1300  0.4578  1.1146
  802SOL    HW2 2406   0.553   0.633   2.540  0.7628  0.4079 -0.5483
  803SOL     OW 2407   0.944   0.103   0.895  0.2290  0.5099  0.1053
  803SOL    HW1 2408   1.011   0.163   0.952  2.6980  1.1400  1.8918
  803SOL    HW2 2409   0.927   0.145   0.801 -0.3618 -1.5604 -1.9097
  804SOL     OW 2410   0.299   0.037   2.202  0.6372 -0.3235  0.2502
  804SOL    HW1 2411   0.263   0.135   2.217  0.8637 -1.8891  1.5390
  804SOL    HW2 2412   0.259  -0.011   2.118 -0.1987 -1.3488  2.9317
  805SOL     OW 2413   2.412   0.373   0.324 -0.3346 -0.1333 -0.2508
  805SOL    HW1 2414   2.483   0.352   0.391 -2.8250  0.4741 -2.1029
  805SOL    HW2 2415   2.407   0.298   0.256 -0.9455 -1.2109  0.3040
  806SOL     OW 2416   0.590   2.638   1.891  0.5603  0.4022  0.7040
  806SOL    HW1 2417   0.525   2.697   1.948 -0.3078  0.4588  0.1769
  806SOL    HW2 2418   0.646   2.692   1.827 -1.4624 -1.4603  0.8703
  807SOL     OW 2419   2.523   0.923   0.480 -0.1407 -0.7249  0.5914
  807SOL    HW1 2420   2.612   0.870   0.492 -0.6722  1.0665 -0.6807
  807SOL    HW2 2421   2.510   0.969   0.386  1.2363  0.6170 -1.9911
  808SOL     OW 2422   0.679   2.024   2.936  0.0166  0.2151  0.4487
  808SOL    HW1 2423   0.635   2.047   3.027  1.0590  1.2492  2.0113
  808SOL    HW2 2424   0.696   1.922   2.921  1.3661 -1.7142 -2.8827
  809SOL     OW 2425   2.583   1.983   1.920  0.1029  0.1955 -0.1245
  809SOL    HW1 2426   2.679   2.016   1.935 -3.0079  2.0378 -0.3046
  809SOL    HW2 2427   2.549   2.008   1.828  3.5850  0.6540  0.4382
  810SOL     OW 2428   2.188   1.126   0.485 -0.0823  0.9080 -0.2891
  810SOL    HW1 2429   2.153   1.036   0.520 -0.0256  0.9325 -1.2647
  810SOL    HW2 2430   2.159   1.211   0.535 -0.1730 -3.2092 -0.0532
  811SOL     OW 2431   1.271   2.490   1.150 -0.6237  0.1433 -0.2471
  811SOL    HW1 2432   1.206   2.418   1.176  2.4883  2.2331  0.6508
  811SOL    HW2 2433   1.359   2.464   1.192 -3.0101  2.6635 -1.3316
  812SOL     OW 2434   1.492   0.748   1.973 -0.5934 -0.3395  0.5799
  812SOL    HW1 2435   1.428   0.776   2.049  2.7885  0.2089  0.2456
  812SOL    HW2 2436   1.532   0.826   1.920 -3.4123 -2.5063  0.8739
  813SOL     OW 2437   1.690   2.049   2.391 -0.1584 -0.1511 -0.0634
  813SOL    HW1 2438   1.778   2.014   2.433  0.8543  0.9090  1.2683
  813SOL    HW2 2439   1.679   2.010   2.298 -1.0928 -0.1181  0.8392
  814SOL     OW 2440   3.015   1.685   2.910  0.6045  0.4685  0.3492
  814SOL    HW1 2441   3.068   1.623   2.977  2.3790  3.2033  1.7249
  814SOL    HW2 2442   3.035   1.784   2.924 -0.4740 -1.9533 -1.3010
  815SOL     OW 2443   2.167   2.841   2.733  0.0089 -0.1054  0.1092
  815SOL    HW1 2444   2.111   2.790   2.804  1.0961  0.2224  1.9028
  815SOL    HW2 2445   2.256   2.882   2.773  0.9004  1.1891 -1.5511
  816SOL     OW 2446   1.482   0.399   1.656 -0.3669  0.2358  0.2140
  816SOL    HW1 2447   1.533   0.312   1.666 -3.1185 -0.1008  0.5419
  816SOL    HW2 2448   1.413   0.423   1.731  1.6126  0.2238  0.4608
  817SOL     OW 2449   0.362   1.297   2.584 -0.0345 -0.5471 -0.5532
  817SOL    HW1 2450   0.259   1.299   2.600 -1.4377  1.0102  1.6808
  817SOL    HW2 2451   0.390   1.336   2.490  2.9783  0.4758 -1.9608
  818SOL     OW 2452   2.016   0.839   0.459 -0.2745 -0.6801 -0.0947
  818SOL    HW1 2453   2.121   0.824   0.453  2.3970  1.0141  2.4982
  818SOL    HW2 2454   1.986   0.891   0.547 -3.0950  3.1166 -0.6762
  819SOL     OW 2455   2.790   2.914   2.962 -0.0827 -0.0385  0.0175
  819SOL    HW1 2456   2.852   2.833   2.951  0.6465 -0.2654 -1.4898
  819SOL    HW2 2457   2.701   2.881   2.921  1.7897  0.9432  1.4376
  820SOL     OW 2458   1.224   1.042   0.552 -0.2395  0.4575  0.0626
  820SOL    HW1 2459   1.285   1.121   0.585  1.6848  3.9302  0.5627
  820SOL    HW2 2460   1.188   0.985   0.637 -3.5726 -1.7626  2.0421
  821SOL     OW 2461   0.041   1.243   0.721 -0.4414 -0.3260  0.2295
  821SOL    HW1 2462  -0.014   1.270   0.808  0.8073  2.3087  2.4166
  821SOL    HW2 2463   0.115   1.312   0.711 -3.3002  0.2589 -2.1081
  822SOL     OW 2464   2.548   1.754   2.470  0.1087 -0.2418  0.2786
  822SOL    HW1 2465   2.542   1.822   2.549  1.0286  0.1009 -0.4033
  822SOL    HW2 2466   2.460   1.750   2.413  1.3787  2.9837 -1.3262
  823SOL     OW 2467   2.020   0.917   1.176 -0.7414  0.3338  0.0883
  823SOL    HW1 2468   2.017   0.874   1.270  1.2910 -0.4171  0.2883
  823SOL    HW2 2469   1.955   0.866   1.103 -0.1479 -0.5630 -0.8608
  824SOL     OW 2470   0.172   1.836   2.836 -0.5135 -0.1272  0.2197
  824SOL    HW1 2471   0.197   1.794   2.926 -3.0701 -0.1989 -0.2474
  824SOL    HW2 2472   0.253   1.874   2.788 -0.0515 -1.8415 -1.0306
  825SOL     OW 2473   1.292   1.059   0.280 -0.3843 -0.5441  0.6721
  825SOL    HW1 2474   1.278   1.161   0.255  0.1375  1.1044 -0.0453
  825SOL    HW2 2475   1.257   1.035   0.376  2.5579 -2.2299 -0.6652
  826SOL     OW 2476   1.960   0.625   1.610  0.5604  0.6358  0.2637
  826SOL    HW1 2477   2.042   0.570   1.649  0.6301 -0.8436  0.3438
  826SOL    HW2 2478   1.873   0.570   1.578 -0.5519  0.4000 -0.1037
  827SOL     OW 2479   0.713   1.190   0.493  0.1515 -0.3750  0.5309
  827SOL    HW1 2480   0.800   1.139   0.457  3.0021  0.5083 -1.0882
  827SOL    HW2 2481   0.623   1.138   0.478  1.7104 -1.8478 -1.3053
  828SOL     OW 2482   2.703   0.210   1.577  0.6766 -0.1468  0.5058
  828SOL    HW1 2483   2.613   0.180   1.541  2.5946  3.2523  0.8416
  828SOL    HW2 2484   2.705   0.202   1.681  0.3372  1.9021  1.0427
  829SOL     OW 2485   2.914   2.399   2.914  0.1363 -0.3307 -0.7057
  829SOL    HW1 2486   2.825   2.374   2.960 -0.8714 -0.8860 -0.2863
  829SOL    HW2 2487   2.913   2.499   2.892 -4.0827 -1.4016 -1.2234
  830SOL     OW 2488   2.934   0.912   2.988  0.1571  0.1143 -0.4912
  830SOL    HW1 2489   2.936   1.007   3.032  1.9240 -0.7867  1.2766
  830SOL    HW2 2490   2.913   0.841   3.060 -0.3726  0.7853  0.8808
  831SOL     OW 2491   0.058   0.556   0.457 -0.6571 -0.1922  0.4630
  831SOL    HW1 2492   0.045   0.504   0.548 -0.4350  0.5761  0.8267
  831SOL    HW2 2493   0.114   0.498   0.392 -1.9204 -0.1500 -0.3813
  832SOL     OW 2494   1.798   0.693   0.025 -0.3423  0.5294  0.5808
  832SOL    HW1 2495   1.708   0.734  -0.001  1.3863 -1.2936 -0.9890
  832SOL    HW2 2496   1.806   0.587   0.020 -0.8177 -1.1554  0.6965
  833SOL     OW 2497   2.343   2.119   0.568 -0.1489 -0.0623  0.2305
  833SOL    HW1 2498   2.257   2.082   0.528  0.5789  1.7564 -1.1101
  833SOL    HW2 2499   2.422   2.085   0.510 -2.1359 -0.3393 -0.7393
  834SOL     OW 2500   0.105   0.058   0.563 -0.1564  0.1570  0.0490
  834SOL    HW1 2501   0.185  -0.006   0.569 -0.0531  1.3011 -1.8151
  834SOL    HW2 2502   0.109   0.117   0.476 -2.5562 -1.1491  0.9824
  835SOL     OW 2503   2.461   1.676   1.148 -0.0433  0.5376 -0.3655
  835SOL    HW1 2504   2.525   1.600   1.173  0.5080  3.2668 -1.0407
  835SOL    HW2 2505   2.514   1.750   1.103  0.6951  0.1663 -1.9866
  836SOL     OW 2506   1.534   0.830   2.601  0.0573  0.0762  0.5410
  836SOL    HW1 2507   1.439   0.870   2.597 -1.1013  0.2499  2.7098
  836SOL    HW2 2508   1.592   0.858   2.525 -2.9451  1.9538  2.3044
  837SOL     OW 2509   1.722   0.081   0.537 -0.2433 -0.4160  0.3938
  837SOL    HW1 2510   1.698   0.164   0.595  3.5115 -0.5076 -2.0906
  837SOL    HW2 2511   1.653   0.063   0.464  1.8096  1.2650 -0.3245
  838SOL     OW 2512   1.165   1.483   2.684 -0.3651 -0.1795 -0.0449
  838SOL    HW1 2513   1.087   1.490   2.753 -0.4984 -1.4899  1.4817
  838SOL    HW2 2514   1.151   1.397   2.628 -2.2851 -0.8701 -0.0352
  839SOL     OW 2515   1.653   0.400   0.963 -0.1174  0.8801 -0.1570
  839SOL    HW1 2516   1.599   0.485   0.978 -1.2822 -3.2575  1.4191
  839SOL    HW2 2517   1.581   0.320   0.976  0.0369 -0.7385 -1.9088
  840SOL     OW 2518   2.647   2.951   1.656  0.4906 -0.1003 -0.6224
  840SOL    HW1 2519   2.576   3.025   1.643  1.3106  2.8145  0.6223
  840SOL    HW2 2520   2.643   2.908   1.749 -0.7233  0.0063 -1.3616
  841SOL     OW 2521   1.542   0.843   3.069  0.0549  0.2941  0.2328
  841SOL    HW1 2522   1.458   0.848   3.136 -2.2484 -1.7193 -2.5556
  841SOL    HW2 2523   1.520   0.889   2.977 -0.9016 -1.8450  3.9906
  842SOL     OW 2524   0.831   1.620   1.022 -0.3173  0.7730  0.4069
  842SOL    HW1 2525   0.779   1.703   1.051 -0.3789 -2.7586 -2.4150
  842SOL    HW2 2526   0.773   1.548   0.969  1.0860 -2.1373  0.7708
  843SOL     OW 2527   0.168   0.068   1.438  0.2479  0.0919 -0.7135
  843SOL    HW1 2528   0.246   0.115   1.481 -1.1128 -1.7295  1.4538
  843SOL    HW2 2529   0.182  -0.034   1.438  0.9631  0.0230  1.1874
  844SOL     OW 2530   0.714   2.444   0.198  0.0231 -0.4154  0.1336
  844SOL    HW1 2531   0.656   2.462   0.282  1.6143 -0.5261  0.7411
  844SOL    HW2 2532   0.660   2.432   0.111  0.8235  0.4340 -0.3340
  845SOL     OW 2533   1.747   0.014   1.266  0.1674  0.0305  0.0654
  845SOL    HW1 2534   1.668  -0.004   1.324  2.2217 -1.1447  0.2897
  845SOL    HW2 2535   1.776   0.114   1.267 -1.0295 -1.7607  0.5582
  846SOL     OW 2536   1.677   3.031   0.910 -0.1970 -0.1543 -0.0819
  846SOL    HW1 2537   1.692   3.021   0.806 -0.2568  0.3826 -2.4682
  846SOL    HW2 2538   1.737   2.967   0.962 -0.4108 -3.5445  0.3111
  847SOL     OW 2539   2.084   1.618   0.147 -0.5421 -0.5213 -0.2134
  847SOL    HW1 2540   2.040   1.562   0.218 -1.2450  1.1520 -0.2198
  847SOL    HW2 2541   2.049   1.590   0.051 -0.7406 -2.1432 -1.7072
  848SOL     OW 2542   2.511   0.796   2.646 -0.2387 -0.3658  0.0217
  848SOL    HW1 2543   2.494   0.897   2.637  2.2674  0.1507  1.1707
  848SOL    HW2 2544   2.450   0.737   2.590  3.0757 -2.0831  2.3700
  849SOL     OW 2545   2.378   0.841   2.299 -0.0425  0.5822  0.0555
  849SOL    HW1 2546   2.442   0.783   2.235  1.0133  0.5692 -0.7918
  849SOL    HW2 2547   2.339   0.790   2.377  2.3617 -1.9607 -1.3002
  850SOL     OW 2548   1.509   0.217   1.267 -0.2834  0.1541  0.0784
  850SOL    HW1 2549   1.512   0.197   1.164 -1.4229  0.8567  0.8325
  850SOL    HW2 2550   1.472   0.136   1.320 -1.0910  0.1226  0.0617
  851SOL     OW 2551   0.445   1.670   0.627 -0.0257  0.1294 -0.1703
  851SOL    HW1 2552   0.413   1.759   0.673  2.4588  0.5131 -0.5534
  851SOL    HW2 2553   0.543   1.647   0.658 -1.4373 -0.0983 -1.7606
  852SOL     OW 2554   0.842   2.198   1.747 -0.1599 -0.2383  0.8272
  852SOL    HW1 2555   0.819   2.292   1.721 -2.0980 -0.2452  0.1742
  852SOL    HW2 2556   0.776   2.166   1.826 -0.7615  0.8808 -1.1164
  853SOL     OW 2557   2.592   1.507   2.567 -1.1960  0.4220 -0.3714
  853SOL    HW1 2558   2.521   1.440   2.537  3.4884  2.7678 -0.6071
  853SOL    HW2 2559   2.584   1.594   2.510 -1.1803 -1.6774 -0.9631
  854SOL     OW 2560   2.463   1.447   1.773  0.2324 -0.1020 -0.3965
  854SOL    HW1 2561   2.511   1.432   1.684  0.1112  1.1586  1.3934
  854SOL    HW2 2562   2.400   1.371   1.808  0.2756  1.7442 -0.2193
  855SOL     OW 2563   2.039   2.294   0.991 -0.0265  0.5543 -0.5127
  855SOL    HW1 2564   2.092   2.376   0.952 -1.9398 -1.0394  1.2046
  855SOL    HW2 2565   2.072   2.265   1.088  2.8407 -0.5662 -1.1396
  856SOL     OW 2566   1.429   1.442   0.882  0.2375  0.4515 -0.5088
  856SOL    HW1 2567   1.461   1.540   0.869 -1.6990 -0.3931  2.8254
  856SOL    HW2 2568   1.367   1.434   0.965 -2.1181  2.2199 -1.6785
  857SOL     OW 2569   2.904   2.524   1.072  0.5081 -0.3135  0.5504
  857SOL    HW1 2570   2.829   2.473   1.116  0.3040 -0.3275 -0.9557
  857SOL    HW2 2571   2.908   2.510   0.970  0.6127 -1.2418  0.7975
  858SOL     OW 2572   2.267   2.125   1.793 -0.7317  0.5014 -0.6192
  858SOL    HW1 2573   2.173   2.148   1.760  0.6591  0.2849  0.3357
  858SOL    HW2 2574   2.332   2.072   1.734 -0.6307 -1.5236 -0.0804
  859SOL     OW 2575   2.444   0.376   0.978  0.7647  0.5395  0.6990
  859SOL    HW1 2576   2.520   0.441   0.954  0.0315  1.1060 -3.8089
  859SOL    HW2 2577   2.476   0.303   1.046 -1.7785  1.3432 -2.6034
  860SOL     OW 2578   1.911   2.813   0.502 -0.5926 -0.3688 -0.0014
  860SOL    HW1 2579   1.897   2.777   0.406 -2.0365 -0.7737  0.5978
  860SOL    HW2 2580   1.942   2.908   0.506 -1.3695 -0.8382  1.1757
  861SOL     OW 2581   1.007   2.563   2.809  0.1892  0.7087 -0.1722
  861SOL    HW1 2582   1.070   2.645   2.805 -0.5667 -1.9929  2.6385
  861SOL    HW2 2583   0.999   2.524   2.904 -0.1264 -0.0926 -1.1187
  862SOL     OW 2584   2.974   2.625   1.563 -0.4422  0.1815 -0.1044
  862SOL    HW1 2585   3.008   2.576   1.647 -2.0755 -1.0029 -0.4078
  862SOL    HW2 2586   2.879   2.662   1.574  0.5134 -2.3272 -1.2459
  863SOL     OW 2587   1.860   2.696   0.277  0.2690  0.1652 -0.1624
  863SOL    HW1 2588   1.944   2.645   0.261 -1.0735 -0.7377 -2.7936
  863SOL    HW2 2589   1.771   2.641   0.281  1.5682 -0.1165 -3.9086
  864SOL     OW 2590   1.911   1.136   2.945 -0.0505  0.0218  0.4617
  864SOL    HW1 2591   1.929   1.118   2.843  1.6968 -0.2196  3.1361
  864SOL    HW2 2592   1.988   1.104   3.002 -0.9891  0.3893 -0.3309
  865SOL     OW 2593   2.132   1.715   0.614  0.1596 -0.6187 -0.0597
  865SOL    HW1 2594   2.155   1.768   0.699  0.3703 -1.5776 -0.2746
  865SOL    HW2 2595   2.086   1.628   0.630  1.1146  1.2938 -5.6131
  866SOL     OW 2596   2.881   2.813   1.007 -0.2989  0.6016 -0.2933
  866SOL    HW1 2597   2.954   2.813   0.927  0.2450 -0.5940 -3.0678
  866SOL    HW2 2598   2.876   2.721   1.052 -0.0324  0.8004  1.4273
  867SOL     OW 2599   0.434   1.361   0.835 -0.6073 -0.0414 -0.6533
  867SOL    HW1 2600   0.437   1.257   0.815 -1.8676 -0.3249  1.1866
  867SOL    HW2 2601   0.348   1.405   0.809  0.3524 -0.1955  0.2077
  868SOL     OW 2602   0.846   1.902   2.013 -0.1863 -0.3829  0.5012
  868SOL    HW1 2603   0.822   1.863   2.112  0.1749 -3.0475 -0.4749
  868SOL    HW2 2604   0.799   1.993   1.990 -0.1918  0.2442 -0.5950
  869SOL     OW 2605   2.524   2.005   1.652  0.1148  0.0247 -0.0043
  869SOL    HW1 2606   2.627   1.988   1.633  1.4033 -2.7040  2.8100
  869SOL    HW2 2607   2.468   1.968   1.571 -2.1017 -0.3817 -0.9302
  870SOL     OW 2608   2.395   2.513   1.193 -0.1700  0.3514  0.2528
  870SOL    HW1 2609   2.348   2.419   1.177 -0.1441 -1.2109  1.2277
  870SOL    HW2 2610   2.467   2.506   1.267  0.6924 -1.3903  0.4250
  871SOL     OW 2611   3.044   1.992   0.523  0.0576 -0.0364  0.3730
  871SOL    HW1 2612   2.952   2.044   0.519 -1.5119 -0.1363  0.2127
  871SOL    HW2 2613   3.070   1.942   0.440  2.1524  0.3623  0.7741
  872SOL     OW 2614   2.171   0.478   1.708  0.0277  0.5301 -0.5021
  872SOL    HW1 2615   2.126   0.468   1.804  0.0154  0.4373  0.1087
  872SOL    HW2 2616   2.279   0.469   1.718  0.6712 -0.0774 -0.1259
  873SOL     OW 2617   1.729   2.075   2.863 -0.0197  0.2114 -0.1415
  873SOL    HW1 2618   1.712   2.169   2.902  0.5363 -2.5322  1.1636
  873SOL    HW2 2619   1.678   2.044   2.779  0.7008 -0.3907  0.1922
  874SOL     OW 2620   0.626   2.531   0.739 -0.8496 -0.0092 -0.0663
  874SOL    HW1 2621   0.607   2.637   0.750 -0.9702 -1.2652 -0.6778
  874SOL    HW2 2622   0.721   2.495   0.759  0.9154  1.7076 -0.9220
  875SOL     OW 2623   2.304   1.576   1.456  0.0908 -0.3366  0.6017
  875SOL    HW1 2624   2.399   1.591   1.494 -1.8493  0.6268  2.6329
  875SOL    HW2 2625   2.303   1.594   1.351 -0.3819  1.1382 -0.2057
  876SOL     OW 2626   0.127   2.236   2.723 -0.3698  0.3378  0.1211
  876SOL    HW1 2627   0.163   2.153   2.768 -2.5023 -1.5797  1.0118
  876SOL    HW2 2628   0.182   2.318   2.733 -1.0121 -0.4964  2.0642
  877SOL     OW 2629   2.777   2.649   0.604  0.1273 -0.3994  0.1764
  877SOL    HW1 2630   2.792   2.749   0.602  0.2315 -0.8309  0.9982
  877SOL    HW2 2631   2.855   2.586   0.635 -1.8874  1.7781 -0.1218
  878SOL     OW 2632   2.756   1.533   2.274 -0.2116 -0.0439 -0.0553
  878SOL    HW1 2633   2.728   1.633   2.277  0.2867 -1.6748  0.0539
  878SOL    HW2 2634   2.801   1.493   2.358 -0.4708  1.8951 -1.8816
  879SOL     OW 2635   2.386   3.078   1.248  0.7971 -0.3264  0.2396
  879SOL    HW1 2636   2.421   2.979   1.262 -0.1879 -2.0463  0.6703
  879SOL    HW2 2637   2.290   3.072   1.207  0.7090  0.2828  1.1234
  880SOL     OW 2638   0.591   0.476   2.215 -0.2344  0.5859  0.7394
  880SOL    HW1 2639   0.549   0.441   2.297  0.6926  2.3747 -0.5329
  880SOL    HW2 2640   0.605   0.408   2.143 -2.0921  2.2384 -2.2042
  881SOL     OW 2641   0.861   0.081   0.413 -0.2087 -0.3334  0.4752
  881SOL    HW1 2642   0.924   0.014   0.367 -0.2660  0.4497 -0.2478
  881SOL    HW2 2643   0.808   0.140   0.344 -2.0289  0.1893  0.3427
  882SOL     OW 2644   2.768   1.777   1.668  0.5819  0.3875  0.5284
  882SOL    HW1 2645   2.849   1.712   1.644 -1.1638  1.7993  2.8536
  882SOL    HW2 2646   2.725   1.759   1.761 -0.5315  0.3962  0.4071
  883SOL     OW 2647   0.931   0.598   0.958  0.2452 -0.1083  0.3881
  883SOL    HW1 2648   0.934   0.675   1.028  0.1222  1.0035 -2.7955
  883SOL    HW2 2649   1.031   0.564   0.943  0.4745 -1.2520 -0.0616
  884SOL     OW 2650   1.168   1.865   1.076  0.1595  0.6785 -0.4292
  884SOL    HW1 2651   1.163   1.836   0.978  0.6882 -0.3129  0.6387
  884SOL    HW2 2652   1.088   1.920   1.102  0.8474 -0.1020  1.2268
  885SOL     OW 2653   2.297   1.758   2.355  0.8305 -0.2399 -0.4472
  885SOL    HW1 2654   2.215   1.700   2.392  0.3400 -2.6208  3.0566
  885SOL    HW2 2655   2.274   1.861   2.329 -1.9625  1.3663  0.5302
  886SOL     OW 2656   2.696   0.460   1.808  0.1943  0.1080 -0.2519
  886SOL    HW1 2657   2.742   0.412   1.887  2.2049  1.3603 -0.1558
  886SOL    HW2 2658   2.741   0.544   1.780 -0.7716  2.3850 -0.5136
  887SOL     OW 2659   0.179   2.035   1.303 -0.0928  0.8260  0.3960
  887SOL    HW1 2660   0.131   1.967   1.240  1.5485  0.4916 -1.0441
  887SOL    HW2 2661   0.178   2.126   1.263  0.6669 -1.5669 -1.5708
  888SOL     OW 2662   0.593   1.301   1.513 -0.0130  0.5273  0.2588
  888SOL    HW1 2663   0.630   1.313   1.418  0.0634 -2.0195  0.7926
  888SOL    HW2 2664   0.551   1.209   1.540 -2.2740 -0.1531  2.1688
  889SOL     OW 2665   0.838   2.451   2.137  0.0194 -0.1857  0.4630
  889SOL    HW1 2666   0.754   2.460   2.077 -2.0205 -4.3321 -0.9369
  889SOL    HW2 2667   0.930   2.458   2.092  0.1318 -1.8578  1.8388
  890SOL     OW 2668   2.312   2.397   0.125  0.8401  0.3461  0.2745
  890SOL    HW1 2669   2.338   2.480   0.066 -2.5198  1.0362 -0.7798
  890SOL    HW2 2670   2.231   2.416   0.184  1.3299  0.3298  0.8527
  891SOL     OW 2671   2.593   1.620   0.655 -0.4359  0.6541  0.9985
  891SOL    HW1 2672   2.578   1.553   0.734  0.5202 -2.3337  0.9654
  891SOL    HW2 2673   2.507   1.638   0.596 -1.3869  1.7014  1.0752
  892SOL     OW 2674   0.261   0.314   2.247  0.1640 -0.3940  0.0585
  892SOL    HW1 2675   0.265   0.341   2.143 -2.0840  3.9938 -3.8272
  892SOL    HW2 2676   0.343   0.341   2.309 -0.8732 -0.2224  3.0040
  893SOL     OW 2677   1.629   0.218   2.697 -0.2174  0.1781 -0.0343
  893SOL    HW1 2678   1.692   0.293   2.728 -3.3439  2.9225 -1.1605
  893SOL    HW2 2679   1.532   0.256   2.699  1.1222  1.0941 -0.6766
  894SOL     OW 2680   2.152   1.991   0.080  0.4212  0.1527  0.0895
  894SOL    HW1 2681   2.136   1.913   0.010 -2.5993 -0.4443 -1.6627
  894SOL    HW2 2682   2.210   1.962   0.162 -0.1733  1.3138 -0.2945
  895SOL     OW 2683   2.876   1.404   0.829 -0.1029 -0.0772  0.1976
  895SOL    HW1 2684   2.921   1.332   0.890  0.5763  0.3814 -3.1499
  895SOL    HW2 2685   2.939   1.484   0.807 -0.0773  0.3271  1.0910
  896SOL     OW 2686   1.744   1.760   1.188 -0.8078 -0.4635  0.0923
  896SOL    HW1 2687   1.819   1.817   1.138 -0.6214 -0.2208  1.2847
  896SOL    HW2 2688   1.656   1.809   1.203 -0.8390 -0.7213 -0.8608
  897SOL     OW 2689   0.327   0.518   3.072  0.6390  0.0606 -0.2918
  897SOL    HW1 2690   0.269   0.551   2.992 -0.3546  1.4821  0.0465
  897SOL    HW2 2691   0.407   0.583   3.092 -0.8337  0.8529  0.0751
  898SOL     OW 2692   0.557   2.868   1.081 -0.6570  0.4367 -0.8964
  898SOL    HW1 2693   0.493   2.911   1.152  0.1546  0.6057  0.8531
  898SOL    HW2 2694   0.652   2.908   1.090  0.1801  1.9010 -1.8738
  899SOL     OW 2695   2.701   0.948   1.281  0.2295  0.0582  0.7693
  899SOL    HW1 2696   2.613   0.937   1.223  1.1988  1.0036  0.6945
  899SOL    HW2 2697   2.787   0.965   1.233  0.1017 -2.6052  0.4124
  900SOL     OW 2698   0.975   2.315   2.352 -0.6418  0.0851  0.3775
  900SOL    HW1 2699   0.921   2.359   2.278  1.0880 -0.1639 -1.6056
  900SOL    HW2 2700   0.929   2.315   2.445 -2.0925  1.5285  2.4873
  901SOL     OW 2701   1.952   2.481   1.374  0.9042  0.2423 -0.1174
  901SOL    HW1 2702   1.910   2.482   1.277  0.2997  1.0698 -2.5107
  901SOL    HW2 2703   2.023   2.410   1.394  0.4645  0.3316 -0.5766
  902SOL     OW 2704   2.573   1.692   1.459  0.1981 -0.0405  0.1514
  902SOL    HW1 2705   2.645   1.731   1.522  0.2822  2.2643 -0.6537
  902SOL    HW2 2706   2.613   1.622   1.391 -1.9149 -0.3785 -3.6602
  903SOL     OW 2707   0.289   2.389   1.992 -0.1150  0.6926  0.0578
  903SOL    HW1 2708   0.210   2.357   2.041  1.0986  0.0418  1.0123
  903SOL    HW2 2709   0.272   2.457   1.916 -0.8548  0.1984 -0.5360
  904SOL     OW 2710   2.011   0.781   2.600  0.6235  0.2515  0.3879
  904SOL    HW1 2711   1.935   0.717   2.645 -2.3298  0.2542 -1.4526
  904SOL    HW2 2712   2.008   0.775   2.496  0.2563 -0.8295  2.3593
  905SOL     OW 2713   2.771   0.034   2.575  0.6907 -0.3768 -0.9122
  905SOL    HW1 2714   2.839  -0.049   2.577 -0.0462 -0.3189  0.5174
  905SOL    HW2 2715   2.818   0.123   2.560  0.6244 -2.3756  2.1657
  906SOL     OW 2716   0.115   1.793   1.971  0.3162  0.2190 -0.7238
  906SOL    HW1 2717   0.074   1.799   1.879  0.2709  0.0967 -1.5161
  906SOL    HW2 2718   0.215   1.819   1.978 -0.0123 -0.9519  1.4123
  907SOL     OW 2719   0.203   2.427   1.045  0.1398 -0.1646 -0.0636
  907SOL    HW1 2720   0.274   2.501   1.024  0.1044 -1.7345 -0.5024
  907SOL    HW2 2721   0.147   2.403   0.965  0.7063 -2.0743  2.3323
  908SOL     OW 2722   2.657   2.858   0.379  0.8345  0.0041 -0.1390
  908SOL    HW1 2723   2.645   2.858   0.277 -0.4489  2.6355  0.1384
  908SOL    HW2 2724   2.659   2.762   0.417  0.4407  0.6691  1.9452
  909SOL     OW 2725   0.689   0.937   2.623  0.1302  0.5119  0.9198
  909SOL    HW1 2726   0.663   0.839   2.613  2.2783  1.5672 -1.8650
  909SOL    HW2 2727   0.750   0.972   2.548  1.3082 -0.8570 -0.6822
  910SOL     OW 2728   1.715   1.795   2.004  0.1092  0.1378  0.3283
  910SOL    HW1 2729   1.788   1.829   1.939 -0.4326  0.9323  0.5061
  910SOL    HW2 2730   1.660   1.877   2.040  0.6647  0.5549 -1.5130
  911SOL     OW 2731   1.739   3.025   1.574  0.0910  0.1156  0.2463
  911SOL    HW1 2732   1.806   2.996   1.500  0.1225  1.4747  1.2524
  911SOL    HW2 2733   1.734   2.966   1.659 -1.5484  2.3985 -1.8058
  912SOL     OW 2734   2.843   0.937   0.755  0.8294  0.1516 -0.0665
  912SOL    HW1 2735   2.861   0.913   0.855 -1.0572 -0.4579  0.0833
  912SOL    HW2 2736   2.782   1.020   0.746 -1.6126 -1.8226  0.0712
  913SOL     OW 2737   2.578   1.274   1.555  0.2820 -0.3415  0.2289
  913SOL    HW1 2738   2.597   1.191   1.608  2.2215  0.1666  1.3014
  913SOL    HW2 2739   2.616   1.264   1.456 -0.5486  0.1013  0.6977
  914SOL     OW 2740   2.837   0.506   1.283  0.0710 -0.0924  0.1020
  914SOL    HW1 2741   2.792   0.430   1.330  0.8642 -0.2525  2.0881
  914SOL    HW2 2742   2.812   0.592   1.330  1.0426 -1.7800 -0.5904
  915SOL     OW 2743   1.195   0.824   1.050  0.4299 -0.5145  0.2247
  915SOL    HW1 2744   1.268   0.867   1.110 -0.2946 -2.5764 -0.1019
  915SOL    HW2 2745   1.110   0.802   1.100  0.8023 -1.5773  1.5305
  916SOL     OW 2746   0.536   0.050   0.583  0.4627 -0.1072  0.4277
  916SOL    HW1 2747   0.549   0.131   0.644  0.6179 -1.1729  0.0316
  916SOL    HW2 2748   0.563   0.065   0.482 -0.6859 -1.8496  0.8990
  917SOL     OW 2749   2.748   2.590   1.893 -0.6961 -0.6793 -0.1178
  917SOL    HW1 2750   2.682   2.662   1.873  0.9420  0.9963  0.6502
  917SOL    HW2 2751   2.849   2.622   1.886  2.3296  1.8769  2.3017
  918SOL     OW 2752   1.016   2.190   3.085  0.1949 -0.4872 -0.3568
  918SOL    HW1 2753   0.984   2.228   3.177 -1.5087  0.0023 -2.9557
  918SOL    HW2 2754   0.989   2.093   3.067 -0.1326  0.8325  1.0348
  919SOL     OW 2755   0.907   1.612   2.793 -0.2987 -0.2884  0.0388
  919SOL    HW1 2756   0.981   1.662   2.738  2.3883  0.9414  0.4566
  919SOL    HW2 2757   0.875   1.525   2.744  3.1285 -1.1747 -3.5329
  920SOL     OW 2758   1.223   2.086   2.502  0.2416  0.1304 -0.3110
  920SOL    HW1 2759   1.170   2.075   2.415 -0.0184 -0.7129 -0.7025
  920SOL    HW2 2760   1.273   2.001   2.526 -3.4335  0.5536 -3.1989
  921SOL     OW 2761   1.055   0.120   2.580  0.1838 -0.8962 -0.7057
  921SOL    HW1 2762   1.062   0.073   2.490 -0.6734  0.0663  3.1003
  921SOL    HW2 2763   0.959   0.118   2.619 -0.4827  2.0982  1.4964
  922SOL     OW 2764   2.078   2.419   2.781 -0.0526  0.1855  0.2971
  922SOL    HW1 2765   2.117   2.323   2.785 -3.0770  0.8200 -2.2937
  922SOL    HW2 2766   2.066   2.444   2.682  0.2158 -1.1939 -0.3281
  923SOL     OW 2767   1.169   2.707   0.196  0.0296  0.9000 -0.1078
  923SOL    HW1 2768   1.258   2.737   0.233 -0.6172  1.0358 -0.9584
  923SOL    HW2 2769   1.170   2.608   0.164 -0.0646  0.6390  1.4150
  924SOL     OW 2770   2.852   1.573   0.084 -0.1005  0.0812  0.1597
  924SOL    HW1 2771   2.779   1.576   0.010 -1.4462 -0.3748  1.8465
  924SOL    HW2 2772   2.917   1.653   0.073  2.1062 -0.3916 -1.4732
  925SOL     OW 2773   0.096   2.880   1.605 -0.2394  0.1515 -0.2813
  925SOL    HW1 2774   0.013   2.935   1.637  0.1802 -0.3999  2.4505
  925SOL    HW2 2775   0.108   2.870   1.499  1.6411  3.5872 -0.3506
  926SOL     OW 2776   1.461   2.893   1.307 -0.0844  0.0374 -0.2456
  926SOL    HW1 2777   1.472   2.876   1.207 -0.4558  1.6524  0.4201
  926SOL    HW2 2778   1.447   2.995   1.329 -1.4776  1.3152 -2.8089
  927SOL     OW 2779   0.261   2.554   1.778  0.2410 -0.1281  0.0698
  927SOL    HW1 2780   0.215   2.491   1.710 -0.6765 -1.7124  1.2306
  927SOL    HW2 2781   0.327   2.612   1.729 -1.0173 -0.0722  0.7639
  928SOL     OW 2782   1.592   2.021   2.087 -0.2569  0.1922  0.1252
  928SOL    HW1 2783   1.622   2.120   2.092 -2.7015  2.6661  0.9167
  928SOL    HW2 2784   1.494   2.017   2.051  1.5818  2.0605 -1.6757
  929SOL     OW 2785   2.351   2.438   2.828  0.4806 -0.1175  0.3917
  929SOL    HW1 2786   2.246   2.441   2.824 -0.3113  0.2847  0.6322
  929SOL    HW2 2787   2.391   2.434   2.736 -0.3423  0.7939 -1.1487
  930SOL     OW 2788   2.204   1.979   1.090  0.0310 -0.5532  0.2575
  930SOL    HW1 2789   2.218   1.937   1.183 -0.5233  1.5002 -0.7396
  930SOL    HW2 2790   2.252   2.072   1.082 -0.1380 -1.4877  2.1646
  931SOL     OW 2791   0.584   1.742   2.657  0.0016 -0.1439  0.0890
  931SOL    HW1 2792   0.661   1.709   2.712 -0.7759  1.7231 -0.6716
  931SOL    HW2 2793   0.557   1.671   2.589 -3.7447  3.3145  3.6630
  932SOL     OW 2794   0.493   0.096   2.900  0.5625 -0.1394 -0.4211
  932SOL    HW1 2795   0.588   0.136   2.908 -1.3703  1.1287 -1.1264
  932SOL    HW2 2796   0.488  -0.006   2.927 -2.8291  0.7841  3.4250
  933SOL     OW 2797   1.069   0.786   2.985  0.4016  0.7156 -0.7750
  933SOL    HW1 2798   1.140   0.813   3.056  1.1835  0.2943  1.3376
  933SOL    HW2 2799   1.027   0.865   2.931 -0.2637  1.7578 -2.0272
  934SOL     OW 2800   0.838   2.940   2.751  0.0061  0.7617 -0.2674
  934SOL    HW1 2801   0.873   2.877   2.678  2.4847  1.5915  0.9485
  934SOL    HW2 2802   0.847   2.900   2.852  0.4309 -2.0579 -0.6985
  935SOL     OW 2803   3.089   0.563   0.919  0.3124 -0.2472 -0.2115
  935SOL    HW1 2804   3.079   0.505   0.832  3.3557  0.5736  0.0189
  935SOL    HW2 2805   2.993   0.596   0.959  1.7315 -1.3697 -0.4570
  936SOL     OW 2806   1.104   2.971   0.144  0.2766 -0.6999  0.5079
  936SOL    HW1 2807   1.156   3.015   0.062  2.1813  0.9380 -0.6486
  936SOL    HW2 2808   1.130   2.872   0.149 -0.3036  0.8255  0.6423
  937SOL     OW 2809   1.952   2.642   2.097 -0.0559 -0.0646  0.4064
  937SOL    HW1 2810   1.876   2.681   2.151  1.4850 -0.8011 -2.0430
  937SOL    HW2 2811   1.953   2.678   2.003  0.0994 -0.5693 -0.1829
  938SOL     OW 2812   2.763   2.175   1.524 -0.5157  0.1457 -0.1776
  938SOL    HW1 2813   2.710   2.259   1.558 -1.3516 -1.3488  3.1184
  938SOL    HW2 2814   2.843   2.142   1.588  0.0340 -1.2124  0.7831
  939SOL     OW 2815   2.725   1.030   2.518 -0.1570 -0.6024 -0.3312
  939SOL    HW1 2816   2.754   0.936   2.533  0.1615  1.0094  1.5105
  939SOL    HW2 2817   2.744   1.094   2.601  1.2350  0.9979 -0.6571
  940SOL     OW 2818   1.060   0.462   2.646 -0.1481  0.1647  0.3073
  940SOL    HW1 2819   1.115   0.394   2.603  1.3097  0.4715  1.6109
  940SOL    HW2 2820   0.963   0.433   2.649 -0.5238 -1.8781 -1.2472
  941SOL     OW 2821   0.063   2.876   2.220 -0.7238  0.3179  0.3996
  941SOL    HW1 2822   0.042   2.774   2.218  0.2063 -0.7275 -0.6305
  941SOL    HW2 2823   0.127   2.911   2.294  0.2601  0.6301  2.0204
  942SOL     OW 2824   0.090   0.069   2.533  0.5723  0.1351 -0.5628
  942SOL    HW1 2825   0.140   0.074   2.624  0.9799  2.8588 -0.6204
  942SOL    HW2 2826   0.064   0.164   2.493  1.5956  0.3140  0.1520
  943SOL     OW 2827   2.088   1.638   2.447  0.0156  0.5806  0.6657
  943SOL    HW1 2828   2.119   1.549   2.487  2.2100  0.5193  1.4409
  943SOL    HW2 2829   1.996   1.637   2.408  3.5662  2.6103 -3.4639
  944SOL     OW 2830   2.185   2.346   1.501  0.5724 -0.0657  0.0978
  944SOL    HW1 2831   2.214   2.439   1.529 -1.4682 -3.6498 -0.6300
  944SOL    HW2 2832   2.146   2.294   1.577  2.1517 -1.8929  0.5652
  945SOL     OW 2833   0.626   1.474   0.379 -0.0972  0.7344  0.4839
  945SOL    HW1 2834   0.667   1.501   0.285 -1.2567  2.6388  2.1169
  945SOL    HW2 2835   0.655   1.375   0.399  1.5875 -0.0204 -0.9201
  946SOL     OW 2836   0.337   1.022   2.609 -0.1998 -0.3581  0.6713
  946SOL    HW1 2837   0.270   0.985   2.540  0.9126 -1.1271  0.9574
  946SOL    HW2 2838   0.356   1.126   2.603  1.3571  2.9124  0.6725
  947SOL     OW 2839   1.472   0.456   0.147  0.1090 -0.2800  0.1618
  947SOL    HW1 2840   1.437   0.434   0.239  0.1057 -2.8214  1.0585
  947SOL    HW2 2841   1.422   0.401   0.073  1.3250  0.6757  1.1319
  948SOL     OW 2842   1.965   0.017   2.187  0.2797 -0.1117 -0.4995
  948SOL    HW1 2843   1.923   0.001   2.092  2.0021  1.4018  2.1413
  948SOL    HW2 2844   1.969  -0.072   2.245  0.0934 -0.5313  2.1240
  949SOL     OW 2845   0.582   2.531   0.464 -0.3199  0.5531 -0.2857
  949SOL    HW1 2846   0.602   2.626   0.432  0.5058 -0.4038  1.4491
  949SOL    HW2 2847   0.596   2.513   0.565  0.3409 -0.2395 -1.1743
  950SOL     OW 2848   0.291   2.091   3.008 -0.4706 -0.6996  0.0970
  950SOL    HW1 2849   0.223   2.163   3.044 -1.3895  0.1752 -1.2626
  950SOL    HW2 2850   0.277   1.994   3.045 -0.0836 -1.2109  0.2395
  951SOL     OW 2851   1.152   2.781   2.777  0.1057  0.1542  0.2900
  951SOL    HW1 2852   1.117   2.846   2.706 -1.0409 -0.2100 -0.0863
  951SOL    HW2 2853   1.250   2.791   2.788 -1.4121  0.4437 -0.8576
  952SOL     OW 2854   0.096   1.704   0.467  0.5910  0.5937 -0.3833
  952SOL    HW1 2855   0.193   1.748   0.470 -1.7112  1.8657 -0.2966
  952SOL    HW2 2856   0.042   1.688   0.554  0.5685  2.6800  1.9182
  953SOL     OW 2857   2.526   1.750   0.177 -0.6080  0.6874  0.6524
  953SOL    HW1 2858   2.519   1.644   0.194  2.4795 -0.2428  1.6984
  953SOL    HW2 2859   2.526   1.783   0.077  0.7827 -0.3304  2.5714
  954SOL     OW 2860   2.168   0.525   1.061  0.1113 -1.0922  0.2168
  954SOL    HW1 2861   2.095   0.532   0.983 -3.0802 -0.8234 -1.5789
  954SOL    HW2 2862   2.259   0.489   1.031 -2.5323 -0.4913  1.5369
  955SOL     OW 2863   0.238   2.656   1.302 -0.6421 -0.1593 -0.3010
  955SOL    HW1 2864   0.146   2.607   1.300  0.2757 -1.2143 -0.9078
  955SOL    HW2 2865   0.289   2.657   1.215 -0.3895  1.6397  0.3813
  956SOL     OW 2866   2.764   2.479   2.521 -0.7132  0.0186  0.1055
  956SOL    HW1 2867   2.766   2.380   2.492 -1.1931  1.7933 -0.8456
  956SOL    HW2 2868   2.782   2.549   2.440 -2.3678  2.2829 -2.0856
  957SOL     OW 2869   1.539   2.049   2.657 -0.4054 -1.3135 -0.2892
  957SOL    HW1 2870   1.487   1.965   2.628 -1.0720 -0.9624  0.1797
  957SOL    HW2 2871   1.580   2.102   2.578  1.5738  3.5201 -1.4103
  958SOL     OW 2872   2.654   2.323   3.017  0.0818 -0.3237  0.2242
  958SOL    HW1 2873   2.556   2.357   3.001  0.9216 -1.4491 -1.8527
  958SOL    HW2 2874   2.653   2.221   3.032 -2.8934  0.8820 -0.5724
  959SOL     OW 2875   0.237   2.826   0.024 -0.1959 -0.3221  0.2197
  959SOL    HW1 2876   0.137   2.824   0.045  0.0853 -0.8233 -0.3842
  959SOL    HW2 2877   0.273   2.730   0.012 -1.3615 -0.5611 -2.1366
  960SOL     OW 2878   2.001   0.484   1.937 -0.7177 -0.8280  0.6839
  960SOL    HW1 2879   1.973   0.569   1.883  1.9098  0.7253 -1.3565
  960SOL    HW2 2880   2.025   0.510   2.038 -1.2381  1.7417 -1.2860
  961SOL     OW 2881   2.631   1.864   1.040  0.3810 -0.0945  0.0456
  961SOL    HW1 2882   2.598   1.914   0.951  0.7422 -0.4234 -2.0891
  961SOL    HW2 2883   2.690   1.928   1.097  0.0022 -1.8985  2.2230
  962SOL     OW 2884   1.270   0.916   0.054  0.3839 -0.3696 -0.0876
  962SOL    HW1 2885   1.266   0.964  -0.040  2.2112 -0.0913 -0.0549
  962SOL    HW2 2886   1.276   0.975   0.139 -0.6981 -1.9001 -1.9077
  963SOL     OW 2887   2.305   2.633   1.848 -0.5486 -0.7290 -0.7163
  963SOL    HW1 2888   2.320   2.541   1.896 -1.1732 -1.4163 -0.1909
  963SOL    HW2 2889   2.328   2.718   1.904  1.1948 -1.1793  1.2323
  964SOL     OW 2890   2.452   0.383   1.698 -0.2719 -0.1377  0.5851
  964SOL    HW1 2891   2.545   0.419   1.729  0.5755 -1.1544 -1.9767
  964SOL    HW2 2892   2.435   0.403   1.600  1.4372 -0.3586  0.5121
  965SOL     OW 2893   2.650   3.019   0.118  0.2555 -0.1897 -0.3209
  965SOL    HW1 2894   2.699   2.987   0.038  1.3250  0.6224  2.7605
  965SOL    HW2 2895   2.544   3.021   0.108 -1.1188  3.2853  3.3929
  966SOL     OW 2896   2.565   2.620   2.159  0.0954  0.5008  0.0251
  966SOL    HW1 2897   2.505   2.560   2.101 -0.2877  0.7527  0.0911
  966SOL    HW2 2898   2.551   2.721   2.139 -0.6895  1.5063 -0.9657
  967SOL     OW 2899   2.775   2.838   2.453 -0.1242 -0.1788 -0.0540
  967SOL    HW1 2900   2.787   2.752   2.398 -0.3468  1.2930  0.2531
  967SOL    HW2 2901   2.867   2.885   2.476  0.2187  1.5163 -0.1943
  968SOL     OW 2902   1.999   1.049   2.707  0.0711 -0.3732  0.0806
  968SOL    HW1 2903   1.964   1.129   2.653  1.1334 -1.6585 -1.3140
  968SOL    HW2 2904   1.972   0.961   2.657 -0.7774  2.4070 -1.6944
  969SOL     OW 2905   2.724   2.328   1.146 -0.1978 -0.1194  0.3837
  969SOL    HW1 2906   2.670   2.307   1.060  1.0098  1.5083 -0.9828
  969SOL    HW2 2907   2.780   2.248   1.182 -3.3066 -0.7363  0.1938
  970SOL     OW 2908   1.107   2.211   1.776  0.2557 -0.5193  0.3976
  970SOL    HW1 2909   1.006   2.201   1.758  3.4794 -0.3273 -0.6128
  970SOL    HW2 2910   1.117   2.250   1.871 -3.8485 -1.3569 -0.2018
  971SOL     OW 2911   2.843   2.067   1.937 -0.3458  0.4829  0.4373
  971SOL    HW1 2912   2.841   2.171   1.952 -1.1943 -2.3985  1.8242
  971SOL    HW2 2913   2.892   2.043   1.848 -4.2389  0.8047 -0.0697
  972SOL     OW 2914   2.064   2.427   0.258 -0.1629  0.3484  0.5169
  972SOL    HW1 2915   2.004   2.345   0.223 -0.7793  1.0767  0.8278
  972SOL    HW2 2916   2.045   2.456   0.357 -0.8105 -0.4473  1.0840
  973SOL     OW 2917   1.283   1.069   1.943  0.6274  0.1706 -0.0061
  973SOL    HW1 2918   1.223   1.018   1.876  1.2929  0.7082  0.9235
  973SOL    HW2 2919   1.261   1.166   1.944 -2.0248 -0.0916  0.0519
  974SOL     OW 2920   1.653   0.534   1.894  0.2813  0.5027 -0.2043
  974SOL    HW1 2921   1.743   0.565   1.849  0.5606 -3.8313  0.9630
  974SOL    HW2 2922   1.589   0.614   1.910 -1.4584 -1.5529 -2.2020
  975SOL     OW 2923   2.398   3.069   3.080  0.4510  0.1414  0.4468
  975SOL    HW1 2924   2.337   3.033   3.156  1.7352  0.6313  1.0721
  975SOL    HW2 2925   2.393   3.021   2.985 -0.9272 -2.6292 -2.1742
  976SOL     OW 2926   1.921   2.889   2.323  0.3543  0.2323  0.0959
  976SOL    HW1 2927   1.851   2.828   2.275 -2.8969 -0.2432 -0.5252
  976SOL    HW2 2928   1.925   2.867   2.420  1.4575  0.9033 -2.1845
  977SOL     OW 2929   0.478   0.664   1.008 -0.3708 -0.6280 -0.0218
  977SOL    HW1 2930   0.379   0.653   0.989 -1.4535 -0.5702  0.1743
  977SOL    HW2 2931   0.544   0.610   0.940 -3.3747 -2.4906 -1.6038
   3.10000   3.10000   3.10000
