1000 SPC/Fw water molecules t=   0.79000 step= 790
 2931
    1SOL     OW    1   2.479   0.379   2.602 -0.2054 -1.1436  0.2499
    1SOL    HW1    2   2.519   0.284   2.593  0.6071 -0.3417 -2.7180
    1SOL    HW2    3   2.499   0.430   2.688 -1.7654  0.4383 -0.1998
    2SOL     OW    4   2.753   3.077   1.420 -0.4043  0.6180  0.6956
    2SOL    HW1    5   2.823   3.085   1.345 -0.7475 -1.5623 -0.5581
    2SOL    HW2    6   2.730   3.164   1.471 -0.2342  0.4551 -1.7608
    3SOL     OW    7   2.742   2.623   0.347 -0.3223 -0.1133  0.4842
    3SOL    HW1    8   2.727   2.521   0.352  0.8713 -1.5769 -1.2017
    3SOL    HW2    9   2.802   2.660   0.425  0.2244 -1.2738  1.7643
    4SOL     OW   10   1.279   1.476   2.359  0.1094 -0.0850 -0.5026
    4SOL    HW1   11   1.184   1.515   2.354 -0.7699 -1.0554  0.1523
    4SOL    HW2   12   1.272   1.377   2.376  0.0439 -1.2524  3.0883
    5SOL     OW   13   1.139   1.510   3.087  0.0615 -0.1917 -0.2105
    5SOL    HW1   14   1.216   1.576   3.100 -1.2586 -1.1515 -2.6426
    5SOL    HW2   15   1.045   1.552   3.115 -0.8158 -0.8812  2.5718
    6SOL     OW   16   0.102   1.873   2.942  0.6641 -0.6563 -0.2005
    6SOL    HW1   17   0.016   1.875   3.005 -1.3506  0.3693  1.6424
    6SOL    HW2   18   0.168   1.816   3.000  0.0971  0.5816 -0.0793
    7SOL     OW   19   2.581   0.942   1.148  0.8905 -0.6642 -0.2721
    7SOL    HW1   20   2.499   0.883   1.155 -0.6690  0.5459 -1.3560
    7SOL    HW2   21   2.602   0.974   1.051 -0.7311 -2.0319 -0.6916
    8SOL     OW   22   0.386   0.611   1.523  0.2339  0.6818  0.8393
    8SOL    HW1   23   0.478   0.592   1.568 -0.4390 -1.7673 -0.7344
    8SOL    HW2   24   0.388   0.603   1.418  1.4541  2.2558 -0.1685
    9SOL     OW   25   1.174   0.877   2.387 -0.1858 -0.1039 -0.0496
    9SOL    HW1   26   1.236   0.911   2.309  0.6093 -1.9827 -0.5755
    9SOL    HW2   27   1.099   0.811   2.361  1.4658 -0.7002 -0.8471
   10SOL     OW   28   0.638   1.321   1.297  0.1489  0.3740  0.1029
   10SOL    HW1   29   0.547   1.320   1.247 -0.7957  0.0425 -0.2931
   10SOL    HW2   30   0.676   1.423   1.282 -0.3825  0.8295 -0.6901
   11SOL     OW   31   2.365   2.737   0.855 -0.4393  0.0744 -0.4936
   11SOL    HW1   32   2.297   2.755   0.928 -1.3635 -0.8980 -3.1473
   11SOL    HW2   33   2.461   2.754   0.884 -1.3249  2.8739 -2.4120
   12SOL     OW   34   1.478   0.904   0.357  0.3793 -0.0575 -0.1748
   12SOL    HW1   35   1.388   0.957   0.340  0.3543  1.2960 -0.6062
   12SOL    HW2   36   1.501   0.818   0.299 -0.8416 -1.1152 -0.9528
   13SOL     OW   37   2.465   0.659   1.781  0.3561 -0.2825  0.0327
   13SOL    HW1   38   2.376   0.671   1.831  0.5312  2.0415  0.5680
   13SOL    HW2   39   2.452   0.659   1.676 -2.0204  1.5666 -0.9083
   14SOL     OW   40   1.900   0.056   0.737 -0.2718 -0.1972 -0.0154
   14SOL    HW1   41   1.842   0.085   0.652  0.0814 -0.9512  0.5548
   14SOL    HW2   42   1.841  -0.003   0.796  0.7389  0.1657 -0.8023
   15SOL     OW   43   1.985   2.079   2.733  0.1979  0.4889  0.0111
   15SOL    HW1   44   1.925   2.147   2.781 -0.8470 -0.1123  1.4503
   15SOL    HW2   45   1.929   2.001   2.694  1.0169 -0.1785  0.3386
   16SOL     OW   46   1.613   1.716   2.962  0.2767  0.5881  0.1842
   16SOL    HW1   47   1.658   1.623   2.951 -0.1996 -0.7099  0.2897
   16SOL    HW2   48   1.663   1.780   3.024  0.7167 -0.8413  0.6339
   17SOL     OW   49   0.150   0.521   0.190 -0.2078 -0.1398  0.5521
   17SOL    HW1   50   0.245   0.539   0.145  0.4194  0.7321  2.1356
   17SOL    HW2   51   0.074   0.534   0.122  2.8724 -1.4634 -3.4250
   18SOL     OW   52   0.948   2.956   2.097  0.5156 -0.3765 -0.0296
   18SOL    HW1   53   0.879   2.879   2.093  3.2055  0.9039  0.6103
   18SOL    HW2   54   1.029   2.933   2.037  3.4263 -1.1515 -0.8316
   19SOL     OW   55   0.526   0.820   1.892  0.4916 -0.2537  0.1801
   19SOL    HW1   56   0.528   0.813   1.994 -0.9618  0.6817 -1.2657
   19SOL    HW2   57   0.608   0.854   1.844 -4.9273  0.4054  1.2067
   20SOL     OW   58   0.227   2.712   0.846 -0.2032 -0.3066  0.3270
   20SOL    HW1   59   0.147   2.749   0.791 -1.0321 -0.3109  0.8056
   20SOL    HW2   60   0.299   2.674   0.782  0.7478  0.7562  0.3819
   21SOL     OW   61   2.745   0.214   2.095 -0.4382 -0.2089  0.0513
   21SOL    HW1   62   2.686   0.159   2.031  1.8385  0.3293  0.9288
   21SOL    HW2   63   2.823   0.160   2.133 -0.3757  0.8160 -1.0517
   22SOL     OW   64   2.381   0.231   0.110  0.5835  0.0882  0.7621
   22SOL    HW1   65   2.367   0.131   0.088 -0.1435  0.8033  2.1851
   22SOL    HW2   66   2.290   0.278   0.115 -1.8240 -0.1637  3.0828
   23SOL     OW   67   2.772   0.646   0.644 -0.0188  0.3503  0.2150
   23SOL    HW1   68   2.797   0.552   0.605  2.4172  1.2765  1.1369
   23SOL    HW2   69   2.766   0.728   0.573  1.3769  1.3782  1.0210
   24SOL     OW   70   0.180   1.916   0.374  0.5064  0.0118 -0.1777
   24SOL    HW1   71   0.161   1.998   0.309  3.9451  0.4622 -1.5734
   24SOL    HW2   72   0.277   1.882   0.366  1.4600 -1.5575 -3.2804
   25SOL     OW   73   2.206   0.549   0.333 -0.3302 -0.0313  0.3703
   25SOL    HW1   74   2.232   0.613   0.256  1.1758 -1.9469 -3.1704
   25SOL    HW2   75   2.259   0.463   0.327 -0.4532  1.6611 -1.8305
   26SOL     OW   76   2.529   2.096   2.090 -0.3094 -0.2705 -0.1441
   26SOL    HW1   77   2.571   2.178   2.140 -0.7577 -1.2373 -0.4440
   26SOL    HW2   78   2.590   2.054   2.020  1.6586  1.7211 -0.7745
   27SOL     OW   79   0.600   2.973   0.222 -0.0541  0.0324  0.3191
   27SOL    HW1   80   0.703   2.947   0.205 -0.3920  0.4027  0.3303
   27SOL    HW2   81   0.543   2.994   0.138  0.5022 -0.3298 -0.4262
   28SOL     OW   82   1.584   0.158   0.287 -0.4302 -0.0032 -0.1059
   28SOL    HW1   83   1.625   0.139   0.190  1.7263  0.7609 -0.4869
   28SOL    HW2   84   1.584   0.261   0.306 -1.8454 -1.2917  0.2366
   29SOL     OW   85   1.958   0.599   0.422  0.1905  0.2231  0.3169
   29SOL    HW1   86   1.943   0.699   0.414  2.1016 -3.2870 -1.6055
   29SOL    HW2   87   2.058   0.567   0.402  0.0914  0.0407 -3.1329
   30SOL     OW   88   0.191   1.990   0.913 -0.5545 -0.1939  0.2030
   30SOL    HW1   89   0.200   2.005   0.810 -0.2746 -1.0106  2.4006
   30SOL    HW2   90   0.099   2.016   0.946  3.6145 -0.0164  0.3562
   31SOL     OW   91   2.120   3.064   2.314  0.2075  0.0386  0.0540
   31SOL    HW1   92   2.119   3.114   2.404 -2.6055 -0.7916  0.3919
   31SOL    HW2   93   2.040   2.996   2.320  0.6868 -2.0328 -1.7518
   32SOL     OW   94   2.962   0.099   0.197 -0.0082  0.0689  0.1765
   32SOL    HW1   95   2.924   0.023   0.261 -0.5951 -0.7797  1.3144
   32SOL    HW2   96   3.043   0.153   0.229 -1.1400 -1.7827 -2.7290
   33SOL     OW   97   0.947   0.279   0.619  0.3809 -0.0597 -0.0062
   33SOL    HW1   98   0.924   0.189   0.576 -2.2900 -0.1096 -0.2945
   33SOL    HW2   99   1.039   0.322   0.591  0.7767 -1.8811 -1.0477
   34SOL     OW  100   0.302   2.782   1.078 -0.2179 -0.1622 -0.4362
   34SOL    HW1  101   0.257   2.749   0.989  0.2106 -0.8323  2.4030
   34SOL    HW2  102   0.396   2.821   1.066 -0.0423 -0.6287  0.9220
   35SOL     OW  103   0.024   0.166   1.858 -0.2105 -0.4284  0.0550
   35SOL    HW1  104   0.068   0.072   1.868  0.0225 -1.8059 -0.3620
   35SOL    HW2  105  -0.015   0.172   1.761 -1.2141  0.6090 -0.1210
   36SOL     OW  106   1.961   1.160   1.745 -0.4087  0.1879 -0.2989
   36SOL    HW1  107   2.028   1.128   1.673 -0.9232 -1.9005  2.2179
   36SOL    HW2  108   1.997   1.212   1.819 -2.6453  0.2994  0.5523
   37SOL     OW  109   1.204   0.151   0.919 -0.0809 -0.0572  0.5016
   37SOL    HW1  110   1.240   0.228   0.981 -1.0964 -1.0735  2.0025
   37SOL    HW2  111   1.275   0.081   0.895 -0.5877  1.5347  0.2966
   38SOL     OW  112   1.077   2.804   2.468 -0.0201 -0.2718  0.3151
   38SOL    HW1  113   1.015   2.723   2.498 -1.2813 -2.9999 -1.0110
   38SOL    HW2  114   1.028   2.870   2.409  0.2579 -1.0104  2.8698
   39SOL     OW  115   2.309   1.393   3.026 -0.0357 -0.3193 -0.0553
   39SOL    HW1  116   2.359   1.305   3.051 -3.5436 -0.5046  0.4528
   39SOL    HW2  117   2.235   1.419   3.095  2.2358  1.9553  2.9936
   40SOL     OW  118   2.095   2.486   2.561 -0.2807 -0.3130  0.1608
   40SOL    HW1  119   2.051   2.583   2.566  2.1563  1.9521 -2.2064
   40SOL    HW2  120   2.026   2.412   2.538  0.1171 -0.1195 -2.4251
   41SOL     OW  121   3.012   0.687   2.829  0.6658 -0.3046  0.7540
   41SOL    HW1  122   2.947   0.771   2.830 -0.1801  1.4826  0.0631
   41SOL    HW2  123   2.955   0.601   2.800  4.4132 -1.5135  0.4997
   42SOL     OW  124   1.754   1.745   0.500  0.3776 -0.4008 -0.8194
   42SOL    HW1  125   1.717   1.648   0.508 -1.4309 -2.0489 -1.5277
   42SOL    HW2  126   1.781   1.775   0.405  1.5571 -0.1507 -1.2173
   43SOL     OW  127   0.459   1.688   1.099  0.0844 -0.1671  0.3855
   43SOL    HW1  128   0.481   1.589   1.116  1.6151 -2.6708 -0.5242
   43SOL    HW2  129   0.385   1.706   1.033  1.4990  1.3365  1.9242
   44SOL     OW  130   1.830   2.495   3.062 -0.6432  0.0938  0.0158
   44SOL    HW1  131   1.815   2.576   3.003  0.4836 -0.6840 -1.0774
   44SOL    HW2  132   1.880   2.426   3.006 -0.7845  0.1017 -2.4281
   45SOL     OW  133   0.430   1.940   2.598  0.7033  0.0870  0.4506
   45SOL    HW1  134   0.377   1.914   2.511  1.7907 -4.1815 -1.8040
   45SOL    HW2  135   0.467   1.853   2.647 -0.7552 -0.7270 -0.0142
   46SOL     OW  136   1.249   0.704   0.207 -0.1820  0.2902 -0.3519
   46SOL    HW1  137   1.291   0.764   0.135 -1.0490 -0.6591  0.2341
   46SOL    HW2  138   1.154   0.667   0.182  2.1570  0.0243  0.9393
   47SOL     OW  139   0.230   2.494   1.603  0.1026  0.2177  0.1464
   47SOL    HW1  140   0.232   2.393   1.573 -1.3740  0.9627  0.8101
   47SOL    HW2  141   0.230   2.562   1.522  1.7811  2.7700 -1.9386
   48SOL     OW  142   2.639   0.643   0.129 -0.0118  0.2984 -0.1887
   48SOL    HW1  143   2.628   0.637   0.230  1.2754 -1.9597  0.1481
   48SOL    HW2  144   2.731   0.685   0.104 -4.0610  1.9393 -0.6285
   49SOL     OW  145   0.324   0.793   1.708  0.0330  0.2876  0.4423
   49SOL    HW1  146   0.409   0.789   1.767  0.8894  2.4341 -1.2800
   49SOL    HW2  147   0.339   0.729   1.627  1.6090  0.0133 -0.4947
   50SOL     OW  148   1.673   1.117   0.290 -0.4855 -0.4741  0.6675
   50SOL    HW1  149   1.662   1.035   0.233 -0.6956  1.2588  0.3220
   50SOL    HW2  150   1.600   1.131   0.357  0.6809  2.2416 -1.8658
   51SOL     OW  151   2.903   1.884   0.316 -0.2526 -0.2393 -0.2013
   51SOL    HW1  152   2.817   1.838   0.285  1.1579  0.1791  0.7255
   51SOL    HW2  153   2.970   1.811   0.357  0.8505  0.1703 -0.0908
   52SOL     OW  154   0.785   2.002   0.494 -0.2644 -0.2143  0.2388
   52SOL    HW1  155   0.699   2.042   0.527  3.2607 -0.4345  0.4866
   52SOL    HW2  156   0.814   1.934   0.569 -0.1439  1.2633 -0.0827
   53SOL     OW  157   0.177   0.419   1.615 -0.2774  0.0338  0.3105
   53SOL    HW1  158   0.236   0.490   1.574 -0.8538 -0.2830 -0.1179
   53SOL    HW2  159   0.082   0.428   1.578  0.4468 -0.3540 -1.0576
   54SOL     OW  160   1.792   0.481   3.055  0.6276 -0.2138  0.2070
   54SOL    HW1  161   1.847   0.438   3.133  1.5204 -1.1597 -2.4425
   54SOL    HW2  162   1.687   0.479   3.065 -0.3441  0.1170 -0.7766
   55SOL     OW  163   0.772   2.888   0.688 -0.6320 -0.6042  0.3370
   55SOL    HW1  164   0.738   2.985   0.699  2.7870  1.4966 -0.2113
   55SOL    HW2  165   0.869   2.886   0.653 -0.9175  1.1265  0.2788
   56SOL     OW  166   0.489   1.614   0.033  0.5312 -0.1730 -0.3209
   56SOL    HW1  167   0.393   1.665   0.031 -0.9880 -0.2951  1.5950
   56SOL    HW2  168   0.497   1.538  -0.036 -1.1504  1.8892 -0.4878
   57SOL     OW  169   1.729   2.519   2.527 -0.4072 -0.2015 -0.7664
   57SOL    HW1  170   1.772   2.433   2.481  1.4591  0.6844 -0.3883
   57SOL    HW2  171   1.631   2.507   2.540  3.4185  0.1492  0.4808
   58SOL     OW  172   0.640   0.295   1.038  0.0276 -0.4070 -0.0073
   58SOL    HW1  173   0.544   0.315   1.057  0.7881 -0.1502  0.8289
   58SOL    HW2  174   0.663   0.207   1.086 -0.4668  0.0884 -2.0847
   59SOL     OW  175   0.453   2.448   2.749 -0.2407  0.6084 -0.0249
   59SOL    HW1  176   0.466   2.352   2.701  2.0387 -2.6719  0.2911
   59SOL    HW2  177   0.511   2.467   2.830 -0.8837  0.5154  0.1229
   60SOL     OW  178   2.290   2.052   2.196 -0.0767 -0.1662 -0.1642
   60SOL    HW1  179   2.378   2.066   2.150 -0.1216 -2.4358  1.6562
   60SOL    HW2  180   2.306   2.073   2.293  1.4497 -0.6310  0.4793
   61SOL     OW  181   1.336   0.631   0.510  0.5901 -0.3076  0.1974
   61SOL    HW1  182   1.260   0.682   0.559  0.3965  1.7918  1.5639
   61SOL    HW2  183   1.339   0.653   0.407 -0.7360  0.5751 -2.8963
   62SOL     OW  184   2.770   1.812   2.901 -0.1250 -0.3841 -0.4984
   62SOL    HW1  185   2.770   1.726   2.953  0.0182  3.7858  2.2433
   62SOL    HW2  186   2.868   1.836   2.868  1.6647 -1.4719  1.4580
   63SOL     OW  187   0.611   0.923   0.157 -0.4373 -0.1824 -0.1916
   63SOL    HW1  188   0.659   0.966   0.074  3.3572  1.2045 -1.0434
   63SOL    HW2  189   0.682   0.888   0.225  0.4618 -1.7949  0.6438
   64SOL     OW  190   0.112   0.490   2.470 -0.1528 -0.4600  0.2864
   64SOL    HW1  191   0.204   0.448   2.478 -3.2269  0.3005 -2.8762
   64SOL    HW2  192   0.110   0.596   2.471 -1.0305  0.2387 -1.7033
   65SOL     OW  193   0.164   1.481   0.559 -0.4713 -0.2948  0.2235
   65SOL    HW1  194   0.233   1.537   0.607 -1.5084 -0.0250  0.1133
   65SOL    HW2  195   0.213   1.430   0.485 -0.3786 -0.5667  0.0428
   66SOL     OW  196   2.555   0.395   0.600  0.2779  0.3277  0.1324
   66SOL    HW1  197   2.647   0.401   0.640  0.5745  2.8099 -2.1383
   66SOL    HW2  198   2.510   0.304   0.621  0.4623 -1.8133  0.3435
   67SOL     OW  199   0.535   2.533   1.364  0.1863 -0.0180  0.1092
   67SOL    HW1  200   0.614   2.484   1.414 -0.4616  0.6012 -0.1524
   67SOL    HW2  201   0.452   2.477   1.332  1.7017  0.9718 -0.9939
   68SOL     OW  202   1.021   1.087   2.450  0.3696 -0.0178  0.0368
   68SOL    HW1  203   1.085   1.004   2.431  0.4746 -1.2079  1.4833
   68SOL    HW2  204   0.948   1.106   2.376 -0.3728  0.9746  0.5077
   69SOL     OW  205   0.746   2.758   2.160 -0.3697 -0.7631  0.0173
   69SOL    HW1  206   0.763   2.657   2.166  0.0241 -1.9323  2.3561
   69SOL    HW2  207   0.645   2.774   2.184  1.1471  0.2769 -0.2838
   70SOL     OW  208   0.530   0.331   2.701 -0.2972 -0.0945  0.0811
   70SOL    HW1  209   0.462   0.349   2.774 -0.2658 -1.0101  1.8462
   70SOL    HW2  210   0.550   0.234   2.675 -2.4064  0.4141 -1.8826
   71SOL     OW  211   1.082   1.742   0.401  0.6187  0.4596  0.7636
   71SOL    HW1  212   1.015   1.676   0.453 -1.8874 -1.9458  2.5659
   71SOL    HW2  213   1.049   1.780   0.313  1.4707 -0.9437  2.0261
   72SOL     OW  214   1.841   0.185   2.135  0.2034  0.6188  0.5043
   72SOL    HW1  215   1.931   0.220   2.154 -0.1532 -0.1995 -0.8483
   72SOL    HW2  216   1.841   0.079   2.124  1.3168  1.3267  0.6578
   73SOL     OW  217   2.819   2.157   2.413 -0.3416 -0.2159 -0.5198
   73SOL    HW1  218   2.800   2.058   2.393  0.4453  1.5646  1.8043
   73SOL    HW2  219   2.862   2.172   2.506  2.7108 -0.4693  3.7691
   74SOL     OW  220   2.703   2.913   2.121 -0.9087  0.2236  0.7364
   74SOL    HW1  221   2.639   2.917   2.200 -0.4804  0.0537 -1.0295
   74SOL    HW2  222   2.802   2.943   2.144 -4.0357  1.9916 -1.2396
   75SOL     OW  223   0.908   0.758   1.096 -0.1151 -0.0675  0.0529
   75SOL    HW1  224   0.822   0.814   1.068  0.7601  2.8970  3.0997
   75SOL    HW2  225   0.947   0.796   1.187  0.0783  1.5819 -0.4161
   76SOL     OW  226   1.700   1.222   2.505 -0.1426 -0.4109  0.2876
   76SOL    HW1  227   1.613   1.168   2.507 -0.8975 -2.0759 -0.8517
   76SOL    HW2  228   1.682   1.319   2.548  2.9201 -0.4718  1.5023
   77SOL     OW  229   2.993   0.918   0.969 -0.3445  0.1477 -0.4497
   77SOL    HW1  230   2.976   0.826   0.928  3.9180  1.6641  0.0356
   77SOL    HW2  231   3.047   0.917   1.055 -1.5448 -0.4672  0.0185
   78SOL     OW  232   2.097   1.451   1.512 -0.1072  0.4700 -0.4569
   78SOL    HW1  233   2.191   1.477   1.473  0.5462  1.2563 -2.6378
   78SOL    HW2  234   2.029   1.415   1.444 -2.0661  1.0898  2.1702
   79SOL     OW  235   0.605   1.353   0.873  0.0669  0.4621  0.1663
   79SOL    HW1  236   0.499   1.356   0.873 -0.9253  0.7738 -1.1950
   79SOL    HW2  237   0.646   1.307   0.794  1.6240  1.5440  1.1185
   80SOL     OW  238   0.619   0.473   1.574  0.0047  0.2241  0.1407
   80SOL    HW1  239   0.696   0.511   1.519  0.2047 -0.8674  0.4029
   80SOL    HW2  240   0.630   0.370   1.594  0.5489 -2.4302 -1.3341
   81SOL     OW  241   1.044   1.392   2.629  0.1666  0.3436  0.2649
   81SOL    HW1  242   1.053   1.294   2.603  0.6653 -0.4082  1.7277
   81SOL    HW2  243   0.958   1.442   2.594 -2.4665 -0.1336 -1.0817
   82SOL     OW  244   1.013   2.936   1.500 -0.0562 -0.2178 -0.0068
   82SOL    HW1  245   1.024   3.002   1.423 -0.2268  0.3922  1.2533
   82SOL    HW2  246   0.925   2.883   1.490  1.3760 -0.9306 -0.0533
   83SOL     OW  247   2.745   2.478   0.848 -0.0235 -0.4495  0.5217
   83SOL    HW1  248   2.673   2.418   0.806 -0.8695 -0.6787 -2.7102
   83SOL    HW2  249   2.729   2.582   0.827  0.1361 -0.7763 -0.8560
   84SOL     OW  250   0.638   3.061   2.368 -0.9609 -0.0753  0.5575
   84SOL    HW1  251   0.552   3.043   2.419 -1.7042 -2.2261 -0.3381
   84SOL    HW2  252   0.703   2.975   2.376  2.3715 -1.6814  1.4826
   85SOL     OW  253   0.299   1.571   1.504 -0.5878 -0.3013 -0.3649
   85SOL    HW1  254   0.276   1.666   1.541 -1.1911 -2.5793  0.4331
   85SOL    HW2  255   0.373   1.536   1.567 -1.0171  0.3251 -1.8724
   86SOL     OW  256   0.385   0.992   1.524  0.2325  0.1944  0.3672
   86SOL    HW1  257   0.367   0.931   1.440  1.0522 -0.2511 -0.8390
   86SOL    HW2  258   0.370   0.936   1.610  1.9746 -1.1037  1.8192
   87SOL     OW  259   1.607   0.657   0.218 -0.4079 -0.1376 -0.3624
   87SOL    HW1  260   1.690   0.723   0.218  1.1741  3.0895  0.6123
   87SOL    HW2  261   1.586   0.620   0.125 -2.1605  2.0397  1.1378
   88SOL     OW  262   1.603   1.365   0.207  0.1726  0.7545 -0.2547
   88SOL    HW1  263   1.634   1.267   0.206  0.1721  0.3131  1.2558
   88SOL    HW2  264   1.499   1.367   0.224 -2.6831 -3.0178 -1.2228
   89SOL     OW  265   0.023   0.426   0.575 -0.4670  0.0583  0.1126
   89SOL    HW1  266   0.100   0.357   0.570  0.3821  0.4233 -4.1264
   89SOL    HW2  267  -0.069   0.389   0.549  0.0830  0.0674  1.1420
   90SOL     OW  268   0.897   1.621   0.052 -0.4883 -0.2957  0.4444
   90SOL    HW1  269   0.832   1.591   0.128  1.3966 -0.6787 -0.4771
   90SOL    HW2  270   0.866   1.601  -0.045 -1.3268  1.2340 -0.4919
   91SOL     OW  271   1.221   1.431   1.778  0.3169 -0.2365  1.1892
   91SOL    HW1  272   1.205   1.518   1.833  0.4276 -0.4196 -1.9282
   91SOL    HW2  273   1.315   1.428   1.730 -2.3548  1.7823 -1.1644
   92SOL     OW  274   0.025   0.977   1.209 -0.4180 -0.2298 -0.1266
   92SOL    HW1  275   0.054   1.075   1.188 -1.7310  0.7297 -0.7712
   92SOL    HW2  276   0.003   0.968   1.311 -2.5272 -0.5751 -1.8832
   93SOL     OW  277   0.007   2.725   3.085 -0.4198 -0.5264 -0.1721
   93SOL    HW1  278  -0.067   2.726   3.014 -0.1391 -0.0249 -1.8202
   93SOL    HW2  279   0.036   2.632   3.123  2.9889  0.0003 -0.4352
   94SOL     OW  280   1.505   1.481   1.769 -0.4809  0.7884  0.2133
   94SOL    HW1  281   1.550   1.387   1.758 -1.4258 -0.5670 -2.1559
   94SOL    HW2  282   1.527   1.533   1.855  0.6611  1.3894  0.6124
   95SOL     OW  283   1.382   2.554   3.008 -0.4134  0.3193 -0.5577
   95SOL    HW1  284   1.294   2.545   3.066 -0.5892  0.6500  0.3630
   95SOL    HW2  285   1.426   2.463   2.994 -1.2379 -0.1975  0.9652
   96SOL     OW  286   0.524   2.094   1.266  0.0616  0.3152 -0.3431
   96SOL    HW1  287   0.485   2.065   1.174 -0.4802 -0.1350  0.3320
   96SOL    HW2  288   0.560   2.020   1.327  0.1567  2.8530 -1.4798
   97SOL     OW  289   0.389   1.644   2.443  0.3947 -0.5961  0.1235
   97SOL    HW1  290   0.295   1.677   2.430  2.0675  0.3309 -1.4077
   97SOL    HW2  291   0.416   1.651   2.543  0.6541  0.9361  1.8370
   98SOL     OW  292   1.983   1.601   1.241  0.0725 -0.1246 -0.0620
   98SOL    HW1  293   1.909   1.556   1.300 -2.2085 -1.3405 -1.0855
   98SOL    HW2  294   2.009   1.545   1.159  1.7160  0.4243  1.1516
   99SOL     OW  295   2.441   2.072   1.385 -0.1279 -0.4977 -0.2467
   99SOL    HW1  296   2.395   2.093   1.473  0.3711 -0.4749 -0.2164
   99SOL    HW2  297   2.434   1.972   1.360  0.2586 -0.4237 -0.1239
  100SOL     OW  298   2.333   0.301   2.095  0.0849 -0.2173 -0.0634
  100SOL    HW1  299   2.274   0.283   2.183 -1.3710  0.4792  3.0653
  100SOL    HW2  300   2.397   0.383   2.106  0.8416  0.3472  1.2753
  101SOL     OW  301   0.356   1.520   0.324  0.3161  0.1214  0.7876
  101SOL    HW1  302   0.421   1.532   0.404  0.7226  1.4391  1.6853
  101SOL    HW2  303   0.397   1.553   0.234  0.3114  1.2855  0.0718
  102SOL     OW  304   2.254   1.026   0.827 -0.0821  0.0590 -0.7844
  102SOL    HW1  305   2.183   0.960   0.798 -2.7327  1.8581 -0.6854
  102SOL    HW2  306   2.300   1.078   0.750  0.6691 -3.5795  2.0527
  103SOL     OW  307   2.275   0.043   0.395 -0.2948  0.5185 -0.3425
  103SOL    HW1  308   2.275   0.141   0.368  1.5133 -2.0094  2.2679
  103SOL    HW2  309   2.367   0.004   0.426 -0.2076  0.5024  2.1209
  104SOL     OW  310   0.122   1.765   2.183 -0.7955 -0.6764  0.0220
  104SOL    HW1  311   0.168   1.730   2.099  2.6880 -1.0501 -0.2708
  104SOL    HW2  312   0.018   1.778   2.168 -1.0449  2.0977  0.7856
  105SOL     OW  313   1.235   2.117   0.797 -0.2773 -0.4286 -0.0595
  105SOL    HW1  314   1.203   2.134   0.701 -1.5913  0.3139  1.0187
  105SOL    HW2  315   1.254   2.017   0.816 -0.9337 -0.6596 -0.1321
  106SOL     OW  316   2.138   0.425   1.430 -0.5569 -0.2336 -0.0874
  106SOL    HW1  317   2.071   0.352   1.460 -1.2675 -0.4304  0.9191
  106SOL    HW2  318   2.134   0.506   1.495 -2.0921  1.8957  0.0188
  107SOL     OW  319   1.778   3.029   1.174  0.9099 -0.9862  0.3466
  107SOL    HW1  320   1.812   3.122   1.217  1.4556  0.7078 -0.2358
  107SOL    HW2  321   1.719   2.976   1.241 -0.8868 -0.0317  0.0790
  108SOL     OW  322   0.793   2.784   1.202 -0.0402  0.3204  0.2627
  108SOL    HW1  323   0.781   2.776   1.303 -1.7037 -0.0857 -0.4982
  108SOL    HW2  324   0.891   2.775   1.168 -0.8415 -0.1267  0.7611
  109SOL     OW  325   2.157   0.131   0.711 -1.0057 -0.2176  0.1283
  109SOL    HW1  326   2.056   0.106   0.723 -0.3756  0.7137  1.3801
  109SOL    HW2  327   2.210   0.100   0.793  0.7244  2.4671 -0.6324
  110SOL     OW  328   0.473   2.862   2.766 -0.1976 -0.0415 -0.3260
  110SOL    HW1  329   0.466   2.870   2.663  1.4715  1.7935  2.8496
  110SOL    HW2  330   0.550   2.800   2.799 -0.7685  0.0923  0.2774
  111SOL     OW  331   1.300   0.564   2.332  0.3157  0.5111  0.1708
  111SOL    HW1  332   1.215   0.594   2.385 -1.8568  2.2802  1.1844
  111SOL    HW2  333   1.326   0.465   2.352 -0.6803  0.0086 -0.5610
  112SOL     OW  334   1.721   0.551   1.465  0.2687  0.0791 -0.9394
  112SOL    HW1  335   1.745   0.526   1.370  2.6968 -1.5549  2.1164
  112SOL    HW2  336   1.702   0.464   1.522 -0.3253 -0.0615 -2.1781
  113SOL     OW  337   2.264   1.667   1.783  0.1784 -0.0595  0.3657
  113SOL    HW1  338   2.313   1.580   1.753  1.2482  2.6574 -0.4457
  113SOL    HW2  339   2.298   1.706   1.871 -0.2629  0.6726 -0.0547
  114SOL     OW  340   0.351   0.540   1.246 -0.3271 -0.1185 -0.5188
  114SOL    HW1  341   0.408   0.586   1.173 -0.9191 -0.9847  2.0683
  114SOL    HW2  342   0.251   0.533   1.227  0.5749 -0.8816  0.0435
  115SOL     OW  343   2.772   1.581   1.280  0.1609 -0.2660 -0.7376
  115SOL    HW1  344   2.766   1.477   1.284  0.6099 -0.7894 -0.4415
  115SOL    HW2  345   2.802   1.619   1.183  4.6723  0.3379 -1.1985
  116SOL     OW  346   1.857   1.038   0.737 -0.2301 -0.2426  0.2774
  116SOL    HW1  347   1.787   1.015   0.668 -1.3643  1.6778  0.2711
  116SOL    HW2  348   1.851   1.136   0.768 -0.5759  0.5798  0.0727
  117SOL     OW  349   1.192   0.407   0.593  0.0264 -0.7612 -1.1127
  117SOL    HW1  350   1.203   0.446   0.690 -0.5532  2.5081  1.2840
  117SOL    HW2  351   1.242   0.469   0.531  2.0139 -1.3999  3.0455
  118SOL     OW  352   1.114   1.100   1.076 -0.0795 -0.3697  0.4356
  118SOL    HW1  353   1.077   1.026   1.128  0.3745  1.6971  0.5223
  118SOL    HW2  354   1.140   1.183   1.139 -0.1443  1.3533  3.9794
  119SOL     OW  355   1.808   1.615   2.151 -0.1841 -0.0214 -0.2577
  119SOL    HW1  356   1.791   1.714   2.171  0.5620 -1.0730 -0.7175
  119SOL    HW2  357   1.916   1.595   2.153  1.1577  2.4130 -1.1117
  120SOL     OW  358   2.943   2.875   0.158  0.4814  0.4131 -0.2447
  120SOL    HW1  359   3.009   2.845   0.086 -2.0859  2.8301 -0.7252
  120SOL    HW2  360   2.847   2.846   0.123 -1.9292 -0.2251 -2.0910
  121SOL     OW  361   1.997   0.755   2.285 -0.4573 -0.1599 -0.4813
  121SOL    HW1  362   2.029   0.833   2.220  1.9011  0.1202  0.5492
  121SOL    HW2  363   2.011   0.660   2.251  0.4751 -0.0582  0.3852
  122SOL     OW  364   2.618   2.669   1.222 -1.0184 -0.2230 -0.0530
  122SOL    HW1  365   2.671   2.594   1.169 -0.5501  0.0836 -1.8496
  122SOL    HW2  366   2.563   2.735   1.159 -0.5134 -1.0634  1.4337
  123SOL     OW  367   1.756   0.089   1.717 -0.2525 -0.0177  0.5250
  123SOL    HW1  368   1.788   0.001   1.663 -0.6052 -1.2339 -0.4700
  123SOL    HW2  369   1.829   0.132   1.776 -1.3007 -0.5890  0.1419
  124SOL     OW  370   0.122   0.457   1.084 -0.0335  0.3744  0.2521
  124SOL    HW1  371   0.097   0.548   1.130 -0.4151 -1.8122 -1.8751
  124SOL    HW2  372   0.084   0.462   0.980 -1.7564  0.1521 -1.8619
  125SOL     OW  373   0.851   1.861   0.702 -0.0343 -0.0278  0.1490
  125SOL    HW1  374   0.943   1.825   0.726 -0.3922  3.6244 -0.0062
  125SOL    HW2  375   0.798   1.900   0.781 -1.2645  0.4516 -1.2454
  126SOL     OW  376   1.873   2.288   2.455 -0.0151 -0.1482 -0.4294
  126SOL    HW1  377   1.930   2.282   2.369  1.0470  0.0593  1.0694
  126SOL    HW2  378   1.827   2.199   2.481  0.4289 -0.3030 -1.4584
  127SOL     OW  379   0.943   0.892   0.275  0.8778 -0.1043 -0.7152
  127SOL    HW1  380   0.976   0.943   0.358 -0.4215 -1.2297 -0.0397
  127SOL    HW2  381   0.924   0.788   0.292  1.5890 -0.8893 -2.0436
  128SOL     OW  382   0.907   0.253   1.380 -0.0557 -0.0944 -0.3032
  128SOL    HW1  383   0.867   0.321   1.311 -0.6448  0.5841 -0.0564
  128SOL    HW2  384   0.887   0.158   1.346  0.2585 -3.6213 -3.2109
  129SOL     OW  385   1.835   0.728   1.892  0.3561  0.0237  0.3031
  129SOL    HW1  386   1.858   0.729   1.787  1.2741  1.7175 -0.5105
  129SOL    HW2  387   1.880   0.807   1.935 -1.8271 -2.2062 -1.6930
  130SOL     OW  388   1.361   2.224   1.012  0.1306  0.2941 -0.4305
  130SOL    HW1  389   1.306   2.206   0.928  0.2827  0.5412  1.1460
  130SOL    HW2  390   1.453   2.265   0.987 -0.2426  0.2055  0.4672
  131SOL     OW  391   3.034   1.442   1.356  0.5758  0.3632  0.2201
  131SOL    HW1  392   2.988   1.359   1.393 -1.1802  0.9363  0.2340
  131SOL    HW2  393   3.134   1.449   1.364  0.0944  1.3624  2.2697
  132SOL     OW  394   2.037   2.438   0.517  0.1243 -0.4278  0.1865
  132SOL    HW1  395   1.934   2.470   0.513 -0.0466 -0.0212  0.2697
  132SOL    HW2  396   2.052   2.367   0.588 -0.1953 -0.4935 -1.9462
  133SOL     OW  397   1.887   2.336   2.840 -0.1589  0.0715  0.4086
  133SOL    HW1  398   1.790   2.360   2.868 -2.5806 -1.0153 -0.5519
  133SOL    HW2  399   1.932   2.388   2.765  0.2728  0.7175  1.9015
  134SOL     OW  400   2.680   2.341   1.665 -0.3294  0.1386 -0.1091
  134SOL    HW1  401   2.633   2.325   1.754 -0.1392  0.3685 -0.3468
  134SOL    HW2  402   2.704   2.441   1.648 -1.0377 -0.3306 -2.8169
  135SOL     OW  403   0.679   1.481   2.680 -0.5456  0.2608  0.1099
  135SOL    HW1  404   0.641   1.386   2.717 -0.9854 -4.8178  1.0047
  135SOL    HW2  405   0.734   1.468   2.591 -1.4805  2.0757  1.9364
  136SOL     OW  406   1.225   1.979   0.409 -0.4477  0.0380 -0.2226
  136SOL    HW1  407   1.161   2.051   0.442  1.0050 -0.1842 -1.4005
  136SOL    HW2  408   1.182   1.890   0.430 -0.3619  2.1224  0.4614
  137SOL     OW  409   0.426   1.151   2.159 -0.4762  0.5835  0.1888
  137SOL    HW1  410   0.336   1.161   2.208 -2.4302 -0.8276  2.1332
  137SOL    HW2  411   0.474   1.059   2.184  2.0061 -0.5988  0.3348
  138SOL     OW  412   2.436   1.548   0.251  0.2797 -0.0797 -0.1478
  138SOL    HW1  413   2.357   1.481   0.227  1.8822 -3.3940 -1.0463
  138SOL    HW2  414   2.515   1.489   0.289 -0.0689  1.5508  0.9129
  139SOL     OW  415   1.860   2.612   1.277 -0.2875 -0.4394 -0.0090
  139SOL    HW1  416   1.760   2.616   1.268 -0.4748 -1.0674 -1.9230
  139SOL    HW2  417   1.900   2.521   1.307  1.7742  0.6432 -0.5498
  140SOL     OW  418   3.021   2.973   2.545  0.3502  0.4676 -0.2517
  140SOL    HW1  419   3.055   2.872   2.554 -0.0860 -1.4710  0.6348
  140SOL    HW2  420   3.100   3.037   2.569  1.9536  0.6582  0.2066
  141SOL     OW  421   1.319   1.678   1.631  0.0279 -0.0293 -0.2664
  141SOL    HW1  422   1.223   1.682   1.667 -0.8132 -1.5405 -1.9656
  141SOL    HW2  423   1.386   1.625   1.692  1.4284 -2.1766 -0.3932
  142SOL     OW  424   1.580   0.588   2.260 -0.3715 -0.1109  0.2238
  142SOL    HW1  425   1.598   0.584   2.157  0.5402  1.0464  1.2856
  142SOL    HW2  426   1.482   0.579   2.284  1.0699 -0.8879  2.1392
  143SOL     OW  427   2.742   0.901   0.502 -0.5020 -0.2543  0.7982
  143SOL    HW1  428   2.790   0.948   0.422 -0.5801  0.9438 -0.8032
  143SOL    HW2  429   2.788   0.931   0.589  0.8793 -2.2807  2.0353
  144SOL     OW  430   2.927   1.172   1.467  0.4090 -0.6678 -0.3740
  144SOL    HW1  431   2.883   1.158   1.559  0.8891 -0.9097 -1.1858
  144SOL    HW2  432   3.002   1.105   1.454 -0.5002  0.5645  3.6859
  145SOL     OW  433   1.014   1.838   0.156 -0.6242 -0.2445  0.2413
  145SOL    HW1  434   1.082   1.886   0.096  0.5645 -0.6876  1.7596
  145SOL    HW2  435   0.971   1.756   0.112 -1.4584  0.2643  1.8086
  146SOL     OW  436   2.508   0.677   1.504 -0.3743 -0.1279 -0.2172
  146SOL    HW1  437   2.472   0.585   1.469  3.1707 -1.9453  1.4123
  146SOL    HW2  438   2.455   0.759   1.478  1.3827 -0.1169 -0.5351
  147SOL     OW  439   1.105   2.453   0.615 -0.1907 -0.2731 -0.2384
  147SOL    HW1  440   1.065   2.528   0.556 -3.9383  1.0006  0.6152
  147SOL    HW2  441   1.194   2.419   0.570  0.6052 -2.1247  1.0250
  148SOL     OW  442   1.676   1.454   3.039 -0.5169 -0.2609  0.3636
  148SOL    HW1  443   1.669   1.369   2.983 -1.7084  1.6474  1.4676
  148SOL    HW2  444   1.641   1.435   3.135 -0.8356  2.9301  0.3533
  149SOL     OW  445   0.712   1.413   1.967 -0.0795 -0.2225  0.1039
  149SOL    HW1  446   0.632   1.353   1.989  1.9923  0.2874  0.2006
  149SOL    HW2  447   0.767   1.380   1.884  2.8621 -1.9502  3.2008
  150SOL     OW  448   3.027   1.250   0.939 -0.3680 -0.3298 -0.1270
  150SOL    HW1  449   3.113   1.264   0.995 -0.2217 -0.2771  2.3928
  150SOL    HW2  450   2.991   1.154   0.940  1.2056 -1.1213 -1.5025
  151SOL     OW  451   0.216   0.723   2.151 -0.6989 -0.0442  0.1972
  151SOL    HW1  452   0.205   0.808   2.091 -0.1535 -0.3478 -0.0254
  151SOL    HW2  453   0.224   0.634   2.098  0.1134  1.1009 -1.0827
  152SOL     OW  454   1.419   1.768   1.285  0.4653  0.0507 -0.1505
  152SOL    HW1  455   1.440   1.872   1.279 -0.6680  0.1502 -0.4740
  152SOL    HW2  456   1.322   1.745   1.260  2.2555 -0.3131  1.0481
  153SOL     OW  457   0.004   1.506   0.151  0.5570  0.0333 -0.0080
  153SOL    HW1  458   0.018   1.405   0.176 -0.3848  0.0094  0.1580
  153SOL    HW2  459  -0.004   1.568   0.233 -0.7275 -0.8855 -0.4309
  154SOL     OW  460   2.373   1.863   2.771  0.3246  0.3948  0.1438
  154SOL    HW1  461   2.366   1.763   2.799 -1.8353  1.7068 -0.9449
  154SOL    HW2  462   2.444   1.877   2.699 -0.3372 -1.0711  2.0442
  155SOL     OW  463   2.451   1.210   0.408  0.6737 -0.0615  0.1865
  155SOL    HW1  464   2.540   1.232   0.355  0.3891  0.4705 -2.0630
  155SOL    HW2  465   2.379   1.155   0.357 -1.1949 -0.9628  0.7575
  156SOL     OW  466   2.529   0.967   0.877  0.0511 -0.0069  0.0801
  156SOL    HW1  467   2.425   0.963   0.873 -2.6706 -2.0523  1.4285
  156SOL    HW2  468   2.570   1.023   0.801 -2.2207  1.8047  0.2323
  157SOL     OW  469   1.300   2.930   3.029  0.1778 -0.1628 -0.4876
  157SOL    HW1  470   1.329   2.926   2.928  1.5550 -0.8605 -2.4010
  157SOL    HW2  471   1.287   3.028   3.070 -3.6951 -0.0272  0.7749
  158SOL     OW  472   1.026   1.823   1.903 -0.4955 -0.3773 -0.6134
  158SOL    HW1  473   1.055   1.922   1.886  0.1272  1.8712  0.1133
  158SOL    HW2  474   0.931   1.821   1.938  0.9699  0.5512  2.6721
  159SOL     OW  475   0.820   0.446   1.198  0.0096  0.1614 -0.4905
  159SOL    HW1  476   0.805   0.534   1.254 -0.6100  0.2256  0.8291
  159SOL    HW2  477   0.739   0.412   1.150  0.9740 -2.0972  2.9285
  160SOL     OW  478   1.396   2.310   1.584 -0.0365 -0.0130 -0.1607
  160SOL    HW1  479   1.416   2.341   1.680 -0.3790 -3.3011  0.0489
  160SOL    HW2  480   1.483   2.305   1.524  1.6258 -1.4572 -1.5057
  161SOL     OW  481   0.100   2.936   0.300  0.7267  0.3802 -0.5154
  161SOL    HW1  482   0.027   2.863   0.282 -0.8475 -1.7816  1.7978
  161SOL    HW2  483   0.095   3.016   0.231  0.9074  0.7537  3.0871
  162SOL     OW  484   2.500   1.902   0.470  0.4213 -0.1080 -0.0734
  162SOL    HW1  485   2.507   1.865   0.377  0.1256  2.7654  0.1186
  162SOL    HW2  486   2.519   1.841   0.552  1.9194 -0.7881  1.0203
  163SOL     OW  487   1.894   2.820   0.706  0.3462  0.3178 -0.2345
  163SOL    HW1  488   1.895   2.852   0.607  2.2176 -0.2739  0.9154
  163SOL    HW2  489   1.970   2.750   0.723 -0.0855  1.1376  1.9708
  164SOL     OW  490   3.072   0.234   1.198 -0.4244  0.5326  0.5025
  164SOL    HW1  491   3.140   0.284   1.129  1.2170 -0.3550  0.2924
  164SOL    HW2  492   3.124   0.164   1.258  0.2285 -0.5355  0.7246
  165SOL     OW  493   0.948   1.444   0.749  0.2979  0.3929  0.5298
  165SOL    HW1  494   0.891   1.493   0.816  3.0130 -0.3169 -0.7926
  165SOL    HW2  495   0.907   1.461   0.655  1.9347  0.9342 -2.5166
  166SOL     OW  496   1.492   1.092   1.716 -0.0527 -0.4406  0.1766
  166SOL    HW1  497   1.410   1.092   1.779  1.9185  3.0578  0.1641
  166SOL    HW2  498   1.567   1.147   1.763 -0.8415 -1.2419  0.3312
  167SOL     OW  499   0.726   1.934   1.449 -0.0989 -0.2504  0.2943
  167SOL    HW1  500   0.745   2.007   1.520  0.7896 -0.7034 -1.7656
  167SOL    HW2  501   0.671   1.851   1.485 -3.5025  0.6962  1.5383
  168SOL     OW  502   1.638   2.381   0.157 -0.1020  0.2283 -0.4015
  168SOL    HW1  503   1.709   2.433   0.105  3.0845 -1.0149  0.3283
  168SOL    HW2  504   1.688   2.344   0.240  1.6213  1.0489 -1.1825
  169SOL     OW  505   0.174   2.547   2.221  0.3339  0.0144  0.2010
  169SOL    HW1  506   0.202   2.492   2.137  0.3178 -1.4437  0.2336
  169SOL    HW2  507   0.184   2.489   2.305  1.0449 -0.2810 -2.2567
  170SOL     OW  508   1.129   0.234   1.992 -0.2258  0.1270  0.2585
  170SOL    HW1  509   1.199   0.202   2.059 -1.4740  1.1543 -1.0957
  170SOL    HW2  510   1.135   0.185   1.900 -1.7190  2.4240 -0.2088
  171SOL     OW  511   0.211   0.771   2.420 -0.0632 -0.0995 -0.0889
  171SOL    HW1  512   0.146   0.838   2.469 -0.3851 -0.3803  0.3162
  171SOL    HW2  513   0.184   0.757   2.317  0.8029 -3.1064 -2.6449
  172SOL     OW  514   0.924   1.045   2.903 -0.4484 -0.3774  0.1139
  172SOL    HW1  515   0.991   1.120   2.930  0.9318 -1.2247 -0.1508
  172SOL    HW2  516   0.896   1.049   2.804 -1.8506 -0.6845  1.6719
  173SOL     OW  517   0.641   2.685   0.108 -0.3853  0.3185  0.4844
  173SOL    HW1  518   0.622   2.776   0.069 -0.7450 -1.7146  3.3832
  173SOL    HW2  519   0.560   2.646   0.148  1.7666  0.4077  1.9645
  174SOL     OW  520   1.448   2.832   1.092  0.0819  0.2228 -0.3258
  174SOL    HW1  521   1.425   2.922   1.049  1.3427 -1.9048  0.0744
  174SOL    HW2  522   1.524   2.789   1.038  3.0722  0.3685 -0.0337
  175SOL     OW  523   0.387   0.022   1.670  0.2292 -0.6704 -0.6868
  175SOL    HW1  524   0.461   0.064   1.728  0.4142 -1.5235 -2.3768
  175SOL    HW2  525   0.343   0.085   1.600 -1.5280 -1.6860  0.0855
  176SOL     OW  526   2.592   0.383   0.004  0.5260  0.3995 -0.1885
  176SOL    HW1  527   2.628   0.476   0.023  1.9323 -0.9467  1.0942
  176SOL    HW2  528   2.516   0.340   0.067 -0.8050 -1.2000  0.5579
  177SOL     OW  529   0.362   0.307   1.011 -0.1917 -0.1840  0.4089
  177SOL    HW1  530   0.313   0.240   0.952  2.1201  2.7250 -1.5126
  177SOL    HW2  531   0.303   0.376   1.062  0.8993 -3.5870  0.7584
  178SOL     OW  532   3.078   2.672   2.619  0.0760  0.6649 -0.7279
  178SOL    HW1  533   2.995   2.624   2.658 -0.1535 -0.2465 -1.5150
  178SOL    HW2  534   3.156   2.687   2.688 -0.1251  1.3439 -1.1580
  179SOL     OW  535   0.007   1.643   1.184 -0.3673 -0.8259 -0.4488
  179SOL    HW1  536  -0.061   1.715   1.177  0.9139  0.2196 -1.3259
  179SOL    HW2  537  -0.010   1.562   1.249  1.5667 -0.5802  1.4765
  180SOL     OW  538   0.221   1.212   1.851 -0.8841  0.6767  0.5355
  180SOL    HW1  539   0.325   1.208   1.852  1.9461 -0.1262 -0.8443
  180SOL    HW2  540   0.181   1.286   1.906  1.3672 -2.2894 -1.3000
  181SOL     OW  541   2.999   1.844   2.491 -0.3330 -0.0016  0.0027
  181SOL    HW1  542   3.055   1.933   2.495  4.5242  0.5335  0.8844
  181SOL    HW2  543   2.913   1.852   2.430 -0.4869  1.3835 -1.4838
  182SOL     OW  544   2.245   1.308   1.174  0.0370 -0.1948  0.5448
  182SOL    HW1  545   2.193   1.252   1.100  1.0307 -0.6634 -1.2124
  182SOL    HW2  546   2.275   1.401   1.136 -2.9218  0.8837  0.4754
  183SOL     OW  547   1.511   2.231   2.558 -0.6627 -0.3035  0.1723
  183SOL    HW1  548   1.419   2.184   2.558  0.0862 -0.0595  1.7196
  183SOL    HW2  549   1.591   2.162   2.532  1.4357 -0.5451 -0.6518
  184SOL     OW  550   2.044   0.848   0.793  0.6666 -0.3978  0.1951
  184SOL    HW1  551   1.968   0.916   0.779  0.8263 -1.5662 -2.0611
  184SOL    HW2  552   2.018   0.773   0.860 -0.5809  0.9015 -0.4002
  185SOL     OW  553   1.594   2.779   2.086  0.2920  0.5369 -0.6829
  185SOL    HW1  554   1.549   2.869   2.060 -1.3606  0.2558  0.9192
  185SOL    HW2  555   1.583   2.750   2.187 -1.8398 -0.6649 -1.1660
  186SOL     OW  556   0.108   2.214   1.664  0.2283 -0.7236 -0.0580
  186SOL    HW1  557   0.070   2.281   1.737 -1.8541 -0.4686  0.1846
  186SOL    HW2  558   0.182   2.150   1.691  2.7742 -0.5996 -1.9453
  187SOL     OW  559   1.316   0.762   1.662 -0.6173  0.0435  0.1113
  187SOL    HW1  560   1.413   0.777   1.623  0.6126  0.9480 -0.5632
  187SOL    HW2  561   1.311   0.719   1.758  0.5167  1.3407  2.9585
  188SOL     OW  562   2.746   2.776   1.431  0.1691  0.2068  0.2159
  188SOL    HW1  563   2.764   2.879   1.420  0.1107  0.5275  0.3423
  188SOL    HW2  564   2.681   2.732   1.360 -1.9814  0.9949 -0.4344
  189SOL     OW  565   0.911   1.218   1.402  0.6252  0.2892  0.0612
  189SOL    HW1  566   0.992   1.274   1.446  0.6026  0.4653 -0.3208
  189SOL    HW2  567   0.839   1.282   1.362  1.5695 -0.6742  1.0209
  190SOL     OW  568   1.470   1.909   1.580 -0.2017 -0.1242  0.3142
  190SOL    HW1  569   1.404   1.828   1.590 -0.5397  0.3929  2.1589
  190SOL    HW2  570   1.452   1.967   1.663 -0.6289  1.4625 -0.4860
  191SOL     OW  571   0.974   0.757   1.546 -0.4650  0.0041  0.2914
  191SOL    HW1  572   1.045   0.680   1.538  0.6434 -1.5846  0.2292
  191SOL    HW2  573   1.010   0.850   1.570 -0.6853  1.5038  1.7707
  192SOL     OW  574   1.850   2.259   1.108  0.4714  0.1980 -0.0507
  192SOL    HW1  575   1.752   2.274   1.067 -0.4671  1.0070  0.0070
  192SOL    HW2  576   1.918   2.326   1.066 -1.4498  1.7819  1.1492
  193SOL     OW  577   0.570   0.587   0.453  0.5342  0.3843 -0.3622
  193SOL    HW1  578   0.521   0.505   0.502  0.0519 -1.4806  2.4400
  193SOL    HW2  579   0.601   0.557   0.361 -1.6330 -1.0576  1.0214
  194SOL     OW  580   0.348   0.848   1.289  0.1678 -0.1305  0.1805
  194SOL    HW1  581   0.292   0.784   1.235  0.2549 -0.1985  0.5125
  194SOL    HW2  582   0.346   0.943   1.244 -1.0362  0.8072 -0.3747
  195SOL     OW  583   1.018   2.898   0.544 -0.2114  0.1555 -0.2008
  195SOL    HW1  584   1.029   2.803   0.506  3.1361  2.8833  1.2915
  195SOL    HW2  585   1.107   2.944   0.537 -2.6688  3.1484 -1.4392
  196SOL     OW  586   0.218   1.348   1.378  0.3564 -0.1212 -0.1140
  196SOL    HW1  587   0.257   1.428   1.433 -0.2904  0.8910 -0.9331
  196SOL    HW2  588   0.193   1.267   1.440  2.3447  0.0445  0.6558
  197SOL     OW  589   0.831   2.042   0.227 -0.0295 -0.2933  0.2561
  197SOL    HW1  590   0.815   2.025   0.329  0.0370 -1.2424 -0.0357
  197SOL    HW2  591   0.893   1.967   0.188  1.5747 -2.0022  1.3414
  198SOL     OW  592   0.313   1.244   0.224 -0.1345 -0.2243 -0.3163
  198SOL    HW1  593   0.211   1.223   0.207 -1.3547 -1.4650 -0.0939
  198SOL    HW2  594   0.327   1.338   0.252 -0.1929 -0.0279 -1.4810
  199SOL     OW  595   2.213   0.386   2.552  1.1370  0.3187 -0.1390
  199SOL    HW1  596   2.157   0.354   2.638 -0.1971  1.2654  1.3312
  199SOL    HW2  597   2.314   0.394   2.571 -1.5466 -0.4820 -1.0223
  200SOL     OW  598   0.033   2.941   0.743 -0.2136  0.3968  0.0525
  200SOL    HW1  599  -0.069   2.945   0.711  0.3629 -0.2785 -0.1908
  200SOL    HW2  600   0.075   3.033   0.766 -1.2096 -0.1136  0.4206
  201SOL     OW  601   1.123   0.764   0.631 -0.7076  0.3515  0.2419
  201SOL    HW1  602   1.132   0.808   0.724 -0.6717  1.2878 -2.1820
  201SOL    HW2  603   1.044   0.702   0.617  0.5669  3.4007  2.9491
  202SOL     OW  604   0.494   1.180   1.818 -0.4419 -0.5709  0.5357
  202SOL    HW1  605   0.519   1.203   1.717 -1.4581 -0.3028 -0.6451
  202SOL    HW2  606   0.557   1.113   1.864  0.2439  0.4729  5.1314
  203SOL     OW  607   0.675   0.210   1.558 -0.5828  0.1763  0.1068
  203SOL    HW1  608   0.755   0.214   1.490 -0.5645  0.2915 -0.3227
  203SOL    HW2  609   0.710   0.190   1.654 -1.1820 -2.7048  2.3932
  204SOL     OW  610   2.052   1.870   2.927 -0.3047 -0.1979  0.1556
  204SOL    HW1  611   2.070   1.770   2.933  1.1030  1.2996  4.0194
  204SOL    HW2  612   2.074   1.907   2.833  2.6907  2.7857 -1.0996
  205SOL     OW  613   1.822   1.872   3.074  0.1720  0.1355 -0.7618
  205SOL    HW1  614   1.910   1.860   3.022 -0.3555  0.5708 -0.1344
  205SOL    HW2  615   1.792   1.969   3.072 -1.1194  0.6525  1.3885
  206SOL     OW  616   2.499   2.793   0.319 -0.5346 -0.0391 -0.0751
  206SOL    HW1  617   2.568   2.726   0.364  0.7747  0.7589  3.2830
  206SOL    HW2  618   2.548   2.849   0.243  0.9813 -1.1981  0.1647
  207SOL     OW  619   0.628   1.789   2.959  0.3520  0.0947  0.0989
  207SOL    HW1  620   0.732   1.780   2.962  0.4243 -0.7711  0.1096
  207SOL    HW2  621   0.577   1.736   3.036 -0.4597 -0.0329 -0.1103
  208SOL     OW  622   1.132   1.576   1.415 -0.2255 -0.3703 -0.1205
  208SOL    HW1  623   1.137   1.646   1.335 -0.8506 -0.9614 -0.8348
  208SOL    HW2  624   1.186   1.605   1.500 -0.3875  0.7908  2.3787
  209SOL     OW  625   0.255   0.964   3.053 -0.2084  0.1789  0.9154
  209SOL    HW1  626   0.257   0.883   2.990  1.7599  0.7742  2.2511
  209SOL    HW2  627   0.230   0.936   3.149 -0.1182  2.6663  1.0484
  210SOL     OW  628   1.786   0.536   1.188 -0.1572  0.4959 -0.4193
  210SOL    HW1  629   1.722   0.605   1.142  1.9804  0.3231  0.8159
  210SOL    HW2  630   1.879   0.531   1.141  1.0070  0.6301 -0.6368
  211SOL     OW  631   2.128   1.038   1.561  0.2404 -0.7499 -0.4212
  211SOL    HW1  632   2.197   0.982   1.615 -0.8713  1.0623 -0.9777
  211SOL    HW2  633   2.180   1.106   1.502  2.8310 -2.3976 -0.8152
  212SOL     OW  634   0.023   0.961   1.470 -0.2697 -0.0587  0.1606
  212SOL    HW1  635   0.082   1.036   1.518 -0.4689 -1.3877 -0.5525
  212SOL    HW2  636   0.025   0.866   1.516  1.5333 -1.0042 -0.2780
  213SOL     OW  637   2.813   0.328   0.373  0.9434 -0.8518  0.7377
  213SOL    HW1  638   2.846   0.251   0.304 -0.2164 -0.4325 -0.6228
  213SOL    HW2  639   2.731   0.386   0.335 -2.4685 -0.6203 -3.3853
  214SOL     OW  640   2.173   0.248   2.312  0.2714 -0.1474 -0.2541
  214SOL    HW1  641   2.189   0.278   2.410  0.4927 -2.6633  0.1382
  214SOL    HW2  642   2.157   0.147   2.312 -1.8230 -0.5416  0.1328
  215SOL     OW  643   1.636   2.283   2.114 -0.4949 -0.3532  0.6810
  215SOL    HW1  644   1.732   2.317   2.093  0.3846  1.3714  0.2367
  215SOL    HW2  645   1.576   2.364   2.141  0.1611 -2.4564  1.7376
  216SOL     OW  646   2.199   0.636   0.641 -0.1725  0.8459  0.2156
  216SOL    HW1  647   2.154   0.557   0.588 -2.8934 -0.0937 -0.7142
  216SOL    HW2  648   2.134   0.705   0.680  0.0393 -0.9140 -0.8067
  217SOL     OW  649   0.756   2.785   2.459  0.4896  0.3209 -0.5411
  217SOL    HW1  650   0.756   2.693   2.509 -0.2346  0.2931  1.7504
  217SOL    HW2  651   0.779   2.783   2.358 -1.3371 -1.1424 -2.2802
  218SOL     OW  652   1.918   1.446   0.061 -0.2909 -0.1676 -0.4554
  218SOL    HW1  653   1.830   1.456   0.003 -0.2102 -0.2067 -0.9781
  218SOL    HW2  654   1.922   1.352   0.114  0.8958 -2.0617  4.6970
  219SOL     OW  655   2.361   1.263   2.548  0.0385  0.4501 -0.5176
  219SOL    HW1  656   2.434   1.240   2.478 -1.9546  3.7857  0.3362
  219SOL    HW2  657   2.359   1.195   2.627  0.6906 -0.8358 -1.9422
  220SOL     OW  658   1.520   1.044   1.241  0.0055  0.6132 -0.6078
  220SOL    HW1  659   1.607   1.057   1.297  2.0934 -1.3608  0.3433
  220SOL    HW2  660   1.510   1.090   1.147 -1.0299 -0.4368 -1.4695
  221SOL     OW  661   1.366   0.980   2.210 -0.2608 -0.1305  0.4582
  221SOL    HW1  662   1.314   1.004   2.127 -0.8050 -2.1866 -0.8084
  221SOL    HW2  663   1.449   0.921   2.190  1.3663  0.2730 -0.4922
  222SOL     OW  664   1.168   0.019   1.205 -0.7954 -0.2362 -0.6913
  222SOL    HW1  665   1.220  -0.016   1.287 -3.1773 -1.0993 -0.9982
  222SOL    HW2  666   1.202   0.112   1.168 -1.1448  0.5715 -3.7651
  223SOL     OW  667   2.727   0.888   2.014  0.0323  0.0492 -0.1970
  223SOL    HW1  668   2.700   0.898   2.112 -0.1430 -2.4115  0.3472
  223SOL    HW2  669   2.825   0.911   1.993 -1.5342  0.3777  0.9673
  224SOL     OW  670   1.568   1.015   2.761 -0.5197  0.0339 -0.2557
  224SOL    HW1  671   1.592   0.941   2.695 -2.5934 -0.2782 -0.5867
  224SOL    HW2  672   1.500   1.090   2.721 -1.9763  2.0398  1.6147
  225SOL     OW  673   2.915   2.795   2.890 -0.3976 -0.5289 -0.4608
  225SOL    HW1  674   2.899   2.704   2.841  1.2478 -0.9733 -0.0555
  225SOL    HW2  675   2.984   2.862   2.849 -0.6208  4.2489  1.9024
  226SOL     OW  676   2.397   1.600   2.797  0.4357 -0.1035  0.3077
  226SOL    HW1  677   2.469   1.579   2.730  0.8659 -0.2802 -1.3094
  226SOL    HW2  678   2.375   1.514   2.853 -0.3593  0.6759 -2.0641
  227SOL     OW  679   0.817   0.151   3.045 -0.1510 -0.3831  0.3404
  227SOL    HW1  680   0.865   0.062   3.075 -1.5611  0.8153  2.8892
  227SOL    HW2  681   0.804   0.155   2.940  1.8507  2.4446  1.8996
  228SOL     OW  682   2.401   0.590   2.873  0.4154  0.3249 -0.2970
  228SOL    HW1  683   2.348   0.603   2.786 -1.8725  1.4800 -0.0835
  228SOL    HW2  684   2.495   0.540   2.861  1.2457 -0.5856 -0.7961
  229SOL     OW  685   0.635   0.437   1.888 -0.3600 -0.5520 -0.0036
  229SOL    HW1  686   0.611   0.339   1.911  0.6247  0.1626 -0.8976
  229SOL    HW2  687   0.660   0.470   1.794 -1.5452 -3.1709  0.3266
  230SOL     OW  688   1.921   1.141   2.135 -0.1975 -0.5365 -0.4670
  230SOL    HW1  689   1.989   1.198   2.081 -1.4643  3.9598 -1.8597
  230SOL    HW2  690   1.831   1.197   2.140 -0.2287  3.6876  0.6038
  231SOL     OW  691   0.661   0.996   3.014  0.4239 -0.2192  0.4992
  231SOL    HW1  692   0.753   1.040   2.989  1.4054  0.0074 -0.7646
  231SOL    HW2  693   0.583   1.065   3.025 -0.7444  1.4585  0.8054
  232SOL     OW  694   2.403   3.097   2.813 -0.8069  0.2275  0.2871
  232SOL    HW1  695   2.449   3.003   2.833  1.4449  0.9628 -0.2257
  232SOL    HW2  696   2.454   3.152   2.741 -3.6841  2.3506 -0.7982
  233SOL     OW  697   1.736   1.289   1.162 -0.1371 -0.1254 -0.2990
  233SOL    HW1  698   1.752   1.275   1.061  0.4166  1.0329  1.5515
  233SOL    HW2  699   1.758   1.199   1.218 -0.1487  0.5565 -0.8975
  234SOL     OW  700   1.605   2.603   1.873  0.1314 -0.1406 -0.4671
  234SOL    HW1  701   1.598   2.681   1.945 -2.0683  2.5714 -1.4626
  234SOL    HW2  702   1.577   2.515   1.917  1.7639  0.8752 -1.5117
  235SOL     OW  703   0.035   2.990   2.868 -0.2520 -0.2526  0.1175
  235SOL    HW1  704   0.100   3.041   2.806 -0.4786 -1.8596 -0.9071
  235SOL    HW2  705  -0.049   3.039   2.909 -2.0003 -1.0967 -0.8466
  236SOL     OW  706   2.880   0.741   0.102  0.3661 -0.3893 -0.6763
  236SOL    HW1  707   2.944   0.796   0.165  0.2311  1.6024 -0.2069
  236SOL    HW2  708   2.938   0.667   0.054 -0.2285 -1.3882 -1.0548
  237SOL     OW  709   1.496   1.711   1.003  0.5671 -0.1146  0.8953
  237SOL    HW1  710   1.598   1.701   0.994 -1.5402  2.6560 -0.9203
  237SOL    HW2  711   1.464   1.729   1.098 -0.0196  1.0196  2.1058
  238SOL     OW  712   1.758   1.274   0.873 -0.1191  0.6786  0.1891
  238SOL    HW1  713   1.839   1.330   0.915 -0.5754  0.7521 -1.5066
  238SOL    HW2  714   1.699   1.326   0.805  0.1581 -1.8801  1.4640
  239SOL     OW  715   2.041   0.240   2.736  0.0931  0.7409  0.3458
  239SOL    HW1  716   2.102   0.205   2.812 -1.1608  0.5105 -1.9906
  239SOL    HW2  717   1.974   0.314   2.766 -0.3732 -2.8101 -1.4331
  240SOL     OW  718   0.950   0.637   0.345 -0.7246  0.1160  0.3768
  240SOL    HW1  719   0.978   0.549   0.303 -0.6184  1.9773 -3.6867
  240SOL    HW2  720   0.935   0.620   0.447 -1.0359  0.4333  1.7275
  241SOL     OW  721   0.618   0.106   0.369 -0.2318 -0.1826 -0.4795
  241SOL    HW1  722   0.645   0.181   0.297 -0.2898  1.8944 -0.4521
  241SOL    HW2  723   0.609   0.014   0.328 -1.3990 -1.4583  3.1169
  242SOL     OW  724   0.668   2.515   1.120 -0.1817  0.6886 -0.2968
  242SOL    HW1  725   0.615   2.536   1.208  0.3185 -1.7179  1.5754
  242SOL    HW2  726   0.761   2.564   1.113  2.1364  1.9432  2.0112
  243SOL     OW  727   1.075   0.579   2.488 -0.1629  0.1499  0.1048
  243SOL    HW1  728   0.985   0.628   2.465  2.9095 -0.0983 -2.0476
  243SOL    HW2  729   1.057   0.498   2.548  0.4051 -1.5545 -0.1677
  244SOL     OW  730   2.786   1.905   2.339  0.2978  0.1281 -0.0320
  244SOL    HW1  731   2.829   1.902   2.249 -0.5658  2.7154 -1.9216
  244SOL    HW2  732   2.726   1.823   2.355  0.5308  0.5398 -0.4228
  245SOL     OW  733   2.409   0.652   2.202 -0.3018  0.4521  0.6993
  245SOL    HW1  734   2.451   0.734   2.245 -2.3975  1.3411 -0.5184
  245SOL    HW2  735   2.431   0.559   2.249 -1.1065 -2.2017  0.3014
  246SOL     OW  736   0.221   2.905   1.676 -0.2441 -0.0275  0.5710
  246SOL    HW1  737   0.159   2.900   1.593  0.6158  2.5417 -0.9293
  246SOL    HW2  738   0.280   2.990   1.682  1.5823  0.3562  0.3667
  247SOL     OW  739   2.148   0.568   3.039 -0.3182 -0.3482  0.6209
  247SOL    HW1  740   2.241   0.558   2.995  1.3128  0.6099 -0.4685
  247SOL    HW2  741   2.091   0.649   3.000 -5.0034  1.7441 -1.1257
  248SOL     OW  742   2.131   1.832   1.573  0.3591  0.3921 -0.0630
  248SOL    HW1  743   2.174   1.764   1.640  1.3358 -1.6112  1.7862
  248SOL    HW2  744   2.031   1.812   1.562  1.0429 -0.1279 -0.6937
  249SOL     OW  745   1.889   1.887   1.920 -0.9232  0.1799 -0.3556
  249SOL    HW1  746   1.874   1.842   1.827 -0.5472 -3.2008  1.1032
  249SOL    HW2  747   1.980   1.931   1.929 -0.2287  0.3917 -1.1321
  250SOL     OW  748   1.121   0.716   1.911  0.1821 -0.1585  0.4937
  250SOL    HW1  749   1.186   0.641   1.936 -0.6989  0.1181 -0.3014
  250SOL    HW2  750   1.054   0.683   1.842  0.6006 -1.3651  1.2479
  251SOL     OW  751   3.097   1.568   2.529  0.8201 -0.3964 -0.2458
  251SOL    HW1  752   3.097   1.669   2.497 -1.2342  1.2745 -1.3181
  251SOL    HW2  753   3.001   1.521   2.534 -1.3309  2.1088  2.3699
  252SOL     OW  754   1.548   0.877   1.559 -0.5439 -0.2058 -0.3403
  252SOL    HW1  755   1.581   0.887   1.463  0.2419 -3.6323 -0.2996
  252SOL    HW2  756   1.560   0.965   1.614  1.1534  2.4229  2.2762
  253SOL     OW  757   0.856   1.541   0.471  0.0142  0.0948  0.6738
  253SOL    HW1  758   0.897   1.465   0.412  1.5256 -2.2569 -2.7856
  253SOL    HW2  759   0.772   1.512   0.524  3.6621  0.1220  0.0887
  254SOL     OW  760   2.036   2.134   1.597 -0.2867  0.2527  0.5633
  254SOL    HW1  761   1.983   2.101   1.514  0.6176 -1.1387 -0.5068
  254SOL    HW2  762   1.983   2.142   1.685 -0.9554  3.0050  2.3797
  255SOL     OW  763   0.122   1.165   2.906 -0.1990  0.0961 -0.5787
  255SOL    HW1  764   0.181   1.250   2.881  3.1875 -1.6318  0.2964
  255SOL    HW2  765   0.179   1.093   2.957  0.8087 -1.2541  0.8011
  256SOL     OW  766   2.788   1.381   1.733  0.4864 -0.1392  0.3282
  256SOL    HW1  767   2.691   1.390   1.768  0.2912 -1.0797  0.2389
  256SOL    HW2  768   2.813   1.280   1.712  0.2410 -1.8595  1.4532
  257SOL     OW  769   0.838   0.200   1.795 -0.2755  0.6861 -0.1240
  257SOL    HW1  770   0.901   0.284   1.770 -1.3912  1.5945 -0.2268
  257SOL    HW2  771   0.883   0.109   1.765 -1.3316  2.1371 -0.9571
  258SOL     OW  772   2.912   1.299   0.462  0.7082 -0.2032  0.7670
  258SOL    HW1  773   2.846   1.381   0.452 -0.3698  1.6247  0.1895
  258SOL    HW2  774   2.965   1.319   0.550 -1.8997 -1.7390  0.1196
  259SOL     OW  775   0.466   2.960   3.033  0.2385  0.1613 -0.1252
  259SOL    HW1  776   0.384   2.909   3.074 -1.0143 -2.2153  0.1928
  259SOL    HW2  777   0.475   2.940   2.930 -0.5095  1.1794  2.3578
  260SOL     OW  778   2.773   0.840   2.765 -0.2257  0.2238 -0.1645
  260SOL    HW1  779   2.678   0.794   2.770 -0.6325 -0.8480 -1.3381
  260SOL    HW2  780   2.796   0.870   2.862  1.5700  1.8547  1.3779
  261SOL     OW  781   2.742   1.303   1.294 -0.3993 -0.4672 -0.1959
  261SOL    HW1  782   2.668   1.261   1.233 -0.2540 -0.5023 -0.7453
  261SOL    HW2  783   2.791   1.240   1.364  1.1857  3.1119 -1.5874
  262SOL     OW  784   1.435   2.992   2.048 -0.0907 -0.3333  0.0528
  262SOL    HW1  785   1.465   3.067   1.981  1.7034  0.1482 -0.2434
  262SOL    HW2  786   1.350   2.946   2.017  0.0620 -1.8066  0.4220
  263SOL     OW  787   0.880   0.695   2.349 -0.1795 -0.0552 -0.0919
  263SOL    HW1  788   0.826   0.621   2.306  0.1795 -1.5924  2.6675
  263SOL    HW2  789   0.901   0.771   2.285  3.7352  0.5036  0.8697
  264SOL     OW  790   2.194   0.827   0.303  0.1400  0.3131  0.6372
  264SOL    HW1  791   2.115   0.794   0.358  2.1666  0.3536 -1.4807
  264SOL    HW2  792   2.280   0.806   0.347 -4.7108  0.5700 -1.6027
  265SOL     OW  793   0.901   2.325   2.679  0.2033  0.9396  0.1246
  265SOL    HW1  794   0.960   2.355   2.758 -1.2597  0.7641  0.4533
  265SOL    HW2  795   0.858   2.235   2.694 -2.4744 -0.2888  0.4023
  266SOL     OW  796   1.327   1.719   0.020  0.2254 -0.5280 -0.2423
  266SOL    HW1  797   1.340   1.804   0.074  0.5929 -1.2208 -0.7901
  266SOL    HW2  798   1.414   1.704  -0.032 -0.7824 -1.2139 -0.2663
  267SOL     OW  799   0.966   3.029   2.358 -0.0481 -0.1355 -0.0367
  267SOL    HW1  800   0.979   2.993   2.261 -0.8271 -1.0279  1.2140
  267SOL    HW2  801   0.898   3.111   2.357 -0.2631  0.1680 -0.1659
  268SOL     OW  802   0.685   1.143   1.097 -0.0713  0.0374 -0.2481
  268SOL    HW1  803   0.686   1.178   1.193 -1.1067 -2.5528 -3.3596
  268SOL    HW2  804   0.692   1.224   1.031 -1.0085  0.8529 -1.9210
  269SOL     OW  805   2.386   2.509   1.548 -0.0600  0.5562 -0.1560
  269SOL    HW1  806   2.479   2.464   1.554 -1.4708 -1.0696  1.3856
  269SOL    HW2  807   2.337   2.523   1.637  0.2896  0.0065 -1.0867
  270SOL     OW  808   0.149   3.015   1.926  0.4990 -0.8200  0.2667
  270SOL    HW1  809   0.167   2.962   1.840  0.7050 -0.9845  0.4968
  270SOL    HW2  810   0.161   2.955   2.008  1.2281 -0.8904 -0.2548
  271SOL     OW  811   0.396   1.373   1.163 -0.0309 -0.4464  0.4933
  271SOL    HW1  812   0.345   1.369   1.076  0.6562  1.3098  0.8313
  271SOL    HW2  813   0.340   1.370   1.248  0.4630  1.2999 -1.7937
  272SOL     OW  814   1.942   2.862   1.930 -0.2236 -0.7488 -0.2025
  272SOL    HW1  815   1.919   2.800   1.855  4.2893  1.1460  4.0855
  272SOL    HW2  816   2.037   2.902   1.918  0.3453  2.1197  1.1062
  273SOL     OW  817   1.450   1.455   2.775  0.1386 -0.5985  0.0750
  273SOL    HW1  818   1.359   1.506   2.786  2.3155  0.5687 -1.7544
  273SOL    HW2  819   1.503   1.444   2.866  1.2273  0.1600 -1.5777
  274SOL     OW  820   1.270   0.490   2.009 -0.2427 -0.3630  0.1587
  274SOL    HW1  821   1.210   0.410   1.996 -0.6317 -1.0230  1.7431
  274SOL    HW2  822   1.293   0.517   2.105 -1.8471 -2.2407 -1.4785
  275SOL     OW  823   0.612   2.099   1.858 -0.2337  0.0742 -0.0830
  275SOL    HW1  824   0.568   2.180   1.907  1.2378  0.0894  2.1412
  275SOL    HW2  825   0.567   2.009   1.865 -1.5844  4.1496 -0.8862
  276SOL     OW  826   2.159   0.904   2.809 -0.0244 -0.3432 -0.3234
  276SOL    HW1  827   2.102   0.885   2.728  0.9667 -1.7739  2.2409
  276SOL    HW2  828   2.117   0.876   2.902  1.6729 -1.7600  2.5955
  277SOL     OW  829   3.092   0.857   0.247  0.1780  0.4333 -0.2241
  277SOL    HW1  830   3.181   0.881   0.197 -0.6378  1.7694 -1.7974
  277SOL    HW2  831   3.093   0.779   0.316  0.5649 -0.8342 -1.4441
  278SOL     OW  832   0.237   0.275   0.010 -0.0519  0.3699  0.4513
  278SOL    HW1  833   0.327   0.226   0.027 -1.7155 -1.0396 -0.9923
  278SOL    HW2  834   0.252   0.372  -0.007 -0.4650 -0.3770  1.0609
  279SOL     OW  835   0.151   0.103   0.902  0.0469 -0.3529 -0.2052
  279SOL    HW1  836   0.157   0.046   0.988  0.8778  0.0435 -1.1512
  279SOL    HW2  837   0.224   0.078   0.834 -0.4882 -2.8924  0.0719
  280SOL     OW  838   1.555   2.930   2.499  0.4980  0.8568 -0.6799
  280SOL    HW1  839   1.642   2.976   2.530  1.1310 -1.0314  1.3160
  280SOL    HW2  840   1.469   2.985   2.526 -1.8452 -1.4131  0.5329
  281SOL     OW  841   0.576   0.933   2.239 -0.6633 -0.1654 -0.4164
  281SOL    HW1  842   0.566   0.840   2.191  0.4369  2.3724 -0.5667
  281SOL    HW2  843   0.516   0.938   2.325 -0.2795 -0.9832 -0.8896
  282SOL     OW  844   1.782   2.499   0.519 -0.4004  0.9993  0.0677
  282SOL    HW1  845   1.747   2.426   0.453  1.5273 -1.2890  0.0516
  282SOL    HW2  846   1.739   2.590   0.491 -2.1602  0.3166  1.1435
  283SOL     OW  847   1.126   0.912   0.850 -0.1612 -0.0436 -0.4960
  283SOL    HW1  848   1.164   0.849   0.926  2.2387 -0.0943  2.5184
  283SOL    HW2  849   1.079   1.001   0.879 -0.0485  2.9537 -0.2059
  284SOL     OW  850   2.358   2.690   2.424  0.3871 -0.2678  0.7383
  284SOL    HW1  851   2.360   2.783   2.382 -1.3673 -0.5337  3.2373
  284SOL    HW2  852   2.414   2.682   2.511  2.5034 -0.1692  4.8112
  285SOL     OW  853   1.305   3.034   2.560  0.1924 -0.5010  0.3328
  285SOL    HW1  854   1.320   3.060   2.461 -1.8220 -0.5933  1.3465
  285SOL    HW2  855   1.211   3.059   2.590 -2.4963  0.7817  0.8917
  286SOL     OW  856   0.448   0.446   0.774 -0.0906  0.7549  0.2103
  286SOL    HW1  857   0.445   0.396   0.865 -0.8067 -0.6433 -2.6559
  286SOL    HW2  858   0.483   0.386   0.696 -1.7149  0.5405  1.8078
  287SOL     OW  859   0.126   1.289   2.547 -0.0733 -0.5453  0.0098
  287SOL    HW1  860   0.055   1.220   2.578  2.7491 -1.0427  1.2779
  287SOL    HW2  861   0.096   1.385   2.529  1.3159  3.0961 -2.8219
  288SOL     OW  862   1.578   2.687   1.567 -0.1322  0.0426  0.3361
  288SOL    HW1  863   1.598   2.662   1.671  3.0027 -0.0217  3.4298
  288SOL    HW2  864   1.661   2.677   1.515 -0.6872 -0.3674 -0.4246
  289SOL     OW  865   0.603   2.733   0.841  1.0923 -0.0788  0.4372
  289SOL    HW1  866   0.682   2.771   0.786  1.2654 -0.6343 -1.2037
  289SOL    HW2  867   0.591   2.784   0.932  0.7172  1.1578 -2.9800
  290SOL     OW  868   2.800   1.095   1.707 -0.4520  0.1011 -0.1169
  290SOL    HW1  869   2.699   1.082   1.716 -2.5707  0.0710 -0.7783
  290SOL    HW2  870   2.852   1.011   1.741  0.5076 -0.6892 -0.2393
  291SOL     OW  871   1.982   0.090   0.080  0.2618 -0.1816 -0.5881
  291SOL    HW1  872   1.990   0.065   0.181 -0.4806  3.8554  0.1435
  291SOL    HW2  873   2.043   0.169   0.044  0.3912  1.2208  1.6105
  292SOL     OW  874   2.998   1.192   3.075  0.4593  0.3457 -0.4198
  292SOL    HW1  875   2.916   1.238   3.034  2.9011  0.7454  0.5220
  292SOL    HW2  876   3.082   1.205   3.016 -0.8969 -1.3127  0.2504
  293SOL     OW  877   0.573   2.145   0.134 -0.2109 -0.1578  0.4515
  293SOL    HW1  878   0.532   2.211   0.199  0.5118  2.0442 -1.1069
  293SOL    HW2  879   0.670   2.110   0.167  3.2570  1.2071  0.7550
  294SOL     OW  880   1.778   2.213   1.770  0.0809 -0.5985  0.2930
  294SOL    HW1  881   1.834   2.270   1.836 -0.1893  0.7686 -2.4714
  294SOL    HW2  882   1.763   2.254   1.681  1.7003 -0.0035  2.1860
  295SOL     OW  883   0.993   1.029   0.505 -0.2774  0.4995  0.1717
  295SOL    HW1  884   1.065   0.974   0.558  2.3562 -2.9842  2.6990
  295SOL    HW2  885   0.901   1.027   0.549  0.8527  0.6044  1.4115
  296SOL     OW  886   1.246   2.113   2.524  0.0032  0.5374  0.2584
  296SOL    HW1  887   1.205   2.138   2.431  2.1280 -0.2609  1.0148
  296SOL    HW2  888   1.253   2.010   2.535  0.2759 -2.8851 -3.2605
  297SOL     OW  889   1.442   0.622   1.362  0.0932 -0.0131  0.0305
  297SOL    HW1  890   1.410   0.530   1.329  1.3385 -0.4568 -0.6321
  297SOL    HW2  891   1.525   0.624   1.419 -2.5191 -1.7049 -0.2349
  298SOL     OW  892   0.517   1.378   2.988  0.6262 -0.1175 -0.1728
  298SOL    HW1  893   0.493   1.300   3.052  0.7979 -1.8773  0.8472
  298SOL    HW2  894   0.578   1.349   2.907 -0.5761 -3.2508  1.6511
  299SOL     OW  895   0.521   0.262   1.323  0.3213  0.3466 -0.7256
  299SOL    HW1  896   0.501   0.352   1.281 -3.5194  1.4725 -2.2665
  299SOL    HW2  897   0.582   0.267   1.407  0.3044  0.2729 -0.4845
  300SOL     OW  898   1.231   1.844   2.811 -0.0785  0.1666 -0.4304
  300SOL    HW1  899   1.209   1.750   2.852 -0.5572 -0.9021  0.8690
  300SOL    HW2  900   1.311   1.844   2.747  2.5593  0.8373 -0.4029
  301SOL     OW  901   0.465   0.322   0.507 -0.3712  0.6037 -0.4443
  301SOL    HW1  902   0.362   0.297   0.519  0.4579 -1.0807  0.8869
  301SOL    HW2  903   0.510   0.245   0.452 -0.4933  1.3529  0.1830
  302SOL     OW  904   1.233   2.419   2.337  0.3679  1.2917  0.4072
  302SOL    HW1  905   1.150   2.457   2.378  0.2111 -0.3814  0.1773
  302SOL    HW2  906   1.213   2.319   2.304  2.1838  0.3035  0.8111
  303SOL     OW  907   0.972   2.358   0.824 -0.0967  0.5604  0.0778
  303SOL    HW1  908   1.014   2.406   0.738  0.8506  0.3180 -1.9066
  303SOL    HW2  909   0.983   2.410   0.914 -0.3103 -0.9429  2.9993
  304SOL     OW  910   0.128   2.031   0.625 -0.5170  0.1866  0.2497
  304SOL    HW1  911   0.155   1.968   0.547  0.4472 -0.8748  0.7103
  304SOL    HW2  912   0.041   2.084   0.615 -0.3791 -2.2053  3.3927
  305SOL     OW  913   1.640   0.921   0.571  0.1487  0.1884 -0.1684
  305SOL    HW1  914   1.578   0.914   0.486 -1.2087  2.6660 -1.9215
  305SOL    HW2  915   1.678   0.827   0.605  0.0454 -0.9832  0.1105
  306SOL     OW  916   0.444   1.868   1.899 -0.3962 -0.0664  0.3705
  306SOL    HW1  917   0.502   1.776   1.892  2.1855 -3.0518  0.0537
  306SOL    HW2  918   0.432   1.894   2.001  0.3341 -0.0901  1.8964
  307SOL     OW  919   3.064   0.920   2.510 -0.6679 -0.2127  0.1414
  307SOL    HW1  920   3.038   0.998   2.570  0.4229 -2.1104 -0.7172
  307SOL    HW2  921   2.994   0.847   2.516  1.3501  0.5735 -0.5381
  308SOL     OW  922   1.554   2.660   2.832  0.0137 -0.3320 -0.7566
  308SOL    HW1  923   1.544   2.596   2.754  1.5669  0.1002  2.4062
  308SOL    HW2  924   1.493   2.635   2.911 -0.6145 -0.1424  0.8873
  309SOL     OW  925   1.228   0.100   1.759  0.3996  0.6392 -0.2351
  309SOL    HW1  926   1.327   0.074   1.775 -1.1335  1.0121  0.3766
  309SOL    HW2  927   1.202   0.134   1.665 -0.0526  0.4030 -0.5750
  310SOL     OW  928   1.507   2.539   0.657  0.4546  0.0974  0.4196
  310SOL    HW1  929   1.485   2.539   0.757 -1.3985  0.0940  0.8003
  310SOL    HW2  930   1.520   2.634   0.621 -0.0000  1.9145 -0.5663
  311SOL     OW  931   1.166   0.984   1.613 -0.1013  0.9468  0.4348
  311SOL    HW1  932   1.230   0.904   1.640 -0.8617 -1.7494  0.2499
  311SOL    HW2  933   1.219   1.068   1.579  2.3100  2.8251  2.6692
  312SOL     OW  934   1.598   0.685   1.037  0.0851 -0.1066  0.8367
  312SOL    HW1  935   1.565   0.768   0.992 -0.1986 -1.8999  1.4124
  312SOL    HW2  936   1.524   0.614   1.042 -0.8619 -0.1320  3.4409
  313SOL     OW  937   1.561   1.386   0.710 -0.7005 -0.1658  0.2850
  313SOL    HW1  938   1.485   1.435   0.762 -1.2255 -1.4918  0.1154
  313SOL    HW2  939   1.524   1.296   0.671  3.1175 -2.3264 -3.5475
  314SOL     OW  940   2.947   0.045   3.045 -0.7794 -0.3251 -0.4884
  314SOL    HW1  941   2.942   0.072   3.146 -0.8079 -2.4213 -2.3370
  314SOL    HW2  942   2.857   0.002   3.017 -1.1874 -1.0210  0.0763
  315SOL     OW  943   1.249   0.221   2.804 -0.0192  0.0112 -0.3538
  315SOL    HW1  944   1.197   0.152   2.748  0.5936  2.1891 -0.1240
  315SOL    HW2  945   1.259   0.197   2.905 -0.5610 -3.0874  3.1771
  316SOL     OW  946   1.719   2.047   0.861 -0.1270 -0.1336 -0.2933
  316SOL    HW1  947   1.663   2.040   0.952  1.4392  0.0727 -0.4440
  316SOL    HW2  948   1.747   2.144   0.836  2.1477 -0.7154 -1.2932
  317SOL     OW  949   1.114   0.656   2.879 -0.2374 -0.1889  0.0356
  317SOL    HW1  950   1.051   0.681   2.956 -0.4876 -0.8407 -1.4245
  317SOL    HW2  951   1.077   0.586   2.806 -0.5117 -0.7636  1.5743
  318SOL     OW  952   1.352   3.075   2.288  0.2501  0.3120  0.3142
  318SOL    HW1  953   1.338   3.172   2.247 -1.2955  0.9391 -1.0102
  318SOL    HW2  954   1.402   3.020   2.216  1.9142 -3.2872  1.6411
  319SOL     OW  955   0.733   2.425   2.936  0.2061  0.0980 -0.4069
  319SOL    HW1  956   0.662   2.383   3.001 -0.2749 -2.7290 -0.0871
  319SOL    HW2  957   0.830   2.433   2.973 -0.4694 -2.4253 -1.4870
  320SOL     OW  958   1.711   2.260   0.388  0.0677  0.5625  0.3774
  320SOL    HW1  959   1.794   2.209   0.412  0.6153  0.7630  0.3723
  320SOL    HW2  960   1.624   2.196   0.390  0.3372 -2.1868 -0.2149
  321SOL     OW  961   1.669   2.740   0.483 -0.5197 -0.0199  0.5397
  321SOL    HW1  962   1.592   2.769   0.422 -0.1511 -2.7061 -0.1474
  321SOL    HW2  963   1.760   2.783   0.470  0.1145 -0.7681  3.1570
  322SOL     OW  964   2.591   1.161   2.414 -0.1070 -0.0613 -0.6338
  322SOL    HW1  965   2.689   1.194   2.391  0.9344  1.8833  0.2388
  322SOL    HW2  966   2.587   1.073   2.468  1.5272 -1.1153  2.2561
  323SOL     OW  967   1.150   2.641   0.851  0.3657 -0.0714  0.3359
  323SOL    HW1  968   1.153   2.589   0.763  1.6853  0.5035  0.6246
  323SOL    HW2  969   1.135   2.744   0.840  0.7188  0.0317  1.8568
  324SOL     OW  970   0.248   2.510   2.535  0.2200 -0.3785  0.0614
  324SOL    HW1  971   0.312   2.468   2.603 -2.9203  0.0383 -1.3324
  324SOL    HW2  972   0.168   2.551   2.582  0.9900 -1.8719 -1.5612
  325SOL     OW  973   1.249   3.016   0.503 -0.1408  0.3636  0.2379
  325SOL    HW1  974   1.255   3.066   0.414  2.0537  0.5808  3.5586
  325SOL    HW2  975   1.293   3.071   0.579 -0.6081 -2.7150  1.7929
  326SOL     OW  976   2.428   0.780   3.085  0.6422 -0.3453 -0.2374
  326SOL    HW1  977   2.396   0.707   3.019 -0.4164 -0.2992  0.7509
  326SOL    HW2  978   2.488   0.737   3.160 -2.1973 -1.4657  1.3500
  327SOL     OW  979   2.834   0.378   0.636  0.2863 -0.4937 -0.0368
  327SOL    HW1  980   2.815   0.343   0.538 -1.3719 -2.2787 -0.2352
  327SOL    HW2  981   2.876   0.308   0.704 -0.3611 -1.9138  0.8655
  328SOL     OW  982   2.551   0.578   0.381  0.2559 -0.3909  0.4718
  328SOL    HW1  983   2.523   0.682   0.383  1.4895 -1.8260 -0.0684
  328SOL    HW2  984   2.535   0.527   0.474  0.1232  0.0862 -0.3533
  329SOL     OW  985   2.964   2.976   2.149  0.2053 -0.7508 -0.4238
  329SOL    HW1  986   3.040   2.933   2.210  0.3873 -0.7155 -1.5207
  329SOL    HW2  987   2.991   3.063   2.096 -2.0520  2.3130  1.8550
  330SOL     OW  988   0.571   0.156   1.887 -0.1969 -0.0351  0.2589
  330SOL    HW1  989   0.672   0.148   1.855  1.7906 -0.2780  1.0978
  330SOL    HW2  990   0.554   0.081   1.958  1.8633 -1.4699  1.8238
  331SOL     OW  991   2.974   1.905   1.145 -0.2664 -0.1763 -0.1621
  331SOL    HW1  992   3.015   1.985   1.090 -1.0548 -0.8491 -2.3158
  331SOL    HW2  993   2.900   1.934   1.207 -0.8212 -3.1867 -1.3337
  332SOL     OW  994   0.442   1.153   0.003 -0.6214  0.2652 -0.3610
  332SOL    HW1  995   0.390   1.072  -0.039  1.8591 -0.4009 -0.8441
  332SOL    HW2  996   0.398   1.187   0.089  0.0900  0.5016  0.9174
  333SOL     OW  997   2.895   1.050   0.327 -0.0043  0.0915  0.1023
  333SOL    HW1  998   2.925   1.120   0.397  1.5305  0.8405  1.1587
  333SOL    HW2  999   2.966   0.984   0.295 -0.7606  1.0007  0.6589
  334SOL     OW 1000   1.683   1.238   1.839 -0.4598  0.2687  0.2713
  334SOL    HW1 1001   1.775   1.222   1.789 -0.5136  0.4059 -1.9788
  334SOL    HW2 1002   1.695   1.284   1.933 -1.8371  0.3616 -0.0506
  335SOL     OW 1003   1.992   2.764   2.602  0.5682 -0.7035  0.1026
  335SOL    HW1 1004   1.906   2.734   2.646 -1.1914 -0.8854 -0.3351
  335SOL    HW2 1005   2.043   2.831   2.662 -1.0377  0.9646  1.4782
  336SOL     OW 1006   0.272   0.155   2.779 -0.1223  0.6143 -0.5210
  336SOL    HW1 1007   0.368   0.121   2.807  1.2472 -0.7490  1.4761
  336SOL    HW2 1008   0.222   0.205   2.851 -0.5061  1.5287 -0.2270
  337SOL     OW 1009   0.958   2.761   2.826  0.9405  0.1946 -0.4882
  337SOL    HW1 1010   0.918   2.749   2.921 -0.6049  2.4731 -1.2257
  337SOL    HW2 1011   1.057   2.730   2.822  0.8285  0.8299 -0.3841
  338SOL     OW 1012   0.020   1.036   0.627  0.1167 -0.3853 -0.3014
  338SOL    HW1 1013  -0.071   1.007   0.669  0.9851 -3.7004 -0.6891
  338SOL    HW2 1014   0.044   1.139   0.632 -0.9330 -1.0811 -2.1270
  339SOL     OW 1015   1.715   1.343   2.091 -0.0706 -0.1753  0.0176
  339SOL    HW1 1016   1.613   1.356   2.117 -1.1431  1.7565  1.2607
  339SOL    HW2 1017   1.772   1.429   2.104 -0.5824 -1.3168  3.2903
  340SOL     OW 1018   2.347   0.788   1.161  0.7106  0.6312 -0.4413
  340SOL    HW1 1019   2.248   0.826   1.149 -0.4570  0.8978  0.3888
  340SOL    HW2 1020   2.368   0.697   1.119  2.2740  0.0140 -1.7809
  341SOL     OW 1021   1.969   2.090   0.326 -0.4622  0.0335  0.2060
  341SOL    HW1 1022   1.977   2.161   0.251 -1.0532 -1.0684 -0.5724
  341SOL    HW2 1023   2.062   2.050   0.361  0.8894  0.3809  0.5807
  342SOL     OW 1024   2.264   2.108   2.710  0.5250 -0.1700 -0.1599
  342SOL    HW1 1025   2.316   2.025   2.743 -1.1501 -2.0868 -0.4070
  342SOL    HW2 1026   2.162   2.097   2.720  1.3296 -0.6743  0.9595
  343SOL     OW 1027   0.377   0.863   2.761 -0.4262 -0.4885 -0.3527
  343SOL    HW1 1028   0.373   0.957   2.739 -1.7738 -0.9412 -0.1406
  343SOL    HW2 1029   0.474   0.833   2.783 -0.2517  1.8792  3.4142
  344SOL     OW 1030   1.933   1.417   0.378 -0.1495  0.7111 -0.2234
  344SOL    HW1 1031   1.942   1.334   0.319  0.7766  2.3534  0.0572
  344SOL    HW2 1032   1.834   1.447   0.400 -1.1966 -1.0114 -0.8578
  345SOL     OW 1033   1.432   2.246   2.900  0.1894 -0.3164  0.1469
  345SOL    HW1 1034   1.334   2.218   2.871  1.3334  0.1190  0.3820
  345SOL    HW2 1035   1.500   2.239   2.823 -1.5900  0.1776  0.7019
  346SOL     OW 1036   2.386   0.895   1.402 -0.5879 -0.6332  0.4073
  346SOL    HW1 1037   2.329   0.982   1.395 -0.9998 -0.9725 -1.5044
  346SOL    HW2 1038   2.379   0.838   1.314 -0.0818  1.8392 -0.2715
  347SOL     OW 1039   0.758   2.820   1.504  0.1230  0.7514  0.5063
  347SOL    HW1 1040   0.698   2.754   1.552 -1.2311  2.9132 -0.9583
  347SOL    HW2 1041   0.702   2.890   1.453  0.0549  0.5150 -0.4030
  348SOL     OW 1042   0.206   0.680   2.839  0.1016  0.3204 -0.0389
  348SOL    HW1 1043   0.114   0.659   2.805  5.0104  1.4232  1.8599
  348SOL    HW2 1044   0.263   0.743   2.777 -0.3199 -0.4027 -2.3332
  349SOL     OW 1045   1.872   0.439   2.788  0.2968  0.3890  0.5428
  349SOL    HW1 1046   1.832   0.498   2.716  0.8917 -0.9860 -0.1702
  349SOL    HW2 1047   1.833   0.460   2.881  2.1496 -0.5370 -0.3852
  350SOL     OW 1048   1.642   0.416   0.334  0.2428 -0.5718  0.0112
  350SOL    HW1 1049   1.692   0.433   0.425  2.4580  0.7219 -2.1028
  350SOL    HW2 1050   1.642   0.502   0.271  0.2176  0.9528  1.5180
  351SOL     OW 1051   1.001   0.880   2.162  0.2340  0.2893 -0.2288
  351SOL    HW1 1052   0.966   0.975   2.127 -2.9555  1.1224 -0.6892
  351SOL    HW2 1053   1.025   0.812   2.089  1.7576 -2.2055  0.9427
  352SOL     OW 1054   2.042   1.336   0.629  0.1066 -0.2568  0.3501
  352SOL    HW1 1055   1.958   1.358   0.562 -1.0770  1.9871  0.2087
  352SOL    HW2 1056   2.130   1.373   0.592  1.3306  2.1195  3.0094
  353SOL     OW 1057   2.202   2.841   1.041 -0.0629 -0.3843 -0.4015
  353SOL    HW1 1058   2.213   2.765   1.113  0.4009  3.7424  3.0321
  353SOL    HW2 1059   2.099   2.857   1.037  0.0778 -1.5768 -1.1392
  354SOL     OW 1060   0.272   1.413   2.821  0.6026 -0.0778  0.1755
  354SOL    HW1 1061   0.241   1.502   2.766 -0.0534  0.7393  0.6786
  354SOL    HW2 1062   0.367   1.415   2.861  0.6233  0.6223 -0.4177
  355SOL     OW 1063   0.528   1.513   0.542  0.8593  0.2619  0.8174
  355SOL    HW1 1064   0.557   1.590   0.606  1.3682 -0.9017  1.8653
  355SOL    HW2 1065   0.538   1.419   0.585  2.5772 -0.1120 -0.3337
  356SOL     OW 1066   0.854   0.249   2.075  0.2334  0.3087  1.0852
  356SOL    HW1 1067   0.958   0.254   2.063  1.7037 -1.1294 -0.6635
  356SOL    HW2 1068   0.806   0.235   1.988  1.9732 -0.7390 -0.4080
  357SOL     OW 1069   0.990   1.268   0.363  0.3517  0.1058 -0.5770
  357SOL    HW1 1070   0.949   1.245   0.272 -1.3039 -0.4779  0.2286
  357SOL    HW2 1071   0.989   1.189   0.427  0.3013 -1.5746 -1.8248
  358SOL     OW 1072   1.671   1.464   0.465 -0.8881  0.0118  0.1570
  358SOL    HW1 1073   1.628   1.431   0.553 -0.5705 -2.2352  0.2827
  358SOL    HW2 1074   1.611   1.459   0.383 -0.3864  0.7549  0.5300
  359SOL     OW 1075   1.582   2.675   0.132  0.0403 -1.0363  0.5206
  359SOL    HW1 1076   1.543   2.580   0.142  1.9914  1.8858 -0.0600
  359SOL    HW2 1077   1.511   2.745   0.157 -0.8571  1.1284  0.7028
  360SOL     OW 1078   0.863   0.559   0.594 -0.3432 -0.1482  0.2637
  360SOL    HW1 1079   0.766   0.578   0.616  0.4160 -1.0738 -1.0891
  360SOL    HW2 1080   0.894   0.462   0.614  0.3011  1.9663  1.7940
  361SOL     OW 1081   1.203   1.324   0.764 -0.2012 -0.5930  0.2082
  361SOL    HW1 1082   1.270   1.387   0.815  0.0682  2.7627 -3.1707
  361SOL    HW2 1083   1.120   1.369   0.733  0.2652 -2.9518 -2.1040
  362SOL     OW 1084   1.347   1.861   0.794  0.0142 -0.0958 -0.2701
  362SOL    HW1 1085   1.393   1.834   0.883  2.5158  1.4221 -1.0731
  362SOL    HW2 1086   1.422   1.879   0.720 -1.4078  0.1574 -1.6413
  363SOL     OW 1087   1.227   1.312   2.010  0.3292  0.3067 -0.3896
  363SOL    HW1 1088   1.289   1.378   2.065  3.5723 -1.2511 -0.3462
  363SOL    HW2 1089   1.211   1.350   1.913 -0.0281  2.6755  1.3507
  364SOL     OW 1090   0.479   2.316   1.968 -0.4773  0.1950  0.3461
  364SOL    HW1 1091   0.385   2.363   1.964  0.5882 -2.0493  0.4185
  364SOL    HW2 1092   0.551   2.372   1.916 -1.3766  2.1922  0.9222
  365SOL     OW 1093   1.003   1.871   1.414  0.2249  0.3289 -0.6847
  365SOL    HW1 1094   0.901   1.869   1.414  0.1338  1.8356  0.4676
  365SOL    HW2 1095   1.045   1.882   1.319  1.7610 -0.3970  0.0919
  366SOL     OW 1096   2.743   2.086   0.431 -0.0174  0.1579 -0.1421
  366SOL    HW1 1097   2.661   2.030   0.463  1.0583  0.0185 -1.1193
  366SOL    HW2 1098   2.821   2.030   0.395 -0.1535 -2.6175  0.8100
  367SOL     OW 1099   0.917   1.120   0.102  0.4129 -0.1836 -1.0094
  367SOL    HW1 1100   0.955   1.043   0.162 -0.7052 -0.3722 -1.5833
  367SOL    HW2 1101   0.989   1.150   0.033  1.8235  1.5840  0.6030
  368SOL     OW 1102   1.465   0.531   0.734  0.4374  0.2947 -0.0537
  368SOL    HW1 1103   1.423   0.572   0.647 -1.8770 -1.0540 -0.6117
  368SOL    HW2 1104   1.560   0.565   0.758  2.8058  1.1621  1.8764
  369SOL     OW 1105   0.223   1.740   0.053  0.4449  0.3729 -0.0407
  369SOL    HW1 1106   0.283   1.802   0.107  1.5448 -0.1173  1.3175
  369SOL    HW2 1107   0.156   1.686   0.112  0.4552 -0.9096 -0.1343
  370SOL     OW 1108   0.457   2.074   1.013 -0.7182 -0.2079 -0.6161
  370SOL    HW1 1109   0.473   2.175   0.994 -0.5580  0.6574 -0.2225
  370SOL    HW2 1110   0.355   2.044   0.996 -0.9785  0.5597 -1.6496
  371SOL     OW 1111   2.900   2.164   2.681 -0.3456 -0.2940  0.2115
  371SOL    HW1 1112   2.832   2.136   2.751  2.7545 -0.9995 -0.7537
  371SOL    HW2 1113   2.984   2.200   2.721 -0.1516 -0.5283  1.9941
  372SOL     OW 1114   1.127   1.989   1.131  0.2103 -0.4342 -0.1557
  372SOL    HW1 1115   1.063   2.017   1.047 -0.1286  0.6482 -0.4591
  372SOL    HW2 1116   1.133   2.065   1.205 -2.5650  1.1515  0.9369
  373SOL     OW 1117   1.987   2.001   0.878  0.4268 -0.0126  0.0416
  373SOL    HW1 1118   2.050   1.999   0.960  0.1227 -2.0423  1.6066
  373SOL    HW2 1119   1.889   2.021   0.901 -0.1924  0.1857  1.8527
  374SOL     OW 1120   1.786   0.455   0.576  0.3294 -0.2401  0.4406
  374SOL    HW1 1121   1.796   0.423   0.674 -0.5782 -0.4154 -4.2429
  374SOL    HW2 1122   1.874   0.484   0.523  1.6513 -1.6378 -2.4909
  375SOL     OW 1123   2.422   2.210   1.156  0.4478 -0.1771  0.1730
  375SOL    HW1 1124   2.499   2.196   1.090  1.1734 -1.2995  1.5743
  375SOL    HW2 1125   2.448   2.167   1.250 -1.3371  1.4124  1.3278
  376SOL     OW 1126   3.054   0.564   1.468  0.6105  0.0626 -0.0875
  376SOL    HW1 1127   3.088   0.645   1.525 -0.8418  1.4979 -0.7050
  376SOL    HW2 1128   2.959   0.580   1.433  0.9912 -2.8111 -1.3061
  377SOL     OW 1129   2.234   2.851   0.365  0.0253  0.2395 -0.1488
  377SOL    HW1 1130   2.227   2.951   0.374 -0.9813 -3.0146  1.0314
  377SOL    HW2 1131   2.332   2.823   0.341  0.5157 -1.6274  2.7036
  378SOL     OW 1132   1.847   1.820   2.636  0.1570  0.4692 -0.3266
  378SOL    HW1 1133   1.780   1.746   2.650  1.6663  1.5010 -0.6322
  378SOL    HW2 1134   1.932   1.784   2.601 -2.9646  0.9203 -2.1682
  379SOL     OW 1135   0.836   0.143   2.777 -0.5745  0.0870  0.8087
  379SOL    HW1 1136   0.767   0.069   2.738 -1.3777 -0.9674  0.7848
  379SOL    HW2 1137   0.858   0.217   2.708  1.9365  1.0720 -0.6979
  380SOL     OW 1138   1.501   1.154   0.577  0.0483 -0.1200 -0.0914
  380SOL    HW1 1139   1.404   1.121   0.601  0.0993  1.1056  3.2529
  380SOL    HW2 1140   1.564   1.076   0.573 -2.4883  3.6218  2.1744
  381SOL     OW 1141   1.364   1.162   1.506  0.4602 -0.2306 -0.0097
  381SOL    HW1 1142   1.416   1.154   1.419 -0.3098  0.5231  2.4652
  381SOL    HW2 1143   1.421   1.144   1.592 -1.2883  0.9631  0.2431
  382SOL     OW 1144   1.794   0.854   0.186  0.1909 -0.5504 -0.9167
  382SOL    HW1 1145   1.846   0.842   0.094  0.7811  0.0416  0.4680
  382SOL    HW2 1146   1.861   0.853   0.269  2.9110 -0.0843 -0.3164
  383SOL     OW 1147   2.618   1.028   1.454  0.4038  0.1085  0.2810
  383SOL    HW1 1148   2.526   0.993   1.415 -2.5184 -0.5481 -1.0313
  383SOL    HW2 1149   2.702   1.015   1.393 -0.0800  0.0858  2.3837
  384SOL     OW 1150   0.921   2.297   0.129 -0.4284  0.6002  0.0554
  384SOL    HW1 1151   0.885   2.390   0.164  0.4575  0.8283  0.5822
  384SOL    HW2 1152   0.891   2.214   0.181 -2.4497 -1.0433 -2.3148
  385SOL     OW 1153   2.999   2.009   1.726 -0.0278  0.1047 -0.1823
  385SOL    HW1 1154   3.084   2.068   1.707  2.4120 -2.9579 -1.7179
  385SOL    HW2 1155   3.034   1.908   1.733  1.5448 -2.7710  0.0485
  386SOL     OW 1156   0.441   1.101   0.433 -0.0994 -0.4680 -0.0556
  386SOL    HW1 1157   0.466   1.000   0.443 -2.1545 -1.9517  0.5470
  386SOL    HW2 1158   0.401   1.127   0.344  1.3489 -1.0961  3.4443
  387SOL     OW 1159   0.968   0.383   1.636 -0.9637  0.4792  0.1158
  387SOL    HW1 1160   1.037   0.454   1.614 -2.3043 -2.1511  2.1972
  387SOL    HW2 1161   0.940   0.329   1.551  1.9647 -2.0708  0.7716
  388SOL     OW 1162   1.199   2.638   1.768  0.0147 -0.0940 -0.1657
  388SOL    HW1 1163   1.221   2.637   1.668 -2.0228 -0.0533  0.0180
  388SOL    HW2 1164   1.261   2.582   1.831 -0.3391 -0.5163  1.8916
  389SOL     OW 1165   0.198   3.069   1.171 -0.4596 -0.3352 -0.5932
  389SOL    HW1 1166   0.133   3.094   1.249 -0.7599 -2.1415 -0.6357
  389SOL    HW2 1167   0.234   2.971   1.167 -0.0804 -1.6359 -0.7359
  390SOL     OW 1168   1.023   0.958   1.299 -0.8309  0.3730  0.0219
  390SOL    HW1 1169   1.116   0.927   1.328 -0.0856  0.1828 -1.7890
  390SOL    HW2 1170   1.009   1.058   1.331 -0.9342  0.9979  1.2439
  391SOL     OW 1171   2.089   1.184   0.965 -0.4557  0.2300  0.4065
  391SOL    HW1 1172   2.017   1.116   0.991  0.5343  4.2562  1.2657
  391SOL    HW2 1173   2.168   1.130   0.918 -0.6749 -1.3380 -2.2727
  392SOL     OW 1174   0.887   2.649   3.070  0.5642 -0.2986  0.4492
  392SOL    HW1 1175   0.802   2.650   3.125 -0.6912 -1.0160 -1.2544
  392SOL    HW2 1176   0.973   2.667   3.120 -0.1981 -0.8728  1.2681
  393SOL     OW 1177   0.412   0.453   2.043  0.6215  0.0347 -1.0997
  393SOL    HW1 1178   0.347   0.391   1.993 -1.9696  0.0173  0.8885
  393SOL    HW2 1179   0.504   0.467   1.996  3.0370 -0.8193 -1.0797
  394SOL     OW 1180   3.027   1.776   2.758  0.0410  0.0804  0.7549
  394SOL    HW1 1181   3.103   1.817   2.816 -0.0495  0.5741 -2.7652
  394SOL    HW2 1182   3.017   1.818   2.666 -1.0901 -0.1432 -0.1483
  395SOL     OW 1183   1.581   1.917   0.630 -0.1198  0.1943 -0.2792
  395SOL    HW1 1184   1.656   1.851   0.595  0.0837 -1.2221  1.0508
  395SOL    HW2 1185   1.616   1.955   0.725  0.5493  0.6677  0.7194
  396SOL     OW 1186   2.753   1.965   1.319  0.2815  0.0373 -0.0733
  396SOL    HW1 1187   2.696   2.037   1.367 -0.7824 -0.3808 -4.2705
  396SOL    HW2 1188   2.750   1.870   1.362  0.2020 -2.1861 -1.0667
  397SOL     OW 1189   1.037   2.148   0.606 -0.1654  0.4214 -0.8767
  397SOL    HW1 1190   0.962   2.101   0.555  0.4709  1.3199  2.1457
  397SOL    HW2 1191   1.004   2.192   0.693 -2.6360  3.1241  1.2221
  398SOL     OW 1192   2.243   0.042   0.998 -0.2227 -0.0697  0.3021
  398SOL    HW1 1193   2.233  -0.053   1.023 -0.3528  0.9351 -0.4308
  398SOL    HW2 1194   2.168   0.104   1.044  2.0560 -0.1864  0.3634
  399SOL     OW 1195   2.879   2.542   2.769  0.3914 -0.2458 -0.1856
  399SOL    HW1 1196   2.846   2.497   2.677  0.0922 -1.1284 -2.2901
  399SOL    HW2 1197   2.839   2.494   2.848 -1.1232  1.0491  0.6099
  400SOL     OW 1198   0.762   1.572   1.270 -0.1552  0.0747  0.3543
  400SOL    HW1 1199   0.757   1.608   1.367 -0.2318 -4.0781 -0.6329
  400SOL    HW2 1200   0.768   1.651   1.203  1.9040  1.2275  0.1107
  401SOL     OW 1201   1.834   0.155   1.345  0.1777 -0.1052  1.0953
  401SOL    HW1 1202   1.901   0.182   1.422 -0.9663 -1.8992  0.8515
  401SOL    HW2 1203   1.739   0.170   1.374  1.3019 -0.2288 -0.8535
  402SOL     OW 1204   1.333   0.148   3.075  0.0118 -0.0088  0.0526
  402SOL    HW1 1205   1.425   0.129   3.027  1.7601 -0.8295 -0.1069
  402SOL    HW2 1206   1.333   0.241   3.116 -0.5689  0.1117 -0.5093
  403SOL     OW 1207   2.312   1.842   0.890  0.1136  0.0665 -0.2202
  403SOL    HW1 1208   2.412   1.833   0.915 -1.7817 -1.0170  0.7623
  403SOL    HW2 1209   2.265   1.933   0.921  1.5895  1.3101  1.1138
  404SOL     OW 1210   0.198   2.476   2.874  0.2299 -0.0915 -0.5459
  404SOL    HW1 1211   0.298   2.464   2.842  0.3947  1.1974 -1.4815
  404SOL    HW2 1212   0.154   2.571   2.845  1.0267  1.4398  0.7983
  405SOL     OW 1213   0.189   2.483   0.574 -0.2510 -0.8788 -0.4436
  405SOL    HW1 1214   0.133   2.506   0.491 -1.4899 -3.1514 -1.0035
  405SOL    HW2 1215   0.271   2.549   0.575  0.4807 -0.2732  0.1901
  406SOL     OW 1216   0.035   1.461   2.969 -0.1609 -0.5980  0.1484
  406SOL    HW1 1217   0.120   1.449   2.916  3.4166  1.5035 -0.3156
  406SOL    HW2 1218   0.047   1.505   3.064 -0.4737  0.9357  0.9096
  407SOL     OW 1219   1.578   0.929   0.880  0.5942 -0.1881 -0.1083
  407SOL    HW1 1220   1.584   0.956   0.782 -0.9492  1.3392 -0.2058
  407SOL    HW2 1221   1.514   0.996   0.932  0.2410 -0.2358 -1.1792
  408SOL     OW 1222   1.623   2.325   1.006  0.4003  0.0779 -0.8187
  408SOL    HW1 1223   1.668   2.337   0.913  0.1993 -0.0908  2.6803
  408SOL    HW2 1224   1.594   2.413   1.045 -1.1029  3.4223 -0.8098
  409SOL     OW 1225   0.566   0.879   0.772  0.7286  0.0228 -0.2833
  409SOL    HW1 1226   0.531   0.905   0.678  3.1141  0.7975  1.2851
  409SOL    HW2 1227   0.608   0.785   0.775  2.3040 -0.5924  0.0168
  410SOL     OW 1228   1.251   1.999   1.412  0.1937  0.3611  0.1287
  410SOL    HW1 1229   1.333   1.982   1.478  3.2922 -2.9821  4.3649
  410SOL    HW2 1230   1.163   1.966   1.447  0.4741 -1.4170  0.6539
  411SOL     OW 1231   2.456   1.879   3.053  0.4020  0.7288  0.0857
  411SOL    HW1 1232   2.373   1.930   3.020  0.2442 -1.5901 -0.2492
  411SOL    HW2 1233   2.534   1.884   2.989 -0.4302 -0.9174  1.0571
  412SOL     OW 1234   1.469   2.492   2.238 -0.3710 -0.4652 -0.1820
  412SOL    HW1 1235   1.529   2.541   2.306  0.3259 -0.0985 -1.5419
  412SOL    HW2 1236   1.381   2.446   2.278 -1.9465 -0.9193 -1.6687
  413SOL     OW 1237   0.020   0.249   2.926 -0.0726  0.0686 -0.3535
  413SOL    HW1 1238  -0.041   0.180   2.970 -0.7067 -0.7145 -0.3733
  413SOL    HW2 1239   0.107   0.271   2.982  0.4304  2.7897 -0.3956
  414SOL     OW 1240   1.778   1.459   1.363  0.7547  0.1423 -0.1575
  414SOL    HW1 1241   1.681   1.484   1.395 -0.9639  0.3795 -2.2316
  414SOL    HW2 1242   1.780   1.388   1.284 -1.5170  2.0427  0.9808
  415SOL     OW 1243   0.324   2.217   0.682 -0.8904 -0.5371  0.5984
  415SOL    HW1 1244   0.301   2.319   0.660 -0.0100  0.2322 -1.4219
  415SOL    HW2 1245   0.255   2.149   0.649  0.5578 -2.4592  0.5733
  416SOL     OW 1246   0.335   1.054   1.058  0.4734  0.5391  0.0318
  416SOL    HW1 1247   0.285   0.997   0.987 -1.6619  0.5004  1.0337
  416SOL    HW2 1248   0.433   1.068   1.040 -1.7255  2.1335  3.4406
  417SOL     OW 1249   2.106   2.331   1.874 -0.2388 -0.0472  0.1425
  417SOL    HW1 1250   2.130   2.230   1.884 -1.8276  2.2644  1.4820
  417SOL    HW2 1251   2.024   2.355   1.933 -0.6960  1.4690 -1.2916
  418SOL     OW 1252   1.093   0.500   1.273  0.5444 -0.1446  0.1182
  418SOL    HW1 1253   1.001   0.483   1.226  1.6849  0.5812  0.3190
  418SOL    HW2 1254   1.161   0.545   1.211 -2.5966  2.9688 -2.5083
  419SOL     OW 1255   1.044   0.346   3.036 -0.1303  0.5192 -0.7508
  419SOL    HW1 1256   1.043   0.391   2.941  2.1494  1.9343 -3.7023
  419SOL    HW2 1257   0.975   0.264   3.047 -2.2787 -1.7626 -0.5035
  420SOL     OW 1258   0.184   2.235   0.375 -0.4222 -0.3847 -0.2432
  420SOL    HW1 1259   0.169   2.189   0.282  1.3964  1.5193 -1.8766
  420SOL    HW2 1260   0.093   2.245   0.421 -0.7660  0.1386 -2.9813
  421SOL     OW 1261   0.316   3.086   0.670 -0.0048 -0.4630  0.3229
  421SOL    HW1 1262   0.320   2.986   0.651 -0.3630 -0.3451 -0.6597
  421SOL    HW2 1263   0.416   3.113   0.694  3.5857 -2.1639 -0.2744
  422SOL     OW 1264   0.971   2.548   1.067 -0.3367  0.0663  0.1121
  422SOL    HW1 1265   1.039   2.579   0.997  0.0530  0.6212  1.7587
  422SOL    HW2 1266   0.993   2.570   1.163 -0.2458 -1.0061 -0.2156
  423SOL     OW 1267   0.093   0.670   1.258  0.2114 -0.1038  0.4719
  423SOL    HW1 1268   0.033   0.626   1.333 -0.8590  1.3218  0.1697
  423SOL    HW2 1269   0.089   0.775   1.254  1.5382  4.7836  4.0194
  424SOL     OW 1270   1.008   2.214   2.056  0.0430  0.4155  0.0358
  424SOL    HW1 1271   0.989   2.314   2.043 -0.3412 -0.7140  1.9243
  424SOL    HW2 1272   1.017   2.185   2.156  1.6024  0.3615  0.0948
  425SOL     OW 1273   1.973   1.434   0.976  0.0922 -0.2855 -0.5525
  425SOL    HW1 1274   2.039   1.349   0.972 -0.1285 -0.5710 -0.0871
  425SOL    HW2 1275   2.020   1.511   0.918 -0.7129  0.0806  0.1382
  426SOL     OW 1276   1.510   1.544   1.429 -0.7154 -0.5851 -0.1265
  426SOL    HW1 1277   1.482   1.636   1.379 -0.0823  1.1300 -1.7617
  426SOL    HW2 1278   1.467   1.528   1.520  0.8657 -3.1572  0.2553
  427SOL     OW 1279   1.883   2.372   2.057 -0.2466  0.1284 -0.7417
  427SOL    HW1 1280   1.933   2.316   2.132  1.8198 -3.1120 -2.3196
  427SOL    HW2 1281   1.894   2.476   2.074  0.1739  0.7548 -0.2233
  428SOL     OW 1282   0.865   2.912   0.160  0.2411 -0.2850  0.3263
  428SOL    HW1 1283   0.931   2.984   0.191 -1.8480 -1.5005 -0.1686
  428SOL    HW2 1284   0.908   2.836   0.101 -2.5697  0.6443 -1.8476
  429SOL     OW 1285   1.296   0.088   0.258  0.0628  0.4523  0.2594
  429SOL    HW1 1286   1.397   0.112   0.278 -0.2350 -2.3560 -0.9767
  429SOL    HW2 1287   1.275   0.084   0.157 -0.5753  0.9682 -0.7817
  430SOL     OW 1288   2.705   1.483   0.386 -0.1388 -0.2532 -0.2262
  430SOL    HW1 1289   2.750   1.542   0.313  0.5144 -0.5391  2.2479
  430SOL    HW2 1290   2.718   1.526   0.479  2.1888 -0.1520  0.3851
  431SOL     OW 1291   2.113   1.633   0.873  0.3166 -0.2582 -0.1965
  431SOL    HW1 1292   2.188   1.696   0.911  2.5607 -0.8599 -2.4479
  431SOL    HW2 1293   2.045   1.687   0.816 -1.2210 -0.7145  0.9214
  432SOL     OW 1294   2.896   2.243   1.266 -0.0120 -0.3727  0.6755
  432SOL    HW1 1295   2.857   2.146   1.271 -0.9624  1.5887  0.5275
  432SOL    HW2 1296   2.940   2.282   1.346 -2.5990  0.0788 -1.4380
  433SOL     OW 1297   1.867   0.388   0.839  0.5255 -0.4169 -0.1731
  433SOL    HW1 1298   1.799   0.373   0.917 -0.7040 -1.4415  0.4139
  433SOL    HW2 1299   1.923   0.302   0.833  2.4120  0.7918  2.8768
  434SOL     OW 1300   1.582   0.284   0.735  0.3121 -0.4901  0.5607
  434SOL    HW1 1301   1.539   0.378   0.713  1.5626  2.0660  1.5141
  434SOL    HW2 1302   1.617   0.281   0.827 -0.2581 -2.3384 -2.0904
  435SOL     OW 1303   1.431   1.457   2.117 -0.3037  0.3437 -0.0753
  435SOL    HW1 1304   1.388   1.480   2.206  2.1379 -3.1453 -0.3739
  435SOL    HW2 1305   1.434   1.536   2.043  1.4272  0.3746 -1.0642
  436SOL     OW 1306   1.645   2.703   2.346  0.6372  0.4138  0.0752
  436SOL    HW1 1307   1.600   2.795   2.386 -3.7367  0.0701  3.2483
  436SOL    HW2 1308   1.694   2.651   2.421  0.3365 -0.4557 -0.2273
  437SOL     OW 1309   1.103   2.907   0.866  0.0191  0.1756  0.3212
  437SOL    HW1 1310   1.049   2.979   0.811 -0.2229  1.1996 -0.9494
  437SOL    HW2 1311   1.085   2.907   0.971 -0.6454 -1.4402 -0.2587
  438SOL     OW 1312   1.052   2.606   1.326  0.1448 -0.0645 -0.4883
  438SOL    HW1 1313   1.109   2.647   1.403  0.2806  2.9925 -0.3487
  438SOL    HW2 1314   1.015   2.510   1.358 -0.5742 -0.9517 -0.8503
  439SOL     OW 1315   0.725   1.802   1.098 -0.1274 -0.1055 -0.1714
  439SOL    HW1 1316   0.751   1.899   1.111 -0.3091 -0.1712  0.0698
  439SOL    HW2 1317   0.623   1.790   1.093 -0.0250 -0.6193  0.7307
  440SOL     OW 1318   0.988   2.485   1.966 -0.3899 -0.3312  0.1401
  440SOL    HW1 1319   0.958   2.470   1.869  0.1819  2.5211 -0.6106
  440SOL    HW2 1320   1.090   2.509   1.970 -2.3486  2.5036 -0.7758
  441SOL     OW 1321   0.402   2.798   1.345  0.2045  0.4345  0.5331
  441SOL    HW1 1322   0.435   2.709   1.372 -2.2281 -0.0833 -1.7372
  441SOL    HW2 1323   0.381   2.808   1.244 -0.9428  0.5309  1.2536
  442SOL     OW 1324   2.262   0.650   2.610 -0.2184 -0.0900 -0.0069
  442SOL    HW1 1325   2.237   0.555   2.567 -1.8170 -2.8458  2.9198
  442SOL    HW2 1326   2.179   0.715   2.612  0.6241  0.1815  0.5022
  443SOL     OW 1327   1.218   2.710   2.194  0.1459  0.3617 -0.1949
  443SOL    HW1 1328   1.232   2.629   2.263 -2.8153  1.8623 -0.7295
  443SOL    HW2 1329   1.208   2.800   2.240 -1.1271 -1.3216  0.3184
  444SOL     OW 1330   1.124   1.320   1.542  0.2893  0.5313  0.4636
  444SOL    HW1 1331   1.215   1.271   1.543  1.0579 -0.9501  0.4722
  444SOL    HW2 1332   1.114   1.415   1.576  0.4978 -0.5851  1.6288
  445SOL     OW 1333   3.102   2.373   1.843  0.1192 -0.0794 -0.0584
  445SOL    HW1 1334   3.105   2.461   1.787 -0.6693  0.2352  2.0104
  445SOL    HW2 1335   3.010   2.363   1.890 -1.8134 -1.9453  1.3159
  446SOL     OW 1336   0.224   1.881   2.405  0.7597 -0.3999 -0.1143
  446SOL    HW1 1337   0.168   1.967   2.411 -0.1946  2.3219  0.9607
  446SOL    HW2 1338   0.190   1.824   2.330  0.8563  3.6032 -0.1617
  447SOL     OW 1339   1.237   1.658   1.980  0.3564 -0.0073  0.0915
  447SOL    HW1 1340   1.146   1.706   1.974  0.1687 -1.0181  0.8768
  447SOL    HW2 1341   1.306   1.728   2.015 -2.0260  0.1327  0.5404
  448SOL     OW 1342   0.087   1.456   1.971 -0.0748  0.4060 -0.2380
  448SOL    HW1 1343   0.128   1.551   1.945  1.4270  0.1055  1.3076
  448SOL    HW2 1344   0.059   1.447   2.068 -0.2351 -2.2039 -0.0843
  449SOL     OW 1345   1.723   2.936   0.906  0.1005  0.4607  0.0957
  449SOL    HW1 1346   1.747   2.928   1.010 -0.3544 -1.8822  2.6936
  449SOL    HW2 1347   1.793   2.886   0.851 -1.8381 -0.8997  0.6393
  450SOL     OW 1348   2.313   1.443   0.748  0.3794 -0.1554  0.1535
  450SOL    HW1 1349   2.247   1.497   0.804  3.8414 -0.8390 -2.1806
  450SOL    HW2 1350   2.338   1.488   0.660 -1.4016  0.4786 -0.0409
  451SOL     OW 1351   1.304   3.048   1.433 -0.3130 -0.1853 -0.0157
  451SOL    HW1 1352   1.227   3.113   1.450 -1.8437 -0.6331  0.3001
  451SOL    HW2 1353   1.331   2.991   1.519  1.8573  1.4504 -0.6695
  452SOL     OW 1354   2.651   2.296   2.227 -0.0597  0.5259 -0.6957
  452SOL    HW1 1355   2.628   2.396   2.234 -1.1353 -0.9569 -0.5741
  452SOL    HW2 1356   2.713   2.268   2.308  1.1631  1.0647  0.8575
  453SOL     OW 1357   2.462   2.680   3.075 -0.2327 -0.0281 -0.4402
  453SOL    HW1 1358   2.370   2.699   3.116 -0.5428 -2.5857 -1.1478
  453SOL    HW2 1359   2.462   2.607   2.999  1.3526  1.7879  2.8951
  454SOL     OW 1360   0.979   1.157   2.046 -0.1281 -0.2975 -0.1186
  454SOL    HW1 1361   0.943   1.171   1.952  0.4204 -0.9004  1.3595
  454SOL    HW2 1362   1.057   1.224   2.059  0.0063 -0.1926 -1.8329
  455SOL     OW 1363   0.690   2.683   2.799  0.2758 -0.5647  0.2832
  455SOL    HW1 1364   0.775   2.742   2.787  1.5178 -0.4209 -0.1865
  455SOL    HW2 1365   0.700   2.608   2.862  1.7030  0.4657  2.4740
  456SOL     OW 1366   0.432   1.860   0.193  0.6323  0.4369  0.1969
  456SOL    HW1 1367   0.498   1.800   0.246 -2.9789 -0.2129  2.0295
  456SOL    HW2 1368   0.472   1.951   0.160 -0.2392  0.3892 -0.2279
  457SOL     OW 1369   0.392   2.685   0.600 -0.2621 -0.7082 -0.2088
  457SOL    HW1 1370   0.358   2.747   0.522 -0.0243  2.9842 -1.4627
  457SOL    HW2 1371   0.485   2.709   0.640  0.0347 -1.6014 -0.2098
  458SOL     OW 1372   2.921   0.010   1.212  0.6182 -0.3994  0.3059
  458SOL    HW1 1373   2.971   0.097   1.198 -0.1204 -1.2385  0.7004
  458SOL    HW2 1374   2.932  -0.065   1.141  2.3985 -1.5042  2.8882
  459SOL     OW 1375   2.085   2.625   0.782 -0.4959  0.3154 -0.5045
  459SOL    HW1 1376   2.179   2.632   0.813 -2.0207 -0.7360 -1.4754
  459SOL    HW2 1377   2.075   2.582   0.689 -0.4477  2.0890  0.9934
  460SOL     OW 1378   1.195   2.123   2.816  0.0935 -0.2881  0.0768
  460SOL    HW1 1379   1.210   2.140   2.714  3.0291 -0.5231 -0.4492
  460SOL    HW2 1380   1.214   2.022   2.836  0.6117 -1.4299 -4.7068
  461SOL     OW 1381   0.560   2.182   2.653 -0.2956 -0.2323  0.0466
  461SOL    HW1 1382   0.498   2.100   2.625 -0.7141 -0.2603  1.3051
  461SOL    HW2 1383   0.582   2.178   2.756  1.1313 -0.2103  1.2653
  462SOL     OW 1384   0.938   1.078   1.751  0.4001  0.3059 -0.5511
  462SOL    HW1 1385   1.024   1.059   1.694 -0.1373 -0.2312  0.8477
  462SOL    HW2 1386   0.877   1.141   1.696  1.6065 -0.0534  0.0563
  463SOL     OW 1387   0.460   0.830   0.505 -0.1283 -0.5707 -0.2509
  463SOL    HW1 1388   0.511   0.741   0.488 -1.0757  1.6574  1.1914
  463SOL    HW2 1389   0.357   0.828   0.493 -1.7054 -1.1539  1.3142
  464SOL     OW 1390   0.612   2.277   2.221  0.2482  0.3615  0.3271
  464SOL    HW1 1391   0.570   2.347   2.280  1.4636 -2.3135  1.9286
  464SOL    HW2 1392   0.567   2.261   2.128  2.1336  0.7684  0.4484
  465SOL     OW 1393   0.205   0.946   0.827 -0.1560  0.0105 -0.4126
  465SOL    HW1 1394   0.115   0.946   0.789  0.3590 -0.0024 -0.4471
  465SOL    HW2 1395   0.245   0.851   0.824 -0.7688  2.0513 -2.0419
  466SOL     OW 1396   1.400   1.107   0.997  0.0145  0.0037 -0.0917
  466SOL    HW1 1397   1.424   1.205   0.977 -0.8900 -0.1044  0.8998
  466SOL    HW2 1398   1.301   1.104   1.021  1.5390  1.2636  2.5851
  467SOL     OW 1399   0.609   0.431   2.442 -0.7847 -0.3466 -0.0965
  467SOL    HW1 1400   0.541   0.486   2.394  1.5906  0.3685  0.0720
  467SOL    HW2 1401   0.575   0.411   2.536 -1.9440  2.5701  0.5926
  468SOL     OW 1402   0.436   2.251   1.615 -0.0229 -0.3673  0.2085
  468SOL    HW1 1403   0.416   2.339   1.667  0.0882  0.4599 -1.2395
  468SOL    HW2 1404   0.418   2.250   1.515  0.7132 -1.8302  1.7507
  469SOL     OW 1405   1.473   1.352   1.245 -0.4117 -0.1926 -0.0833
  469SOL    HW1 1406   1.568   1.345   1.199  0.9370  1.4844 -2.1096
  469SOL    HW2 1407   1.475   1.410   1.329 -0.4210  0.7007 -4.1996
  470SOL     OW 1408   3.036   1.847   0.773 -0.2289 -0.1923 -0.0487
  470SOL    HW1 1409   3.104   1.905   0.712  0.7922  0.8734 -1.2688
  470SOL    HW2 1410   3.081   1.769   0.820  0.1201 -0.2405  0.2209
  471SOL     OW 1411   2.596   1.307   2.145  0.3993 -0.4682 -0.1487
  471SOL    HW1 1412   2.526   1.269   2.209  3.2628 -1.8619 -1.1220
  471SOL    HW2 1413   2.669   1.368   2.190  0.0989  1.0390 -1.5865
  472SOL     OW 1414   1.154   2.419   0.046 -0.3288  0.7640  0.0054
  472SOL    HW1 1415   1.227   2.415   0.121 -0.4471  2.0249  0.3860
  472SOL    HW2 1416   1.061   2.381   0.076  0.9271  0.3569 -1.0216
  473SOL     OW 1417   1.074   1.518   1.026  0.4563  0.3243 -0.4385
  473SOL    HW1 1418   0.974   1.533   0.998 -1.0017 -0.1338  1.8531
  473SOL    HW2 1419   1.084   1.434   1.080 -0.2002  2.2577  0.5098
  474SOL     OW 1420   0.675   1.253   0.549  0.1817  0.1228 -0.0270
  474SOL    HW1 1421   0.634   1.222   0.459  1.5149 -0.4513  0.0332
  474SOL    HW2 1422   0.712   1.173   0.603 -1.1163  1.9820 -0.8778
  475SOL     OW 1423   2.841   0.029   0.832 -0.1295 -0.3976  0.4835
  475SOL    HW1 1424   2.907   0.110   0.849 -1.4124 -1.7568  0.3705
  475SOL    HW2 1425   2.749   0.053   0.876  3.6147 -0.7882  1.6597
  476SOL     OW 1426   0.964   3.056   1.749 -0.0679  0.4843  0.1561
  476SOL    HW1 1427   1.043   3.103   1.794 -0.0852  0.9752  2.0200
  476SOL    HW2 1428   0.996   2.999   1.666  1.0169  2.1795 -1.7291
  477SOL     OW 1429   1.427   0.336   2.414 -0.5037  0.0069 -0.5142
  477SOL    HW1 1430   1.425   0.353   2.516  0.0808 -1.5602  1.0075
  477SOL    HW2 1431   1.508   0.279   2.388 -2.2006  1.3296  0.9656
  478SOL     OW 1432   2.235   1.809   0.168 -0.4000 -0.0641 -0.4751
  478SOL    HW1 1433   2.201   1.739   0.236 -2.2359  0.3028  0.8601
  478SOL    HW2 1434   2.269   1.762   0.080  0.3184  2.6904 -0.3816
  479SOL     OW 1435   1.200   0.986   2.822 -0.4840  0.1899  0.5163
  479SOL    HW1 1436   1.280   0.966   2.755 -0.0128  0.5775  0.3067
  479SOL    HW2 1437   1.108   0.947   2.789 -2.7319 -0.3021 -0.7512
  480SOL     OW 1438   2.660   2.348   0.361 -0.0256 -0.1580 -0.2478
  480SOL    HW1 1439   2.678   2.253   0.405 -2.2574  0.1553  3.0754
  480SOL    HW2 1440   2.563   2.350   0.318 -0.6345 -2.2585 -1.4661
  481SOL     OW 1441   0.968   1.175   0.867  0.1940 -0.1201  0.0751
  481SOL    HW1 1442   0.986   1.266   0.814  2.1545 -0.8337  0.1329
  481SOL    HW2 1443   1.030   1.165   0.954  1.0419 -0.5998  1.2031
  482SOL     OW 1444   1.598   0.283   2.005 -0.3542  0.0702  0.1202
  482SOL    HW1 1445   1.588   0.382   1.988  0.5053 -4.1781 -0.3817
  482SOL    HW2 1446   1.692   0.252   2.045  0.0035 -0.3629 -0.0888
  483SOL     OW 1447   0.117   2.281   1.201 -0.3389  0.2275  0.3473
  483SOL    HW1 1448   0.046   2.312   1.268  0.4925  2.1864  0.1486
  483SOL    HW2 1449   0.140   2.362   1.139 -0.2299  1.4447 -1.1691
  484SOL     OW 1450   1.776   1.125   1.364  0.0632 -0.1361 -0.0702
  484SOL    HW1 1451   1.843   1.043   1.385  0.3688  0.3726  1.2960
  484SOL    HW2 1452   1.796   1.202   1.428 -1.4334  0.0779  0.4035
  485SOL     OW 1453   0.751   0.897   1.769  0.0317  0.5905  0.0863
  485SOL    HW1 1454   0.738   0.913   1.669 -1.0329  1.4159 -0.9868
  485SOL    HW2 1455   0.826   0.958   1.806 -1.7733 -2.3174  1.5925
  486SOL     OW 1456   0.793   1.876   2.457 -0.1179 -0.0936 -0.5468
  486SOL    HW1 1457   0.830   1.837   2.548 -1.2689  3.1626  1.2882
  486SOL    HW2 1458   0.768   1.974   2.465  1.3599 -2.5773 -1.4975
  487SOL     OW 1459   1.782   1.663   0.936  0.0504  0.0067  0.3715
  487SOL    HW1 1460   1.831   1.578   0.968  1.3465 -3.8882 -0.3443
  487SOL    HW2 1461   1.820   1.696   0.846  1.3059 -2.4011  1.1687
  488SOL     OW 1462   2.968   0.866   2.265  0.7236 -0.2360 -0.0351
  488SOL    HW1 1463   2.978   0.765   2.242 -2.2601 -0.6924  0.0817
  488SOL    HW2 1464   3.022   0.883   2.354 -0.3592 -1.6040  0.4839
  489SOL     OW 1465   2.809   0.342   1.275 -0.2439 -0.0648 -0.9109
  489SOL    HW1 1466   2.775   0.325   1.373  1.7680 -1.0538 -2.1590
  489SOL    HW2 1467   2.912   0.318   1.267 -0.1011  0.8218  1.0745
  490SOL     OW 1468   1.436   2.933   2.798  0.4008  0.4615  0.1515
  490SOL    HW1 1469   1.493   2.845   2.806 -0.3555 -3.4316 -3.4554
  490SOL    HW2 1470   1.402   2.953   2.702  2.4120  1.3702 -0.1284
  491SOL     OW 1471   1.692   1.466   2.628  0.4824 -0.9666 -0.1269
  491SOL    HW1 1472   1.601   1.453   2.678  0.0352  1.4599 -1.2824
  491SOL    HW2 1473   1.774   1.485   2.695 -1.0701 -4.0261 -0.6049
  492SOL     OW 1474   0.570   2.107   0.633  0.2217  0.5254  0.2811
  492SOL    HW1 1475   0.599   2.078   0.727  0.2070  0.5749  2.8991
  492SOL    HW2 1476   0.475   2.153   0.631  2.8890  1.4656 -0.4663
  493SOL     OW 1477   0.422   1.397   2.041 -0.0085  0.0136 -0.1335
  493SOL    HW1 1478   0.334   1.425   2.005 -0.2810 -2.7180 -0.7314
  493SOL    HW2 1479   0.422   1.302   2.086  3.0785  1.6815  1.0286
  494SOL     OW 1480   2.711   2.713   0.092  0.0087  0.4033 -0.1610
  494SOL    HW1 1481   2.727   2.677   0.187  3.5631 -0.4563 -1.5869
  494SOL    HW2 1482   2.615   2.707   0.065  2.4936  2.0053  1.4907
  495SOL     OW 1483   2.568   2.715   2.649 -0.2221  0.0298 -0.4323
  495SOL    HW1 1484   2.576   2.607   2.634  1.1191 -3.1628  0.4830
  495SOL    HW2 1485   2.635   2.774   2.592  1.8277  2.9566 -2.3303
  496SOL     OW 1486   2.088   2.261   0.723  0.0138 -0.0405 -0.5228
  496SOL    HW1 1487   2.080   2.303   0.817 -1.4248 -1.4974 -1.5890
  496SOL    HW2 1488   2.130   2.164   0.728  1.6073 -0.5494 -1.1868
  497SOL     OW 1489   0.209   2.988   2.357 -0.0449  0.0189  0.4361
  497SOL    HW1 1490   0.156   3.032   2.434  1.7442 -1.5704 -0.5943
  497SOL    HW2 1491   0.226   3.056   2.278 -2.6380  1.3204 -1.1146
  498SOL     OW 1492   1.191   1.346   1.225 -0.3424  0.2418 -0.5499
  498SOL    HW1 1493   1.296   1.333   1.214  1.0131  0.0731 -3.1163
  498SOL    HW2 1494   1.166   1.422   1.294 -1.1022 -1.1179  3.9826
  499SOL     OW 1495   0.622   1.749   0.364  0.1720 -0.3014  0.2086
  499SOL    HW1 1496   0.639   1.665   0.306 -0.2130  2.1099 -1.6473
  499SOL    HW2 1497   0.708   1.786   0.411  3.4050  1.7666  0.4936
  500SOL     OW 1498   1.399   2.892   1.629  0.8825 -0.6684  0.1198
  500SOL    HW1 1499   1.335   2.871   1.714 -2.8818 -0.9586  1.8193
  500SOL    HW2 1500   1.479   2.827   1.606  0.9630  0.2911 -3.1485
  501SOL     OW 1501   0.813   1.126   2.271  0.1978 -0.0175  0.0083
  501SOL    HW1 1502   0.733   1.070   2.251  1.7825  0.1769 -0.4246
  501SOL    HW2 1503   0.870   1.159   2.187  1.6692 -2.2555  3.4802
  502SOL     OW 1504   2.558   0.923   1.716 -0.5738  0.0820 -0.0319
  502SOL    HW1 1505   2.608   0.960   1.629  1.2080 -0.7429 -2.1996
  502SOL    HW2 1506   2.584   0.824   1.737 -0.2307  0.0451 -0.3773
  503SOL     OW 1507   1.332   0.146   0.651 -0.2302 -0.0601  0.1933
  503SOL    HW1 1508   1.271   0.222   0.613  0.1044  1.0354 -1.3693
  503SOL    HW2 1509   1.432   0.175   0.669  0.4019  1.9810  2.6113
  504SOL     OW 1510   3.012   2.332   1.492 -0.0168 -0.0271 -0.3028
  504SOL    HW1 1511   2.941   2.394   1.536  0.6064 -1.4335  0.5085
  504SOL    HW2 1512   3.069   2.283   1.563 -0.5568  1.3829 -3.3511
  505SOL     OW 1513   2.314   1.166   1.401  0.2807 -0.2128  0.0635
  505SOL    HW1 1514   2.290   1.237   1.319  1.0831  2.2857 -2.4805
  505SOL    HW2 1515   2.381   1.209   1.470  0.9811 -0.6063 -0.0127
  506SOL     OW 1516   1.984   0.220   1.838  0.1196  0.1831 -0.2948
  506SOL    HW1 1517   2.038   0.161   1.901  1.6334 -3.2827 -2.9159
  506SOL    HW2 1518   1.968   0.314   1.877 -2.6752 -0.2671 -0.6376
  507SOL     OW 1519   0.573   0.658   2.128 -0.7523 -0.0794  0.0037
  507SOL    HW1 1520   0.498   0.598   2.077 -0.0203 -1.8691 -0.9921
  507SOL    HW2 1521   0.653   0.597   2.155 -2.3522  0.4611 -3.5997
  508SOL     OW 1522   0.286   1.655   0.744 -0.1000 -0.0976 -0.2610
  508SOL    HW1 1523   0.360   1.719   0.719 -0.7311 -0.4337 -1.1276
  508SOL    HW2 1524   0.266   1.667   0.845  1.4276 -1.7124  0.5392
  509SOL     OW 1525   1.264   1.195   2.402 -0.3955  0.6446 -0.1967
  509SOL    HW1 1526   1.326   1.115   2.371 -2.3783  0.5513  1.7702
  509SOL    HW2 1527   1.167   1.173   2.413 -1.7544 -0.7682 -0.2688
  510SOL     OW 1528   1.301   2.123   2.229  0.0221 -0.1904 -0.1079
  510SOL    HW1 1529   1.321   2.159   2.131  1.3736 -2.7608  0.8112
  510SOL    HW2 1530   1.230   2.047   2.229 -2.9480  3.1344 -3.6185
  511SOL     OW 1531   3.009   2.663   1.287 -0.2323  0.0083  0.3008
  511SOL    HW1 1532   2.962   2.621   1.205  1.6846 -0.0635 -3.1151
  511SOL    HW2 1533   2.944   2.671   1.360  1.7769  1.5625 -1.9500
  512SOL     OW 1534   2.415   0.452   1.375 -0.0196  0.3354  0.1280
  512SOL    HW1 1535   2.312   0.479   1.377 -2.3252  2.9559  0.5038
  512SOL    HW2 1536   2.425   0.367   1.322  0.5183 -1.9131  0.2683
  513SOL     OW 1537   2.578   2.106   0.891  0.4088  0.2260 -0.3168
  513SOL    HW1 1538   2.538   2.196   0.858 -0.6353 -3.6466 -0.1571
  513SOL    HW2 1539   2.646   2.072   0.824 -0.8947 -0.8587  0.6015
  514SOL     OW 1540   0.670   2.757   0.473 -0.0024  0.0884  0.0960
  514SOL    HW1 1541   0.704   2.793   0.381 -0.3639  1.1026 -0.6389
  514SOL    HW2 1542   0.724   2.800   0.550 -1.4993  1.6464 -2.1092
  515SOL     OW 1543   1.934   1.296   2.364  0.5555 -0.0342 -0.2864
  515SOL    HW1 1544   1.981   1.232   2.297 -0.1943  1.4768 -2.1363
  515SOL    HW2 1545   1.836   1.273   2.390 -0.5076 -2.5823 -3.1351
  516SOL     OW 1546   0.268   0.270   1.912 -0.1652 -0.1798  0.3232
  516SOL    HW1 1547   0.329   0.221   1.839  1.4053 -2.2214 -2.5983
  516SOL    HW2 1548   0.171   0.238   1.902  1.2418 -1.0332  0.8537
  517SOL     OW 1549   0.462   0.040   1.160  0.5791 -0.1678  0.2378
  517SOL    HW1 1550   0.494   0.123   1.210  2.4117 -1.2162  0.7798
  517SOL    HW2 1551   0.356   0.034   1.170 -0.6775 -4.8922  1.0201
  518SOL     OW 1552   2.163   3.062   1.834 -0.0520 -0.3144  0.2090
  518SOL    HW1 1553   2.217   3.150   1.822 -0.1222 -1.1116  0.1252
  518SOL    HW2 1554   2.156   2.998   1.754  0.2625 -1.2489 -2.1301
  519SOL     OW 1555   2.342   2.126   2.450  0.3935  0.2029  0.0161
  519SOL    HW1 1556   2.314   2.100   2.545 -2.3086 -1.5705  0.5855
  519SOL    HW2 1557   2.353   2.231   2.448 -0.2173  0.0799  0.3704
  520SOL     OW 1558   1.845   2.682   1.757 -0.2887 -0.2168  0.2741
  520SOL    HW1 1559   1.790   2.624   1.823 -0.1060  0.6573  2.3827
  520SOL    HW2 1560   1.916   2.630   1.695  0.2201  1.1281 -0.0086
  521SOL     OW 1561   0.574   3.059   2.093  0.7814 -0.1543  0.1630
  521SOL    HW1 1562   0.476   3.091   2.095  0.2482  1.6968  0.9164
  521SOL    HW2 1563   0.602   3.040   2.192 -0.5089  0.9376  0.3243
  522SOL     OW 1564   0.208   1.833   1.582  0.7810  0.5910  0.2578
  522SOL    HW1 1565   0.262   1.897   1.641 -0.0776 -1.5923 -1.2268
  522SOL    HW2 1566   0.174   1.879   1.494  0.5221  2.7652  1.8369
  523SOL     OW 1567   2.175   2.965   1.568 -0.1576 -0.4627 -0.3027
  523SOL    HW1 1568   2.260   2.901   1.555 -1.6110  0.9470 -2.4333
  523SOL    HW2 1569   2.100   2.931   1.503  1.3932  0.1451  2.1231
  524SOL     OW 1570   0.174   2.742   2.796  0.0034  0.4827 -0.1498
  524SOL    HW1 1571   0.146   2.835   2.832  2.8069 -0.1195  0.9810
  524SOL    HW2 1572   0.280   2.736   2.781  0.9488 -0.4570 -1.0592
  525SOL     OW 1573   2.195   1.988   0.394 -0.1373 -0.3014 -0.2091
  525SOL    HW1 1574   2.198   1.922   0.479 -0.6978 -0.2108  0.1348
  525SOL    HW2 1575   2.237   1.939   0.316 -2.3391 -2.3753  1.3688
  526SOL     OW 1576   0.483   1.500   1.677  0.6012  0.6278 -0.4284
  526SOL    HW1 1577   0.509   1.559   1.754 -2.0977  0.2409 -2.2751
  526SOL    HW2 1578   0.492   1.403   1.697 -1.2915 -0.6625 -0.9141
  527SOL     OW 1579   1.058   2.877   1.143 -0.2361  0.0594  0.4962
  527SOL    HW1 1580   1.119   2.811   1.198 -1.2996 -0.1046 -0.3919
  527SOL    HW2 1581   1.064   2.979   1.160  0.5407  0.5582 -0.8864
  528SOL     OW 1582   1.353   2.330   0.516 -0.8300  0.5438  0.0439
  528SOL    HW1 1583   1.406   2.239   0.512  1.2109 -0.3659 -0.9962
  528SOL    HW2 1584   1.404   2.404   0.566 -2.1890  0.7293 -3.4411
  529SOL     OW 1585   1.931   1.779   0.717  0.4142  0.2966 -0.8802
  529SOL    HW1 1586   1.861   1.792   0.642 -0.8250 -2.1760 -1.6801
  529SOL    HW2 1587   1.955   1.869   0.766 -0.5433 -1.1027 -0.4323
  530SOL     OW 1588   0.410   2.588   0.220 -0.0332  0.2283 -0.2150
  530SOL    HW1 1589   0.363   2.651   0.283  1.1853  0.3269 -3.0269
  530SOL    HW2 1590   0.426   2.492   0.265 -1.2681 -0.1518 -1.9234
  531SOL     OW 1591   1.876   1.011   1.025  0.0607  0.3294 -0.1953
  531SOL    HW1 1592   1.810   1.052   0.949  2.4148  1.5194 -1.4589
  531SOL    HW2 1593   1.868   0.907   1.032  0.0607 -0.8239 -5.6217
  532SOL     OW 1594   0.381   1.172   0.713 -0.1527 -0.6825 -0.7859
  532SOL    HW1 1595   0.396   1.162   0.611 -0.9411 -0.9483  1.3362
  532SOL    HW2 1596   0.328   1.092   0.758  3.3254 -1.1482 -1.9723
  533SOL     OW 1597   1.766   0.006   2.578  0.0206 -0.2875 -0.4053
  533SOL    HW1 1598   1.869  -0.001   2.574 -0.3151 -0.5162  1.5550
  533SOL    HW2 1599   1.731   0.077   2.641 -1.2947  0.0909  1.6585
  534SOL     OW 1600   0.267   0.208   1.446  0.4478 -0.3631  0.2135
  534SOL    HW1 1601   0.348   0.225   1.379 -0.5456  0.3004 -1.9128
  534SOL    HW2 1602   0.236   0.295   1.500 -1.1504 -3.9195  1.7357
  535SOL     OW 1603   1.891   0.382   0.212  0.0667  0.0515 -0.4623
  535SOL    HW1 1604   1.916   0.466   0.266 -0.7831  3.3949 -1.7215
  535SOL    HW2 1605   1.808   0.346   0.258  0.4890  3.7026  0.7979
  536SOL     OW 1606   1.440   2.574   0.936 -0.0443  0.2592  0.2251
  536SOL    HW1 1607   1.410   2.542   1.029 -0.8593 -0.9654 -0.0578
  536SOL    HW2 1608   1.368   2.626   0.888  1.4115 -2.1332  2.1071
  537SOL     OW 1609   0.809   0.160   2.342 -0.0801 -0.0872 -0.1161
  537SOL    HW1 1610   0.837   0.193   2.247 -1.4056  0.8482 -1.3696
  537SOL    HW2 1611   0.728   0.092   2.336 -0.8947 -0.7089 -2.5360
  538SOL     OW 1612   1.666   2.284   1.496  0.2120 -0.3896 -0.3006
  538SOL    HW1 1613   1.632   2.188   1.477 -1.8965 -0.6587  2.2287
  538SOL    HW2 1614   1.747   2.314   1.440  1.2474  1.0457  0.9957
  539SOL     OW 1615   0.194   1.657   2.727 -0.4861 -0.2550 -0.0217
  539SOL    HW1 1616   0.113   1.632   2.662 -2.7279  1.5458  0.8957
  539SOL    HW2 1617   0.172   1.747   2.782 -1.7699 -0.0357  1.5437
  540SOL     OW 1618   2.716   1.705   1.980 -0.2200  0.0549  0.1681
  540SOL    HW1 1619   2.652   1.622   1.968  0.2968  2.0244 -1.2845
  540SOL    HW2 1620   2.661   1.791   1.994 -1.1212 -2.0670  0.9282
  541SOL     OW 1621   0.484   2.317   3.045 -0.1866 -0.2252 -0.5180
  541SOL    HW1 1622   0.530   2.281   3.134  2.6224 -1.9611  2.2642
  541SOL    HW2 1623   0.385   2.291   3.040  0.5923  2.4316 -4.6406
  542SOL     OW 1624   2.257   2.567   0.410  0.5852 -0.1058  0.1261
  542SOL    HW1 1625   2.237   2.667   0.390 -0.4532  0.8363 -1.2828
  542SOL    HW2 1626   2.170   2.518   0.446 -0.5922 -0.6702 -0.2454
  543SOL     OW 1627   1.030   1.700   1.660  0.8049  0.1668  0.0658
  543SOL    HW1 1628   1.000   1.739   1.752 -0.6551  1.6211 -0.3979
  543SOL    HW2 1629   1.014   1.770   1.586 -1.2315 -3.4654  0.6616
  544SOL     OW 1630   0.986   0.393   0.201 -0.4322  0.1855  0.2582
  544SOL    HW1 1631   0.909   0.334   0.234  2.8191 -2.5369  2.8833
  544SOL    HW2 1632   1.027   0.370   0.111 -0.3611 -0.3212 -1.0661
  545SOL     OW 1633   1.088   1.751   0.749  0.2383  0.3985  0.6977
  545SOL    HW1 1634   1.172   1.804   0.784  0.9580 -0.8840 -2.6114
  545SOL    HW2 1635   1.098   1.647   0.747 -0.2692  0.9186  3.6654
  546SOL     OW 1636   2.621   1.557   3.066  0.1366  0.2328  0.4243
  546SOL    HW1 1637   2.594   1.617   2.988 -0.0078  3.8928  0.3920
  546SOL    HW2 1638   2.539   1.521   3.128  1.3673  0.3550  2.1444
  547SOL     OW 1639   0.557   0.044   2.666 -0.4312 -0.6600 -0.7070
  547SOL    HW1 1640   0.640  -0.027   2.682 -0.1748 -1.3246 -0.5939
  547SOL    HW2 1641   0.473   0.002   2.623 -0.0980  0.8836 -1.4719
  548SOL     OW 1642   2.039   0.839   3.033  0.5267  0.1044 -0.2449
  548SOL    HW1 1643   1.947   0.797   3.014  0.0151 -1.6802 -0.6587
  548SOL    HW2 1644   2.042   0.934   3.079  0.2338  0.3265  1.4835
  549SOL     OW 1645   0.661   0.573   0.200 -0.0866 -0.1441 -0.0241
  549SOL    HW1 1646   0.614   0.638   0.135 -0.4985 -3.9750 -1.3203
  549SOL    HW2 1647   0.764   0.598   0.212  0.9242 -0.0821  0.8818
  550SOL     OW 1648   2.512   2.850   2.861  0.5393 -0.6779  0.5940
  550SOL    HW1 1649   2.503   2.802   2.953  2.8270 -0.9321  0.1567
  550SOL    HW2 1650   2.519   2.788   2.778 -4.4948  1.7862  2.0275
  551SOL     OW 1651   0.286   0.853   0.220 -0.2837 -0.3057  0.2392
  551SOL    HW1 1652   0.382   0.814   0.238  1.3652 -0.5700 -1.1438
  551SOL    HW2 1653   0.246   0.898   0.303 -2.2134  2.3746 -0.6473
  552SOL     OW 1654   0.699   2.946   1.871 -0.0331  0.6149 -0.4091
  552SOL    HW1 1655   0.659   2.981   1.961 -5.2367  0.1598  0.2179
  552SOL    HW2 1656   0.791   2.987   1.845 -1.0714 -2.3049 -1.1765
  553SOL     OW 1657   3.073   2.559   0.371 -0.5277  0.5703 -0.1807
  553SOL    HW1 1658   3.009   2.486   0.330 -0.2730  0.5309 -4.6722
  553SOL    HW2 1659   3.019   2.622   0.437 -0.8104 -0.0152  1.0158
  554SOL     OW 1660   2.170   0.362   0.564 -0.2235 -0.1948 -0.2213
  554SOL    HW1 1661   2.239   0.346   0.491 -0.3420  0.5058 -0.4223
  554SOL    HW2 1662   2.172   0.286   0.631  0.6440 -0.7027 -1.3618
  555SOL     OW 1663   0.436   2.937   2.497  0.1051  0.2925  0.1140
  555SOL    HW1 1664   0.350   2.966   2.442 -0.8625  0.9130 -0.7556
  555SOL    HW2 1665   0.458   2.846   2.461 -0.5909  0.9556  1.1144
  556SOL     OW 1666   0.829   2.391   1.554 -0.6099 -0.0676  0.2709
  556SOL    HW1 1667   0.851   2.481   1.606 -2.6665  1.8164  0.9017
  556SOL    HW2 1668   0.893   2.375   1.474 -3.2446  0.5327 -1.7599
  557SOL     OW 1669   0.089   2.072   0.158 -0.2505 -0.2794  0.1005
  557SOL    HW1 1670   0.008   2.012   0.146 -2.4387  1.7742  1.2149
  557SOL    HW2 1671   0.140   2.089   0.067  1.5759 -0.0339 -0.9303
  558SOL     OW 1672   2.925   2.337   0.286  0.5341 -0.1544 -0.0485
  558SOL    HW1 1673   2.819   2.337   0.291 -0.5405 -3.6218 -0.7652
  558SOL    HW2 1674   2.963   2.328   0.190  0.6306 -0.0433  0.9909
  559SOL     OW 1675   0.365   2.313   1.352 -0.1480 -0.0706 -0.0464
  559SOL    HW1 1676   0.273   2.320   1.304 -2.4949 -1.0997 -1.3537
  559SOL    HW2 1677   0.426   2.231   1.320  1.4368  2.2725  2.2409
  560SOL     OW 1678   2.074   1.125   3.069  0.1206  0.1165  0.0516
  560SOL    HW1 1679   2.007   1.168   3.135 -0.7458 -0.9377 -0.2631
  560SOL    HW2 1680   2.162   1.178   3.051  0.2063 -0.4948  0.2856
  561SOL     OW 1681   3.007   1.880   0.043  0.2303 -0.0487 -0.2129
  561SOL    HW1 1682   2.965   1.816   0.111  0.8219 -0.6225  0.4021
  561SOL    HW2 1683   2.944   1.954   0.014 -0.2205  0.1724 -2.1737
  562SOL     OW 1684   0.953   2.229   2.349  0.5303  0.1975  0.4111
  562SOL    HW1 1685   0.868   2.181   2.381 -0.4104 -2.2821  0.4582
  562SOL    HW2 1686   0.988   2.288   2.427 -4.3328  0.5664 -1.8279
  563SOL     OW 1687   0.718   2.523   2.585 -0.2224  0.2953 -0.2309
  563SOL    HW1 1688   0.746   2.422   2.609  0.4635  1.3478 -2.1538
  563SOL    HW2 1689   0.678   2.573   2.667  2.5934  0.6724  1.1472
  564SOL     OW 1690   2.775   1.318   2.931 -0.1993 -0.4775  0.8040
  564SOL    HW1 1691   2.691   1.361   2.973 -0.3212  1.0082 -2.0329
  564SOL    HW2 1692   2.837   1.390   2.889  0.6654 -0.6553 -1.0870
  565SOL     OW 1693   2.581   1.957   2.571  0.1650 -0.5393  0.5205
  565SOL    HW1 1694   2.539   2.029   2.508 -0.9305 -0.0588  0.1662
  565SOL    HW2 1695   2.617   1.995   2.660  0.1961 -0.7188  0.7799
  566SOL     OW 1696   1.989   2.859   1.406 -0.8160  0.1964 -0.5483
  566SOL    HW1 1697   1.968   2.760   1.405  0.9961  0.2578 -1.3216
  566SOL    HW2 1698   1.988   2.892   1.308 -0.6564 -2.4779  1.6145
  567SOL     OW 1699   2.496   0.060   2.232  0.1872 -1.1500  0.4287
  567SOL    HW1 1700   2.510   0.123   2.147  0.1236  0.0927 -0.0145
  567SOL    HW2 1701   2.415  -0.002   2.221 -0.1294  1.1189  5.1604
  568SOL     OW 1702   1.556   1.761   0.256  0.2074  0.1206  0.5781
  568SOL    HW1 1703   1.500   1.843   0.224  0.0985 -0.3135  0.4621
  568SOL    HW2 1704   1.657   1.786   0.268 -1.0225  2.4796  1.0432
  569SOL     OW 1705   0.297   0.666   0.826 -0.3780  0.5121 -0.6643
  569SOL    HW1 1706   0.367   0.594   0.793  3.2268 -0.3219 -1.0332
  569SOL    HW2 1707   0.200   0.627   0.835 -3.9179 -0.4107 -4.0464
  570SOL     OW 1708   0.637   0.786   2.828 -0.6168  0.7343  0.3680
  570SOL    HW1 1709   0.663   0.803   2.729 -1.1536 -1.3390 -1.1555
  570SOL    HW2 1710   0.680   0.857   2.894  1.5787 -1.0196  2.3986
  571SOL     OW 1711   0.770   3.066   1.048 -0.1029  0.1406  0.3194
  571SOL    HW1 1712   0.824   3.105   0.969 -0.5541  1.0408 -1.4873
  571SOL    HW2 1713   0.776   2.965   1.044  0.2358  1.8128 -2.5390
  572SOL     OW 1714   1.593   2.622   1.230 -0.1421  0.0045  0.4199
  572SOL    HW1 1715   1.509   2.565   1.227  1.0119  0.5839 -1.4693
  572SOL    HW2 1716   1.573   2.721   1.224  0.7650  0.6705  0.0413
  573SOL     OW 1717   2.913   0.436   2.017 -0.4562  0.3699  0.0060
  573SOL    HW1 1718   2.856   0.365   2.067  0.2832  1.5158  2.2740
  573SOL    HW2 1719   2.853   0.507   1.976 -0.3348  0.7822  1.8080
  574SOL     OW 1720   0.213   1.722   0.997 -0.4750  0.4056  0.1337
  574SOL    HW1 1721   0.194   1.821   0.967 -1.7839 -0.5861 -0.8462
  574SOL    HW2 1722   0.144   1.680   1.062  0.5756 -0.6330 -0.2524
  575SOL     OW 1723   0.952   2.122   0.989  0.1467  0.6489 -0.3532
  575SOL    HW1 1724   0.894   2.185   1.045  0.4786 -0.0118 -0.9938
  575SOL    HW2 1725   1.011   2.171   0.920 -0.5655  0.7455 -1.6214
  576SOL     OW 1726   2.878   2.975   1.657 -0.2922  0.1657  0.2556
  576SOL    HW1 1727   2.800   2.953   1.594 -1.4139 -2.2555  0.4354
  576SOL    HW2 1728   2.929   3.063   1.632  2.4548  2.2997  0.4794
  577SOL     OW 1729   2.522   1.228   0.014 -0.2691  0.3140  0.6709
  577SOL    HW1 1730   2.548   1.158  -0.063  0.0542 -0.8098 -0.2844
  577SOL    HW2 1731   2.589   1.237   0.094  0.5079 -0.6335 -1.2201
  578SOL     OW 1732   1.349   2.739   2.528 -0.0721  0.3988 -0.6026
  578SOL    HW1 1733   1.246   2.748   2.525  0.4004 -2.4497  1.1007
  578SOL    HW2 1734   1.405   2.825   2.526 -2.5848  1.5980  0.0333
  579SOL     OW 1735   0.090   2.496   0.119 -0.2552  0.0896  0.4687
  579SOL    HW1 1736   0.054   2.525   0.211  0.1452 -0.2552 -2.0605
  579SOL    HW2 1737   0.189   2.464   0.128 -0.0425  1.9453  0.9403
  580SOL     OW 1738   1.044   2.649   0.432  0.2036 -0.5712 -0.2380
  580SOL    HW1 1739   1.128   2.666   0.368  2.6954 -0.9993 -1.9682
  580SOL    HW2 1740   0.967   2.608   0.380  2.4153  0.6362  0.9617
  581SOL     OW 1741   1.278   2.583   1.514  0.1588  0.1111 -0.1022
  581SOL    HW1 1742   1.331   2.492   1.507 -1.6774  0.0021 -1.8797
  581SOL    HW2 1743   1.337   2.659   1.479  0.6655 -0.5759  2.2075
  582SOL     OW 1744   1.497   0.087   1.828 -0.1711  0.0150  0.4762
  582SOL    HW1 1745   1.506   0.162   1.904  1.8023  2.4278  0.2038
  582SOL    HW2 1746   1.583   0.076   1.770 -0.5503 -1.2426  1.0502
  583SOL     OW 1747   2.512   3.028   0.503 -0.5426  0.5997  0.1353
  583SOL    HW1 1748   2.556   2.955   0.441  1.5129 -1.9862  2.0502
  583SOL    HW2 1749   2.441   2.987   0.567  4.1472 -0.1103 -1.5519
  584SOL     OW 1750   1.631   0.936   2.100  0.6044 -0.3634  0.1198
  584SOL    HW1 1751   1.646   1.040   2.089 -1.9810  0.5948 -0.6861
  584SOL    HW2 1752   1.661   0.894   2.187 -0.8327 -0.1422 -1.2679
  585SOL     OW 1753   2.099   2.666   2.953 -0.0223 -0.5529 -0.6759
  585SOL    HW1 1754   2.131   2.578   2.921 -0.7237 -0.2694  0.3121
  585SOL    HW2 1755   1.995   2.679   2.963  0.2224  1.8313  0.9354
  586SOL     OW 1756   2.759   0.284   1.550  0.3259  0.4173  0.3402
  586SOL    HW1 1757   2.778   0.372   1.606  0.5067 -1.5318  0.7460
  586SOL    HW2 1758   2.681   0.234   1.592  2.1649  1.1647  0.9258
  587SOL     OW 1759   1.930   1.524   2.746  0.7757 -0.0521 -0.0668
  587SOL    HW1 1760   2.002   1.492   2.673  1.1596  0.1818 -1.6566
  587SOL    HW2 1761   1.970   1.545   2.841 -0.0805 -0.9980 -1.0442
  588SOL     OW 1762   0.467   2.735   2.260 -0.1742 -0.3204 -0.3215
  588SOL    HW1 1763   0.397   2.760   2.190  0.0320  0.6203 -1.2820
  588SOL    HW2 1764   0.469   2.634   2.279 -0.5025  2.1794 -0.0057
  589SOL     OW 1765   2.108   1.409   2.549  0.0787 -0.1772 -0.1488
  589SOL    HW1 1766   2.028   1.360   2.502  0.0003 -1.0857  2.7044
  589SOL    HW2 1767   2.197   1.349   2.559  2.3068  1.5059 -0.0461
  590SOL     OW 1768   2.337   1.656   2.053 -0.1916  0.4268  0.1072
  590SOL    HW1 1769   2.412   1.587   2.040 -1.2636 -0.5479 -0.8672
  590SOL    HW2 1770   2.350   1.709   2.143  0.3182  0.4919 -0.5607
  591SOL     OW 1771   1.330   2.394   0.259  0.3019  0.0547  0.3307
  591SOL    HW1 1772   1.382   2.318   0.208 -1.0876 -0.0317 -2.0671
  591SOL    HW2 1773   1.318   2.372   0.361 -0.0004 -1.5830 -0.4917
  592SOL     OW 1774   1.770   2.313   0.784  0.4238 -0.0520  0.3571
  592SOL    HW1 1775   1.729   2.380   0.717 -0.7716  1.4806  0.5944
  592SOL    HW2 1776   1.861   2.276   0.756 -2.0165  0.7195 -0.0187
  593SOL     OW 1777   0.698   0.295   0.144  0.3448 -0.3856  0.7876
  593SOL    HW1 1778   0.745   0.257   0.059  3.2917  1.5308  1.7005
  593SOL    HW2 1779   0.682   0.394   0.151 -1.1731 -3.7435  1.8861
  594SOL     OW 1780   0.938   1.836   2.719 -0.2260  0.1842  0.0257
  594SOL    HW1 1781   1.037   1.821   2.717 -0.3446  0.4814  1.0994
  594SOL    HW2 1782   0.912   1.928   2.761 -1.0128 -0.8746 -3.6145
  595SOL     OW 1783   1.538   0.071   1.041 -0.2252 -0.3587  0.3213
  595SOL    HW1 1784   1.619   0.010   1.061 -0.8653  1.2531 -0.2869
  595SOL    HW2 1785   1.482   0.036   0.960 -0.3315 -1.4903 -0.6728
  596SOL     OW 1786   3.098   1.458   2.252  0.5315 -0.0147 -0.5414
  596SOL    HW1 1787   3.002   1.423   2.257  0.4794 -2.4554 -1.1397
  596SOL    HW2 1788   3.111   1.543   2.304  0.8325 -3.0457 -1.2591
  597SOL     OW 1789   2.033   2.552   1.617 -0.2825 -0.0575  0.4644
  597SOL    HW1 1790   2.060   2.476   1.553  0.9659 -1.1567 -1.4513
  597SOL    HW2 1791   2.119   2.582   1.679  0.8203  2.3278  2.7728
  598SOL     OW 1792   2.517   2.977   1.322 -0.0658  0.1566 -0.0751
  598SOL    HW1 1793   2.603   3.005   1.378  2.0548  0.4298  0.5685
  598SOL    HW2 1794   2.540   2.942   1.228  0.5046  0.8081  0.0896
  599SOL     OW 1795   2.949   0.391   2.497  0.1483 -0.3076 -0.0763
  599SOL    HW1 1796   3.042   0.421   2.470 -0.1300 -0.3118  2.9846
  599SOL    HW2 1797   2.868   0.437   2.451  1.9127  0.0238 -0.3745
  600SOL     OW 1798   2.754   1.120   2.686  0.0789 -0.2480  0.3334
  600SOL    HW1 1799   2.715   1.029   2.703 -0.8104 -0.6491 -0.1345
  600SOL    HW2 1800   2.737   1.184   2.763  0.4014  0.2217  0.5161
  601SOL     OW 1801   2.963   1.277   1.927 -0.3862 -0.0835  0.2493
  601SOL    HW1 1802   2.905   1.316   1.850 -0.0503  2.2355  0.2855
  601SOL    HW2 1803   3.039   1.348   1.950  1.7662  2.4206  0.8868
  602SOL     OW 1804   1.418   1.712   2.350 -0.0490  0.1022  0.9029
  602SOL    HW1 1805   1.370   1.616   2.345  0.0433 -0.8816  1.5864
  602SOL    HW2 1806   1.519   1.707   2.379  0.4798  1.3263 -3.4933
  603SOL     OW 1807   0.603   1.215   2.744 -0.5483 -0.1562  0.6879
  603SOL    HW1 1808   0.526   1.241   2.676 -1.7260  1.2393 -0.0566
  603SOL    HW2 1809   0.669   1.148   2.705 -0.6087 -0.1633 -1.1875
  604SOL     OW 1810   2.383   1.005   0.148 -0.2258 -0.2293  0.0683
  604SOL    HW1 1811   2.426   1.070   0.085 -1.4812  0.6672  0.0610
  604SOL    HW2 1812   2.343   0.917   0.106  0.6781  1.4765 -2.0167
  605SOL     OW 1813   2.552   1.171   1.881  0.0681 -0.0263  0.4525
  605SOL    HW1 1814   2.576   1.076   1.846  0.9677 -0.2390 -1.3754
  605SOL    HW2 1815   2.587   1.194   1.978 -2.5291  0.8834 -1.9306
  606SOL     OW 1816   1.467   2.509   2.609 -0.3829  0.8458 -0.3657
  606SOL    HW1 1817   1.414   2.594   2.569 -1.3983  0.4937 -2.8089
  606SOL    HW2 1818   1.457   2.418   2.562 -1.3381  0.1456  1.1197
  607SOL     OW 1819   1.380   1.629   0.419 -0.5754 -0.6323 -0.7713
  607SOL    HW1 1820   1.293   1.681   0.425  2.7619  0.6722 -0.3938
  607SOL    HW2 1821   1.453   1.669   0.353 -0.4476  0.2046 -1.3532
  608SOL     OW 1822   1.456   2.854   0.363 -0.3859 -0.3159 -0.6527
  608SOL    HW1 1823   1.536   2.919   0.348 -0.7530 -0.5933 -1.4267
  608SOL    HW2 1824   1.385   2.890   0.429 -0.7022 -2.4746  0.6072
  609SOL     OW 1825   1.349   1.399   0.258  0.3123 -0.0546  0.0175
  609SOL    HW1 1826   1.367   1.483   0.327  0.8336 -0.8314  0.6922
  609SOL    HW2 1827   1.269   1.413   0.193 -0.7488  2.3803 -0.9371
  610SOL     OW 1828   3.023   1.136   2.174  0.3210 -0.1762 -0.2025
  610SOL    HW1 1829   2.996   1.034   2.183 -2.0307  0.6863 -0.6053
  610SOL    HW2 1830   2.976   1.188   2.094  2.4176 -0.0920 -4.1899
  611SOL     OW 1831   2.592   0.287   1.112 -0.5809 -0.3356  0.0475
  611SOL    HW1 1832   2.518   0.236   1.164 -1.8683 -0.1532 -1.2145
  611SOL    HW2 1833   2.678   0.299   1.167 -0.7652 -0.8299 -0.2650
  612SOL     OW 1834   0.771   2.243   1.184  0.0539 -0.1204  0.0817
  612SOL    HW1 1835   0.702   2.193   1.236  1.6104 -1.0262 -2.6723
  612SOL    HW2 1836   0.733   2.331   1.146 -0.2867 -1.1814 -0.6460
  613SOL     OW 1837   0.793   1.392   2.425  0.0648 -0.7007  0.3344
  613SOL    HW1 1838   0.818   1.463   2.349 -0.1856  0.2706  0.5918
  613SOL    HW2 1839   0.718   1.327   2.391 -0.1000 -2.7808 -0.7366
  614SOL     OW 1840   1.572   1.635   1.966  0.1835 -0.5138  0.1504
  614SOL    HW1 1841   1.519   1.723   1.991  0.1154  0.9098 -0.3674
  614SOL    HW2 1842   1.659   1.619   2.020  0.1515 -1.5176  0.1515
  615SOL     OW 1843   0.767   1.314   1.709 -0.7762 -0.0971 -0.4078
  615SOL    HW1 1844   0.699   1.263   1.651  2.9638 -0.4322  0.3179
  615SOL    HW2 1845   0.819   1.393   1.666 -0.4929  1.6793  2.7487
  616SOL     OW 1846   1.068   1.657   2.273 -0.4246  0.4406 -0.9367
  616SOL    HW1 1847   0.989   1.627   2.218  1.7814  1.3391 -2.6279
  616SOL    HW2 1848   1.103   1.748   2.256  0.2330  0.5612  0.8511
  617SOL     OW 1849   2.943   1.562   1.604  0.1665  0.6391 -0.0515
  617SOL    HW1 1850   2.881   1.485   1.642 -0.6295 -2.8835  0.1595
  617SOL    HW2 1851   2.989   1.533   1.515  0.8782 -0.3278  2.2940
  618SOL     OW 1852   1.903   1.992   1.383 -0.5614 -0.1359 -0.2370
  618SOL    HW1 1853   1.913   2.017   1.284  0.0906 -0.8958  2.2483
  618SOL    HW2 1854   1.851   1.904   1.398 -3.9774  1.9953  0.4288
  619SOL     OW 1855   1.784   0.446   2.382  0.2654 -0.0973  0.0661
  619SOL    HW1 1856   1.701   0.500   2.352 -0.3815 -2.8719  0.8135
  619SOL    HW2 1857   1.776   0.343   2.377 -0.9461  0.2158 -2.2573
  620SOL     OW 1858   2.328   2.922   0.644  0.0605 -0.7408 -0.0195
  620SOL    HW1 1859   2.231   2.960   0.636 -2.9277  0.3671  0.6626
  620SOL    HW2 1860   2.336   2.863   0.725  0.4916  2.8043 -1.9373
  621SOL     OW 1861   2.164   1.809   1.291 -0.1042  0.5602 -0.3434
  621SOL    HW1 1862   2.134   1.863   1.380 -2.7683  3.2653  0.8257
  621SOL    HW2 1863   2.112   1.720   1.280  0.7060  0.9093 -0.9684
  622SOL     OW 1864   2.286   0.896   1.783  0.1005 -0.2489 -0.1056
  622SOL    HW1 1865   2.385   0.896   1.755  1.3809  2.2169 -2.2509
  622SOL    HW2 1866   2.257   0.816   1.846 -0.3564 -2.1145 -1.2425
  623SOL     OW 1867   1.328   0.828   2.606  0.1190 -0.1019  0.5778
  623SOL    HW1 1868   1.316   0.732   2.644  2.4648 -1.2602  3.2529
  623SOL    HW2 1869   1.266   0.852   2.526  0.5027  0.7085 -0.0545
  624SOL     OW 1870   0.551   0.709   3.096  1.0481  0.1440  0.3642
  624SOL    HW1 1871   0.601   0.695   3.007  0.4719  0.9697  2.4749
  624SOL    HW2 1872   0.566   0.801   3.143 -1.6077  2.7336  1.7330
  625SOL     OW 1873   2.798   1.712   1.045  0.1768  0.8106 -0.0533
  625SOL    HW1 1874   2.699   1.750   1.029  0.5464  0.8338  0.6308
  625SOL    HW2 1875   2.866   1.788   1.059  1.8072 -0.5801  1.9844
  626SOL     OW 1876   0.578   2.723   1.709  0.1986  0.7508 -0.3913
  626SOL    HW1 1877   0.613   2.795   1.775  0.2144 -1.6541  1.3689
  626SOL    HW2 1878   0.480   2.704   1.728  0.9993  1.7761  0.7187
  627SOL     OW 1879   0.739   0.954   1.485  0.4723 -0.6765 -0.7357
  627SOL    HW1 1880   0.694   0.890   1.415  0.1827 -0.8798 -1.4916
  627SOL    HW2 1881   0.820   1.001   1.448 -0.1251 -0.2181  0.1387
  628SOL     OW 1882   2.471   0.139   0.684 -0.7066 -0.1144 -0.3614
  628SOL    HW1 1883   2.521   0.068   0.625  0.4359 -0.4614  2.7109
  628SOL    HW2 1884   2.366   0.140   0.687 -4.5322  1.4884  0.6515
  629SOL     OW 1885   1.986   0.933   1.983 -0.3268 -0.0004 -0.4388
  629SOL    HW1 1886   2.008   0.967   1.889  0.6706 -0.8045  2.1037
  629SOL    HW2 1887   1.974   1.005   2.057 -0.5593 -0.2958 -0.3786
  630SOL     OW 1888   2.926   2.254   0.835 -0.0808 -1.4563  0.2177
  630SOL    HW1 1889   2.853   2.310   0.883 -0.9018 -1.2054 -1.4173
  630SOL    HW2 1890   2.873   2.175   0.789 -0.0353 -1.1217  1.1225
  631SOL     OW 1891   3.017   0.136   2.119 -0.0574  0.3770  0.0059
  631SOL    HW1 1892   3.086   0.161   2.193 -1.1928 -1.4348 -0.2957
  631SOL    HW2 1893   3.041   0.158   2.022 -0.0536  0.4543 -2.5976
  632SOL     OW 1894   2.409   2.540   0.648 -0.1491 -0.7197 -0.1355
  632SOL    HW1 1895   2.373   2.615   0.716  0.0227  1.3298  0.1196
  632SOL    HW2 1896   2.381   2.555   0.547 -0.5034 -0.0336  0.4153
  633SOL     OW 1897   1.403   1.202   2.660  0.3573 -0.2468 -0.2121
  633SOL    HW1 1898   1.430   1.294   2.702  0.0617  0.6844 -2.0092
  633SOL    HW2 1899   1.342   1.205   2.577  1.2625 -0.5246  2.5983
  634SOL     OW 1900   0.698   2.045   0.867  0.8924 -0.3250 -0.3383
  634SOL    HW1 1901   0.614   2.043   0.929  0.1460 -2.2280 -1.0655
  634SOL    HW2 1902   0.784   2.070   0.916 -1.2807  2.1294  0.6175
  635SOL     OW 1903   2.973   2.346   0.011  0.1518  0.3205 -0.3554
  635SOL    HW1 1904   2.905   2.417  -0.021  0.7026  0.8489  0.5122
  635SOL    HW2 1905   3.069   2.382   0.027 -2.3660  0.4001  2.3237
  636SOL     OW 1906   2.333   2.743   2.009 -0.7321 -0.1785  0.7885
  636SOL    HW1 1907   2.318   2.847   2.023  1.8629  2.0191  2.1199
  636SOL    HW2 1908   2.268   2.692   2.068 -0.4425 -0.0456 -2.6603
  637SOL     OW 1909   2.663   0.615   1.959 -0.2319  0.8241 -0.1607
  637SOL    HW1 1910   2.577   0.609   1.895 -0.7060  0.6339  1.1297
  637SOL    HW2 1911   2.679   0.712   1.980 -2.1676 -1.4012  1.4214
  638SOL     OW 1912   2.446   1.828   1.263  0.6275  0.0160 -0.1795
  638SOL    HW1 1913   2.339   1.815   1.270  0.4030 -1.2453  0.8150
  638SOL    HW2 1914   2.498   1.762   1.325  1.7402 -1.1022 -2.1680
  639SOL     OW 1915   1.276   2.064   1.695  0.2702  0.1945 -0.3818
  639SOL    HW1 1916   1.307   2.157   1.654  1.7295  1.7901 -0.5486
  639SOL    HW2 1917   1.178   2.069   1.734  0.7261 -0.1429 -1.8387
  640SOL     OW 1918   0.179   1.157   1.574 -0.5430  0.0364  0.2369
  640SOL    HW1 1919   0.159   1.197   1.671 -1.2429 -0.4088  1.7478
  640SOL    HW2 1920   0.272   1.102   1.578  0.1085 -1.1654 -0.4763
  641SOL     OW 1921   2.014   0.198   1.556  0.3114 -0.9756  0.1692
  641SOL    HW1 1922   1.974   0.223   1.648  1.2674  2.7059 -2.7036
  641SOL    HW2 1923   2.113   0.172   1.561 -0.4616 -0.9313  1.8312
  642SOL     OW 1924   2.013   3.076   0.342 -0.0299  0.0681  0.5039
  642SOL    HW1 1925   2.096   3.125   0.381 -0.4669 -0.9606  1.1178
  642SOL    HW2 1926   1.986   2.996   0.402  1.2818 -1.1811 -0.7206
  643SOL     OW 1927   2.938   1.814   2.120  0.5618  0.4440 -0.8909
  643SOL    HW1 1928   2.862   1.755   2.078 -0.7688 -1.2457  0.2668
  643SOL    HW2 1929   2.947   1.905   2.072  0.3444  1.3261  0.5757
  644SOL     OW 1930   2.208   2.356   1.168  0.1683  0.1902  0.1592
  644SOL    HW1 1931   2.291   2.295   1.156 -0.9566  0.3060 -0.6598
  644SOL    HW2 1932   2.180   2.365   1.267  1.2049  0.6119 -1.1635
  645SOL     OW 1933   0.611   0.837   1.278  0.2144  0.2732  0.5502
  645SOL    HW1 1934   0.511   0.851   1.297 -1.0046 -1.3186 -0.5040
  645SOL    HW2 1935   0.640   0.881   1.186  2.4767 -1.1448 -4.1307
  646SOL     OW 1936   1.442   1.833   2.096  0.0138  0.5628 -0.3892
  646SOL    HW1 1937   1.463   1.932   2.072 -2.2702  1.2757 -0.9442
  646SOL    HW2 1938   1.452   1.810   2.197  3.1127  1.6946  0.4704
  647SOL     OW 1939   0.770   1.046   0.714 -0.4941 -0.0611  0.1891
  647SOL    HW1 1940   0.844   1.093   0.773  0.2855 -2.5483 -2.2152
  647SOL    HW2 1941   0.716   0.968   0.765  1.1892  0.1836 -0.5194
  648SOL     OW 1942   0.086   0.243   0.263 -0.3414 -0.0739 -0.1342
  648SOL    HW1 1943   0.159   0.228   0.192 -0.0402  0.7045 -0.0024
  648SOL    HW2 1944   0.086   0.343   0.296  1.3696 -3.3133 -1.4059
  649SOL     OW 1945   3.010   0.244   0.817 -0.0796  0.5882 -0.4123
  649SOL    HW1 1946   3.099   0.195   0.817  2.0121  1.8588 -2.4162
  649SOL    HW2 1947   3.009   0.322   0.883  1.8824 -0.7807  1.6469
  650SOL     OW 1948   2.771   0.726   1.528  0.3925  0.1972  0.1709
  650SOL    HW1 1949   2.676   0.695   1.504  0.3283 -0.3618 -1.4175
  650SOL    HW2 1950   2.817   0.782   1.454  0.3931  0.7868 -0.2132
  651SOL     OW 1951   0.871   1.510   1.552 -0.7801  0.4362  0.0999
  651SOL    HW1 1952   0.936   1.576   1.609  0.9752  0.2969  0.1580
  651SOL    HW2 1953   0.918   1.498   1.463  0.1090  0.6906  1.9623
  652SOL     OW 1954   2.333   2.417   2.445 -0.3609  0.6405  0.6168
  652SOL    HW1 1955   2.249   2.444   2.499  0.2435  0.8374  1.0609
  652SOL    HW2 1956   2.368   2.498   2.394 -2.7126  1.1496  0.5117
  653SOL     OW 1957   2.693   1.233   0.243 -0.0543  0.0687 -0.0294
  653SOL    HW1 1958   2.696   1.332   0.278 -0.7684  2.5249 -1.8359
  653SOL    HW2 1959   2.773   1.173   0.279  3.0014 -0.4877  2.3921
  654SOL     OW 1960   1.225   2.238   1.246  0.1624  0.0912  0.2038
  654SOL    HW1 1961   1.265   2.167   1.312  0.2966 -1.2104  0.0936
  654SOL    HW2 1962   1.264   2.231   1.151  0.0907  2.8067  0.7003
  655SOL     OW 1963   0.174   0.928   1.904  0.2584  0.1488  0.7755
  655SOL    HW1 1964   0.248   0.873   1.855  0.7307 -1.1720  1.9249
  655SOL    HW2 1965   0.193   1.029   1.914 -1.6156  0.5318  0.9985
  656SOL     OW 1966   2.578   2.439   2.615  0.1130 -0.3056  0.0700
  656SOL    HW1 1967   2.669   2.439   2.562  2.5113 -1.5822 -0.7224
  656SOL    HW2 1968   2.498   2.400   2.568 -0.6137  2.5514  0.6274
  657SOL     OW 1969   2.991   1.000   1.904  0.2914 -0.1226 -0.0506
  657SOL    HW1 1970   2.986   1.106   1.898  1.1753 -0.2826 -0.9363
  657SOL    HW2 1971   3.089   0.968   1.902  2.1105  2.7635  0.2812
  658SOL     OW 1972   1.644   0.165   2.377 -0.6368 -0.1458  0.0238
  658SOL    HW1 1973   1.683   0.098   2.447 -1.3919  2.1497  0.2021
  658SOL    HW2 1974   1.690   0.156   2.284 -0.5789  0.6675 -0.6937
  659SOL     OW 1975   1.397   0.621   2.830  0.2566  0.0462  0.0743
  659SOL    HW1 1976   1.460   0.697   2.866  0.5128 -0.5895 -0.1747
  659SOL    HW2 1977   1.305   0.632   2.871 -0.0385  1.3814 -1.6348
  660SOL     OW 1978   1.402   0.321   1.414  0.3954  0.4068 -0.4383
  660SOL    HW1 1979   1.402   0.380   1.494  2.2106  0.3008 -0.7370
  660SOL    HW2 1980   1.490   0.276   1.390 -0.9075  0.6768 -0.7771
  661SOL     OW 1981   2.361   1.190   0.659  0.6133 -0.1565 -0.0926
  661SOL    HW1 1982   2.399   1.191   0.562  0.8737 -0.6558 -2.5509
  661SOL    HW2 1983   2.346   1.289   0.698 -2.1952  1.5352 -2.6751
  662SOL     OW 1984   1.400   0.370   1.722  0.2817  0.0664  0.0791
  662SOL    HW1 1985   1.344   0.287   1.702  1.6637 -0.0299 -1.5454
  662SOL    HW2 1986   1.372   0.407   1.814  0.3780 -1.2463  0.2558
  663SOL     OW 1987   0.799   1.550   2.201 -0.6779  0.0239 -0.2626
  663SOL    HW1 1988   0.736   1.620   2.235  3.2656 -2.9036  0.3170
  663SOL    HW2 1989   0.760   1.496   2.115  1.9993 -0.6427  2.3690
  664SOL     OW 1990   1.625   2.049   1.392  0.6653  0.3232  0.1631
  664SOL    HW1 1991   1.559   2.000   1.459 -0.7216 -0.5728  1.1662
  664SOL    HW2 1992   1.723   2.020   1.404 -2.4327 -0.1745 -0.4307
  665SOL     OW 1993   2.238   0.694   1.963 -0.0619  0.3555 -0.7429
  665SOL    HW1 1994   2.144   0.722   1.988 -1.3812 -2.4369 -0.3508
  665SOL    HW2 1995   2.293   0.669   2.045 -1.2374  1.3146 -3.7760
  666SOL     OW 1996   0.431   2.323   0.308 -0.0341 -0.9765  0.5395
  666SOL    HW1 1997   0.487   2.375   0.377 -1.4986  2.9365 -0.0955
  666SOL    HW2 1998   0.343   2.290   0.350  1.5449  1.4838  0.7688
  667SOL     OW 1999   2.081   0.186   1.160  0.1358 -0.1705  0.5768
  667SOL    HW1 2000   2.076   0.284   1.127 -1.6711 -0.0897 -1.0998
  667SOL    HW2 2001   1.999   0.171   1.221  1.5267 -0.3520  2.3734
  668SOL     OW 2002   2.056   0.476   1.113 -0.2811  0.2501 -0.0994
  668SOL    HW1 2003   2.111   0.509   1.032  0.8184  0.0200 -0.5180
  668SOL    HW2 2004   2.105   0.483   1.203  1.8505  0.4075  2.7207
  669SOL     OW 2005   3.074   2.131   1.014  0.5872 -0.5687 -0.0129
  669SOL    HW1 2006   3.023   2.193   0.939 -1.5783 -0.8832 -1.8444
  669SOL    HW2 2007   3.144   2.184   1.071  1.0115 -0.5365  1.4662
  670SOL     OW 2008   2.859   2.342   2.052 -0.3314  0.2648 -0.5259
  670SOL    HW1 2009   2.794   2.311   2.125 -0.4863 -0.5910 -1.1821
  670SOL    HW2 2010   2.854   2.452   2.043 -0.4698  1.3697  1.5715
  671SOL     OW 2011   1.708   1.783   1.485 -0.5970  0.2011  0.4210
  671SOL    HW1 2012   1.716   1.757   1.385  1.4622  1.8467  1.8382
  671SOL    HW2 2013   1.611   1.815   1.513 -0.2169 -0.6741  0.8181
  672SOL     OW 2014   0.433   0.620   2.360 -0.0674  0.3204  0.0635
  672SOL    HW1 2015   0.488   0.633   2.274 -1.4258  0.5560  1.8869
  672SOL    HW2 2016   0.356   0.689   2.374 -0.1126  2.3686  0.4050
  673SOL     OW 2017   0.138   1.228   1.131 -0.0668  0.0140 -0.5673
  673SOL    HW1 2018   0.168   1.289   1.212  1.1595  1.0742  0.1991
  673SOL    HW2 2019   0.213   1.165   1.098  0.1005  2.0937  0.9758
  674SOL     OW 2020   1.706   2.983   0.276  0.5066  0.1352 -0.6117
  674SOL    HW1 2021   1.704   3.086   0.272  1.8081 -0.6941 -1.2568
  674SOL    HW2 2022   1.777   2.939   0.220 -0.3056 -2.8099  1.1612
  675SOL     OW 2023   1.711   0.807   2.325 -0.0844  0.0290  0.6922
  675SOL    HW1 2024   1.814   0.793   2.318  2.3042  0.7040 -0.8318
  675SOL    HW2 2025   1.655   0.719   2.328 -1.1279  1.8871 -1.2710
  676SOL     OW 2026   2.564   1.488   1.926  0.1526  0.0097 -0.1326
  676SOL    HW1 2027   2.486   1.455   1.865  0.3744  0.4389  3.2290
  676SOL    HW2 2028   2.568   1.433   2.018  0.1131 -2.3406  2.0853
  677SOL     OW 2029   1.896   0.656   0.909 -0.2763  0.0958 -0.4971
  677SOL    HW1 2030   1.815   0.673   0.972 -2.9873 -1.3322  2.1912
  677SOL    HW2 2031   1.907   0.556   0.887  1.9714 -0.6800  2.0913
  678SOL     OW 2032   0.050   0.758   1.635 -0.4488  0.1024  0.1813
  678SOL    HW1 2033   0.145   0.765   1.672 -1.9309  0.2883  0.1815
  678SOL    HW2 2034  -0.019   0.728   1.711 -3.1349  0.5957  0.4604
  679SOL     OW 2035   2.515   1.231   1.177  0.5053  0.2625 -0.5943
  679SOL    HW1 2036   2.416   1.248   1.200 -0.5366 -1.6879 -1.0940
  679SOL    HW2 2037   2.529   1.126   1.180 -0.5790  1.3596 -0.0017
  680SOL     OW 2038   2.806   0.517   1.693  0.1470  0.2459 -0.0714
  680SOL    HW1 2039   2.778   0.584   1.615  0.6274  0.7870 -0.1889
  680SOL    HW2 2040   2.859   0.559   1.771  1.5747  1.6687  0.4774
  681SOL     OW 2041   3.009   0.141   1.613  0.1446  0.3267  0.5495
  681SOL    HW1 2042   3.079   0.149   1.538  1.2525  2.5053 -2.3340
  681SOL    HW2 2043   2.919   0.183   1.604  2.3863  0.3209  1.4121
  682SOL     OW 2044   0.783   0.014   1.335  0.2130 -0.3880 -0.3762
  682SOL    HW1 2045   0.704  -0.009   1.398  1.5214 -2.1472  1.0197
  682SOL    HW2 2046   0.779  -0.015   1.237  2.4106 -1.7131  0.4841
  683SOL     OW 2047   1.358   0.233   2.171  0.0807  0.3702 -0.2662
  683SOL    HW1 2048   1.377   0.273   2.264  1.7088 -2.1449 -0.4211
  683SOL    HW2 2049   1.414   0.291   2.106 -2.8379  1.9476 -0.4608
  684SOL     OW 2050   1.461   2.089   0.465  0.3508 -0.2926  0.2985
  684SOL    HW1 2051   1.507   2.020   0.527  0.7061  0.8551 -1.0672
  684SOL    HW2 2052   1.362   2.069   0.451 -0.3858  1.3889 -0.8391
  685SOL     OW 2053   2.178   2.058   1.929  0.3004 -0.4882  0.4792
  685SOL    HW1 2054   2.244   2.083   1.845  0.5992 -1.3829 -2.5881
  685SOL    HW2 2055   2.228   2.052   2.018 -1.6477 -0.1493 -1.0310
  686SOL     OW 2056   1.481   1.824   2.730  0.3337 -0.5146 -0.5618
  686SOL    HW1 2057   1.541   1.771   2.798 -0.2814  1.0519  0.0933
  686SOL    HW2 2058   1.498   1.795   2.633  2.3011  0.9819  0.0716
  687SOL     OW 2059   1.317   2.477   1.945 -0.2462  0.2245  0.3796
  687SOL    HW1 2060   1.343   2.380   1.933  0.2221 -0.8839  1.8352
  687SOL    HW2 2061   1.335   2.511   2.040 -2.8292 -1.2130 -0.8728
  688SOL     OW 2062   2.030   1.500   1.804  0.5684  0.1026  0.3966
  688SOL    HW1 2063   2.065   1.593   1.826 -0.1543  1.7217  1.7653
  688SOL    HW2 2064   2.077   1.469   1.717 -3.0103 -0.3925 -1.2207
  689SOL     OW 2065   2.353   1.083   2.752 -0.0015  0.1664  0.4985
  689SOL    HW1 2066   2.256   1.045   2.765  2.2045 -3.9783 -0.0240
  689SOL    HW2 2067   2.410   1.073   2.837 -3.7202  0.5358  1.1051
  690SOL     OW 2068   2.213   2.775   0.080  0.1341  0.0525  0.3026
  690SOL    HW1 2069   2.146   2.724   0.017 -1.6438 -1.4685 -1.5919
  690SOL    HW2 2070   2.179   2.816   0.165  0.1950  1.7260 -0.8541
  691SOL     OW 2071   2.586   0.425   2.172  0.3581  0.3507  0.2619
  691SOL    HW1 2072   2.625   0.329   2.148 -2.9666  0.9366  2.2629
  691SOL    HW2 2073   2.607   0.501   2.111  0.7274 -1.7181  2.5459
  692SOL     OW 2074   2.721   1.250   0.733  0.4895 -0.5698 -0.2332
  692SOL    HW1 2075   2.666   1.298   0.656 -2.4169  1.5280  0.8556
  692SOL    HW2 2076   2.754   1.317   0.803 -1.2039 -2.6824 -0.8812
  693SOL     OW 2077   2.854   2.943   0.635  0.4028  0.2453 -0.1353
  693SOL    HW1 2078   2.849   3.020   0.707  0.5859  0.7164  1.1140
  693SOL    HW2 2079   2.830   2.963   0.535 -0.7725 -2.4839 -1.9121
  694SOL     OW 2080   2.378   2.201   0.091 -0.5978 -0.2457 -0.1609
  694SOL    HW1 2081   2.381   2.289   0.144  2.3103 -1.9651 -0.9650
  694SOL    HW2 2082   2.288   2.151   0.096  0.2923  1.0491  2.1621
  695SOL     OW 2083   0.563   3.009   1.448 -0.1926 -0.5130 -0.3841
  695SOL    HW1 2084   0.502   2.968   1.377  0.5891  2.8473  1.5319
  695SOL    HW2 2085   0.521   3.011   1.542 -0.1123 -1.8809 -1.0494
  696SOL     OW 2086   2.809   2.041   0.708 -0.3407 -0.8283 -0.1354
  696SOL    HW1 2087   2.878   1.967   0.734  0.1528  0.9441  1.1295
  696SOL    HW2 2088   2.804   2.065   0.608  0.7234  0.7715  0.1825
  697SOL     OW 2089   1.613   2.012   1.843  0.3165  0.5750 -0.2565
  697SOL    HW1 2090   1.678   1.934   1.863  2.0037 -1.8664  0.5614
  697SOL    HW2 2091   1.665   2.098   1.823  3.3651 -1.7962 -2.6298
  698SOL     OW 2092   2.915   0.439   2.793 -0.1933  0.5130  0.1710
  698SOL    HW1 2093   2.922   0.414   2.690  0.8751 -0.6524 -1.2483
  698SOL    HW2 2094   2.973   0.365   2.845  0.1751 -0.1950 -2.1214
  699SOL     OW 2095   1.541   0.096   2.914  0.1021  0.0291 -0.2371
  699SOL    HW1 2096   1.502   0.004   2.894 -1.3366  1.3226  0.3859
  699SOL    HW2 2097   1.569   0.154   2.829 -0.1534  0.5857  0.5415
  700SOL     OW 2098   0.990   2.330   1.339 -0.6226 -0.3138 -0.2239
  700SOL    HW1 2099   1.085   2.295   1.322 -0.6880 -0.1917 -0.8980
  700SOL    HW2 2100   0.915   2.287   1.278 -1.5611 -0.7835 -1.5807
  701SOL     OW 2101   1.864   2.937   3.060 -0.1227  0.2362 -0.0396
  701SOL    HW1 2102   1.858   2.858   3.125 -0.3288  0.3676 -1.4396
  701SOL    HW2 2103   1.916   3.017   3.099  3.7666 -4.6848 -0.0149
  702SOL     OW 2104   2.078   1.312   1.989 -0.8045  0.3545  0.5365
  702SOL    HW1 2105   2.158   1.264   1.943  0.7179  1.6429  2.3266
  702SOL    HW2 2106   2.039   1.386   1.921  0.8468 -0.7251 -0.4011
  703SOL     OW 2107   1.934   0.911   1.458  0.3209 -0.1399  0.4002
  703SOL    HW1 2108   1.911   0.828   1.519 -1.0523  1.8717  1.0109
  703SOL    HW2 2109   2.015   0.964   1.503  0.1172 -0.1675 -0.1866
  704SOL     OW 2110   0.323   2.037   1.724 -0.4219  0.3767 -0.5834
  704SOL    HW1 2111   0.380   1.995   1.806  2.2691  0.7003  1.8891
  704SOL    HW2 2112   0.371   2.123   1.685  1.4989 -1.8996  0.4964
  705SOL     OW 2113   2.557   1.534   0.904 -0.6138 -0.5261 -0.2567
  705SOL    HW1 2114   2.501   1.467   0.854  0.4195 -0.4453  1.0418
  705SOL    HW2 2115   2.656   1.501   0.921  0.1555  1.9712  1.2975
  706SOL     OW 2116   0.603   1.655   1.876  0.3989 -0.4136 -0.3271
  706SOL    HW1 2117   0.632   1.560   1.904 -1.3015 -0.0167 -2.0279
  706SOL    HW2 2118   0.677   1.725   1.896 -0.5173 -2.1809  1.5842
  707SOL     OW 2119   2.263   1.168   1.845 -0.0437  0.5271 -0.2032
  707SOL    HW1 2120   2.360   1.191   1.879  1.2129  0.6889 -1.7316
  707SOL    HW2 2121   2.260   1.069   1.815  1.8212  1.6461  0.5053
  708SOL     OW 2122   3.069   0.549   3.077 -0.1488 -0.0983 -0.3262
  708SOL    HW1 2123   3.063   0.602   2.990  4.3753 -1.6529 -0.7554
  708SOL    HW2 2124   3.074   0.450   3.058 -0.2758  1.4930  1.3148
  709SOL     OW 2125   1.860   1.827   0.250  0.3879 -0.2583 -0.1559
  709SOL    HW1 2126   1.893   1.921   0.283 -3.1814  2.3644  0.8196
  709SOL    HW2 2127   1.839   1.831   0.144 -0.9404 -1.7538 -1.3150
  710SOL     OW 2128   1.669   1.642   2.402  0.0394  0.8040  0.0813
  710SOL    HW1 2129   1.718   1.599   2.321  1.3829 -2.2413 -0.5033
  710SOL    HW2 2130   1.684   1.586   2.490 -0.5538 -0.6223 -0.6199
  711SOL     OW 2131   2.576   2.901   1.052  1.0752  0.2907 -0.2862
  711SOL    HW1 2132   2.544   2.987   1.006  1.2792 -1.0118  0.6912
  711SOL    HW2 2133   2.678   2.903   1.072  0.6395 -1.3873 -0.1839
  712SOL     OW 2134   1.396   2.210   1.961  0.0995  0.3083  0.1889
  712SOL    HW1 2135   1.500   2.207   1.979  2.2687 -1.3211  0.6816
  712SOL    HW2 2136   1.364   2.135   1.898 -1.5891 -2.1185 -0.0584
  713SOL     OW 2137   2.838   1.463   2.524  0.5039 -0.0196  0.2120
  713SOL    HW1 2138   2.826   1.362   2.504  0.1769 -1.1472  1.2605
  713SOL    HW2 2139   2.785   1.490   2.607 -2.6128  0.8499 -0.9599
  714SOL     OW 2140   2.692   0.506   2.458  0.6325  0.6167  0.3984
  714SOL    HW1 2141   2.622   0.456   2.517  0.6061 -0.1644  2.3702
  714SOL    HW2 2142   2.663   0.510   2.360 -0.2527 -1.4364  0.3559
  715SOL     OW 2143   1.593   2.052   1.098 -0.0515 -0.3766  0.4903
  715SOL    HW1 2144   1.516   2.122   1.076  0.9855  2.5365  1.1304
  715SOL    HW2 2145   1.616   2.044   1.197  0.1110 -3.0315  1.1143
  716SOL     OW 2146   1.179   0.180   1.503 -0.2746 -0.6607  0.3122
  716SOL    HW1 2147   1.091   0.207   1.456 -2.0085 -2.9919  2.5876
  716SOL    HW2 2148   1.258   0.241   1.467  3.5343  1.4882  1.6578
  717SOL     OW 2149   1.168   0.563   1.522  0.5748 -0.4407 -0.2538
  717SOL    HW1 2150   1.250   0.626   1.541 -2.5224 -1.0905  2.1639
  717SOL    HW2 2151   1.148   0.553   1.417 -2.3315  0.8751 -0.6031
  718SOL     OW 2152   0.668   0.901   1.026 -0.2086  0.4540  0.7899
  718SOL    HW1 2153   0.638   0.885   0.927 -0.2665 -1.2774 -1.1280
  718SOL    HW2 2154   0.692   1.002   1.053  0.1705  0.5195 -0.3684
  719SOL     OW 2155   0.624   1.716   2.319 -0.7885  1.1435  0.0398
  719SOL    HW1 2156   0.683   1.775   2.374  0.4141 -0.6214 -1.5231
  719SOL    HW2 2157   0.543   1.683   2.373  0.5094  0.3335 -1.2583
  720SOL     OW 2158   2.187   1.119   0.297 -0.2153  0.3431  0.1742
  720SOL    HW1 2159   2.257   1.064   0.239  0.7227 -0.0246 -1.3479
  720SOL    HW2 2160   2.166   1.071   0.389 -1.2148 -3.5211  2.6116
  721SOL     OW 2161   2.282   3.013   2.095 -0.2247  0.0824  0.5823
  721SOL    HW1 2162   2.299   3.069   2.012  0.3971  0.0975  0.1898
  721SOL    HW2 2163   2.191   3.044   2.133  0.9740  0.5344 -1.8324
  722SOL     OW 2164   2.339   1.592   0.530  0.9367  0.5216  0.5405
  722SOL    HW1 2165   2.351   1.598   0.429 -3.2484 -1.0381 -0.1337
  722SOL    HW2 2166   2.285   1.670   0.571  0.7945 -0.8177  2.7040
  723SOL     OW 2167   2.593   2.734   1.947 -0.1544  0.0907 -0.0933
  723SOL    HW1 2168   2.645   2.805   2.003 -1.0835 -0.5911  1.0559
  723SOL    HW2 2169   2.493   2.727   1.972  2.0080 -1.9735  1.0493
  724SOL     OW 2170   0.496   2.493   2.389  0.2844 -0.6082  0.3778
  724SOL    HW1 2171   0.407   2.507   2.443  0.0924  3.2434 -0.1951
  724SOL    HW2 2172   0.579   2.496   2.450  0.8971  0.3776 -1.7779
  725SOL     OW 2173   2.390   2.801   1.522  1.0247  0.0807  0.5778
  725SOL    HW1 2174   2.425   2.824   1.429  2.1125  0.6375 -0.2013
  725SOL    HW2 2175   2.394   2.702   1.536  5.3723  1.1460 -0.6066
  726SOL     OW 2176   2.541   2.335   0.730 -0.4008 -0.3924 -0.4293
  726SOL    HW1 2177   2.488   2.426   0.704 -1.4424  3.2933 -1.0945
  726SOL    HW2 2178   2.514   2.262   0.665 -0.5030  2.0026  1.5097
  727SOL     OW 2179   0.117   3.074   0.054 -0.0792 -0.1017  0.9756
  727SOL    HW1 2180   0.152   2.990   0.000 -2.1448 -1.9079  1.5759
  727SOL    HW2 2181   0.023   3.100   0.022 -0.7197  4.4670 -0.8762
  728SOL     OW 2182   2.910   0.634   0.950 -0.4161 -0.2472  0.1246
  728SOL    HW1 2183   2.827   0.669   0.894  1.5259  1.3574  1.1919
  728SOL    HW2 2184   2.877   0.616   1.046 -0.7007  2.5390 -1.7513
  729SOL     OW 2185   3.027   2.512   0.757 -0.1566  0.0965  0.4355
  729SOL    HW1 2186   3.014   2.422   0.809  1.5805  2.4852 -1.6739
  729SOL    HW2 2187   3.110   2.517   0.704 -2.1778 -1.9970  0.0620
  730SOL     OW 2188   2.646   0.709   0.864  0.2691  0.3992  0.0756
  730SOL    HW1 2189   2.594   0.797   0.872  0.8262 -0.9714 -2.0483
  730SOL    HW2 2190   2.679   0.687   0.763 -0.7133  1.7292 -0.3955
  731SOL     OW 2191   0.045   2.113   2.463  0.5082  0.2694  0.8222
  731SOL    HW1 2192   0.044   2.166   2.551 -1.7194 -0.0630  0.3430
  731SOL    HW2 2193  -0.019   2.151   2.394  0.2166 -0.0019  2.5450
  732SOL     OW 2194   1.196   2.851   1.962 -0.6033  0.1397  0.0043
  732SOL    HW1 2195   1.202   2.796   2.048  0.3355  0.7484 -1.3979
  732SOL    HW2 2196   1.168   2.795   1.884 -1.6265  0.0063  2.4898
  733SOL     OW 2197   3.058   0.587   2.216  0.1034  0.0898 -0.4524
  733SOL    HW1 2198   3.156   0.595   2.181  2.4381 -1.9572 -2.0945
  733SOL    HW2 2199   2.997   0.528   2.162  1.0877  1.4747  3.9490
  734SOL     OW 2200   1.431   0.387   2.697  0.5757 -0.0122 -0.1821
  734SOL    HW1 2201   1.419   0.479   2.747  0.1381 -1.3789  1.3262
  734SOL    HW2 2202   1.376   0.311   2.746  0.3528 -0.9716  1.0731
  735SOL     OW 2203   2.890   2.657   2.300 -0.0819  0.3804 -0.2925
  735SOL    HW1 2204   2.872   2.638   2.198 -0.5400  2.2033  1.3140
  735SOL    HW2 2205   2.976   2.714   2.318  1.3915 -2.8472  2.4755
  736SOL     OW 2206   0.848   0.328   2.575 -0.4290 -0.5725 -0.2987
  736SOL    HW1 2207   0.766   0.389   2.574 -0.9916  2.6829 -1.2154
  736SOL    HW2 2208   0.854   0.280   2.484  1.3655 -3.8903  0.6855
  737SOL     OW 2209   2.636   0.458   2.837  0.3559  0.1285  0.3129
  737SOL    HW1 2210   2.636   0.425   2.936 -0.6190  1.5300  1.2058
  737SOL    HW2 2211   2.724   0.434   2.784  0.2057  0.6844 -0.8133
  738SOL     OW 2212   1.651   1.244   2.891 -0.0997  0.3751 -0.2153
  738SOL    HW1 2213   1.747   1.244   2.860  0.1355  0.1433  0.0245
  738SOL    HW2 2214   1.602   1.162   2.854 -0.9903 -1.4047  1.3440
  739SOL     OW 2215   1.727   0.699   0.684 -0.2474 -1.0077 -0.0557
  739SOL    HW1 2216   1.785   0.704   0.770 -0.9502 -0.0582 -0.3928
  739SOL    HW2 2217   1.748   0.613   0.624  0.7114  0.9075  2.0158
  740SOL     OW 2218   1.976   1.934   2.367  0.5416  0.2287 -0.3507
  740SOL    HW1 2219   2.025   1.840   2.379 -0.6253 -0.7550 -2.9104
  740SOL    HW2 2220   1.891   1.920   2.311 -2.4832 -1.4108 -0.4155
  741SOL     OW 2221   2.568   0.103   2.572  0.4569  0.4703 -0.1657
  741SOL    HW1 2222   2.673   0.104   2.571  0.2340 -0.2244 -0.6000
  741SOL    HW2 2223   2.533   0.072   2.477 -0.7230 -0.2726 -0.4578
  742SOL     OW 2224   2.192   1.385   0.211 -0.2981  0.1441 -0.2812
  742SOL    HW1 2225   2.105   1.444   0.231 -0.2113  1.0703 -1.7036
  742SOL    HW2 2226   2.193   1.282   0.245  1.1956 -2.5381  0.4197
  743SOL     OW 2227   1.803   0.641   2.580  0.6791  0.3700  0.9721
  743SOL    HW1 2228   1.785   0.569   2.508 -1.2462  1.0115 -4.7335
  743SOL    HW2 2229   1.717   0.706   2.591 -0.1319  1.1173  2.9736
  744SOL     OW 2230   2.629   2.050   0.143 -0.5961 -0.3228  1.2133
  744SOL    HW1 2231   2.529   2.084   0.119 -0.5232 -0.4628  0.9830
  744SOL    HW2 2232   2.623   1.979   0.215  2.5395  2.9605  0.0131
  745SOL     OW 2233   2.129   2.655   2.211 -0.2144 -0.0892  0.1743
  745SOL    HW1 2234   2.029   2.675   2.237 -2.2712 -1.7855  1.7038
  745SOL    HW2 2235   2.189   2.686   2.289 -1.0523  1.4902  2.4589
  746SOL     OW 2236   3.088   2.632   1.726 -0.3482 -0.0850  0.2408
  746SOL    HW1 2237   3.173   2.644   1.668 -0.6023 -1.1863 -0.9659
  746SOL    HW2 2238   3.062   2.722   1.776 -2.4917  0.6311  1.6222
  747SOL     OW 2239   0.009   1.755   1.751  0.7264  0.0215 -0.5522
  747SOL    HW1 2240  -0.066   1.698   1.718 -0.9292 -1.1547  0.1663
  747SOL    HW2 2241   0.081   1.772   1.675  0.2410  1.9416 -0.4114
  748SOL     OW 2242   1.827   2.717   2.873 -0.0017  0.1755 -0.1386
  748SOL    HW1 2243   1.848   2.818   2.901  0.0369 -0.0171 -0.3610
  748SOL    HW2 2244   1.731   2.697   2.839  1.8278 -0.2250  0.6081
  749SOL     OW 2245   1.380   3.023   0.881  0.2732  0.6351  0.6029
  749SOL    HW1 2246   1.305   2.957   0.896 -0.7887 -2.0881  3.3740
  749SOL    HW2 2247   1.439   3.009   0.792 -1.2153 -0.8942 -1.2527
  750SOL     OW 2248   2.298   0.217   1.848 -0.0982  0.1434  0.2944
  750SOL    HW1 2249   2.330   0.294   1.789 -0.0942 -0.4108  1.8285
  750SOL    HW2 2250   2.288   0.258   1.946 -0.3048 -0.3115 -0.6961
  751SOL     OW 2251   0.840   2.069   2.820 -0.4694  0.4659  0.4781
  751SOL    HW1 2252   0.903   2.087   2.901  1.7751  0.7437  0.2517
  751SOL    HW2 2253   0.741   2.078   2.852 -0.0704 -1.5039  1.3839
  752SOL     OW 2254   1.323   0.861   1.245 -0.0625  0.5515  0.1078
  752SOL    HW1 2255   1.389   0.940   1.231  0.5028 -0.5309  0.5745
  752SOL    HW2 2256   1.362   0.783   1.299 -0.2148  3.0972 -0.1438
  753SOL     OW 2257   0.925   2.627   1.671 -0.3315 -0.5487 -0.2807
  753SOL    HW1 2258   1.013   2.633   1.725 -0.3636  0.0698 -0.0942
  753SOL    HW2 2259   0.878   2.716   1.663  1.0984  2.1754 -2.8927
  754SOL     OW 2260   1.126   1.210   2.984 -0.0162  0.5939 -0.1026
  754SOL    HW1 2261   1.181   1.154   2.913  1.6783 -0.6609  1.0003
  754SOL    HW2 2262   1.141   1.315   2.974 -0.7755  0.0765  1.6993
  755SOL     OW 2263   2.010   0.468   2.207 -0.3226  0.1875 -0.1715
  755SOL    HW1 2264   2.091   0.415   2.253  1.5419  0.4389 -1.5147
  755SOL    HW2 2265   1.924   0.469   2.266 -2.1338 -1.1724 -1.5450
  756SOL     OW 2266   2.562   1.006   2.971 -0.3391  0.3445 -0.3172
  756SOL    HW1 2267   2.660   0.979   2.981  1.2393  0.9134 -0.6421
  756SOL    HW2 2268   2.498   0.933   2.995 -0.5829  4.3929 -0.3326
  757SOL     OW 2269   0.093   0.517   1.961 -0.6837  0.5988 -0.2533
  757SOL    HW1 2270   0.175   0.454   1.946  0.9524  3.3271  0.2726
  757SOL    HW2 2271   0.000   0.461   1.953 -3.4858 -0.8329 -3.6518
  758SOL     OW 2272   2.293   0.123   1.497  0.4523  0.3414  0.6098
  758SOL    HW1 2273   2.262   0.027   1.532  0.9927  0.0692  1.7143
  758SOL    HW2 2274   2.306   0.127   1.392 -0.1682  1.7967  0.7198
  759SOL     OW 2275   1.709   0.117   0.044  0.1196  0.1084 -0.4340
  759SOL    HW1 2276   1.664   0.116  -0.052 -0.3665 -2.4684 -2.5800
  759SOL    HW2 2277   1.810   0.098   0.037 -0.1855  0.0837 -0.6446
  760SOL     OW 2278   2.690   2.053   2.826  0.9067 -0.0826 -0.0791
  760SOL    HW1 2279   2.721   1.963   2.869  2.1341  2.7317  2.0299
  760SOL    HW2 2280   2.664   2.127   2.895 -0.4547  2.7751 -0.4985
  761SOL     OW 2281   1.863   1.744   1.701  0.3900 -0.5901  0.1854
  761SOL    HW1 2282   1.866   1.642   1.709 -0.3178  1.0596  1.2707
  761SOL    HW2 2283   1.792   1.764   1.630  1.2562 -3.4051  1.8885
  762SOL     OW 2284   0.510   2.337   0.947  0.1223  0.3367 -0.0354
  762SOL    HW1 2285   0.565   2.350   0.859 -0.5640 -0.6272  1.9210
  762SOL    HW2 2286   0.543   2.407   1.016 -0.6554  1.4398  1.0380
  763SOL     OW 2287   2.079   1.589   2.986 -0.1499  0.0719 -0.0448
  763SOL    HW1 2288   2.151   1.533   2.940  0.4076  2.0637 -1.4188
  763SOL    HW2 2289   2.034   1.554   3.069  2.2644 -0.1512 -0.1147
  764SOL     OW 2290   0.661   0.631   0.812  0.3743  0.6070  0.0709
  764SOL    HW1 2291   0.594   0.551   0.809  2.1589  0.5237 -0.1971
  764SOL    HW2 2292   0.762   0.597   0.814 -0.3490  2.5171 -0.9057
  765SOL     OW 2293   0.736   0.215   0.765 -0.2268 -0.0998  0.0265
  765SOL    HW1 2294   0.807   0.263   0.711 -0.0771  3.6061 -0.1280
  765SOL    HW2 2295   0.691   0.269   0.844  2.7218 -0.7270  0.5055
  766SOL     OW 2296   2.853   2.102   3.073  0.4074 -0.1697 -0.0957
  766SOL    HW1 2297   2.768   2.102   3.136  0.8698  1.9325  0.1056
  766SOL    HW2 2298   2.910   2.186   3.083 -1.7416 -2.9497  1.1766
  767SOL     OW 2299   2.774   1.641   0.596 -0.6616 -0.5224 -0.1696
  767SOL    HW1 2300   2.687   1.696   0.621  1.2116  4.1595  0.0186
  767SOL    HW2 2301   2.851   1.686   0.643  2.1511 -1.3480  1.8828
  768SOL     OW 2302   0.980   0.062   0.248  1.0034  0.0071  0.2377
  768SOL    HW1 2303   0.947   0.048   0.348 -0.5067  2.2897  3.5620
  768SOL    HW2 2304   1.064   0.121   0.250 -0.5392 -0.6774  1.2167
  769SOL     OW 2305   1.081   1.954   2.300 -0.6033  0.6191 -0.4009
  769SOL    HW1 2306   0.983   1.968   2.322  0.9853 -0.9029  0.3050
  769SOL    HW2 2307   1.133   1.913   2.384 -1.1521 -0.5793  1.0971
  770SOL     OW 2308   0.184   1.184   2.278  0.3021 -0.3266  0.1434
  770SOL    HW1 2309   0.172   1.223   2.374 -0.7061  0.4822 -1.8171
  770SOL    HW2 2310   0.090   1.179   2.230 -1.7317 -3.0208  0.1663
  771SOL     OW 2311   2.991   2.841   1.872 -0.7680 -0.1483  0.3168
  771SOL    HW1 2312   2.942   2.902   1.801  0.4367 -1.4299  0.6289
  771SOL    HW2 2313   2.997   2.891   1.961  1.5623 -0.2582  0.1917
  772SOL     OW 2314   2.213   0.161   2.939 -0.3569  0.7122 -0.1097
  772SOL    HW1 2315   2.290   0.104   2.889  0.1362  0.3435 -2.9536
  772SOL    HW2 2316   2.245   0.220   3.016 -3.6304  1.6534 -0.8576
  773SOL     OW 2317   0.727   2.132   2.448  0.6659  0.2557 -0.6830
  773SOL    HW1 2318   0.679   2.182   2.370 -2.1774 -0.0576  2.4629
  773SOL    HW2 2319   0.665   2.140   2.535 -3.0763  0.9998  0.0519
  774SOL     OW 2320   2.025   0.011   2.594 -0.2955 -0.3903 -0.0464
  774SOL    HW1 2321   2.037   0.111   2.637  0.3728  3.8999 -0.2936
  774SOL    HW2 2322   2.038  -0.059   2.667  0.2708 -0.7899  0.3299
  775SOL     OW 2323   2.546   2.913   2.353  0.2752 -0.2123  0.5832
  775SOL    HW1 2324   2.533   3.014   2.322 -0.3125 -0.3900 -1.1444
  775SOL    HW2 2325   2.635   2.901   2.410  0.9803 -1.0704 -2.7327
  776SOL     OW 2326   0.038   1.236   0.217 -0.6258 -0.0632 -0.7239
  776SOL    HW1 2327  -0.010   1.239   0.125  2.7684  0.3899 -0.6383
  776SOL    HW2 2328  -0.022   1.196   0.290 -1.3765 -0.7385  1.0443
  777SOL     OW 2329   0.322   2.821   0.364 -0.6864  0.7779  0.5518
  777SOL    HW1 2330   0.232   2.861   0.342 -0.5847 -0.3974  1.1567
  777SOL    HW2 2331   0.403   2.884   0.362 -0.2776  1.9480 -0.0912
  778SOL     OW 2332   1.356   1.960   0.170  0.0781 -0.1535  0.4972
  778SOL    HW1 2333   1.301   1.946   0.263 -0.7298 -0.4028  0.8226
  778SOL    HW2 2334   1.354   2.059   0.139  1.1097 -0.8034 -2.8066
  779SOL     OW 2335   0.181   0.856   0.482  0.0477  0.2982  0.0672
  779SOL    HW1 2336   0.119   0.785   0.436 -0.9926  0.6623 -1.2082
  779SOL    HW2 2337   0.128   0.929   0.529  1.3119 -1.7217 -2.5334
  780SOL     OW 2338   0.082   0.224   2.366  0.2485 -0.3125 -0.7714
  780SOL    HW1 2339  -0.007   0.264   2.393  1.4247 -1.6017 -1.7853
  780SOL    HW2 2340   0.144   0.295   2.323 -0.3856  0.1361 -0.4535
  781SOL     OW 2341   0.668   1.665   1.532  0.5631  0.4397  0.2063
  781SOL    HW1 2342   0.742   1.595   1.555 -1.9190 -1.3560 -0.5529
  781SOL    HW2 2343   0.576   1.632   1.564 -1.0056 -2.3886 -1.2329
  782SOL     OW 2344   2.598   0.066   0.934  0.3591 -0.0376 -0.0394
  782SOL    HW1 2345   2.541   0.101   0.851  1.8207  0.7073  0.1347
  782SOL    HW2 2346   2.599   0.139   1.003 -0.5375  1.8123 -3.1779
  783SOL     OW 2347   2.849   0.731   2.527  0.6838  0.6230  0.2287
  783SOL    HW1 2348   2.815   0.756   2.627  1.9481  1.1270  0.9952
  783SOL    HW2 2349   2.798   0.650   2.483  0.2203  1.6735 -0.6461
  784SOL     OW 2350   1.436   2.207   0.086  0.0614  0.3230  0.6934
  784SOL    HW1 2351   1.520   2.270   0.101  1.7130  2.0891 -0.7208
  784SOL    HW2 2352   1.414   2.196  -0.011  0.4624 -2.3238  2.7637
  785SOL     OW 2353   2.127   0.345   0.081 -0.5758  0.2529 -0.2957
  785SOL    HW1 2354   2.032   0.350   0.123  3.0127  0.7053 -2.2686
  785SOL    HW2 2355   2.147   0.429   0.018 -0.4220  0.8487  0.1545
  786SOL     OW 2356   2.038   2.197   2.242 -0.5614 -0.1244  0.2316
  786SOL    HW1 2357   1.998   2.109   2.284 -3.5220 -2.6511  3.7486
  786SOL    HW2 2358   2.129   2.179   2.187 -0.2119  0.5922 -3.6091
  787SOL     OW 2359   1.367   0.517   0.979  0.0301  0.7762  0.8682
  787SOL    HW1 2360   1.281   0.571   0.998 -1.8756 -1.7284  2.6915
  787SOL    HW2 2361   1.393   0.512   0.874  0.5018 -0.5255 -2.2167
  788SOL     OW 2362   1.291   0.399   0.062 -0.1037 -0.9194  0.1408
  788SOL    HW1 2363   1.199   0.407   0.007 -1.1777 -0.7621  3.0611
  788SOL    HW2 2364   1.282   0.460   0.143 -1.0565  0.8931 -2.6012
  789SOL     OW 2365   2.572   0.089   1.932  0.1168  0.4564 -0.8352
  789SOL    HW1 2366   2.493   0.149   1.901  3.4448  1.9983  1.0876
  789SOL    HW2 2367   2.567  -0.010   1.903 -0.3951 -3.9690 -0.4479
  790SOL     OW 2368   2.679   2.761   0.821 -0.0116  0.4961 -0.1602
  790SOL    HW1 2369   2.711   2.820   0.738  2.6900  2.1989 -1.6165
  790SOL    HW2 2370   2.668   2.805   0.913  0.9239  0.1124 -1.4053
  791SOL     OW 2371   1.923   1.210   0.201  0.4049 -0.1402 -0.3189
  791SOL    HW1 2372   1.827   1.170   0.213  1.6321  3.3718 -0.4316
  791SOL    HW2 2373   1.999   1.151   0.232 -0.1547 -0.1313  1.3792
  792SOL     OW 2374   0.425   1.893   2.189 -0.0245  1.1627 -0.2938
  792SOL    HW1 2375   0.482   1.819   2.231 -2.2945  0.0239  0.4353
  792SOL    HW2 2376   0.346   1.920   2.245  0.8036  1.3054 -1.4627
  793SOL     OW 2377   2.079   1.556   2.123 -0.2148  0.6312  0.3288
  793SOL    HW1 2378   2.160   1.607   2.076  1.1557 -3.5067  2.6778
  793SOL    HW2 2379   2.069   1.457   2.086  0.4935 -0.4400  1.1791
  794SOL     OW 2380   0.505   1.363   2.376 -0.2889 -0.1299  0.0080
  794SOL    HW1 2381   0.502   1.330   2.275  1.0642 -2.5380  0.4316
  794SOL    HW2 2382   0.463   1.460   2.383 -1.3647 -1.0941 -0.4275
  795SOL     OW 2383   2.500   2.256   1.872 -0.1379  0.4858 -0.2221
  795SOL    HW1 2384   2.520   2.204   1.960  0.4622 -1.8155 -1.7455
  795SOL    HW2 2385   2.429   2.212   1.810 -0.2411  0.3681 -1.1593
  796SOL     OW 2386   3.043   1.134   2.687 -0.1709  0.1684 -0.0673
  796SOL    HW1 2387   2.944   1.159   2.699  1.2212 -1.4737 -1.3423
  796SOL    HW2 2388   3.097   1.151   2.775 -2.2296 -2.1799 -2.1811
  797SOL     OW 2389   0.779   0.641   1.385  0.3212  0.2273  0.0921
  797SOL    HW1 2390   0.844   0.678   1.457  0.7066 -3.1546 -0.1202
  797SOL    HW2 2391   0.715   0.713   1.344  1.0321  0.3482  1.2548
  798SOL     OW 2392   1.314   0.292   1.147  0.1543  0.0277 -0.6046
  798SOL    HW1 2393   1.357   0.305   1.248  2.9654  0.1231 -1.6778
  798SOL    HW2 2394   1.344   0.366   1.081 -1.6974 -1.3019 -1.1577
  799SOL     OW 2395   1.913   2.740   1.035 -0.5854  0.2443  0.1614
  799SOL    HW1 2396   1.889   2.697   1.131  2.3108 -1.0680  0.2993
  799SOL    HW2 2397   1.854   2.701   0.963 -1.3877  0.1129  0.1494
  800SOL     OW 2398   2.987   0.690   1.858 -0.0454  0.3979  0.2688
  800SOL    HW1 2399   2.980   0.789   1.887 -2.3083  2.0033 -0.6301
  800SOL    HW2 2400   3.066   0.643   1.910 -0.7014  0.0427  0.9476
  801SOL     OW 2401   1.945   2.228   0.102 -0.2461 -0.6159 -0.6586
  801SOL    HW1 2402   1.852   2.240   0.054 -1.7125  2.7540  0.5968
  801SOL    HW2 2403   2.011   2.165   0.057 -0.5391  2.3715 -0.3663
  802SOL     OW 2404   0.680   0.806   2.558 -0.5042 -0.2137 -0.7302
  802SOL    HW1 2405   0.737   0.751   2.492  0.0515 -1.5662 -1.1466
  802SOL    HW2 2406   0.593   0.847   2.516  0.2083 -3.5137 -1.4549
  803SOL     OW 2407   0.945   0.046   0.822  0.4484  0.0849  0.0147
  803SOL    HW1 2408   1.044   0.086   0.832  1.1095 -2.1645  0.4326
  803SOL    HW2 2409   0.873   0.110   0.781  0.0289 -0.0624 -1.1016
  804SOL     OW 2410   0.310   0.044   2.136  0.1187 -0.0165  0.3699
  804SOL    HW1 2411   0.310   0.139   2.177 -1.3209  0.4260 -0.0494
  804SOL    HW2 2412   0.248   0.041   2.054 -1.7226 -0.2813  1.7763
  805SOL     OW 2413   2.370   0.332   0.356 -0.5189  0.2071  0.2345
  805SOL    HW1 2414   2.442   0.368   0.423  0.3005  1.8782  0.3591
  805SOL    HW2 2415   2.415   0.290   0.271 -0.9010 -0.9841  0.3410
  806SOL     OW 2416   0.624   2.448   1.779  0.4898 -0.4644  0.1481
  806SOL    HW1 2417   0.600   2.546   1.754  1.4226 -1.2457  2.3587
  806SOL    HW2 2418   0.696   2.406   1.718  0.9255  1.5214 -0.7948
  807SOL     OW 2419   2.486   0.845   0.372 -0.1346  0.2153 -0.6558
  807SOL    HW1 2420   2.582   0.869   0.402  2.0099 -3.1471  2.4341
  807SOL    HW2 2421   2.456   0.902   0.288 -0.2729  1.6527  0.9798
  808SOL     OW 2422   0.578   2.082   2.900  0.8417  0.2409 -0.2131
  808SOL    HW1 2423   0.541   2.128   2.985  1.3244  0.1226 -1.8009
  808SOL    HW2 2424   0.595   1.980   2.913 -0.9398  0.9178 -1.4055
  809SOL     OW 2425   2.694   1.990   1.910  0.0007  0.1328 -0.0994
  809SOL    HW1 2426   2.794   2.003   1.935  0.2142 -0.5615 -1.2621
  809SOL    HW2 2427   2.676   1.980   1.808  2.4941 -1.1116 -0.6806
  810SOL     OW 2428   2.097   1.036   0.533  0.6865  0.3844  0.5369
  810SOL    HW1 2429   2.095   0.969   0.610 -0.7879 -0.7877  0.9970
  810SOL    HW2 2430   2.079   1.135   0.558  0.3243  0.2993  0.0706
  811SOL     OW 2431   1.336   2.501   1.191 -0.0737 -0.2160 -0.6726
  811SOL    HW1 2432   1.299   2.407   1.222 -3.8167 -0.0342 -0.3636
  811SOL    HW2 2433   1.279   2.577   1.228  1.4298 -0.1035 -2.9123
  812SOL     OW 2434   1.423   0.756   1.968 -0.4131 -0.5011 -0.1119
  812SOL    HW1 2435   1.497   0.827   2.000 -1.2255 -0.7919 -0.2977
  812SOL    HW2 2436   1.321   0.783   1.979  1.9494 -0.4831  0.0368
  813SOL     OW 2437   1.710   2.037   2.496 -0.3641 -0.0117  0.1173
  813SOL    HW1 2438   1.773   1.965   2.526  2.4291  0.2271 -1.2751
  813SOL    HW2 2439   1.660   2.017   2.406 -2.0904  0.6674 -1.4814
  814SOL     OW 2440   2.908   1.534   2.846 -0.3629  1.1783 -0.6558
  814SOL    HW1 2441   2.992   1.503   2.900 -0.0760 -0.4270 -3.4874
  814SOL    HW2 2442   2.927   1.621   2.789 -0.9826  0.3519 -1.5681
  815SOL     OW 2443   2.134   2.913   2.778  0.2711 -0.2646 -0.1372
  815SOL    HW1 2444   2.120   2.830   2.844 -3.3846 -1.1939 -0.6983
  815SOL    HW2 2445   2.230   2.947   2.781 -0.5903  0.6707  0.4328
  816SOL     OW 2446   1.652   0.334   1.605 -0.3112  0.3287 -0.3520
  816SOL    HW1 2447   1.687   0.241   1.633 -0.3701 -1.8248  0.8700
  816SOL    HW2 2448   1.560   0.350   1.650  1.4047 -1.1573 -0.3998
  817SOL     OW 2449   0.386   1.191   2.558 -0.5771 -0.4726 -0.0945
  817SOL    HW1 2450   0.284   1.217   2.568 -0.7865 -2.3425  2.1349
  817SOL    HW2 2451   0.433   1.246   2.483  2.0787  0.3271  1.1701
  818SOL     OW 2452   1.894   0.869   0.444 -0.9006  0.4658 -0.2532
  818SOL    HW1 2453   1.977   0.930   0.472  2.4377 -0.2312 -0.3057
  818SOL    HW2 2454   1.807   0.907   0.479 -0.8268  0.3310 -1.1210
  819SOL     OW 2455   2.731   2.973   2.986  0.2947  0.1476 -0.3515
  819SOL    HW1 2456   2.805   2.904   2.954  1.5718 -0.9895 -3.2404
  819SOL    HW2 2457   2.633   2.949   2.949  0.0973 -3.3572 -0.2613
  820SOL     OW 2458   1.270   1.076   0.677 -0.3590 -0.8745 -0.4363
  820SOL    HW1 2459   1.236   1.177   0.691 -2.3902  2.0120  0.8273
  820SOL    HW2 2460   1.225   1.005   0.738  1.0818  1.0284 -0.2892
  821SOL     OW 2461   3.082   1.318   0.671  0.2055 -0.0153 -0.6372
  821SOL    HW1 2462   3.095   1.306   0.778  0.2276  3.0671  3.2441
  821SOL    HW2 2463   3.158   1.386   0.638 -1.4223  0.7329 -0.3537
  822SOL     OW 2464   2.567   1.712   2.431 -0.2230 -0.3183 -0.5124
  822SOL    HW1 2465   2.580   1.799   2.483 -1.0971 -0.8487 -0.7598
  822SOL    HW2 2466   2.475   1.713   2.382 -2.8679  0.0911  0.2877
  823SOL     OW 2467   2.101   0.903   1.220 -0.4784  0.2247  0.0504
  823SOL    HW1 2468   2.043   0.860   1.296 -0.0185 -0.2523 -2.2969
  823SOL    HW2 2469   2.047   0.941   1.138 -1.1181  1.0404 -1.6173
  824SOL     OW 2470   0.238   2.051   2.785  0.1250 -0.1790  0.1541
  824SOL    HW1 2471   0.192   1.986   2.852  0.1723 -1.9471  0.3847
  824SOL    HW2 2472   0.298   1.998   2.717  2.4341 -1.7864 -0.8858
  825SOL     OW 2473   1.296   1.119   0.268 -0.3136  0.4707  0.3515
  825SOL    HW1 2474   1.308   1.221   0.257  1.4569 -0.6486 -0.3630
  825SOL    HW2 2475   1.233   1.094   0.346  2.6984  2.3587 -0.6049
  826SOL     OW 2476   1.900   0.708   1.633  0.2778 -0.2151 -0.2527
  826SOL    HW1 2477   1.978   0.645   1.663 -1.0493 -1.8379 -0.4918
  826SOL    HW2 2478   1.830   0.655   1.580  1.0179 -1.2724  1.6447
  827SOL     OW 2479   0.682   1.188   0.224 -0.3580 -0.6308 -0.5643
  827SOL    HW1 2480   0.779   1.171   0.187  2.8413  3.6345  1.4243
  827SOL    HW2 2481   0.622   1.103   0.202 -0.4899 -4.5863 -0.9921
  828SOL     OW 2482   2.562   0.105   1.573  0.6549  0.3753 -0.4241
  828SOL    HW1 2483   2.461   0.134   1.558  0.0316  0.5204 -1.8160
  828SOL    HW2 2484   2.562   0.013   1.620 -0.2783  0.8008 -1.1259
  829SOL     OW 2485   2.754   2.501   3.036 -0.1394  0.2572  0.2739
  829SOL    HW1 2486   2.688   2.423   3.052  1.9160  0.4919  2.6009
  829SOL    HW2 2487   2.731   2.586   3.096 -0.5197  1.2067 -2.0062
  830SOL     OW 2488   2.842   0.942   2.990 -0.4163 -0.4401  1.0278
  830SOL    HW1 2489   2.918   1.010   3.011  1.3303  0.8785  1.2902
  830SOL    HW2 2490   2.837   0.863   3.061 -0.0173 -2.0848  3.6819
  831SOL     OW 2491   0.021   0.639   0.406 -0.6671  0.4738 -0.2034
  831SOL    HW1 2492   0.014   0.568   0.481 -0.2790 -1.0499  0.3550
  831SOL    HW2 2493   0.078   0.596   0.329  0.9664  0.2647  0.1580
  832SOL     OW 2494   1.792   0.744   2.991  0.4144  0.2343  0.1117
  832SOL    HW1 2495   1.693   0.777   2.970  1.0865 -1.5200 -2.3856
  832SOL    HW2 2496   1.796   0.643   3.018 -1.2888  0.3746 -1.4329
  833SOL     OW 2497   2.479   2.157   0.551  0.2285 -0.1291  0.0704
  833SOL    HW1 2498   2.403   2.225   0.528 -0.0253 -0.7476 -1.3616
  833SOL    HW2 2499   2.454   2.057   0.534  0.9557 -2.7217  1.2536
  834SOL     OW 2500   0.205   0.215   0.522  0.2440 -0.2064 -1.0215
  834SOL    HW1 2501   0.241   0.137   0.572 -4.6011  4.1203  2.5652
  834SOL    HW2 2502   0.173   0.195   0.426  0.5506 -1.0774 -1.9783
  835SOL     OW 2503   2.343   1.560   1.104 -0.5140  0.7750 -0.4443
  835SOL    HW1 2504   2.331   1.652   1.145 -1.5026 -1.2868 -0.9314
  835SOL    HW2 2505   2.418   1.549   1.028  0.4552 -1.3351  1.0124
  836SOL     OW 2506   1.600   0.834   2.567  0.1868  0.0374  0.1057
  836SOL    HW1 2507   1.500   0.843   2.573  1.2919  2.6766 -0.3155
  836SOL    HW2 2508   1.638   0.842   2.473  0.1417 -1.3549 -0.0217
  837SOL     OW 2509   1.710   0.123   0.551  0.0998  0.1649 -0.1846
  837SOL    HW1 2510   1.667   0.193   0.616 -1.5387  1.8760  1.8035
  837SOL    HW2 2511   1.650   0.103   0.469  0.1264  0.3150  0.2209
  838SOL     OW 2512   1.183   1.548   2.809 -0.6627 -0.2390  0.3206
  838SOL    HW1 2513   1.138   1.539   2.903 -0.8803  0.3733  0.5495
  838SOL    HW2 2514   1.134   1.497   2.732  0.3753 -0.0060 -1.4440
  839SOL     OW 2515   1.687   0.320   1.027  0.2348  0.2465  0.2565
  839SOL    HW1 2516   1.713   0.376   1.113 -1.3928  0.6042  2.1167
  839SOL    HW2 2517   1.635   0.234   1.051  0.0995 -0.8974  1.7969
  840SOL     OW 2518   2.506   2.972   1.748  0.1718 -0.3019 -0.0391
  840SOL    HW1 2519   2.462   2.935   1.667  2.2182  0.2729 -0.1125
  840SOL    HW2 2520   2.539   2.890   1.805 -0.4772 -0.4593  1.1785
  841SOL     OW 2521   1.535   0.830   2.957 -0.3290 -0.1275  0.1610
  841SOL    HW1 2522   1.500   0.865   3.042  0.2587 -1.2448 -0.8518
  841SOL    HW2 2523   1.551   0.903   2.889  0.2387  2.6348  1.0173
  842SOL     OW 2524   0.803   1.549   0.947 -0.7712 -0.0407  0.3624
  842SOL    HW1 2525   0.756   1.638   0.967  2.1533 -0.7206  0.5715
  842SOL    HW2 2526   0.738   1.467   0.944 -0.4559 -0.3361 -3.7901
  843SOL     OW 2527   0.054   0.038   1.377 -0.4350  0.2130  0.2378
  843SOL    HW1 2528   0.133   0.083   1.428 -0.1321  0.5856  1.0335
  843SOL    HW2 2529   0.027  -0.063   1.405 -0.4907 -0.5465 -0.8193
  844SOL     OW 2530   0.822   2.529   0.281 -0.4100  0.4796  0.4436
  844SOL    HW1 2531   0.774   2.496   0.369  1.3034 -0.5398  3.1363
  844SOL    HW2 2532   0.762   2.586   0.217  0.2677  2.8985 -2.3059
  845SOL     OW 2533   1.632   2.889   1.366  0.2956  0.5129 -0.5105
  845SOL    HW1 2534   1.708   2.925   1.430  3.0331 -4.0486  0.8421
  845SOL    HW2 2535   1.547   2.861   1.423  0.5618 -1.2587  0.3518
  846SOL     OW 2536   1.568   2.898   0.679  0.1651  0.1624 -0.0919
  846SOL    HW1 2537   1.606   2.834   0.606 -2.5188 -0.4090  0.8248
  846SOL    HW2 2538   1.634   2.927   0.752 -1.7946 -4.1064  0.1258
  847SOL     OW 2539   2.069   1.651   0.308 -0.4670  0.6026 -0.4023
  847SOL    HW1 2540   2.021   1.564   0.338  0.8439 -1.1210 -0.6482
  847SOL    HW2 2541   1.998   1.723   0.280  3.6857 -0.1796  3.1666
  848SOL     OW 2542   2.439   0.872   2.581  0.2057 -0.2060  0.1933
  848SOL    HW1 2543   2.402   0.936   2.658 -0.7823 -0.5140 -0.1115
  848SOL    HW2 2544   2.374   0.789   2.582 -0.5883 -0.3970 -3.2918
  849SOL     OW 2545   2.592   0.811   2.352  0.0169 -0.4746 -0.1620
  849SOL    HW1 2546   2.690   0.826   2.385 -0.7151  0.3326 -1.9574
  849SOL    HW2 2547   2.518   0.834   2.422 -0.5920  1.6499 -0.6645
  850SOL     OW 2548   1.557   0.095   1.340 -0.3564 -0.3376  0.2859
  850SOL    HW1 2549   1.561   0.072   1.238  1.8280  0.3854  1.2759
  850SOL    HW2 2550   1.486   0.027   1.373  1.1535  0.8528  0.6623
  851SOL     OW 2551   0.465   1.806   0.594 -0.3734 -0.1886  0.2292
  851SOL    HW1 2552   0.480   1.906   0.605  0.9945 -1.3473 -0.5789
  851SOL    HW2 2553   0.506   1.765   0.508 -2.2904 -1.6606 -0.8044
  852SOL     OW 2554   0.790   2.113   1.659 -0.3303  0.0673  0.1745
  852SOL    HW1 2555   0.787   2.199   1.607 -0.6723 -0.6378  3.0017
  852SOL    HW2 2556   0.711   2.108   1.724 -1.8844  3.4014 -1.6414
  853SOL     OW 2557   2.561   1.479   2.604  0.5713  0.1075 -0.1037
  853SOL    HW1 2558   2.496   1.397   2.592  0.5142 -3.1312  1.5566
  853SOL    HW2 2559   2.564   1.537   2.519  1.6672  0.5586 -1.0482
  854SOL     OW 2560   2.374   1.418   1.738  0.0858 -0.6262  0.1724
  854SOL    HW1 2561   2.434   1.413   1.649 -0.1323  0.7917 -3.4122
  854SOL    HW2 2562   2.309   1.339   1.736 -1.4746  1.2856 -2.3627
  855SOL     OW 2563   2.017   2.437   0.986 -0.0817 -0.2074  0.0458
  855SOL    HW1 2564   2.021   2.525   0.937  0.9174 -0.2542  0.4740
  855SOL    HW2 2565   2.092   2.406   1.049 -0.2493 -0.0646 -1.7568
  856SOL     OW 2566   1.347   1.498   0.938  0.4127  0.0590 -0.0182
  856SOL    HW1 2567   1.413   1.576   0.954  0.8474  2.7615 -0.8199
  856SOL    HW2 2568   1.254   1.517   0.976  1.9138 -1.4427 -1.4768
  857SOL     OW 2569   3.070   2.687   0.988 -0.6315  0.0132  1.1043
  857SOL    HW1 2570   3.027   2.619   0.924 -2.0738  1.3519 -3.7209
  857SOL    HW2 2571   3.174   2.694   0.982 -0.9022 -0.2034  3.2795
  858SOL     OW 2572   2.342   2.065   1.694  0.0389 -0.8304  0.0984
  858SOL    HW1 2573   2.252   2.023   1.653 -2.8525 -1.3079 -0.1078
  858SOL    HW2 2574   2.428   2.007   1.679 -0.0471  0.3576  0.4313
  859SOL     OW 2575   2.474   0.541   1.009  0.1284 -0.0558  0.0174
  859SOL    HW1 2576   2.548   0.598   0.969 -0.9751  0.6004  0.3635
  859SOL    HW2 2577   2.507   0.451   1.041 -1.7716  1.1224  0.4770
  860SOL     OW 2578   1.936   2.805   0.438 -0.0498  0.4428 -0.6313
  860SOL    HW1 2579   1.915   2.795   0.338  0.2682  1.7405  0.2335
  860SOL    HW2 2580   2.041   2.792   0.453  4.6725 -1.3659  3.2031
  861SOL     OW 2581   1.054   2.438   2.882  1.0423  0.4881 -0.0833
  861SOL    HW1 2582   1.052   2.531   2.838  1.3559 -0.7705  0.5605
  861SOL    HW2 2583   1.102   2.435   2.975  2.4103  0.3390 -1.9634
  862SOL     OW 2584   2.817   2.573   1.603  0.0913  0.2443 -0.0402
  862SOL    HW1 2585   2.899   2.589   1.665 -0.8684  1.4829  0.3602
  862SOL    HW2 2586   2.780   2.662   1.563  1.8855  1.0467  0.3560
  863SOL     OW 2587   1.847   2.745   0.182 -0.1244 -0.2218 -0.1378
  863SOL    HW1 2588   1.907   2.660   0.191 -1.6346  0.6161  1.8034
  863SOL    HW2 2589   1.747   2.717   0.168 -0.3524 -1.1760 -1.6509
  864SOL     OW 2590   1.913   1.192   2.870 -0.2814  0.0427  0.0682
  864SOL    HW1 2591   1.925   1.144   2.777  0.2449 -1.9114  1.0480
  864SOL    HW2 2592   1.977   1.154   2.945  2.8413  2.2285  0.8741
  865SOL     OW 2593   2.211   1.835   0.635  0.0565 -0.7694 -0.1326
  865SOL    HW1 2594   2.267   1.824   0.723  2.1999 -3.3221 -0.6078
  865SOL    HW2 2595   2.110   1.821   0.646  0.1432  2.0713  0.0233
  866SOL     OW 2596   2.877   2.913   1.027 -0.2358  0.2437  0.1202
  866SOL    HW1 2597   2.885   2.978   0.945  1.4314 -0.8213 -3.6558
  866SOL    HW2 2598   2.963   2.857   1.039  0.1003 -0.4305  0.8339
  867SOL     OW 2599   0.329   1.388   0.879 -0.7374 -0.3805  0.6682
  867SOL    HW1 2600   0.344   1.311   0.817 -0.0296  0.9615  2.0458
  867SOL    HW2 2601   0.274   1.466   0.833 -0.6465 -0.9481 -1.4420
  868SOL     OW 2602   0.778   1.891   1.998 -0.4744 -0.4686 -0.7557
  868SOL    HW1 2603   0.805   1.900   2.101 -0.0507  0.6373  0.3595
  868SOL    HW2 2604   0.737   1.975   1.957  1.5391  1.6386  1.2252
  869SOL     OW 2605   2.566   1.906   1.642  0.3721  0.1543 -0.3934
  869SOL    HW1 2606   2.639   1.975   1.620  0.2535 -1.9877  0.2563
  869SOL    HW2 2607   2.602   1.813   1.652 -3.2591 -0.9769 -2.1612
  870SOL     OW 2608   2.219   2.648   1.241 -0.1968 -1.0407 -0.1024
  870SOL    HW1 2609   2.227   2.552   1.242 -1.3881  2.9790  1.7170
  870SOL    HW2 2610   2.236   2.691   1.332 -0.9806 -0.9466  1.4865
  871SOL     OW 2611   3.036   2.205   0.515 -0.4085  0.0462 -0.2030
  871SOL    HW1 2612   3.015   2.272   0.589 -1.4952  0.7800 -1.3487
  871SOL    HW2 2613   2.975   2.228   0.434  0.4439  1.0355 -0.3703
  872SOL     OW 2614   2.116   0.537   1.696 -0.3968  0.0570 -0.3118
  872SOL    HW1 2615   2.060   0.504   1.777  0.1505  0.9194  1.4297
  872SOL    HW2 2616   2.210   0.488   1.684  0.2438  0.9296 -0.4253
  873SOL     OW 2617   1.708   2.124   3.069  0.8468 -0.1765  0.1370
  873SOL    HW1 2618   1.615   2.149   3.108  0.4147 -2.2809 -0.7695
  873SOL    HW2 2619   1.712   2.115   2.963  0.4234 -1.5723 -0.8068
  874SOL     OW 2620   0.680   2.468   0.763  0.3896 -0.0046  0.1956
  874SOL    HW1 2621   0.633   2.559   0.785 -3.0652  0.7763  1.1316
  874SOL    HW2 2622   0.774   2.465   0.807 -2.0120  1.7270  1.6327
  875SOL     OW 2623   2.341   1.474   1.405 -0.1344 -0.2810 -0.0270
  875SOL    HW1 2624   2.411   1.555   1.405 -0.4558  4.7655  1.7221
  875SOL    HW2 2625   2.309   1.448   1.315  0.3436  0.4738 -0.4726
  876SOL     OW 2626   0.060   2.261   2.750  0.4728 -0.3215  0.2298
  876SOL    HW1 2627   0.127   2.188   2.751 -0.8495  3.2246  0.1879
  876SOL    HW2 2628   0.085   2.340   2.812  0.7361 -2.2906  1.0488
  877SOL     OW 2629   2.903   2.669   0.562 -0.0191 -0.2785  0.2251
  877SOL    HW1 2630   2.888   2.768   0.590 -0.2163  1.6859  1.4427
  877SOL    HW2 2631   2.921   2.608   0.648  1.1247 -1.7181  1.0033
  878SOL     OW 2632   2.786   1.484   2.263 -0.5637  0.0587  0.0797
  878SOL    HW1 2633   2.756   1.573   2.222  2.5282 -2.1729  0.0040
  878SOL    HW2 2634   2.795   1.488   2.368  1.4828 -0.2579 -0.1794
  879SOL     OW 2635   2.405   0.120   1.244 -0.2608 -0.1792 -0.2808
  879SOL    HW1 2636   2.434   0.021   1.271 -1.1234 -2.8036 -1.8207
  879SOL    HW2 2637   2.336   0.123   1.166  1.6050  2.8206 -1.1806
  880SOL     OW 2638   0.764   0.477   2.226 -0.0231  0.2492 -0.4762
  880SOL    HW1 2639   0.729   0.433   2.317 -0.8360  0.1664  0.7220
  880SOL    HW2 2640   0.803   0.405   2.159  2.9337 -1.0267  2.3654
  881SOL     OW 2641   0.907   0.034   0.522 -0.0281 -0.3578 -0.0679
  881SOL    HW1 2642   0.940  -0.048   0.567  2.7596  3.2575  0.9608
  881SOL    HW2 2643   0.807   0.029   0.499  0.8591  0.7172 -0.2748
  882SOL     OW 2644   2.701   1.680   1.685 -0.1903  0.0855  0.0115
  882SOL    HW1 2645   2.788   1.669   1.633  0.2961  1.9894  2.5717
  882SOL    HW2 2646   2.726   1.675   1.790  1.4079  1.3695 -0.0679
  883SOL     OW 2647   0.899   0.512   0.933 -0.1281  0.2736  0.3054
  883SOL    HW1 2648   0.906   0.595   0.996  0.3237  0.8447  1.9284
  883SOL    HW2 2649   0.911   0.423   0.982  0.0640  0.3317 -1.2535
  884SOL     OW 2650   1.159   1.730   1.192  0.0299 -0.0004 -0.1521
  884SOL    HW1 2651   1.127   1.656   1.118  0.1148 -1.0167 -1.1622
  884SOL    HW2 2652   1.160   1.824   1.148  1.2910  2.1880  0.1352
  885SOL     OW 2653   2.330   1.775   2.286 -0.2752  0.1889 -0.2644
  885SOL    HW1 2654   2.258   1.725   2.338  5.0849 -2.8322  1.8918
  885SOL    HW2 2655   2.312   1.876   2.271  1.4552  1.2218 -1.7381
  886SOL     OW 2656   2.601   0.355   1.801  0.2561  0.6768  0.2329
  886SOL    HW1 2657   2.653   0.265   1.812  0.5856 -0.6423 -2.0409
  886SOL    HW2 2658   2.666   0.431   1.782 -0.9816 -0.2076  1.1159
  887SOL     OW 2659   0.103   1.960   1.348  0.0468  0.2337  0.0601
  887SOL    HW1 2660   0.094   1.896   1.267  0.7814  0.5979 -0.7858
  887SOL    HW2 2661   0.135   2.057   1.326 -1.1468  1.6111  0.3903
  888SOL     OW 2662   0.565   1.212   1.550  0.3983 -0.0759  0.0278
  888SOL    HW1 2663   0.607   1.257   1.466  0.5332  0.5477  0.1584
  888SOL    HW2 2664   0.518   1.127   1.529  0.2195  2.1444 -1.3989
  889SOL     OW 2665   0.822   2.484   2.198  0.2420 -0.1333  0.2404
  889SOL    HW1 2666   0.800   2.390   2.235 -0.7312 -3.1594 -1.9957
  889SOL    HW2 2667   0.887   2.487   2.120  1.8318  3.9093 -1.0361
  890SOL     OW 2668   2.424   2.418   0.235 -0.0333 -0.3509 -0.1437
  890SOL    HW1 2669   2.472   2.487   0.177  4.2656 -2.7924  1.0635
  890SOL    HW2 2670   2.345   2.465   0.285 -0.7890  0.7170 -2.2610
  891SOL     OW 2671   2.516   1.723   0.686  0.0310 -0.0624  0.2605
  891SOL    HW1 2672   2.539   1.667   0.776  0.4855  0.0478 -0.3948
  891SOL    HW2 2673   2.444   1.666   0.631  0.3980 -1.7509  0.7101
  892SOL     OW 2674   0.362   0.295   2.258 -0.1533  0.3048 -0.6096
  892SOL    HW1 2675   0.385   0.360   2.183  0.8769  0.8698  1.2316
  892SOL    HW2 2676   0.438   0.289   2.329 -1.5173 -0.6448  1.8301
  893SOL     OW 2677   1.673   0.261   2.718 -0.1210 -0.1474  0.5498
  893SOL    HW1 2678   1.758   0.319   2.735  0.5253  0.9464 -2.4645
  893SOL    HW2 2679   1.586   0.312   2.697  2.0406  2.0774 -0.9289
  894SOL     OW 2680   2.166   2.038   0.032 -0.5985 -0.2693 -0.2469
  894SOL    HW1 2681   2.123   1.997  -0.049  2.3769  0.9106  0.9264
  894SOL    HW2 2682   2.193   1.962   0.096 -1.8935 -0.7321 -0.5317
  895SOL     OW 2683   2.817   1.447   0.942  0.4979 -0.5789  0.4432
  895SOL    HW1 2684   2.904   1.395   0.973  1.0295  0.4158 -1.7836
  895SOL    HW2 2685   2.808   1.537   0.989 -0.4412  1.3403  0.1777
  896SOL     OW 2686   1.711   1.809   1.193  0.5300 -0.2869 -0.1413
  896SOL    HW1 2687   1.768   1.744   1.135 -0.2251  1.3486 -0.9878
  896SOL    HW2 2688   1.674   1.892   1.139  1.1623  1.9594  0.6401
  897SOL     OW 2689   0.316   0.553   3.057 -0.1786  0.0050 -0.0222
  897SOL    HW1 2690   0.271   0.593   2.973 -0.2463 -1.5751 -0.7413
  897SOL    HW2 2691   0.400   0.608   3.088 -0.7951 -2.7184  0.6278
  898SOL     OW 2692   0.561   2.874   1.073 -0.6411 -0.2278  0.1220
  898SOL    HW1 2693   0.557   2.978   1.070 -1.9664  1.5019  2.1263
  898SOL    HW2 2694   0.638   2.844   1.135  2.0280  0.6569  0.4286
  899SOL     OW 2695   2.836   0.905   1.291 -0.0316  0.5761 -0.8220
  899SOL    HW1 2696   2.739   0.901   1.247 -1.7239 -2.3851 -2.0206
  899SOL    HW2 2697   2.917   0.883   1.227  0.1228  0.1458 -1.8591
  900SOL     OW 2698   0.967   2.529   2.407  0.2826  0.4027 -0.7238
  900SOL    HW1 2699   0.923   2.528   2.307 -2.5845 -0.8256 -1.4517
  900SOL    HW2 2700   0.909   2.488   2.478  0.2068 -2.6145  1.0870
  901SOL     OW 2701   1.896   2.344   1.370 -0.2460 -0.1246  0.0030
  901SOL    HW1 2702   1.895   2.318   1.269  1.0899  0.0433  1.0240
  901SOL    HW2 2703   1.991   2.329   1.414 -1.0400  0.1061 -0.4165
  902SOL     OW 2704   2.565   1.643   1.430 -0.4883  0.6978  0.7934
  902SOL    HW1 2705   2.600   1.655   1.528  1.1186 -0.8659  0.6783
  902SOL    HW2 2706   2.641   1.628   1.362 -1.4648 -0.1399  0.3411
  903SOL     OW 2707   0.239   2.476   1.975  0.3632 -0.2874  0.7560
  903SOL    HW1 2708   0.146   2.435   1.944  0.0180 -0.9887 -0.8140
  903SOL    HW2 2709   0.271   2.565   1.927  0.7356  1.4888 -1.5998
  904SOL     OW 2710   2.035   0.791   2.562  0.4109  0.4082 -0.7335
  904SOL    HW1 2711   1.962   0.731   2.602 -1.0987 -3.2734 -2.2948
  904SOL    HW2 2712   2.035   0.778   2.458  0.0296 -1.1883 -0.6240
  905SOL     OW 2713   2.837   0.135   2.564 -0.5735 -0.1599  0.1564
  905SOL    HW1 2714   2.896   0.047   2.553 -0.8494 -2.7195 -1.0846
  905SOL    HW2 2715   2.893   0.221   2.543  0.7856  1.5991  0.7818
  906SOL     OW 2716   0.226   1.688   1.935 -0.0826 -0.0191 -0.2375
  906SOL    HW1 2717   0.146   1.730   1.882 -2.9528 -2.0540  1.0390
  906SOL    HW2 2718   0.317   1.736   1.913  3.1409 -3.6067  0.0422
  907SOL     OW 2719   0.263   2.436   1.032  0.1247 -0.1482  0.1819
  907SOL    HW1 2720   0.348   2.387   0.996 -0.6236 -0.4436 -1.2387
  907SOL    HW2 2721   0.238   2.514   0.970  2.3903  2.1711  1.2910
  908SOL     OW 2722   2.820   2.975   0.357 -0.0991 -0.2443 -0.3483
  908SOL    HW1 2723   2.730   3.011   0.320 -1.6088 -1.6895 -0.0816
  908SOL    HW2 2724   2.881   2.930   0.280 -1.3871  0.8343 -2.4024
  909SOL     OW 2725   0.834   1.048   2.655  0.0631  0.1854 -0.0113
  909SOL    HW1 2726   0.778   0.964   2.633  2.8525 -0.8426  1.6463
  909SOL    HW2 2727   0.889   1.085   2.576 -2.3224  0.5035  1.5373
  910SOL     OW 2728   1.784   1.908   2.181 -0.3661 -0.3306  0.0732
  910SOL    HW1 2729   1.818   1.906   2.085 -1.1635  1.5553 -2.2304
  910SOL    HW2 2730   1.707   1.976   2.193 -0.7011 -0.2720  1.1355
  911SOL     OW 2731   1.807   2.941   1.595 -0.0756  0.3043 -0.1582
  911SOL    HW1 2732   1.887   2.925   1.531 -0.0747  0.1592 -1.1732
  911SOL    HW2 2733   1.791   2.862   1.665  1.3332  0.8051 -0.2859
  912SOL     OW 2734   2.856   1.017   0.745 -0.1828 -0.1741 -0.2292
  912SOL    HW1 2735   2.882   1.011   0.846 -2.3297  1.6334  1.6871
  912SOL    HW2 2736   2.799   1.102   0.725  3.2057  1.1186  1.4276
  913SOL     OW 2737   2.549   1.282   1.531  0.5207 -0.1344 -0.4775
  913SOL    HW1 2738   2.578   1.182   1.524 -1.5901 -0.1041  0.3421
  913SOL    HW2 2739   2.603   1.338   1.458  0.2001  0.3307 -1.2732
  914SOL     OW 2740   2.788   0.586   1.196  0.0437 -0.0302  0.2702
  914SOL    HW1 2741   2.801   0.488   1.223  1.2585  0.9829 -0.4749
  914SOL    HW2 2742   2.696   0.623   1.209  0.8521  2.1101  1.0110
  915SOL     OW 2743   1.174   0.717   1.060  0.1206 -0.3254  0.4708
  915SOL    HW1 2744   1.223   0.777   1.130  3.4745  0.0132  1.0315
  915SOL    HW2 2745   1.067   0.735   1.071 -0.7538  0.7166 -2.0284
  916SOL     OW 2746   0.589   0.023   0.650 -0.2029 -0.1095 -0.3234
  916SOL    HW1 2747   0.644   0.094   0.706 -1.8302  0.3230  1.3016
  916SOL    HW2 2748   0.579   0.043   0.544  0.5753 -0.9890  1.0281
  917SOL     OW 2749   2.834   2.615   1.999  0.3262  0.0302 -0.4301
  917SOL    HW1 2750   2.738   2.634   1.958 -0.4484 -0.1741 -1.6916
  917SOL    HW2 2751   2.901   2.688   1.971  2.3268 -2.6457 -3.9806
  918SOL     OW 2752   1.014   2.103   3.035  0.0982  0.2432  0.1689
  918SOL    HW1 2753   1.002   2.182   3.100 -4.3634 -0.9813  3.2475
  918SOL    HW2 2754   1.062   2.119   2.946 -1.4040  0.3658 -1.2317
  919SOL     OW 2755   0.845   1.620   2.846  0.6517  0.2525  0.2254
  919SOL    HW1 2756   0.879   1.708   2.798 -1.0131  2.2865  0.1718
  919SOL    HW2 2757   0.774   1.570   2.786  0.8178 -2.0424 -1.6397
  920SOL     OW 2758   1.250   1.838   2.497 -0.0929 -0.1960 -0.4258
  920SOL    HW1 2759   1.311   1.786   2.431  0.0475  2.3848  1.0584
  920SOL    HW2 2760   1.185   1.773   2.540  0.0327  1.9150 -0.0543
  921SOL     OW 2761   1.046   0.034   2.619 -0.5948  0.2439 -0.0672
  921SOL    HW1 2762   1.019  -0.021   2.535  1.4192 -0.3669 -1.7580
  921SOL    HW2 2763   0.979   0.022   2.692  2.3392 -3.6325 -1.6833
  922SOL     OW 2764   2.201   2.368   2.784 -0.5335  0.3550 -0.5116
  922SOL    HW1 2765   2.217   2.265   2.768 -1.6191  0.3449  2.4073
  922SOL    HW2 2766   2.177   2.416   2.689  0.0858  3.1277 -1.5327
  923SOL     OW 2767   1.276   2.671   0.294 -0.5487  0.0961  0.1442
  923SOL    HW1 2768   1.356   2.742   0.313  1.2121  0.5876 -0.3559
  923SOL    HW2 2769   1.311   2.569   0.280 -0.6418 -0.4439  0.9378
  924SOL     OW 2770   2.839   1.622   0.161  0.1474 -1.0978  0.7839
  924SOL    HW1 2771   2.761   1.626   0.090 -0.0633 -0.3521  0.4820
  924SOL    HW2 2772   2.922   1.572   0.124  0.5726 -0.1624  0.9066
  925SOL     OW 2773   0.014   2.879   1.481  0.3938 -0.0158  0.6368
  925SOL    HW1 2774  -0.049   2.852   1.557 -1.4293 -1.5924 -0.4100
  925SOL    HW2 2775   0.019   2.807   1.406 -1.7796 -2.3214 -1.1724
  926SOL     OW 2776   1.281   2.788   1.308  0.1481 -0.1955 -0.4887
  926SOL    HW1 2777   1.334   2.808   1.218 -1.3450  1.3044 -1.6754
  926SOL    HW2 2778   1.276   2.868   1.375  2.9863  1.0256 -2.7183
  927SOL     OW 2779   0.316   2.667   1.783 -0.0214  0.1556 -0.2303
  927SOL    HW1 2780   0.292   2.587   1.719  2.2567 -0.2822 -2.0231
  927SOL    HW2 2781   0.280   2.761   1.746 -0.3250  0.0635 -2.1279
  928SOL     OW 2782   1.572   2.055   2.251 -0.3121 -0.0468  0.3101
  928SOL    HW1 2783   1.605   2.149   2.222  1.6819  0.3648  0.3992
  928SOL    HW2 2784   1.469   2.062   2.253  2.7893 -1.6776 -0.5914
  929SOL     OW 2785   2.404   2.528   2.863 -0.6391  0.2867  0.4511
  929SOL    HW1 2786   2.324   2.462   2.862 -0.3744 -2.2065  1.4992
  929SOL    HW2 2787   2.449   2.536   2.772  0.2971 -0.5259 -1.0017
  930SOL     OW 2788   2.180   2.026   1.077  0.5462 -0.2349  0.4248
  930SOL    HW1 2789   2.162   1.955   1.152 -0.8951 -0.0498  1.1051
  930SOL    HW2 2790   2.252   2.095   1.101 -4.8001  0.0733 -2.5883
  931SOL     OW 2791   0.527   1.711   2.712  0.0276  0.4068  0.1765
  931SOL    HW1 2792   0.546   1.740   2.815 -0.4437  2.3073  1.7971
  931SOL    HW2 2793   0.574   1.624   2.676  0.0230 -2.2531  1.4232
  932SOL     OW 2794   0.478   0.142   3.043  0.2442  0.0030 -0.3367
  932SOL    HW1 2795   0.570   0.195   3.054  1.7438 -0.7211 -1.5132
  932SOL    HW2 2796   0.497   0.045   3.045  0.7698  2.3043 -0.1139
  933SOL     OW 2797   0.981   0.800   0.003  0.3566  0.1756  0.4047
  933SOL    HW1 2798   0.951   0.821   0.102  0.2827  0.4594  1.8121
  933SOL    HW2 2799   0.992   0.885  -0.057 -0.4991 -2.9584 -0.7779
  934SOL     OW 2800   0.785   2.947   2.682 -0.1520  0.2149 -0.1139
  934SOL    HW1 2801   0.787   2.893   2.592  0.1064  1.8294 -1.1567
  934SOL    HW2 2802   0.844   2.897   2.750  0.3674  0.4930  0.3706
  935SOL     OW 2803   0.033   0.546   0.844  0.1368  0.4611  0.2015
  935SOL    HW1 2804   0.024   0.529   0.745 -0.6373 -0.2591  1.1991
  935SOL    HW2 2805  -0.054   0.592   0.882 -2.4886  1.9120  2.0464
  936SOL     OW 2806   1.127   2.769   0.071 -0.3129 -0.2240  0.1682
  936SOL    HW1 2807   1.197   2.835   0.026  2.8583  0.6279  0.3724
  936SOL    HW2 2808   1.167   2.736   0.160  0.4111 -0.9058 -1.1865
  937SOL     OW 2809   1.874   2.660   2.102  1.3928 -0.1579  0.3808
  937SOL    HW1 2810   1.773   2.691   2.095 -1.3487  2.5868 -0.9481
  937SOL    HW2 2811   1.927   2.737   2.059  0.1687 -0.2242 -0.3349
  938SOL     OW 2812   2.767   2.089   1.606  0.2448  0.2385  0.0192
  938SOL    HW1 2813   2.735   2.187   1.622  0.4549 -0.7544 -0.4476
  938SOL    HW2 2814   2.858   2.067   1.647 -0.4049  1.7439  1.8238
  939SOL     OW 2815   2.859   1.201   2.439  0.5335  0.4454  0.4776
  939SOL    HW1 2816   2.947   1.171   2.387 -1.4349  1.5520 -2.1751
  939SOL    HW2 2817   2.846   1.161   2.537 -0.6984  0.1856  0.3262
  940SOL     OW 2818   1.045   0.419   2.749 -0.2421 -0.2978  0.1311
  940SOL    HW1 2819   1.124   0.354   2.726 -0.4162  0.5033 -1.9312
  940SOL    HW2 2820   0.961   0.383   2.700  1.3858  3.0760 -0.7269
  941SOL     OW 2821   0.039   2.781   2.256  0.5757  0.0405  0.3046
  941SOL    HW1 2822   0.089   2.686   2.235  0.6467 -2.2455  0.8945
  941SOL    HW2 2823   0.103   2.843   2.308  0.8517 -0.6677  0.0899
  942SOL     OW 2824   0.128   0.051   2.577  0.4117  0.2710 -0.1820
  942SOL    HW1 2825   0.171   0.087   2.661  1.2602 -1.6009 -0.3707
  942SOL    HW2 2826   0.121   0.129   2.512  2.0644  1.0454  0.9771
  943SOL     OW 2827   2.091   1.643   2.396  0.0544  0.0278 -0.0529
  943SOL    HW1 2828   2.079   1.610   2.301 -1.9567 -1.3738  3.1367
  943SOL    HW2 2829   2.108   1.566   2.457 -0.6773 -0.6688 -0.9594
  944SOL     OW 2830   2.167   2.328   1.448  0.3320 -0.0971 -0.1021
  944SOL    HW1 2831   2.250   2.383   1.476  0.6383 -0.9326  0.6348
  944SOL    HW2 2832   2.155   2.257   1.523 -2.2686 -3.6660  0.0020
  945SOL     OW 2833   0.677   1.504   0.199  0.0655 -0.0354  0.5887
  945SOL    HW1 2834   0.604   1.532   0.133 -0.1229  0.1693 -0.1290
  945SOL    HW2 2835   0.702   1.405   0.193  2.6851  1.7674  1.4738
  946SOL     OW 2836   0.437   0.940   2.476  0.1692 -0.2508 -0.2407
  946SOL    HW1 2837   0.354   0.878   2.461 -1.2536 -3.2713 -1.4043
  946SOL    HW2 2838   0.409   1.030   2.523 -0.0621  1.1458 -0.3798
  947SOL     OW 2839   1.528   0.515   3.075  0.5112  0.6489  0.3304
  947SOL    HW1 2840   1.496   0.546   2.977  0.2487  0.5918  0.5121
  947SOL    HW2 2841   1.452   0.459   3.114  3.0414  1.1051 -1.7988
  948SOL     OW 2842   1.829   3.012   2.118  0.0099 -0.0739  0.1924
  948SOL    HW1 2843   1.872   2.954   2.039 -0.4047  2.8439  1.3905
  948SOL    HW2 2844   1.846   2.964   2.207 -0.8746 -0.0212  0.2720
  949SOL     OW 2845   0.619   2.491   0.494 -0.3573 -0.5187 -0.2095
  949SOL    HW1 2846   0.629   2.593   0.496 -2.4748 -2.0233  3.6667
  949SOL    HW2 2847   0.649   2.455   0.587  1.3155  1.7054 -0.9174
  950SOL     OW 2848   0.206   2.247   3.028 -0.2131  0.2044  0.7431
  950SOL    HW1 2849   0.172   2.338   2.992 -2.7954 -3.2053  1.1177
  950SOL    HW2 2850   0.208   2.174   2.954  1.4165  0.2113 -1.5181
  951SOL     OW 2851   1.212   2.692   2.793 -0.6157  0.4453  0.2131
  951SOL    HW1 2852   1.269   2.646   2.864  0.6815 -3.1830 -1.5919
  951SOL    HW2 2853   1.270   2.746   2.731 -2.2847 -2.0700 -0.2520
  952SOL     OW 2854   0.031   1.654   0.396 -0.3217  0.5049 -0.2267
  952SOL    HW1 2855   0.074   1.741   0.375 -4.7961 -2.7052  2.5677
  952SOL    HW2 2856   0.075   1.587   0.465 -1.8098  1.1533 -0.1403
  953SOL     OW 2857   2.529   1.797   0.226  0.2212  0.8886 -0.4558
  953SOL    HW1 2858   2.485   1.702   0.233  2.6837 -0.6852  0.8094
  953SOL    HW2 2859   2.501   1.843   0.134  1.3269  2.5620  1.9609
  954SOL     OW 2860   2.229   0.535   0.892  0.2521 -0.0918  0.3572
  954SOL    HW1 2861   2.219   0.567   0.793 -0.6958  1.3342 -1.5499
  954SOL    HW2 2862   2.329   0.544   0.923  2.3765  0.7652 -1.3215
  955SOL     OW 2863   0.169   2.598   1.340  0.4076  0.1560 -0.7492
  955SOL    HW1 2864   0.071   2.616   1.305 -2.2712 -1.0837 -0.3161
  955SOL    HW2 2865   0.237   2.640   1.279 -1.2047 -0.4832  1.0600
  956SOL     OW 2866   2.844   2.448   2.499  0.0726  0.1628  0.6108
  956SOL    HW1 2867   2.880   2.352   2.468  0.3250 -0.5015  3.1270
  956SOL    HW2 2868   2.852   2.518   2.423  0.0103  0.4665  1.3265
  957SOL     OW 2869   1.688   2.050   2.780 -0.1000 -0.3889 -0.4278
  957SOL    HW1 2870   1.607   1.987   2.774 -0.7543  2.7026  0.9213
  957SOL    HW2 2871   1.721   2.067   2.684  0.1064  1.1507 -2.6402
  958SOL     OW 2872   2.554   2.287   3.002 -0.2771 -0.0618  0.4769
  958SOL    HW1 2873   2.525   2.366   2.938 -1.8614 -1.0743 -0.4280
  958SOL    HW2 2874   2.475   2.261   3.066 -1.2870  1.5234 -1.9555
  959SOL     OW 2875   0.272   2.811   0.034 -0.4169 -0.1543  0.3649
  959SOL    HW1 2876   0.179   2.773   0.015 -0.2597  0.6381  1.0847
  959SOL    HW2 2877   0.320   2.753   0.104 -0.4574  1.8813 -0.5181
  960SOL     OW 2878   1.953   0.473   1.933  0.4871 -0.0511  0.0122
  960SOL    HW1 2879   1.881   0.544   1.913  0.3945  3.5579  2.3790
  960SOL    HW2 2880   1.989   0.476   2.033  1.9199  0.0024 -0.6443
  961SOL     OW 2881   2.576   1.864   1.008 -0.1843  0.1944 -0.4478
  961SOL    HW1 2882   2.593   1.959   0.961 -1.2086  0.9306 -3.3888
  961SOL    HW2 2883   2.533   1.865   1.105  1.5508  1.7716  0.0341
  962SOL     OW 2884   1.313   0.922   0.036  0.2186  0.1677 -0.0768
  962SOL    HW1 2885   1.257   0.929  -0.049  0.3006 -3.0006  0.4010
  962SOL    HW2 2886   1.317   1.004   0.101 -1.0877  1.8137  0.4106
  963SOL     OW 2887   2.252   2.577   1.785 -1.1041 -0.0310  0.4901
  963SOL    HW1 2888   2.200   2.497   1.823  0.7059  1.0346 -1.3351
  963SOL    HW2 2889   2.283   2.647   1.859 -1.2968 -1.4983 -0.8470
  964SOL     OW 2890   2.362   0.412   1.672 -0.0732 -0.3110 -0.1024
  964SOL    HW1 2891   2.464   0.401   1.709  1.0598 -2.8130 -0.9057
  964SOL    HW2 2892   2.349   0.365   1.582  0.1343 -1.4059  1.0104
  965SOL     OW 2893   2.622   3.009   0.134  0.5220  1.0512 -0.1657
  965SOL    HW1 2894   2.682   3.014   0.046  1.5050 -0.2909 -0.8821
  965SOL    HW2 2895   2.533   3.060   0.127  0.0295  0.5410  2.3321
  966SOL     OW 2896   2.595   2.562   2.247  0.4237  0.3501 -0.8762
  966SOL    HW1 2897   2.689   2.601   2.232  1.4524 -1.7333 -1.5642
  966SOL    HW2 2898   2.524   2.617   2.195  0.5830 -0.4152 -1.2479
  967SOL     OW 2899   2.774   2.831   2.489 -0.6484 -0.1098 -0.1046
  967SOL    HW1 2900   2.803   2.744   2.437 -1.4601  0.5739 -1.4583
  967SOL    HW2 2901   2.853   2.898   2.503  0.2184  0.5091 -0.2703
  968SOL     OW 2902   1.909   1.063   2.611 -0.3657 -0.4197 -0.1987
  968SOL    HW1 2903   1.844   1.122   2.556 -0.0332  1.3719  1.2677
  968SOL    HW2 2904   1.930   0.974   2.576 -1.0954  3.6998  1.3624
  969SOL     OW 2905   2.819   2.518   1.101  1.1659 -0.2692 -0.2965
  969SOL    HW1 2906   2.783   2.498   1.002 -0.0553  1.3461 -2.0736
  969SOL    HW2 2907   2.846   2.434   1.151  0.0684  0.4382 -0.1213
  970SOL     OW 2908   1.028   2.095   1.790 -0.3485  0.0674 -0.1709
  970SOL    HW1 2909   0.937   2.082   1.739 -1.3396  0.0652 -0.4559
  970SOL    HW2 2910   1.021   2.152   1.878  1.7703 -1.5316  1.2465
  971SOL     OW 2911   2.938   2.064   1.991 -0.8955  0.3322 -0.8788
  971SOL    HW1 2912   2.912   2.169   2.002  2.0716  1.6388  1.5329
  971SOL    HW2 2913   2.970   2.045   1.891  0.3103 -1.7648 -2.0330
  972SOL     OW 2914   1.970   2.481   0.236  0.2132 -0.0958  0.1275
  972SOL    HW1 2915   1.962   2.399   0.167 -0.9682 -0.4116  2.4845
  972SOL    HW2 2916   1.987   2.441   0.328  1.2610 -0.9492  0.3424
  973SOL     OW 2917   1.262   1.051   1.901  0.0688  0.0091 -0.4271
  973SOL    HW1 2918   1.197   1.034   1.820 -0.1957 -1.8424 -0.2542
  973SOL    HW2 2919   1.239   1.137   1.953 -0.9027 -1.2859  0.3459
  974SOL     OW 2920   1.601   0.561   1.972  0.2080 -0.6929 -0.0307
  974SOL    HW1 2921   1.692   0.605   1.950  0.8823  1.3563  1.0418
  974SOL    HW2 2922   1.515   0.624   1.975 -1.0181  1.2677  0.4015
  975SOL     OW 2923   2.365   3.056   0.036 -0.3778 -0.1317  0.2933
  975SOL    HW1 2924   2.302   2.973   0.052 -0.1129 -0.8815  2.4304
  975SOL    HW2 2925   2.378   3.086  -0.062  0.3529  0.5511  0.7387
  976SOL     OW 2926   1.906   2.860   2.336  0.3954 -0.0147 -0.0072
  976SOL    HW1 2927   1.839   2.780   2.323 -2.7292 -1.3918  1.1293
  976SOL    HW2 2928   1.937   2.870   2.434 -0.5060  2.5726 -1.7349
  977SOL     OW 2929   0.473   0.669   1.054 -0.1399 -0.3543 -0.3545
  977SOL    HW1 2930   0.418   0.683   0.966 -0.5681  2.1209 -4.1220
  977SOL    HW2 2931   0.567   0.712   1.063  2.9189 -0.6855 -1.1503
   3.10000   3.10000   3.10000
