1000 SPC/Fw water molecules t=   0.27000 step= 270
 2931
    1SOL     OW    1   2.553   0.310   2.533  0.0950 -0.1868  0.4504
    1SOL    HW1    2   2.585   0.209   2.534 -2.4315 -0.1494 -1.0881
    1SOL    HW2    3   2.538   0.350   2.627 -0.5264 -0.8088 -0.7036
    2SOL     OW    4   2.717   3.009   1.399  0.5776  0.1393 -0.2639
    2SOL    HW1    5   2.806   3.020   1.356 -2.4124 -1.1191  0.4165
    2SOL    HW2    6   2.679   3.102   1.424  0.2911 -0.4931  0.3642
    3SOL     OW    7   2.715   2.587   0.429 -0.8679 -0.0441  0.1273
    3SOL    HW1    8   2.705   2.483   0.424  1.0520 -0.5610  1.2003
    3SOL    HW2    9   2.793   2.608   0.498 -1.1933  1.9385  1.2321
    4SOL     OW   10   1.336   1.491   2.390 -0.0234  0.3899  0.3513
    4SOL    HW1   11   1.237   1.515   2.409 -1.4909 -0.2999 -0.4284
    4SOL    HW2   12   1.364   1.400   2.436 -1.1381 -0.7434 -2.9021
    5SOL     OW   13   1.224   1.491   3.025  0.4640 -0.2205 -0.4092
    5SOL    HW1   14   1.275   1.542   3.101  0.1025  0.7410  0.1027
    5SOL    HW2   15   1.121   1.509   3.022 -1.2553  1.2641 -1.0433
    6SOL     OW   16   0.038   1.828   2.935 -0.7400 -0.3999 -0.4784
    6SOL    HW1   17   0.016   1.876   3.021 -0.2352  0.1491  1.3160
    6SOL    HW2   18   0.044   1.729   2.957 -0.1888 -0.0583  0.3818
    7SOL     OW   19   2.595   0.819   1.156 -0.7230  0.9773 -0.0226
    7SOL    HW1   20   2.500   0.816   1.184  1.7361 -0.1301  0.0313
    7SOL    HW2   21   2.602   0.836   1.055 -1.2173  0.9582 -1.3668
    8SOL     OW   22   0.460   0.672   1.570 -0.0473 -0.1426  0.5343
    8SOL    HW1   23   0.544   0.608   1.582  2.0413 -0.1245  1.0015
    8SOL    HW2   24   0.404   0.648   1.487 -1.6778 -0.4748  0.0142
    9SOL     OW   25   1.191   0.973   2.277 -0.0426  0.0745 -0.1540
    9SOL    HW1   26   1.233   1.052   2.228  2.1702 -0.2250  0.7756
    9SOL    HW2   27   1.130   0.921   2.208  1.9080  0.8455  0.9775
   10SOL     OW   28   0.685   1.332   1.249  0.0648 -0.7647 -0.3271
   10SOL    HW1   29   0.593   1.360   1.212  2.1902 -1.0654 -0.6292
   10SOL    HW2   30   0.745   1.416   1.248  0.6770  3.4122  0.1051
   11SOL     OW   31   2.351   2.589   0.939  0.2425  0.2557 -0.1050
   11SOL    HW1   32   2.339   2.610   1.041  0.2088 -1.0764  1.6262
   11SOL    HW2   33   2.435   2.534   0.929 -2.3610  2.3107  0.5120
   12SOL     OW   34   1.459   0.892   0.445 -0.2385 -0.0117 -0.6953
   12SOL    HW1   35   1.396   0.943   0.381  0.2814 -0.9538 -1.0272
   12SOL    HW2   36   1.476   0.795   0.415  0.1187 -0.9259  3.1584
   13SOL     OW   37   2.522   0.649   1.830  0.3405 -0.3077  0.1244
   13SOL    HW1   38   2.423   0.667   1.855  1.8347  1.0844  0.2824
   13SOL    HW2   39   2.538   0.552   1.797  0.7961 -0.1402 -0.2400
   14SOL     OW   40   1.902   3.089   0.587  0.9413  0.1740  0.4081
   14SOL    HW1   41   1.820   3.141   0.553  0.1761  0.4596 -2.7793
   14SOL    HW2   42   1.882   3.031   0.672 -0.3580  0.3984  1.5377
   15SOL     OW   43   1.963   2.037   2.871  0.2101  0.2636 -0.1249
   15SOL    HW1   44   1.901   2.115   2.892 -0.7839 -2.5623  2.3856
   15SOL    HW2   45   1.931   1.980   2.789  0.0065 -1.5863  0.0514
   16SOL     OW   46   1.614   1.689   0.045  0.7528  0.0451 -0.3845
   16SOL    HW1   47   1.613   1.584   0.042 -0.4416  0.2679  1.2563
   16SOL    HW2   48   1.709   1.731   0.037  1.3044 -0.4225 -0.4667
   17SOL     OW   49   0.134   0.425   0.159  0.1509 -0.0028  0.0169
   17SOL    HW1   50   0.207   0.454   0.091  0.7773 -2.6864 -0.5733
   17SOL    HW2   51   0.037   0.422   0.120 -1.2285 -2.6054  2.2319
   18SOL     OW   52   1.048   2.910   2.196 -0.8426  0.5400  0.4445
   18SOL    HW1   53   0.960   2.862   2.162 -2.2529 -0.0459  0.2736
   18SOL    HW2   54   1.129   2.887   2.144 -1.5299 -1.4273  3.5485
   19SOL     OW   55   0.482   0.951   1.943 -0.4477 -0.6150  0.0781
   19SOL    HW1   56   0.451   1.015   2.020  0.5846 -0.1066 -0.0029
   19SOL    HW2   57   0.581   0.916   1.955  0.6615  0.1077  1.1087
   20SOL     OW   58   0.230   2.791   0.884 -0.2628  0.0365  0.0591
   20SOL    HW1   59   0.139   2.828   0.846 -0.1657  0.0835 -0.8277
   20SOL    HW2   60   0.298   2.774   0.802  2.1749  1.3794 -1.5866
   21SOL     OW   61   2.791   0.171   2.139 -0.2325 -0.0648 -0.0745
   21SOL    HW1   62   2.736   0.099   2.083 -1.6588  0.8795 -0.2953
   21SOL    HW2   63   2.811   0.136   2.238  0.0697 -0.4308  1.1466
   22SOL     OW   64   2.321   0.190   3.087 -0.2057 -0.1589 -0.5689
   22SOL    HW1   65   2.327   0.085   3.077  0.9982  2.7961 -0.5024
   22SOL    HW2   66   2.225   0.219   3.111  1.3804 -0.8777  0.5049
   23SOL     OW   67   2.770   0.647   0.679  0.1348  0.3231 -0.0307
   23SOL    HW1   68   2.761   0.559   0.619 -1.9741  1.0875 -1.6857
   23SOL    HW2   69   2.731   0.723   0.624  0.1904  0.4307 -1.0396
   24SOL     OW   70   0.185   1.896   0.467  0.3015  0.6668 -0.0288
   24SOL    HW1   71   0.088   1.913   0.441  2.7451  3.0985  0.5823
   24SOL    HW2   72   0.251   1.905   0.390 -3.1431  1.3074 -1.8116
   25SOL     OW   73   2.258   0.500   0.189 -0.0972 -0.3338  0.0526
   25SOL    HW1   74   2.332   0.435   0.218  0.1639 -0.6870  1.6164
   25SOL    HW2   75   2.246   0.488   0.082  1.2967 -0.1791 -3.9830
   26SOL     OW   76   2.525   2.180   2.105 -0.0506 -0.0611 -0.0195
   26SOL    HW1   77   2.614   2.218   2.147  0.0019 -0.0741  0.6957
   26SOL    HW2   78   2.540   2.089   2.057 -1.3875  2.4474 -2.0043
   27SOL     OW   79   0.670   2.968   0.093  0.4033 -0.1391 -0.1936
   27SOL    HW1   80   0.768   3.007   0.101  0.6467 -2.1085 -2.3927
   27SOL    HW2   81   0.640   2.970  -0.005  1.4443  2.2363  0.0805
   28SOL     OW   82   1.553   0.187   0.244  0.7688 -0.5115  0.7270
   28SOL    HW1   83   1.628   0.149   0.180  1.0437  0.9580 -0.6974
   28SOL    HW2   84   1.580   0.270   0.290 -0.3250 -0.0673 -1.7367
   29SOL     OW   85   2.025   0.632   0.256 -0.0067 -0.5749  0.5569
   29SOL    HW1   86   2.037   0.707   0.327  0.0178 -3.8637 -0.3705
   29SOL    HW2   87   2.110   0.576   0.237 -0.1771 -1.8341 -0.4242
   30SOL     OW   88   0.178   2.058   0.936 -0.8194 -0.0929  0.5596
   30SOL    HW1   89   0.153   2.067   0.832 -2.5445 -0.8174 -1.5734
   30SOL    HW2   90   0.091   2.091   0.989 -0.6032  1.0814  2.7295
   31SOL     OW   91   2.088   0.038   2.307  0.9535 -0.2467 -0.7292
   31SOL    HW1   92   2.107   0.011   2.407 -1.0554 -0.5772  0.4788
   31SOL    HW2   93   2.009  -0.019   2.272  0.5120 -0.2876 -1.0202
   32SOL     OW   94   2.915   0.128   0.140 -0.2007  0.1511 -0.5818
   32SOL    HW1   95   2.883   0.055   0.209 -1.9798  1.3453  0.4655
   32SOL    HW2   96   3.012   0.168   0.162 -1.5435  1.8684  1.3918
   33SOL     OW   97   0.955   0.324   0.438  0.1857  0.5964  0.1994
   33SOL    HW1   98   0.908   0.234   0.433  2.1180  4.3958  1.9068
   33SOL    HW2   99   1.029   0.339   0.513  0.6339  1.7636  2.4916
   34SOL     OW  100   0.418   2.893   1.055  0.1736 -0.3861  0.1375
   34SOL    HW1  101   0.344   2.846   0.997 -1.0985 -0.6994  1.0598
   34SOL    HW2  102   0.517   2.887   1.026  0.8046 -0.0130 -0.8552
   35SOL     OW  103   0.044   0.025   1.826 -0.7675  0.1971  0.0194
   35SOL    HW1  104   0.029  -0.075   1.845  1.7114  1.5403  0.6634
   35SOL    HW2  105   0.004   0.052   1.735  1.8638 -0.8461  2.7203
   36SOL     OW  106   1.930   1.167   1.830  0.6761  0.1095 -0.4881
   36SOL    HW1  107   2.001   1.130   1.764 -0.7950 -1.3671  1.7690
   36SOL    HW2  108   1.946   1.262   1.868 -2.1714 -2.9496  0.5127
   37SOL     OW  109   1.149   0.277   0.954  0.3479 -0.6757 -0.3319
   37SOL    HW1  110   1.164   0.346   1.031  2.0087  1.2871  0.2880
   37SOL    HW2  111   1.198   0.188   0.975  0.6918 -0.1588 -1.5247
   38SOL     OW  112   1.124   2.687   2.397 -0.2648 -0.3433 -0.1745
   38SOL    HW1  113   1.083   2.601   2.431  1.2235 -1.3103  0.3366
   38SOL    HW2  114   1.045   2.759   2.385 -1.1826 -1.3209 -3.1109
   39SOL     OW  115   2.335   1.437   3.025 -0.2879 -0.2260 -0.5584
   39SOL    HW1  116   2.412   1.361   3.033  1.5622 -1.7230 -0.1123
   39SOL    HW2  117   2.280   1.448   3.117  0.8490  1.7188 -0.6499
   40SOL     OW  118   2.086   2.544   2.550  0.0121  0.7858 -0.5883
   40SOL    HW1  119   2.075   2.650   2.555  3.4841 -0.0828  0.9852
   40SOL    HW2  120   2.005   2.494   2.498  0.9006 -0.7812  0.3168
   41SOL     OW  121   2.931   0.710   2.745 -0.3591  0.5403 -0.5110
   41SOL    HW1  122   2.834   0.716   2.783 -0.8603 -0.9221  2.5850
   41SOL    HW2  123   2.954   0.613   2.709  0.0084 -2.1646 -3.3769
   42SOL     OW  124   1.797   1.746   0.598 -0.1999 -0.3299  0.4659
   42SOL    HW1  125   1.732   1.671   0.559  1.1137 -1.1151  0.2267
   42SOL    HW2  126   1.852   1.790   0.519  2.9015  2.1064 -0.3675
   43SOL     OW  127   0.495   1.716   1.217 -0.5958 -0.4595  1.0179
   43SOL    HW1  128   0.476   1.667   1.303 -2.6504  2.3549 -0.2861
   43SOL    HW2  129   0.411   1.719   1.155 -1.3510 -0.6096  0.4138
   44SOL     OW  130   1.735   2.512   0.025  0.4960  0.3661 -0.0724
   44SOL    HW1  131   1.785   2.567  -0.050 -1.8766  1.3282 -2.4422
   44SOL    HW2  132   1.793   2.492   0.108  0.8438  0.4358  2.0723
   45SOL     OW  133   0.361   1.943   2.545 -0.4820  0.4911  0.8779
   45SOL    HW1  134   0.281   1.944   2.480  0.7727  0.5933  0.4795
   45SOL    HW2  135   0.388   1.847   2.574  0.3366  1.5827 -1.4145
   46SOL     OW  136   1.163   0.630   0.177 -0.1008  0.4391  0.2720
   46SOL    HW1  137   1.212   0.707   0.127  0.6599  0.5139  0.8624
   46SOL    HW2  138   1.060   0.632   0.176 -0.3335 -0.4713  2.9376
   47SOL     OW  139   0.249   2.443   1.608  0.3018 -0.2539 -0.0427
   47SOL    HW1  140   0.324   2.366   1.596  1.5304 -2.1206 -0.8190
   47SOL    HW2  141   0.214   2.477   1.521 -1.3432 -2.5391  2.3796
   48SOL     OW  142   2.564   0.572   0.165  0.0709  0.4141  0.4195
   48SOL    HW1  143   2.541   0.586   0.262 -1.4360 -2.0706 -5.7016
   48SOL    HW2  144   2.624   0.650   0.133  1.7900 -0.2133  0.9006
   49SOL     OW  145   0.351   0.860   1.725  0.1182 -0.7494  0.6953
   49SOL    HW1  146   0.422   0.886   1.799 -0.6318  0.4129 -1.0943
   49SOL    HW2  147   0.380   0.778   1.669  1.4722  0.9163 -1.8052
   50SOL     OW  148   1.725   1.094   0.352 -0.3071  0.1468 -0.1896
   50SOL    HW1  149   1.731   0.990   0.333 -2.3346  0.0508  0.4639
   50SOL    HW2  150   1.680   1.114   0.450 -2.6789  0.6339  2.3061
   51SOL     OW  151   3.033   1.897   0.378  0.0028 -0.0575 -0.3974
   51SOL    HW1  152   3.051   1.926   0.279  0.6675  0.1647  0.7565
   51SOL    HW2  153   3.000   1.800   0.381  1.6156 -0.5366 -2.2342
   52SOL     OW  154   0.800   1.993   0.496 -0.8686  0.6967 -0.2069
   52SOL    HW1  155   0.724   2.047   0.539  1.1912 -0.4958  0.1112
   52SOL    HW2  156   0.828   1.910   0.556 -0.6828  0.3130  1.3480
   53SOL     OW  157   3.074   0.362   1.540  1.1203  0.2696  0.1231
   53SOL    HW1  158   2.983   0.361   1.600 -2.5543  1.9536 -1.2232
   53SOL    HW2  159   3.087   0.451   1.489  1.4534 -0.1442 -0.9031
   54SOL     OW  160   1.728   0.451   3.024  0.1385 -0.2966  0.7089
   54SOL    HW1  161   1.776   0.438   3.117 -0.0517  0.0242 -2.6765
   54SOL    HW2  162   1.629   0.481   3.036  1.0523 -0.6298  0.6740
   55SOL     OW  163   0.712   2.941   0.623 -0.1408  0.2708  0.0317
   55SOL    HW1  164   0.672   3.037   0.612  0.9335  0.0297 -0.2773
   55SOL    HW2  165   0.808   2.950   0.580  1.1672  0.8628 -1.7563
   56SOL     OW  166   0.479   1.550   3.058 -0.3558 -0.3790 -0.5078
   56SOL    HW1  167   0.415   1.613   3.112 -1.7132  1.9997  0.1178
   56SOL    HW2  168   0.423   1.470   3.015 -0.6273  0.0062  0.0517
   57SOL     OW  169   1.792   2.383   2.671  0.2011  0.2316 -0.0017
   57SOL    HW1  170   1.835   2.366   2.578  0.4048 -0.2466  0.6679
   57SOL    HW2  171   1.717   2.453   2.656 -0.5624  1.7166 -1.3254
   58SOL     OW  172   0.598   0.458   1.106  0.3209  0.5671  0.2378
   58SOL    HW1  173   0.546   0.542   1.125  3.9246  1.2933 -0.2096
   58SOL    HW2  174   0.545   0.382   1.150  1.0868 -3.2589 -0.6209
   59SOL     OW  175   0.480   2.409   2.671  0.0178 -0.0315  0.0519
   59SOL    HW1  176   0.470   2.304   2.665 -1.3331  1.7170  2.4926
   59SOL    HW2  177   0.542   2.431   2.755 -0.1263 -1.7016  1.0421
   60SOL     OW  178   2.316   2.156   2.287 -0.1627 -0.3890  0.0288
   60SOL    HW1  179   2.398   2.187   2.227 -0.7411 -3.2040 -2.1115
   60SOL    HW2  180   2.326   2.173   2.390 -1.3958  0.7412  0.9169
   61SOL     OW  181   1.410   0.595   0.472  0.1148  0.4825  0.3091
   61SOL    HW1  182   1.320   0.645   0.483  1.5178 -0.7385  0.4072
   61SOL    HW2  183   1.429   0.570   0.371 -1.6857  3.0578  0.5790
   62SOL     OW  184   2.652   1.878   3.091 -0.3474  0.3167  0.2149
   62SOL    HW1  185   2.657   1.779   3.122  1.1193 -0.1232 -2.3080
   62SOL    HW2  186   2.660   1.886   2.991 -0.8542 -1.2024  0.5236
   63SOL     OW  187   0.527   0.823   0.162 -0.2240  0.2583  0.3093
   63SOL    HW1  188   0.517   0.925   0.137 -2.6354  0.3457 -1.1713
   63SOL    HW2  189   0.575   0.809   0.254  2.1588  0.4821 -1.1452
   64SOL     OW  190   0.102   0.474   2.525 -0.2022 -0.3015 -0.2397
   64SOL    HW1  191   0.128   0.540   2.598  4.8393  0.5391  2.4649
   64SOL    HW2  192   0.065   0.525   2.441 -0.2528 -1.7071 -2.0440
   65SOL     OW  193   0.193   1.452   0.659 -0.3277 -0.5769  0.4054
   65SOL    HW1  194   0.208   1.535   0.715  1.8271 -2.7850  0.3162
   65SOL    HW2  195   0.273   1.444   0.593  0.6142  0.8971 -0.6423
   66SOL     OW  196   2.489   0.406   0.701  0.9119  0.4099 -0.5574
   66SOL    HW1  197   2.410   0.472   0.734 -0.6001  2.5980  1.2284
   66SOL    HW2  198   2.469   0.308   0.716  0.7578 -0.0552 -0.7484
   67SOL     OW  199   0.505   2.511   1.347  0.3710 -0.6054 -0.0878
   67SOL    HW1  200   0.600   2.542   1.362 -0.8443 -2.9464  2.4348
   67SOL    HW2  201   0.487   2.409   1.344 -1.3939 -0.8957  1.1229
   68SOL     OW  202   1.002   1.100   2.444 -0.5660  0.0691  0.2452
   68SOL    HW1  203   1.058   1.028   2.403 -1.0350  0.4913  2.4505
   68SOL    HW2  204   0.929   1.139   2.384  0.3273  0.6285  0.5200
   69SOL     OW  205   0.755   2.691   2.148  0.2147 -0.1446 -0.2418
   69SOL    HW1  206   0.800   2.605   2.173  0.3686  4.0420 -0.4315
   69SOL    HW2  207   0.653   2.691   2.183 -0.1298 -2.5914  1.2273
   70SOL     OW  208   0.613   0.251   2.722  0.4283  0.4234  0.1721
   70SOL    HW1  209   0.608   0.295   2.816 -1.2931  0.1460 -0.0519
   70SOL    HW2  210   0.578   0.153   2.714  1.3489  1.5563 -1.5770
   71SOL     OW  211   1.088   1.780   0.336  0.5389  0.0567 -0.0591
   71SOL    HW1  212   1.061   1.683   0.346  0.7998 -0.8181  1.6857
   71SOL    HW2  213   1.097   1.819   0.238 -1.2449  0.6929 -1.0730
   72SOL     OW  214   1.801   0.121   2.098 -0.2270  0.6773  0.3016
   72SOL    HW1  215   1.857   0.137   2.009  2.0322  1.5866  1.2777
   72SOL    HW2  216   1.823   0.025   2.137 -0.3805 -2.4693  1.6794
   73SOL     OW  217   2.802   2.206   2.509 -0.0838 -0.7853  0.2802
   73SOL    HW1  218   2.797   2.107   2.469 -3.3995 -0.1520 -1.5134
   73SOL    HW2  219   2.823   2.214   2.607 -3.3616 -0.3901 -1.3054
   74SOL     OW  220   2.737   2.999   2.045 -0.2260 -0.0909  0.3745
   74SOL    HW1  221   2.671   2.980   2.123 -1.7576 -3.0739 -1.3733
   74SOL    HW2  222   2.838   3.002   2.077  0.3326 -0.6253  0.3618
   75SOL     OW  223   0.914   0.771   1.007 -0.3507 -0.0828  0.3040
   75SOL    HW1  224   0.832   0.826   0.984  0.2635 -1.2005 -1.5843
   75SOL    HW2  225   0.935   0.769   1.111 -0.4462  0.0387  3.2677
   76SOL     OW  226   1.741   1.241   2.567 -0.3009  0.0616  0.0296
   76SOL    HW1  227   1.639   1.217   2.580  1.8918 -2.5660  0.1496
   76SOL    HW2  228   1.768   1.330   2.623 -0.0366  1.4341  4.1491
   77SOL     OW  229   2.968   0.984   0.988 -0.7617  0.1721 -0.6480
   77SOL    HW1  230   2.970   0.877   0.980 -2.7208 -1.0855  1.8041
   77SOL    HW2  231   3.036   1.030   1.053 -1.6952  1.8032 -1.8772
   78SOL     OW  232   1.988   1.415   1.501 -0.5629 -0.2404  0.3727
   78SOL    HW1  233   2.079   1.425   1.455 -1.7889 -0.1233  3.0741
   78SOL    HW2  234   1.929   1.351   1.449  2.0416  1.2492  0.8052
   79SOL     OW  235   0.604   1.322   0.835  0.4368  0.3269 -0.3392
   79SOL    HW1  236   0.539   1.388   0.880 -1.8935 -1.1013  0.3086
   79SOL    HW2  237   0.552   1.264   0.760  0.9509 -1.5271 -2.5033
   80SOL     OW  238   0.674   0.507   1.595 -0.0570  0.1089 -0.5358
   80SOL    HW1  239   0.763   0.557   1.565  1.2430  1.6287 -0.9117
   80SOL    HW2  240   0.672   0.408   1.560  1.1072 -2.0106  1.7806
   81SOL     OW  241   1.049   1.395   2.639 -0.5672  0.1684  0.0258
   81SOL    HW1  242   1.055   1.318   2.712  0.5821 -1.3934 -1.8155
   81SOL    HW2  243   0.980   1.382   2.562  1.5522 -0.3734 -0.0144
   82SOL     OW  244   0.932   2.998   1.523  0.7939  0.0621  0.1364
   82SOL    HW1  245   1.021   2.957   1.561 -2.0790  0.3664  2.6113
   82SOL    HW2  246   0.862   2.922   1.495  0.5681  0.7202  0.9437
   83SOL     OW  247   2.754   2.479   0.789 -0.2944  0.5031  0.1221
   83SOL    HW1  248   2.671   2.426   0.763  0.3910  3.1778 -2.6171
   83SOL    HW2  249   2.767   2.569   0.735  1.1590 -0.0946 -1.4333
   84SOL     OW  250   0.721   0.008   2.418  0.3443  0.5056  0.0248
   84SOL    HW1  251   0.624  -0.013   2.452 -1.2172 -0.2911  1.6322
   84SOL    HW2  252   0.787  -0.056   2.460 -0.2109  0.3489 -1.3541
   85SOL     OW  253   0.385   1.680   1.506  0.0556  0.3576  0.4882
   85SOL    HW1  254   0.329   1.763   1.505  1.3032  0.4412  0.4698
   85SOL    HW2  255   0.387   1.636   1.600 -0.9178  2.8303  1.3853
   86SOL     OW  256   0.345   0.993   1.482  0.1630 -0.3008 -0.4077
   86SOL    HW1  257   0.321   0.921   1.409  1.2436  0.6194 -1.8449
   86SOL    HW2  258   0.346   0.954   1.577 -0.9824  0.3021 -1.0679
   87SOL     OW  259   1.570   0.606   0.215 -0.3299 -0.1981  0.5156
   87SOL    HW1  260   1.604   0.698   0.242 -4.1500 -0.1272  2.6134
   87SOL    HW2  261   1.547   0.593   0.113 -3.2572  2.4839  0.3473
   88SOL     OW  262   1.583   1.253   0.190  0.0561  0.0621  0.1398
   88SOL    HW1  263   1.630   1.179   0.246  0.8285 -2.5269 -0.0304
   88SOL    HW2  264   1.497   1.291   0.235  1.0814 -1.4669  4.2981
   89SOL     OW  265   3.005   0.445   0.577  0.5647 -0.0037 -0.0461
   89SOL    HW1  266   3.054   0.359   0.586  0.8347  1.0598 -0.3234
   89SOL    HW2  267   2.908   0.427   0.545  0.3941 -0.7526  0.2514
   90SOL     OW  268   0.975   1.664   3.038 -0.2042  0.1614 -0.4136
   90SOL    HW1  269   0.892   1.614   3.084 -0.9666 -1.8678 -0.1613
   90SOL    HW2  270   0.958   1.666   2.935  0.0727 -0.1031  0.2945
   91SOL     OW  271   1.284   1.488   1.766  0.4323  0.6855 -0.2430
   91SOL    HW1  272   1.276   1.578   1.817  1.1744 -1.3539  3.0749
   91SOL    HW2  273   1.385   1.455   1.754  0.2928 -0.0650 -0.3602
   92SOL     OW  274   0.065   1.045   1.173 -0.5030  0.1784  0.7139
   92SOL    HW1  275   0.161   1.055   1.142 -3.9684 -0.3996 -1.1758
   92SOL    HW2  276   0.053   1.003   1.267 -1.4891  0.5877  0.8085
   93SOL     OW  277   0.030   2.830   0.070 -0.3595 -0.5684 -0.3482
   93SOL    HW1  278  -0.032   2.804  -0.014 -1.9966  0.0126 -0.2121
   93SOL    HW2  279   0.079   2.744   0.106 -0.1090 -0.0379  2.3358
   94SOL     OW  280   1.518   1.344   1.679 -0.2130  0.1636 -0.1831
   94SOL    HW1  281   1.503   1.246   1.712 -0.0819  0.2107  1.6846
   94SOL    HW2  282   1.607   1.388   1.712 -1.4569 -1.1585 -0.3359
   95SOL     OW  283   1.339   2.471   2.914 -0.4173 -0.1216  0.0142
   95SOL    HW1  284   1.283   2.459   3.000  0.4963  1.2936 -1.4180
   95SOL    HW2  285   1.384   2.381   2.878 -1.0717  1.5497 -0.5572
   96SOL     OW  286   0.499   2.016   1.201  0.3949  0.4840 -0.0539
   96SOL    HW1  287   0.486   2.048   1.102 -0.4156 -2.3796  0.7464
   96SOL    HW2  288   0.500   1.911   1.209 -2.6074  1.2954 -2.1643
   97SOL     OW  289   0.370   1.436   2.500  0.4719  0.2296  0.2274
   97SOL    HW1  290   0.274   1.428   2.536  2.5675  2.0640  2.7119
   97SOL    HW2  291   0.413   1.514   2.550 -0.6594 -2.2472  0.8587
   98SOL     OW  292   2.015   1.674   1.306  0.0438 -0.7408 -0.3143
   98SOL    HW1  293   2.071   1.589   1.316 -1.0433  0.5461  1.1842
   98SOL    HW2  294   1.942   1.686   1.383  0.0312  0.3283  3.7055
   99SOL     OW  295   2.478   2.137   1.327  0.3470  0.0992  0.2150
   99SOL    HW1  296   2.416   2.183   1.393  1.2239  0.2727 -1.0883
   99SOL    HW2  297   2.466   2.034   1.312  1.4980  0.4666  1.7665
  100SOL     OW  298   2.287   0.361   2.042  0.8890  0.0988 -0.6491
  100SOL    HW1  299   2.247   0.339   2.131 -0.3108 -0.3743 -1.6840
  100SOL    HW2  300   2.378   0.405   2.059 -2.4434 -0.6191  1.7594
  101SOL     OW  301   0.415   1.469   0.292 -0.2027  0.3351  0.1882
  101SOL    HW1  302   0.431   1.498   0.391  2.3203  0.3324  0.4014
  101SOL    HW2  303   0.398   1.552   0.232 -3.5816 -0.4114  1.7604
  102SOL     OW  304   2.303   1.072   0.795 -0.0940  0.2531  0.0893
  102SOL    HW1  305   2.250   1.028   0.724  2.6706  0.2328  0.6296
  102SOL    HW2  306   2.375   1.141   0.758  2.2268 -0.9397  1.1683
  103SOL     OW  307   2.286   0.066   0.424  0.2157 -0.5460 -0.1897
  103SOL    HW1  308   2.346   0.115   0.356 -1.7391 -1.4408  2.8356
  103SOL    HW2  309   2.334   0.002   0.487  1.4981  2.2471 -0.2676
  104SOL     OW  310   0.088   1.878   2.116 -0.4823 -0.1469 -0.4408
  104SOL    HW1  311   0.105   1.811   2.046  1.6755  0.2652  0.2508
  104SOL    HW2  312  -0.012   1.895   2.139 -0.2321  0.7024  2.0304
  105SOL     OW  313   1.130   1.947   0.843  0.4152  0.1503  0.0955
  105SOL    HW1  314   1.097   2.031   0.791 -0.0238  0.3099 -0.2751
  105SOL    HW2  315   1.145   1.869   0.775  1.7509 -0.8309 -0.2947
  106SOL     OW  316   2.072   0.423   1.364  0.4276 -0.0395 -0.0366
  106SOL    HW1  317   2.065   0.334   1.420 -0.1593 -0.5659  2.4999
  106SOL    HW2  318   2.032   0.506   1.414  0.4362 -0.6372  2.5385
  107SOL     OW  319   1.819   3.014   1.073  0.1206  0.7247 -0.2280
  107SOL    HW1  320   1.869   3.086   1.128 -0.2190  1.3813  1.0053
  107SOL    HW2  321   1.758   2.948   1.128  1.1179  1.2246 -0.3616
  108SOL     OW  322   0.759   2.638   1.305  0.0774  0.3788  0.2237
  108SOL    HW1  323   0.748   2.705   1.380 -0.3098 -0.6401 -2.7988
  108SOL    HW2  324   0.845   2.579   1.318 -1.6782 -0.4926  4.0923
  109SOL     OW  325   2.116   0.101   0.747  0.3989  0.1178  0.5085
  109SOL    HW1  326   2.033   0.059   0.702  0.6528 -0.2431  2.3280
  109SOL    HW2  327   2.161   0.048   0.821  2.0159  1.0167  0.5789
  110SOL     OW  328   0.481   2.808   2.715 -0.2998  0.4456  0.5822
  110SOL    HW1  329   0.479   2.851   2.620  1.3671 -0.5788  0.4339
  110SOL    HW2  330   0.546   2.732   2.728 -0.9866 -1.1734  2.6596
  111SOL     OW  331   1.292   0.519   2.281  0.2682 -0.1265 -0.3220
  111SOL    HW1  332   1.212   0.571   2.330 -1.1312  1.9280  2.4537
  111SOL    HW2  333   1.346   0.448   2.343  1.8045 -0.6419  0.6845
  112SOL     OW  334   1.728   0.493   1.409  0.4443  0.2902 -0.7908
  112SOL    HW1  335   1.738   0.494   1.307  0.4209  1.3725  1.6771
  112SOL    HW2  336   1.686   0.405   1.441 -0.3544  1.4201  0.3195
  113SOL     OW  337   2.317   1.646   1.713  0.2574 -0.2125 -0.1918
  113SOL    HW1  338   2.393   1.581   1.682  0.4107 -2.5061 -2.8138
  113SOL    HW2  339   2.331   1.690   1.803 -0.0674  1.1014 -2.0924
  114SOL     OW  340   0.322   0.568   1.297 -0.5642 -0.2359  0.2150
  114SOL    HW1  341   0.331   0.670   1.272  1.6055 -0.1745  1.0278
  114SOL    HW2  342   0.292   0.516   1.213 -1.1643 -0.4758  1.7839
  115SOL     OW  343   2.605   1.564   1.213 -0.0509 -0.1983 -0.3713
  115SOL    HW1  344   2.643   1.470   1.234 -1.8152  0.4196 -3.1088
  115SOL    HW2  345   2.665   1.608   1.140 -1.4541 -1.6781 -0.9482
  116SOL     OW  346   1.820   1.086   0.751 -0.1251  0.2979 -0.2703
  116SOL    HW1  347   1.742   1.030   0.713  1.0068  0.3872 -0.5106
  116SOL    HW2  348   1.829   1.185   0.722 -0.6626 -1.9654  0.2945
  117SOL     OW  349   1.137   0.366   0.659 -0.4390  0.0600  0.2986
  117SOL    HW1  350   1.111   0.358   0.757  0.0057 -1.3413 -0.8909
  117SOL    HW2  351   1.211   0.438   0.640  1.1489 -0.0283  0.4911
  118SOL     OW  352   1.088   1.097   1.131  0.4073 -0.0544  0.2881
  118SOL    HW1  353   1.041   1.028   1.195 -0.2765 -0.7610 -2.0819
  118SOL    HW2  354   1.096   1.192   1.182  0.2267  3.0643  3.2094
  119SOL     OW  355   1.830   1.626   2.042 -0.0454  0.1583  0.4691
  119SOL    HW1  356   1.784   1.722   2.057  2.8423 -0.7921  0.2526
  119SOL    HW2  357   1.932   1.621   2.059  2.3852 -1.0399  0.2555
  120SOL     OW  358   2.975   2.791   0.328  0.2044  0.2932  0.1097
  120SOL    HW1  359   2.984   2.802   0.223  5.1142  1.4197 -1.0249
  120SOL    HW2  360   3.012   2.703   0.362  0.4016  0.7203 -2.5295
  121SOL     OW  361   2.006   0.724   2.180 -0.1425 -0.8091 -0.2655
  121SOL    HW1  362   2.090   0.746   2.124  0.8729 -0.4979 -1.9908
  121SOL    HW2  363   2.002   0.624   2.213  0.3373  1.5462  0.9996
  122SOL     OW  364   2.750   2.552   1.367 -0.1312  0.8766 -0.0767
  122SOL    HW1  365   2.766   2.541   1.267  0.0416  0.4217  3.8473
  122SOL    HW2  366   2.742   2.464   1.418  1.2795 -1.4800  1.7938
  123SOL     OW  367   1.718   0.034   1.688  0.2592  0.3825  0.1738
  123SOL    HW1  368   1.707  -0.043   1.619 -0.1552 -1.9184 -0.3178
  123SOL    HW2  369   1.816   0.051   1.714 -0.4233 -0.7699 -0.7284
  124SOL     OW  370   0.151   0.491   1.074 -0.7267  0.6309  0.5846
  124SOL    HW1  371   0.141   0.580   1.134  1.8135 -2.0076  2.3406
  124SOL    HW2  372   0.099   0.497   0.984 -0.7326 -2.9117 -0.4929
  125SOL     OW  373   0.884   1.769   0.677  0.0525 -0.0713 -0.1215
  125SOL    HW1  374   0.980   1.727   0.668 -1.0356 -1.0728  0.1080
  125SOL    HW2  375   0.837   1.736   0.762 -1.1519  0.7783  2.1083
  126SOL     OW  376   1.910   2.375   2.392  0.0147  0.2910  0.1463
  126SOL    HW1  377   1.972   2.317   2.332 -1.0064 -0.4750 -0.4335
  126SOL    HW2  378   1.815   2.389   2.349 -1.8855  0.4955  2.4833
  127SOL     OW  379   0.827   0.973   0.179 -0.7050 -0.2564 -0.0003
  127SOL    HW1  380   0.880   1.006   0.262 -1.7872  0.8626  1.1498
  127SOL    HW2  381   0.806   0.872   0.190 -2.3746  1.3250  0.0499
  128SOL     OW  382   0.981   0.164   1.487 -0.7182  0.2437 -0.3598
  128SOL    HW1  383   0.921   0.224   1.424 -1.7698 -0.4227  0.4456
  128SOL    HW2  384   0.943   0.071   1.514  4.4397 -0.0991 -2.0131
  129SOL     OW  385   1.849   0.685   1.876  0.4272 -0.4597  0.2506
  129SOL    HW1  386   1.834   0.694   1.778  1.0435 -0.4062 -2.9029
  129SOL    HW2  387   1.875   0.778   1.916 -0.8461  1.7919 -2.1364
  130SOL     OW  388   1.335   2.077   1.018 -0.0159  0.1188  0.3192
  130SOL    HW1  389   1.289   1.996   0.973  0.7182  1.8715  1.8602
  130SOL    HW2  390   1.370   2.148   0.951  0.5281  3.1908  1.9029
  131SOL     OW  391   0.005   1.520   1.391 -0.0305 -0.1735  0.1888
  131SOL    HW1  392  -0.048   1.432   1.381 -0.4887 -0.3960  1.6389
  131SOL    HW2  393   0.104   1.512   1.414 -1.2676  0.8252 -0.3462
  132SOL     OW  394   1.941   2.472   0.518 -0.2201 -0.5663 -0.0665
  132SOL    HW1  395   1.837   2.477   0.537 -2.0496 -2.5662 -1.2962
  132SOL    HW2  396   1.995   2.435   0.599  3.0613 -2.6390 -1.7483
  133SOL     OW  397   1.816   2.271   2.910  0.2704 -0.2662  0.6432
  133SOL    HW1  398   1.884   2.315   2.972  0.2349 -1.9674 -0.9109
  133SOL    HW2  399   1.793   2.325   2.818 -0.3727  1.1684 -0.5434
  134SOL     OW  400   2.680   2.355   1.599  0.7002 -0.1652 -0.1632
  134SOL    HW1  401   2.643   2.324   1.690 -0.8680  2.9064  0.3297
  134SOL    HW2  402   2.758   2.426   1.615 -0.6559  3.5129 -3.2200
  135SOL     OW  403   0.722   1.552   2.572  0.3812  0.3614  0.2652
  135SOL    HW1  404   0.681   1.475   2.625 -0.0326 -3.4638  0.4996
  135SOL    HW2  405   0.783   1.518   2.490 -1.8987 -2.2281  1.7296
  136SOL     OW  406   1.196   2.040   0.486 -0.0586 -0.5123 -0.0086
  136SOL    HW1  407   1.120   2.068   0.555 -2.8027  0.1830 -0.8635
  136SOL    HW2  408   1.168   1.952   0.435  1.4435 -0.6307 -1.5022
  137SOL     OW  409   0.388   1.074   2.201  0.0152 -0.2560 -0.3521
  137SOL    HW1  410   0.293   1.077   2.243 -0.4556 -0.2345 -0.6905
  137SOL    HW2  411   0.455   1.002   2.242  1.8828 -0.7105  1.7231
  138SOL     OW  412   2.442   1.481   0.242  0.2582  0.3813 -0.4451
  138SOL    HW1  413   2.343   1.488   0.203 -1.2323 -0.5995 -1.6554
  138SOL    HW2  414   2.464   1.389   0.292  2.0648  0.0120  0.6333
  139SOL     OW  415   1.783   2.602   1.218 -0.3701  0.0228 -0.3671
  139SOL    HW1  416   1.688   2.572   1.192  2.4978 -0.2773 -0.0169
  139SOL    HW2  417   1.804   2.571   1.317  0.4192  0.1481  0.4129
  140SOL     OW  418   2.983   2.984   2.507 -0.2046 -0.1558 -0.9123
  140SOL    HW1  419   3.013   2.887   2.518 -0.7775  2.8426 -1.0854
  140SOL    HW2  420   3.066   3.046   2.517 -2.1794  2.6497  3.7355
  141SOL     OW  421   1.206   1.627   1.561  0.6060 -0.0539 -0.2090
  141SOL    HW1  422   1.151   1.714   1.581  0.1545  3.0085 -0.3955
  141SOL    HW2  423   1.202   1.555   1.641 -2.7155 -3.2770  0.3642
  142SOL     OW  424   1.566   0.626   2.259  0.5302  0.3514  0.5899
  142SOL    HW1  425   1.593   0.604   2.158 -0.6531  1.8077 -1.0997
  142SOL    HW2  426   1.468   0.603   2.283 -0.4500 -0.6232 -2.2835
  143SOL     OW  427   2.755   0.868   0.495 -0.5223  0.6514  0.0814
  143SOL    HW1  428   2.766   0.909   0.402 -3.1629 -1.7054 -1.1577
  143SOL    HW2  429   2.797   0.929   0.567 -0.2658 -0.2429  0.8610
  144SOL     OW  430   2.962   1.265   1.364  0.4761  0.1125  0.4787
  144SOL    HW1  431   2.977   1.251   1.466  1.5937 -1.0605  0.2170
  144SOL    HW2  432   3.000   1.182   1.318 -1.5681  0.5216 -0.3262
  145SOL     OW  433   1.082   1.890   0.072  0.0504 -0.3316 -0.5308
  145SOL    HW1  434   1.044   1.980   0.040 -0.8774 -0.1360  1.2167
  145SOL    HW2  435   1.041   1.809   0.026 -0.0597  1.7125 -0.3886
  146SOL     OW  436   2.536   0.637   1.475  0.4763  0.0212  0.4447
  146SOL    HW1  437   2.458   0.567   1.448 -1.8156 -0.7895  0.9429
  146SOL    HW2  438   2.498   0.734   1.460  1.2602  0.2967  3.3270
  147SOL     OW  439   1.033   2.527   0.606 -0.0402 -0.3158 -0.3672
  147SOL    HW1  440   1.000   2.575   0.523 -1.0061  2.9556  0.4179
  147SOL    HW2  441   1.129   2.480   0.594  2.4940  0.8699 -1.2182
  148SOL     OW  442   1.633   1.420   0.006  0.5981 -0.2887 -0.2649
  148SOL    HW1  443   1.659   1.349  -0.065  1.2580 -0.6672  1.4852
  148SOL    HW2  444   1.603   1.366   0.087 -1.0805  2.2500  0.9053
  149SOL     OW  445   0.660   1.402   1.979 -0.1758 -0.2167  0.0815
  149SOL    HW1  446   0.569   1.369   2.023 -1.7650  1.2572 -1.0239
  149SOL    HW2  447   0.696   1.341   1.901  0.2252  0.4700  0.7260
  150SOL     OW  448   2.984   1.269   0.941  0.0731 -0.2095  0.4346
  150SOL    HW1  449   3.065   1.284   1.000 -1.4758 -0.3322  1.7703
  150SOL    HW2  450   2.935   1.179   0.962  0.3501  0.2619 -0.1463
  151SOL     OW  451   0.181   0.762   2.121  0.5375 -0.0470  0.3550
  151SOL    HW1  452   0.183   0.854   2.074 -1.1759  0.9814  2.3822
  151SOL    HW2  453   0.244   0.696   2.081  1.7360  2.1383  0.6453
  152SOL     OW  454   1.417   1.755   1.269  0.2962 -0.1424 -0.2395
  152SOL    HW1  455   1.401   1.781   1.367 -2.1644 -0.8280  1.3877
  152SOL    HW2  456   1.330   1.784   1.213 -0.7529 -0.2163 -1.4941
  153SOL     OW  457   0.056   1.528   0.167 -0.7018  0.2015  0.3158
  153SOL    HW1  458   0.032   1.429   0.189  0.0551 -1.0058  0.0085
  153SOL    HW2  459   0.090   1.572   0.257 -1.3925 -0.7357 -1.5070
  154SOL     OW  460   2.422   1.897   2.835  0.1340 -0.6938 -0.1288
  154SOL    HW1  461   2.426   1.792   2.863  0.8569 -2.0877 -0.3243
  154SOL    HW2  462   2.433   1.905   2.729  1.4485 -1.0937 -0.1947
  155SOL     OW  463   2.510   1.247   0.377 -0.6143  0.7220 -0.4663
  155SOL    HW1  464   2.588   1.263   0.317  0.3730 -0.1092  1.2441
  155SOL    HW2  465   2.458   1.163   0.357 -0.1507  1.6619  1.4954
  156SOL     OW  466   2.536   0.941   0.871 -0.2244 -0.1108 -0.0686
  156SOL    HW1  467   2.437   0.965   0.884  3.7240 -0.0176  0.1894
  156SOL    HW2  468   2.588   1.012   0.817  2.6554 -2.5334 -1.2957
  157SOL     OW  469   1.279   3.023   3.024 -1.0872 -0.3155 -0.4060
  157SOL    HW1  470   1.332   2.978   2.944  0.8858 -2.3669  0.3695
  157SOL    HW2  471   1.290   3.130   3.011 -1.4988 -0.0493 -2.1700
  158SOL     OW  472   1.056   1.891   2.033 -0.0610 -0.2050  0.2475
  158SOL    HW1  473   1.104   1.864   2.117  0.3222 -2.5359 -3.4313
  158SOL    HW2  474   0.952   1.894   2.044  0.5518  0.7918 -0.2807
  159SOL     OW  475   0.851   0.376   1.306 -0.2524  0.3970 -0.4109
  159SOL    HW1  476   0.838   0.472   1.350 -0.0347 -0.4232 -0.4469
  159SOL    HW2  477   0.781   0.360   1.231  1.1557 -0.6678  1.2626
  160SOL     OW  478   1.456   2.438   1.656 -0.2154  0.8172 -0.3575
  160SOL    HW1  479   1.449   2.529   1.614  1.2388  2.9729  1.1796
  160SOL    HW2  480   1.540   2.381   1.628  0.1409  3.3928  0.4090
  161SOL     OW  481   0.137   2.930   0.330  0.0722 -0.4344 -0.1307
  161SOL    HW1  482   0.048   2.880   0.348 -0.0176 -0.7269 -1.9720
  161SOL    HW2  483   0.132   3.016   0.260 -0.7849  3.5847 -4.2792
  162SOL     OW  484   2.579   1.902   0.512  0.2467  0.0578 -0.2257
  162SOL    HW1  485   2.598   1.834   0.437 -1.9713  0.5394  0.0182
  162SOL    HW2  486   2.569   1.858   0.602 -0.0522  3.1401 -0.2085
  163SOL     OW  487   1.965   2.706   0.756 -0.1243 -0.3356 -0.7114
  163SOL    HW1  488   1.912   2.742   0.675 -1.3003 -0.6760 -1.1093
  163SOL    HW2  489   2.017   2.621   0.733 -0.2987 -3.0129 -0.1309
  164SOL     OW  490   3.047   0.288   1.224 -0.7353  0.1810 -0.5137
  164SOL    HW1  491   3.111   0.317   1.149  0.4779  3.5268  0.0345
  164SOL    HW2  492   3.094   0.268   1.315  0.3749 -2.9254 -0.1755
  165SOL     OW  493   0.991   1.469   0.666 -0.1276  0.5865 -0.0597
  165SOL    HW1  494   0.903   1.480   0.723 -2.4148 -1.9056  1.5336
  165SOL    HW2  495   0.991   1.515   0.572  1.7909 -0.2264  0.1876
  166SOL     OW  496   1.419   1.055   1.757  0.0980  0.3737  0.0037
  166SOL    HW1  497   1.339   1.001   1.797 -4.4533 -2.5233  0.0437
  166SOL    HW2  498   1.493   1.079   1.825  0.1027  1.6894  0.3368
  167SOL     OW  499   0.891   1.924   1.539 -0.2510  0.3631 -0.3183
  167SOL    HW1  500   0.867   1.976   1.629  1.8094  0.2095  0.5978
  167SOL    HW2  501   0.835   1.837   1.527 -0.7916 -0.3890  0.0279
  168SOL     OW  502   1.530   2.386   0.141  0.4543  0.2668 -0.1265
  168SOL    HW1  503   1.609   2.439   0.097 -0.1980 -1.3559 -1.1550
  168SOL    HW2  504   1.565   2.334   0.228  2.3635  0.6322 -1.4668
  169SOL     OW  505   0.177   2.570   2.197 -0.0433  0.0220  0.4730
  169SOL    HW1  506   0.235   2.519   2.127  1.8315 -0.4844  1.7624
  169SOL    HW2  507   0.134   2.502   2.268 -0.4955 -1.3934  0.4490
  170SOL     OW  508   1.265   0.282   1.897  0.1266 -0.4771  0.1916
  170SOL    HW1  509   1.305   0.250   1.986 -0.2246  1.2888  0.0278
  170SOL    HW2  510   1.229   0.206   1.833  0.5944 -1.2731 -1.2447
  171SOL     OW  511   0.271   0.795   2.426  0.0125 -0.1496 -0.2726
  171SOL    HW1  512   0.174   0.802   2.469 -3.1545 -0.0569  1.4643
  171SOL    HW2  513   0.269   0.783   2.327  1.5174 -1.9049 -0.2018
  172SOL     OW  514   0.893   1.133   2.937 -0.2338  0.3670  0.2824
  172SOL    HW1  515   0.995   1.131   2.964  0.0037 -0.0259 -0.5801
  172SOL    HW2  516   0.872   1.102   2.835 -0.5072 -1.4902 -1.5109
  173SOL     OW  517   0.674   2.696   0.167 -0.2649 -0.3983  0.3268
  173SOL    HW1  518   0.674   2.801   0.148 -0.4064 -0.4350  2.0428
  173SOL    HW2  519   0.580   2.652   0.160  0.5892  0.7221  0.1895
  174SOL     OW  520   1.361   2.759   1.047  0.4285 -0.1917  0.2539
  174SOL    HW1  521   1.352   2.842   0.983  0.2171 -0.2500  2.2616
  174SOL    HW2  522   1.301   2.682   1.017  2.6620  1.6772 -1.8994
  175SOL     OW  523   0.384  -0.001   1.684  0.5600  0.3672 -0.3908
  175SOL    HW1  524   0.460   0.023   1.750 -0.7546 -0.3537  0.3096
  175SOL    HW2  525   0.331   0.086   1.658 -1.8609  1.3514 -1.1536
  176SOL     OW  526   2.542   0.377   3.050 -0.6780  0.3432  0.6031
  176SOL    HW1  527   2.571   0.450   3.118 -1.0254  2.2532  0.0344
  176SOL    HW2  528   2.488   0.296   3.088 -2.5611 -4.6545 -1.9055
  177SOL     OW  529   0.386   0.406   0.908  0.1312 -0.3718  0.6173
  177SOL    HW1  530   0.475   0.379   0.955  0.8926  1.6458  0.5978
  177SOL    HW2  531   0.299   0.404   0.969 -2.1757 -0.0742 -2.4425
  178SOL     OW  532   0.013   2.735   2.591  0.5801 -0.0970 -0.1354
  178SOL    HW1  533  -0.066   2.683   2.631  2.3129  1.4455  1.7176
  178SOL    HW2  534   0.078   2.761   2.670  0.3367  0.7746  0.4731
  179SOL     OW  535   0.020   1.697   1.150  0.1382  0.2476 -0.2563
  179SOL    HW1  536  -0.045   1.782   1.151 -0.0143 -2.4235  2.1279
  179SOL    HW2  537  -0.006   1.623   1.214 -1.1103  0.2404 -0.5948
  180SOL     OW  538   0.192   1.256   1.829  0.4558  0.9435 -0.1191
  180SOL    HW1  539   0.280   1.269   1.780  1.6008 -2.2381  1.0866
  180SOL    HW2  540   0.155   1.346   1.879 -0.8677 -1.1904 -0.3882
  181SOL     OW  541   3.006   1.829   2.535  0.6357  0.2469 -0.0268
  181SOL    HW1  542   3.101   1.848   2.496 -2.4358 -3.9351  1.7542
  181SOL    HW2  543   2.924   1.880   2.499 -2.9498  2.4507  1.3536
  182SOL     OW  544   2.331   1.212   1.206  0.1484 -0.6966 -0.3571
  182SOL    HW1  545   2.260   1.188   1.135  2.0997  0.4273  1.2593
  182SOL    HW2  546   2.352   1.314   1.199 -0.4606 -1.4648 -1.2514
  183SOL     OW  547   1.482   2.270   2.539 -0.1799  0.5724  0.5047
  183SOL    HW1  548   1.408   2.199   2.545  2.0836  0.8076  1.1475
  183SOL    HW2  549   1.580   2.241   2.548  0.3804 -0.8488  1.6374
  184SOL     OW  550   2.059   0.934   0.748 -0.2928  0.2858 -0.0074
  184SOL    HW1  551   1.968   0.965   0.776  0.9505  1.0490 -1.0706
  184SOL    HW2  552   2.088   0.841   0.782  2.0018 -0.4800  0.1168
  185SOL     OW  553   1.656   2.731   2.100 -0.3788 -0.2101 -0.1638
  185SOL    HW1  554   1.577   2.797   2.080 -0.9082 -2.0328  0.4162
  185SOL    HW2  555   1.666   2.720   2.200  0.9220  0.5716  0.9971
  186SOL     OW  556   0.112   2.230   1.753  0.5766 -0.0588  0.1258
  186SOL    HW1  557   0.121   2.324   1.712 -0.6570  1.0285 -0.5908
  186SOL    HW2  558   0.198   2.170   1.737  0.2807 -0.2205 -0.4505
  187SOL     OW  559   1.433   0.666   1.694 -0.0527  0.4451 -0.2815
  187SOL    HW1  560   1.488   0.731   1.635  1.4874  0.9559  0.1444
  187SOL    HW2  561   1.420   0.700   1.788  0.7865 -1.4535 -1.2636
  188SOL     OW  562   2.737   2.776   1.538  0.1497  0.1988  0.4960
  188SOL    HW1  563   2.704   2.860   1.482 -2.1557 -1.2171 -1.5694
  188SOL    HW2  564   2.751   2.693   1.475  0.9300 -0.9521 -0.8378
  189SOL     OW  565   0.777   1.018   1.458  0.8154  0.3649 -0.5305
  189SOL    HW1  566   0.853   1.091   1.473  0.5739  1.2301 -0.6466
  189SOL    HW2  567   0.774   0.972   1.365 -0.0725 -1.0012 -2.7056
  190SOL     OW  568   1.481   1.693   1.610  0.4112 -0.4205 -0.4625
  190SOL    HW1  569   1.384   1.655   1.604  0.3457  0.4270 -2.3254
  190SOL    HW2  570   1.486   1.791   1.650  1.8633 -2.0495  0.3374
  191SOL     OW  571   0.992   0.792   1.550 -0.4668 -0.0806  0.1402
  191SOL    HW1  572   1.036   0.714   1.599  1.2976  1.5190 -2.1080
  191SOL    HW2  573   1.060   0.867   1.526 -0.5836 -2.2881 -1.6322
  192SOL     OW  574   1.850   2.291   1.208 -0.8155  0.4677 -0.3986
  192SOL    HW1  575   1.760   2.250   1.168  1.8295  0.4062 -1.3435
  192SOL    HW2  576   1.899   2.352   1.136  0.4999  1.5212  0.4012
  193SOL     OW  577   0.529   0.567   0.344 -0.1601  0.0504  0.8982
  193SOL    HW1  578   0.536   0.494   0.416  0.3347  1.4423 -1.6919
  193SOL    HW2  579   0.504   0.530   0.251 -0.1913  0.1344 -0.7156
  194SOL     OW  580   0.285   0.856   1.256  0.4470 -0.4246  0.0654
  194SOL    HW1  581   0.186   0.823   1.236 -1.0534  0.0749  0.9856
  194SOL    HW2  582   0.318   0.907   1.171 -1.4223  3.7801 -0.0501
  195SOL     OW  583   0.943   2.944   0.474  0.0929 -0.5458 -0.2216
  195SOL    HW1  584   0.942   2.847   0.428 -1.5523  1.2710 -0.9048
  195SOL    HW2  585   1.035   2.993   0.463 -1.6033 -2.8378 -0.4185
  196SOL     OW  586   0.271   1.422   1.398 -0.3912 -0.2323  0.4499
  196SOL    HW1  587   0.323   1.494   1.451  0.7826 -0.3063 -2.0934
  196SOL    HW2  588   0.250   1.341   1.456 -0.6165  0.8640  2.0642
  197SOL     OW  589   0.866   2.001   0.238 -0.1725  0.1094  1.0910
  197SOL    HW1  590   0.856   2.002   0.342 -0.7907  0.5542 -0.2131
  197SOL    HW2  591   0.956   1.960   0.206  1.1235 -0.0855  2.0204
  198SOL     OW  592   0.293   1.223   0.244  0.0126  0.8398  0.4264
  198SOL    HW1  593   0.208   1.221   0.187 -0.1731  0.0807 -0.8560
  198SOL    HW2  594   0.338   1.314   0.250 -2.8273 -1.3833  3.3538
  199SOL     OW  595   2.246   0.385   2.524 -0.1107 -0.2688 -0.1673
  199SOL    HW1  596   2.187   0.340   2.598 -1.5619 -2.8756 -0.9890
  199SOL    HW2  597   2.343   0.337   2.521  0.9244 -2.3806 -0.5518
  200SOL     OW  598   3.098   2.887   0.768 -0.2205  0.5179 -0.5167
  200SOL    HW1  599   3.011   2.919   0.716 -1.3649  1.6757  0.2916
  200SOL    HW2  600   3.145   2.971   0.813  5.0296 -0.4671 -0.9686
  201SOL     OW  601   1.163   0.702   0.534  0.4105 -0.0970 -0.0168
  201SOL    HW1  602   1.145   0.791   0.584 -0.9929  2.7740 -0.4354
  201SOL    HW2  603   1.078   0.655   0.506  0.4730 -0.0456  1.0104
  202SOL     OW  604   0.464   1.267   1.711  0.2323  0.0499 -0.3127
  202SOL    HW1  605   0.509   1.236   1.624  0.7283 -1.7783 -1.2297
  202SOL    HW2  606   0.475   1.191   1.784 -0.9528  1.7749  1.6709
  203SOL     OW  607   0.668   0.225   1.511  0.3480 -0.2709  0.1238
  203SOL    HW1  608   0.659   0.173   1.421  2.4406 -1.1150  0.5674
  203SOL    HW2  609   0.693   0.174   1.596  0.2067  0.9088 -2.3195
  204SOL     OW  610   2.099   1.851   3.033  0.0383 -0.8203 -0.4482
  204SOL    HW1  611   2.093   1.753   3.003  0.6593 -1.3306  2.0412
  204SOL    HW2  612   2.064   1.909   2.957  0.6590 -0.3790  1.9184
  205SOL     OW  613   1.855   1.868   0.105 -0.2017  0.4149 -0.2883
  205SOL    HW1  614   1.952   1.864   0.072  3.3614  0.0217 -1.3304
  205SOL    HW2  615   1.804   1.954   0.076  0.9575  2.4415  3.7324
  206SOL     OW  616   2.551   2.813   0.403  0.8524 -0.0465 -0.3358
  206SOL    HW1  617   2.599   2.721   0.413  1.3887 -0.9887 -0.7908
  206SOL    HW2  618   2.558   2.857   0.307  0.1344  0.8926 -2.6357
  207SOL     OW  619   0.608   1.739   2.859  0.6005  0.2575  0.2285
  207SOL    HW1  620   0.714   1.719   2.859  1.5025 -1.4820 -1.7517
  207SOL    HW2  621   0.551   1.658   2.893 -0.6434 -0.4890 -0.0576
  208SOL     OW  622   0.989   1.482   1.426  0.1317  0.3683  0.3617
  208SOL    HW1  623   0.927   1.528   1.358  1.3322  0.7239 -0.7367
  208SOL    HW2  624   1.063   1.545   1.457 -0.8372  0.1262 -0.4601
  209SOL     OW  625   0.195   0.933   3.050  0.4203  0.1535 -0.1011
  209SOL    HW1  626   0.259   0.897   2.972  4.9016  1.6156  2.3181
  209SOL    HW2  627   0.178   0.861   3.119  0.5904  1.7583 -0.0909
  210SOL     OW  628   1.709   0.505   1.138 -0.0577  0.0392 -0.0053
  210SOL    HW1  629   1.650   0.579   1.085 -1.0285 -0.8106 -0.7407
  210SOL    HW2  630   1.809   0.519   1.122 -0.5286 -0.0721 -0.2704
  211SOL     OW  631   2.118   1.034   1.675  0.7681  0.4551 -0.0830
  211SOL    HW1  632   2.189   1.016   1.750  3.1094 -1.5750  0.9509
  211SOL    HW2  633   2.174   1.072   1.593 -3.1833 -0.2383 -0.2594
  212SOL     OW  634   0.023   0.997   1.457  0.0801 -0.6497 -0.1153
  212SOL    HW1  635   0.068   1.088   1.489  1.2495 -1.2944  1.1475
  212SOL    HW2  636   0.045   0.919   1.523  0.4398 -0.0848  3.5209
  213SOL     OW  637   2.719   0.340   0.260  0.4282  0.7843  0.3985
  213SOL    HW1  638   2.777   0.292   0.188 -0.3429 -0.0443 -1.2697
  213SOL    HW2  639   2.669   0.425   0.223  1.8937 -3.2710 -1.7643
  214SOL     OW  640   2.198   0.288   2.283 -0.1526  0.3731  0.5812
  214SOL    HW1  641   2.202   0.329   2.382  2.0137  0.5181  1.9279
  214SOL    HW2  642   2.173   0.189   2.283  0.8102 -0.1456  2.4736
  215SOL     OW  643   1.655   2.290   2.055 -0.2071 -0.8699 -0.0830
  215SOL    HW1  644   1.758   2.304   2.054  1.3712  0.3642  0.3186
  215SOL    HW2  645   1.615   2.364   2.120  1.2277  4.4348 -0.3976
  216SOL     OW  646   2.236   0.531   0.650 -0.2971 -0.5718  0.1590
  216SOL    HW1  647   2.199   0.456   0.592 -2.0395  0.6212  3.1955
  216SOL    HW2  648   2.248   0.624   0.595  1.9278  1.9021 -1.9777
  217SOL     OW  649   0.771   2.793   2.416  0.2558  0.6680 -0.8489
  217SOL    HW1  650   0.760   2.701   2.472  1.6545 -3.1738 -0.3383
  217SOL    HW2  651   0.750   2.776   2.316 -1.8611 -0.5329 -2.4603
  218SOL     OW  652   1.925   1.446   0.077 -0.0329  0.2587  0.2961
  218SOL    HW1  653   1.830   1.475   0.054 -1.5679 -4.8536  1.5276
  218SOL    HW2  654   1.922   1.355   0.124  0.8409  2.5270 -0.3584
  219SOL     OW  655   2.383   1.339   2.555  0.3047  0.2426 -0.0159
  219SOL    HW1  656   2.351   1.267   2.488 -2.2688 -3.5212 -0.7882
  219SOL    HW2  657   2.420   1.289   2.638 -1.2004  1.8665 -1.1650
  220SOL     OW  658   1.445   1.042   1.261  0.7596 -0.0165  0.3540
  220SOL    HW1  659   1.508   1.038   1.341  2.1695 -1.7343 -2.3035
  220SOL    HW2  660   1.471   1.107   1.189 -2.7950 -3.3830 -0.4770
  221SOL     OW  661   1.290   1.188   2.153 -0.1490  0.8669  0.1914
  221SOL    HW1  662   1.226   1.245   2.095  1.1621 -0.3956  0.3990
  221SOL    HW2  663   1.383   1.175   2.111  0.0508 -0.0247  1.3736
  222SOL     OW  664   1.273   0.071   1.132 -0.6033 -0.2091  0.1607
  222SOL    HW1  665   1.376   0.081   1.148  0.1694  2.4963 -2.9511
  222SOL    HW2  666   1.221   0.142   1.191 -0.9707 -1.0892 -0.0703
  223SOL     OW  667   2.897   0.842   1.971  0.1201  0.2032  0.5273
  223SOL    HW1  668   2.905   0.862   2.073 -0.4063  0.4335  1.1828
  223SOL    HW2  669   2.935   0.916   1.907 -2.6395  1.2039 -0.7954
  224SOL     OW  670   1.557   0.982   2.782  0.0115  0.1539 -0.0237
  224SOL    HW1  671   1.568   0.907   2.717 -1.8989 -1.1654 -0.0153
  224SOL    HW2  672   1.519   1.070   2.738 -3.6136 -1.5778  3.0169
  225SOL     OW  673   2.978   2.806   2.924  0.4423  0.2558  0.0690
  225SOL    HW1  674   2.945   2.734   2.856  2.9192 -0.9549  1.8029
  225SOL    HW2  675   3.049   2.860   2.875 -0.5322  0.7553 -0.5079
  226SOL     OW  676   2.451   1.629   2.874 -0.0117  0.0597 -0.1367
  226SOL    HW1  677   2.497   1.591   2.788  0.2077 -3.2204  1.2730
  226SOL    HW2  678   2.424   1.553   2.944  1.9025 -1.1719  1.0055
  227SOL     OW  679   0.819   0.122   2.985  0.6895 -0.5919  0.0518
  227SOL    HW1  680   0.866   0.052   3.044 -0.1329 -0.6940 -1.8441
  227SOL    HW2  681   0.837   0.104   2.884  2.5973 -0.2372 -0.5208
  228SOL     OW  682   2.366   0.576   2.797 -0.0385  0.3174  0.1062
  228SOL    HW1  683   2.335   0.627   2.714 -0.4712 -1.7796  0.7290
  228SOL    HW2  684   2.435   0.504   2.772  1.5235 -0.8217  0.3259
  229SOL     OW  685   0.580   0.501   1.866 -0.5478 -0.1462  0.1913
  229SOL    HW1  686   0.593   0.491   1.760  2.0675  2.0335  0.0312
  229SOL    HW2  687   0.668   0.547   1.910  3.0363  1.9589 -1.0180
  230SOL     OW  688   1.912   1.247   2.132 -0.0560  0.0040 -0.5306
  230SOL    HW1  689   1.986   1.298   2.080 -1.4696 -0.5095  2.9966
  230SOL    HW2  690   1.821   1.273   2.089 -0.2695  0.2947  0.2446
  231SOL     OW  691   0.652   1.029   2.970 -0.1009 -0.2069  0.6123
  231SOL    HW1  692   0.751   1.054   2.973  1.1607  0.9265  1.2619
  231SOL    HW2  693   0.605   1.069   3.052  0.9004  1.9559 -0.2107
  232SOL     OW  694   2.526   0.042   2.750 -0.0401 -0.1503 -0.1448
  232SOL    HW1  695   2.589  -0.012   2.813 -0.2853 -1.1738 -0.8220
  232SOL    HW2  696   2.516   0.003   2.653 -2.2276 -1.1361  0.4352
  233SOL     OW  697   1.721   1.275   1.048 -0.4907  0.0571  0.0657
  233SOL    HW1  698   1.726   1.309   0.948 -0.3606 -2.4150 -0.4362
  233SOL    HW2  699   1.733   1.175   1.061 -0.8766 -0.7223 -0.1296
  234SOL     OW  700   1.628   2.629   1.840  0.3822 -0.0708 -0.0043
  234SOL    HW1  701   1.632   2.660   1.941 -1.0082 -1.3982  1.6116
  234SOL    HW2  702   1.585   2.532   1.830  0.1891 -1.5921 -2.3212
  235SOL     OW  703   0.074   3.017   2.858  0.5170  0.2626  0.8218
  235SOL    HW1  704   0.134   3.083   2.805  1.9105 -1.0657 -0.0594
  235SOL    HW2  705  -0.010   3.063   2.907  0.1296 -1.5379  0.9083
  236SOL     OW  706   2.802   0.694   0.064 -0.0872 -0.4945  0.5747
  236SOL    HW1  707   2.867   0.724   0.135 -1.7317 -0.0476 -2.0816
  236SOL    HW2  708   2.832   0.612   0.010  0.6360 -0.1835  1.7313
  237SOL     OW  709   1.490   1.614   1.030 -0.0424 -0.5279  0.3010
  237SOL    HW1  710   1.590   1.578   1.033  1.7734 -0.1782  1.2869
  237SOL    HW2  711   1.461   1.653   1.121 -2.0683 -1.0515 -2.3377
  238SOL     OW  712   1.756   1.351   0.761 -0.4511 -0.2793  0.5274
  238SOL    HW1  713   1.853   1.383   0.740  0.7484  0.1492 -2.3166
  238SOL    HW2  714   1.684   1.393   0.697  1.8324  1.1088 -1.0890
  239SOL     OW  715   2.098   0.241   2.721 -0.2265 -0.1096  0.2547
  239SOL    HW1  716   2.196   0.247   2.765  3.0026 -0.4415 -0.4704
  239SOL    HW2  717   2.025   0.290   2.781 -0.3211  0.4434  0.5249
  240SOL     OW  718   0.856   0.699   0.226  0.1741  0.0204  0.3445
  240SOL    HW1  719   0.830   0.607   0.183  0.6232  0.0713  2.7444
  240SOL    HW2  720   0.865   0.682   0.329 -0.4534 -4.0950  3.1353
  241SOL     OW  721   0.560   0.030   0.324 -0.4438  0.1980  0.6032
  241SOL    HW1  722   0.586  -0.026   0.244 -1.1290 -0.4157 -0.9017
  241SOL    HW2  723   0.477  -0.007   0.383  1.9496  1.3678 -0.2356
  242SOL     OW  724   0.694   2.403   1.131  0.1045 -0.0248  0.3002
  242SOL    HW1  725   0.642   2.475   1.189 -0.2682  2.0353  3.0330
  242SOL    HW2  726   0.771   2.438   1.072 -0.2750 -0.4661  0.5393
  243SOL     OW  727   1.084   0.620   2.411  0.0677 -0.1123 -0.4204
  243SOL    HW1  728   1.017   0.694   2.386 -1.0371  1.1923  2.2903
  243SOL    HW2  729   1.042   0.543   2.461  2.4364 -0.8440 -0.0244
  244SOL     OW  730   2.760   1.936   2.434  0.2960  0.3332  0.6355
  244SOL    HW1  731   2.808   1.930   2.343 -0.9520 -1.1129  0.7148
  244SOL    HW2  732   2.686   1.859   2.445  0.1877 -3.6056  3.4911
  245SOL     OW  733   2.459   0.749   2.123  0.1576 -0.1041 -0.3298
  245SOL    HW1  734   2.474   0.821   2.199 -0.7477  0.0382 -0.8803
  245SOL    HW2  735   2.498   0.659   2.149  0.5483  2.1384  0.7521
  246SOL     OW  736   0.221   2.873   1.720 -0.0624 -0.1855 -0.2235
  246SOL    HW1  737   0.148   2.878   1.648 -0.8238 -0.2435 -0.8459
  246SOL    HW2  738   0.282   2.960   1.710 -0.5220 -1.2500 -0.5194
  247SOL     OW  739   2.182   0.544   3.002 -0.2976  0.2664  0.4876
  247SOL    HW1  740   2.253   0.547   2.922 -2.4737  1.3056 -2.3893
  247SOL    HW2  741   2.140   0.634   3.026 -1.2253 -1.9911 -1.3419
  248SOL     OW  742   2.189   1.879   1.650 -0.1667 -0.7149  0.1507
  248SOL    HW1  743   2.257   1.806   1.677  0.7120  1.9501  0.1697
  248SOL    HW2  744   2.092   1.852   1.677  0.9750 -2.8894  0.2145
  249SOL     OW  745   1.975   1.928   1.945 -0.4463  0.3207  0.1506
  249SOL    HW1  746   1.982   1.866   1.863 -0.3038  0.3428  1.3323
  249SOL    HW2  747   2.051   1.992   1.964 -1.9783 -0.4906  0.6059
  250SOL     OW  748   1.008   0.643   1.874  0.3331  0.6175 -0.4317
  250SOL    HW1  749   1.054   0.580   1.943 -0.5402  1.1436 -1.0138
  250SOL    HW2  750   1.039   0.620   1.775  1.5605 -2.5635  0.1996
  251SOL     OW  751   3.025   1.555   2.581 -0.0216  0.0844  0.0763
  251SOL    HW1  752   3.032   1.660   2.578 -0.6618 -1.1468 -0.3033
  251SOL    HW2  753   2.929   1.519   2.558 -0.4375  0.6679  1.5021
  252SOL     OW  754   1.539   0.883   1.551 -0.3543 -0.1267 -0.8440
  252SOL    HW1  755   1.634   0.923   1.529  0.5887  2.1784  0.4168
  252SOL    HW2  756   1.487   0.945   1.611  1.1070 -0.8682 -1.1906
  253SOL     OW  757   0.996   1.506   0.386  0.0763  0.0577  0.2438
  253SOL    HW1  758   1.066   1.444   0.337 -0.4329  2.8814 -1.0544
  253SOL    HW2  759   0.908   1.462   0.364 -2.3163  1.0108 -1.5682
  254SOL     OW  760   1.996   2.149   1.606 -0.1145  0.0053  0.1962
  254SOL    HW1  761   1.951   2.117   1.518  1.1847 -0.4215  0.1387
  254SOL    HW2  762   1.931   2.157   1.688  0.2481  1.4607 -0.9775
  255SOL     OW  763   0.080   1.152   2.896  0.3844 -0.2719  0.2980
  255SOL    HW1  764   0.166   1.210   2.860  1.7408 -0.1393 -0.6243
  255SOL    HW2  765   0.115   1.090   2.971 -0.1965  1.5694  1.0964
  256SOL     OW  766   2.800   1.346   1.855  0.8757  0.3099 -0.4476
  256SOL    HW1  767   2.767   1.420   1.791  0.3155 -0.5283  0.5442
  256SOL    HW2  768   2.724   1.284   1.899 -0.3155 -0.6486  2.3563
  257SOL     OW  769   0.867   0.243   1.908  0.5491 -0.0274  0.3152
  257SOL    HW1  770   0.908   0.301   1.833  0.3473 -0.7971 -1.3229
  257SOL    HW2  771   0.906   0.148   1.912  1.6408 -0.0589  1.1951
  258SOL     OW  772   2.949   1.266   0.420 -0.0445  0.2762 -0.1979
  258SOL    HW1  773   2.874   1.338   0.409 -0.2266  2.2060 -0.6627
  258SOL    HW2  774   2.988   1.266   0.522  0.0395  0.5631  2.9065
  259SOL     OW  775   0.464   2.907   2.997 -0.6181 -0.2564 -0.2565
  259SOL    HW1  776   0.425   2.845   3.068 -3.5895 -0.2735 -1.0807
  259SOL    HW2  777   0.458   2.864   2.904 -0.8340 -2.8725 -0.6097
  260SOL     OW  778   2.642   0.723   2.758  0.2402  0.5323  0.2756
  260SOL    HW1  779   2.568   0.781   2.714 -0.3544 -0.9911  0.1005
  260SOL    HW2  780   2.605   0.643   2.812  0.2528  0.4651  1.6356
  261SOL     OW  781   2.719   1.347   1.303 -0.4115  0.5302  0.2020
  261SOL    HW1  782   2.658   1.280   1.249  0.5930  0.6832 -0.8420
  261SOL    HW2  783   2.816   1.302   1.323  1.4237  0.8390 -1.3216
  262SOL     OW  784   1.487   2.928   2.049  0.1614 -0.1501  0.4582
  262SOL    HW1  785   1.508   3.011   1.991 -0.1435  2.1804  0.3027
  262SOL    HW2  786   1.395   2.886   2.021  0.7857 -0.0921 -1.7111
  263SOL     OW  787   0.899   0.787   2.335  0.3846  0.2348 -0.6259
  263SOL    HW1  788   0.829   0.716   2.302 -1.3554 -1.2318  0.8860
  263SOL    HW2  789   0.911   0.866   2.271 -1.1484  0.9965 -1.5237
  264SOL     OW  790   2.280   0.765   0.514 -0.1807  0.1482 -0.0432
  264SOL    HW1  791   2.176   0.795   0.509 -2.3302 -1.0761  0.5009
  264SOL    HW2  792   2.348   0.844   0.497  1.2893 -2.1797 -2.9023
  265SOL     OW  793   0.862   2.335   2.696 -0.0534 -0.2396 -0.3934
  265SOL    HW1  794   0.898   2.399   2.774  3.3372  0.4514 -0.8538
  265SOL    HW2  795   0.796   2.268   2.736  2.1108  2.3701 -0.7719
  266SOL     OW  796   1.343   1.724   0.036 -0.0859 -0.1026  0.2066
  266SOL    HW1  797   1.285   1.792   0.086 -0.7136  0.7448  0.9920
  266SOL    HW2  798   1.445   1.727   0.046  0.1912 -2.1563  0.5443
  267SOL     OW  799   1.061   0.035   2.350 -0.1415  0.0900  0.3621
  267SOL    HW1  800   1.046  -0.048   2.287  0.3668  0.6013  2.4471
  267SOL    HW2  801   1.010   0.122   2.328 -2.2382 -1.7144 -1.1290
  268SOL     OW  802   0.622   1.135   1.026  0.4469  0.5762 -0.3014
  268SOL    HW1  803   0.665   1.160   1.121  1.0093  0.2292  0.9535
  268SOL    HW2  804   0.601   1.216   0.965 -0.6355  1.3211 -0.4684
  269SOL     OW  805   2.459   2.567   1.579 -0.3355 -0.1058  0.4246
  269SOL    HW1  806   2.533   2.493   1.582  0.9204  0.4189 -1.0992
  269SOL    HW2  807   2.391   2.557   1.660  0.8295 -2.2442  0.1238
  270SOL     OW  808   0.237   2.857   2.026 -0.2838  1.4404 -0.1340
  270SOL    HW1  809   0.236   2.864   1.921  2.0324  2.6644 -0.0336
  270SOL    HW2  810   0.149   2.827   2.069  0.3205  0.0143 -0.8770
  271SOL     OW  811   0.449   1.393   1.180  1.2069  0.3345  0.3010
  271SOL    HW1  812   0.395   1.378   1.095 -0.4080 -3.1121  1.4959
  271SOL    HW2  813   0.384   1.381   1.264 -0.8714  0.2934  1.8672
  272SOL     OW  814   1.942   2.866   1.908 -0.7490  0.3857 -0.0828
  272SOL    HW1  815   1.873   2.856   1.826 -0.7655 -1.0207 -1.8968
  272SOL    HW2  816   2.031   2.914   1.886 -0.3402  0.3617  1.0501
  273SOL     OW  817   1.429   1.452   2.865  0.4726 -0.1542 -0.0285
  273SOL    HW1  818   1.507   1.467   2.932  1.1625  0.8526  0.5252
  273SOL    HW2  819   1.340   1.465   2.918  0.8899  2.0824  0.6831
  274SOL     OW  820   1.173   0.517   2.038  0.2583  0.4588  0.0908
  274SOL    HW1  821   1.215   0.444   1.984 -0.8236  1.5991  0.3029
  274SOL    HW2  822   1.219   0.526   2.134 -0.4603 -1.9729 -1.4585
  275SOL     OW  823   0.628   2.065   1.943 -0.2427 -0.4055  0.5197
  275SOL    HW1  824   0.607   2.163   1.961  0.7859  1.9061  1.3075
  275SOL    HW2  825   0.541   2.005   1.940 -2.5040  1.4209  3.3160
  276SOL     OW  826   2.159   0.993   2.807  0.1718 -0.0963  0.4477
  276SOL    HW1  827   2.069   0.977   2.751 -2.5741  1.5643 -1.5026
  276SOL    HW2  828   2.150   0.970   2.908  0.4672  0.1826 -2.0314
  277SOL     OW  829   3.025   0.823   0.197  0.7176  0.2430  0.0483
  277SOL    HW1  830   3.105   0.874   0.162  0.3165  1.5050 -4.5825
  277SOL    HW2  831   3.047   0.774   0.285  0.3599 -2.0241  0.3042
  278SOL     OW  832   0.194   0.276   2.952 -0.1504 -0.1373  0.8765
  278SOL    HW1  833   0.219   0.218   3.034  0.0310  1.2154  0.5656
  278SOL    HW2  834   0.221   0.372   2.949  0.1264  0.4544 -1.0224
  279SOL     OW  835   0.155   3.080   0.877 -0.1133  0.0061 -0.2240
  279SOL    HW1  836   0.171   3.100   0.977  0.9436  0.7359 -0.6771
  279SOL    HW2  837   0.229   3.120   0.812  0.1296  0.6179  1.0311
  280SOL     OW  838   1.661   2.945   2.520  0.6728  0.0482  0.0190
  280SOL    HW1  839   1.749   2.993   2.521  2.8978  0.7495  0.9645
  280SOL    HW2  840   1.581   3.005   2.547 -2.9439  0.2430  0.4918
  281SOL     OW  841   0.633   0.938   2.364 -0.4023  0.5402  0.1114
  281SOL    HW1  842   0.600   0.861   2.300  1.9826 -0.2743 -0.4057
  281SOL    HW2  843   0.653   0.905   2.462 -2.5120 -2.0072  2.2589
  282SOL     OW  844   1.655   2.455   0.554  0.6237 -0.7611 -0.5063
  282SOL    HW1  845   1.616   2.395   0.481  0.5189 -2.9226  1.3332
  282SOL    HW2  846   1.604   2.549   0.556  0.2526  0.3144 -0.2313
  283SOL     OW  847   1.159   0.966   0.696  0.0617  0.4556  0.3255
  283SOL    HW1  848   1.210   0.906   0.768  3.0534 -0.6885  1.2979
  283SOL    HW2  849   1.094   1.029   0.745  1.5995 -0.9379  0.3050
  284SOL     OW  850   2.287   2.798   2.404  0.2269 -0.2887 -0.1733
  284SOL    HW1  851   2.376   2.851   2.426  4.6584  0.7617 -1.1874
  284SOL    HW2  852   2.210   2.858   2.373  0.0012 -0.5995  2.5342
  285SOL     OW  853   1.397   3.038   2.557 -0.3666 -0.7681  0.4754
  285SOL    HW1  854   1.427   3.051   2.455 -0.2383 -1.0905 -0.2806
  285SOL    HW2  855   1.304   3.075   2.576  1.6574  0.6542  1.0295
  286SOL     OW  856   0.438   0.477   0.652  0.5825 -0.3236  0.2001
  286SOL    HW1  857   0.410   0.439   0.745  1.6952  0.0949 -0.1601
  286SOL    HW2  858   0.452   0.410   0.576  0.4484  1.0198  0.4535
  287SOL     OW  859   0.073   1.338   2.505  0.2059 -0.0785 -0.2654
  287SOL    HW1  860   0.054   1.243   2.545 -0.0543 -0.6018  0.8847
  287SOL    HW2  861   0.007   1.409   2.538  2.0692 -0.4667 -2.2693
  288SOL     OW  862   1.583   2.631   1.478  0.2585 -0.2594 -0.0595
  288SOL    HW1  863   1.681   2.620   1.481 -5.0654  1.2357 -1.6686
  288SOL    HW2  864   1.548   2.648   1.383  1.1450  0.3017 -1.4516
  289SOL     OW  865   0.687   2.715   0.793  0.1323  0.2571 -0.6266
  289SOL    HW1  866   0.715   2.793   0.732 -0.6553  2.2243 -0.3146
  289SOL    HW2  867   0.682   2.744   0.894  2.4435  0.9365 -1.4109
  290SOL     OW  868   2.950   1.241   1.636 -0.3822  0.3293 -0.4742
  290SOL    HW1  869   2.848   1.251   1.671 -1.3749 -0.4174 -2.8566
  290SOL    HW2  870   2.996   1.159   1.680 -2.2706 -1.3334 -4.1366
  291SOL     OW  871   1.972   0.036   0.060 -0.1865 -0.4788 -0.4672
  291SOL    HW1  872   1.996   0.041   0.162 -3.3563  2.5610 -0.0079
  291SOL    HW2  873   2.015   0.116   0.013 -0.7545 -0.3172  0.8420
  292SOL     OW  874   2.956   1.194   3.044 -0.5579  0.2060 -0.0063
  292SOL    HW1  875   2.884   1.232   2.976  0.3882  0.0788 -1.6071
  292SOL    HW2  876   3.051   1.193   3.000 -0.2709  0.9274 -0.3879
  293SOL     OW  877   0.571   2.079   0.140  0.0669  0.5471 -0.7312
  293SOL    HW1  878   0.537   2.127   0.223  0.5122 -0.4917 -2.5767
  293SOL    HW2  879   0.667   2.047   0.154  0.0191  2.3452  2.1487
  294SOL     OW  880   1.685   2.154   1.827 -0.0683 -0.0422 -0.6635
  294SOL    HW1  881   1.663   2.209   1.914 -0.5473  1.9662 -1.0024
  294SOL    HW2  882   1.703   2.215   1.749  1.2123  1.5712  0.6061
  295SOL     OW  883   0.941   1.108   0.416  0.4221 -1.4612 -0.4336
  295SOL    HW1  884   1.034   1.066   0.435 -0.2450 -1.2242 -1.0722
  295SOL    HW2  885   0.875   1.111   0.505 -0.6266  1.4622  3.3605
  296SOL     OW  886   1.285   2.064   2.521 -0.0305 -0.3818 -0.6130
  296SOL    HW1  887   1.282   2.084   2.418  1.2397  0.1185 -4.9702
  296SOL    HW2  888   1.277   1.959   2.541  2.4819 -1.6099  3.7850
  297SOL     OW  889   1.517   0.698   1.360 -0.3297 -0.3480  0.0692
  297SOL    HW1  890   1.574   0.624   1.402 -1.1096  1.7191  2.8508
  297SOL    HW2  891   1.531   0.787   1.411 -0.7464  0.8294 -0.4007
  298SOL     OW  892   0.518   1.245   2.838 -0.9655 -0.3073  0.4706
  298SOL    HW1  893   0.557   1.174   2.902  1.4174  1.4931  1.0874
  298SOL    HW2  894   0.575   1.256   2.752 -0.1088 -1.2617  0.3375
  299SOL     OW  895   0.387   0.332   1.432  0.0628 -0.1403 -0.1369
  299SOL    HW1  896   0.355   0.421   1.383 -1.6923 -1.6299 -1.0121
  299SOL    HW2  897   0.489   0.307   1.434  2.1019  0.9092 -2.1355
  300SOL     OW  898   1.221   1.793   2.864  0.0188 -0.0416  0.4029
  300SOL    HW1  899   1.218   1.704   2.810  0.0284  0.4040 -1.5186
  300SOL    HW2  900   1.215   1.778   2.967  2.5836  1.0338 -1.2888
  301SOL     OW  901   0.448   0.281   0.458 -0.4760 -0.0951 -0.1582
  301SOL    HW1  902   0.349   0.253   0.439  0.3310  0.3076  1.7196
  301SOL    HW2  903   0.513   0.241   0.382 -1.2803 -0.3278 -3.3697
  302SOL     OW  904   1.226   2.298   2.315  0.2991 -0.8178  0.1109
  302SOL    HW1  905   1.152   2.299   2.391 -0.8195 -0.3183 -0.3189
  302SOL    HW2  906   1.213   2.218   2.256  0.0796 -0.9193 -2.7601
  303SOL     OW  907   0.927   2.363   0.796 -0.2276 -0.9296  0.2424
  303SOL    HW1  908   0.967   2.424   0.720 -1.1574 -0.8674 -2.7841
  303SOL    HW2  909   0.934   2.412   0.888 -1.3448  0.4517  0.0697
  304SOL     OW  910   0.120   2.059   0.663  0.3982  0.3162 -1.2647
  304SOL    HW1  911   0.175   1.992   0.603  3.0739 -0.1005 -1.0864
  304SOL    HW2  912   0.059   2.123   0.609  0.9072 -0.6751  3.5671
  305SOL     OW  913   1.629   0.883   0.685 -0.0933  0.1307 -0.7715
  305SOL    HW1  914   1.555   0.888   0.614  0.5325  0.1881  2.9299
  305SOL    HW2  915   1.680   0.794   0.667  0.2699 -0.3227  2.5945
  306SOL     OW  916   0.447   1.866   1.908  0.0172  0.5587 -0.3789
  306SOL    HW1  917   0.500   1.797   1.858 -1.3645 -0.9514  0.9938
  306SOL    HW2  918   0.419   1.832   2.003 -1.9594 -1.6989 -2.5324
  307SOL     OW  919   0.025   0.835   2.549 -0.3188 -0.3152  0.5312
  307SOL    HW1  920   0.026   0.937   2.566  1.5286  1.0748 -1.2600
  307SOL    HW2  921  -0.056   0.778   2.586 -0.0261 -3.3112  1.0663
  308SOL     OW  922   1.578   2.652   2.833 -0.1078 -0.6698  0.8298
  308SOL    HW1  923   1.577   2.588   2.748 -2.4970 -1.0264 -1.3351
  308SOL    HW2  924   1.520   2.615   2.907  3.9119 -0.7574 -1.6747
  309SOL     OW  925   1.231   0.021   1.769 -0.2505  0.1154  0.0614
  309SOL    HW1  926   1.333   0.014   1.800  3.7706 -0.3347  1.8717
  309SOL    HW2  927   1.229   0.063   1.672 -0.8937  0.6834 -0.1215
  310SOL     OW  928   1.331   2.662   0.716  0.3811 -0.7195 -0.1071
  310SOL    HW1  929   1.235   2.700   0.706  2.0567  1.7951 -1.4823
  310SOL    HW2  930   1.396   2.740   0.712 -2.2417 -0.6128 -0.6102
  311SOL     OW  931   1.214   0.948   1.456 -0.0329  0.0213  0.7068
  311SOL    HW1  932   1.301   0.893   1.466  1.2757  0.0652 -0.1966
  311SOL    HW2  933   1.232   1.049   1.468  2.0026 -4.6769  1.2788
  312SOL     OW  934   1.595   0.691   0.980  0.5660 -0.0196 -0.6027
  312SOL    HW1  935   1.583   0.795   0.995  1.0993  1.2773  0.6646
  312SOL    HW2  936   1.503   0.643   0.955 -0.8651 -0.2720 -1.3328
  313SOL     OW  937   1.574   1.446   0.594  0.2871 -0.1398  0.7343
  313SOL    HW1  938   1.497   1.512   0.614  0.1367  0.2440  1.4701
  313SOL    HW2  939   1.536   1.348   0.574 -1.4337 -0.2810  1.5038
  314SOL     OW  940   2.965   0.031   2.978  0.1585 -1.1856 -0.1897
  314SOL    HW1  941   2.955   0.084   3.066 -1.6593  0.9169 -0.2400
  314SOL    HW2  942   2.888  -0.036   2.972 -0.8571  1.5934 -0.2705
  315SOL     OW  943   1.249   0.232   2.778  0.0046 -0.1211  0.2204
  315SOL    HW1  944   1.227   0.138   2.736  1.8285 -0.7901 -2.2806
  315SOL    HW2  945   1.271   0.222   2.879  0.3963 -0.3455 -0.8559
  316SOL     OW  946   1.674   2.086   0.890  0.1316 -0.1591 -0.0030
  316SOL    HW1  947   1.651   2.091   0.996 -0.9883 -0.9081  0.4223
  316SOL    HW2  948   1.671   2.175   0.839  3.7191  1.0673 -1.7100
  317SOL     OW  949   1.164   0.705   2.847 -0.5346 -0.4126  0.2762
  317SOL    HW1  950   1.093   0.749   2.907  0.0096  0.9024  0.7845
  317SOL    HW2  951   1.128   0.620   2.795  0.9213 -0.7388 -1.3524
  318SOL     OW  952   1.425   3.064   2.269  0.6967  0.1429 -0.0505
  318SOL    HW1  953   1.386   3.151   2.240 -2.0989  1.1294 -2.2724
  318SOL    HW2  954   1.440   3.003   2.187 -1.1468  0.3516 -2.0466
  319SOL     OW  955   0.634   2.384   2.941  0.2449  0.5379 -0.1513
  319SOL    HW1  956   0.549   2.362   2.996 -0.1859  1.3634  3.1635
  319SOL    HW2  957   0.705   2.308   2.953  1.5504 -1.9850 -0.3172
  320SOL     OW  958   1.621   2.254   0.367  0.5020 -0.7865  0.3442
  320SOL    HW1  959   1.719   2.226   0.381 -0.9289  1.1546 -1.3530
  320SOL    HW2  960   1.556   2.201   0.423  0.7435  0.6016  0.6888
  321SOL     OW  961   1.581   2.710   0.527 -0.2941 -0.1962 -0.1928
  321SOL    HW1  962   1.494   2.766   0.516  1.5676 -0.4903  4.0941
  321SOL    HW2  963   1.667   2.770   0.526  0.6099 -0.2721  0.8240
  322SOL     OW  964   2.634   1.114   2.258 -0.1895  0.6623  0.4583
  322SOL    HW1  965   2.714   1.131   2.324 -3.8122  0.7258  1.3426
  322SOL    HW2  966   2.576   1.031   2.296  1.4491 -1.9800  2.4985
  323SOL     OW  967   1.008   2.707   0.844 -0.5398  0.2463 -0.4694
  323SOL    HW1  968   0.996   2.646   0.762  1.0675 -0.9102 -0.8470
  323SOL    HW2  969   0.984   2.812   0.829 -0.8515  1.7698 -0.9300
  324SOL     OW  970   0.115   2.479   2.443  0.0787 -0.2983 -0.2147
  324SOL    HW1  971   0.072   2.394   2.490 -0.9275  0.7621  0.0080
  324SOL    HW2  972   0.069   2.567   2.476  1.9522 -0.9569  2.7859
  325SOL     OW  973   1.189   3.082   0.468  0.2381  0.3872 -0.0364
  325SOL    HW1  974   1.215   3.122   0.380  0.5204 -0.3641  0.4705
  325SOL    HW2  975   1.231   3.119   0.554  0.6890  2.8558 -0.3993
  326SOL     OW  976   2.392   0.749   0.003  0.1909  0.0667 -0.2120
  326SOL    HW1  977   2.301   0.724  -0.031  2.1289 -2.4026 -0.6604
  326SOL    HW2  978   2.433   0.678   0.065 -0.4636  1.4816  0.1018
  327SOL     OW  979   2.736   0.422   0.540  0.1223 -0.2499  0.0495
  327SOL    HW1  980   2.734   0.369   0.449 -0.3558 -1.5439  0.7008
  327SOL    HW2  981   2.653   0.404   0.597 -1.1706 -0.2685 -1.9272
  328SOL     OW  982   2.477   0.588   0.429  0.1877 -0.6106  0.7854
  328SOL    HW1  983   2.406   0.659   0.455  0.4141 -1.1884 -2.0341
  328SOL    HW2  984   2.487   0.506   0.490 -1.4567 -1.2324 -1.6231
  329SOL     OW  985   2.995   2.995   2.160  0.2441  1.1668 -0.1420
  329SOL    HW1  986   3.061   2.941   2.222 -0.8662 -0.4282  0.1961
  329SOL    HW2  987   3.021   3.091   2.143 -1.0076 -0.6432 -0.1150
  330SOL     OW  988   0.534   0.168   1.875 -0.5264 -0.4939  0.5721
  330SOL    HW1  989   0.559   0.270   1.867 -2.4428  0.9315  0.6365
  330SOL    HW2  990   0.568   0.134   1.969  1.2282 -0.6252 -0.0895
  331SOL     OW  991   2.946   1.910   1.121  0.1318 -0.3542  0.0105
  331SOL    HW1  992   2.972   2.008   1.089  0.9258  1.5130  0.8889
  331SOL    HW2  993   2.876   1.910   1.193  1.4706 -1.1259  0.8567
  332SOL     OW  994   0.411   1.063   0.061  0.0610 -0.2675 -0.7286
  332SOL    HW1  995   0.336   1.017   0.007  0.1710 -0.2984  1.3487
  332SOL    HW2  996   0.376   1.116   0.142 -0.5585  0.7652  1.0193
  333SOL     OW  997   2.834   1.031   0.274 -0.3134 -0.4654  0.4006
  333SOL    HW1  998   2.898   1.099   0.320 -0.6775 -1.7343  2.1073
  333SOL    HW2  999   2.886   0.946   0.239  0.4291 -0.4580  0.0329
  334SOL     OW 1000   1.660   1.156   1.899  0.1061  0.0518  0.1096
  334SOL    HW1 1001   1.752   1.172   1.856  1.5850  2.8093  3.1589
  334SOL    HW2 1002   1.639   1.238   1.959  0.7188 -2.3507 -1.4679
  335SOL     OW 1003   1.974   2.789   2.612 -0.0107 -0.3377 -0.3111
  335SOL    HW1 1004   1.916   2.772   2.699  3.6798 -1.5429  0.8614
  335SOL    HW2 1005   2.055   2.857   2.627 -0.6209 -0.3013  1.7147
  336SOL     OW 1006   0.240   0.094   2.743  0.0603 -0.1679 -0.2754
  336SOL    HW1 1007   0.337   0.061   2.749  2.4283  3.1181 -0.3250
  336SOL    HW2 1008   0.226   0.173   2.811  1.2998 -1.2106  1.8935
  337SOL     OW 1009   0.923   2.816   2.833 -0.2748 -0.2235 -0.1421
  337SOL    HW1 1010   0.903   2.797   2.931 -1.5548 -1.9442 -0.2976
  337SOL    HW2 1011   1.015   2.788   2.801 -1.6212  1.8674 -0.2990
  338SOL     OW 1012   0.011   1.026   0.611 -0.6821 -0.2122 -0.1226
  338SOL    HW1 1013  -0.088   1.015   0.646  1.8102  1.0876  2.3669
  338SOL    HW2 1014   0.031   1.129   0.602 -2.7457  1.0740  0.8895
  339SOL     OW 1015   1.671   1.378   2.074  0.2097  0.0983 -0.2175
  339SOL    HW1 1016   1.571   1.415   2.082 -0.9133  2.2376 -0.6039
  339SOL    HW2 1017   1.739   1.459   2.088 -0.6639  2.1827 -0.3688
  340SOL     OW 1018   2.319   0.769   1.181 -0.2983  0.6015 -0.3139
  340SOL    HW1 1019   2.218   0.799   1.174 -0.0496  0.9188 -0.3671
  340SOL    HW2 1020   2.333   0.681   1.126 -1.7210  1.0395 -0.5581
  341SOL     OW 1021   1.881   2.156   0.416 -0.2013  0.1771 -0.9280
  341SOL    HW1 1022   1.896   2.197   0.322 -2.4420 -0.9336 -1.7045
  341SOL    HW2 1023   1.964   2.156   0.478  4.0087 -0.0305  0.1187
  342SOL     OW 1024   2.202   2.124   2.748 -0.1652 -0.8150 -0.3173
  342SOL    HW1 1025   2.254   2.071   2.815  0.7467  0.1020  0.1440
  342SOL    HW2 1026   2.102   2.087   2.748  0.8247 -2.7281 -0.4721
  343SOL     OW 1027   0.344   0.870   2.841  0.1985 -0.4296 -0.6837
  343SOL    HW1 1028   0.319   0.946   2.769 -1.2730 -2.4725  0.8512
  343SOL    HW2 1029   0.443   0.872   2.874  0.8540 -1.1155 -0.2333
  344SOL     OW 1030   1.936   1.494   0.365 -0.2117 -0.7573 -0.2311
  344SOL    HW1 1031   1.966   1.549   0.282 -1.8297  0.0505  1.2262
  344SOL    HW2 1032   1.836   1.502   0.383  0.5155  0.3631  2.2572
  345SOL     OW 1033   1.393   2.196   2.832 -0.3721  0.2637  0.0754
  345SOL    HW1 1034   1.310   2.156   2.787 -0.1758  0.2295 -0.8483
  345SOL    HW2 1035   1.483   2.164   2.788 -0.0957 -0.2423  0.8366
  346SOL     OW 1036   2.400   0.892   1.436 -0.6862 -0.7778 -0.1010
  346SOL    HW1 1037   2.354   0.984   1.448  0.2079  0.0123  1.4244
  346SOL    HW2 1038   2.356   0.832   1.361 -3.2348  0.3742 -0.7688
  347SOL     OW 1039   0.690   2.828   1.498 -0.2419  0.0950 -0.8794
  347SOL    HW1 1040   0.658   2.790   1.590  0.4165 -0.1849 -1.1745
  347SOL    HW2 1041   0.617   2.891   1.463  2.0606  1.0794  0.6393
  348SOL     OW 1042   0.098   0.715   2.857  0.5095 -0.0966  0.1634
  348SOL    HW1 1043  -0.005   0.735   2.840 -1.5544  2.4843  0.5174
  348SOL    HW2 1044   0.158   0.797   2.839 -0.1877  1.4060  1.4945
  349SOL     OW 1045   1.904   0.407   2.815 -0.0469  0.0461 -0.2917
  349SOL    HW1 1046   1.896   0.485   2.747 -1.7846 -1.0180 -0.2439
  349SOL    HW2 1047   1.861   0.438   2.905  0.3961 -0.4443  1.0029
  350SOL     OW 1048   1.666   0.398   0.374  0.7782  0.4077 -0.2740
  350SOL    HW1 1049   1.741   0.415   0.442 -1.2394  0.8867 -2.4987
  350SOL    HW2 1050   1.634   0.484   0.319  3.7533  0.3776  0.1978
  351SOL     OW 1051   0.883   0.909   2.087  0.1698  0.0617 -0.6114
  351SOL    HW1 1052   0.915   0.997   2.047  0.3970  0.2373 -0.9082
  351SOL    HW2 1053   0.819   0.847   2.029  0.5822  1.2209 -0.5375
  352SOL     OW 1054   1.993   1.375   0.604  0.2333 -0.2986  0.0659
  352SOL    HW1 1055   1.982   1.419   0.511  0.6902 -0.6728 -0.8286
  352SOL    HW2 1056   2.082   1.397   0.639 -1.7613 -1.0313 -1.5674
  353SOL     OW 1057   2.132   2.845   1.130 -0.1319  0.6656 -0.4725
  353SOL    HW1 1058   2.216   2.795   1.169 -1.2070 -1.6275  1.5607
  353SOL    HW2 1059   2.075   2.781   1.067 -0.5156  1.7315 -0.5754
  354SOL     OW 1060   0.277   1.387   2.879  0.3066 -0.2328 -0.5461
  354SOL    HW1 1061   0.253   1.458   2.803  0.0634  1.2086 -2.8633
  354SOL    HW2 1062   0.363   1.328   2.861 -0.4510  0.8743  0.6126
  355SOL     OW 1063   0.448   1.494   0.569 -0.1019  0.4857 -0.4951
  355SOL    HW1 1064   0.481   1.584   0.601  2.1960 -3.2044  1.9653
  355SOL    HW2 1065   0.526   1.430   0.552 -3.9827 -1.3704  0.6036
  356SOL     OW 1066   0.884   0.433   2.097 -0.3730 -0.9242  0.3513
  356SOL    HW1 1067   0.978   0.469   2.117  1.1895  0.3301  1.4152
  356SOL    HW2 1068   0.889   0.368   2.015  1.6569  3.4049 -3.4198
  357SOL     OW 1069   1.040   1.303   0.209  0.2768  0.1828  0.4821
  357SOL    HW1 1070   0.965   1.336   0.149 -1.1742  1.0316 -1.8058
  357SOL    HW2 1071   1.011   1.237   0.285  0.5805 -2.7466  1.9499
  358SOL     OW 1072   1.650   1.625   0.371  0.1572 -0.2911  0.2136
  358SOL    HW1 1073   1.607   1.534   0.363  0.5468  0.1859  1.4637
  358SOL    HW2 1074   1.590   1.702   0.350 -0.1332 -2.3199 -0.1868
  359SOL     OW 1075   1.552   2.713   0.189 -0.5851 -0.2021  0.1797
  359SOL    HW1 1076   1.599   2.649   0.124  1.8318  0.6766 -1.6008
  359SOL    HW2 1077   1.448   2.692   0.188  1.7838 -1.0074 -1.0479
  360SOL     OW 1078   0.881   0.584   0.489  0.0319 -0.2648 -0.1611
  360SOL    HW1 1079   0.811   0.595   0.562  0.8689  0.8881 -1.0817
  360SOL    HW2 1080   0.887   0.483   0.456 -1.9782 -2.0740 -2.7675
  361SOL     OW 1081   1.246   1.404   0.672 -0.0243 -0.1874  0.2316
  361SOL    HW1 1082   1.282   1.411   0.767  0.7350  0.4642  1.0964
  361SOL    HW2 1083   1.141   1.401   0.670  0.1215 -0.2029  2.4281
  362SOL     OW 1084   1.393   1.765   0.802  0.2311 -0.0346  0.0227
  362SOL    HW1 1085   1.430   1.710   0.883  0.0501  0.3149 -0.3451
  362SOL    HW2 1086   1.464   1.835   0.762 -0.4431  1.6065 -1.6656
  363SOL     OW 1087   1.138   1.374   1.994  0.1280 -0.0546  0.1589
  363SOL    HW1 1088   1.135   1.441   2.072  2.4135 -1.8871 -0.2848
  363SOL    HW2 1089   1.177   1.410   1.904 -1.0821 -0.1087 -0.0280
  364SOL     OW 1090   0.587   2.359   1.948 -0.2251  0.1387  0.0942
  364SOL    HW1 1091   0.488   2.384   1.973 -1.1176 -2.5404  1.6580
  364SOL    HW2 1092   0.600   2.375   1.847 -1.6455 -2.6506 -0.2368
  365SOL     OW 1093   1.097   1.893   1.379 -0.2223  0.3729 -0.4745
  365SOL    HW1 1094   1.004   1.910   1.421 -1.0864 -0.5833 -1.7262
  365SOL    HW2 1095   1.097   1.862   1.278  0.5584 -0.2885 -1.8525
  366SOL     OW 1096   2.809   2.060   0.489  0.4426  0.0012 -0.0179
  366SOL    HW1 1097   2.714   2.014   0.491 -2.0732  0.6977  1.4235
  366SOL    HW2 1098   2.882   2.006   0.444 -2.5047 -0.1721  1.3214
  367SOL     OW 1099   0.785   1.251   0.100  0.0818  0.0012 -0.0121
  367SOL    HW1 1100   0.766   1.162   0.156 -2.0354  0.0872  3.2688
  367SOL    HW2 1101   0.808   1.241  -0.002  2.3205  3.4201 -0.6011
  368SOL     OW 1102   1.565   0.519   0.668 -0.0481 -0.1904  0.2935
  368SOL    HW1 1103   1.500   0.537   0.588  2.1784  0.6053 -0.1569
  368SOL    HW2 1104   1.664   0.527   0.644  0.0301  3.2263  1.1496
  369SOL     OW 1105   0.292   1.693   0.094  0.0915  0.5996  0.0546
  369SOL    HW1 1106   0.274   1.776   0.164 -1.7986 -0.2381 -0.9692
  369SOL    HW2 1107   0.226   1.615   0.094  0.2160  1.1284  1.5669
  370SOL     OW 1108   0.444   2.132   0.973 -0.2347 -0.0541  0.0405
  370SOL    HW1 1109   0.444   2.235   0.970  2.0692 -0.1478  0.4565
  370SOL    HW2 1110   0.349   2.091   0.952 -0.4844  0.0720 -1.5168
  371SOL     OW 1111   2.901   2.217   2.759 -0.1536 -0.1777 -0.5320
  371SOL    HW1 1112   2.915   2.189   2.863 -0.5600 -0.1246  1.1223
  371SOL    HW2 1113   2.990   2.241   2.715 -1.4036  1.0910  0.7656
  372SOL     OW 1114   0.910   1.869   0.967  0.4167 -0.0728 -0.2917
  372SOL    HW1 1115   0.904   1.968   0.994  0.6349  0.7721 -0.5665
  372SOL    HW2 1116   0.993   1.857   0.907 -1.3171  1.1152 -1.1320
  373SOL     OW 1117   1.969   2.018   0.930  0.4595  0.4715 -0.1611
  373SOL    HW1 1118   2.050   2.059   0.984  0.1589  1.3040 -0.2684
  373SOL    HW2 1119   1.872   2.049   0.960 -0.8144  0.4878 -0.7730
  374SOL     OW 1120   1.862   0.415   0.585  1.0412  0.0038 -0.8439
  374SOL    HW1 1121   1.841   0.353   0.674 -2.8717  1.5830  3.2230
  374SOL    HW2 1122   1.952   0.393   0.542  0.2665  1.9521  0.8382
  375SOL     OW 1123   2.448   2.262   1.087 -0.4108 -0.3981  0.0527
  375SOL    HW1 1124   2.514   2.240   1.010 -0.3791 -1.4235  1.9309
  375SOL    HW2 1125   2.485   2.222   1.179 -0.1166 -1.2482  1.6337
  376SOL     OW 1126   3.063   0.626   1.441 -0.4733 -0.6290  0.4237
  376SOL    HW1 1127   3.111   0.685   1.517 -0.9686 -0.7126 -0.0589
  376SOL    HW2 1128   2.965   0.608   1.462 -0.6871 -0.4715 -1.7707
  377SOL     OW 1129   2.243   2.877   0.355 -0.0911  0.3277  0.3048
  377SOL    HW1 1130   2.200   2.966   0.391 -1.7080  2.3151  1.2949
  377SOL    HW2 1131   2.347   2.872   0.366  0.4507 -1.0457 -2.8450
  378SOL     OW 1132   1.891   1.874   2.656 -0.2750  0.2182 -0.2655
  378SOL    HW1 1133   1.950   1.794   2.688 -0.2525  0.6387  0.8846
  378SOL    HW2 1134   1.859   1.852   2.558 -1.0512  2.8956 -1.6248
  379SOL     OW 1135   0.874   0.100   2.702  0.3152  0.3823 -0.1078
  379SOL    HW1 1136   0.827   0.013   2.674 -3.3918 -0.5042  1.9635
  379SOL    HW2 1137   0.827   0.182   2.664 -0.8819 -0.5174  0.7917
  380SOL     OW 1138   1.540   1.169   0.564  0.0654 -0.4389  0.3572
  380SOL    HW1 1139   1.466   1.120   0.512  1.9656  1.0530 -3.0243
  380SOL    HW2 1140   1.533   1.147   0.666 -0.8548 -2.9574  2.9613
  381SOL     OW 1141   1.270   1.203   1.498  0.3504 -0.1146  0.2057
  381SOL    HW1 1142   1.305   1.244   1.406 -1.2359  2.1381 -1.2790
  381SOL    HW2 1143   1.327   1.233   1.581 -1.9285 -0.1018 -0.9711
  382SOL     OW 1144   1.746   0.814   0.293 -0.7753  0.4267 -0.0918
  382SOL    HW1 1145   1.772   0.813   0.192  0.5647  1.0686  0.0619
  382SOL    HW2 1146   1.812   0.760   0.353  2.3532 -0.5482  0.8622
  383SOL     OW 1147   2.627   1.005   1.516 -0.1781  0.5086 -0.1825
  383SOL    HW1 1148   2.540   0.969   1.467  1.2137 -1.8641  3.5328
  383SOL    HW2 1149   2.713   0.990   1.459  1.3604 -0.5035 -2.3702
  384SOL     OW 1150   1.002   2.267   0.159 -0.6010 -0.3194  0.1756
  384SOL    HW1 1151   0.937   2.351   0.170 -1.9945  1.6324  1.1667
  384SOL    HW2 1152   0.973   2.194   0.218 -0.5353 -0.2535 -4.6642
  385SOL     OW 1153   3.029   2.042   1.697  0.0393 -0.9281  0.1188
  385SOL    HW1 1154   3.101   2.105   1.732 -2.1712 -2.1873 -1.3496
  385SOL    HW2 1155   3.060   1.961   1.639  0.8251  2.7178  3.5700
  386SOL     OW 1156   0.447   1.098   0.432 -0.1457  0.6865  0.3085
  386SOL    HW1 1157   0.456   0.998   0.429 -3.0094 -0.1422 -0.0598
  386SOL    HW2 1158   0.379   1.132   0.360  0.9002  2.1738  1.2586
  387SOL     OW 1159   0.962   0.353   1.682 -0.0129  0.0079  0.4262
  387SOL    HW1 1160   1.023   0.435   1.652 -0.7486 -0.9577  1.1801
  387SOL    HW2 1161   0.963   0.271   1.616  0.7010 -4.3694 -0.3274
  388SOL     OW 1162   1.226   2.578   1.764 -0.3526  0.0073  0.0192
  388SOL    HW1 1163   1.219   2.562   1.662 -2.1714  0.5426  2.9021
  388SOL    HW2 1164   1.289   2.509   1.805 -2.0399  0.4642 -0.4545
  389SOL     OW 1165   0.242   3.103   1.125 -0.2035 -0.6898 -0.2783
  389SOL    HW1 1166   0.191   3.085   1.216  1.0541 -0.0028  0.5205
  389SOL    HW2 1167   0.307   3.028   1.111  0.9888  0.5515 -0.5392
  390SOL     OW 1168   1.013   0.828   1.262 -0.3825 -0.0018  0.6231
  390SOL    HW1 1169   1.115   0.816   1.244 -2.4324 -0.2489 -1.7515
  390SOL    HW2 1170   0.982   0.819   1.360 -2.3128  0.1812  2.4092
  391SOL     OW 1171   2.144   1.174   1.013  0.1492 -0.2498 -0.0303
  391SOL    HW1 1172   2.067   1.110   1.047 -1.5191 -1.9773  1.3756
  391SOL    HW2 1173   2.206   1.132   0.939 -0.5705  0.3824 -1.6390
  392SOL     OW 1174   0.898   2.669   3.092 -0.3930  0.2637 -0.1013
  392SOL    HW1 1175   0.822   2.662   3.163  1.1228 -0.9493 -1.2979
  392SOL    HW2 1176   0.983   2.717   3.127 -1.1825 -1.1495 -1.4014
  393SOL     OW 1177   0.334   0.583   1.986 -0.1759  0.4490 -0.4394
  393SOL    HW1 1178   0.249   0.546   1.935 -1.4416 -0.7451  0.8542
  393SOL    HW2 1179   0.424   0.558   1.936  0.2121  1.5563 -0.2496
  394SOL     OW 1180   2.821   1.775   2.765 -0.3596  0.3292  0.4777
  394SOL    HW1 1181   2.896   1.798   2.695  0.2384  2.1965 -3.3768
  394SOL    HW2 1182   2.756   1.856   2.775 -1.5517  0.7453  2.6452
  395SOL     OW 1183   1.608   1.942   0.661  0.1338  0.0215 -0.1576
  395SOL    HW1 1184   1.697   1.886   0.641 -1.4568 -2.6186 -0.7754
  395SOL    HW2 1185   1.615   1.986   0.758 -1.8392  1.9761  1.2311
  396SOL     OW 1186   2.761   2.035   1.302 -0.6660  0.5658  0.0053
  396SOL    HW1 1187   2.786   2.035   1.404 -0.2623 -0.2878  0.4140
  396SOL    HW2 1188   2.670   2.077   1.288 -0.6660 -2.5943  1.8721
  397SOL     OW 1189   0.999   2.128   0.655  0.1145  0.2807  0.2261
  397SOL    HW1 1190   0.943   2.096   0.570  2.0209 -1.1666 -1.3402
  397SOL    HW2 1191   0.951   2.196   0.712  1.1952 -0.7256 -1.7431
  398SOL     OW 1192   2.167   0.023   1.099  0.1544  0.0045  0.4812
  398SOL    HW1 1193   2.167  -0.077   1.113  2.2588 -0.3034 -1.4419
  398SOL    HW2 1194   2.074   0.063   1.065 -1.1183 -0.4812  0.1818
  399SOL     OW 1195   2.884   2.607   2.776  0.4795  0.0237  0.4558
  399SOL    HW1 1196   2.848   2.561   2.690 -0.2657 -2.3855 -2.0522
  399SOL    HW2 1197   2.879   2.543   2.860  0.7114  1.6695  2.1012
  400SOL     OW 1198   0.806   1.588   1.269  0.1128  0.2907  0.1550
  400SOL    HW1 1199   0.780   1.643   1.355  0.3234 -0.3042  1.6140
  400SOL    HW2 1200   0.797   1.639   1.180  1.9837  0.5155 -0.3093
  401SOL     OW 1201   1.850   0.090   1.304 -0.2763 -0.0461 -0.0566
  401SOL    HW1 1202   1.907   0.154   1.366  1.6576  0.0531  0.4010
  401SOL    HW2 1203   1.762   0.056   1.351 -0.9491 -0.6871 -3.0233
  402SOL     OW 1204   1.333   0.192   3.043 -0.0740 -0.1901  0.3422
  402SOL    HW1 1205   1.432   0.178   3.069 -3.3121 -0.9854  0.8653
  402SOL    HW2 1206   1.284   0.288   3.070 -3.2994 -1.7083 -0.8635
  403SOL     OW 1207   2.249   1.785   1.007 -0.1020 -0.1534 -0.3503
  403SOL    HW1 1208   2.352   1.800   1.035  0.6957 -2.9506 -0.8202
  403SOL    HW2 1209   2.186   1.858   1.045  1.3235  1.2125  1.9868
  404SOL     OW 1210   0.195   2.448   2.761 -0.2756 -0.1963  0.4525
  404SOL    HW1 1211   0.294   2.444   2.721 -2.3573  1.6845 -2.3788
  404SOL    HW2 1212   0.157   2.547   2.773  1.0083  2.3922  1.7431
  405SOL     OW 1213   0.237   2.479   0.574  0.4093 -0.1488  0.3370
  405SOL    HW1 1214   0.221   2.448   0.479 -0.5047 -1.1189  1.0286
  405SOL    HW2 1215   0.301   2.558   0.583 -0.9197 -1.8033 -1.4171
  406SOL     OW 1216   0.017   1.544   2.980  0.1188 -0.4985 -0.0912
  406SOL    HW1 1217   0.077   1.495   2.913  1.6998 -1.9408  0.6543
  406SOL    HW2 1218   0.047   1.521   3.078 -0.1587  1.0706  0.5308
  407SOL     OW 1219   1.551   0.953   0.963 -0.1938 -0.2035 -0.0548
  407SOL    HW1 1220   1.582   0.926   0.868  0.5953  1.3937  0.1042
  407SOL    HW2 1221   1.482   1.029   0.964 -0.8175 -1.4329  1.6550
  408SOL     OW 1222   1.464   2.359   0.923  0.2481 -0.2034 -0.0019
  408SOL    HW1 1223   1.541   2.369   0.855 -2.1139  1.2552 -2.7558
  408SOL    HW2 1224   1.462   2.428   0.995  4.5259 -2.5857 -1.3181
  409SOL     OW 1225   0.609   0.872   0.690 -0.1089  0.0768 -0.0637
  409SOL    HW1 1226   0.544   0.898   0.614  1.1081  1.0894  2.1846
  409SOL    HW2 1227   0.633   0.769   0.683 -0.7866  1.5182 -1.7991
  410SOL     OW 1228   1.320   2.001   1.495 -0.4994 -0.1635 -0.1382
  410SOL    HW1 1229   1.315   2.083   1.559 -1.4023  0.7172  0.7557
  410SOL    HW2 1230   1.226   1.950   1.468 -1.8331 -0.7124  0.1105
  411SOL     OW 1231   2.348   1.857   0.044  0.0078 -0.1547 -0.4236
  411SOL    HW1 1232   2.276   1.841  -0.027  0.8875  2.2741  1.6523
  411SOL    HW2 1233   2.445   1.874   0.010  0.9657  1.0114 -2.3882
  412SOL     OW 1234   1.530   2.418   2.285 -0.4029  0.0975 -0.2209
  412SOL    HW1 1235   1.507   2.520   2.266 -4.1522  1.5902  1.4547
  412SOL    HW2 1236   1.465   2.375   2.354 -1.2686  0.1637  0.7723
  413SOL     OW 1237   3.019   0.281   2.878 -0.2435 -0.0059 -0.4162
  413SOL    HW1 1238   2.986   0.182   2.904 -2.2172  1.7483  1.1391
  413SOL    HW2 1239   3.123   0.286   2.889  0.4829 -0.9022  1.8493
  414SOL     OW 1240   1.765   1.309   1.332  0.0685  0.3690  0.1379
  414SOL    HW1 1241   1.705   1.392   1.351 -2.3677  5.0076 -0.7283
  414SOL    HW2 1242   1.789   1.301   1.231  2.2248  0.3356  1.6607
  415SOL     OW 1243   0.320   2.265   0.706  0.8403 -0.5612 -0.4970
  415SOL    HW1 1244   0.293   2.360   0.669  0.3876  2.3467 -1.9614
  415SOL    HW2 1245   0.252   2.188   0.708 -0.0840  1.1049 -2.2778
  416SOL     OW 1246   0.325   1.027   1.049  0.4478  0.4902 -0.3288
  416SOL    HW1 1247   0.298   0.996   0.956  0.1866 -0.1550  2.6663
  416SOL    HW2 1248   0.427   1.056   1.059  2.3199 -2.0155  2.4861
  417SOL     OW 1249   2.177   2.324   1.866 -0.2501 -0.2364 -0.3733
  417SOL    HW1 1250   2.214   2.229   1.894  1.3624 -1.1281 -0.8363
  417SOL    HW2 1251   2.074   2.323   1.864 -1.9880  3.0660  0.0206
  418SOL     OW 1252   1.122   0.445   1.380  0.2841 -0.7533  0.1171
  418SOL    HW1 1253   1.024   0.413   1.353 -1.3711 -0.2502 -1.2904
  418SOL    HW2 1254   1.185   0.451   1.293 -4.0865  0.8733  1.2721
  419SOL     OW 1255   0.979   0.358   2.993  0.5156  0.0517  0.4730
  419SOL    HW1 1256   1.005   0.397   2.900 -1.1341 -0.6046 -0.5558
  419SOL    HW2 1257   0.943   0.259   2.994  0.4908 -0.9839  1.2762
  420SOL     OW 1258   0.195   2.290   0.361  0.2627  0.1704 -0.0551
  420SOL    HW1 1259   0.176   2.238   0.278  0.7401 -0.1399 -1.5411
  420SOL    HW2 1260   0.122   2.278   0.435  0.9622  1.0546  1.4566
  421SOL     OW 1261   0.335   0.062   0.685  0.3845 -0.3898 -0.0601
  421SOL    HW1 1262   0.323  -0.012   0.614 -2.2330  1.4301 -0.4965
  421SOL    HW2 1263   0.436   0.088   0.698 -0.2040 -1.4306 -0.2578
  422SOL     OW 1264   0.940   2.515   1.037 -0.0389 -0.4770 -0.0462
  422SOL    HW1 1265   0.935   2.599   0.971 -0.6145  1.7182  0.6907
  422SOL    HW2 1266   0.976   2.539   1.130  0.0636  2.5007 -0.4149
  423SOL     OW 1267   0.055   0.716   1.202 -0.3832 -0.4851  0.1792
  423SOL    HW1 1268   0.026   0.685   1.302  0.1505 -1.3120  1.9434
  423SOL    HW2 1269  -0.026   0.714   1.139  1.9364 -2.3322  2.6415
  424SOL     OW 1270   0.986   2.143   2.216  0.2410  0.1519  0.0143
  424SOL    HW1 1271   0.929   2.156   2.130  0.3314  2.2458  0.5512
  424SOL    HW2 1272   0.931   2.160   2.304 -0.3254  0.8677  1.9081
  425SOL     OW 1273   2.019   1.441   1.078  0.3548 -0.1177  0.1182
  425SOL    HW1 1274   2.096   1.372   1.060 -1.2677  1.5928 -1.2632
  425SOL    HW2 1275   2.024   1.507   0.995  1.8438 -0.4129 -1.8769
  426SOL     OW 1276   1.570   1.527   1.406  0.0618 -0.7247 -0.2778
  426SOL    HW1 1277   1.536   1.615   1.368 -0.5370 -0.2286  0.6839
  426SOL    HW2 1278   1.560   1.525   1.509  0.5317 -0.8085  1.6348
  427SOL     OW 1279   1.931   2.345   2.040  0.3349  0.3924  0.1395
  427SOL    HW1 1280   1.966   2.284   2.122  0.3939 -3.3687  0.2956
  427SOL    HW2 1281   1.970   2.442   2.038 -0.4661 -1.2744 -0.3602
  428SOL     OW 1282   0.940   3.063   0.093 -0.0845  0.0661  0.1051
  428SOL    HW1 1283   0.994   3.149   0.121 -0.4329 -0.5888  2.1885
  428SOL    HW2 1284   1.003   2.978   0.085  2.4968 -2.8654  0.8592
  429SOL     OW 1285   1.310   0.035   0.219 -0.1581 -0.8127 -0.5550
  429SOL    HW1 1286   1.397   0.088   0.218 -0.7712  0.2492  0.6192
  429SOL    HW2 1287   1.310  -0.041   0.151  0.3654  0.2276  3.3998
  430SOL     OW 1288   2.798   1.485   0.355  0.3375 -0.2555  0.5997
  430SOL    HW1 1289   2.854   1.550   0.292  2.4502  1.1321 -1.9551
  430SOL    HW2 1290   2.776   1.523   0.450  0.0829 -1.4491 -0.7053
  431SOL     OW 1291   2.100   1.598   0.875  0.1181  0.0538 -0.0988
  431SOL    HW1 1292   2.167   1.643   0.942 -1.3349 -0.8974  0.4756
  431SOL    HW2 1293   2.023   1.666   0.852 -1.7226 -0.9409  1.0415
  432SOL     OW 1294   2.885   2.333   1.234  0.4726  0.2811  0.3876
  432SOL    HW1 1295   2.817   2.261   1.257  2.4296 -0.8856  1.7226
  432SOL    HW2 1296   2.941   2.354   1.316 -4.0257  0.3513 -0.6065
  433SOL     OW 1297   1.854   0.277   0.809 -0.1542 -0.0532 -0.0471
  433SOL    HW1 1298   1.766   0.285   0.861  0.5895  0.9495 -1.4163
  433SOL    HW2 1299   1.926   0.227   0.864 -0.4761  3.5972 -1.4588
  434SOL     OW 1300   1.535   0.246   0.716  0.3997 -0.1776  0.2647
  434SOL    HW1 1301   1.536   0.339   0.678 -1.8533  0.6371 -1.8160
  434SOL    HW2 1302   1.578   0.244   0.815  0.7809  3.3881  0.0934
  435SOL     OW 1303   1.427   1.483   2.107 -0.3941  0.3577  0.5041
  435SOL    HW1 1304   1.374   1.471   2.192  1.8883  2.2397 -0.5380
  435SOL    HW2 1305   1.406   1.568   2.058 -0.3828 -0.4165  0.8231
  436SOL     OW 1306   1.644   2.692   2.377 -0.4166  0.1966 -0.1541
  436SOL    HW1 1307   1.649   2.785   2.425 -0.9638  1.3647  0.9003
  436SOL    HW2 1308   1.607   2.613   2.436  1.7194  0.3638  0.9793
  437SOL     OW 1309   1.005   2.983   0.836  0.3612 -0.2216 -0.5342
  437SOL    HW1 1310   0.948   3.067   0.855  4.2160  0.9704 -2.3832
  437SOL    HW2 1311   1.068   2.964   0.913 -0.1866  0.8877  0.1850
  438SOL     OW 1312   1.006   2.516   1.334  0.0538  0.1099  0.0806
  438SOL    HW1 1313   1.069   2.575   1.392  2.3685  2.0175 -0.1893
  438SOL    HW2 1314   1.006   2.413   1.360 -1.4213 -3.1217 -1.8700
  439SOL     OW 1315   0.701   1.711   1.047  0.0804 -0.0614 -0.5506
  439SOL    HW1 1316   0.755   1.800   1.027 -2.7637 -0.5759 -1.1153
  439SOL    HW2 1317   0.617   1.725   1.106  2.2736 -0.0796  1.3533
  440SOL     OW 1318   0.987   2.360   1.981  1.0380 -0.3414 -0.1095
  440SOL    HW1 1319   0.930   2.418   1.916  0.5431  0.2960  0.0215
  440SOL    HW2 1320   1.083   2.387   1.980  1.4065 -1.0948 -1.4040
  441SOL     OW 1321   0.377   2.762   1.295 -0.3647  0.2132 -0.3052
  441SOL    HW1 1322   0.409   2.663   1.293 -1.5211  0.9458  1.3327
  441SOL    HW2 1323   0.396   2.814   1.209  2.1815 -1.1287  2.4392
  442SOL     OW 1324   2.243   0.660   2.562  0.2715 -0.1849  0.0605
  442SOL    HW1 1325   2.234   0.558   2.541 -1.9546  0.2143  3.3156
  442SOL    HW2 1326   2.164   0.721   2.531 -0.2593  1.3357 -1.3045
  443SOL     OW 1327   1.245   2.527   2.203 -0.1735  0.4428  0.0043
  443SOL    HW1 1328   1.243   2.434   2.250 -1.9407  0.7218 -0.2709
  443SOL    HW2 1329   1.193   2.598   2.259  1.4254 -0.4270 -1.6653
  444SOL     OW 1330   0.995   1.194   1.480  0.0643 -0.4059 -0.0823
  444SOL    HW1 1331   1.101   1.190   1.491  1.5856  1.2192  1.1626
  444SOL    HW2 1332   0.963   1.293   1.456  0.9860  0.5379 -0.5052
  445SOL     OW 1333   0.179   2.242   2.120  0.5067  0.1632 -0.0147
  445SOL    HW1 1334   0.080   2.254   2.088 -2.4130  2.3841  1.1190
  445SOL    HW2 1335   0.186   2.233   2.226  0.0826 -1.7353  0.4759
  446SOL     OW 1336   0.102   1.947   2.373  0.0517 -0.2792 -0.2303
  446SOL    HW1 1337   0.053   2.036   2.354 -0.3165  0.7762  0.6966
  446SOL    HW2 1338   0.122   1.907   2.276  1.4160  2.2631 -3.1620
  447SOL     OW 1339   1.300   1.716   1.901 -0.2680  0.1510 -0.2023
  447SOL    HW1 1340   1.221   1.781   1.887 -0.6874  0.0993  2.7351
  447SOL    HW2 1341   1.377   1.764   1.955 -1.4207  2.4271  0.5093
  448SOL     OW 1342   0.173   1.469   2.029 -0.0302 -0.2570  0.3607
  448SOL    HW1 1343   0.179   1.567   1.983 -0.6985 -0.0765 -0.2769
  448SOL    HW2 1344   0.095   1.462   2.096  0.6815  2.4493 -1.1824
  449SOL     OW 1345   1.818   2.937   0.822 -0.1689 -0.4031 -0.5238
  449SOL    HW1 1346   1.819   2.977   0.920 -2.1385  2.0890  0.6412
  449SOL    HW2 1347   1.878   2.850   0.812 -1.7122  0.6561 -1.8973
  450SOL     OW 1348   2.238   1.457   0.669  0.3051 -0.0655 -0.5040
  450SOL    HW1 1349   2.173   1.491   0.746  1.7619 -0.0923  1.7809
  450SOL    HW2 1350   2.270   1.534   0.604 -0.3663  0.0150  0.0994
  451SOL     OW 1351   1.409   2.988   1.479 -0.3531  0.6705 -0.1268
  451SOL    HW1 1352   1.330   3.046   1.513 -0.5139  1.2066 -0.2328
  451SOL    HW2 1353   1.452   2.931   1.563  1.0853 -0.6323  1.1369
  452SOL     OW 1354   2.709   2.305   2.270  0.0199  0.4121 -0.3418
  452SOL    HW1 1355   2.637   2.381   2.277 -2.4680 -0.3402  0.2246
  452SOL    HW2 1356   2.743   2.270   2.361  1.5119 -1.2232 -0.2769
  453SOL     OW 1357   2.450   2.664   3.083 -0.1181  0.4895 -0.4689
  453SOL    HW1 1358   2.358   2.703   3.098  4.5367 -2.5476  0.3437
  453SOL    HW2 1359   2.455   2.583   3.015  0.6916 -0.6054  2.3110
  454SOL     OW 1360   0.939   1.187   2.025  0.0930 -0.4422  0.2745
  454SOL    HW1 1361   0.887   1.172   1.936 -1.8999 -0.9073  0.9896
  454SOL    HW2 1362   1.015   1.257   2.009 -0.9982  0.2369  0.5772
  455SOL     OW 1363   0.686   2.608   2.797 -0.4393  0.1443 -0.4961
  455SOL    HW1 1364   0.779   2.643   2.799 -2.2380 -0.4733 -1.0461
  455SOL    HW2 1365   0.682   2.533   2.869 -3.0748 -2.2995 -2.1538
  456SOL     OW 1366   0.311   1.929   0.232  0.5341 -0.0954  0.3752
  456SOL    HW1 1367   0.413   1.912   0.222  0.6032 -0.0950  0.3178
  456SOL    HW2 1368   0.285   2.027   0.212  0.7219 -0.4401 -0.5883
  457SOL     OW 1369   0.392   2.723   0.685 -0.1673  0.5562  0.2466
  457SOL    HW1 1370   0.363   2.808   0.638  1.5983  2.1814  0.1559
  457SOL    HW2 1371   0.495   2.721   0.699 -0.7476 -0.7154 -0.9109
  458SOL     OW 1372   2.943   0.039   1.260  0.0076  0.0887  0.1399
  458SOL    HW1 1373   2.968   0.137   1.234 -0.5224  0.9791 -0.1936
  458SOL    HW2 1374   2.926  -0.021   1.180  1.8737  1.8089 -1.7427
  459SOL     OW 1375   2.150   2.491   0.738  0.5587 -0.5262  0.5483
  459SOL    HW1 1376   2.174   2.502   0.838 -1.1326 -0.6442  2.2174
  459SOL    HW2 1377   2.237   2.494   0.679 -0.3419  0.6366 -1.8269
  460SOL     OW 1378   1.150   2.041   2.767 -0.0276  0.2611  0.1663
  460SOL    HW1 1379   1.182   2.083   2.676  0.9778  0.2566 -0.6604
  460SOL    HW2 1380   1.195   1.951   2.796 -0.1007  1.5531  0.3423
  461SOL     OW 1381   0.468   2.135   2.712  0.0899 -0.3250 -0.1738
  461SOL    HW1 1382   0.455   2.072   2.627 -2.3220  2.0418  1.6060
  461SOL    HW2 1383   0.476   2.078   2.803  0.7194  0.5019  0.8945
  462SOL     OW 1384   0.949   1.018   1.751  0.1651  0.0265  0.1329
  462SOL    HW1 1385   0.929   0.941   1.683  0.5579  0.6254  0.3044
  462SOL    HW2 1386   0.886   1.101   1.735 -0.0152 -1.8545 -0.8005
  463SOL     OW 1387   0.443   0.806   0.463  0.3202 -0.3900 -0.3259
  463SOL    HW1 1388   0.480   0.723   0.412  0.6349  3.1964  0.5250
  463SOL    HW2 1389   0.341   0.802   0.476  1.5772  0.7559  1.4880
  464SOL     OW 1390   0.601   2.351   2.259 -0.2658 -0.3282 -0.5204
  464SOL    HW1 1391   0.536   2.385   2.334 -1.8958 -1.3280  1.1135
  464SOL    HW2 1392   0.583   2.396   2.166 -0.2704  0.8651 -1.6093
  465SOL     OW 1393   0.230   0.940   0.786  0.1741 -0.9909  0.0664
  465SOL    HW1 1394   0.138   0.973   0.746 -0.4913 -3.2038  0.1221
  465SOL    HW2 1395   0.253   0.842   0.763 -1.3127  0.8139 -0.4419
  466SOL     OW 1396   1.334   1.156   1.015  0.2447  0.1460  0.1090
  466SOL    HW1 1397   1.323   1.257   1.005  3.0292 -0.8381  1.2943
  466SOL    HW2 1398   1.247   1.111   1.051  0.2605 -0.3681  1.9791
  467SOL     OW 1399   0.624   0.444   2.526 -0.0116 -0.8936 -0.3280
  467SOL    HW1 1400   0.547   0.513   2.525  0.3699 -2.9290  2.4326
  467SOL    HW2 1401   0.606   0.363   2.591  0.5946 -1.5660 -0.5727
  468SOL     OW 1402   0.457   2.262   1.592 -0.4380 -0.2133  0.1402
  468SOL    HW1 1403   0.533   2.323   1.631 -1.1705  1.7570 -1.4478
  468SOL    HW2 1404   0.482   2.214   1.502 -1.7461 -0.8381 -0.4669
  469SOL     OW 1405   1.423   1.352   1.211 -0.5282  0.0913  0.0685
  469SOL    HW1 1406   1.472   1.320   1.131  1.0696  1.0211  0.5031
  469SOL    HW2 1407   1.481   1.424   1.264  0.8011  2.6249 -0.7906
  470SOL     OW 1408   3.009   1.811   0.786  0.1871 -0.1971 -0.6193
  470SOL    HW1 1409   3.069   1.888   0.759 -0.9693  0.0848  0.6028
  470SOL    HW2 1410   3.056   1.762   0.868  1.8137  3.0193  2.3136
  471SOL     OW 1411   2.626   1.382   2.192 -0.4568  0.1186  0.1545
  471SOL    HW1 1412   2.616   1.281   2.209  0.0152 -0.0520  0.4043
  471SOL    HW2 1413   2.712   1.417   2.235 -1.1021 -1.8062 -1.9096
  472SOL     OW 1414   1.150   2.486   0.059 -0.2842  0.5827  0.5511
  472SOL    HW1 1415   1.221   2.518   0.125 -0.2113 -0.1411  0.2380
  472SOL    HW2 1416   1.116   2.390   0.082 -2.2763  0.3259  1.4578
  473SOL     OW 1417   1.084   1.532   1.006 -0.1083  0.1985  0.2483
  473SOL    HW1 1418   0.995   1.542   0.953 -1.2497 -0.7280 -0.8705
  473SOL    HW2 1419   1.088   1.454   1.075 -0.9725  2.4553  2.3068
  474SOL     OW 1420   0.641   1.282   0.519  0.1993 -0.1280  0.3185
  474SOL    HW1 1421   0.585   1.207   0.480 -0.9179  1.5428 -0.3363
  474SOL    HW2 1422   0.717   1.250   0.584  2.7090  2.0687 -0.9104
  475SOL     OW 1423   2.821   0.055   0.807  0.0605 -0.2127 -0.0985
  475SOL    HW1 1424   2.890   0.129   0.831 -1.3152  1.4729 -1.0261
  475SOL    HW2 1425   2.728   0.099   0.815  0.2480  2.8445 -2.6941
  476SOL     OW 1426   0.963   3.075   1.810  0.1638  0.2876 -0.1868
  476SOL    HW1 1427   1.068   3.089   1.809  0.5915  0.1399 -1.6140
  476SOL    HW2 1428   0.926   3.048   1.715 -0.5181 -3.4883 -0.8480
  477SOL     OW 1429   1.431   0.328   2.422 -0.3108  0.1211 -0.1781
  477SOL    HW1 1430   1.430   0.343   2.526 -1.4108  1.3578  0.8177
  477SOL    HW2 1431   1.501   0.257   2.389  0.1490  0.5476  1.0999
  478SOL     OW 1432   2.217   1.896   0.278  0.1031 -0.0536  0.0626
  478SOL    HW1 1433   2.179   1.807   0.321  2.7251  2.4071  2.1841
  478SOL    HW2 1434   2.286   1.872   0.202  2.0930 -0.1150 -2.1837
  479SOL     OW 1435   1.300   0.937   2.902 -0.6243  0.4943 -0.0721
  479SOL    HW1 1436   1.390   0.940   2.853 -2.7541  2.2472 -2.0510
  479SOL    HW2 1437   1.244   0.856   2.870 -0.8693 -0.9599  1.1994
  480SOL     OW 1438   2.670   2.304   0.389 -0.6982  0.0687 -0.4670
  480SOL    HW1 1439   2.732   2.239   0.441  0.1132  0.9508  1.6578
  480SOL    HW2 1440   2.565   2.290   0.400 -0.5424  1.6820  1.3563
  481SOL     OW 1441   1.002   1.153   0.872  0.6891 -0.0856  0.4484
  481SOL    HW1 1442   1.035   1.252   0.868 -1.3745  0.6484 -0.0623
  481SOL    HW2 1443   0.987   1.121   0.967 -0.3502 -0.3516 -0.0485
  482SOL     OW 1444   1.617   0.286   2.010 -0.4400 -0.2527 -0.2294
  482SOL    HW1 1445   1.646   0.385   2.005 -2.4065 -0.5715 -1.4400
  482SOL    HW2 1446   1.692   0.225   2.043 -0.4710  0.4161 -1.7935
  483SOL     OW 1447   0.194   2.347   1.190  0.9445 -0.3969  0.2906
  483SOL    HW1 1448   0.167   2.420   1.264  1.2611  1.0190 -1.2733
  483SOL    HW2 1449   0.213   2.402   1.106  1.9453  0.8446  0.6205
  484SOL     OW 1450   1.712   1.054   1.413 -0.3769 -0.2402 -1.0289
  484SOL    HW1 1451   1.806   1.014   1.434  0.5208  0.4854  1.1207
  484SOL    HW2 1452   1.720   1.155   1.380 -0.6861 -0.4067  0.1277
  485SOL     OW 1453   0.766   0.774   1.906 -0.1005 -0.0519 -0.6390
  485SOL    HW1 1454   0.733   0.798   1.811  1.1259 -1.0915  1.7539
  485SOL    HW2 1455   0.867   0.738   1.908  0.3922  1.1223  0.9709
  486SOL     OW 1456   0.880   1.874   2.437 -0.1217 -0.3492 -0.6458
  486SOL    HW1 1457   0.887   1.883   2.537 -1.3552 -1.9111  0.0328
  486SOL    HW2 1458   0.857   1.964   2.387  0.9452 -0.1677 -0.7897
  487SOL     OW 1459   1.763   1.598   1.071  0.1011  0.3718 -0.2865
  487SOL    HW1 1460   1.811   1.507   1.091 -1.9120 -0.7510 -0.9634
  487SOL    HW2 1461   1.816   1.669   1.015  1.3806  0.0647 -1.1608
  488SOL     OW 1462   2.921   0.798   2.264  0.1682  0.2912  0.2276
  488SOL    HW1 1463   3.003   0.733   2.278 -0.5677 -0.6565 -0.5957
  488SOL    HW2 1464   2.859   0.797   2.347  1.5551 -1.0188  1.7640
  489SOL     OW 1465   2.777   0.347   1.291  0.2332 -0.1986 -0.3292
  489SOL    HW1 1466   2.779   0.309   1.388  0.4808  1.8549  0.6083
  489SOL    HW2 1467   2.872   0.333   1.248 -0.9044 -0.9845 -0.3241
  490SOL     OW 1468   1.460   2.947   2.809 -0.4632 -0.1064 -0.4875
  490SOL    HW1 1469   1.518   2.860   2.803  0.9625 -0.1927 -0.6314
  490SOL    HW2 1470   1.433   2.978   2.713 -1.2975 -2.5349 -2.4458
  491SOL     OW 1471   1.779   1.467   2.731 -0.2635  0.5062  0.2421
  491SOL    HW1 1472   1.739   1.424   2.815 -0.5022 -0.1614 -0.9276
  491SOL    HW2 1473   1.859   1.531   2.741 -0.3573  0.9787  2.1209
  492SOL     OW 1474   0.566   2.102   0.608 -0.3253  0.0186  0.5312
  492SOL    HW1 1475   0.611   2.077   0.695  1.7943 -0.9645  2.3593
  492SOL    HW2 1476   0.476   2.158   0.624 -0.9863  2.0784  0.9890
  493SOL     OW 1477   0.418   1.329   2.086  0.4346  0.4396 -0.0377
  493SOL    HW1 1478   0.334   1.382   2.056  1.9212  0.8590  1.5919
  493SOL    HW2 1479   0.400   1.239   2.141  1.1064 -1.5350 -3.7105
  494SOL     OW 1480   2.722   2.651   0.106  0.0253  0.1966 -0.0104
  494SOL    HW1 1481   2.727   2.622   0.203  1.9788 -0.6351 -0.6983
  494SOL    HW2 1482   2.630   2.670   0.066 -0.7978 -1.0718  0.1232
  495SOL     OW 1483   2.544   2.823   2.645  0.1127 -0.0058  0.0487
  495SOL    HW1 1484   2.566   2.723   2.667  2.0104  2.9017  1.3970
  495SOL    HW2 1485   2.593   2.853   2.563  0.2184 -1.6369  2.4240
  496SOL     OW 1486   1.937   2.289   0.840 -0.2647 -1.1847  0.1682
  496SOL    HW1 1487   2.005   2.339   0.906  1.9988  0.8243 -1.9098
  496SOL    HW2 1488   1.969   2.197   0.813 -1.0021  0.8476  0.9317
  497SOL     OW 1489   0.222   3.010   2.345 -0.4592  0.6949  0.2127
  497SOL    HW1 1490   0.165   3.066   2.405  0.5779 -0.4093 -3.0821
  497SOL    HW2 1491   0.256   3.063   2.267 -2.5452 -1.6608  0.7427
  498SOL     OW 1492   1.142   1.355   1.205 -0.1461  0.0523 -0.1030
  498SOL    HW1 1493   1.249   1.346   1.204  0.2922  1.6859 -1.7505
  498SOL    HW2 1494   1.099   1.389   1.295  0.2395  4.9230  1.0476
  499SOL     OW 1495   0.593   1.842   0.341 -0.0913  0.1085 -0.0669
  499SOL    HW1 1496   0.631   1.772   0.275  2.1973 -0.4910 -0.8639
  499SOL    HW2 1497   0.673   1.894   0.381 -0.2755 -1.0731 -0.1893
  500SOL     OW 1498   1.541   2.838   1.651  0.1123  0.4453  0.7502
  500SOL    HW1 1499   1.553   2.805   1.749 -0.7672  1.9799 -1.9549
  500SOL    HW2 1500   1.545   2.758   1.587  1.1234  0.1672  3.5749
  501SOL     OW 1501   0.818   1.174   2.267  0.5070  0.0815  0.7205
  501SOL    HW1 1502   0.766   1.088   2.297 -0.7999  1.4456 -1.9813
  501SOL    HW2 1503   0.835   1.171   2.160  0.4033 -2.5801 -1.3720
  502SOL     OW 1504   2.597   0.907   1.801  0.2966 -0.1562 -0.1352
  502SOL    HW1 1505   2.622   0.948   1.704 -0.5872  2.0414 -4.4131
  502SOL    HW2 1506   2.571   0.808   1.798 -1.2804 -0.3388 -0.1379
  503SOL     OW 1507   1.294   0.106   0.692  0.7043  0.0017 -0.0944
  503SOL    HW1 1508   1.224   0.180   0.671 -0.7306 -0.4029 -0.1137
  503SOL    HW2 1509   1.387   0.152   0.697 -1.2094  0.6868  1.9820
  504SOL     OW 1510   3.005   2.335   1.471 -0.0851 -0.3688 -0.3078
  504SOL    HW1 1511   2.979   2.416   1.530  2.4083 -2.5023 -2.1295
  504SOL    HW2 1512   3.105   2.313   1.486  2.3528 -0.9373 -2.1014
  505SOL     OW 1513   2.298   1.148   1.501 -0.3147  0.6860 -0.2995
  505SOL    HW1 1514   2.272   1.174   1.407 -0.5208  0.0457  0.2689
  505SOL    HW2 1515   2.380   1.203   1.526 -1.1459 -2.1141  1.6377
  506SOL     OW 1516   1.945   0.165   1.853 -0.5696  0.2587 -1.0623
  506SOL    HW1 1517   2.047   0.152   1.837  0.2076 -1.5131  0.0490
  506SOL    HW2 1518   1.918   0.270   1.857  0.0383  1.2906  3.0169
  507SOL     OW 1519   0.499   0.720   2.219 -0.2037 -0.6020 -0.0550
  507SOL    HW1 1520   0.418   0.729   2.163  0.6244 -1.7752 -0.4460
  507SOL    HW2 1521   0.554   0.633   2.197 -0.5704 -0.7911  0.2504
  508SOL     OW 1522   0.272   1.673   0.811  0.2646  0.9132  0.0413
  508SOL    HW1 1523   0.300   1.724   0.727 -0.3856 -0.0035  1.3688
  508SOL    HW2 1524   0.274   1.732   0.892 -0.1149 -0.3010  0.2898
  509SOL     OW 1525   1.311   1.211   2.460  0.0172 -0.2464 -0.1475
  509SOL    HW1 1526   1.332   1.197   2.361 -0.1800 -3.4084  1.7774
  509SOL    HW2 1527   1.231   1.161   2.494  1.4703  1.2884 -0.2462
  510SOL     OW 1528   1.299   2.032   2.226  0.2311  0.0976  0.0519
  510SOL    HW1 1529   1.313   2.080   2.134 -1.7315  2.4788 -1.2588
  510SOL    HW2 1530   1.236   1.950   2.220  1.1233  2.1226 -0.4163
  511SOL     OW 1531   2.992   2.719   1.300  0.1415  0.8812 -0.5973
  511SOL    HW1 1532   3.033   2.743   1.207 -0.0651  0.4703 -0.7325
  511SOL    HW2 1533   2.893   2.687   1.299 -1.0583  1.9480 -1.8484
  512SOL     OW 1534   2.346   0.451   1.408 -0.0050 -0.0197 -0.3105
  512SOL    HW1 1535   2.245   0.450   1.387  0.5470 -1.7187  0.3886
  512SOL    HW2 1536   2.413   0.411   1.338 -0.2911  0.8406 -0.7680
  513SOL     OW 1537   2.553   2.084   0.837  0.7146  0.3180 -0.0892
  513SOL    HW1 1538   2.538   2.175   0.788  0.1348  0.3247  0.6095
  513SOL    HW2 1539   2.624   2.022   0.797 -2.1019  0.0917 -1.2390
  514SOL     OW 1540   0.625   2.714   0.448  0.2182 -0.2256 -0.7299
  514SOL    HW1 1541   0.653   2.750   0.359 -0.6840 -1.0032  1.2274
  514SOL    HW2 1542   0.653   2.774   0.527 -0.3721 -0.5433  0.6999
  515SOL     OW 1543   1.939   1.346   2.400 -0.1892 -0.0333  0.3085
  515SOL    HW1 1544   1.954   1.289   2.315  1.9328 -0.2654  0.1027
  515SOL    HW2 1545   1.864   1.301   2.453  1.6353 -0.2499 -0.4613
  516SOL     OW 1546   0.265   0.170   1.946 -0.3570  1.0608 -0.2665
  516SOL    HW1 1547   0.365   0.171   1.919  0.5760  1.7890 -1.5017
  516SOL    HW2 1548   0.206   0.114   1.876 -0.6416  0.6792 -1.8771
  517SOL     OW 1549   0.479   0.196   1.168  0.0513 -0.6461  0.4744
  517SOL    HW1 1550   0.551   0.142   1.216 -3.8561  0.7817  0.4145
  517SOL    HW2 1551   0.387   0.154   1.178  1.9008  1.3544 -0.5156
  518SOL     OW 1552   2.181   3.004   1.854  0.2615  0.1851  0.6165
  518SOL    HW1 1553   2.190   3.104   1.844  0.0087 -0.6706  1.9931
  518SOL    HW2 1554   2.178   2.959   1.762  1.7578  1.9270  2.0067
  519SOL     OW 1555   2.360   2.219   2.548  0.3959  0.1722  0.2248
  519SOL    HW1 1556   2.297   2.202   2.631  0.5242 -0.2987  1.4936
  519SOL    HW2 1557   2.363   2.322   2.524 -4.5330  1.7726 -0.1523
  520SOL     OW 1558   1.834   2.719   1.650  0.0822  0.0443  0.4894
  520SOL    HW1 1559   1.772   2.686   1.721 -0.4132  1.1697 -1.1733
  520SOL    HW2 1560   1.935   2.684   1.650  2.2676 -0.8893  1.0067
  521SOL     OW 1561   0.634   0.072   2.155 -0.9301 -0.0210 -0.2941
  521SOL    HW1 1562   0.534   0.044   2.159  2.1868  0.9453  1.5668
  521SOL    HW2 1563   0.684   0.023   2.233  0.4630 -0.0053 -0.1939
  522SOL     OW 1564   0.227   1.909   1.464  0.1747 -0.4630 -0.1898
  522SOL    HW1 1565   0.263   1.954   1.553 -0.1576 -0.6666  0.0311
  522SOL    HW2 1566   0.180   1.973   1.396  0.2498 -0.8991 -1.6557
  523SOL     OW 1567   2.184   2.928   1.569 -0.7751 -0.0708 -0.4945
  523SOL    HW1 1568   2.264   2.870   1.563  0.8335  0.3620  0.7653
  523SOL    HW2 1569   2.095   2.884   1.530 -1.9458  1.8042  0.0576
  524SOL     OW 1570   0.194   2.761   2.800 -0.3646 -0.0072  0.2155
  524SOL    HW1 1571   0.170   2.852   2.848 -1.0213 -0.4850 -2.7450
  524SOL    HW2 1572   0.292   2.757   2.758  2.0547 -0.8895 -4.1113
  525SOL     OW 1573   2.188   2.059   0.494 -0.4566 -0.4096 -0.2331
  525SOL    HW1 1574   2.189   2.011   0.589 -1.1635 -1.8712  0.6503
  525SOL    HW2 1575   2.201   1.994   0.419 -2.0069  0.8194  1.2069
  526SOL     OW 1576   0.433   1.535   1.737  0.4579  0.1926 -0.2237
  526SOL    HW1 1577   0.520   1.575   1.770  1.7946  0.8006 -1.3498
  526SOL    HW2 1578   0.428   1.431   1.727 -3.7229  3.1922 -1.2271
  527SOL     OW 1579   1.085   2.937   1.167 -0.2663 -0.1973  0.6390
  527SOL    HW1 1580   1.140   2.860   1.205  1.0627  1.7058  0.1686
  527SOL    HW2 1581   1.138   3.023   1.157 -2.2661 -3.5359  1.5632
  528SOL     OW 1582   1.287   2.417   0.592  0.0098  0.2531 -0.6166
  528SOL    HW1 1583   1.327   2.328   0.615  1.7092  0.5569 -2.2345
  528SOL    HW2 1584   1.339   2.500   0.642  1.4954  1.3168 -2.0007
  529SOL     OW 1585   1.891   1.758   0.863  0.2863  0.5245 -0.0036
  529SOL    HW1 1586   1.865   1.760   0.766  0.7675  0.1503  1.4203
  529SOL    HW2 1587   1.930   1.846   0.899 -0.0598 -0.8512  0.2369
  530SOL     OW 1588   0.411   2.469   0.186 -0.0576  0.5376 -0.1486
  530SOL    HW1 1589   0.422   2.434   0.285 -0.6251  2.9460 -0.3853
  530SOL    HW2 1590   0.433   2.395   0.116 -0.2481 -0.2626 -1.1358
  531SOL     OW 1591   1.831   0.993   1.037 -0.2214 -0.3037  0.1030
  531SOL    HW1 1592   1.838   1.028   0.940 -0.9059 -2.4109  0.4081
  531SOL    HW2 1593   1.734   0.964   1.053  0.9866  0.5247  1.2936
  532SOL     OW 1594   0.399   1.177   0.711  0.2863  0.0483 -0.0771
  532SOL    HW1 1595   0.422   1.163   0.614 -0.5221 -2.4149  0.3250
  532SOL    HW2 1596   0.333   1.102   0.741  0.3052 -0.2696 -2.0173
  533SOL     OW 1597   1.834   0.087   2.580  0.2880 -0.0689  0.3836
  533SOL    HW1 1598   1.938   0.076   2.593  2.2225  0.5625 -0.7804
  533SOL    HW2 1599   1.786   0.134   2.656 -0.6044 -0.5147 -0.5923
  534SOL     OW 1600   0.199   0.195   1.570 -0.3027  0.3297 -0.1610
  534SOL    HW1 1601   0.281   0.246   1.524  0.7588 -0.9541  1.4972
  534SOL    HW2 1602   0.110   0.256   1.574 -0.1489  1.3894 -0.6035
  535SOL     OW 1603   1.872   0.407   0.154  0.1707  0.1547  0.7307
  535SOL    HW1 1604   1.930   0.472   0.217 -0.1603  0.7239 -2.5763
  535SOL    HW2 1605   1.805   0.366   0.218 -0.5184  1.7422  2.5162
  536SOL     OW 1606   1.221   2.519   1.010  0.3335  0.5714  0.3250
  536SOL    HW1 1607   1.240   2.523   0.908  0.2716 -0.1240  2.4641
  536SOL    HW2 1608   1.122   2.496   1.029 -1.1303  0.1820  0.0746
  537SOL     OW 1609   0.880   0.232   2.313  0.1194 -0.4896  0.8131
  537SOL    HW1 1610   0.864   0.219   2.210  1.2720 -3.2901 -1.0499
  537SOL    HW2 1611   0.808   0.176   2.362 -1.3155 -1.2817  0.8957
  538SOL     OW 1612   1.701   2.306   1.575  0.1683  0.0646 -0.9442
  538SOL    HW1 1613   1.673   2.223   1.517 -1.1035  0.5147  2.9165
  538SOL    HW2 1614   1.768   2.368   1.530  0.3055  0.4255  1.0172
  539SOL     OW 1615   0.166   1.583   2.709  0.1950  0.3627  0.0112
  539SOL    HW1 1616   0.082   1.547   2.654 -1.5290  3.6911 -1.6530
  539SOL    HW2 1617   0.158   1.683   2.734 -1.7653  2.8523 -1.6825
  540SOL     OW 1618   2.682   1.742   2.122  0.1245 -0.7335 -0.6986
  540SOL    HW1 1619   2.664   1.647   2.081  1.6430 -0.1113  2.3250
  540SOL    HW2 1620   2.613   1.811   2.083  2.8171 -1.6144 -0.0023
  541SOL     OW 1621   0.433   2.261   0.002  0.5221 -0.5847 -0.0065
  541SOL    HW1 1622   0.489   2.189   0.054  1.2299 -1.2019  2.1874
  541SOL    HW2 1623   0.364   2.222  -0.072 -2.0982 -0.2016 -1.1564
  542SOL     OW 1624   2.193   2.617   0.443  0.6312  0.5175 -0.2625
  542SOL    HW1 1625   2.195   2.717   0.419  0.8724 -0.1874  0.4301
  542SOL    HW2 1626   2.094   2.576   0.444 -2.3172 -0.8541  1.4134
  543SOL     OW 1627   1.049   1.804   1.746 -0.2016 -0.0105  0.4804
  543SOL    HW1 1628   1.024   1.837   1.838 -0.5637 -2.2281 -2.3905
  543SOL    HW2 1629   1.000   1.851   1.664  1.0529  0.9569 -2.0555
  544SOL     OW 1630   0.850   0.416   0.140 -0.5558  0.2760  0.3223
  544SOL    HW1 1631   0.897   0.361   0.217  0.3615 -1.8882  0.2734
  544SOL    HW2 1632   0.894   0.401   0.047  1.0588 -0.2037  0.5928
  545SOL     OW 1633   1.154   1.762   0.628  0.2670 -0.5860 -0.4504
  545SOL    HW1 1634   1.254   1.750   0.644 -0.4827  0.7084  0.9042
  545SOL    HW2 1635   1.129   1.783   0.529  1.2779  0.6292 -0.6335
  546SOL     OW 1636   2.674   1.589   0.047  0.2380 -0.2682 -0.2496
  546SOL    HW1 1637   2.723   1.565  -0.047  1.4572  0.1280 -0.3544
  546SOL    HW2 1638   2.613   1.514   0.082 -3.0341 -1.4476  1.0317
  547SOL     OW 1639   0.503   0.010   2.742  0.3137 -0.1579 -0.0867
  547SOL    HW1 1640   0.523  -0.082   2.713 -0.2813  0.8810  4.2557
  547SOL    HW2 1641   0.521   0.035   2.841  2.1656  0.7047  0.7651
  548SOL     OW 1642   2.070   0.805   3.084  0.1146  0.6690 -0.4405
  548SOL    HW1 1643   1.981   0.775   3.119  2.6181 -1.6240 -1.3129
  548SOL    HW2 1644   2.073   0.910   3.093 -1.3160  1.6908 -0.8394
  549SOL     OW 1645   0.565   0.426   0.078  0.7147 -0.0792  0.5456
  549SOL    HW1 1646   0.547   0.507   0.010 -2.8882 -2.4902 -3.5569
  549SOL    HW2 1647   0.665   0.423   0.113  0.2512 -2.1537  1.1089
  550SOL     OW 1648   2.545   2.849   2.908 -0.0830 -0.2324 -0.2857
  550SOL    HW1 1649   2.524   2.765   2.967 -1.1542  2.9667  2.7968
  550SOL    HW2 1650   2.532   2.829   2.803 -1.0293  0.0983  0.6565
  551SOL     OW 1651   0.229   0.773   0.183  0.1570  0.0124 -0.4116
  551SOL    HW1 1652   0.331   0.779   0.176  1.0196 -0.4656 -1.2930
  551SOL    HW2 1653   0.200   0.779   0.281 -0.5855  0.1601 -2.2025
  552SOL     OW 1654   0.827   2.797   1.901 -0.2808  0.1354 -0.1774
  552SOL    HW1 1655   0.797   2.787   1.994  2.4429 -1.1574 -2.9008
  552SOL    HW2 1656   0.870   2.887   1.876 -0.4693 -0.4741  0.4294
  553SOL     OW 1657   3.086   2.553   0.413  0.2626  0.2204  0.6480
  553SOL    HW1 1658   3.053   2.462   0.375  3.3175 -1.5941 -0.1518
  553SOL    HW2 1659   3.043   2.578   0.507 -2.6285  2.6586 -0.5218
  554SOL     OW 1660   2.148   0.298   0.523 -0.3679 -0.0400  0.8884
  554SOL    HW1 1661   2.230   0.265   0.473  0.1964 -1.2144 -1.5559
  554SOL    HW2 1662   2.107   0.220   0.582  0.6912 -1.3204  0.4618
  555SOL     OW 1663   0.469   2.927   2.466  0.0167  0.5508 -0.2409
  555SOL    HW1 1664   0.369   2.942   2.437 -0.4978  2.8329  1.0599
  555SOL    HW2 1665   0.531   2.891   2.392 -0.4413 -1.1562 -1.8577
  556SOL     OW 1666   0.882   2.293   1.613 -0.1688 -0.5500 -0.1617
  556SOL    HW1 1667   0.927   2.381   1.638 -0.5587  1.3284 -0.8753
  556SOL    HW2 1668   0.915   2.264   1.518 -0.5765 -0.3737  0.5766
  557SOL     OW 1669   0.144   2.133   0.130 -0.0761  0.0195  0.4398
  557SOL    HW1 1670   0.070   2.061   0.143  1.3932 -1.5179  1.9855
  557SOL    HW2 1671   0.150   2.174   0.036  0.1167 -0.5297 -2.5416
  558SOL     OW 1672   2.926   2.339   0.286  0.3028  0.0244 -0.3408
  558SOL    HW1 1673   2.826   2.326   0.304  3.4390 -1.9055 -0.5047
  558SOL    HW2 1674   2.954   2.338   0.187  0.6253 -1.2737 -0.6415
  559SOL     OW 1675   0.424   2.259   1.295  0.0215 -0.0831  0.4720
  559SOL    HW1 1676   0.330   2.284   1.262  1.2952 -1.6902  1.4904
  559SOL    HW2 1677   0.456   2.167   1.258  1.0321 -0.4304  1.5328
  560SOL     OW 1678   2.015   1.088   3.082  0.4095 -0.1381  0.6301
  560SOL    HW1 1679   2.019   1.148   2.996 -0.3055 -0.5027  1.1277
  560SOL    HW2 1680   1.955   1.135   3.152 -1.2340 -0.8750 -0.9835
  561SOL     OW 1681   3.051   1.940   0.105 -0.5060 -0.7501 -0.2080
  561SOL    HW1 1682   3.005   1.846   0.102  2.1386 -2.6893  1.7118
  561SOL    HW2 1683   3.002   2.009   0.044  2.4340 -2.7672 -0.6832
  562SOL     OW 1684   0.831   2.186   2.470  0.0867 -0.1337  0.2146
  562SOL    HW1 1685   0.739   2.146   2.450  2.4003  1.2846 -0.6368
  562SOL    HW2 1686   0.848   2.241   2.561  0.4281  0.4826 -0.9102
  563SOL     OW 1687   0.738   2.566   2.529 -0.3012 -0.4334  0.6837
  563SOL    HW1 1688   0.811   2.492   2.527 -0.6297 -1.1514  1.9086
  563SOL    HW2 1689   0.681   2.552   2.617 -1.0269  0.1165 -0.3962
  564SOL     OW 1690   2.779   1.276   2.866  0.2881 -0.1583 -0.2318
  564SOL    HW1 1691   2.684   1.263   2.904 -0.4728 -1.0077 -2.2747
  564SOL    HW2 1692   2.798   1.378   2.856 -0.5736  0.3258  1.5336
  565SOL     OW 1693   2.510   2.018   2.575 -0.0185 -0.1778  0.4163
  565SOL    HW1 1694   2.458   2.111   2.568 -1.3458  1.5790  2.4855
  565SOL    HW2 1695   2.605   2.028   2.614 -0.7396 -0.7304  0.1377
  566SOL     OW 1696   1.994   2.827   1.381 -0.3216  0.5559 -0.4833
  566SOL    HW1 1697   2.004   2.733   1.419  0.0764  0.2267  1.1310
  566SOL    HW2 1698   2.027   2.836   1.280 -1.1220  0.1459 -1.4296
  567SOL     OW 1699   2.465   0.145   2.248  0.2082  0.0316  0.2769
  567SOL    HW1 1700   2.491   0.143   2.147  0.4966 -1.2994  1.3088
  567SOL    HW2 1701   2.397   0.223   2.264 -2.2318 -0.3893 -0.0811
  568SOL     OW 1702   1.418   1.806   0.421  0.5311 -0.2406  0.2108
  568SOL    HW1 1703   1.388   1.868   0.337  0.7478  1.0839 -1.2939
  568SOL    HW2 1704   1.475   1.855   0.487  0.2973  1.3381  1.1870
  569SOL     OW 1705   0.278   0.664   0.798  0.0328 -0.0518 -0.2461
  569SOL    HW1 1706   0.316   0.612   0.723 -1.8297  0.7030  5.4995
  569SOL    HW2 1707   0.185   0.641   0.818  2.2109  0.5743  0.2712
  570SOL     OW 1708   0.620   0.780   2.844 -0.5533 -0.2142  0.0374
  570SOL    HW1 1709   0.650   0.746   2.749 -0.9447 -0.0396  2.2772
  570SOL    HW2 1710   0.639   0.878   2.863  2.4588 -2.2681  0.5854
  571SOL     OW 1711   0.841   3.061   1.121 -0.0344  0.1595 -0.3518
  571SOL    HW1 1712   0.848   3.116   1.030 -2.3150 -0.8253 -1.8223
  571SOL    HW2 1713   0.930   3.021   1.162  0.0501  0.2580 -0.4149
  572SOL     OW 1714   1.525   2.551   1.178  0.4096  0.3602 -0.2061
  572SOL    HW1 1715   1.451   2.487   1.206  1.8949  1.9450  0.5651
  572SOL    HW2 1716   1.480   2.630   1.130  0.2026  0.0457 -1.4346
  573SOL     OW 1717   2.945   0.416   2.111 -0.0753 -0.1665 -0.0985
  573SOL    HW1 1718   2.908   0.323   2.091 -0.6403  0.7518 -1.5706
  573SOL    HW2 1719   2.866   0.483   2.097  0.4274 -2.4875 -1.8283
  574SOL     OW 1720   0.246   1.812   1.038  0.0490 -0.5457 -0.1685
  574SOL    HW1 1721   0.228   1.908   1.009  1.4944  0.4394  1.8976
  574SOL    HW2 1722   0.164   1.760   1.074 -0.0897  0.1202  0.7016
  575SOL     OW 1723   0.901   2.145   1.009 -0.6657 -0.2938  0.2803
  575SOL    HW1 1724   0.867   2.153   1.106  1.2948  2.2566  1.2568
  575SOL    HW2 1725   1.004   2.149   1.000 -0.6882 -0.0872  0.4735
  576SOL     OW 1726   2.937   2.898   1.701 -0.0362  0.3071 -0.3034
  576SOL    HW1 1727   2.868   2.842   1.647  1.5594  0.6304  0.8295
  576SOL    HW2 1728   2.943   2.992   1.659 -2.4139  0.6207  0.3972
  577SOL     OW 1729   2.555   1.257   3.051  0.2545  0.4860  0.3470
  577SOL    HW1 1730   2.524   1.160   3.026 -2.0596  0.4293 -0.2424
  577SOL    HW2 1731   2.618   1.254   3.129 -2.4275  0.9993  2.0423
  578SOL     OW 1732   1.346   2.729   2.572  0.1963 -0.5885  0.2455
  578SOL    HW1 1733   1.273   2.698   2.498 -2.0272 -1.2125 -0.6487
  578SOL    HW2 1734   1.371   2.830   2.563  0.3220 -2.6147 -1.4791
  579SOL     OW 1735   0.132   2.550   0.169  0.2492 -0.2660  0.5380
  579SOL    HW1 1736   0.079   2.541   0.260  0.2286 -0.1895 -0.2574
  579SOL    HW2 1737   0.233   2.526   0.176  0.2483 -2.5337 -0.4365
  580SOL     OW 1738   1.009   2.672   0.347  0.4637 -0.3877  0.2399
  580SOL    HW1 1739   1.108   2.687   0.318 -0.2847 -0.0246 -2.9402
  580SOL    HW2 1740   0.960   2.595   0.297 -0.7293 -1.4906 -0.4552
  581SOL     OW 1741   1.231   2.593   1.488 -0.6529  0.5157 -0.2064
  581SOL    HW1 1742   1.284   2.535   1.417 -2.9693 -2.7427 -0.7138
  581SOL    HW2 1743   1.241   2.694   1.476 -1.6091  2.0695  0.2237
  582SOL     OW 1744   1.494   0.046   1.881 -0.5252 -0.3425 -0.1220
  582SOL    HW1 1745   1.519   0.140   1.932 -2.2752  3.8012  0.3520
  582SOL    HW2 1746   1.565   0.027   1.804  0.4840  0.3524 -0.0856
  583SOL     OW 1747   2.434   2.998   0.599  0.0251 -0.1311  0.0777
  583SOL    HW1 1748   2.515   2.943   0.561  1.5474  1.6387  0.2376
  583SOL    HW2 1749   2.376   2.946   0.672  0.5423 -2.3635 -0.5979
  584SOL     OW 1750   1.530   0.957   2.106 -0.0138  0.0726  0.1227
  584SOL    HW1 1751   1.586   1.009   2.039 -0.6608  0.8253 -0.7371
  584SOL    HW2 1752   1.585   0.939   2.192  1.5417 -0.1808  0.2016
  585SOL     OW 1753   2.144   2.640   2.924 -0.1274 -0.2498 -0.1549
  585SOL    HW1 1754   2.161   2.551   2.864 -1.2210 -2.1660  0.4078
  585SOL    HW2 1755   2.049   2.683   2.907 -2.1947  2.2125 -2.2246
  586SOL     OW 1756   2.794   0.231   1.581 -0.6532 -0.2222  0.5236
  586SOL    HW1 1757   2.820   0.313   1.648  0.0187  0.4961  2.1186
  586SOL    HW2 1758   2.697   0.198   1.599  1.3936  1.0535 -2.0004
  587SOL     OW 1759   2.003   1.616   2.733  0.2358 -0.3383 -0.5287
  587SOL    HW1 1760   2.061   1.584   2.653 -0.8429  0.3613  1.5372
  587SOL    HW2 1761   2.042   1.591   2.829 -2.2730  3.1961  4.3146
  588SOL     OW 1762   0.500   2.712   2.219 -0.4125  0.6146 -0.0335
  588SOL    HW1 1763   0.443   2.767   2.155  0.7426 -1.9141 -0.4476
  588SOL    HW2 1764   0.450   2.640   2.274 -0.4801 -1.9347 -1.8639
  589SOL     OW 1765   2.148   1.464   2.537  0.0590  0.2785 -0.1785
  589SOL    HW1 1766   2.070   1.410   2.487 -0.9939  2.0603 -0.9413
  589SOL    HW2 1767   2.240   1.413   2.546  1.8995  0.0234  1.0370
  590SOL     OW 1768   2.350   1.715   1.987 -0.6470 -0.0625 -0.1024
  590SOL    HW1 1769   2.436   1.652   1.996  1.6054 -2.6113  1.3056
  590SOL    HW2 1770   2.362   1.804   2.036 -0.8176  0.4839 -0.0618
  591SOL     OW 1771   1.338   2.489   0.321 -0.3395  0.1920  0.2453
  591SOL    HW1 1772   1.400   2.431   0.260  0.3702  0.0180  1.7217
  591SOL    HW2 1773   1.314   2.448   0.414  0.7298 -2.5222  0.7896
  592SOL     OW 1774   1.683   2.324   0.778  0.2119  0.4098  0.0153
  592SOL    HW1 1775   1.677   2.376   0.693 -0.3204  3.3938  1.2610
  592SOL    HW2 1776   1.784   2.325   0.814 -0.1982 -0.9363  3.6195
  593SOL     OW 1777   0.550   0.194   3.029  0.0732 -0.6435  0.3534
  593SOL    HW1 1778   0.652   0.172   3.027  2.2917  3.6684 -0.1574
  593SOL    HW2 1779   0.533   0.288   3.080 -1.9726  1.6633  2.2810
  594SOL     OW 1780   0.887   1.939   2.697  0.3257  0.1614 -0.1780
  594SOL    HW1 1781   0.989   1.954   2.703 -0.6259  3.5591 -0.4639
  594SOL    HW2 1782   0.831   2.020   2.739 -1.6936  1.1722 -3.5994
  595SOL     OW 1783   1.553   0.040   1.066  0.2090  0.0395  0.5553
  595SOL    HW1 1784   1.638  -0.014   1.041  0.7078  0.4939 -0.2291
  595SOL    HW2 1785   1.478   0.005   1.005  0.7758  3.1500 -3.1521
  596SOL     OW 1786   3.084   1.466   2.212 -0.1053 -0.1521  0.1585
  596SOL    HW1 1787   2.989   1.505   2.218  1.9661 -2.9347 -3.7125
  596SOL    HW2 1788   3.142   1.462   2.296  2.5848 -2.8815  1.3545
  597SOL     OW 1789   2.107   2.624   1.623  0.1473 -0.2535 -0.4106
  597SOL    HW1 1790   2.125   2.521   1.593  1.7133 -0.1149  2.5818
  597SOL    HW2 1791   2.163   2.645   1.709  1.0666 -1.3943  0.4557
  598SOL     OW 1792   2.555   2.903   1.198 -0.5299 -0.3698  0.2580
  598SOL    HW1 1793   2.625   2.946   1.259 -1.5620  2.0944 -2.7504
  598SOL    HW2 1794   2.599   2.887   1.106  0.3469  0.3503 -0.2300
  599SOL     OW 1795   2.934   0.347   2.401 -0.5300 -0.1823  0.4030
  599SOL    HW1 1796   3.019   0.338   2.338  1.8528 -1.1598  0.4747
  599SOL    HW2 1797   2.854   0.395   2.355 -0.4485  0.7475  0.7127
  600SOL     OW 1798   2.834   1.037   2.733  0.2140 -0.0409 -0.6016
  600SOL    HW1 1799   2.797   0.961   2.788 -0.1388  2.4787 -1.3139
  600SOL    HW2 1800   2.809   1.131   2.776 -1.0521 -1.1875 -1.3487
  601SOL     OW 1801   2.947   1.239   2.056  0.2064  0.2931 -0.6712
  601SOL    HW1 1802   2.884   1.290   1.990  0.8534  0.5636 -0.1437
  601SOL    HW2 1803   3.001   1.300   2.119  1.2489  1.4976  1.8683
  602SOL     OW 1804   1.539   1.684   2.363  0.5354  0.3939  0.2574
  602SOL    HW1 1805   1.472   1.609   2.366  1.0871  1.2247  0.4231
  602SOL    HW2 1806   1.629   1.662   2.396 -3.3936  1.1892 -2.2553
  603SOL     OW 1807   0.669   1.266   2.621  0.0697 -0.2903  0.3008
  603SOL    HW1 1808   0.602   1.227   2.550  0.4682  1.0474  0.5817
  603SOL    HW2 1809   0.755   1.204   2.638 -2.7390  0.7380  0.0659
  604SOL     OW 1810   2.398   0.960   0.185  0.2815 -0.0889  0.3630
  604SOL    HW1 1811   2.470   1.018   0.136 -0.4092 -1.5154  1.6233
  604SOL    HW2 1812   2.379   0.877   0.128 -0.3601  0.8118 -0.1722
  605SOL     OW 1813   2.645   1.119   1.963  0.6715  0.1964 -0.5145
  605SOL    HW1 1814   2.643   1.031   1.908  1.0356 -0.3566 -0.8532
  605SOL    HW2 1815   2.657   1.100   2.063  0.4076 -1.6685  0.3424
  606SOL     OW 1816   1.531   2.535   2.572 -0.0924 -0.0369 -0.0575
  606SOL    HW1 1817   1.455   2.606   2.594 -0.8249  2.4347 -0.0023
  606SOL    HW2 1818   1.493   2.439   2.578  1.8104  1.6508 -1.9217
  607SOL     OW 1819   1.346   1.535   0.455  0.0380 -0.1275 -0.2364
  607SOL    HW1 1820   1.293   1.501   0.543 -0.0852 -0.9618  1.3327
  607SOL    HW2 1821   1.360   1.640   0.455  0.5554  0.9742 -1.7607
  608SOL     OW 1822   1.416   2.915   0.426  0.1299  0.2136  0.1749
  608SOL    HW1 1823   1.495   2.965   0.371  0.0805  0.7273 -2.8604
  608SOL    HW2 1824   1.340   2.982   0.458 -0.5313  0.8136  0.7824
  609SOL     OW 1825   1.333   1.343   0.264 -0.4494  0.3644  0.1275
  609SOL    HW1 1826   1.338   1.430   0.325 -0.3739  2.0672  1.4242
  609SOL    HW2 1827   1.237   1.328   0.229  1.2018 -0.8185  0.1223
  610SOL     OW 1828   2.991   1.068   2.267 -0.7048 -0.7615  0.7769
  610SOL    HW1 1829   2.978   0.964   2.276  0.5749 -1.6943  0.9590
  610SOL    HW2 1830   2.951   1.107   2.180  0.9336  0.9085 -1.0698
  611SOL     OW 1831   2.502   0.323   1.236 -0.1390 -0.3204 -0.2915
  611SOL    HW1 1832   2.467   0.223   1.245  0.1456 -1.5201 -1.5999
  611SOL    HW2 1833   2.604   0.326   1.251 -0.3324 -1.2938 -0.3182
  612SOL     OW 1834   0.753   2.154   1.243 -0.0649  0.9138 -0.6608
  612SOL    HW1 1835   0.681   2.080   1.252  1.1161 -1.0050 -2.1599
  612SOL    HW2 1836   0.717   2.241   1.191 -0.5164 -0.5687 -0.9135
  613SOL     OW 1837   0.886   1.427   2.402 -0.3522  0.2499 -0.0446
  613SOL    HW1 1838   0.951   1.476   2.334  1.7541 -1.6413  3.4140
  613SOL    HW2 1839   0.861   1.334   2.360 -1.8807  0.4040 -1.7103
  614SOL     OW 1840   1.672   1.552   1.818  0.0461  0.6201  0.3763
  614SOL    HW1 1841   1.617   1.624   1.766  0.8224  1.1328  1.8106
  614SOL    HW2 1842   1.742   1.590   1.882 -0.0957  0.3453  1.2782
  615SOL     OW 1843   0.767   1.249   1.755 -0.4212 -0.4095 -0.3724
  615SOL    HW1 1844   0.722   1.220   1.662  1.7393 -0.2981  2.7608
  615SOL    HW2 1845   0.819   1.338   1.746 -1.7225 -1.8056 -0.5332
  616SOL     OW 1846   1.056   1.549   2.212  0.5384  0.3330  0.0386
  616SOL    HW1 1847   1.002   1.560   2.125 -0.4811 -0.3156  2.3931
  616SOL    HW2 1848   1.087   1.638   2.256  0.7268 -1.8905 -2.1437
  617SOL     OW 1849   2.955   1.520   1.624  0.4968 -0.0181  0.1024
  617SOL    HW1 1850   2.946   1.418   1.629 -1.9514  2.2970 -1.4062
  617SOL    HW2 1851   3.027   1.544   1.555  0.0891 -0.0964  1.1931
  618SOL     OW 1852   1.857   2.068   1.382  0.1727  0.3491  0.1005
  618SOL    HW1 1853   1.850   2.154   1.319 -1.9058  0.7569 -0.7421
  618SOL    HW2 1854   1.835   1.982   1.333 -0.3622  2.4531 -1.3708
  619SOL     OW 1855   1.757   0.468   2.387  0.3300  0.2067  0.2212
  619SOL    HW1 1856   1.678   0.528   2.355 -3.4067  1.2905 -2.4746
  619SOL    HW2 1857   1.746   0.367   2.367 -2.1269  0.2445 -0.9331
  620SOL     OW 1858   2.262   2.831   0.774 -0.0107  0.3887  0.1446
  620SOL    HW1 1859   2.164   2.813   0.753  1.9205  0.1634  1.0570
  620SOL    HW2 1860   2.299   2.768   0.848  1.6051  0.3042  1.9243
  621SOL     OW 1861   2.172   1.901   1.365 -0.4124 -0.5306  0.3767
  621SOL    HW1 1862   2.181   1.914   1.467 -1.5513  0.3883 -0.0073
  621SOL    HW2 1863   2.122   1.812   1.338 -1.5795  0.0083  1.8739
  622SOL     OW 1864   2.324   0.963   1.882  0.1991 -0.2304  0.3671
  622SOL    HW1 1865   2.425   0.955   1.853 -1.6254 -2.1140  1.7069
  622SOL    HW2 1866   2.275   0.874   1.890 -0.5357 -0.6474 -1.6842
  623SOL     OW 1867   1.267   0.829   2.520  0.4431 -0.1165 -0.6482
  623SOL    HW1 1868   1.201   0.751   2.495  2.9592 -1.8105  3.2753
  623SOL    HW2 1869   1.273   0.898   2.441  3.1412  0.9982 -0.6253
  624SOL     OW 1870   0.480   0.655   3.054 -0.3566 -0.1746  0.0886
  624SOL    HW1 1871   0.525   0.684   2.964  3.6970 -0.7705 -0.1502
  624SOL    HW2 1872   0.500   0.720   3.133 -2.8678  2.3911  0.3107
  625SOL     OW 1873   2.766   1.713   1.020  0.4193 -0.3152  0.5053
  625SOL    HW1 1874   2.677   1.765   1.014  0.4345 -0.3594  1.3508
  625SOL    HW2 1875   2.843   1.780   1.027  0.6405 -0.6098  1.2440
  626SOL     OW 1876   0.649   2.674   1.738  0.3895 -0.3519  0.4942
  626SOL    HW1 1877   0.718   2.724   1.800 -0.5918  1.7091  1.4864
  626SOL    HW2 1878   0.550   2.675   1.770 -2.0790  4.6670 -1.6988
  627SOL     OW 1879   0.670   0.834   1.641 -0.2472  0.1565 -0.7966
  627SOL    HW1 1880   0.602   0.774   1.597 -0.8489  0.9944 -1.4393
  627SOL    HW2 1881   0.711   0.899   1.571 -2.8922 -0.8702  1.4134
  628SOL     OW 1882   2.399   0.139   0.712  0.2788  0.2903 -0.4943
  628SOL    HW1 1883   2.416   0.049   0.664  0.1110  1.5814  1.5854
  628SOL    HW2 1884   2.298   0.149   0.727  0.4230 -1.9341  1.9635
  629SOL     OW 1885   1.910   0.935   1.977  0.0987  0.3850 -0.0271
  629SOL    HW1 1886   1.912   1.011   1.909 -0.7988 -1.2132 -0.6718
  629SOL    HW2 1887   1.950   0.962   2.064 -1.1091 -1.3837  1.0205
  630SOL     OW 1888   2.899   2.232   0.806  0.0767  0.7441 -0.6126
  630SOL    HW1 1889   2.864   2.328   0.814 -2.8787 -0.6860  1.4514
  630SOL    HW2 1890   2.825   2.157   0.796 -0.4033  0.3157  0.2195
  631SOL     OW 1891   0.015   0.142   2.088  0.7842  0.0460  0.3736
  631SOL    HW1 1892   0.085   0.188   2.147  1.1055  1.1238 -0.0593
  631SOL    HW2 1893   0.043   0.113   1.993  0.5065  0.6198  2.8176
  632SOL     OW 1894   2.440   2.567   0.610 -0.0231 -0.2807 -1.0491
  632SOL    HW1 1895   2.489   2.639   0.665 -0.2221 -1.3262  2.1624
  632SOL    HW2 1896   2.397   2.597   0.518  3.2703  0.0364 -1.2353
  633SOL     OW 1897   1.467   1.237   2.688 -0.4116 -1.0643 -0.0766
  633SOL    HW1 1898   1.463   1.316   2.756 -0.5590  0.8505 -1.8012
  633SOL    HW2 1899   1.401   1.246   2.608  0.4378  1.4392  2.5961
  634SOL     OW 1900   0.674   2.069   0.851 -0.2515  0.0722  0.1542
  634SOL    HW1 1901   0.584   2.088   0.901  0.0979 -1.5656 -0.6038
  634SOL    HW2 1902   0.753   2.108   0.906 -0.6612 -1.6933 -0.9576
  635SOL     OW 1903   3.069   2.373  -0.000 -0.2228  0.2668 -0.4027
  635SOL    HW1 1904   2.997   2.437  -0.045  1.1070  1.0810  0.2273
  635SOL    HW2 1905   3.134   2.428   0.061 -1.5606 -1.6552  2.1793
  636SOL     OW 1906   2.384   2.709   2.044  0.2557  0.9477 -0.1575
  636SOL    HW1 1907   2.355   2.804   2.040 -0.3555 -1.6811 -0.8053
  636SOL    HW2 1908   2.328   2.654   2.111  1.8595  4.1636  0.3690
  637SOL     OW 1909   2.722   0.626   2.001  0.3755  0.5108  0.1354
  637SOL    HW1 1910   2.640   0.640   1.939 -0.5056 -0.9203  1.7597
  637SOL    HW2 1911   2.777   0.710   2.005 -0.6188 -3.3581  1.1950
  638SOL     OW 1912   2.458   1.872   1.310 -0.1751  0.0455 -0.1884
  638SOL    HW1 1913   2.356   1.873   1.325 -0.2731  1.3019 -0.5769
  638SOL    HW2 1914   2.506   1.813   1.378  0.1927  1.3525 -0.5089
  639SOL     OW 1915   1.291   2.218   1.651  0.7401  0.0955  0.0620
  639SOL    HW1 1916   1.335   2.309   1.655 -1.3002  0.9329  0.6998
  639SOL    HW2 1917   1.223   2.204   1.729  0.7587 -1.8054  1.0003
  640SOL     OW 1918   0.197   1.204   1.559  0.0929  0.0755  0.1986
  640SOL    HW1 1919   0.202   1.216   1.664 -1.7372  0.4117  0.0297
  640SOL    HW2 1920   0.263   1.129   1.526  0.7611  0.7029 -1.8924
  641SOL     OW 1921   1.965   0.220   1.516 -0.0791 -0.1821 -0.2526
  641SOL    HW1 1922   1.897   0.279   1.566 -0.1249  0.5047  1.3527
  641SOL    HW2 1923   2.041   0.178   1.572 -0.5867  0.1836 -1.9232
  642SOL     OW 1924   2.039   0.034   0.324 -0.0170  0.5975  0.4734
  642SOL    HW1 1925   2.132   0.074   0.345  1.7714 -0.5864 -1.8557
  642SOL    HW2 1926   1.978   0.012   0.406  0.0570 -1.2013  2.4308
  643SOL     OW 1927   2.899   1.945   2.151 -0.0781 -0.4760  0.5099
  643SOL    HW1 1928   2.847   1.858   2.129  2.1670 -1.1836  0.8671
  643SOL    HW2 1929   2.885   2.017   2.077  0.2801 -2.3691 -0.2835
  644SOL     OW 1930   2.283   2.427   1.231 -0.1043 -0.3306  0.0903
  644SOL    HW1 1931   2.341   2.353   1.200 -1.6594 -1.1468  0.2827
  644SOL    HW2 1932   2.226   2.396   1.309  1.2611  0.3700  0.9435
  645SOL     OW 1933   0.673   0.840   1.258 -0.2542 -0.2469  0.0729
  645SOL    HW1 1934   0.575   0.853   1.280 -1.4130 -2.0248  1.2887
  645SOL    HW2 1935   0.689   0.850   1.159  0.2927  1.4073  1.1779
  646SOL     OW 1936   1.507   1.820   2.044 -0.1965  0.2847 -0.0273
  646SOL    HW1 1937   1.578   1.836   1.968 -0.1538 -0.6125  0.5200
  646SOL    HW2 1938   1.551   1.837   2.138 -0.3591  1.0789  0.5863
  647SOL     OW 1939   0.810   1.122   0.662  0.2227  0.3228  0.6480
  647SOL    HW1 1940   0.878   1.136   0.742  2.7978  0.5831 -0.1992
  647SOL    HW2 1941   0.738   1.049   0.687  0.3956 -0.9353  1.9507
  648SOL     OW 1942   0.185   0.217   0.351  0.0851  0.2173 -0.6671
  648SOL    HW1 1943   0.174   0.134   0.291 -0.0408  2.2655  1.1752
  648SOL    HW2 1944   0.199   0.303   0.291  1.1602  0.7624  1.7974
  649SOL     OW 1945   2.994   0.269   0.838  0.1476 -0.0902 -1.1830
  649SOL    HW1 1946   3.081   0.255   0.780  1.1463  2.1737 -0.7619
  649SOL    HW2 1947   2.968   0.369   0.852 -0.1075 -0.1839 -0.5100
  650SOL     OW 1948   2.804   0.687   1.510 -0.8034 -0.7058 -0.2538
  650SOL    HW1 1949   2.712   0.657   1.488  0.8592  1.5886 -0.8415
  650SOL    HW2 1950   2.836   0.775   1.466 -2.3229  0.7472  2.1230
  651SOL     OW 1951   0.869   1.533   1.678 -0.0521  0.3279 -0.2447
  651SOL    HW1 1952   0.904   1.562   1.772  0.4966  0.8543  0.2234
  651SOL    HW2 1953   0.942   1.497   1.614 -0.5009  3.3115 -2.2691
  652SOL     OW 1954   2.369   2.482   2.470  0.2868 -0.2716  0.0774
  652SOL    HW1 1955   2.272   2.521   2.480  0.0193 -3.0285  0.4180
  652SOL    HW2 1956   2.409   2.515   2.380  0.7619 -2.1474 -0.9479
  653SOL     OW 1957   2.703   1.268   0.180  0.4840  0.0383 -0.2893
  653SOL    HW1 1958   2.749   1.347   0.230  0.2339  0.5692  0.0030
  653SOL    HW2 1959   2.760   1.182   0.180  1.2610 -1.0289 -1.5083
  654SOL     OW 1960   1.255   2.167   1.272  0.2400 -0.0139 -0.1889
  654SOL    HW1 1961   1.318   2.119   1.343  1.0270 -1.6804  2.0361
  654SOL    HW2 1962   1.285   2.135   1.179  1.1748  0.1936 -1.8455
  655SOL     OW 1963   0.168   0.990   1.931 -0.0710 -0.5138 -0.0793
  655SOL    HW1 1964   0.238   0.952   1.863  2.2623 -0.3586 -0.1932
  655SOL    HW2 1965   0.183   1.094   1.933 -0.3763 -0.1775 -1.5883
  656SOL     OW 1966   2.599   2.554   2.638 -0.2384  0.1169 -0.0824
  656SOL    HW1 1967   2.685   2.517   2.592  1.4011  1.4553  0.8215
  656SOL    HW2 1968   2.515   2.544   2.570 -1.5538 -0.6886 -0.5105
  657SOL     OW 1969   3.005   1.049   1.856 -0.2020  0.2610 -0.5652
  657SOL    HW1 1970   2.970   1.123   1.923 -0.6416 -2.0279  2.7340
  657SOL    HW2 1971   3.097   1.013   1.876 -0.5927  0.0657 -2.5752
  658SOL     OW 1972   1.654   0.189   2.363 -0.0560  0.1334 -0.7891
  658SOL    HW1 1973   1.718   0.142   2.434  0.5565 -1.4275 -0.0579
  658SOL    HW2 1974   1.656   0.140   2.274  3.0407  1.9740  1.1807
  659SOL     OW 1975   1.413   0.635   2.802 -0.4116 -0.4024 -0.6351
  659SOL    HW1 1976   1.466   0.705   2.749  1.9771 -2.4321  0.4218
  659SOL    HW2 1977   1.309   0.663   2.818  1.2874  0.2886  2.0710
  660SOL     OW 1978   1.470   0.309   1.413  0.0850  0.0544  0.3172
  660SOL    HW1 1979   1.463   0.345   1.512  0.0026  3.5978 -0.2137
  660SOL    HW2 1980   1.525   0.221   1.385  0.8947  1.2997 -0.3942
  661SOL     OW 1981   2.432   1.262   0.630  0.5818 -0.3152 -0.2508
  661SOL    HW1 1982   2.465   1.260   0.537 -1.2985 -0.6429  0.8343
  661SOL    HW2 1983   2.361   1.341   0.635 -0.4627  2.2736 -0.6087
  662SOL     OW 1984   1.459   0.400   1.684 -0.2125  0.0289 -0.7170
  662SOL    HW1 1985   1.445   0.358   1.782  2.0925  1.2029 -0.8283
  662SOL    HW2 1986   1.450   0.503   1.686  0.2894 -0.2120  1.6145
  663SOL     OW 1987   0.877   1.592   1.955  0.5514  0.1996  0.9161
  663SOL    HW1 1988   0.875   1.685   2.001  2.0379 -1.3208  1.7758
  663SOL    HW2 1989   0.794   1.539   1.979  0.5795 -0.6667  1.7612
  664SOL     OW 1990   1.573   2.101   1.440 -0.3218  0.3590  0.2748
  664SOL    HW1 1991   1.489   2.051   1.474  0.8676  1.3518  0.7131
  664SOL    HW2 1992   1.648   2.038   1.398  1.9670 -0.9126  0.6817
  665SOL     OW 1993   2.252   0.693   1.971 -0.3830  0.2027 -0.4313
  665SOL    HW1 1994   2.221   0.598   1.979  0.1007  2.7864  2.3708
  665SOL    HW2 1995   2.334   0.721   2.032  0.8818  0.2617 -0.5835
  666SOL     OW 1996   0.469   2.233   0.333  0.4221 -0.4336 -0.2067
  666SOL    HW1 1997   0.543   2.267   0.394 -0.7633  0.4372 -0.5823
  666SOL    HW2 1998   0.375   2.254   0.374  1.6962  3.3492  0.5733
  667SOL     OW 1999   1.956   0.208   1.058 -0.4584 -0.1797  0.1978
  667SOL    HW1 2000   2.018   0.292   1.051 -1.3176 -0.2012 -0.0521
  667SOL    HW2 2001   1.908   0.200   1.149 -0.6096 -2.2009 -0.5805
  668SOL     OW 2002   1.971   0.509   1.089  0.3104 -0.1948  0.2764
  668SOL    HW1 2003   2.042   0.521   1.009  2.0016 -1.5786 -1.6216
  668SOL    HW2 2004   2.021   0.473   1.168 -2.2865  0.7561  2.0101
  669SOL     OW 2005   3.030   2.158   1.043 -0.2291  0.2433  0.5348
  669SOL    HW1 2006   2.989   2.182   0.954 -0.3497  0.6566  1.6337
  669SOL    HW2 2007   3.025   2.236   1.110  2.5622 -0.5419 -2.4246
  670SOL     OW 2008   2.919   2.312   2.091 -0.0064 -0.9294 -0.3894
  670SOL    HW1 2009   2.828   2.312   2.143 -1.5504  3.0572 -0.2495
  670SOL    HW2 2010   2.938   2.411   2.055 -0.7975  1.4543  0.8901
  671SOL     OW 2011   1.805   1.739   1.500  0.0627  0.7213  0.2048
  671SOL    HW1 2012   1.771   1.791   1.420 -0.3639  2.1511  1.3022
  671SOL    HW2 2013   1.740   1.670   1.538  3.5775 -0.9247  1.2550
  672SOL     OW 2014   0.452   0.646   2.580  0.6340 -0.0899  0.1154
  672SOL    HW1 2015   0.384   0.689   2.510 -1.8066  3.3033 -2.3355
  672SOL    HW2 2016   0.420   0.660   2.676  1.3149 -1.2906 -1.4096
  673SOL     OW 2017   0.109   1.372   1.060 -0.1605 -0.3854 -0.0551
  673SOL    HW1 2018   0.127   1.397   1.155  0.0957  0.2569 -1.4081
  673SOL    HW2 2019   0.198   1.377   1.004 -0.6042  0.3003 -0.7834
  674SOL     OW 2020   1.622   2.973   0.271  0.5224 -0.0877  0.6443
  674SOL    HW1 2021   1.656   3.039   0.199 -1.7087 -1.4251 -1.7684
  674SOL    HW2 2022   1.593   2.878   0.230  1.0533 -1.9004  0.2583
  675SOL     OW 2023   1.693   0.855   2.343  0.1366 -0.5455  0.1426
  675SOL    HW1 2024   1.792   0.853   2.325 -0.8806 -1.1798  0.2607
  675SOL    HW2 2025   1.641   0.770   2.305  1.4624 -0.5745  0.7542
  676SOL     OW 2026   2.555   1.536   1.992  0.1223 -0.5049 -0.5426
  676SOL    HW1 2027   2.499   1.503   1.908  2.6999 -0.7473 -0.3147
  676SOL    HW2 2028   2.584   1.465   2.060 -0.3674  0.7181  0.9307
  677SOL     OW 2029   1.872   0.695   0.886 -0.1140 -0.2946  0.1815
  677SOL    HW1 2030   1.785   0.643   0.901  0.2984  1.3255 -2.4167
  677SOL    HW2 2031   1.933   0.692   0.970  0.4193  0.0215  0.5963
  678SOL     OW 2032   0.078   0.761   1.633  0.4567 -0.3712 -0.1859
  678SOL    HW1 2033   0.160   0.817   1.665  0.2419  0.7658 -1.0999
  678SOL    HW2 2034   0.049   0.687   1.704 -0.8005 -0.9949  1.4086
  679SOL     OW 2035   2.586   1.131   1.180  0.1419  0.3854 -0.4180
  679SOL    HW1 2036   2.485   1.141   1.194  1.8950 -0.3247 -0.4342
  679SOL    HW2 2037   2.616   1.033   1.154  0.7201 -1.6380  0.6445
  680SOL     OW 2038   2.867   0.465   1.694  0.5161 -0.3191  0.3631
  680SOL    HW1 2039   2.828   0.529   1.622  1.0682  0.6352 -0.0693
  680SOL    HW2 2040   2.935   0.521   1.750 -1.9043 -0.1038  0.0195
  681SOL     OW 2041   2.999   0.048   1.593  0.3558  0.5987  0.7394
  681SOL    HW1 2042   3.056   0.051   1.506 -1.4117  1.2013  1.2093
  681SOL    HW2 2043   2.903   0.094   1.575 -1.0559 -1.8854 -2.8703
  682SOL     OW 2044   0.645   0.049   1.316  0.1060  0.5849  0.6608
  682SOL    HW1 2045   0.598  -0.016   1.378  1.4564  2.3824  1.4491
  682SOL    HW2 2046   0.708   0.005   1.244 -0.5087 -1.7210  0.8696
  683SOL     OW 2047   1.387   0.217   2.129  0.2720 -0.4223  0.1483
  683SOL    HW1 2048   1.331   0.274   2.197 -1.8594 -0.0379  1.8933
  683SOL    HW2 2049   1.479   0.258   2.109 -0.3412  0.4036 -2.0204
  684SOL     OW 2050   1.431   2.157   0.570  0.4643 -0.5908 -0.2808
  684SOL    HW1 2051   1.507   2.089   0.603  1.1030  0.3336  0.9035
  684SOL    HW2 2052   1.344   2.111   0.537  0.3867  0.3432  0.2508
  685SOL     OW 2053   2.252   2.086   1.966 -0.1849 -0.2247  0.0076
  685SOL    HW1 2054   2.310   2.030   1.902 -0.5130  0.9979 -2.7907
  685SOL    HW2 2055   2.283   2.067   2.064  0.5019 -2.1838 -0.9940
  686SOL     OW 2056   1.517   1.875   2.923 -0.7046 -0.3640 -0.4011
  686SOL    HW1 2057   1.563   1.800   2.974 -1.6663 -0.2989  0.2114
  686SOL    HW2 2058   1.419   1.856   2.899  1.1110 -0.0700 -1.7455
  687SOL     OW 2059   1.327   2.405   1.964 -0.7508  0.3889  0.4038
  687SOL    HW1 2060   1.396   2.324   1.970 -0.4452 -0.0146 -1.0503
  687SOL    HW2 2061   1.308   2.444   2.059  1.2021  1.2404  2.1474
  688SOL     OW 2062   2.081   1.503   1.730 -0.3364  0.2966  0.3234
  688SOL    HW1 2063   2.165   1.563   1.723 -1.7609 -0.4413 -0.8845
  688SOL    HW2 2064   2.041   1.474   1.637 -0.7286  1.9987  0.7127
  689SOL     OW 2065   2.401   1.142   2.752  0.2109  0.2861 -0.3524
  689SOL    HW1 2066   2.304   1.114   2.785  1.8483 -0.9140 -0.3225
  689SOL    HW2 2067   2.475   1.121   2.822 -1.1656 -2.0141 -0.1601
  690SOL     OW 2068   2.211   2.779   0.050  0.9879  0.8442 -0.2261
  690SOL    HW1 2069   2.178   2.720  -0.024 -0.6481  2.7295  3.3989
  690SOL    HW2 2070   2.132   2.807   0.109 -2.7698  0.7186 -0.7495
  691SOL     OW 2071   2.576   0.442   2.108  0.0178  0.2612 -0.2270
  691SOL    HW1 2072   2.616   0.349   2.106 -0.2829  0.0515 -1.3563
  691SOL    HW2 2073   2.636   0.508   2.056  0.2534 -0.8023 -1.1640
  692SOL     OW 2074   2.646   1.210   0.766 -0.6712 -0.3584  0.1690
  692SOL    HW1 2075   2.558   1.223   0.713 -1.2127  1.6753 -0.7094
  692SOL    HW2 2076   2.662   1.287   0.832  0.8682  0.1171 -0.9701
  693SOL     OW 2077   2.831   2.948   0.638 -0.2647  0.2547  0.1767
  693SOL    HW1 2078   2.839   3.014   0.722 -0.3069 -0.1992  3.6134
  693SOL    HW2 2079   2.844   2.999   0.549  0.4767  0.4806 -0.4692
  694SOL     OW 2080   2.408   2.203   0.162  0.6996 -0.5841  0.0701
  694SOL    HW1 2081   2.402   2.306   0.191  0.6585  2.3743 -1.0132
  694SOL    HW2 2082   2.318   2.166   0.125 -1.1837 -0.7905 -2.5701
  695SOL     OW 2083   0.488   2.979   1.446 -0.2226 -0.9227 -0.3394
  695SOL    HW1 2084   0.431   2.915   1.392  0.4737  0.4529 -1.9467
  695SOL    HW2 2085   0.444   3.005   1.534  0.4152 -2.9346  0.2027
  696SOL     OW 2086   2.784   1.972   0.740  0.4352  0.1347  0.1748
  696SOL    HW1 2087   2.861   1.915   0.787 -0.0949 -1.4064  2.1934
  696SOL    HW2 2088   2.801   1.976   0.638  0.5872  0.5223 -0.3579
  697SOL     OW 2089   1.671   1.860   1.823 -0.0481  0.0565  0.2590
  697SOL    HW1 2090   1.762   1.820   1.799 -0.3036  0.6302  1.0138
  697SOL    HW2 2091   1.673   1.966   1.816 -0.4604 -1.3090  0.9629
  698SOL     OW 2092   2.885   0.436   2.690 -0.5784 -0.0292  0.9773
  698SOL    HW1 2093   2.884   0.419   2.587  1.8020  1.3775 -0.1343
  698SOL    HW2 2094   2.945   0.370   2.744  2.0838 -1.1152  1.3179
  699SOL     OW 2095   1.566   0.077   2.922  0.3207 -0.3926  0.5989
  699SOL    HW1 2096   1.529  -0.006   2.870 -3.1600  1.5082 -1.9268
  699SOL    HW2 2097   1.605   0.145   2.854 -0.2782  2.0702  0.2832
  700SOL     OW 2098   0.991   2.250   1.371  0.0178  0.2785  0.2630
  700SOL    HW1 2099   1.080   2.193   1.360 -1.5389 -0.2756  1.6785
  700SOL    HW2 2100   0.904   2.221   1.324  1.0063 -1.0421 -1.1752
  701SOL     OW 2101   1.903   2.851   0.050 -0.0427  0.4297 -0.5159
  701SOL    HW1 2102   1.878   2.846   0.156  0.3699  0.7173  1.9470
  701SOL    HW2 2103   1.926   2.954   0.033 -0.3879  0.5694  2.8908
  702SOL     OW 2104   2.095   1.354   1.961 -0.4278 -0.0595 -0.1163
  702SOL    HW1 2105   2.184   1.300   1.962  0.8859  0.7670  0.4068
  702SOL    HW2 2106   2.085   1.411   1.875  0.6430 -0.2059 -2.0654
  703SOL     OW 2107   1.917   0.912   1.531 -0.2456 -0.1903 -0.1111
  703SOL    HW1 2108   1.948   0.814   1.516  1.3348  0.5754 -0.9000
  703SOL    HW2 2109   1.978   0.964   1.601 -0.9314  1.1825  2.8912
  704SOL     OW 2110   0.330   2.048   1.694  0.3200  0.0496 -0.1380
  704SOL    HW1 2111   0.369   1.978   1.761  0.1237 -2.1788  0.6312
  704SOL    HW2 2112   0.397   2.124   1.672 -0.5697 -1.6275  0.2743
  705SOL     OW 2113   2.436   1.462   0.916  0.0771  0.3685 -0.3909
  705SOL    HW1 2114   2.410   1.454   0.816  1.7738 -0.1935  0.9386
  705SOL    HW2 2115   2.539   1.458   0.932  0.3911 -0.5947 -1.0500
  706SOL     OW 2116   0.640   1.696   1.788  0.4675  0.2274 -0.3202
  706SOL    HW1 2117   0.716   1.715   1.728 -2.8622 -2.4663  1.6068
  706SOL    HW2 2118   0.665   1.635   1.866 -0.4521 -2.6460  0.5301
  707SOL     OW 2119   2.324   1.211   1.980 -0.0407  0.0910 -0.0737
  707SOL    HW1 2120   2.411   1.209   2.038  2.4890  0.5164 -3.7791
  707SOL    HW2 2121   2.310   1.118   1.939 -1.2236 -0.3447 -0.8708
  708SOL     OW 2122   3.029   0.471   3.077 -0.1807  0.5014 -0.0008
  708SOL    HW1 2123   3.091   0.543   3.039  2.0432  0.3293  0.0341
  708SOL    HW2 2124   3.018   0.387   3.019  0.0484 -3.2584 -0.4914
  709SOL     OW 2125   1.897   1.872   0.377  0.4450 -0.3561 -0.3551
  709SOL    HW1 2126   1.912   1.975   0.379  1.3451 -2.4394 -0.8766
  709SOL    HW2 2127   1.874   1.837   0.282 -0.5742 -0.3102  0.3552
  710SOL     OW 2128   1.819   1.589   2.464  0.1365  0.4816  0.1591
  710SOL    HW1 2129   1.878   1.522   2.405 -0.6623  2.6298 -0.8439
  710SOL    HW2 2130   1.791   1.548   2.557 -1.9872 -0.5605  1.1071
  711SOL     OW 2131   2.674   2.919   0.916 -0.8399  0.3354 -0.0045
  711SOL    HW1 2132   2.635   3.015   0.921 -1.0350  1.3005  0.1857
  711SOL    HW2 2133   2.769   2.923   0.946 -1.3769 -0.5089 -0.8969
  712SOL     OW 2134   1.403   2.126   1.993 -0.0371  0.1451  0.0294
  712SOL    HW1 2135   1.478   2.054   1.989  0.6690 -2.9854 -1.4665
  712SOL    HW2 2136   1.334   2.117   1.909 -2.1416 -0.1331  0.3404
  713SOL     OW 2137   2.768   1.434   2.495  0.0144  0.8924 -0.1251
  713SOL    HW1 2138   2.769   1.327   2.494  0.0180 -1.0561  1.2301
  713SOL    HW2 2139   2.687   1.470   2.555 -0.7379 -1.1425  0.7485
  714SOL     OW 2140   2.692   0.489   2.364  0.0129  0.1661 -0.3213
  714SOL    HW1 2141   2.654   0.429   2.445 -1.5701 -1.9048 -0.5331
  714SOL    HW2 2142   2.633   0.468   2.279  3.7015 -1.0736  0.7112
  715SOL     OW 2143   1.605   2.182   1.151  0.6913  0.6421  0.1112
  715SOL    HW1 2144   1.524   2.217   1.098 -2.6436  2.1675  1.3849
  715SOL    HW2 2145   1.584   2.186   1.252 -0.2189 -2.9065 -0.4341
  716SOL     OW 2146   1.252   0.107   1.506 -0.3203 -0.0003 -0.4671
  716SOL    HW1 2147   1.153   0.139   1.494  0.2126  1.1672  0.8781
  716SOL    HW2 2148   1.333   0.160   1.471 -0.1420  0.9848 -2.4569
  717SOL     OW 2149   1.135   0.571   1.621 -0.3222 -0.3725 -0.0256
  717SOL    HW1 2150   1.234   0.594   1.647 -0.8381  1.3224  0.0170
  717SOL    HW2 2151   1.138   0.531   1.523 -0.1642  0.9168  0.2134
  718SOL     OW 2152   0.686   0.889   0.946  0.0025  0.1164 -0.3563
  718SOL    HW1 2153   0.653   0.879   0.847  0.1395  1.0720 -1.8758
  718SOL    HW2 2154   0.669   0.993   0.971 -1.0414  1.7635  3.1927
  719SOL     OW 2155   0.675   1.735   2.309  0.0127  0.4705  0.1630
  719SOL    HW1 2156   0.740   1.741   2.386 -2.5973 -1.0691 -2.6168
  719SOL    HW2 2157   0.640   1.638   2.286 -1.1484 -1.8690  0.1298
  720SOL     OW 2158   2.196   1.152   0.290  0.5257 -0.0058 -0.1362
  720SOL    HW1 2159   2.241   1.072   0.246 -0.8700 -1.2387  0.0513
  720SOL    HW2 2160   2.187   1.143   0.392  0.6614  0.1949 -1.2920
  721SOL     OW 2161   2.243   3.020   2.109  0.4613 -0.4266 -0.5023
  721SOL    HW1 2162   2.223   2.998   2.010 -0.5710  0.1432  1.3271
  721SOL    HW2 2163   2.196   3.095   2.158  1.6692  0.0362  2.3087
  722SOL     OW 2164   2.348   1.670   0.521  0.1396 -0.6841 -0.4639
  722SOL    HW1 2165   2.415   1.714   0.452 -0.5330  1.1458  0.2274
  722SOL    HW2 2166   2.245   1.696   0.499 -0.0765  1.4436 -0.9829
  723SOL     OW 2167   2.631   2.768   1.929 -0.1342 -0.3232 -0.3160
  723SOL    HW1 2168   2.675   2.851   1.981  0.5892 -1.5196 -1.0553
  723SOL    HW2 2169   2.535   2.742   1.964 -0.6171 -0.1760 -2.8428
  724SOL     OW 2170   0.407   2.511   2.414  1.0469 -0.1624  0.5333
  724SOL    HW1 2171   0.305   2.511   2.426 -0.0815  0.9641 -2.8385
  724SOL    HW2 2172   0.461   2.472   2.499  0.4044 -1.9097  1.1413
  725SOL     OW 2173   2.436   2.825   1.518 -0.5316 -0.5101  0.3607
  725SOL    HW1 2174   2.413   2.830   1.419  2.0448 -4.0144  2.3528
  725SOL    HW2 2175   2.437   2.728   1.550 -0.5323 -0.6893 -0.3489
  726SOL     OW 2176   2.521   2.323   0.705 -0.2285 -0.7299  0.2632
  726SOL    HW1 2177   2.494   2.422   0.672  0.6069  3.6102 -3.4085
  726SOL    HW2 2178   2.500   2.248   0.634 -0.9180 -0.4382  2.2233
  727SOL     OW 2179   0.112   0.011   0.129  0.1442 -0.1179  0.8449
  727SOL    HW1 2180   0.212   0.019   0.097  2.0874  2.4457  0.0434
  727SOL    HW2 2181   0.059  -0.073   0.087  0.1830 -0.0495  0.2080
  728SOL     OW 2182   2.922   0.698   0.945 -0.5730  0.3783  0.4211
  728SOL    HW1 2183   2.865   0.690   0.862 -2.4905  0.9274  0.7188
  728SOL    HW2 2184   2.880   0.644   1.023  1.1542  1.2574  0.8383
  729SOL     OW 2185   0.033   2.522   0.784 -0.0188 -0.5705 -0.4698
  729SOL    HW1 2186   0.073   2.482   0.875  0.4365  0.1022  2.0136
  729SOL    HW2 2187   0.084   2.482   0.701 -3.6719  0.4664 -1.1169
  730SOL     OW 2188   2.609   0.673   0.888  0.3546 -0.2154 -0.1118
  730SOL    HW1 2189   2.576   0.768   0.852  1.0766  0.6886  0.7829
  730SOL    HW2 2190   2.673   0.632   0.814  1.3776 -0.0052 -1.3896
  731SOL     OW 2191   3.072   2.187   2.352 -0.2883  0.1110  0.4357
  731SOL    HW1 2192   3.063   2.229   2.446  0.6308  1.6369 -1.0337
  731SOL    HW2 2193   2.999   2.215   2.287  0.4740  0.5349 -0.4299
  732SOL     OW 2194   1.271   2.747   2.007 -0.3545 -0.0289 -0.0137
  732SOL    HW1 2195   1.280   2.662   2.069  0.0133 -0.5136  1.6878
  732SOL    HW2 2196   1.254   2.721   1.908 -1.0905 -1.1441 -0.6968
  733SOL     OW 2197   0.023   0.596   2.273 -0.4215  0.2488  0.3644
  733SOL    HW1 2198   0.083   0.666   2.227  0.0529 -1.1384  1.3355
  733SOL    HW2 2199  -0.030   0.539   2.203 -0.3424  0.6041  1.0377
  734SOL     OW 2200   1.460   0.375   2.689 -0.0333 -0.0455 -0.4224
  734SOL    HW1 2201   1.442   0.476   2.690  1.5143 -0.6870 -1.9575
  734SOL    HW2 2202   1.376   0.318   2.709 -0.2113 -0.3881 -1.9218
  735SOL     OW 2203   2.911   2.655   2.285 -1.1497 -0.0304  0.3200
  735SOL    HW1 2204   2.901   2.627   2.184 -1.4983  2.5078 -2.3704
  735SOL    HW2 2205   3.009   2.695   2.307  0.6551 -3.6194 -1.5773
  736SOL     OW 2206   0.899   0.403   2.527 -0.3723 -0.0742 -0.4466
  736SOL    HW1 2207   0.801   0.440   2.543  1.6090  2.1767 -2.2195
  736SOL    HW2 2208   0.911   0.334   2.448 -2.0956 -0.9099 -1.5106
  737SOL     OW 2209   2.610   0.424   2.789  0.0353 -0.3064 -0.2577
  737SOL    HW1 2210   2.588   0.405   2.892 -2.1943 -0.9311 -1.5053
  737SOL    HW2 2211   2.710   0.426   2.760  2.6583 -3.3922 -0.7705
  738SOL     OW 2212   1.751   1.243   2.941 -0.1311  0.4617 -0.0367
  738SOL    HW1 2213   1.853   1.254   2.922  1.4762  4.9536 -1.0390
  738SOL    HW2 2214   1.710   1.150   2.922 -0.6258  0.0366 -2.5265
  739SOL     OW 2215   1.859   0.683   0.627  0.4915  0.2911  0.1528
  739SOL    HW1 2216   1.860   0.691   0.728 -0.1286  0.2625  1.1630
  739SOL    HW2 2217   1.867   0.580   0.596  1.7099 -0.3439  0.1241
  740SOL     OW 2218   1.965   1.928   2.348 -0.2226 -0.3171  0.4070
  740SOL    HW1 2219   2.038   1.860   2.350  1.5306 -0.8768 -0.0404
  740SOL    HW2 2220   1.894   1.901   2.278  2.8147 -1.1815  0.1337
  741SOL     OW 2221   2.541   3.088   2.482  0.8852 -0.1329  0.1603
  741SOL    HW1 2222   2.642   3.085   2.460 -0.6097 -0.3475 -2.5588
  741SOL    HW2 2223   2.489   3.129   2.403 -1.1615 -1.4963  0.5046
  742SOL     OW 2224   2.187   1.437   0.157 -0.1582 -0.1042 -0.2456
  742SOL    HW1 2225   2.089   1.453   0.128 -1.5593  1.6491 -1.0220
  742SOL    HW2 2226   2.191   1.345   0.210  2.2140 -0.0796  1.8017
  743SOL     OW 2227   1.834   0.610   2.599  0.0541 -0.2606 -0.4386
  743SOL    HW1 2228   1.826   0.539   2.527 -0.1535  2.0081 -0.6096
  743SOL    HW2 2229   1.747   0.631   2.650 -0.2960  1.8329  0.3783
  744SOL     OW 2230   2.668   2.140   0.075 -0.0417 -0.7439 -0.2071
  744SOL    HW1 2231   2.596   2.158   0.145  2.8364 -2.3212  0.3438
  744SOL    HW2 2232   2.692   2.039   0.055  2.1273 -0.9667  1.3323
  745SOL     OW 2233   2.188   2.571   2.220 -0.1019  0.2541  0.2130
  745SOL    HW1 2234   2.122   2.585   2.140  1.4414  1.0347  0.3175
  745SOL    HW2 2235   2.154   2.620   2.300  2.1067  1.5401 -1.4683
  746SOL     OW 2236   0.024   2.613   1.746 -0.0759  0.4422 -0.1486
  746SOL    HW1 2237   0.110   2.607   1.687  0.5619  0.9682 -1.6425
  746SOL    HW2 2238   0.026   2.681   1.824 -0.3943 -0.2826  1.3970
  747SOL     OW 2239   0.072   1.800   1.647  0.2775 -0.1582  0.3819
  747SOL    HW1 2240  -0.010   1.737   1.619 -0.2678  0.6735 -1.7167
  747SOL    HW2 2241   0.126   1.834   1.562  1.1488 -1.7471 -3.0395
  748SOL     OW 2242   1.847   2.741   2.912  0.3086 -0.0054  0.0739
  748SOL    HW1 2243   1.857   2.796   2.998 -1.7050 -1.8234 -2.7208
  748SOL    HW2 2244   1.745   2.721   2.897  2.3733  3.3153 -0.3587
  749SOL     OW 2245   1.355   2.993   0.871  0.5780  0.7216  0.3920
  749SOL    HW1 2246   1.281   3.045   0.820  4.1286 -1.7720  0.6894
  749SOL    HW2 2247   1.439   2.992   0.808  4.2134  0.9639 -1.1421
  750SOL     OW 2248   2.233   0.178   1.846  0.0429 -0.4607 -0.1662
  750SOL    HW1 2249   2.278   0.206   1.757  3.1470  1.4342  0.0588
  750SOL    HW2 2250   2.233   0.254   1.921  1.8373  1.8966  1.1209
  751SOL     OW 2251   0.768   2.123   2.869 -0.3313 -0.6258  0.2230
  751SOL    HW1 2252   0.838   2.137   2.945  0.4041 -0.8396  1.0012
  751SOL    HW2 2253   0.684   2.064   2.898 -2.2232  2.8060  0.5242
  752SOL     OW 2254   1.292   0.807   1.172  0.0403  0.3468  0.6375
  752SOL    HW1 2255   1.312   0.907   1.191  0.7517  0.9366  1.4264
  752SOL    HW2 2256   1.373   0.751   1.206 -1.2399 -0.1205  0.0680
  753SOL     OW 2257   0.970   2.567   1.803 -0.3031 -0.2904  0.1802
  753SOL    HW1 2258   1.071   2.581   1.788  2.4171  0.6116  0.4355
  753SOL    HW2 2259   0.918   2.650   1.834 -0.9652  2.2700 -1.1410
  754SOL     OW 2260   1.165   1.168   3.002 -0.2475  0.2838  0.1920
  754SOL    HW1 2261   1.226   1.094   2.969 -2.0230  2.2188 -0.4349
  754SOL    HW2 2262   1.212   1.260   3.010 -1.0852 -0.3418  0.6891
  755SOL     OW 2263   1.985   0.457   2.218  0.1883 -0.2733  0.5440
  755SOL    HW1 2264   2.058   0.385   2.225  3.0467 -0.4820  1.0216
  755SOL    HW2 2265   1.903   0.446   2.285  1.1527 -0.6015 -1.1292
  756SOL     OW 2266   2.505   1.006   2.997 -0.3368  0.2298 -0.2540
  756SOL    HW1 2267   2.605   0.974   3.009 -0.1535 -3.3430 -0.3967
  756SOL    HW2 2268   2.446   0.922   3.016  0.1508  0.7904 -1.1742
  757SOL     OW 2269   0.091   0.399   1.960  0.3678 -0.3310 -0.0479
  757SOL    HW1 2270   0.164   0.323   1.970 -0.1147  1.7846 -1.0650
  757SOL    HW2 2271   0.003   0.380   2.010 -1.9325 -2.2916  1.8209
  758SOL     OW 2272   2.212   0.103   1.508 -0.6781  0.3235  0.2334
  758SOL    HW1 2273   2.233   0.010   1.549 -1.9696  0.0436  0.2460
  758SOL    HW2 2274   2.217   0.098   1.403 -1.8640 -0.5365 -2.2121
  759SOL     OW 2275   1.675   0.038   0.058  0.4335 -0.1923 -0.3981
  759SOL    HW1 2276   1.621   0.048  -0.032 -0.1588  0.1822  1.0344
  759SOL    HW2 2277   1.777   0.016   0.038 -0.4111 -2.1773 -2.9964
  760SOL     OW 2278   2.672   2.001   2.818 -0.5534  0.0189 -0.4001
  760SOL    HW1 2279   2.569   2.008   2.809 -1.4733  1.4998 -2.1439
  760SOL    HW2 2280   2.726   2.088   2.836  1.9583 -3.3047  0.2799
  761SOL     OW 2281   1.940   1.732   1.742  0.5321 -0.2977  0.0986
  761SOL    HW1 2282   1.982   1.639   1.761 -1.2895 -0.5016  2.2097
  761SOL    HW2 2283   1.899   1.737   1.648 -0.5721  1.6082  1.5358
  762SOL     OW 2284   0.476   2.391   0.941  0.0777 -0.0052  0.6007
  762SOL    HW1 2285   0.514   2.401   0.846 -0.4016 -0.0799 -0.3132
  762SOL    HW2 2286   0.543   2.382   1.017  0.0232 -1.3221 -0.4709
  763SOL     OW 2287   2.091   1.567   2.994 -0.4126 -0.4091  0.3226
  763SOL    HW1 2288   2.189   1.529   2.989  0.7766  1.5637 -0.1839
  763SOL    HW2 2289   2.022   1.498   3.042 -1.0983 -0.9171 -0.5230
  764SOL     OW 2290   0.696   0.604   0.690 -0.2112  0.0882  0.0992
  764SOL    HW1 2291   0.600   0.570   0.665  3.0153 -0.7922  1.5746
  764SOL    HW2 2292   0.732   0.569   0.785  1.3123  1.4538  0.4218
  765SOL     OW 2293   0.808   0.314   0.726  0.3698 -0.8538  0.3518
  765SOL    HW1 2294   0.876   0.343   0.656 -5.4213 -2.1969  1.9351
  765SOL    HW2 2295   0.805   0.380   0.805  0.5105  2.3617  2.0133
  766SOL     OW 2296   2.928   2.147   3.070 -0.0959 -0.2505 -0.0490
  766SOL    HW1 2297   2.833   2.157   3.110 -2.7337  0.4924  0.1681
  766SOL    HW2 2298   2.992   2.231   3.079  0.1653 -1.0105  0.0935
  767SOL     OW 2299   2.812   1.616   0.614 -0.4112  0.4145  0.1963
  767SOL    HW1 2300   2.715   1.614   0.657 -1.2894 -1.9699 -0.3839
  767SOL    HW2 2301   2.875   1.680   0.664 -1.5547  0.7692  0.3554
  768SOL     OW 2302   1.074   0.200   0.201 -0.1092 -0.0569  0.3377
  768SOL    HW1 2303   1.063   0.252   0.290  2.3059 -1.9212  1.0219
  768SOL    HW2 2304   1.177   0.195   0.176  2.5652  1.3587  1.0500
  769SOL     OW 2305   1.103   1.822   2.308 -0.5543 -0.2207  0.7385
  769SOL    HW1 2306   1.014   1.834   2.366 -2.0431 -0.3978  0.2983
  769SOL    HW2 2307   1.186   1.816   2.363 -1.4208 -1.5310 -0.3425
  770SOL     OW 2308   0.135   1.131   2.325  0.3439 -0.2580 -0.3694
  770SOL    HW1 2309   0.139   1.202   2.399  0.3659  0.2136 -0.7698
  770SOL    HW2 2310   0.039   1.093   2.306  1.6226 -0.4888  1.0848
  771SOL     OW 2311   3.049   2.818   1.942  0.7150 -0.2052  0.1479
  771SOL    HW1 2312   2.992   2.860   1.858  0.2123  1.3005 -1.2472
  771SOL    HW2 2313   3.014   2.863   2.032 -2.7214 -3.7032  1.4449
  772SOL     OW 2314   2.360   0.258   2.806 -0.4912  0.5145  0.0876
  772SOL    HW1 2315   2.425   0.175   2.782  0.2776 -1.8014  0.6510
  772SOL    HW2 2316   2.339   0.264   2.908  0.3608  0.2183 -2.8047
  773SOL     OW 2317   0.585   2.076   2.406  0.1897  0.5556 -0.1372
  773SOL    HW1 2318   0.554   2.153   2.338  1.1712  1.6903 -4.7102
  773SOL    HW2 2319   0.530   1.988   2.391 -0.0247  0.4725 -0.2260
  774SOL     OW 2320   2.109   0.015   2.574 -0.1714 -0.5047  0.5232
  774SOL    HW1 2321   2.112   0.098   2.632 -1.8194  1.3006 -1.2906
  774SOL    HW2 2322   2.180  -0.056   2.597 -1.5153 -0.8959 -1.3473
  775SOL     OW 2323   2.540   2.960   2.213 -0.6048  0.2736 -1.0711
  775SOL    HW1 2324   2.450   2.995   2.173  0.9186  0.3040  0.1933
  775SOL    HW2 2325   2.556   3.000   2.312 -0.0098  2.5205  2.4634
  776SOL     OW 2326   3.095   1.271   0.169 -0.3013  0.3141 -0.1579
  776SOL    HW1 2327   3.036   1.258   0.080 -0.0521  3.2014 -1.7488
  776SOL    HW2 2328   3.039   1.239   0.250  1.3416  0.7035 -1.7203
  777SOL     OW 2329   0.376   2.938   0.428  0.1987 -0.3843 -0.5307
  777SOL    HW1 2330   0.281   2.925   0.379  0.2502  1.8689  0.6584
  777SOL    HW2 2331   0.452   2.884   0.378 -2.2047 -1.4080 -2.0259
  778SOL     OW 2332   1.359   2.027   0.246 -0.5789  0.4393 -0.8232
  778SOL    HW1 2333   1.281   2.068   0.300 -0.1509  1.8906 -1.8230
  778SOL    HW2 2334   1.385   2.075   0.156  0.2326  0.9513 -0.0703
  779SOL     OW 2335   0.155   0.799   0.480  0.2404  0.3496 -0.0187
  779SOL    HW1 2336   0.090   0.727   0.447 -3.0949 -1.4036  2.7883
  779SOL    HW2 2337   0.099   0.875   0.528  1.2526  0.0716  0.8330
  780SOL     OW 2338   0.126   0.279   2.317  0.5322 -0.0282 -0.3541
  780SOL    HW1 2339   0.092   0.323   2.407  0.7695 -4.0623  0.3937
  780SOL    HW2 2340   0.212   0.328   2.286 -0.6897 -0.3182 -0.0096
  781SOL     OW 2341   0.721   1.708   1.518  0.1563  0.3200 -0.0130
  781SOL    HW1 2342   0.760   1.623   1.566  0.6005 -1.9715 -2.0446
  781SOL    HW2 2343   0.618   1.717   1.525  0.7480  1.1224 -1.7428
  782SOL     OW 2344   2.563   0.059   0.947  0.0339  0.1220  0.1635
  782SOL    HW1 2345   2.498   0.090   0.871 -0.2410  1.1957  0.8372
  782SOL    HW2 2346   2.545   0.112   1.035 -2.0369 -0.5032  1.4087
  783SOL     OW 2347   2.781   0.745   2.484  0.7174 -0.4943  0.4459
  783SOL    HW1 2348   2.788   0.736   2.588  0.2054  1.3293  2.6607
  783SOL    HW2 2349   2.742   0.654   2.456 -1.1531 -0.2739  2.0422
  784SOL     OW 2350   1.416   2.159   0.009 -0.3669  0.3921 -0.2476
  784SOL    HW1 2351   1.451   2.246   0.042  0.9482 -1.1739  1.8478
  784SOL    HW2 2352   1.402   2.163  -0.097 -0.8958  2.2993 -0.9881
  785SOL     OW 2353   2.077   0.299   0.010 -0.3965  0.0551  0.1329
  785SOL    HW1 2354   1.995   0.331   0.075 -2.1348  1.8011  1.7206
  785SOL    HW2 2355   2.101   0.378  -0.052 -1.8420  0.8476 -0.3765
  786SOL     OW 2356   2.047   2.181   2.230 -0.7025 -0.0005 -0.7281
  786SOL    HW1 2357   2.007   2.099   2.284  1.5189 -0.2848 -1.6274
  786SOL    HW2 2358   2.148   2.190   2.246  3.0493  0.1234  1.6691
  787SOL     OW 2359   1.351   0.570   0.890 -0.0105  0.0936  0.4398
  787SOL    HW1 2360   1.276   0.650   0.888  0.2692  2.2415  3.9185
  787SOL    HW2 2361   1.400   0.553   0.799  0.1591 -0.5524 -3.7269
  788SOL     OW 2362   1.213   0.418   0.019 -0.1662 -0.0253 -0.0395
  788SOL    HW1 2363   1.113   0.408  -0.015 -0.6372  3.0703  0.5483
  788SOL    HW2 2364   1.220   0.500   0.086 -0.5749  0.5885  0.5825
  789SOL     OW 2365   2.519   0.116   1.953  0.1436 -0.1460  0.1678
  789SOL    HW1 2366   2.416   0.096   1.937 -3.9695  2.1326 -1.3101
  789SOL    HW2 2367   2.585   0.043   1.909 -1.3248 -0.3199 -0.0117
  790SOL     OW 2368   2.612   2.762   0.700  0.9162  0.3393  0.4014
  790SOL    HW1 2369   2.665   2.801   0.622 -3.1650 -1.6651  1.7370
  790SOL    HW2 2370   2.626   2.815   0.787 -0.4829  0.3381  1.9526
  791SOL     OW 2371   1.940   1.203   0.208 -0.0960  0.0465  1.1658
  791SOL    HW1 2372   1.848   1.189   0.259 -1.0319  3.1509 -1.7960
  791SOL    HW2 2373   2.029   1.181   0.260 -1.0398 -0.9048 -1.5957
  792SOL     OW 2374   0.404   1.731   2.159  0.1912 -0.5184 -0.2059
  792SOL    HW1 2375   0.480   1.724   2.226 -2.6618 -0.4856 -0.9735
  792SOL    HW2 2376   0.319   1.685   2.197 -2.1835  2.7584 -1.2955
  793SOL     OW 2377   2.108   1.596   2.112 -0.1285 -0.0936  0.3690
  793SOL    HW1 2378   2.188   1.637   2.059 -2.5842 -0.2492  0.6597
  793SOL    HW2 2379   2.090   1.500   2.079 -0.6362  0.9585 -2.7243
  794SOL     OW 2380   0.533   1.498   2.275  0.7290  0.0632  0.0475
  794SOL    HW1 2381   0.498   1.448   2.190 -1.6244  0.7219 -1.1907
  794SOL    HW2 2382   0.474   1.478   2.358  0.1636  0.7804  1.7539
  795SOL     OW 2383   2.509   2.293   1.820  0.1096  0.4148  0.2370
  795SOL    HW1 2384   2.508   2.290   1.921 -0.5225  2.4050  0.0019
  795SOL    HW2 2385   2.456   2.217   1.778  2.6614  0.9609  2.5483
  796SOL     OW 2386   3.088   1.116   2.631  0.1722  0.2634 -0.1386
  796SOL    HW1 2387   3.000   1.070   2.646  2.6553 -1.4402  2.2827
  796SOL    HW2 2388   3.124   1.145   2.723 -1.1133  0.8892 -1.1903
  797SOL     OW 2389   0.824   0.631   1.399 -0.3550  0.1103 -0.0695
  797SOL    HW1 2390   0.873   0.693   1.469  2.7002  0.8239 -0.1541
  797SOL    HW2 2391   0.764   0.687   1.333 -0.1120  1.7533 -1.9169
  798SOL     OW 2392   1.316   0.430   1.191  0.3421 -0.3989 -0.3304
  798SOL    HW1 2393   1.388   0.415   1.268 -0.8856 -0.2122  2.1032
  798SOL    HW2 2394   1.358   0.456   1.100 -0.8529 -0.0209  0.8595
  799SOL     OW 2395   1.984   2.656   1.024  0.2034  0.1070 -0.0699
  799SOL    HW1 2396   1.900   2.625   1.075  0.1384 -0.6389 -0.2864
  799SOL    HW2 2397   1.976   2.683   0.925  1.0177 -0.3698  0.7170
  800SOL     OW 2398   3.062   0.609   1.822  0.1898 -0.4818 -0.6511
  800SOL    HW1 2399   2.996   0.652   1.887  1.5353 -1.0849  0.0270
  800SOL    HW2 2400   3.116   0.534   1.870  2.4638 -0.8862 -0.3930
  801SOL     OW 2401   1.916   2.222   0.128  0.2526 -0.0222 -0.2610
  801SOL    HW1 2402   1.834   2.167   0.091  0.9917  0.4206 -0.7158
  801SOL    HW2 2403   2.003   2.191   0.081  1.6695 -1.8762  3.1371
  802SOL     OW 2404   0.712   0.760   2.581 -0.1379  0.2276  0.0512
  802SOL    HW1 2405   0.785   0.753   2.513 -2.2390 -2.2058  0.0678
  802SOL    HW2 2406   0.630   0.697   2.555 -0.7913 -0.7707 -0.0288
  803SOL     OW 2407   0.906   0.128   0.918 -0.0961 -0.3444 -0.3464
  803SOL    HW1 2408   0.985   0.196   0.935  1.8032  2.4725  0.1095
  803SOL    HW2 2409   0.848   0.155   0.837 -0.9249 -0.1834 -0.5071
  804SOL     OW 2410   0.356   3.086   2.112 -0.3955  0.3878  0.3027
  804SOL    HW1 2411   0.292   3.152   2.059  0.1050  2.8165  0.1311
  804SOL    HW2 2412   0.328   2.984   2.107 -3.3704 -0.5908 -0.9187
  805SOL     OW 2413   2.433   0.246   0.262 -0.4794 -0.4786 -0.4233
  805SOL    HW1 2414   2.535   0.267   0.277 -1.3964  0.1297  1.9453
  805SOL    HW2 2415   2.411   0.209   0.169  1.9364  0.5655  3.3174
  806SOL     OW 2416   0.662   2.396   1.699 -0.2065 -0.0206  0.1756
  806SOL    HW1 2417   0.672   2.500   1.693  0.9354 -0.8511 -0.2638
  806SOL    HW2 2418   0.752   2.346   1.679  0.2893  2.9135  1.6625
  807SOL     OW 2419   2.453   0.951   0.458  0.8464  0.0581  0.3427
  807SOL    HW1 2420   2.538   0.935   0.513 -1.0654  2.7853  0.8998
  807SOL    HW2 2421   2.451   0.922   0.359 -0.9156  1.3398 -0.0860
  808SOL     OW 2422   0.541   1.987   2.957 -0.3322 -0.0100 -0.4932
  808SOL    HW1 2423   0.546   2.001   3.061 -1.6772 -3.0691 -0.9325
  808SOL    HW2 2424   0.568   1.891   2.929  1.6308  0.0589 -1.1620
  809SOL     OW 2425   2.581   1.964   1.950 -1.0008 -0.0003  0.0794
  809SOL    HW1 2426   2.683   1.994   1.969  2.4326 -1.2563  1.4545
  809SOL    HW2 2427   2.568   1.938   1.849  0.2492 -0.1952  0.0028
  810SOL     OW 2428   2.032   1.098   0.539 -0.4961 -0.4495  0.6360
  810SOL    HW1 2429   2.057   1.047   0.626 -0.7893 -1.7326 -0.9315
  810SOL    HW2 2430   1.985   1.181   0.566  0.4823  0.0511  3.0631
  811SOL     OW 2431   1.304   2.430   1.270  0.5957  0.7376  0.2860
  811SOL    HW1 2432   1.294   2.332   1.297  0.4906  2.3301  0.4752
  811SOL    HW2 2433   1.258   2.455   1.179  0.0686 -1.5501 -0.9612
  812SOL     OW 2434   1.407   0.788   1.943  0.6675 -0.2207 -0.0307
  812SOL    HW1 2435   1.464   0.860   1.996 -0.2462  0.7124  0.2115
  812SOL    HW2 2436   1.305   0.815   1.937 -0.6350 -0.5380 -1.7697
  813SOL     OW 2437   1.748   2.115   2.442 -0.5701  0.5051 -0.4401
  813SOL    HW1 2438   1.828   2.049   2.437  1.1960  0.9114 -0.6952
  813SOL    HW2 2439   1.676   2.099   2.375  0.7129  1.1374  0.3553
  814SOL     OW 2440   2.843   1.534   2.924 -0.0501  0.5325  0.1259
  814SOL    HW1 2441   2.940   1.529   2.955 -1.1058 -1.0984  1.3737
  814SOL    HW2 2442   2.826   1.614   2.865 -0.3260  1.1140  2.9823
  815SOL     OW 2443   2.250   2.911   2.712 -0.0921 -0.0210 -0.4451
  815SOL    HW1 2444   2.265   2.897   2.812 -1.9078  0.8223 -0.8687
  815SOL    HW2 2445   2.326   2.881   2.646  1.4553  1.2286  0.3887
  816SOL     OW 2446   1.763   0.343   1.679  0.0285 -0.6497 -0.3312
  816SOL    HW1 2447   1.750   0.252   1.728  1.4066 -0.9421  0.7228
  816SOL    HW2 2448   1.675   0.398   1.670  2.0629 -2.4011 -1.3440
  817SOL     OW 2449   0.474   1.199   2.445  0.0477 -0.1126  0.2932
  817SOL    HW1 2450   0.428   1.288   2.466 -0.3224 -1.2795 -0.0918
  817SOL    HW2 2451   0.507   1.185   2.347 -2.2798  1.7733  1.5499
  818SOL     OW 2452   2.013   0.828   0.451 -0.7948 -0.3628  0.9740
  818SOL    HW1 2453   2.019   0.932   0.462 -0.0874  1.8895  0.2629
  818SOL    HW2 2454   1.954   0.778   0.521 -1.0050 -2.2223 -0.6627
  819SOL     OW 2455   2.779   2.910   3.035  0.3834 -0.2316 -0.4862
  819SOL    HW1 2456   2.869   2.874   2.988  1.1834  1.3269 -0.6017
  819SOL    HW2 2457   2.699   2.876   2.979  2.2360 -1.5754 -0.1269
  820SOL     OW 2458   1.241   1.119   0.493  0.2904  0.0688  0.3579
  820SOL    HW1 2459   1.252   1.210   0.531 -0.2993  2.9791 -1.2260
  820SOL    HW2 2460   1.220   1.053   0.572  0.6082  1.2438  1.8260
  821SOL     OW 2461   3.083   1.300   0.663  0.6743  0.5327 -0.3137
  821SOL    HW1 2462   3.029   1.311   0.747 -1.3593 -0.6559  0.6423
  821SOL    HW2 2463   3.168   1.363   0.665  0.4293  2.0392 -0.5263
  822SOL     OW 2464   2.524   1.796   2.440 -0.0743 -0.5389  0.0000
  822SOL    HW1 2465   2.511   1.880   2.504 -1.4755  2.0058  0.1747
  822SOL    HW2 2466   2.488   1.816   2.348 -0.3325 -0.9272 -0.0522
  823SOL     OW 2467   2.048   0.887   1.239  0.1518 -0.0566  0.1935
  823SOL    HW1 2468   2.013   0.921   1.328 -0.6307 -1.9767  0.8678
  823SOL    HW2 2469   1.978   0.882   1.165  1.7151  0.2137  0.7493
  824SOL     OW 2470   0.135   2.009   2.731 -0.4073  0.1445  0.0111
  824SOL    HW1 2471   0.091   1.947   2.804  1.5722 -1.3179  2.1295
  824SOL    HW2 2472   0.224   1.969   2.699 -0.2606 -1.2944  0.6869
  825SOL     OW 2473   1.242   1.040   0.233  0.3517 -0.0110 -0.5382
  825SOL    HW1 2474   1.235   1.080   0.331 -0.3882  3.8936  0.1882
  825SOL    HW2 2475   1.212   1.115   0.170 -2.6910  0.5538 -1.3449
  826SOL     OW 2476   1.947   0.641   1.517  0.0500 -0.2293  0.2039
  826SOL    HW1 2477   2.012   0.604   1.591 -0.3949  2.8775 -0.4668
  826SOL    HW2 2478   1.873   0.574   1.488  1.8686  0.1786  0.4053
  827SOL     OW 2479   0.731   1.419   0.286 -0.8875 -0.0969  0.2220
  827SOL    HW1 2480   0.749   1.348   0.210  1.7255  0.7387  0.4453
  827SOL    HW2 2481   0.695   1.374   0.371  0.2050 -2.0481 -1.1719
  828SOL     OW 2482   2.554   0.077   1.565 -0.2305 -0.2629  0.3842
  828SOL    HW1 2483   2.463   0.124   1.547  0.7965  1.5939 -1.6867
  828SOL    HW2 2484   2.550  -0.012   1.621  3.1761 -0.0112 -1.0325
  829SOL     OW 2485   2.828   2.487   3.028 -0.6412 -0.2977 -0.6717
  829SOL    HW1 2486   2.754   2.441   2.976  2.3419  1.8815 -3.6545
  829SOL    HW2 2487   2.800   2.561   3.098  2.4513  0.7652 -0.0980
  830SOL     OW 2488   2.757   0.951   3.041  0.4641  0.0118 -0.3317
  830SOL    HW1 2489   2.840   1.011   3.058 -2.0010 -1.0573  2.2335
  830SOL    HW2 2490   2.773   0.858   3.090 -0.9525  1.2359  1.0510
  831SOL     OW 2491   0.005   0.611   0.349 -0.4409 -0.0862  0.4887
  831SOL    HW1 2492  -0.057   0.547   0.401 -0.2132  3.2402  0.0685
  831SOL    HW2 2493   0.069   0.553   0.295 -0.5925 -1.1768  1.1558
  832SOL     OW 2494   1.801   0.733   3.101  0.6387 -0.1251  0.5299
  832SOL    HW1 2495   1.719   0.792   3.076 -0.0679 -0.0315 -0.2412
  832SOL    HW2 2496   1.801   0.654   3.035  0.4874  1.4616  0.2531
  833SOL     OW 2497   2.452   2.150   0.494 -0.2899 -0.3158  0.3611
  833SOL    HW1 2498   2.350   2.164   0.466 -0.6515  0.0282  1.2573
  833SOL    HW2 2499   2.492   2.059   0.463 -1.3276  1.1347 -3.3015
  834SOL     OW 2500   0.100   0.239   0.637  0.4731 -0.2781  0.0164
  834SOL    HW1 2501   0.189   0.199   0.688  0.3327 -3.1111 -2.6777
  834SOL    HW2 2502   0.096   0.205   0.537  1.5771 -0.9660 -0.6733
  835SOL     OW 2503   2.353   1.520   1.182  0.3501  0.6901 -0.2523
  835SOL    HW1 2504   2.455   1.544   1.205 -1.4515 -0.3996  0.1607
  835SOL    HW2 2505   2.345   1.507   1.081 -3.0139  1.9792  1.2010
  836SOL     OW 2506   1.534   0.804   2.575  0.2355 -0.0361 -0.3286
  836SOL    HW1 2507   1.430   0.818   2.554 -0.1653 -0.7640 -0.4861
  836SOL    HW2 2508   1.593   0.802   2.487  0.4507  0.5249 -1.1770
  837SOL     OW 2509   1.658   0.082   0.544  0.2599  0.8989  0.0907
  837SOL    HW1 2510   1.628   0.162   0.602  1.4988  2.0937 -0.1112
  837SOL    HW2 2511   1.620   0.086   0.444  2.6685 -0.4296 -3.0366
  838SOL     OW 2512   1.236   1.572   2.677 -0.9524 -0.5015  0.2317
  838SOL    HW1 2513   1.310   1.540   2.740  1.0178  1.6140  0.7758
  838SOL    HW2 2514   1.156   1.510   2.657 -1.3062  0.6629  0.6920
  839SOL     OW 2515   1.633   0.284   0.967 -0.4503  0.1830  0.1508
  839SOL    HW1 2516   1.641   0.366   1.033  0.3264  2.5028 -1.5912
  839SOL    HW2 2517   1.602   0.198   1.015  0.2397 -2.0241  0.4937
  840SOL     OW 2518   2.552   2.942   1.733  0.2837  0.2506  0.2398
  840SOL    HW1 2519   2.517   2.895   1.648  0.7074 -0.9200  1.4049
  840SOL    HW2 2520   2.595   2.881   1.800  0.1864 -1.6044  0.1841
  841SOL     OW 2521   1.570   0.886   3.050  0.8891 -0.4345  0.0678
  841SOL    HW1 2522   1.479   0.862   3.104 -2.0359  0.0310 -0.1630
  841SOL    HW2 2523   1.557   0.955   2.978 -1.7310 -0.5467  3.1068
  842SOL     OW 2524   0.803   1.523   0.881 -0.1111 -0.7412 -0.0153
  842SOL    HW1 2525   0.764   1.598   0.939  1.7117 -0.6153 -0.2004
  842SOL    HW2 2526   0.743   1.444   0.863 -0.6774 -0.6935  0.6996
  843SOL     OW 2527   0.152   3.075   1.408 -0.7270  0.5596  0.5480
  843SOL    HW1 2528   0.172   3.153   1.475  0.9578  2.0189 -1.8660
  843SOL    HW2 2529   0.087   2.999   1.442 -2.4144 -0.6231 -1.7816
  844SOL     OW 2530   0.795   2.448   0.258 -0.2107 -0.2637 -0.0167
  844SOL    HW1 2531   0.749   2.404   0.340  0.3839  0.5422 -0.3174
  844SOL    HW2 2532   0.731   2.499   0.195  2.1148  1.1832 -0.1108
  845SOL     OW 2533   1.681   2.849   1.227 -0.0207  0.0144  0.2224
  845SOL    HW1 2534   1.733   2.760   1.220 -0.5800  2.4252  0.8370
  845SOL    HW2 2535   1.702   2.908   1.305 -0.8674  0.5335  2.0393
  846SOL     OW 2536   1.564   2.963   0.706  0.1689 -0.0692 -0.2209
  846SOL    HW1 2537   1.603   3.047   0.660 -2.6671 -1.5334 -1.1526
  846SOL    HW2 2538   1.637   2.914   0.760 -1.1868  1.0056  0.4775
  847SOL     OW 2539   2.105   1.695   0.426  0.5048 -0.2369  0.0704
  847SOL    HW1 2540   2.078   1.607   0.380 -0.4832  3.6865  1.4725
  847SOL    HW2 2541   2.027   1.764   0.412 -3.1856  0.6537  0.2565
  848SOL     OW 2542   2.407   0.880   2.594  0.0882 -0.3000  0.1159
  848SOL    HW1 2543   2.390   0.964   2.651  0.6626  0.3112 -2.2083
  848SOL    HW2 2544   2.317   0.835   2.564  0.3074  0.7271 -1.2513
  849SOL     OW 2545   2.564   0.885   2.373  0.0670  0.2626 -0.4655
  849SOL    HW1 2546   2.659   0.841   2.396  0.5893 -2.3616 -0.5468
  849SOL    HW2 2547   2.499   0.888   2.453 -1.2823  0.4053  1.0785
  850SOL     OW 2548   1.578   0.087   1.324  0.3784  0.2889  0.4184
  850SOL    HW1 2549   1.566   0.077   1.222 -1.5007  3.5122 -1.1060
  850SOL    HW2 2550   1.547   0.011   1.380  0.8775  0.3096  1.0919
  851SOL     OW 2551   0.485   1.780   0.607 -0.5975  0.0106 -0.5502
  851SOL    HW1 2552   0.514   1.852   0.677 -0.5059  3.5339  0.3045
  851SOL    HW2 2553   0.512   1.819   0.514 -0.4935  0.5254 -2.1102
  852SOL     OW 2554   0.846   2.048   1.786 -0.0459 -0.6293  0.4652
  852SOL    HW1 2555   0.851   2.142   1.745 -3.1125 -1.8199  2.6423
  852SOL    HW2 2556   0.780   2.049   1.864  0.3573 -0.5362  0.4310
  853SOL     OW 2557   2.549   1.562   2.598 -0.2179  0.1318 -0.0328
  853SOL    HW1 2558   2.481   1.487   2.589  1.0058 -0.7231 -1.0188
  853SOL    HW2 2559   2.542   1.639   2.528 -1.1906  0.3628  0.6566
  854SOL     OW 2560   2.446   1.394   1.780 -0.0290 -0.1315  0.1743
  854SOL    HW1 2561   2.523   1.359   1.723  0.0850 -2.2145  0.9700
  854SOL    HW2 2562   2.395   1.321   1.828  0.0045  2.2772  0.5843
  855SOL     OW 2563   2.068   2.407   1.070 -0.3295  0.2687  0.3728
  855SOL    HW1 2564   2.042   2.505   1.042 -0.4610  0.0457  0.7090
  855SOL    HW2 2565   2.143   2.405   1.141  0.5861 -0.0635  1.4808
  856SOL     OW 2566   1.331   1.418   0.924  0.0060  0.0418  0.1052
  856SOL    HW1 2567   1.413   1.480   0.948 -2.7877 -0.1746  1.0525
  856SOL    HW2 2568   1.246   1.459   0.965  0.8902 -1.7301 -0.2234
  857SOL     OW 2569   0.003   2.755   1.053 -0.2399  0.1485 -0.0745
  857SOL    HW1 2570  -0.069   2.747   0.980  1.5155  0.2171  1.0190
  857SOL    HW2 2571   0.098   2.733   1.020  1.5413 -1.6877 -2.6674
  858SOL     OW 2572   2.378   2.068   1.675 -0.3464  0.4329  0.7250
  858SOL    HW1 2573   2.288   2.017   1.672 -2.0627 -0.9300  1.2694
  858SOL    HW2 2574   2.463   2.019   1.628  2.4254 -1.4241  0.0890
  859SOL     OW 2575   2.391   0.525   1.025 -0.5499  0.1138  0.0841
  859SOL    HW1 2576   2.466   0.565   0.962 -0.9628  0.8563 -0.2539
  859SOL    HW2 2577   2.423   0.443   1.087 -2.2506 -2.5275 -2.4780
  860SOL     OW 2578   1.861   2.823   0.534 -0.6527  0.1727 -0.0233
  860SOL    HW1 2579   1.869   2.770   0.442 -0.8535  3.1932 -0.3602
  860SOL    HW2 2580   1.888   2.920   0.526 -0.5233 -0.2645  2.6996
  861SOL     OW 2581   0.949   2.500   2.894 -0.3453 -0.2091  0.1676
  861SOL    HW1 2582   1.043   2.530   2.864  0.8297  1.3245 -0.3968
  861SOL    HW2 2583   0.926   2.550   2.983  0.0907 -1.6982  1.5984
  862SOL     OW 2584   2.882   2.545   1.651  0.6182  0.5404 -0.0928
  862SOL    HW1 2585   2.971   2.546   1.705  1.5215 -0.5330  1.9721
  862SOL    HW2 2586   2.838   2.638   1.630 -0.9693 -0.6623 -2.3670
  863SOL     OW 2587   1.816   2.730   0.291 -0.0658  0.3463  0.5275
  863SOL    HW1 2588   1.864   2.645   0.257  1.6682  1.7708  0.9032
  863SOL    HW2 2589   1.713   2.728   0.291 -2.6208 -1.0245 -2.8541
  864SOL     OW 2590   2.007   1.265   2.838 -0.3789  0.2198 -0.0436
  864SOL    HW1 2591   1.969   1.189   2.775  0.2384 -0.5288 -0.0108
  864SOL    HW2 2592   2.054   1.348   2.794 -1.0358 -0.7867  2.4303
  865SOL     OW 2593   2.162   1.944   0.741  0.3310  0.1781 -0.1129
  865SOL    HW1 2594   2.227   1.871   0.778 -1.4188 -0.1464  0.8593
  865SOL    HW2 2595   2.090   1.966   0.814  0.5553 -0.4052 -1.1976
  866SOL     OW 2596   2.929   2.999   1.025 -0.3031 -0.0075  0.1175
  866SOL    HW1 2597   2.927   3.068   0.950  2.1154 -0.3083 -0.4944
  866SOL    HW2 2598   3.008   2.931   1.014 -2.5799  1.6459  0.5975
  867SOL     OW 2599   0.328   1.411   0.921 -0.3987  0.4090 -0.0385
  867SOL    HW1 2600   0.340   1.372   0.827 -0.5732  2.6388  3.4467
  867SOL    HW2 2601   0.287   1.504   0.913 -0.8055 -0.9226 -0.7842
  868SOL     OW 2602   0.770   1.833   2.056 -0.6055  0.0816  0.1691
  868SOL    HW1 2603   0.738   1.793   2.144 -0.6445 -1.3921  0.2822
  868SOL    HW2 2604   0.707   1.900   2.017  0.0477 -1.5348  2.3774
  869SOL     OW 2605   2.612   1.913   1.686 -0.2076 -0.5272 -0.1755
  869SOL    HW1 2606   2.680   1.970   1.631  2.8037  0.6580  2.8899
  869SOL    HW2 2607   2.621   1.810   1.670 -1.5298  2.1484  2.6929
  870SOL     OW 2608   2.345   2.698   1.239  0.2543  0.7068  0.3297
  870SOL    HW1 2609   2.339   2.592   1.252  2.0741 -0.5122 -0.4461
  870SOL    HW2 2610   2.437   2.742   1.226 -4.2820  0.2125  2.9904
  871SOL     OW 2611   3.055   2.239   0.506 -0.1646 -0.1804  0.7784
  871SOL    HW1 2612   2.998   2.220   0.588  1.3416 -1.1768  0.2142
  871SOL    HW2 2613   3.007   2.290   0.427  2.2081  0.8510 -0.6875
  872SOL     OW 2614   2.103   0.490   1.710 -0.0882 -0.2491  0.0449
  872SOL    HW1 2615   2.069   0.472   1.803 -1.2586  0.2443 -1.2029
  872SOL    HW2 2616   2.183   0.432   1.677  0.0389  0.0196 -1.6267
  873SOL     OW 2617   1.699   2.114   3.102  0.0092  0.1568  0.0175
  873SOL    HW1 2618   1.597   2.102   3.102  0.5187  0.7063  1.2924
  873SOL    HW2 2619   1.726   2.165   3.017 -1.8456  0.9892 -0.2552
  874SOL     OW 2620   0.666   2.455   0.739  0.1950 -0.2523  0.3761
  874SOL    HW1 2621   0.686   2.552   0.760 -2.1732 -1.0521  1.4855
  874SOL    HW2 2622   0.750   2.393   0.748 -0.5649  0.5129 -3.0719
  875SOL     OW 2623   2.219   1.486   1.407  0.4065  0.1191 -0.3924
  875SOL    HW1 2624   2.255   1.556   1.472 -0.9110 -0.1666  0.7523
  875SOL    HW2 2625   2.269   1.482   1.312 -1.9405 -0.4998 -0.4368
  876SOL     OW 2626   0.053   2.264   2.624  0.1396 -0.1704 -0.3402
  876SOL    HW1 2627   0.081   2.167   2.642 -0.5335  3.5659 -0.3529
  876SOL    HW2 2628   0.094   2.330   2.693  2.6832 -0.7284  1.6764
  877SOL     OW 2629   2.937   2.675   0.612  0.4556  0.5680 -0.1336
  877SOL    HW1 2630   2.914   2.778   0.613 -0.5710 -0.3799  1.3228
  877SOL    HW2 2631   2.998   2.638   0.693 -0.2197  0.8950  2.7209
  878SOL     OW 2632   2.828   1.566   2.277 -0.3179 -0.6813 -0.4311
  878SOL    HW1 2633   2.768   1.644   2.246 -0.6529 -1.9681 -0.1616
  878SOL    HW2 2634   2.804   1.529   2.371 -1.1632  0.9337 -1.1927
  879SOL     OW 2635   2.427   0.067   1.202 -0.8071  0.3682  0.3742
  879SOL    HW1 2636   2.478  -0.021   1.205 -1.9909 -0.3577 -1.5573
  879SOL    HW2 2637   2.330   0.062   1.165 -1.0592  1.3643 -1.1849
  880SOL     OW 2638   0.715   0.555   2.270  0.1431  0.4625 -0.3017
  880SOL    HW1 2639   0.700   0.501   2.358  0.1336 -1.4970 -0.4701
  880SOL    HW2 2640   0.766   0.497   2.198  2.9178  0.6537 -0.1101
  881SOL     OW 2641   0.825   0.082   0.401 -0.3116 -0.1187 -0.0781
  881SOL    HW1 2642   0.877  -0.008   0.411 -1.6489 -0.1116  0.3499
  881SOL    HW2 2643   0.727   0.076   0.377  0.0990 -0.7876  1.9507
  882SOL     OW 2644   2.728   1.641   1.685 -0.0379  0.6461 -0.3703
  882SOL    HW1 2645   2.819   1.586   1.665  0.2752  0.7345  0.6694
  882SOL    HW2 2646   2.714   1.663   1.780 -2.0382 -0.3722 -0.0596
  883SOL     OW 2647   0.793   0.516   0.916  0.0241 -0.2843 -0.1617
  883SOL    HW1 2648   0.856   0.584   0.961 -0.2794  1.4941 -1.6245
  883SOL    HW2 2649   0.716   0.487   0.984  1.1898 -1.8976  0.9076
  884SOL     OW 2650   1.141   1.788   1.140 -0.8164  0.4809 -0.0603
  884SOL    HW1 2651   1.117   1.684   1.129 -0.8173 -3.6340  1.2713
  884SOL    HW2 2652   1.094   1.840   1.064  1.1071 -1.5385  1.1939
  885SOL     OW 2653   2.348   1.893   2.238 -0.4993 -0.7749  0.5388
  885SOL    HW1 2654   2.291   1.844   2.306  0.0113 -0.8954 -0.9571
  885SOL    HW2 2655   2.351   1.994   2.266 -0.6905 -0.0631  0.3372
  886SOL     OW 2656   2.592   0.386   1.762  0.1032  0.0828  0.6224
  886SOL    HW1 2657   2.584   0.289   1.801 -0.4794  0.6609 -1.5907
  886SOL    HW2 2658   2.678   0.407   1.709 -0.7741  0.8137 -1.6675
  887SOL     OW 2659   0.148   2.078   1.265 -0.3429 -0.5946  0.1094
  887SOL    HW1 2660   0.159   2.003   1.193  1.4838 -1.9239  1.5711
  887SOL    HW2 2661   0.150   2.178   1.224  2.0387 -0.5741  1.3488
  888SOL     OW 2662   0.609   1.219   1.500  0.6816 -0.3691 -0.3178
  888SOL    HW1 2663   0.627   1.294   1.437 -2.2583 -0.5320  0.7886
  888SOL    HW2 2664   0.652   1.127   1.469  0.0954  1.7081  2.6946
  889SOL     OW 2665   0.860   2.451   2.236  0.1308  0.2932 -0.2556
  889SOL    HW1 2666   0.769   2.403   2.253 -0.6732 -1.2208 -0.5257
  889SOL    HW2 2667   0.908   2.409   2.154 -1.1224  2.0892 -0.5026
  890SOL     OW 2668   2.331   2.509   0.222 -0.4688  0.0704  0.1846
  890SOL    HW1 2669   2.355   2.591   0.162  0.4900  0.4002 -2.4613
  890SOL    HW2 2670   2.259   2.526   0.293 -0.0789  1.3885  5.4450
  891SOL     OW 2671   2.561   1.675   0.708 -0.4917 -0.2072  0.0157
  891SOL    HW1 2672   2.536   1.674   0.807 -1.2878  1.6336  0.3637
  891SOL    HW2 2673   2.487   1.672   0.635  0.8795 -0.1033 -0.2781
  892SOL     OW 2674   0.347   0.397   2.208 -0.1932 -0.3398  0.4256
  892SOL    HW1 2675   0.339   0.448   2.116  0.1819 -0.8452 -0.1150
  892SOL    HW2 2676   0.421   0.330   2.211 -0.4585  1.4416  1.3117
  893SOL     OW 2677   1.700   0.247   2.743  0.5360 -0.2669 -0.8918
  893SOL    HW1 2678   1.770   0.300   2.799 -0.8543  3.1538  1.7357
  893SOL    HW2 2679   1.618   0.303   2.712 -0.5429  1.5626  1.4303
  894SOL     OW 2680   2.147   2.099   0.102 -0.0675  0.4958  0.0398
  894SOL    HW1 2681   2.144   2.045   0.013 -0.3314  1.4526  0.0266
  894SOL    HW2 2682   2.173   2.037   0.185  0.5324  1.0203  0.6078
  895SOL     OW 2683   2.727   1.441   0.956  0.3585  0.2906  0.3253
  895SOL    HW1 2684   2.809   1.373   0.968 -1.1994 -2.0040  0.9262
  895SOL    HW2 2685   2.758   1.537   0.953  0.7235  0.0198  1.4221
  896SOL     OW 2686   1.789   1.844   1.229 -0.0409  0.5673 -0.5608
  896SOL    HW1 2687   1.892   1.823   1.239  0.2383  0.8458  2.6539
  896SOL    HW2 2688   1.735   1.773   1.177  0.7327  1.5439  1.4498
  897SOL     OW 2689   0.247   0.530   3.004  0.4968  0.2052  0.0336
  897SOL    HW1 2690   0.199   0.589   2.930  1.6791  1.2206 -0.2006
  897SOL    HW2 2691   0.332   0.587   3.041  1.5880 -0.1740  4.3385
  898SOL     OW 2692   0.697   2.822   1.079 -0.2071 -0.0432  0.1216
  898SOL    HW1 2693   0.766   2.900   1.086 -0.9093  0.1385  1.0829
  898SOL    HW2 2694   0.705   2.755   1.154 -1.7832 -1.9634 -2.6396
  899SOL     OW 2695   2.867   0.952   1.395 -0.4785 -0.0878  0.6114
  899SOL    HW1 2696   2.837   0.998   1.304 -0.3514 -2.3848  0.4458
  899SOL    HW2 2697   2.969   0.971   1.425  0.8492 -0.2215  0.6972
  900SOL     OW 2698   1.024   2.430   2.470  0.2216 -0.3631  0.3020
  900SOL    HW1 2699   0.972   2.425   2.383  0.7659  1.7038  0.9543
  900SOL    HW2 2700   0.986   2.368   2.538  0.6499  2.8117 -0.4330
  901SOL     OW 2701   1.909   2.459   1.427  0.1402  0.1912 -0.4637
  901SOL    HW1 2702   1.889   2.393   1.347  1.0131 -2.4364 -1.2435
  901SOL    HW2 2703   2.014   2.462   1.444  4.0793  0.8192 -0.3752
  902SOL     OW 2704   2.534   1.660   1.472  0.3056 -0.3353  0.4223
  902SOL    HW1 2705   2.605   1.646   1.549  1.3382  0.9084  0.2076
  902SOL    HW2 2706   2.560   1.614   1.385 -0.4894  0.6366 -0.1083
  903SOL     OW 2707   0.341   2.443   2.009  0.3371  0.7451 -0.0970
  903SOL    HW1 2708   0.279   2.362   2.028  1.1544 -0.4664 -1.0459
  903SOL    HW2 2709   0.317   2.492   1.919 -0.7486 -2.1176 -0.2259
  904SOL     OW 2710   2.012   0.767   2.454 -0.3617 -0.5009  0.7656
  904SOL    HW1 2711   1.942   0.724   2.515  0.0106 -2.0041 -1.1523
  904SOL    HW2 2712   2.000   0.749   2.353 -0.1472 -0.1776 -0.5275
  905SOL     OW 2713   2.825   0.076   2.412  0.2042  0.0044  0.2122
  905SOL    HW1 2714   2.881  -0.004   2.443 -0.2362 -0.0183  1.4510
  905SOL    HW2 2715   2.858   0.163   2.453 -0.5464  0.8030 -0.9816
  906SOL     OW 2716   0.155   1.725   1.892 -0.1932 -0.3395 -0.1602
  906SOL    HW1 2717   0.123   1.744   1.795 -0.9210  3.9369 -0.8507
  906SOL    HW2 2718   0.250   1.757   1.903  1.6518 -1.9336 -0.2624
  907SOL     OW 2719   0.238   2.520   0.991  0.2661  0.4894 -0.5984
  907SOL    HW1 2720   0.338   2.486   0.986  0.8077 -0.3270  0.8373
  907SOL    HW2 2721   0.228   2.608   0.939  0.6830  0.3746  1.2287
  908SOL     OW 2722   2.822   3.028   0.327  0.2498  0.1458 -0.4633
  908SOL    HW1 2723   2.731   3.014   0.285  0.9604 -0.5996 -0.8621
  908SOL    HW2 2724   2.887   2.946   0.324  0.0412 -0.7807 -2.0004
  909SOL     OW 2725   0.832   1.031   2.658 -0.3244  0.1836 -0.4505
  909SOL    HW1 2726   0.814   0.930   2.663  2.4281  1.0510  2.0138
  909SOL    HW2 2727   0.909   1.054   2.585  0.2238  0.3418 -1.0366
  910SOL     OW 2728   1.783   1.880   2.144  0.0287 -0.4990 -0.0044
  910SOL    HW1 2729   1.844   1.905   2.065 -0.9653  1.7117 -1.5378
  910SOL    HW2 2730   1.713   1.955   2.155  1.2856  1.8314 -2.8979
  911SOL     OW 2731   1.768   2.953   1.491  0.2419  1.1718 -0.3570
  911SOL    HW1 2732   1.861   2.928   1.445  0.4840 -0.3060  1.0266
  911SOL    HW2 2733   1.730   2.874   1.547  1.1922 -0.5501  0.2270
  912SOL     OW 2734   2.858   1.041   0.712  0.0219 -0.4621 -0.5028
  912SOL    HW1 2735   2.911   1.014   0.794 -0.0459 -0.2794 -2.3830
  912SOL    HW2 2736   2.785   1.114   0.728 -0.5440  1.6572 -2.0581
  913SOL     OW 2737   2.612   1.287   1.572 -0.4978 -0.0620 -0.0322
  913SOL    HW1 2738   2.626   1.182   1.568  0.0349  0.7607 -1.0208
  913SOL    HW2 2739   2.645   1.329   1.481 -0.6210  3.7252  1.7060
  914SOL     OW 2740   2.785   0.596   1.157 -0.1373 -0.3974 -0.5902
  914SOL    HW1 2741   2.762   0.510   1.214  3.0520  0.6992 -0.0204
  914SOL    HW2 2742   2.719   0.680   1.168  2.2246 -1.1401  2.0450
  915SOL     OW 2743   1.178   0.770   0.931  0.4175  0.1658  0.1102
  915SOL    HW1 2744   1.220   0.785   1.024 -0.1825 -0.1731 -2.0076
  915SOL    HW2 2745   1.076   0.785   0.929 -1.9011 -1.2538  0.6612
  916SOL     OW 2746   0.615   0.136   0.618 -0.3550  0.3086  0.3933
  916SOL    HW1 2747   0.694   0.184   0.664  0.4715  0.4510  2.2739
  916SOL    HW2 2748   0.561   0.194   0.554 -0.4368  2.6544 -3.3162
  917SOL     OW 2749   2.907   2.581   2.010 -0.2535 -0.1835  0.0987
  917SOL    HW1 2750   2.812   2.590   1.970  1.2918 -1.0719  0.3691
  917SOL    HW2 2751   2.971   2.665   1.983 -1.7477 -0.3279 -0.6482
  918SOL     OW 2752   1.009   2.135   3.019 -0.1005  0.2397 -0.1732
  918SOL    HW1 2753   1.020   2.207   3.093 -0.4913 -1.1493 -2.5576
  918SOL    HW2 2754   1.088   2.131   2.951 -0.1873 -0.5779  0.0079
  919SOL     OW 2755   0.876   1.680   2.776  0.2332  0.8461 -0.7716
  919SOL    HW1 2756   0.875   1.779   2.745  0.1691 -0.1831  2.1924
  919SOL    HW2 2757   0.841   1.611   2.708  0.2663  0.6658  1.3118
  920SOL     OW 2758   1.296   1.783   2.499 -0.1694 -0.1803 -0.2305
  920SOL    HW1 2759   1.395   1.771   2.470 -0.9087  1.1375 -0.8448
  920SOL    HW2 2760   1.274   1.714   2.575 -2.4660 -3.1684 -0.9306
  921SOL     OW 2761   1.145   0.042   2.613 -0.5641  0.3458  0.3705
  921SOL    HW1 2762   1.127   0.015   2.514 -2.4987 -4.2774 -0.6263
  921SOL    HW2 2763   1.053   0.066   2.659 -0.0934 -2.2367 -0.0329
  922SOL     OW 2764   2.179   2.427   2.773 -0.0502 -0.0562  0.1427
  922SOL    HW1 2765   2.153   2.325   2.774  2.5538 -2.2713 -2.3300
  922SOL    HW2 2766   2.127   2.480   2.705  0.3433 -1.1785 -2.8917
  923SOL     OW 2767   1.280   2.737   0.268  0.7887 -0.3393 -0.1504
  923SOL    HW1 2768   1.330   2.801   0.332 -2.1043 -0.3096  1.3805
  923SOL    HW2 2769   1.297   2.640   0.300 -1.1023  0.3016  1.3080
  924SOL     OW 2770   2.940   1.699   0.136 -0.0081 -0.0894 -0.2283
  924SOL    HW1 2771   2.852   1.653   0.100 -2.9314 -1.4090 -1.3746
  924SOL    HW2 2772   3.020   1.638   0.138 -0.8275  0.9102 -1.6304
  925SOL     OW 2773   0.010   2.867   1.503  0.0130 -0.1764 -0.3463
  925SOL    HW1 2774  -0.050   2.861   1.589 -0.2768  1.0129  1.9282
  925SOL    HW2 2775  -0.034   2.842   1.413 -2.1495  1.9025  2.2902
  926SOL     OW 2776   1.277   2.813   1.302 -0.1001 -0.1595 -0.0322
  926SOL    HW1 2777   1.334   2.797   1.213 -0.1637 -0.0243  1.0305
  926SOL    HW2 2778   1.322   2.878   1.373  1.5431 -1.3024  0.4188
  927SOL     OW 2779   0.381   2.665   1.766 -0.1335 -0.0804 -0.4140
  927SOL    HW1 2780   0.368   2.606   1.684  0.7068  0.6532 -0.6598
  927SOL    HW2 2781   0.320   2.749   1.759 -0.1123  0.1898  1.2600
  928SOL     OW 2782   1.577   2.071   2.232  0.0111 -0.0764  0.1394
  928SOL    HW1 2783   1.596   2.157   2.171 -1.5686 -0.7656 -0.4447
  928SOL    HW2 2784   1.477   2.043   2.236 -0.3955  0.2280 -0.1491
  929SOL     OW 2785   2.453   2.480   2.869  0.1332 -0.1543 -0.4671
  929SOL    HW1 2786   2.349   2.470   2.855  0.6283  0.7466  1.3996
  929SOL    HW2 2787   2.500   2.496   2.781 -4.7256  0.5239 -2.2439
  930SOL     OW 2788   2.187   2.044   1.098 -0.2821 -0.1076 -0.3845
  930SOL    HW1 2789   2.176   2.022   1.196  0.5908 -2.2529 -0.8827
  930SOL    HW2 2790   2.261   2.118   1.083  1.0012  0.5186  2.3707
  931SOL     OW 2791   0.495   1.709   2.613 -0.0752  0.3149  0.3382
  931SOL    HW1 2792   0.523   1.733   2.713  1.2767 -0.8868  2.1804
  931SOL    HW2 2793   0.584   1.698   2.554  1.7172  0.4645  1.3534
  932SOL     OW 2794   0.369   0.016   0.031 -0.7489  0.1551 -0.4095
  932SOL    HW1 2795   0.439   0.090   0.029 -1.5171 -0.5594  1.1897
  932SOL    HW2 2796   0.405  -0.068  -0.019 -0.9891  1.8423  1.3680
  933SOL     OW 2797   1.005   0.840   3.044 -0.0529  0.1368 -0.2235
  933SOL    HW1 2798   1.067   0.870   3.122 -1.4654  0.4310  0.0176
  933SOL    HW2 2799   0.908   0.875   3.060 -2.2163  0.7669  0.5146
  934SOL     OW 2800   0.776   2.939   2.635 -0.7331 -0.6440  0.8938
  934SOL    HW1 2801   0.778   2.868   2.554 -1.3955 -1.7655 -2.9235
  934SOL    HW2 2802   0.815   2.893   2.716 -0.3026 -0.8174 -0.8350
  935SOL     OW 2803   0.035   0.551   0.823  0.5471 -0.8852 -0.5686
  935SOL    HW1 2804   0.009   0.515   0.727  0.3176  0.8746  1.4419
  935SOL    HW2 2805  -0.036   0.619   0.856 -0.9136 -1.2577  0.5528
  936SOL     OW 2806   1.115   2.857   0.060 -0.2350 -0.1868 -0.1455
  936SOL    HW1 2807   1.176   2.917  -0.006  1.5964  3.4599  1.1528
  936SOL    HW2 2808   1.170   2.831   0.145 -0.5747  1.0593 -0.3874
  937SOL     OW 2809   2.004   2.616   2.048  0.0613 -0.1096  0.1542
  937SOL    HW1 2810   1.951   2.665   2.124 -0.7388  0.9552 -1.2796
  937SOL    HW2 2811   1.994   2.662   1.957  0.5500 -0.5883 -1.9673
  938SOL     OW 2812   2.786   2.083   1.565  0.0156 -0.3295 -0.4186
  938SOL    HW1 2813   2.752   2.179   1.582 -0.1822 -1.2320 -0.8695
  938SOL    HW2 2814   2.881   2.076   1.603 -1.1147  2.4168 -2.2387
  939SOL     OW 2815   2.830   1.154   2.486 -0.5052  0.3015 -0.1261
  939SOL    HW1 2816   2.916   1.126   2.433 -2.3800 -0.0144 -1.8850
  939SOL    HW2 2817   2.825   1.106   2.578 -0.2914 -0.2674 -0.6510
  940SOL     OW 2818   1.094   0.453   2.737 -0.3049  0.1405 -0.4477
  940SOL    HW1 2819   1.143   0.364   2.754 -1.1497  0.1637  0.0677
  940SOL    HW2 2820   1.030   0.435   2.652  1.4202  0.5461 -0.9138
  941SOL     OW 2821   0.066   2.801   2.278 -0.6723  0.2280  0.6720
  941SOL    HW1 2822   0.123   2.711   2.252  0.3205  1.3604 -2.6321
  941SOL    HW2 2823   0.122   2.872   2.327  0.3259 -4.0766  0.9797
  942SOL     OW 2824   0.086   0.070   2.517 -0.2877 -0.3546 -0.0708
  942SOL    HW1 2825   0.156   0.105   2.587 -0.9857 -0.9207  1.4791
  942SOL    HW2 2826   0.084   0.131   2.434  0.7984 -0.8431 -0.8786
  943SOL     OW 2827   2.136   1.707   2.346  0.6428 -0.2523 -0.0550
  943SOL    HW1 2828   2.122   1.653   2.261 -2.2315  3.6410  0.5602
  943SOL    HW2 2829   2.154   1.647   2.431 -0.1678  2.5938 -1.1558
  944SOL     OW 2830   2.154   2.370   1.518 -0.3191  0.3913 -0.4605
  944SOL    HW1 2831   2.246   2.370   1.569  2.7585  1.9229 -0.7368
  944SOL    HW2 2832   2.101   2.286   1.545 -0.6189 -1.1373 -1.1710
  945SOL     OW 2833   0.720   1.595   0.075  0.2503  0.1143 -0.3927
  945SOL    HW1 2834   0.633   1.578   0.021  0.5992  0.2553  1.7629
  945SOL    HW2 2835   0.721   1.542   0.167  0.6300  0.4622  1.7373
  946SOL     OW 2836   0.306   1.028   2.607  0.2283 -0.1437 -0.5744
  946SOL    HW1 2837   0.278   0.947   2.549  0.1099  1.8832 -2.6958
  946SOL    HW2 2838   0.358   1.090   2.544 -1.2530  1.5304  0.6638
  947SOL     OW 2839   1.475   0.548   3.049 -0.2551  0.5542  0.2595
  947SOL    HW1 2840   1.491   0.571   2.946  0.6548 -0.6232  1.0960
  947SOL    HW2 2841   1.379   0.505   3.067  0.2565  0.5008 -0.3265
  948SOL     OW 2842   1.920   2.955   2.185 -0.2657 -0.2932  0.1992
  948SOL    HW1 2843   1.913   2.923   2.086 -1.0008 -0.8496  0.5621
  948SOL    HW2 2844   1.904   2.881   2.249 -1.0734  2.9853  0.1455
  949SOL     OW 2845   0.612   2.432   0.470  0.2296  0.2547  0.2085
  949SOL    HW1 2846   0.606   2.535   0.446  0.1566 -2.6623  0.0480
  949SOL    HW2 2847   0.615   2.408   0.570 -0.4502  0.7051  0.4861
  950SOL     OW 2848   0.219   2.188   2.953  0.5201  0.0474 -0.0410
  950SOL    HW1 2849   0.210   2.283   2.919  0.2981  2.6295  2.0214
  950SOL    HW2 2850   0.188   2.119   2.881 -0.7466 -1.4456  0.0776
  951SOL     OW 2851   1.178   2.671   2.798  0.3281 -0.2688  0.0310
  951SOL    HW1 2852   1.233   2.605   2.858 -1.1241  0.3725 -2.5892
  951SOL    HW2 2853   1.223   2.677   2.706 -0.0390  0.1648 -2.0835
  952SOL     OW 2854   0.116   1.629   0.414  0.1085 -0.2668 -0.9547
  952SOL    HW1 2855   0.149   1.715   0.466  0.8439 -2.7779  1.4078
  952SOL    HW2 2856   0.123   1.544   0.468  1.3746 -1.7789 -0.2692
  953SOL     OW 2857   2.540   1.722   0.299 -0.2794 -0.3341  0.6222
  953SOL    HW1 2858   2.526   1.620   0.276 -0.7855  0.2823  3.5038
  953SOL    HW2 2859   2.513   1.777   0.218 -2.8579  0.5917 -0.5073
  954SOL     OW 2860   2.165   0.567   0.905 -0.7214  0.3972 -0.0063
  954SOL    HW1 2861   2.172   0.565   0.802 -1.2243 -0.8382 -1.4764
  954SOL    HW2 2862   2.247   0.531   0.963  1.3656 -0.9474  0.8052
  955SOL     OW 2863   0.123   2.531   1.363 -0.0134 -0.2272 -0.2322
  955SOL    HW1 2864   0.027   2.564   1.349  1.4515  2.1263  0.2655
  955SOL    HW2 2865   0.201   2.596   1.335  1.1569  1.1159 -1.8259
  956SOL     OW 2866   2.835   2.497   2.509 -0.1755 -0.1078  0.2036
  956SOL    HW1 2867   2.853   2.396   2.514  0.6764  0.9030 -0.3063
  956SOL    HW2 2868   2.882   2.537   2.426 -0.1986 -0.0295 -1.9213
  957SOL     OW 2869   1.632   2.057   2.758 -0.0935 -0.6989 -0.0660
  957SOL    HW1 2870   1.588   1.995   2.831 -2.7457 -0.9830 -0.4982
  957SOL    HW2 2871   1.711   2.015   2.712 -0.8721  2.0520 -0.2994
  958SOL     OW 2872   2.646   2.298   2.905 -0.1467  0.2283 -0.2032
  958SOL    HW1 2873   2.564   2.361   2.894 -1.1016  1.5520 -0.6302
  958SOL    HW2 2874   2.637   2.237   2.990 -1.7781 -2.5802 -5.3063
  959SOL     OW 2875   0.345   2.758   0.126  0.4276  0.1514 -0.6579
  959SOL    HW1 2876   0.263   2.796   0.169 -1.1115 -3.0209  0.7438
  959SOL    HW2 2877   0.356   2.658   0.152  1.5151  0.9781 -1.6477
  960SOL     OW 2878   1.959   0.447   1.946  0.0504 -0.4864 -0.0879
  960SOL    HW1 2879   1.911   0.536   1.918 -2.1309  0.4118 -0.4370
  960SOL    HW2 2880   1.986   0.443   2.050  0.6442 -0.9353 -0.5346
  961SOL     OW 2881   2.540   1.864   1.022  0.1477 -0.0258 -0.5946
  961SOL    HW1 2882   2.541   1.951   0.964 -2.6775 -3.1013 -2.4117
  961SOL    HW2 2883   2.523   1.882   1.125 -3.1875  0.5137 -0.2967
  962SOL     OW 2884   1.279   0.838   0.053  0.0890 -0.5345  0.1077
  962SOL    HW1 2885   1.275   0.870  -0.047  1.5649 -1.0594  3.2521
  962SOL    HW2 2886   1.287   0.919   0.122 -0.6944 -1.3682  1.8497
  963SOL     OW 2887   2.292   2.573   1.832  0.3414 -0.1802  0.2666
  963SOL    HW1 2888   2.269   2.470   1.853 -0.3100 -0.2036  0.4883
  963SOL    HW2 2889   2.345   2.623   1.907  2.1206  1.3880  1.4886
  964SOL     OW 2890   2.364   0.318   1.655 -0.2509 -0.0991 -0.4564
  964SOL    HW1 2891   2.444   0.365   1.709  1.6685  4.6216  1.5206
  964SOL    HW2 2892   2.355   0.353   1.555 -0.4666 -1.9294 -2.7582
  965SOL     OW 2893   2.599   2.956   0.147 -0.0812 -0.2618  0.4755
  965SOL    HW1 2894   2.664   2.935   0.069  1.4513 -0.6297  1.1322
  965SOL    HW2 2895   2.514   3.006   0.116 -1.1260  0.0772 -0.3455
  966SOL     OW 2896   2.487   2.503   2.218  0.2625  0.1821 -0.4201
  966SOL    HW1 2897   2.500   2.595   2.172  0.1880 -0.3892 -1.4241
  966SOL    HW2 2898   2.396   2.464   2.190 -1.6453  0.0926  1.0023
  967SOL     OW 2899   2.747   2.841   2.458  0.0509 -0.2462 -0.1681
  967SOL    HW1 2900   2.751   2.761   2.391 -1.4137 -0.6453 -2.2098
  967SOL    HW2 2901   2.828   2.904   2.455 -1.0747  0.1792 -1.8345
  968SOL     OW 2902   1.938   1.042   2.620 -0.1031  0.0874  0.1543
  968SOL    HW1 2903   1.854   1.088   2.578  1.9085 -1.7652 -0.1677
  968SOL    HW2 2904   1.958   0.956   2.563 -0.7972 -0.4951 -0.1378
  969SOL     OW 2905   2.819   2.548   1.097 -0.3937 -0.7264 -0.7056
  969SOL    HW1 2906   2.810   2.548   0.995 -0.5596 -1.9287 -0.9724
  969SOL    HW2 2907   2.847   2.455   1.137  2.2588 -1.3216  0.1937
  970SOL     OW 2908   1.138   2.145   1.884 -0.1420  1.4739  0.5840
  970SOL    HW1 2909   1.094   2.058   1.908 -0.7704  1.8481 -1.4300
  970SOL    HW2 2910   1.096   2.222   1.938  0.9453 -2.6388  2.0913
  971SOL     OW 2911   2.846   2.083   1.929 -0.0594 -0.1330  0.1385
  971SOL    HW1 2912   2.881   2.182   1.934  0.7276  1.7464 -2.0936
  971SOL    HW2 2913   2.892   2.027   1.855 -0.0999 -1.2172 -1.1761
  972SOL     OW 2914   1.924   2.490   0.237  0.0089  0.0319  0.6482
  972SOL    HW1 2915   1.937   2.401   0.179 -1.5805  1.9072  0.5456
  972SOL    HW2 2916   1.929   2.462   0.334 -2.0496  1.5853  0.2868
  973SOL     OW 2917   1.158   0.877   1.878 -0.0594 -0.2531 -0.0679
  973SOL    HW1 2918   1.116   0.792   1.916  1.4386 -1.6382  2.8249
  973SOL    HW2 2919   1.092   0.932   1.818  0.4691 -0.7353 -0.6443
  974SOL     OW 2920   1.601   0.598   2.001  0.4713  0.1350 -0.0747
  974SOL    HW1 2921   1.690   0.632   1.963 -0.9633 -1.7950 -0.1034
  974SOL    HW2 2922   1.525   0.663   1.980  2.7341  1.0128 -0.8294
  975SOL     OW 2923   2.357   3.012   3.075 -0.8004 -0.6624 -0.0485
  975SOL    HW1 2924   2.314   2.936   3.136 -1.6714 -2.3950 -0.4769
  975SOL    HW2 2925   2.410   2.969   2.997  0.0965  1.5100 -0.8734
  976SOL     OW 2926   1.900   2.739   2.336 -0.1271  0.9271  0.2537
  976SOL    HW1 2927   1.814   2.685   2.328  1.5854  0.9385 -1.7953
  976SOL    HW2 2928   1.921   2.764   2.436  0.4325 -0.4409  1.0582
  977SOL     OW 2929   0.465   0.694   1.031  0.1074 -0.4186 -0.0747
  977SOL    HW1 2930   0.410   0.675   0.950  1.8293  0.5416  1.9078
  977SOL    HW2 2931   0.546   0.755   1.007 -2.4035 -0.7376  1.9520
   3.10000   3.10000   3.10000
