1000 SPC/Fw water molecules t=   1.86000 step= 1860
 2931
    1SOL     OW    1   2.506   0.321   2.673  0.0333 -0.7097  0.7076
    1SOL    HW1    2   2.539   0.226   2.656 -0.7892  1.3008 -2.5462
    1SOL    HW2    3   2.556   0.361   2.756  2.9902 -0.9262  1.7258
    2SOL     OW    4   2.753   2.844   1.335  0.7923 -0.5557 -0.9803
    2SOL    HW1    5   2.845   2.839   1.279  3.0560 -1.8589 -0.3344
    2SOL    HW2    6   2.760   2.905   1.421  1.1669 -0.8324  0.8021
    3SOL     OW    7   2.735   2.449   0.440  0.2232  0.0410  0.6706
    3SOL    HW1    8   2.635   2.422   0.434 -1.2681  5.5257  2.7306
    3SOL    HW2    9   2.754   2.501   0.528 -1.6302  0.1910  0.0411
    4SOL     OW   10   1.245   1.564   2.450 -0.2422  0.7501  0.3267
    4SOL    HW1   11   1.173   1.562   2.375  0.2161  3.1775 -0.6106
    4SOL    HW2   12   1.230   1.480   2.512 -1.9098 -1.3311 -0.6105
    5SOL     OW   13   1.151   1.590   2.918  0.1335  0.2260 -0.4664
    5SOL    HW1   14   1.192   1.664   2.974 -1.2790 -3.3009  0.7168
    5SOL    HW2   15   1.057   1.609   2.891  1.6972 -1.4137  2.3347
    6SOL     OW   16   0.178   1.841   0.036  0.1205  0.1439 -0.1233
    6SOL    HW1   17   0.103   1.893   0.092 -0.8043  0.8699 -2.1261
    6SOL    HW2   18   0.198   1.739   0.067  1.8978 -2.2773 -1.9782
    7SOL     OW   19   2.534   0.879   1.030  0.2963 -0.6554 -0.3889
    7SOL    HW1   20   2.445   0.857   1.078 -0.4868 -2.1464 -2.0484
    7SOL    HW2   21   2.535   0.848   0.927 -0.6913 -4.8562 -1.2338
    8SOL     OW   22   0.438   0.731   1.512  0.2895  0.5361  0.0779
    8SOL    HW1   23   0.529   0.689   1.533  0.2664  0.3712 -0.5869
    8SOL    HW2   24   0.427   0.753   1.411  2.6012  0.0432  0.5122
    9SOL     OW   25   1.090   0.901   2.348  0.5582 -0.5408 -0.1799
    9SOL    HW1   26   1.149   0.911   2.268  0.4518 -4.8257 -0.4936
    9SOL    HW2   27   1.065   0.800   2.347  0.4944  1.5063 -2.4857
   10SOL     OW   28   0.614   1.475   1.271 -0.5564  0.4314 -0.2317
   10SOL    HW1   29   0.537   1.456   1.200 -2.8222  1.0923 -2.5758
   10SOL    HW2   30   0.619   1.576   1.299 -0.3194 -0.5917 -2.0591
   11SOL     OW   31   2.329   2.825   0.940  0.3411 -0.0417  0.4216
   11SOL    HW1   32   2.278   2.806   1.025  3.4017 -0.2555 -3.3617
   11SOL    HW2   33   2.423   2.863   0.953  1.7304  0.4792 -2.3235
   12SOL     OW   34   1.463   0.835   0.490 -0.6283 -0.0256  0.2224
   12SOL    HW1   35   1.367   0.799   0.507 -1.0343 -0.9599  0.2852
   12SOL    HW2   36   1.523   0.786   0.414  2.6340 -1.1371  0.7751
   13SOL     OW   37   2.437   0.746   1.817 -0.0670 -0.3521  0.6498
   13SOL    HW1   38   2.366   0.685   1.866 -0.3374  0.7153 -0.0487
   13SOL    HW2   39   2.479   0.694   1.735  2.5002 -2.6472 -0.7680
   14SOL     OW   40   1.935   3.044   0.627 -0.0746 -0.4103  0.6971
   14SOL    HW1   41   1.846   3.102   0.612 -3.6725  1.1380  1.3417
   14SOL    HW2   42   1.946   3.015   0.728 -0.3108 -0.4953  0.6000
   15SOL     OW   43   1.908   2.120   2.668 -0.1004 -0.4193 -0.4451
   15SOL    HW1   44   1.819   2.142   2.724 -3.4258  1.3543  0.1968
   15SOL    HW2   45   1.897   2.035   2.603  0.1309 -2.5839 -0.2232
   16SOL     OW   46   1.550   1.764   3.006  0.3922 -0.3168 -0.3306
   16SOL    HW1   47   1.544   1.700   3.086 -1.2489  1.4543 -0.5315
   16SOL    HW2   48   1.648   1.803   2.994 -1.2701 -1.5408 -3.4185
   17SOL     OW   49   0.078   0.464   0.188 -0.6788 -0.2903  0.2579
   17SOL    HW1   50   0.169   0.426   0.159 -0.6851  0.3150  3.2400
   17SOL    HW2   51   0.012   0.490   0.110  1.5061  1.7092  2.8188
   18SOL     OW   52   0.860   2.834   2.205 -0.6632 -0.2657  0.9475
   18SOL    HW1   53   0.806   2.759   2.252 -0.3592 -1.6926  1.1873
   18SOL    HW2   54   0.906   2.804   2.120 -1.0855 -1.2732  1.3773
   19SOL     OW   55   0.509   0.940   1.930 -0.1980 -0.8067  0.1138
   19SOL    HW1   56   0.539   0.878   2.010 -1.1133 -0.6703 -0.7172
   19SOL    HW2   57   0.576   1.020   1.913 -1.9963  1.5998  2.1827
   20SOL     OW   58   0.237   2.779   0.723 -0.8522  0.2861  0.5313
   20SOL    HW1   59   0.137   2.787   0.725  1.6236  1.0724  0.9198
   20SOL    HW2   60   0.277   2.688   0.684  1.5914 -2.6007 -1.0319
   21SOL     OW   61   2.797   0.277   1.990  1.1211 -0.3191 -0.1535
   21SOL    HW1   62   2.738   0.195   1.955 -1.7819  1.8506  0.4433
   21SOL    HW2   63   2.863   0.251   2.066 -1.1675 -1.5176 -0.2541
   22SOL     OW   64   2.417   0.195   0.105  0.0063  0.3858 -0.7505
   22SOL    HW1   65   2.432   0.106   0.063  1.1412  2.9049  0.7479
   22SOL    HW2   66   2.348   0.250   0.052  3.3612  0.1098  2.3513
   23SOL     OW   67   2.820   0.493   0.666  0.1059 -0.0258 -0.2085
   23SOL    HW1   68   2.908   0.450   0.629 -1.0914 -0.5501  0.2083
   23SOL    HW2   69   2.805   0.595   0.642  0.3434 -2.5200 -0.4619
   24SOL     OW   70   0.280   1.926   0.457 -0.3912 -0.1341  0.4773
   24SOL    HW1   71   0.264   2.002   0.387 -2.4322  1.0919 -0.2614
   24SOL    HW2   72   0.374   1.888   0.451 -1.9920  1.4122  0.3107
   25SOL     OW   73   2.281   0.599   0.249 -0.1354 -0.1358 -0.0480
   25SOL    HW1   74   2.268   0.572   0.149  0.2167 -0.5069  0.7254
   25SOL    HW2   75   2.331   0.523   0.303 -1.4177 -1.0548  0.4290
   26SOL     OW   76   2.459   2.155   2.133  0.9773  0.3988  0.6086
   26SOL    HW1   77   2.537   2.216   2.172  0.9104  0.0550  2.1418
   26SOL    HW2   78   2.487   2.101   2.048 -1.0107  0.3547  1.7687
   27SOL     OW   79   0.642   3.004   0.146 -0.0997 -0.0293  0.8677
   27SOL    HW1   80   0.726   3.066   0.114  2.9155  1.4600 -2.7364
   27SOL    HW2   81   0.572   2.999   0.070 -1.3705 -2.0270  0.3984
   28SOL     OW   82   1.555   0.183   0.324 -0.2077  0.2844 -0.3630
   28SOL    HW1   83   1.582   0.142   0.229 -0.6345  1.6538 -2.8248
   28SOL    HW2   84   1.621   0.249   0.366 -1.2952 -1.6128  1.9497
   29SOL     OW   85   2.031   0.555   0.310  0.2306 -0.1776 -0.2803
   29SOL    HW1   86   2.000   0.628   0.375 -1.0261  0.9059 -1.7851
   29SOL    HW2   87   2.128   0.580   0.285 -2.5434 -1.5744 -0.0037
   30SOL     OW   88   0.208   2.141   0.886  0.4785 -0.0316  0.0214
   30SOL    HW1   89   0.202   2.058   0.820  0.6171  1.6937 -1.9062
   30SOL    HW2   90   0.111   2.165   0.924 -0.1882 -1.5485  2.3133
   31SOL     OW   91   2.099   0.107   2.381  0.1296  0.1062 -0.4123
   31SOL    HW1   92   2.053   0.083   2.472  0.6402  2.4010  0.7147
   31SOL    HW2   93   2.062   0.051   2.301  0.8153 -1.4826 -1.9482
   32SOL     OW   94   3.074   3.061   0.236  0.1071 -0.2343 -0.2373
   32SOL    HW1   95   3.032   2.968   0.266  0.8179 -0.9409 -0.1459
   32SOL    HW2   96   3.182   3.053   0.227  0.0150 -2.3450 -2.7192
   33SOL     OW   97   0.852   0.294   0.636  0.2532 -0.0258  0.3193
   33SOL    HW1   98   0.850   0.211   0.569  0.8516 -1.8748  1.6444
   33SOL    HW2   99   0.950   0.341   0.630  0.1591 -1.4702  1.0563
   34SOL     OW  100   0.333   2.657   1.028  0.2750 -0.3308 -0.2338
   34SOL    HW1  101   0.265   2.681   0.957 -0.2302  1.4450 -0.5670
   34SOL    HW2  102   0.419   2.716   1.025  0.9799  1.4058 -2.0906
   35SOL     OW  103   0.098   0.216   1.880  0.3156  0.0414 -0.1991
   35SOL    HW1  104   0.122   0.130   1.929 -0.6920 -1.1374  1.0077
   35SOL    HW2  105   0.066   0.201   1.783 -1.8097  3.7069  0.9818
   36SOL     OW  106   1.880   1.212   1.476 -0.1613  0.2135 -0.4738
   36SOL    HW1  107   1.967   1.169   1.509 -0.5386  1.3988 -1.1552
   36SOL    HW2  108   1.900   1.299   1.417 -1.5165 -0.1430 -2.8933
   37SOL     OW  109   1.162   0.257   1.015  0.0146 -0.3232  0.0784
   37SOL    HW1  110   1.187   0.360   1.001  0.7114 -2.0097 -1.8112
   37SOL    HW2  111   1.232   0.195   0.965  1.3413 -0.1819 -2.0972
   38SOL     OW  112   1.119   2.793   2.443 -0.6652  0.2933  0.2060
   38SOL    HW1  113   1.042   2.746   2.498 -1.9517  1.4723 -1.3472
   38SOL    HW2  114   1.094   2.887   2.401  0.5700  1.0508  0.6906
   39SOL     OW  115   2.464   1.405   2.990  0.3831  0.5582  0.1420
   39SOL    HW1  116   2.540   1.343   3.024 -1.3303 -1.2750 -1.0224
   39SOL    HW2  117   2.371   1.382   3.036  0.5551  0.5329  0.4522
   40SOL     OW  118   2.050   2.495   2.526 -0.6853 -0.2450  0.5855
   40SOL    HW1  119   1.993   2.584   2.517  0.3618 -0.0345  2.6963
   40SOL    HW2  120   2.015   2.414   2.474  3.3919 -1.8314 -0.9004
   41SOL     OW  121   3.019   0.704   2.813 -0.4201 -0.0318 -0.0586
   41SOL    HW1  122   3.021   0.798   2.853 -0.3812  0.6471 -1.2972
   41SOL    HW2  123   2.929   0.677   2.773  2.6782  1.2538 -1.8032
   42SOL     OW  124   1.710   1.774   0.489  0.3969 -0.0730  0.0703
   42SOL    HW1  125   1.708   1.669   0.497  0.7585 -1.1358 -0.8910
   42SOL    HW2  126   1.714   1.799   0.386  0.5168  0.7306 -0.9147
   43SOL     OW  127   0.455   1.728   1.122 -0.4062  1.0801  0.1475
   43SOL    HW1  128   0.467   1.636   1.074 -2.6220  2.3759  1.2149
   43SOL    HW2  129   0.378   1.732   1.196 -1.7506 -1.6513  0.7999
   44SOL     OW  130   1.698   2.357   2.944  0.4741 -0.0507  0.1762
   44SOL    HW1  131   1.611   2.409   2.970 -1.0664  0.3831 -0.3039
   44SOL    HW2  132   1.725   2.375   2.845  0.5743 -0.2342  0.3573
   45SOL     OW  133   0.362   1.941   2.629  0.1759  0.4956 -0.3971
   45SOL    HW1  134   0.305   1.933   2.546  1.3369 -1.1909  0.7598
   45SOL    HW2  135   0.426   1.864   2.651  0.1798  3.9148 -2.3168
   46SOL     OW  136   1.328   0.713   0.244 -0.3246  0.0805  0.3255
   46SOL    HW1  137   1.299   0.813   0.235 -0.7277 -2.5858  1.6825
   46SOL    HW2  138   1.258   0.648   0.196 -1.3747  1.0182  1.0383
   47SOL     OW  139   0.144   2.356   1.591  0.3714 -0.6035  0.1058
   47SOL    HW1  140   0.087   2.286   1.641 -2.8124 -0.0778  0.0586
   47SOL    HW2  141   0.115   2.356   1.491 -1.3656  4.1965 -0.1328
   48SOL     OW  142   2.636   0.717   0.132  0.2304 -0.7478 -0.2046
   48SOL    HW1  143   2.636   0.694   0.235 -0.2817  0.7126  1.8219
   48SOL    HW2  144   2.728   0.748   0.099 -0.1895  0.3701 -1.9414
   49SOL     OW  145   0.322   0.838   1.725  0.4064  0.0690 -0.3066
   49SOL    HW1  146   0.387   0.884   1.795 -2.0606  0.3667 -0.8129
   49SOL    HW2  147   0.373   0.792   1.647  2.5578 -2.5496  2.6111
   50SOL     OW  148   1.687   1.100   0.321 -0.0063  0.1100  0.2863
   50SOL    HW1  149   1.720   1.013   0.277 -1.4908  2.8978 -1.5007
   50SOL    HW2  150   1.635   1.088   0.408 -2.6379  0.4080 -1.8747
   51SOL     OW  151   2.972   1.752   0.303 -0.9624 -0.6596 -0.0742
   51SOL    HW1  152   2.958   1.680   0.228  0.6284 -0.7614  1.4365
   51SOL    HW2  153   3.060   1.736   0.360  0.2659  0.3481  0.6386
   52SOL     OW  154   0.792   2.170   0.574  0.3328  0.1705 -0.2682
   52SOL    HW1  155   0.693   2.180   0.548  2.1642  3.4001 -0.3410
   52SOL    HW2  156   0.809   2.088   0.633 -1.4807  0.6882  0.6635
   53SOL     OW  157   0.286   0.467   1.468  0.0297  0.3006  0.3540
   53SOL    HW1  158   0.341   0.551   1.496  0.6013 -1.2607  1.0182
   53SOL    HW2  159   0.264   0.460   1.366 -2.8745  1.1373  1.5946
   54SOL     OW  160   1.739   0.425   0.004  0.8480  0.3860 -0.0952
   54SOL    HW1  161   1.816   0.380   0.056  0.8919  0.2574 -0.9360
   54SOL    HW2  162   1.653   0.421   0.062  1.5682  1.0393 -0.4094
   55SOL     OW  163   0.784   2.916   0.637 -0.3673 -0.6083  0.4929
   55SOL    HW1  164   0.742   3.012   0.637  0.6796  0.7334 -1.2008
   55SOL    HW2  165   0.887   2.914   0.614  0.2654 -5.7449  1.8800
   56SOL     OW  166   0.530   1.577   3.019 -0.0112  0.6553  0.0847
   56SOL    HW1  167   0.456   1.588   3.089 -0.9258  0.0937  2.4981
   56SOL    HW2  168   0.524   1.481   2.985 -0.3177  0.7942  3.0929
   57SOL     OW  169   1.701   2.467   2.357 -0.4327  0.3724  0.2335
   57SOL    HW1  170   1.787   2.408   2.360  0.0183  1.6148 -0.4109
   57SOL    HW2  171   1.667   2.500   2.451 -0.3835  2.1561  0.6088
   58SOL     OW  172   0.633   0.191   1.070  0.2520 -0.0344 -0.4812
   58SOL    HW1  173   0.553   0.195   1.133  0.9416 -3.5335 -0.3999
   58SOL    HW2  174   0.666   0.095   1.050  1.2204  0.3512 -0.3318
   59SOL     OW  175   0.461   2.377   2.571 -0.1095 -0.0664  0.5974
   59SOL    HW1  176   0.509   2.285   2.571  0.3220 -2.1993 -1.9516
   59SOL    HW2  177   0.528   2.456   2.598 -1.1379 -0.8095  0.3169
   60SOL     OW  178   2.316   2.064   2.330  0.0865  0.6514  0.7377
   60SOL    HW1  179   2.369   2.113   2.255 -1.1323  1.1126  3.7937
   60SOL    HW2  180   2.329   2.112   2.422  2.7298 -1.0762  0.9809
   61SOL     OW  181   1.207   0.639   0.488 -0.1734  0.1183 -0.2297
   61SOL    HW1  182   1.105   0.660   0.500 -1.7682  0.3990 -2.9377
   61SOL    HW2  183   1.246   0.670   0.399  0.5081 -1.2185  2.2064
   62SOL     OW  184   2.807   1.678   2.693 -0.3244  0.1807 -0.1676
   62SOL    HW1  185   2.725   1.637   2.739  1.5863  2.0284 -0.6359
   62SOL    HW2  186   2.884   1.702   2.762  1.0516 -0.5494  0.7691
   63SOL     OW  187   0.550   0.837   0.186 -0.2454 -0.5258  0.6459
   63SOL    HW1  188   0.621   0.896   0.131  0.7504  1.1705  1.5679
   63SOL    HW2  189   0.571   0.829   0.286  0.0409 -0.5163  2.1015
   64SOL     OW  190   3.019   0.561   2.381  0.3533  0.7234  0.1356
   64SOL    HW1  191   2.951   0.590   2.456  1.0302 -1.5496 -2.5994
   64SOL    HW2  192   3.023   0.630   2.305 -0.5804 -1.6229 -0.4399
   65SOL     OW  193   0.171   1.436   0.632 -0.4561  0.5204 -0.0355
   65SOL    HW1  194   0.175   1.502   0.715 -1.0994  3.2602  2.0030
   65SOL    HW2  195   0.243   1.458   0.559 -0.7091 -1.3782 -1.3565
   66SOL     OW  196   2.592   0.316   0.511  0.4408 -0.3233  0.3805
   66SOL    HW1  197   2.697   0.300   0.506  1.1900 -0.6450  0.0688
   66SOL    HW2  198   2.544   0.238   0.576 -2.2487 -0.3753  1.5542
   67SOL     OW  199   0.572   2.506   1.520 -0.3792 -0.0549  0.1345
   67SOL    HW1  200   0.670   2.484   1.549  2.0078 -0.2164  2.1919
   67SOL    HW2  201   0.507   2.427   1.527  0.7780  1.7834  1.4266
   68SOL     OW  202   0.915   1.024   2.507 -0.3550 -0.1889  0.5983
   68SOL    HW1  203   0.989   0.955   2.480 -1.5504  0.9562  2.4771
   68SOL    HW2  204   0.875   1.067   2.421  0.1424 -2.5279 -0.8986
   69SOL     OW  205   0.753   2.607   2.335 -0.6813  0.3683 -0.8164
   69SOL    HW1  206   0.818   2.556   2.278 -1.4915  0.2261 -0.2637
   69SOL    HW2  207   0.657   2.572   2.341  1.6384  1.5060 -0.5193
   70SOL     OW  208   0.530   0.167   2.570  0.5112  0.0360 -0.2576
   70SOL    HW1  209   0.443   0.163   2.626 -0.3198  2.2218  0.4520
   70SOL    HW2  210   0.586   0.081   2.566  0.9222  0.5232 -0.5066
   71SOL     OW  211   1.073   1.750   0.308  0.1371  0.2740  0.6396
   71SOL    HW1  212   1.002   1.785   0.379 -1.6644  0.5138 -1.2837
   71SOL    HW2  213   1.043   1.766   0.208 -0.3648 -0.5168 -0.6503
   72SOL     OW  214   1.857   0.230   2.153 -0.2704 -0.5524  0.0196
   72SOL    HW1  215   1.904   0.303   2.099  0.2546  0.0204 -0.8931
   72SOL    HW2  216   1.904   0.139   2.135  2.2348 -3.3792  0.4474
   73SOL     OW  217   2.752   2.197   2.468  0.1044  0.1249 -0.5142
   73SOL    HW1  218   2.750   2.106   2.416  0.9086  1.8732  0.0960
   73SOL    HW2  219   2.828   2.202   2.541  1.7256  0.0489 -2.5820
   74SOL     OW  220   2.672   2.969   2.145 -0.2469  0.3709 -0.4518
   74SOL    HW1  221   2.586   2.949   2.208 -0.2507 -0.2893 -0.3525
   74SOL    HW2  222   2.757   3.006   2.197  2.1005 -2.2311 -0.4306
   75SOL     OW  223   0.932   0.793   1.169  0.1768  0.4998 -0.1006
   75SOL    HW1  224   0.839   0.818   1.135  1.8894  1.3623 -1.6249
   75SOL    HW2  225   0.961   0.871   1.233 -1.5837  0.2845  1.7558
   76SOL     OW  226   1.845   1.266   2.615 -0.0014  0.0322 -0.3588
   76SOL    HW1  227   1.759   1.225   2.645 -1.7342  0.7767 -2.3088
   76SOL    HW2  228   1.847   1.368   2.611  0.2241 -0.3148 -1.4463
   77SOL     OW  229   2.942   0.900   1.030  0.4766 -0.0904 -0.0190
   77SOL    HW1  230   2.889   0.811   1.049  0.4884 -0.3606 -0.9150
   77SOL    HW2  231   3.034   0.902   1.076 -0.9965  0.0498  1.1813
   78SOL     OW  232   1.952   1.450   1.323 -0.0640  0.3514 -0.7863
   78SOL    HW1  233   2.038   1.459   1.269 -0.6840  2.9189 -1.5642
   78SOL    HW2  234   1.868   1.466   1.262  0.4765  0.1648  1.3605
   79SOL     OW  235   0.651   1.481   0.841 -0.3053  0.6188  0.1158
   79SOL    HW1  236   0.564   1.430   0.829 -1.5519  1.0050  0.9827
   79SOL    HW2  237   0.732   1.418   0.837 -1.1310 -0.1789  1.2170
   80SOL     OW  238   0.695   0.477   1.581  0.3704 -0.1487 -0.3628
   80SOL    HW1  239   0.672   0.522   1.491 -0.1913 -1.1443 -1.4653
   80SOL    HW2  240   0.667   0.374   1.573 -1.0007 -1.0063 -2.3131
   81SOL     OW  241   1.054   1.297   2.481  0.0095 -0.0003 -0.3724
   81SOL    HW1  242   0.959   1.255   2.465 -2.6723 -0.0973 -1.1486
   81SOL    HW2  243   1.128   1.260   2.417  0.8772 -1.5290 -1.4550
   82SOL     OW  244   0.941   2.937   1.627 -0.0415 -0.2792  0.3441
   82SOL    HW1  245   0.966   2.842   1.592 -0.3861  1.3915  3.9334
   82SOL    HW2  246   1.007   3.011   1.602  0.7119  0.1767  0.9895
   83SOL     OW  247   2.620   2.345   0.911 -0.1157  0.0279 -0.1080
   83SOL    HW1  248   2.541   2.303   0.859  3.3173  1.3019  0.1700
   83SOL    HW2  249   2.626   2.449   0.896  0.9780  1.7372 -1.8342
   84SOL     OW  250   0.751   3.073   2.325  0.3787 -0.1839  0.0701
   84SOL    HW1  251   0.732   3.066   2.429 -1.0472 -1.8811 -1.4123
   84SOL    HW2  252   0.762   2.981   2.287 -0.7737  2.1916 -1.2441
   85SOL     OW  253   0.287   1.690   1.345 -0.9102  0.0483 -0.5001
   85SOL    HW1  254   0.220   1.746   1.408 -0.2483  1.6754  1.8945
   85SOL    HW2  255   0.359   1.639   1.401  0.6628 -1.3359 -0.3023
   86SOL     OW  256   0.473   1.061   1.402  0.0088  0.2950  0.0878
   86SOL    HW1  257   0.458   0.999   1.318  1.6453 -1.6288  0.1557
   86SOL    HW2  258   0.547   1.020   1.460 -2.4959 -0.8522 -1.9887
   87SOL     OW  259   1.621   0.654   0.356 -0.4692  0.2269  0.4185
   87SOL    HW1  260   1.692   0.731   0.367  0.9150  0.0736 -1.0771
   87SOL    HW2  261   1.610   0.633   0.252 -0.7887  1.1644 -1.8360
   88SOL     OW  262   1.546   1.330   0.260 -0.4074  0.5437  0.8559
   88SOL    HW1  263   1.612   1.242   0.260  1.0916 -3.0224 -0.9766
   88SOL    HW2  264   1.445   1.301   0.246  1.8451  0.4889 -0.6382
   89SOL     OW  265   3.074   0.357   0.676 -0.7774 -0.2462 -0.6672
   89SOL    HW1  266   3.178   0.341   0.665 -0.6997 -1.6083  0.0503
   89SOL    HW2  267   3.021   0.270   0.665  1.8419 -2.5029  1.0783
   90SOL     OW  268   0.753   1.562   0.117  0.4029  0.2068  0.1903
   90SOL    HW1  269   0.856   1.539   0.107  0.5230 -0.5856 -1.6881
   90SOL    HW2  270   0.700   1.557   0.028 -1.2448  2.8067  1.3815
   91SOL     OW  271   1.285   1.521   1.686 -0.4750  0.3785 -0.4410
   91SOL    HW1  272   1.264   1.582   1.764 -1.0096 -0.1879 -2.1724
   91SOL    HW2  273   1.375   1.476   1.695 -3.0341  0.7254 -1.1147
   92SOL     OW  274   0.067   0.976   1.168  0.1692 -0.4711 -0.7857
   92SOL    HW1  275   0.087   1.060   1.117 -1.1338  0.8990 -0.2401
   92SOL    HW2  276   0.083   0.986   1.267 -1.7867  0.5341 -0.3011
   93SOL     OW  277   3.036   2.654   0.057  0.0548  0.3449  0.0844
   93SOL    HW1  278   3.011   2.663  -0.042 -1.5585 -0.7594  2.1392
   93SOL    HW2  279   3.120   2.597   0.069 -3.7300  0.6845 -2.7935
   94SOL     OW  280   1.540   1.392   1.646  0.5546  0.8268 -0.4577
   94SOL    HW1  281   1.593   1.309   1.673 -2.0528  1.1351 -3.3822
   94SOL    HW2  282   1.603   1.466   1.612  0.7135  0.2342 -0.1117
   95SOL     OW  283   1.382   2.477   2.937  0.5523  0.0125 -0.2938
   95SOL    HW1  284   1.299   2.499   2.993  0.7343 -0.1935  3.7282
   95SOL    HW2  285   1.388   2.377   2.906  0.2736  0.5455  2.1666
   96SOL     OW  286   0.590   2.165   1.266  0.5558  0.1885 -0.1681
   96SOL    HW1  287   0.537   2.135   1.182 -0.7963 -0.7928  1.6819
   96SOL    HW2  288   0.608   2.087   1.334 -0.4829  0.5127  0.6141
   97SOL     OW  289   0.267   1.605   2.402  0.4329  0.3978  0.3625
   97SOL    HW1  290   0.301   1.686   2.355 -1.5568 -1.7979  1.0378
   97SOL    HW2  291   0.251   1.612   2.504  0.5159  2.1335 -0.6835
   98SOL     OW  292   2.255   1.680   1.209  0.9113 -0.0844  0.4495
   98SOL    HW1  293   2.209   1.587   1.178 -0.4333 -1.2177  2.4403
   98SOL    HW2  294   2.336   1.702   1.147 -0.2083  1.8875  0.6120
   99SOL     OW  295   2.639   2.077   1.268 -0.1004  0.0942 -0.9156
   99SOL    HW1  296   2.674   2.153   1.323  0.7653  0.5264 -0.6130
   99SOL    HW2  297   2.587   2.006   1.320 -0.8688  2.5793 -3.8134
  100SOL     OW  298   2.335   0.379   2.110  0.3913  0.6021 -0.0683
  100SOL    HW1  299   2.307   0.366   2.211 -1.1696 -0.8672  0.2637
  100SOL    HW2  300   2.441   0.384   2.102 -1.0689 -0.7801  1.9111
  101SOL     OW  301   0.328   1.514   0.404 -0.5917 -0.4354 -0.5416
  101SOL    HW1  302   0.368   1.588   0.471  1.4672  0.6717  1.6103
  101SOL    HW2  303   0.398   1.498   0.328  2.8345  1.0202 -1.1286
  102SOL     OW  304   2.288   1.047   0.888  0.0968 -0.4733  0.3343
  102SOL    HW1  305   2.272   0.946   0.879 -0.5631  1.8127  0.0363
  102SOL    HW2  306   2.365   1.077   0.825  1.6062  0.8225 -2.8508
  103SOL     OW  307   2.261   0.058   0.374 -0.0687  0.0240 -0.4311
  103SOL    HW1  308   2.313   0.130   0.331 -3.9642 -3.0754  0.6458
  103SOL    HW2  309   2.317  -0.026   0.402  0.4926  0.2855 -0.0474
  104SOL     OW  310   3.101   1.813   2.188  0.9463  0.1273 -0.4382
  104SOL    HW1  311   3.146   1.812   2.095  3.4629 -1.1664 -0.3732
  104SOL    HW2  312   2.998   1.835   2.175  3.3391  1.1659  0.7283
  105SOL     OW  313   1.282   2.090   0.787 -0.3441 -0.0985  0.0939
  105SOL    HW1  314   1.239   2.149   0.714 -0.7368 -1.2691  1.6432
  105SOL    HW2  315   1.281   1.992   0.758  0.1976  0.7964  1.0207
  106SOL     OW  316   2.134   0.411   1.440  0.2940 -0.2535  0.2003
  106SOL    HW1  317   2.038   0.393   1.412 -0.8880 -0.1389  0.0901
  106SOL    HW2  318   2.154   0.381   1.535 -2.1333  0.5923 -0.3646
  107SOL     OW  319   1.920   2.913   1.166  0.0078 -0.3116  0.3695
  107SOL    HW1  320   1.852   2.984   1.208 -0.1049  2.4565  2.3361
  107SOL    HW2  321   1.872   2.828   1.126  2.3328 -0.5925 -1.5959
  108SOL     OW  322   0.885   2.776   1.078  0.6836 -0.0987 -0.2181
  108SOL    HW1  323   0.923   2.693   1.024 -0.0323 -2.4844 -0.6069
  108SOL    HW2  324   0.964   2.821   1.126  1.8908 -1.0456  0.3624
  109SOL     OW  325   2.193   0.130   0.742  0.2134 -0.6130  0.2554
  109SOL    HW1  326   2.121   0.068   0.699 -0.3227 -1.6265 -0.5841
  109SOL    HW2  327   2.164   0.161   0.837 -0.2076  0.2225 -0.5974
  110SOL     OW  328   0.505   2.834   2.742 -0.0266  0.2385  0.5331
  110SOL    HW1  329   0.514   2.830   2.637 -0.7619  0.8654  0.6639
  110SOL    HW2  330   0.576   2.768   2.787  2.3521 -0.5271  0.3278
  111SOL     OW  331   1.325   0.623   2.352 -0.4128 -0.0264  0.8218
  111SOL    HW1  332   1.226   0.608   2.384 -1.6360 -1.2971  1.1691
  111SOL    HW2  333   1.393   0.555   2.396  2.0852  3.4286 -0.1453
  112SOL     OW  334   1.751   0.536   1.530  0.0573 -0.1641 -0.0421
  112SOL    HW1  335   1.745   0.594   1.442 -1.3717  0.5841 -1.8473
  112SOL    HW2  336   1.662   0.493   1.558  4.0895  2.6803  0.0746
  113SOL     OW  337   2.261   1.687   1.790  0.2868  0.0441 -0.2405
  113SOL    HW1  338   2.321   1.612   1.752  1.0284 -2.3131 -1.1547
  113SOL    HW2  339   2.294   1.714   1.884  0.0191  0.1163 -1.5838
  114SOL     OW  340   0.293   0.421   1.163  0.6232  0.5708  0.1808
  114SOL    HW1  341   0.198   0.446   1.130 -0.9789  0.5247  1.2624
  114SOL    HW2  342   0.364   0.462   1.107 -1.0378  0.1701  3.6091
  115SOL     OW  343   2.688   1.538   1.263  0.6451  0.8054  0.2953
  115SOL    HW1  344   2.686   1.436   1.286 -0.9781  0.0871 -2.4891
  115SOL    HW2  345   2.777   1.574   1.221 -0.6420  1.1007  2.1387
  116SOL     OW  346   1.895   0.928   0.659 -0.0649  0.1211 -0.4279
  116SOL    HW1  347   1.799   0.882   0.658 -0.4317  1.9598  1.4268
  116SOL    HW2  348   1.886   1.027   0.689 -2.2882 -1.5271 -4.3762
  117SOL     OW  349   1.122   0.368   0.563 -0.4331 -0.0736 -0.4220
  117SOL    HW1  350   1.126   0.470   0.566 -1.1385  1.3408 -2.5365
  117SOL    HW2  351   1.088   0.342   0.468 -1.7199  3.2292 -1.0305
  118SOL     OW  352   1.146   1.238   1.098  0.2515  0.1961  0.7451
  118SOL    HW1  353   1.077   1.209   1.169 -0.1240 -0.1164  1.4994
  118SOL    HW2  354   1.189   1.334   1.120 -1.8349  0.4638 -1.5767
  119SOL     OW  355   1.886   1.606   2.202  0.3114 -0.2703  1.0465
  119SOL    HW1  356   1.831   1.679   2.157 -1.2898 -1.1926  3.5692
  119SOL    HW2  357   1.971   1.585   2.140 -0.6977 -0.2432 -2.0936
  120SOL     OW  358   2.966   2.813   0.292  0.7473 -0.0197  0.4140
  120SOL    HW1  359   2.969   2.755   0.205  0.3558  1.6574 -0.8666
  120SOL    HW2  360   2.870   2.801   0.344 -2.1226 -1.7008 -0.0599
  121SOL     OW  361   2.004   0.800   2.325  0.5299  0.3262 -0.2503
  121SOL    HW1  362   2.032   0.884   2.270 -0.3508 -1.5021  0.2810
  121SOL    HW2  363   2.026   0.714   2.276 -1.1248  0.8056 -1.3259
  122SOL     OW  364   2.600   2.480   1.385 -0.5193 -0.3166  0.9409
  122SOL    HW1  365   2.652   2.453   1.297  0.7862  0.0889 -1.3866
  122SOL    HW2  366   2.619   2.411   1.464  0.1930 -0.7758 -0.7884
  123SOL     OW  367   1.638   0.200   1.640  0.3150  0.0011  0.0946
  123SOL    HW1  368   1.660   0.113   1.584 -1.8779 -0.2820 -0.1567
  123SOL    HW2  369   1.726   0.246   1.677  1.7068 -0.5815 -0.2333
  124SOL     OW  370   3.037   0.395   1.148 -0.1439 -0.0027  0.4430
  124SOL    HW1  371   2.964   0.438   1.207  0.4726 -1.2158  1.4515
  124SOL    HW2  372   3.034   0.443   1.050 -3.6856 -0.6170 -3.7394
  125SOL     OW  373   0.907   1.951   0.736  0.3757 -0.8151 -0.4762
  125SOL    HW1  374   0.990   1.899   0.773  1.3070 -1.2839 -1.7437
  125SOL    HW2  375   0.840   1.970   0.808  2.2363 -1.5787 -3.0606
  126SOL     OW  376   1.907   2.295   2.411  0.4474 -0.5845  0.1554
  126SOL    HW1  377   1.985   2.254   2.349  2.3222 -0.6539 -0.2532
  126SOL    HW2  378   1.888   2.244   2.500 -0.4232  0.7433  0.9788
  127SOL     OW  379   0.932   0.947   0.176  0.5147 -0.3786  0.3113
  127SOL    HW1  380   0.926   0.995   0.269  1.5220 -1.2716 -0.2030
  127SOL    HW2  381   0.942   0.845   0.183 -0.0400 -0.5074 -1.2828
  128SOL     OW  382   0.899   0.181   1.382 -0.6333  0.1633  0.4187
  128SOL    HW1  383   0.876   0.259   1.319  1.8796 -2.4321 -0.6583
  128SOL    HW2  384   0.845   0.095   1.373  1.9850  0.2267  1.0251
  129SOL     OW  385   1.892   0.697   1.875  0.0599 -0.3264 -0.1963
  129SOL    HW1  386   1.894   0.678   1.776  2.1048 -0.5534  1.8444
  129SOL    HW2  387   1.926   0.795   1.897  1.8425  0.3108  0.5246
  130SOL     OW  388   1.390   2.179   1.020  0.3197  0.6321  0.1434
  130SOL    HW1  389   1.348   2.128   0.937 -0.8891 -0.7374  0.4004
  130SOL    HW2  390   1.457   2.255   0.995  0.8695  0.1748  0.2233
  131SOL     OW  391   3.050   1.385   1.433  0.2915 -0.3528 -0.4930
  131SOL    HW1  392   3.004   1.299   1.443  0.0450  5.6118  1.4171
  131SOL    HW2  393   3.142   1.376   1.388 -0.4082 -0.5802 -2.6848
  132SOL     OW  394   2.060   2.438   0.555 -0.7152  0.1175  0.1709
  132SOL    HW1  395   1.957   2.458   0.556  0.3213 -0.0239 -0.0153
  132SOL    HW2  396   2.083   2.347   0.596  1.8649 -3.2113 -1.7970
  133SOL     OW  397   1.751   2.490   2.707 -0.4098 -0.2535  0.0836
  133SOL    HW1  398   1.653   2.490   2.684  1.0889  1.8538  1.0322
  133SOL    HW2  399   1.784   2.582   2.741 -0.0358  1.0235  0.8006
  134SOL     OW  400   2.595   2.403   1.650 -0.9463  0.0788  0.2916
  134SOL    HW1  401   2.543   2.369   1.739  0.4713 -2.2650  2.4166
  134SOL    HW2  402   2.654   2.488   1.670  1.9393 -0.6097  1.5143
  135SOL     OW  403   0.804   1.328   2.677 -0.5143 -0.3678 -0.4566
  135SOL    HW1  404   0.727   1.272   2.718 -0.0657 -2.2306 -2.3813
  135SOL    HW2  405   0.784   1.345   2.573  0.5117 -0.8441  0.1201
  136SOL     OW  406   1.206   2.003   0.424 -0.0133  0.1839 -0.1540
  136SOL    HW1  407   1.139   2.076   0.455 -1.1996  1.3392 -0.1969
  136SOL    HW2  408   1.158   1.918   0.390 -0.7586 -1.9289 -0.2735
  137SOL     OW  409   0.460   1.158   2.274 -0.2422 -0.7882 -0.1648
  137SOL    HW1  410   0.360   1.135   2.267  0.3593 -0.8403 -0.5778
  137SOL    HW2  411   0.510   1.083   2.324 -1.0879  1.5507 -1.1684
  138SOL     OW  412   2.423   1.487   0.278 -0.0127  0.1273 -0.0172
  138SOL    HW1  413   2.370   1.445   0.199  0.4472  0.3364  0.4542
  138SOL    HW2  414   2.510   1.432   0.306  2.9892 -0.5592  5.6824
  139SOL     OW  415   1.911   2.641   1.567  0.3340 -0.3263  0.1493
  139SOL    HW1  416   1.818   2.679   1.551  0.5561  0.8097  1.6559
  139SOL    HW2  417   1.943   2.565   1.502 -0.1271 -1.2416 -0.3198
  140SOL     OW  418   3.043   3.003   2.639  0.2930  0.5613  0.3619
  140SOL    HW1  419   3.067   2.904   2.625  1.9580 -1.8209 -0.4926
  140SOL    HW2  420   3.064   3.067   2.558 -0.0463  4.0976 -1.6260
  141SOL     OW  421   1.274   1.640   1.424  0.0148 -0.0998  0.0900
  141SOL    HW1  422   1.178   1.668   1.405 -2.3741 -1.2955  2.5384
  141SOL    HW2  423   1.280   1.592   1.517  0.0178  1.4090  1.0732
  142SOL     OW  424   1.587   0.641   2.244  0.0318 -0.0861 -0.1535
  142SOL    HW1  425   1.584   0.644   2.141  0.7932 -1.0952  1.8078
  142SOL    HW2  426   1.490   0.655   2.280  0.6594  1.6943 -1.6404
  143SOL     OW  427   2.808   0.788   0.563  0.2542  0.2888 -0.1728
  143SOL    HW1  428   2.861   0.817   0.475  1.6118 -1.3158  1.3743
  143SOL    HW2  429   2.827   0.854   0.642  2.0193  1.6395  0.2007
  144SOL     OW  430   2.921   1.108   1.422  0.4304 -0.4521 -0.5252
  144SOL    HW1  431   2.877   1.124   1.513  0.5603  1.3740  0.0858
  144SOL    HW2  432   3.014   1.064   1.434  0.0933 -0.1020  0.9487
  145SOL     OW  433   0.954   1.814   0.048  0.4270  0.9211 -0.3654
  145SOL    HW1  434   0.994   1.850  -0.038  1.0034 -0.3273 -0.1854
  145SOL    HW2  435   0.903   1.724   0.034 -1.8742  0.4506  0.2363
  146SOL     OW  436   2.489   0.633   1.531 -0.7261 -0.2404  0.2402
  146SOL    HW1  437   2.488   0.529   1.505  0.9884 -2.2657  1.7929
  146SOL    HW2  438   2.410   0.688   1.506  2.4957  0.1995 -1.1244
  147SOL     OW  439   1.096   2.520   0.544 -0.9510 -0.0365 -0.1273
  147SOL    HW1  440   1.033   2.557   0.472  1.6125  0.8329 -1.5613
  147SOL    HW2  441   1.182   2.472   0.506 -1.0262 -1.7904 -0.3179
  148SOL     OW  442   1.577   1.406  -0.003  0.0397 -0.1150  0.1818
  148SOL    HW1  443   1.591   1.308  -0.034 -1.9324  0.5383  0.6042
  148SOL    HW2  444   1.557   1.401   0.103 -1.1815 -0.9499  1.7257
  149SOL     OW  445   0.704   1.477   1.996 -0.3243 -0.6860 -0.3942
  149SOL    HW1  446   0.618   1.461   2.055 -2.0244 -0.4774 -1.1249
  149SOL    HW2  447   0.697   1.444   1.898 -0.0149  1.0950  1.5600
  150SOL     OW  448   2.955   1.214   1.018 -0.3906  0.4710 -0.2036
  150SOL    HW1  449   3.049   1.207   1.062 -1.2014  1.9970  0.7825
  150SOL    HW2  450   2.918   1.122   1.006 -0.2659 -2.3936  3.1087
  151SOL     OW  451   0.158   0.829   2.105 -0.4810  0.1419  0.5501
  151SOL    HW1  452   0.167   0.922   2.060 -0.7577 -0.2138 -0.5681
  151SOL    HW2  453   0.217   0.764   2.045 -0.2471 -0.3478 -0.8163
  152SOL     OW  454   1.441   1.883   1.111 -0.4969  0.0318 -0.0775
  152SOL    HW1  455   1.482   1.975   1.083  0.1500  0.9459  1.7057
  152SOL    HW2  456   1.336   1.878   1.096  1.1030 -2.3803  0.3741
  153SOL     OW  457   0.056   1.506   0.263  0.2156 -0.0038 -0.3267
  153SOL    HW1  458  -0.021   1.442   0.294  0.5061  1.6828  0.7118
  153SOL    HW2  459   0.118   1.541   0.340 -1.0757  1.0071  2.1294
  154SOL     OW  460   2.262   1.866   2.782 -0.0603  0.4173 -0.0020
  154SOL    HW1  461   2.294   1.771   2.806 -2.0360  2.2664  0.1524
  154SOL    HW2  462   2.340   1.908   2.732  0.8304  0.3282  0.8346
  155SOL     OW  463   2.626   1.322   0.362  0.0631  0.9022 -0.3216
  155SOL    HW1  464   2.662   1.402   0.417  0.7237 -0.1581 -0.8331
  155SOL    HW2  465   2.692   1.285   0.289  2.1420  1.2313 -0.6907
  156SOL     OW  466   2.505   0.814   0.777  0.7418  0.2308 -0.2438
  156SOL    HW1  467   2.401   0.816   0.795  1.2144  0.7125 -0.2771
  156SOL    HW2  468   2.522   0.840   0.679 -1.9150 -0.4963  2.8867
  157SOL     OW  469   1.222   3.089   3.019  0.0821  0.1723 -0.0483
  157SOL    HW1  470   1.293   3.048   2.951 -0.4961  0.2766  0.5969
  157SOL    HW2  471   1.245   3.183   3.063 -1.0574  2.5025  0.0160
  158SOL     OW  472   1.078   1.871   1.863 -0.3363 -1.0974 -0.1671
  158SOL    HW1  473   1.090   1.968   1.815  1.2465 -0.6764 -1.2231
  158SOL    HW2  474   0.996   1.874   1.925 -2.8341 -0.8188  0.7711
  159SOL     OW  475   0.802   0.381   1.222 -0.2565 -0.3910 -0.6625
  159SOL    HW1  476   0.742   0.444   1.277  2.1808 -1.3209 -0.5909
  159SOL    HW2  477   0.766   0.351   1.132  2.4035 -0.8111 -1.9932
  160SOL     OW  478   1.374   2.471   1.433 -0.1902  0.2026  0.4653
  160SOL    HW1  479   1.331   2.390   1.484 -0.3984 -0.5225 -1.2131
  160SOL    HW2  480   1.475   2.452   1.408  0.8110 -0.7697  2.4686
  161SOL     OW  481   0.061   2.654   0.409 -0.4455  0.5488 -0.2724
  161SOL    HW1  482   0.014   2.564   0.414  1.6634  1.5969 -2.8936
  161SOL    HW2  483  -0.001   2.724   0.365  1.3531 -2.4150 -0.5935
  162SOL     OW  484   2.531   1.935   0.455  0.6148 -0.2052  0.4917
  162SOL    HW1  485   2.605   1.949   0.383  1.5345  2.2901 -0.5385
  162SOL    HW2  486   2.497   1.838   0.464 -1.1551 -3.2580 -0.0254
  163SOL     OW  487   1.928   2.705   0.808 -0.5954 -0.5952  0.2193
  163SOL    HW1  488   1.914   2.700   0.704 -3.0193 -0.6658  1.0717
  163SOL    HW2  489   2.015   2.651   0.841 -0.3423 -0.6583  1.3399
  164SOL     OW  490   3.043   0.152   1.244  0.2086 -0.1086  0.2468
  164SOL    HW1  491   3.060   0.247   1.197 -3.5493  2.6640 -2.7237
  164SOL    HW2  492   3.103   0.128   1.326 -0.3681  0.1296  1.1584
  165SOL     OW  493   1.110   1.407   0.659 -0.1198 -0.0550  0.0034
  165SOL    HW1  494   1.110   1.478   0.735 -0.0694 -2.2119 -0.4565
  165SOL    HW2  495   1.035   1.426   0.591  0.1797 -3.3830 -2.2484
  166SOL     OW  496   1.556   0.944   1.822 -0.1778 -0.9883  0.1391
  166SOL    HW1  497   1.464   0.991   1.842  1.9892 -0.7288 -1.9556
  166SOL    HW2  498   1.632   1.010   1.788  0.4530 -1.3091 -0.9468
  167SOL     OW  499   0.674   2.024   1.514  0.1614 -0.1479 -0.2530
  167SOL    HW1  500   0.710   2.093   1.584 -1.2449  0.7577  1.5476
  167SOL    HW2  501   0.623   1.949   1.563  1.8391 -1.2378 -0.0724
  168SOL     OW  502   1.660   2.302   0.130  0.5335  0.0432  0.3779
  168SOL    HW1  503   1.729   2.304   0.051  1.7809  0.6527 -0.4628
  168SOL    HW2  504   1.702   2.266   0.221  0.2699  1.3816 -1.3564
  169SOL     OW  505   3.048   2.597   2.157 -0.0648 -0.2884 -0.6343
  169SOL    HW1  506   3.048   2.525   2.078 -1.0380 -2.0128  0.6364
  169SOL    HW2  507   3.103   2.568   2.241 -1.4202  1.8198  3.2759
  170SOL     OW  508   1.177   0.143   2.102 -0.4173  0.0409 -0.0452
  170SOL    HW1  509   1.266   0.160   2.152  0.1030  0.1341  2.7135
  170SOL    HW2  510   1.189   0.141   2.000 -0.1866  1.8328  1.4044
  171SOL     OW  511   0.193   0.864   2.442 -0.7526  0.0849 -0.1358
  171SOL    HW1  512   0.098   0.861   2.482  0.6321  0.8968 -0.6135
  171SOL    HW2  513   0.194   0.943   2.371  0.8405  2.4905 -1.9061
  172SOL     OW  514   0.988   0.985   2.777  0.4384  0.6933  0.3547
  172SOL    HW1  515   0.953   1.046   2.852  0.3407  0.8243 -0.1293
  172SOL    HW2  516   0.960   1.015   2.682  1.1274 -1.9752 -2.5544
  173SOL     OW  517   0.367   2.553   3.045 -0.2607 -0.0722  0.1857
  173SOL    HW1  518   0.351   2.497   2.961 -1.0422  0.1370 -0.4721
  173SOL    HW2  519   0.398   2.493   3.118  1.0827 -1.9208 -2.7668
  174SOL     OW  520   1.459   2.850   0.993 -0.2128  0.1266 -0.6046
  174SOL    HW1  521   1.539   2.901   0.949  0.7517 -2.6414  0.9438
  174SOL    HW2  522   1.444   2.756   0.951  0.7573 -0.8609  0.7033
  175SOL     OW  523   0.462   3.072   1.715 -0.6758  0.3872 -0.5325
  175SOL    HW1  524   0.518   3.057   1.804  1.2099  0.6869  0.7734
  175SOL    HW2  525   0.445   3.172   1.685  0.6523  1.4947 -1.5311
  176SOL     OW  526   2.526   0.491   0.040  0.0748 -0.0184  0.8856
  176SOL    HW1  527   2.559   0.583   0.080  0.8358 -1.3599 -0.7845
  176SOL    HW2  528   2.524   0.407   0.103 -3.2451  1.2316  1.7560
  177SOL     OW  529   0.363   0.141   0.804 -0.9335 -0.9823  0.0583
  177SOL    HW1  530   0.335   0.054   0.843  1.8967  1.4447  1.4534
  177SOL    HW2  531   0.451   0.180   0.833 -1.4320  0.6355  0.1905
  178SOL     OW  532   0.033   2.716   2.645 -0.7048  0.0115 -0.3279
  178SOL    HW1  533   0.005   2.616   2.654 -0.1899 -1.7037  0.2788
  178SOL    HW2  534   0.129   2.733   2.688 -0.8832 -1.3293 -1.2790
  179SOL     OW  535   2.967   1.605   1.238 -0.0408 -0.5206 -0.1207
  179SOL    HW1  536   3.051   1.636   1.186  0.8595 -1.5613  2.6445
  179SOL    HW2  537   2.985   1.523   1.302 -0.1066  1.4026  0.9773
  180SOL     OW  538   0.275   1.400   1.751  0.1744 -0.7309 -0.0188
  180SOL    HW1  539   0.347   1.356   1.816  2.0035 -0.8726 -1.0227
  180SOL    HW2  540   0.205   1.455   1.798  2.1237  3.0273 -3.0982
  181SOL     OW  541   2.998   1.752   2.491 -0.2049  0.2919 -0.5250
  181SOL    HW1  542   3.044   1.770   2.401 -0.0923 -1.9588 -1.0586
  181SOL    HW2  543   2.894   1.763   2.501  1.7134  1.4313  3.0636
  182SOL     OW  544   2.195   1.409   1.171  0.3274 -0.5109  0.1582
  182SOL    HW1  545   2.188   1.334   1.242  0.3298 -0.9150  2.6109
  182SOL    HW2  546   2.241   1.370   1.084  1.4000  1.2977  1.3689
  183SOL     OW  547   1.416   2.226   2.445 -0.5446 -0.0919  0.0373
  183SOL    HW1  548   1.341   2.158   2.474 -2.5105 -0.5135  0.8221
  183SOL    HW2  549   1.500   2.179   2.398 -1.3885 -2.3833 -0.9994
  184SOL     OW  550   2.224   0.781   0.820  0.4454  0.0638  0.3444
  184SOL    HW1  551   2.131   0.806   0.786 -0.6032  2.4109  0.4811
  184SOL    HW2  552   2.243   0.684   0.795 -1.4942 -1.7099  0.3337
  185SOL     OW  553   1.576   2.732   2.012  0.0792  0.1694  0.3054
  185SOL    HW1  554   1.514   2.816   2.014  1.0791  1.6286  0.3468
  185SOL    HW2  555   1.615   2.704   2.102 -0.4335  0.8133  0.5935
  186SOL     OW  556   0.023   2.151   1.797 -0.5460 -0.0560  0.3214
  186SOL    HW1  557   0.026   2.217   1.874  0.9124 -3.5385  2.2714
  186SOL    HW2  558   0.118   2.108   1.800  0.1321 -0.6350 -0.3805
  187SOL     OW  559   1.323   0.671   1.651 -0.1808  0.1077  0.3316
  187SOL    HW1  560   1.423   0.703   1.633  1.7067 -0.1441  1.8987
  187SOL    HW2  561   1.308   0.621   1.741 -1.0038  1.1497 -2.0599
  188SOL     OW  562   2.694   2.671   1.574 -0.1032 -0.1986 -0.4272
  188SOL    HW1  563   2.696   2.773   1.560  0.7324  0.9514  2.3916
  188SOL    HW2  564   2.660   2.618   1.488  1.3682  1.8804  0.2796
  189SOL     OW  565   0.859   1.184   1.395  0.4354 -0.9697  0.3601
  189SOL    HW1  566   0.916   1.250   1.456 -1.5798  2.7459 -0.8030
  189SOL    HW2  567   0.843   1.226   1.301 -0.9312 -1.3310 -0.0660
  190SOL     OW  568   1.434   1.840   1.514 -0.6524 -0.6136  0.0292
  190SOL    HW1  569   1.368   1.768   1.475 -0.1613  2.5745  0.1201
  190SOL    HW2  570   1.421   1.848   1.617  1.2879  0.4471  0.5765
  191SOL     OW  571   0.876   0.763   1.503  0.0156 -0.3829 -0.1864
  191SOL    HW1  572   0.935   0.709   1.573 -1.6738  0.3801 -0.0822
  191SOL    HW2  573   0.941   0.832   1.460  1.0129 -0.4675  0.3475
  192SOL     OW  574   1.838   2.438   1.124  0.2341 -0.1955  0.2191
  192SOL    HW1  575   1.738   2.408   1.106  3.0335  0.7998 -1.6284
  192SOL    HW2  576   1.903   2.415   1.049 -4.4102  0.3714 -0.2615
  193SOL     OW  577   0.495   0.499   0.386 -0.1750 -0.0467  0.1527
  193SOL    HW1  578   0.409   0.438   0.383  1.3497  1.9049  0.8078
  193SOL    HW2  579   0.530   0.520   0.288  0.8735 -1.4212 -0.3549
  194SOL     OW  580   0.409   0.771   1.225 -0.2044 -0.7290 -0.4789
  194SOL    HW1  581   0.311   0.770   1.248  1.6227 -0.2354 -0.0881
  194SOL    HW2  582   0.426   0.704   1.146 -1.8310 -1.5815 -1.0287
  195SOL     OW  583   1.038   2.904   0.515 -0.3885  0.3649 -0.0998
  195SOL    HW1  584   1.021   2.812   0.465 -0.0501  0.6521 -0.2954
  195SOL    HW2  585   1.121   2.956   0.477  0.0715  0.9364  2.3032
  196SOL     OW  586   0.214   1.362   1.344 -0.3091 -0.2396  0.6843
  196SOL    HW1  587   0.275   1.436   1.382  0.2096 -0.5248  1.9496
  196SOL    HW2  588   0.219   1.274   1.399 -0.4909 -2.1275 -1.0554
  197SOL     OW  589   0.775   1.976   0.236  0.3604  0.3850 -0.1506
  197SOL    HW1  590   0.809   1.940   0.329 -1.2736 -2.9605  0.1355
  197SOL    HW2  591   0.841   1.951   0.163 -1.6461 -0.7774  1.7021
  198SOL     OW  592   0.287   1.216   0.316  0.2449  0.0639 -0.6335
  198SOL    HW1  593   0.188   1.223   0.283  0.5427  0.2773  0.7784
  198SOL    HW2  594   0.323   1.307   0.351  0.5446 -1.4659 -0.6647
  199SOL     OW  595   2.262   0.404   2.644  0.4609  0.1207  0.0653
  199SOL    HW1  596   2.186   0.383   2.717 -0.7127 -2.1593  0.0960
  199SOL    HW2  597   2.362   0.370   2.672  1.6265 -0.3949  0.9640
  200SOL     OW  598   3.077   2.886   0.773 -0.3156  0.0853 -0.7041
  200SOL    HW1  599   3.115   2.978   0.800 -1.3677  1.3068  0.6150
  200SOL    HW2  600   2.992   2.893   0.711  1.0030  0.4973 -2.7604
  201SOL     OW  601   0.939   0.665   0.518  0.2263 -0.2561 -0.3640
  201SOL    HW1  602   0.937   0.762   0.563  2.2706 -1.2679  0.8493
  201SOL    HW2  603   0.860   0.604   0.541  3.7273 -0.3425  0.9773
  202SOL     OW  604   0.459   1.268   1.906 -0.1066  0.7445  0.0073
  202SOL    HW1  605   0.542   1.225   1.856  0.7696 -0.1523  0.2802
  202SOL    HW2  606   0.487   1.321   1.990 -1.6773  1.5507  0.6693
  203SOL     OW  607   0.642   0.168   1.563 -0.2831  0.2708  0.5826
  203SOL    HW1  608   0.671   0.102   1.484 -1.6825 -0.7374 -0.7247
  203SOL    HW2  609   0.693   0.153   1.653 -0.3924  0.0184  0.1017
  204SOL     OW  610   2.073   1.852   2.982 -0.4492 -0.0429  0.2055
  204SOL    HW1  611   2.047   1.752   2.990  1.4141 -1.2204  0.5851
  204SOL    HW2  612   2.145   1.864   2.908  3.9108 -2.3217  0.4279
  205SOL     OW  613   1.808   1.885   3.010 -0.2186  0.3078 -0.4124
  205SOL    HW1  614   1.912   1.875   2.999 -1.5486  2.2807 -0.5592
  205SOL    HW2  615   1.773   1.972   2.968 -2.6156 -0.5191  3.5990
  206SOL     OW  616   2.362   2.729   0.303  0.6419  0.3612  0.0532
  206SOL    HW1  617   2.318   2.681   0.386  0.7504 -2.5109 -1.4784
  206SOL    HW2  618   2.432   2.665   0.256  0.6798 -1.8145  0.6963
  207SOL     OW  619   0.716   1.723   2.907  0.2140  0.1673  0.0225
  207SOL    HW1  620   0.790   1.657   2.875 -2.0310 -0.6364 -2.5224
  207SOL    HW2  621   0.630   1.664   2.936 -0.1940  0.7933 -1.5158
  208SOL     OW  622   1.026   1.575   1.222  0.2885  0.4229  0.0293
  208SOL    HW1  623   0.950   1.622   1.162  0.0856  0.1827 -1.5808
  208SOL    HW2  624   0.993   1.533   1.310 -0.1626 -1.0775 -0.1339
  209SOL     OW  625   0.233   1.019   3.064  0.4439  0.0078 -0.1924
  209SOL    HW1  626   0.259   0.973   2.977 -2.5975 -1.4545  0.5702
  209SOL    HW2  627   0.198   0.960   3.145  0.5541 -0.9514  2.5519
  210SOL     OW  628   1.729   0.621   1.261  0.1390  0.4964 -0.3602
  210SOL    HW1  629   1.650   0.670   1.219  1.8409  1.5658 -1.4631
  210SOL    HW2  630   1.823   0.646   1.221  1.8080 -1.8835  0.4240
  211SOL     OW  631   2.117   1.130   1.571 -0.0775  0.3387  0.7257
  211SOL    HW1  632   2.158   1.067   1.646 -0.2746 -2.5675  0.7816
  211SOL    HW2  633   2.181   1.202   1.532 -0.7062  2.3476 -3.6114
  212SOL     OW  634   0.093   0.980   1.433 -0.2537 -0.3845 -0.4028
  212SOL    HW1  635   0.147   1.052   1.485 -0.9811  0.5182  1.7013
  212SOL    HW2  636   0.070   0.899   1.495 -0.7155 -1.5961 -1.8780
  213SOL     OW  637   2.826   0.050   0.329  0.4897  0.5615 -0.0512
  213SOL    HW1  638   2.924   0.047   0.295 -2.5116 -1.7670  0.0042
  213SOL    HW2  639   2.756   0.015   0.256  2.7818 -1.8488 -1.3648
  214SOL     OW  640   2.211   0.355   2.364  0.0687  0.4036 -0.3074
  214SOL    HW1  641   2.264   0.370   2.450  0.8986 -2.6386  0.0336
  214SOL    HW2  642   2.158   0.261   2.372 -0.9340 -1.3999  1.3330
  215SOL     OW  643   1.694   2.283   2.073 -0.0548 -0.3001  0.1629
  215SOL    HW1  644   1.785   2.332   2.074 -1.7218 -2.0135 -0.8038
  215SOL    HW2  645   1.613   2.341   2.096  0.9597 -1.5883 -2.2440
  216SOL     OW  646   2.302   0.527   0.764  0.0293  0.0924  0.3280
  216SOL    HW1  647   2.262   0.469   0.690 -2.1715 -1.0916 -1.0987
  216SOL    HW2  648   2.377   0.478   0.814 -0.5665  0.5819 -0.8384
  217SOL     OW  649   0.913   2.701   2.583 -0.6454 -0.4610 -0.4328
  217SOL    HW1  650   0.919   2.656   2.680 -0.8951 -1.0065  2.3504
  217SOL    HW2  651   0.843   2.654   2.520  2.9545  0.4872  1.2787
  218SOL     OW  652   1.859   1.419   0.025 -0.4474 -0.7539 -0.1816
  218SOL    HW1  653   1.752   1.421   0.016 -2.1970  0.7922 -1.9733
  218SOL    HW2  654   1.898   1.324   0.044  0.4075 -0.1889  2.5472
  219SOL     OW  655   2.417   1.253   2.511  0.0059 -0.4902  0.1074
  219SOL    HW1  656   2.474   1.192   2.450  1.9709  1.6776 -1.1876
  219SOL    HW2  657   2.391   1.212   2.606  0.6718 -1.5682  0.9985
  220SOL     OW  658   1.452   1.052   1.380 -0.3078  0.6629  0.3797
  220SOL    HW1  659   1.542   1.008   1.400  0.5368  0.6529  1.6678
  220SOL    HW2  660   1.439   1.075   1.280  0.9207  0.2580 -0.0927
  221SOL     OW  661   1.300   0.961   2.157 -0.3784  0.3834 -0.4568
  221SOL    HW1  662   1.300   1.000   2.056  0.3661  1.3413  0.2269
  221SOL    HW2  663   1.387   0.988   2.206 -1.2091  1.1902  1.4386
  222SOL     OW  664   1.161   0.052   1.200  0.1985  0.0622 -0.2808
  222SOL    HW1  665   1.174   0.100   1.292 -1.7583  0.0594  1.2543
  222SOL    HW2  666   1.154   0.123   1.125  1.3038  1.7781  0.4721
  223SOL     OW  667   2.721   0.972   2.121  0.3087 -0.0868  0.3304
  223SOL    HW1  668   2.668   1.033   2.186  0.3779 -0.7746  1.9389
  223SOL    HW2  669   2.822   0.965   2.149  1.8752 -1.6353  1.1088
  224SOL     OW  670   1.493   0.986   2.834  0.0819 -0.0860 -0.6607
  224SOL    HW1  671   1.546   0.929   2.759  1.4396  2.0246 -0.5003
  224SOL    HW2  672   1.499   1.084   2.804 -0.0772  0.2699 -0.4305
  225SOL     OW  673   2.954   2.686   2.880  0.0233  0.0043 -0.6175
  225SOL    HW1  674   2.878   2.673   2.807  2.2197 -1.5214 -0.1144
  225SOL    HW2  675   3.051   2.695   2.845  2.3729  0.8683  1.4895
  226SOL     OW  676   2.412   1.641   2.805 -0.3993 -0.0311  0.6908
  226SOL    HW1  677   2.473   1.608   2.723  3.0666 -1.0108  1.0766
  226SOL    HW2  678   2.426   1.575   2.887 -1.0693 -0.3136  0.6588
  227SOL     OW  679   0.931   0.281   3.003 -0.1248 -0.1900 -0.0320
  227SOL    HW1  680   0.914   0.384   3.025 -1.0648  1.3646 -0.6402
  227SOL    HW2  681   0.884   0.246   2.916 -1.7738  2.8598 -1.6663
  228SOL     OW  682   2.431   0.661   2.905 -0.2371  0.2273 -0.0593
  228SOL    HW1  683   2.463   0.731   2.840 -0.9725  1.3548  0.6919
  228SOL    HW2  684   2.498   0.593   2.935 -2.7242  1.0738 -0.2253
  229SOL     OW  685   0.707   0.665   1.818  0.5119  0.6512 -0.3056
  229SOL    HW1  686   0.789   0.655   1.878  4.0755  0.0011 -0.9392
  229SOL    HW2  687   0.715   0.610   1.730  1.9433 -0.0394  1.7934
  230SOL     OW  688   1.880   1.228   1.914  0.3159 -0.3766 -0.2027
  230SOL    HW1  689   1.969   1.273   1.891 -0.7133 -0.7335  2.7076
  230SOL    HW2  690   1.833   1.279   1.997 -0.6869  0.8629  0.1525
  231SOL     OW  691   0.683   1.042   0.012 -0.0878 -0.1924  0.3716
  231SOL    HW1  692   0.760   1.090  -0.044  2.1942  1.4779 -1.6106
  231SOL    HW2  693   0.609   1.105   0.037  0.2969 -0.7558  0.4453
  232SOL     OW  694   2.414   2.960   2.782  0.1098  0.4455 -0.5368
  232SOL    HW1  695   2.480   2.878   2.791  0.0291  1.1152 -3.0055
  232SOL    HW2  696   2.457   3.042   2.737 -1.1699 -2.0903 -1.2329
  233SOL     OW  697   1.793   1.122   1.177 -0.1120 -0.0557  0.5379
  233SOL    HW1  698   1.835   1.203   1.128 -1.0228 -0.5110 -0.6251
  233SOL    HW2  699   1.862   1.046   1.182  1.8171  1.2853 -0.3738
  234SOL     OW  700   1.650   2.524   1.831  0.0532 -0.2630  0.2295
  234SOL    HW1  701   1.619   2.576   1.917 -3.0454 -1.8469  0.5274
  234SOL    HW2  702   1.577   2.456   1.801 -3.2771 -2.4810 -1.1248
  235SOL     OW  703   0.068   3.007   2.879  0.0251  0.4169  0.7185
  235SOL    HW1  704  -0.002   3.001   2.802  0.1558  2.1465 -0.3329
  235SOL    HW2  705   0.037   3.072   2.954  3.3510  0.4383  2.2707
  236SOL     OW  706   2.907   0.746   0.063 -0.4309  0.5494 -0.1290
  236SOL    HW1  707   2.971   0.764   0.142 -2.4005 -0.4391 -0.7070
  236SOL    HW2  708   2.931   0.656   0.017 -0.4713  1.9853  2.7694
  237SOL     OW  709   1.536   1.695   0.918 -0.2032 -0.2159 -0.3318
  237SOL    HW1  710   1.598   1.620   0.940  1.6300  4.2265  0.5184
  237SOL    HW2  711   1.496   1.747   1.003 -1.3368 -0.7448  2.9944
  238SOL     OW  712   1.924   1.195   0.731  0.0489  0.0563 -0.1787
  238SOL    HW1  713   1.944   1.207   0.834  0.8415 -0.9094  0.4646
  238SOL    HW2  714   1.839   1.238   0.705  0.6897  0.6687  0.9822
  239SOL     OW  715   2.046   0.330   2.833  0.1975  0.3283 -0.0014
  239SOL    HW1  716   2.093   0.315   2.929  0.5870  2.1817  0.8020
  239SOL    HW2  717   1.947   0.356   2.846  0.4140  0.0686  0.8925
  240SOL     OW  718   0.928   0.682   0.238 -0.9093 -0.0522 -0.7594
  240SOL    HW1  719   1.002   0.629   0.186 -1.0898 -0.4978  2.0074
  240SOL    HW2  720   0.921   0.663   0.339 -0.4811  0.3415 -2.4749
  241SOL     OW  721   0.543   0.156   0.304 -0.3421  0.3620 -0.1066
  241SOL    HW1  722   0.614   0.221   0.265  0.9329 -0.7356  3.1555
  241SOL    HW2  723   0.549   0.063   0.265  0.4265  0.0229 -0.9045
  242SOL     OW  724   0.609   2.601   1.261 -0.0879  0.3214  0.5130
  242SOL    HW1  725   0.590   2.591   1.361 -0.8388  0.0214  2.4600
  242SOL    HW2  726   0.668   2.683   1.227  0.1710  2.8010 -0.2378
  243SOL     OW  727   1.051   0.595   2.392 -0.2642 -0.0617 -0.0698
  243SOL    HW1  728   0.954   0.606   2.353  0.8132 -0.4840  0.4851
  243SOL    HW2  729   1.052   0.547   2.488  1.8143 -1.0081  0.4395
  244SOL     OW  730   2.777   1.940   2.405  0.5898 -0.4598  0.1435
  244SOL    HW1  731   2.807   1.916   2.309  0.2113 -0.7732  1.3927
  244SOL    HW2  732   2.701   1.877   2.442  1.7172  0.5377 -1.3192
  245SOL     OW  733   2.101   1.021   2.230 -0.0651 -0.1251  0.2017
  245SOL    HW1  734   2.198   1.016   2.264  0.0792  0.0574  1.6489
  245SOL    HW2  735   2.051   1.100   2.269  1.6303  0.8427 -4.2373
  246SOL     OW  736   0.260   2.913   1.818 -0.3530  0.6019 -0.0415
  246SOL    HW1  737   0.198   2.886   1.737  2.5678 -1.5251 -1.8923
  246SOL    HW2  738   0.350   2.951   1.790 -2.9436  0.9007  3.3888
  247SOL     OW  739   2.224   0.585   3.074 -0.6864 -0.2662  0.2607
  247SOL    HW1  740   2.306   0.611   3.014 -1.2326  2.1318  0.3653
  247SOL    HW2  741   2.152   0.656   3.064 -1.0816  1.0806  1.4092
  248SOL     OW  742   2.154   1.888   1.626  0.3560 -0.1342  0.0361
  248SOL    HW1  743   2.200   1.805   1.671 -1.4658  1.3991 -1.8339
  248SOL    HW2  744   2.055   1.898   1.646  0.4891  2.5853  1.5966
  249SOL     OW  745   1.888   1.891   1.877 -0.5904 -0.6800 -0.1535
  249SOL    HW1  746   1.885   1.842   1.785  0.3754 -1.7661  1.7250
  249SOL    HW2  747   1.984   1.899   1.912 -1.0634  0.6147 -0.1423
  250SOL     OW  748   1.033   0.696   1.851  0.2562  0.3026  0.3264
  250SOL    HW1  749   1.109   0.671   1.913  0.5842 -1.9114  1.3349
  250SOL    HW2  750   1.031   0.632   1.771  1.7732 -0.8389  0.0605
  251SOL     OW  751   3.055   1.496   2.610 -0.2390 -0.5152 -0.4665
  251SOL    HW1  752   3.030   1.577   2.544 -0.5285 -0.6398 -0.8281
  251SOL    HW2  753   2.983   1.420   2.598 -0.5210  0.0228  1.2722
  252SOL     OW  754   1.549   0.796   1.585  0.1582 -0.7081 -0.3823
  252SOL    HW1  755   1.582   0.852   1.504  0.9406  0.0646  1.0234
  252SOL    HW2  756   1.552   0.839   1.681 -1.2177 -1.3229  0.8964
  253SOL     OW  757   0.943   1.472   0.443  0.5912 -0.2799 -0.3016
  253SOL    HW1  758   0.980   1.465   0.345  1.2707 -0.0031 -1.3520
  253SOL    HW2  759   0.867   1.541   0.458 -2.6114  2.1038 -0.1199
  254SOL     OW  760   2.014   2.193   1.655  0.1029  0.7214  0.4131
  254SOL    HW1  761   1.948   2.141   1.595 -1.1427 -0.8166 -1.0690
  254SOL    HW2  762   1.962   2.241   1.735 -1.5628  0.0818  0.5536
  255SOL     OW  763   0.070   1.212   2.956 -0.0420  0.6880 -0.3225
  255SOL    HW1  764   0.130   1.288   2.918 -3.2012 -1.5888  1.0043
  255SOL    HW2  765   0.124   1.136   3.011  0.3037  0.4433  1.7571
  256SOL     OW  766   2.761   1.427   1.793  0.2271  0.1943  0.5060
  256SOL    HW1  767   2.681   1.476   1.840  3.0942  0.1560  3.3190
  256SOL    HW2  768   2.738   1.331   1.771 -2.9781 -1.1136 -1.6783
  257SOL     OW  769   0.814   0.203   1.859 -0.2212 -0.1427  0.0740
  257SOL    HW1  770   0.866   0.241   1.776 -0.7195 -4.8394  1.1308
  257SOL    HW2  771   0.855   0.109   1.891  3.0394 -3.6000  3.0644
  258SOL     OW  772   2.959   1.186   0.521 -0.0589 -0.3720 -0.4079
  258SOL    HW1  773   2.862   1.211   0.556 -1.1921 -1.1586 -2.5158
  258SOL    HW2  774   3.028   1.211   0.599  1.5584 -0.3883  3.1384
  259SOL     OW  775   0.447   2.944   3.029 -0.2636  0.3973  0.0350
  259SOL    HW1  776   0.365   2.893   3.075 -1.5860  1.2460  0.8107
  259SOL    HW2  777   0.477   2.908   2.942 -0.7107  0.0690  0.1146
  260SOL     OW  778   2.712   0.709   2.784 -0.3667 -0.8540 -0.1635
  260SOL    HW1  779   2.626   0.738   2.728 -1.0299 -2.2995  1.0398
  260SOL    HW2  780   2.709   0.619   2.839  1.6891  0.4030  1.6353
  261SOL     OW  781   2.670   1.274   1.302  0.1060 -0.2349  0.1587
  261SOL    HW1  782   2.593   1.225   1.249  0.1809 -1.0487  1.6006
  261SOL    HW2  783   2.763   1.229   1.278 -0.0294 -0.7506  0.2839
  262SOL     OW  784   1.413   2.944   2.015  0.5073 -0.1012 -0.3502
  262SOL    HW1  785   1.417   3.046   1.989  0.7961  0.7804 -3.3804
  262SOL    HW2  786   1.319   2.907   2.002  0.6303  0.0967 -0.3662
  263SOL     OW  787   0.798   0.667   2.288 -0.1678  0.1316 -0.5064
  263SOL    HW1  788   0.736   0.590   2.249 -0.2392 -0.1591  0.1809
  263SOL    HW2  789   0.825   0.735   2.209  0.9013  2.7044 -5.3096
  264SOL     OW  790   2.269   0.810   0.437  0.3226  0.3899  0.2162
  264SOL    HW1  791   2.281   0.728   0.374  0.7766 -1.2331  3.5575
  264SOL    HW2  792   2.353   0.849   0.482 -1.8525  0.7976  1.6816
  265SOL     OW  793   0.861   2.323   2.635 -0.1728 -0.6946 -0.1901
  265SOL    HW1  794   0.878   2.286   2.728 -0.7803 -0.3472  0.2779
  265SOL    HW2  795   0.804   2.253   2.575 -2.3517  0.0919  3.0482
  266SOL     OW  796   1.269   1.808   3.038 -0.0543  0.0830  0.2643
  266SOL    HW1  797   1.264   1.847   3.138  0.9306  1.4611  2.1051
  266SOL    HW2  798   1.371   1.799   3.011  2.4348 -0.7478 -0.6646
  267SOL     OW  799   1.051   3.047   2.297  0.4250 -0.4895 -0.2135
  267SOL    HW1  800   0.979   2.978   2.266  1.1057 -4.5588  0.3646
  267SOL    HW2  801   1.099   3.082   2.213  1.8244  2.1611 -4.9654
  268SOL     OW  802   0.834   1.308   1.152 -0.7464 -0.3427  0.6546
  268SOL    HW1  803   0.777   1.385   1.194 -0.8828  0.7675  0.6806
  268SOL    HW2  804   0.879   1.336   1.067  1.2249 -1.0661  0.3700
  269SOL     OW  805   2.329   2.529   1.597 -0.1570 -0.3956  0.2288
  269SOL    HW1  806   2.431   2.495   1.594  2.6083  1.4914  3.1180
  269SOL    HW2  807   2.296   2.546   1.698 -0.9268 -0.5599  1.8651
  270SOL     OW  808   0.125   3.045   2.019 -0.4075 -0.2497 -0.3560
  270SOL    HW1  809   0.177   3.000   1.938  0.6902 -1.4886 -2.2930
  270SOL    HW2  810   0.085   2.981   2.090 -0.7666  3.3229 -0.5008
  271SOL     OW  811   0.398   1.423   1.103 -0.3946 -0.3653  0.2440
  271SOL    HW1  812   0.374   1.400   1.004 -2.1053 -1.0606  0.2571
  271SOL    HW2  813   0.335   1.389   1.174  1.7351  0.0679  0.0103
  272SOL     OW  814   1.867   0.030   1.895  0.0107 -0.1339 -0.0023
  272SOL    HW1  815   1.826  -0.055   1.852 -1.0095  0.9474  0.0153
  272SOL    HW2  816   1.865   0.117   1.839 -1.2008 -1.4117 -2.1152
  273SOL     OW  817   1.434   1.445   2.860 -0.0432  0.2485 -0.5620
  273SOL    HW1  818   1.331   1.450   2.867  0.3310  0.4790 -3.1730
  273SOL    HW2  819   1.484   1.427   2.948  0.4025 -1.1541 -0.8161
  274SOL     OW  820   1.186   0.588   2.077 -0.0970 -0.5439  0.4295
  274SOL    HW1  821   1.124   0.501   2.096 -1.5551 -1.6199  1.2015
  274SOL    HW2  822   1.227   0.631   2.162 -0.3376 -0.6775 -0.6971
  275SOL     OW  823   0.636   2.107   1.974 -0.0807  0.0784  0.2121
  275SOL    HW1  824   0.552   2.042   1.976 -1.2813  0.9872 -0.0130
  275SOL    HW2  825   0.605   2.199   1.942  1.8556  1.4752  0.3500
  276SOL     OW  826   2.261   0.945   2.866  0.2170 -0.0792  0.5062
  276SOL    HW1  827   2.177   0.972   2.810  1.3688  0.1766 -0.3049
  276SOL    HW2  828   2.278   0.842   2.858  1.6316 -0.4133 -1.7703
  277SOL     OW  829   3.089   0.772   0.249 -0.4170 -0.2017 -0.1204
  277SOL    HW1  830   3.188   0.779   0.220 -0.3895 -0.8034  0.4502
  277SOL    HW2  831   3.081   0.719   0.339  0.3986 -0.1299  0.1438
  278SOL     OW  832   0.308   0.231   0.015  0.8405 -0.1758  0.0937
  278SOL    HW1  833   0.377   0.188  -0.046 -0.8037 -0.0291  0.0734
  278SOL    HW2  834   0.317   0.337   0.013  0.7448 -0.0311 -0.7102
  279SOL     OW  835   0.263   2.988   0.930 -0.3461 -0.0651 -0.1439
  279SOL    HW1  836   0.348   2.974   0.993 -0.1649 -4.0709  1.7836
  279SOL    HW2  837   0.246   2.910   0.865 -0.4826  1.1294 -0.1866
  280SOL     OW  838   1.582   2.889   2.436  0.5723  0.2184  0.0294
  280SOL    HW1  839   1.626   2.936   2.514 -1.2347 -1.6301  0.0790
  280SOL    HW2  840   1.513   2.958   2.392 -0.3075  0.5804  4.1530
  281SOL     OW  841   0.566   0.928   2.372  0.4878  0.4113 -0.4907
  281SOL    HW1  842   0.533   0.846   2.310  0.0559 -2.1075  0.0964
  281SOL    HW2  843   0.577   0.918   2.474  1.3383  0.2177  0.2942
  282SOL     OW  844   1.789   2.465   0.539 -0.2977 -0.1304 -0.3428
  282SOL    HW1  845   1.763   2.371   0.493  0.4860 -2.4885  0.0886
  282SOL    HW2  846   1.721   2.541   0.510  1.1627 -1.0312 -0.2636
  283SOL     OW  847   1.179   0.939   0.792 -0.2287 -0.4271 -0.6840
  283SOL    HW1  848   1.202   0.868   0.867  0.8321  0.1173  0.2272
  283SOL    HW2  849   1.120   1.018   0.828  0.7843  1.1406  0.4766
  284SOL     OW  850   2.264   2.829   2.454 -0.4423  0.1173  0.1205
  284SOL    HW1  851   2.365   2.850   2.425  0.2624 -2.1759 -2.9753
  284SOL    HW2  852   2.236   2.858   2.551  2.1116  1.7200  0.0175
  285SOL     OW  853   1.320   3.068   2.576  0.5632 -0.3320 -0.8687
  285SOL    HW1  854   1.362   3.051   2.482 -1.5721 -0.4888  0.9916
  285SOL    HW2  855   1.227   3.121   2.570  0.6484  1.6201  1.5362
  286SOL     OW  856   0.255   0.348   0.652 -0.0460 -0.4169 -0.1189
  286SOL    HW1  857   0.302   0.276   0.710 -1.5836  1.7205 -2.2236
  286SOL    HW2  858   0.257   0.339   0.549 -0.5522  0.4078 -2.3914
  287SOL     OW  859   0.099   1.252   2.525  0.2005 -0.6608 -0.2736
  287SOL    HW1  860   0.050   1.200   2.603  0.6603  2.8035 -1.1512
  287SOL    HW2  861   0.078   1.353   2.542 -0.0676 -0.0286  0.7978
  288SOL     OW  862   1.509   2.671   1.653 -0.0474 -0.1103 -0.3808
  288SOL    HW1  863   1.571   2.621   1.716  1.7259  0.2683 -0.2091
  288SOL    HW2  864   1.563   2.727   1.581 -1.4027  0.7180 -0.6611
  289SOL     OW  865   0.635   2.771   0.794  0.0428  0.1516 -0.4928
  289SOL    HW1  866   0.702   2.831   0.734  1.9778 -1.2586 -0.6203
  289SOL    HW2  867   0.618   2.819   0.884 -2.2616 -0.5704 -1.8797
  290SOL     OW  868   2.835   1.106   1.689 -0.4006 -0.1159 -0.1172
  290SOL    HW1  869   2.767   1.046   1.741  1.7811  0.1901 -0.5165
  290SOL    HW2  870   2.933   1.093   1.726  1.7931 -0.5521  2.0060
  291SOL     OW  871   1.924   0.007   0.073  0.2728  0.3794  0.1376
  291SOL    HW1  872   1.926   0.027   0.174 -0.6369  0.3326  1.6128
  291SOL    HW2  873   2.005   0.032   0.015 -0.7977 -0.6362 -1.4239
  292SOL     OW  874   2.985   1.292   0.027  0.0528 -0.1648  0.1535
  292SOL    HW1  875   2.889   1.298  -0.007 -2.7611  0.1495  1.3599
  292SOL    HW2  876   3.059   1.267  -0.041 -0.2544 -0.5861  1.1990
  293SOL     OW  877   0.526   2.061   0.267 -0.5592 -0.0736 -0.7110
  293SOL    HW1  878   0.524   2.144   0.333 -1.7075  2.3892 -0.1804
  293SOL    HW2  879   0.622   2.032   0.239  2.6383  0.4080  0.7844
  294SOL     OW  880   1.865   2.352   1.822  0.4184  0.1506 -0.0873
  294SOL    HW1  881   1.876   2.357   1.924 -0.3740 -0.2431 -1.3277
  294SOL    HW2  882   1.789   2.416   1.790 -0.0148 -0.6764  0.3988
  295SOL     OW  883   0.964   1.016   0.453 -0.2044  0.1928  0.6305
  295SOL    HW1  884   1.052   1.059   0.487  2.0307  0.8647  1.3435
  295SOL    HW2  885   0.916   0.962   0.526  0.1098 -3.7649  0.7845
  296SOL     OW  886   1.154   2.125   2.733 -0.0528  0.1430 -0.5303
  296SOL    HW1  887   1.081   2.199   2.712  0.7047 -1.1704 -3.7809
  296SOL    HW2  888   1.196   2.078   2.649  0.9122 -2.7987  0.5830
  297SOL     OW  889   1.302   0.588   1.238  0.6885  0.3323 -0.1016
  297SOL    HW1  890   1.332   0.540   1.329  0.8973  1.9233 -0.1839
  297SOL    HW2  891   1.380   0.590   1.167  0.6123 -0.5006 -1.5863
  298SOL     OW  892   0.469   1.317   2.962 -0.0386  0.4959 -0.2087
  298SOL    HW1  893   0.479   1.268   3.051  2.1181  2.1614  1.4833
  298SOL    HW2  894   0.512   1.260   2.883  1.8231  2.4752 -0.1156
  299SOL     OW  895   0.404   0.178   1.248  0.3204  0.4971 -0.1473
  299SOL    HW1  896   0.353   0.269   1.220  1.1834  0.5517 -0.9251
  299SOL    HW2  897   0.398   0.156   1.352  0.3723  0.5919  3.3372
  300SOL     OW  898   1.307   1.787   2.576 -1.4650 -0.9447 -0.3513
  300SOL    HW1  899   1.296   1.712   2.508 -1.4477  1.7043 -0.2175
  300SOL    HW2  900   1.394   1.764   2.634 -0.5811  0.1359  1.2814
  301SOL     OW  901   0.305   0.273   0.389 -0.0206  0.0347  0.0234
  301SOL    HW1  902   0.218   0.220   0.367  2.1218 -0.4968  2.6913
  301SOL    HW2  903   0.393   0.220   0.368 -1.9989  1.8317 -2.1604
  302SOL     OW  904   1.244   2.394   2.298  0.5375  0.1546  0.1792
  302SOL    HW1  905   1.145   2.363   2.303  1.0193 -0.1840 -0.8475
  302SOL    HW2  906   1.303   2.339   2.365 -1.1741  1.8636 -0.1775
  303SOL     OW  907   0.859   2.457   0.753  0.0853  0.1209 -0.5335
  303SOL    HW1  908   0.903   2.481   0.665  4.5127 -2.7641  1.7349
  303SOL    HW2  909   0.921   2.492   0.830  2.1000 -2.3095 -1.1967
  304SOL     OW  910   0.143   1.924   0.708  0.3257 -0.2995 -0.4182
  304SOL    HW1  911   0.191   1.887   0.623 -1.0765 -1.5649  1.5715
  304SOL    HW2  912   0.042   1.939   0.700 -1.4801  0.2704 -2.8634
  305SOL     OW  913   1.655   0.783   0.691  0.1184 -0.4309 -0.5300
  305SOL    HW1  914   1.583   0.807   0.617 -3.3268 -0.1489  1.0978
  305SOL    HW2  915   1.686   0.684   0.688  1.2405 -0.7836  0.6604
  306SOL     OW  916   0.421   1.914   1.977  0.4139  0.1643  0.6946
  306SOL    HW1  917   0.496   1.871   1.920  0.0213  0.5943  0.6875
  306SOL    HW2  918   0.445   1.913   2.082  1.6484  0.0639 -0.1498
  307SOL     OW  919   3.037   0.901   2.593 -0.5206  0.1260  0.4499
  307SOL    HW1  920   3.049   0.988   2.651 -0.9668 -1.6753 -0.5990
  307SOL    HW2  921   3.037   0.811   2.648  1.5505 -0.0712  0.5403
  308SOL     OW  922   1.477   2.694   2.810  0.0431  0.4133 -0.1409
  308SOL    HW1  923   1.429   2.702   2.718 -1.0055  2.1039  0.6688
  308SOL    HW2  924   1.446   2.612   2.862  2.6114  0.3677 -1.5559
  309SOL     OW  925   1.149   0.192   1.827 -0.3623  0.4085 -0.2491
  309SOL    HW1  926   1.235   0.155   1.780 -0.0964  0.1072  0.7060
  309SOL    HW2  927   1.067   0.207   1.764 -0.4081  0.9999  0.0080
  310SOL     OW  928   1.426   2.570   0.654 -0.8601  0.4146  0.2888
  310SOL    HW1  929   1.417   2.565   0.756 -1.5766 -0.2696 -1.6117
  310SOL    HW2  930   1.498   2.640   0.616  1.4428  0.4100 -0.4918
  311SOL     OW  931   1.120   0.932   1.740  0.1394  0.4590 -0.6852
  311SOL    HW1  932   1.074   0.845   1.775  0.1416  0.7956  0.7722
  311SOL    HW2  933   1.168   0.919   1.647 -0.8118 -2.3240  0.0495
  312SOL     OW  934   1.482   0.630   1.018 -0.0319 -0.0880 -0.0897
  312SOL    HW1  935   1.497   0.734   1.005 -0.0087  1.0485 -0.2623
  312SOL    HW2  936   1.432   0.585   0.937 -1.8018 -0.9001 -1.4687
  313SOL     OW  937   1.658   1.293   0.717 -0.0910  0.0480 -0.3122
  313SOL    HW1  938   1.577   1.338   0.766  0.7969  0.2309 -1.1789
  313SOL    HW2  939   1.625   1.222   0.650 -3.1790  2.8033  0.6902
  314SOL     OW  940   3.014   0.017   3.078  0.2193  0.4332 -0.2504
  314SOL    HW1  941   3.036   0.004   3.178  0.1638  2.4626 -2.8686
  314SOL    HW2  942   2.924  -0.030   3.051 -0.7854 -0.9629  0.6084
  315SOL     OW  943   1.183   0.217   2.799 -0.8917  0.3694 -0.3019
  315SOL    HW1  944   1.136   0.156   2.726 -0.3626 -2.8048 -1.3551
  315SOL    HW2  945   1.177   0.179   2.896  0.5521  0.5532 -0.6367
  316SOL     OW  946   1.752   2.058   0.856  0.0698  0.4599 -0.2334
  316SOL    HW1  947   1.706   2.032   0.947 -2.9772 -1.5671 -1.1580
  316SOL    HW2  948   1.759   2.160   0.845  0.1324 -2.2482 -1.7588
  317SOL     OW  949   1.177   0.712   2.726  0.0423 -0.1036  0.0773
  317SOL    HW1  950   1.127   0.732   2.816 -0.9158 -2.3164  0.0853
  317SOL    HW2  951   1.140   0.626   2.680  1.5029  0.4045  0.7989
  318SOL     OW  952   1.410   3.056   2.311  0.3083 -0.3541 -0.6278
  318SOL    HW1  953   1.428   3.158   2.305 -0.9331 -0.0807  1.3579
  318SOL    HW2  954   1.402   3.020   2.217 -1.2968 -1.1363 -0.6704
  319SOL     OW  955   0.614   2.388   3.036  0.3363  0.3222  0.0181
  319SOL    HW1  956   0.567   2.300   3.066  0.1949  0.1276 -0.8413
  319SOL    HW2  957   0.693   2.371   2.973 -0.6481 -1.5512  3.2223
  320SOL     OW  958   1.699   2.246   0.410 -0.0092 -0.2202  0.1384
  320SOL    HW1  959   1.757   2.161   0.393  0.2633  1.4164 -1.1835
  320SOL    HW2  960   1.603   2.223   0.441  1.5009  0.8106  0.6433
  321SOL     OW  961   1.608   2.703   0.511 -0.0539  0.0023  0.2813
  321SOL    HW1  962   1.549   2.758   0.439 -1.9983  1.9881 -1.3033
  321SOL    HW2  963   1.698   2.746   0.539  1.2511 -2.8080 -2.3923
  322SOL     OW  964   2.542   1.075   2.336 -0.3557  0.1627  0.4902
  322SOL    HW1  965   2.611   1.025   2.402  1.9082 -1.3831  0.6861
  322SOL    HW2  966   2.458   1.022   2.308  2.0025  1.1724 -1.5685
  323SOL     OW  967   1.166   2.703   0.755  0.8966 -0.1167  0.4265
  323SOL    HW1  968   1.177   2.671   0.657  1.9861 -0.7754 -0.3073
  323SOL    HW2  969   1.138   2.798   0.755 -3.1563 -1.3011 -0.6377
  324SOL     OW  970   0.068   2.529   2.412  0.2114 -0.4631 -0.4318
  324SOL    HW1  971   0.037   2.472   2.494 -2.2063  0.1424  0.5060
  324SOL    HW2  972   0.078   2.627   2.443  1.0708 -2.3328  1.6421
  325SOL     OW  973   1.289   3.025   0.414 -0.1400  0.3229 -0.3801
  325SOL    HW1  974   1.267   3.079   0.332 -3.0060 -3.4281  0.0133
  325SOL    HW2  975   1.302   3.089   0.493 -1.4261  0.8750 -0.9481
  326SOL     OW  976   2.449   0.888   0.017  0.5750 -0.4769  0.1078
  326SOL    HW1  977   2.354   0.876   0.057  0.2662 -1.4440  0.6021
  326SOL    HW2  978   2.520   0.823   0.050 -0.8824  2.1089  0.6798
  327SOL     OW  979   2.835   0.184   0.560  0.2160  0.2486 -0.0160
  327SOL    HW1  980   2.845   0.130   0.471  2.5260 -0.6920 -0.0795
  327SOL    HW2  981   2.858   0.129   0.646 -0.0882 -1.2166  0.1356
  328SOL     OW  982   2.652   0.598   0.392  0.1971 -0.1742  0.6429
  328SOL    HW1  983   2.732   0.649   0.429  0.1161 -0.9352  0.6022
  328SOL    HW2  984   2.627   0.510   0.442 -0.9332 -0.6793 -0.9569
  329SOL     OW  985   2.927   3.060   2.249 -0.0990  0.5352 -0.2739
  329SOL    HW1  986   3.007   2.995   2.270 -0.9536 -0.3189  1.1067
  329SOL    HW2  987   2.962   3.148   2.209  0.9209 -1.7311 -0.4434
  330SOL     OW  988   0.556   0.334   1.996  1.0600  0.6584  0.8483
  330SOL    HW1  989   0.598   0.335   1.901 -0.6210 -1.8419  1.1681
  330SOL    HW2  990   0.578   0.244   2.048  0.6842  0.1584 -1.1963
  331SOL     OW  991   0.011   1.934   1.123 -0.4527  0.2294  0.2210
  331SOL    HW1  992  -0.003   1.986   1.035  1.6380 -2.6450  0.3225
  331SOL    HW2  993  -0.081   1.916   1.168  0.3183  2.2755  1.4290
  332SOL     OW  994   0.438   1.149   0.094  0.0207 -0.2103  0.7097
  332SOL    HW1  995   0.364   1.099   0.039 -0.0627  1.1961  1.9294
  332SOL    HW2  996   0.402   1.182   0.187  0.8149 -0.2006  3.2273
  333SOL     OW  997   2.913   0.956   0.369 -0.5398  0.0893  0.1001
  333SOL    HW1  998   2.908   1.028   0.446 -1.3355  4.2340  2.5142
  333SOL    HW2  999   3.016   0.936   0.332  2.3346  1.1344 -1.5834
  334SOL     OW 1000   1.713   1.164   1.717 -0.3588  0.4470  0.5501
  334SOL    HW1 1001   1.745   1.184   1.622  0.5219  0.9955 -0.0453
  334SOL    HW2 1002   1.782   1.179   1.795  2.0374  0.1995  1.4403
  335SOL     OW 1003   1.943   2.753   2.602  0.2517 -0.0006  0.1079
  335SOL    HW1 1004   1.878   2.743   2.685 -1.0750  0.7545  0.3066
  335SOL    HW2 1005   2.032   2.795   2.631  0.1466  0.7774  1.9549
  336SOL     OW 1006   0.280   0.108   2.738 -0.2630 -0.0962  0.0400
  336SOL    HW1 1007   0.353   0.123   2.812  0.0134 -0.2227  4.1337
  336SOL    HW2 1008   0.206   0.042   2.765  0.2711  0.7549  1.6463
  337SOL     OW 1009   0.781   2.828   3.050  0.0961 -0.8967  0.0946
  337SOL    HW1 1010   0.829   2.735   3.082  1.4408 -5.3770 -1.2539
  337SOL    HW2 1011   0.785   2.908   3.111 -2.5960  0.9295 -1.0703
  338SOL     OW 1012   0.073   0.943   0.712  0.6155  0.0573  0.3865
  338SOL    HW1 1013  -0.018   0.901   0.735  0.4433 -0.1376  1.0873
  338SOL    HW2 1014   0.058   1.044   0.708 -0.0124 -1.8240 -0.2969
  339SOL     OW 1015   1.769   1.366   2.146 -0.0049  0.6037  0.1973
  339SOL    HW1 1016   1.667   1.382   2.126  0.6059 -0.6789 -1.6953
  339SOL    HW2 1017   1.827   1.454   2.159 -1.0213 -0.3310  1.5483
  340SOL     OW 1018   2.267   0.772   1.104  0.6017  0.3462  0.6400
  340SOL    HW1 1019   2.167   0.802   1.125  0.3034  0.4641  0.8908
  340SOL    HW2 1020   2.286   0.677   1.077  2.3228 -0.9670  0.6771
  341SOL     OW 1021   1.879   2.064   0.303  0.6193  0.2576 -0.7018
  341SOL    HW1 1022   1.905   2.130   0.224 -1.4992  2.2943  1.1974
  341SOL    HW2 1023   1.953   2.057   0.376  0.3350  0.8020 -1.6217
  342SOL     OW 1024   2.151   2.139   2.765 -0.7452 -0.4350 -0.0097
  342SOL    HW1 1025   2.178   2.046   2.797 -1.0844 -0.8080 -0.5580
  342SOL    HW2 1026   2.055   2.140   2.728  1.6408  0.4796 -1.0375
  343SOL     OW 1027   0.356   0.839   2.880 -0.1552 -0.5010 -0.0945
  343SOL    HW1 1028   0.345   0.902   2.801  1.9785 -1.1981  0.4761
  343SOL    HW2 1029   0.460   0.829   2.895  0.8575  3.0189  1.9586
  344SOL     OW 1030   1.938   1.421   0.352 -0.0356 -0.1331  0.5354
  344SOL    HW1 1031   1.938   1.327   0.306  0.3784  1.8180  0.1861
  344SOL    HW2 1032   1.844   1.462   0.377 -2.6051 -0.7820 -1.1817
  345SOL     OW 1033   1.407   2.189   2.856 -0.1111 -0.2106 -0.3621
  345SOL    HW1 1034   1.312   2.180   2.810 -1.0511  0.7306  0.1810
  345SOL    HW2 1035   1.465   2.105   2.822  1.3769 -0.1877 -0.5841
  346SOL     OW 1036   2.287   0.822   1.395 -0.2338  0.3043  0.4957
  346SOL    HW1 1037   2.190   0.847   1.417  1.8157 -0.4420 -0.9518
  346SOL    HW2 1038   2.292   0.767   1.309 -1.5076  0.0513  2.6897
  347SOL     OW 1039   0.714   2.792   1.705  0.2300  0.1244 -0.2442
  347SOL    HW1 1040   0.791   2.862   1.670 -1.6854  0.6047 -0.4885
  347SOL    HW2 1041   0.626   2.796   1.651 -1.1677  0.2787  3.3801
  348SOL     OW 1042   0.187   0.617   2.831 -0.0949  0.5214 -0.1157
  348SOL    HW1 1043   0.086   0.641   2.831 -0.6107  0.1571 -1.8402
  348SOL    HW2 1044   0.248   0.701   2.835  0.0786 -1.0735  1.1274
  349SOL     OW 1045   1.784   0.421   2.827  0.6147  0.0562 -0.0817
  349SOL    HW1 1046   1.784   0.506   2.769 -1.7210 -0.3847  1.2951
  349SOL    HW2 1047   1.758   0.431   2.927  0.6818 -1.1541  0.4176
  350SOL     OW 1048   1.749   0.370   0.387  0.2297 -0.0006  0.3077
  350SOL    HW1 1049   1.824   0.345   0.456  1.6074 -4.8491  1.4495
  350SOL    HW2 1050   1.733   0.468   0.369 -1.8493  1.6771 -3.0987
  351SOL     OW 1051   0.866   0.792   2.069  1.1742  0.2945 -0.6996
  351SOL    HW1 1052   0.891   0.896   2.076  0.5729  1.0609 -0.3177
  351SOL    HW2 1053   0.925   0.752   1.997 -1.0963  1.8782 -2.1940
  352SOL     OW 1054   2.079   1.425   0.586  0.0060  1.1014 -0.0292
  352SOL    HW1 1055   2.014   1.421   0.501  1.5975 -1.7445 -2.2404
  352SOL    HW2 1056   2.026   1.400   0.673 -1.3326  3.2826 -1.4563
  353SOL     OW 1057   2.182   2.696   1.144 -0.0570  0.3076  0.2781
  353SOL    HW1 1058   2.238   2.658   1.223  0.4397 -0.0028  2.6283
  353SOL    HW2 1059   2.093   2.731   1.184 -0.9226 -0.5587  1.0326
  354SOL     OW 1060   0.215   1.417   2.885 -0.3349 -0.3897 -0.0375
  354SOL    HW1 1061   0.231   1.496   2.818 -1.5343 -0.8675 -0.4069
  354SOL    HW2 1062   0.304   1.371   2.907 -0.8925 -2.4719  1.2209
  355SOL     OW 1063   0.728   1.603   0.599  0.4451 -0.3548 -0.5495
  355SOL    HW1 1064   0.711   1.577   0.698  1.4704 -0.3350 -0.3768
  355SOL    HW2 1065   0.690   1.529   0.533 -1.3190  0.1722 -4.1195
  356SOL     OW 1066   0.994   0.356   2.096  0.2695  0.3991 -0.0896
  356SOL    HW1 1067   1.066   0.279   2.101 -0.1889 -1.4324 -0.0766
  356SOL    HW2 1068   0.922   0.338   2.020  0.3732 -2.3886 -0.0104
  357SOL     OW 1069   1.032   1.495   0.137 -0.0374  1.0084  0.3797
  357SOL    HW1 1070   1.067   1.411   0.086 -1.3583  0.6587 -0.4996
  357SOL    HW2 1071   1.111   1.559   0.168 -0.4674  3.6734  2.4593
  358SOL     OW 1072   1.695   1.498   0.458 -0.3757  0.1141  0.3973
  358SOL    HW1 1073   1.658   1.451   0.541  1.2067 -0.5022 -1.6793
  358SOL    HW2 1074   1.645   1.466   0.372  1.9234 -1.1355 -0.5241
  359SOL     OW 1075   1.624   2.570   0.193 -0.2339  0.3900 -0.2937
  359SOL    HW1 1076   1.608   2.469   0.166  2.5106 -0.7616  1.2323
  359SOL    HW2 1077   1.549   2.613   0.250 -0.8344 -0.8652  1.4846
  360SOL     OW 1078   0.723   0.512   0.556 -0.5933  0.5153 -0.1107
  360SOL    HW1 1079   0.629   0.490   0.501 -1.7374 -1.7819 -1.0100
  360SOL    HW2 1080   0.763   0.419   0.591 -0.3948 -1.8209 -1.3600
  361SOL     OW 1081   1.361   1.296   0.594 -0.4479  0.1963 -0.5676
  361SOL    HW1 1082   1.399   1.366   0.661  2.2066 -0.0145 -1.1609
  361SOL    HW2 1083   1.272   1.325   0.559  1.2455  0.5990 -2.0251
  362SOL     OW 1084   1.408   1.838   0.726  0.0546  0.5139  0.1225
  362SOL    HW1 1085   1.472   1.799   0.801  1.5439  1.3316 -0.1537
  362SOL    HW2 1086   1.456   1.920   0.683  0.0665  0.7402 -0.0651
  363SOL     OW 1087   1.256   1.327   1.917 -0.0959 -0.5079 -0.2296
  363SOL    HW1 1088   1.310   1.344   2.007  1.1201 -2.3355 -0.7343
  363SOL    HW2 1089   1.197   1.409   1.891 -0.9094 -0.0552  3.7278
  364SOL     OW 1090   0.552   2.393   1.983 -0.0065  0.3192  0.3367
  364SOL    HW1 1091   0.448   2.389   1.987 -0.7762  0.4995  2.3661
  364SOL    HW2 1092   0.590   2.492   1.977  0.9858  2.2482 -0.3872
  365SOL     OW 1093   0.922   1.950   1.420 -0.4334 -0.0188  0.1867
  365SOL    HW1 1094   0.829   1.962   1.465  1.0474  3.4807 -1.9430
  365SOL    HW2 1095   0.919   1.972   1.318 -1.0231  1.6700  0.8521
  366SOL     OW 1096   2.725   1.875   0.252 -0.3828 -0.2539  0.1249
  366SOL    HW1 1097   2.658   1.795   0.235 -1.7935  0.5128 -2.0723
  366SOL    HW2 1098   2.820   1.839   0.281 -2.0602  1.1422  2.0090
  367SOL     OW 1099   0.932   1.086   3.040 -0.2771  0.1704  0.1726
  367SOL    HW1 1100   0.925   1.014   3.117  0.0477 -1.4605 -0.3760
  367SOL    HW2 1101   1.014   1.153   3.047 -1.0654  0.4524 -0.2269
  368SOL     OW 1102   1.469   0.474   0.492  0.3719 -0.8417  0.3868
  368SOL    HW1 1103   1.367   0.474   0.464  1.2152  0.6083 -2.0684
  368SOL    HW2 1104   1.535   0.541   0.449  0.6800  0.8795  1.4783
  369SOL     OW 1105   0.321   1.630   0.149 -0.3106 -0.3573 -0.1148
  369SOL    HW1 1106   0.360   1.686   0.225 -0.7794 -0.2696 -1.4393
  369SOL    HW2 1107   0.229   1.580   0.177 -2.1454 -1.3602  1.7831
  370SOL     OW 1108   0.440   2.130   1.026 -0.2611 -0.5799 -0.1665
  370SOL    HW1 1109   0.462   2.232   1.007  1.4727  1.7175 -2.1399
  370SOL    HW2 1110   0.342   2.108   1.002 -0.9423  1.3299 -1.2869
  371SOL     OW 1111   2.907   2.155   2.681 -0.0289 -0.1971 -0.2677
  371SOL    HW1 1112   2.984   2.084   2.663 -0.6442  0.6148  2.2138
  371SOL    HW2 1113   2.914   2.204   2.772 -1.7850  0.3634 -2.4645
  372SOL     OW 1114   0.976   2.086   1.156  0.3600  1.0534 -0.7080
  372SOL    HW1 1115   0.916   2.117   1.075 -0.0233  1.7653 -2.4361
  372SOL    HW2 1116   1.061   2.145   1.170 -2.1468  1.1024 -0.0431
  373SOL     OW 1117   1.899   1.866   1.026 -0.1391 -0.5396 -0.3372
  373SOL    HW1 1118   1.996   1.876   1.070  2.1923 -0.2668 -0.2974
  373SOL    HW2 1119   1.885   1.948   0.965 -0.1355 -1.2325  0.8954
  374SOL     OW 1120   1.939   0.280   0.554  0.5038 -0.6483 -0.0223
  374SOL    HW1 1121   1.893   0.253   0.647  0.0693  0.4692  0.6269
  374SOL    HW2 1122   2.025   0.334   0.555 -0.1609  1.0600 -1.0194
  375SOL     OW 1123   2.426   2.142   1.101 -0.1657 -0.6841 -0.2957
  375SOL    HW1 1124   2.463   2.160   1.007  1.9991 -3.8754 -2.3643
  375SOL    HW2 1125   2.499   2.121   1.168 -0.7458  0.4785 -0.3732
  376SOL     OW 1126   3.067   0.609   1.445  0.3293 -0.5473  0.2751
  376SOL    HW1 1127   3.107   0.645   1.538 -0.7402  0.0700  1.1919
  376SOL    HW2 1128   3.031   0.514   1.467 -0.5865  1.9286  2.3613
  377SOL     OW 1129   2.268   2.939   0.169  0.2494 -0.0645 -0.2122
  377SOL    HW1 1130   2.220   3.014   0.223  1.4470  2.3197 -0.2166
  377SOL    HW2 1131   2.294   2.853   0.224 -1.9910 -1.8501 -1.6777
  378SOL     OW 1132   1.905   1.905   2.500  0.0034 -0.2617 -0.5115
  378SOL    HW1 1133   1.999   1.858   2.499 -0.5663 -0.0935 -0.2159
  378SOL    HW2 1134   1.829   1.834   2.478 -0.2603 -0.7367  1.1448
  379SOL     OW 1135   0.783   0.157   2.766  0.4617  0.2034 -0.2103
  379SOL    HW1 1136   0.833   0.070   2.741 -1.2848  0.1292  1.4408
  379SOL    HW2 1137   0.782   0.218   2.688  1.3823 -0.6334  2.2854
  380SOL     OW 1138   1.552   1.093   0.558 -0.0698 -0.0448  0.5293
  380SOL    HW1 1139   1.480   1.168   0.551 -0.6001  1.5968 -1.3080
  380SOL    HW2 1140   1.520   0.996   0.539 -1.4007  2.4708  1.9487
  381SOL     OW 1141   1.265   1.285   1.437 -0.0172 -0.3536 -0.3565
  381SOL    HW1 1142   1.311   1.195   1.423 -0.9497 -0.1860  4.3674
  381SOL    HW2 1143   1.319   1.348   1.498  3.1389  0.9688 -1.0883
  382SOL     OW 1144   1.803   0.858   0.277  0.0083 -0.4752 -0.4219
  382SOL    HW1 1145   1.819   0.805   0.190  0.0029 -1.4534  0.8778
  382SOL    HW2 1146   1.867   0.831   0.351  2.5195 -0.4643 -0.4957
  383SOL     OW 1147   2.500   0.992   1.478 -0.1690 -0.2987 -0.3850
  383SOL    HW1 1148   2.406   0.951   1.452  0.4308 -2.4461  2.7924
  383SOL    HW2 1149   2.567   0.976   1.402  1.2911 -2.2697 -2.5067
  384SOL     OW 1150   0.967   2.284   0.236 -0.2142 -0.2288  0.3166
  384SOL    HW1 1151   0.878   2.338   0.214  1.1458 -1.1035  2.5598
  384SOL    HW2 1152   0.979   2.256   0.337 -0.6134 -1.4242  0.8120
  385SOL     OW 1153   2.908   2.038   1.622 -0.5131 -0.1005 -0.1885
  385SOL    HW1 1154   3.005   2.060   1.645  2.4098  0.3119 -1.7760
  385SOL    HW2 1155   2.880   1.940   1.639  1.3406  0.2385 -0.1709
  386SOL     OW 1156   0.483   1.047   0.487  0.5951 -0.6386 -0.2696
  386SOL    HW1 1157   0.471   0.942   0.492 -1.9930  0.0795 -1.5382
  386SOL    HW2 1158   0.412   1.095   0.425 -0.8064 -0.8091 -5.3672
  387SOL     OW 1159   0.951   0.268   1.638 -0.0152  0.0117 -0.0774
  387SOL    HW1 1160   0.966   0.373   1.630  3.2080 -0.9640  1.1900
  387SOL    HW2 1161   0.926   0.230   1.543  0.2480 -0.6580 -0.9203
  388SOL     OW 1162   1.230   2.732   1.788  0.2882  0.5659  0.8091
  388SOL    HW1 1163   1.255   2.750   1.688  1.4793 -0.7070  0.1706
  388SOL    HW2 1164   1.272   2.642   1.823 -3.3886  0.2407  3.1905
  389SOL     OW 1165   0.140   2.921   1.341 -0.4531  0.3268  0.1555
  389SOL    HW1 1166   0.039   2.933   1.304 -1.5956 -0.8346  0.8260
  389SOL    HW2 1167   0.177   2.823   1.325 -1.7444  0.0763  0.7515
  390SOL     OW 1168   1.037   0.964   1.354  0.0417 -0.0082 -0.1495
  390SOL    HW1 1169   1.130   0.953   1.401 -2.9766 -0.5977 -0.0274
  390SOL    HW2 1170   0.981   1.042   1.392  2.7649  0.3582  0.0532
  391SOL     OW 1171   2.143   1.135   1.127  0.2060 -0.3684  0.1969
  391SOL    HW1 1172   2.098   1.045   1.163 -2.4964 -1.1505 -2.3282
  391SOL    HW2 1173   2.189   1.114   1.034 -2.5014 -3.0226 -0.7533
  392SOL     OW 1174   0.910   2.597   0.054  0.1173 -0.0696 -0.3750
  392SOL    HW1 1175   0.991   2.541   0.026  1.3820  1.5112  0.7336
  392SOL    HW2 1176   0.850   2.550   0.127 -0.4393  0.0962 -0.6318
  393SOL     OW 1177   0.325   0.674   1.961  0.6915 -0.2839 -0.5189
  393SOL    HW1 1178   0.298   0.570   1.957 -1.1842 -0.9353 -0.1387
  393SOL    HW2 1179   0.331   0.720   1.869 -0.5698  2.0846 -0.7220
  394SOL     OW 1180   3.077   1.928   2.691  0.2021 -0.0482  0.1039
  394SOL    HW1 1181   3.158   1.912   2.755  0.1863 -1.8358  0.8655
  394SOL    HW2 1182   3.067   1.856   2.615  2.1723  1.7425  2.6224
  395SOL     OW 1183   1.619   1.982   0.625  0.4080 -0.6221  0.2592
  395SOL    HW1 1184   1.661   1.901   0.575  1.2388 -0.3924 -1.7318
  395SOL    HW2 1185   1.675   2.005   0.714  2.8944 -1.9712  0.5031
  396SOL     OW 1186   2.905   1.884   1.304  0.0910  0.7504  0.1967
  396SOL    HW1 1187   2.908   1.781   1.284 -1.6524  1.9195 -0.7402
  396SOL    HW2 1188   2.904   1.907   1.409  1.7791  0.1382  3.5922
  397SOL     OW 1189   1.046   2.217   0.490  0.2557  0.5891 -0.4333
  397SOL    HW1 1190   0.949   2.198   0.531 -1.2927 -1.8392 -0.2878
  397SOL    HW2 1191   1.091   2.305   0.518  0.1934 -0.5209 -0.9700
  398SOL     OW 1192   2.186   3.043   1.169  0.4120  0.5385  0.2616
  398SOL    HW1 1193   2.110   2.971   1.159  0.1661 -2.6040 -0.4308
  398SOL    HW2 1194   2.157   3.141   1.160  2.4369  0.4993  1.0961
  399SOL     OW 1195   3.054   2.444   2.641  0.1222 -0.5153  0.1087
  399SOL    HW1 1196   2.953   2.417   2.645  1.5871 -1.1379 -4.9706
  399SOL    HW2 1197   3.114   2.372   2.683  2.9145 -0.8288 -1.1128
  400SOL     OW 1198   0.660   1.724   1.347  0.0240  0.4400  0.4567
  400SOL    HW1 1199   0.626   1.780   1.431 -1.7740  1.4480 -0.2160
  400SOL    HW2 1200   0.610   1.750   1.259  1.0954  4.8776 -1.4895
  401SOL     OW 1201   1.846   0.304   1.149 -0.0856  0.1431  0.1515
  401SOL    HW1 1202   1.851   0.310   1.250 -0.9411  2.6143 -2.1256
  401SOL    HW2 1203   1.749   0.332   1.120 -0.1075 -1.1195 -1.3766
  402SOL     OW 1204   1.348   0.251   3.089 -0.1126 -0.3578  0.0771
  402SOL    HW1 1205   1.430   0.214   3.036  1.1345  0.8931 -0.4330
  402SOL    HW2 1206   1.303   0.328   3.032 -2.8021  0.1363 -0.1453
  403SOL     OW 1207   2.227   1.889   0.815 -0.5281 -0.1292 -0.2097
  403SOL    HW1 1208   2.322   1.918   0.792 -1.1368 -1.1701 -2.3209
  403SOL    HW2 1209   2.189   1.910   0.905  1.8219  1.0822  0.1294
  404SOL     OW 1210   0.283   2.480   2.755  0.2460 -0.2537 -0.1426
  404SOL    HW1 1211   0.352   2.468   2.676  0.8863 -0.0638  0.8641
  404SOL    HW2 1212   0.280   2.581   2.787  1.1862  1.7481 -0.2135
  405SOL     OW 1213   0.147   2.387   0.718  0.0622  0.4001 -0.4947
  405SOL    HW1 1214   0.124   2.315   0.653 -0.2517 -0.0443 -2.2088
  405SOL    HW2 1215   0.223   2.452   0.688  0.5843  2.5296 -4.4644
  406SOL     OW 1216   0.051   1.545   3.060 -0.2111  0.3530 -0.6581
  406SOL    HW1 1217   0.120   1.497   3.003  1.2634  2.1341  0.5288
  406SOL    HW2 1218   0.061   1.532   3.162  2.9099 -0.5988 -0.7049
  407SOL     OW 1219   1.609   0.878   0.958  0.6266 -0.3499 -0.2037
  407SOL    HW1 1220   1.599   0.860   0.856  0.2889  0.5295  1.6623
  407SOL    HW2 1221   1.576   0.971   0.995 -0.2593 -0.4437  1.5394
  408SOL     OW 1222   1.570   2.370   0.975 -0.0798  0.0324  0.3787
  408SOL    HW1 1223   1.647   2.356   0.904 -1.5307  0.3905 -0.5820
  408SOL    HW2 1224   1.509   2.455   0.955 -0.2439  1.9973  2.1119
  409SOL     OW 1225   0.614   0.837   0.705 -0.1224 -0.1451 -0.8290
  409SOL    HW1 1226   0.568   0.811   0.613 -1.0319 -1.1764  0.4667
  409SOL    HW2 1227   0.608   0.753   0.769 -3.0113 -0.9097  2.8438
  410SOL     OW 1228   1.206   2.029   1.425 -0.5416  0.0359  0.2698
  410SOL    HW1 1229   1.284   1.973   1.474 -1.2242 -0.2529  1.7373
  410SOL    HW2 1230   1.114   1.987   1.443 -1.3192  0.1836 -0.4200
  411SOL     OW 1231   2.524   1.831   3.007  0.3083 -0.4400  0.1622
  411SOL    HW1 1232   2.567   1.923   3.035  0.2780 -0.4786 -1.1550
  411SOL    HW2 1233   2.440   1.836   2.948  0.0397 -0.1527  0.4641
  412SOL     OW 1234   1.499   2.454   2.155 -0.0301 -0.0607  0.2229
  412SOL    HW1 1235   1.563   2.455   2.238  0.2950 -1.7628  2.1900
  412SOL    HW2 1236   1.402   2.427   2.184 -0.0562 -1.0831 -0.0971
  413SOL     OW 1237   0.029   0.259   3.035  0.3121 -0.5705  0.0381
  413SOL    HW1 1238  -0.014   0.164   3.043 -1.1284  1.3816  1.8060
  413SOL    HW2 1239   0.129   0.257   3.056 -2.8514 -1.5397 -2.3678
  414SOL     OW 1240   1.740   1.516   1.135 -0.6306  0.4833  0.0600
  414SOL    HW1 1241   1.697   1.606   1.168 -0.9007 -0.3796  0.2647
  414SOL    HW2 1242   1.757   1.508   1.030  2.2820 -0.5542 -1.6867
  415SOL     OW 1243   0.355   2.156   0.660  0.7356  0.3026 -0.2971
  415SOL    HW1 1244   0.329   2.187   0.754 -2.3243  1.2690  0.2212
  415SOL    HW2 1245   0.278   2.144   0.592 -0.4927  0.6331  1.4281
  416SOL     OW 1246   0.362   1.100   1.080 -0.2555  0.0291  0.1509
  416SOL    HW1 1247   0.335   1.025   1.015  0.1534 -0.4743 -0.8676
  416SOL    HW2 1248   0.464   1.108   1.091  1.2388  2.1616 -1.0612
  417SOL     OW 1249   2.364   2.436   2.119 -0.5056  0.1826  0.0706
  417SOL    HW1 1250   2.378   2.337   2.099  0.8406  2.4595  2.5668
  417SOL    HW2 1251   2.322   2.450   2.210  1.5527 -0.4183 -0.2401
  418SOL     OW 1252   1.040   0.530   1.324 -0.2022  0.0964 -0.0319
  418SOL    HW1 1253   0.979   0.469   1.271 -0.4393  1.7153  0.0829
  418SOL    HW2 1254   1.127   0.548   1.274  0.6457 -1.2285 -0.5384
  419SOL     OW 1255   0.881   0.543   2.968  0.0214  0.1052 -0.0405
  419SOL    HW1 1256   0.797   0.546   2.902 -1.8764  4.7605 -1.4102
  419SOL    HW2 1257   0.929   0.636   2.975  0.0514 -1.1976 -1.5999
  420SOL     OW 1258   0.131   2.186   0.508 -0.0003 -0.0170  0.3723
  420SOL    HW1 1259   0.157   2.171   0.411 -2.6058 -2.7023 -1.4519
  420SOL    HW2 1260   0.045   2.142   0.532 -2.2512  2.5416  3.2803
  421SOL     OW 1261   0.311   2.968   0.533  0.2262  0.0144 -0.0211
  421SOL    HW1 1262   0.275   2.905   0.608  0.1070 -1.2142  0.6574
  421SOL    HW2 1263   0.373   3.041   0.572  0.0384  0.1505  0.3556
  422SOL     OW 1264   1.023   2.561   0.952 -0.4067  0.1230 -0.1788
  422SOL    HW1 1265   1.083   2.613   0.885 -0.1777  2.4581  0.1415
  422SOL    HW2 1266   1.082   2.529   1.029 -2.8462 -0.1293 -1.6396
  423SOL     OW 1267   0.132   0.729   1.262  0.2163 -0.4734 -0.2654
  423SOL    HW1 1268   0.050   0.689   1.314 -2.1236  2.7273  0.7032
  423SOL    HW2 1269   0.113   0.805   1.200  0.5426 -3.1492 -0.6291
  424SOL     OW 1270   1.133   2.217   2.050 -0.3999 -0.0085 -0.0306
  424SOL    HW1 1271   1.124   2.320   2.054 -1.2112  0.2236 -1.9790
  424SOL    HW2 1272   1.094   2.160   2.129  0.4142 -1.6206 -1.2799
  425SOL     OW 1273   1.936   1.304   0.986 -0.7636 -0.4979 -0.1623
  425SOL    HW1 1274   2.023   1.285   1.038  0.4411  1.9186  0.8925
  425SOL    HW2 1275   1.921   1.405   0.971  2.8133 -0.5600  0.6423
  426SOL     OW 1276   1.449   1.596   1.210  0.7627  0.6340  0.4859
  426SOL    HW1 1277   1.465   1.694   1.186  0.0216  0.5927  0.2558
  426SOL    HW2 1278   1.406   1.586   1.306 -0.5801 -3.0884  1.4617
  427SOL     OW 1279   1.946   2.393   2.095 -0.3470  0.3391 -0.2628
  427SOL    HW1 1280   2.011   2.339   2.153 -0.0386  2.6553 -0.2444
  427SOL    HW2 1281   1.951   2.500   2.110 -0.5563 -0.7149 -0.1973
  428SOL     OW 1282   0.879   0.059   0.080 -0.5144  0.3866 -0.5988
  428SOL    HW1 1283   0.911   0.129   0.006  1.0967 -0.8537 -1.7330
  428SOL    HW2 1284   0.949  -0.008   0.111 -0.1383  0.9578  0.3859
  429SOL     OW 1285   1.295   0.166   0.249 -0.0944 -0.3070  0.2352
  429SOL    HW1 1286   1.395   0.176   0.291  1.8083  0.6505 -0.9248
  429SOL    HW2 1287   1.302   0.183   0.146  1.0491  0.6923 -1.7353
  430SOL     OW 1288   2.885   1.383   0.280 -0.2312 -0.2370 -0.1234
  430SOL    HW1 1289   2.896   1.404   0.176 -1.7627  0.2362  2.9811
  430SOL    HW2 1290   2.839   1.467   0.330 -0.5395  2.5921 -1.6810
  431SOL     OW 1291   2.059   1.572   0.904 -0.1686 -0.1664  0.0276
  431SOL    HW1 1292   2.086   1.627   0.988  1.1953  0.6084 -0.2889
  431SOL    HW2 1293   2.037   1.634   0.824  0.6169 -1.1103  0.3532
  432SOL     OW 1294   2.913   2.153   1.220  0.2877 -0.0449  0.1556
  432SOL    HW1 1295   2.900   2.053   1.243  0.1807 -0.3845 -1.1040
  432SOL    HW2 1296   2.930   2.210   1.309  0.8958  0.7973  0.3212
  433SOL     OW 1297   1.846   0.263   0.824  0.4210  0.2925  0.0341
  433SOL    HW1 1298   1.789   0.329   0.878 -0.1109 -1.9335  1.0556
  433SOL    HW2 1299   1.907   0.210   0.894 -0.1558 -1.0602  3.8573
  434SOL     OW 1300   1.547   0.298   0.658  0.2966 -0.3185 -0.0093
  434SOL    HW1 1301   1.523   0.374   0.591 -0.4930  1.7315 -0.5792
  434SOL    HW2 1302   1.569   0.346   0.751 -0.0499  0.0445  4.0314
  435SOL     OW 1303   1.479   1.408   2.118 -0.2112 -0.0590 -0.1328
  435SOL    HW1 1304   1.491   1.466   2.204 -1.1004  3.4252  1.2281
  435SOL    HW2 1305   1.504   1.456   2.029  0.0410  0.0097  0.3890
  436SOL     OW 1306   1.719   2.731   2.272 -0.1551 -0.4010 -0.2704
  436SOL    HW1 1307   1.664   2.794   2.340 -0.2579  0.4855  0.3306
  436SOL    HW2 1308   1.719   2.634   2.301  0.3435  0.1487 -0.8684
  437SOL     OW 1309   1.123   2.968   0.913  0.0668  0.0255 -0.0068
  437SOL    HW1 1310   1.044   3.033   0.889  0.8911  2.2020 -2.1743
  437SOL    HW2 1311   1.111   2.914   1.004  0.2473 -1.5862 -1.0040
  438SOL     OW 1312   1.027   2.707   1.511  0.2424  0.0475 -0.0361
  438SOL    HW1 1313   1.124   2.733   1.490  1.2331 -3.2323 -0.3611
  438SOL    HW2 1314   0.999   2.624   1.465  0.8579  1.4165  2.1623
  439SOL     OW 1315   0.703   1.858   1.088  0.2777 -0.5134  0.5922
  439SOL    HW1 1316   0.726   1.944   1.033  1.7852  2.6029  2.3563
  439SOL    HW2 1317   0.601   1.835   1.084 -0.1004  1.1506 -0.9102
  440SOL     OW 1318   1.057   2.489   1.977  0.2676 -0.4029  0.0328
  440SOL    HW1 1319   1.011   2.548   1.910  0.8318  0.8208  3.5504
  440SOL    HW2 1320   1.160   2.508   1.982 -0.7804  1.6972  0.2727
  441SOL     OW 1321   0.368   2.692   1.489 -0.1488  0.0830 -0.1245
  441SOL    HW1 1322   0.413   2.605   1.529 -0.8710  0.1290 -1.1591
  441SOL    HW2 1323   0.306   2.668   1.408  2.7258 -0.7730 -1.6851
  442SOL     OW 1324   2.252   0.656   2.540 -0.5761  0.0733 -0.4376
  442SOL    HW1 1325   2.267   0.564   2.581 -0.7228 -0.4236  0.3447
  442SOL    HW2 1326   2.161   0.701   2.562  0.5463  1.5426 -2.8107
  443SOL     OW 1327   1.206   2.658   2.239  0.2359 -0.4191  0.1283
  443SOL    HW1 1328   1.182   2.722   2.320  2.5045 -1.4173 -1.3280
  443SOL    HW2 1329   1.203   2.557   2.263 -3.3294 -0.0947 -1.7634
  444SOL     OW 1330   1.017   1.341   1.547  0.5372 -0.4961  0.0730
  444SOL    HW1 1331   1.113   1.322   1.506  1.4295 -2.7681 -0.5687
  444SOL    HW2 1332   0.988   1.439   1.531 -0.4299 -2.1620 -1.5883
  445SOL     OW 1333   3.082   2.388   1.985 -0.0389  0.4793 -0.5297
  445SOL    HW1 1334   3.097   2.450   1.901 -0.1255 -1.5290  0.8228
  445SOL    HW2 1335   2.982   2.361   1.997  1.6023 -2.4070 -1.9013
  446SOL     OW 1336   0.213   1.901   2.365 -0.0384 -0.1814  0.3955
  446SOL    HW1 1337   0.193   1.997   2.402  0.9847 -0.4854 -0.6480
  446SOL    HW2 1338   0.125   1.869   2.316  0.3321  1.0038  2.1627
  447SOL     OW 1339   1.225   1.632   1.936  0.2880  0.2632 -0.4522
  447SOL    HW1 1340   1.162   1.713   1.911 -1.1077 -0.1906  2.6523
  447SOL    HW2 1341   1.322   1.666   1.950  1.0637 -1.4426 -0.3476
  448SOL     OW 1342   0.121   1.562   1.917 -0.1954  0.3673  0.0615
  448SOL    HW1 1343   0.130   1.667   1.918  0.8016  0.0042 -1.1052
  448SOL    HW2 1344   0.166   1.519   2.006 -0.3381 -2.7072  3.3106
  449SOL     OW 1345   2.016   2.985   0.869  0.2719 -0.0092  0.4532
  449SOL    HW1 1346   2.060   3.016   0.957 -0.7691 -3.3662  0.0555
  449SOL    HW2 1347   1.983   2.888   0.864 -0.2559 -0.3193 -2.1746
  450SOL     OW 1348   2.273   1.343   0.928 -0.0152 -0.3804  0.2095
  450SOL    HW1 1349   2.250   1.269   0.864 -0.9234  3.3879 -1.1614
  450SOL    HW2 1350   2.222   1.424   0.908  1.4688 -3.2044 -1.3481
  451SOL     OW 1351   1.409   0.041   1.439 -0.0921  0.5590 -0.1920
  451SOL    HW1 1352   1.337   0.113   1.454 -0.2930 -1.6105 -1.1885
  451SOL    HW2 1353   1.416  -0.028   1.517  1.7164 -0.1640  0.1027
  452SOL     OW 1354   2.643   2.345   2.246 -0.7019 -0.3461  0.0150
  452SOL    HW1 1355   2.621   2.437   2.272 -0.5449 -2.0653 -1.5648
  452SOL    HW2 1356   2.672   2.281   2.326 -0.5339 -1.3594  2.6036
  453SOL     OW 1357   2.435   2.594   3.043  0.0679  0.2932 -0.1928
  453SOL    HW1 1358   2.358   2.668   3.050  0.3181  1.8989 -0.0893
  453SOL    HW2 1359   2.409   2.526   2.968  0.1719  4.3367  0.1906
  454SOL     OW 1360   0.970   1.072   2.034  0.0076 -0.3031 -0.4089
  454SOL    HW1 1361   0.957   1.094   1.931  0.1351 -0.7308  1.1513
  454SOL    HW2 1362   1.056   1.104   2.081  0.3991 -1.1108 -0.8352
  455SOL     OW 1363   0.634   2.632   2.907  0.0191 -0.9057 -0.0675
  455SOL    HW1 1364   0.682   2.711   2.960  0.5495  1.2344  1.0128
  455SOL    HW2 1365   0.602   2.554   2.965 -0.3720 -0.0551 -1.5424
  456SOL     OW 1366   0.520   1.775   0.337 -0.1052 -0.1698 -0.1558
  456SOL    HW1 1367   0.612   1.726   0.350 -2.9181 -0.4452  0.0375
  456SOL    HW2 1368   0.526   1.857   0.272 -1.2214  1.7234 -1.3345
  457SOL     OW 1369   0.362   2.560   0.622  0.1067 -0.0586 -0.2798
  457SOL    HW1 1370   0.384   2.600   0.529 -0.0799 -1.6272 -1.5525
  457SOL    HW2 1371   0.452   2.537   0.674  1.2984  0.5248 -1.8710
  458SOL     OW 1372   2.992   2.977   1.222  0.0842 -0.1592 -0.0260
  458SOL    HW1 1373   2.971   3.081   1.209 -1.7152  0.6487 -2.2047
  458SOL    HW2 1374   2.982   2.917   1.136  2.0013  0.1728  0.3966
  459SOL     OW 1375   2.155   2.584   0.873 -0.1466  0.2503 -0.7089
  459SOL    HW1 1376   2.195   2.646   0.947  0.7868  1.6912 -1.7545
  459SOL    HW2 1377   2.237   2.549   0.814  3.3412 -0.1304 -1.3916
  460SOL     OW 1378   1.062   1.918   2.914 -0.3913  0.1395 -0.1491
  460SOL    HW1 1379   1.078   1.999   2.854 -0.1303 -0.8021 -0.8999
  460SOL    HW2 1380   1.148   1.886   2.969 -0.0016 -0.1053 -1.6503
  461SOL     OW 1381   0.555   2.110   2.678 -0.3685  0.1975  0.3478
  461SOL    HW1 1382   0.479   2.040   2.650  0.3823 -0.7210 -2.9000
  461SOL    HW2 1383   0.611   2.077   2.757 -0.1497 -1.2981 -1.2142
  462SOL     OW 1384   0.973   1.164   1.781  0.3074 -0.1350 -0.5133
  462SOL    HW1 1385   0.995   1.070   1.744 -0.7315  0.1622 -0.2158
  462SOL    HW2 1386   1.027   1.233   1.736 -2.2235 -4.8668  1.5523
  463SOL     OW 1387   0.450   0.750   0.483  0.2584 -0.1600 -0.7142
  463SOL    HW1 1388   0.498   0.660   0.476 -0.9137 -0.8085 -1.0824
  463SOL    HW2 1389   0.344   0.741   0.475 -1.2604  1.6792  0.2458
  464SOL     OW 1390   0.501   2.258   2.232  0.1731 -0.4884  0.1884
  464SOL    HW1 1391   0.428   2.326   2.260 -0.1837 -0.0298  0.1861
  464SOL    HW2 1392   0.553   2.281   2.147 -1.5163  0.2762 -0.2871
  465SOL     OW 1393   0.294   0.901   0.875 -0.2341 -0.2303 -0.1506
  465SOL    HW1 1394   0.213   0.910   0.811 -2.2170 -1.8547  0.0646
  465SOL    HW2 1395   0.347   0.811   0.862 -1.1534 -1.7941 -3.3681
  466SOL     OW 1396   1.391   1.089   1.124 -0.4410  0.4798  0.5587
  466SOL    HW1 1397   1.465   1.162   1.103  1.5784 -1.3759  1.1251
  466SOL    HW2 1398   1.296   1.130   1.118  0.8600  0.6387 -1.8213
  467SOL     OW 1399   0.464   0.387   2.437 -0.1624  0.3241 -0.4161
  467SOL    HW1 1400   0.420   0.460   2.497  2.5134  1.2684  1.3176
  467SOL    HW2 1401   0.500   0.302   2.493 -0.5952  3.6655  1.1485
  468SOL     OW 1402   0.494   2.229   1.727 -0.0336  0.5934 -0.2138
  468SOL    HW1 1403   0.503   2.319   1.779  0.7538  1.6024 -0.6923
  468SOL    HW2 1404   0.468   2.239   1.626 -1.3042 -1.6410 -0.5945
  469SOL     OW 1405   1.594   1.278   1.105  0.1646  0.3701 -0.1226
  469SOL    HW1 1406   1.671   1.220   1.139 -0.7837  3.6053  1.1130
  469SOL    HW2 1407   1.610   1.379   1.121  0.2711  1.2961  1.1614
  470SOL     OW 1408   3.003   1.615   0.746 -0.4177 -0.1456  0.1012
  470SOL    HW1 1409   3.084   1.652   0.803 -0.2284 -1.4859  2.0130
  470SOL    HW2 1410   2.914   1.660   0.779  1.7144 -2.1288  0.6276
  471SOL     OW 1411   2.609   1.291   2.184 -0.6028 -0.1019 -0.1170
  471SOL    HW1 1412   2.589   1.213   2.247 -1.7643 -1.8880  1.9456
  471SOL    HW2 1413   2.659   1.374   2.226  0.3521  0.7913  1.2321
  472SOL     OW 1414   1.145   2.453   3.087  0.1331 -0.4172 -0.2719
  472SOL    HW1 1415   1.201   2.446   3.174  1.6405 -0.8153 -2.4017
  472SOL    HW2 1416   1.138   2.359   3.039  1.4438  0.1053 -0.1283
  473SOL     OW 1417   1.045   1.545   0.878  0.2003 -0.3604  0.1755
  473SOL    HW1 1418   0.949   1.548   0.924  0.6011 -0.1033 -1.0780
  473SOL    HW2 1419   1.119   1.514   0.945 -0.7778 -1.6200  1.7684
  474SOL     OW 1420   0.795   1.249   0.777 -0.1843  0.1046 -0.0259
  474SOL    HW1 1421   0.765   1.246   0.678 -1.5327  1.8781  1.1011
  474SOL    HW2 1422   0.889   1.212   0.791 -2.9009  0.4711 -1.4045
  475SOL     OW 1423   2.894   0.047   0.807 -0.2454 -0.4913  0.2639
  475SOL    HW1 1424   2.984   0.034   0.870  3.3796 -1.6146  0.3393
  475SOL    HW2 1425   2.806   0.065   0.861 -0.8902  0.1911  0.1504
  476SOL     OW 1426   0.941   3.066   1.925  0.6716  0.1648  0.8622
  476SOL    HW1 1427   1.014   3.078   1.996 -0.0257 -0.1923  1.1577
  476SOL    HW2 1428   0.974   3.010   1.845 -1.5505  0.6493  1.0850
  477SOL     OW 1429   1.485   0.418   2.440  0.1510  0.2590  0.1764
  477SOL    HW1 1430   1.440   0.400   2.536 -0.5573 -0.0230  0.8679
  477SOL    HW2 1431   1.577   0.368   2.432  0.1666 -1.9339 -2.3930
  478SOL     OW 1432   2.194   1.820   0.246 -0.1939  0.4937  0.1531
  478SOL    HW1 1433   2.151   1.725   0.229  1.4089  2.4745  1.3538
  478SOL    HW2 1434   2.298   1.813   0.243  0.4345  1.6813 -0.6145
  479SOL     OW 1435   1.188   1.136   2.845  0.6894  0.6693 -0.0783
  479SOL    HW1 1436   1.246   1.160   2.763  1.2119  0.4521 -1.6583
  479SOL    HW2 1437   1.129   1.056   2.833  1.4327 -0.5793  1.5074
  480SOL     OW 1438   2.492   2.335   0.386  0.1231 -0.1470  0.4295
  480SOL    HW1 1439   2.443   2.279   0.458  1.0304 -2.9617  1.6904
  480SOL    HW2 1440   2.429   2.369   0.312  1.2094 -0.6782  2.0885
  481SOL     OW 1441   1.047   1.189   0.834 -0.4314 -0.1895 -0.2554
  481SOL    HW1 1442   1.093   1.257   0.767  1.7183  1.4948  2.1313
  481SOL    HW2 1443   1.081   1.209   0.931  0.1744  0.2655 -0.5824
  482SOL     OW 1444   1.613   0.274   1.993 -0.4301  0.3164  0.2853
  482SOL    HW1 1445   1.611   0.368   1.952  0.3924 -0.0729 -2.0863
  482SOL    HW2 1446   1.697   0.257   2.044 -1.7396  0.0836 -2.7131
  483SOL     OW 1447   0.123   2.360   1.319 -0.7174  0.3642 -0.0275
  483SOL    HW1 1448   0.025   2.338   1.346  1.7791  1.1624  2.9129
  483SOL    HW2 1449   0.143   2.353   1.213  0.9974  1.3863 -1.3527
  484SOL     OW 1450   1.703   0.937   1.397 -0.4582  0.1725 -0.2340
  484SOL    HW1 1451   1.782   0.919   1.462  1.2895  0.1773 -0.4843
  484SOL    HW2 1452   1.722   1.005   1.323  0.3114 -0.6644 -1.6504
  485SOL     OW 1453   0.678   1.139   1.789 -0.3785  0.2219  0.3518
  485SOL    HW1 1454   0.670   1.078   1.708 -0.1694  1.9531  0.4709
  485SOL    HW2 1455   0.765   1.195   1.784  1.3026 -0.6529 -0.4109
  486SOL     OW 1456   0.889   1.910   2.444 -0.6745 -0.0944  0.5074
  486SOL    HW1 1457   0.950   1.871   2.518 -1.8717  1.8135  1.8195
  486SOL    HW2 1458   0.840   1.993   2.474  0.6132 -2.4040 -1.8962
  487SOL     OW 1459   1.756   1.523   0.848  0.4124  0.3973 -0.3593
  487SOL    HW1 1460   1.745   1.436   0.796  1.6371  3.3119  0.2969
  487SOL    HW2 1461   1.798   1.603   0.798  1.7885 -1.5203  2.8918
  488SOL     OW 1462   2.983   0.942   2.237  0.0447  0.0747 -0.4488
  488SOL    HW1 1463   3.013   0.846   2.204  2.1349 -2.4739 -2.5542
  488SOL    HW2 1464   3.007   0.966   2.332 -3.8873  1.7193 -2.0618
  489SOL     OW 1465   2.766   0.203   1.340 -0.3668  0.1139  0.5004
  489SOL    HW1 1466   2.766   0.162   1.439 -0.3251  1.6378  3.0601
  489SOL    HW2 1467   2.860   0.187   1.296 -0.5639 -1.1783  1.4477
  490SOL     OW 1468   1.404   3.001   2.837 -0.1228  0.2917 -0.2256
  490SOL    HW1 1469   1.422   2.900   2.851  0.4879  1.3975  1.6846
  490SOL    HW2 1470   1.379   3.036   2.741  0.6674  3.1446  3.2914
  491SOL     OW 1471   1.906   1.554   2.679 -0.2214 -0.2657  0.1827
  491SOL    HW1 1472   1.861   1.581   2.773  0.2984  1.4817  2.2884
  491SOL    HW2 1473   2.000   1.598   2.661  0.0513 -1.1226  1.2641
  492SOL     OW 1474   0.498   1.918   0.730  0.3170  0.5548  0.4075
  492SOL    HW1 1475   0.583   1.947   0.779  1.9086  3.7868 -0.4041
  492SOL    HW2 1476   0.438   1.998   0.705  1.2287 -2.3258 -1.5730
  493SOL     OW 1477   0.488   1.405   2.160  0.5214  0.2417 -0.5010
  493SOL    HW1 1478   0.393   1.431   2.125  1.3347  3.2900 -0.7220
  493SOL    HW2 1479   0.488   1.310   2.201 -1.0158 -0.2182 -1.6006
  494SOL     OW 1480   2.589   2.603   0.170 -0.4936 -0.6668  0.0260
  494SOL    HW1 1481   2.682   2.559   0.184 -1.5161  0.4471  2.8188
  494SOL    HW2 1482   2.556   2.600   0.074  1.8953  0.4484 -2.2986
  495SOL     OW 1483   2.739   2.675   2.689 -0.0004 -0.0612 -0.1173
  495SOL    HW1 1484   2.728   2.584   2.635  2.1076 -1.3464 -1.6683
  495SOL    HW2 1485   2.757   2.754   2.628 -1.8635 -2.5833  2.5593
  496SOL     OW 1486   2.044   2.211   0.708  0.4220 -0.0555 -0.3587
  496SOL    HW1 1487   2.075   2.246   0.802  2.6185  1.8188  3.2908
  496SOL    HW2 1488   2.089   2.119   0.674  2.2851  0.9574  0.3976
  497SOL     OW 1489   0.250   2.963   2.401  0.0557  0.5119 -0.4544
  497SOL    HW1 1490   0.201   3.022   2.472  1.6661 -1.0246  3.0858
  497SOL    HW2 1491   0.290   3.012   2.318  1.9797 -1.5504 -1.1769
  498SOL     OW 1492   1.242   1.481   1.065 -0.0512 -0.1940  0.2304
  498SOL    HW1 1493   1.337   1.496   1.117  2.3285 -0.6601  0.9091
  498SOL    HW2 1494   1.166   1.532   1.113 -2.7117 -1.9599 -1.0296
  499SOL     OW 1495   0.878   1.846   0.484  0.1897 -0.1696  0.6720
  499SOL    HW1 1496   0.844   1.747   0.495  0.9020  1.9391 -1.8490
  499SOL    HW2 1497   0.892   1.897   0.577 -0.2322 -0.3381  1.7030
  500SOL     OW 1498   1.447   2.958   1.660 -0.1992  0.2066  0.2229
  500SOL    HW1 1499   1.493   3.000   1.741 -2.2350 -1.2928 -0.2580
  500SOL    HW2 1500   1.448   2.852   1.654 -0.1043 -1.7480 -0.7104
  501SOL     OW 1501   0.791   1.117   2.288  0.1489 -0.2658  0.1838
  501SOL    HW1 1502   0.711   1.053   2.298 -0.8258 -0.3308  1.5118
  501SOL    HW2 1503   0.845   1.103   2.194 -0.0539  0.6803 -3.0426
  502SOL     OW 1504   2.596   0.958   1.746 -0.3541 -0.2585  0.3125
  502SOL    HW1 1505   2.579   0.968   1.643 -1.2148 -2.2218  1.4109
  502SOL    HW2 1506   2.545   0.876   1.780 -0.3745  0.9422 -1.8964
  503SOL     OW 1507   1.311   0.154   0.636  0.0503 -0.1164 -0.1094
  503SOL    HW1 1508   1.241   0.224   0.603 -0.1645 -1.4511 -2.1179
  503SOL    HW2 1509   1.408   0.192   0.648  0.1751  1.3776 -1.1080
  504SOL     OW 1510   2.969   2.319   1.447 -0.1082 -0.3504 -0.3935
  504SOL    HW1 1511   2.981   2.410   1.502 -0.4673 -0.9243  1.6443
  504SOL    HW2 1512   2.878   2.278   1.468  3.3895  0.8569  1.2095
  505SOL     OW 1513   2.299   1.295   1.477 -0.5424  0.5591  0.1416
  505SOL    HW1 1514   2.323   1.396   1.465  0.8544  0.1636  0.8665
  505SOL    HW2 1515   2.379   1.228   1.464 -1.4590  1.8360  2.0579
  506SOL     OW 1516   1.872   0.283   1.771  0.0888  0.6453 -0.7053
  506SOL    HW1 1517   1.963   0.258   1.719  1.8441  0.3456 -2.6667
  506SOL    HW2 1518   1.886   0.345   1.855 -1.3371 -0.9659 -0.4753
  507SOL     OW 1519   0.479   0.753   2.165  0.4071  0.1191  0.1902
  507SOL    HW1 1520   0.393   0.743   2.106  1.6368 -0.5597 -1.2836
  507SOL    HW2 1521   0.532   0.665   2.175  1.9936  1.2334  0.7025
  508SOL     OW 1522   0.192   1.610   0.853 -0.0470 -0.7678  0.2397
  508SOL    HW1 1523   0.271   1.674   0.843  0.6796  0.4911 -1.4795
  508SOL    HW2 1524   0.157   1.617   0.951  0.1850 -0.8824 -0.0007
  509SOL     OW 1525   1.333   1.197   2.584 -0.5083 -0.1851 -0.1310
  509SOL    HW1 1526   1.257   1.273   2.589  0.2184  1.8961  1.3692
  509SOL    HW2 1527   1.293   1.103   2.580 -1.5441 -1.4725  0.6622
  510SOL     OW 1528   1.347   2.018   2.040  0.8296  0.4373  0.0926
  510SOL    HW1 1529   1.280   2.097   2.026 -2.7297  1.3687  0.4541
  510SOL    HW2 1530   1.307   1.939   2.101  1.7345  0.8184 -0.7698
  511SOL     OW 1531   3.043   2.637   1.296 -0.5974  0.1794 -0.3841
  511SOL    HW1 1532   2.985   2.594   1.221  1.7200 -1.2692 -0.2113
  511SOL    HW2 1533   3.022   2.597   1.393  0.5912 -0.5460  0.9182
  512SOL     OW 1534   2.409   0.376   1.435 -0.3113 -0.1558 -0.2736
  512SOL    HW1 1535   2.312   0.413   1.419  0.9293 -1.9438  0.2815
  512SOL    HW2 1536   2.420   0.275   1.427 -1.2782 -1.0628  0.6730
  513SOL     OW 1537   2.503   1.995   0.836 -0.0308  0.4926  0.5531
  513SOL    HW1 1538   2.431   2.061   0.804  0.8428 -0.8278 -3.6976
  513SOL    HW2 1539   2.575   1.975   0.765  2.4271  0.0456  3.4665
  514SOL     OW 1540   0.688   2.803   0.401  0.0785  0.3898 -0.6452
  514SOL    HW1 1541   0.651   2.881   0.342  0.8576 -0.0278 -0.4231
  514SOL    HW2 1542   0.720   2.833   0.497 -0.2772 -0.1774 -2.5892
  515SOL     OW 1543   1.938   1.223   2.331 -0.2831  0.1468 -0.3197
  515SOL    HW1 1544   1.876   1.235   2.247  2.9957  0.0512 -1.4218
  515SOL    HW2 1545   1.899   1.218   2.427 -0.8056 -0.9745  2.4887
  516SOL     OW 1546   0.295   0.411   1.991 -0.2738  0.5368  0.3821
  516SOL    HW1 1547   0.393   0.381   1.983  1.9074 -0.2792  0.7426
  516SOL    HW2 1548   0.231   0.362   1.926  1.4434 -0.6025  0.5864
  517SOL     OW 1549   0.374   2.998   1.198 -0.6269 -0.6494  0.1323
  517SOL    HW1 1550   0.407   3.093   1.187 -1.3615 -1.7210  1.9803
  517SOL    HW2 1551   0.281   2.985   1.246  0.6720 -1.3309 -0.0223
  518SOL     OW 1552   2.113   0.179   1.655 -0.4515  0.0326  0.8759
  518SOL    HW1 1553   2.165   0.211   1.740 -2.4384 -0.4094  1.9314
  518SOL    HW2 1554   2.161   0.107   1.601  0.8783 -0.1419  2.6183
  519SOL     OW 1555   2.344   2.174   2.573  0.2611 -0.1359  0.4099
  519SOL    HW1 1556   2.275   2.179   2.650  1.6190  3.3608  0.8903
  519SOL    HW2 1557   2.396   2.267   2.572 -1.0500  0.9298  0.4792
  520SOL     OW 1558   1.760   2.885   1.829 -0.0358  0.3937 -0.3987
  520SOL    HW1 1559   1.682   2.849   1.890  1.2637 -0.3987  1.9163
  520SOL    HW2 1560   1.841   2.819   1.829 -1.5890 -1.5720  1.2811
  521SOL     OW 1561   0.601   0.100   2.162  0.4513 -0.0196  0.1986
  521SOL    HW1 1562   0.512   0.043   2.169 -1.3907 -0.4132 -0.9810
  521SOL    HW2 1563   0.664   0.080   2.244 -0.9862 -1.8950  1.6219
  522SOL     OW 1564   0.212   1.910   1.531  0.0860 -0.4885 -0.0328
  522SOL    HW1 1565   0.251   1.970   1.606 -2.3258  0.7170 -0.9538
  522SOL    HW2 1566   0.217   1.954   1.435 -1.3345 -0.1342 -1.1465
  523SOL     OW 1567   2.260   3.036   1.604  0.3683 -0.3880  0.0219
  523SOL    HW1 1568   2.286   2.951   1.550  0.4962  0.6499  1.3278
  523SOL    HW2 1569   2.171   3.024   1.658 -0.5719  3.1886  1.3030
  524SOL     OW 1570   0.236   2.790   2.791  0.0483 -0.2880  0.3819
  524SOL    HW1 1571   0.185   2.853   2.860  2.2348  0.4632 -0.8821
  524SOL    HW2 1572   0.338   2.816   2.763 -0.0726  0.5914  0.7890
  525SOL     OW 1573   2.111   1.956   0.474 -0.5342 -0.7532  0.2723
  525SOL    HW1 1574   2.109   1.871   0.539  1.0866  0.4091  1.7345
  525SOL    HW2 1575   2.134   1.919   0.379 -1.8187 -2.9327 -0.5039
  526SOL     OW 1576   0.401   1.541   1.542 -0.5774 -0.7313  0.4219
  526SOL    HW1 1577   0.346   1.509   1.625  0.1385 -2.0133 -1.6516
  526SOL    HW2 1578   0.483   1.480   1.517  0.2456  2.6628 -1.8210
  527SOL     OW 1579   1.132   2.880   1.197 -0.2419 -0.3990 -0.0892
  527SOL    HW1 1580   1.225   2.859   1.230  0.3956  2.3372 -2.6673
  527SOL    HW2 1581   1.110   2.984   1.197 -3.1659  0.1418 -0.9549
  528SOL     OW 1582   1.338   2.381   0.478 -0.1394  0.3958  0.4637
  528SOL    HW1 1583   1.385   2.287   0.479 -0.5365  2.0561 -1.9383
  528SOL    HW2 1584   1.384   2.449   0.540  1.5745 -2.8631 -1.2496
  529SOL     OW 1585   1.876   1.725   0.714  0.2702  0.2809 -0.9498
  529SOL    HW1 1586   1.856   1.756   0.618 -0.2173  0.1597  0.9040
  529SOL    HW2 1587   1.860   1.805   0.782 -0.9068 -0.0968  1.5627
  530SOL     OW 1588   0.359   2.446   0.214 -0.2137  0.5023 -0.1869
  530SOL    HW1 1589   0.320   2.531   0.264  1.2914 -0.0860 -2.7918
  530SOL    HW2 1590   0.414   2.390   0.275 -2.3478  2.0359 -2.9778
  531SOL     OW 1591   1.876   0.815   0.940 -0.1898  0.0754  0.0680
  531SOL    HW1 1592   1.904   0.858   0.851 -0.6163  2.8421 -3.2879
  531SOL    HW2 1593   1.776   0.832   0.958 -0.9430 -0.8723 -1.7477
  532SOL     OW 1594   0.445   1.123   0.746  0.1472  0.9023  0.1185
  532SOL    HW1 1595   0.489   1.085   0.662 -1.1070  0.3363 -1.3926
  532SOL    HW2 1596   0.441   1.049   0.817  0.5627 -0.5299  1.6251
  533SOL     OW 1597   1.706   0.008   2.575 -0.4814  0.4732  0.2521
  533SOL    HW1 1598   1.808  -0.009   2.591 -0.6573 -0.8919 -0.7298
  533SOL    HW2 1599   1.677   0.095   2.618  2.3866  0.6648 -0.9632
  534SOL     OW 1600   0.373   0.197   1.529 -0.4986  0.0800 -0.7567
  534SOL    HW1 1601   0.475   0.203   1.532 -0.3822  2.6320 -1.3698
  534SOL    HW2 1602   0.335   0.293   1.533 -0.9014  0.9945 -0.7496
  535SOL     OW 1603   1.964   0.333   0.167  0.1738  0.0429  0.0610
  535SOL    HW1 1604   1.979   0.422   0.221  2.9801  1.8634 -0.9788
  535SOL    HW2 1605   1.961   0.252   0.234 -2.5834 -1.0096 -3.4867
  536SOL     OW 1606   1.366   2.596   0.920 -0.3360  0.4165  0.4033
  536SOL    HW1 1607   1.328   2.554   1.009  2.0565 -0.6155 -0.2873
  536SOL    HW2 1608   1.300   2.653   0.864  2.4301 -1.7121  0.2631
  537SOL     OW 1609   0.884   0.264   2.332  0.4296 -0.4859 -0.2463
  537SOL    HW1 1610   0.935   0.316   2.261 -1.1006  2.4606 -3.1347
  537SOL    HW2 1611   0.851   0.174   2.305 -0.1696  1.3183 -0.0785
  538SOL     OW 1612   1.647   2.399   1.412 -0.4233 -0.1179 -0.0782
  538SOL    HW1 1613   1.659   2.298   1.423 -1.0333 -1.2358 -1.5354
  538SOL    HW2 1614   1.732   2.454   1.419  0.1411  0.1249  0.7462
  539SOL     OW 1615   0.196   1.588   2.681  0.1129 -0.0886  0.5493
  539SOL    HW1 1616   0.107   1.543   2.651  0.5615 -2.7658  0.9194
  539SOL    HW2 1617   0.183   1.676   2.739 -1.2531 -0.2775 -0.4551
  540SOL     OW 1618   2.649   1.751   1.936 -0.2588 -0.0184  0.2918
  540SOL    HW1 1619   2.615   1.657   1.966 -0.2322 -1.4300  2.3108
  540SOL    HW2 1620   2.568   1.810   1.916  1.7989  0.8235 -2.2317
  541SOL     OW 1621   0.496   2.148   0.002 -0.0092 -0.0853 -0.0274
  541SOL    HW1 1622   0.495   2.120   0.102 -0.7909 -0.4229  0.0002
  541SOL    HW2 1623   0.401   2.149  -0.037 -0.0610 -1.1347 -1.2571
  542SOL     OW 1624   2.262   2.606   0.540 -0.0165 -0.0205  0.0932
  542SOL    HW1 1625   2.261   2.704   0.574 -0.2809  0.2538 -1.0609
  542SOL    HW2 1626   2.180   2.544   0.561 -1.2133 -0.7992 -0.8513
  543SOL     OW 1627   1.076   1.784   1.591 -0.2563 -0.1888  0.0746
  543SOL    HW1 1628   1.099   1.824   1.686 -2.1100  2.0631  4.4647
  543SOL    HW2 1629   1.021   1.847   1.527 -2.3244 -3.3488 -1.1314
  544SOL     OW 1630   1.134   0.547   0.123 -0.4602 -0.3325  0.3906
  544SOL    HW1 1631   1.129   0.455   0.171  0.5633 -0.1482 -1.9514
  544SOL    HW2 1632   1.177   0.542   0.028  2.0770  0.2901 -0.8362
  545SOL     OW 1633   1.129   1.800   0.814 -0.3875 -0.2973  0.1865
  545SOL    HW1 1634   1.213   1.767   0.759  0.0447 -0.5413 -2.5737
  545SOL    HW2 1635   1.066   1.722   0.835  1.1404  0.2451 -1.3187
  546SOL     OW 1636   2.662   1.593   2.993 -0.2444 -0.2951  0.0985
  546SOL    HW1 1637   2.623   1.685   2.981 -0.1765 -0.7440  2.1166
  546SOL    HW2 1638   2.590   1.518   2.999  0.3440  1.5642  2.2827
  547SOL     OW 1639   0.654   3.008   2.571  0.6824 -0.6248  0.2301
  547SOL    HW1 1640   0.711   2.967   2.649 -0.9704  0.5094  0.3935
  547SOL    HW2 1641   0.570   2.947   2.546 -4.6836 -3.5833  1.6588
  548SOL     OW 1642   2.034   0.779   3.031  0.2174  0.3310  0.2913
  548SOL    HW1 1643   1.937   0.764   3.059  0.9498 -0.2785 -1.5197
  548SOL    HW2 1644   2.066   0.869   3.071 -1.6029  0.0685  1.0313
  549SOL     OW 1645   0.686   0.569   0.181 -0.0238 -0.2350  0.0059
  549SOL    HW1 1646   0.638   0.589   0.085  0.1917  0.9977  0.2698
  549SOL    HW2 1647   0.771   0.628   0.192  0.5000  0.7700 -0.2694
  550SOL     OW 1648   2.581   2.770   2.887  0.0922  0.3243  0.2990
  550SOL    HW1 1649   2.536   2.694   2.941 -1.5222 -1.0233 -1.0311
  550SOL    HW2 1650   2.650   2.732   2.819  0.3647  0.9409  2.2776
  551SOL     OW 1651   0.256   0.868   0.198  0.0345  0.2128  0.3240
  551SOL    HW1 1652   0.357   0.870   0.204 -0.2614 -1.7039 -0.3456
  551SOL    HW2 1653   0.215   0.906   0.284  1.7135 -3.2845 -1.2831
  552SOL     OW 1654   0.620   3.041   1.938 -0.1284 -0.0594 -0.4669
  552SOL    HW1 1655   0.630   3.111   2.014  1.0252 -3.2561 -0.4629
  552SOL    HW2 1656   0.714   3.005   1.913  0.7482 -1.9258 -0.6883
  553SOL     OW 1657   3.013   2.423   0.374  0.4414 -0.4130  0.1148
  553SOL    HW1 1658   3.012   2.341   0.429  1.9392  3.2445  0.3566
  553SOL    HW2 1659   2.916   2.458   0.354  0.2690  0.7273  2.0643
  554SOL     OW 1660   2.223   0.359   0.553  0.3627 -0.0033  0.2325
  554SOL    HW1 1661   2.277   0.340   0.465 -0.2007 -3.3821  1.4113
  554SOL    HW2 1662   2.220   0.281   0.622 -0.9156  1.4359  3.6989
  555SOL     OW 1663   0.489   2.832   2.471  0.3544  0.0694  0.1349
  555SOL    HW1 1664   0.391   2.877   2.462  1.2013 -1.3370  0.2438
  555SOL    HW2 1665   0.505   2.758   2.399 -2.0822 -0.9266 -2.2472
  556SOL     OW 1666   0.844   2.388   1.596  0.3009 -0.5355 -0.0607
  556SOL    HW1 1667   0.883   2.450   1.668 -0.6357 -3.6867 -2.3935
  556SOL    HW2 1668   0.894   2.395   1.502  0.9333  0.7713 -0.9325
  557SOL     OW 1669   0.199   2.111   0.253 -0.4968  0.8285 -0.4640
  557SOL    HW1 1670   0.108   2.066   0.240  0.1076  4.1566 -0.4141
  557SOL    HW2 1671   0.240   2.168   0.176 -3.1092  0.7676 -0.2874
  558SOL     OW 1672   2.849   2.178   0.402  0.3795 -0.2523  0.1872
  558SOL    HW1 1673   2.820   2.280   0.436 -1.5124  2.3114 -0.4477
  558SOL    HW2 1674   2.795   2.164   0.311  0.1741  0.4830  1.0123
  559SOL     OW 1675   0.418   2.270   1.461  0.5366 -0.3424  0.0051
  559SOL    HW1 1676   0.320   2.311   1.446 -1.7825 -0.4034  0.6562
  559SOL    HW2 1677   0.469   2.245   1.376  1.1742 -1.8440  2.6651
  560SOL     OW 1678   2.144   1.026   0.015  0.7407  0.0262 -0.0812
  560SOL    HW1 1679   2.196   1.084   0.078  1.9177  1.6352  0.3767
  560SOL    HW2 1680   2.192   1.017  -0.076  1.5815 -0.3115 -0.3281
  561SOL     OW 1681   3.075   1.974   0.187 -0.3532  0.4116 -0.0233
  561SOL    HW1 1682   3.010   1.913   0.243 -4.3337  1.0327 -2.2330
  561SOL    HW2 1683   3.037   1.976   0.088 -0.8454  0.2841 -0.6026
  562SOL     OW 1684   1.014   2.093   2.259  0.0248  0.0276  0.0263
  562SOL    HW1 1685   1.003   2.177   2.319  0.2448 -1.6443 -1.0958
  562SOL    HW2 1686   0.966   2.006   2.299  0.5009 -0.4510  4.0574
  563SOL     OW 1687   0.660   2.539   2.647 -0.1353  0.2433  0.2942
  563SOL    HW1 1688   0.752   2.487   2.636  3.2722  1.8203 -1.2966
  563SOL    HW2 1689   0.658   2.584   2.742  1.3152 -0.0679  0.5681
  564SOL     OW 1690   2.859   1.427   2.837  0.3432 -0.0688  0.4208
  564SOL    HW1 1691   2.794   1.493   2.891 -0.4777  2.3866 -2.6078
  564SOL    HW2 1692   2.936   1.479   2.795 -1.3487 -1.2284  0.2903
  565SOL     OW 1693   2.486   1.951   2.668 -0.7559  0.2103 -0.2588
  565SOL    HW1 1694   2.441   2.041   2.635 -0.9295  1.0880  1.3236
  565SOL    HW2 1695   2.581   1.970   2.718  2.5189 -2.1974 -0.9525
  566SOL     OW 1696   1.947   2.902   1.463  0.7105  0.3706  0.0680
  566SOL    HW1 1697   1.960   2.804   1.486  2.5981  0.2923 -1.0089
  566SOL    HW2 1698   1.967   2.928   1.367  5.1320 -0.4022  0.2927
  567SOL     OW 1699   2.359   0.030   2.307 -0.0832  0.2725  0.0009
  567SOL    HW1 1700   2.268   0.054   2.352  2.5763 -0.0406  2.9536
  567SOL    HW2 1701   2.355   0.024   2.204  0.0530 -1.5333 -0.6143
  568SOL     OW 1702   1.474   1.771   0.213  0.0238 -0.1605 -0.0221
  568SOL    HW1 1703   1.413   1.859   0.206 -0.2290 -0.0685  0.4637
  568SOL    HW2 1704   1.580   1.793   0.208 -0.0941  0.5400 -1.1260
  569SOL     OW 1705   0.274   0.534   0.851  0.3454 -0.2288  0.4519
  569SOL    HW1 1706   0.279   0.465   0.770 -0.9448  0.8720  1.4904
  569SOL    HW2 1707   0.180   0.569   0.875  0.4495  2.4654 -1.7487
  570SOL     OW 1708   0.665   0.859   2.897 -0.1708 -0.6173 -0.3952
  570SOL    HW1 1709   0.667   0.886   2.796  0.3673 -0.1427  2.3385
  570SOL    HW2 1710   0.713   0.927   2.959  0.1988  0.4795  0.9813
  571SOL     OW 1711   0.796   3.042   1.075 -0.3369 -0.3670 -0.0201
  571SOL    HW1 1712   0.871   3.105   1.039  0.7509 -1.6448  0.1724
  571SOL    HW2 1713   0.818   2.939   1.077  0.5493 -0.4554  1.2183
  572SOL     OW 1714   1.673   2.741   1.435 -0.2544  0.2503 -0.2299
  572SOL    HW1 1715   1.618   2.681   1.368 -0.5434 -0.8440  0.7276
  572SOL    HW2 1716   1.650   2.838   1.421  0.5627 -0.5828 -0.9376
  573SOL     OW 1717   3.024   0.454   1.932  0.2766  0.4154  0.3260
  573SOL    HW1 1718   2.957   0.374   1.943 -2.4445 -2.2771 -1.1575
  573SOL    HW2 1719   3.119   0.426   1.902 -0.0269 -0.1999  1.3901
  574SOL     OW 1720   0.121   1.673   1.119  0.1788  0.4864  0.1174
  574SOL    HW1 1721   0.165   1.628   1.202 -0.0264  0.6157  1.0032
  574SOL    HW2 1722   0.107   1.777   1.134  1.8012  0.7588 -0.0860
  575SOL     OW 1723   0.830   2.280   0.976  0.2464  0.2740 -0.5462
  575SOL    HW1 1724   0.831   2.317   1.072 -1.9492 -0.3751 -1.0948
  575SOL    HW2 1725   0.846   2.352   0.898  2.5229 -2.6312 -1.6325
  576SOL     OW 1726   2.946   3.019   1.675  0.1906  0.5708 -0.4615
  576SOL    HW1 1727   2.843   3.005   1.661 -3.3598  2.0751  1.6217
  576SOL    HW2 1728   2.980   3.112   1.630  0.5903 -0.2200  0.8939
  577SOL     OW 1729   2.666   1.213   3.072 -0.2904 -0.3541 -0.2155
  577SOL    HW1 1730   2.688   1.135   3.011  0.8070  0.6959  2.9667
  577SOL    HW2 1731   2.703   1.202   3.166 -0.7373 -2.4684  0.4530
  578SOL     OW 1732   1.376   2.718   2.550 -0.0387 -0.1639  0.5084
  578SOL    HW1 1733   1.290   2.750   2.497  1.0601 -1.3250 -0.9944
  578SOL    HW2 1734   1.463   2.762   2.519 -0.1535 -1.1592 -0.1556
  579SOL     OW 1735   0.084   2.422   0.132  0.2081  0.2741 -0.8837
  579SOL    HW1 1736   0.020   2.419   0.217 -2.2274  1.5933  2.2323
  579SOL    HW2 1737   0.183   2.446   0.155 -0.8520  2.0210  0.0796
  580SOL     OW 1738   0.966   2.699   0.359  0.3590  0.0160 -0.7685
  580SOL    HW1 1739   1.035   2.704   0.282 -0.3431  0.4871  1.0472
  580SOL    HW2 1740   0.873   2.734   0.334 -0.4862 -2.3323 -0.9598
  581SOL     OW 1741   1.288   2.731   1.440 -0.6297 -0.9236 -0.1342
  581SOL    HW1 1742   1.327   2.630   1.446  0.7253 -0.7353 -2.6293
  581SOL    HW2 1743   1.356   2.800   1.404 -2.3245 -2.0939  2.0493
  582SOL     OW 1744   1.481   0.085   1.855 -0.6517  0.0826 -0.1776
  582SOL    HW1 1745   1.528   0.157   1.921 -0.6003 -0.2345 -0.6874
  582SOL    HW2 1746   1.500   0.109   1.756 -2.7618  1.6174  0.0238
  583SOL     OW 1747   2.444   2.994   0.479  0.7522  0.0803 -0.2840
  583SOL    HW1 1748   2.533   2.951   0.455  1.4138 -0.6141  2.5310
  583SOL    HW2 1749   2.376   2.937   0.536 -0.6950 -1.1951 -1.7779
  584SOL     OW 1750   1.527   1.069   2.260 -0.4426 -0.6884  0.2771
  584SOL    HW1 1751   1.552   1.171   2.267 -0.9879  1.9742 -1.2200
  584SOL    HW2 1752   1.603   1.011   2.302 -0.8970 -1.5787  1.6213
  585SOL     OW 1753   2.023   2.676   2.911  0.0021 -0.0289 -0.2257
  585SOL    HW1 1754   2.063   2.580   2.890 -0.4420 -0.2642 -0.5603
  585SOL    HW2 1755   1.915   2.688   2.911 -1.7516  0.8890 -0.9990
  586SOL     OW 1756   2.919   0.396   1.565 -0.2550 -0.1837  0.0396
  586SOL    HW1 1757   2.906   0.478   1.627 -2.9000  0.1285  1.4680
  586SOL    HW2 1758   2.848   0.320   1.585  2.7051  2.4541  0.7986
  587SOL     OW 1759   2.196   1.481   2.775 -0.1858 -0.2029 -0.2253
  587SOL    HW1 1760   2.163   1.433   2.684  0.9935 -0.4031 -1.4773
  587SOL    HW2 1761   2.297   1.509   2.775  1.3444 -0.4115  1.8946
  588SOL     OW 1762   0.445   2.642   2.290 -0.3373 -0.4699 -0.3114
  588SOL    HW1 1763   0.429   2.704   2.212 -1.1415 -0.1080 -1.3025
  588SOL    HW2 1764   0.394   2.549   2.289  1.7409 -0.0851 -1.0497
  589SOL     OW 1765   2.169   1.384   2.506 -0.1518 -0.4631 -0.2926
  589SOL    HW1 1766   2.102   1.312   2.472  0.9960  1.0469  1.3924
  589SOL    HW2 1767   2.269   1.359   2.485  1.9008  1.5345 -1.1347
  590SOL     OW 1768   2.339   1.675   2.059 -0.1476 -0.0363 -0.3632
  590SOL    HW1 1769   2.417   1.612   2.036  0.8178 -0.2990  2.2055
  590SOL    HW2 1770   2.343   1.721   2.153 -0.0915 -0.0169 -0.5371
  591SOL     OW 1771   1.297   2.420   0.206 -0.4706 -0.5821 -0.3719
  591SOL    HW1 1772   1.345   2.350   0.151 -2.4987  1.4899  1.2712
  591SOL    HW2 1773   1.318   2.412   0.310 -0.0912 -2.0245  1.8652
  592SOL     OW 1774   1.798   2.365   0.817  0.0411 -0.0849 -0.5544
  592SOL    HW1 1775   1.803   2.420   0.726  1.0190 -0.9646 -2.9681
  592SOL    HW2 1776   1.897   2.343   0.847  2.4519 -1.3796  2.6000
  593SOL     OW 1777   0.761   0.301   0.172  0.1417 -0.2629 -0.1019
  593SOL    HW1 1778   0.788   0.267   0.076 -1.8012  0.2208 -1.6807
  593SOL    HW2 1779   0.721   0.397   0.170  1.4093 -0.6496  1.4322
  594SOL     OW 1780   1.028   1.825   2.650 -0.4722  0.4710 -0.3183
  594SOL    HW1 1781   1.129   1.816   2.631  2.3687 -1.9507  0.1257
  594SOL    HW2 1782   1.010   1.848   2.746 -1.3668 -1.7305  0.7395
  595SOL     OW 1783   1.564   0.140   1.009  0.1521 -0.5007 -0.1478
  595SOL    HW1 1784   1.633   0.079   0.958  1.5679  1.3750 -2.0045
  595SOL    HW2 1785   1.472   0.107   0.977 -0.6830 -2.5498  0.7274
  596SOL     OW 1786   0.197   1.449   2.163  0.4045  0.4152 -0.3371
  596SOL    HW1 1787   0.104   1.408   2.152  1.8986 -0.0017 -0.7083
  596SOL    HW2 1788   0.212   1.500   2.258  1.1298  0.4433 -0.9864
  597SOL     OW 1789   1.982   2.689   1.828 -0.8139  0.3681 -0.4029
  597SOL    HW1 1790   1.934   2.651   1.748 -0.0324 -0.1016  1.4949
  597SOL    HW2 1791   2.078   2.647   1.838  0.0008 -2.2571  0.9697
  598SOL     OW 1792   2.489   2.776   1.245  0.5461  0.2673 -0.4019
  598SOL    HW1 1793   2.593   2.779   1.258  1.6018 -0.8297 -2.9156
  598SOL    HW2 1794   2.454   2.683   1.214 -1.4578  1.4912 -1.6919
  599SOL     OW 1795   2.886   0.295   2.529  0.1523  0.5670 -0.3199
  599SOL    HW1 1796   2.967   0.305   2.463 -1.2430  0.8338  2.3459
  599SOL    HW2 1797   2.810   0.357   2.497 -0.3809 -3.8118  0.2262
  600SOL     OW 1798   2.753   1.203   2.755  0.1719  0.0861 -0.3661
  600SOL    HW1 1799   2.649   1.205   2.775 -0.9716  4.6987 -2.9614
  600SOL    HW2 1800   2.803   1.281   2.802 -0.8137 -2.1620  3.2467
  601SOL     OW 1801   3.007   1.368   1.887  0.3340  0.0947 -0.0559
  601SOL    HW1 1802   2.908   1.397   1.869 -1.3414 -0.7375 -1.7755
  601SOL    HW2 1803   3.076   1.444   1.894  0.7078 -1.6372 -1.1496
  602SOL     OW 1804   1.500   1.572   2.348 -0.3873  0.7908  0.6277
  602SOL    HW1 1805   1.396   1.575   2.367  1.1000  0.7032  0.3033
  602SOL    HW2 1806   1.562   1.581   2.430  1.4540 -3.0444  0.6140
  603SOL     OW 1807   0.571   1.170   2.736 -0.0829 -0.0807  0.2048
  603SOL    HW1 1808   0.478   1.205   2.698 -0.1639 -3.1659 -0.8396
  603SOL    HW2 1809   0.587   1.069   2.728  1.9716  1.3012  0.0760
  604SOL     OW 1810   2.523   1.020   0.258 -0.2560 -1.0934  0.1128
  604SOL    HW1 1811   2.608   1.081   0.244 -0.5945 -0.6104  1.4449
  604SOL    HW2 1812   2.493   0.982   0.164  3.1477 -0.2482 -0.2329
  605SOL     OW 1813   2.598   1.211   1.916 -0.0841  0.1121  0.2095
  605SOL    HW1 1814   2.613   1.111   1.891 -1.4881 -1.1005  1.8464
  605SOL    HW2 1815   2.607   1.233   2.017 -0.3879  0.1651  1.4699
  606SOL     OW 1816   1.516   2.456   2.593 -0.4158  0.4223 -0.2931
  606SOL    HW1 1817   1.450   2.527   2.561  0.3070 -1.8012  0.5854
  606SOL    HW2 1818   1.474   2.360   2.573  0.7528 -2.3103 -0.7845
  607SOL     OW 1819   1.277   1.577   0.292 -0.2351 -0.7806 -0.4562
  607SOL    HW1 1820   1.202   1.642   0.328 -0.9390  1.5276 -0.7607
  607SOL    HW2 1821   1.369   1.620   0.267 -1.2756  2.2096 -1.0022
  608SOL     OW 1822   1.434   2.822   0.316 -0.4272  0.4581 -0.0071
  608SOL    HW1 1823   1.498   2.871   0.246  1.9252  1.0756  0.7198
  608SOL    HW2 1824   1.383   2.893   0.372 -1.7617 -1.0836  0.8024
  609SOL     OW 1825   1.291   1.288   0.181 -0.1881  0.1613  0.0423
  609SOL    HW1 1826   1.275   1.359   0.251 -1.8617  0.3470 -0.5624
  609SOL    HW2 1827   1.266   1.321   0.083 -1.4906  2.8410 -0.7725
  610SOL     OW 1828   3.089   1.244   2.145  0.2560 -0.2024 -0.2289
  610SOL    HW1 1829   3.031   1.168   2.184 -0.3814  1.5526 -3.8072
  610SOL    HW2 1830   3.036   1.284   2.069  1.0953 -1.1491  1.2023
  611SOL     OW 1831   2.543   0.206   1.163  0.1996 -0.2175 -0.2574
  611SOL    HW1 1832   2.501   0.114   1.191 -1.4270 -0.6767  1.2275
  611SOL    HW2 1833   2.622   0.232   1.228  1.6034  1.9293  1.3485
  612SOL     OW 1834   0.753   2.378   1.234  0.1616 -0.2622  0.2350
  612SOL    HW1 1835   0.686   2.300   1.257  1.8518 -0.3200  1.5956
  612SOL    HW2 1836   0.717   2.475   1.229  2.2625 -0.1779 -0.0490
  613SOL     OW 1837   0.770   1.369   2.387  0.0097  0.1537  0.4251
  613SOL    HW1 1838   0.804   1.438   2.319 -0.2568 -0.7530  1.0062
  613SOL    HW2 1839   0.772   1.275   2.343 -2.6368  1.2366 -0.1627
  614SOL     OW 1840   1.510   1.673   1.950  0.0361  0.4751 -0.0386
  614SOL    HW1 1841   1.501   1.742   1.870  1.7930 -3.9238  0.1177
  614SOL    HW2 1842   1.591   1.687   2.013 -1.0321 -0.7544  1.9729
  615SOL     OW 1843   0.705   1.461   1.716  0.2665 -0.2835 -0.3708
  615SOL    HW1 1844   0.660   1.391   1.655  1.8062 -1.1558 -1.4925
  615SOL    HW2 1845   0.799   1.496   1.682 -2.0369 -0.3527  1.3441
  616SOL     OW 1846   1.119   1.615   2.207 -0.4170  0.2189  0.1366
  616SOL    HW1 1847   1.018   1.609   2.187 -1.7327 -1.6141 -1.1226
  616SOL    HW2 1848   1.171   1.625   2.119  0.8587  2.3176  2.6504
  617SOL     OW 1849   2.897   1.579   1.586  0.1029 -0.1594 -0.4946
  617SOL    HW1 1850   2.855   1.523   1.666  0.9612 -0.3377  2.1031
  617SOL    HW2 1851   2.952   1.516   1.525 -1.3712 -0.4222 -2.8454
  618SOL     OW 1852   1.882   1.984   1.497 -0.3416 -0.6947  0.3539
  618SOL    HW1 1853   1.965   2.001   1.441  1.4123 -0.4831 -0.3175
  618SOL    HW2 1854   1.866   1.880   1.510 -1.6224  0.6676  1.2470
  619SOL     OW 1855   1.788   0.538   2.399 -0.3239  0.5147  0.0820
  619SOL    HW1 1856   1.721   0.587   2.332  0.2090  0.7331 -1.7257
  619SOL    HW2 1857   1.767   0.432   2.408  1.5433 -1.5645  0.3368
  620SOL     OW 1858   2.237   2.886   0.650 -0.0487 -1.0720  0.1259
  620SOL    HW1 1859   2.141   2.924   0.652  0.8020 -0.6425 -1.0927
  620SOL    HW2 1860   2.287   2.903   0.743 -1.9996 -0.0553  0.2773
  621SOL     OW 1861   2.130   1.881   1.360 -0.0382  0.9896  0.0194
  621SOL    HW1 1862   2.148   1.886   1.460 -1.5289  0.9083  1.3950
  621SOL    HW2 1863   2.166   1.798   1.320 -1.1038  1.3623 -0.4076
  622SOL     OW 1864   2.247   0.954   1.793 -0.6032 -0.1356 -0.7850
  622SOL    HW1 1865   2.326   0.884   1.777 -3.1612 -0.9424 -4.3038
  622SOL    HW2 1866   2.177   0.918   1.857  0.5406  3.3735 -3.2471
  623SOL     OW 1867   1.270   0.911   2.572  0.4047 -0.3786 -0.5310
  623SOL    HW1 1868   1.206   0.860   2.637 -3.3160  1.4608 -2.2566
  623SOL    HW2 1869   1.223   0.914   2.477 -1.8959  1.6908 -1.6180
  624SOL     OW 1870   0.564   0.667   3.062  0.3608 -0.8369 -0.1894
  624SOL    HW1 1871   0.619   0.730   2.989 -0.5664 -0.0370  0.8653
  624SOL    HW2 1872   0.536   0.731   3.146 -0.6294 -0.3160 -1.3469
  625SOL     OW 1873   2.809   1.787   0.827 -0.4471  0.1598  0.0607
  625SOL    HW1 1874   2.788   1.844   0.909  1.2148  2.0367  0.1442
  625SOL    HW2 1875   2.724   1.744   0.786  1.2428 -0.7485 -1.8405
  626SOL     OW 1876   0.428   2.837   2.050  0.7758  0.2617 -0.4975
  626SOL    HW1 1877   0.483   2.922   2.047  1.4263 -1.8493  1.2241
  626SOL    HW2 1878   0.362   2.826   1.971 -1.8988  2.3300  3.0867
  627SOL     OW 1879   0.694   0.997   1.537  0.2020 -1.1670  0.2671
  627SOL    HW1 1880   0.757   0.911   1.542 -1.8048  2.1712  0.1714
  627SOL    HW2 1881   0.740   1.081   1.494  0.8581  0.7755  1.3866
  628SOL     OW 1882   2.464   0.114   0.654  0.2420  0.5473  0.3340
  628SOL    HW1 1883   2.442   0.039   0.586 -0.5816 -1.2995  0.6202
  628SOL    HW2 1884   2.387   0.117   0.725 -0.8567 -1.8563 -0.7275
  629SOL     OW 1885   2.003   0.955   1.952  0.2965 -0.1336  0.4422
  629SOL    HW1 1886   2.046   0.967   2.044  1.6125 -2.9299 -0.1974
  629SOL    HW2 1887   1.933   1.032   1.930 -1.2445  2.8634  0.9334
  630SOL     OW 1888   2.852   2.230   0.764 -0.0778  0.0256  0.1262
  630SOL    HW1 1889   2.764   2.250   0.819 -2.6011  0.5774  3.6210
  630SOL    HW2 1890   2.834   2.152   0.692 -0.6806 -1.0753  1.7471
  631SOL     OW 1891   3.039   0.204   2.143 -0.0501  0.1086 -0.3459
  631SOL    HW1 1892   3.079   0.248   2.227 -0.1969  1.3148  1.2362
  631SOL    HW2 1893   3.104   0.200   2.066 -0.0839  1.4380  0.1934
  632SOL     OW 1894   2.416   2.502   0.739  0.3701 -0.1801 -0.2497
  632SOL    HW1 1895   2.500   2.556   0.764 -2.9197  1.3063 -0.8170
  632SOL    HW2 1896   2.366   2.528   0.652 -3.1473 -0.1750 -1.4367
  633SOL     OW 1897   1.550   1.247   2.733 -0.6713 -0.0713  0.7285
  633SOL    HW1 1898   1.527   1.337   2.778  1.0982 -0.1549 -0.3285
  633SOL    HW2 1899   1.469   1.222   2.674  0.8173  0.2711  0.3547
  634SOL     OW 1900   0.688   2.064   0.880 -0.2589  0.1522 -0.4152
  634SOL    HW1 1901   0.595   2.074   0.920  1.9337 -0.8502 -3.0703
  634SOL    HW2 1902   0.746   2.149   0.894  1.0844  1.3602 -0.7597
  635SOL     OW 1903   0.008   2.251   3.043 -0.5412  0.2751 -0.1729
  635SOL    HW1 1904  -0.039   2.300   2.965 -0.5789  2.4099 -1.1196
  635SOL    HW2 1905   0.011   2.309   3.132 -0.8924  2.0624  1.6403
  636SOL     OW 1906   2.352   2.840   1.979  0.1863 -0.3200 -0.6983
  636SOL    HW1 1907   2.311   2.934   1.975  1.6748  2.1872  2.6847
  636SOL    HW2 1908   2.313   2.787   2.061 -1.8781 -0.2103 -1.1002
  637SOL     OW 1909   2.560   0.740   2.116  0.0193 -0.2624 -0.3328
  637SOL    HW1 1910   2.510   0.748   2.024 -1.1114  3.3082  1.1084
  637SOL    HW2 1911   2.623   0.820   2.126 -2.5924 -0.1678 -1.2242
  638SOL     OW 1912   2.420   1.931   1.388 -0.1534  0.0582 -0.1052
  638SOL    HW1 1913   2.326   1.974   1.393  1.2352 -0.4623 -1.4782
  638SOL    HW2 1914   2.416   1.836   1.338 -1.1452 -2.7655 -2.1106
  639SOL     OW 1915   1.284   2.232   1.576  0.1589  0.4749  0.3470
  639SOL    HW1 1916   1.262   2.152   1.514 -0.4837  0.4123  0.5140
  639SOL    HW2 1917   1.221   2.230   1.661 -0.6320  1.0954  2.0313
  640SOL     OW 1918   0.249   1.175   1.535  0.0425  0.5538 -0.3083
  640SOL    HW1 1919   0.259   1.225   1.624  2.2909 -0.6541  0.2363
  640SOL    HW2 1920   0.342   1.136   1.500 -0.4567 -2.1243 -2.6945
  641SOL     OW 1921   1.876   0.292   1.422 -0.0501  0.7245  0.4611
  641SOL    HW1 1922   1.815   0.359   1.464  1.8545 -0.8747 -2.5338
  641SOL    HW2 1923   1.897   0.208   1.478  0.6418 -1.4141  1.8904
  642SOL     OW 1924   1.984   0.123   0.348 -0.2885 -0.1631 -0.4088
  642SOL    HW1 1925   2.080   0.090   0.356 -0.9685  0.3289  0.7326
  642SOL    HW2 1926   1.958   0.170   0.442 -0.8114  0.1099  0.5482
  643SOL     OW 1927   2.840   1.882   2.117  0.3469  0.3719 -0.5657
  643SOL    HW1 1928   2.788   1.807   2.062 -1.1088  0.8906 -2.3192
  643SOL    HW2 1929   2.847   1.975   2.067 -1.0597  0.6486  0.4618
  644SOL     OW 1930   2.228   2.315   1.192 -0.0633  0.4267 -0.7125
  644SOL    HW1 1931   2.312   2.261   1.156  0.4068 -1.5403  1.2603
  644SOL    HW2 1932   2.193   2.278   1.285  0.0013 -2.2741 -3.5383
  645SOL     OW 1933   0.673   0.857   1.096  0.2104  0.2685  0.0606
  645SOL    HW1 1934   0.584   0.815   1.066 -1.9848  0.0037  2.1989
  645SOL    HW2 1935   0.683   0.960   1.079  4.0445  2.9175  1.3929
  646SOL     OW 1936   1.443   1.901   1.801  0.1068  0.3162 -0.5699
  646SOL    HW1 1937   1.528   1.961   1.780 -2.1944 -0.8052  2.0005
  646SOL    HW2 1938   1.382   1.932   1.883  0.5113  0.7255 -0.4852
  647SOL     OW 1939   0.876   0.889   0.670  0.0609  0.2529 -0.2815
  647SOL    HW1 1940   0.943   0.906   0.750 -1.2187 -2.6077 -0.8414
  647SOL    HW2 1941   0.773   0.901   0.687  0.2512  0.3325  0.1458
  648SOL     OW 1942   0.027   0.223   0.325 -0.0138  0.1505  0.1138
  648SOL    HW1 1943  -0.018   0.145   0.276  1.6202  4.0008  0.8326
  648SOL    HW2 1944   0.039   0.309   0.269  0.0113  0.9969  0.0287
  649SOL     OW 1945   0.034   0.050   0.983  0.6370  0.1273  0.5922
  649SOL    HW1 1946   0.128   0.003   0.981  1.5690  0.1359  1.0015
  649SOL    HW2 1947   0.017   0.090   1.078  1.6601  2.0948  2.3895
  650SOL     OW 1948   2.740   0.719   1.455  0.1562  0.0615 -0.0439
  650SOL    HW1 1949   2.649   0.684   1.492 -1.3948 -1.5900  0.2291
  650SOL    HW2 1950   2.724   0.799   1.388  2.9290 -0.1564 -4.5491
  651SOL     OW 1951   0.885   1.596   1.471  0.3428 -0.3415 -0.0358
  651SOL    HW1 1952   0.949   1.681   1.489  0.5774 -0.5256 -1.7596
  651SOL    HW2 1953   0.794   1.628   1.437  2.9757  1.9108 -0.4952
  652SOL     OW 1954   2.265   2.511   2.354  0.0508  0.0392 -0.2144
  652SOL    HW1 1955   2.192   2.494   2.427 -1.2187 -1.2576  2.9917
  652SOL    HW2 1956   2.250   2.605   2.305  2.1717 -1.0149 -2.4974
  653SOL     OW 1957   2.799   1.131   0.201  0.2988 -0.4189  0.1323
  653SOL    HW1 1958   2.865   1.207   0.240  3.1108  0.3496  0.5813
  653SOL    HW2 1959   2.842   1.041   0.222 -1.8419 -0.7577  0.6295
  654SOL     OW 1960   1.208   2.219   1.208  0.2578 -0.1018 -0.5636
  654SOL    HW1 1961   1.223   2.159   1.294  1.2468 -0.8541 -0.2715
  654SOL    HW2 1962   1.271   2.202   1.124  0.6150  1.9375 -1.0479
  655SOL     OW 1963   0.215   1.046   1.916 -0.4927  0.1376  0.2271
  655SOL    HW1 1964   0.264   0.985   1.845  0.3891 -3.6509 -2.7157
  655SOL    HW2 1965   0.266   1.129   1.941  0.3578  0.2817 -0.8228
  656SOL     OW 1966   2.455   2.413   2.568 -0.5423  0.4791 -0.6160
  656SOL    HW1 1967   2.551   2.408   2.529 -4.4744  1.6947 -3.0302
  656SOL    HW2 1968   2.393   2.483   2.519  0.3457 -0.3809 -0.7929
  657SOL     OW 1969   3.059   1.100   1.876  0.4221  0.1796 -0.1441
  657SOL    HW1 1970   3.050   1.202   1.891  0.2930 -1.0791  0.9619
  657SOL    HW2 1971   3.155   1.065   1.886  0.3716  0.2693 -0.9850
  658SOL     OW 1972   1.718   0.248   2.388  0.5417 -0.3336  0.3387
  658SOL    HW1 1973   1.727   0.158   2.451 -0.2511 -2.0198  1.1294
  658SOL    HW2 1974   1.765   0.246   2.296 -2.9749 -1.0446 -0.3393
  659SOL     OW 1975   1.415   0.621   2.817  0.2521 -0.1312 -0.3128
  659SOL    HW1 1976   1.492   0.687   2.796  0.7469 -0.0621  0.3546
  659SOL    HW2 1977   1.321   0.646   2.777  1.9011 -0.3800 -1.0340
  660SOL     OW 1978   1.366   0.395   1.447 -0.0090  0.1054  0.3275
  660SOL    HW1 1979   1.415   0.396   1.540 -0.4007 -1.1044 -0.8161
  660SOL    HW2 1980   1.417   0.336   1.374 -0.8724 -3.2079 -3.3073
  661SOL     OW 1981   2.434   1.130   0.651 -0.1615  0.5368 -0.5546
  661SOL    HW1 1982   2.485   1.054   0.602 -1.6067 -0.7556  1.1075
  661SOL    HW2 1983   2.378   1.186   0.585  2.3415 -1.9141 -1.3019
  662SOL     OW 1984   1.285   0.433   1.852  0.1518 -0.2774  0.3101
  662SOL    HW1 1985   1.244   0.345   1.823 -0.5933 -1.1869  0.5427
  662SOL    HW2 1986   1.249   0.488   1.931 -0.3975 -1.4068  1.2108
  663SOL     OW 1987   0.828   1.581   2.204  0.1858  0.6143  0.8499
  663SOL    HW1 1988   0.755   1.647   2.238 -2.7708  3.4977  0.6401
  663SOL    HW2 1989   0.794   1.532   2.113 -2.2773 -2.3137 -0.6211
  664SOL     OW 1990   1.619   2.075   1.405 -0.8343  0.2390  0.5752
  664SOL    HW1 1991   1.548   2.011   1.446  0.4342  1.3925 -0.5942
  664SOL    HW2 1992   1.717   2.043   1.419  0.4153 -0.9775 -1.6340
  665SOL     OW 1993   2.265   0.600   1.979 -0.8173 -0.2423 -0.2921
  665SOL    HW1 1994   2.297   0.511   2.024 -0.5032  1.9164 -0.1759
  665SOL    HW2 1995   2.179   0.641   2.020  2.6198 -2.1347  2.2536
  666SOL     OW 1996   0.519   2.262   0.466  0.5409 -0.9109 -0.4075
  666SOL    HW1 1997   0.566   2.355   0.479  0.1123 -2.9523  0.5981
  666SOL    HW2 1998   0.448   2.247   0.540  0.7469  0.3388  2.7426
  667SOL     OW 1999   2.084   0.228   0.984 -0.5113 -0.0082 -0.3413
  667SOL    HW1 2000   2.138   0.311   1.012  1.6859  0.6305  0.4175
  667SOL    HW2 2001   1.989   0.224   1.030  0.7199  0.6936  1.4373
  668SOL     OW 2002   2.075   0.622   1.274  0.1321 -0.4754 -0.5216
  668SOL    HW1 2003   2.111   0.587   1.183 -0.7380  0.7844 -3.5553
  668SOL    HW2 2004   2.100   0.559   1.355  1.5284  0.1474 -0.8714
  669SOL     OW 2005   3.034   2.229   0.973 -0.7322  0.8842 -0.1041
  669SOL    HW1 2006   2.976   2.234   0.883  0.8474 -0.0286  0.2476
  669SOL    HW2 2007   2.985   2.190   1.057  1.5315  1.7008  2.9988
  670SOL     OW 2008   2.813   2.368   2.015  0.4768  0.6726 -0.0803
  670SOL    HW1 2009   2.764   2.349   2.106 -0.4458 -2.6341  0.7170
  670SOL    HW2 2010   2.770   2.451   1.964 -0.3658 -0.3126  1.1837
  671SOL     OW 2011   1.684   1.765   1.447 -0.0803  0.2718  0.1665
  671SOL    HW1 2012   1.705   1.771   1.348  1.8559  2.9471 -1.0266
  671SOL    HW2 2013   1.587   1.791   1.479 -1.1957 -0.6870 -1.6759
  672SOL     OW 2014   0.400   0.672   2.435  0.2582 -0.9075 -0.1414
  672SOL    HW1 2015   0.431   0.692   2.335  3.4942  3.0001 -1.3712
  672SOL    HW2 2016   0.317   0.731   2.457  1.6620  2.3097 -1.7471
  673SOL     OW 2017   0.125   1.255   1.093  0.0636 -0.2989  0.5875
  673SOL    HW1 2018   0.125   1.321   1.176  0.8383  2.7705  0.3743
  673SOL    HW2 2019   0.217   1.204   1.086 -0.0066  1.8090  0.5712
  674SOL     OW 2020   1.599   2.949   0.150 -0.0543  0.5684 -0.1557
  674SOL    HW1 2021   1.627   3.051   0.143 -0.2253 -0.9077 -0.6500
  674SOL    HW2 2022   1.663   2.893   0.093 -0.9273  0.4651 -0.0757
  675SOL     OW 2023   1.714   0.877   2.350 -0.6740  0.1862  0.7357
  675SOL    HW1 2024   1.815   0.879   2.358 -1.8495  0.2170 -0.5091
  675SOL    HW2 2025   1.671   0.784   2.326  0.1187 -0.1560 -2.5714
  676SOL     OW 2026   2.544   1.490   1.994 -0.0664 -0.3909 -0.7354
  676SOL    HW1 2027   2.497   1.451   1.908 -0.1772 -4.0734 -0.8347
  676SOL    HW2 2028   2.568   1.410   2.059  2.1409  0.2062 -1.2632
  677SOL     OW 2029   1.947   0.543   0.938 -0.0577 -0.3160  0.1713
  677SOL    HW1 2030   1.914   0.638   0.932 -0.5752 -4.9577  0.6929
  677SOL    HW2 2031   1.892   0.494   1.008  1.0173  0.1672  2.0243
  678SOL     OW 2032   0.070   0.738   1.687 -0.2960 -0.2752  0.5557
  678SOL    HW1 2033   0.165   0.785   1.694  1.4211 -0.6016  0.6545
  678SOL    HW2 2034  -0.007   0.786   1.742 -1.0793  0.2483  0.6160
  679SOL     OW 2035   2.475   1.164   1.150  0.6688 -0.1169 -0.0181
  679SOL    HW1 2036   2.371   1.176   1.147  1.2581 -0.5492  1.7262
  679SOL    HW2 2037   2.507   1.082   1.098  0.7610  0.3871  2.7823
  680SOL     OW 2038   2.856   0.634   1.690  0.0849 -0.2009  0.0078
  680SOL    HW1 2039   2.808   0.675   1.609  0.6784 -5.6085  1.5398
  680SOL    HW2 2040   2.900   0.706   1.750 -2.9367  0.0419 -0.4741
  681SOL     OW 2041   3.058   0.165   1.627  0.1506  0.2230 -0.2577
  681SOL    HW1 2042   3.137   0.135   1.564  0.2546  1.0142 -0.4046
  681SOL    HW2 2043   3.028   0.263   1.604 -0.8085  2.4015  0.8277
  682SOL     OW 2044   0.725   3.072   1.357  0.2779 -0.2753  0.3770
  682SOL    HW1 2045   0.663   2.996   1.382  0.5178  1.5364 -2.4756
  682SOL    HW2 2046   0.751   3.061   1.256 -3.3253 -1.6427  1.3224
  683SOL     OW 2047   1.422   0.213   2.225  0.1447  0.2756 -0.4259
  683SOL    HW1 2048   1.430   0.270   2.313  0.2026  1.9415 -1.0468
  683SOL    HW2 2049   1.490   0.244   2.153 -0.6226 -2.6216  1.2489
  684SOL     OW 2050   1.460   2.145   0.489 -0.0891  0.3674 -0.5253
  684SOL    HW1 2051   1.529   2.078   0.528 -2.3841 -0.8647  1.2433
  684SOL    HW2 2052   1.372   2.094   0.462 -1.0137 -0.0770  1.6019
  685SOL     OW 2053   2.129   1.923   2.018  0.2347  0.2560  0.3062
  685SOL    HW1 2054   2.193   1.992   1.977  0.0041  0.7305  0.8626
  685SOL    HW2 2055   2.172   1.832   2.039  0.1915 -0.3303  1.7568
  686SOL     OW 2056   1.503   1.705   2.737 -0.4057 -0.4267 -0.7133
  686SOL    HW1 2057   1.469   1.612   2.773 -2.2692 -2.2865 -0.3428
  686SOL    HW2 2058   1.568   1.744   2.804 -2.0366 -0.0533  2.7043
  687SOL     OW 2059   1.320   2.495   1.918 -0.1644 -0.3608  0.2366
  687SOL    HW1 2060   1.367   2.404   1.895 -0.1653  1.4421 -0.8730
  687SOL    HW2 2061   1.390   2.549   1.976  0.9482  2.0458  1.1139
  688SOL     OW 2062   2.041   1.514   1.578  0.5929 -0.5437 -0.0272
  688SOL    HW1 2063   2.139   1.540   1.556  1.4299 -1.1777 -0.2731
  688SOL    HW2 2064   1.975   1.500   1.494 -1.9825 -2.6441  0.0986
  689SOL     OW 2065   2.467   1.076   2.748 -0.8230  0.2238  0.0039
  689SOL    HW1 2066   2.373   1.066   2.795 -0.7755  1.2863  1.4679
  689SOL    HW2 2067   2.546   1.039   2.800 -1.8546 -1.8790  0.9540
  690SOL     OW 2068   2.248   2.791   3.024  0.1247  0.1423  0.5309
  690SOL    HW1 2069   2.150   2.773   2.991 -1.9819  2.6433 -1.8577
  690SOL    HW2 2070   2.238   2.850   3.106 -0.8518 -2.0576 -0.1399
  691SOL     OW 2071   2.596   0.451   2.129 -0.4248  0.2559  0.0329
  691SOL    HW1 2072   2.675   0.403   2.081 -0.4385 -0.2025  0.8764
  691SOL    HW2 2073   2.597   0.555   2.123  1.0357 -0.8371  0.3404
  692SOL     OW 2074   2.725   1.216   0.663 -0.2847 -0.7510  0.4071
  692SOL    HW1 2075   2.621   1.214   0.651  1.4148  1.9913 -1.9397
  692SOL    HW2 2076   2.756   1.289   0.727 -1.2204 -1.9267  3.9717
  693SOL     OW 2077   2.823   2.932   0.640  0.4169 -0.5159 -0.0079
  693SOL    HW1 2078   2.828   2.999   0.717 -0.0453 -1.9339  1.7248
  693SOL    HW2 2079   2.783   2.966   0.552  1.4260 -0.8701  2.2223
  694SOL     OW 2080   2.407   2.182   0.056 -0.2154  0.3141  0.2935
  694SOL    HW1 2081   2.401   2.271   0.109  1.4454  3.3129 -1.1237
  694SOL    HW2 2082   2.341   2.108   0.086  3.8156  1.2850 -1.6948
  695SOL     OW 2083   0.545   2.917   1.486  0.1849  0.7866  0.6751
  695SOL    HW1 2084   0.479   2.837   1.479  0.3584  0.2114  1.1137
  695SOL    HW2 2085   0.512   2.988   1.549 -0.0789 -1.4349 -1.5670
  696SOL     OW 2086   2.726   1.992   0.659 -0.3663  0.3722 -0.1704
  696SOL    HW1 2087   2.778   1.905   0.682 -0.5599  0.0545 -2.1904
  696SOL    HW2 2088   2.655   1.985   0.583  0.9846 -0.3683  1.0741
  697SOL     OW 2089   1.695   2.053   1.755  0.0453  0.2681  0.3492
  697SOL    HW1 2090   1.763   2.023   1.824 -0.8602  0.3058  1.1617
  697SOL    HW2 2091   1.730   2.053   1.658  0.7548  0.1090  0.1808
  698SOL     OW 2092   2.942   0.343   2.792 -0.3429  0.3360 -0.1324
  698SOL    HW1 2093   2.942   0.303   2.696 -1.1987 -0.6130  1.1239
  698SOL    HW2 2094   3.021   0.299   2.845  3.1639 -0.2620  2.1305
  699SOL     OW 2095   1.544   0.114   2.922  0.1919 -0.5087 -0.0363
  699SOL    HW1 2096   1.504   0.022   2.907 -0.8433  1.3632  0.9990
  699SOL    HW2 2097   1.578   0.152   2.831 -1.9137  1.8143  0.2504
  700SOL     OW 2098   0.991   2.442   1.350 -0.4638  0.2486 -0.3356
  700SOL    HW1 2099   1.063   2.384   1.301 -0.0159  0.8358  1.4205
  700SOL    HW2 2100   0.902   2.440   1.302 -1.8389  1.4356  0.7952
  701SOL     OW 2101   1.822   2.855   3.088  0.2347 -0.5947 -0.4824
  701SOL    HW1 2102   1.861   2.795   3.163  0.0164 -0.6886 -2.1663
  701SOL    HW2 2103   1.863   2.952   3.090 -0.3682  0.6360  0.7007
  702SOL     OW 2104   2.103   1.356   1.802  0.4162  0.3010 -0.1920
  702SOL    HW1 2105   2.194   1.309   1.786 -1.0949  0.9600 -0.4314
  702SOL    HW2 2106   2.075   1.400   1.712 -1.5859 -1.7164 -3.1780
  703SOL     OW 2107   1.969   0.904   1.466  0.2046 -0.5315 -0.1338
  703SOL    HW1 2108   1.968   0.819   1.524  0.2650  1.2472 -1.1031
  703SOL    HW2 2109   2.015   0.982   1.517  3.4275  0.0573 -2.0196
  704SOL     OW 2110   0.281   2.054   1.775  0.1949 -0.6305 -0.5931
  704SOL    HW1 2111   0.323   2.034   1.867  1.2798  2.9050 -2.0229
  704SOL    HW2 2112   0.335   2.136   1.732  1.9178  2.0976 -0.0064
  705SOL     OW 2113   2.546   1.418   0.873 -0.4573 -0.0122  0.3716
  705SOL    HW1 2114   2.449   1.382   0.890 -0.9545 -0.5276 -2.2630
  705SOL    HW2 2115   2.617   1.400   0.945  1.0432  0.7157 -1.2116
  706SOL     OW 2116   0.621   1.770   1.863 -0.2692  0.4589 -0.6353
  706SOL    HW1 2117   0.641   1.677   1.902 -0.4072 -0.5824  0.8355
  706SOL    HW2 2118   0.694   1.834   1.898  0.2970 -2.8860  0.1583
  707SOL     OW 2119   2.349   1.209   1.779 -0.1443 -0.0121 -0.9684
  707SOL    HW1 2120   2.449   1.206   1.808  2.6231  0.4872 -1.8944
  707SOL    HW2 2121   2.302   1.118   1.797  0.7547 -3.1582 -1.4275
  708SOL     OW 2122   3.034   0.518   3.062 -0.3672  0.1425  0.3334
  708SOL    HW1 2123   3.043   0.561   2.974 -0.1767 -3.1263  2.6202
  708SOL    HW2 2124   3.064   0.419   3.053 -1.6213  3.7166  0.3374
  709SOL     OW 2125   1.762   1.830   0.223 -0.3374  0.1821  0.3601
  709SOL    HW1 2126   1.805   1.919   0.254  1.3647 -2.8020  0.4564
  709SOL    HW2 2127   1.768   1.817   0.116  3.2108  0.1831 -1.6997
  710SOL     OW 2128   1.756   1.680   2.447 -0.2483  0.1798 -0.3898
  710SOL    HW1 2129   1.778   1.639   2.354 -0.2118 -1.4889 -0.9607
  710SOL    HW2 2130   1.747   1.627   2.533 -1.7138  1.5067  0.9737
  711SOL     OW 2131   2.616   2.921   0.973  0.0410 -0.5666  0.1147
  711SOL    HW1 2132   2.627   3.020   0.956 -0.2138 -0.7531  1.9698
  711SOL    HW2 2133   2.686   2.883   1.038 -1.4896 -2.3391  1.8984
  712SOL     OW 2134   1.512   2.312   1.753  0.2281  0.2776  0.4305
  712SOL    HW1 2135   1.590   2.249   1.777  2.4628 -0.7400  0.5781
  712SOL    HW2 2136   1.459   2.290   1.665 -2.4553  0.7682  1.4992
  713SOL     OW 2137   2.840   1.312   2.516 -0.2417 -0.1012 -0.3428
  713SOL    HW1 2138   2.813   1.239   2.454  0.5639  0.6872  2.7677
  713SOL    HW2 2139   2.804   1.294   2.611  0.7070  0.4586  1.6083
  714SOL     OW 2140   2.666   0.431   2.453 -0.5259 -0.0074 -0.1741
  714SOL    HW1 2141   2.596   0.395   2.519  0.1065 -1.8955 -2.1802
  714SOL    HW2 2142   2.627   0.452   2.360  0.7048 -0.0897 -0.0804
  715SOL     OW 2143   1.648   2.072   1.113 -0.5458  0.3678 -0.1753
  715SOL    HW1 2144   1.573   2.143   1.106 -0.2600  2.6521  2.8724
  715SOL    HW2 2145   1.661   2.039   1.209 -1.5022  2.7592 -1.0209
  716SOL     OW 2146   1.186   0.190   1.453 -0.1322 -0.7980  0.1273
  716SOL    HW1 2147   1.084   0.190   1.462  3.2144 -0.9472 -0.1767
  716SOL    HW2 2148   1.222   0.285   1.424 -0.8146 -1.2106  0.7822
  717SOL     OW 2149   1.047   0.534   1.603  0.0309 -0.6540  0.3111
  717SOL    HW1 2150   1.149   0.560   1.591  2.6521 -1.1500 -1.4946
  717SOL    HW2 2151   1.007   0.509   1.512  0.4008  0.8705 -0.8656
  718SOL     OW 2152   0.649   1.116   1.015 -0.2009  0.3020  0.4412
  718SOL    HW1 2153   0.680   1.117   0.914 -1.0637  1.0951  0.6762
  718SOL    HW2 2154   0.691   1.197   1.068 -0.1769  2.2018 -0.5117
  719SOL     OW 2155   0.699   1.801   2.259  0.6725 -0.2921  0.3853
  719SOL    HW1 2156   0.762   1.832   2.335  3.2540  0.1928 -1.3719
  719SOL    HW2 2157   0.595   1.836   2.264 -2.9923  0.6509  1.0767
  720SOL     OW 2158   2.269   1.166   0.214 -0.2681 -0.1514  0.0117
  720SOL    HW1 2159   2.371   1.144   0.220 -1.0037 -0.3052  2.7780
  720SOL    HW2 2160   2.239   1.183   0.312  1.7398  0.4353  0.2561
  721SOL     OW 2161   2.250   3.093   2.014  0.6040 -0.0522 -0.0551
  721SOL    HW1 2162   2.252   3.171   1.949 -0.2531 -1.5075  0.5643
  721SOL    HW2 2163   2.157   3.080   2.059  2.3880 -1.2759  1.9721
  722SOL     OW 2164   2.427   1.696   0.492  0.5920  0.7102  0.0403
  722SOL    HW1 2165   2.418   1.617   0.424  0.1874  0.1370  0.5000
  722SOL    HW2 2166   2.331   1.721   0.529 -0.2043  1.1002  3.5802
  723SOL     OW 2167   2.614   2.871   1.902 -0.2828  0.3914  0.4371
  723SOL    HW1 2168   2.654   2.915   1.990 -0.1476 -0.2070 -1.0663
  723SOL    HW2 2169   2.529   2.824   1.927 -0.0986  1.1124 -2.0494
  724SOL     OW 2170   0.307   2.408   2.339  0.2121  0.2262 -0.4482
  724SOL    HW1 2171   0.216   2.457   2.352 -2.0137 -1.0263 -0.2723
  724SOL    HW2 2172   0.364   2.390   2.423 -3.0661 -0.2952 -1.6499
  725SOL     OW 2173   2.317   2.793   1.464  0.2490  0.4156  0.1793
  725SOL    HW1 2174   2.368   2.799   1.376  1.9783 -1.1890 -3.4216
  725SOL    HW2 2175   2.313   2.700   1.504 -0.8754 -1.0846  0.1474
  726SOL     OW 2176   2.390   2.238   0.787 -0.4847  0.2733 -0.4917
  726SOL    HW1 2177   2.374   2.343   0.788  0.1545 -0.1974  0.2551
  726SOL    HW2 2178   2.402   2.200   0.692  0.8899  0.9705  0.3616
  727SOL     OW 2179   0.234   0.001   0.148 -0.4332  0.1800 -0.1198
  727SOL    HW1 2180   0.273  -0.060   0.075 -0.4120  3.1131 -0.8179
  727SOL    HW2 2181   0.258   0.102   0.134  1.5792 -0.8396  1.8823
  728SOL     OW 2182   2.815   0.668   1.074 -0.4166  0.4249 -0.0912
  728SOL    HW1 2183   2.731   0.642   1.019 -1.0579 -0.7050 -1.1603
  728SOL    HW2 2184   2.806   0.631   1.169 -1.3626  0.5871 -1.4256
  729SOL     OW 2185   2.981   2.469   0.714  0.5702  0.3258 -0.4465
  729SOL    HW1 2186   2.932   2.381   0.746 -0.9493 -3.4699  0.9205
  729SOL    HW2 2187   3.082   2.459   0.708  1.1673  1.5066 -1.3769
  730SOL     OW 2188   2.624   0.578   0.843 -0.0724  0.3953 -0.1500
  730SOL    HW1 2189   2.586   0.667   0.810  0.1584  0.5879  0.2388
  730SOL    HW2 2190   2.674   0.531   0.771 -0.7825 -1.2950  2.8444
  731SOL     OW 2191   0.147   2.123   2.481  0.7247  0.4793  0.2374
  731SOL    HW1 2192   0.139   2.157   2.580 -2.1400  0.8530  1.1761
  731SOL    HW2 2193   0.159   2.198   2.419  2.8816 -2.9127  3.1653
  732SOL     OW 2194   1.144   2.842   2.023 -0.3603 -0.3119 -0.2380
  732SOL    HW1 2195   1.182   2.765   2.084  1.9128  1.0693 -0.0230
  732SOL    HW2 2196   1.148   2.817   1.920 -0.1171  0.4388  0.2032
  733SOL     OW 2197   3.023   0.683   2.134 -0.2830 -0.1481  0.2007
  733SOL    HW1 2198   3.115   0.736   2.131 -0.7540 -1.3857  0.0912
  733SOL    HW2 2199   3.019   0.603   2.066  1.0542  0.9945 -1.4043
  734SOL     OW 2200   1.376   0.370   2.684 -0.0925 -0.2044 -0.0026
  734SOL    HW1 2201   1.390   0.463   2.725  0.9290  1.5486 -0.9602
  734SOL    HW2 2202   1.311   0.316   2.749  0.9771  0.4248  0.3041
  735SOL     OW 2203   2.801   2.636   2.284 -0.3384  0.3560 -0.2076
  735SOL    HW1 2204   2.718   2.629   2.222 -0.3449  0.0885 -0.2075
  735SOL    HW2 2205   2.893   2.628   2.236  2.0605  0.2133 -1.1913
  736SOL     OW 2206   0.807   0.378   2.584 -0.1980  0.0191 -0.0841
  736SOL    HW1 2207   0.742   0.459   2.594  0.5196  1.9106  0.0938
  736SOL    HW2 2208   0.815   0.342   2.483  2.4385 -1.6566 -2.0815
  737SOL     OW 2209   2.672   0.457   2.879 -0.4764 -0.3396  0.0750
  737SOL    HW1 2210   2.653   0.462   2.983  2.0399  0.3822  1.8855
  737SOL    HW2 2211   2.754   0.392   2.857  0.9292 -1.9757  1.9227
  738SOL     OW 2212   1.671   1.137   3.068  0.0335 -0.3197  0.9556
  738SOL    HW1 2213   1.768   1.134   3.032  1.1322 -0.3107 -0.1000
  738SOL    HW2 2214   1.643   1.046   3.101 -1.4704  1.8223  4.2666
  739SOL     OW 2215   1.808   0.533   0.694  0.2979  0.1267  0.1510
  739SOL    HW1 2216   1.857   0.506   0.777  0.6808  1.2856 -1.0281
  739SOL    HW2 2217   1.819   0.459   0.622  1.2760  0.1446  1.3687
  740SOL     OW 2218   1.896   2.043   2.135 -0.2983  0.2888  0.1163
  740SOL    HW1 2219   1.942   1.975   2.071  0.4296  1.6853 -0.6447
  740SOL    HW2 2220   1.798   2.060   2.117  1.9990  0.1468  0.8427
  741SOL     OW 2221   2.519   0.037   2.608  0.3975 -0.7654  0.1862
  741SOL    HW1 2222   2.617   0.009   2.591  0.2292 -2.2564  1.0490
  741SOL    HW2 2223   2.451   0.003   2.537  1.4607 -2.3752  2.5463
  742SOL     OW 2224   2.265   1.396   0.086  0.0820  0.2393  0.2670
  742SOL    HW1 2225   2.194   1.470   0.113 -0.7794 -1.1439  1.0118
  742SOL    HW2 2226   2.249   1.303   0.136  2.0714  4.4446  2.2901
  743SOL     OW 2227   1.754   0.649   2.645  0.3317 -0.0282  0.3331
  743SOL    HW1 2228   1.780   0.591   2.563 -0.1981  1.7246 -2.1446
  743SOL    HW2 2229   1.685   0.727   2.624  0.0998  0.2025 -0.6904
  744SOL     OW 2230   2.680   2.086   0.096  0.0526  0.2611  0.7705
  744SOL    HW1 2231   2.583   2.109   0.123 -1.1265  4.0255 -1.9729
  744SOL    HW2 2232   2.718   2.013   0.161  0.6402 -2.5165  1.9103
  745SOL     OW 2233   2.201   2.746   2.201  0.4195  0.4154  0.0094
  745SOL    HW1 2234   2.102   2.729   2.176  1.0791  1.1866 -1.6701
  745SOL    HW2 2235   2.209   2.800   2.289 -0.6901  3.5106  3.0316
  746SOL     OW 2236   3.076   2.601   1.811 -0.0854 -0.1322 -0.2557
  746SOL    HW1 2237   3.180   2.611   1.788  0.4122 -0.4751 -0.2999
  746SOL    HW2 2238   3.034   2.695   1.840  0.4575  1.1050 -1.2376
  747SOL     OW 2239   0.027   1.786   1.677 -0.1600 -0.3165  0.2632
  747SOL    HW1 2240  -0.032   1.712   1.638  1.6676  0.7830 -0.2909
  747SOL    HW2 2241   0.091   1.828   1.604 -2.0604  0.7594 -0.3106
  748SOL     OW 2242   1.752   2.722   2.858  0.4902 -0.5318 -0.4264
  748SOL    HW1 2243   1.765   2.769   2.955  1.6070 -0.6805  1.7332
  748SOL    HW2 2244   1.652   2.736   2.830  0.7223  0.0704 -0.5232
  749SOL     OW 2245   1.318   0.066   0.893  0.7543  0.3503 -0.3280
  749SOL    HW1 2246   1.265  -0.020   0.908  1.3288 -0.7838  1.5456
  749SOL    HW2 2247   1.315   0.100   0.794 -0.1089  0.5046 -0.1308
  750SOL     OW 2248   2.273   0.242   1.876  0.5113 -0.1314  0.1577
  750SOL    HW1 2249   2.348   0.287   1.820 -1.0384  0.1054 -1.9334
  750SOL    HW2 2250   2.256   0.294   1.960 -1.1943  0.0127 -1.9717
  751SOL     OW 2251   0.858   2.260   2.911  0.1995 -0.2039  0.1547
  751SOL    HW1 2252   0.921   2.259   2.996 -0.0388 -0.4446  1.1763
  751SOL    HW2 2253   0.812   2.169   2.894  0.1653  2.7030  0.5048
  752SOL     OW 2254   1.256   0.902   1.507 -0.5276 -0.8627 -0.1575
  752SOL    HW1 2255   1.336   0.960   1.473 -1.1294  1.1835 -1.7659
  752SOL    HW2 2256   1.279   0.801   1.527  1.8890 -1.6281 -1.1306
  753SOL     OW 2257   0.904   2.612   1.754 -0.4540 -0.3836 -0.2871
  753SOL    HW1 2258   0.985   2.645   1.699  0.5709  1.5716  0.9573
  753SOL    HW2 2259   0.817   2.668   1.732  0.3476 -0.8176 -3.7654
  754SOL     OW 2260   1.134   1.326   3.043  0.2063 -0.3231  0.1238
  754SOL    HW1 2261   1.161   1.258   2.970 -1.6686  1.5209  0.3411
  754SOL    HW2 2262   1.135   1.424   3.005 -0.6993  1.3055  0.3190
  755SOL     OW 2263   2.024   0.521   2.255  0.2607 -0.0519  0.4075
  755SOL    HW1 2264   2.100   0.469   2.304  0.2413 -2.1654  2.3756
  755SOL    HW2 2265   1.936   0.524   2.311  0.7437 -0.0369 -0.1711
  756SOL     OW 2266   2.639   0.966   2.923  0.1682  0.2960  0.1249
  756SOL    HW1 2267   2.684   0.878   2.886  0.4750  0.3509 -1.2223
  756SOL    HW2 2268   2.562   0.945   2.995  1.0270 -2.4834  3.1718
  757SOL     OW 2269   0.166   0.460   1.715 -0.0271 -0.3290  0.1353
  757SOL    HW1 2270   0.116   0.549   1.729  0.0370 -2.0530 -1.6702
  757SOL    HW2 2271   0.193   0.445   1.617  3.7056 -1.5006 -1.3964
  758SOL     OW 2272   2.493   0.066   1.502 -0.6914 -0.0790 -0.4536
  758SOL    HW1 2273   2.418   0.020   1.555 -1.6612  0.9861  0.3017
  758SOL    HW2 2274   2.499   0.034   1.403 -0.3298 -0.6255  0.6213
  759SOL     OW 2275   1.661   0.095   0.089 -0.2972  0.6265  0.1000
  759SOL    HW1 2276   1.618   0.089  -0.004  0.7178 -2.1581 -1.1594
  759SOL    HW2 2277   1.762   0.076   0.074  0.6628  1.2566  2.3560
  760SOL     OW 2278   2.733   1.955   2.756  0.2697  0.4539  0.0359
  760SOL    HW1 2279   2.766   1.853   2.761  2.6392  0.0140 -3.3731
  760SOL    HW2 2280   2.810   2.012   2.718 -1.3856  1.8230  0.7362
  761SOL     OW 2281   1.888   1.734   1.636 -0.6346  0.0623  0.5620
  761SOL    HW1 2282   1.957   1.660   1.623 -1.5810  0.2591  1.1064
  761SOL    HW2 2283   1.799   1.722   1.584  0.6077  3.2297  1.2648
  762SOL     OW 2284   0.514   2.394   0.984 -0.0237  0.2766 -0.1777
  762SOL    HW1 2285   0.540   2.457   0.903 -3.3989 -0.9276  0.5034
  762SOL    HW2 2286   0.540   2.435   1.075  0.6666  0.2080  1.3871
  763SOL     OW 2287   2.003   1.585   2.965 -0.1479  0.1898 -0.2385
  763SOL    HW1 2288   2.071   1.543   2.902 -1.5541  0.7565  0.8089
  763SOL    HW2 2289   1.934   1.513   2.990  2.0361  0.0353 -2.3682
  764SOL     OW 2290   0.688   0.589   0.836 -0.0019 -0.0297 -0.2088
  764SOL    HW1 2291   0.694   0.557   0.737  1.8392  0.0965 -0.0356
  764SOL    HW2 2292   0.778   0.591   0.889  1.1644  1.3945 -1.3257
  765SOL     OW 2293   0.633   0.232   0.804 -0.0957 -0.0677  0.3125
  765SOL    HW1 2294   0.718   0.265   0.753  0.2889  0.3596 -0.0190
  765SOL    HW2 2295   0.636   0.243   0.906  1.6782 -0.1534 -2.0556
  766SOL     OW 2296   3.019   1.964   2.993 -0.6402 -0.2495 -1.3017
  766SOL    HW1 2297   2.957   1.974   2.914  1.3613  0.8064  0.3924
  766SOL    HW2 2298   3.100   2.030   2.983 -0.2794 -0.1692 -0.4340
  767SOL     OW 2299   2.740   1.567   0.483 -0.5595 -0.1705  0.0313
  767SOL    HW1 2300   2.692   1.595   0.573 -0.5036 -0.5142 -0.1857
  767SOL    HW2 2301   2.838   1.594   0.481 -2.7468 -0.7246 -0.3119
  768SOL     OW 2302   1.060   0.297   0.280  0.4732  0.2241  0.4131
  768SOL    HW1 2303   0.966   0.262   0.241 -1.5428 -1.4172  0.2320
  768SOL    HW2 2304   1.143   0.235   0.254 -0.7442  0.6802  0.6051
  769SOL     OW 2305   1.330   1.806   2.249  0.9451 -0.9617 -0.0966
  769SOL    HW1 2306   1.417   1.771   2.287 -0.3441  0.9425 -1.0438
  769SOL    HW2 2307   1.249   1.735   2.248 -1.8657 -1.9996  0.2256
  770SOL     OW 2308   0.192   1.129   2.298  0.1910  0.6966 -0.2367
  770SOL    HW1 2309   0.160   1.178   2.389  0.6576  3.3226  1.3509
  770SOL    HW2 2310   0.154   1.181   2.221  0.7839  0.7191 -0.5963
  771SOL     OW 2311   2.961   2.838   1.899 -0.0507  0.2695 -0.1583
  771SOL    HW1 2312   2.966   2.913   1.831  1.3896 -1.1197  0.5559
  771SOL    HW2 2313   2.966   2.876   1.996  0.1672 -2.6856 -2.7103
  772SOL     OW 2314   2.139   0.071   3.009  0.6398  0.2374  0.4234
  772SOL    HW1 2315   2.222   0.020   2.978 -0.3469  1.1925 -2.3741
  772SOL    HW2 2316   2.153   0.163   3.053 -0.5018 -1.7895 -1.4982
  773SOL     OW 2317   0.736   2.138   2.477  0.0774 -0.1709 -0.2382
  773SOL    HW1 2318   0.717   2.156   2.378  2.7733  1.9034  0.0009
  773SOL    HW2 2319   0.655   2.128   2.545  0.4047 -1.4878 -2.3660
  774SOL     OW 2320   1.966   0.015   2.670 -0.0513  0.1347  0.0071
  774SOL    HW1 2321   1.996   0.095   2.726  1.1661 -1.9325 -1.3890
  774SOL    HW2 2322   2.017  -0.079   2.686 -1.1256 -3.7592 -0.0878
  775SOL     OW 2323   2.499   2.912   2.339 -0.4183 -0.1334 -0.2972
  775SOL    HW1 2324   2.465   3.012   2.324  0.0633  2.1639 -0.7848
  775SOL    HW2 2325   2.586   2.908   2.399  2.0813 -1.5943 -1.1902
  776SOL     OW 2326   0.011   1.150   0.254  0.3828  0.2365 -0.0849
  776SOL    HW1 2327  -0.022   1.192   0.165  0.7605  1.2977 -0.0980
  776SOL    HW2 2328  -0.060   1.164   0.330  0.7399  1.9676 -0.2663
  777SOL     OW 2329   0.320   2.715   0.405  0.1256  0.0755 -0.3316
  777SOL    HW1 2330   0.221   2.685   0.429 -0.2904  2.0827 -0.1898
  777SOL    HW2 2331   0.338   2.815   0.428 -3.2446  1.7240  1.0103
  778SOL     OW 2332   1.319   1.992   0.171 -0.5573  0.4601 -0.0299
  778SOL    HW1 2333   1.290   2.018   0.269 -0.0987  0.2000 -0.7646
  778SOL    HW2 2334   1.340   2.077   0.118 -2.3557 -0.8891 -0.0646
  779SOL     OW 2335   0.174   0.800   0.494  0.5560 -0.2581 -0.0963
  779SOL    HW1 2336   0.108   0.722   0.486 -0.4896  0.7612 -0.7289
  779SOL    HW2 2337   0.153   0.860   0.574  3.9240  0.7952  0.4231
  780SOL     OW 2338   0.050   0.309   2.360  0.7799  0.0588  0.2643
  780SOL    HW1 2339  -0.008   0.398   2.339 -0.3217 -2.3237 -0.2987
  780SOL    HW2 2340   0.149   0.317   2.328  1.2725 -0.6196 -0.6845
  781SOL     OW 2341   0.557   1.787   1.604  0.1232  0.1026 -0.0364
  781SOL    HW1 2342   0.598   1.781   1.703 -1.7012 -2.1139 -1.0547
  781SOL    HW2 2343   0.478   1.720   1.596  0.0112  0.9722 -0.3372
  782SOL     OW 2344   2.617   0.079   0.894 -0.7688  0.4026 -0.1256
  782SOL    HW1 2345   2.583   0.106   0.801  0.8194 -0.3407 -0.1234
  782SOL    HW2 2346   2.599   0.142   0.973 -1.4768  2.1673  0.0418
  783SOL     OW 2347   2.837   0.636   2.558  0.3403 -0.0517  0.3735
  783SOL    HW1 2348   2.795   0.670   2.645  2.3420  1.0299  0.6864
  783SOL    HW2 2349   2.786   0.551   2.522  1.7937  0.8076  0.1875
  784SOL     OW 2350   1.424   2.219   0.022  0.2201  0.0597  0.2076
  784SOL    HW1 2351   1.515   2.250   0.073  1.9185  0.3952  0.2592
  784SOL    HW2 2352   1.433   2.205  -0.079 -4.0959  3.0607 -0.2750
  785SOL     OW 2353   2.187   0.320   0.015  0.1024  0.0991 -0.3969
  785SOL    HW1 2354   2.103   0.329   0.073 -0.5358 -1.2317  1.0836
  785SOL    HW2 2355   2.219   0.415  -0.002  0.1180 -0.3089 -1.4811
  786SOL     OW 2356   2.095   2.198   2.249  0.5974  0.2016  0.1139
  786SOL    HW1 2357   2.037   2.133   2.195  1.2071  0.6970  2.9738
  786SOL    HW2 2358   2.181   2.155   2.279 -2.4680 -1.3721  0.9880
  787SOL     OW 2359   1.353   0.634   0.718 -0.3336  0.0729 -0.1295
  787SOL    HW1 2360   1.290   0.709   0.682 -2.3070  0.0901  1.6295
  787SOL    HW2 2361   1.407   0.576   0.644  4.2322 -1.7036 -4.4728
  788SOL     OW 2362   1.228   0.486   2.985 -0.0854  0.3596  0.4858
  788SOL    HW1 2363   1.128   0.482   2.948 -0.9933 -1.2428 -4.6488
  788SOL    HW2 2364   1.290   0.554   2.933  0.0278 -2.7190 -0.5569
  789SOL     OW 2365   2.633   0.085   1.898 -0.0277  0.3360  0.5888
  789SOL    HW1 2366   2.530   0.108   1.913 -1.8041 -0.5758  1.0155
  789SOL    HW2 2367   2.661  -0.007   1.927  0.4384  2.7839 -1.6347
  790SOL     OW 2368   2.647   2.656   0.845  0.2578 -0.7280  0.3343
  790SOL    HW1 2369   2.693   2.664   0.753  1.8368  0.4921 -0.0953
  790SOL    HW2 2370   2.629   2.744   0.888 -2.7066 -2.3062 -2.7757
  791SOL     OW 2371   1.929   1.174   0.217  0.0316  0.0033  0.2904
  791SOL    HW1 2372   1.834   1.164   0.251 -1.8210 -0.1840 -1.1479
  791SOL    HW2 2373   1.970   1.082   0.186 -1.4428 -0.0002 -1.6332
  792SOL     OW 2374   0.447   1.971   2.254 -0.2304  0.3232 -0.0730
  792SOL    HW1 2375   0.466   2.072   2.266  2.7015 -1.2223 -1.3620
  792SOL    HW2 2376   0.359   1.941   2.296  1.1858  3.1775  2.8234
  793SOL     OW 2377   2.096   1.543   2.020 -0.0991  0.3440 -0.5827
  793SOL    HW1 2378   2.199   1.574   2.019  3.9556  1.8787  3.3762
  793SOL    HW2 2379   2.084   1.474   1.942 -0.9447  1.2096  0.4110
  794SOL     OW 2380   0.575   1.540   2.477  0.0796 -0.0819  0.0702
  794SOL    HW1 2381   0.661   1.482   2.472  1.3832 -1.1365  0.5536
  794SOL    HW2 2382   0.515   1.541   2.394  1.1210  0.3875 -0.0331
  795SOL     OW 2383   2.425   2.357   1.853 -0.2695  0.5957 -0.1560
  795SOL    HW1 2384   2.417   2.414   1.935 -1.9069  1.2161 -1.6452
  795SOL    HW2 2385   2.345   2.287   1.832 -1.7045 -0.4528 -0.7708
  796SOL     OW 2386   3.051   1.148   2.721  0.3659  0.4407  0.1621
  796SOL    HW1 2387   2.947   1.157   2.719  0.0205  0.2530 -0.6058
  796SOL    HW2 2388   3.094   1.172   2.811  0.7525  0.0917 -0.4475
  797SOL     OW 2389   0.695   0.607   1.342  0.3074  0.8644  0.2549
  797SOL    HW1 2390   0.782   0.658   1.374  2.5345  0.3164  1.9212
  797SOL    HW2 2391   0.638   0.665   1.272 -1.4840 -1.5906 -0.8522
  798SOL     OW 2392   1.216   0.523   0.935 -0.2285  0.0211  1.1201
  798SOL    HW1 2393   1.236   0.604   0.997 -0.9222  3.4546  1.7233
  798SOL    HW2 2394   1.238   0.554   0.836  0.4269  0.0954 -0.4878
  799SOL     OW 2395   1.787   2.711   1.047 -0.0091 -0.1828  0.2507
  799SOL    HW1 2396   1.769   2.623   1.098 -3.5653 -0.5300  2.6063
  799SOL    HW2 2397   1.862   2.696   0.975  2.1199  0.7292 -0.2675
  800SOL     OW 2398   2.985   0.836   1.855 -0.3469 -0.1858 -0.1675
  800SOL    HW1 2399   3.021   0.936   1.866 -0.2634  0.4163 -0.2076
  800SOL    HW2 2400   2.952   0.801   1.951  0.2924  0.8361  0.9039
  801SOL     OW 2401   1.991   2.237   0.111  0.7909 -0.0883  0.0460
  801SOL    HW1 2402   1.982   2.308   0.035  0.9698  0.9488 -1.0038
  801SOL    HW2 2403   2.055   2.158   0.089  0.5465  0.7696 -0.1526
  802SOL     OW 2404   0.681   0.644   2.535  0.3968 -0.9214 -0.2411
  802SOL    HW1 2405   0.740   0.651   2.449 -0.5923 -1.0869 -0.3706
  802SOL    HW2 2406   0.579   0.623   2.514  0.9773 -1.0226 -0.4170
  803SOL     OW 2407   0.954   0.108   0.892 -0.2374 -0.5978  0.2328
  803SOL    HW1 2408   1.018   0.175   0.934  0.8412  1.0751  0.8136
  803SOL    HW2 2409   0.917   0.144   0.805  0.1228  2.2654 -0.2480
  804SOL     OW 2410   0.335   0.025   2.188  0.5248 -0.2362  0.6480
  804SOL    HW1 2411   0.323   0.124   2.222 -1.1411  0.7810  1.4788
  804SOL    HW2 2412   0.257  -0.001   2.119 -0.3145  0.8439 -1.2844
  805SOL     OW 2413   2.395   0.346   0.330 -0.2088 -0.5603 -0.5041
  805SOL    HW1 2414   2.479   0.348   0.394 -1.0208  0.9936 -2.7576
  805SOL    HW2 2415   2.407   0.282   0.246  1.5047  2.5554 -0.1923
  806SOL     OW 2416   0.635   2.662   1.969  0.2432 -0.0501  0.4739
  806SOL    HW1 2417   0.571   2.720   2.031  0.1357 -1.1969 -0.1932
  806SOL    HW2 2418   0.690   2.718   1.904  2.6808  0.7497  3.2208
  807SOL     OW 2419   2.550   0.912   0.510  0.8006  0.0021  0.1444
  807SOL    HW1 2420   2.629   0.850   0.523 -0.7672 -0.6624  0.1541
  807SOL    HW2 2421   2.553   0.952   0.411  0.6716  1.8584 -1.2721
  808SOL     OW 2422   0.699   2.021   2.907 -0.0653  0.0497 -0.6708
  808SOL    HW1 2423   0.616   2.049   2.956 -0.8230 -0.5956 -0.8924
  808SOL    HW2 2424   0.720   1.921   2.926 -1.6187 -0.9509  2.1103
  809SOL     OW 2425   2.554   2.008   1.908 -0.0410  0.4148  0.0266
  809SOL    HW1 2426   2.653   2.040   1.933 -1.5595  0.8495  5.1489
  809SOL    HW2 2427   2.534   2.003   1.806 -1.0562  1.2146 -1.1519
  810SOL     OW 2428   2.195   1.186   0.482  0.1517  0.3677  0.2893
  810SOL    HW1 2429   2.127   1.107   0.498 -1.3348  1.9541 -2.6542
  810SOL    HW2 2430   2.158   1.274   0.523  2.7919 -0.3613 -0.8685
  811SOL     OW 2431   1.244   2.517   1.157 -0.1293 -0.1049  0.7134
  811SOL    HW1 2432   1.220   2.420   1.187 -0.3027  3.4030  0.2336
  811SOL    HW2 2433   1.289   2.572   1.234  0.9345 -2.2809 -3.9306
  812SOL     OW 2434   1.457   0.758   1.996  0.1490 -0.1253  0.1690
  812SOL    HW1 2435   1.357   0.765   2.031  2.4034 -0.2156  0.7586
  812SOL    HW2 2436   1.491   0.848   1.953  1.6874 -2.2098 -1.8417
  813SOL     OW 2437   1.622   2.054   2.396 -0.3248  0.3065 -0.3176
  813SOL    HW1 2438   1.720   2.074   2.415 -1.2922 -0.5354  0.2895
  813SOL    HW2 2439   1.603   2.030   2.299  0.4484 -0.4175  1.9169
  814SOL     OW 2440   2.985   1.705   2.901 -0.4938 -0.0905  0.1227
  814SOL    HW1 2441   3.068   1.650   2.941  0.0551 -2.1906 -1.3285
  814SOL    HW2 2442   2.974   1.794   2.950 -0.1647 -0.6155 -0.6095
  815SOL     OW 2443   2.164   2.875   2.722 -0.3813  0.4659  0.2997
  815SOL    HW1 2444   2.126   2.796   2.779 -1.1238 -1.2526  2.3933
  815SOL    HW2 2445   2.258   2.907   2.756  0.6293 -0.1171 -1.0940
  816SOL     OW 2446   1.489   0.417   1.672  0.5399  0.5736  0.4181
  816SOL    HW1 2447   1.542   0.326   1.664  0.1456 -1.1188 -2.7785
  816SOL    HW2 2448   1.434   0.428   1.760  1.3749  2.1599 -1.2166
  817SOL     OW 2449   0.367   1.255   2.553  0.3042 -0.0130  0.2851
  817SOL    HW1 2450   0.267   1.269   2.542 -0.7309  0.4559 -2.3548
  817SOL    HW2 2451   0.428   1.304   2.486  1.4297 -2.2452 -1.3062
  818SOL     OW 2452   1.997   0.778   0.457 -0.4751 -0.2423  0.4920
  818SOL    HW1 2453   2.095   0.798   0.435  0.4899  2.5663  1.2330
  818SOL    HW2 2454   1.973   0.819   0.549 -2.1363 -0.9355  0.8513
  819SOL     OW 2455   2.805   2.896   3.010  0.5898 -0.5582 -0.0167
  819SOL    HW1 2456   2.896   2.844   2.989  0.8189  0.5478  1.3186
  819SOL    HW2 2457   2.716   2.849   2.986  4.9759  2.1756  0.7984
  820SOL     OW 2458   1.203   1.087   0.565 -0.6445 -0.5457 -0.2184
  820SOL    HW1 2459   1.264   1.166   0.577  2.1818 -0.5913 -0.8632
  820SOL    HW2 2460   1.211   1.014   0.634  1.8131 -2.9159 -1.4040
  821SOL     OW 2461   0.024   1.228   0.755  0.5888 -0.2938  0.6027
  821SOL    HW1 2462  -0.023   1.233   0.849 -1.1790 -1.9537 -1.9400
  821SOL    HW2 2463   0.073   1.311   0.719  0.2663  0.5640  0.8989
  822SOL     OW 2464   2.569   1.772   2.452 -0.0145 -0.1750 -0.1776
  822SOL    HW1 2465   2.543   1.836   2.532 -0.7754  1.9183  0.1510
  822SOL    HW2 2466   2.487   1.758   2.392  0.7821 -1.3529 -0.5368
  823SOL     OW 2467   2.001   0.905   1.201  0.4392 -0.3485  0.0373
  823SOL    HW1 2468   1.981   0.897   1.303  2.3613 -1.8001  3.8100
  823SOL    HW2 2469   1.964   0.824   1.147 -1.3248 -0.7044  0.4647
  824SOL     OW 2470   0.210   1.813   2.852  0.1981 -0.5189  0.1389
  824SOL    HW1 2471   0.183   1.826   2.952 -0.4762 -1.3018 -1.6781
  824SOL    HW2 2472   0.269   1.890   2.816 -1.8752  0.8626  2.6126
  825SOL     OW 2473   1.261   1.030   0.281 -0.1592 -0.2848  0.0247
  825SOL    HW1 2474   1.291   1.127   0.250 -1.5411  2.9398  0.6879
  825SOL    HW2 2475   1.255   1.028   0.383  0.0956  0.7729 -0.7537
  826SOL     OW 2476   1.977   0.670   1.605  0.1321  0.3083  0.3664
  826SOL    HW1 2477   2.055   0.602   1.606  1.2188 -0.0039  1.0008
  826SOL    HW2 2478   1.895   0.619   1.564 -0.6691  1.1698 -0.7550
  827SOL     OW 2479   0.733   1.210   0.514 -0.0787  0.1293 -0.3116
  827SOL    HW1 2480   0.808   1.142   0.493  0.5101 -0.5855  0.7924
  827SOL    HW2 2481   0.642   1.168   0.500 -0.0948 -0.0421  0.3949
  828SOL     OW 2482   2.728   0.164   1.638  0.6154 -0.3040  0.5166
  828SOL    HW1 2483   2.640   0.154   1.583  2.1242 -2.9679 -0.8017
  828SOL    HW2 2484   2.714   0.145   1.743 -1.7065  1.3225  1.2611
  829SOL     OW 2485   2.904   2.368   2.880  0.4428  0.2441  0.3082
  829SOL    HW1 2486   2.814   2.342   2.931  0.7490 -1.5506  2.8481
  829SOL    HW2 2487   2.937   2.464   2.897  0.8804  0.5491 -4.4389
  830SOL     OW 2488   2.980   0.936   2.960  0.5783  0.2298  0.0801
  830SOL    HW1 2489   2.978   1.036   2.990  1.1303  0.1902 -1.1444
  830SOL    HW2 2490   2.959   0.867   3.036  0.7265 -2.0770 -1.1633
  831SOL     OW 2491   3.097   0.582   0.449 -0.5578 -0.2507 -0.3231
  831SOL    HW1 2492   3.100   0.532   0.541 -0.0780 -2.7163 -1.3397
  831SOL    HW2 2493   3.141   0.533   0.368  0.2024  2.3216 -1.3149
  832SOL     OW 2494   1.795   0.719   0.040  0.0259 -0.5144  0.2025
  832SOL    HW1 2495   1.709   0.763   0.006  1.0905 -1.1902  1.3857
  832SOL    HW2 2496   1.796   0.620   0.004  2.8182  1.4348 -0.8600
  833SOL     OW 2497   2.363   2.124   0.537  0.1570  0.0625 -0.9721
  833SOL    HW1 2498   2.269   2.085   0.511 -0.8817  0.0509  1.8065
  833SOL    HW2 2499   2.445   2.064   0.506  0.8959  2.2247  1.0393
  834SOL     OW 2500   0.070   0.073   0.575 -0.4906  0.1834 -0.0575
  834SOL    HW1 2501   0.157   0.032   0.534  0.6465 -0.9255 -1.5387
  834SOL    HW2 2502   0.013   0.131   0.508  0.0927 -0.6903  1.5793
  835SOL     OW 2503   2.500   1.701   1.103  0.6780  0.1734 -0.1102
  835SOL    HW1 2504   2.538   1.625   1.164 -2.9137  1.0466 -0.8717
  835SOL    HW2 2505   2.570   1.767   1.063  1.4596  1.1013 -2.8120
  836SOL     OW 2506   1.555   0.863   2.600  0.3656  0.3136 -0.8032
  836SOL    HW1 2507   1.451   0.872   2.600  1.1848 -0.0115  2.1794
  836SOL    HW2 2508   1.594   0.913   2.524 -0.4701 -0.0272  1.0125
  837SOL     OW 2509   1.677   0.063   0.585 -0.2445 -0.5475  1.0098
  837SOL    HW1 2510   1.647   0.153   0.628  2.1099 -1.2383 -0.9438
  837SOL    HW2 2511   1.608   0.035   0.512 -1.8533  1.4110  2.1569
  838SOL     OW 2512   1.185   1.429   2.689  0.5385 -0.8043 -0.3331
  838SOL    HW1 2513   1.181   1.492   2.773  4.1567  1.0024 -2.0771
  838SOL    HW2 2514   1.098   1.413   2.633  0.0032 -0.1675 -1.3000
  839SOL     OW 2515   1.662   0.397   0.958 -0.3999 -0.0251  0.4657
  839SOL    HW1 2516   1.618   0.480   1.004  0.2658  0.7660  0.4532
  839SOL    HW2 2517   1.618   0.297   0.971 -2.2749  0.4171 -0.4179
  840SOL     OW 2518   2.660   2.956   1.637 -0.1710 -0.0400  0.2011
  840SOL    HW1 2519   2.619   3.051   1.643  0.3629 -0.2197 -0.9727
  840SOL    HW2 2520   2.653   2.901   1.723  1.9856  1.5790 -0.8680
  841SOL     OW 2521   1.539   0.837   3.073 -0.3181  0.2164 -0.3158
  841SOL    HW1 2522   1.441   0.847   3.119 -1.8892 -0.2402  1.8922
  841SOL    HW2 2523   1.534   0.897   2.984  0.9462  1.1760 -2.0033
  842SOL     OW 2524   0.805   1.621   1.019 -0.2255  0.1109  0.2532
  842SOL    HW1 2525   0.767   1.715   1.045  0.1754 -0.9825  1.5629
  842SOL    HW2 2526   0.731   1.564   0.965 -1.7694 -1.6290  0.9627
  843SOL     OW 2527   0.121   0.092   1.443 -0.5625 -0.2817  0.1728
  843SOL    HW1 2528   0.207   0.126   1.487 -2.0851  0.8460  0.8181
  843SOL    HW2 2529   0.131  -0.004   1.401  0.2599  1.5430 -0.6598
  844SOL     OW 2530   0.715   2.441   0.209  0.7089 -0.0146 -0.0642
  844SOL    HW1 2531   0.675   2.497   0.287 -0.4748 -0.2311 -0.4330
  844SOL    HW2 2532   0.673   2.458   0.116  0.0911  1.5330 -0.5001
  845SOL     OW 2533   1.742   0.008   1.293 -0.6174  0.6350  0.3897
  845SOL    HW1 2534   1.724  -0.002   1.396 -0.6680  0.1328  1.3412
  845SOL    HW2 2535   1.732   0.103   1.259  1.3843 -2.4148  1.7756
  846SOL     OW 2536   1.692   3.006   0.889  0.0681  0.0085 -0.2286
  846SOL    HW1 2537   1.696   2.993   0.789 -0.5154 -0.9831 -0.1451
  846SOL    HW2 2538   1.767   2.963   0.943  2.9520  0.0541  2.1995
  847SOL     OW 2539   2.071   1.579   0.188 -0.0715 -0.6252  0.3764
  847SOL    HW1 2540   2.024   1.520   0.257 -1.4933 -0.2416  1.2601
  847SOL    HW2 2541   2.030   1.570   0.091  0.0097  0.3988  2.7687
  848SOL     OW 2542   2.484   0.799   2.649  0.2918 -0.0694  0.4594
  848SOL    HW1 2543   2.448   0.900   2.656 -1.9464  0.2586 -2.2286
  848SOL    HW2 2544   2.407   0.740   2.607 -1.6340  1.8062  1.8408
  849SOL     OW 2545   2.360   0.836   2.283 -0.4495 -0.0215 -0.1190
  849SOL    HW1 2546   2.427   0.804   2.205  0.3564 -0.5362  1.1304
  849SOL    HW2 2547   2.348   0.762   2.353 -1.1404 -0.3155  3.9306
  850SOL     OW 2548   1.503   0.248   1.260  0.1674 -0.3466  0.0921
  850SOL    HW1 2549   1.507   0.230   1.159  1.8724  0.9157  2.2132
  850SOL    HW2 2550   1.498   0.163   1.321  0.3851 -0.7813  0.3291
  851SOL     OW 2551   0.444   1.672   0.624 -0.3830 -0.0907  0.6854
  851SOL    HW1 2552   0.464   1.777   0.636 -0.1453  1.8745  0.0228
  851SOL    HW2 2553   0.532   1.617   0.609  0.4854  1.5819 -1.7265
  852SOL     OW 2554   0.852   2.176   1.790  0.1009 -0.5497  0.2171
  852SOL    HW1 2555   0.818   2.241   1.714  0.1645  3.4267 -3.4091
  852SOL    HW2 2556   0.784   2.162   1.871  1.5291  1.2956  0.1463
  853SOL     OW 2557   2.528   1.502   2.594 -0.1937 -0.0902 -0.1046
  853SOL    HW1 2558   2.492   1.412   2.550 -1.2946  1.3284  0.1564
  853SOL    HW2 2559   2.599   1.558   2.535  1.5841 -0.5419 -0.2960
  854SOL     OW 2560   2.440   1.471   1.743 -0.5715  0.4003  0.2759
  854SOL    HW1 2561   2.511   1.453   1.668 -1.5332  2.1334 -0.7571
  854SOL    HW2 2562   2.380   1.384   1.746  1.3074  0.4842 -3.6372
  855SOL     OW 2563   2.043   2.340   0.958  0.4404  0.3801  0.2292
  855SOL    HW1 2564   2.084   2.432   0.927  0.1732  2.0555 -0.9369
  855SOL    HW2 2565   2.094   2.307   1.048 -0.0814 -0.8517  2.3776
  856SOL     OW 2566   1.416   1.453   0.829 -0.0668  0.1104 -0.1502
  856SOL    HW1 2567   1.427   1.553   0.847  0.5102 -0.6000  0.8304
  856SOL    HW2 2568   1.357   1.411   0.904  0.2872 -4.2057  0.3510
  857SOL     OW 2569   2.920   2.517   1.063  0.0332  0.2690 -0.0664
  857SOL    HW1 2570   2.870   2.434   1.097  1.6926  0.3206  0.6860
  857SOL    HW2 2571   2.975   2.503   0.977 -2.0243  3.2968  0.2776
  858SOL     OW 2572   2.292   2.126   1.778  0.2606 -0.3122  0.0563
  858SOL    HW1 2573   2.201   2.143   1.731  3.1648 -2.0702  0.5220
  858SOL    HW2 2574   2.352   2.070   1.712 -1.1576 -0.4550 -1.3601
  859SOL     OW 2575   2.447   0.423   1.036  0.3264  0.3681  0.3274
  859SOL    HW1 2576   2.526   0.462   0.976  4.6803 -2.5214 -1.4450
  859SOL    HW2 2577   2.478   0.336   1.084  2.3669  2.6700  1.5200
  860SOL     OW 2578   1.863   2.782   0.533  0.4499  0.1191  0.1081
  860SOL    HW1 2579   1.917   2.736   0.458 -1.5763  2.2045 -0.5700
  860SOL    HW2 2580   1.896   2.879   0.554  3.9428 -0.5000 -1.8052
  861SOL     OW 2581   0.986   2.584   2.810  0.1184  0.5751  0.8033
  861SOL    HW1 2582   1.048   2.666   2.825  1.7189 -2.1640 -1.5148
  861SOL    HW2 2583   0.958   2.537   2.900 -0.7764 -0.6777 -0.2206
  862SOL     OW 2584   2.964   2.557   1.555 -0.3024 -0.7068  0.8568
  862SOL    HW1 2585   3.011   2.595   1.641 -0.0890  1.1244  0.6358
  862SOL    HW2 2586   2.866   2.592   1.545  0.3268 -3.1906  0.4099
  863SOL     OW 2587   1.895   2.661   0.215  0.2076  0.4937 -0.7783
  863SOL    HW1 2588   1.963   2.586   0.235  4.2255  2.8511 -1.0654
  863SOL    HW2 2589   1.804   2.628   0.181  2.6701  2.9293  0.4039
  864SOL     OW 2590   1.918   1.107   2.993  0.2214 -0.3240 -0.2571
  864SOL    HW1 2591   1.926   1.083   2.891 -1.0744  1.1460  0.7744
  864SOL    HW2 2592   2.007   1.088   3.043 -0.0719  1.3886  2.0521
  865SOL     OW 2593   2.175   1.697   0.597  0.3685  0.4330  0.1147
  865SOL    HW1 2594   2.163   1.737   0.692  0.6841 -3.4232  0.2840
  865SOL    HW2 2595   2.144   1.600   0.594  1.5999 -0.3468  3.7975
  866SOL     OW 2596   2.923   2.813   1.026  0.5933 -0.5339 -0.1754
  866SOL    HW1 2597   2.990   2.837   0.950  0.6250  1.0377 -0.3510
  866SOL    HW2 2598   2.917   2.715   1.051 -0.0090 -2.2875 -1.1407
  867SOL     OW 2599   0.412   1.365   0.830 -0.5147 -0.4330 -0.0476
  867SOL    HW1 2600   0.437   1.265   0.810 -1.9046  2.4526 -0.2423
  867SOL    HW2 2601   0.335   1.392   0.771 -1.5837  0.2111  0.6598
  868SOL     OW 2602   0.843   1.895   2.014  0.2074  0.1340  0.0514
  868SOL    HW1 2603   0.831   1.839   2.104 -1.6407  1.7986  2.5861
  868SOL    HW2 2604   0.816   1.996   2.023 -1.2376  3.9005  0.4944
  869SOL     OW 2605   2.540   1.956   1.630 -0.1808 -0.4592 -0.3244
  869SOL    HW1 2606   2.606   1.881   1.650 -1.5418 -0.0177 -0.7383
  869SOL    HW2 2607   2.493   1.956   1.540 -0.0385 -1.4453 -1.4977
  870SOL     OW 2608   2.366   2.524   1.246 -0.8866 -0.4723  0.4754
  870SOL    HW1 2609   2.309   2.447   1.203 -1.3403  0.2047 -1.2932
  870SOL    HW2 2610   2.445   2.497   1.307  2.7007 -1.6780 -0.0609
  871SOL     OW 2611   3.003   1.994   0.529 -0.6090  0.1739 -0.0619
  871SOL    HW1 2612   2.949   2.073   0.488 -1.1534 -1.7955 -0.7761
  871SOL    HW2 2613   2.973   1.908   0.486 -0.2205  0.6028 -1.7711
  872SOL     OW 2614   2.194   0.521   1.707  0.1075  0.3041  0.1114
  872SOL    HW1 2615   2.191   0.541   1.811  1.6102  2.4543  4.0527
  872SOL    HW2 2616   2.287   0.479   1.674  0.3187 -1.9626  0.0778
  873SOL     OW 2617   1.692   2.088   2.869 -0.2972  0.5511  0.3094
  873SOL    HW1 2618   1.668   2.188   2.900 -3.9024 -0.8805  0.4708
  873SOL    HW2 2619   1.630   2.060   2.784  1.7704  2.5322 -1.3614
  874SOL     OW 2620   0.596   2.514   0.755 -0.5221 -0.5938  0.1586
  874SOL    HW1 2621   0.621   2.616   0.772 -3.3968 -1.3108  2.0641
  874SOL    HW2 2622   0.686   2.463   0.745  0.1504 -1.3867 -1.6406
  875SOL     OW 2623   2.337   1.554   1.444 -0.2534  0.1054 -0.1882
  875SOL    HW1 2624   2.420   1.589   1.493  1.7373  0.2841 -2.0535
  875SOL    HW2 2625   2.326   1.590   1.344 -0.3967  0.2513 -1.0575
  876SOL     OW 2626   0.148   2.242   2.744  0.6654  0.7078 -0.0345
  876SOL    HW1 2627   0.184   2.174   2.811 -0.3894  2.7471 -0.6635
  876SOL    HW2 2628   0.195   2.330   2.757  0.7788 -4.3513  1.1488
  877SOL     OW 2629   2.806   2.666   0.609  0.7590 -0.0492  0.0328
  877SOL    HW1 2630   2.797   2.770   0.620 -0.0683 -1.5694  1.7533
  877SOL    HW2 2631   2.901   2.637   0.639 -3.9679 -1.8988  0.1397
  878SOL     OW 2632   2.750   1.507   2.317 -0.1242 -0.4064  1.1521
  878SOL    HW1 2633   2.734   1.610   2.312 -0.2564 -1.3164  0.3758
  878SOL    HW2 2634   2.772   1.478   2.415  0.5603 -0.0657  0.0976
  879SOL     OW 2635   2.435   3.044   1.265  0.1536  0.0124 -0.2238
  879SOL    HW1 2636   2.477   2.946   1.258  1.0945 -1.4718 -1.4476
  879SOL    HW2 2637   2.335   3.051   1.246 -0.2390 -0.3156  0.3373
  880SOL     OW 2638   0.585   0.498   2.227  0.2602 -0.0735 -0.3776
  880SOL    HW1 2639   0.547   0.454   2.311  3.2587 -0.8002 -2.9687
  880SOL    HW2 2640   0.564   0.434   2.144 -1.6070 -1.4348  1.5137
  881SOL     OW 2641   0.863   0.080   0.465  0.4173  0.0458 -0.0276
  881SOL    HW1 2642   0.926  -0.002   0.468  0.3924 -1.1599  0.1500
  881SOL    HW2 2643   0.829   0.102   0.368  1.4307  1.0073 -0.5472
  882SOL     OW 2644   2.752   1.789   1.673 -0.1430  0.2330 -0.1764
  882SOL    HW1 2645   2.809   1.709   1.636 -2.0350  1.8133 -2.1092
  882SOL    HW2 2646   2.734   1.776   1.775  1.2670  1.6415  2.8260
  883SOL     OW 2647   0.936   0.588   0.971  0.2422 -0.6155 -0.3781
  883SOL    HW1 2648   0.918   0.630   1.063 -2.0212 -0.1162 -1.8087
  883SOL    HW2 2649   1.024   0.532   0.964  0.6589 -0.6388  2.2771
  884SOL     OW 2650   1.166   1.921   1.066 -0.2498  0.1648 -0.0400
  884SOL    HW1 2651   1.144   1.886   0.970  0.6741  1.2004  1.1969
  884SOL    HW2 2652   1.088   1.975   1.107 -2.0781 -1.0780 -1.5708
  885SOL     OW 2653   2.320   1.793   2.309 -0.1584 -0.2175 -0.4941
  885SOL    HW1 2654   2.243   1.775   2.376 -0.1219 -1.4339  4.3374
  885SOL    HW2 2655   2.341   1.894   2.311  0.3931  0.2343  0.5849
  886SOL     OW 2656   2.687   0.459   1.809 -0.2463  0.0440  0.1619
  886SOL    HW1 2657   2.727   0.384   1.867 -1.4429  2.6228 -2.9917
  886SOL    HW2 2658   2.759   0.525   1.782 -0.2926 -0.3282  0.5795
  887SOL     OW 2659   0.199   2.060   1.305  0.1539 -0.4008 -0.5859
  887SOL    HW1 2660   0.152   2.013   1.223 -0.3278 -3.0979  1.5311
  887SOL    HW2 2661   0.182   2.161   1.316  1.3229 -0.4137 -0.2928
  888SOL     OW 2662   0.584   1.299   1.498 -0.2760  0.2661 -0.0448
  888SOL    HW1 2663   0.648   1.335   1.426 -0.3648  2.1963  0.9252
  888SOL    HW2 2664   0.541   1.208   1.458 -0.3384  2.9609 -3.4714
  889SOL     OW 2665   0.833   2.401   2.133  0.0387  0.0490  0.2845
  889SOL    HW1 2666   0.751   2.395   2.066  1.2219 -1.8878 -1.6514
  889SOL    HW2 2667   0.918   2.424   2.076 -2.0589 -1.7105 -0.6243
  890SOL     OW 2668   2.329   2.428   0.176 -0.2858 -0.0348  0.8749
  890SOL    HW1 2669   2.372   2.469   0.091 -0.7121 -3.1380  0.5048
  890SOL    HW2 2670   2.237   2.470   0.197 -2.6118 -1.8876  0.0022
  891SOL     OW 2671   2.585   1.661   0.714  0.4419  0.5910 -0.0788
  891SOL    HW1 2672   2.574   1.578   0.774  1.3120  1.2136  0.9409
  891SOL    HW2 2673   2.514   1.657   0.638  0.3518 -0.8465 -0.2511
  892SOL     OW 2674   0.311   0.290   2.239 -0.0742 -0.3164  0.2663
  892SOL    HW1 2675   0.318   0.346   2.150 -0.2569  3.1953 -0.2907
  892SOL    HW2 2676   0.383   0.331   2.299  0.9093 -0.9535 -0.1391
  893SOL     OW 2677   1.622   0.239   2.679 -0.0936  0.0161  0.0325
  893SOL    HW1 2678   1.698   0.305   2.709  4.5983 -2.0170  0.0239
  893SOL    HW2 2679   1.523   0.278   2.669  0.7137 -0.1847 -0.4807
  894SOL     OW 2680   2.168   2.035   0.064 -0.5676  1.2951 -0.3470
  894SOL    HW1 2681   2.139   1.971  -0.015  0.4672 -1.4996 -2.2725
  894SOL    HW2 2682   2.164   1.979   0.151 -0.5483 -0.8824 -0.1294
  895SOL     OW 2683   2.840   1.406   0.828 -0.2838 -0.3340  0.4897
  895SOL    HW1 2684   2.892   1.346   0.894 -0.8082 -1.4645 -2.0704
  895SOL    HW2 2685   2.899   1.490   0.792  2.1048 -0.8720 -1.1213
  896SOL     OW 2686   1.696   1.799   1.183  0.3431 -0.3430 -0.4501
  896SOL    HW1 2687   1.769   1.836   1.115  0.2264 -0.1458  0.1593
  896SOL    HW2 2688   1.601   1.824   1.149 -0.2303  2.0472  0.5546
  897SOL     OW 2689   0.330   0.513   3.050 -0.0148 -0.2730  0.3847
  897SOL    HW1 2690   0.274   0.528   2.964 -0.7760 -1.4590 -1.5074
  897SOL    HW2 2691   0.407   0.585   3.057  0.0822 -0.6627  0.0936
  898SOL     OW 2692   0.559   2.923   1.008  0.7227  0.2761 -0.6522
  898SOL    HW1 2693   0.487   2.916   1.083  0.9558 -0.9401 -0.4639
  898SOL    HW2 2694   0.640   2.986   1.028  1.2254  2.4012 -0.1167
  899SOL     OW 2695   2.718   0.926   1.283 -0.1929  0.2000 -0.0952
  899SOL    HW1 2696   2.705   0.913   1.183 -0.8317  2.2737  3.6646
  899SOL    HW2 2697   2.815   0.952   1.300  0.2487 -1.3526 -1.2078
  900SOL     OW 2698   0.991   2.337   2.377  0.4429  0.7079  0.2827
  900SOL    HW1 2699   0.933   2.379   2.304 -0.8742  1.0461  1.8135
  900SOL    HW2 2700   0.945   2.353   2.470 -0.5974  0.0134 -0.5072
  901SOL     OW 2701   2.009   2.480   1.353  0.0435 -0.1138 -0.1010
  901SOL    HW1 2702   1.949   2.453   1.270  0.1977 -0.0536 -0.5931
  901SOL    HW2 2703   2.079   2.410   1.370  1.0726  1.6490 -2.1145
  902SOL     OW 2704   2.571   1.695   1.486 -0.3612 -0.3514 -0.1827
  902SOL    HW1 2705   2.626   1.728   1.562 -0.5216 -0.6300  0.1374
  902SOL    HW2 2706   2.624   1.646   1.415  2.3613  1.8235  0.9070
  903SOL     OW 2707   0.282   2.436   2.003 -0.0837  0.6368 -0.4736
  903SOL    HW1 2708   0.189   2.413   2.038 -1.1235 -0.3576 -1.9499
  903SOL    HW2 2709   0.274   2.493   1.917  0.0049 -1.4726  2.6960
  904SOL     OW 2710   2.014   0.764   2.600 -0.3351 -0.0502  0.3371
  904SOL    HW1 2711   1.924   0.739   2.656 -2.7791  0.5347  0.4882
  904SOL    HW2 2712   1.998   0.766   2.497  1.6030 -2.0149 -3.3378
  905SOL     OW 2713   2.788   0.031   2.533  0.0118  0.2315  0.2732
  905SOL    HW1 2714   2.872  -0.002   2.593  1.4812 -0.3909  0.3676
  905SOL    HW2 2715   2.800   0.134   2.513 -0.4352  1.2037 -0.5258
  906SOL     OW 2716   0.122   1.843   1.943 -0.3172  0.4035  0.0021
  906SOL    HW1 2717   0.086   1.843   1.844  0.6887  1.8578 -0.4508
  906SOL    HW2 2718   0.225   1.851   1.943 -2.6452 -0.3910 -3.3482
  907SOL     OW 2719   0.188   2.386   1.055  0.0637 -0.1280  0.3486
  907SOL    HW1 2720   0.275   2.443   1.046 -1.2875 -1.4167 -0.2625
  907SOL    HW2 2721   0.171   2.324   0.976  0.3061  0.9014 -0.5984
  908SOL     OW 2722   2.701   2.831   0.380 -0.1006 -0.5588 -0.3486
  908SOL    HW1 2723   2.711   2.890   0.297  0.8013  0.9877  0.6377
  908SOL    HW2 2724   2.670   2.735   0.365  0.2124  0.6694 -2.6375
  909SOL     OW 2725   0.694   0.902   2.636 -0.3798  0.2371  0.1974
  909SOL    HW1 2726   0.684   0.803   2.619 -1.4644  0.7694  4.8011
  909SOL    HW2 2727   0.750   0.948   2.561  1.3498  0.0941  0.2329
  910SOL     OW 2728   1.734   1.801   2.078 -0.1431  0.5360  0.4275
  910SOL    HW1 2729   1.803   1.824   2.000 -1.8564 -0.9402 -1.3399
  910SOL    HW2 2730   1.686   1.886   2.117 -0.0944  0.1642  0.4664
  911SOL     OW 2731   1.748   3.048   1.584  0.0712  0.1963  0.0061
  911SOL    HW1 2732   1.836   2.992   1.550  2.6978 -0.3695  1.9326
  911SOL    HW2 2733   1.712   3.004   1.673 -0.4108 -0.5705 -2.1633
  912SOL     OW 2734   2.860   0.952   0.776  0.1905  0.3382  0.2897
  912SOL    HW1 2735   2.881   0.931   0.877  0.6715  0.0189 -0.2772
  912SOL    HW2 2736   2.792   1.028   0.761 -0.0696 -0.5841 -0.8980
  913SOL     OW 2737   2.576   1.283   1.546  0.4725  0.1300 -0.8214
  913SOL    HW1 2738   2.551   1.184   1.566 -0.6226 -0.4515  0.5874
  913SOL    HW2 2739   2.624   1.303   1.455 -0.8341 -1.7381 -0.0029
  914SOL     OW 2740   2.805   0.481   1.302 -0.5353  0.0946  0.6123
  914SOL    HW1 2741   2.814   0.386   1.345 -0.1175 -0.5005 -2.6264
  914SOL    HW2 2742   2.772   0.554   1.364 -3.4329 -1.8507 -2.5526
  915SOL     OW 2743   1.184   0.814   1.042 -0.3603 -0.1445  0.2542
  915SOL    HW1 2744   1.254   0.830   1.112 -1.9601 -0.5455 -3.0711
  915SOL    HW2 2745   1.090   0.803   1.082 -1.0585 -1.7249  0.4596
  916SOL     OW 2746   0.600   0.032   0.590  0.2364 -0.1006 -0.3230
  916SOL    HW1 2747   0.592   0.091   0.677  0.3016  1.1149 -0.0873
  916SOL    HW2 2748   0.641   0.079   0.508  1.2438 -0.4219  0.5382
  917SOL     OW 2749   2.733   2.594   1.880  0.2333  0.1527 -0.1785
  917SOL    HW1 2750   2.690   2.679   1.908 -0.1840  3.1915 -1.0501
  917SOL    HW2 2751   2.792   2.618   1.799 -2.2488 -1.0870 -0.6906
  918SOL     OW 2752   1.075   2.187   3.087  0.5268  0.4452 -0.0347
  918SOL    HW1 2753   1.052   2.212   3.189  1.0800  0.7980 -0.1331
  918SOL    HW2 2754   1.082   2.084   3.076  0.8549  0.6945 -2.6175
  919SOL     OW 2755   0.897   1.573   2.776 -0.0554  0.2996  0.3438
  919SOL    HW1 2756   0.907   1.645   2.701  0.4325  3.1085  0.4637
  919SOL    HW2 2757   0.856   1.481   2.748 -0.4174 -0.1743 -0.3007
  920SOL     OW 2758   1.220   2.037   2.465  0.0730 -1.0849 -0.1181
  920SOL    HW1 2759   1.187   2.037   2.366 -1.5839  0.3571  0.5089
  920SOL    HW2 2760   1.252   1.945   2.491 -2.0072  0.8223  2.2880
  921SOL     OW 2761   1.039   0.090   2.554 -0.0229  0.2781 -0.4070
  921SOL    HW1 2762   1.024   0.041   2.467 -1.3277  0.8300  2.8146
  921SOL    HW2 2763   1.012   0.192   2.544 -3.0899 -0.8683 -1.4066
  922SOL     OW 2764   2.116   2.429   2.784  0.8525  0.0258  0.3495
  922SOL    HW1 2765   2.103   2.325   2.777  0.5557  0.5436  1.1274
  922SOL    HW2 2766   2.094   2.481   2.693  1.4255  2.8374 -1.0628
  923SOL     OW 2767   1.197   2.732   0.224  0.4162  0.2037 -0.0960
  923SOL    HW1 2768   1.289   2.768   0.254 -0.5941 -0.0695  1.3560
  923SOL    HW2 2769   1.209   2.635   0.185  0.9098  0.6530  4.1563
  924SOL     OW 2770   2.893   1.586   0.071  0.8208  0.5645  0.0578
  924SOL    HW1 2771   2.809   1.621   0.022  1.6977 -0.4314 -2.2964
  924SOL    HW2 2772   2.969   1.555   0.004  0.6204 -1.6453 -0.7462
  925SOL     OW 2773   0.079   2.894   1.622  0.0784 -0.0934  0.5055
  925SOL    HW1 2774  -0.019   2.929   1.638 -4.2974 -0.8531 -1.2654
  925SOL    HW2 2775   0.104   2.896   1.519  2.3797  1.7657  0.6264
  926SOL     OW 2776   1.414   2.910   1.265  0.0936  0.3656 -0.4547
  926SOL    HW1 2777   1.454   2.895   1.170  1.3913 -1.6301 -0.7018
  926SOL    HW2 2778   1.407   3.012   1.296 -0.5910  1.2411  0.9981
  927SOL     OW 2779   0.237   2.576   1.757  0.0281  0.4904 -0.2152
  927SOL    HW1 2780   0.184   2.518   1.690 -1.0066  3.5724  0.4838
  927SOL    HW2 2781   0.294   2.647   1.712 -1.1577 -0.0088 -1.4891
  928SOL     OW 2782   1.605   2.042   2.128  0.0381  0.2768  0.4638
  928SOL    HW1 2783   1.636   2.144   2.113  1.7828  1.1360 -0.1690
  928SOL    HW2 2784   1.508   2.016   2.093  2.4366 -1.4549 -0.5421
  929SOL     OW 2785   2.385   2.423   2.847  0.1063 -0.2124  0.6189
  929SOL    HW1 2786   2.281   2.418   2.852  1.3810  0.2241  1.2356
  929SOL    HW2 2787   2.420   2.424   2.750  0.4731  0.7560  0.6199
  930SOL     OW 2788   2.193   1.982   1.103 -0.4101  0.4503 -0.2542
  930SOL    HW1 2789   2.185   1.939   1.197 -1.7602 -2.0095 -1.8310
  930SOL    HW2 2790   2.269   2.054   1.097 -0.0859 -1.0950 -2.5039
  931SOL     OW 2791   0.564   1.755   2.678 -0.4532  0.1753 -0.3335
  931SOL    HW1 2792   0.621   1.723   2.762  0.1206 -2.6852 -1.8415
  931SOL    HW2 2793   0.575   1.693   2.598 -0.8451 -0.7711  4.2107
  932SOL     OW 2794   0.503   0.107   2.928 -0.0174  0.3467  0.7009
  932SOL    HW1 2795   0.593   0.132   2.882 -0.5023 -2.5718  0.3909
  932SOL    HW2 2796   0.503   0.008   2.965  1.2577 -0.2551  1.2678
  933SOL     OW 2797   1.075   0.781   2.974 -0.3100 -0.6400  0.4169
  933SOL    HW1 2798   1.159   0.812   3.025  0.6538  0.9110 -1.1265
  933SOL    HW2 2799   1.013   0.859   2.959 -0.1563  0.4638  1.1750
  934SOL     OW 2800   0.873   2.976   2.795 -0.0267  0.2978  0.5821
  934SOL    HW1 2801   0.967   2.940   2.784  3.6188 -1.0302  0.3280
  934SOL    HW2 2802   0.837   2.946   2.887 -2.8512  0.4160 -0.7990
  935SOL     OW 2803   3.052   0.526   0.919 -0.1263  0.1922 -0.5639
  935SOL    HW1 2804   3.047   0.459   0.837 -1.5218 -0.7055 -4.6481
  935SOL    HW2 2805   2.969   0.588   0.935 -1.5060 -0.5524  0.1159
  936SOL     OW 2806   1.130   3.000   0.165  0.4330  0.0132  0.1426
  936SOL    HW1 2807   1.164   3.028   0.068  0.5487 -0.5505 -1.8898
  936SOL    HW2 2808   1.149   2.904   0.193 -1.2032  1.7677 -0.9912
  937SOL     OW 2809   1.940   2.700   2.100 -0.4578  0.4769 -0.1612
  937SOL    HW1 2810   1.848   2.718   2.140  2.8125 -1.1828  0.1600
  937SOL    HW2 2811   1.947   2.705   1.996  2.3358  0.6667  0.3176
  938SOL     OW 2812   2.731   2.211   1.524  0.1161  0.3319 -0.1582
  938SOL    HW1 2813   2.646   2.240   1.575 -0.6729  2.0781 -1.3139
  938SOL    HW2 2814   2.785   2.135   1.576 -1.3624  0.4756  2.6616
  939SOL     OW 2815   2.745   0.979   2.516  0.4423 -0.0651  0.2805
  939SOL    HW1 2816   2.813   0.904   2.523  0.4871 -1.1045 -0.4108
  939SOL    HW2 2817   2.715   1.009   2.611 -0.0494 -2.5806 -0.8667
  940SOL     OW 2818   1.050   0.453   2.662 -0.5109 -0.5389  0.2834
  940SOL    HW1 2819   1.115   0.381   2.685  0.6754  1.7043 -3.2373
  940SOL    HW2 2820   0.954   0.423   2.648  3.0745  0.8534 -1.7359
  941SOL     OW 2821   0.066   2.856   2.213 -0.0312  0.0922 -0.4069
  941SOL    HW1 2822   0.046   2.756   2.193  1.5555  0.7551 -0.2646
  941SOL    HW2 2823   0.153   2.863   2.267 -0.8670  0.3335  0.3376
  942SOL     OW 2824   0.102   0.084   2.516  0.1298 -0.0111 -0.5275
  942SOL    HW1 2825   0.176   0.112   2.581  1.2304 -2.5026  2.5693
  942SOL    HW2 2826   0.079   0.161   2.451 -0.5000  0.0183  1.1644
  943SOL     OW 2827   2.110   1.666   2.453  0.2295  0.8283 -0.3694
  943SOL    HW1 2828   2.135   1.565   2.467 -1.3135 -1.5644 -4.2194
  943SOL    HW2 2829   2.047   1.671   2.376 -0.1116 -2.1588 -1.9801
  944SOL     OW 2830   2.183   2.293   1.474 -0.0249 -0.1617 -0.6689
  944SOL    HW1 2831   2.236   2.371   1.514 -2.2403 -3.4380 -3.0427
  944SOL    HW2 2832   2.118   2.248   1.545 -0.6789  0.8850  1.4102
  945SOL     OW 2833   0.652   1.440   0.354  0.2026 -0.3926 -0.2527
  945SOL    HW1 2834   0.698   1.462   0.264  0.5177 -0.5630  0.4551
  945SOL    HW2 2835   0.682   1.354   0.408  0.6883 -1.3795  0.6420
  946SOL     OW 2836   0.321   0.994   2.649  0.1946 -0.3119  0.6339
  946SOL    HW1 2837   0.280   0.934   2.578  2.2222  1.5770  0.8025
  946SOL    HW2 2838   0.339   1.088   2.607 -1.4479  0.7604  0.3825
  947SOL     OW 2839   1.529   0.410   0.175 -0.0806 -0.3215  0.1973
  947SOL    HW1 2840   1.544   0.329   0.240  1.0155 -2.5464  0.6345
  947SOL    HW2 2841   1.456   0.392   0.108  1.3967  1.8407  2.1844
  948SOL     OW 2842   2.009   3.092   2.128  0.1026 -0.1680 -0.4748
  948SOL    HW1 2843   1.961   3.098   2.035  0.1963 -0.7281  0.9501
  948SOL    HW2 2844   1.988   2.998   2.173 -2.0958 -1.5221 -0.1272
  949SOL     OW 2845   0.620   2.544   0.455  1.0125  0.3039  0.0636
  949SOL    HW1 2846   0.627   2.647   0.432  1.5108 -0.7432 -2.9566
  949SOL    HW2 2847   0.672   2.526   0.542 -1.1399 -0.0414  0.3664
  950SOL     OW 2848   0.235   2.111   3.011 -0.8890  0.4534  0.0091
  950SOL    HW1 2849   0.145   2.162   3.020 -1.9120 -0.1438  0.0638
  950SOL    HW2 2850   0.230   2.019   3.059 -2.1807  0.1434  1.2137
  951SOL     OW 2851   1.170   2.814   2.793 -0.3063  0.3389  0.3382
  951SOL    HW1 2852   1.236   2.816   2.713 -1.5492 -5.3605  2.4383
  951SOL    HW2 2853   1.188   2.880   2.867  0.9007  1.5447 -2.1298
  952SOL     OW 2854   0.105   1.708   0.471  0.3409 -0.0152  0.4583
  952SOL    HW1 2855   0.168   1.787   0.463 -3.5123 -3.1906 -2.1665
  952SOL    HW2 2856   0.127   1.659   0.561 -1.3311 -0.5982  2.4996
  953SOL     OW 2857   2.481   1.727   0.172 -0.1947 -0.1770 -0.6470
  953SOL    HW1 2858   2.439   1.629   0.186 -3.2493  0.5633 -0.5591
  953SOL    HW2 2859   2.501   1.739   0.070  0.9039  1.0220 -0.6693
  954SOL     OW 2860   2.194   0.471   1.062 -0.0210  0.3193  0.2934
  954SOL    HW1 2861   2.161   0.508   0.966 -0.6037  0.6370 -1.0638
  954SOL    HW2 2862   2.294   0.454   1.066 -1.8527  0.8804 -1.7974
  955SOL     OW 2863   0.210   2.657   1.292  0.2496  0.2865 -0.0360
  955SOL    HW1 2864   0.109   2.624   1.297  2.1772 -0.8878  0.5828
  955SOL    HW2 2865   0.250   2.642   1.198 -0.0076  1.1512  0.3201
  956SOL     OW 2866   2.734   2.466   2.494  0.1539 -0.2455  0.1388
  956SOL    HW1 2867   2.766   2.371   2.471  1.8315  0.6216  1.1273
  956SOL    HW2 2868   2.752   2.534   2.414  0.2044  1.6256 -1.3435
  957SOL     OW 2869   1.557   2.006   2.659  0.5011  0.1354  0.5254
  957SOL    HW1 2870   1.561   1.907   2.664  0.8507  0.0470  0.1124
  957SOL    HW2 2871   1.566   2.034   2.560 -1.8938 -2.0164 -2.5990
  958SOL     OW 2872   2.655   2.301   3.003 -0.5962 -0.1501 -0.3088
  958SOL    HW1 2873   2.558   2.332   2.982  0.3373 -1.5861 -0.2942
  958SOL    HW2 2874   2.653   2.209   3.051  2.7779 -2.2079  0.0667
  959SOL     OW 2875   0.237   2.800   0.028  0.2980 -0.4820 -0.0177
  959SOL    HW1 2876   0.165   2.785   0.099  1.3890  1.0635 -0.9345
  959SOL    HW2 2877   0.280   2.714  -0.009  1.2048  1.3933  0.4954
  960SOL     OW 2878   1.952   0.442   1.986  0.0457  0.0387  1.4350
  960SOL    HW1 2879   1.930   0.537   1.947 -3.0550  1.6346 -2.1898
  960SOL    HW2 2880   1.989   0.453   2.083  1.0328  2.3720  1.1909
  961SOL     OW 2881   2.674   1.938   1.031  0.5926  1.0039  0.2568
  961SOL    HW1 2882   2.613   1.970   0.952 -0.2557  2.6403  1.2407
  961SOL    HW2 2883   2.660   1.992   1.117 -0.9951  1.3037 -0.1762
  962SOL     OW 2884   1.282   0.947   0.026 -0.1759  0.5631 -0.2974
  962SOL    HW1 2885   1.281   1.023  -0.048 -0.1357 -0.5246 -0.1792
  962SOL    HW2 2886   1.273   0.991   0.120 -1.1374 -0.7590 -0.7428
  963SOL     OW 2887   2.224   2.586   1.909 -0.4767 -0.4229  0.5009
  963SOL    HW1 2888   2.224   2.527   1.990 -1.4432  0.0770 -0.3541
  963SOL    HW2 2889   2.296   2.656   1.917 -0.2015  0.1308  0.7379
  964SOL     OW 2890   2.435   0.392   1.723 -0.2054 -0.0624  0.9947
  964SOL    HW1 2891   2.532   0.417   1.751 -1.2881 -1.6342  0.1559
  964SOL    HW2 2892   2.429   0.355   1.627 -4.6999 -1.7199  1.6191
  965SOL     OW 2893   2.688   2.995   0.141 -0.2190 -0.1124  1.2972
  965SOL    HW1 2894   2.747   2.969   0.061 -0.0133 -3.8850 -0.6670
  965SOL    HW2 2895   2.586   2.980   0.116  0.1973  0.5264 -2.7672
  966SOL     OW 2896   2.540   2.642   2.184 -0.0790  0.1273  0.8282
  966SOL    HW1 2897   2.478   2.567   2.149  0.0727 -0.1139 -0.0972
  966SOL    HW2 2898   2.494   2.735   2.197  2.1895  1.8819 -2.0890
  967SOL     OW 2899   2.742   2.858   2.474 -0.6873  0.0138  0.0161
  967SOL    HW1 2900   2.777   2.795   2.401 -0.0573 -0.8782  0.2853
  967SOL    HW2 2901   2.783   2.958   2.477  1.8381 -0.2613  0.3515
  968SOL     OW 2902   1.999   1.046   2.721 -0.6311  0.1804  0.1039
  968SOL    HW1 2903   1.930   1.116   2.681 -0.1890  4.5677 -0.7507
  968SOL    HW2 2904   2.007   0.950   2.675  0.5308 -1.0142 -0.2767
  969SOL     OW 2905   2.721   2.349   1.173  0.5704  0.2068  0.5681
  969SOL    HW1 2906   2.654   2.367   1.092 -0.5590  2.1121  1.7551
  969SOL    HW2 2907   2.772   2.258   1.165 -0.4073 -0.3072 -2.3827
  970SOL     OW 2908   1.120   2.126   1.788 -0.1066 -0.3556  0.0147
  970SOL    HW1 2909   1.016   2.140   1.772 -0.4213 -0.5176 -1.6563
  970SOL    HW2 2910   1.157   2.180   1.873  2.2533  0.8230 -0.0021
  971SOL     OW 2911   2.825   2.095   1.941 -0.0174 -0.4497  0.1294
  971SOL    HW1 2912   2.804   2.196   1.968  2.0802  1.8256 -1.2932
  971SOL    HW2 2913   2.884   2.083   1.854 -0.3310  0.9227 -1.6326
  972SOL     OW 2914   2.059   2.449   0.258  0.5967 -0.4557 -0.0954
  972SOL    HW1 2915   2.040   2.357   0.212  1.1828  0.1850  0.4144
  972SOL    HW2 2916   2.054   2.442   0.362  0.6786  2.0862  2.9224
  973SOL     OW 2917   1.316   1.068   1.886 -0.5365 -0.3629 -0.3454
  973SOL    HW1 2918   1.252   1.012   1.825  3.0827  1.0731  0.5116
  973SOL    HW2 2919   1.291   1.169   1.891 -0.8264 -0.1200 -0.9688
  974SOL     OW 2920   1.657   0.556   1.924 -0.4820 -0.0311  1.0156
  974SOL    HW1 2921   1.748   0.601   1.903 -1.3753  1.4374 -0.6608
  974SOL    HW2 2922   1.576   0.622   1.925  0.1982  4.7872 -2.1963
  975SOL     OW 2923   2.442   3.044   3.050  0.3475 -0.0113  0.1828
  975SOL    HW1 2924   2.387   2.978   3.104 -0.4907  1.1953 -1.2833
  975SOL    HW2 2925   2.451   3.004   2.951 -0.4836  0.4167 -0.4847
  976SOL     OW 2926   1.948   2.901   2.333  0.3795  0.1537  0.6591
  976SOL    HW1 2927   1.891   2.845   2.270  1.1952  2.3573  1.0371
  976SOL    HW2 2928   1.947   2.870   2.425  0.3832  0.5179 -1.2043
  977SOL     OW 2929   0.484   0.615   1.016  0.1295 -0.8376 -0.8574
  977SOL    HW1 2930   0.409   0.598   0.949 -3.4336  1.2849 -1.4528
  977SOL    HW2 2931   0.574   0.590   0.971 -0.6912  0.7346  0.0450
   3.10000   3.10000   3.10000
