1000 SPC/Fw water molecules t=   1.44000 step= 1440
 2931
    1SOL     OW    1   2.453   0.323   2.655 -1.1168  0.7656 -0.2806
    1SOL    HW1    2   2.475   0.220   2.645 -0.5696  0.0407  0.7408
    1SOL    HW2    3   2.497   0.362   2.739  1.2937  1.8729  2.5257
    2SOL     OW    4   2.743   2.988   1.385 -0.4269  0.0111  0.5670
    2SOL    HW1    5   2.839   2.976   1.356 -0.8873 -2.2019 -1.4899
    2SOL    HW2    6   2.725   3.075   1.437  1.6906 -0.0987 -3.2827
    3SOL     OW    7   2.646   2.562   0.393  0.2592 -0.0184 -0.4467
    3SOL    HW1    8   2.591   2.470   0.391 -2.8543  0.8126 -0.4105
    3SOL    HW2    9   2.672   2.592   0.490  0.1959 -2.6264 -0.2718
    4SOL     OW   10   1.226   1.511   2.413 -0.4390  0.0579 -0.1484
    4SOL    HW1   11   1.163   1.508   2.334  2.3491 -1.9706  1.1296
    4SOL    HW2   12   1.237   1.418   2.458 -1.7619 -0.2294  0.4785
    5SOL     OW   13   1.188   1.557   2.901  0.0428  0.0331  0.3753
    5SOL    HW1   14   1.234   1.622   2.969  1.6495  2.7532  0.0891
    5SOL    HW2   15   1.100   1.590   2.856  0.3987 -1.4815 -0.4717
    6SOL     OW   16   0.277   1.795   3.013  0.3493 -0.5134  0.1364
    6SOL    HW1   17   0.200   1.845   3.060  0.4268 -1.2552  1.7641
    6SOL    HW2   18   0.351   1.763   3.068 -1.2038 -0.2790 -1.2170
    7SOL     OW   19   2.470   0.900   1.053  0.2959  0.2813 -0.1463
    7SOL    HW1   20   2.388   0.870   1.112  1.9816  1.1690  0.1703
    7SOL    HW2   21   2.466   0.852   0.963  1.3837 -0.0799  1.1280
    8SOL     OW   22   0.330   0.686   1.515 -0.3756 -0.2177  0.2273
    8SOL    HW1   23   0.432   0.659   1.501  1.0219  0.7313 -1.2040
    8SOL    HW2   24   0.293   0.749   1.441  0.9208 -0.7398  0.2362
    9SOL     OW   25   1.164   0.830   2.382  0.3035 -0.2870 -0.9673
    9SOL    HW1   26   1.235   0.865   2.313  1.8829  0.1622 -2.4495
    9SOL    HW2   27   1.126   0.734   2.362  0.2445  0.3572 -1.1334
   10SOL     OW   28   0.702   1.380   1.309  0.8376  0.5673  0.0027
   10SOL    HW1   29   0.622   1.394   1.245 -0.0479 -1.4412 -0.3975
   10SOL    HW2   30   0.734   1.473   1.353 -2.0417 -0.8465 -0.8919
   11SOL     OW   31   2.302   2.825   0.839 -0.0327  0.0316  0.3998
   11SOL    HW1   32   2.268   2.819   0.937  0.9744  0.0987 -1.7568
   11SOL    HW2   33   2.400   2.816   0.829 -0.4102 -0.7858  0.6102
   12SOL     OW   34   1.521   0.893   0.410 -0.2960  0.8859 -0.5160
   12SOL    HW1   35   1.455   0.946   0.352  1.7939  2.3745 -0.5698
   12SOL    HW2   36   1.541   0.801   0.366  0.3285  0.8218 -0.2888
   13SOL     OW   37   2.431   0.692   1.783  0.0083 -0.1623  0.2785
   13SOL    HW1   38   2.352   0.656   1.848 -3.3337 -0.3439 -0.9744
   13SOL    HW2   39   2.433   0.651   1.685 -2.5280 -0.6194 -1.2712
   14SOL     OW   40   1.952   0.004   0.620  0.0117 -0.2916 -0.4171
   14SOL    HW1   41   1.849   0.031   0.615 -0.9586  1.0622 -1.3279
   14SOL    HW2   42   1.971  -0.054   0.703  1.6193  1.4234 -0.8124
   15SOL     OW   43   1.873   2.068   2.668 -0.3146 -0.5442 -0.0371
   15SOL    HW1   44   1.808   2.105   2.742 -0.1980 -0.3218  0.6835
   15SOL    HW2   45   1.849   1.974   2.632  2.2679 -0.5290  1.8445
   16SOL     OW   46   1.609   1.738   3.009  0.3206  0.1953  0.3609
   16SOL    HW1   47   1.624   1.636   3.026 -0.3027  1.9546  1.5295
   16SOL    HW2   48   1.687   1.805   3.026 -1.2452  2.8772  1.8692
   17SOL     OW   49   0.099   0.419   0.184  0.2205  0.4321 -0.3930
   17SOL    HW1   50   0.188   0.455   0.143  1.0629 -1.2464  2.2065
   17SOL    HW2   51   0.024   0.414   0.108 -0.7790  0.6992  1.1986
   18SOL     OW   52   0.896   2.989   2.155  0.5091  0.2833 -0.4013
   18SOL    HW1   53   0.847   2.903   2.191  0.9558 -1.5323  1.2791
   18SOL    HW2   54   0.971   2.969   2.079 -0.1447  2.3066 -1.3219
   19SOL     OW   55   0.557   0.851   1.884  0.6150  0.1805  0.1507
   19SOL    HW1   56   0.595   0.801   1.968  1.1997  1.2763 -0.3336
   19SOL    HW2   57   0.615   0.933   1.854  0.6438  0.7647 -1.4887
   20SOL     OW   58   0.249   2.834   0.851 -0.0684  0.3615 -0.3035
   20SOL    HW1   59   0.159   2.882   0.835  1.9480 -1.9784  0.7420
   20SOL    HW2   60   0.253   2.736   0.817 -1.9624 -1.4467 -0.2305
   21SOL     OW   61   2.767   0.273   1.963 -0.1564  0.2288  0.3108
   21SOL    HW1   62   2.714   0.202   1.908  0.4517  0.0506 -0.7610
   21SOL    HW2   63   2.819   0.227   2.043 -0.2087  0.5578 -1.4918
   22SOL     OW   64   2.368   0.189   0.120  0.0080 -0.2731  0.0241
   22SOL    HW1   65   2.385   0.098   0.072  1.7326  0.0248  0.7639
   22SOL    HW2   66   2.305   0.259   0.062  0.7985  2.0943  3.0770
   23SOL     OW   67   2.836   0.553   0.687  0.1619 -0.6970  0.1191
   23SOL    HW1   68   2.840   0.466   0.632 -1.6391 -2.5516  1.6733
   23SOL    HW2   69   2.831   0.638   0.629 -2.0445  1.3025  1.4712
   24SOL     OW   70   0.225   1.853   0.446  0.5994 -0.1293 -0.0757
   24SOL    HW1   71   0.219   1.929   0.379  3.3565 -1.4369 -0.8304
   24SOL    HW2   72   0.324   1.819   0.451 -1.5701  1.3663  0.3187
   25SOL     OW   73   2.252   0.627   0.217  0.5905 -0.1587  0.0860
   25SOL    HW1   74   2.244   0.613   0.114 -0.1938 -0.4372  1.2910
   25SOL    HW2   75   2.307   0.547   0.257 -1.6441 -2.4016  2.0616
   26SOL     OW   76   2.454   2.135   2.124  0.4106  0.1248 -0.2909
   26SOL    HW1   77   2.542   2.187   2.151  1.2718 -0.8340 -2.2621
   26SOL    HW2   78   2.463   2.083   2.034 -1.8846  1.1980 -1.5801
   27SOL     OW   79   0.593   2.948   0.188 -0.4532 -0.3580 -1.0786
   27SOL    HW1   80   0.692   2.979   0.186  0.5548 -2.3375  0.1291
   27SOL    HW2   81   0.556   2.937   0.092 -2.3909  1.1376  2.3660
   28SOL     OW   82   1.628   0.101   0.329  0.3209 -0.3051 -0.5118
   28SOL    HW1   83   1.646   0.065   0.230 -0.0545  1.6014 -2.0869
   28SOL    HW2   84   1.662   0.196   0.338  0.2797  0.2126  1.4731
   29SOL     OW   85   1.964   0.590   0.274  0.4251  0.1856  0.2454
   29SOL    HW1   86   1.933   0.640   0.358  0.2790  1.3179 -1.6320
   29SOL    HW2   87   2.068   0.597   0.269  0.0734 -0.4588 -1.8069
   30SOL     OW   88   0.196   2.055   0.883  0.3423  0.0856  0.1709
   30SOL    HW1   89   0.223   1.973   0.824 -0.9109 -1.0869 -0.7886
   30SOL    HW2   90   0.098   2.088   0.877 -0.5835 -0.3382  3.5680
   31SOL     OW   91   2.174   0.082   2.407  0.2304  0.1587 -0.5437
   31SOL    HW1   92   2.133   0.055   2.499  3.8341 -1.4156  1.2229
   31SOL    HW2   93   2.119   0.047   2.330 -1.2080 -1.7401  1.0837
   32SOL     OW   94   2.970   3.058   0.268 -0.1191 -0.8227 -0.3150
   32SOL    HW1   95   2.947   2.961   0.292  2.8613  0.8014  0.4345
   32SOL    HW2   96   3.013   3.112   0.344  3.5080 -1.5735  0.5381
   33SOL     OW   97   0.873   0.206   0.635  0.3707 -0.1138 -0.3109
   33SOL    HW1   98   0.870   0.150   0.548  1.1639 -1.0373  0.6352
   33SOL    HW2   99   0.957   0.275   0.632  2.2456  0.7195 -1.9505
   34SOL     OW  100   0.326   2.728   1.092  0.6362  0.0147 -0.4650
   34SOL    HW1  101   0.304   2.793   1.011 -2.9642 -0.0490  0.1383
   34SOL    HW2  102   0.417   2.752   1.139  1.7238 -1.3558  0.2388
   35SOL     OW  103   3.098   0.102   1.863  0.3147 -0.1025  0.1067
   35SOL    HW1  104   3.084   0.003   1.879 -1.8932  0.8038 -1.9161
   35SOL    HW2  105   3.055   0.127   1.771 -1.1297 -2.0454  0.2377
   36SOL     OW  106   1.837   1.187   1.536  1.0448  0.3045 -0.1039
   36SOL    HW1  107   1.922   1.134   1.562 -1.3744  1.5489  0.1364
   36SOL    HW2  108   1.843   1.246   1.450  1.9909  0.7691 -0.0048
   37SOL     OW  109   1.145   0.176   0.974 -0.2973  0.3807  0.2665
   37SOL    HW1  110   1.169   0.278   0.987 -0.4126 -0.6170  0.0841
   37SOL    HW2  111   1.225   0.128   0.926 -0.8991 -1.6036 -3.5375
   38SOL     OW  112   1.159   2.907   2.409 -0.0804  0.6322 -0.1239
   38SOL    HW1  113   1.074   2.870   2.444  2.2283 -0.8165 -0.7977
   38SOL    HW2  114   1.143   2.995   2.350  2.0551  4.7372 -0.1419
   39SOL     OW  115   2.439   1.392   3.046  0.2775  0.3329  0.1208
   39SOL    HW1  116   2.506   1.315   3.056  0.0824  2.4673  0.4354
   39SOL    HW2  117   2.352   1.386   3.105  0.4585  2.2120  0.4070
   40SOL     OW  118   2.028   2.504   2.607  0.1933  0.2872  0.0325
   40SOL    HW1  119   1.989   2.599   2.581 -0.6938  1.7315  2.3091
   40SOL    HW2  120   1.985   2.434   2.549  1.2665  0.4325  1.1298
   41SOL     OW  121   3.011   0.648   2.823  0.4232  0.3519  0.6090
   41SOL    HW1  122   2.923   0.700   2.808  1.2494 -3.1220  0.2717
   41SOL    HW2  123   3.000   0.546   2.793  0.4325  0.6894  3.0888
   42SOL     OW  124   1.762   1.755   0.568  0.7488 -0.6188  0.6156
   42SOL    HW1  125   1.712   1.667   0.561  0.5425  1.6435  0.2851
   42SOL    HW2  126   1.792   1.793   0.474 -0.4289 -0.6655 -2.1032
   43SOL     OW  127   0.509   1.651   1.251  0.0282 -0.1119 -0.5075
   43SOL    HW1  128   0.513   1.577   1.181  1.8923  1.7115  0.5814
   43SOL    HW2  129   0.418   1.670   1.289 -1.6079  2.3678 -1.1733
   44SOL     OW  130   1.670   2.410   2.989 -0.3561 -0.4070 -0.4898
   44SOL    HW1  131   1.567   2.438   2.992 -1.0998 -0.0163  1.7212
   44SOL    HW2  132   1.708   2.406   2.890  2.5440 -1.6437  0.2382
   45SOL     OW  133   0.362   1.909   2.547  0.2306  0.1493 -0.1420
   45SOL    HW1  134   0.299   1.909   2.461  0.0443 -0.4916  1.5779
   45SOL    HW2  135   0.431   1.827   2.554  0.3971 -1.6638  3.5885
   46SOL     OW  136   1.299   0.677   0.251 -0.0792  0.8819  0.5968
   46SOL    HW1  137   1.322   0.761   0.196 -0.3157 -1.6665 -0.3749
   46SOL    HW2  138   1.210   0.635   0.228  0.5269 -1.3163  0.2453
   47SOL     OW  139   0.184   2.456   1.558 -0.1758  0.0226  0.0526
   47SOL    HW1  140   0.113   2.377   1.575 -0.1328 -2.4282  0.1769
   47SOL    HW2  141   0.192   2.490   1.459  0.1026  1.2637  0.1490
   48SOL     OW  142   2.661   0.624   0.141  0.1875  0.4815 -0.0929
   48SOL    HW1  143   2.622   0.630   0.242  1.9957  0.7385  1.3623
   48SOL    HW2  144   2.766   0.615   0.142 -0.6905  2.5452  1.4338
   49SOL     OW  145   0.337   0.784   1.771  0.1407  0.5429 -0.0508
   49SOL    HW1  146   0.433   0.804   1.808  0.9991 -0.7065 -3.5058
   49SOL    HW2  147   0.344   0.741   1.677  0.4436 -1.4760 -1.1409
   50SOL     OW  148   1.730   1.128   0.308  0.2154  0.3415  0.4974
   50SOL    HW1  149   1.740   1.030   0.275 -0.7880  1.3672  0.3272
   50SOL    HW2  150   1.688   1.134   0.401  0.3355  0.6941 -1.1285
   51SOL     OW  151   3.023   1.750   0.258 -0.1405 -0.3536  0.5632
   51SOL    HW1  152   3.004   1.673   0.189 -1.5949 -0.1731  0.8433
   51SOL    HW2  153   3.049   1.713   0.350 -2.5735  1.6364  0.0507
   52SOL     OW  154   0.799   2.146   0.653  0.4435  0.3661 -0.0216
   52SOL    HW1  155   0.697   2.118   0.664 -1.8793  0.0117  0.9105
   52SOL    HW2  156   0.864   2.072   0.683  0.4110  1.4832 -4.8939
   53SOL     OW  157   0.204   0.432   1.537  0.9161  0.4820 -1.0746
   53SOL    HW1  158   0.241   0.522   1.567  0.4715 -0.8637 -0.8354
   53SOL    HW2  159   0.133   0.437   1.463 -0.7839  0.2255 -1.9308
   54SOL     OW  160   1.794   0.495   3.082 -0.4711  0.2566 -0.3555
   54SOL    HW1  161   1.854   0.438   3.142 -1.3935  2.4962  2.4831
   54SOL    HW2  162   1.695   0.500   3.121  0.0970  0.8934  4.1506
   55SOL     OW  163   0.740   2.907   0.719 -0.5220  0.1364 -0.0604
   55SOL    HW1  164   0.687   2.998   0.713 -2.0490  1.3084 -1.0247
   55SOL    HW2  165   0.829   2.914   0.664  1.0469  1.7035  0.3586
   56SOL     OW  166   0.589   1.605   3.068  0.0640 -0.7575 -0.0797
   56SOL    HW1  167   0.521   1.637   3.144 -1.4278  0.3553  0.6064
   56SOL    HW2  168   0.549   1.535   3.000 -1.6150 -0.3057  0.5804
   57SOL     OW  169   1.764   2.498   2.412 -0.3773  0.0632 -0.3216
   57SOL    HW1  170   1.834   2.424   2.401 -2.4977  2.3931  1.8548
   57SOL    HW2  171   1.668   2.462   2.413 -0.7377 -0.3858 -0.5424
   58SOL     OW  172   0.674   0.249   1.106 -0.2211 -0.1149 -0.5354
   58SOL    HW1  173   0.579   0.263   1.145 -0.1964  0.1893 -0.3113
   58SOL    HW2  174   0.727   0.180   1.159  2.0270 -0.7458 -1.8899
   59SOL     OW  175   0.448   2.412   2.731  0.3688  0.0478 -0.1054
   59SOL    HW1  176   0.476   2.317   2.711 -0.6999  1.5460 -1.4504
   59SOL    HW2  177   0.519   2.487   2.711 -1.5770 -0.9080  0.7983
   60SOL     OW  178   2.286   2.118   2.350 -0.3933 -0.1924 -0.0190
   60SOL    HW1  179   2.352   2.139   2.267 -2.8264  0.7753 -1.5417
   60SOL    HW2  180   2.317   2.167   2.440  0.6801  0.1911  0.5035
   61SOL     OW  181   1.221   0.649   0.522 -0.3712 -0.0547  0.2453
   61SOL    HW1  182   1.119   0.680   0.526 -2.7247  2.1043  2.9535
   61SOL    HW2  183   1.254   0.648   0.422  2.9111 -1.4855  2.7446
   62SOL     OW  184   2.710   1.708   2.763  0.2879 -0.2480 -0.1666
   62SOL    HW1  185   2.674   1.626   2.711 -1.0980  0.1559  4.2733
   62SOL    HW2  186   2.806   1.699   2.799  0.2611  0.3646 -2.3335
   63SOL     OW  187   0.548   0.911   0.201 -0.2895 -0.1670 -0.0925
   63SOL    HW1  188   0.602   0.975   0.140 -1.0758 -0.5289 -0.7358
   63SOL    HW2  189   0.578   0.909   0.299 -2.0065  0.1640  0.5515
   64SOL     OW  190   3.038   0.579   2.339 -0.1454 -0.3701 -0.6284
   64SOL    HW1  191   2.966   0.623   2.405  1.8372  1.7859  3.5465
   64SOL    HW2  192   3.014   0.592   2.241  1.4595 -2.1184 -0.5552
   65SOL     OW  193   0.198   1.437   0.710 -0.2896 -0.3802  0.1574
   65SOL    HW1  194   0.210   1.493   0.797  0.7878  1.2300  2.1965
   65SOL    HW2  195   0.266   1.459   0.632 -3.2019 -1.8478 -3.5417
   66SOL     OW  196   2.533   0.388   0.522  0.4923 -0.4555  0.0430
   66SOL    HW1  197   2.630   0.415   0.514 -0.7120  0.5191  3.2693
   66SOL    HW2  198   2.508   0.334   0.610 -1.5821 -1.0414  2.7357
   67SOL     OW  199   0.644   2.480   1.460 -0.2785  0.3010  0.6042
   67SOL    HW1  200   0.719   2.452   1.525  0.9955 -1.3359  1.2586
   67SOL    HW2  201   0.577   2.403   1.432 -0.0362  0.3836  0.7529
   68SOL     OW  202   0.984   1.024   2.487 -0.7155 -0.5488 -0.3882
   68SOL    HW1  203   1.059   0.960   2.445  1.5706  1.1519  1.7134
   68SOL    HW2  204   0.896   1.043   2.434  1.7621  1.3753 -0.6957
   69SOL     OW  205   0.793   2.751   2.256 -0.1619 -0.4852  0.8272
   69SOL    HW1  206   0.832   2.666   2.209 -0.0760 -0.6392  1.4288
   69SOL    HW2  207   0.705   2.723   2.305  0.5203  1.3153  3.1099
   70SOL     OW  208   0.439   0.104   2.490 -0.1945  0.1027 -0.0896
   70SOL    HW1  209   0.366   0.088   2.563 -2.0319 -0.9776 -3.2670
   70SOL    HW2  210   0.518   0.041   2.515  1.2343  0.2407 -1.7897
   71SOL     OW  211   1.093   1.731   0.315  0.1262 -0.4421  0.1081
   71SOL    HW1  212   1.051   1.687   0.400  2.5658 -0.3184 -2.4494
   71SOL    HW2  213   1.025   1.778   0.251 -1.8719  0.3294 -0.7007
   72SOL     OW  214   1.825   0.203   2.163 -0.5117  0.2513 -0.0428
   72SOL    HW1  215   1.894   0.287   2.168  1.7026  2.6007 -0.4073
   72SOL    HW2  216   1.872   0.114   2.185  2.3968  1.2845 -0.2693
   73SOL     OW  217   2.787   2.181   2.432 -0.1062  0.4488  0.3804
   73SOL    HW1  218   2.791   2.078   2.409 -2.2377  0.8386 -1.5872
   73SOL    HW2  219   2.852   2.205   2.513 -0.5664 -0.3511  1.9751
   74SOL     OW  220   2.715   2.873   2.162  0.2867  0.1074 -0.3759
   74SOL    HW1  221   2.687   2.874   2.264  2.2452 -0.0771 -1.0682
   74SOL    HW2  222   2.792   2.939   2.148 -0.1805 -0.3705 -2.9411
   75SOL     OW  223   0.968   0.883   1.105  0.8671 -0.0461  0.1520
   75SOL    HW1  224   0.873   0.904   1.081  1.5483 -2.2671  3.4234
   75SOL    HW2  225   0.996   0.927   1.195 -3.8649 -0.1291  0.4194
   76SOL     OW  226   1.860   1.278   2.489  0.1757  0.0089  0.9337
   76SOL    HW1  227   1.758   1.279   2.516 -1.8137  1.1440 -0.2471
   76SOL    HW2  228   1.911   1.358   2.531  4.6626  1.8347 -3.3126
   77SOL     OW  229   2.899   0.935   1.055 -0.2630  0.4978  0.0800
   77SOL    HW1  230   2.881   0.832   1.034  2.0807 -0.8920  3.2216
   77SOL    HW2  231   2.978   0.941   1.121 -1.3564  0.3135 -1.2068
   78SOL     OW  232   2.015   1.341   1.361 -0.0686 -0.5049 -0.4599
   78SOL    HW1  233   2.113   1.328   1.348 -1.3388 -3.0349 -2.3356
   78SOL    HW2  234   1.977   1.423   1.310 -2.6996  1.3769  2.1214
   79SOL     OW  235   0.686   1.397   0.799  0.1030 -0.1971 -0.0803
   79SOL    HW1  236   0.598   1.361   0.835  0.1717 -2.2645  0.0458
   79SOL    HW2  237   0.725   1.351   0.710  0.2276 -3.5994 -3.1043
   80SOL     OW  238   0.588   0.523   1.534 -1.1027  0.4626  0.6077
   80SOL    HW1  239   0.637   0.580   1.461  0.5194 -0.2666 -1.2737
   80SOL    HW2  240   0.598   0.419   1.526  0.9162 -1.0984  1.6283
   81SOL     OW  241   0.984   1.292   2.615  0.0679 -0.6877 -0.0722
   81SOL    HW1  242   0.937   1.210   2.658 -1.0273 -0.2244  0.8316
   81SOL    HW2  243   0.952   1.312   2.516 -0.5403  0.0304 -3.1635
   82SOL     OW  244   1.000   2.866   1.524 -0.6473  0.4321  0.1890
   82SOL    HW1  245   0.907   2.824   1.538 -1.4526 -0.4312  0.1133
   82SOL    HW2  246   1.031   2.884   1.426 -2.6493  0.4635 -0.1906
   83SOL     OW  247   2.549   2.365   0.875  0.1503 -0.7016 -0.0437
   83SOL    HW1  248   2.486   2.330   0.797  0.4385 -0.4782  0.5918
   83SOL    HW2  249   2.563   2.471   0.870 -1.3035  3.8224  1.9909
   84SOL     OW  250   0.754   0.028   2.339 -0.0961  0.5560  0.3234
   84SOL    HW1  251   0.699  -0.023   2.415 -0.8204 -1.1740 -0.7839
   84SOL    HW2  252   0.794  -0.035   2.267 -1.5957  0.8760 -0.3815
   85SOL     OW  253   0.261   1.644   1.424  0.0260  0.3753  0.3946
   85SOL    HW1  254   0.235   1.749   1.430 -2.8786  2.7025 -0.1203
   85SOL    HW2  255   0.316   1.604   1.506  0.2736 -0.6287 -1.4712
   86SOL     OW  256   0.407   1.029   1.560  0.0820 -0.2981  0.3262
   86SOL    HW1  257   0.391   0.975   1.474  2.3128 -0.4000 -0.2187
   86SOL    HW2  258   0.476   0.989   1.617 -3.4985 -1.1354  0.6128
   87SOL     OW  259   1.632   0.681   0.284 -0.0387 -0.4560  0.3507
   87SOL    HW1  260   1.695   0.754   0.249 -1.0702 -1.0500 -2.0188
   87SOL    HW2  261   1.579   0.652   0.206 -0.9458 -1.8079  1.2848
   88SOL     OW  262   1.607   1.397   0.288  0.0267  0.2100 -0.0744
   88SOL    HW1  263   1.640   1.299   0.274 -1.5403 -0.8905  0.2759
   88SOL    HW2  264   1.504   1.410   0.268  0.8243  0.9738 -1.8467
   89SOL     OW  265   0.011   0.316   0.605 -0.0490  0.4485 -0.5621
   89SOL    HW1  266   0.077   0.239   0.605 -0.8566  0.3719 -1.6027
   89SOL    HW2  267  -0.083   0.295   0.569  1.7790  3.2202  0.4596
   90SOL     OW  268   0.775   1.584   0.168 -0.0488  0.2473 -0.0379
   90SOL    HW1  269   0.843   1.511   0.137  1.1529 -0.1240 -2.7842
   90SOL    HW2  270   0.695   1.601   0.101  0.5414  1.1975  0.9638
   91SOL     OW  271   1.191   1.465   1.770 -0.4936  0.1845  0.2350
   91SOL    HW1  272   1.228   1.526   1.851  0.5869  1.5521  1.4257
   91SOL    HW2  273   1.235   1.370   1.769 -1.6168  0.3457 -0.5604
   92SOL     OW  274   0.008   0.986   1.206  0.0319  0.2610 -0.1474
   92SOL    HW1  275   0.061   1.072   1.184  1.9411 -1.9892 -0.5420
   92SOL    HW2  276   0.026   0.949   1.301 -0.1011  1.5544 -0.7908
   93SOL     OW  277   3.056   2.709   0.041 -0.5581  0.0840 -0.2789
   93SOL    HW1  278   3.017   2.714  -0.053  3.0259  1.2815 -0.1748
   93SOL    HW2  279   3.057   2.617   0.082 -3.0431  0.3231 -2.1144
   94SOL     OW  280   1.499   1.395   1.739  0.4260 -1.0098 -0.1131
   94SOL    HW1  281   1.593   1.355   1.763  0.6793  0.6091 -0.6262
   94SOL    HW2  282   1.499   1.497   1.751  1.6363  0.7559 -2.1220
   95SOL     OW  283   1.384   2.494   2.949  0.0090 -0.2478 -0.2125
   95SOL    HW1  284   1.296   2.502   2.998  1.0493  1.2343 -0.3686
   95SOL    HW2  285   1.390   2.396   2.904  0.8672 -0.5130  0.1526
   96SOL     OW  286   0.573   2.100   1.259  0.5129  0.1000 -0.1130
   96SOL    HW1  287   0.481   2.060   1.229 -0.7664  1.5852  0.4947
   96SOL    HW2  288   0.631   2.040   1.325  1.4477 -1.2534  1.2434
   97SOL     OW  289   0.298   1.644   2.431  0.0302 -0.1165 -0.0531
   97SOL    HW1  290   0.242   1.712   2.374  0.4425  0.2487  1.0864
   97SOL    HW2  291   0.273   1.641   2.530 -1.9705  1.0814 -0.4913
   98SOL     OW  292   2.209   1.636   1.246  0.4969  0.2974  0.5015
   98SOL    HW1  293   2.130   1.613   1.182  1.5633  3.0050 -2.5500
   98SOL    HW2  294   2.302   1.622   1.209 -2.2527  0.1994  0.6335
   99SOL     OW  295   2.568   2.148   1.320 -0.2652 -0.0242 -0.5886
   99SOL    HW1  296   2.647   2.166   1.385  0.6499  0.4176  2.4051
   99SOL    HW2  297   2.561   2.045   1.299  1.9949  0.7302  1.0484
  100SOL     OW  298   2.310   0.408   2.103 -0.0047  0.2272  0.0092
  100SOL    HW1  299   2.271   0.387   2.197 -1.9441 -2.9576 -0.4596
  100SOL    HW2  300   2.416   0.420   2.111  1.9773 -1.9413  1.8722
  101SOL     OW  301   0.396   1.545   0.524  0.5818  0.1994  0.0870
  101SOL    HW1  302   0.428   1.633   0.568 -0.9252  1.9580 -1.6019
  101SOL    HW2  303   0.467   1.492   0.482  0.1659  0.9829  1.9810
  102SOL     OW  304   2.313   1.085   0.865 -0.0202  0.1005  0.4831
  102SOL    HW1  305   2.272   0.993   0.830  0.2864  1.6152  1.1175
  102SOL    HW2  306   2.402   1.109   0.818  0.3538 -0.2097 -1.4086
  103SOL     OW  307   2.244   0.067   0.340 -0.1191 -0.0631  0.4486
  103SOL    HW1  308   2.288   0.114   0.258  2.2624 -1.0837  0.5603
  103SOL    HW2  309   2.319   0.038   0.407  0.5545  0.0135  0.3577
  104SOL     OW  310   0.035   1.826   2.107 -0.8395 -0.5442  0.6509
  104SOL    HW1  311   0.090   1.830   2.016  0.2136 -2.4892  0.1870
  104SOL    HW2  312  -0.071   1.829   2.099  2.2014 -0.0727 -0.7082
  105SOL     OW  313   1.350   2.097   0.786  0.7194 -0.0516  0.4153
  105SOL    HW1  314   1.359   2.138   0.689  2.4896  0.3718 -1.2917
  105SOL    HW2  315   1.377   1.997   0.781  0.1026 -0.0846  1.3652
  106SOL     OW  316   2.112   0.389   1.433  0.3292 -0.5879  0.6710
  106SOL    HW1  317   2.070   0.300   1.458 -1.7117 -0.3812 -0.0727
  106SOL    HW2  318   2.111   0.463   1.505  3.1501  1.5070 -2.3317
  107SOL     OW  319   1.964   2.951   1.201 -0.2505 -0.1109 -0.6385
  107SOL    HW1  320   1.925   3.048   1.203 -0.6742  1.3002 -1.9763
  107SOL    HW2  321   1.888   2.888   1.168 -0.0742 -0.4339  2.3688
  108SOL     OW  322   0.837   2.840   1.176 -0.5402  0.8228  0.4815
  108SOL    HW1  323   0.826   2.740   1.202  1.6734  0.0824 -2.2189
  108SOL    HW2  324   0.920   2.880   1.226 -1.1593 -0.0565  0.0228
  109SOL     OW  325   2.143   0.169   0.713  0.0587 -0.1502 -0.0135
  109SOL    HW1  326   2.059   0.121   0.672  1.5772 -1.4944 -0.8113
  109SOL    HW2  327   2.136   0.169   0.816 -0.8693  1.8363 -1.3045
  110SOL     OW  328   0.465   2.777   2.787 -0.1659  0.0686  0.1747
  110SOL    HW1  329   0.444   2.779   2.687 -0.8700  0.8998  0.1603
  110SOL    HW2  330   0.564   2.736   2.810  4.1514  0.8730  2.1149
  111SOL     OW  331   1.279   0.496   2.309  0.1274 -0.0548 -0.1006
  111SOL    HW1  332   1.180   0.520   2.339 -3.0392  1.2165  0.1481
  111SOL    HW2  333   1.338   0.460   2.384 -2.1908  1.0628  1.7450
  112SOL     OW  334   1.773   0.388   1.505 -0.0711 -0.0382 -0.5296
  112SOL    HW1  335   1.748   0.404   1.408  0.5737 -1.0657 -1.3411
  112SOL    HW2  336   1.687   0.380   1.568  1.1850  0.2920 -0.4158
  113SOL     OW  337   2.386   1.686   1.720 -0.5035  0.6520  0.3125
  113SOL    HW1  338   2.358   1.587   1.733  0.3766 -2.2045 -1.1887
  113SOL    HW2  339   2.427   1.727   1.805  1.8442 -0.5724  1.8629
  114SOL     OW  340   0.295   0.482   1.202  0.1261  0.3477  0.2673
  114SOL    HW1  341   0.367   0.528   1.148 -1.7193 -0.7545  2.1775
  114SOL    HW2  342   0.208   0.541   1.209  1.2802 -0.5613  1.2282
  115SOL     OW  343   2.725   1.538   1.215 -0.6207 -0.0005 -0.5980
  115SOL    HW1  344   2.728   1.437   1.245  1.2439 -2.1716 -0.3636
  115SOL    HW2  345   2.818   1.564   1.167  0.5797  2.1103 -0.4870
  116SOL     OW  346   1.878   0.937   0.724 -0.4928 -0.3418  0.6693
  116SOL    HW1  347   1.779   0.908   0.706  2.4934  1.0033  1.7163
  116SOL    HW2  348   1.879   1.042   0.721 -0.3994 -3.3946 -0.9844
  117SOL     OW  349   1.116   0.361   0.561 -0.2603 -0.2934  0.1807
  117SOL    HW1  350   1.140   0.459   0.560 -2.3346  0.1877  1.3342
  117SOL    HW2  351   1.102   0.327   0.459 -1.3300 -1.8310 -2.7922
  118SOL     OW  352   1.105   1.209   1.090  0.2614  0.1091 -0.3116
  118SOL    HW1  353   1.005   1.204   1.108  1.3512 -0.8839 -2.1927
  118SOL    HW2  354   1.138   1.306   1.106  0.7865  0.4273  1.8945
  119SOL     OW  355   1.855   1.555   2.213 -0.3845 -0.2770  0.5693
  119SOL    HW1  356   1.806   1.642   2.180  0.9493  0.0909  0.0800
  119SOL    HW2  357   1.957   1.548   2.191  1.7709 -2.7598  0.6956
  120SOL     OW  358   2.890   2.799   0.249  0.3138  0.4740  0.2248
  120SOL    HW1  359   2.965   2.781   0.176 -1.0588 -1.3962 -0.6360
  120SOL    HW2  360   2.796   2.754   0.228  0.2569 -3.2903 -0.2532
  121SOL     OW  361   1.920   0.746   2.215  0.8042  0.0740  0.7185
  121SOL    HW1  362   1.945   0.805   2.131  1.6696  1.3180 -0.0183
  121SOL    HW2  363   1.916   0.644   2.201 -0.7655 -0.2602  2.5280
  122SOL     OW  364   2.563   2.510   1.340  0.1337 -0.0093 -0.2321
  122SOL    HW1  365   2.619   2.502   1.257 -1.7306 -4.9557  2.6579
  122SOL    HW2  366   2.591   2.444   1.413 -2.6284 -1.1879 -1.0056
  123SOL     OW  367   1.723   0.157   1.731 -1.0490  0.7561  0.0556
  123SOL    HW1  368   1.740   0.068   1.678 -1.6647 -1.6594 -0.8575
  123SOL    HW2  369   1.808   0.182   1.785  2.7025  0.4283  2.5681
  124SOL     OW  370   3.067   0.461   1.070  0.2858 -0.8130 -0.1046
  124SOL    HW1  371   3.005   0.527   1.121  0.1783  0.1943  0.3410
  124SOL    HW2  372   3.076   0.480   0.967 -0.9404  1.4838  0.1300
  125SOL     OW  373   0.877   1.901   0.800 -0.5011  0.3350  1.0752
  125SOL    HW1  374   0.959   1.836   0.781  1.3822 -3.5764  0.9246
  125SOL    HW2  375   0.888   1.949   0.891  1.2657  0.1717 -2.6792
  126SOL     OW  376   1.946   2.292   2.430 -0.9063  0.0880  0.2968
  126SOL    HW1  377   1.981   2.231   2.351 -0.5001  1.4287  0.2310
  126SOL    HW2  378   1.903   2.234   2.505  0.1739  2.9707 -0.2209
  127SOL     OW  379   0.885   0.982   0.217 -0.2927  0.2080  0.2423
  127SOL    HW1  380   0.950   1.007   0.295 -0.2274  0.3786 -0.3181
  127SOL    HW2  381   0.890   0.884   0.195  1.3404  1.7255  0.9194
  128SOL     OW  382   0.941   0.275   1.421  0.3673 -0.2640  0.5865
  128SOL    HW1  383   0.919   0.363   1.364 -1.8466  0.8039 -0.3519
  128SOL    HW2  384   0.888   0.183   1.401  0.0492 -0.4046 -4.2512
  129SOL     OW  385   1.862   0.693   1.832  0.0065  0.0133 -0.2764
  129SOL    HW1  386   1.870   0.667   1.734 -2.2838  2.4430  1.8251
  129SOL    HW2  387   1.917   0.770   1.866  1.5703 -1.2111  1.3699
  130SOL     OW  388   1.378   2.264   0.993 -0.1646  0.6250 -0.8051
  130SOL    HW1  389   1.351   2.199   0.912  0.2352 -0.2417 -2.2569
  130SOL    HW2  390   1.445   2.336   0.962 -1.6813  0.6694  0.7454
  131SOL     OW  391   3.066   1.446   1.367  0.5656 -0.2723 -0.3609
  131SOL    HW1  392   3.007   1.355   1.359  0.2548 -3.0735  0.9964
  131SOL    HW2  393   3.168   1.424   1.355  1.6910  2.6111 -0.0175
  132SOL     OW  394   2.038   2.366   0.500  0.4040 -0.1321 -0.6607
  132SOL    HW1  395   1.947   2.416   0.511  2.3050 -0.4377 -0.1314
  132SOL    HW2  396   2.051   2.297   0.574  0.8202  0.5235  1.2170
  133SOL     OW  397   1.783   2.388   2.719 -0.6736  0.7092  0.5189
  133SOL    HW1  398   1.706   2.382   2.645  0.5316 -0.4836 -1.9869
  133SOL    HW2  399   1.870   2.430   2.682 -0.0025  1.8706 -2.6592
  134SOL     OW  400   2.705   2.389   1.598  0.0458  0.1129 -0.2297
  134SOL    HW1  401   2.649   2.385   1.682  0.8187 -0.6405 -0.4106
  134SOL    HW2  402   2.775   2.464   1.590 -1.7267  1.9442 -0.9484
  135SOL     OW  403   0.723   1.433   2.697  0.0268  0.0144 -0.0314
  135SOL    HW1  404   0.707   1.349   2.746  0.9384 -0.6122 -3.2830
  135SOL    HW2  405   0.740   1.414   2.599  2.1592 -0.5898 -0.2513
  136SOL     OW  406   1.177   2.035   0.398  0.0629  0.0181 -0.0337
  136SOL    HW1  407   1.128   2.120   0.439  1.9978  2.4254 -2.7016
  136SOL    HW2  408   1.115   1.951   0.398 -3.5062  0.3999 -2.1100
  137SOL     OW  409   0.406   1.229   2.244  0.0687 -0.5344  0.0295
  137SOL    HW1  410   0.308   1.228   2.276  0.3540  1.6005  0.5557
  137SOL    HW2  411   0.441   1.136   2.221 -2.5572  2.1127  1.3412
  138SOL     OW  412   2.447   1.528   0.280  0.0448  0.1417 -0.4902
  138SOL    HW1  413   2.384   1.505   0.198 -1.6520  0.7395 -0.5925
  138SOL    HW2  414   2.468   1.440   0.329  0.2504 -0.6094 -0.9346
  139SOL     OW  415   1.871   2.643   1.561 -0.6859  0.4175  0.8870
  139SOL    HW1  416   1.772   2.648   1.578  1.8400  1.5770 -0.1929
  139SOL    HW2  417   1.900   2.574   1.488  1.3412  0.9282  1.5300
  140SOL     OW  418   2.997   2.957   2.627 -0.4837 -0.5946 -0.1664
  140SOL    HW1  419   3.052   2.872   2.604 -0.3967  3.2528 -1.8930
  140SOL    HW2  420   3.039   3.036   2.576 -2.3674 -0.2833  0.4095
  141SOL     OW  421   1.307   1.622   1.548 -0.7853  0.3888 -0.3309
  141SOL    HW1  422   1.237   1.693   1.518  1.6872  0.1966 -0.3180
  141SOL    HW2  423   1.265   1.554   1.617 -0.7862 -0.2238 -1.1499
  142SOL     OW  424   1.493   0.643   2.234 -0.1870  0.4158 -0.3828
  142SOL    HW1  425   1.540   0.635   2.143 -1.3247  0.9024 -1.0023
  142SOL    HW2  426   1.405   0.588   2.239 -2.2282 -0.1171 -0.7492
  143SOL     OW  427   2.769   0.787   0.545  0.0906  0.1481 -0.0732
  143SOL    HW1  428   2.822   0.846   0.479 -1.4689 -0.2896 -0.5117
  143SOL    HW2  429   2.783   0.823   0.636 -2.6315  2.7115  0.5763
  144SOL     OW  430   2.926   1.178   1.445  0.0955 -0.1479 -0.1613
  144SOL    HW1  431   2.883   1.170   1.539  0.6862 -0.5883 -0.8709
  144SOL    HW2  432   2.975   1.091   1.408  1.5606  0.6329 -0.2652
  145SOL     OW  433   0.892   1.858   0.102 -0.5135 -0.1045 -0.0920
  145SOL    HW1  434   0.859   1.900   0.013 -1.2852  1.8771  1.9217
  145SOL    HW2  435   0.846   1.773   0.131 -1.3749 -0.3243  0.7724
  146SOL     OW  436   2.458   0.669   1.507 -0.2301  0.4457  0.5064
  146SOL    HW1  437   2.440   0.574   1.464  0.8622  1.1390 -4.3999
  146SOL    HW2  438   2.394   0.745   1.480  1.4101  0.0088  1.1911
  147SOL     OW  439   1.116   2.514   0.606 -0.2585 -0.1324  0.2963
  147SOL    HW1  440   1.056   2.574   0.543  0.5382  0.2029 -0.4483
  147SOL    HW2  441   1.209   2.489   0.567 -2.0884 -2.3662  0.3455
  148SOL     OW  442   1.593   1.470   3.078  0.5311  0.1992 -0.3682
  148SOL    HW1  443   1.606   1.374   3.040 -0.8316 -2.1360 -0.2773
  148SOL    HW2  444   1.561   1.464   3.176  0.4036  0.9956  1.6192
  149SOL     OW  445   0.675   1.520   1.954 -0.1983  0.1775 -0.1566
  149SOL    HW1  446   0.586   1.500   2.009 -2.2733  0.6902 -0.4329
  149SOL    HW2  447   0.692   1.459   1.868 -1.7154 -0.5016 -1.2039
  150SOL     OW  448   3.028   1.166   0.982 -0.0598 -0.5073 -0.2472
  150SOL    HW1  449   3.060   1.224   1.061  1.9520  0.2512  0.7851
  150SOL    HW2  450   2.967   1.092   1.007 -0.6788  0.7203  0.6929
  151SOL     OW  451   0.278   0.801   2.068 -0.8129  0.3257  0.9941
  151SOL    HW1  452   0.306   0.870   1.996  0.0312 -0.3464  2.4541
  151SOL    HW2  453   0.293   0.705   2.035 -1.7318  1.2610 -1.7170
  152SOL     OW  454   1.427   1.844   1.126  0.6435 -0.1388 -0.1785
  152SOL    HW1  455   1.485   1.926   1.124  1.6732 -0.6018 -2.2483
  152SOL    HW2  456   1.329   1.868   1.101  0.4067  1.7095  1.3295
  153SOL     OW  457   0.148   1.504   0.215 -0.1742  0.3359 -0.0066
  153SOL    HW1  458   0.085   1.415   0.209 -0.7453  1.4897 -1.4987
  153SOL    HW2  459   0.121   1.566   0.297 -1.4928  0.3721  0.0190
  154SOL     OW  460   2.267   1.828   2.770 -0.1661 -0.9495 -0.0147
  154SOL    HW1  461   2.266   1.725   2.789 -1.6574 -1.0216  2.0905
  154SOL    HW2  462   2.354   1.865   2.731  1.6493 -1.3334 -0.3414
  155SOL     OW  463   2.456   1.254   0.340  0.6569  0.2466  0.2604
  155SOL    HW1  464   2.539   1.204   0.297 -0.1607 -0.8114  1.0967
  155SOL    HW2  465   2.385   1.187   0.367  0.1005 -0.1571 -0.3094
  156SOL     OW  466   2.438   0.829   0.704 -0.5708  0.3764 -0.2808
  156SOL    HW1  467   2.334   0.823   0.702 -1.0682 -0.7300 -1.3992
  156SOL    HW2  468   2.466   0.914   0.652 -1.9191 -0.2807 -0.2580
  157SOL     OW  469   1.211   2.975   3.010 -0.0723  0.7202 -0.4025
  157SOL    HW1  470   1.292   2.947   2.949 -2.3504 -1.0490 -0.8258
  157SOL    HW2  471   1.210   3.070   3.042 -0.2542 -1.3145 -0.4268
  158SOL     OW  472   1.071   1.856   1.837 -0.0512  0.0716  0.1390
  158SOL    HW1  473   1.088   1.958   1.809  0.6541  1.6354 -0.3586
  158SOL    HW2  474   0.983   1.852   1.891  0.6734  1.5324  0.8932
  159SOL     OW  475   0.854   0.434   1.229  0.2596 -0.8127  0.0878
  159SOL    HW1  476   0.821   0.534   1.255  1.4458  0.5981 -0.3306
  159SOL    HW2  477   0.780   0.380   1.182 -1.6538  1.7495 -2.6233
  160SOL     OW  478   1.447   2.443   1.481  0.6988  0.3872 -0.7183
  160SOL    HW1  479   1.363   2.378   1.478 -1.1223  0.2621 -1.1870
  160SOL    HW2  480   1.542   2.402   1.460 -0.3827 -0.2187 -0.0694
  161SOL     OW  481   3.036   2.639   0.453 -0.1728 -0.0065 -0.5981
  161SOL    HW1  482   2.981   2.554   0.447 -0.8504 -1.2644  2.4869
  161SOL    HW2  483   3.009   2.695   0.368  1.5831  1.0528 -1.5057
  162SOL     OW  484   2.591   1.855   0.465 -0.1503  0.5888  0.4063
  162SOL    HW1  485   2.613   1.854   0.363 -0.8608 -1.4827 -0.4205
  162SOL    HW2  486   2.527   1.775   0.476  1.7408 -1.2372 -2.1850
  163SOL     OW  487   1.953   2.702   0.745  0.1765  0.2150  0.0900
  163SOL    HW1  488   1.974   2.690   0.647 -0.0628 -0.9033  0.7038
  163SOL    HW2  489   2.017   2.646   0.805 -0.3545  3.3129  1.4151
  164SOL     OW  490   3.054   0.219   1.200  0.4928  0.0879 -0.4034
  164SOL    HW1  491   3.080   0.310   1.156  2.3407  2.1726 -0.0509
  164SOL    HW2  492   3.118   0.200   1.279  2.9358  1.3814  2.3222
  165SOL     OW  493   1.109   1.403   0.673  0.5122  0.1453 -0.0178
  165SOL    HW1  494   1.101   1.440   0.772 -2.5295  1.1975  1.0762
  165SOL    HW2  495   1.078   1.466   0.597 -3.1197 -3.1364  0.7030
  166SOL     OW  496   1.507   1.009   1.788 -0.4249 -0.2706  0.1720
  166SOL    HW1  497   1.449   1.045   1.866 -0.5946 -0.8864  1.6981
  166SOL    HW2  498   1.582   1.069   1.754  0.5331 -1.2825 -0.4824
  167SOL     OW  499   0.738   1.959   1.462 -1.1448  0.3431 -0.0644
  167SOL    HW1  500   0.773   2.004   1.549 -0.6567  1.0416 -0.2838
  167SOL    HW2  501   0.668   1.878   1.477 -2.2828 -0.6671  2.3743
  168SOL     OW  502   1.552   2.337   0.153 -0.3494  0.0358 -0.3656
  168SOL    HW1  503   1.620   2.375   0.087  1.2540 -3.2915  1.8560
  168SOL    HW2  504   1.599   2.296   0.236 -1.1439  0.0465  0.6823
  169SOL     OW  505   0.073   2.556   2.186  0.0203 -0.4156  0.1262
  169SOL    HW1  506   0.112   2.535   2.092 -1.1115 -0.1312 -2.1568
  169SOL    HW2  507   0.128   2.526   2.265 -2.3857 -0.5299 -1.0284
  170SOL     OW  508   1.154   0.194   2.045  0.4284 -0.5054  0.0160
  170SOL    HW1  509   1.240   0.233   2.090  3.5225  3.1874 -1.1381
  170SOL    HW2  510   1.164   0.181   1.943 -0.8894 -1.9476  1.4128
  171SOL     OW  511   0.220   0.859   2.352  0.8156  0.0569 -0.6073
  171SOL    HW1  512   0.115   0.862   2.379 -0.9788  0.7074 -0.7103
  171SOL    HW2  513   0.247   0.855   2.254  0.5319  0.5821 -0.1603
  172SOL     OW  514   0.968   1.039   2.863 -0.3542  0.3764 -0.5957
  172SOL    HW1  515   0.916   1.121   2.904  0.9876 -0.4568  1.2420
  172SOL    HW2  516   0.920   1.001   2.777 -1.9440  1.1607  0.0382
  173SOL     OW  517   0.489   2.463   0.093 -0.4434 -0.0146 -0.3848
  173SOL    HW1  518   0.485   2.408   0.005  2.4249  3.0462 -1.1332
  173SOL    HW2  519   0.409   2.447   0.158  2.6926  1.5538  1.4895
  174SOL     OW  520   1.535   2.863   1.089 -0.0922 -0.2866  0.1747
  174SOL    HW1  521   1.605   2.912   1.028  1.5479  3.5717  1.1624
  174SOL    HW2  522   1.487   2.782   1.040 -0.2416  2.5335 -1.3680
  175SOL     OW  523   0.408   3.059   1.726 -0.7555 -0.0530  0.4170
  175SOL    HW1  524   0.489   3.042   1.790  1.7434 -2.9258 -0.2441
  175SOL    HW2  525   0.396   3.161   1.698 -0.2600  0.9771 -2.6928
  176SOL     OW  526   2.638   0.372   0.020  0.0626 -0.0445  0.2442
  176SOL    HW1  527   2.677   0.458   0.068  0.5311  1.3039  1.8150
  176SOL    HW2  528   2.589   0.306   0.080  1.3964  0.5075 -0.0042
  177SOL     OW  529   0.359   0.314   0.979  0.5456  0.0258 -0.3539
  177SOL    HW1  530   0.296   0.232   0.959  1.0804 -2.6967 -2.6613
  177SOL    HW2  531   0.332   0.376   1.057  2.6452  0.1731  0.1352
  178SOL     OW  532   0.017   2.734   2.550 -0.0357 -0.3507 -0.1514
  178SOL    HW1  533  -0.030   2.640   2.545 -1.4042 -1.9094  2.4403
  178SOL    HW2  534   0.083   2.742   2.632  0.5397  3.0222  0.4800
  179SOL     OW  535   2.986   1.530   1.115 -0.3475  0.1588  0.1234
  179SOL    HW1  536   3.060   1.556   1.051 -1.3063 -1.1569  0.5130
  179SOL    HW2  537   3.018   1.509   1.212 -0.9733  1.1147  4.4117
  180SOL     OW  538   0.192   1.368   1.790 -0.0033  0.1396  0.3850
  180SOL    HW1  539   0.292   1.339   1.792 -0.0161 -0.1230 -1.8148
  180SOL    HW2  540   0.159   1.411   1.872  2.2812 -3.1735 -0.1860
  181SOL     OW  541   2.976   1.915   2.545  0.1318 -0.7195 -0.0024
  181SOL    HW1  542   3.037   1.992   2.505 -3.8802 -1.5987 -0.4280
  181SOL    HW2  543   2.894   1.892   2.482 -0.3303  0.4779 -2.2728
  182SOL     OW  544   2.314   1.295   1.256 -0.5763  0.9109  0.0490
  182SOL    HW1  545   2.262   1.235   1.194  1.9095 -1.2118 -1.3827
  182SOL    HW2  546   2.344   1.385   1.207  1.0590  1.0721 -3.9504
  183SOL     OW  547   1.396   2.314   2.462  0.3820  0.0069  0.3269
  183SOL    HW1  548   1.317   2.297   2.530 -1.3959 -3.1645  0.0123
  183SOL    HW2  549   1.448   2.227   2.437  1.1936  1.2957 -0.9325
  184SOL     OW  550   2.149   0.823   0.758 -0.3643 -0.5112 -0.0744
  184SOL    HW1  551   2.045   0.842   0.773  1.7041 -2.2181  2.0644
  184SOL    HW2  552   2.159   0.724   0.723 -2.7387  0.3295 -0.4178
  185SOL     OW  553   1.540   2.743   2.048  0.5030  1.1366 -0.4600
  185SOL    HW1  554   1.473   2.819   2.022  0.0065  2.0592  0.4798
  185SOL    HW2  555   1.569   2.747   2.148  1.4822 -0.1818  0.2613
  186SOL     OW  556   0.061   2.214   1.656  0.0921  0.1329  0.5401
  186SOL    HW1  557   0.049   2.227   1.761  1.2437 -0.2119 -2.1463
  186SOL    HW2  558   0.145   2.154   1.629  0.5359  1.1530  0.0838
  187SOL     OW  559   1.345   0.637   1.672 -0.1124  0.4496 -0.0691
  187SOL    HW1  560   1.430   0.688   1.675 -2.8881 -2.8586 -3.2368
  187SOL    HW2  561   1.347   0.557   1.739 -0.4541 -0.2220 -1.5087
  188SOL     OW  562   2.754   2.704   1.431 -0.3542  0.3821  0.3544
  188SOL    HW1  563   2.747   2.798   1.395  0.3171 -0.5896  2.6319
  188SOL    HW2  564   2.674   2.647   1.395 -0.6924 -0.4470 -1.1464
  189SOL     OW  565   0.906   1.203   1.377  0.2037 -0.0877 -0.4995
  189SOL    HW1  566   0.957   1.255   1.450 -1.6249 -1.8578  0.9938
  189SOL    HW2  567   0.847   1.262   1.313  1.2928  0.2375 -2.9851
  190SOL     OW  568   1.457   1.896   1.530 -0.1676  0.0947 -0.3242
  190SOL    HW1  569   1.412   1.805   1.526 -1.6487  1.4564 -2.7957
  190SOL    HW2  570   1.463   1.937   1.623  1.6314 -0.4482 -0.5988
  191SOL     OW  571   0.900   0.815   1.507 -1.0246  0.1202 -0.1212
  191SOL    HW1  572   0.943   0.761   1.585  0.6078  1.0790  2.4263
  191SOL    HW2  573   0.966   0.868   1.447  0.6995 -1.0733  1.0753
  192SOL     OW  574   1.842   2.477   1.099 -0.0146  0.1397 -0.0512
  192SOL    HW1  575   1.742   2.467   1.081 -2.0687 -1.0822 -0.2694
  192SOL    HW2  576   1.905   2.408   1.052  0.3023 -0.1238  0.5297
  193SOL     OW  577   0.550   0.566   0.478  0.2710  0.1387  0.9352
  193SOL    HW1  578   0.480   0.492   0.486  1.2061 -0.7845 -2.1882
  193SOL    HW2  579   0.591   0.575   0.377 -0.8094  2.2039 -2.6507
  194SOL     OW  580   0.356   0.901   1.330 -0.0737 -0.5799 -0.3949
  194SOL    HW1  581   0.307   0.811   1.305  0.8673  0.7204 -1.5266
  194SOL    HW2  582   0.373   0.962   1.247  1.7715  0.8221 -1.8455
  195SOL     OW  583   0.984   2.891   0.527  0.0180 -0.4053 -0.2736
  195SOL    HW1  584   0.965   2.807   0.466 -0.3454 -0.7494  0.3922
  195SOL    HW2  585   1.080   2.930   0.497  1.0070 -0.4846  1.5156
  196SOL     OW  586   0.271   1.379   1.335  0.2199  0.2910 -0.1346
  196SOL    HW1  587   0.260   1.482   1.339  0.5817  2.0695 -0.0934
  196SOL    HW2  588   0.289   1.334   1.426 -1.2103 -1.5756 -0.4077
  197SOL     OW  589   0.847   2.012   0.316  0.3338  0.1370 -0.4549
  197SOL    HW1  590   0.821   1.939   0.388  0.6782 -1.8915  1.3092
  197SOL    HW2  591   0.884   1.963   0.231  0.9088  1.6976 -1.1222
  198SOL     OW  592   0.296   1.251   0.348  0.2265  0.2183 -0.1316
  198SOL    HW1  593   0.194   1.264   0.319 -1.5587 -1.7029  1.0484
  198SOL    HW2  594   0.323   1.339   0.398  1.9865  0.4343  0.3440
  199SOL     OW  595   2.235   0.462   2.576 -0.4077  0.1250  0.5750
  199SOL    HW1  596   2.160   0.455   2.648  0.1694 -1.6315 -2.5489
  199SOL    HW2  597   2.322   0.409   2.602  1.7397  0.5649 -1.7460
  200SOL     OW  598   3.082   2.987   0.821 -0.1924  0.0066  0.2184
  200SOL    HW1  599   3.076   3.083   0.866  0.1208  0.6956 -1.6671
  200SOL    HW2  600   3.031   2.978   0.727 -1.0595  0.6514  0.1813
  201SOL     OW  601   0.925   0.729   0.505 -0.0265 -0.1884  0.4450
  201SOL    HW1  602   0.896   0.812   0.569 -0.6131  1.4838  0.7039
  201SOL    HW2  603   0.873   0.641   0.532  0.6617 -0.9853 -1.8652
  202SOL     OW  604   0.435   1.251   1.822  0.0022  0.1384  0.1172
  202SOL    HW1  605   0.508   1.177   1.807  0.6828 -0.8849 -4.2717
  202SOL    HW2  606   0.436   1.307   1.909  0.1205  0.1994 -0.4415
  203SOL     OW  607   0.641   0.217   1.555  0.4309 -0.0527 -0.2110
  203SOL    HW1  608   0.684   0.144   1.490  3.0556 -1.0786  1.6596
  203SOL    HW2  609   0.682   0.204   1.653  0.0171  2.0842  2.4477
  204SOL     OW  610   2.073   1.791   2.974 -0.4840  0.2746 -0.3578
  204SOL    HW1  611   2.108   1.689   2.985 -0.2931 -0.2133  1.4369
  204SOL    HW2  612   2.113   1.838   2.889 -3.0108 -0.6152  1.9586
  205SOL     OW  613   1.845   1.877   3.098  0.0065 -0.4141 -0.5298
  205SOL    HW1  614   1.937   1.840   3.056  2.6321  0.9980 -0.4326
  205SOL    HW2  615   1.830   1.977   3.068  0.2706  1.0239 -0.8217
  206SOL     OW  616   2.418   2.772   0.331 -0.0233 -0.5860 -0.7920
  206SOL    HW1  617   2.362   2.706   0.386  1.7754  0.7949  2.2570
  206SOL    HW2  618   2.485   2.735   0.265  2.3000  0.2529 -1.8939
  207SOL     OW  619   0.717   1.759   2.857  0.3904  0.2766 -0.7212
  207SOL    HW1  620   0.803   1.713   2.827 -1.0975  2.8918 -0.6291
  207SOL    HW2  621   0.676   1.711   2.940  2.5258  1.4603 -2.0116
  208SOL     OW  622   1.039   1.638   1.236 -0.7115 -0.6602 -0.2179
  208SOL    HW1  623   1.077   1.726   1.199 -1.3365 -1.3059 -1.5354
  208SOL    HW2  624   0.967   1.650   1.307  2.2996 -0.3520  1.8597
  209SOL     OW  625   0.235   0.988   3.082  0.6800 -0.2951  0.0478
  209SOL    HW1  626   0.215   0.911   3.015  1.9980  1.0972 -0.2411
  209SOL    HW2  627   0.211   0.958   3.176 -1.8517  1.0098 -0.6769
  210SOL     OW  628   1.721   0.480   1.238 -0.2631  0.2657  0.2357
  210SOL    HW1  629   1.650   0.555   1.222  0.7136 -1.9336  0.2032
  210SOL    HW2  630   1.820   0.512   1.227  2.7363 -2.0660  0.6000
  211SOL     OW  631   2.050   1.015   1.570  0.3246 -0.1396  0.1889
  211SOL    HW1  632   2.075   0.955   1.650 -0.1552 -2.3651  2.0203
  211SOL    HW2  633   2.128   1.058   1.521 -0.0619 -4.9842  0.5020
  212SOL     OW  634   0.025   0.976   1.478 -0.2319  0.3941  0.0101
  212SOL    HW1  635   0.090   1.054   1.500 -1.5748 -1.5165  0.3496
  212SOL    HW2  636   0.037   0.893   1.540 -0.5917  1.6287  0.3316
  213SOL     OW  637   2.755   0.199   0.247  0.6261  0.1358  0.3564
  213SOL    HW1  638   2.847   0.157   0.211  1.2787 -2.3881 -1.7641
  213SOL    HW2  639   2.671   0.135   0.252  0.1186  1.3726 -0.5678
  214SOL     OW  640   2.154   0.345   2.345 -0.0384 -0.1610 -0.1394
  214SOL    HW1  641   2.183   0.398   2.425 -2.7892  0.2810 -2.2329
  214SOL    HW2  642   2.166   0.241   2.357  2.6804 -2.2657 -1.0574
  215SOL     OW  643   1.647   2.264   2.088  0.2285 -0.2772 -0.2783
  215SOL    HW1  644   1.751   2.282   2.081  1.9930 -0.7833  1.3792
  215SOL    HW2  645   1.597   2.351   2.113 -0.6770 -1.8529 -0.4885
  216SOL     OW  646   2.143   0.585   0.623 -0.2824 -1.1069  0.8487
  216SOL    HW1  647   2.110   0.499   0.570 -1.3170  2.2384  0.9641
  216SOL    HW2  648   2.205   0.647   0.556  1.9823  0.7076 -1.4817
  217SOL     OW  649   0.934   2.831   2.558  0.0768 -0.7363  0.3510
  217SOL    HW1  650   0.934   2.769   2.637 -4.0451  1.0821  0.7286
  217SOL    HW2  651   0.898   2.794   2.466  1.3192 -0.0023 -2.3714
  218SOL     OW  652   1.888   1.466   0.021  0.1394 -0.0888 -0.3726
  218SOL    HW1  653   1.797   1.486  -0.024  0.2019  1.1404 -0.8693
  218SOL    HW2  654   1.892   1.372   0.068  1.2065  0.8424 -2.1132
  219SOL     OW  655   2.463   1.266   2.520 -0.3638 -0.0987 -0.3563
  219SOL    HW1  656   2.518   1.225   2.445 -1.2617 -1.5332 -1.8166
  219SOL    HW2  657   2.493   1.237   2.615  0.7507 -0.8093  2.1266
  220SOL     OW  658   1.434   1.007   1.397 -0.2136  0.0263 -0.2268
  220SOL    HW1  659   1.540   0.993   1.398 -0.8814 -1.5770  0.0302
  220SOL    HW2  660   1.396   1.012   1.300  0.9356 -3.6473 -0.0711
  221SOL     OW  661   1.354   0.948   2.230 -0.1212  0.3097  0.7081
  221SOL    HW1  662   1.341   0.978   2.126 -0.7501 -1.0876  0.5542
  221SOL    HW2  663   1.423   1.010   2.272 -0.0338 -1.1023 -1.6686
  222SOL     OW  664   1.106   0.105   1.234  0.3260 -0.3772 -0.4067
  222SOL    HW1  665   1.079   0.180   1.303  1.9587 -0.0939  3.1670
  222SOL    HW2  666   1.123   0.139   1.137  0.4560  2.7437  0.9904
  223SOL     OW  667   2.708   0.914   2.086 -0.1667  0.1056  0.1688
  223SOL    HW1  668   2.648   0.998   2.099 -0.6845  1.6767 -1.0684
  223SOL    HW2  669   2.806   0.933   2.112  1.1724  0.7105 -2.4062
  224SOL     OW  670   1.554   1.065   2.737  0.6716  0.6214  0.3837
  224SOL    HW1  671   1.589   0.978   2.694  4.1323 -0.5339 -0.4834
  224SOL    HW2  672   1.564   1.148   2.681  1.3846 -1.6763  3.1124
  225SOL     OW  673   2.959   2.699   2.841  0.1747 -0.0011  0.4008
  225SOL    HW1  674   2.865   2.694   2.786 -3.6248 -0.8729 -0.2951
  225SOL    HW2  675   3.007   2.792   2.837 -1.6322  2.1961  0.2871
  226SOL     OW  676   2.353   1.549   2.816 -0.1508 -0.8259  0.5308
  226SOL    HW1  677   2.426   1.539   2.741  0.6522 -0.3605 -3.0055
  226SOL    HW2  678   2.367   1.497   2.902 -2.4714 -4.4066  1.3186
  227SOL     OW  679   0.851   0.262   3.078 -0.3004  0.3131 -0.1657
  227SOL    HW1  680   0.906   0.350   3.064 -0.2079 -1.6466 -1.1041
  227SOL    HW2  681   0.800   0.238   2.990  1.3830 -1.9628  0.2461
  228SOL     OW  682   2.402   0.608   2.832  0.3434  0.2212  0.2000
  228SOL    HW1  683   2.403   0.677   2.757 -2.4633  1.9703 -1.1725
  228SOL    HW2  684   2.493   0.569   2.846 -2.2718  0.8272  1.1889
  229SOL     OW  685   0.509   0.480   1.799 -0.1671 -0.1800 -0.2796
  229SOL    HW1  686   0.532   0.391   1.837 -0.7011  0.9609 -2.0255
  229SOL    HW2  687   0.567   0.506   1.713  2.2441  2.4330 -0.0639
  230SOL     OW  688   1.873   1.232   2.028  0.2772  0.2166 -0.4344
  230SOL    HW1  689   1.961   1.284   2.003 -1.4743  1.8213 -0.4343
  230SOL    HW2  690   1.794   1.298   2.044  0.2460  1.2010 -0.7409
  231SOL     OW  691   0.657   1.071   3.091 -0.6013 -0.0751  0.0080
  231SOL    HW1  692   0.736   1.137   3.104  3.0249  0.5221 -2.4092
  231SOL    HW2  693   0.564   1.122   3.110  3.0892 -0.6086 -0.9002
  232SOL     OW  694   2.412   3.010   2.856 -0.4942 -0.0849  0.6630
  232SOL    HW1  695   2.483   2.934   2.876 -0.3908  0.9446  2.6907
  232SOL    HW2  696   2.429   3.062   2.765 -3.2662 -0.0820  2.0353
  233SOL     OW  697   1.745   1.234   1.188 -0.4176 -0.4086 -0.7285
  233SOL    HW1  698   1.825   1.270   1.137  0.9962  0.1800  1.2949
  233SOL    HW2  699   1.751   1.131   1.194  0.2038 -2.2100  0.3751
  234SOL     OW  700   1.655   2.578   1.826  0.0889 -0.2340  0.0391
  234SOL    HW1  701   1.631   2.604   1.925 -0.2934 -1.4358 -0.4657
  234SOL    HW2  702   1.591   2.510   1.795  0.1290  2.4250 -0.0845
  235SOL     OW  703   3.101   2.938   2.876 -0.2306 -0.2037  0.4550
  235SOL    HW1  704   3.062   2.975   2.786 -1.3469 -0.2456 -0.0509
  235SOL    HW2  705   3.069   2.992   2.962  0.4978 -3.4394 -0.3382
  236SOL     OW  706   2.942   0.646   0.090 -0.3126 -0.2993 -0.6956
  236SOL    HW1  707   3.004   0.709   0.147  1.9347  1.1180 -1.0443
  236SOL    HW2  708   3.001   0.581   0.028  0.2421 -0.9175  0.6321
  237SOL     OW  709   1.455   1.628   0.927 -1.0540 -0.2004 -0.5050
  237SOL    HW1  710   1.555   1.603   0.916 -2.5269 -0.4500 -0.2114
  237SOL    HW2  711   1.438   1.705   0.999 -0.6981  1.1531  0.3425
  238SOL     OW  712   1.889   1.198   0.763  0.2599 -0.7799  0.8040
  238SOL    HW1  713   1.940   1.206   0.859 -1.5392  1.2864  2.9451
  238SOL    HW2  714   1.799   1.249   0.768 -0.8371  2.5386  0.9908
  239SOL     OW  715   2.057   0.267   2.748  0.2608  0.0007 -0.4045
  239SOL    HW1  716   2.082   0.214   2.836 -0.4340 -1.6630  1.3535
  239SOL    HW2  717   1.969   0.318   2.750  0.4623 -1.8324  0.7295
  240SOL     OW  718   0.924   0.695   0.241 -0.2799  0.1447 -0.2531
  240SOL    HW1  719   0.982   0.609   0.211  0.1475 -2.5780 -0.1174
  240SOL    HW2  720   0.926   0.709   0.350  0.8710 -2.5268  1.4625
  241SOL     OW  721   0.586   0.100   0.388 -0.4313  0.1063  0.0576
  241SOL    HW1  722   0.637   0.175   0.336  2.7564  1.5025  1.5877
  241SOL    HW2  723   0.540   0.036   0.328 -0.5673  3.0426 -0.7248
  242SOL     OW  724   0.626   2.552   1.184  0.0056 -0.0670 -0.4578
  242SOL    HW1  725   0.639   2.537   1.286  2.2677 -1.3215 -1.6156
  242SOL    HW2  726   0.592   2.647   1.153 -0.7036  0.9960 -2.2325
  243SOL     OW  727   1.040   0.583   2.395  0.5389  0.7989 -0.0892
  243SOL    HW1  728   0.948   0.629   2.379  1.7160 -2.9472  0.2791
  243SOL    HW2  729   1.037   0.528   2.483 -2.2469  2.5196  1.7426
  244SOL     OW  730   2.758   1.899   2.359  0.0965  0.3536 -0.2404
  244SOL    HW1  731   2.787   1.857   2.269  1.4647 -2.6019 -0.1920
  244SOL    HW2  732   2.668   1.864   2.393  1.6506  0.1482  0.4718
  245SOL     OW  733   2.177   0.926   2.159  0.3599  0.1282 -0.4075
  245SOL    HW1  734   2.273   0.913   2.199 -1.4441 -2.0356 -0.4043
  245SOL    HW2  735   2.121   0.989   2.221 -1.2769 -0.7083 -2.9758
  246SOL     OW  736   0.239   2.852   1.757  0.3632 -0.3714  0.4321
  246SOL    HW1  737   0.151   2.867   1.708 -0.6141  0.4255  1.2759
  246SOL    HW2  738   0.297   2.938   1.750  1.0354 -2.7107  0.8652
  247SOL     OW  739   2.239   0.625   3.035 -0.0107 -0.0080 -0.2559
  247SOL    HW1  740   2.295   0.624   2.946  0.2515 -0.4597  1.2023
  247SOL    HW2  741   2.180   0.706   3.032  0.2225 -1.9970 -0.0234
  248SOL     OW  742   2.198   1.853   1.610  0.1410 -0.3198  0.9166
  248SOL    HW1  743   2.271   1.810   1.674 -0.7030  1.2851 -1.5953
  248SOL    HW2  744   2.113   1.799   1.620 -0.6869 -0.0415  0.2022
  249SOL     OW  745   1.941   1.878   1.825 -0.4299  0.2744  0.1784
  249SOL    HW1  746   1.947   1.808   1.747 -1.0556  2.3695 -1.4876
  249SOL    HW2  747   2.038   1.896   1.866  0.5340 -1.7581  1.3813
  250SOL     OW  748   1.106   0.717   1.859 -0.4847 -0.7557 -0.1911
  250SOL    HW1  749   1.124   0.647   1.933 -2.5453  1.2618 -0.8272
  250SOL    HW2  750   1.074   0.681   1.767 -0.5854 -1.3408 -2.2059
  251SOL     OW  751   3.019   1.640   2.565 -0.1630  0.3190 -0.4952
  251SOL    HW1  752   2.990   1.743   2.568  0.7527  2.7132  3.2927
  251SOL    HW2  753   2.940   1.571   2.565  0.1324  0.8041  0.0033
  252SOL     OW  754   1.597   0.777   1.670 -0.3868  0.6814 -1.1384
  252SOL    HW1  755   1.658   0.797   1.590 -0.1378 -1.1865 -2.8850
  252SOL    HW2  756   1.553   0.863   1.708  0.9817  0.2042  1.4047
  253SOL     OW  757   0.985   1.558   0.493 -0.0956 -0.7520  0.0605
  253SOL    HW1  758   0.990   1.488   0.415 -0.8531 -1.0019  2.9988
  253SOL    HW2  759   0.890   1.551   0.535 -0.9488  0.9844  0.2302
  254SOL     OW  760   2.022   2.209   1.655 -0.0693 -0.1193 -0.3146
  254SOL    HW1  761   1.971   2.134   1.605 -1.1894 -1.2194 -0.6868
  254SOL    HW2  762   1.954   2.278   1.701  1.0149  2.0178 -0.2276
  255SOL     OW  763   0.138   1.179   2.903  0.3812 -0.1092  0.1977
  255SOL    HW1  764   0.192   1.265   2.904 -2.1932 -2.1902  1.0806
  255SOL    HW2  765   0.166   1.111   2.974 -1.7920 -2.8311  1.5110
  256SOL     OW  766   2.831   1.367   1.857 -0.0415 -0.0329 -0.3342
  256SOL    HW1  767   2.778   1.457   1.867  0.2775  1.3819 -0.6364
  256SOL    HW2  768   2.793   1.296   1.798  0.6820  1.0817  1.6936
  257SOL     OW  769   0.801   0.145   1.788 -0.2742  0.4121  0.6098
  257SOL    HW1  770   0.861   0.219   1.749  0.7108 -1.9269  2.6396
  257SOL    HW2  771   0.840   0.053   1.769  1.4122 -3.5610  1.8720
  258SOL     OW  772   2.972   1.200   0.505  0.1022 -0.5036  0.5202
  258SOL    HW1  773   2.882   1.218   0.551  3.1732  0.4575 -0.1763
  258SOL    HW2  774   3.052   1.193   0.568 -1.5781 -2.4895  1.4225
  259SOL     OW  775   0.395   2.918   3.031  0.6770 -0.3354 -0.5602
  259SOL    HW1  776   0.330   2.853   3.089  0.9782 -1.1049 -0.1365
  259SOL    HW2  777   0.428   2.867   2.948 -1.6640 -2.1493  0.4844
  260SOL     OW  778   2.751   0.744   2.752 -0.6053  0.3013 -0.8863
  260SOL    HW1  779   2.696   0.826   2.729  0.2191  0.6296  0.4331
  260SOL    HW2  780   2.723   0.686   2.832  1.5617  0.6360 -0.5720
  261SOL     OW  781   2.713   1.299   1.309  0.0995  0.6084  0.5152
  261SOL    HW1  782   2.666   1.234   1.246  2.9033 -1.1025  3.9571
  261SOL    HW2  783   2.802   1.267   1.354  1.0226  0.0368 -0.3331
  262SOL     OW  784   1.374   2.970   2.000  0.0979 -0.3194  1.5259
  262SOL    HW1  785   1.414   3.064   1.967 -0.2721 -0.3893 -1.0089
  262SOL    HW2  786   1.274   2.969   2.022  1.5709  0.1855 -1.6702
  263SOL     OW  787   0.805   0.694   2.282 -0.5730  0.3274  0.4118
  263SOL    HW1  788   0.778   0.594   2.257  0.4255  0.0573 -1.9797
  263SOL    HW2  789   0.818   0.744   2.192 -1.0626 -0.2433 -0.5001
  264SOL     OW  790   2.285   0.795   0.430  0.3146  0.3109 -0.8335
  264SOL    HW1  791   2.268   0.746   0.338  3.7037 -0.1063 -0.8506
  264SOL    HW2  792   2.376   0.847   0.420 -0.0467 -0.4994 -0.2284
  265SOL     OW  793   0.958   2.403   2.609  0.3007 -0.1340 -0.0898
  265SOL    HW1  794   1.024   2.452   2.670 -1.9753 -0.2451 -0.9536
  265SOL    HW2  795   0.912   2.319   2.658  0.3127 -4.1460  1.5364
  266SOL     OW  796   1.320   1.772   3.060 -0.0663 -0.0379  0.1373
  266SOL    HW1  797   1.345   1.795   3.159 -0.1259  0.8731  1.4996
  266SOL    HW2  798   1.403   1.771   2.997 -2.5704 -0.6027 -2.9059
  267SOL     OW  799   1.106   0.025   2.272 -0.0716 -1.0411 -0.1860
  267SOL    HW1  800   1.021  -0.008   2.220  0.5477  0.7389  0.1046
  267SOL    HW2  801   1.159   0.080   2.207 -2.9641 -2.4313  2.0579
  268SOL     OW  802   0.825   1.238   1.049  0.6543  0.0331  0.3688
  268SOL    HW1  803   0.810   1.312   1.124 -1.1332  0.2776  0.3640
  268SOL    HW2  804   0.813   1.278   0.959  1.5006 -3.8177  2.5351
  269SOL     OW  805   2.368   2.503   1.642 -0.0564 -0.2397  0.6428
  269SOL    HW1  806   2.422   2.426   1.679 -1.0156 -1.6645  3.2485
  269SOL    HW2  807   2.306   2.540   1.715  2.4698 -0.5494  3.6188
  270SOL     OW  808   0.128   2.972   2.006 -0.2365  0.2218  0.2383
  270SOL    HW1  809   0.166   2.929   1.922 -0.8052  0.6352  0.1034
  270SOL    HW2  810   0.083   2.901   2.068  0.1719  1.3995  0.8294
  271SOL     OW  811   0.499   1.417   1.122  0.4203 -0.1466 -0.5427
  271SOL    HW1  812   0.469   1.393   1.025 -3.1275 -3.3489 -1.4548
  271SOL    HW2  813   0.433   1.387   1.195  2.6337  0.3162  0.5697
  272SOL     OW  814   1.952   3.033   1.945 -0.4859  0.7493 -0.3769
  272SOL    HW1  815   1.855   3.000   1.920 -4.0329 -0.2668  2.0752
  272SOL    HW2  816   2.023   3.046   1.869 -1.3606 -1.1587 -2.2799
  273SOL     OW  817   1.504   1.457   2.742  0.7626 -0.3905  0.6197
  273SOL    HW1  818   1.406   1.420   2.732  0.1597 -1.5205  2.4480
  273SOL    HW2  819   1.525   1.506   2.834  2.2753  0.9266  0.1890
  274SOL     OW  820   1.170   0.510   2.046 -0.2313  0.4145 -0.3277
  274SOL    HW1  821   1.091   0.449   2.027  0.5674 -0.3786 -2.1125
  274SOL    HW2  822   1.203   0.510   2.144  1.4686 -0.3709 -3.3880
  275SOL     OW  823   0.623   2.124   1.915 -0.6272 -0.1984  0.6779
  275SOL    HW1  824   0.622   2.166   2.008  1.9948 -0.7315  0.0558
  275SOL    HW2  825   0.533   2.080   1.887  1.4300 -1.0579  1.0617
  276SOL     OW  826   2.181   1.032   2.799  0.6578 -0.9372 -0.3532
  276SOL    HW1  827   2.111   1.046   2.722  0.0028  0.2973  0.2056
  276SOL    HW2  828   2.149   0.953   2.855 -2.2847  1.0313 -1.9858
  277SOL     OW  829   3.065   0.798   0.281 -0.0933 -0.0861  0.4863
  277SOL    HW1  830   3.147   0.858   0.286  0.0239 -1.0825 -1.2166
  277SOL    HW2  831   3.073   0.715   0.342  0.4043 -0.2501 -0.2478
  278SOL     OW  832   0.228   0.241   2.969  0.1574 -0.0879  0.3795
  278SOL    HW1  833   0.316   0.201   2.939  0.2238  0.7531  2.1704
  278SOL    HW2  834   0.234   0.330   3.029 -0.1898  3.3354 -0.1612
  279SOL     OW  835   0.269   0.061   0.924 -0.0727  0.0586 -0.2460
  279SOL    HW1  836   0.323   0.061   1.010  1.2286  0.5307  0.1687
  279SOL    HW2  837   0.307   0.001   0.849 -4.7471 -1.6254  1.0196
  280SOL     OW  838   1.615   2.946   2.413  0.2122  0.2541  0.3179
  280SOL    HW1  839   1.674   2.995   2.481 -1.3017 -1.5094 -2.3427
  280SOL    HW2  840   1.545   3.003   2.352  0.7096 -0.5523 -1.8545
  281SOL     OW  841   0.552   0.950   2.269 -0.5372 -0.3229 -0.3098
  281SOL    HW1  842   0.573   0.861   2.224  1.6042 -0.4781  0.2455
  281SOL    HW2  843   0.507   0.938   2.363 -3.8489  0.3546 -0.6779
  282SOL     OW  844   1.787   2.471   0.537 -0.4295 -0.0860  0.5702
  282SOL    HW1  845   1.741   2.394   0.482  0.1683 -1.3974 -0.3433
  282SOL    HW2  846   1.754   2.562   0.504  0.8561 -2.1103  0.4459
  283SOL     OW  847   1.128   0.927   0.763 -0.0288 -0.6567  0.1475
  283SOL    HW1  848   1.159   0.874   0.844 -0.4897 -0.0032 -0.7103
  283SOL    HW2  849   1.114   1.026   0.792  2.1439 -2.1197  1.7640
  284SOL     OW  850   2.249   2.834   2.481  0.0562  0.1448 -0.2400
  284SOL    HW1  851   2.349   2.834   2.459  1.6471 -2.2194 -2.0917
  284SOL    HW2  852   2.218   2.830   2.578  1.8423 -1.6921 -3.4458
  285SOL     OW  853   1.384   0.028   2.578 -0.2783  0.1151  0.3769
  285SOL    HW1  854   1.442   0.024   2.492  3.3491 -1.6505  0.3163
  285SOL    HW2  855   1.281   0.018   2.571  0.2452  1.0211 -0.9564
  286SOL     OW  856   0.448   0.443   0.752 -0.4003  1.0811 -0.5684
  286SOL    HW1  857   0.439   0.368   0.828 -0.5372 -0.6539 -2.6018
  286SOL    HW2  858   0.467   0.393   0.664 -1.4534 -0.6394  0.3323
  287SOL     OW  859   0.084   1.316   2.663  0.3369  0.3570  0.5933
  287SOL    HW1  860   0.006   1.254   2.637  0.2964  1.0861  1.7320
  287SOL    HW2  861   0.107   1.319   2.761 -2.0805 -1.6506 -3.0938
  288SOL     OW  862   1.541   2.736   1.633 -0.8291 -0.0379 -0.0958
  288SOL    HW1  863   1.594   2.689   1.703  1.7257  0.4235 -1.3434
  288SOL    HW2  864   1.562   2.710   1.534 -0.6739 -1.3303  0.3619
  289SOL     OW  865   0.615   2.735   0.861  0.0931  0.2604  0.0200
  289SOL    HW1  866   0.673   2.810   0.814  1.3366  4.7847  1.5446
  289SOL    HW2  867   0.569   2.769   0.945  2.7032  0.5244 -0.5177
  290SOL     OW  868   2.799   1.126   1.741 -0.0028 -0.6185  0.0769
  290SOL    HW1  869   2.733   1.045   1.743  0.7874  1.6703 -1.5278
  290SOL    HW2  870   2.884   1.114   1.798  0.4853  2.8438 -0.0037
  291SOL     OW  871   1.946  -0.001   0.056 -0.3098  0.1683  0.2777
  291SOL    HW1  872   1.956   0.066   0.138  2.5565 -0.1021  2.0718
  291SOL    HW2  873   1.995   0.042  -0.022 -1.5274  3.0060  1.7515
  292SOL     OW  874   3.021   1.205   3.077 -0.3439 -0.8026  0.1522
  292SOL    HW1  875   2.930   1.247   3.066 -0.7080  1.6783 -2.6183
  292SOL    HW2  876   3.079   1.200   2.991  2.3626 -1.3831 -1.1511
  293SOL     OW  877   0.575   2.110   0.284 -0.7016 -0.2351  0.3697
  293SOL    HW1  878   0.541   2.186   0.351  0.6194  1.6708 -0.3473
  293SOL    HW2  879   0.673   2.090   0.304 -1.1472 -0.5824 -0.9446
  294SOL     OW  880   1.847   2.359   1.801  0.0256  0.7709 -0.7253
  294SOL    HW1  881   1.879   2.350   1.899 -1.4097  3.1544 -3.3670
  294SOL    HW2  882   1.808   2.454   1.781  1.0782 -0.9651 -1.1847
  295SOL     OW  883   0.997   1.073   0.454  0.6871 -0.4827 -0.1082
  295SOL    HW1  884   1.098   1.089   0.488  0.2775  2.7985  1.7043
  295SOL    HW2  885   0.942   1.038   0.531 -0.6329 -1.1875 -2.8435
  296SOL     OW  886   1.161   2.133   2.734 -0.4027  0.1941 -0.2313
  296SOL    HW1  887   1.060   2.129   2.752 -3.0635 -0.8789 -0.2227
  296SOL    HW2  888   1.191   2.085   2.646  3.8325 -0.6682 -0.7047
  297SOL     OW  889   1.343   0.562   1.271 -0.7214 -0.1539 -0.6069
  297SOL    HW1  890   1.386   0.489   1.325 -0.5995  2.1929 -0.2998
  297SOL    HW2  891   1.412   0.631   1.241  1.6415 -1.4744 -1.4677
  298SOL     OW  892   0.519   1.344   2.971 -0.0991  0.0049 -0.3816
  298SOL    HW1  893   0.471   1.278   3.038 -0.0696  0.5330 -1.4143
  298SOL    HW2  894   0.615   1.311   2.953 -2.9940 -2.7959 -0.4754
  299SOL     OW  895   0.410   0.233   1.306 -0.1165 -0.6573 -0.5545
  299SOL    HW1  896   0.369   0.328   1.306  1.3388 -1.3175 -0.9446
  299SOL    HW2  897   0.436   0.200   1.397 -0.6083 -3.5061 -2.0963
  300SOL     OW  898   1.270   1.740   2.577  0.0152  0.3093 -0.1334
  300SOL    HW1  899   1.229   1.656   2.531  0.4320  2.2473  1.1345
  300SOL    HW2  900   1.373   1.751   2.553  0.2953 -0.0423 -0.2556
  301SOL     OW  901   0.416   0.325   0.518  0.2923  1.1352 -0.4195
  301SOL    HW1  902   0.327   0.299   0.567 -1.4862  0.1217  1.9219
  301SOL    HW2  903   0.461   0.235   0.481  1.9713 -2.5699  0.1188
  302SOL     OW  904   1.267   2.470   2.253  0.2269 -0.2606 -0.5396
  302SOL    HW1  905   1.167   2.500   2.276  0.3126  2.3997  1.2838
  302SOL    HW2  906   1.303   2.397   2.314 -0.0412 -0.0325 -1.8682
  303SOL     OW  907   0.945   2.395   0.798  0.7517  0.2256  0.4644
  303SOL    HW1  908   1.022   2.426   0.739 -0.9677 -0.4623 -1.2307
  303SOL    HW2  909   0.948   2.439   0.895 -3.5336 -0.9079  2.7370
  304SOL     OW  910   0.093   1.887   0.677  0.4136 -0.2133 -0.0179
  304SOL    HW1  911   0.144   1.868   0.583  2.1977  0.6628 -2.1707
  304SOL    HW2  912   0.069   1.983   0.689  0.6973  0.5445  1.4781
  305SOL     OW  913   1.578   0.871   0.694 -0.1049 -0.3346  0.8043
  305SOL    HW1  914   1.554   0.894   0.591  1.2102  0.8646 -1.7934
  305SOL    HW2  915   1.594   0.770   0.722  0.2230  0.8632  0.3245
  306SOL     OW  916   0.438   1.929   1.906  0.4107 -0.2854 -0.4469
  306SOL    HW1  917   0.514   1.862   1.872  1.4023 -2.1462 -1.4191
  306SOL    HW2  918   0.450   1.951   2.010 -0.3643  0.7556  2.3440
  307SOL     OW  919   3.071   0.888   2.466 -0.1467 -0.0440 -0.1017
  307SOL    HW1  920   3.079   0.953   2.547 -0.9214 -0.0433 -0.8601
  307SOL    HW2  921   3.017   0.806   2.495 -0.1351 -0.0579 -0.9885
  308SOL     OW  922   1.512   2.689   2.785 -0.8202  0.1752 -0.1806
  308SOL    HW1  923   1.510   2.634   2.693  2.9136 -2.5735 -2.1316
  308SOL    HW2  924   1.478   2.634   2.865 -3.6099  2.7392 -0.0722
  309SOL     OW  925   1.233   0.146   1.783  0.1240 -0.0603 -0.2372
  309SOL    HW1  926   1.333   0.120   1.798 -0.4726 -1.1938 -1.8915
  309SOL    HW2  927   1.211   0.166   1.683 -0.0252 -2.7848  0.9898
  310SOL     OW  928   1.477   2.602   0.675 -0.5294  0.2014 -0.0112
  310SOL    HW1  929   1.443   2.620   0.771  0.6239 -1.8338 -2.4550
  310SOL    HW2  930   1.538   2.683   0.633  3.4549  3.3259 -0.3867
  311SOL     OW  931   1.133   0.979   1.777 -1.0921 -0.3295  0.0504
  311SOL    HW1  932   1.112   0.885   1.825 -1.3045 -0.8021  1.0784
  311SOL    HW2  933   1.161   0.965   1.675  1.3048  0.9812  0.6884
  312SOL     OW  934   1.530   0.671   1.085 -0.3133 -0.2178 -0.4116
  312SOL    HW1  935   1.607   0.739   1.061  2.7762  1.8266  1.2233
  312SOL    HW2  936   1.461   0.670   1.008 -1.3597  0.6705 -0.8055
  313SOL     OW  937   1.645   1.311   0.735  0.2130 -0.6260 -0.4274
  313SOL    HW1  938   1.556   1.313   0.787  2.9496  0.5310  2.9870
  313SOL    HW2  939   1.636   1.247   0.649 -1.9802 -0.1531  2.1429
  314SOL     OW  940   2.983   3.095   3.083  0.2950 -0.3941  0.1995
  314SOL    HW1  941   3.021   3.091   3.184  0.6597  0.1770  2.8296
  314SOL    HW2  942   2.882   3.068   3.074 -1.6093  0.9061  2.3242
  315SOL     OW  943   1.165   0.211   2.763  0.3823 -0.6606  0.3780
  315SOL    HW1  944   1.155   0.154   2.680 -2.2037 -0.5311 -0.0727
  315SOL    HW2  945   1.114   0.174   2.847  0.8577  0.5334  1.7440
  316SOL     OW  946   1.691   2.089   0.883 -0.2227 -0.2384 -1.1300
  316SOL    HW1  947   1.638   2.085   0.970 -3.3154  1.0510 -0.7068
  316SOL    HW2  948   1.723   2.188   0.860 -1.3517  0.6930  1.6830
  317SOL     OW  949   1.170   0.672   2.758  0.1557  0.5795 -0.3267
  317SOL    HW1  950   1.118   0.727   2.835 -0.6042  1.3749  2.3499
  317SOL    HW2  951   1.119   0.588   2.729  0.8442  0.8994  0.1196
  318SOL     OW  952   1.404   3.076   2.251  0.1579 -0.5043  0.3825
  318SOL    HW1  953   1.422   3.180   2.239  1.2316 -0.5252 -0.6507
  318SOL    HW2  954   1.412   3.028   2.158 -3.2513 -2.2394  1.5003
  319SOL     OW  955   0.666   2.372   2.941 -0.1607  0.7882  0.5460
  319SOL    HW1  956   0.625   2.307   3.008  0.7772  0.2902 -0.6614
  319SOL    HW2  957   0.719   2.329   2.865 -0.7380  0.2342  1.1201
  320SOL     OW  958   1.705   2.248   0.381  0.1697  0.1395 -0.5984
  320SOL    HW1  959   1.781   2.170   0.375  3.9896 -2.1397  3.1497
  320SOL    HW2  960   1.624   2.202   0.425 -2.3725  0.0754  1.8079
  321SOL     OW  961   1.677   2.783   0.533 -0.0042 -0.1307 -0.4180
  321SOL    HW1  962   1.630   2.856   0.485 -1.9277  0.1357  1.1986
  321SOL    HW2  963   1.779   2.775   0.514 -0.5153  0.9025  2.0526
  322SOL     OW  964   2.585   1.115   2.308 -0.9925 -0.7272  0.2450
  322SOL    HW1  965   2.664   1.096   2.372  1.9549 -1.7103 -1.9157
  322SOL    HW2  966   2.523   1.032   2.303 -0.3595  1.5644 -0.4818
  323SOL     OW  967   1.184   2.692   0.811 -0.1263  0.3243 -0.0063
  323SOL    HW1  968   1.165   2.637   0.724  0.6875 -2.9087  1.3203
  323SOL    HW2  969   1.132   2.781   0.823  0.9676 -4.4114  1.8956
  324SOL     OW  970   0.223   2.528   2.425  0.1993 -0.2045  0.0162
  324SOL    HW1  971   0.139   2.490   2.473  1.0499 -1.2360 -1.3081
  324SOL    HW2  972   0.260   2.621   2.462 -0.5375  3.0790  0.3971
  325SOL     OW  973   1.215   3.007   0.456  0.5203 -0.1897 -0.0082
  325SOL    HW1  974   1.241   3.035   0.359  1.2606  0.8505 -0.6804
  325SOL    HW2  975   1.247   3.083   0.518  2.2545  1.6840 -0.6513
  326SOL     OW  976   2.493   0.761   3.085  0.7341 -0.1653  0.3169
  326SOL    HW1  977   2.425   0.695   3.049  0.2546  1.6736 -0.7647
  326SOL    HW2  978   2.567   0.720   3.148 -1.9325  0.6414 -0.7163
  327SOL     OW  979   2.811   0.287   0.508  0.3836  0.1974  0.3400
  327SOL    HW1  980   2.801   0.263   0.408 -0.2349  0.3656 -4.1182
  327SOL    HW2  981   2.781   0.217   0.576 -0.1935 -0.1475  0.9693
  328SOL     OW  982   2.569   0.656   0.410 -0.1536  0.1609 -0.4485
  328SOL    HW1  983   2.633   0.710   0.472 -3.9574  1.0529  1.8792
  328SOL    HW2  984   2.484   0.619   0.454 -1.0975 -0.8953 -3.7988
  329SOL     OW  985   2.938   3.014   2.120 -0.0222  0.4136  0.3698
  329SOL    HW1  986   3.017   2.948   2.135  1.5523  1.0766  0.6923
  329SOL    HW2  987   2.962   3.115   2.143  1.5105 -0.8789  1.2469
  330SOL     OW  988   0.571   0.233   1.912 -0.7824  0.2467 -0.0884
  330SOL    HW1  989   0.653   0.211   1.856 -1.0507 -1.9230 -0.9941
  330SOL    HW2  990   0.568   0.169   1.995  0.3306 -0.3088  0.1134
  331SOL     OW  991   3.008   1.885   1.114 -0.1725  0.0961  0.1588
  331SOL    HW1  992   2.966   1.921   1.026 -1.0954 -1.3078  0.4635
  331SOL    HW2  993   2.943   1.829   1.177 -3.1584 -1.1445  0.1406
  332SOL     OW  994   0.412   1.177   0.066 -0.9068  0.1518  0.3902
  332SOL    HW1  995   0.341   1.107   0.039  0.2206  0.6840 -0.6664
  332SOL    HW2  996   0.379   1.237   0.142  2.2969  0.5693 -1.1692
  333SOL     OW  997   2.885   0.987   0.351 -0.5422  0.0350 -0.4184
  333SOL    HW1  998   2.936   1.051   0.405 -1.7824  0.3089 -4.6657
  333SOL    HW2  999   2.954   0.912   0.322  1.7027 -0.5539  1.9168
  334SOL     OW 1000   1.721   1.216   1.764  0.5996 -0.4154 -0.5027
  334SOL    HW1 1001   1.777   1.209   1.674 -0.6524  2.5068 -0.0775
  334SOL    HW2 1002   1.777   1.193   1.850 -1.9597 -0.6935  1.8097
  335SOL     OW 1003   1.940   2.781   2.615 -0.1315  0.7899 -0.0945
  335SOL    HW1 1004   1.868   2.759   2.685 -2.2288  0.0838  0.4016
  335SOL    HW2 1005   2.001   2.859   2.642 -1.1410  3.2610 -0.2606
  336SOL     OW 1006   0.256   3.094   2.718 -0.3147 -0.0267 -0.3148
  336SOL    HW1 1007   0.324   3.118   2.793 -1.3626 -0.8859  1.6548
  336SOL    HW2 1008   0.209   2.999   2.730  0.2297 -1.4523 -2.3596
  337SOL     OW 1009   0.933   2.902   2.960  1.0236  0.4467 -0.3652
  337SOL    HW1 1010   0.931   2.813   3.008 -1.7272 -2.0095 -0.3965
  337SOL    HW2 1011   1.027   2.933   2.954 -2.1177 -3.8594  1.7679
  338SOL     OW 1012   0.024   0.947   0.660 -0.0458 -0.4427 -0.0457
  338SOL    HW1 1013  -0.055   0.926   0.720  1.4899 -0.6848  0.6503
  338SOL    HW2 1014   0.050   1.049   0.659 -0.9998  0.4282 -0.5494
  339SOL     OW 1015   1.646   1.351   2.156 -0.0526 -0.5160 -0.3524
  339SOL    HW1 1016   1.590   1.417   2.097 -0.0750  2.9214  0.5064
  339SOL    HW2 1017   1.658   1.370   2.257  2.3629  4.1895  0.6764
  340SOL     OW 1018   2.239   0.802   1.153 -0.6113 -0.3097 -0.3260
  340SOL    HW1 1019   2.143   0.844   1.162 -2.1994  2.1136 -3.4405
  340SOL    HW2 1020   2.238   0.709   1.107  1.4167 -0.3095  2.5347
  341SOL     OW 1021   1.893   2.048   0.385  0.5086 -0.4180  1.2593
  341SOL    HW1 1022   1.901   2.094   0.293 -1.7539 -0.4248 -0.7282
  341SOL    HW2 1023   1.983   2.027   0.430  1.4600  0.1306 -0.9909
  342SOL     OW 1024   2.145   2.104   2.724 -0.0971  0.3668 -0.4224
  342SOL    HW1 1025   2.199   2.022   2.744 -0.6198  0.4574  0.0308
  342SOL    HW2 1026   2.050   2.081   2.686 -1.9585  0.8695  0.4419
  343SOL     OW 1027   0.406   0.778   2.746 -0.0276  0.1092 -0.1256
  343SOL    HW1 1028   0.397   0.841   2.662 -3.0476 -0.4189  0.9811
  343SOL    HW2 1029   0.487   0.802   2.804 -0.9063  1.4574  0.6664
  344SOL     OW 1030   1.924   1.485   0.410  0.1408  0.0493 -0.0862
  344SOL    HW1 1031   1.915   1.423   0.325  1.1787 -0.2840  0.0421
  344SOL    HW2 1032   1.830   1.504   0.452 -1.2320 -2.4675 -0.4139
  345SOL     OW 1033   1.405   2.228   2.863  0.0101 -0.3470 -0.2217
  345SOL    HW1 1034   1.330   2.206   2.799  0.4361 -1.4397  3.5516
  345SOL    HW2 1035   1.492   2.176   2.842 -0.3798 -1.6215 -3.4924
  346SOL     OW 1036   2.340   0.907   1.406 -0.3677  0.0613  0.1258
  346SOL    HW1 1037   2.303   1.000   1.431  1.3779 -1.5107 -0.5724
  346SOL    HW2 1038   2.297   0.868   1.321  1.6393  0.8346  0.9295
  347SOL     OW 1039   0.713   2.742   1.656  0.6746  0.3436 -0.0614
  347SOL    HW1 1040   0.646   2.750   1.735 -0.3796  1.0829  1.5698
  347SOL    HW2 1041   0.681   2.793   1.574  0.5682 -0.4054  1.8932
  348SOL     OW 1042   0.169   0.793   2.896 -0.0825 -0.1631  0.5407
  348SOL    HW1 1043   0.085   0.750   2.861  1.9470 -0.4849  0.5211
  348SOL    HW2 1044   0.252   0.778   2.837 -1.8253 -1.6871  1.9997
  349SOL     OW 1045   1.854   0.447   2.811  0.0128 -0.3701 -0.1204
  349SOL    HW1 1046   1.822   0.518   2.736  1.1212  0.7883 -0.5200
  349SOL    HW2 1047   1.839   0.474   2.911  0.5525  2.4583  0.1654
  350SOL     OW 1048   1.699   0.365   0.364 -0.2934  0.4122 -0.1393
  350SOL    HW1 1049   1.758   0.396   0.445  0.9049  2.9885  1.5830
  350SOL    HW2 1050   1.679   0.443   0.299  0.3685 -0.7441 -1.0751
  351SOL     OW 1051   0.904   0.818   2.065 -0.4839 -0.1857  0.0667
  351SOL    HW1 1052   0.938   0.909   2.099 -0.6085 -0.1645  0.7786
  351SOL    HW2 1053   0.942   0.793   1.969 -0.7066  4.2023  1.2322
  352SOL     OW 1054   2.058   1.345   0.610  0.5123  0.0210  0.4617
  352SOL    HW1 1055   2.028   1.407   0.533  3.3030 -0.5574  1.1998
  352SOL    HW2 1056   1.983   1.294   0.667 -1.6693  0.5022 -1.4901
  353SOL     OW 1057   2.191   2.793   1.108  0.4417 -0.7920  0.3501
  353SOL    HW1 1058   2.234   2.717   1.168  0.9069 -2.9495  3.0887
  353SOL    HW2 1059   2.117   2.850   1.158 -2.5748 -0.0548  0.7885
  354SOL     OW 1060   0.240   1.434   2.863 -0.8406 -0.0620  0.0234
  354SOL    HW1 1061   0.225   1.511   2.796  0.2636  0.3667  0.2373
  354SOL    HW2 1062   0.339   1.427   2.891  0.5126  0.1163 -0.7499
  355SOL     OW 1063   0.722   1.575   0.581 -0.5921 -0.0823 -0.0664
  355SOL    HW1 1064   0.715   1.528   0.671  0.3955  3.1381  0.0661
  355SOL    HW2 1065   0.673   1.527   0.501 -1.9816 -1.9007  4.0185
  356SOL     OW 1066   0.895   0.279   2.032  0.5359  0.0926  0.1039
  356SOL    HW1 1067   0.988   0.233   2.045 -1.9762 -2.1113 -1.1921
  356SOL    HW2 1068   0.847   0.242   1.944 -2.4764 -1.0693  1.3726
  357SOL     OW 1069   1.010   1.326   0.329  0.3564  0.4533 -0.8344
  357SOL    HW1 1070   1.067   1.311   0.249 -0.3455  0.3089 -0.5876
  357SOL    HW2 1071   0.972   1.244   0.381 -3.5165 -0.2048 -2.7099
  358SOL     OW 1072   1.652   1.511   0.533  0.5390 -0.4973  0.3353
  358SOL    HW1 1073   1.614   1.445   0.601  0.3467 -0.7838 -0.5885
  358SOL    HW2 1074   1.634   1.468   0.443  1.6129 -0.4523  0.5257
  359SOL     OW 1075   1.613   2.588   0.311 -0.0319  0.0875 -0.2479
  359SOL    HW1 1076   1.529   2.533   0.288 -3.0701  0.7159  0.7643
  359SOL    HW2 1077   1.592   2.669   0.370  1.6659  0.7232  1.1259
  360SOL     OW 1078   0.789   0.494   0.582  0.2497 -0.7683  0.2044
  360SOL    HW1 1079   0.697   0.530   0.540  0.4124  1.9785 -2.2996
  360SOL    HW2 1080   0.801   0.394   0.592 -2.3211  2.4246 -0.8320
  361SOL     OW 1081   1.370   1.296   0.617  0.3391  0.2780 -0.0750
  361SOL    HW1 1082   1.387   1.316   0.720  1.9654  4.9026 -0.8652
  361SOL    HW2 1083   1.294   1.354   0.584  1.6653 -1.9862 -1.2721
  362SOL     OW 1084   1.389   1.802   0.708  0.1540  0.5426  0.2154
  362SOL    HW1 1085   1.395   1.721   0.772  3.2298  0.0517 -0.8108
  362SOL    HW2 1086   1.478   1.855   0.702 -0.4923  2.8476 -0.3880
  363SOL     OW 1087   1.264   1.304   2.084  0.0059  0.1980  0.4497
  363SOL    HW1 1088   1.344   1.370   2.055  1.2190 -0.3439 -0.0260
  363SOL    HW2 1089   1.178   1.357   2.115  1.5959  1.8770  2.4372
  364SOL     OW 1090   0.551   2.353   2.067 -0.0765  0.2441  0.2420
  364SOL    HW1 1091   0.447   2.352   2.067 -0.3341  1.1335 -0.2312
  364SOL    HW2 1092   0.591   2.375   1.973 -2.1572  0.0210 -0.6764
  365SOL     OW 1093   1.000   1.951   1.365 -0.5474 -0.3725 -0.0449
  365SOL    HW1 1094   0.902   1.933   1.393 -0.6284 -2.3624  1.5706
  365SOL    HW2 1095   1.005   1.997   1.276  0.3699 -0.0115 -0.3440
  366SOL     OW 1096   2.836   1.972   0.315 -0.3494 -0.1745 -0.0404
  366SOL    HW1 1097   2.819   1.911   0.392  1.5105 -0.9300 -2.5604
  366SOL    HW2 1098   2.900   1.930   0.244 -0.6870  0.0709  0.0157
  367SOL     OW 1099   0.892   1.207   0.041  0.2126  0.0156  0.0649
  367SOL    HW1 1100   0.897   1.125   0.101 -0.7137  4.2870  1.4344
  367SOL    HW2 1101   0.988   1.245   0.028 -2.4872  2.9939  1.1520
  368SOL     OW 1102   1.486   0.577   0.574  0.0807  0.1586  0.3400
  368SOL    HW1 1103   1.386   0.592   0.552 -0.4677 -1.0286 -2.3001
  368SOL    HW2 1104   1.537   0.584   0.487 -2.3406 -0.0292  0.6312
  369SOL     OW 1105   0.395   1.711   0.147 -0.0794 -0.1952 -0.1974
  369SOL    HW1 1106   0.439   1.778   0.214 -0.2011  0.6730 -1.4401
  369SOL    HW2 1107   0.306   1.665   0.177 -1.1112 -2.5573  1.3394
  370SOL     OW 1108   0.383   2.168   1.067 -0.2412  0.7481  0.2843
  370SOL    HW1 1109   0.405   2.264   1.026  2.8699  0.9697 -1.6220
  370SOL    HW2 1110   0.320   2.114   1.001  1.0619 -0.3184  2.3403
  371SOL     OW 1111   2.891   2.248   2.659  0.1532  0.5828  0.4851
  371SOL    HW1 1112   2.840   2.182   2.719  3.5266 -2.2538  0.4328
  371SOL    HW2 1113   2.939   2.319   2.717  1.5153 -1.4696 -1.2394
  372SOL     OW 1114   1.078   2.145   1.139 -0.6745  0.3501  0.2331
  372SOL    HW1 1115   1.014   2.184   1.066 -0.8632  0.4064  0.0234
  372SOL    HW2 1116   1.168   2.197   1.150 -0.0464 -0.4220  2.2928
  373SOL     OW 1117   1.905   1.937   0.986 -0.0959 -0.2048 -0.2733
  373SOL    HW1 1118   2.003   1.958   1.018 -0.9698  1.3200  1.2967
  373SOL    HW2 1119   1.847   2.012   0.939  0.6301  1.0309  3.7569
  374SOL     OW 1120   1.873   0.433   0.563  0.4212  0.3258 -0.4181
  374SOL    HW1 1121   1.847   0.371   0.648 -0.4827 -2.9647  1.6244
  374SOL    HW2 1122   1.966   0.400   0.533 -1.8077  1.3148  2.3197
  375SOL     OW 1123   2.413   2.202   1.100 -0.1254  0.4767 -0.3805
  375SOL    HW1 1124   2.451   2.261   1.025  3.0506 -0.1109 -1.3930
  375SOL    HW2 1125   2.469   2.200   1.190  2.1590 -0.7244 -0.4830
  376SOL     OW 1126   3.101   0.607   1.420  0.7033  0.9963  0.1721
  376SOL    HW1 1127   3.132   0.643   1.508  1.9892  2.8840 -1.3683
  376SOL    HW2 1128   2.997   0.603   1.401  1.5638  0.1536  3.1986
  377SOL     OW 1129   2.157   2.869   0.295  0.0157 -0.4870 -0.2494
  377SOL    HW1 1130   2.160   2.959   0.344  0.9038  0.1381 -0.4614
  377SOL    HW2 1131   2.252   2.825   0.298 -0.1337 -1.8397  1.6937
  378SOL     OW 1132   1.803   1.889   2.466  0.3640  0.4035 -0.2832
  378SOL    HW1 1133   1.860   1.905   2.382 -0.0583 -2.5650 -0.4359
  378SOL    HW2 1134   1.763   1.796   2.463  1.8322  1.8380  0.0423
  379SOL     OW 1135   0.745   0.195   2.822 -0.1523  1.0076  0.3733
  379SOL    HW1 1136   0.803   0.110   2.810  0.7964 -0.1921 -0.8723
  379SOL    HW2 1137   0.725   0.255   2.742  1.7982 -0.7888  2.1525
  380SOL     OW 1138   1.577   1.147   0.534  0.3082  0.1897 -0.5572
  380SOL    HW1 1139   1.494   1.204   0.565 -2.3480 -0.6672 -1.2669
  380SOL    HW2 1140   1.542   1.046   0.518  0.5992 -0.9610  0.9509
  381SOL     OW 1141   1.331   1.224   1.592 -0.2934 -0.4933 -0.5642
  381SOL    HW1 1142   1.369   1.167   1.513 -0.4716 -0.7355  0.0768
  381SOL    HW2 1143   1.398   1.285   1.637 -1.3659 -0.3695  0.8156
  382SOL     OW 1144   1.814   0.864   0.234 -0.2028  0.1529  0.3827
  382SOL    HW1 1145   1.846   0.858   0.134  0.8396 -0.5066  0.2215
  382SOL    HW2 1146   1.884   0.828   0.300  0.5600 -0.9981 -0.6679
  383SOL     OW 1147   2.582   1.009   1.489 -0.3320  0.3735  0.0952
  383SOL    HW1 1148   2.486   0.969   1.461 -2.7216  0.9071  0.0596
  383SOL    HW2 1149   2.641   1.023   1.407  0.0412  1.5281 -1.9119
  384SOL     OW 1150   0.843   2.247   0.149  0.3492  0.2795 -0.3030
  384SOL    HW1 1151   0.830   2.347   0.181 -1.5363  0.7515  0.7717
  384SOL    HW2 1152   0.856   2.181   0.225  0.0275 -0.3371 -1.2919
  385SOL     OW 1153   2.954   2.029   1.675  0.2711  0.3513 -0.1176
  385SOL    HW1 1154   3.017   2.109   1.670 -1.2724  0.0777  3.6305
  385SOL    HW2 1155   2.999   1.935   1.656 -2.1857  0.1838  0.7121
  386SOL     OW 1156   0.491   1.047   0.472 -0.3323 -0.0022  0.1588
  386SOL    HW1 1157   0.460   0.955   0.518  1.0236 -2.0903  1.4906
  386SOL    HW2 1158   0.420   1.106   0.433  1.4109 -1.8343  0.2173
  387SOL     OW 1159   0.921   0.351   1.700  0.3372  0.2090  0.3417
  387SOL    HW1 1160   0.930   0.451   1.714  5.1390  0.6341 -1.0484
  387SOL    HW2 1161   0.934   0.323   1.600  0.4461  1.8188  0.9558
  388SOL     OW 1162   1.190   2.730   1.760 -0.1219 -0.0821  0.5018
  388SOL    HW1 1163   1.200   2.748   1.662 -0.2089  0.6458  2.8859
  388SOL    HW2 1164   1.268   2.677   1.802 -1.2078  0.2128 -0.0567
  389SOL     OW 1165   0.144   2.944   1.360  0.0382  0.4411  0.5889
  389SOL    HW1 1166   0.058   2.966   1.306 -0.9094 -0.4601  0.2704
  389SOL    HW2 1167   0.161   2.841   1.379 -0.6490  1.6386 -0.1391
  390SOL     OW 1168   1.049   0.969   1.350 -0.4092  0.4709  0.0059
  390SOL    HW1 1169   1.122   0.936   1.419 -0.8711 -0.3109  2.2564
  390SOL    HW2 1170   1.027   1.071   1.360 -0.8521 -2.1822  3.6165
  391SOL     OW 1171   2.173   1.139   1.095  0.0721  0.8069  0.1598
  391SOL    HW1 1172   2.118   1.061   1.136 -1.5845 -0.4549  1.1608
  391SOL    HW2 1173   2.236   1.108   1.019 -3.7906  0.5574  0.0505
  392SOL     OW 1174   0.914   2.644   3.057  0.1558 -0.0216  0.4965
  392SOL    HW1 1175   0.989   2.574   3.057 -0.5974  0.2110  1.0527
  392SOL    HW2 1176   0.852   2.622   3.142 -2.3855 -1.0430  2.6947
  393SOL     OW 1177   0.328   0.566   1.975 -0.1875  0.5290  0.3135
  393SOL    HW1 1178   0.276   0.477   1.991 -1.7131 -1.2848  2.0810
  393SOL    HW2 1179   0.395   0.552   1.895 -2.2890  2.5408  1.2360
  394SOL     OW 1180   3.016   1.939   2.820  0.4124  0.7542 -0.1868
  394SOL    HW1 1181   3.111   1.951   2.858  2.0866  0.3898  1.3328
  394SOL    HW2 1182   3.016   1.944   2.714  0.4561 -1.6218  0.9660
  395SOL     OW 1183   1.604   1.957   0.656  0.1067  0.0699  0.2393
  395SOL    HW1 1184   1.674   1.884   0.624  1.0425  0.9818  0.7474
  395SOL    HW2 1185   1.632   1.999   0.750 -0.3903  1.3459  0.5130
  396SOL     OW 1186   2.814   1.794   1.298  0.2313  0.2394  0.1510
  396SOL    HW1 1187   2.786   1.694   1.318  0.5385 -1.9794 -0.6359
  396SOL    HW2 1188   2.789   1.862   1.369  1.8386  0.5215 -0.7146
  397SOL     OW 1189   1.017   2.234   0.509 -0.2349  0.1373  0.3200
  397SOL    HW1 1190   0.929   2.195   0.547  0.6124 -1.1268  1.8792
  397SOL    HW2 1191   1.048   2.314   0.565 -0.8568 -2.4069 -0.5101
  398SOL     OW 1192   2.152   3.094   1.027  0.1847 -0.0592  0.5064
  398SOL    HW1 1193   2.101   3.020   1.078 -1.2098 -1.4744 -0.2447
  398SOL    HW2 1194   2.102   3.185   1.029 -0.0862 -1.0934  1.4777
  399SOL     OW 1195   3.075   2.459   2.573 -0.0995  0.1371  0.0364
  399SOL    HW1 1196   2.973   2.445   2.565 -1.7119  2.0055  1.3072
  399SOL    HW2 1197   3.121   2.395   2.640 -2.9653  2.5333 -0.1602
  400SOL     OW 1198   0.768   1.641   1.365 -0.3490 -0.1541 -0.6267
  400SOL    HW1 1199   0.705   1.690   1.432 -1.7032 -0.0121  2.6588
  400SOL    HW2 1200   0.758   1.675   1.267  0.0356  2.0035  0.2762
  401SOL     OW 1201   1.864   0.109   1.216  0.0707  0.0781 -0.9115
  401SOL    HW1 1202   1.901   0.129   1.313 -2.4484  2.7129  0.7900
  401SOL    HW2 1203   1.756   0.115   1.219 -2.6377 -0.6235  0.8819
  402SOL     OW 1204   1.296   0.119   3.050 -0.0072 -0.1123 -0.2445
  402SOL    HW1 1205   1.386   0.081   3.013  1.7568  0.0694 -0.6463
  402SOL    HW2 1206   1.273   0.220   3.030 -2.3553  1.3523 -0.6024
  403SOL     OW 1207   2.286   1.782   0.925 -0.1541 -0.4262 -0.1802
  403SOL    HW1 1208   2.387   1.800   0.914  2.3683  1.7400 -0.7638
  403SOL    HW2 1209   2.237   1.857   0.974  0.2794  0.1662 -1.2127
  404SOL     OW 1210   0.207   2.484   2.836  0.0868 -0.5530 -0.0185
  404SOL    HW1 1211   0.305   2.464   2.792  1.9734 -2.4345  0.3095
  404SOL    HW2 1212   0.180   2.586   2.843  1.8240  1.2316  1.8648
  405SOL     OW 1213   0.089   2.477   0.711 -0.0558 -0.2554  0.6976
  405SOL    HW1 1214   0.077   2.396   0.645 -0.1411  2.7896 -0.6489
  405SOL    HW2 1215   0.152   2.540   0.661 -3.2253 -1.4916 -0.9837
  406SOL     OW 1216   0.060   1.536   3.055 -0.0367  0.2734 -0.3027
  406SOL    HW1 1217   0.123   1.517   2.972 -0.1863  1.4152  1.2178
  406SOL    HW2 1218   0.114   1.544   3.140 -1.0214 -2.6597 -0.0780
  407SOL     OW 1219   1.541   0.955   0.974  0.0900 -0.2420 -1.0749
  407SOL    HW1 1220   1.538   0.965   0.872  1.0883  0.2774  2.8283
  407SOL    HW2 1221   1.474   1.008   1.028 -0.4843 -1.4925 -0.3129
  408SOL     OW 1222   1.611   2.445   0.947 -0.3716 -0.4042 -0.5147
  408SOL    HW1 1223   1.671   2.400   0.874 -0.9797  0.4990  0.5897
  408SOL    HW2 1224   1.576   2.541   0.920 -0.8409  0.7999  1.2013
  409SOL     OW 1225   0.651   0.775   0.763  0.5525 -0.1957 -0.1194
  409SOL    HW1 1226   0.585   0.774   0.683 -1.2304  1.0153  0.0043
  409SOL    HW2 1227   0.672   0.685   0.813  2.2640 -1.8019  2.2166
  410SOL     OW 1228   1.297   2.057   1.392 -0.4068 -0.3096 -0.3565
  410SOL    HW1 1229   1.377   2.008   1.434 -0.4939 -0.0006 -1.0633
  410SOL    HW2 1230   1.210   1.993   1.380  1.0733 -0.4014  1.5887
  411SOL     OW 1231   2.653   1.831   3.020 -0.0205 -0.8491  0.0475
  411SOL    HW1 1232   2.557   1.870   3.009 -2.2480 -1.0157  2.4940
  411SOL    HW2 1233   2.700   1.816   2.928  0.3763  3.7801 -0.8863
  412SOL     OW 1234   1.530   2.496   2.155  0.0278 -0.4161  0.1447
  412SOL    HW1 1235   1.539   2.590   2.106 -0.4606 -0.8115 -3.2191
  412SOL    HW2 1236   1.449   2.482   2.221  3.3681 -0.5463  2.0205
  413SOL     OW 1237   3.067   0.211   2.940  0.9029 -0.2557 -0.2046
  413SOL    HW1 1238   3.020   0.155   3.016  0.1178 -0.5927 -0.4846
  413SOL    HW2 1239   3.171   0.215   2.955 -0.0331  2.6030 -1.2868
  414SOL     OW 1240   1.894   1.547   1.177  0.2631 -0.2418 -0.1650
  414SOL    HW1 1241   1.846   1.640   1.170  2.3726 -0.6908 -2.7693
  414SOL    HW2 1242   1.839   1.481   1.123 -1.4100 -0.7595 -2.1235
  415SOL     OW 1243   0.378   2.292   0.759  0.3962  0.7851 -0.0093
  415SOL    HW1 1244   0.421   2.370   0.802  1.5222 -1.8899 -2.9043
  415SOL    HW2 1245   0.289   2.266   0.799 -0.0774 -0.5047 -0.8661
  416SOL     OW 1246   0.359   1.032   1.075 -0.1780 -0.5169  0.5411
  416SOL    HW1 1247   0.321   0.958   1.018 -0.7542 -1.0596  2.6586
  416SOL    HW2 1248   0.456   1.050   1.055  0.7100 -1.0664  2.2448
  417SOL     OW 1249   2.259   2.327   1.993  0.2510  0.5838  0.7662
  417SOL    HW1 1250   2.341   2.271   2.031  1.5390 -1.3167  1.7874
  417SOL    HW2 1251   2.178   2.270   1.962  1.1312 -0.0353  0.1046
  418SOL     OW 1252   1.075   0.608   1.345  0.1776  0.0814  0.5374
  418SOL    HW1 1253   1.020   0.566   1.267  2.2169 -0.4829 -3.2197
  418SOL    HW2 1254   1.175   0.585   1.336 -2.1926 -2.3101 -2.8398
  419SOL     OW 1255   0.958   0.487   2.944 -0.4078 -0.4839 -0.1296
  419SOL    HW1 1256   0.884   0.484   2.874 -1.7127  0.4622  0.2133
  419SOL    HW2 1257   0.956   0.588   2.975  0.6830  0.6140  2.6722
  420SOL     OW 1258   0.086   2.255   0.534 -0.0923 -0.1449  0.4156
  420SOL    HW1 1259   0.106   2.268   0.434  0.6287  1.6439  1.1284
  420SOL    HW2 1260  -0.004   2.202   0.551 -2.5619  0.9197 -2.7349
  421SOL     OW 1261   0.335   2.976   0.622 -0.0757 -0.2225 -0.4172
  421SOL    HW1 1262   0.317   2.905   0.697  0.6629 -1.2694  0.6497
  421SOL    HW2 1263   0.425   3.023   0.635 -1.6027  0.4069  1.0039
  422SOL     OW 1264   1.009   2.583   1.023 -0.1803 -0.1589 -0.6568
  422SOL    HW1 1265   1.080   2.616   0.957  1.1684  1.0739 -0.1840
  422SOL    HW2 1266   1.018   2.626   1.120 -3.5856 -0.3156 -0.5134
  423SOL     OW 1267   0.153   0.736   1.230  0.4890  0.1748 -0.7928
  423SOL    HW1 1268   0.088   0.704   1.308 -1.9929  3.5277  1.9273
  423SOL    HW2 1269   0.111   0.818   1.177  0.0175  0.9887  0.9043
  424SOL     OW 1270   1.104   2.204   2.042  0.7236  0.0122 -0.1451
  424SOL    HW1 1271   1.110   2.308   2.027  2.7893 -0.4956  1.2306
  424SOL    HW2 1272   1.089   2.176   2.143  1.7393  1.3052  0.3970
  425SOL     OW 1273   1.974   1.299   1.004 -0.3918 -0.2838  0.2008
  425SOL    HW1 1274   2.031   1.232   1.056 -1.3407 -0.4614 -0.1442
  425SOL    HW2 1275   2.015   1.395   0.984 -1.1972  2.0316  0.8338
  426SOL     OW 1276   1.499   1.590   1.371 -0.3084  0.0699 -0.6006
  426SOL    HW1 1277   1.481   1.665   1.305 -1.3771 -2.1367  3.4077
  426SOL    HW2 1278   1.425   1.584   1.447 -0.9446 -0.0376  2.6313
  427SOL     OW 1279   1.923   2.326   2.075 -0.3785 -0.0784  0.7470
  427SOL    HW1 1280   1.972   2.258   2.141  0.3225 -0.7036  0.4498
  427SOL    HW2 1281   1.933   2.430   2.103 -1.6231  3.1343  2.6320
  428SOL     OW 1282   0.832   3.058   0.148 -0.6021  0.5505 -0.1512
  428SOL    HW1 1283   0.816   3.131   0.081 -2.4570  1.0576 -0.1568
  428SOL    HW2 1284   0.916   3.006   0.130 -1.8828 -0.0948 -0.5732
  429SOL     OW 1285   1.318   0.106   0.252  0.2023  0.1601 -0.4495
  429SOL    HW1 1286   1.410   0.114   0.295 -1.8218  1.3664  0.0793
  429SOL    HW2 1287   1.326   0.106   0.151  3.0985  1.2838  0.2592
  430SOL     OW 1288   2.853   1.400   0.296 -0.1485 -0.6697 -0.4677
  430SOL    HW1 1289   2.875   1.469   0.220 -5.0369 -2.0154 -1.2070
  430SOL    HW2 1290   2.860   1.439   0.393  1.6577  2.0245  2.4524
  431SOL     OW 1291   2.098   1.537   0.943  0.0861  0.7314  0.6707
  431SOL    HW1 1292   2.193   1.560   0.921 -0.5297 -1.3545 -1.5939
  431SOL    HW2 1293   2.034   1.613   0.911  0.2650  1.6671  0.0101
  432SOL     OW 1294   2.940   2.242   1.152  0.3529 -0.5147  0.2296
  432SOL    HW1 1295   2.917   2.141   1.141  3.1212 -1.9948 -2.1596
  432SOL    HW2 1296   2.961   2.268   1.254 -0.8984  0.9303  2.5711
  433SOL     OW 1297   1.839   0.272   0.804 -0.1267 -0.4971  0.1915
  433SOL    HW1 1298   1.735   0.274   0.825  0.4995 -1.1838 -1.9253
  433SOL    HW2 1299   1.889   0.232   0.883  4.2074 -0.8718  1.9117
  434SOL     OW 1300   1.544   0.329   0.692 -0.3629  0.6025 -0.3345
  434SOL    HW1 1301   1.548   0.408   0.626  0.2225  0.6515  2.3625
  434SOL    HW2 1302   1.544   0.353   0.794  0.1005  1.0812  0.2343
  435SOL     OW 1303   1.464   1.507   2.035  0.2660  0.0496 -0.4238
  435SOL    HW1 1304   1.472   1.559   2.129 -0.7608 -0.2518  3.4588
  435SOL    HW2 1305   1.457   1.572   1.951  3.0244 -0.9936 -1.0636
  436SOL     OW 1306   1.708   2.731   2.273  0.4676 -0.4793 -0.4354
  436SOL    HW1 1307   1.672   2.817   2.330  0.4078  1.0649  0.6479
  436SOL    HW2 1308   1.727   2.648   2.332 -0.4537 -0.7278 -1.1112
  437SOL     OW 1309   1.099   2.937   0.916 -0.5029  0.8209 -0.4201
  437SOL    HW1 1310   1.036   3.005   0.870  0.3105  1.7738 -1.0154
  437SOL    HW2 1311   1.084   2.924   1.018  0.8313  1.9914 -0.0480
  438SOL     OW 1312   0.988   2.628   1.324  0.2948  0.6553 -0.0173
  438SOL    HW1 1313   1.047   2.645   1.407  2.3678  2.2363  1.6753
  438SOL    HW2 1314   0.979   2.524   1.298 -0.4489  0.8695 -1.0326
  439SOL     OW 1315   0.724   1.796   1.145  0.0004  0.5518  0.2273
  439SOL    HW1 1316   0.722   1.884   1.089 -0.9833  2.1042  1.3775
  439SOL    HW2 1317   0.629   1.763   1.171 -0.6149 -0.6860  1.2939
  440SOL     OW 1318   1.055   2.511   1.940  0.4244 -0.8337  0.1426
  440SOL    HW1 1319   0.980   2.533   1.870  3.5930 -0.1188 -0.5612
  440SOL    HW2 1320   1.151   2.521   1.902  0.0078 -2.7096 -2.0002
  441SOL     OW 1321   0.528   2.741   1.437 -0.2397 -0.1466  0.5856
  441SOL    HW1 1322   0.573   2.643   1.444 -1.8629  0.5900  0.0553
  441SOL    HW2 1323   0.434   2.745   1.474 -1.4043 -1.3543  0.8257
  442SOL     OW 1324   2.261   0.734   2.489  0.3984 -0.1635  0.0639
  442SOL    HW1 1325   2.266   0.633   2.515  0.4482  0.8114 -0.7120
  442SOL    HW2 1326   2.160   0.762   2.489 -0.2520  1.1914  1.6233
  443SOL     OW 1327   1.179   2.753   2.201 -0.3917  0.3139  0.0639
  443SOL    HW1 1328   1.188   2.826   2.278  0.9863  4.3041  2.1279
  443SOL    HW2 1329   1.218   2.660   2.220  3.2754  1.3090 -2.1276
  444SOL     OW 1330   1.074   1.307   1.566  0.0462  0.9444  0.2233
  444SOL    HW1 1331   1.170   1.265   1.556 -2.4025 -3.0102 -0.9352
  444SOL    HW2 1332   1.068   1.365   1.652 -2.2881  2.3466 -1.1282
  445SOL     OW 1333   0.009   2.302   1.921 -0.0891  0.3415 -0.0071
  445SOL    HW1 1334  -0.006   2.393   1.874 -2.8267  0.8028  0.0044
  445SOL    HW2 1335  -0.073   2.281   1.982 -0.9664 -0.6120  0.4513
  446SOL     OW 1336   0.170   1.885   2.341 -0.7563  0.0824  0.4865
  446SOL    HW1 1337   0.114   1.959   2.388 -0.6022  1.6002 -0.6134
  446SOL    HW2 1338   0.117   1.838   2.261  3.8874 -1.2802 -1.9131
  447SOL     OW 1339   1.261   1.685   1.941  0.4308 -0.0994  0.2670
  447SOL    HW1 1340   1.186   1.728   1.880  0.1666 -0.2910  1.4389
  447SOL    HW2 1341   1.278   1.735   2.029  1.3994 -0.4828  1.7256
  448SOL     OW 1342   0.178   1.559   2.034 -0.0384 -0.4695 -0.1670
  448SOL    HW1 1343   0.154   1.645   1.981 -1.7308 -3.4091  2.9059
  448SOL    HW2 1344   0.153   1.570   2.135 -2.1691  1.9890 -0.2224
  449SOL     OW 1345   2.025   2.950   0.816  0.3353 -0.0694  0.6960
  449SOL    HW1 1346   2.116   2.949   0.869  3.1784  2.0148  1.8993
  449SOL    HW2 1347   1.998   2.857   0.777 -0.7973  0.1596 -4.1107
  450SOL     OW 1348   2.293   1.362   0.768 -0.6533 -0.1471 -0.5942
  450SOL    HW1 1349   2.254   1.283   0.827 -2.3178  0.0531  3.3848
  450SOL    HW2 1350   2.219   1.400   0.701 -0.0347  1.6413  0.5482
  451SOL     OW 1351   1.426   0.043   1.472  0.7830  0.1294  0.2923
  451SOL    HW1 1352   1.346   0.105   1.487 -0.8528 -0.6679 -0.4247
  451SOL    HW2 1353   1.440  -0.020   1.555 -0.1747 -1.6258  0.5930
  452SOL     OW 1354   2.652   2.282   2.214  0.0730 -0.0395 -0.0963
  452SOL    HW1 1355   2.587   2.362   2.241 -0.7679  1.1364 -1.0005
  452SOL    HW2 1356   2.705   2.245   2.297 -0.4703 -1.2152  1.4557
  453SOL     OW 1357   2.432   2.629   3.085  0.0871 -0.2204  0.2359
  453SOL    HW1 1358   2.364   2.712   3.072  1.8587  1.2941  1.0222
  453SOL    HW2 1359   2.449   2.567   2.998  0.5254  0.1917  1.0408
  454SOL     OW 1360   0.981   1.112   2.104 -0.3331  0.2809 -0.1419
  454SOL    HW1 1361   0.949   1.133   2.008 -0.0841  1.2216 -2.2661
  454SOL    HW2 1362   1.084   1.126   2.115  1.0091 -0.0894 -0.1140
  455SOL     OW 1363   0.684   2.636   2.872  0.3101 -0.0668 -0.3216
  455SOL    HW1 1364   0.769   2.653   2.923  0.7445  1.9980  0.5297
  455SOL    HW2 1365   0.635   2.556   2.912  0.5279  1.1815 -0.5182
  456SOL     OW 1366   0.502   1.854   0.375 -0.1935 -0.4345 -0.2871
  456SOL    HW1 1367   0.584   1.820   0.427  3.8937 -2.0930 -2.2250
  456SOL    HW2 1368   0.501   1.953   0.359  0.9764 -0.8118 -0.5759
  457SOL     OW 1369   0.371   2.609   0.720 -0.3192  0.1867  0.1372
  457SOL    HW1 1370   0.373   2.631   0.621 -2.2509  0.1538  1.9688
  457SOL    HW2 1371   0.457   2.654   0.763  2.0402  1.7133 -0.4329
  458SOL     OW 1372   2.977   3.029   1.261 -0.1978 -1.1809  0.1258
  458SOL    HW1 1373   2.967   3.129   1.241 -1.1874 -0.5621  0.6342
  458SOL    HW2 1374   2.953   2.979   1.173  4.1511  1.5570 -0.2708
  459SOL     OW 1375   2.143   2.562   0.894 -0.2512 -0.1133  0.4291
  459SOL    HW1 1376   2.187   2.600   0.981 -0.6553  0.9232 -0.8764
  459SOL    HW2 1377   2.209   2.553   0.818 -3.3708  2.9103  0.1567
  460SOL     OW 1378   1.140   1.954   2.974  0.0127  0.1858  0.3387
  460SOL    HW1 1379   1.208   2.010   2.918 -1.0258 -1.1757  2.3102
  460SOL    HW2 1380   1.191   1.886   3.036 -0.3456  1.1607  0.0659
  461SOL     OW 1381   0.496   2.137   2.664  0.0426 -0.6156 -0.5062
  461SOL    HW1 1382   0.431   2.085   2.603  0.8062  0.7412  0.5712
  461SOL    HW2 1383   0.530   2.088   2.753 -0.5227  1.3368 -0.9783
  462SOL     OW 1384   0.929   1.201   1.835 -0.2039  0.6564  0.1334
  462SOL    HW1 1385   0.996   1.154   1.777  1.6679 -1.1852  0.2203
  462SOL    HW2 1386   0.894   1.290   1.792 -1.2058 -0.9813  1.7204
  463SOL     OW 1387   0.451   0.804   0.558  0.0973 -0.2199  0.3697
  463SOL    HW1 1388   0.497   0.720   0.527 -2.1585  1.9332  0.4087
  463SOL    HW2 1389   0.348   0.782   0.564  0.4381  2.9230  2.2070
  464SOL     OW 1390   0.598   2.246   2.313 -0.2673  0.4472 -0.0719
  464SOL    HW1 1391   0.555   2.327   2.368 -0.2349  2.7189 -0.8812
  464SOL    HW2 1392   0.616   2.275   2.213  1.1312 -1.6439  0.3050
  465SOL     OW 1393   0.250   0.914   0.831 -0.7675 -0.3005 -0.2448
  465SOL    HW1 1394   0.165   0.968   0.796 -0.6568 -1.2716 -0.9046
  465SOL    HW2 1395   0.252   0.815   0.804  1.0288  1.2756 -0.9482
  466SOL     OW 1396   1.370   1.115   1.140 -0.5325  0.5440 -0.0068
  466SOL    HW1 1397   1.421   1.189   1.192 -0.0162  2.4044 -0.8516
  466SOL    HW2 1398   1.269   1.138   1.126  0.9669 -1.0686  4.7363
  467SOL     OW 1399   0.505   0.352   2.374 -0.3905  0.6410  0.3314
  467SOL    HW1 1400   0.472   0.441   2.418  0.5415  3.2479 -0.9272
  467SOL    HW2 1401   0.494   0.263   2.430  0.7797  1.4245  3.1948
  468SOL     OW 1402   0.414   2.299   1.668 -0.0274 -0.8653  0.0637
  468SOL    HW1 1403   0.480   2.352   1.728  0.0560 -0.8938  0.6866
  468SOL    HW2 1404   0.405   2.346   1.575 -1.5271  0.2772 -0.1726
  469SOL     OW 1405   1.485   1.337   1.248  0.1992 -0.2144 -0.9839
  469SOL    HW1 1406   1.580   1.310   1.208 -0.0334 -1.1427 -2.1268
  469SOL    HW2 1407   1.490   1.412   1.320 -3.9166  2.4477 -1.0844
  470SOL     OW 1408   3.017   1.694   0.735  0.0245 -0.4093  0.1580
  470SOL    HW1 1409   3.088   1.764   0.708 -4.2147  1.8543 -2.1849
  470SOL    HW2 1410   2.956   1.713   0.818  0.8131 -0.6577 -0.4832
  471SOL     OW 1411   2.616   1.345   2.166 -0.3344 -0.3562 -0.1494
  471SOL    HW1 1412   2.607   1.258   2.220  2.0925 -1.0250 -0.6450
  471SOL    HW2 1413   2.717   1.375   2.164 -1.2831  1.8164  1.0925
  472SOL     OW 1414   1.112   2.431   3.044 -0.1272 -0.2673 -0.1530
  472SOL    HW1 1415   1.151   2.429   3.142 -0.4813 -2.3441  1.0604
  472SOL    HW2 1416   1.061   2.340   3.025  0.4183 -1.4874 -0.8034
  473SOL     OW 1417   1.076   1.506   0.918  0.6607  0.6120 -0.3092
  473SOL    HW1 1418   0.976   1.498   0.957  0.3858  1.1011  0.3821
  473SOL    HW2 1419   1.145   1.512   0.989  1.3904 -1.9508 -1.3408
  474SOL     OW 1420   0.796   1.239   0.626  0.0997  0.5345  1.2108
  474SOL    HW1 1421   0.767   1.223   0.528 -1.2921  1.1020  0.5926
  474SOL    HW2 1422   0.841   1.156   0.671  1.4681 -0.4413 -1.6982
  475SOL     OW 1423   2.824   0.134   0.789  0.6923 -0.3526 -0.2179
  475SOL    HW1 1424   2.910   0.134   0.849  2.1053 -1.4458 -0.3261
  475SOL    HW2 1425   2.738   0.129   0.849 -0.0911 -0.5142  0.3842
  476SOL     OW 1426   0.925   2.990   1.756  0.2708 -0.1805 -0.6280
  476SOL    HW1 1427   0.997   2.971   1.829  0.0417  0.4368  1.9735
  476SOL    HW2 1428   0.951   2.953   1.664  0.9945 -1.1523 -1.4591
  477SOL     OW 1429   1.425   0.328   2.481  0.1817 -0.2291 -0.2499
  477SOL    HW1 1430   1.413   0.336   2.585 -1.9497  1.8531 -0.0046
  477SOL    HW2 1431   1.485   0.248   2.456  2.8946  0.6668 -0.3305
  478SOL     OW 1432   2.255   1.831   0.251  0.2423 -0.1222 -0.0199
  478SOL    HW1 1433   2.185   1.755   0.222 -3.5608  0.0430  0.1777
  478SOL    HW2 1434   2.351   1.800   0.249  0.5887 -0.7642 -0.0920
  479SOL     OW 1435   1.238   1.039   2.871  0.5240 -0.2698  0.3603
  479SOL    HW1 1436   1.276   1.037   2.777 -0.7402 -1.7099 -1.6155
  479SOL    HW2 1437   1.139   1.017   2.879  2.2424 -1.5836 -3.6693
  480SOL     OW 1438   2.510   2.318   0.353 -0.4102  0.3686 -0.1191
  480SOL    HW1 1439   2.458   2.236   0.396 -1.5747 -2.4752 -0.5611
  480SOL    HW2 1440   2.458   2.376   0.281  1.2726  0.3985  0.1676
  481SOL     OW 1441   1.069   1.177   0.826  0.2818 -0.1417 -0.3484
  481SOL    HW1 1442   1.048   1.260   0.770 -0.2530 -1.8298 -4.0112
  481SOL    HW2 1443   1.076   1.191   0.928  0.4395  0.1193  0.4876
  482SOL     OW 1444   1.602   0.351   2.044  0.6077  0.2693  0.1800
  482SOL    HW1 1445   1.620   0.437   1.991  1.0055  3.4637 -0.2292
  482SOL    HW2 1446   1.684   0.286   2.059 -0.2578  1.1826 -2.3600
  483SOL     OW 1447   0.175   2.389   1.278 -0.6000 -0.1252 -0.0402
  483SOL    HW1 1448   0.102   2.327   1.310 -1.6288  2.4187  2.0788
  483SOL    HW2 1449   0.146   2.430   1.186 -0.9658 -0.7591 -1.8341
  484SOL     OW 1450   1.703   0.976   1.395 -0.3104 -0.2527 -0.0720
  484SOL    HW1 1451   1.776   0.904   1.369  1.7230 -0.0369 -3.5758
  484SOL    HW2 1452   1.744   1.048   1.458  2.0169 -0.1397 -0.1944
  485SOL     OW 1453   0.681   1.081   1.783  0.0203 -0.1401  0.1305
  485SOL    HW1 1454   0.687   1.048   1.682  1.0468 -1.8607  1.8730
  485SOL    HW2 1455   0.769   1.110   1.830  3.4715  2.8594 -0.9714
  486SOL     OW 1456   0.932   1.962   2.477 -0.0263  0.1466  0.0187
  486SOL    HW1 1457   0.981   1.937   2.562  1.7272  1.5886 -0.9027
  486SOL    HW2 1458   0.841   2.009   2.496 -2.8627  0.2622 -2.3494
  487SOL     OW 1459   1.697   1.529   0.891  0.0015 -0.8627  0.0446
  487SOL    HW1 1460   1.694   1.435   0.842  0.0710  1.4141 -1.9667
  487SOL    HW2 1461   1.780   1.592   0.860  2.8503 -0.1828 -1.1301
  488SOL     OW 1462   2.971   0.930   2.196  0.5516  0.1748 -0.1775
  488SOL    HW1 1463   3.031   0.870   2.137  1.7670  0.2289  0.5934
  488SOL    HW2 1464   2.999   0.934   2.299  1.4489 -1.0879 -0.5718
  489SOL     OW 1465   2.763   0.259   1.306 -0.4333  0.2753  0.2235
  489SOL    HW1 1466   2.719   0.206   1.383 -2.9797 -0.3725  2.8718
  489SOL    HW2 1467   2.831   0.205   1.251 -3.0094  0.2815 -1.1223
  490SOL     OW 1468   1.421   2.965   2.810 -0.3242  0.6240  0.0567
  490SOL    HW1 1469   1.474   2.872   2.786 -1.7804 -0.3822  1.2533
  490SOL    HW2 1470   1.422   3.028   2.724  0.8455 -1.8501 -1.3493
  491SOL     OW 1471   1.807   1.502   2.675  0.7078  0.2923  0.2173
  491SOL    HW1 1472   1.759   1.444   2.741  0.3422 -0.1227 -0.4175
  491SOL    HW2 1473   1.910   1.481   2.678  2.8184  0.7043  1.8474
  492SOL     OW 1474   0.538   2.054   0.734 -0.6022  0.0534  0.7439
  492SOL    HW1 1475   0.562   2.006   0.823  0.6461  0.3082 -0.6882
  492SOL    HW2 1476   0.479   2.137   0.743  0.9189  0.1520  2.4716
  493SOL     OW 1477   0.427   1.455   2.055 -0.1731  0.4762  0.1703
  493SOL    HW1 1478   0.334   1.506   2.043  0.2691  1.5171 -0.0001
  493SOL    HW2 1479   0.422   1.400   2.141 -0.8513  0.5919 -1.9080
  494SOL     OW 1480   2.659   2.697   0.160  0.0130 -0.1098  0.1374
  494SOL    HW1 1481   2.658   2.635   0.244 -0.7645  1.3267 -0.8995
  494SOL    HW2 1482   2.597   2.661   0.085 -1.2153  0.5101 -0.2240
  495SOL     OW 1483   2.724   2.638   2.718 -0.0260  0.3253  0.1251
  495SOL    HW1 1484   2.684   2.547   2.698  1.3876 -1.0724  1.1005
  495SOL    HW2 1485   2.750   2.692   2.633 -1.6998  0.6784  1.7677
  496SOL     OW 1486   2.017   2.171   0.727 -0.0826  0.0817  0.5650
  496SOL    HW1 1487   2.041   2.201   0.823  1.4324 -1.0316 -3.3862
  496SOL    HW2 1488   2.074   2.089   0.699  0.9399 -1.2064  0.0263
  497SOL     OW 1489   0.198   2.988   2.403  0.0508  0.2468 -0.0285
  497SOL    HW1 1490   0.140   3.062   2.447 -3.0708  0.8791  0.1678
  497SOL    HW2 1491   0.248   3.027   2.320  1.3723 -0.1152  0.1055
  498SOL     OW 1492   1.227   1.446   1.142  0.3109  0.2528 -0.0730
  498SOL    HW1 1493   1.323   1.427   1.176  3.2158  1.5244 -0.1699
  498SOL    HW2 1494   1.164   1.510   1.195 -0.5514 -3.6863  1.1925
  499SOL     OW 1495   0.774   1.848   0.545  0.3510 -0.5426 -0.2362
  499SOL    HW1 1496   0.753   1.746   0.542 -0.2970 -1.5272  0.7683
  499SOL    HW2 1497   0.783   1.891   0.636  1.0695 -0.4466 -2.8918
  500SOL     OW 1498   1.437   2.973   1.703 -0.4853  0.4710  0.1302
  500SOL    HW1 1499   1.379   2.960   1.787 -0.6678  2.1860 -1.0248
  500SOL    HW2 1500   1.471   2.880   1.670 -1.0020 -1.0524  1.8630
  501SOL     OW 1501   0.781   1.121   2.297 -0.2120  0.1963  0.0046
  501SOL    HW1 1502   0.693   1.075   2.257  0.3214 -1.8961  3.0410
  501SOL    HW2 1503   0.866   1.116   2.236 -0.3202  2.2619  0.2747
  502SOL     OW 1504   2.571   0.962   1.759 -0.2718  0.5220 -0.0253
  502SOL    HW1 1505   2.583   0.978   1.657  0.5430  0.0770  0.1058
  502SOL    HW2 1506   2.524   0.879   1.787  1.2163  0.9787  1.1486
  503SOL     OW 1507   1.323   0.148   0.606  0.6470  0.6893  0.2073
  503SOL    HW1 1508   1.242   0.217   0.595  1.0966  2.1768  3.7700
  503SOL    HW2 1509   1.414   0.202   0.622 -0.3665 -0.9703 -3.1243
  504SOL     OW 1510   3.031   2.324   1.396  0.1740  0.1878  0.0427
  504SOL    HW1 1511   2.979   2.403   1.431 -2.2636  3.0186 -0.1316
  504SOL    HW2 1512   3.079   2.267   1.469 -2.0625 -3.1216 -3.2166
  505SOL     OW 1513   2.283   1.160   1.482  0.2610 -0.3734 -0.5969
  505SOL    HW1 1514   2.301   1.219   1.397 -2.4582 -1.0617  1.5478
  505SOL    HW2 1515   2.319   1.210   1.571  2.2068  0.8406  0.8590
  506SOL     OW 1516   1.989   0.221   1.746  0.4093  0.1984  0.0636
  506SOL    HW1 1517   2.041   0.135   1.744 -0.6962  0.8546 -1.8424
  506SOL    HW2 1518   2.015   0.280   1.829  1.0391  3.6537 -0.1627
  507SOL     OW 1519   0.522   0.667   2.173 -0.6245 -0.1069  0.2825
  507SOL    HW1 1520   0.432   0.648   2.128  1.5481  1.3330  0.2296
  507SOL    HW2 1521   0.592   0.594   2.133  1.0148 -2.1284 -1.2768
  508SOL     OW 1522   0.269   1.616   0.914  0.2844  0.5465  0.2500
  508SOL    HW1 1523   0.287   1.698   0.856  0.1534 -1.0710 -0.3014
  508SOL    HW2 1524   0.248   1.645   1.013 -1.1063 -0.3696 -0.6584
  509SOL     OW 1525   1.342   1.227   2.450 -0.0317 -0.3218  0.4689
  509SOL    HW1 1526   1.265   1.160   2.463 -3.3571 -4.4864 -1.5660
  509SOL    HW2 1527   1.386   1.209   2.359 -0.9562 -1.2596  1.9558
  510SOL     OW 1528   1.295   2.001   2.057  0.4485 -0.2211 -0.0322
  510SOL    HW1 1529   1.227   2.077   2.046  0.1722  0.7896 -5.3412
  510SOL    HW2 1530   1.264   1.927   2.129 -0.1652 -0.6106 -0.5841
  511SOL     OW 1531   3.053   2.651   1.315  0.3797 -0.1303 -0.4980
  511SOL    HW1 1532   3.035   2.621   1.216  0.9334 -0.6042  0.1679
  511SOL    HW2 1533   2.985   2.621   1.384 -1.9278 -1.8942 -0.9712
  512SOL     OW 1534   2.395   0.436   1.391  0.8782 -0.4028 -0.0326
  512SOL    HW1 1535   2.295   0.409   1.390 -1.1113  3.7047  2.5046
  512SOL    HW2 1536   2.448   0.378   1.325 -2.9199  0.1650 -0.4269
  513SOL     OW 1537   2.466   2.026   0.835 -0.1744  0.0258 -0.6144
  513SOL    HW1 1538   2.421   2.111   0.791  0.1862 -2.0910 -1.5138
  513SOL    HW2 1539   2.546   1.993   0.775  1.6379  0.9700 -0.6136
  514SOL     OW 1540   0.631   2.803   0.426  0.6635 -0.1978 -0.4279
  514SOL    HW1 1541   0.615   2.845   0.333 -0.3585  0.3356 -1.1814
  514SOL    HW2 1542   0.658   2.864   0.504 -0.8260  1.0733 -0.2525
  515SOL     OW 1543   2.033   1.152   2.286 -0.0063  0.3519  0.8869
  515SOL    HW1 1544   1.989   1.165   2.193 -0.8376  4.2043  3.0927
  515SOL    HW2 1545   1.985   1.208   2.359 -2.2132  1.7474 -3.1178
  516SOL     OW 1546   0.282   0.258   1.955 -0.0569 -0.3216  0.1851
  516SOL    HW1 1547   0.376   0.238   1.925 -0.7472  0.0751  1.0000
  516SOL    HW2 1548   0.205   0.216   1.895 -1.0313 -1.2105 -0.1777
  517SOL     OW 1549   0.355   3.034   1.215  0.1400  0.3585  0.1219
  517SOL    HW1 1550   0.393   3.125   1.249  1.2709 -0.5714  1.2500
  517SOL    HW2 1551   0.279   2.982   1.270 -0.7307 -1.1738  2.8583
  518SOL     OW 1552   2.133   3.080   1.764 -0.5079  0.1751  0.3643
  518SOL    HW1 1553   2.223   3.116   1.809  3.0582  1.6424  2.2460
  518SOL    HW2 1554   2.148   2.997   1.702 -1.1055  0.5893  0.9738
  519SOL     OW 1555   2.407   2.221   2.579 -0.1389 -0.1488  0.1975
  519SOL    HW1 1556   2.309   2.233   2.618  0.7064  2.5315  2.5709
  519SOL    HW2 1557   2.468   2.307   2.587  0.1069 -0.2165  0.8778
  520SOL     OW 1558   1.752   2.871   1.858  0.3230 -0.3738 -0.0726
  520SOL    HW1 1559   1.666   2.852   1.909  0.6588  1.7240 -0.2553
  520SOL    HW2 1560   1.819   2.791   1.859 -1.9918  0.5785  0.9204
  521SOL     OW 1561   0.574   0.015   2.103 -0.1369  0.9495 -0.7762
  521SOL    HW1 1562   0.475   0.025   2.122  0.3237  0.4948  0.6630
  521SOL    HW2 1563   0.633  -0.008   2.182 -0.1221 -0.8592 -0.3170
  522SOL     OW 1564   0.190   1.904   1.472 -0.5353 -0.2426  0.3594
  522SOL    HW1 1565   0.253   1.945   1.545  2.0590  0.8077 -0.9335
  522SOL    HW2 1566   0.149   1.976   1.404  1.1133  0.9709 -1.4770
  523SOL     OW 1567   2.250   2.905   1.574 -0.2862 -0.3551  0.3486
  523SOL    HW1 1568   2.322   2.835   1.543 -0.8551  1.1093  1.8387
  523SOL    HW2 1569   2.161   2.889   1.526  1.4314 -1.7336 -1.1748
  524SOL     OW 1570   0.182   2.757   2.780 -0.3285  0.1302  0.4691
  524SOL    HW1 1571   0.128   2.829   2.830  3.4866 -0.3787  3.1770
  524SOL    HW2 1572   0.286   2.760   2.783  1.5675  0.8470  0.6778
  525SOL     OW 1573   2.155   1.948   0.464 -0.3308  0.1905 -0.1204
  525SOL    HW1 1574   2.113   1.883   0.537 -2.9031 -2.2809 -1.3979
  525SOL    HW2 1575   2.187   1.900   0.376  0.2270 -2.8633  0.0873
  526SOL     OW 1576   0.437   1.523   1.608  0.2500  0.1505 -0.5383
  526SOL    HW1 1577   0.349   1.521   1.661 -0.6124 -0.7108  1.1161
  526SOL    HW2 1578   0.493   1.434   1.613  1.8431  0.7713  1.3689
  527SOL     OW 1579   1.082   2.933   1.289  0.0868 -1.0926 -0.2625
  527SOL    HW1 1580   1.177   2.897   1.312 -0.7285  0.2108 -0.5147
  527SOL    HW2 1581   1.087   3.034   1.262 -1.7464  2.3301  1.6746
  528SOL     OW 1582   1.347   2.411   0.494  0.3141 -0.0667 -0.3263
  528SOL    HW1 1583   1.375   2.311   0.506 -0.3654  0.7114  0.0430
  528SOL    HW2 1584   1.418   2.477   0.528 -0.5633  0.3000 -1.6103
  529SOL     OW 1585   1.897   1.697   0.810 -0.3846  0.1364 -0.1545
  529SOL    HW1 1586   1.843   1.705   0.719  1.1726 -1.3958  1.3722
  529SOL    HW2 1587   1.869   1.770   0.877 -1.3279 -0.3547 -0.9258
  530SOL     OW 1588   0.281   2.480   0.347  0.0944 -0.4488 -0.1655
  530SOL    HW1 1589   0.247   2.554   0.411 -0.1622  0.2177  2.5671
  530SOL    HW2 1590   0.352   2.421   0.394 -1.3397  0.8282 -0.5655
  531SOL     OW 1591   1.816   1.018   0.995  0.2749 -0.2836  0.0362
  531SOL    HW1 1592   1.858   1.007   0.903  1.5564 -1.6078  0.2571
  531SOL    HW2 1593   1.711   0.993   0.991 -1.1428 -0.8195 -0.0168
  532SOL     OW 1594   0.501   1.061   0.797 -0.2601 -0.0655 -0.5582
  532SOL    HW1 1595   0.541   1.096   0.708 -0.3509  1.8807  1.6077
  532SOL    HW2 1596   0.419   0.999   0.784  0.7862 -2.3017  0.1668
  533SOL     OW 1597   1.770   0.023   2.569  0.0062  0.2879  0.1558
  533SOL    HW1 1598   1.859  -0.026   2.597  0.7278 -1.3589  0.1777
  533SOL    HW2 1599   1.734   0.093   2.638  0.4197  3.5689 -0.0956
  534SOL     OW 1600   0.369   0.224   1.576  0.2441  0.4415 -0.5135
  534SOL    HW1 1601   0.472   0.250   1.584 -0.7104  2.0373 -0.1815
  534SOL    HW2 1602   0.303   0.307   1.566 -0.3190 -2.2599  1.2680
  535SOL     OW 1603   1.952   0.346   0.153  0.1110  0.6353  0.1968
  535SOL    HW1 1604   1.947   0.433   0.204  0.0631 -2.5753  1.8151
  535SOL    HW2 1605   1.920   0.268   0.211  1.3057  0.5425 -0.6767
  536SOL     OW 1606   1.401   2.657   0.959  0.4546  0.0834  0.0734
  536SOL    HW1 1607   1.363   2.610   1.048 -0.4798 -2.7238  4.3540
  536SOL    HW2 1608   1.325   2.693   0.896  1.7397  2.8844  0.1056
  537SOL     OW 1609   0.799   0.283   2.414  0.0233 -0.4451  0.2799
  537SOL    HW1 1610   0.816   0.335   2.328  0.9288  0.2863 -0.6533
  537SOL    HW2 1611   0.788   0.181   2.390 -0.7064 -1.9314  0.8340
  538SOL     OW 1612   1.662   2.297   1.419 -0.2762 -0.0134 -0.7495
  538SOL    HW1 1613   1.683   2.204   1.375 -0.3296 -0.5032 -1.8073
  538SOL    HW2 1614   1.743   2.366   1.417  1.2611 -1.1315 -0.4314
  539SOL     OW 1615   0.174   1.637   2.679  0.6061 -0.0959  0.3679
  539SOL    HW1 1616   0.079   1.630   2.633  1.5907 -0.5789  0.4780
  539SOL    HW2 1617   0.199   1.730   2.722  1.2386 -0.1666  1.3824
  540SOL     OW 1618   2.669   1.758   1.921  0.1617 -0.5852 -0.1204
  540SOL    HW1 1619   2.612   1.679   1.963 -1.4551 -1.3983  1.4557
  540SOL    HW2 1620   2.610   1.848   1.918 -3.4171  1.5563  0.3742
  541SOL     OW 1621   0.560   2.180   0.013  0.5566 -0.2845  0.2991
  541SOL    HW1 1622   0.591   2.161   0.111  1.1066 -0.1788 -1.6748
  541SOL    HW2 1623   0.457   2.184   0.011  1.0452  2.2037  2.4836
  542SOL     OW 1624   2.188   2.582   0.419  0.2114  0.6925  0.5084
  542SOL    HW1 1625   2.117   2.654   0.403 -3.6444 -1.5305  0.2174
  542SOL    HW2 1626   2.148   2.489   0.444  2.3931 -0.3616  1.1269
  543SOL     OW 1627   1.107   1.803   1.557  0.0680 -0.6020 -0.0429
  543SOL    HW1 1628   1.069   1.817   1.652 -1.7866 -0.2047  1.5153
  543SOL    HW2 1629   1.079   1.881   1.490  0.5520 -1.8126  1.2940
  544SOL     OW 1630   1.101   0.483   0.171 -0.0931  0.2773 -0.1465
  544SOL    HW1 1631   1.064   0.404   0.228 -0.6175 -0.4549 -0.8016
  544SOL    HW2 1632   1.163   0.460   0.094  0.2177  1.1215 -1.4931
  545SOL     OW 1633   1.114   1.763   0.778 -0.4384  0.1264  0.0222
  545SOL    HW1 1634   1.197   1.795   0.720 -1.4923  0.5541 -1.4483
  545SOL    HW2 1635   1.100   1.658   0.788  1.1967 -0.8290  0.5489
  546SOL     OW 1636   2.665   1.555   3.007  0.7283  0.6768 -0.1784
  546SOL    HW1 1637   2.646   1.653   2.972  1.3072  0.4017  0.3094
  546SOL    HW2 1638   2.580   1.501   3.046 -1.7786 -1.5029  1.4744
  547SOL     OW 1639   0.614   3.011   2.581  0.3962 -0.0254 -0.1350
  547SOL    HW1 1640   0.700   3.009   2.639 -1.1717  0.2503 -2.6008
  547SOL    HW2 1641   0.530   2.975   2.626 -2.3919 -0.5844 -2.8366
  548SOL     OW 1642   2.074   0.844   2.991 -0.4441 -0.0994  0.7356
  548SOL    HW1 1643   1.980   0.804   2.994 -0.5030  0.7142 -0.0379
  548SOL    HW2 1644   2.082   0.934   3.039 -1.6287 -2.5391  1.0252
  549SOL     OW 1645   0.651   0.601   0.207  0.2017  0.0189  0.3909
  549SOL    HW1 1646   0.593   0.636   0.120 -4.0813  0.4147 -0.1228
  549SOL    HW2 1647   0.746   0.642   0.220 -1.4001 -1.6734  1.4197
  550SOL     OW 1648   2.600   2.801   2.905 -0.7225  0.4014 -0.2995
  550SOL    HW1 1649   2.537   2.741   2.962 -1.0552  0.8377 -0.5463
  550SOL    HW2 1650   2.644   2.758   2.819  1.0772 -1.5358 -1.1105
  551SOL     OW 1651   0.263   0.923   0.270 -0.3486  0.4150 -0.5576
  551SOL    HW1 1652   0.363   0.925   0.259 -1.0624  1.3140  2.5760
  551SOL    HW2 1653   0.239   0.869   0.356  1.5113  1.4532  2.3557
  552SOL     OW 1654   0.655   3.005   1.858  0.3708 -0.2995  0.4399
  552SOL    HW1 1655   0.668   3.064   1.948  2.1208  2.8225  0.6310
  552SOL    HW2 1656   0.747   2.991   1.810  1.7802 -0.1557 -0.3614
  553SOL     OW 1657   2.894   2.431   0.359  0.4253 -0.1189 -0.2066
  553SOL    HW1 1658   2.868   2.343   0.417 -2.8156 -0.1918  1.1592
  553SOL    HW2 1659   2.806   2.465   0.316 -2.4112  0.1619 -2.1865
  554SOL     OW 1660   2.120   0.331   0.496  0.4812  0.4975 -0.7534
  554SOL    HW1 1661   2.212   0.350   0.445 -0.1062  1.3529 -2.4729
  554SOL    HW2 1662   2.129   0.266   0.576 -1.1704  0.5168 -0.9960
  555SOL     OW 1663   0.385   2.796   2.523  0.3000  0.3800 -0.2442
  555SOL    HW1 1664   0.322   2.873   2.487  0.4075 -0.8249  0.9373
  555SOL    HW2 1665   0.449   2.768   2.448  1.9928 -2.2276 -0.1148
  556SOL     OW 1666   0.875   2.367   1.578  0.3254  0.8308  0.6935
  556SOL    HW1 1667   0.912   2.454   1.623 -1.4182  0.7127 -2.1225
  556SOL    HW2 1668   0.922   2.351   1.487 -0.2486 -2.7409  0.2067
  557SOL     OW 1669   0.139   2.027   0.217 -0.1697  0.3807 -0.3671
  557SOL    HW1 1670   0.051   1.990   0.173 -0.7699 -0.5206 -2.5494
  557SOL    HW2 1671   0.178   2.116   0.173  0.9523  3.4664 -0.6912
  558SOL     OW 1672   2.770   2.201   0.440  0.1887 -0.1199  0.2159
  558SOL    HW1 1673   2.688   2.242   0.396 -1.1018 -1.0245 -1.5623
  558SOL    HW2 1674   2.810   2.112   0.397 -0.0372 -1.9820  0.4075
  559SOL     OW 1675   0.427   2.317   1.370  0.2538 -0.2418 -0.1243
  559SOL    HW1 1676   0.337   2.339   1.325 -0.4827 -0.0016 -2.4182
  559SOL    HW2 1677   0.472   2.234   1.329 -0.4308 -0.7259  1.4753
  560SOL     OW 1678   2.109   1.115   3.076 -0.3992 -0.3732 -0.0546
  560SOL    HW1 1679   2.146   1.118   3.172  2.0619  1.0686 -2.8493
  560SOL    HW2 1680   2.175   1.160   3.007 -0.5597 -1.4836  0.6041
  561SOL     OW 1681   0.017   1.862   3.089 -0.0351  0.3050 -0.3670
  561SOL    HW1 1682  -0.011   1.799   3.164  1.7291 -0.6866 -0.3978
  561SOL    HW2 1683  -0.043   1.942   3.070  1.6745  2.9588 -0.8097
  562SOL     OW 1684   1.044   2.173   2.338  0.3683  0.2119  0.5835
  562SOL    HW1 1685   1.011   2.263   2.384  2.3122 -0.8508 -1.4063
  562SOL    HW2 1686   0.985   2.085   2.366  0.9673 -3.6071  0.0073
  563SOL     OW 1687   0.701   2.524   2.621 -0.1182 -0.0370 -0.1109
  563SOL    HW1 1688   0.781   2.466   2.588  1.1447 -0.1724  0.2428
  563SOL    HW2 1689   0.709   2.566   2.715  0.6922  1.5343 -0.0737
  564SOL     OW 1690   2.881   1.416   2.934  0.5908  0.9119  0.1108
  564SOL    HW1 1691   2.789   1.455   2.963 -0.6081  0.2858  0.6361
  564SOL    HW2 1692   2.954   1.490   2.916  0.9276 -1.3407  1.5580
  565SOL     OW 1693   2.486   1.958   2.656  0.1004 -0.2042 -0.1918
  565SOL    HW1 1694   2.462   2.050   2.606  3.1455 -0.0038 -1.3976
  565SOL    HW2 1695   2.581   1.972   2.702  0.4236 -1.3293  1.5838
  566SOL     OW 1696   2.000   2.877   1.467  0.1841  0.5094  0.1043
  566SOL    HW1 1697   1.957   2.782   1.494 -1.7557 -1.3635 -0.1235
  566SOL    HW2 1698   1.972   2.916   1.375  1.3764 -1.2585 -1.2827
  567SOL     OW 1699   2.447   3.096   2.323  0.0903  0.2240 -0.3856
  567SOL    HW1 1700   2.357   3.133   2.361 -0.9287  0.0348  0.6073
  567SOL    HW2 1701   2.444   3.099   2.219  1.2613  0.5923  1.1700
  568SOL     OW 1702   1.532   1.802   0.280  0.4123 -0.1996  0.4913
  568SOL    HW1 1703   1.480   1.871   0.224  0.1895 -0.4924  1.2091
  568SOL    HW2 1704   1.633   1.793   0.261  0.6658 -0.6180 -0.9407
  569SOL     OW 1705   0.232   0.624   0.800 -0.2539  0.1617  0.5624
  569SOL    HW1 1706   0.302   0.558   0.756  0.5285 -1.1229  0.0018
  569SOL    HW2 1707   0.145   0.574   0.810  0.7600 -0.8896  2.7368
  570SOL     OW 1708   0.649   0.873   2.872 -0.3457 -0.1275 -0.7060
  570SOL    HW1 1709   0.718   0.875   2.790  0.1626  1.6421  0.9551
  570SOL    HW2 1710   0.640   0.965   2.920 -0.6599 -0.0270  1.8801
  571SOL     OW 1711   0.822   0.024   1.127  0.4214 -0.5121 -0.5368
  571SOL    HW1 1712   0.854   0.063   1.037  1.7053 -0.4219  2.5428
  571SOL    HW2 1713   0.831  -0.081   1.136  0.4134  2.0303  2.9811
  572SOL     OW 1714   1.603   2.663   1.378 -0.1831  0.2299 -0.0857
  572SOL    HW1 1715   1.542   2.613   1.318  0.7948 -0.6617 -1.1630
  572SOL    HW2 1716   1.664   2.735   1.335  0.2975  0.3653  2.3365
  573SOL     OW 1717   3.013   0.490   2.033  0.8815 -0.2315  0.1044
  573SOL    HW1 1718   2.959   0.403   2.056 -0.3085 -3.1695  1.0266
  573SOL    HW2 1719   3.067   0.479   1.940  0.2783  0.0103  0.4853
  574SOL     OW 1720   0.171   1.762   1.134  0.2309  0.0090 -0.0318
  574SOL    HW1 1721   0.239   1.817   1.187 -1.2105 -0.9667  0.5316
  574SOL    HW2 1722   0.075   1.802   1.143  0.4315 -1.7055  2.0973
  575SOL     OW 1723   0.850   2.181   0.952  0.1492  0.5307  0.3198
  575SOL    HW1 1724   0.803   2.227   1.034  1.1733 -2.6724 -0.9753
  575SOL    HW2 1725   0.865   2.243   0.867  1.8042  1.6356 -2.0324
  576SOL     OW 1726   2.896   3.000   1.686 -0.0191  0.9133  0.0249
  576SOL    HW1 1727   2.798   2.998   1.719  1.3963 -0.8551  1.5470
  576SOL    HW2 1728   2.928   3.095   1.650  1.2327 -1.8683 -0.5027
  577SOL     OW 1729   2.657   1.229   0.015  0.5824 -0.2348  0.2000
  577SOL    HW1 1730   2.691   1.160  -0.056  2.2678  1.1737 -1.7190
  577SOL    HW2 1731   2.672   1.206   0.116 -1.2943  3.8170  0.8739
  578SOL     OW 1732   1.407   2.805   2.493  0.4523 -0.4820  0.7656
  578SOL    HW1 1733   1.313   2.850   2.475 -0.0482 -0.2827  0.6858
  578SOL    HW2 1734   1.487   2.855   2.451  0.9354 -0.4591  0.3057
  579SOL     OW 1735   0.002   2.468   0.187  0.5775 -0.3511  0.7312
  579SOL    HW1 1736  -0.078   2.424   0.241  0.0110 -2.7382 -0.3216
  579SOL    HW2 1737   0.094   2.463   0.234 -1.0967  2.1224  1.6851
  580SOL     OW 1738   0.988   2.667   0.385 -0.3219  0.3077  0.6541
  580SOL    HW1 1739   1.076   2.652   0.331 -0.0768 -2.8373  0.1917
  580SOL    HW2 1740   0.909   2.616   0.350 -1.5552  0.7411 -1.2203
  581SOL     OW 1741   1.270   2.664   1.447  0.7316  0.4737  0.4783
  581SOL    HW1 1742   1.345   2.595   1.469  2.6246  0.9528 -0.3787
  581SOL    HW2 1743   1.296   2.764   1.430 -0.2695 -0.9693 -1.6918
  582SOL     OW 1744   1.494   0.106   1.907 -0.3281 -0.2940  0.2859
  582SOL    HW1 1745   1.516   0.186   1.973  0.0593 -0.0668  1.6644
  582SOL    HW2 1746   1.564   0.082   1.834 -1.6087  3.3507  0.1479
  583SOL     OW 1747   2.428   3.072   0.531 -0.1285  0.6838  0.0737
  583SOL    HW1 1748   2.509   3.026   0.485 -0.9742  0.4401  1.5899
  583SOL    HW2 1749   2.339   3.014   0.535 -0.4127 -1.6844 -1.9274
  584SOL     OW 1750   1.582   1.131   2.286 -0.8199  0.4529  0.5239
  584SOL    HW1 1751   1.629   1.192   2.221  2.2692 -2.3410  0.7196
  584SOL    HW2 1752   1.624   1.038   2.268  0.9584  0.7546 -0.3619
  585SOL     OW 1753   2.088   2.678   2.893 -0.4745  0.2273  0.1806
  585SOL    HW1 1754   2.116   2.576   2.887 -0.5879 -0.8365 -0.7864
  585SOL    HW2 1755   1.988   2.698   2.890  0.7670  1.1629  0.6994
  586SOL     OW 1756   2.899   0.395   1.535 -0.2165  0.3369 -0.1355
  586SOL    HW1 1757   2.848   0.473   1.572  0.6694 -1.6016 -0.1245
  586SOL    HW2 1758   2.851   0.359   1.446 -0.0592 -3.2980 -0.1674
  587SOL     OW 1759   2.079   1.463   2.660  0.4325 -0.5355  0.3533
  587SOL    HW1 1760   2.125   1.384   2.612  0.9197  0.1652  0.7678
  587SOL    HW2 1761   2.129   1.489   2.746 -0.5731 -0.1067  2.0686
  588SOL     OW 1762   0.528   2.699   2.301  0.4843 -0.7279  0.7206
  588SOL    HW1 1763   0.495   2.709   2.205 -0.9981  0.8108 -0.0724
  588SOL    HW2 1764   0.522   2.597   2.341 -1.3543 -1.2581  2.2347
  589SOL     OW 1765   2.196   1.287   2.494 -0.1755  0.2344  0.1322
  589SOL    HW1 1766   2.152   1.227   2.419  0.1995 -1.1292  2.1022
  589SOL    HW2 1767   2.297   1.274   2.498 -2.1890 -0.2034 -0.5611
  590SOL     OW 1768   2.358   1.779   2.069  0.3285 -0.0179 -0.0345
  590SOL    HW1 1769   2.409   1.694   2.065  0.0085 -0.7575  2.0875
  590SOL    HW2 1770   2.339   1.801   2.168  1.5777 -2.3283  0.4484
  591SOL     OW 1771   1.227   2.413   0.223  0.2757 -0.6512 -0.0365
  591SOL    HW1 1772   1.241   2.323   0.167 -3.1543 -0.5282 -0.4863
  591SOL    HW2 1773   1.231   2.395   0.323 -2.0333 -0.3808  3.6990
  592SOL     OW 1774   1.787   2.329   0.789 -0.4639 -0.1565  0.4619
  592SOL    HW1 1775   1.767   2.367   0.695 -0.3838  0.2908 -2.1892
  592SOL    HW2 1776   1.891   2.308   0.799  0.0914  2.2499  1.4121
  593SOL     OW 1777   0.727   0.269   0.220  0.4431  0.3413 -0.1498
  593SOL    HW1 1778   0.770   0.260   0.127 -0.9201  2.7758 -1.0673
  593SOL    HW2 1779   0.680   0.363   0.221 -0.3944  0.3215 -1.5128
  594SOL     OW 1780   1.055   1.835   2.711  0.0838 -0.0834  0.0436
  594SOL    HW1 1781   1.137   1.792   2.663 -1.3260  2.4065 -0.4686
  594SOL    HW2 1782   1.079   1.849   2.809 -3.4872 -0.6418 -3.4009
  595SOL     OW 1783   1.560   0.065   0.990 -0.6610 -0.8743  0.0674
  595SOL    HW1 1784   1.643   0.002   0.963 -1.0580 -3.7965  0.0501
  595SOL    HW2 1785   1.467   0.035   0.947 -0.5967  1.9290  0.0248
  596SOL     OW 1786   0.054   1.527   2.292  0.3489 -0.8238 -0.1721
  596SOL    HW1 1787   0.103   1.440   2.324 -0.9983  1.9021 -1.3636
  596SOL    HW2 1788   0.003   1.565   2.372  1.5813 -1.0385 -0.3321
  597SOL     OW 1789   1.958   2.672   1.813  1.1197 -0.0070  0.8512
  597SOL    HW1 1790   1.930   2.673   1.712  0.9596 -0.8939 -0.8604
  597SOL    HW2 1791   2.051   2.621   1.824  3.2400 -4.1266  0.2517
  598SOL     OW 1792   2.541   2.888   1.222  0.1518  0.1406  0.1014
  598SOL    HW1 1793   2.612   2.934   1.278 -0.9865 -1.9789 -2.9250
  598SOL    HW2 1794   2.559   2.887   1.118 -3.6741 -0.8944 -0.1410
  599SOL     OW 1795   2.838   0.277   2.492 -0.5481 -0.9336  0.5522
  599SOL    HW1 1796   2.916   0.316   2.436  1.4699  2.1802  1.1700
  599SOL    HW2 1797   2.747   0.316   2.457 -3.1731 -0.1908 -0.8665
  600SOL     OW 1798   2.822   1.201   2.761 -0.1764  0.2129  0.2459
  600SOL    HW1 1799   2.720   1.178   2.759 -2.0276 -0.5523 -0.3664
  600SOL    HW2 1800   2.853   1.256   2.842  0.6837  2.2613 -2.3645
  601SOL     OW 1801   3.074   1.353   2.007  0.1368  0.0359 -0.2205
  601SOL    HW1 1802   2.977   1.375   1.978 -2.6588  1.7660  3.1007
  601SOL    HW2 1803   3.136   1.438   2.021 -1.5546 -0.3972 -1.3979
  602SOL     OW 1804   1.471   1.600   2.302  0.6467 -0.6838 -0.5558
  602SOL    HW1 1805   1.391   1.560   2.354  0.1673  1.8599 -1.8831
  602SOL    HW2 1806   1.561   1.597   2.353 -0.2797  4.0524  0.2813
  603SOL     OW 1807   0.666   1.135   2.726  0.3691 -0.6897 -0.2578
  603SOL    HW1 1808   0.585   1.162   2.665 -0.8348 -0.3319  0.7810
  603SOL    HW2 1809   0.708   1.038   2.713 -0.4842 -1.7206  0.0565
  604SOL     OW 1810   2.460   0.986   0.152  0.1411 -0.5072  0.1250
  604SOL    HW1 1811   2.498   1.061   0.091 -1.2167  0.4470  1.9577
  604SOL    HW2 1812   2.478   0.891   0.113  2.3942 -1.1900  0.6682
  605SOL     OW 1813   2.505   1.171   1.969  0.4504 -0.5606 -0.2886
  605SOL    HW1 1814   2.574   1.148   1.895 -2.9118 -1.0713 -0.6453
  605SOL    HW2 1815   2.538   1.232   2.046 -0.1777  0.3852 -1.0232
  606SOL     OW 1816   1.486   2.553   2.557 -0.2062  0.4363 -0.4712
  606SOL    HW1 1817   1.451   2.645   2.521  0.6433 -1.0954  0.4396
  606SOL    HW2 1818   1.451   2.466   2.506 -0.4841 -1.9018  0.9809
  607SOL     OW 1819   1.347   1.607   0.291 -0.8906 -0.2191 -0.6569
  607SOL    HW1 1820   1.257   1.653   0.312 -4.0024  1.1885  0.7054
  607SOL    HW2 1821   1.428   1.675   0.302  0.5485 -0.6538  1.2449
  608SOL     OW 1822   1.435   2.855   0.392 -0.3058 -0.0798 -0.0368
  608SOL    HW1 1823   1.472   2.879   0.294 -0.3368  2.0482  0.4933
  608SOL    HW2 1824   1.367   2.926   0.425 -0.1822  0.8786 -0.8462
  609SOL     OW 1825   1.331   1.352   0.187  0.7850  0.7158  0.0750
  609SOL    HW1 1826   1.317   1.449   0.205 -1.6546 -0.9699 -0.9469
  609SOL    HW2 1827   1.306   1.323   0.089 -1.8582 -0.8731 -2.5512
  610SOL     OW 1828   3.004   1.189   2.276 -0.1324  0.2896  0.3417
  610SOL    HW1 1829   3.002   1.091   2.236  0.6313 -1.5230 -0.3057
  610SOL    HW2 1830   3.010   1.258   2.202  0.5177 -0.1504 -0.8424
  611SOL     OW 1831   2.498   0.265   1.176 -0.0408 -0.2502  0.5668
  611SOL    HW1 1832   2.462   0.168   1.195  0.9684  0.6145 -2.5207
  611SOL    HW2 1833   2.592   0.286   1.209 -1.0054  0.8435 -0.1093
  612SOL     OW 1834   0.748   2.293   1.176  0.2227 -0.1294 -0.4418
  612SOL    HW1 1835   0.675   2.221   1.207 -0.8864 -0.6307  0.6284
  612SOL    HW2 1836   0.716   2.388   1.165  2.3688 -1.7035  0.0363
  613SOL     OW 1837   0.854   1.392   2.375 -0.2318  0.0249  0.1897
  613SOL    HW1 1838   0.849   1.476   2.315 -1.6617  1.2755 -1.6283
  613SOL    HW2 1839   0.835   1.299   2.334 -0.2290 -1.9798  1.2762
  614SOL     OW 1840   1.553   1.660   1.822  0.2094  0.7883 -0.4833
  614SOL    HW1 1841   1.487   1.739   1.807 -0.1348  1.3859  0.7663
  614SOL    HW2 1842   1.644   1.678   1.866 -1.2602  0.8498  0.4635
  615SOL     OW 1843   0.759   1.387   1.725 -0.1779 -0.3297  0.4956
  615SOL    HW1 1844   0.679   1.365   1.669  3.3787 -0.0113  0.2845
  615SOL    HW2 1845   0.815   1.471   1.689  0.5915  0.9752 -0.8757
  616SOL     OW 1846   1.109   1.548   2.152  0.2508 -0.3476 -0.4199
  616SOL    HW1 1847   1.005   1.551   2.145  0.2342 -0.1332 -3.0794
  616SOL    HW2 1848   1.154   1.572   2.063  0.9539  0.6679  1.2605
  617SOL     OW 1849   2.996   1.508   1.624  0.3072  0.2010  0.7854
  617SOL    HW1 1850   2.964   1.425   1.678  0.8309 -0.2455 -0.7439
  617SOL    HW2 1851   3.039   1.475   1.536 -1.7479  0.2085 -1.3220
  618SOL     OW 1852   1.931   1.939   1.433 -0.0442  0.0210 -0.1761
  618SOL    HW1 1853   2.021   1.911   1.385  1.1400  0.2775  1.1330
  618SOL    HW2 1854   1.912   1.887   1.524  0.4434  0.6071  1.2049
  619SOL     OW 1855   1.686   0.448   2.365  0.0690 -0.0848 -0.1259
  619SOL    HW1 1856   1.635   0.514   2.313  2.0431 -0.6145 -0.8655
  619SOL    HW2 1857   1.624   0.376   2.407  1.2963 -0.9166  0.5822
  620SOL     OW 1858   2.199   2.938   0.573  0.3426  0.2879 -0.2090
  620SOL    HW1 1859   2.124   3.010   0.571  2.7486 -0.4566 -1.5520
  620SOL    HW2 1860   2.220   2.900   0.669  0.6486  0.1932  1.4558
  621SOL     OW 1861   2.228   1.890   1.343  0.1555  0.1231  0.4863
  621SOL    HW1 1862   2.222   1.880   1.447 -0.3795  0.7125  0.0794
  621SOL    HW2 1863   2.200   1.808   1.293  0.7572 -0.5782  2.6453
  622SOL     OW 1864   2.191   0.880   1.765  0.6146  1.0867  0.3410
  622SOL    HW1 1865   2.267   0.814   1.750 -0.2992 -1.5517  0.6300
  622SOL    HW2 1866   2.125   0.837   1.830  2.0776  0.1669 -0.5781
  623SOL     OW 1867   1.342   0.778   2.588 -0.3920  0.2848 -0.3341
  623SOL    HW1 1868   1.277   0.753   2.670  2.3967 -0.1258 -0.8754
  623SOL    HW2 1869   1.295   0.777   2.494  1.0655 -0.3429 -0.9492
  624SOL     OW 1870   0.504   0.725   3.085  0.0225 -0.2470  0.2520
  624SOL    HW1 1871   0.551   0.751   2.999  4.9348  2.1164 -1.2609
  624SOL    HW2 1872   0.517   0.802   3.157  0.3871  0.8754  2.8036
  625SOL     OW 1873   2.773   1.711   0.891 -0.3409 -0.5567 -0.3346
  625SOL    HW1 1874   2.708   1.751   0.964 -1.4326  0.0445 -0.1172
  625SOL    HW2 1875   2.791   1.608   0.907 -0.5240 -0.6552  1.5092
  626SOL     OW 1876   0.520   2.747   1.880 -0.7191  0.1769  0.8214
  626SOL    HW1 1877   0.553   2.845   1.881  1.7804 -0.3453  1.6762
  626SOL    HW2 1878   0.419   2.742   1.891 -0.4881  2.3856  0.2048
  627SOL     OW 1879   0.718   1.030   1.526  0.7062  0.0605 -0.1544
  627SOL    HW1 1880   0.793   0.954   1.518  3.0592  0.2465 -3.2459
  627SOL    HW2 1881   0.742   1.101   1.456 -1.4982 -1.1685  0.3442
  628SOL     OW 1882   2.424   0.208   0.704  0.3132 -0.5883  0.2219
  628SOL    HW1 1883   2.449   0.134   0.641  3.3073  0.2157  0.1876
  628SOL    HW2 1884   2.320   0.215   0.723 -1.1819  1.9615 -1.3290
  629SOL     OW 1885   1.971   0.924   1.970 -0.1218  0.2889  0.1679
  629SOL    HW1 1886   2.063   0.916   2.024 -1.5526  1.9947  2.1796
  629SOL    HW2 1887   1.932   1.016   1.991  1.6010  3.0870 -1.8201
  630SOL     OW 1888   2.735   2.171   0.775 -0.8107  0.4353 -0.3139
  630SOL    HW1 1889   2.658   2.231   0.780 -0.2716  0.2906  1.6653
  630SOL    HW2 1890   2.708   2.077   0.743  1.5455  0.4832  1.4454
  631SOL     OW 1891   3.002   0.213   2.102  0.2584  0.5721 -0.1648
  631SOL    HW1 1892   3.053   0.267   2.174 -0.0560  1.0795  0.9337
  631SOL    HW2 1893   3.048   0.199   2.006 -1.9668  1.1393 -1.1165
  632SOL     OW 1894   2.349   2.494   0.658 -0.8109 -0.3124  0.4031
  632SOL    HW1 1895   2.440   2.547   0.669 -0.9641  0.8407  0.0132
  632SOL    HW2 1896   2.292   2.547   0.591 -0.5232  0.4476 -0.4747
  633SOL     OW 1897   1.597   1.271   2.576  0.2191 -0.3120  0.5009
  633SOL    HW1 1898   1.597   1.356   2.638  1.6190  0.5657  0.8495
  633SOL    HW2 1899   1.500   1.264   2.532 -0.2138  2.8848 -0.8474
  634SOL     OW 1900   0.632   2.019   0.988 -0.2188  0.1632  0.5782
  634SOL    HW1 1901   0.557   2.083   1.032  1.6184  4.2247  0.0896
  634SOL    HW2 1902   0.716   2.073   0.959  1.8916 -0.4403 -2.0014
  635SOL     OW 1903   0.054   2.308   3.054  0.1836 -0.0366 -0.1314
  635SOL    HW1 1904  -0.000   2.318   2.964  0.2254  0.4393  1.3100
  635SOL    HW2 1905   0.035   2.390   3.114 -3.1885 -0.1118 -1.4640
  636SOL     OW 1906   2.294   2.801   1.995 -0.2991  0.2008 -0.2216
  636SOL    HW1 1907   2.269   2.901   1.988  3.1269 -2.5977 -0.5700
  636SOL    HW2 1908   2.249   2.753   2.081  0.7759 -0.0721  1.2678
  637SOL     OW 1909   2.537   0.698   2.037  0.1810  0.3555  0.2304
  637SOL    HW1 1910   2.507   0.689   1.938  0.3029 -2.3517  0.6966
  637SOL    HW2 1911   2.614   0.767   2.048 -0.4434  0.6301  2.3047
  638SOL     OW 1912   2.503   1.871   1.321  0.3861  0.0689  0.0800
  638SOL    HW1 1913   2.402   1.876   1.323  4.3402 -2.7887 -1.2412
  638SOL    HW2 1914   2.533   1.783   1.361  0.4076 -0.9464  0.0890
  639SOL     OW 1915   1.301   2.213   1.607  0.8111  0.5717  0.2912
  639SOL    HW1 1916   1.310   2.160   1.521  2.0594  0.3096  0.6577
  639SOL    HW2 1917   1.212   2.197   1.655 -1.5335  0.6405  1.3602
  640SOL     OW 1918   0.171   1.203   1.574 -0.1441  0.2919 -0.2314
  640SOL    HW1 1919   0.152   1.250   1.664 -0.4755 -2.1893 -1.7184
  640SOL    HW2 1920   0.247   1.131   1.586 -1.7193 -1.7216  3.0222
  641SOL     OW 1921   1.983   0.139   1.480  0.5598  0.7071  0.1804
  641SOL    HW1 1922   1.917   0.183   1.551 -4.2921  0.4958 -1.0165
  641SOL    HW2 1923   2.025   0.054   1.512  0.2062  1.3264  3.4917
  642SOL     OW 1924   1.966   0.122   0.318  0.3477 -0.5604 -0.3833
  642SOL    HW1 1925   2.068   0.127   0.320 -0.6655  0.0862 -1.5701
  642SOL    HW2 1926   1.927   0.116   0.410  2.4765 -1.4644  1.8027
  643SOL     OW 1927   2.871   1.870   2.072  0.0451 -0.2472  0.3677
  643SOL    HW1 1928   2.796   1.804   2.053  1.4005 -0.1558  2.5911
  643SOL    HW2 1929   2.863   1.957   2.018  1.3675 -1.0199  0.0986
  644SOL     OW 1930   2.181   2.308   1.194 -0.0357 -0.2830  0.0556
  644SOL    HW1 1931   2.273   2.264   1.172  2.8845 -0.8649  1.0292
  644SOL    HW2 1932   2.179   2.331   1.294  0.5750 -1.6195  0.9699
  645SOL     OW 1933   0.587   0.786   1.160 -0.1017  0.5070 -0.0448
  645SOL    HW1 1934   0.524   0.712   1.124 -1.2422 -0.5221  2.1727
  645SOL    HW2 1935   0.638   0.849   1.098  0.8880 -1.1708  1.3654
  646SOL     OW 1936   1.515   1.942   1.812  0.0878 -0.0139  0.1623
  646SOL    HW1 1937   1.602   1.993   1.788 -0.6160  0.5838 -0.6487
  646SOL    HW2 1938   1.472   1.978   1.898 -1.6150  1.2202  1.4739
  647SOL     OW 1939   0.877   0.952   0.671 -0.4113 -0.6549 -0.1353
  647SOL    HW1 1940   0.970   0.945   0.719  1.3033  1.3918 -0.3026
  647SOL    HW2 1941   0.811   0.890   0.718  0.0968 -1.5370 -2.2482
  648SOL     OW 1942   0.175   0.172   0.302  0.6397 -0.0989  0.7852
  648SOL    HW1 1943   0.221   0.106   0.228  0.3559 -0.5738 -1.7916
  648SOL    HW2 1944   0.144   0.266   0.268  0.2376  1.3504 -0.6123
  649SOL     OW 1945   3.096   0.136   0.932  0.1077 -0.6818 -0.1116
  649SOL    HW1 1946   3.193   0.153   0.898  0.9312 -1.7912  0.1877
  649SOL    HW2 1947   3.073   0.162   1.029  0.9926  0.9049 -0.0062
  650SOL     OW 1948   2.711   0.714   1.392  0.4172 -0.0238  0.2848
  650SOL    HW1 1949   2.618   0.727   1.438 -0.4256  2.5960 -0.5856
  650SOL    HW2 1950   2.729   0.795   1.325 -3.0019 -1.7069 -0.8746
  651SOL     OW 1951   0.898   1.595   1.626  0.3725  0.2232 -0.0454
  651SOL    HW1 1952   0.983   1.645   1.652  2.5354  1.1793 -2.7263
  651SOL    HW2 1953   0.860   1.603   1.529 -0.3527  0.0374  0.7288
  652SOL     OW 1954   2.224   2.496   2.407  0.0279  0.1772 -0.6682
  652SOL    HW1 1955   2.163   2.476   2.482  1.9783  0.5784 -2.9476
  652SOL    HW2 1956   2.182   2.566   2.340  0.2841  4.2841  0.1158
  653SOL     OW 1957   2.706   1.178   0.288 -0.6637  0.4903  0.3141
  653SOL    HW1 1958   2.764   1.269   0.291  1.9672  2.3594  1.1094
  653SOL    HW2 1959   2.768   1.097   0.317 -0.2302  2.6796  0.6310
  654SOL     OW 1960   1.281   2.288   1.233  0.4084  0.8817 -0.2822
  654SOL    HW1 1961   1.290   2.193   1.285 -3.1147 -0.3871 -0.9917
  654SOL    HW2 1962   1.316   2.286   1.133 -1.0902 -1.6090 -0.7795
  655SOL     OW 1963   0.210   1.019   1.847 -0.2519  0.3383  0.1784
  655SOL    HW1 1964   0.256   0.926   1.817  3.7744 -0.2008  1.6670
  655SOL    HW2 1965   0.279   1.096   1.833 -0.0438 -1.6210 -0.7365
  656SOL     OW 1966   2.515   2.487   2.596  0.4704  0.3547 -0.5260
  656SOL    HW1 1967   2.598   2.476   2.538 -2.2112  1.5157  1.8014
  656SOL    HW2 1968   2.433   2.530   2.549 -1.8214 -1.6859 -1.2129
  657SOL     OW 1969   3.035   1.093   1.881 -0.0431 -0.1867 -0.3994
  657SOL    HW1 1970   3.045   1.189   1.921 -1.8255 -1.0136 -2.8869
  657SOL    HW2 1971   3.127   1.047   1.868  0.5351  2.7277 -0.1347
  658SOL     OW 1972   1.637   0.173   2.384  0.1204  0.2437 -0.1921
  658SOL    HW1 1973   1.703   0.109   2.436 -0.2563 -0.0864 -0.7351
  658SOL    HW2 1974   1.687   0.201   2.297 -1.5346  1.3775  3.8200
  659SOL     OW 1975   1.388   0.594   2.897  0.4069 -0.9047 -0.1289
  659SOL    HW1 1976   1.445   0.680   2.891  0.1255 -2.2479  4.0058
  659SOL    HW2 1977   1.299   0.601   2.844  1.6424  3.8683 -0.6879
  660SOL     OW 1978   1.457   0.354   1.410 -0.4240  0.5127 -0.0806
  660SOL    HW1 1979   1.494   0.356   1.510  1.2635 -0.3361 -0.1912
  660SOL    HW2 1980   1.526   0.336   1.342 -1.6509 -2.4412  2.4039
  661SOL     OW 1981   2.495   1.182   0.672 -0.6693 -0.0310  0.1229
  661SOL    HW1 1982   2.506   1.155   0.573  1.7758  0.2982  0.3957
  661SOL    HW2 1983   2.432   1.264   0.686  3.2648 -0.3208 -0.5320
  662SOL     OW 1984   1.317   0.422   1.840 -0.3119  0.0449  0.3823
  662SOL    HW1 1985   1.277   0.329   1.816  2.2861  0.5931  0.4708
  662SOL    HW2 1986   1.273   0.461   1.926  2.5134 -0.2164 -1.1593
  663SOL     OW 1987   0.848   1.601   2.191 -0.1237 -0.0068 -0.2298
  663SOL    HW1 1988   0.820   1.699   2.219  1.3218  1.5832  0.3389
  663SOL    HW2 1989   0.782   1.552   2.127  2.3481  0.4097  1.2191
  664SOL     OW 1990   1.668   2.024   1.370  0.2378  0.0614  0.0687
  664SOL    HW1 1991   1.594   2.007   1.441 -1.2281  0.1211 -0.2936
  664SOL    HW2 1992   1.752   1.963   1.380 -0.4424  0.9455  0.2816
  665SOL     OW 1993   2.204   0.670   1.961  0.4573 -0.6990 -0.4201
  665SOL    HW1 1994   2.178   0.572   1.983 -1.1017 -1.3254  0.2108
  665SOL    HW2 1995   2.267   0.717   2.029  1.6945  0.1069  1.2163
  666SOL     OW 1996   0.500   2.302   0.477  0.6001 -0.2855 -0.2604
  666SOL    HW1 1997   0.569   2.380   0.485 -2.0559 -0.0848  0.4541
  666SOL    HW2 1998   0.464   2.262   0.565 -0.2297 -0.6566  3.0189
  667SOL     OW 1999   1.996   0.225   1.021  0.8279  1.3176 -0.3571
  667SOL    HW1 2000   2.044   0.313   1.052  0.3328 -1.1261  0.8178
  667SOL    HW2 2001   1.934   0.176   1.094 -0.1110 -2.2179 -1.1781
  668SOL     OW 2002   1.993   0.550   1.176  0.2169 -0.2154 -0.2066
  668SOL    HW1 2003   2.066   0.546   1.104  0.2014 -1.2070  3.1517
  668SOL    HW2 2004   2.021   0.507   1.268  0.8293 -1.3365  2.0075
  669SOL     OW 2005   3.001   2.121   0.902 -0.1623 -0.5033  0.2024
  669SOL    HW1 2006   2.912   2.141   0.861 -0.3068 -2.2992 -0.3718
  669SOL    HW2 2007   3.020   2.199   0.965  0.6551 -2.2167  1.9298
  670SOL     OW 2008   2.837   2.367   2.017 -0.5854 -0.2325  0.1150
  670SOL    HW1 2009   2.763   2.352   2.086 -2.2575 -1.7070 -0.2770
  670SOL    HW2 2010   2.823   2.457   1.963  2.2897 -1.0290  1.4256
  671SOL     OW 2011   1.748   1.694   1.457 -0.4411 -0.8185 -0.3730
  671SOL    HW1 2012   1.745   1.742   1.365  0.7330 -1.9614  1.7838
  671SOL    HW2 2013   1.668   1.631   1.469  0.7970 -2.3290  3.5589
  672SOL     OW 2014   0.443   0.623   2.447 -0.5630  0.1619 -0.2243
  672SOL    HW1 2015   0.455   0.649   2.344  1.6662  0.6342 -2.1301
  672SOL    HW2 2016   0.365   0.676   2.494  0.3139 -1.3391 -0.4901
  673SOL     OW 2017   0.158   1.202   1.165  0.5099  0.2938 -0.0395
  673SOL    HW1 2018   0.193   1.280   1.227 -1.9102 -0.2232 -1.0335
  673SOL    HW2 2019   0.237   1.147   1.127 -0.3029 -0.2100  4.3210
  674SOL     OW 2020   1.534   2.893   0.151 -0.2338 -0.4323 -0.1594
  674SOL    HW1 2021   1.596   2.974   0.132 -0.4787  1.7272  0.6031
  674SOL    HW2 2022   1.560   2.800   0.120 -0.5748  1.1667  1.8638
  675SOL     OW 2023   1.676   0.841   2.332  0.5114 -0.4165  0.5839
  675SOL    HW1 2024   1.765   0.811   2.282  3.7766 -0.9150  1.1953
  675SOL    HW2 2025   1.587   0.817   2.279 -3.6795 -0.2723 -0.1724
  676SOL     OW 2026   2.501   1.535   1.990  0.0556  0.0728 -0.1186
  676SOL    HW1 2027   2.464   1.483   1.913 -0.3865 -0.0704  0.4120
  676SOL    HW2 2028   2.539   1.478   2.071  1.5528 -1.3124  0.1244
  677SOL     OW 2029   1.809   0.601   0.972 -0.6099 -0.2114 -0.8030
  677SOL    HW1 2030   1.885   0.588   1.040  0.1784 -1.0673  0.5857
  677SOL    HW2 2031   1.737   0.529   0.981 -1.4712  1.2164  2.9406
  678SOL     OW 2032   0.057   0.741   1.660  0.1658 -0.3589 -0.4118
  678SOL    HW1 2033   0.149   0.745   1.707  1.6679  0.6196  0.6441
  678SOL    HW2 2034  -0.023   0.771   1.718  0.2466 -1.4480 -0.2589
  679SOL     OW 2035   2.503   1.179   1.067  0.1120  0.0885 -0.5863
  679SOL    HW1 2036   2.449   1.212   1.146 -1.8586  0.8846 -2.0265
  679SOL    HW2 2037   2.501   1.077   1.057 -1.1690  1.3990 -1.3868
  680SOL     OW 2038   2.832   0.646   1.656  0.4513 -0.2950  0.4031
  680SOL    HW1 2039   2.788   0.694   1.573 -0.6422 -1.0139 -0.4493
  680SOL    HW2 2040   2.869   0.712   1.729  1.2797 -0.4629  2.6883
  681SOL     OW 2041   3.003   0.155   1.605  0.5096  0.3990 -0.0946
  681SOL    HW1 2042   3.081   0.142   1.538  0.2509  0.3045  1.7441
  681SOL    HW2 2043   2.956   0.245   1.592 -0.2989  0.2694 -1.1799
  682SOL     OW 2044   0.785   0.035   1.402 -0.4652  0.2751  0.5482
  682SOL    HW1 2045   0.708  -0.036   1.414  1.7723 -2.1290 -1.2042
  682SOL    HW2 2046   0.818   0.041   1.302 -0.0323  0.1577 -1.2085
  683SOL     OW 2047   1.388   0.255   2.177 -0.1117 -0.5332 -0.2964
  683SOL    HW1 2048   1.378   0.307   2.267 -0.0794  1.1548 -0.1376
  683SOL    HW2 2049   1.462   0.303   2.124 -0.6666  0.4335  2.7191
  684SOL     OW 2050   1.444   2.121   0.499 -0.2121  0.2547 -0.1119
  684SOL    HW1 2051   1.509   2.050   0.543 -1.1377 -0.2727 -1.4656
  684SOL    HW2 2052   1.366   2.078   0.443  0.7767  0.4058 -1.2976
  685SOL     OW 2053   2.193   1.954   1.923 -0.3773 -0.9193 -0.5136
  685SOL    HW1 2054   2.220   2.050   1.891  0.1781 -0.7173  2.1739
  685SOL    HW2 2055   2.283   1.907   1.962  2.1991 -0.4331  2.6856
  686SOL     OW 2056   1.544   1.742   2.687  0.6634  0.1014  0.6017
  686SOL    HW1 2057   1.517   1.640   2.684 -2.2687 -1.0495 -0.5750
  686SOL    HW2 2058   1.641   1.756   2.720 -0.5087  2.4791 -0.6554
  687SOL     OW 2059   1.329   2.528   1.896  0.7218  0.1390 -0.1217
  687SOL    HW1 2060   1.391   2.473   1.830 -0.2675  0.3770  0.1307
  687SOL    HW2 2061   1.337   2.507   1.997 -4.0599 -0.5591  2.1825
  688SOL     OW 2062   2.075   1.436   1.623  0.1983 -1.0001 -0.2294
  688SOL    HW1 2063   2.158   1.494   1.593 -0.3476 -1.1948 -0.7327
  688SOL    HW2 2064   2.042   1.371   1.550 -0.7324 -2.2070 -0.0432
  689SOL     OW 2065   2.477   1.109   2.760  0.0402 -0.1156  0.2934
  689SOL    HW1 2066   2.368   1.110   2.759 -2.2553 -1.4735 -2.8828
  689SOL    HW2 2067   2.521   1.073   2.847  0.9619 -0.0966 -0.7243
  690SOL     OW 2068   2.202   2.806   0.011  0.5245  0.3990 -1.1258
  690SOL    HW1 2069   2.135   2.771  -0.060  1.5462  1.4629 -1.0795
  690SOL    HW2 2070   2.167   2.818   0.111 -3.5614  2.1961 -3.5251
  691SOL     OW 2071   2.601   0.440   2.125 -0.4841  0.8415  0.3482
  691SOL    HW1 2072   2.638   0.378   2.052  2.9696  1.3123  1.4345
  691SOL    HW2 2073   2.578   0.537   2.091 -4.0722  1.2001 -1.3781
  692SOL     OW 2074   2.798   1.217   0.714 -0.0968  0.2430  0.1444
  692SOL    HW1 2075   2.692   1.210   0.712 -0.4922  0.9700 -1.0058
  692SOL    HW2 2076   2.836   1.306   0.752 -0.9628  2.6384 -0.9777
  693SOL     OW 2077   2.874   3.001   0.621  0.3110 -0.3242 -0.4556
  693SOL    HW1 2078   2.850   3.062   0.700  0.9179  1.7417  1.6952
  693SOL    HW2 2079   2.804   2.987   0.546 -1.4484  2.8992 -0.4634
  694SOL     OW 2080   2.416   2.219   0.058  0.2709 -0.4289  0.2037
  694SOL    HW1 2081   2.395   2.298   0.113 -0.3853  0.7755  0.0804
  694SOL    HW2 2082   2.341   2.150   0.041 -0.8829  1.8505 -1.2021
  695SOL     OW 2083   0.544   3.011   1.469 -0.4548  0.3652 -0.4008
  695SOL    HW1 2084   0.542   2.910   1.437  1.4115 -0.4230 -0.6250
  695SOL    HW2 2085   0.488   3.033   1.557 -1.0153 -1.8028 -0.3522
  696SOL     OW 2086   2.687   1.902   0.712  0.0519 -0.5791  0.4356
  696SOL    HW1 2087   2.717   1.820   0.764 -2.7236 -0.2225 -2.0689
  696SOL    HW2 2088   2.648   1.884   0.616  0.4655  2.8045  1.1835
  697SOL     OW 2089   1.755   2.094   1.765 -0.0059 -0.0588 -0.5040
  697SOL    HW1 2090   1.826   2.017   1.763 -1.9817 -1.8913 -2.2527
  697SOL    HW2 2091   1.800   2.189   1.757  0.4833  2.9953 -0.2377
  698SOL     OW 2092   2.882   0.410   2.744  0.6897 -0.1330 -0.1826
  698SOL    HW1 2093   2.885   0.428   2.637 -1.5734 -1.2453 -0.7672
  698SOL    HW2 2094   2.905   0.312   2.767  0.9893 -1.8664 -0.8031
  699SOL     OW 2095   1.559   0.082   2.945  0.2992 -0.2642 -0.4737
  699SOL    HW1 2096   1.540  -0.009   2.896 -0.7043 -0.0849  0.1644
  699SOL    HW2 2097   1.604   0.145   2.874  1.1870  0.9009  2.9361
  700SOL     OW 2098   0.999   2.352   1.324  0.3889  0.0485  0.4606
  700SOL    HW1 2099   1.093   2.309   1.294  1.9881  0.2065 -0.8959
  700SOL    HW2 2100   0.923   2.318   1.261  2.0152  2.7568  0.3501
  701SOL     OW 2101   1.890   2.806   0.031 -0.1969 -0.1276  0.6062
  701SOL    HW1 2102   1.899   2.758   0.124 -0.5830  1.7606  0.6187
  701SOL    HW2 2103   1.910   2.907   0.045  1.2375  1.8430 -1.4797
  702SOL     OW 2104   2.108   1.350   1.932 -0.3133  0.4176 -0.0171
  702SOL    HW1 2105   2.178   1.271   1.912  3.0741 -0.4460  0.1377
  702SOL    HW2 2106   2.079   1.401   1.850  0.3322 -1.4263 -0.0067
  703SOL     OW 2107   1.937   0.827   1.419  0.3779 -0.0836  0.4021
  703SOL    HW1 2108   1.942   0.730   1.453  0.8871  1.7508  0.9108
  703SOL    HW2 2109   1.971   0.895   1.487  0.9155  1.0903  1.4104
  704SOL     OW 2110   0.325   2.039   1.684  0.5368 -0.0210  0.6601
  704SOL    HW1 2111   0.368   1.990   1.765 -3.4862 -0.7001  0.7266
  704SOL    HW2 2112   0.359   2.131   1.661  1.8896  0.5781 -0.1690
  705SOL     OW 2113   2.553   1.406   0.901  0.2683  0.3449 -0.3235
  705SOL    HW1 2114   2.464   1.398   0.844 -3.3546 -0.3587  0.1015
  705SOL    HW2 2115   2.567   1.327   0.969  0.9582  0.1508 -1.9212
  706SOL     OW 2116   0.649   1.765   1.859 -0.0379  0.0373 -0.0091
  706SOL    HW1 2117   0.662   1.666   1.886  1.4989 -2.2884  2.7455
  706SOL    HW2 2118   0.720   1.819   1.914 -0.6002  0.2035  0.3765
  707SOL     OW 2119   2.261   1.147   1.828 -0.3576  0.8764 -0.2836
  707SOL    HW1 2120   2.343   1.140   1.893 -1.0708 -0.7927 -2.1446
  707SOL    HW2 2121   2.223   1.054   1.800  0.9168 -2.5258 -1.1940
  708SOL     OW 2122   3.050   0.471   3.019  0.0062  0.5889 -1.0512
  708SOL    HW1 2123   3.016   0.534   2.941  0.1151  0.0790  0.1751
  708SOL    HW2 2124   3.059   0.376   2.977  0.4854  0.1603  0.9156
  709SOL     OW 2125   1.825   1.808   0.298  0.2122 -0.2166  0.4111
  709SOL    HW1 2126   1.874   1.893   0.335 -2.3425  0.5126 -0.5129
  709SOL    HW2 2127   1.834   1.794   0.198 -1.7988 -1.0011 -2.3807
  710SOL     OW 2128   1.704   1.573   2.436  0.1854  0.3024 -0.1682
  710SOL    HW1 2129   1.783   1.571   2.360  4.1493  1.5619 -0.7725
  710SOL    HW2 2130   1.736   1.534   2.528  0.8968 -0.8535  2.4094
  711SOL     OW 2131   2.640   2.916   0.954 -0.1548  0.0711 -0.2791
  711SOL    HW1 2132   2.635   2.976   0.869  4.8362  3.9690  1.1851
  711SOL    HW2 2133   2.736   2.919   0.996  0.7329  1.4810  5.8690
  712SOL     OW 2134   1.494   2.327   1.761  0.1668  0.2882 -0.4469
  712SOL    HW1 2135   1.579   2.276   1.783 -0.6003  0.6062  0.9194
  712SOL    HW2 2136   1.432   2.282   1.688 -1.2012  1.5784  0.3433
  713SOL     OW 2137   2.799   1.479   2.468  0.1505 -0.8817 -0.2894
  713SOL    HW1 2138   2.809   1.378   2.443  2.4281 -0.3490  0.6522
  713SOL    HW2 2139   2.710   1.495   2.515  0.5049  1.7794 -3.0832
  714SOL     OW 2140   2.617   0.478   2.422 -0.7471  0.0693  0.2232
  714SOL    HW1 2141   2.527   0.486   2.476 -0.5513  1.7298  1.8201
  714SOL    HW2 2142   2.603   0.458   2.318  0.0984 -1.0433 -0.3934
  715SOL     OW 2143   1.567   2.082   1.127 -0.1712  0.1008  0.0375
  715SOL    HW1 2144   1.504   2.165   1.124  0.5177  2.2006  3.5706
  715SOL    HW2 2145   1.619   2.063   1.222  2.7487 -1.0172  1.0059
  716SOL     OW 2146   1.209   0.228   1.517 -0.1103  0.2019 -0.0001
  716SOL    HW1 2147   1.111   0.235   1.479  0.3898 -1.8851 -0.1509
  716SOL    HW2 2148   1.272   0.304   1.482  1.2301 -0.9850 -3.5307
  717SOL     OW 2149   1.081   0.575   1.624  0.1199 -0.0571  0.0139
  717SOL    HW1 2150   1.180   0.594   1.646 -1.1139 -0.4528 -1.9044
  717SOL    HW2 2151   1.074   0.574   1.521  1.0221  0.5346  1.0889
  718SOL     OW 2152   0.688   1.010   1.009 -0.7172  0.4317  0.0335
  718SOL    HW1 2153   0.655   0.996   0.911 -0.0796  2.1985 -0.2036
  718SOL    HW2 2154   0.738   1.101   1.015 -0.4920 -1.9203 -1.3436
  719SOL     OW 2155   0.785   1.852   2.272  0.3068  0.8316 -0.1869
  719SOL    HW1 2156   0.827   1.878   2.362  0.6778 -2.0126 -0.3889
  719SOL    HW2 2157   0.687   1.834   2.291 -1.6505  0.6318  3.8855
  720SOL     OW 2158   2.204   1.100   0.266  0.1009 -0.4678 -0.1869
  720SOL    HW1 2159   2.267   1.029   0.234 -0.9895 -1.2762  2.2850
  720SOL    HW2 2160   2.192   1.097   0.368 -2.2900 -0.8705 -1.0876
  721SOL     OW 2161   2.330   0.012   2.060  0.0826  0.2552 -0.3374
  721SOL    HW1 2162   2.305   0.091   2.000 -1.1152 -1.3769 -0.8756
  721SOL    HW2 2163   2.272   0.002   2.147 -2.3708 -1.6205 -0.7393
  722SOL     OW 2164   2.391   1.634   0.590  0.1091  0.3557 -0.4714
  722SOL    HW1 2165   2.371   1.555   0.525  1.5988  0.5334 -0.0205
  722SOL    HW2 2166   2.311   1.673   0.640 -0.1822 -0.4324 -0.5094
  723SOL     OW 2167   2.562   2.795   1.963 -0.5459  0.6768  0.1876
  723SOL    HW1 2168   2.612   2.827   2.053  0.1970  0.4636  2.9263
  723SOL    HW2 2169   2.462   2.784   1.975 -0.9082 -0.0253 -2.4470
  724SOL     OW 2170   0.495   2.462   2.436 -0.3536  0.1917 -0.1514
  724SOL    HW1 2171   0.394   2.458   2.445  1.9248  0.2149 -2.6133
  724SOL    HW2 2172   0.546   2.484   2.523 -0.5644 -2.3145 -2.5394
  725SOL     OW 2173   2.456   2.739   1.482 -0.8167  0.1569 -0.9638
  725SOL    HW1 2174   2.495   2.767   1.392 -3.0167  0.3018 -0.5415
  725SOL    HW2 2175   2.452   2.637   1.512 -1.9488  0.6779  0.0383
  726SOL     OW 2176   2.379   2.230   0.692  0.8752  0.1292  0.6131
  726SOL    HW1 2177   2.340   2.329   0.673 -2.8698  1.7881 -1.0571
  726SOL    HW2 2178   2.388   2.179   0.604 -2.7929 -2.2698  1.7545
  727SOL     OW 2179   0.236   3.086   0.106 -0.3334  0.3284  0.4610
  727SOL    HW1 2180   0.269   2.989   0.094 -1.0397 -0.5873 -0.9888
  727SOL    HW2 2181   0.238   3.143   0.017  2.8375  0.4176 -0.1655
  728SOL     OW 2182   2.812   0.685   1.005 -0.5909 -0.0882 -0.1245
  728SOL    HW1 2183   2.755   0.639   0.932 -1.3257  0.7060  0.0420
  728SOL    HW2 2184   2.802   0.622   1.096 -1.9478 -0.1441  0.0870
  729SOL     OW 2185   2.907   2.446   0.688  0.4422  0.3669  0.0548
  729SOL    HW1 2186   2.871   2.363   0.641  0.8739 -2.0192  1.1154
  729SOL    HW2 2187   3.011   2.450   0.683 -1.1142 -2.0528 -1.6947
  730SOL     OW 2188   2.572   0.571   0.778  0.3769 -0.3790 -0.4357
  730SOL    HW1 2189   2.529   0.668   0.763  0.6058  2.2365 -2.5373
  730SOL    HW2 2190   2.670   0.556   0.734  1.0112 -0.4423 -0.5068
  731SOL     OW 2191   0.009   2.133   2.446 -0.1423 -0.3294  0.3345
  731SOL    HW1 2192   0.035   2.166   2.545  2.7770 -2.3207  2.2428
  731SOL    HW2 2193  -0.041   2.212   2.388 -2.3933  0.8118  0.0020
  732SOL     OW 2194   1.099   2.864   1.989  0.4320 -0.2447 -0.2695
  732SOL    HW1 2195   1.136   2.819   2.080  2.9190 -2.6668 -0.8689
  732SOL    HW2 2196   1.122   2.813   1.904  0.7869  2.0661  0.1629
  733SOL     OW 2197   0.026   0.735   2.072  0.1997  0.9414  0.2230
  733SOL    HW1 2198   0.131   0.752   2.070 -1.2330 -2.5848  1.2629
  733SOL    HW2 2199   0.004   0.636   2.044 -0.0359 -0.7877 -2.3283
  734SOL     OW 2200   1.433   0.344   2.754 -0.2698 -0.4901 -0.3054
  734SOL    HW1 2201   1.425   0.441   2.788 -0.1098  1.8037  0.4472
  734SOL    HW2 2202   1.351   0.286   2.782  1.2575 -1.1689 -1.4180
  735SOL     OW 2203   2.875   2.627   2.248  0.1993 -0.1336 -0.1575
  735SOL    HW1 2204   2.839   2.656   2.153 -1.7417  1.5510  0.1381
  735SOL    HW2 2205   2.962   2.574   2.246 -2.3301 -0.8808 -1.6217
  736SOL     OW 2206   0.755   0.421   2.643  0.3814 -0.7328  0.6758
  736SOL    HW1 2207   0.712   0.517   2.656 -1.9730 -3.1239  1.8875
  736SOL    HW2 2208   0.739   0.383   2.541 -0.0556 -0.8154 -4.0459
  737SOL     OW 2209   2.661   0.480   2.871 -0.1824  0.6118 -0.2041
  737SOL    HW1 2210   2.646   0.426   2.957  0.4613  0.5985 -1.3139
  737SOL    HW2 2211   2.753   0.454   2.832 -3.4570 -0.5460 -0.7078
  738SOL     OW 2212   1.594   1.223   2.954 -0.1059  0.0106  0.2317
  738SOL    HW1 2213   1.698   1.199   2.962  1.9427 -1.0385 -0.4568
  738SOL    HW2 2214   1.557   1.174   2.866 -0.2408 -0.7844 -1.8988
  739SOL     OW 2215   1.775   0.662   0.708  0.9889  0.5065  0.8664
  739SOL    HW1 2216   1.801   0.651   0.809  1.3541 -1.2517  1.9801
  739SOL    HW2 2217   1.815   0.585   0.648  1.4960  0.4513  1.3468
  740SOL     OW 2218   1.946   1.896   2.245  0.0592  0.1780 -0.9646
  740SOL    HW1 2219   2.017   1.824   2.257  0.4227  0.3750 -0.7853
  740SOL    HW2 2220   1.868   1.863   2.181 -0.1217 -0.8988  1.9237
  741SOL     OW 2221   2.493   0.039   2.615 -0.3967 -0.0523  0.2576
  741SOL    HW1 2222   2.598   0.035   2.612  1.5692 -1.6479  0.1273
  741SOL    HW2 2223   2.448   0.020   2.522  0.5437 -1.8967  0.4825
  742SOL     OW 2224   2.254   1.368   0.136 -0.1524 -0.1176 -0.4406
  742SOL    HW1 2225   2.158   1.396   0.169  0.6073  0.7359  1.8653
  742SOL    HW2 2226   2.306   1.303   0.202  1.0221  0.7183  0.0418
  743SOL     OW 2227   1.775   0.589   2.583 -0.5257  0.0247  0.3530
  743SOL    HW1 2228   1.749   0.529   2.500  0.7938 -1.3920  1.5007
  743SOL    HW2 2229   1.718   0.676   2.589 -2.1396 -0.0212  1.8021
  744SOL     OW 2230   2.654   2.119   0.050 -0.5896  0.1844 -0.5985
  744SOL    HW1 2231   2.560   2.163   0.054 -1.4817 -0.3490  0.0623
  744SOL    HW2 2232   2.662   2.018   0.076  1.1466 -3.1754  2.0426
  745SOL     OW 2233   2.139   2.676   2.229  0.1569  0.1202 -0.1506
  745SOL    HW1 2234   2.049   2.647   2.186 -0.8839  0.7872  0.2243
  745SOL    HW2 2235   2.121   2.734   2.309 -1.9629 -2.0830 -0.1630
  746SOL     OW 2236   3.080   2.554   1.826 -0.4538 -0.2767  0.1267
  746SOL    HW1 2237   3.168   2.578   1.778 -0.6134  0.1897  0.0793
  746SOL    HW2 2238   3.030   2.639   1.853  0.1852  1.1135 -1.3602
  747SOL     OW 2239   0.005   1.780   1.649  0.0482  0.5630  0.5452
  747SOL    HW1 2240  -0.031   1.681   1.625 -0.2756 -0.6010  2.5680
  747SOL    HW2 2241   0.055   1.820   1.569 -1.5275 -1.1710 -1.6306
  748SOL     OW 2242   1.809   2.731   2.890 -0.4334 -0.8219  0.1182
  748SOL    HW1 2243   1.830   2.768   2.986 -0.5246 -1.4783  0.3687
  748SOL    HW2 2244   1.711   2.729   2.854  1.6858 -1.4380 -2.2459
  749SOL     OW 2245   1.326   3.100   0.860 -0.0873  0.3696 -0.2488
  749SOL    HW1 2246   1.250   3.035   0.877  1.3046 -0.3873  1.0505
  749SOL    HW2 2247   1.331   3.142   0.768 -0.1698  0.4935 -1.4387
  750SOL     OW 2248   2.304   0.246   1.879 -0.0946  0.2733  0.2489
  750SOL    HW1 2249   2.375   0.286   1.807  0.9252  1.8947 -3.5738
  750SOL    HW2 2250   2.298   0.300   1.967  0.7871 -2.6595  0.5209
  751SOL     OW 2251   0.829   2.205   2.793 -0.5406 -0.2810 -0.2125
  751SOL    HW1 2252   0.896   2.208   2.873 -1.4074  0.6067  2.3791
  751SOL    HW2 2253   0.751   2.144   2.818 -0.8935  1.5418 -1.0344
  752SOL     OW 2254   1.228   0.882   1.529  0.3411  0.2579  0.1678
  752SOL    HW1 2255   1.314   0.925   1.482  0.1614  1.0123  0.2949
  752SOL    HW2 2256   1.239   0.784   1.559 -1.4873  1.0771  1.7933
  753SOL     OW 2257   0.929   2.592   1.708 -0.3595 -0.2535  0.1889
  753SOL    HW1 2258   1.013   2.654   1.720  1.7515  3.1710  0.4670
  753SOL    HW2 2259   0.845   2.649   1.675 -1.4297 -0.3022  0.3430
  754SOL     OW 2260   1.208   1.287   3.030 -0.5844 -1.1043  0.0961
  754SOL    HW1 2261   1.242   1.213   2.964  2.5361  3.1451  0.7628
  754SOL    HW2 2262   1.193   1.379   2.982  0.9943  0.0407 -1.5845
  755SOL     OW 2263   1.934   0.457   2.225  0.4614  0.0127 -0.0172
  755SOL    HW1 2264   2.028   0.438   2.267  2.3970  0.4411  0.4292
  755SOL    HW2 2265   1.850   0.443   2.289 -0.6918 -0.4083 -0.0089
  756SOL     OW 2266   2.609   0.992   2.968  0.5142  0.1413 -0.1020
  756SOL    HW1 2267   2.712   0.969   2.981 -3.2919  1.7634  2.2102
  756SOL    HW2 2268   2.550   0.919   3.012 -2.2767  2.4095  0.9496
  757SOL     OW 2269   0.050   0.467   1.789  0.5678  0.5809  0.0902
  757SOL    HW1 2270  -0.006   0.540   1.737  0.6118  0.6117 -1.0666
  757SOL    HW2 2271   0.115   0.414   1.731  1.5518  1.6224  0.5444
  758SOL     OW 2272   2.394   0.009   1.475  0.8017 -0.1575  0.3486
  758SOL    HW1 2273   2.333  -0.064   1.513  1.5530 -1.5899 -1.0561
  758SOL    HW2 2274   2.377   0.028   1.374 -1.6638 -0.6493 -2.6313
  759SOL     OW 2275   1.679   0.011   0.077  0.3647 -0.5116  0.1822
  759SOL    HW1 2276   1.634   0.020  -0.015  1.4169 -1.3909  1.4624
  759SOL    HW2 2277   1.786   0.007   0.076 -0.8688  1.4435  2.0495
  760SOL     OW 2278   2.728   2.039   2.753  0.3035 -0.1745 -0.2526
  760SOL    HW1 2279   2.812   1.980   2.758  2.6001  0.4881 -1.9419
  760SOL    HW2 2280   2.717   2.096   2.840 -2.1182  2.2142 -2.6743
  761SOL     OW 2281   1.971   1.680   1.624  0.2854  0.2315 -0.0414
  761SOL    HW1 2282   2.020   1.588   1.631 -0.4405  2.7769  0.6156
  761SOL    HW2 2283   1.889   1.676   1.557  0.4756 -1.2443  1.3714
  762SOL     OW 2284   0.500   2.411   0.962  0.0981  0.0643 -0.4462
  762SOL    HW1 2285   0.568   2.421   0.886  0.5417 -1.5980 -0.1341
  762SOL    HW2 2286   0.501   2.485   1.028 -2.3896 -3.8332 -0.4430
  763SOL     OW 2287   2.114   1.519   2.985 -0.2936 -0.1010 -0.0682
  763SOL    HW1 2288   2.182   1.455   3.029  1.3972 -1.5805  1.3757
  763SOL    HW2 2289   2.014   1.509   3.019 -2.1577 -0.1372  1.8208
  764SOL     OW 2290   0.701   0.545   0.900  0.1482 -0.4794  0.1782
  764SOL    HW1 2291   0.679   0.459   0.847  0.3486 -0.5139 -0.3329
  764SOL    HW2 2292   0.799   0.538   0.928  0.5203  0.0757  0.0452
  765SOL     OW 2293   0.648   0.242   0.815  0.0443 -0.3189  0.4007
  765SOL    HW1 2294   0.738   0.247   0.767  0.5538 -0.8587  1.1019
  765SOL    HW2 2295   0.655   0.243   0.915  1.5114 -1.9391 -0.1662
  766SOL     OW 2296   2.955   2.100   0.017 -0.2198 -0.2772  0.4947
  766SOL    HW1 2297   2.870   2.128   0.067  1.5614 -0.9046  0.1293
  766SOL    HW2 2298   3.026   2.172   0.014 -0.1690  0.5408 -1.5827
  767SOL     OW 2299   2.889   1.546   0.517  0.3551 -0.0442 -0.2736
  767SOL    HW1 2300   2.816   1.522   0.587  0.6763 -0.6666  2.8620
  767SOL    HW2 2301   2.948   1.623   0.549 -1.4849 -0.5046 -2.5670
  768SOL     OW 2302   1.104   0.243   0.319  0.1722  0.1174 -0.1085
  768SOL    HW1 2303   1.031   0.173   0.334 -0.0936  2.5677  0.0361
  768SOL    HW2 2304   1.202   0.198   0.312  1.3476  0.2439  2.1773
  769SOL     OW 2305   1.177   1.823   2.240 -0.0887 -0.6292  0.6221
  769SOL    HW1 2306   1.095   1.850   2.298  2.5484  0.4961 -0.9208
  769SOL    HW2 2307   1.192   1.728   2.248  2.7754  1.6359 -0.5830
  770SOL     OW 2308   0.172   1.257   2.386  0.4930 -0.3876  0.9002
  770SOL    HW1 2309   0.179   1.258   2.492  1.5221 -0.7059  2.8583
  770SOL    HW2 2310   0.106   1.184   2.349  0.9396  0.6669 -0.6764
  771SOL     OW 2311   2.963   2.807   1.889  0.1830 -0.1402 -0.0160
  771SOL    HW1 2312   2.957   2.870   1.810 -1.5925  1.4641  3.6316
  771SOL    HW2 2313   2.970   2.862   1.979  1.5557  0.0549  4.6938
  772SOL     OW 2314   2.142   0.105   2.952 -0.4659 -0.4955  0.0693
  772SOL    HW1 2315   2.213   0.035   2.946 -1.8812  2.6421  2.9628
  772SOL    HW2 2316   2.165   0.196   2.997  1.6398 -0.2131 -2.3026
  773SOL     OW 2317   0.691   2.064   2.480 -0.6067 -0.0732  0.0798
  773SOL    HW1 2318   0.676   2.128   2.399 -0.2647 -0.3490 -1.5292
  773SOL    HW2 2319   0.616   2.076   2.550  1.1712  1.5854  0.5094
  774SOL     OW 2320   2.031   0.010   2.636 -0.3797 -0.6033 -0.7161
  774SOL    HW1 2321   2.044   0.106   2.674  0.7197 -3.4775  0.2286
  774SOL    HW2 2322   2.078  -0.058   2.706  0.6058 -1.1266  1.7664
  775SOL     OW 2323   2.518   2.841   2.427 -0.5098 -0.1224 -0.5426
  775SOL    HW1 2324   2.522   2.937   2.388  1.8739  2.7118  1.1253
  775SOL    HW2 2325   2.611   2.809   2.461  0.5890 -0.8969 -2.1937
  776SOL     OW 2326   3.105   1.288   0.238 -0.0564 -0.3815 -0.2886
  776SOL    HW1 2327   3.075   1.234   0.153 -1.8251  0.2078 -2.1438
  776SOL    HW2 2328   3.033   1.304   0.315  0.5350  0.9874 -3.0026
  777SOL     OW 2329   0.214   2.703   0.482 -0.0800 -0.2609 -0.1565
  777SOL    HW1 2330   0.113   2.713   0.451 -2.0437 -1.4785 -0.4585
  777SOL    HW2 2331   0.261   2.792   0.501 -0.7350  0.6777 -0.4680
  778SOL     OW 2332   1.333   1.964   0.174 -0.3349 -0.2578 -0.4886
  778SOL    HW1 2333   1.290   1.954   0.267  0.6031  0.6195 -0.6218
  778SOL    HW2 2334   1.304   2.053   0.131 -0.4738  0.0682 -0.2588
  779SOL     OW 2335   0.184   0.773   0.517 -0.2543  0.3121 -0.1731
  779SOL    HW1 2336   0.135   0.686   0.481  0.4429 -1.0045 -1.7256
  779SOL    HW2 2337   0.122   0.837   0.572 -0.0475 -2.7821  0.2255
  780SOL     OW 2338   3.093   0.307   2.351 -0.2682  1.1758  0.6819
  780SOL    HW1 2339   3.075   0.411   2.358  2.1514  0.2968 -1.3740
  780SOL    HW2 2340   3.188   0.288   2.318 -1.0786  1.7393 -0.0033
  781SOL     OW 2341   0.589   1.742   1.566 -0.2136  0.0282  0.0960
  781SOL    HW1 2342   0.615   1.786   1.660  1.8659 -1.2799  2.6166
  781SOL    HW2 2343   0.537   1.651   1.573  0.1807  1.4150  2.6117
  782SOL     OW 2344   2.585   0.150   0.934 -0.3449  0.1139 -0.0764
  782SOL    HW1 2345   2.536   0.186   0.851 -0.8727 -1.3445 -1.8949
  782SOL    HW2 2346   2.533   0.175   1.022  0.8609  1.2299  1.3091
  783SOL     OW 2347   2.845   0.672   2.512  0.4470  0.3783  0.1301
  783SOL    HW1 2348   2.802   0.707   2.603 -0.0371 -1.9733 -0.2391
  783SOL    HW2 2349   2.783   0.601   2.460 -0.1699  0.6127  0.9661
  784SOL     OW 2350   1.318   2.221   0.047  0.1674  0.0870  0.1024
  784SOL    HW1 2351   1.408   2.249   0.100  3.7619  0.8742  0.5711
  784SOL    HW2 2352   1.334   2.194  -0.049  1.3418  2.5312 -1.0593
  785SOL     OW 2353   2.188   0.352   3.093 -0.3795  0.1066  0.5824
  785SOL    HW1 2354   2.107   0.375   3.148  1.8421 -0.0292 -1.9554
  785SOL    HW2 2355   2.225   0.439   3.048 -0.8744 -2.8926 -0.2161
  786SOL     OW 2356   2.033   2.141   2.228  0.1547  0.0038 -0.0874
  786SOL    HW1 2357   1.980   2.047   2.225  1.5833 -1.4782 -1.0110
  786SOL    HW2 2358   2.134   2.131   2.261  0.4112 -3.1792  3.9669
  787SOL     OW 2359   1.392   0.608   0.841 -0.3078  0.5741 -0.4460
  787SOL    HW1 2360   1.328   0.688   0.858  1.2633  2.0163  0.1915
  787SOL    HW2 2361   1.433   0.612   0.748 -1.5523 -1.3401  0.3111
  788SOL     OW 2362   1.226   0.391   3.029  0.2433  0.3681  0.4250
  788SOL    HW1 2363   1.130   0.425   3.005 -2.7472 -1.2660 -3.1017
  788SOL    HW2 2364   1.301   0.457   2.995 -1.8317  1.0846 -0.3077
  789SOL     OW 2365   2.611   0.106   1.826  0.4609 -0.3824  0.2739
  789SOL    HW1 2366   2.532   0.163   1.839  2.0140 -1.2775  0.1710
  789SOL    HW2 2367   2.588   0.006   1.801  0.7648  3.7106 -0.5706
  790SOL     OW 2368   2.587   2.649   0.861  0.2130 -0.3472 -0.1988
  790SOL    HW1 2369   2.674   2.655   0.805 -1.7431  1.2354  1.3974
  790SOL    HW2 2370   2.581   2.727   0.936  0.8146 -0.7639 -2.3872
  791SOL     OW 2371   1.966   1.268   0.231 -0.8014  0.3237  0.1615
  791SOL    HW1 2372   1.867   1.232   0.224  0.0614  0.6312 -0.0675
  791SOL    HW2 2373   2.039   1.193   0.255  2.7789  0.5164  1.3054
  792SOL     OW 2374   0.418   1.979   2.186  0.0117 -0.0326  0.6267
  792SOL    HW1 2375   0.454   2.035   2.262 -0.8011 -0.9322  1.0697
  792SOL    HW2 2376   0.328   1.936   2.211 -0.1887  0.8443  0.9427
  793SOL     OW 2377   2.131   1.548   2.131  0.1982 -0.0064 -0.1455
  793SOL    HW1 2378   2.187   1.622   2.107  0.0053 -3.0085  2.2769
  793SOL    HW2 2379   2.134   1.470   2.062  1.2791  0.6945  2.4190
  794SOL     OW 2380   0.418   1.394   2.461 -0.0956  0.6405  0.0827
  794SOL    HW1 2381   0.430   1.329   2.383  0.0261  1.7227  2.5691
  794SOL    HW2 2382   0.375   1.486   2.435  1.9592 -1.7949  0.3352
  795SOL     OW 2383   2.527   2.316   1.800  0.3854  0.1066  0.1042
  795SOL    HW1 2384   2.562   2.329   1.898 -0.2279  1.6623  0.1192
  795SOL    HW2 2385   2.434   2.272   1.795 -0.9227 -3.4272 -1.3474
  796SOL     OW 2386   3.072   1.049   2.700 -0.0625  0.2518  0.0657
  796SOL    HW1 2387   3.002   1.073   2.771 -4.0078 -3.1312 -2.1614
  796SOL    HW2 2388   3.166   1.069   2.736  0.1110 -0.6366 -2.3874
  797SOL     OW 2389   0.752   0.665   1.346 -1.1777  0.0682  0.6150
  797SOL    HW1 2390   0.801   0.733   1.409  0.0350  2.5630  0.0352
  797SOL    HW2 2391   0.715   0.714   1.261  0.7130  1.2197  0.4086
  798SOL     OW 2392   1.213   0.448   1.015 -0.6065  0.0709 -0.4389
  798SOL    HW1 2393   1.224   0.518   1.083 -3.2104 -1.0242 -1.4176
  798SOL    HW2 2394   1.282   0.460   0.939  0.6196 -0.9599 -0.5216
  799SOL     OW 2395   1.834   2.744   1.024 -0.4443 -0.0652  0.0410
  799SOL    HW1 2396   1.831   2.652   1.070 -1.6754 -3.9545  0.3130
  799SOL    HW2 2397   1.899   2.738   0.942  1.0788 -2.7993 -1.4950
  800SOL     OW 2398   2.968   0.815   1.843 -0.4332  0.3238 -0.8378
  800SOL    HW1 2399   2.962   0.917   1.829  0.2821 -0.0889 -0.0156
  800SOL    HW2 2400   3.009   0.790   1.933 -2.5035  1.2712  0.8705
  801SOL     OW 2401   1.963   2.145   0.135  0.0282  0.3778  0.5287
  801SOL    HW1 2402   1.896   2.152   0.060  2.4780  3.8792  1.3267
  801SOL    HW2 2403   2.058   2.121   0.096  0.3917  1.4070 -0.6797
  802SOL     OW 2404   0.714   0.714   2.542  0.4774  0.0766 -0.1426
  802SOL    HW1 2405   0.765   0.722   2.452  0.0680 -3.3120 -0.6741
  802SOL    HW2 2406   0.615   0.708   2.518  1.6070 -1.0367 -0.9413
  803SOL     OW 2407   0.927   0.042   0.855 -0.2088 -0.7368  0.3337
  803SOL    HW1 2408   1.000   0.089   0.915  3.7667 -1.0893  0.4123
  803SOL    HW2 2409   0.907   0.095   0.768  0.0175 -1.7518 -1.0583
  804SOL     OW 2410   0.274   0.022   2.178  0.5856  0.2897  0.4397
  804SOL    HW1 2411   0.254   0.121   2.197 -0.3520 -0.3073 -0.3291
  804SOL    HW2 2412   0.211  -0.020   2.108 -0.8588  3.0308  1.6800
  805SOL     OW 2413   2.346   0.390   0.325 -0.2976 -0.0222  0.2651
  805SOL    HW1 2414   2.410   0.371   0.398  0.2441  0.3378 -1.7532
  805SOL    HW2 2415   2.354   0.323   0.245  0.0380 -2.0491 -0.2999
  806SOL     OW 2416   0.632   2.489   1.834  0.2625  0.0616 -0.1137
  806SOL    HW1 2417   0.579   2.575   1.856  1.5329  0.0756  1.6806
  806SOL    HW2 2418   0.728   2.509   1.810 -0.7081 -0.3146  1.7770
  807SOL     OW 2419   2.537   0.951   0.435  0.4289  0.6760  0.3002
  807SOL    HW1 2420   2.611   0.880   0.443 -0.6181  0.3763 -2.2986
  807SOL    HW2 2421   2.520   0.976   0.337  2.1110  1.3086 -4.2556
  808SOL     OW 2422   0.596   2.019   2.892  0.2369 -0.0282  0.2620
  808SOL    HW1 2423   0.581   2.068   2.980 -0.8462  3.0680 -2.1671
  808SOL    HW2 2424   0.592   1.916   2.899  0.2986 -0.4021  0.6563
  809SOL     OW 2425   2.543   2.009   1.872 -0.0704 -0.0553  0.4483
  809SOL    HW1 2426   2.635   2.060   1.887  2.7068 -0.4725  1.1316
  809SOL    HW2 2427   2.532   1.994   1.772 -1.3056  2.1438 -1.9325
  810SOL     OW 2428   2.147   1.084   0.527  0.4568 -0.1202  0.0068
  810SOL    HW1 2429   2.119   1.006   0.587 -0.4561 -2.2919  0.4651
  810SOL    HW2 2430   2.089   1.168   0.551 -0.3814  0.6442  2.1856
  811SOL     OW 2431   1.311   2.539   1.187 -0.7005 -0.2955 -0.2327
  811SOL    HW1 2432   1.302   2.436   1.209  0.1341 -3.2231 -1.4715
  811SOL    HW2 2433   1.282   2.603   1.265 -0.7771  1.8470  0.3519
  812SOL     OW 2434   1.386   0.775   1.926  0.6209  0.3942  0.1365
  812SOL    HW1 2435   1.283   0.781   1.941 -1.4361  0.1631  2.9415
  812SOL    HW2 2436   1.410   0.855   1.865  1.0284 -0.2649 -0.5457
  813SOL     OW 2437   1.577   2.049   2.416 -0.3218  0.2126 -0.0489
  813SOL    HW1 2438   1.652   1.990   2.458 -0.2066 -0.6395  0.7277
  813SOL    HW2 2439   1.579   2.039   2.313 -1.9523 -0.6465  1.0943
  814SOL     OW 2440   2.964   1.699   2.897 -0.1514  0.0443  0.2018
  814SOL    HW1 2441   3.022   1.679   2.979  0.3509 -0.0782 -0.1574
  814SOL    HW2 2442   2.974   1.799   2.873  2.4067 -3.4199  1.0574
  815SOL     OW 2443   2.179   2.904   2.771 -0.2029  0.1614  0.3423
  815SOL    HW1 2444   2.162   2.823   2.828 -1.2642  1.8362 -0.6510
  815SOL    HW2 2445   2.273   2.944   2.788  0.8594 -2.4043  0.8456
  816SOL     OW 2446   1.536   0.368   1.660 -0.2275 -0.3596  0.2534
  816SOL    HW1 2447   1.578   0.275   1.686 -2.6656 -3.1576  0.3120
  816SOL    HW2 2448   1.480   0.406   1.737  1.5720  0.7611  3.3122
  817SOL     OW 2449   0.407   1.184   2.655 -0.5194  0.9768 -0.1011
  817SOL    HW1 2450   0.339   1.192   2.735  1.6105  0.9169  0.9520
  817SOL    HW2 2451   0.408   1.262   2.581 -0.8473 -0.2423 -0.0182
  818SOL     OW 2452   1.979   0.819   0.453  0.5614  0.1167  0.2078
  818SOL    HW1 2453   2.080   0.815   0.443  0.5244  0.2297  0.9143
  818SOL    HW2 2454   1.948   0.865   0.541 -2.1398 -0.2662  1.5825
  819SOL     OW 2455   2.744   2.950   3.084  0.1578 -1.2592 -0.0159
  819SOL    HW1 2456   2.769   2.886   3.158  2.3710  1.0072  2.6428
  819SOL    HW2 2457   2.695   2.903   3.006 -0.7137 -1.3283  0.0464
  820SOL     OW 2458   1.261   1.051   0.528  0.2677  0.2387 -0.0292
  820SOL    HW1 2459   1.281   1.147   0.563 -1.2887 -3.8031  2.4924
  820SOL    HW2 2460   1.240   0.986   0.608 -1.0351  0.3880 -0.1850
  821SOL     OW 2461   0.055   1.203   0.733  0.4522 -0.2858  0.0350
  821SOL    HW1 2462   0.010   1.195   0.830 -0.3722  1.7148  2.6255
  821SOL    HW2 2463   0.099   1.293   0.721  0.9167 -0.9556  2.2728
  822SOL     OW 2464   2.501   1.797   2.433 -0.1474 -0.0770 -0.2783
  822SOL    HW1 2465   2.489   1.844   2.524 -0.2996 -1.0028  0.7386
  822SOL    HW2 2466   2.415   1.798   2.377 -0.4226  3.0581 -1.3225
  823SOL     OW 2467   2.007   0.947   1.174  0.4117  0.4089 -0.0311
  823SOL    HW1 2468   1.989   0.911   1.266  0.1834  0.8039 -0.8258
  823SOL    HW2 2469   1.927   0.986   1.116  3.7643  0.8712 -1.6869
  824SOL     OW 2470   0.221   1.944   2.790 -0.1035 -0.8238  0.1987
  824SOL    HW1 2471   0.224   1.881   2.877 -2.3674 -0.1509  2.3110
  824SOL    HW2 2472   0.295   1.928   2.714  0.2226  1.9202 -2.0003
  825SOL     OW 2473   1.327   1.084   0.255 -0.2824 -0.1987  0.0714
  825SOL    HW1 2474   1.331   1.187   0.222  1.3298 -0.3888 -1.0439
  825SOL    HW2 2475   1.299   1.079   0.353  3.0533 -0.7582 -0.4560
  826SOL     OW 2476   1.926   0.597   1.589  0.1239 -0.1348  0.4811
  826SOL    HW1 2477   2.018   0.563   1.625 -0.0681 -1.7848 -0.6796
  826SOL    HW2 2478   1.868   0.515   1.561 -1.4519 -0.8130 -0.3536
  827SOL     OW 2479   0.702   1.159   0.368  0.4572 -0.0218  0.1626
  827SOL    HW1 2480   0.762   1.104   0.300  1.1166 -0.6591 -0.6000
  827SOL    HW2 2481   0.627   1.101   0.416  2.3945 -1.4053  0.7698
  828SOL     OW 2482   2.654   0.124   1.525 -0.8625 -0.1010  0.0679
  828SOL    HW1 2483   2.555   0.099   1.504  0.5940 -1.5043  0.0483
  828SOL    HW2 2484   2.672   0.133   1.628 -0.2227  0.4055  1.7655
  829SOL     OW 2485   2.957   2.401   2.883 -0.1888 -0.0266  0.2205
  829SOL    HW1 2486   2.863   2.375   2.929 -0.2983  1.3928  4.1488
  829SOL    HW2 2487   2.963   2.504   2.864 -0.5470  1.6201  3.4231
  830SOL     OW 2488   2.895   0.918   3.046 -0.1119 -0.1278  0.1949
  830SOL    HW1 2489   2.946   0.981   3.110 -0.5878 -2.4781 -0.5472
  830SOL    HW2 2490   2.899   0.818   3.082  1.3817 -0.1146 -0.9119
  831SOL     OW 2491   0.027   0.565   0.402  0.4601 -0.1778  0.1394
  831SOL    HW1 2492   0.016   0.510   0.490 -0.6926  2.3188  2.2518
  831SOL    HW2 2493   0.050   0.504   0.322  1.1712  0.5732  0.8586
  832SOL     OW 2494   1.816   0.770   3.073 -0.3008 -0.3020 -0.7578
  832SOL    HW1 2495   1.753   0.786   2.998  0.2257 -2.5217  1.5999
  832SOL    HW2 2496   1.824   0.672   3.102  0.9259 -1.0079 -1.9533
  833SOL     OW 2497   2.404   2.084   0.470  0.0601  0.8088  0.3266
  833SOL    HW1 2498   2.310   2.047   0.458  1.6150  2.2225  0.7806
  833SOL    HW2 2499   2.480   2.009   0.468 -0.1109  1.3093 -0.2177
  834SOL     OW 2500   0.210   0.119   0.569  0.0808 -0.4931  0.0659
  834SOL    HW1 2501   0.270   0.037   0.582 -0.2014 -0.0018 -1.4078
  834SOL    HW2 2502   0.195   0.140   0.466  1.4106  0.4787  2.4488
  835SOL     OW 2503   2.458   1.518   1.139 -1.4410 -0.1289 -0.7420
  835SOL    HW1 2504   2.552   1.553   1.174  1.9204 -1.3674 -1.6602
  835SOL    HW2 2505   2.473   1.488   1.045  0.2650 -2.2102  0.2784
  836SOL     OW 2506   1.607   0.825   2.588 -0.3297 -0.3360 -0.4062
  836SOL    HW1 2507   1.507   0.804   2.581 -0.5804  1.1654  0.4675
  836SOL    HW2 2508   1.648   0.845   2.496  0.3768 -0.4398  0.8170
  837SOL     OW 2509   1.709   0.094   0.600  0.4230  0.4878 -0.2414
  837SOL    HW1 2510   1.681   0.176   0.656 -0.8002 -2.3998 -0.6709
  837SOL    HW2 2511   1.659   0.090   0.512  1.5385  1.4919 -0.7038
  838SOL     OW 2512   1.247   1.383   2.700 -0.6506 -0.0936 -0.0878
  838SOL    HW1 2513   1.236   1.467   2.762  2.4217  0.5915 -0.7599
  838SOL    HW2 2514   1.155   1.339   2.684 -2.6296  4.5152 -0.6213
  839SOL     OW 2515   1.572   0.352   0.973  0.0015  0.4148  0.2818
  839SOL    HW1 2516   1.539   0.399   1.057 -1.4837 -1.0100 -2.4255
  839SOL    HW2 2517   1.552   0.250   0.984  0.6925  0.3806 -0.2447
  840SOL     OW 2518   2.586   2.949   1.720 -0.4547  0.4399 -0.5417
  840SOL    HW1 2519   2.558   2.915   1.627 -0.0742 -2.0539 -0.6913
  840SOL    HW2 2520   2.570   2.873   1.790  2.6314  0.5980  1.5497
  841SOL     OW 2521   1.536   0.848   2.937 -0.2622 -0.2620 -0.1265
  841SOL    HW1 2522   1.485   0.841   3.026 -1.5050  2.3089 -0.6270
  841SOL    HW2 2523   1.517   0.930   2.876  4.4232 -2.9829 -0.8409
  842SOL     OW 2524   0.807   1.561   0.996  0.5380  0.1429  0.3460
  842SOL    HW1 2525   0.785   1.656   1.030  0.3151 -1.8521 -0.3475
  842SOL    HW2 2526   0.731   1.512   0.938 -0.5711 -1.4412 -0.8807
  843SOL     OW 2527   0.125   0.111   1.432 -0.1802  0.7575  0.2889
  843SOL    HW1 2528   0.199   0.152   1.494  0.9334  0.7346  0.1348
  843SOL    HW2 2529   0.142   0.008   1.421 -1.5885 -3.2890  2.0002
  844SOL     OW 2530   0.770   2.519   0.228 -0.1218  0.6009 -0.5080
  844SOL    HW1 2531   0.730   2.501   0.325 -1.8225 -1.7236 -0.4289
  844SOL    HW2 2532   0.699   2.558   0.162 -2.0400 -0.2172  0.0737
  845SOL     OW 2533   1.678   2.952   1.296 -0.2217 -0.2590 -0.5188
  845SOL    HW1 2534   1.636   3.038   1.331 -0.1738 -1.0277 -2.4813
  845SOL    HW2 2535   1.629   2.908   1.215 -1.2095 -1.0798 -0.5884
  846SOL     OW 2536   1.715   2.963   0.904 -0.1903  0.3129 -0.1394
  846SOL    HW1 2537   1.728   2.979   0.804 -0.4568 -0.0952 -0.4142
  846SOL    HW2 2538   1.758   2.875   0.940  1.5650  1.9276 -1.0356
  847SOL     OW 2539   2.059   1.611   0.208 -0.3533 -0.1938  0.1591
  847SOL    HW1 2540   2.025   1.574   0.296  0.6058  1.9945 -0.2585
  847SOL    HW2 2541   1.989   1.603   0.131 -1.7565 -0.6609 -2.5632
  848SOL     OW 2542   2.461   0.856   2.656 -0.0226  0.3229  0.0836
  848SOL    HW1 2543   2.476   0.950   2.691 -0.2177  2.4792  1.4855
  848SOL    HW2 2544   2.376   0.842   2.593 -0.1010 -0.9558 -1.7354
  849SOL     OW 2545   2.417   0.883   2.294 -0.0616  0.8231 -0.5752
  849SOL    HW1 2546   2.496   0.820   2.264  2.9318 -0.3147 -0.6135
  849SOL    HW2 2547   2.359   0.836   2.365  2.4331 -0.1710 -1.6105
  850SOL     OW 2548   1.601   0.157   1.258 -0.6389  0.1170 -0.3887
  850SOL    HW1 2549   1.566   0.142   1.162  3.7056  0.5055 -1.0023
  850SOL    HW2 2550   1.534   0.143   1.338  0.3073 -0.9600  0.9562
  851SOL     OW 2551   0.477   1.774   0.684  0.3047  0.0576 -0.0124
  851SOL    HW1 2552   0.482   1.879   0.684  1.5655  0.5062 -0.4111
  851SOL    HW2 2553   0.568   1.738   0.714 -0.8857 -1.0818 -0.0448
  852SOL     OW 2554   0.765   2.126   1.686  0.0851  0.0572  0.1636
  852SOL    HW1 2555   0.787   2.224   1.669 -0.4924  2.5490 -2.1374
  852SOL    HW2 2556   0.699   2.118   1.770  0.9192 -1.0689  0.6690
  853SOL     OW 2557   2.520   1.540   2.578 -0.0564 -0.4446  0.1136
  853SOL    HW1 2558   2.490   1.453   2.534  1.1559 -0.1093 -0.8969
  853SOL    HW2 2559   2.508   1.622   2.514 -2.4380  1.5448 -1.6385
  854SOL     OW 2560   2.371   1.398   1.769 -0.5877  0.2593  0.0497
  854SOL    HW1 2561   2.443   1.373   1.700 -3.7926  1.2839 -1.7678
  854SOL    HW2 2562   2.336   1.312   1.813  2.8569 -1.1881  0.3417
  855SOL     OW 2563   2.043   2.299   0.958  0.1767 -0.2661 -0.2090
  855SOL    HW1 2564   2.058   2.395   0.927  1.2578  0.6105  3.2494
  855SOL    HW2 2565   2.086   2.271   1.049  0.9477 -2.8493  1.5675
  856SOL     OW 2566   1.420   1.353   0.881 -0.4093  0.0928 -0.0308
  856SOL    HW1 2567   1.438   1.450   0.919 -0.0304 -3.3599 -2.4278
  856SOL    HW2 2568   1.403   1.288   0.959  3.2420  0.4082  0.2864
  857SOL     OW 2569   2.985   2.555   1.059 -0.6739  0.1943  0.0481
  857SOL    HW1 2570   2.908   2.486   1.066  1.9737 -0.3568  0.6405
  857SOL    HW2 2571   3.065   2.510   1.012  0.2777 -0.7752 -1.1605
  858SOL     OW 2572   2.280   2.163   1.759 -0.2095 -0.5226 -0.2811
  858SOL    HW1 2573   2.188   2.171   1.711  3.7506 -1.1813 -1.7731
  858SOL    HW2 2574   2.356   2.110   1.710 -0.3813 -0.9466  1.2254
  859SOL     OW 2575   2.447   0.501   1.028 -0.3847 -0.1642  0.0413
  859SOL    HW1 2576   2.502   0.535   0.953 -1.6894  1.7256  0.1078
  859SOL    HW2 2577   2.484   0.424   1.088 -2.1203  0.4309 -1.8866
  860SOL     OW 2578   1.960   2.747   0.467 -0.2928  0.0647  0.5509
  860SOL    HW1 2579   1.933   2.693   0.381 -0.1864 -1.2033 -0.9447
  860SOL    HW2 2580   2.026   2.819   0.447  0.4322 -2.5868 -0.5631
  861SOL     OW 2581   1.098   2.582   2.770 -0.2334 -0.6378 -0.1867
  861SOL    HW1 2582   1.144   2.671   2.747  0.3468  0.1273  0.3990
  861SOL    HW2 2583   1.076   2.582   2.869 -1.6335  0.9434  0.8647
  862SOL     OW 2584   2.936   2.551   1.543  0.3063 -0.3077  0.0456
  862SOL    HW1 2585   3.008   2.583   1.610  4.0907  1.3152 -0.3310
  862SOL    HW2 2586   2.863   2.631   1.524 -0.4648  1.8838 -0.9695
  863SOL     OW 2587   1.911   2.626   0.247  0.1703  0.3535  0.3491
  863SOL    HW1 2588   1.978   2.555   0.223  1.9708  2.4394 -0.2679
  863SOL    HW2 2589   1.812   2.590   0.242  0.8028 -5.2636 -2.7911
  864SOL     OW 2590   1.862   1.190   2.953  0.5107 -0.4348 -0.1251
  864SOL    HW1 2591   1.860   1.128   2.870  0.7805  0.7625  1.7415
  864SOL    HW2 2592   1.953   1.180   2.997 -0.5613 -0.2245 -0.5204
  865SOL     OW 2593   2.149   1.749   0.681 -0.7606 -0.3280  0.4921
  865SOL    HW1 2594   2.210   1.777   0.761 -2.7602 -1.2672 -0.8766
  865SOL    HW2 2595   2.071   1.688   0.714  2.1245  0.4353  0.0176
  866SOL     OW 2596   2.917   2.861   1.019 -0.3835 -0.4896  0.0141
  866SOL    HW1 2597   2.979   2.881   0.933  0.0366 -0.3366 -0.0429
  866SOL    HW2 2598   2.920   2.763   1.044 -2.2933  0.3306 -0.9113
  867SOL     OW 2599   0.425   1.328   0.872  0.3849 -0.0246 -0.0422
  867SOL    HW1 2600   0.425   1.222   0.876  0.0679 -0.6108  0.5064
  867SOL    HW2 2601   0.346   1.366   0.821  1.4077 -2.8629 -0.8507
  868SOL     OW 2602   0.829   1.909   1.986  0.4669 -0.1329 -0.4191
  868SOL    HW1 2603   0.820   1.890   2.087  1.6550  1.7546 -4.1756
  868SOL    HW2 2604   0.777   1.990   1.953 -2.4443 -1.8304 -0.8127
  869SOL     OW 2605   2.497   2.014   1.615 -0.0298  0.2193  0.3686
  869SOL    HW1 2606   2.558   2.075   1.558 -0.2130  1.3146 -1.5196
  869SOL    HW2 2607   2.475   1.928   1.564  0.0469  1.2728 -1.7257
  870SOL     OW 2608   2.328   2.560   1.226  0.3799  0.2846 -0.2897
  870SOL    HW1 2609   2.265   2.474   1.211  2.6761 -2.9061 -0.7373
  870SOL    HW2 2610   2.408   2.536   1.287  2.8811  0.4064 -5.1329
  871SOL     OW 2611   2.982   2.061   0.562  0.3087 -0.3521 -0.3293
  871SOL    HW1 2612   2.881   2.074   0.591 -2.0891 -2.9952  2.0801
  871SOL    HW2 2613   2.998   1.988   0.495 -1.9298 -0.0315  1.2085
  872SOL     OW 2614   2.154   0.510   1.704  0.5197  0.1282  0.1267
  872SOL    HW1 2615   2.103   0.514   1.796 -1.2032 -1.2263 -1.4999
  872SOL    HW2 2616   2.242   0.454   1.711 -1.6079 -1.2472 -0.7282
  873SOL     OW 2617   1.727   2.118   2.945  0.0669  0.0541 -0.3438
  873SOL    HW1 2618   1.707   2.218   2.946 -0.9907  1.2288  2.0217
  873SOL    HW2 2619   1.656   2.064   2.894 -3.3834  1.5609  1.1573
  874SOL     OW 2620   0.692   2.482   0.776  0.4081 -0.2307 -0.0211
  874SOL    HW1 2621   0.670   2.578   0.823  1.1539 -0.3104  2.2141
  874SOL    HW2 2622   0.792   2.454   0.777  0.4503  0.2622 -1.2061
  875SOL     OW 2623   2.283   1.537   1.492  0.6347 -0.3336 -0.2250
  875SOL    HW1 2624   2.379   1.565   1.495  1.3191 -2.4245  1.8972
  875SOL    HW2 2625   2.225   1.579   1.414 -2.0094 -2.2893 -2.0094
  876SOL     OW 2626   0.140   2.203   2.676 -0.2846  0.0277 -0.0346
  876SOL    HW1 2627   0.158   2.110   2.713  2.0989 -0.5535 -1.2060
  876SOL    HW2 2628   0.185   2.273   2.740 -0.9077  0.4339 -0.4546
  877SOL     OW 2629   2.786   2.688   0.637  0.0434 -0.0743 -0.2983
  877SOL    HW1 2630   2.839   2.764   0.592 -0.5711  2.1339 -3.3534
  877SOL    HW2 2631   2.838   2.599   0.659  0.6078  2.4741 -1.1515
  878SOL     OW 2632   2.880   1.475   2.186 -0.5180  1.0246  0.0768
  878SOL    HW1 2633   2.985   1.467   2.186 -0.0145 -1.1544 -1.4421
  878SOL    HW2 2634   2.847   1.497   2.285  1.4853  0.9791  0.6971
  879SOL     OW 2635   2.378   0.018   1.189 -0.2580 -0.2769  0.0472
  879SOL    HW1 2636   2.419  -0.077   1.189 -0.6345  0.1019  1.1479
  879SOL    HW2 2637   2.291   0.012   1.132 -0.6938  0.3537 -0.3714
  880SOL     OW 2638   0.704   0.451   2.152 -0.5506 -0.2252 -0.2281
  880SOL    HW1 2639   0.628   0.391   2.197 -3.2864 -3.8536 -0.3049
  880SOL    HW2 2640   0.782   0.398   2.104  2.1714  0.0103 -2.6037
  881SOL     OW 2641   0.914   0.040   0.413  0.0927  0.2161  0.1190
  881SOL    HW1 2642   0.951  -0.051   0.457  0.5588  0.7555 -1.4445
  881SOL    HW2 2643   0.868   0.028   0.321 -2.3271 -1.6151 -1.4966
  882SOL     OW 2644   2.734   1.636   1.690  0.2397  0.2299  0.0943
  882SOL    HW1 2645   2.839   1.624   1.687 -0.3071  0.5176  1.9463
  882SOL    HW2 2646   2.705   1.673   1.778 -0.1125  0.2039  0.1848
  883SOL     OW 2647   0.974   0.573   0.958 -0.0804  0.1298 -0.2250
  883SOL    HW1 2648   0.978   0.665   1.003 -3.8160 -2.4904 -1.1268
  883SOL    HW2 2649   1.070   0.528   0.957  1.2031  0.0112 -0.7859
  884SOL     OW 2650   1.186   1.911   1.020  0.0131  0.1844 -0.5858
  884SOL    HW1 2651   1.142   1.884   0.932 -1.4173  2.0556 -1.0642
  884SOL    HW2 2652   1.157   2.005   1.058 -0.4958  2.9356 -0.5454
  885SOL     OW 2653   2.269   1.845   2.312 -0.2478 -0.6134  0.0190
  885SOL    HW1 2654   2.203   1.789   2.372 -2.0513  1.7849 -0.0691
  885SOL    HW2 2655   2.265   1.952   2.328  0.4466 -2.2066  1.4131
  886SOL     OW 2656   2.671   0.458   1.792 -0.4353  0.1028 -0.0902
  886SOL    HW1 2657   2.719   0.401   1.870  1.7685 -1.3398  0.0216
  886SOL    HW2 2658   2.739   0.522   1.752  0.3309  0.4943 -0.7126
  887SOL     OW 2659   0.091   2.065   1.273  0.1714  0.1195  0.2591
  887SOL    HW1 2660   0.008   2.030   1.221 -1.0155  0.6712 -1.1717
  887SOL    HW2 2661   0.151   2.122   1.213 -0.8547 -1.6904  1.9929
  888SOL     OW 2662   0.561   1.284   1.513  0.1573  0.3080 -0.8188
  888SOL    HW1 2663   0.625   1.304   1.432  0.3668  0.5044 -0.9786
  888SOL    HW2 2664   0.514   1.193   1.499  0.5229 -3.7688  1.9842
  889SOL     OW 2665   0.843   2.502   2.117 -0.3359  0.8146  0.1280
  889SOL    HW1 2666   0.765   2.448   2.079  1.8983 -1.4559 -0.2255
  889SOL    HW2 2667   0.932   2.500   2.058 -2.8680 -0.9297  1.2013
  890SOL     OW 2668   2.377   2.465   0.191 -0.2527 -0.2065 -0.0655
  890SOL    HW1 2669   2.412   2.515   0.105 -1.5384 -1.5925 -1.0014
  890SOL    HW2 2670   2.281   2.495   0.212  1.9333 -0.6894  1.9134
  891SOL     OW 2671   2.627   1.507   0.644 -0.5652 -0.3324  0.5066
  891SOL    HW1 2672   2.643   1.461   0.740 -0.1319 -0.1326  0.4380
  891SOL    HW2 2673   2.526   1.533   0.624 -1.7330 -1.1632  4.5208
  892SOL     OW 2674   0.265   0.292   2.233  0.2284  0.3321 -0.2532
  892SOL    HW1 2675   0.281   0.298   2.130 -0.3371  0.7877 -1.1054
  892SOL    HW2 2676   0.345   0.321   2.290 -3.0008 -0.8955  0.5493
  893SOL     OW 2677   1.683   0.233   2.752 -0.2006  0.1996 -0.4704
  893SOL    HW1 2678   1.755   0.308   2.765 -1.0336 -0.7257  2.0726
  893SOL    HW2 2679   1.584   0.272   2.749  1.0652  2.3550 -1.9971
  894SOL     OW 2680   2.224   2.009   0.037 -0.2786 -0.6798  0.0349
  894SOL    HW1 2681   2.196   1.956  -0.046 -0.8476  1.7645 -3.0101
  894SOL    HW2 2682   2.219   1.949   0.122 -2.8469  1.1940 -2.4294
  895SOL     OW 2683   2.912   1.452   0.826  0.2035  0.2352 -0.8394
  895SOL    HW1 2684   2.964   1.384   0.881  0.1361  1.2188  0.1300
  895SOL    HW2 2685   2.970   1.536   0.797  0.4794 -0.1567  1.5587
  896SOL     OW 2686   1.720   1.781   1.156  0.2389  0.1106  0.0943
  896SOL    HW1 2687   1.773   1.862   1.114  0.0477  0.9092  1.2127
  896SOL    HW2 2688   1.620   1.787   1.133 -0.7161  1.5131 -0.7108
  897SOL     OW 2689   0.264   0.543   3.075  0.0264 -0.4104  0.6019
  897SOL    HW1 2690   0.211   0.597   3.001 -1.4667  1.3130 -0.5987
  897SOL    HW2 2691   0.360   0.589   3.088  1.6944  3.6094  0.3042
  898SOL     OW 2692   0.575   2.839   1.121 -0.0292  0.3571  0.0539
  898SOL    HW1 2693   0.518   2.917   1.158  0.6015 -1.3017 -0.0858
  898SOL    HW2 2694   0.679   2.853   1.131 -0.4261 -1.1164  0.3016
  899SOL     OW 2695   2.687   0.948   1.232 -0.3052 -0.4592 -0.4979
  899SOL    HW1 2696   2.599   0.921   1.181 -1.2240  0.6165 -0.4473
  899SOL    HW2 2697   2.758   0.952   1.157 -3.6109  0.9820 -1.8125
  900SOL     OW 2698   1.014   2.503   2.349  0.0573 -1.2676  0.0835
  900SOL    HW1 2699   0.937   2.506   2.279  0.8801 -0.1800 -0.7726
  900SOL    HW2 2700   0.980   2.518   2.449 -1.4652 -0.2722  4.5861
  901SOL     OW 2701   1.905   2.441   1.376 -0.3997 -0.4288 -0.1771
  901SOL    HW1 2702   1.875   2.469   1.274 -1.9400  0.8037 -2.8929
  901SOL    HW2 2703   2.003   2.402   1.389  1.0419  0.6469  0.9911
  902SOL     OW 2704   2.583   1.624   1.443 -0.0716  0.1467  0.3279
  902SOL    HW1 2705   2.639   1.645   1.525 -0.8896  0.9882  0.3221
  902SOL    HW2 2706   2.632   1.565   1.369 -0.2102 -1.8336  0.0124
  903SOL     OW 2707   0.257   2.421   2.024  0.3404 -0.7326 -0.2605
  903SOL    HW1 2708   0.177   2.363   2.009  0.6474  0.0298  0.3956
  903SOL    HW2 2709   0.275   2.472   1.933  0.5211 -0.6350  0.4423
  904SOL     OW 2710   1.978   0.797   2.481 -0.2842  0.7014  0.7142
  904SOL    HW1 2711   1.931   0.715   2.523 -3.3424 -0.0444  0.2808
  904SOL    HW2 2712   1.970   0.795   2.379  2.8243 -2.1831  1.8807
  905SOL     OW 2713   2.765   0.029   2.592  0.2011 -0.2086  0.1356
  905SOL    HW1 2714   2.838  -0.039   2.625 -2.0801  0.1239 -0.1676
  905SOL    HW2 2715   2.802   0.117   2.550 -1.6183 -0.1306 -0.2401
  906SOL     OW 2716   0.194   1.780   1.878 -0.4308 -0.3360 -0.2625
  906SOL    HW1 2717   0.135   1.791   1.793 -1.8115  1.2542  0.0966
  906SOL    HW2 2718   0.285   1.833   1.877 -0.4644 -0.0634 -1.9368
  907SOL     OW 2719   0.151   2.496   1.024  0.0749 -0.5235 -0.3465
  907SOL    HW1 2720   0.225   2.558   1.061 -1.1309  0.0694  1.2703
  907SOL    HW2 2721   0.166   2.491   0.923  1.2920  0.2353  0.8233
  908SOL     OW 2722   2.676   2.952   0.431 -0.6953 -0.3852 -0.6951
  908SOL    HW1 2723   2.644   2.981   0.334 -0.3510 -2.5597 -0.1665
  908SOL    HW2 2724   2.666   2.850   0.440 -0.6771  1.4205 -2.1238
  909SOL     OW 2725   0.831   0.914   2.670  0.1622  0.0512 -0.1545
  909SOL    HW1 2726   0.802   0.822   2.627 -1.3633 -0.4084 -0.5564
  909SOL    HW2 2727   0.889   0.970   2.600 -0.7526 -1.4007 -5.2842
  910SOL     OW 2728   1.764   1.798   2.066 -0.0083 -0.0422 -0.8603
  910SOL    HW1 2729   1.823   1.826   1.986 -1.1524  2.1436  0.0377
  910SOL    HW2 2730   1.676   1.852   2.071  0.2196 -0.7650  0.0914
  911SOL     OW 2731   1.764   3.013   1.627 -0.2420  0.4676 -0.0861
  911SOL    HW1 2732   1.837   2.977   1.564 -0.0487 -1.4814  0.4147
  911SOL    HW2 2733   1.747   2.962   1.717 -1.0739 -2.2058 -0.4035
  912SOL     OW 2734   2.851   0.949   0.779 -0.2090 -0.1878  0.2860
  912SOL    HW1 2735   2.839   0.934   0.883 -2.1720  0.2652 -0.6771
  912SOL    HW2 2736   2.825   1.045   0.746  0.1920  0.3820 -1.7496
  913SOL     OW 2737   2.530   1.290   1.555  0.2044 -0.1754 -0.3659
  913SOL    HW1 2738   2.542   1.191   1.535 -0.2955 -0.6609 -2.9510
  913SOL    HW2 2739   2.576   1.348   1.479 -2.3179  0.4028  0.5959
  914SOL     OW 2740   2.814   0.527   1.224  0.4490  0.1260  0.0427
  914SOL    HW1 2741   2.816   0.424   1.233 -2.1059 -2.0565 -0.1371
  914SOL    HW2 2742   2.759   0.584   1.295  0.5888 -1.7106  2.5767
  915SOL     OW 2743   1.228   0.789   1.010 -0.0643  0.0069 -0.2432
  915SOL    HW1 2744   1.311   0.814   1.066 -0.6106 -1.5980 -0.0924
  915SOL    HW2 2745   1.143   0.816   1.059  0.6615 -0.1652  1.5441
  916SOL     OW 2746   0.544   0.036   0.656  0.2172 -0.0210 -0.1976
  916SOL    HW1 2747   0.545   0.102   0.738 -4.0054  3.8157 -2.2781
  916SOL    HW2 2748   0.577   0.075   0.565 -1.4517 -0.6073 -0.2332
  917SOL     OW 2749   2.772   2.613   1.963 -0.8427  0.0536 -0.2248
  917SOL    HW1 2750   2.685   2.669   1.950  1.7451  0.2140 -0.2158
  917SOL    HW2 2751   2.855   2.675   1.934  3.0062 -1.1826  0.5527
  918SOL     OW 2752   0.982   2.167   3.010  0.1833 -0.3821  0.4838
  918SOL    HW1 2753   0.951   2.186   3.106  0.1095 -1.2746  1.9713
  918SOL    HW2 2754   1.040   2.079   3.003  0.1796 -1.2904  1.2301
  919SOL     OW 2755   0.933   1.588   2.775  0.3193  0.4980  0.1638
  919SOL    HW1 2756   0.953   1.673   2.715  1.0471  1.5812  0.9942
  919SOL    HW2 2757   0.858   1.524   2.732  0.0823  0.2108 -0.9858
  920SOL     OW 2758   1.243   2.037   2.496 -0.1333  0.5342  0.2782
  920SOL    HW1 2759   1.191   2.077   2.417 -1.6264  0.5871 -2.0409
  920SOL    HW2 2760   1.279   1.946   2.468 -0.0069  0.0551 -0.4095
  921SOL     OW 2761   1.101   0.034   2.570 -0.4959  0.4367 -0.0574
  921SOL    HW1 2762   1.103   0.042   2.463  0.8303 -0.1631  0.5919
  921SOL    HW2 2763   1.016  -0.001   2.616 -1.0107 -3.0535  0.3113
  922SOL     OW 2764   2.194   2.372   2.790  0.4300 -0.1498 -0.1192
  922SOL    HW1 2765   2.167   2.271   2.778  1.4737 -1.8622 -2.2964
  922SOL    HW2 2766   2.140   2.431   2.720 -0.5190  1.6602  0.2039
  923SOL     OW 2767   1.241   2.681   0.283  0.7129 -0.4499  0.4427
  923SOL    HW1 2768   1.309   2.720   0.347  0.0082 -0.0897  1.3370
  923SOL    HW2 2769   1.271   2.585   0.250  1.2422 -0.0514 -0.4772
  924SOL     OW 2770   2.917   1.565   0.083 -0.1370  0.2164 -0.2092
  924SOL    HW1 2771   2.835   1.590   0.021 -2.1281 -0.5620  1.2688
  924SOL    HW2 2772   2.994   1.521   0.027  0.3683 -0.7887 -2.9291
  925SOL     OW 2773   0.026   2.869   1.581  0.3195 -0.6622  0.1940
  925SOL    HW1 2774  -0.073   2.902   1.589  2.1228 -1.2310  0.7045
  925SOL    HW2 2775   0.073   2.900   1.495 -0.5386 -0.0086  0.0446
  926SOL     OW 2776   1.355   2.899   1.308  0.1607  0.2980  0.1241
  926SOL    HW1 2777   1.397   2.881   1.215  2.1536  2.8662  0.1826
  926SOL    HW2 2778   1.395   2.987   1.351  1.8378  1.0063  0.2150
  927SOL     OW 2779   0.273   2.579   1.801  0.0142 -0.6091 -0.7172
  927SOL    HW1 2780   0.272   2.520   1.712  2.8274 -1.2794 -2.1415
  927SOL    HW2 2781   0.282   2.681   1.786  0.7815 -2.5856  0.6202
  928SOL     OW 2782   1.546   2.020   2.131 -0.3847 -0.2903  0.0497
  928SOL    HW1 2783   1.587   2.120   2.122 -0.0219 -0.7557 -2.1408
  928SOL    HW2 2784   1.443   2.007   2.108  2.4148 -0.4744  2.3778
  929SOL     OW 2785   2.433   2.491   2.865  0.1843 -0.3624 -0.0195
  929SOL    HW1 2786   2.340   2.433   2.860  0.4198 -2.1192  1.9700
  929SOL    HW2 2787   2.472   2.496   2.769  3.4340  2.0992 -0.7977
  930SOL     OW 2788   2.190   2.003   1.074  0.3105 -0.4978 -0.1122
  930SOL    HW1 2789   2.166   2.009   1.177  0.1874  1.2501 -0.8110
  930SOL    HW2 2790   2.283   2.053   1.069 -0.6494  0.4087  2.4614
  931SOL     OW 2791   0.539   1.700   2.632 -0.2230  0.2032 -0.4028
  931SOL    HW1 2792   0.608   1.742   2.695 -0.2174  3.7503 -1.5610
  931SOL    HW2 2793   0.527   1.599   2.633  0.6712 -0.8904 -0.2567
  932SOL     OW 2794   0.463   0.077   2.913  0.6947  0.5336  0.3686
  932SOL    HW1 2795   0.560   0.092   2.893 -2.2118  2.7899 -0.9809
  932SOL    HW2 2796   0.444  -0.013   2.966 -0.7603 -0.6689 -0.8039
  933SOL     OW 2797   1.043   0.799   2.991 -0.3090  0.1806  0.1526
  933SOL    HW1 2798   1.117   0.819   3.059 -0.3270  0.8817 -0.1709
  933SOL    HW2 2799   1.003   0.881   2.943  0.5532  1.4590  0.4226
  934SOL     OW 2800   0.896   3.036   2.729 -0.2290  0.3231  0.1082
  934SOL    HW1 2801   0.888   2.960   2.660  0.7091 -0.2668  2.4629
  934SOL    HW2 2802   0.917   3.002   2.827  0.7922 -0.7906 -1.5477
  935SOL     OW 2803   3.090   0.524   0.817  0.1767 -0.0239  0.1913
  935SOL    HW1 2804   3.081   0.436   0.766 -0.3736  1.3969 -1.7181
  935SOL    HW2 2805   3.009   0.585   0.787  1.3748 -1.5711  1.0360
  936SOL     OW 2806   1.098   2.903   0.153 -0.3076 -0.0931  0.4197
  936SOL    HW1 2807   1.149   2.912   0.061  1.4117  1.7235 -1.8221
  936SOL    HW2 2808   1.140   2.838   0.217 -1.6393  0.7267  0.8883
  937SOL     OW 2809   1.896   2.617   2.099  0.0457  0.0031 -0.3700
  937SOL    HW1 2810   1.823   2.682   2.128  3.3634 -1.7002  0.0422
  937SOL    HW2 2811   1.936   2.625   2.001  1.5783 -0.1826  0.2781
  938SOL     OW 2812   2.747   2.142   1.506  0.7868  0.1721 -0.2112
  938SOL    HW1 2813   2.730   2.242   1.539  1.0500  2.0365 -1.1172
  938SOL    HW2 2814   2.843   2.108   1.542  1.1986  2.0126 -0.2640
  939SOL     OW 2815   2.814   1.164   2.458  0.1795 -1.2034  0.4503
  939SOL    HW1 2816   2.893   1.163   2.392 -1.2627 -0.7807 -1.7783
  939SOL    HW2 2817   2.845   1.148   2.556  2.1659  1.8476  1.3822
  940SOL     OW 2818   1.033   0.441   2.650  0.4200  0.4366 -0.3347
  940SOL    HW1 2819   1.107   0.375   2.677 -1.0214 -0.5438  1.3787
  940SOL    HW2 2820   0.928   0.423   2.655 -0.3747  0.2428 -2.1950
  941SOL     OW 2821   0.011   2.833   2.219 -0.1507 -0.0300 -0.4706
  941SOL    HW1 2822   0.033   2.730   2.216 -0.0626 -0.4092  1.7547
  941SOL    HW2 2823   0.056   2.879   2.304  0.2603  1.0172  6.4482
  942SOL     OW 2824   0.041   0.076   2.535  0.5893 -0.2275 -0.3879
  942SOL    HW1 2825   0.113   0.092   2.605 -0.9616 -0.0744 -1.3981
  942SOL    HW2 2826   0.032   0.157   2.469  1.2549 -0.3628  0.6703
  943SOL     OW 2827   2.110   1.662   2.436 -0.1615 -0.2724 -0.1152
  943SOL    HW1 2828   2.082   1.584   2.375  0.6016  1.0914 -1.1214
  943SOL    HW2 2829   2.085   1.667   2.539 -0.2614 -2.2734 -2.1075
  944SOL     OW 2830   2.178   2.351   1.467  0.2425  0.7216  0.2614
  944SOL    HW1 2831   2.262   2.391   1.510 -0.4008  0.3473 -1.3853
  944SOL    HW2 2832   2.115   2.304   1.533 -0.1837 -0.3863  2.3131
  945SOL     OW 2833   0.631   1.456   0.376 -0.2971 -1.0463  0.0276
  945SOL    HW1 2834   0.683   1.508   0.304 -0.5452 -0.5023  1.0999
  945SOL    HW2 2835   0.654   1.357   0.363 -0.4015 -1.5180 -1.4422
  946SOL     OW 2836   0.423   0.946   2.524 -0.4943 -0.2428 -0.6865
  946SOL    HW1 2837   0.342   0.898   2.476  1.7202 -0.5795 -0.5700
  946SOL    HW2 2838   0.413   1.042   2.566  0.9113  1.3738 -0.9510
  947SOL     OW 2839   1.498   0.568   0.072 -0.7701 -0.1869  0.7428
  947SOL    HW1 2840   1.472   0.586  -0.024  0.7247  1.3423  1.6110
  947SOL    HW2 2841   1.419   0.525   0.128 -1.7764 -1.5343  0.0928
  948SOL     OW 2842   2.007   3.081   2.209 -0.6722  0.1584 -0.0931
  948SOL    HW1 2843   1.999   3.049   2.111 -0.6004  0.1469  1.5809
  948SOL    HW2 2844   1.984   2.997   2.272  0.6856 -0.3798  0.4537
  949SOL     OW 2845   0.654   2.536   0.497 -0.6977 -0.6825 -0.1540
  949SOL    HW1 2846   0.641   2.635   0.473  2.0937  0.1552 -0.7637
  949SOL    HW2 2847   0.664   2.519   0.600 -3.3377  3.9650  2.6824
  950SOL     OW 2848   0.285   2.171   3.084  0.5399 -0.4607  0.1651
  950SOL    HW1 2849   0.225   2.245   3.042  0.4006 -1.7777  0.6330
  950SOL    HW2 2850   0.276   2.074   3.046  0.3786 -0.2601  1.4973
  951SOL     OW 2851   1.168   2.878   2.721  0.1688  0.2239  0.1576
  951SOL    HW1 2852   1.144   2.904   2.627  0.6388 -0.8508  0.0826
  951SOL    HW2 2853   1.260   2.916   2.750 -1.9829 -0.6073 -1.9536
  952SOL     OW 2854   0.071   1.620   0.454 -0.6148 -0.5498  0.0622
  952SOL    HW1 2855   0.140   1.699   0.461  2.6638  2.0027  0.7148
  952SOL    HW2 2856   0.067   1.560   0.536  1.7915  1.6627  1.3857
  953SOL     OW 2857   2.554   1.774   0.194  0.3431 -0.5347 -0.7768
  953SOL    HW1 2858   2.526   1.683   0.237  2.1725 -3.3687  2.6633
  953SOL    HW2 2859   2.595   1.766   0.103 -0.8947  0.5478  1.0474
  954SOL     OW 2860   2.185   0.560   0.987  0.1464  0.5146  0.2972
  954SOL    HW1 2861   2.142   0.570   0.894 -0.6296  0.7485 -1.6754
  954SOL    HW2 2862   2.281   0.526   0.987 -1.9772  2.7908 -0.5682
  955SOL     OW 2863   0.206   2.699   1.377  0.0526 -1.0151  0.0721
  955SOL    HW1 2864   0.105   2.673   1.357  0.9281  0.0879 -0.0676
  955SOL    HW2 2865   0.264   2.696   1.291 -0.6973 -1.2658 -1.9167
  956SOL     OW 2866   2.772   2.473   2.459 -0.1648 -0.3287  0.3635
  956SOL    HW1 2867   2.779   2.373   2.470 -0.1587  1.6045  0.3097
  956SOL    HW2 2868   2.816   2.513   2.367 -0.4025 -0.8677 -0.0633
  957SOL     OW 2869   1.589   2.023   2.726  0.3364  0.7285 -0.1030
  957SOL    HW1 2870   1.554   1.921   2.727  0.2599 -0.2240 -1.1397
  957SOL    HW2 2871   1.559   2.078   2.641 -1.4568  2.1943 -2.5659
  958SOL     OW 2872   2.697   2.332   2.977 -0.5450  0.0652  0.2226
  958SOL    HW1 2873   2.608   2.369   2.934 -1.2219  1.3711  1.2355
  958SOL    HW2 2874   2.668   2.250   3.034 -1.2605 -1.5950 -1.5736
  959SOL     OW 2875   0.276   2.748   0.106  0.5181  0.1392 -0.5475
  959SOL    HW1 2876   0.174   2.725   0.119 -1.1983  2.5827 -1.1833
  959SOL    HW2 2877   0.338   2.692   0.165  1.5466  1.5451 -1.4029
  960SOL     OW 2878   1.981   0.453   1.946 -0.0006  0.2614 -0.1941
  960SOL    HW1 2879   1.923   0.531   1.912 -1.7258  1.4111  1.6450
  960SOL    HW2 2880   1.955   0.432   2.044  1.5748  0.8584 -2.2127
  961SOL     OW 2881   2.571   1.845   1.046 -0.1685  0.2974  0.5113
  961SOL    HW1 2882   2.542   1.916   0.979  1.0501 -0.4856 -1.0215
  961SOL    HW2 2883   2.548   1.867   1.145 -0.0167 -1.9453  1.2625
  962SOL     OW 2884   1.305   0.899   0.043  0.3051  0.0092 -0.2637
  962SOL    HW1 2885   1.300   0.946  -0.051 -0.9408  2.4696 -0.3022
  962SOL    HW2 2886   1.304   0.963   0.125  0.0856 -1.2101  1.8781
  963SOL     OW 2887   2.222   2.572   1.853 -0.0933  1.0154 -0.1377
  963SOL    HW1 2888   2.262   2.501   1.921  0.9338  1.1001  0.5370
  963SOL    HW2 2889   2.242   2.669   1.884  0.8957 -2.1862 -0.6482
  964SOL     OW 2890   2.409   0.392   1.683 -0.0847 -0.2747 -0.2635
  964SOL    HW1 2891   2.501   0.437   1.714  1.6834 -1.9168 -5.1584
  964SOL    HW2 2892   2.414   0.381   1.582 -0.8681 -0.4046  1.5776
  965SOL     OW 2893   2.598   3.092   0.209 -0.0587 -0.5374  0.0650
  965SOL    HW1 2894   2.677   3.074   0.146 -1.7380  1.1810  2.1971
  965SOL    HW2 2895   2.497   3.080   0.179 -3.6116 -3.1056  0.7895
  966SOL     OW 2896   2.476   2.493   2.277  0.2789  0.2896 -0.3828
  966SOL    HW1 2897   2.383   2.490   2.329 -0.4510  0.9552 -1.4284
  966SOL    HW2 2898   2.524   2.585   2.276  2.6553  1.7030  0.2882
  967SOL     OW 2899   2.817   2.805   2.493 -0.6255  0.0239  0.2886
  967SOL    HW1 2900   2.845   2.738   2.421 -0.0643  1.3011  2.3444
  967SOL    HW2 2901   2.890   2.875   2.523 -0.7232  1.3194 -0.0045
  968SOL     OW 2902   1.929   1.067   2.671  0.2492  0.1456  0.4196
  968SOL    HW1 2903   1.892   1.133   2.611 -0.6715 -1.2261  1.1044
  968SOL    HW2 2904   1.909   0.972   2.636  2.3808 -0.5796 -1.9069
  969SOL     OW 2905   2.744   2.430   1.079 -0.4129 -0.4336 -0.1146
  969SOL    HW1 2906   2.677   2.407   1.005 -0.4257 -1.2528  1.5159
  969SOL    HW2 2907   2.776   2.348   1.133  0.9440 -1.7449 -2.2673
  970SOL     OW 2908   1.051   2.116   1.765  0.1628 -0.2671  0.0487
  970SOL    HW1 2909   0.955   2.123   1.729  0.1338  0.1722 -1.2816
  970SOL    HW2 2910   1.064   2.150   1.860 -0.6800  0.5107 -0.0211
  971SOL     OW 2911   2.790   2.100   1.888 -0.0546  0.1734  0.2953
  971SOL    HW1 2912   2.796   2.202   1.902  0.9738  0.3433  0.5326
  971SOL    HW2 2913   2.830   2.061   1.801 -0.9774 -0.8820  0.6637
  972SOL     OW 2914   2.053   2.398   0.233  0.1462 -0.1312  0.4109
  972SOL    HW1 2915   2.006   2.313   0.187 -2.1087  0.7108 -0.4828
  972SOL    HW2 2916   2.044   2.394   0.339  0.1549  2.4156  0.0924
  973SOL     OW 2917   1.315   1.079   1.960  0.1197 -0.1395  0.7116
  973SOL    HW1 2918   1.253   1.068   1.874 -0.9365 -0.2483 -0.9627
  973SOL    HW2 2919   1.286   1.166   2.014 -3.1729  2.9607  0.4784
  974SOL     OW 2920   1.601   0.606   1.935  0.1070 -0.1094 -0.3038
  974SOL    HW1 2921   1.690   0.633   1.887 -0.5736 -0.2138  3.1345
  974SOL    HW2 2922   1.529   0.683   1.935 -1.2567 -1.3089  0.4649
  975SOL     OW 2923   2.374   3.029   0.019 -0.1530 -0.0788 -0.6124
  975SOL    HW1 2924   2.325   2.940   0.036  0.2614  1.5628 -0.2992
  975SOL    HW2 2925   2.401   3.037  -0.085  1.7478 -1.0458 -3.3501
  976SOL     OW 2926   1.936   2.864   2.356 -0.0093 -0.7765  0.2624
  976SOL    HW1 2927   1.853   2.815   2.314 -2.4493 -0.7282  1.0273
  976SOL    HW2 2928   1.965   2.825   2.442 -0.0124 -1.1750 -3.1752
  977SOL     OW 2929   0.441   0.609   1.021  0.1014 -0.1975  0.2216
  977SOL    HW1 2930   0.350   0.619   0.976 -1.9234 -1.8611 -0.7229
  977SOL    HW2 2931   0.520   0.582   0.954  0.4203 -0.1060  2.7195
   3.10000   3.10000   3.10000
