1000 SPC/Fw water molecules t=   1.50000 step= 1500
 2931
    1SOL     OW    1   2.442   0.349   2.656  0.1796  0.0849 -0.0602
    1SOL    HW1    2   2.437   0.246   2.656  2.1929  1.5843  1.7277
    1SOL    HW2    3   2.495   0.383   2.731  0.4160 -0.0669 -1.1640
    2SOL     OW    4   2.719   2.985   1.400 -0.2223  0.1627  0.2023
    2SOL    HW1    5   2.822   2.999   1.387  0.0617 -0.2391 -0.3530
    2SOL    HW2    6   2.669   3.073   1.439 -1.1084 -0.1255 -0.4360
    3SOL     OW    7   2.655   2.548   0.395  0.3450  0.1013  0.1594
    3SOL    HW1    8   2.585   2.471   0.404 -0.8723 -1.3809  1.1317
    3SOL    HW2    9   2.661   2.608   0.480  1.9764 -2.2459  1.2983
    4SOL     OW   10   1.230   1.522   2.411  0.7424  0.5270 -0.2031
    4SOL    HW1   11   1.181   1.501   2.320 -0.4043 -0.2110  1.9591
    4SOL    HW2   12   1.223   1.446   2.484 -1.6009  0.1015  0.6007
    5SOL     OW   13   1.191   1.551   2.935  0.2126 -0.1916  0.7664
    5SOL    HW1   14   1.249   1.607   2.998 -0.5710  0.9044  0.2827
    5SOL    HW2   15   1.100   1.593   2.906 -0.4515 -5.0756 -0.9895
    6SOL     OW   16   0.283   1.782   3.012  0.0030 -0.0405  0.3551
    6SOL    HW1   17   0.189   1.800   3.059  2.4989  1.6847  2.3863
    6SOL    HW2   18   0.355   1.738   3.070 -1.9399 -1.6774 -7.1857
    7SOL     OW   19   2.473   0.903   1.028 -0.0349 -0.1880 -0.6796
    7SOL    HW1   20   2.399   0.854   1.086 -2.2793  1.4092 -0.5699
    7SOL    HW2   21   2.488   0.849   0.941 -2.1617 -0.1725 -1.3090
    8SOL     OW   22   0.363   0.686   1.518  0.5858  0.3311  0.3482
    8SOL    HW1   23   0.434   0.609   1.519  0.1652 -0.9689 -2.5056
    8SOL    HW2   24   0.372   0.760   1.444  1.3538  1.6754  1.6052
    9SOL     OW   25   1.162   0.854   2.346  0.0339  0.5002 -0.6198
    9SOL    HW1   26   1.236   0.888   2.287 -0.8018  0.0889  0.1441
    9SOL    HW2   27   1.133   0.755   2.333 -1.2704  1.5002 -0.9835
   10SOL     OW   28   0.733   1.398   1.265  0.1755  0.2730 -0.5091
   10SOL    HW1   29   0.656   1.395   1.198  2.1249 -1.1416 -3.1321
   10SOL    HW2   30   0.756   1.500   1.295  0.2740  3.0157 -1.2188
   11SOL     OW   31   2.303   2.826   0.862  0.2988 -0.0144  0.3067
   11SOL    HW1   32   2.249   2.807   0.955 -0.8543 -0.1743 -0.2580
   11SOL    HW2   33   2.396   2.861   0.873 -1.8589  0.9215  1.1506
   12SOL     OW   34   1.515   0.925   0.388 -0.1006 -0.5137 -0.3887
   12SOL    HW1   35   1.439   0.966   0.330  2.4150  1.1568 -1.1451
   12SOL    HW2   36   1.538   0.832   0.350 -0.4054  0.6308 -0.0984
   13SOL     OW   37   2.428   0.717   1.792  0.2520  1.2723  0.0678
   13SOL    HW1   38   2.351   0.669   1.844  1.8848 -1.4116  0.5531
   13SOL    HW2   39   2.442   0.697   1.693  1.2910 -0.4124  1.1337
   14SOL     OW   40   1.975   3.082   0.594  0.2589 -0.4335  0.3065
   14SOL    HW1   41   1.878   3.115   0.574 -0.7928 -0.5816 -2.8487
   14SOL    HW2   42   1.981   3.050   0.693  0.0647 -0.1541 -1.9811
   15SOL     OW   43   1.884   2.064   2.665  0.3527  0.0348 -0.4035
   15SOL    HW1   44   1.848   2.054   2.762 -0.2578  1.4566  1.1931
   15SOL    HW2   45   1.857   1.985   2.602 -1.8729  0.4431 -0.5202
   16SOL     OW   46   1.599   1.752   3.028 -0.5565 -0.2079  0.2607
   16SOL    HW1   47   1.619   1.647   3.030 -1.7846 -1.0577  0.7654
   16SOL    HW2   48   1.672   1.814   3.067 -0.7973  2.5845  0.1388
   17SOL     OW   49   0.114   0.429   0.176  0.3004 -0.0360  0.2558
   17SOL    HW1   50   0.180   0.486   0.121  0.5962 -0.5258  1.5448
   17SOL    HW2   51   0.035   0.408   0.108 -1.4365  1.3472 -0.4349
   18SOL     OW   52   0.900   2.960   2.135 -0.5741 -0.9512 -0.2098
   18SOL    HW1   53   0.854   2.880   2.174  1.0299 -2.1701  2.4625
   18SOL    HW2   54   0.964   2.944   2.051  3.5848  0.1769 -0.3858
   19SOL     OW   55   0.596   0.856   1.906  0.1648 -0.1268  0.4657
   19SOL    HW1   56   0.680   0.813   1.953  0.7305 -1.4278  0.2277
   19SOL    HW2   57   0.621   0.943   1.857  0.8431  0.2857  0.8914
   20SOL     OW   58   0.222   2.851   0.839 -0.6614  0.4383  0.0492
   20SOL    HW1   59   0.119   2.873   0.834  0.9403 -0.1533  2.0692
   20SOL    HW2   60   0.252   2.756   0.815 -2.3629 -0.8093  0.1621
   21SOL     OW   61   2.757   0.296   1.987 -0.5450  0.6383  0.2530
   21SOL    HW1   62   2.749   0.221   1.918 -0.0938  0.1441 -0.3744
   21SOL    HW2   63   2.834   0.274   2.057 -1.1148 -0.1416  2.0808
   22SOL     OW   64   2.363   0.190   0.138 -0.2575  0.1541  0.0495
   22SOL    HW1   65   2.354   0.097   0.101 -0.0420 -0.4588  1.3798
   22SOL    HW2   66   2.298   0.257   0.087 -3.0380  3.1287 -1.2456
   23SOL     OW   67   2.832   0.523   0.674 -0.0828  0.1366 -0.6170
   23SOL    HW1   68   2.829   0.443   0.609  1.3981 -0.9961  3.3576
   23SOL    HW2   69   2.848   0.611   0.625 -0.2272 -0.1996  0.1334
   24SOL     OW   70   0.245   1.846   0.420 -0.0595 -0.0774 -0.6069
   24SOL    HW1   71   0.214   1.926   0.364  2.7313 -0.0375 -0.7816
   24SOL    HW2   72   0.342   1.811   0.391  0.3523  0.8855 -0.1340
   25SOL     OW   73   2.266   0.605   0.211 -0.0683 -0.2788 -0.1857
   25SOL    HW1   74   2.248   0.594   0.108  0.0745 -0.5089 -0.1437
   25SOL    HW2   75   2.321   0.523   0.244  0.1378 -0.6627 -0.5280
   26SOL     OW   76   2.437   2.144   2.107 -0.3315  0.4302  0.4308
   26SOL    HW1   77   2.533   2.178   2.128  0.1069 -0.8337 -0.2073
   26SOL    HW2   78   2.435   2.078   2.027 -0.1113 -0.3655  0.9584
   27SOL     OW   79   0.557   2.925   0.154 -0.0603 -0.3079 -0.2424
   27SOL    HW1   80   0.642   2.985   0.146 -0.1554  2.0263  2.3957
   27SOL    HW2   81   0.530   2.892   0.056 -0.4917  0.3283  0.1179
   28SOL     OW   82   1.625   0.118   0.317 -0.5512  0.7852 -0.5286
   28SOL    HW1   83   1.645   0.088   0.217  0.1931  0.3578 -2.0944
   28SOL    HW2   84   1.644   0.217   0.330 -0.3619 -2.2564 -2.3112
   29SOL     OW   85   2.007   0.614   0.285  0.7282  0.3541  0.0349
   29SOL    HW1   86   1.994   0.691   0.355  0.8632  1.0931 -1.5074
   29SOL    HW2   87   2.113   0.604   0.274  1.9284  0.3388  0.2915
   30SOL     OW   88   0.196   2.067   0.906 -0.5781  0.3984  0.1595
   30SOL    HW1   89   0.215   1.991   0.837  1.3829 -1.5764  2.0726
   30SOL    HW2   90   0.096   2.093   0.914  0.1274  0.5175  1.2366
   31SOL     OW   91   2.189   0.060   2.366 -0.5564 -0.6490 -0.7626
   31SOL    HW1   92   2.139   0.033   2.454  0.0848  1.5148 -1.2758
   31SOL    HW2   93   2.135   0.036   2.283  1.0610 -0.0512  1.7223
   32SOL     OW   94   2.994   3.061   0.268  0.5626  0.1733  0.3468
   32SOL    HW1   95   2.953   2.965   0.277  2.0499  2.4002  1.8350
   32SOL    HW2   96   3.086   3.076   0.310 -0.0731  2.7153  1.3611
   33SOL     OW   97   0.893   0.197   0.627 -0.1614 -0.4589  0.0247
   33SOL    HW1   98   0.870   0.145   0.542  0.8664  0.6023  0.8609
   33SOL    HW2   99   0.982   0.253   0.616  1.7892  0.9735 -1.1525
   34SOL     OW  100   0.326   2.700   1.076 -0.1644 -0.4006 -0.4081
   34SOL    HW1  101   0.281   2.766   1.012 -1.6369 -1.8320 -0.9434
   34SOL    HW2  102   0.403   2.747   1.122  0.4245 -0.6691  0.4173
   35SOL     OW  103   0.030   0.117   1.879  1.1971  0.7276  0.5494
   35SOL    HW1  104   0.050   0.018   1.892 -2.3274  0.2055  0.2501
   35SOL    HW2  105  -0.024   0.138   1.791 -0.3370 -2.3937 -0.9712
   36SOL     OW  106   1.892   1.185   1.516  0.2304 -0.2342  0.2405
   36SOL    HW1  107   1.970   1.114   1.539  0.1335 -1.5537 -2.0687
   36SOL    HW2  108   1.912   1.250   1.434 -0.9364 -0.2475 -2.0663
   37SOL     OW  109   1.123   0.194   0.967 -0.2533  0.1807 -0.1217
   37SOL    HW1  110   1.150   0.298   0.963 -0.2558 -0.1326  1.2916
   37SOL    HW2  111   1.194   0.141   0.916 -1.1082  0.4563 -1.4441
   38SOL     OW  112   1.171   2.893   2.458 -1.0328 -0.4984  0.6924
   38SOL    HW1  113   1.072   2.876   2.453  4.4653 -1.1331  0.2834
   38SOL    HW2  114   1.196   2.984   2.415  1.6327 -0.6186  0.7427
   39SOL     OW  115   2.471   1.404   3.050  0.4060 -0.2335  0.4054
   39SOL    HW1  116   2.542   1.331   3.073 -0.5908  0.2798 -2.0004
   39SOL    HW2  117   2.386   1.402   3.114 -1.3961  1.1231  1.3754
   40SOL     OW  118   2.032   2.526   2.614 -0.0905  0.1557 -0.0609
   40SOL    HW1  119   1.992   2.622   2.594 -2.1217 -0.6330  0.5009
   40SOL    HW2  120   1.992   2.460   2.545  2.6543  3.0783  0.7430
   41SOL     OW  121   3.026   0.692   2.811  0.3359  0.9032 -0.0888
   41SOL    HW1  122   2.968   0.747   2.877 -0.9595  0.2662 -0.2309
   41SOL    HW2  123   2.973   0.645   2.731 -1.8760  0.8705 -2.8863
   42SOL     OW  124   1.794   1.729   0.571  0.1740 -0.1832 -0.0843
   42SOL    HW1  125   1.736   1.642   0.568  2.2541  1.3694  1.1938
   42SOL    HW2  126   1.830   1.762   0.479 -0.7854 -0.6301 -2.3159
   43SOL     OW  127   0.481   1.670   1.212 -0.8868 -0.0312 -0.4784
   43SOL    HW1  128   0.481   1.577   1.161  0.0310  2.7394 -0.9153
   43SOL    HW2  129   0.414   1.673   1.288  0.3991  1.2297 -0.1450
   44SOL     OW  130   1.645   2.377   2.980 -0.5605 -0.0957  0.1400
   44SOL    HW1  131   1.553   2.420   2.974 -2.9406 -3.3185 -1.5156
   44SOL    HW2  132   1.699   2.412   2.900  0.6664 -0.4528  1.0487
   45SOL     OW  133   0.360   1.915   2.562 -0.6049 -0.0236  0.0792
   45SOL    HW1  134   0.308   1.893   2.473 -1.7864 -0.7727 -0.3606
   45SOL    HW2  135   0.433   1.846   2.583  1.5762  0.2810  1.7604
   46SOL     OW  136   1.260   0.712   0.277 -0.9916  0.6007  0.0446
   46SOL    HW1  137   1.281   0.808   0.239 -1.2577  0.6172  1.5153
   46SOL    HW2  138   1.199   0.653   0.216 -0.0870  0.1024  0.6802
   47SOL     OW  139   0.173   2.447   1.554 -0.2007  0.0240 -0.6580
   47SOL    HW1  140   0.127   2.356   1.565  0.7182 -3.2462  1.2253
   47SOL    HW2  141   0.182   2.478   1.458 -0.1481 -1.6147 -0.8256
   48SOL     OW  142   2.681   0.631   0.149 -0.1278 -0.2307 -0.7282
   48SOL    HW1  143   2.645   0.644   0.246 -0.1879 -0.9402  2.7024
   48SOL    HW2  144   2.780   0.646   0.132 -0.1757  2.1660  1.4827
   49SOL     OW  145   0.337   0.821   1.750  0.3650  0.7545 -0.1138
   49SOL    HW1  146   0.425   0.809   1.806 -0.6466 -2.0003 -1.6447
   49SOL    HW2  147   0.343   0.762   1.665  1.4202  0.3258  1.0914
   50SOL     OW  148   1.747   1.149   0.308 -0.0969  0.2313 -0.1905
   50SOL    HW1  149   1.753   1.051   0.268  1.4467 -0.5130  0.7418
   50SOL    HW2  150   1.688   1.153   0.395  0.2669  0.1512 -0.9695
   51SOL     OW  151   3.005   1.741   0.263 -0.0799  0.1310  0.1305
   51SOL    HW1  152   2.954   1.673   0.199  1.5064 -1.5620 -1.9442
   51SOL    HW2  153   3.005   1.710   0.362 -0.7556  1.5566 -0.9829
   52SOL     OW  154   0.789   2.147   0.644 -0.4238 -0.2985  0.0403
   52SOL    HW1  155   0.701   2.188   0.608 -1.1697  0.8072 -4.0851
   52SOL    HW2  156   0.773   2.064   0.703 -1.3310  1.6880 -0.2800
   53SOL     OW  157   0.232   0.433   1.494  0.0378 -0.5258  0.1155
   53SOL    HW1  158   0.252   0.535   1.483  2.0753 -2.6367 -0.4887
   53SOL    HW2  159   0.138   0.405   1.465  0.4142 -1.1770 -1.8213
   54SOL     OW  160   1.751   0.490   3.087 -0.5602 -0.5691 -0.0416
   54SOL    HW1  161   1.818   0.453   3.152 -3.6314  0.2575  1.1854
   54SOL    HW2  162   1.651   0.480   3.115 -1.9764  0.0333  2.0369
   55SOL     OW  163   0.723   2.942   0.674 -0.0117 -0.3724 -0.8972
   55SOL    HW1  164   0.664   3.023   0.650  1.9022  1.2931 -0.0359
   55SOL    HW2  165   0.816   2.953   0.632 -0.7039  2.1397 -0.4187
   56SOL     OW  166   0.585   1.576   3.061  0.0100 -0.0991 -0.3469
   56SOL    HW1  167   0.524   1.609   3.135 -0.5551 -2.8180  1.7161
   56SOL    HW2  168   0.545   1.502   3.001  1.7130 -1.7442  0.4410
   57SOL     OW  169   1.723   2.510   2.396 -0.5266  0.3839 -0.2821
   57SOL    HW1  170   1.779   2.419   2.401  0.1502  0.6243  0.7662
   57SOL    HW2  171   1.645   2.512   2.467 -2.9839 -1.8291 -0.8278
   58SOL     OW  172   0.666   0.232   1.092 -0.0204 -0.7033  0.5586
   58SOL    HW1  173   0.564   0.237   1.115  0.7538  0.1882 -2.2058
   58SOL    HW2  174   0.706   0.143   1.120 -0.5589  0.3622  1.0466
   59SOL     OW  175   0.457   2.392   2.719 -0.0007 -0.7389 -0.2293
   59SOL    HW1  176   0.454   2.295   2.683  1.2688 -1.5280  2.3111
   59SOL    HW2  177   0.558   2.433   2.730  0.0074  2.4061 -0.1387
   60SOL     OW  178   2.300   2.100   2.349  1.0252 -0.5514  0.0698
   60SOL    HW1  179   2.365   2.115   2.269 -1.1187  1.8821 -3.4022
   60SOL    HW2  180   2.327   2.150   2.434  2.0931  0.3060  1.5998
   61SOL     OW  181   1.200   0.643   0.540 -0.2162 -0.0665  0.0864
   61SOL    HW1  182   1.107   0.681   0.540 -1.0024  0.1774 -1.1700
   61SOL    HW2  183   1.238   0.679   0.451  1.6415 -2.7256  2.3217
   62SOL     OW  184   2.733   1.711   2.743  0.3239  0.0573 -0.3796
   62SOL    HW1  185   2.666   1.634   2.709  1.0275 -0.4903 -1.8810
   62SOL    HW2  186   2.816   1.680   2.799  1.3474  1.6844 -0.5269
   63SOL     OW  187   0.515   0.912   0.196 -0.5277  0.3464  0.2264
   63SOL    HW1  188   0.570   0.977   0.135 -1.5440  0.3517 -0.9483
   63SOL    HW2  189   0.533   0.925   0.296 -1.1136 -0.6496 -0.3343
   64SOL     OW  190   3.020   0.587   2.306 -0.3088  0.5020 -0.6523
   64SOL    HW1  191   2.995   0.642   2.387  0.3631 -0.0181  0.5467
   64SOL    HW2  192   3.050   0.647   2.232  0.7828 -1.7911  0.7242
   65SOL     OW  193   0.212   1.438   0.725  0.6604  0.3750  0.2850
   65SOL    HW1  194   0.200   1.511   0.795  0.6629 -0.1015  1.3580
   65SOL    HW2  195   0.287   1.462   0.654 -0.0871 -1.9771 -2.3383
   66SOL     OW  196   2.541   0.357   0.528  0.4752 -0.5703 -0.1753
   66SOL    HW1  197   2.639   0.342   0.503 -2.6174 -0.3554  1.3278
   66SOL    HW2  198   2.514   0.320   0.621 -1.0988 -0.6203  1.0741
   67SOL     OW  199   0.622   2.490   1.471 -0.0359 -0.1778 -0.2269
   67SOL    HW1  200   0.703   2.453   1.519 -1.5630 -0.5705  1.6944
   67SOL    HW2  201   0.553   2.418   1.433 -1.3669  0.4216  1.0236
   68SOL     OW  202   0.974   1.005   2.440 -0.5807  0.2580 -0.3640
   68SOL    HW1  203   1.064   0.960   2.398  4.6368  1.1964  1.3429
   68SOL    HW2  204   0.887   1.004   2.382 -0.7866 -1.8191 -1.9927
   69SOL     OW  205   0.813   2.744   2.314  0.1681  0.0071  0.4997
   69SOL    HW1  206   0.839   2.687   2.232 -0.0836  0.2722  0.7912
   69SOL    HW2  207   0.710   2.735   2.327  0.3901  1.0269  1.0587
   70SOL     OW  208   0.427   0.121   2.489 -0.1334  0.3880 -0.0345
   70SOL    HW1  209   0.344   0.061   2.510  1.3100  0.8734  0.5535
   70SOL    HW2  210   0.507   0.058   2.506 -1.5117  0.6028  0.1372
   71SOL     OW  211   1.070   1.736   0.312 -1.0113  0.5636  0.1869
   71SOL    HW1  212   1.012   1.701   0.394 -0.1477 -0.9064 -0.5521
   71SOL    HW2  213   1.015   1.787   0.243 -0.9275  2.3494 -1.4154
   72SOL     OW  214   1.824   0.223   2.167  0.1315 -0.0438  0.1542
   72SOL    HW1  215   1.890   0.300   2.176  2.2062  1.5396 -1.6259
   72SOL    HW2  216   1.864   0.132   2.173  0.4310  1.7948 -0.7741
   73SOL     OW  217   2.770   2.187   2.440 -0.2038 -0.2913  0.6001
   73SOL    HW1  218   2.754   2.092   2.401  0.5625  0.0367 -0.9890
   73SOL    HW2  219   2.802   2.175   2.537  2.5234 -2.1154  0.9272
   74SOL     OW  220   2.729   2.877   2.161  0.1278 -0.0631 -0.0509
   74SOL    HW1  221   2.664   2.865   2.246 -2.3538  0.6239 -0.0595
   74SOL    HW2  222   2.797   2.951   2.180 -2.5490  0.2590  1.2881
   75SOL     OW  223   0.997   0.856   1.111 -0.3391 -0.6262  0.0889
   75SOL    HW1  224   0.906   0.885   1.075  1.9193  0.4285  1.0531
   75SOL    HW2  225   1.021   0.886   1.209 -2.7519  1.1903  0.0735
   76SOL     OW  226   1.873   1.266   2.528 -0.1553  0.1238  0.6044
   76SOL    HW1  227   1.772   1.273   2.519  2.0726 -0.2845 -0.3396
   76SOL    HW2  228   1.903   1.345   2.586 -1.1578 -2.7838  3.0971
   77SOL     OW  229   2.880   0.934   1.055 -0.1045  0.1292 -0.2985
   77SOL    HW1  230   2.861   0.832   1.042  0.6585 -3.0796  0.3819
   77SOL    HW2  231   2.976   0.953   1.094 -0.2758 -3.0330  1.6446
   78SOL     OW  232   2.000   1.335   1.311  0.2443  0.2230 -1.2681
   78SOL    HW1  233   2.100   1.330   1.295 -2.2536  3.1634  1.4552
   78SOL    HW2  234   1.963   1.421   1.264 -1.1604  0.2431  2.4831
   79SOL     OW  235   0.681   1.425   0.830 -0.0187  0.2846  0.7838
   79SOL    HW1  236   0.584   1.399   0.846  2.9709  2.2844 -3.8976
   79SOL    HW2  237   0.735   1.354   0.782 -1.6720  0.8120  0.0933
   80SOL     OW  238   0.553   0.518   1.540 -0.0618 -1.3110  0.2229
   80SOL    HW1  239   0.605   0.578   1.473 -0.7799 -3.0427  1.9736
   80SOL    HW2  240   0.579   0.419   1.546 -0.6603 -0.2600  3.1824
   81SOL     OW  241   0.997   1.269   2.593  0.4850 -0.6195 -0.7849
   81SOL    HW1  242   1.009   1.185   2.536  0.2590  0.0351 -0.1679
   81SOL    HW2  243   0.923   1.325   2.555 -0.2149 -1.3022  1.4421
   82SOL     OW  244   0.952   2.866   1.526 -0.5535  0.1792 -0.3834
   82SOL    HW1  245   0.884   2.794   1.495  0.5846 -0.7278  1.2346
   82SOL    HW2  246   1.026   2.892   1.458 -1.2936 -0.5361  1.8439
   83SOL     OW  247   2.556   2.360   0.892  0.1855  0.4703  0.1336
   83SOL    HW1  248   2.488   2.326   0.818  0.3954 -0.2757  1.7754
   83SOL    HW2  249   2.580   2.455   0.873 -0.1192  1.7365 -1.1162
   84SOL     OW  250   0.734   0.022   2.335 -0.0822  0.0324 -0.8657
   84SOL    HW1  251   0.683  -0.015   2.420 -0.1625 -0.6933  0.8490
   84SOL    HW2  252   0.776  -0.050   2.277 -1.9174 -0.2031  0.1559
   85SOL     OW  253   0.276   1.664   1.426  0.2610  0.4384 -0.1398
   85SOL    HW1  254   0.239   1.750   1.465 -2.2738  1.8173  0.8081
   85SOL    HW2  255   0.312   1.595   1.496  3.2823 -0.1966 -2.1813
   86SOL     OW  256   0.396   1.021   1.573 -0.4429  0.0236  0.0665
   86SOL    HW1  257   0.421   0.966   1.486 -0.8472 -0.2205  1.2808
   86SOL    HW2  258   0.375   0.959   1.654  0.2223  1.5639 -2.6135
   87SOL     OW  259   1.614   0.647   0.325 -0.4106 -0.2688  0.9518
   87SOL    HW1  260   1.702   0.706   0.302 -0.8110 -0.6750 -1.4130
   87SOL    HW2  261   1.573   0.612   0.235  2.2405  0.6846  2.1947
   88SOL     OW  262   1.602   1.397   0.271  0.1248 -0.1494 -0.3459
   88SOL    HW1  263   1.651   1.305   0.280 -2.3440 -2.8638 -0.1317
   88SOL    HW2  264   1.503   1.390   0.235 -0.2899  3.2260 -0.8770
   89SOL     OW  265   0.013   0.351   0.576  0.4573 -0.3423 -0.2177
   89SOL    HW1  266   0.066   0.261   0.590 -0.9226 -1.3687 -0.6934
   89SOL    HW2  267  -0.095   0.339   0.567  0.5053  3.3562  1.7248
   90SOL     OW  268   0.780   1.589   0.159 -0.0670 -0.5057 -0.2826
   90SOL    HW1  269   0.833   1.502   0.170  0.7896 -1.3365  0.6458
   90SOL    HW2  270   0.705   1.588   0.085 -0.4770 -0.1663  0.4631
   91SOL     OW  271   1.188   1.495   1.784  0.2811  0.5272  0.0861
   91SOL    HW1  272   1.182   1.576   1.845  0.6221  1.5125  2.3825
   91SOL    HW2  273   1.219   1.415   1.840 -0.9245  0.1459  0.8980
   92SOL     OW  274   0.022   0.984   1.211  0.0369  0.0812  0.0608
   92SOL    HW1  275   0.081   1.062   1.174  1.0715 -0.5889 -1.8931
   92SOL    HW2  276   0.010   0.979   1.316 -0.5857  2.3174  0.5144
   93SOL     OW  277   3.044   2.699   0.033  0.3209 -0.8423  0.2837
   93SOL    HW1  278   2.967   2.671  -0.031  2.3182 -1.5733  1.5610
   93SOL    HW2  279   3.088   2.621   0.086  0.3932  1.5756  0.1313
   94SOL     OW  280   1.509   1.344   1.710 -0.4322 -0.7443 -0.7829
   94SOL    HW1  281   1.601   1.296   1.729  0.0072  0.0757  0.4294
   94SOL    HW2  282   1.506   1.437   1.748  0.8061 -0.9865 -0.6191
   95SOL     OW  283   1.392   2.467   2.932  0.0003 -0.4824 -0.2402
   95SOL    HW1  284   1.318   2.476   3.000  2.4202  0.2307 -0.2573
   95SOL    HW2  285   1.378   2.374   2.881 -1.9176 -2.8702 -0.7398
   96SOL     OW  286   0.587   2.121   1.278 -0.3335  0.7563  0.1882
   96SOL    HW1  287   0.498   2.074   1.260 -0.9916  2.1438 -0.6265
   96SOL    HW2  288   0.641   2.075   1.352  0.2994 -0.1822 -0.0211
   97SOL     OW  289   0.280   1.644   2.430 -0.4614  0.1770  0.1369
   97SOL    HW1  290   0.232   1.709   2.363 -2.0740 -0.1545  0.2050
   97SOL    HW2  291   0.257   1.652   2.528 -1.4474 -1.1022 -1.2404
   98SOL     OW  292   2.221   1.654   1.235 -0.2416  0.5240 -0.2757
   98SOL    HW1  293   2.135   1.592   1.231 -0.7900 -0.9300 -0.9904
   98SOL    HW2  294   2.300   1.630   1.168 -2.0104  0.9082  0.9649
   99SOL     OW  295   2.572   2.132   1.288  0.5731 -0.4618 -0.6101
   99SOL    HW1  296   2.652   2.158   1.342 -1.1438 -0.0050  2.5501
   99SOL    HW2  297   2.545   2.031   1.306  0.3813 -0.0583  1.5293
  100SOL     OW  298   2.306   0.401   2.111 -0.2965 -0.1029  0.0160
  100SOL    HW1  299   2.256   0.366   2.194 -0.5065 -0.0012 -1.4957
  100SOL    HW2  300   2.402   0.431   2.141 -0.1509 -0.3888  2.4232
  101SOL     OW  301   0.403   1.546   0.530 -0.0407 -0.3510 -0.2087
  101SOL    HW1  302   0.437   1.641   0.564 -1.0581 -0.5708  1.7715
  101SOL    HW2  303   0.467   1.499   0.465 -2.4489  0.1318  3.4692
  102SOL     OW  304   2.289   1.081   0.857 -0.5801  0.0589 -0.5230
  102SOL    HW1  305   2.280   0.976   0.875  0.1352 -1.8807 -0.1322
  102SOL    HW2  306   2.369   1.102   0.799  0.4096  0.3815 -0.9282
  103SOL     OW  307   2.254   0.057   0.350  0.2374 -0.4185  0.0970
  103SOL    HW1  308   2.270   0.125   0.273  3.4037  0.2063  0.2118
  103SOL    HW2  309   2.346   0.040   0.396  1.1543 -0.1851  0.1140
  104SOL     OW  310   0.029   1.784   2.136 -0.0157 -0.6050  0.4380
  104SOL    HW1  311   0.091   1.805   2.056  1.6079 -1.0526 -1.1577
  104SOL    HW2  312  -0.076   1.802   2.126 -1.0340  1.3706  0.2871
  105SOL     OW  313   1.388   2.095   0.787  0.4546  0.3593  0.1247
  105SOL    HW1  314   1.408   2.123   0.690 -1.6154  0.7063 -1.9012
  105SOL    HW2  315   1.363   1.994   0.788  1.3625  0.8738 -1.9841
  106SOL     OW  316   2.151   0.391   1.448  0.5616 -0.2808  0.0410
  106SOL    HW1  317   2.096   0.305   1.439 -0.5594  1.8865 -0.1177
  106SOL    HW2  318   2.155   0.425   1.548  1.9405  5.6009 -1.7009
  107SOL     OW  319   1.953   2.935   1.166 -0.0367 -0.3607 -0.6164
  107SOL    HW1  320   1.862   2.983   1.165 -1.6276 -3.5063 -0.5937
  107SOL    HW2  321   1.942   2.845   1.112  0.1106  0.4564  1.7335
  108SOL     OW  322   0.830   2.855   1.206 -0.1951 -0.4443  0.1187
  108SOL    HW1  323   0.833   2.781   1.134  0.2126 -2.4615  0.9251
  108SOL    HW2  324   0.924   2.866   1.252  0.4860  0.8221  0.3940
  109SOL     OW  325   2.152   0.185   0.709 -0.0155  0.5117 -0.1035
  109SOL    HW1  326   2.094   0.111   0.666 -1.0532  0.5879  0.4046
  109SOL    HW2  327   2.104   0.222   0.795  0.0120  0.2428  1.0098
  110SOL     OW  328   0.466   2.774   2.772  0.2315 -0.4473 -1.2166
  110SOL    HW1  329   0.439   2.796   2.676  0.4724  0.4716  3.1301
  110SOL    HW2  330   0.561   2.731   2.779  2.6270  0.6023  0.9156
  111SOL     OW  331   1.279   0.488   2.303  0.2020 -0.0427 -0.2577
  111SOL    HW1  332   1.188   0.529   2.327  0.7563  0.7930 -0.0140
  111SOL    HW2  333   1.328   0.434   2.377 -1.9191  0.0841 -3.8025
  112SOL     OW  334   1.772   0.376   1.484  0.0138 -0.4431 -0.1425
  112SOL    HW1  335   1.727   0.392   1.394 -0.9922 -0.7404  1.8750
  112SOL    HW2  336   1.696   0.366   1.559  0.5344 -0.4482  1.4632
  113SOL     OW  337   2.383   1.707   1.768  0.1163  0.1930  1.0020
  113SOL    HW1  338   2.379   1.607   1.758  0.5209  1.4572 -0.1705
  113SOL    HW2  339   2.415   1.740   1.859 -1.9656  0.1450  0.9651
  114SOL     OW  340   0.311   0.469   1.216  0.7782 -0.6130 -0.6452
  114SOL    HW1  341   0.387   0.528   1.171  1.2919 -0.1456  0.6605
  114SOL    HW2  342   0.229   0.528   1.253 -1.6885  0.3082 -0.0085
  115SOL     OW  343   2.691   1.554   1.194 -0.4359  0.1710  0.3471
  115SOL    HW1  344   2.689   1.464   1.237  0.7716  1.4095 -1.8355
  115SOL    HW2  345   2.782   1.562   1.145 -1.5673 -0.8426 -2.3512
  116SOL     OW  346   1.905   0.919   0.753  0.9794 -0.3408  0.3171
  116SOL    HW1  347   1.844   0.835   0.722 -1.7262 -0.6456 -0.6881
  116SOL    HW2  348   1.869   1.013   0.714 -0.6004  1.9832 -0.6549
  117SOL     OW  349   1.117   0.346   0.583  0.7139  0.1195  0.2559
  117SOL    HW1  350   1.144   0.438   0.607  0.1475 -4.6116 -0.0302
  117SOL    HW2  351   1.082   0.351   0.487 -0.0562  2.9363  0.1263
  118SOL     OW  352   1.118   1.218   1.075  0.3342  0.2310 -0.3931
  118SOL    HW1  353   1.042   1.185   1.138  2.0419  0.5356 -0.5216
  118SOL    HW2  354   1.147   1.317   1.098 -0.7809  1.3376 -0.6866
  119SOL     OW  355   1.862   1.550   2.201 -0.1154  0.4183 -0.3207
  119SOL    HW1  356   1.804   1.629   2.166 -1.3913 -2.0723 -2.0015
  119SOL    HW2  357   1.963   1.563   2.189  0.4525 -2.4000 -5.1286
  120SOL     OW  358   2.900   2.783   0.245 -0.1461 -0.0258 -0.0040
  120SOL    HW1  359   2.966   2.777   0.164 -1.9365  0.3125  0.0208
  120SOL    HW2  360   2.805   2.748   0.234 -0.9528 -0.6005  0.0012
  121SOL     OW  361   1.963   0.747   2.256  0.7887 -0.1573  0.4513
  121SOL    HW1  362   1.972   0.814   2.177  1.6127  2.7465  0.9195
  121SOL    HW2  363   1.950   0.649   2.228 -1.0426  1.2993  1.7804
  122SOL     OW  364   2.595   2.486   1.326  0.7537 -0.0944 -0.1155
  122SOL    HW1  365   2.639   2.477   1.233 -3.2977 -1.0028  1.1327
  122SOL    HW2  366   2.648   2.434   1.405  3.5964 -2.6961 -3.0763
  123SOL     OW  367   1.694   0.150   1.749  0.0852 -0.7754  0.4053
  123SOL    HW1  368   1.713   0.081   1.676  1.7503  1.7116  2.5599
  123SOL    HW2  369   1.780   0.191   1.778 -0.1896 -3.0884  0.7931
  124SOL     OW  370   3.070   0.441   1.089 -0.0341  0.0612  0.4116
  124SOL    HW1  371   2.982   0.468   1.135  0.6292 -0.7287  0.2453
  124SOL    HW2  372   3.089   0.481   0.996 -2.1609 -0.4296 -0.4145
  125SOL     OW  373   0.866   1.927   0.828 -0.0405  0.8633 -0.0529
  125SOL    HW1  374   0.945   1.866   0.818  0.6907 -1.3776  0.0420
  125SOL    HW2  375   0.882   1.997   0.906  1.2818 -1.1596 -0.2773
  126SOL     OW  376   1.897   2.299   2.471 -0.5006 -0.1263  0.9827
  126SOL    HW1  377   1.931   2.247   2.386  0.8918 -1.2276 -1.0541
  126SOL    HW2  378   1.872   2.226   2.544 -4.4166  0.0061  0.8306
  127SOL     OW  379   0.876   0.993   0.225 -0.1076 -0.2084 -0.4696
  127SOL    HW1  380   0.941   1.007   0.310  0.1761 -1.6119  0.9066
  127SOL    HW2  381   0.872   0.894   0.197 -0.5691  2.1798  0.3305
  128SOL     OW  382   0.956   0.248   1.448 -0.1706 -0.4727 -0.0128
  128SOL    HW1  383   0.921   0.337   1.413  2.3053  0.1925  3.4026
  128SOL    HW2  384   0.901   0.159   1.449 -0.4706  0.6140 -0.0646
  129SOL     OW  385   1.852   0.703   1.864  0.1153  0.6475  0.0633
  129SOL    HW1  386   1.837   0.698   1.758 -1.9507  0.5432  2.4067
  129SOL    HW2  387   1.894   0.793   1.898 -0.0570 -0.8964  2.2795
  130SOL     OW  388   1.355   2.299   0.970 -0.8687  0.1565  0.0553
  130SOL    HW1  389   1.368   2.225   0.898 -0.4340 -2.3888  0.7956
  130SOL    HW2  390   1.437   2.364   0.971 -1.2715 -1.6801 -0.0881
  131SOL     OW  391   3.090   1.418   1.364  0.3175 -0.0596  0.0811
  131SOL    HW1  392   3.072   1.319   1.386 -2.4448 -2.0959  0.6390
  131SOL    HW2  393   3.189   1.429   1.345 -0.7612 -4.4872 -0.0937
  132SOL     OW  394   2.049   2.356   0.517 -0.3327 -0.0119  0.5785
  132SOL    HW1  395   1.950   2.393   0.532 -0.1416 -0.6376 -0.5743
  132SOL    HW2  396   2.079   2.290   0.589 -0.5299  0.5240  0.8684
  133SOL     OW  397   1.745   2.440   2.736 -0.5552  0.9180  0.1425
  133SOL    HW1  398   1.676   2.494   2.682 -1.1443  2.4394  0.8227
  133SOL    HW2  399   1.840   2.466   2.727 -0.5683  0.8998 -0.3809
  134SOL     OW  400   2.695   2.398   1.585 -0.1732 -0.0287  0.1980
  134SOL    HW1  401   2.640   2.384   1.673  0.7100  0.0439 -2.1806
  134SOL    HW2  402   2.786   2.448   1.598 -1.4484  1.6577 -2.6751
  135SOL     OW  403   0.736   1.424   2.656  0.2771 -0.1220 -0.7034
  135SOL    HW1  404   0.727   1.337   2.708  1.5732  2.3217 -3.3189
  135SOL    HW2  405   0.736   1.408   2.552  0.2352 -2.6576  0.5150
  136SOL     OW  406   1.184   2.039   0.385  0.3784 -0.1380 -0.2179
  136SOL    HW1  407   1.106   2.108   0.398  1.3201  2.3908 -1.2530
  136SOL    HW2  408   1.156   1.948   0.419 -1.1002  0.0998  1.9633
  137SOL     OW  409   0.407   1.222   2.242  0.2258 -0.0137  0.0268
  137SOL    HW1  410   0.318   1.220   2.298 -0.3189  1.4724  1.3754
  137SOL    HW2  411   0.453   1.124   2.240 -1.7274 -0.4590  0.3716
  138SOL     OW  412   2.439   1.531   0.265 -0.4528  0.0286  0.2414
  138SOL    HW1  413   2.370   1.508   0.190  1.6601 -1.9105 -2.7861
  138SOL    HW2  414   2.462   1.442   0.313 -1.7011 -0.0845 -0.8175
  139SOL     OW  415   1.839   2.670   1.584 -0.5563  0.4212 -0.1431
  139SOL    HW1  416   1.750   2.715   1.556  0.7280 -0.0200  2.3145
  139SOL    HW2  417   1.849   2.577   1.536  1.3066 -0.5327 -0.2953
  140SOL     OW  418   2.985   2.969   2.606  0.1165  0.1790 -0.4584
  140SOL    HW1  419   3.053   2.887   2.596  1.2930  1.0104 -1.0850
  140SOL    HW2  420   3.031   3.058   2.575  1.4806  1.9575  0.3359
  141SOL     OW  421   1.301   1.614   1.543  0.1048 -0.1442  0.1287
  141SOL    HW1  422   1.218   1.667   1.508  1.6698  0.1920 -1.4408
  141SOL    HW2  423   1.272   1.550   1.622 -0.5299 -2.0935  0.3320
  142SOL     OW  424   1.504   0.661   2.209  0.0464  0.3601 -0.2638
  142SOL    HW1  425   1.473   0.725   2.133 -0.9608 -0.6771  1.2361
  142SOL    HW2  426   1.437   0.585   2.224  1.5526  0.5796 -1.7393
  143SOL     OW  427   2.771   0.811   0.556 -0.1457  0.3510 -0.0493
  143SOL    HW1  428   2.814   0.875   0.479  1.3019 -2.1204  0.0856
  143SOL    HW2  429   2.784   0.854   0.647  0.7786 -1.5999 -2.9506
  144SOL     OW  430   2.929   1.178   1.462 -0.1726  0.2374  0.8318
  144SOL    HW1  431   2.881   1.198   1.551  0.3082  0.1898  1.4596
  144SOL    HW2  432   2.996   1.096   1.464 -0.1090 -2.5606 -1.9333
  145SOL     OW  433   0.860   1.837   0.103 -0.3608 -0.3223 -0.0634
  145SOL    HW1  434   0.901   1.815   0.009  1.7708 -1.4323  2.0589
  145SOL    HW2  435   0.824   1.752   0.150  2.6186  2.2066  3.5345
  146SOL     OW  436   2.458   0.684   1.516 -0.0221 -0.3003  0.0738
  146SOL    HW1  437   2.430   0.604   1.455  2.8620 -0.0286 -1.9283
  146SOL    HW2  438   2.419   0.777   1.485  0.7123 -0.8823  0.5694
  147SOL     OW  439   1.100   2.504   0.597 -0.0232 -0.0468 -0.4639
  147SOL    HW1  440   1.035   2.558   0.532  0.2251  2.3572 -0.7240
  147SOL    HW2  441   1.193   2.482   0.556  0.7384 -0.8785 -0.6880
  148SOL     OW  442   1.620   1.474   3.072 -0.1050  0.0772  0.1176
  148SOL    HW1  443   1.602   1.374   3.058  1.2316  1.9825  3.3409
  148SOL    HW2  444   1.567   1.506   3.153 -1.7453 -1.1318 -2.0305
  149SOL     OW  445   0.667   1.511   1.970 -0.0035 -0.1765  0.4130
  149SOL    HW1  446   0.575   1.489   2.011  0.6836 -3.0637 -0.9408
  149SOL    HW2  447   0.702   1.457   1.888  2.4417  0.5810  1.4923
  150SOL     OW  448   3.038   1.181   0.963  0.0281  0.2787  0.2538
  150SOL    HW1  449   3.113   1.210   1.029 -1.1281  2.5341 -0.1381
  150SOL    HW2  450   2.961   1.130   1.003  3.1375  3.2195 -1.7971
  151SOL     OW  451   0.268   0.843   2.077  0.0903  0.5656 -1.0068
  151SOL    HW1  452   0.320   0.923   2.030 -0.9569 -0.3180 -3.0311
  151SOL    HW2  453   0.281   0.748   2.037  0.3379  0.6480  0.9166
  152SOL     OW  454   1.458   1.836   1.103  0.2497  0.1694 -0.4503
  152SOL    HW1  455   1.513   1.922   1.107 -2.8378 -1.8273 -0.8389
  152SOL    HW2  456   1.359   1.859   1.074  2.1657 -0.0235 -1.1145
  153SOL     OW  457   0.147   1.530   0.212  0.2251  0.2386  0.1200
  153SOL    HW1  458   0.079   1.453   0.186 -2.0944 -1.6453 -0.6351
  153SOL    HW2  459   0.129   1.570   0.305  0.1390  1.9666  0.3762
  154SOL     OW  460   2.272   1.779   2.768  0.6329 -0.6439 -0.3702
  154SOL    HW1  461   2.267   1.675   2.772 -0.2183  0.2860  1.5224
  154SOL    HW2  462   2.360   1.816   2.737 -0.5358  0.1763  1.8136
  155SOL     OW  463   2.433   1.277   0.361 -0.5787  0.2035  0.4365
  155SOL    HW1  464   2.526   1.227   0.354 -1.0496 -2.7308  2.2953
  155SOL    HW2  465   2.364   1.220   0.407 -0.5110  2.1450  1.2247
  156SOL     OW  466   2.408   0.836   0.696 -0.2959 -0.1837  0.0592
  156SOL    HW1  467   2.306   0.837   0.711 -1.3280  1.3113 -0.7377
  156SOL    HW2  468   2.431   0.870   0.599 -1.9861 -1.0354 -0.3472
  157SOL     OW  469   1.205   2.993   3.014  0.3851  0.7842  0.4751
  157SOL    HW1  470   1.275   2.937   2.954  3.0997 -0.8115  0.7528
  157SOL    HW2  471   1.246   3.087   3.038 -2.5422  0.7225  3.5826
  158SOL     OW  472   1.076   1.861   1.837  0.0534  0.1031  0.2158
  158SOL    HW1  473   1.122   1.951   1.814  1.4939  0.3637 -1.8517
  158SOL    HW2  474   0.986   1.882   1.886  0.9042  3.3997 -1.9844
  159SOL     OW  475   0.851   0.425   1.235 -0.1957 -0.1125  0.3685
  159SOL    HW1  476   0.801   0.513   1.263  0.9920  2.2766 -0.7613
  159SOL    HW2  477   0.805   0.374   1.163 -1.0551  1.0692  2.0029
  160SOL     OW  478   1.435   2.453   1.451 -0.5183 -0.2258 -0.3202
  160SOL    HW1  479   1.382   2.399   1.523 -2.8067  1.4631  1.5375
  160SOL    HW2  480   1.515   2.407   1.401  0.5228 -0.8905  0.3842
  161SOL     OW  481   3.051   2.658   0.432  0.1041  0.1076 -0.3215
  161SOL    HW1  482   3.012   2.567   0.418  0.6087  3.7334  1.2426
  161SOL    HW2  483   3.003   2.720   0.362  0.3999 -1.2377  0.7143
  162SOL     OW  484   2.552   1.864   0.460 -1.0049  0.3246 -0.2002
  162SOL    HW1  485   2.598   1.823   0.377 -0.8048 -3.0485 -0.9186
  162SOL    HW2  486   2.489   1.792   0.501 -0.3770 -3.4116 -2.5412
  163SOL     OW  487   1.943   2.705   0.771 -0.3929 -0.1029  0.2582
  163SOL    HW1  488   1.956   2.715   0.667 -1.5931 -2.0032  1.7763
  163SOL    HW2  489   2.021   2.645   0.814  0.0827  2.0665  1.4246
  164SOL     OW  490   3.092   0.185   1.210  0.4159 -1.2367  0.3417
  164SOL    HW1  491   3.106   0.284   1.186 -0.0207 -3.6458  2.3868
  164SOL    HW2  492   3.140   0.165   1.296  1.1451  2.7734 -0.9946
  165SOL     OW  493   1.134   1.408   0.671  0.0862  0.4369 -0.2961
  165SOL    HW1  494   1.135   1.464   0.760  1.5045  0.6479  0.4052
  165SOL    HW2  495   1.061   1.432   0.600 -0.0184 -0.1127  1.7930
  166SOL     OW  496   1.507   1.005   1.807  0.3398  0.3563  0.3569
  166SOL    HW1  497   1.427   1.066   1.827  0.6791 -1.2694 -0.5025
  166SOL    HW2  498   1.597   1.055   1.791  0.1097 -2.0903 -1.2212
  167SOL     OW  499   0.678   1.971   1.481 -0.0494  0.2371  0.9021
  167SOL    HW1  500   0.737   2.016   1.551 -0.4122  0.8425 -0.8016
  167SOL    HW2  501   0.625   1.887   1.511 -2.9387  0.9604  3.0827
  168SOL     OW  502   1.568   2.331   0.143  0.8580  0.2286 -0.1607
  168SOL    HW1  503   1.609   2.379   0.061  4.8878 -1.6712  2.4311
  168SOL    HW2  504   1.630   2.317   0.225 -0.9495 -1.4112  0.8226
  169SOL     OW  505   0.057   2.546   2.188 -0.1215 -0.2552  0.4683
  169SOL    HW1  506   0.094   2.486   2.111 -0.6392  1.0491 -3.8455
  169SOL    HW2  507   0.112   2.536   2.277 -0.8157  1.4394 -0.9183
  170SOL     OW  508   1.173   0.164   2.040  0.0938 -0.3545 -0.3196
  170SOL    HW1  509   1.263   0.192   2.081 -0.5335 -0.3187  0.4452
  170SOL    HW2  510   1.178   0.141   1.938  0.5217  0.0098  1.9120
  171SOL     OW  511   0.220   0.858   2.358 -0.8257 -0.2930  0.6078
  171SOL    HW1  512   0.121   0.861   2.399 -2.2600 -0.3697  3.7121
  171SOL    HW2  513   0.233   0.861   2.256 -2.2222 -1.1026  2.8435
  172SOL     OW  514   0.966   1.056   2.866  0.2491 -0.2713  0.3952
  172SOL    HW1  515   0.914   1.144   2.891 -0.2205  2.3013 -0.4057
  172SOL    HW2  516   0.910   1.000   2.798  0.2497  1.1503 -2.2007
  173SOL     OW  517   0.483   2.502   0.094 -0.0876  0.8864 -0.0707
  173SOL    HW1  518   0.504   2.485  -0.005  0.4584  0.9140  0.2663
  173SOL    HW2  519   0.414   2.428   0.116 -0.4278  1.8525  1.1031
  174SOL     OW  520   1.514   2.868   1.075 -0.4084  0.3299 -0.5070
  174SOL    HW1  521   1.573   2.913   1.004  1.0917  3.3306  0.5647
  174SOL    HW2  522   1.472   2.778   1.039  0.5940  0.5494 -1.3375
  175SOL     OW  523   0.398   3.067   1.726  0.0461  0.1549  0.0125
  175SOL    HW1  524   0.481   3.061   1.782 -0.5814 -1.5788  0.2430
  175SOL    HW2  525   0.379   3.163   1.698  0.6644  0.3198 -3.1965
  176SOL     OW  526   2.641   0.394   0.030  0.3403  0.5874 -0.0170
  176SOL    HW1  527   2.644   0.488   0.075 -1.0480  1.2591 -0.1589
  176SOL    HW2  528   2.719   0.332   0.052 -1.3882  1.1630 -0.6513
  177SOL     OW  529   0.389   0.310   0.947 -0.0782 -0.1590 -0.6984
  177SOL    HW1  530   0.360   0.214   0.938  0.2154 -1.5186  1.4259
  177SOL    HW2  531   0.312   0.368   0.979  2.1719  2.2854 -1.4677
  178SOL     OW  532   0.043   2.735   2.566  0.6025  0.4987  0.7104
  178SOL    HW1  533  -0.007   2.645   2.567  2.0262 -0.5798 -0.0000
  178SOL    HW2  534   0.101   2.755   2.649  0.7267  2.8011 -0.6263
  179SOL     OW  535   2.969   1.542   1.129  0.0719  0.2456  0.2355
  179SOL    HW1  536   3.025   1.621   1.095 -5.5307 -0.0475  0.7999
  179SOL    HW2  537   3.001   1.506   1.217 -0.6309  0.9581 -0.0318
  180SOL     OW  538   0.202   1.371   1.789 -0.1651  0.3376 -0.0880
  180SOL    HW1  539   0.295   1.318   1.800 -0.0202 -1.6425 -3.3685
  180SOL    HW2  540   0.187   1.445   1.860  2.4233 -2.3005 -1.6462
  181SOL     OW  541   2.958   1.901   2.541 -0.5633 -0.5042  0.2363
  181SOL    HW1  542   3.042   1.952   2.508 -0.8038 -0.2624  2.2155
  181SOL    HW2  543   2.877   1.897   2.478  0.4785  1.7535 -3.4902
  182SOL     OW  544   2.286   1.340   1.254 -0.7751  0.0517  0.1466
  182SOL    HW1  545   2.259   1.265   1.189  1.6418  3.0416  1.0041
  182SOL    HW2  546   2.324   1.422   1.201 -0.0600 -0.9657 -1.8753
  183SOL     OW  547   1.403   2.278   2.459  0.3091 -0.2813 -0.4229
  183SOL    HW1  548   1.331   2.204   2.470 -1.7212  0.6077  1.2702
  183SOL    HW2  549   1.496   2.234   2.447 -1.1012 -2.3732 -1.7636
  184SOL     OW  550   2.136   0.816   0.753  0.8696  0.0952 -0.1247
  184SOL    HW1  551   2.048   0.863   0.791 -0.4391  1.6402  2.8804
  184SOL    HW2  552   2.122   0.720   0.717 -3.5989 -1.1276 -1.0238
  185SOL     OW  553   1.585   2.783   2.021  0.3155  0.2226 -0.4156
  185SOL    HW1  554   1.495   2.833   2.021 -0.3246 -1.5931  1.4524
  185SOL    HW2  555   1.618   2.758   2.115  1.0766 -2.2923 -2.2859
  186SOL     OW  556   0.085   2.205   1.687  0.0694 -0.6123  0.7189
  186SOL    HW1  557   0.069   2.252   1.782  3.3456  1.1362  2.4388
  186SOL    HW2  558   0.173   2.147   1.677  4.0016 -0.8594 -3.2629
  187SOL     OW  559   1.354   0.651   1.648  0.6951  0.2995 -0.1744
  187SOL    HW1  560   1.447   0.691   1.613 -2.3087  0.0642 -1.2766
  187SOL    HW2  561   1.370   0.565   1.710  1.6341 -2.4919  1.5892
  188SOL     OW  562   2.744   2.706   1.462  0.2112 -0.2128  0.3811
  188SOL    HW1  563   2.749   2.802   1.423 -2.4729 -1.9169  2.9343
  188SOL    HW2  564   2.676   2.649   1.407 -2.1113  0.5595  0.9187
  189SOL     OW  565   0.918   1.217   1.371  0.1195  0.4938  0.0540
  189SOL    HW1  566   0.958   1.275   1.450  1.5980 -2.2868  0.8130
  189SOL    HW2  567   0.858   1.269   1.303  2.0772  2.1134 -2.1741
  190SOL     OW  568   1.459   1.882   1.522 -0.1512 -0.3732  0.3194
  190SOL    HW1  569   1.436   1.787   1.559  1.9770 -1.0716 -2.2203
  190SOL    HW2  570   1.455   1.953   1.598 -0.7129 -0.2643 -1.8210
  191SOL     OW  571   0.876   0.793   1.525  0.0805 -0.6770  0.1359
  191SOL    HW1  572   0.930   0.731   1.587 -0.1304 -2.5654 -1.6038
  191SOL    HW2  573   0.929   0.852   1.461 -2.7498 -2.9453  1.5766
  192SOL     OW  574   1.829   2.457   1.101 -0.3786 -0.5760 -0.3935
  192SOL    HW1  575   1.731   2.456   1.084  1.0657  0.9605  3.2397
  192SOL    HW2  576   1.884   2.391   1.040 -0.7844 -0.6383  3.2854
  193SOL     OW  577   0.567   0.580   0.474 -0.1152  0.3054  0.2307
  193SOL    HW1  578   0.496   0.510   0.481  5.1629  0.5026 -1.7629
  193SOL    HW2  579   0.600   0.589   0.376  0.9339 -1.1000 -1.7239
  194SOL     OW  580   0.352   0.867   1.344 -0.1554 -0.5362  0.3547
  194SOL    HW1  581   0.267   0.821   1.300 -0.6535  2.5177 -1.1744
  194SOL    HW2  582   0.429   0.891   1.283  2.4745 -0.2776  2.0520
  195SOL     OW  583   0.980   2.913   0.543 -0.3158  0.5545  0.5016
  195SOL    HW1  584   0.969   2.815   0.511  1.1180  1.0623 -0.4515
  195SOL    HW2  585   1.078   2.943   0.525  0.2435  2.3219 -0.1380
  196SOL     OW  586   0.280   1.403   1.334  0.0309  0.1921  0.1032
  196SOL    HW1  587   0.310   1.501   1.337  1.4820 -0.7007 -3.7788
  196SOL    HW2  588   0.283   1.356   1.425  0.5796  1.1847 -1.4906
  197SOL     OW  589   0.839   2.031   0.316 -0.4337  0.3160 -0.0470
  197SOL    HW1  590   0.827   1.962   0.392 -1.6523 -0.6325 -0.4073
  197SOL    HW2  591   0.856   1.975   0.229 -0.9398  0.4706  0.9555
  198SOL     OW  592   0.308   1.251   0.336  0.2430 -0.2090 -0.1940
  198SOL    HW1  593   0.206   1.248   0.310 -0.3370  1.8418 -0.8031
  198SOL    HW2  594   0.316   1.342   0.386 -2.3033 -0.4340  1.3558
  199SOL     OW  595   2.185   0.476   2.581 -1.0323  0.1923 -0.1353
  199SOL    HW1  596   2.106   0.432   2.638 -1.0503  1.0076  0.9382
  199SOL    HW2  597   2.276   0.434   2.607  1.5793  0.8262 -2.2485
  200SOL     OW  598   3.058   2.950   0.818 -0.4200 -0.9981 -0.0256
  200SOL    HW1  599   3.118   3.026   0.853 -0.0778  0.6266 -1.0331
  200SOL    HW2  600   3.027   2.957   0.719 -2.2522 -0.0139 -1.8108
  201SOL     OW  601   0.933   0.692   0.520  0.1480 -0.9431 -0.2393
  201SOL    HW1  602   0.908   0.779   0.570 -0.6240  1.0516  0.2617
  201SOL    HW2  603   0.885   0.615   0.565  2.2636 -0.1524  0.4993
  202SOL     OW  604   0.444   1.245   1.828  0.4552 -0.3003  0.4405
  202SOL    HW1  605   0.499   1.167   1.790 -0.7944 -3.6026 -0.2303
  202SOL    HW2  606   0.484   1.280   1.917 -2.0940  1.6580  1.5514
  203SOL     OW  607   0.661   0.253   1.574 -0.1062  0.9073  0.3226
  203SOL    HW1  608   0.687   0.195   1.495  0.9077 -0.7048  1.5854
  203SOL    HW2  609   0.695   0.209   1.661 -0.2878  0.9409  2.7403
  204SOL     OW  610   2.071   1.794   2.954  0.3353  0.0818 -0.3790
  204SOL    HW1  611   2.079   1.690   2.959  0.4760 -2.9677  1.9520
  204SOL    HW2  612   2.138   1.827   2.878 -0.3001  1.0719 -1.9472
  205SOL     OW  613   1.833   1.887   3.081 -0.2886  0.7547  0.0950
  205SOL    HW1  614   1.912   1.857   3.026 -0.3652 -0.8780 -1.1869
  205SOL    HW2  615   1.806   1.981   3.053  2.2264 -0.1430 -2.5756
  206SOL     OW  616   2.415   2.748   0.285 -0.3326 -0.5914 -0.7111
  206SOL    HW1  617   2.380   2.657   0.323 -3.6172  1.4405 -1.7101
  206SOL    HW2  618   2.497   2.742   0.226  0.2800  2.6125  0.7280
  207SOL     OW  619   0.719   1.774   2.838 -0.3579  0.1145  0.2658
  207SOL    HW1  620   0.811   1.723   2.825 -0.6726 -0.8304 -2.1813
  207SOL    HW2  621   0.667   1.738   2.925  0.4976 -0.1329  2.0780
  208SOL     OW  622   1.024   1.602   1.227 -0.2275 -0.7179 -0.2240
  208SOL    HW1  623   0.955   1.580   1.151 -0.4635 -3.1343  0.9950
  208SOL    HW2  624   0.995   1.569   1.321  2.1601  1.4119 -0.2799
  209SOL     OW  625   0.260   0.964   3.092  0.3017 -0.2995  0.5689
  209SOL    HW1  626   0.242   0.875   3.033  1.9319  0.0564 -2.4712
  209SOL    HW2  627   0.242   0.940   3.192 -0.5900 -1.7746 -1.6101
  210SOL     OW  628   1.715   0.498   1.249 -0.2958  0.6677  0.0278
  210SOL    HW1  629   1.659   0.572   1.199  0.2092 -0.6555 -0.7845
  210SOL    HW2  630   1.815   0.510   1.238  1.7013 -1.4503  0.8415
  211SOL     OW  631   2.084   1.014   1.587  0.9811  0.3896  0.1879
  211SOL    HW1  632   2.107   0.967   1.678  0.0655 -0.2119  0.7125
  211SOL    HW2  633   2.161   1.073   1.547  0.1881 -6.3693 -1.1508
  212SOL     OW  634   0.016   0.988   1.491  0.0098 -0.1683  0.2958
  212SOL    HW1  635   0.072   1.077   1.506  0.7895  1.1698 -0.7524
  212SOL    HW2  636   0.053   0.905   1.542  1.6411 -0.0901  2.5087
  213SOL     OW  637   2.801   0.192   0.278  0.7030 -0.6619  0.7236
  213SOL    HW1  638   2.888   0.133   0.284  2.6563 -2.1790  0.4054
  213SOL    HW2  639   2.714   0.148   0.242 -0.5962  3.2598 -0.8318
  214SOL     OW  640   2.169   0.343   2.337  0.3895  0.1330  0.6930
  214SOL    HW1  641   2.165   0.392   2.429 -1.2827 -0.0442 -3.1025
  214SOL    HW2  642   2.177   0.238   2.343  1.1805 -1.0271 -0.8145
  215SOL     OW  643   1.653   2.237   2.065 -0.4000 -0.2973 -0.3249
  215SOL    HW1  644   1.750   2.267   2.071 -0.8553 -1.7716 -0.6575
  215SOL    HW2  645   1.595   2.320   2.084  0.3274 -1.4878 -2.1631
  216SOL     OW  646   2.158   0.562   0.670  0.1820 -0.0865  1.1855
  216SOL    HW1  647   2.102   0.483   0.634  1.4891  0.2839  0.3824
  216SOL    HW2  648   2.239   0.576   0.607  6.0300 -1.0296 -1.9087
  217SOL     OW  649   0.914   2.793   2.542 -0.0136 -0.5270  0.0220
  217SOL    HW1  650   0.947   2.704   2.577 -0.0112  1.2129 -0.8036
  217SOL    HW2  651   0.870   2.787   2.444 -0.3893  3.5813 -2.5956
  218SOL     OW  652   1.876   1.458   0.027 -0.1071 -0.1653  0.5211
  218SOL    HW1  653   1.780   1.462  -0.009  0.0675 -1.6464  1.8278
  218SOL    HW2  654   1.884   1.384   0.103  3.9931 -0.5770  0.3411
  219SOL     OW  655   2.456   1.260   2.517 -0.2782 -0.0139  0.5305
  219SOL    HW1  656   2.476   1.197   2.438 -1.8118  2.4695  1.4603
  219SOL    HW2  657   2.476   1.217   2.608  1.1565  0.5350 -0.3140
  220SOL     OW  658   1.424   1.009   1.381 -0.1764  0.1199 -0.3695
  220SOL    HW1  659   1.528   0.996   1.378  1.2844  1.8867  0.3894
  220SOL    HW2  660   1.378   1.028   1.290  0.6995 -2.2440 -2.0260
  221SOL     OW  661   1.366   0.968   2.216  0.3047 -0.3302 -0.4825
  221SOL    HW1  662   1.331   1.009   2.121 -3.0960  1.3198 -2.6685
  221SOL    HW2  663   1.436   1.032   2.259 -1.0363 -0.2143 -2.3873
  222SOL     OW  664   1.124   0.080   1.238  0.2370  0.0194 -0.1796
  222SOL    HW1  665   1.155   0.130   1.322  2.2008 -0.9128  1.1063
  222SOL    HW2  666   1.119   0.136   1.152  0.5320 -0.1803  2.0585
  223SOL     OW  667   2.705   0.933   2.093  0.3718  0.4950  0.2902
  223SOL    HW1  668   2.640   1.013   2.084 -1.4484 -0.5135  1.3467
  223SOL    HW2  669   2.779   0.948   2.159 -0.6630  1.9510 -1.6810
  224SOL     OW  670   1.594   1.035   2.749  0.3582 -0.4692  0.0693
  224SOL    HW1  671   1.596   0.947   2.694  1.9042 -0.8351  1.3473
  224SOL    HW2  672   1.616   1.122   2.694 -0.9390 -3.7003  0.8259
  225SOL     OW  673   2.961   2.683   2.879  0.0527  0.5088  0.5331
  225SOL    HW1  674   2.881   2.692   2.816 -0.2946 -0.4856 -2.0246
  225SOL    HW2  675   3.024   2.761   2.877  0.6234 -1.8089 -0.9894
  226SOL     OW  676   2.363   1.510   2.808  0.6803 -0.5501 -0.3712
  226SOL    HW1  677   2.424   1.499   2.725 -1.5260  2.4597 -1.9658
  226SOL    HW2  678   2.396   1.472   2.895 -1.6587 -0.3436 -1.1559
  227SOL     OW  679   0.844   0.257   3.079  0.1642 -0.4697  0.5651
  227SOL    HW1  680   0.894   0.349   3.064  0.1600  1.4319  1.0417
  227SOL    HW2  681   0.798   0.227   2.989 -2.5148  1.3096 -0.6267
  228SOL     OW  682   2.420   0.645   2.826  0.1761  0.8247  0.0345
  228SOL    HW1  683   2.429   0.721   2.756 -2.0053 -0.8858 -1.0337
  228SOL    HW2  684   2.511   0.590   2.828 -1.9955  1.3854  0.2397
  229SOL     OW  685   0.480   0.493   1.807 -0.8819  0.0393  0.5939
  229SOL    HW1  686   0.508   0.399   1.840 -2.6458  1.8515 -1.4823
  229SOL    HW2  687   0.535   0.527   1.722  1.5948  1.6108 -0.3918
  230SOL     OW  688   1.877   1.223   1.998 -0.0218 -0.7538 -0.5692
  230SOL    HW1  689   1.954   1.283   1.961 -1.6577  0.8644 -1.0770
  230SOL    HW2  690   1.801   1.274   2.045  1.9672  0.0366  0.4112
  231SOL     OW  691   0.637   1.063   3.087 -0.4232 -0.1315  0.1001
  231SOL    HW1  692   0.706   1.135   3.082  0.0755  1.6961 -1.8981
  231SOL    HW2  693   0.542   1.110   3.116 -1.2506  1.8108 -0.5526
  232SOL     OW  694   2.411   3.018   2.840 -0.1783  0.3188 -0.2132
  232SOL    HW1  695   2.481   2.946   2.864  0.1277 -1.5631 -0.6663
  232SOL    HW2  696   2.438   3.073   2.754 -1.8817  2.6183 -0.5170
  233SOL     OW  697   1.723   1.211   1.153  0.0185 -0.4959 -0.7612
  233SOL    HW1  698   1.807   1.248   1.108 -0.9970 -0.9463  2.4823
  233SOL    HW2  699   1.728   1.109   1.155  0.9362  0.2784 -3.1307
  234SOL     OW  700   1.649   2.572   1.818  0.1134  0.4219 -0.1390
  234SOL    HW1  701   1.610   2.641   1.892 -0.3216 -0.2842  3.1831
  234SOL    HW2  702   1.582   2.494   1.794 -0.1353  3.0410 -0.1557
  235SOL     OW  703   3.083   2.930   2.898  0.0308 -0.3925 -0.2273
  235SOL    HW1  704   3.066   3.002   2.826 -0.2532  0.8965 -2.3993
  235SOL    HW2  705   3.056   2.964   2.996 -1.4815 -1.3451  0.9351
  236SOL     OW  706   2.930   0.668   0.066  0.3995  0.6801  0.1251
  236SOL    HW1  707   2.990   0.715   0.131  2.0485  1.9186 -1.5491
  236SOL    HW2  708   2.984   0.600   0.008  1.5712 -1.2921  1.0103
  237SOL     OW  709   1.419   1.625   0.909  0.2849 -0.1016 -0.2406
  237SOL    HW1  710   1.515   1.593   0.889  0.4327  1.9966 -0.5512
  237SOL    HW2  711   1.416   1.695   0.986 -1.5239  0.8576  1.4109
  238SOL     OW  712   1.899   1.203   0.787  0.5299  0.4502 -0.3503
  238SOL    HW1  713   1.935   1.223   0.883 -1.3483  2.1387  2.0724
  238SOL    HW2  714   1.805   1.223   0.777  1.7829 -2.7263 -0.8765
  239SOL     OW  715   2.063   0.249   2.726 -0.3916 -0.3597 -0.3498
  239SOL    HW1  716   2.104   0.216   2.816  1.0687 -1.5501  0.7257
  239SOL    HW2  717   1.972   0.296   2.732  2.7407 -1.6788 -0.1328
  240SOL     OW  718   0.904   0.695   0.232 -0.3785  0.2726  0.1090
  240SOL    HW1  719   0.954   0.622   0.186 -0.6305 -1.1446 -0.3040
  240SOL    HW2  720   0.932   0.704   0.329  0.9106 -0.7270  1.1821
  241SOL     OW  721   0.568   0.133   0.377 -0.1289  0.5492 -0.8910
  241SOL    HW1  722   0.623   0.180   0.302 -0.2414  0.8124 -0.4861
  241SOL    HW2  723   0.526   0.046   0.347  2.2150  3.3948  1.8107
  242SOL     OW  724   0.631   2.550   1.170  0.1906  0.0272  0.3314
  242SOL    HW1  725   0.631   2.551   1.274 -1.3686 -1.2687  0.2362
  242SOL    HW2  726   0.640   2.646   1.134  0.8506  2.1474 -2.7020
  243SOL     OW  727   1.036   0.598   2.392  0.0011 -0.2904 -0.2989
  243SOL    HW1  728   0.948   0.645   2.359  0.3593 -0.4907 -0.5884
  243SOL    HW2  729   1.029   0.548   2.483 -4.1828  1.4903  2.3003
  244SOL     OW  730   2.765   1.919   2.351 -0.3873  0.2826 -0.1554
  244SOL    HW1  731   2.802   1.880   2.262  0.7867 -0.1388  1.0717
  244SOL    HW2  732   2.686   1.864   2.391  0.6788  2.4319 -0.9432
  245SOL     OW  733   2.182   0.956   2.142 -0.0274  0.8721  0.0180
  245SOL    HW1  734   2.278   0.949   2.184  0.6654 -0.0538  0.4896
  245SOL    HW2  735   2.120   1.009   2.207 -1.2646  1.3432 -0.5724
  246SOL     OW  736   0.250   2.824   1.799  0.2630 -0.1591  0.5188
  246SOL    HW1  737   0.156   2.826   1.755  0.5933  0.3550  2.2755
  246SOL    HW2  738   0.309   2.901   1.752  0.1425 -1.5017  0.4132
  247SOL     OW  739   2.229   0.617   3.036 -0.3215 -0.0603  0.0469
  247SOL    HW1  740   2.286   0.630   2.944  2.4121 -0.5625 -0.3500
  247SOL    HW2  741   2.169   0.702   3.048  1.0063 -0.7818  0.0111
  248SOL     OW  742   2.191   1.855   1.629 -0.1637  0.0311  0.1109
  248SOL    HW1  743   2.271   1.793   1.670  1.5956  0.6574  0.4744
  248SOL    HW2  744   2.105   1.804   1.644 -0.3175  0.7738 -0.8243
  249SOL     OW  745   1.909   1.892   1.834 -0.2617  0.1161 -0.2540
  249SOL    HW1  746   1.921   1.842   1.744 -0.2164  1.2321 -1.5706
  249SOL    HW2  747   1.998   1.886   1.887  0.6470 -0.8457 -0.2293
  250SOL     OW  748   1.047   0.702   1.865 -0.9172 -0.0073  0.3884
  250SOL    HW1  749   1.109   0.648   1.932 -2.8287  0.7081  0.0563
  250SOL    HW2  750   1.043   0.670   1.767 -1.4727  0.2420 -0.7829
  251SOL     OW  751   3.042   1.625   2.535  0.8020 -0.9339 -0.6392
  251SOL    HW1  752   2.997   1.707   2.577  1.1206  0.6626  1.2467
  251SOL    HW2  753   2.987   1.537   2.537  1.6386 -1.5687  0.4932
  252SOL     OW  754   1.562   0.807   1.586 -0.8112  0.9415 -1.3888
  252SOL    HW1  755   1.613   0.855   1.510  0.8963 -0.1441 -1.3747
  252SOL    HW2  756   1.552   0.872   1.666  1.1040 -1.4844 -0.3105
  253SOL     OW  757   0.960   1.524   0.478 -0.4696 -0.0956 -0.0689
  253SOL    HW1  758   0.944   1.467   0.388 -0.6753 -1.4114 -0.8395
  253SOL    HW2  759   0.873   1.518   0.536 -2.2022 -2.1956  1.0447
  254SOL     OW  760   2.029   2.208   1.623  0.1649 -0.1501 -0.7236
  254SOL    HW1  761   1.994   2.122   1.588 -0.1363  0.6723  0.2412
  254SOL    HW2  762   1.951   2.268   1.659 -0.0023  0.4866  0.5639
  255SOL     OW  763   0.142   1.155   2.928 -0.0135 -0.0109  0.3012
  255SOL    HW1  764   0.211   1.235   2.913 -0.7681 -3.2537 -1.8810
  255SOL    HW2  765   0.179   1.085   2.993 -2.8796 -2.0009 -0.0142
  256SOL     OW  766   2.832   1.381   1.834 -0.0053 -0.2641 -0.6856
  256SOL    HW1  767   2.758   1.452   1.808  0.0004  3.4335  0.3718
  256SOL    HW2  768   2.822   1.289   1.787 -0.3712  1.8974 -0.0029
  257SOL     OW  769   0.808   0.164   1.821  0.7152  0.8170  0.0858
  257SOL    HW1  770   0.871   0.232   1.766 -2.4892 -1.8710  0.0103
  257SOL    HW2  771   0.850   0.074   1.832 -0.3545  1.9831 -0.7257
  258SOL     OW  772   2.983   1.161   0.527 -0.2976 -0.7037  0.1882
  258SOL    HW1  773   2.896   1.173   0.592 -0.5370 -0.3098  0.5963
  258SOL    HW2  774   3.076   1.177   0.574 -0.0623 -2.9654  0.5761
  259SOL     OW  775   0.449   2.920   3.009  1.0914  0.7294 -0.1517
  259SOL    HW1  776   0.371   2.885   3.071 -1.2694 -0.6471  1.5781
  259SOL    HW2  777   0.459   2.862   2.925 -1.9183  0.8651  0.8594
  260SOL     OW  778   2.713   0.762   2.728 -0.7333 -0.0615 -0.3272
  260SOL    HW1  779   2.627   0.810   2.689  1.0625  0.8649 -2.1491
  260SOL    HW2  780   2.701   0.695   2.809  1.3953  1.3020  1.1161
  261SOL     OW  781   2.715   1.302   1.330 -0.3201  0.1674 -0.4572
  261SOL    HW1  782   2.690   1.244   1.249  2.8402  0.8587  1.8390
  261SOL    HW2  783   2.799   1.275   1.388 -1.5880  0.6010  1.9081
  262SOL     OW  784   1.365   2.962   2.038 -0.1839  0.2777  0.2208
  262SOL    HW1  785   1.408   3.048   1.993  1.8903  2.0071 -0.1268
  262SOL    HW2  786   1.264   2.966   2.061  1.6654  0.5647  1.3028
  263SOL     OW  787   0.802   0.676   2.272  0.4375 -0.2461 -0.2062
  263SOL    HW1  788   0.715   0.620   2.248 -1.0002 -1.0509 -1.8163
  263SOL    HW2  789   0.815   0.754   2.207 -2.1374  0.2783 -0.6054
  264SOL     OW  790   2.285   0.819   0.399 -0.5667  0.2743 -0.2865
  264SOL    HW1  791   2.263   0.746   0.326  2.0547 -0.9218 -3.7849
  264SOL    HW2  792   2.390   0.827   0.406  1.2743 -0.3103 -0.1919
  265SOL     OW  793   0.944   2.381   2.618 -0.4191 -0.1688  0.3628
  265SOL    HW1  794   0.996   2.437   2.687 -4.4304 -1.2894 -1.7838
  265SOL    HW2  795   0.888   2.304   2.661 -0.3172 -3.5606  1.3347
  266SOL     OW  796   1.328   1.761   3.061  0.5699 -0.1961  0.0821
  266SOL    HW1  797   1.319   1.791   3.158  1.6383 -0.8561  0.9493
  266SOL    HW2  798   1.428   1.764   3.036 -0.9260  0.0165 -2.8771
  267SOL     OW  799   1.085   0.035   2.261 -0.1982  0.5679  0.2089
  267SOL    HW1  800   1.006  -0.026   2.222 -3.4233  0.4384 -1.5945
  267SOL    HW2  801   1.134   0.082   2.178  0.0032 -1.6023  0.5821
  268SOL     OW  802   0.847   1.240   1.055 -0.2969 -0.1920 -0.5798
  268SOL    HW1  803   0.841   1.322   1.125 -0.5829  0.5384  2.9133
  268SOL    HW2  804   0.911   1.264   0.978 -0.6830 -0.0556  2.5557
  269SOL     OW  805   2.374   2.477   1.645 -0.0735 -0.1922 -0.7173
  269SOL    HW1  806   2.441   2.414   1.689 -1.8138  2.6916  2.0397
  269SOL    HW2  807   2.332   2.539   1.716  1.0026 -3.0435 -0.1875
  270SOL     OW  808   0.129   2.981   2.007  0.4123 -0.0677 -0.0228
  270SOL    HW1  809   0.189   2.922   1.947  0.5477  1.9661 -0.4254
  270SOL    HW2  810   0.090   2.922   2.087  1.7034 -1.3481 -0.2390
  271SOL     OW  811   0.505   1.395   1.123 -0.2573 -0.3554  0.6073
  271SOL    HW1  812   0.517   1.330   1.045 -2.6222 -0.8312 -0.3660
  271SOL    HW2  813   0.421   1.378   1.181  2.4479  1.6322  0.4138
  272SOL     OW  814   1.906   3.071   1.952 -0.3943  0.1839 -0.4029
  272SOL    HW1  815   1.820   3.015   1.949 -2.5028  1.7477  1.3505
  272SOL    HW2  816   1.976   3.052   1.880 -0.9361  1.8078  0.6699
  273SOL     OW  817   1.532   1.469   2.799  0.0956  0.5323  0.7262
  273SOL    HW1  818   1.432   1.487   2.792 -0.2177  0.2567  0.5384
  273SOL    HW2  819   1.558   1.416   2.885  1.0057 -0.9282  0.2915
  274SOL     OW  820   1.142   0.518   2.049 -0.4684  0.0508  0.6098
  274SOL    HW1  821   1.044   0.498   2.075 -2.4260 -0.1487 -1.0869
  274SOL    HW2  822   1.206   0.518   2.135  1.1929 -2.6133 -0.3202
  275SOL     OW  823   0.635   2.112   1.945  0.2402  0.0271  0.1694
  275SOL    HW1  824   0.618   2.206   1.986  3.0631 -0.3369  3.0311
  275SOL    HW2  825   0.553   2.046   1.953  0.5137 -0.3160 -1.2158
  276SOL     OW  826   2.216   0.994   2.789  0.6784 -0.3335  0.0124
  276SOL    HW1  827   2.118   1.014   2.752 -1.3494 -2.5483  1.2539
  276SOL    HW2  828   2.240   0.894   2.780 -1.3635 -0.1637 -0.3262
  277SOL     OW  829   3.075   0.790   0.283  0.0377 -0.1367 -0.5424
  277SOL    HW1  830   3.150   0.860   0.263 -0.2601 -1.1465 -0.8226
  277SOL    HW2  831   3.108   0.715   0.347 -0.3791 -0.3261 -2.0350
  278SOL     OW  832   0.273   0.258   3.007  0.7085  0.1041  0.6782
  278SOL    HW1  833   0.356   0.214   2.963 -0.5594  2.4647  1.0228
  278SOL    HW2  834   0.291   0.344   3.064 -0.7085  1.9226  1.8418
  279SOL     OW  835   0.265   0.039   0.929  0.1114 -0.8077  0.1671
  279SOL    HW1  836   0.303  -0.004   1.013 -0.9579  2.0498  1.6023
  279SOL    HW2  837   0.271  -0.027   0.846  3.3147  0.5491  0.6554
  280SOL     OW  838   1.637   2.950   2.416  0.9388 -0.4424  0.4650
  280SOL    HW1  839   1.688   3.007   2.487 -0.2776 -2.6361  1.1760
  280SOL    HW2  840   1.563   3.002   2.356 -2.2232  1.5150 -3.6280
  281SOL     OW  841   0.529   0.941   2.255 -0.2327  0.0671 -0.2214
  281SOL    HW1  842   0.528   0.853   2.205  2.6229  0.9662  0.6848
  281SOL    HW2  843   0.503   0.929   2.354  0.5064  1.9132  0.5944
  282SOL     OW  844   1.777   2.451   0.550  0.0620 -0.0442 -0.1058
  282SOL    HW1  845   1.726   2.378   0.496  0.7166 -0.3058 -1.8302
  282SOL    HW2  846   1.724   2.543   0.550  0.2892 -1.1362 -2.1004
  283SOL     OW  847   1.136   0.885   0.764  0.0180 -0.2875 -0.7126
  283SOL    HW1  848   1.168   0.847   0.858 -1.4969 -1.4332  0.1011
  283SOL    HW2  849   1.128   0.991   0.770 -0.9854  0.3875  4.6970
  284SOL     OW  850   2.243   2.829   2.461 -0.2105 -0.0519  0.1209
  284SOL    HW1  851   2.344   2.832   2.440 -0.8252  0.3133 -2.1560
  284SOL    HW2  852   2.209   2.886   2.548 -1.3178 -0.6483 -1.5214
  285SOL     OW  853   1.381   0.020   2.582 -0.4888 -0.1400 -0.5393
  285SOL    HW1  854   1.412   0.022   2.483  2.0127  1.4955 -0.9065
  285SOL    HW2  855   1.280   0.034   2.599  0.3799  0.4808  1.7267
  286SOL     OW  856   0.424   0.488   0.736 -0.2441  0.0912 -0.5326
  286SOL    HW1  857   0.437   0.425   0.820  2.8591 -3.4398 -0.6049
  286SOL    HW2  858   0.451   0.434   0.655  1.6626 -0.1244  0.3570
  287SOL     OW  859   0.080   1.324   2.651  0.1004  0.1025 -0.0460
  287SOL    HW1  860   0.057   1.224   2.682 -0.5568 -0.0883  2.9977
  287SOL    HW2  861   0.085   1.398   2.725 -3.9454 -0.0430 -3.5957
  288SOL     OW  862   1.507   2.737   1.640 -0.1321  0.1664  0.2003
  288SOL    HW1  863   1.556   2.661   1.686 -0.2644  3.0252 -1.6242
  288SOL    HW2  864   1.531   2.751   1.537 -0.9424 -1.3732 -0.0029
  289SOL     OW  865   0.617   2.740   0.870  0.2414  0.1003  0.1235
  289SOL    HW1  866   0.663   2.808   0.814 -1.9022 -0.1066  1.3816
  289SOL    HW2  867   0.561   2.778   0.948 -0.0071  1.2223 -4.3336
  290SOL     OW  868   2.805   1.122   1.717  0.3648  0.3699 -0.4963
  290SOL    HW1  869   2.743   1.041   1.746 -1.0847 -0.4064 -2.1876
  290SOL    HW2  870   2.895   1.116   1.766  1.5192  2.4780 -0.1115
  291SOL     OW  871   1.955  -0.002   0.062 -0.2108 -0.6244 -0.5464
  291SOL    HW1  872   2.001   0.045   0.144  2.7002 -1.0867  0.9630
  291SOL    HW2  873   2.006   0.020  -0.026  2.0639  2.9014  1.4338
  292SOL     OW  874   3.000   1.164   3.062 -0.3028 -0.5473 -0.5861
  292SOL    HW1  875   2.945   1.245   3.069  0.5582 -3.7954  0.7705
  292SOL    HW2  876   3.081   1.173   2.999 -1.9097 -0.2230 -0.1935
  293SOL     OW  877   0.570   2.091   0.308  0.6347 -0.1953 -0.0980
  293SOL    HW1  878   0.541   2.159   0.385 -0.9842 -0.7087  2.2899
  293SOL    HW2  879   0.672   2.075   0.318 -0.3874 -2.0194  2.3497
  294SOL     OW  880   1.861   2.387   1.772  0.4230 -0.0690 -0.2881
  294SOL    HW1  881   1.907   2.359   1.863 -0.3527 -0.9365 -0.3552
  294SOL    HW2  882   1.782   2.460   1.784 -1.9093  0.8190  1.3426
  295SOL     OW  883   1.020   1.053   0.449  0.1043 -0.1139  0.3599
  295SOL    HW1  884   1.111   1.041   0.503  2.2645 -2.7023  1.8410
  295SOL    HW2  885   0.946   1.017   0.511  1.3465 -1.0995 -2.4334
  296SOL     OW  886   1.146   2.140   2.749 -0.6174 -0.0332  0.1439
  296SOL    HW1  887   1.053   2.179   2.756  0.0804  2.6768  1.2949
  296SOL    HW2  888   1.171   2.112   2.654  0.9568  0.4051  2.3116
  297SOL     OW  889   1.320   0.554   1.214 -0.3829 -0.5133 -0.8343
  297SOL    HW1  890   1.343   0.491   1.298  1.4824  1.9150 -1.6420
  297SOL    HW2  891   1.401   0.615   1.187  1.6574 -3.1627 -0.6585
  298SOL     OW  892   0.483   1.342   2.950 -0.9375  0.2466 -0.3441
  298SOL    HW1  893   0.463   1.277   3.032 -1.1922 -1.5396  0.3851
  298SOL    HW2  894   0.540   1.299   2.874  0.6540 -1.2196  0.1142
  299SOL     OW  895   0.418   0.203   1.251  0.2119  0.4916 -0.5364
  299SOL    HW1  896   0.361   0.292   1.234  0.6290  0.9903 -0.3073
  299SOL    HW2  897   0.419   0.184   1.351  1.0070 -1.9163 -2.3279
  300SOL     OW  898   1.281   1.768   2.564  0.0809  0.7676 -0.1354
  300SOL    HW1  899   1.248   1.682   2.513 -2.0652 -0.7993  1.5281
  300SOL    HW2  900   1.380   1.758   2.599  3.9924 -0.7681 -1.5617
  301SOL     OW  901   0.426   0.338   0.478 -0.1349  0.1816 -0.4822
  301SOL    HW1  902   0.344   0.282   0.487  0.8054 -0.1753 -1.1770
  301SOL    HW2  903   0.506   0.277   0.464 -0.9986 -1.3742 -0.0767
  302SOL     OW  904   1.275   2.462   2.243  0.1087 -0.2455  0.3919
  302SOL    HW1  905   1.173   2.437   2.236 -0.1106 -2.9134 -0.6822
  302SOL    HW2  906   1.326   2.401   2.309  1.4251  1.4858 -0.7373
  303SOL     OW  907   0.980   2.399   0.825  0.5013 -0.0275  0.0570
  303SOL    HW1  908   1.043   2.429   0.753 -2.8806 -3.2790 -0.7933
  303SOL    HW2  909   0.983   2.461   0.906  0.6779 -2.5111  1.3341
  304SOL     OW  910   0.120   1.901   0.677  0.2566  0.1804  0.0379
  304SOL    HW1  911   0.195   1.882   0.605  2.3458  2.0275 -2.1083
  304SOL    HW2  912   0.035   1.929   0.636  3.4447  3.3203  3.9170
  305SOL     OW  913   1.579   0.839   0.706  0.1372 -0.7973 -0.1260
  305SOL    HW1  914   1.518   0.881   0.631 -0.9911  2.4259 -2.7019
  305SOL    HW2  915   1.638   0.753   0.690  0.7282 -1.3460  1.1099
  306SOL     OW  916   0.424   1.890   1.927 -0.4760 -0.6662  0.8080
  306SOL    HW1  917   0.489   1.816   1.907 -0.6124  0.5256  0.0740
  306SOL    HW2  918   0.414   1.904   2.026 -1.3270 -0.7862  1.1492
  307SOL     OW  919   3.054   0.883   2.459 -0.0028 -0.0967  0.1266
  307SOL    HW1  920   3.046   0.933   2.551 -2.2787  0.0841 -0.7327
  307SOL    HW2  921   2.984   0.806   2.460 -0.4160  0.2451 -0.9281
  308SOL     OW  922   1.488   2.710   2.800 -0.1987  0.0066  0.6228
  308SOL    HW1  923   1.449   2.703   2.706 -0.7388  2.2873 -1.1414
  308SOL    HW2  924   1.452   2.640   2.864 -0.9081  2.5570 -0.8299
  309SOL     OW  925   1.249   0.148   1.776  0.1906  0.3432  0.0036
  309SOL    HW1  926   1.334   0.092   1.802  1.9063 -0.1136 -0.6107
  309SOL    HW2  927   1.224   0.143   1.674  1.1038  0.6016 -1.5297
  310SOL     OW  928   1.469   2.607   0.647 -0.1842 -0.2740 -0.3751
  310SOL    HW1  929   1.427   2.644   0.732  0.4713 -2.4417 -2.1921
  310SOL    HW2  930   1.532   2.672   0.597  2.8313  2.9196 -1.8253
  311SOL     OW  931   1.081   0.970   1.784 -0.5353  0.1166  0.2561
  311SOL    HW1  932   1.076   0.883   1.840 -3.1003 -1.0701  0.9796
  311SOL    HW2  933   1.152   0.962   1.710 -0.6023 -0.3414 -0.7432
  312SOL     OW  934   1.514   0.660   1.064 -0.4536  0.1909 -0.3403
  312SOL    HW1  935   1.573   0.744   1.064  4.2021 -1.6179 -1.6025
  312SOL    HW2  936   1.475   0.648   0.970 -1.1998  0.3324  1.8529
  313SOL     OW  937   1.648   1.277   0.736 -0.2892 -0.3669  0.5799
  313SOL    HW1  938   1.567   1.288   0.800  1.0038 -0.1555  2.6622
  313SOL    HW2  939   1.627   1.198   0.667 -2.0103  0.9710 -2.0442
  314SOL     OW  940   2.981   3.072   0.001 -0.4906 -0.2403  0.0490
  314SOL    HW1  941   3.022   3.086   0.095  0.2930  0.9655  1.5954
  314SOL    HW2  942   2.896   3.019  -0.001 -0.2358  2.3241  1.1885
  315SOL     OW  943   1.184   0.201   2.797  0.2686 -0.0397  0.3439
  315SOL    HW1  944   1.127   0.146   2.732 -0.2152  2.2339  1.6550
  315SOL    HW2  945   1.225   0.144   2.876 -1.6742  0.7908  2.8588
  316SOL     OW  946   1.688   2.090   0.875  0.3840 -0.2565  0.4515
  316SOL    HW1  947   1.643   2.072   0.960 -0.2839  1.5359 -1.3108
  316SOL    HW2  948   1.694   2.192   0.854  0.2507 -0.2560  3.7273
  317SOL     OW  949   1.166   0.688   2.776  0.2092 -0.2071  0.2815
  317SOL    HW1  950   1.110   0.732   2.851 -0.2894  0.5080  2.6483
  317SOL    HW2  951   1.112   0.621   2.721  0.5661  1.9329 -0.4943
  318SOL     OW  952   1.431   3.075   2.312 -0.0023  0.4904  0.9080
  318SOL    HW1  953   1.434   3.177   2.295  1.3930  2.0262  0.7560
  318SOL    HW2  954   1.421   3.031   2.220 -1.2348  0.2350  0.9981
  319SOL     OW  955   0.665   2.395   2.971  0.2238 -0.0164  0.4785
  319SOL    HW1  956   0.648   2.337   3.057  2.1644 -0.7609 -0.7730
  319SOL    HW2  957   0.724   2.349   2.898 -0.9801  2.2485 -0.1335
  320SOL     OW  958   1.690   2.241   0.383 -0.6341 -0.2444  0.0741
  320SOL    HW1  959   1.750   2.162   0.408 -2.2630 -0.0792  2.5315
  320SOL    HW2  960   1.599   2.211   0.406  2.3334  1.0876  1.4449
  321SOL     OW  961   1.649   2.756   0.525 -0.4690 -0.5785  0.0075
  321SOL    HW1  962   1.581   2.819   0.480  1.1355 -2.1528  1.0616
  321SOL    HW2  963   1.749   2.790   0.517 -0.7799 -4.1751  1.2947
  322SOL     OW  964   2.565   1.116   2.325  0.5119  0.1932  0.0905
  322SOL    HW1  965   2.654   1.089   2.372  0.6896 -0.1579 -0.5579
  322SOL    HW2  966   2.510   1.028   2.299  0.9531  1.3215 -0.0979
  323SOL     OW  967   1.187   2.693   0.825 -0.0494  0.2257  0.2722
  323SOL    HW1  968   1.138   2.650   0.744  0.6398 -2.5620 -2.5965
  323SOL    HW2  969   1.145   2.791   0.847  2.2398  1.7945 -0.5734
  324SOL     OW  970   0.207   2.531   2.438 -0.6268 -0.0460  0.2851
  324SOL    HW1  971   0.160   2.454   2.488 -1.0754 -0.1718 -1.2520
  324SOL    HW2  972   0.198   2.622   2.486 -0.4032  2.9193  0.2461
  325SOL     OW  973   1.244   3.046   0.465  0.1393  0.4842  0.4740
  325SOL    HW1  974   1.205   3.061   0.370  3.1651  3.2348 -0.2510
  325SOL    HW2  975   1.292   3.129   0.497 -0.8826  1.7077 -0.6952
  326SOL     OW  976   2.507   0.777   3.087  0.0504  0.2173 -0.2044
  326SOL    HW1  977   2.455   0.715   3.023 -0.5992  2.3997 -1.3995
  326SOL    HW2  978   2.587   0.726   3.140 -0.0845 -1.5981  1.7335
  327SOL     OW  979   2.845   0.301   0.534  0.3503 -0.7267  0.1926
  327SOL    HW1  980   2.824   0.262   0.443  0.2846  1.1706  1.5871
  327SOL    HW2  981   2.846   0.236   0.615  0.4491  4.0830  0.3225
  328SOL     OW  982   2.552   0.662   0.383 -0.0323 -0.0398  0.1434
  328SOL    HW1  983   2.619   0.698   0.454 -0.5883  2.4003 -1.5868
  328SOL    HW2  984   2.520   0.565   0.395 -0.9241  1.0875  2.6673
  329SOL     OW  985   2.942   3.054   2.134 -0.0863  0.4040  0.2573
  329SOL    HW1  986   3.022   3.011   2.177 -0.7407  1.3640  0.1221
  329SOL    HW2  987   2.947   3.157   2.110  0.2816  0.6301  0.9481
  330SOL     OW  988   0.535   0.231   1.881 -0.3462  0.0726 -1.0203
  330SOL    HW1  989   0.631   0.244   1.844 -2.0370 -0.4152 -0.0893
  330SOL    HW2  990   0.537   0.165   1.966  1.3269 -0.0617 -0.0175
  331SOL     OW  991   3.020   1.899   1.130  0.6347  0.2462  0.2076
  331SOL    HW1  992   2.968   1.940   1.051  3.3938  1.6272  1.2852
  331SOL    HW2  993   2.969   1.866   1.212  0.2024  1.2570 -0.4207
  332SOL     OW  994   0.389   1.209   0.078  0.0106  0.3973  0.0875
  332SOL    HW1  995   0.330   1.122   0.073  0.2471 -1.3551 -0.0920
  332SOL    HW2  996   0.383   1.251   0.173  1.4931  2.0121 -0.8371
  333SOL     OW  997   2.864   0.974   0.349 -0.2280  0.0124  0.7809
  333SOL    HW1  998   2.922   1.051   0.394  1.2682 -2.4727 -3.0214
  333SOL    HW2  999   2.930   0.912   0.289  2.3958 -3.3583  1.2048
  334SOL     OW 1000   1.723   1.187   1.771  0.2966 -0.6611  0.0673
  334SOL    HW1 1001   1.784   1.196   1.688  0.0378 -0.5799 -0.8300
  334SOL    HW2 1002   1.786   1.186   1.853  0.5016 -3.5483  1.4045
  335SOL     OW 1003   1.919   2.813   2.636 -0.5960  0.2355  0.2548
  335SOL    HW1 1004   1.886   2.777   2.724  0.1844 -0.2059 -0.8987
  335SOL    HW2 1005   1.952   2.911   2.641 -1.5026 -0.8358  0.2229
  336SOL     OW 1006   0.238   3.090   2.698 -0.0483  0.1876 -0.0791
  336SOL    HW1 1007   0.286   3.174   2.727  0.2570  0.4568 -0.7024
  336SOL    HW2 1008   0.297   3.003   2.704  1.3808 -1.4294 -0.0742
  337SOL     OW 1009   0.953   2.897   2.956 -0.3539 -0.2444 -0.1113
  337SOL    HW1 1010   0.946   2.812   3.013 -3.0544  0.0472  0.1779
  337SOL    HW2 1011   1.052   2.942   2.967 -2.3889 -3.9222  2.9990
  338SOL     OW 1012   3.104   0.923   0.670 -0.3151 -0.0661  0.2660
  338SOL    HW1 1013   3.004   0.909   0.687  1.4833 -1.0482  1.8630
  338SOL    HW2 1014   3.137   1.022   0.680 -0.7797  0.9606 -2.7798
  339SOL     OW 1015   1.690   1.340   2.146  1.0317  0.0658 -0.0817
  339SOL    HW1 1016   1.637   1.401   2.083  3.2291 -2.6223  0.7767
  339SOL    HW2 1017   1.755   1.381   2.215 -0.9981 -4.0772  0.5377
  340SOL     OW 1018   2.236   0.801   1.149  0.2407  0.3176 -0.1267
  340SOL    HW1 1019   2.148   0.849   1.169 -1.1123  1.0961  0.4579
  340SOL    HW2 1020   2.222   0.710   1.097  2.7397 -1.5028  4.0902
  341SOL     OW 1021   1.916   2.060   0.411  0.0677  0.6418  0.0171
  341SOL    HW1 1022   1.951   2.140   0.359 -0.4736 -0.7720 -0.5851
  341SOL    HW2 1023   1.986   2.012   0.470 -1.4007 -0.2740 -2.8084
  342SOL     OW 1024   2.140   2.111   2.707  0.3367 -0.4617 -0.2539
  342SOL    HW1 1025   2.197   2.028   2.711 -1.4128  2.6440  1.9110
  342SOL    HW2 1026   2.039   2.090   2.689  1.0371 -0.2309 -1.7708
  343SOL     OW 1027   0.388   0.796   2.745 -0.5441  0.5447  0.0426
  343SOL    HW1 1028   0.392   0.855   2.659 -1.0246  0.7113 -0.9594
  343SOL    HW2 1029   0.458   0.823   2.815  0.4984 -1.1325  0.7420
  344SOL     OW 1030   1.928   1.476   0.425  0.4321 -0.0970  0.1508
  344SOL    HW1 1031   1.939   1.397   0.358 -0.8701 -0.6597 -0.7699
  344SOL    HW2 1032   1.837   1.474   0.476  0.6960 -0.1024  1.3510
  345SOL     OW 1033   1.383   2.203   2.846 -0.3828 -0.0755  0.0638
  345SOL    HW1 1034   1.289   2.186   2.799  1.3465 -1.2588  3.0653
  345SOL    HW2 1035   1.464   2.162   2.794 -1.9896  0.4685 -4.7143
  346SOL     OW 1036   2.322   0.883   1.392 -0.3220 -0.5261 -0.6775
  346SOL    HW1 1037   2.257   0.959   1.425 -0.7394  0.2031  0.9107
  346SOL    HW2 1038   2.290   0.845   1.298 -0.7794 -1.5357 -0.4360
  347SOL     OW 1039   0.710   2.772   1.663 -0.6394  0.4182  0.1047
  347SOL    HW1 1040   0.737   2.872   1.671  0.8385  1.7352 -4.1974
  347SOL    HW2 1041   0.631   2.759   1.598  0.1478  0.5678  2.0491
  348SOL     OW 1042   0.170   0.764   2.927  0.1016 -0.8640  0.4420
  348SOL    HW1 1043   0.085   0.727   2.879  0.5586  1.6966 -0.7190
  348SOL    HW2 1044   0.257   0.768   2.864 -0.0702 -1.6684 -1.1800
  349SOL     OW 1045   1.860   0.435   2.806  0.2382 -0.1267 -0.0187
  349SOL    HW1 1046   1.823   0.514   2.747 -0.5957  0.2944 -1.0469
  349SOL    HW2 1047   1.846   0.442   2.905  0.2944 -0.2896 -0.7753
  350SOL     OW 1048   1.684   0.391   0.356 -0.3635  0.1705  0.0973
  350SOL    HW1 1049   1.753   0.379   0.428  2.1332  1.8705 -1.9863
  350SOL    HW2 1050   1.656   0.491   0.343  1.4056 -0.5849 -1.0205
  351SOL     OW 1051   0.882   0.849   2.066 -0.4311  0.5457 -0.0377
  351SOL    HW1 1052   0.924   0.942   2.073  0.2576  1.0403  2.6232
  351SOL    HW2 1053   0.945   0.770   2.026  1.9673  0.9420 -2.2595
  352SOL     OW 1054   2.064   1.344   0.617 -0.3242 -0.3415 -0.1952
  352SOL    HW1 1055   2.034   1.415   0.544  1.5357  1.9994  1.8194
  352SOL    HW2 1056   1.988   1.294   0.670 -2.0622  1.5827  2.0058
  353SOL     OW 1057   2.192   2.755   1.098 -0.3820 -0.1177 -0.7380
  353SOL    HW1 1058   2.271   2.700   1.126 -1.3782  0.2465 -0.2553
  353SOL    HW2 1059   2.164   2.821   1.166  1.1163  1.7176 -2.1976
  354SOL     OW 1060   0.242   1.431   2.882  0.1632 -0.2358  0.4180
  354SOL    HW1 1061   0.257   1.507   2.813  0.9912 -1.9436 -0.4664
  354SOL    HW2 1062   0.333   1.390   2.912  0.6711 -2.0660 -2.7671
  355SOL     OW 1063   0.699   1.571   0.605 -0.3732 -0.3356  0.0127
  355SOL    HW1 1064   0.686   1.545   0.706 -0.1435  1.0066 -1.0454
  355SOL    HW2 1065   0.642   1.512   0.537 -0.8797 -2.2471  1.2300
  356SOL     OW 1066   0.910   0.287   2.050  0.4161  0.2831  0.9653
  356SOL    HW1 1067   1.003   0.243   2.068 -0.5986 -1.8559 -0.4222
  356SOL    HW2 1068   0.853   0.234   1.978 -1.3517  1.7167 -2.7988
  357SOL     OW 1069   1.018   1.349   0.278  0.4364  0.2084 -0.5767
  357SOL    HW1 1070   1.102   1.405   0.298 -2.7338  1.3156 -3.7191
  357SOL    HW2 1071   1.014   1.251   0.317  0.7386 -0.5388 -2.7029
  358SOL     OW 1072   1.691   1.478   0.538  0.3780 -0.5771 -0.0551
  358SOL    HW1 1073   1.660   1.416   0.620 -2.6278  0.6444  0.0869
  358SOL    HW2 1074   1.622   1.464   0.459  1.1084 -1.3397  1.2911
  359SOL     OW 1075   1.622   2.601   0.299  0.4490  0.1567 -0.2963
  359SOL    HW1 1076   1.564   2.518   0.298  2.0406 -0.6246  0.4543
  359SOL    HW2 1077   1.622   2.650   0.390 -1.0399  0.1456 -2.1026
  360SOL     OW 1078   0.811   0.468   0.584  0.3722 -0.7487  0.2258
  360SOL    HW1 1079   0.715   0.495   0.552 -0.4287  1.2464 -1.8214
  360SOL    HW2 1080   0.833   0.365   0.594 -0.0163  1.6098 -0.9124
  361SOL     OW 1081   1.375   1.319   0.605 -0.3708  0.2793 -0.2209
  361SOL    HW1 1082   1.410   1.319   0.705  0.0009  1.0269  2.1194
  361SOL    HW2 1083   1.281   1.362   0.601  1.6911 -0.7499 -0.2945
  362SOL     OW 1084   1.365   1.823   0.727 -0.7449 -0.0712  0.4700
  362SOL    HW1 1085   1.374   1.736   0.784  0.4593  0.3460 -1.7657
  362SOL    HW2 1086   1.457   1.857   0.691 -1.8789 -0.9137 -2.5684
  363SOL     OW 1087   1.284   1.318   2.104  0.6184 -0.4232 -0.0564
  363SOL    HW1 1088   1.375   1.364   2.086  2.4624 -1.6898 -0.7637
  363SOL    HW2 1089   1.214   1.382   2.146  2.3797  1.9612  1.1419
  364SOL     OW 1090   0.538   2.377   2.051 -0.0291  0.2061 -0.3382
  364SOL    HW1 1091   0.435   2.372   2.042 -0.1243  2.0044  1.6794
  364SOL    HW2 1092   0.584   2.429   1.972 -2.4389  0.3915 -2.2363
  365SOL     OW 1093   0.963   1.952   1.352 -0.8424  0.3824 -0.2856
  365SOL    HW1 1094   0.869   1.938   1.391  1.3773 -1.8601  1.0831
  365SOL    HW2 1095   0.955   1.978   1.255 -0.7560  0.6567  2.0724
  366SOL     OW 1096   2.819   1.954   0.302 -0.4056 -0.2062 -0.2736
  366SOL    HW1 1097   2.758   1.873   0.298 -0.6730  3.2036 -1.3120
  366SOL    HW2 1098   2.915   1.940   0.257 -0.3273 -0.6275 -2.3325
  367SOL     OW 1099   0.893   1.203   0.023 -0.1043 -0.5409 -0.4604
  367SOL    HW1 1100   0.889   1.137   0.106 -0.7268 -0.1902 -0.9080
  367SOL    HW2 1101   0.990   1.249   0.021  0.6507  0.5633  0.0219
  368SOL     OW 1102   1.469   0.593   0.569 -0.0793  0.2176 -0.2615
  368SOL    HW1 1103   1.366   0.612   0.568 -1.6483  1.4271 -0.8695
  368SOL    HW2 1104   1.511   0.610   0.473 -4.5348  2.3904 -1.1172
  369SOL     OW 1105   0.390   1.670   0.154  0.0379 -0.9937  0.3890
  369SOL    HW1 1106   0.455   1.718   0.222 -0.5297  0.9369 -1.6948
  369SOL    HW2 1107   0.299   1.640   0.192 -2.6832  0.9444 -1.0318
  370SOL     OW 1108   0.373   2.199   1.076 -0.0841 -0.0063  0.2873
  370SOL    HW1 1109   0.403   2.286   1.032  1.5768  1.1111 -0.2423
  370SOL    HW2 1110   0.298   2.153   1.019 -1.0657  0.1007  0.9893
  371SOL     OW 1111   2.912   2.255   2.699  0.6274 -0.1446  0.5824
  371SOL    HW1 1112   2.980   2.185   2.735 -0.2337 -0.6602  1.5271
  371SOL    HW2 1113   2.914   2.341   2.759 -2.7927 -1.4718  0.6204
  372SOL     OW 1114   1.032   2.115   1.144 -0.2233 -1.0775  0.2683
  372SOL    HW1 1115   0.976   2.139   1.062  0.3760 -2.6116  0.0808
  372SOL    HW2 1116   1.117   2.173   1.150 -0.0485 -0.6946  2.2096
  373SOL     OW 1117   1.896   1.927   0.977 -0.3105  0.3350 -0.0026
  373SOL    HW1 1118   1.979   1.944   1.038  0.1787 -1.7403  0.5474
  373SOL    HW2 1119   1.830   2.004   0.945  0.3657  0.3159  0.5014
  374SOL     OW 1120   1.874   0.427   0.578 -0.2096 -0.1063  0.2194
  374SOL    HW1 1121   1.877   0.357   0.656  2.1645 -1.7695  3.6420
  374SOL    HW2 1122   1.959   0.410   0.517 -1.9398 -2.5413  1.1109
  375SOL     OW 1123   2.416   2.219   1.077 -0.2507  0.0081 -0.1493
  375SOL    HW1 1124   2.458   2.291   1.022 -0.7937 -1.3232  1.2940
  375SOL    HW2 1125   2.482   2.170   1.140 -0.2810 -0.6094 -2.3743
  376SOL     OW 1126   0.024   0.648   1.410 -0.1065  0.0895 -0.2727
  376SOL    HW1 1127   0.025   0.670   1.511  0.3525 -0.5754 -2.9108
  376SOL    HW2 1128  -0.068   0.609   1.367 -1.3415  3.3067 -1.1940
  377SOL     OW 1129   2.161   2.862   0.267  0.3578  0.2301 -0.7490
  377SOL    HW1 1130   2.160   2.960   0.298 -0.6521 -1.1910  1.1803
  377SOL    HW2 1131   2.258   2.824   0.280  0.3703  1.8047  1.6088
  378SOL     OW 1132   1.802   1.893   2.455 -0.2906  0.1147 -0.1868
  378SOL    HW1 1133   1.861   1.882   2.368  0.5271 -1.5294 -0.5111
  378SOL    HW2 1134   1.749   1.805   2.478  1.4078 -0.5446 -2.9734
  379SOL     OW 1135   0.729   0.183   2.839 -0.6814 -1.2072  0.0005
  379SOL    HW1 1136   0.787   0.098   2.824  0.6875 -1.5532 -0.2879
  379SOL    HW2 1137   0.728   0.257   2.763 -0.3715 -3.1090  2.3173
  380SOL     OW 1138   1.570   1.157   0.516  0.0980  0.3745 -0.2234
  380SOL    HW1 1139   1.488   1.216   0.514 -1.3461 -0.3353  1.1306
  380SOL    HW2 1140   1.545   1.060   0.480 -2.2430 -1.8208 -0.7703
  381SOL     OW 1141   1.313   1.201   1.565 -0.2452  0.0740 -0.1718
  381SOL    HW1 1142   1.352   1.115   1.517 -0.8126 -0.1873 -2.7666
  381SOL    HW2 1143   1.384   1.261   1.609 -2.1343 -0.6023  0.0557
  382SOL     OW 1144   1.811   0.883   0.245 -0.0619  0.1235  0.3291
  382SOL    HW1 1145   1.853   0.857   0.153  1.4681  1.0642 -0.1624
  382SOL    HW2 1146   1.862   0.847   0.327  0.8733 -1.1270 -1.1309
  383SOL     OW 1147   2.564   1.019   1.481 -0.1385  0.0002 -0.0089
  383SOL    HW1 1148   2.477   0.975   1.447 -0.4130 -1.7164  1.0895
  383SOL    HW2 1149   2.629   1.028   1.408 -2.7659 -1.1629  0.5990
  384SOL     OW 1150   0.865   2.265   0.154  0.1735  0.4257  1.0435
  384SOL    HW1 1151   0.837   2.355   0.200 -1.0747  1.1056  0.7568
  384SOL    HW2 1152   0.868   2.185   0.220 -0.6893  1.1928 -1.1836
  385SOL     OW 1153   2.963   2.044   1.679  0.4933  0.3836  0.3524
  385SOL    HW1 1154   3.052   2.096   1.675  0.0962  1.4845  2.0597
  385SOL    HW2 1155   2.983   1.941   1.695 -1.3418 -2.4314 -1.8046
  386SOL     OW 1156   0.489   1.052   0.480  0.0216  0.3424 -0.3997
  386SOL    HW1 1157   0.420   0.977   0.510 -1.4925 -1.1968  2.1707
  386SOL    HW2 1158   0.447   1.129   0.428  3.4836 -1.6676  0.6996
  387SOL     OW 1159   0.951   0.362   1.698  0.0707 -0.2655  0.0436
  387SOL    HW1 1160   0.983   0.459   1.689  1.2592 -0.8926 -1.5187
  387SOL    HW2 1161   0.977   0.300   1.618  3.3137 -0.6562  2.5023
  388SOL     OW 1162   1.198   2.706   1.753  0.6941 -0.5977 -0.8328
  388SOL    HW1 1163   1.220   2.716   1.651 -0.5600 -3.2772  0.5571
  388SOL    HW2 1164   1.270   2.646   1.805 -0.4478 -0.0315  1.6299
  389SOL     OW 1165   0.133   2.969   1.370  0.0998 -0.0008  0.0253
  389SOL    HW1 1166   0.044   2.991   1.321 -0.1368  0.9092  1.8302
  389SOL    HW2 1167   0.167   2.871   1.354 -1.5052 -0.2474 -0.3511
  390SOL     OW 1168   1.044   0.969   1.358  0.0549 -0.3755  0.2265
  390SOL    HW1 1169   1.123   0.939   1.419  1.9529 -0.7143  0.5869
  390SOL    HW2 1170   1.008   1.067   1.375  0.4184 -1.5504  2.5892
  391SOL     OW 1171   2.172   1.165   1.090 -0.2160 -0.0530 -0.3390
  391SOL    HW1 1172   2.128   1.079   1.129  2.7699 -1.3441  1.3440
  391SOL    HW2 1173   2.208   1.151   0.990 -1.2596  0.1823  0.7728
  392SOL     OW 1174   0.906   2.635   0.001 -0.0551 -0.0353  0.4382
  392SOL    HW1 1175   0.962   2.562  -0.042 -0.8728  1.7156  3.6787
  392SOL    HW2 1176   0.838   2.588   0.065  0.4237 -2.5228  2.3636
  393SOL     OW 1177   0.312   0.570   1.997 -0.2381  0.4077  0.4514
  393SOL    HW1 1178   0.223   0.519   1.991 -2.0908 -1.1631 -0.5426
  393SOL    HW2 1179   0.372   0.547   1.911  0.0830  1.9430  0.8388
  394SOL     OW 1180   3.031   1.989   2.782  0.0513  0.4040 -0.8010
  394SOL    HW1 1181   3.120   1.948   2.803  0.3540  0.8321  0.5044
  394SOL    HW2 1182   2.997   1.952   2.687  2.6591  2.2146 -3.5128
  395SOL     OW 1183   1.617   1.955   0.613  0.1350 -0.1773 -1.2703
  395SOL    HW1 1184   1.683   1.881   0.579 -0.8533 -1.2470 -1.6182
  395SOL    HW2 1185   1.659   2.014   0.687  1.8056  0.4947 -1.7063
  396SOL     OW 1186   2.832   1.805   1.308 -0.1104  0.1019  0.3208
  396SOL    HW1 1187   2.784   1.749   1.235 -0.1593 -0.5149 -1.4683
  396SOL    HW2 1188   2.772   1.823   1.387  1.9913  0.4728  0.1896
  397SOL     OW 1189   1.028   2.247   0.515  0.4159  0.0414 -0.1631
  397SOL    HW1 1190   0.950   2.206   0.570 -0.4672 -0.6228 -0.4275
  397SOL    HW2 1191   1.046   2.348   0.546 -0.5092 -0.1478  2.4346
  398SOL     OW 1192   2.153   3.097   1.060 -0.2161  0.2647  0.3619
  398SOL    HW1 1193   2.083   3.040   1.110 -0.4375  0.3436 -0.2029
  398SOL    HW2 1194   2.119   3.193   1.038 -0.4942  0.0326  1.9333
  399SOL     OW 1195   3.060   2.469   2.567 -0.1933 -0.2411 -0.0552
  399SOL    HW1 1196   2.977   2.432   2.519 -2.7949  0.9102  0.2848
  399SOL    HW2 1197   3.074   2.428   2.663 -0.6982  0.8485 -1.2224
  400SOL     OW 1198   0.777   1.660   1.386  0.0681  0.4835  0.1919
  400SOL    HW1 1199   0.705   1.691   1.452  2.4343  3.0590  3.7717
  400SOL    HW2 1200   0.786   1.720   1.302 -0.3627 -2.2810 -0.0916
  401SOL     OW 1201   1.871   0.127   1.201  0.4841  0.5011  0.0461
  401SOL    HW1 1202   1.899   0.129   1.298 -2.4538  1.2569 -0.3359
  401SOL    HW2 1203   1.773   0.139   1.185 -0.5972 -1.3705 -0.6257
  402SOL     OW 1204   1.325   0.154   3.043  0.8241  0.5173 -0.4017
  402SOL    HW1 1205   1.424   0.138   3.018  0.8445 -1.6417  1.1308
  402SOL    HW2 1206   1.288   0.251   3.039 -1.7310 -0.0588 -0.7337
  403SOL     OW 1207   2.285   1.770   0.908 -0.1203 -0.0180 -0.1598
  403SOL    HW1 1208   2.386   1.771   0.907  0.2336 -0.6294 -0.2911
  403SOL    HW2 1209   2.241   1.854   0.945  1.5730 -3.1591  0.9146
  404SOL     OW 1210   0.203   2.443   2.814 -0.4460 -0.3665 -0.7458
  404SOL    HW1 1211   0.301   2.432   2.783  2.0975 -2.1734 -0.9300
  404SOL    HW2 1212   0.176   2.534   2.848  0.5396 -1.2835  2.9697
  405SOL     OW 1213   0.091   2.453   0.744 -0.0187 -0.1188  0.5192
  405SOL    HW1 1214   0.097   2.372   0.673  3.4145 -2.5226 -2.1949
  405SOL    HW2 1215   0.174   2.515   0.745  2.9726 -1.7502  0.1655
  406SOL     OW 1216   0.052   1.561   3.052 -0.1207  0.5107  0.4196
  406SOL    HW1 1217   0.097   1.499   2.976  1.6290  1.6557 -0.6125
  406SOL    HW2 1218   0.115   1.566   3.132 -0.6939  0.9895 -0.2982
  407SOL     OW 1219   1.548   0.949   0.959 -0.0567 -0.1687  0.0966
  407SOL    HW1 1220   1.556   0.928   0.852 -1.8889 -0.9037  0.2474
  407SOL    HW2 1221   1.465   1.003   0.986  0.8035 -0.7386  3.2008
  408SOL     OW 1222   1.583   2.441   0.958  0.4624  0.3209  0.3173
  408SOL    HW1 1223   1.654   2.432   0.880  2.1443 -0.6409  2.2119
  408SOL    HW2 1224   1.531   2.532   0.957  0.5225  1.4146  0.8366
  409SOL     OW 1225   0.681   0.765   0.763 -0.3655 -0.5991  0.2277
  409SOL    HW1 1226   0.587   0.775   0.718  0.4244  1.1404 -0.9335
  409SOL    HW2 1227   0.701   0.675   0.807  2.0480 -0.0494 -0.5810
  410SOL     OW 1228   1.264   2.046   1.371 -0.4328 -0.2421  0.1053
  410SOL    HW1 1229   1.341   1.988   1.404  0.5621 -0.9047 -1.8348
  410SOL    HW2 1230   1.168   1.995   1.355 -2.6543 -2.1116  0.3761
  411SOL     OW 1231   2.625   1.826   3.021 -0.5456  0.0172 -0.5113
  411SOL    HW1 1232   2.567   1.911   3.023  1.9689  2.7640  1.1513
  411SOL    HW2 1233   2.681   1.825   2.934 -0.6154 -0.2262 -0.2872
  412SOL     OW 1234   1.531   2.486   2.141 -0.2359  0.3526 -0.3904
  412SOL    HW1 1235   1.588   2.503   2.228  2.5409 -7.3674  2.8856
  412SOL    HW2 1236   1.427   2.478   2.161 -1.7249 -2.2693 -1.9864
  413SOL     OW 1237   3.089   0.204   2.913  0.4640 -0.0816 -0.1180
  413SOL    HW1 1238   3.034   0.139   2.972  0.2272 -0.4198 -1.1762
  413SOL    HW2 1239   3.186   0.168   2.904 -0.5035 -0.6696 -3.6917
  414SOL     OW 1240   1.879   1.540   1.179 -0.7226  0.1074  0.5037
  414SOL    HW1 1241   1.818   1.625   1.165 -0.1390 -0.7259 -0.4334
  414SOL    HW2 1242   1.858   1.470   1.110 -1.2443  1.7619 -1.1216
  415SOL     OW 1243   0.380   2.285   0.706 -0.6600 -0.1188 -0.1088
  415SOL    HW1 1244   0.398   2.318   0.803  0.9931 -0.9339 -3.2981
  415SOL    HW2 1245   0.278   2.286   0.683  0.2191 -0.2698 -4.5176
  416SOL     OW 1246   0.368   1.020   1.068  0.2789 -0.1946 -0.8644
  416SOL    HW1 1247   0.322   0.947   1.011  2.3248  0.7369  1.0209
  416SOL    HW2 1248   0.471   1.024   1.057 -1.9120  3.1812 -1.0781
  417SOL     OW 1249   2.283   2.365   2.034  0.5118  0.6278  0.0868
  417SOL    HW1 1250   2.320   2.307   2.110 -1.4287 -0.4270  2.6343
  417SOL    HW2 1251   2.252   2.315   1.952 -2.1220  1.6437  1.3491
  418SOL     OW 1252   1.070   0.592   1.346 -0.3404 -0.3781 -0.2430
  418SOL    HW1 1253   0.994   0.533   1.312  0.5994 -3.0599 -3.0823
  418SOL    HW2 1254   1.156   0.589   1.291 -4.4577  0.7908 -2.9013
  419SOL     OW 1255   0.946   0.490   2.952  0.1602  0.4876 -0.0189
  419SOL    HW1 1256   0.885   0.482   2.870 -1.2077  0.7152  3.0328
  419SOL    HW2 1257   0.930   0.589   2.985 -4.1359  0.0563 -1.4462
  420SOL     OW 1258   0.078   2.262   0.557  0.1378 -0.0587  0.3726
  420SOL    HW1 1259   0.114   2.251   0.462 -1.2379  0.4405  0.4870
  420SOL    HW2 1260   0.053   2.175   0.607  2.5329 -1.4731  1.3140
  421SOL     OW 1261   0.327   2.953   0.605  0.0521 -0.0884 -0.3153
  421SOL    HW1 1262   0.293   2.907   0.693  0.7669 -2.4639 -0.4442
  421SOL    HW2 1263   0.427   2.981   0.610 -1.4113 -1.2884 -0.8678
  422SOL     OW 1264   0.995   2.591   1.018 -0.1241  0.6591  0.7861
  422SOL    HW1 1265   1.063   2.639   0.963 -0.4765 -0.4393 -0.3958
  422SOL    HW2 1266   1.030   2.578   1.115 -0.0294  2.3609  1.0443
  423SOL     OW 1267   0.146   0.743   1.194 -0.0632 -0.2731 -0.5210
  423SOL    HW1 1268   0.080   0.720   1.266 -1.7834  0.1615 -0.4603
  423SOL    HW2 1269   0.121   0.826   1.139 -1.1805  0.7880 -0.6724
  424SOL     OW 1270   1.133   2.215   2.040  0.1179 -0.1723  0.0608
  424SOL    HW1 1271   1.110   2.307   1.996  1.2932  0.1031  0.0344
  424SOL    HW2 1272   1.115   2.206   2.142  0.4828  1.2725  1.0541
  425SOL     OW 1273   1.957   1.321   1.032  0.2204  0.6580  0.4533
  425SOL    HW1 1274   2.025   1.254   1.075 -1.7400  0.8029  0.9911
  425SOL    HW2 1275   1.996   1.417   1.011 -1.1920  1.6884 -2.9024
  426SOL     OW 1276   1.469   1.580   1.330 -0.2145  0.1839 -1.0264
  426SOL    HW1 1277   1.462   1.669   1.273 -3.0154 -2.1451  2.1127
  426SOL    HW2 1278   1.422   1.589   1.422  0.5043  0.2489  1.7567
  427SOL     OW 1279   1.905   2.341   2.089  0.2956 -0.1544 -0.2200
  427SOL    HW1 1280   1.964   2.280   2.144 -0.6507  0.8543 -1.9758
  427SOL    HW2 1281   1.910   2.439   2.119 -1.3891  2.2710  2.1325
  428SOL     OW 1282   0.816   3.092   0.140  0.1986  0.3872 -0.3438
  428SOL    HW1 1283   0.834   3.170   0.076 -2.6470 -0.9048  1.0984
  428SOL    HW2 1284   0.875   3.010   0.118 -2.3530  3.0196  1.0330
  429SOL     OW 1285   1.352   0.114   0.226  0.3252  0.0747 -0.0682
  429SOL    HW1 1286   1.453   0.111   0.255 -0.3097  1.4022 -2.6210
  429SOL    HW2 1287   1.339   0.079   0.129  2.9099  2.8208 -0.4120
  430SOL     OW 1288   2.862   1.403   0.283  0.5329  0.3464 -0.0919
  430SOL    HW1 1289   2.862   1.471   0.202 -3.4855 -2.6623  0.5728
  430SOL    HW2 1290   2.880   1.442   0.374  1.3526  0.1670 -1.7180
  431SOL     OW 1291   2.097   1.567   0.967 -0.1593  0.3229  0.2605
  431SOL    HW1 1292   2.159   1.642   0.997 -1.7285 -2.0470  0.0310
  431SOL    HW2 1293   2.011   1.609   0.923  0.1318  2.2200  0.4603
  432SOL     OW 1294   2.948   2.203   1.161 -0.1398 -0.9225  0.3292
  432SOL    HW1 1295   2.977   2.111   1.196  1.1255 -0.0139 -0.4401
  432SOL    HW2 1296   2.984   2.272   1.227 -0.5115 -0.9153  1.4569
  433SOL     OW 1297   1.845   0.270   0.804  0.0707  0.3148  0.0685
  433SOL    HW1 1298   1.746   0.299   0.828  2.5729  0.8718 -0.0736
  433SOL    HW2 1299   1.888   0.245   0.886 -1.2756  1.0148 -2.1129
  434SOL     OW 1300   1.544   0.346   0.693  0.2386  0.1630  0.1646
  434SOL    HW1 1301   1.523   0.431   0.634 -0.1289 -1.2399  1.1711
  434SOL    HW2 1302   1.547   0.354   0.797 -0.0966 -0.0456  0.3909
  435SOL     OW 1303   1.484   1.488   2.018  0.2701 -0.3639 -0.5589
  435SOL    HW1 1304   1.483   1.536   2.107 -0.2713 -0.8571  0.5409
  435SOL    HW2 1305   1.488   1.557   1.941  3.1966 -0.9231 -0.3317
  436SOL     OW 1306   1.707   2.731   2.249 -0.2342  0.0847 -0.2275
  436SOL    HW1 1307   1.707   2.810   2.318 -1.4682  2.2514  2.3053
  436SOL    HW2 1308   1.717   2.640   2.296  0.7422  1.6079 -1.4312
  437SOL     OW 1309   1.112   2.938   0.907  0.3181 -0.3933  0.1116
  437SOL    HW1 1310   1.020   2.979   0.886  0.5321 -1.6872 -1.0173
  437SOL    HW2 1311   1.131   2.918   1.009  0.7431 -0.6637  0.7566
  438SOL     OW 1312   1.010   2.652   1.317  0.4414  0.2100 -0.1993
  438SOL    HW1 1313   1.090   2.706   1.299  0.3375  0.5063 -1.0445
  438SOL    HW2 1314   1.031   2.551   1.334 -2.3106 -1.8713 -1.9714
  439SOL     OW 1315   0.704   1.813   1.149 -0.1394 -0.0559 -0.0748
  439SOL    HW1 1316   0.692   1.903   1.099 -1.5783  0.3689  2.1849
  439SOL    HW2 1317   0.613   1.768   1.172  1.6686 -2.7248 -1.6034
  440SOL     OW 1318   1.069   2.446   1.939 -0.1569 -0.7894  0.0075
  440SOL    HW1 1319   1.020   2.502   1.865  1.3372 -0.4274  0.2467
  440SOL    HW2 1320   1.171   2.454   1.940 -0.1267 -0.7399 -0.2194
  441SOL     OW 1321   0.490   2.720   1.475 -1.0233  0.1561  0.6250
  441SOL    HW1 1322   0.544   2.626   1.482  0.8613 -0.9724  0.4882
  441SOL    HW2 1323   0.393   2.710   1.457 -0.3279 -2.2034  2.0921
  442SOL     OW 1324   2.273   0.741   2.497  0.0385  0.2842  0.1577
  442SOL    HW1 1325   2.256   0.642   2.528 -0.2064  0.2388 -0.6552
  442SOL    HW2 1326   2.181   0.780   2.470 -0.8238 -0.7899 -0.0937
  443SOL     OW 1327   1.192   2.740   2.201  0.0410 -0.5116 -0.1988
  443SOL    HW1 1328   1.205   2.798   2.282  3.4161  1.1725 -1.9693
  443SOL    HW2 1329   1.200   2.639   2.216 -0.3711  1.6868 -1.5732
  444SOL     OW 1330   1.053   1.338   1.560 -0.1594  0.4025 -0.1110
  444SOL    HW1 1331   1.150   1.302   1.568 -0.5965 -2.0302 -1.8803
  444SOL    HW2 1332   1.042   1.416   1.627 -0.2882  1.2559 -0.5762
  445SOL     OW 1333   3.091   2.316   1.927 -0.3203  0.1430  0.1447
  445SOL    HW1 1334   3.097   2.409   1.884 -0.1486 -1.5338  0.2069
  445SOL    HW2 1335   3.003   2.307   1.982 -1.6637  3.2736 -0.6585
  446SOL     OW 1336   0.153   1.903   2.359  0.3222  0.6028  0.0952
  446SOL    HW1 1337   0.095   1.983   2.382  0.5115 -0.0642  2.8408
  446SOL    HW2 1338   0.115   1.851   2.277 -0.8532 -3.0843  0.9174
  447SOL     OW 1339   1.249   1.702   1.961 -0.2792  0.6610  0.0486
  447SOL    HW1 1340   1.168   1.760   1.927 -0.9837 -1.4249 -0.0305
  447SOL    HW2 1341   1.332   1.707   1.901 -0.2733 -1.0818 -0.8447
  448SOL     OW 1342   0.150   1.530   2.027 -0.2824 -0.4836 -0.5893
  448SOL    HW1 1343   0.119   1.622   1.984 -0.0410  0.4554  2.0372
  448SOL    HW2 1344   0.138   1.520   2.130 -1.3869  0.4407  2.7529
  449SOL     OW 1345   2.029   2.970   0.838 -0.2116  0.5599  0.1519
  449SOL    HW1 1346   2.079   2.997   0.922 -1.6049  1.4680  0.6733
  449SOL    HW2 1347   2.029   2.871   0.824 -0.7296  3.4813 -2.0873
  450SOL     OW 1348   2.298   1.363   0.778  0.3375  0.1224  0.5497
  450SOL    HW1 1349   2.276   1.267   0.799  2.0654 -3.2888 -1.5630
  450SOL    HW2 1350   2.221   1.412   0.728  0.6421  1.9113 -0.3792
  451SOL     OW 1351   1.456   0.038   1.468 -0.1402  0.0132 -0.2415
  451SOL    HW1 1352   1.385   0.109   1.476  3.6853  0.4480  0.1599
  451SOL    HW2 1353   1.459  -0.020   1.555 -0.6020  0.4375 -0.7381
  452SOL     OW 1354   2.646   2.297   2.220 -0.5657  0.0300  0.1881
  452SOL    HW1 1355   2.590   2.382   2.243 -1.4202 -1.0396 -1.5898
  452SOL    HW2 1356   2.667   2.242   2.302 -0.2080  1.8219 -0.0002
  453SOL     OW 1357   2.444   2.656   3.084  0.1307  0.2589 -0.3458
  453SOL    HW1 1358   2.361   2.720   3.067 -2.3559  2.1610 -0.2188
  453SOL    HW2 1359   2.444   2.566   3.031  1.2496 -0.9834 -1.0757
  454SOL     OW 1360   0.968   1.113   2.094 -0.2582 -0.1206  0.5844
  454SOL    HW1 1361   0.944   1.155   2.003  1.1899 -1.5060  2.3084
  454SOL    HW2 1362   1.033   1.173   2.146  0.4715 -1.5757 -0.2337
  455SOL     OW 1363   0.714   2.651   2.865  0.3992  0.2175  0.1151
  455SOL    HW1 1364   0.788   2.707   2.907  0.3472 -0.6568 -1.3440
  455SOL    HW2 1365   0.704   2.559   2.915  1.0056  2.3439 -1.2340
  456SOL     OW 1366   0.520   1.828   0.340  0.4975 -0.2264 -0.5841
  456SOL    HW1 1367   0.546   1.826   0.440 -1.3467 -2.0592  0.6341
  456SOL    HW2 1368   0.532   1.921   0.296 -1.2421 -3.9326 -0.1209
  457SOL     OW 1369   0.350   2.649   0.735 -0.7275  0.6273  0.2069
  457SOL    HW1 1370   0.351   2.640   0.632  0.9228 -0.8344  2.4910
  457SOL    HW2 1371   0.441   2.613   0.775  2.2457  0.2586 -1.0242
  458SOL     OW 1372   2.990   2.981   1.250  0.0065 -0.5367 -0.1743
  458SOL    HW1 1373   3.020   3.036   1.166 -2.0968 -0.4785 -1.7361
  458SOL    HW2 1374   2.929   2.900   1.216  3.3345 -1.4412 -1.5801
  459SOL     OW 1375   2.133   2.553   0.919 -0.0287 -0.1451  0.2588
  459SOL    HW1 1376   2.152   2.634   0.987  1.2993 -1.2308  3.1699
  459SOL    HW2 1377   2.217   2.529   0.860 -1.7509 -0.4406 -1.6684
  460SOL     OW 1378   1.137   1.945   2.963 -0.2753 -0.1569 -0.9172
  460SOL    HW1 1379   1.177   2.029   2.910  1.7597  0.0771 -1.6694
  460SOL    HW2 1380   1.212   1.881   3.001  1.1657 -1.1048  2.0071
  461SOL     OW 1381   0.480   2.127   2.673 -0.6725  0.4038  0.4183
  461SOL    HW1 1382   0.411   2.061   2.630 -0.2741 -0.7547 -2.4114
  461SOL    HW2 1383   0.539   2.087   2.754  2.4111 -0.2391  2.4782
  462SOL     OW 1384   0.936   1.215   1.858  0.1885  0.1843 -0.3583
  462SOL    HW1 1385   0.989   1.158   1.795 -0.5537  1.0128  0.8284
  462SOL    HW2 1386   0.872   1.282   1.803  0.7544 -1.5989  0.7167
  463SOL     OW 1387   0.444   0.793   0.602  0.1150 -0.2266  0.4922
  463SOL    HW1 1388   0.483   0.710   0.550 -1.9335  0.0083  3.0483
  463SOL    HW2 1389   0.338   0.791   0.589 -1.5019  0.8024  1.5530
  464SOL     OW 1390   0.596   2.243   2.287  0.0801 -0.4960 -0.8028
  464SOL    HW1 1391   0.548   2.312   2.348 -0.1834  0.7333  1.5238
  464SOL    HW2 1392   0.602   2.276   2.189 -0.7252 -0.1258 -1.4602
  465SOL     OW 1393   0.242   0.905   0.834  0.4542  0.8659  0.3234
  465SOL    HW1 1394   0.145   0.934   0.801 -2.4145  2.6242  3.2950
  465SOL    HW2 1395   0.257   0.801   0.833 -0.4163  0.1557  0.0262
  466SOL     OW 1396   1.362   1.116   1.136  0.3403 -0.2705 -0.0773
  466SOL    HW1 1397   1.421   1.198   1.156  0.2011  0.2692 -1.4134
  466SOL    HW2 1398   1.257   1.139   1.127  1.2363  1.1270  1.3281
  467SOL     OW 1399   0.474   0.377   2.366 -0.4472 -0.3782 -0.3672
  467SOL    HW1 1400   0.465   0.463   2.419  1.6907  0.5827 -2.5903
  467SOL    HW2 1401   0.465   0.288   2.419  1.7555 -0.1522  0.4124
  468SOL     OW 1402   0.437   2.281   1.670  0.5469  0.0916 -0.0977
  468SOL    HW1 1403   0.446   2.369   1.723 -1.0300 -0.1714 -0.6224
  468SOL    HW2 1404   0.438   2.302   1.567  2.9213  0.9224  0.0135
  469SOL     OW 1405   1.504   1.358   1.189  0.0856  0.4489 -0.9076
  469SOL    HW1 1406   1.601   1.316   1.186  0.0003 -3.7257  0.3596
  469SOL    HW2 1407   1.491   1.434   1.254 -2.1027  2.6551 -3.6581
  470SOL     OW 1408   3.017   1.686   0.737  0.1640  0.0810 -0.1037
  470SOL    HW1 1409   3.111   1.729   0.748 -0.2548 -1.3166 -2.3879
  470SOL    HW2 1410   2.931   1.745   0.763 -0.3256  0.2252  1.5808
  471SOL     OW 1411   2.617   1.337   2.140  0.0269 -0.4005 -0.6486
  471SOL    HW1 1412   2.597   1.265   2.211  2.3444  1.3852  1.1458
  471SOL    HW2 1413   2.716   1.374   2.151  0.1440  2.3233  1.0294
  472SOL     OW 1414   1.099   2.426   3.049 -0.1590  0.2186  0.0254
  472SOL    HW1 1415   1.139   2.439   3.142 -0.6819  0.0993  0.7396
  472SOL    HW2 1416   1.061   2.328   3.038  0.8491 -1.9883  0.7215
  473SOL     OW 1417   1.100   1.544   0.918  0.3147  0.3399  0.1736
  473SOL    HW1 1418   1.007   1.541   0.971 -0.1230  3.1979  1.7074
  473SOL    HW2 1419   1.179   1.560   0.978 -0.4427 -0.4083 -4.4514
  474SOL     OW 1420   0.821   1.219   0.645  0.5626 -0.3418  0.4164
  474SOL    HW1 1421   0.791   1.188   0.553 -1.7038  1.5747  1.7095
  474SOL    HW2 1422   0.849   1.144   0.710 -2.1713 -0.7924 -0.6107
  475SOL     OW 1423   2.861   0.111   0.771  0.1850 -0.1962 -0.3506
  475SOL    HW1 1424   2.949   0.104   0.827  0.4823  0.0658 -0.6336
  475SOL    HW2 1425   2.782   0.116   0.837  1.8014  0.9668 -0.4023
  476SOL     OW 1426   0.920   3.014   1.786 -0.2196  0.5587  0.6696
  476SOL    HW1 1427   0.997   3.027   1.854 -3.3872  2.6474  1.7677
  476SOL    HW2 1428   0.950   2.968   1.700 -0.5475  1.2281  3.4168
  477SOL     OW 1429   1.424   0.331   2.451  0.0612  0.1718 -0.1868
  477SOL    HW1 1430   1.406   0.319   2.553 -4.1584 -1.4407 -1.3794
  477SOL    HW2 1431   1.506   0.274   2.423 -1.1262 -0.1573  0.0618
  478SOL     OW 1432   2.257   1.797   0.231  0.3363 -0.4491 -0.5056
  478SOL    HW1 1433   2.188   1.721   0.206 -2.1223 -0.2685  0.7923
  478SOL    HW2 1434   2.352   1.766   0.224 -2.1609 -0.0155  0.8264
  479SOL     OW 1435   1.284   1.020   2.887  0.8458 -0.1632  0.1360
  479SOL    HW1 1436   1.355   1.052   2.822 -2.4337  0.7703 -0.7028
  479SOL    HW2 1437   1.191   0.997   2.850  3.7976 -0.4698  2.1633
  480SOL     OW 1438   2.513   2.320   0.381 -0.2008  0.0801  0.3336
  480SOL    HW1 1439   2.478   2.229   0.410  1.3970 -0.5901  1.2680
  480SOL    HW2 1440   2.464   2.367   0.301 -0.8865  0.1140  1.5677
  481SOL     OW 1441   1.084   1.154   0.798  0.1251 -0.2445 -0.2221
  481SOL    HW1 1442   1.092   1.234   0.734  2.9264 -3.5598 -2.4232
  481SOL    HW2 1443   1.110   1.177   0.896  1.8559 -3.2572 -0.5486
  482SOL     OW 1444   1.603   0.353   2.053 -0.2951 -0.4479  0.4217
  482SOL    HW1 1445   1.614   0.437   1.997 -2.5028 -1.5477 -0.2268
  482SOL    HW2 1446   1.694   0.308   2.086 -1.1289  0.6550 -1.1830
  483SOL     OW 1447   0.161   2.368   1.258 -0.0459 -0.7043  0.0301
  483SOL    HW1 1448   0.078   2.360   1.320  1.3896  1.0016 -2.5243
  483SOL    HW2 1449   0.137   2.419   1.170 -0.5166 -2.7373 -0.9995
  484SOL     OW 1450   1.707   0.969   1.399  0.1222 -0.0478  0.2361
  484SOL    HW1 1451   1.793   0.914   1.405  1.2132  0.1840 -2.1346
  484SOL    HW2 1452   1.723   1.069   1.403  0.7126 -0.6898  1.0707
  485SOL     OW 1453   0.689   1.087   1.782  0.0052  0.5364 -0.3793
  485SOL    HW1 1454   0.678   1.083   1.677  0.9001 -3.3869  0.5680
  485SOL    HW2 1455   0.776   1.122   1.819 -0.0775  0.3758 -0.5354
  486SOL     OW 1456   0.936   1.971   2.480 -0.1529  0.3284  0.3589
  486SOL    HW1 1457   0.976   1.952   2.574 -0.3415  2.5333 -1.9576
  486SOL    HW2 1458   0.836   1.993   2.481  1.3818 -1.0573 -3.6394
  487SOL     OW 1459   1.707   1.506   0.900 -0.2579 -0.0164  0.4224
  487SOL    HW1 1460   1.714   1.408   0.873  0.4355 -0.6361  1.1501
  487SOL    HW2 1461   1.779   1.572   0.872  2.6791  0.7646  0.0278
  488SOL     OW 1462   2.984   0.955   2.212 -0.6662  0.5314  0.2561
  488SOL    HW1 1463   3.004   0.886   2.140  1.8015  2.3508  1.4393
  488SOL    HW2 1464   3.009   0.928   2.313 -1.1528 -2.0100  0.5005
  489SOL     OW 1465   2.723   0.271   1.332  0.0886  0.3182  0.3148
  489SOL    HW1 1466   2.677   0.222   1.408 -0.8869  3.0754 -1.8237
  489SOL    HW2 1467   2.826   0.253   1.331 -2.6516 -0.5671  1.7564
  490SOL     OW 1468   1.420   2.976   2.805  0.2258 -0.1601  0.2683
  490SOL    HW1 1469   1.454   2.877   2.792  3.1425 -2.6310  0.1270
  490SOL    HW2 1470   1.428   3.025   2.714  0.2174 -0.6554 -2.2342
  491SOL     OW 1471   1.842   1.531   2.695  0.0800  0.6009  0.4271
  491SOL    HW1 1472   1.787   1.506   2.777  3.4448  1.6387 -0.7888
  491SOL    HW2 1473   1.944   1.516   2.715 -1.3769 -0.9834  0.4992
  492SOL     OW 1474   0.509   2.048   0.759 -0.4340 -0.4885  0.1641
  492SOL    HW1 1475   0.561   2.035   0.850  0.3817 -1.4042 -1.3265
  492SOL    HW2 1476   0.466   2.143   0.741 -0.2281 -0.6096  0.8249
  493SOL     OW 1477   0.422   1.439   2.068 -0.1151 -0.9229  0.4418
  493SOL    HW1 1478   0.330   1.478   2.035 -1.2878  0.1247 -0.2922
  493SOL    HW2 1479   0.405   1.374   2.148 -1.2345 -1.0874 -1.2521
  494SOL     OW 1480   2.650   2.697   0.158  0.1554 -0.0139 -0.1569
  494SOL    HW1 1481   2.656   2.634   0.244  0.9831  0.1013 -0.8567
  494SOL    HW2 1482   2.574   2.668   0.093  0.3258 -0.3853  0.3481
  495SOL     OW 1483   2.729   2.669   2.727  0.0344  0.2939  0.1251
  495SOL    HW1 1484   2.717   2.569   2.724  0.7428  0.5586  1.2013
  495SOL    HW2 1485   2.751   2.709   2.630  1.0002  1.4457  1.5916
  496SOL     OW 1486   2.043   2.168   0.717  0.6562  0.3046 -0.1399
  496SOL    HW1 1487   2.078   2.204   0.812 -0.7764 -2.2287  1.2297
  496SOL    HW2 1488   2.020   2.068   0.715 -0.7668 -2.4988  0.3140
  497SOL     OW 1489   0.214   2.973   2.400  0.4508 -0.4216 -0.4017
  497SOL    HW1 1490   0.141   3.032   2.440  1.9837 -1.2185  0.1785
  497SOL    HW2 1491   0.271   3.030   2.334 -0.6549  0.5219  1.8830
  498SOL     OW 1492   1.240   1.455   1.145 -0.0943  0.1950  0.3197
  498SOL    HW1 1493   1.330   1.423   1.186  2.0206  0.5996 -1.9434
  498SOL    HW2 1494   1.167   1.503   1.206  0.4125 -3.0441 -0.5412
  499SOL     OW 1495   0.800   1.820   0.522  0.6783 -0.0829  0.0377
  499SOL    HW1 1496   0.787   1.715   0.536  2.4567 -1.3086 -0.9059
  499SOL    HW2 1497   0.846   1.871   0.601 -1.3112  1.0894 -3.1613
  500SOL     OW 1498   1.406   2.989   1.696 -0.3746 -0.2195 -0.1647
  500SOL    HW1 1499   1.369   2.995   1.794  0.4457  0.7458 -0.1107
  500SOL    HW2 1500   1.460   2.900   1.684 -0.3925 -0.8354  1.9084
  501SOL     OW 1501   0.771   1.135   2.300 -0.2737 -0.1269 -0.2478
  501SOL    HW1 1502   0.681   1.094   2.263 -2.3376  2.4159 -2.1411
  501SOL    HW2 1503   0.851   1.120   2.234  1.8254  0.8373 -0.1570
  502SOL     OW 1504   2.567   0.975   1.751 -0.0097 -0.6371 -0.6872
  502SOL    HW1 1505   2.561   0.990   1.645  1.4250 -0.1363 -1.9128
  502SOL    HW2 1506   2.540   0.882   1.784  0.1540  1.8855  1.8134
  503SOL     OW 1507   1.336   0.178   0.615 -0.0127  0.3907  0.0652
  503SOL    HW1 1508   1.251   0.234   0.587 -1.9852  3.2165 -1.0542
  503SOL    HW2 1509   1.416   0.246   0.642  2.5019  2.0266 -2.6480
  504SOL     OW 1510   3.012   2.330   1.409 -0.6267  0.1189  0.2690
  504SOL    HW1 1511   3.000   2.422   1.446  2.0046 -0.3709 -2.6528
  504SOL    HW2 1512   2.943   2.262   1.453 -0.1928  0.1141 -3.4056
  505SOL     OW 1513   2.281   1.161   1.461 -0.4033  0.6312 -0.4323
  505SOL    HW1 1514   2.255   1.238   1.395  1.4750 -0.0822 -1.4973
  505SOL    HW2 1515   2.352   1.194   1.532  2.7195  2.7089  2.4338
  506SOL     OW 1516   1.988   0.256   1.773 -0.4771  0.2785  0.6127
  506SOL    HW1 1517   2.032   0.175   1.812 -1.5250  3.2060 -2.6343
  506SOL    HW2 1518   2.013   0.342   1.828  0.9780  2.0695 -2.3884
  507SOL     OW 1519   0.510   0.646   2.179 -0.2898 -0.4191 -0.2669
  507SOL    HW1 1520   0.421   0.630   2.127  1.7709 -2.2349  0.3968
  507SOL    HW2 1521   0.578   0.585   2.129  0.5870 -1.6844 -3.0031
  508SOL     OW 1522   0.274   1.642   0.901  0.1062  0.4159 -0.3778
  508SOL    HW1 1523   0.360   1.686   0.865 -1.2645  0.3629 -1.0818
  508SOL    HW2 1524   0.240   1.696   0.986 -1.2609  1.5702  0.2690
  509SOL     OW 1525   1.334   1.197   2.464 -0.2947  0.1377  0.7903
  509SOL    HW1 1526   1.243   1.158   2.472 -1.5043 -4.1560 -2.8808
  509SOL    HW2 1527   1.391   1.154   2.389 -1.5151  0.4572  2.3531
  510SOL     OW 1528   1.301   1.971   2.039  0.3765 -0.4319 -0.0331
  510SOL    HW1 1529   1.252   2.052   2.067  0.8025  0.5710 -2.9396
  510SOL    HW2 1530   1.259   1.886   2.088 -2.0511 -2.3752 -1.4136
  511SOL     OW 1531   3.072   2.645   1.292  0.5413  0.0585  0.2962
  511SOL    HW1 1532   3.028   2.614   1.201  0.9612  0.6125  0.8118
  511SOL    HW2 1533   3.030   2.613   1.377  1.6748 -0.2232 -0.7464
  512SOL     OW 1534   2.412   0.422   1.392  0.3422 -0.1411 -0.0334
  512SOL    HW1 1535   2.309   0.402   1.400 -1.0761  5.0503  0.2978
  512SOL    HW2 1536   2.451   0.368   1.310 -2.1157  0.2765  0.9131
  513SOL     OW 1537   2.464   1.990   0.844 -0.2772 -0.5589  0.5484
  513SOL    HW1 1538   2.411   2.076   0.815  0.0198  0.2996  2.6898
  513SOL    HW2 1539   2.555   1.983   0.797  0.5920  0.6612 -0.6519
  514SOL     OW 1540   0.666   2.788   0.397  0.3162 -0.0643 -0.5607
  514SOL    HW1 1541   0.620   2.813   0.307  0.1387 -2.1786 -0.0800
  514SOL    HW2 1542   0.668   2.860   0.472  2.0204 -1.7156 -0.1069
  515SOL     OW 1543   2.017   1.176   2.309  0.0503  0.2517 -0.1560
  515SOL    HW1 1544   1.975   1.205   2.220 -2.8700 -1.4427  1.4165
  515SOL    HW2 1545   1.970   1.203   2.394 -3.6561 -1.4275 -3.2941
  516SOL     OW 1546   0.262   0.252   1.964 -0.3244  0.1441  0.0066
  516SOL    HW1 1547   0.357   0.236   1.932 -2.7878 -0.5753  1.3780
  516SOL    HW2 1548   0.187   0.219   1.896 -2.3715  0.0087 -0.2182
  517SOL     OW 1549   0.377   3.047   1.192  0.0229 -0.0724 -1.1530
  517SOL    HW1 1550   0.408   3.148   1.206  0.8129 -1.2696 -3.3735
  517SOL    HW2 1551   0.305   3.004   1.253  0.6795 -2.2019  0.4522
  518SOL     OW 1552   2.153   0.008   1.768  0.3489  0.6302  0.4595
  518SOL    HW1 1553   2.225   0.078   1.778  1.8835  2.4636  0.7959
  518SOL    HW2 1554   2.186  -0.079   1.719 -1.5635  1.8323 -0.7458
  519SOL     OW 1555   2.400   2.216   2.599 -0.3416 -0.1801  0.1976
  519SOL    HW1 1556   2.302   2.212   2.630 -0.1990 -0.7052  1.1300
  519SOL    HW2 1557   2.446   2.307   2.585  0.8170  0.3635  0.2561
  520SOL     OW 1558   1.764   2.852   1.845  0.6176  0.2438 -0.8194
  520SOL    HW1 1559   1.694   2.841   1.923 -0.4205 -0.1949 -1.3426
  520SOL    HW2 1560   1.836   2.772   1.843  2.4971  1.8054  1.1327
  521SOL     OW 1561   0.555   0.065   2.103  0.0489  0.5112  0.6926
  521SOL    HW1 1562   0.457   0.054   2.140  2.0157  0.9972 -1.8350
  521SOL    HW2 1563   0.630   0.069   2.173 -0.7337 -1.6281 -0.4845
  522SOL     OW 1564   0.170   1.909   1.502 -0.1077  0.0208  0.7000
  522SOL    HW1 1565   0.240   1.955   1.561 -2.5710  0.9141 -0.3917
  522SOL    HW2 1566   0.150   1.955   1.411 -1.4704  0.5244  1.1794
  523SOL     OW 1567   2.230   2.905   1.609 -0.5345  0.5495  0.6084
  523SOL    HW1 1568   2.300   2.828   1.578 -0.2918 -1.8400  0.0751
  523SOL    HW2 1569   2.139   2.896   1.560  0.5826 -0.4152 -0.1757
  524SOL     OW 1570   0.185   2.763   2.798 -0.2816  0.0754  0.1564
  524SOL    HW1 1571   0.138   2.836   2.855  2.1161 -3.4600  0.6575
  524SOL    HW2 1572   0.287   2.754   2.802 -1.7592 -0.4026 -1.1931
  525SOL     OW 1573   2.162   1.929   0.484  1.0040 -0.7363  0.4881
  525SOL    HW1 1574   2.145   1.868   0.567 -2.8265 -2.4947 -0.2534
  525SOL    HW2 1575   2.191   1.883   0.400  1.1757  0.3535  3.4445
  526SOL     OW 1576   0.429   1.511   1.596  0.1230 -0.6628  0.1459
  526SOL    HW1 1577   0.411   1.515   1.695 -2.6719  1.0579 -0.9152
  526SOL    HW2 1578   0.466   1.420   1.561 -0.7495  0.0022  1.1347
  527SOL     OW 1579   1.102   2.922   1.253  1.0360 -0.2159 -0.0951
  527SOL    HW1 1580   1.195   2.893   1.291  0.1418  0.4401 -2.3861
  527SOL    HW2 1581   1.103   3.024   1.234 -0.7239 -0.6403 -1.7740
  528SOL     OW 1582   1.358   2.412   0.487  0.1867  0.1044  0.0944
  528SOL    HW1 1583   1.365   2.310   0.516  0.2865 -0.5193  1.4956
  528SOL    HW2 1584   1.408   2.476   0.552 -2.4503  1.5609 -0.1739
  529SOL     OW 1585   1.887   1.712   0.836  0.0017 -0.1739  0.6916
  529SOL    HW1 1586   1.866   1.728   0.732 -0.1442 -1.2616 -1.2432
  529SOL    HW2 1587   1.877   1.799   0.890  0.6787  0.2455  0.2445
  530SOL     OW 1588   0.286   2.442   0.335  0.0779 -0.8786 -0.2282
  530SOL    HW1 1589   0.245   2.514   0.393  0.6191 -1.3922  1.2386
  530SOL    HW2 1590   0.368   2.394   0.384 -0.5091  0.6998  0.9156
  531SOL     OW 1591   1.812   0.962   1.010  0.1689 -1.3342  0.5061
  531SOL    HW1 1592   1.857   0.947   0.922 -3.2518  1.5884 -0.3075
  531SOL    HW2 1593   1.712   0.934   0.999 -2.8694  0.9235  1.4772
  532SOL     OW 1594   0.479   1.054   0.767 -0.5272 -0.5799 -0.5967
  532SOL    HW1 1595   0.527   1.035   0.676  0.4706  0.4316  0.0854
  532SOL    HW2 1596   0.389   1.004   0.768 -0.4752 -0.8637 -1.0813
  533SOL     OW 1597   1.758   0.039   2.575  0.1386  0.0215  0.0160
  533SOL    HW1 1598   1.848   0.001   2.605 -0.0287 -0.4521  0.2762
  533SOL    HW2 1599   1.728   0.123   2.625 -1.5014 -0.8412 -1.0716
  534SOL     OW 1600   0.381   0.211   1.564  0.2275 -0.2711 -0.1914
  534SOL    HW1 1601   0.481   0.233   1.589  3.1699  0.3648 -0.5319
  534SOL    HW2 1602   0.329   0.295   1.524 -1.4624  0.3017 -1.5586
  535SOL     OW 1603   1.955   0.364   0.164 -0.2066  0.4812  0.2260
  535SOL    HW1 1604   1.963   0.460   0.213  0.2477 -2.4616  3.4809
  535SOL    HW2 1605   1.940   0.283   0.232  0.2752 -0.5131 -0.9443
  536SOL     OW 1606   1.407   2.641   0.955 -0.8788 -0.6611 -0.4104
  536SOL    HW1 1607   1.366   2.600   1.036  0.7270  1.2729  1.7932
  536SOL    HW2 1608   1.334   2.672   0.890  0.9365 -0.3842  0.4708
  537SOL     OW 1609   0.818   0.282   2.426  0.4774  0.1371 -0.1416
  537SOL    HW1 1610   0.836   0.350   2.356  0.8700 -2.5823  1.1153
  537SOL    HW2 1611   0.804   0.189   2.383  0.8605  1.3287  1.5752
  538SOL     OW 1612   1.659   2.297   1.368 -0.1381  0.1085 -0.8755
  538SOL    HW1 1613   1.670   2.195   1.369 -0.0736 -0.4023 -0.3532
  538SOL    HW2 1614   1.743   2.350   1.395 -0.3212  0.2890 -0.0384
  539SOL     OW 1615   0.184   1.641   2.699 -0.4106  0.2540  0.1437
  539SOL    HW1 1616   0.103   1.625   2.635 -0.4248 -1.3828 -0.8883
  539SOL    HW2 1617   0.195   1.742   2.724 -0.4447  2.3508  0.6321
  540SOL     OW 1618   2.654   1.738   1.933  0.2946 -0.4132  0.2136
  540SOL    HW1 1619   2.593   1.663   1.964 -0.9376  2.1061 -0.0917
  540SOL    HW2 1620   2.608   1.829   1.944 -0.8242 -0.1503 -0.9878
  541SOL     OW 1621   0.580   2.169   0.028  0.0451 -0.0739  0.4452
  541SOL    HW1 1622   0.603   2.135   0.126  1.3915 -1.2422  0.1596
  541SOL    HW2 1623   0.476   2.168   0.011 -1.0432 -0.8563  1.3996
  542SOL     OW 1624   2.216   2.597   0.462  0.3221  0.3147  0.2862
  542SOL    HW1 1625   2.205   2.697   0.441  0.8542 -0.9541 -0.7546
  542SOL    HW2 1626   2.128   2.542   0.467  0.8799  0.6092 -1.0080
  543SOL     OW 1627   1.076   1.799   1.578 -0.4799  0.4485  0.1422
  543SOL    HW1 1628   1.074   1.830   1.676 -1.0649  0.6184  1.0618
  543SOL    HW2 1629   1.048   1.874   1.507 -2.4814 -0.2006  1.1473
  544SOL     OW 1630   1.105   0.503   0.170  0.2275  0.2401  0.0498
  544SOL    HW1 1631   1.067   0.418   0.220 -0.4447  1.5916  0.6688
  544SOL    HW2 1632   1.164   0.484   0.088 -0.3942  2.8048  1.8815
  545SOL     OW 1633   1.099   1.778   0.782 -0.2746  0.5601 -0.0754
  545SOL    HW1 1634   1.189   1.814   0.744  0.4380  3.0851  1.7770
  545SOL    HW2 1635   1.100   1.688   0.835  0.3717  0.7126  2.1009
  546SOL     OW 1636   2.691   1.555   3.024  0.1438  0.0703  0.2010
  546SOL    HW1 1637   2.646   1.641   2.990  0.4466 -1.4671 -2.3457
  546SOL    HW2 1638   2.626   1.486   3.060 -1.4055 -3.0013  0.5094
  547SOL     OW 1639   0.632   3.009   2.553  0.1330 -0.2374 -0.2732
  547SOL    HW1 1640   0.687   3.001   2.644  0.9520  1.2966 -1.3133
  547SOL    HW2 1641   0.582   2.924   2.535 -2.3203  0.6904 -0.3115
  548SOL     OW 1642   2.055   0.832   3.034 -0.1345 -0.7188  0.6574
  548SOL    HW1 1643   1.955   0.807   3.009 -0.8999  0.5977  1.2422
  548SOL    HW2 1644   2.074   0.936   3.045  0.7639 -0.4771 -0.1102
  549SOL     OW 1645   0.655   0.585   0.228  0.6556 -0.2575 -0.2181
  549SOL    HW1 1646   0.590   0.605   0.151 -3.0650 -1.3308 -2.7215
  549SOL    HW2 1647   0.743   0.634   0.218  0.6010 -0.8735  0.8323
  550SOL     OW 1648   2.561   2.801   2.897 -0.2505 -0.1702  0.1859
  550SOL    HW1 1649   2.530   2.741   2.974 -0.8662 -0.2526 -1.1363
  550SOL    HW2 1650   2.629   2.762   2.828  0.2115  0.3981 -1.0905
  551SOL     OW 1651   0.236   0.922   0.256 -0.3493 -0.4933 -0.2698
  551SOL    HW1 1652   0.335   0.937   0.235 -2.3274  1.0299  2.2048
  551SOL    HW2 1653   0.222   0.886   0.354  3.4976  0.5723  1.4017
  552SOL     OW 1654   0.665   2.965   1.877  0.1295 -0.3300  0.3182
  552SOL    HW1 1655   0.638   3.010   1.965  0.0738  0.6351  1.4022
  552SOL    HW2 1656   0.764   2.971   1.858 -0.2084  0.1957  1.9154
  553SOL     OW 1657   2.901   2.412   0.336  0.5161  0.0244 -0.5692
  553SOL    HW1 1658   2.868   2.321   0.378 -2.6221  0.5569  0.0766
  553SOL    HW2 1659   2.827   2.476   0.345  0.9876 -0.5639  0.5479
  554SOL     OW 1660   2.117   0.355   0.465 -0.4388  0.0742 -0.1248
  554SOL    HW1 1661   2.191   0.365   0.390  1.2179  0.2244 -1.9605
  554SOL    HW2 1662   2.130   0.268   0.518 -2.2518  0.2301  1.3832
  555SOL     OW 1663   0.407   2.830   2.517  0.3410  0.7572 -0.0838
  555SOL    HW1 1664   0.316   2.879   2.483 -0.0550 -0.9484  0.6657
  555SOL    HW2 1665   0.444   2.779   2.438  0.6131  1.7375  2.4204
  556SOL     OW 1666   0.865   2.379   1.588 -0.1795  0.7042 -0.0665
  556SOL    HW1 1667   0.921   2.461   1.627 -1.3330 -0.3921 -0.6761
  556SOL    HW2 1668   0.915   2.343   1.504  0.1975 -1.4656  1.7618
  557SOL     OW 1669   0.143   2.046   0.205  0.3294 -0.0158  0.1996
  557SOL    HW1 1670   0.084   1.996   0.139 -0.9276 -0.5635  2.3898
  557SOL    HW2 1671   0.219   2.094   0.159  0.2791  1.2088 -1.7933
  558SOL     OW 1672   2.750   2.193   0.434 -0.4790 -0.5205 -0.2083
  558SOL    HW1 1673   2.675   2.257   0.406  3.1021 -0.7089 -1.0476
  558SOL    HW2 1674   2.748   2.092   0.407  1.6166  0.4181  1.5769
  559SOL     OW 1675   0.436   2.324   1.377 -0.1562  0.1244  0.2105
  559SOL    HW1 1676   0.351   2.348   1.325  2.1535  1.6820 -0.7918
  559SOL    HW2 1677   0.492   2.250   1.328 -1.8130  1.4551  1.2699
  560SOL     OW 1678   2.112   1.095   3.076  0.2036 -0.0810  0.1042
  560SOL    HW1 1679   2.150   1.085   3.172  1.0904 -3.5230  0.2203
  560SOL    HW2 1680   2.177   1.090   2.991  3.3806 -0.5173 -1.4190
  561SOL     OW 1681   0.022   1.887   0.009 -0.1548  0.0330  0.9916
  561SOL    HW1 1682  -0.007   1.816   0.079  2.9678 -0.6120  0.1616
  561SOL    HW2 1683  -0.048   1.963  -0.005  1.5144  0.0288 -2.7919
  562SOL     OW 1684   1.073   2.180   2.329  0.5301  0.1479 -0.7783
  562SOL    HW1 1685   1.042   2.277   2.352  0.0694 -0.3253 -0.6194
  562SOL    HW2 1686   1.008   2.111   2.369 -1.6841 -5.0136 -2.0856
  563SOL     OW 1687   0.701   2.521   2.620  0.1667 -0.0977  0.1917
  563SOL    HW1 1688   0.777   2.465   2.577 -0.2616  1.2578 -1.8024
  563SOL    HW2 1689   0.723   2.571   2.709  0.9226  1.2899 -1.7374
  564SOL     OW 1690   2.918   1.405   2.910  0.3441 -0.8295 -0.5582
  564SOL    HW1 1691   2.828   1.408   2.955 -0.6249 -1.7810 -1.7071
  564SOL    HW2 1692   2.946   1.503   2.877  1.8866 -0.4571 -1.0354
  565SOL     OW 1693   2.492   1.945   2.649  0.0653 -0.2597 -0.0682
  565SOL    HW1 1694   2.471   2.044   2.618  2.2062  2.2745 -0.8987
  565SOL    HW2 1695   2.579   1.947   2.706 -0.5451  0.5751  3.6915
  566SOL     OW 1696   1.985   2.890   1.468 -0.5026  0.1270 -0.1096
  566SOL    HW1 1697   1.953   2.804   1.517 -0.8404 -0.3839  1.4658
  566SOL    HW2 1698   1.953   2.906   1.372  0.3402 -0.0212  1.3621
  567SOL     OW 1699   2.447   0.003   2.330  0.2650 -0.0623  0.1813
  567SOL    HW1 1700   2.347   0.019   2.356  0.1093 -1.0891  0.5296
  567SOL    HW2 1701   2.451   0.013   2.226 -0.5500 -0.4071  0.9248
  568SOL     OW 1702   1.539   1.778   0.311 -0.3595 -0.5837  0.3413
  568SOL    HW1 1703   1.493   1.846   0.246 -0.5788 -0.9858  0.5870
  568SOL    HW2 1704   1.641   1.766   0.301 -0.1982 -0.4532  1.3042
  569SOL     OW 1705   0.241   0.648   0.855 -0.4613 -0.1033  1.2746
  569SOL    HW1 1706   0.313   0.587   0.805 -0.8324 -0.3833 -0.0650
  569SOL    HW2 1707   0.152   0.598   0.851  3.2135  1.2042  2.0261
  570SOL     OW 1708   0.618   0.860   2.884 -0.7322 -0.1340  0.4955
  570SOL    HW1 1709   0.674   0.863   2.795  0.9349  0.2695  1.3914
  570SOL    HW2 1710   0.638   0.936   2.948  0.7911 -2.4985  3.7506
  571SOL     OW 1711   0.829   0.012   1.113 -0.4673  0.3604 -0.0728
  571SOL    HW1 1712   0.827   0.036   1.009  1.7122  2.4881 -1.2600
  571SOL    HW2 1713   0.831  -0.093   1.136 -0.3031 -2.3719  1.5118
  572SOL     OW 1714   1.621   2.704   1.379  0.6350  0.4072  0.3414
  572SOL    HW1 1715   1.652   2.624   1.328 -0.5380  0.5944  1.9460
  572SOL    HW2 1716   1.668   2.797   1.350 -0.0915  1.3239  2.8297
  573SOL     OW 1717   3.074   0.486   2.025  1.0682 -0.2443 -0.2897
  573SOL    HW1 1718   3.049   0.402   2.070 -0.9804  0.2560  0.6076
  573SOL    HW2 1719   3.091   0.478   1.921  2.1832 -1.0595 -0.4108
  574SOL     OW 1720   0.161   1.758   1.135 -0.4462 -0.2717 -0.0611
  574SOL    HW1 1721   0.172   1.738   1.237 -1.2361 -1.5962  0.7044
  574SOL    HW2 1722   0.096   1.838   1.115  0.0744  2.0895  1.0479
  575SOL     OW 1723   0.880   2.183   0.938 -0.0731 -0.0763 -0.2441
  575SOL    HW1 1724   0.835   2.236   1.020  0.6187  0.0880  0.0620
  575SOL    HW2 1725   0.925   2.248   0.872  0.6371 -0.2406 -3.6724
  576SOL     OW 1726   2.906   3.025   1.698  0.1285 -0.4069  0.1779
  576SOL    HW1 1727   2.809   3.002   1.673 -1.2073 -1.0919  2.0795
  576SOL    HW2 1728   2.928   3.129   1.676  2.8125  2.4460 -1.2231
  577SOL     OW 1729   2.668   1.248   0.027 -0.0606  0.0342  0.0683
  577SOL    HW1 1730   2.642   1.160  -0.020 -0.8781 -0.4029 -3.1246
  577SOL    HW2 1731   2.693   1.229   0.124  0.9421  2.3546 -0.3285
  578SOL     OW 1732   1.410   2.797   2.518  0.5372 -0.1485  0.1863
  578SOL    HW1 1733   1.316   2.835   2.490 -0.5895  0.6576 -0.2149
  578SOL    HW2 1734   1.488   2.845   2.474  0.9686 -0.9385  0.9777
  579SOL     OW 1735   0.046   2.449   0.200  0.6805 -0.5067 -0.3356
  579SOL    HW1 1736  -0.042   2.433   0.252  0.3073  1.0059  1.6373
  579SOL    HW2 1737   0.132   2.427   0.256  0.8424  2.7892 -0.2558
  580SOL     OW 1738   0.977   2.638   0.402  0.0103 -0.3867  0.0709
  580SOL    HW1 1739   1.071   2.629   0.358 -1.5909  0.6554 -0.5211
  580SOL    HW2 1740   0.905   2.645   0.335  2.7750 -1.0445  1.4816
  581SOL     OW 1741   1.296   2.690   1.449 -0.0274  0.3029 -0.3757
  581SOL    HW1 1742   1.357   2.607   1.468 -0.9492  0.0082  1.4837
  581SOL    HW2 1743   1.342   2.784   1.430 -1.3845 -0.5796 -1.8336
  582SOL     OW 1744   1.476   0.095   1.931 -0.0802 -0.4051  0.3451
  582SOL    HW1 1745   1.477   0.178   1.995 -0.0109  1.5496  2.1657
  582SOL    HW2 1746   1.552   0.090   1.859 -1.9586 -1.9462 -0.0075
  583SOL     OW 1747   2.450   3.090   0.528  0.5091 -0.3715 -0.2332
  583SOL    HW1 1748   2.532   3.036   0.492  0.1625  0.8603 -0.8660
  583SOL    HW2 1749   2.375   3.031   0.569  0.9582 -2.5719 -0.6081
  584SOL     OW 1750   1.554   1.127   2.322  0.2927  0.1170  0.1833
  584SOL    HW1 1751   1.595   1.207   2.267  5.7944  0.1399  3.3814
  584SOL    HW2 1752   1.628   1.082   2.384  3.0094  0.6806  1.3016
  585SOL     OW 1753   2.060   2.672   2.891 -0.5112 -0.3855 -0.2401
  585SOL    HW1 1754   2.113   2.582   2.865  2.5932 -1.1528 -0.7509
  585SOL    HW2 1755   1.957   2.663   2.897  0.5653  0.0970 -0.1799
  586SOL     OW 1756   2.898   0.405   1.522  0.2926  0.1628  0.1483
  586SOL    HW1 1757   2.890   0.481   1.590  1.0868 -0.0553 -3.7894
  586SOL    HW2 1758   2.801   0.395   1.477 -2.4836  0.1132  1.2173
  587SOL     OW 1759   2.105   1.459   2.699  0.6150  0.2230  0.4143
  587SOL    HW1 1760   2.151   1.394   2.630 -1.1289  1.0758 -0.0291
  587SOL    HW2 1761   2.172   1.502   2.764  0.6718 -2.4087  0.6779
  588SOL     OW 1762   0.540   2.698   2.317  0.1055  0.3483 -0.4477
  588SOL    HW1 1763   0.520   2.712   2.222  1.8402  1.8932  1.1106
  588SOL    HW2 1764   0.513   2.602   2.353 -0.6878 -2.4506  0.1566
  589SOL     OW 1765   2.184   1.290   2.498  0.1077  0.2507  0.1558
  589SOL    HW1 1766   2.144   1.242   2.409  0.8114 -3.9136 -1.5896
  589SOL    HW2 1767   2.288   1.280   2.507 -0.5905  1.1916  1.0550
  590SOL     OW 1768   2.371   1.753   2.064 -0.1044 -0.3511 -0.3275
  590SOL    HW1 1769   2.406   1.657   2.066 -3.6824  0.8575  1.8859
  590SOL    HW2 1770   2.345   1.788   2.160 -0.1862 -5.0171  1.3505
  591SOL     OW 1771   1.227   2.382   0.232  0.2577 -0.4146 -0.0531
  591SOL    HW1 1772   1.232   2.305   0.161 -1.1887 -0.0819  0.8219
  591SOL    HW2 1773   1.235   2.348   0.323 -2.7568  1.6283  0.1778
  592SOL     OW 1774   1.780   2.339   0.786  0.0164 -0.0221 -0.0701
  592SOL    HW1 1775   1.771   2.392   0.702  2.0605  1.8924  1.9822
  592SOL    HW2 1776   1.873   2.289   0.789  0.6160  0.6979  0.1350
  593SOL     OW 1777   0.735   0.311   0.227 -0.1839  0.5388  0.6234
  593SOL    HW1 1778   0.771   0.282   0.134  1.4397  2.5243 -0.3448
  593SOL    HW2 1779   0.722   0.415   0.231 -0.7750  1.6022 -1.6400
  594SOL     OW 1780   1.050   1.858   2.691  0.3385  0.3800 -0.2778
  594SOL    HW1 1781   1.145   1.829   2.651  1.5636 -0.3091 -0.4172
  594SOL    HW2 1782   1.069   1.883   2.793 -1.3311  1.1567 -0.6841
  595SOL     OW 1783   1.523   0.062   1.005 -0.6364  0.3980 -0.0438
  595SOL    HW1 1784   1.603  -0.002   0.988  1.0744 -1.4403 -1.9051
  595SOL    HW2 1785   1.441   0.053   0.939 -1.4846  2.0495 -0.2826
  596SOL     OW 1786   0.065   1.480   2.286  0.2840 -0.5555 -0.0404
  596SOL    HW1 1787   0.106   1.389   2.330 -2.1847 -2.3659  1.0076
  596SOL    HW2 1788   0.026   1.539   2.362 -1.4991 -1.1677  0.7839
  597SOL     OW 1789   1.972   2.680   1.838 -0.3189  0.1904 -0.5178
  597SOL    HW1 1790   1.925   2.672   1.749  0.3831  2.2148  0.6488
  597SOL    HW2 1791   2.061   2.639   1.836 -1.1064 -0.4654 -2.0861
  598SOL     OW 1792   2.523   2.882   1.216 -0.0970 -0.2305  0.1812
  598SOL    HW1 1793   2.588   2.934   1.284  0.6735  1.4320 -1.5806
  598SOL    HW2 1794   2.577   2.844   1.133 -0.9272 -2.0530 -2.2110
  599SOL     OW 1795   2.806   0.261   2.498 -0.3971  0.0791 -0.0549
  599SOL    HW1 1796   2.876   0.265   2.425 -2.2006  2.2482  0.1694
  599SOL    HW2 1797   2.753   0.346   2.495  0.8850 -0.7358 -0.5270
  600SOL     OW 1798   2.810   1.211   2.753  0.1152 -0.1250 -0.2749
  600SOL    HW1 1799   2.737   1.159   2.807 -1.2089 -1.4763 -0.1005
  600SOL    HW2 1800   2.863   1.276   2.811 -1.8173  1.1959 -3.7169
  601SOL     OW 1801   3.043   1.339   2.010 -1.0628 -0.8798  0.2262
  601SOL    HW1 1802   2.956   1.378   1.977 -0.7522  0.9722  1.3470
  601SOL    HW2 1803   3.122   1.409   2.025 -0.0918  0.0788 -2.8767
  602SOL     OW 1804   1.484   1.579   2.275  0.1105 -0.2181  0.2927
  602SOL    HW1 1805   1.394   1.551   2.324 -0.5569 -1.3940 -0.8624
  602SOL    HW2 1806   1.558   1.611   2.341  0.5603  0.8722 -2.6880
  603SOL     OW 1807   0.671   1.149   2.713 -0.2363  0.7053 -0.1443
  603SOL    HW1 1808   0.586   1.156   2.653  0.0980  3.9617 -2.7268
  603SOL    HW2 1809   0.729   1.063   2.702  0.0827 -0.6199  0.8543
  604SOL     OW 1810   2.466   0.973   0.177  0.1078  0.1222  0.4241
  604SOL    HW1 1811   2.550   1.034   0.166  0.3346 -0.8763  1.8740
  604SOL    HW2 1812   2.459   0.902   0.102 -0.2578 -0.1268  0.3174
  605SOL     OW 1813   2.505   1.135   1.953  0.1578 -0.4021  0.1972
  605SOL    HW1 1814   2.542   1.075   1.872 -0.7219 -1.8351 -0.7334
  605SOL    HW2 1815   2.566   1.215   1.976 -0.5522  1.6670  1.1388
  606SOL     OW 1816   1.510   2.531   2.535  0.5731 -0.6547 -0.1124
  606SOL    HW1 1817   1.460   2.621   2.512  0.7936 -0.2647  1.4307
  606SOL    HW2 1818   1.464   2.445   2.501 -0.5703 -1.9015 -0.0035
  607SOL     OW 1819   1.313   1.605   0.259  0.0008  0.2162 -0.4070
  607SOL    HW1 1820   1.228   1.652   0.283  1.1264 -0.2881 -2.7190
  607SOL    HW2 1821   1.397   1.658   0.293 -1.1231 -1.0299  1.0317
  608SOL     OW 1822   1.449   2.844   0.404  0.1911  0.0506  0.0830
  608SOL    HW1 1823   1.464   2.856   0.300 -1.3197  0.5228 -1.5382
  608SOL    HW2 1824   1.376   2.906   0.441  0.1236  0.2440 -1.5108
  609SOL     OW 1825   1.356   1.351   0.162  0.0220 -0.5529 -0.4776
  609SOL    HW1 1826   1.330   1.446   0.198  2.9368 -4.8764 -1.8604
  609SOL    HW2 1827   1.296   1.320   0.083 -2.4151 -0.2757 -0.2128
  610SOL     OW 1828   3.024   1.210   2.272  0.5578  0.8446  0.1337
  610SOL    HW1 1829   3.003   1.115   2.237  1.6084  1.1142 -0.2148
  610SOL    HW2 1830   3.012   1.280   2.200  1.1306 -1.8658  0.2325
  611SOL     OW 1831   2.494   0.253   1.184  0.1352 -0.2789 -0.4703
  611SOL    HW1 1832   2.440   0.163   1.208 -3.4668 -0.1487  2.0674
  611SOL    HW2 1833   2.595   0.248   1.215  0.4293  0.4157  1.3093
  612SOL     OW 1834   0.769   2.304   1.167  0.4720  0.5887 -0.1016
  612SOL    HW1 1835   0.691   2.240   1.198 -0.9662 -1.9329 -1.1709
  612SOL    HW2 1836   0.747   2.404   1.171  1.3676 -1.6704  0.9759
  613SOL     OW 1837   0.835   1.386   2.404 -0.4307  0.0560  0.0953
  613SOL    HW1 1838   0.833   1.465   2.339 -1.2127  0.0815  2.8760
  613SOL    HW2 1839   0.810   1.292   2.368 -1.4949  1.3436  4.1209
  614SOL     OW 1840   1.570   1.690   1.810  0.2699  0.0841  0.0379
  614SOL    HW1 1841   1.550   1.795   1.807 -1.4263  0.0400 -0.5747
  614SOL    HW2 1842   1.667   1.658   1.832 -1.2077 -0.7196  0.8537
  615SOL     OW 1843   0.759   1.396   1.724 -0.2773  0.2756 -0.3155
  615SOL    HW1 1844   0.681   1.357   1.669  1.1898  3.9936  1.4100
  615SOL    HW2 1845   0.821   1.463   1.668  1.9456  0.5176 -2.0214
  616SOL     OW 1846   1.115   1.538   2.141 -0.5701  0.4694  0.3522
  616SOL    HW1 1847   1.016   1.564   2.120 -1.0025 -0.0524 -0.7249
  616SOL    HW2 1848   1.183   1.590   2.078 -1.5988 -1.3451 -2.3951
  617SOL     OW 1849   3.007   1.543   1.654  0.2061  0.8184  0.0391
  617SOL    HW1 1850   3.028   1.499   1.747  0.1590  0.1777 -0.0461
  617SOL    HW2 1851   3.045   1.488   1.578  1.7122 -0.5695  1.9498
  618SOL     OW 1852   1.942   1.950   1.434  0.4254  0.2571  0.0023
  618SOL    HW1 1853   2.026   1.982   1.386  1.3236  1.2126 -0.4902
  618SOL    HW2 1854   1.949   1.854   1.475  1.4369 -1.5299  2.9909
  619SOL     OW 1855   1.710   0.474   2.350  0.4518  0.6682 -0.5516
  619SOL    HW1 1856   1.650   0.530   2.291  3.7115  0.6702  2.9479
  619SOL    HW2 1857   1.680   0.373   2.342 -2.6248  1.4237  1.1007
  620SOL     OW 1858   2.218   2.939   0.594  0.3666 -0.0559  0.6011
  620SOL    HW1 1859   2.139   3.007   0.579  1.7891  0.1509 -0.1517
  620SOL    HW2 1860   2.226   2.904   0.691  1.5065  0.6654  3.1979
  621SOL     OW 1861   2.234   1.894   1.370  0.4051 -0.1893 -0.4213
  621SOL    HW1 1862   2.220   1.894   1.476 -1.2631  1.9408  0.7708
  621SOL    HW2 1863   2.224   1.799   1.326 -0.2672  0.0843  2.8710
  622SOL     OW 1864   2.232   0.909   1.795  0.5234  0.0838  0.5787
  622SOL    HW1 1865   2.312   0.845   1.795 -0.7944 -0.6661  4.5424
  622SOL    HW2 1866   2.148   0.869   1.841  2.1361 -1.3716 -1.5206
  623SOL     OW 1867   1.326   0.801   2.564 -0.4024  0.3309 -0.1145
  623SOL    HW1 1868   1.270   0.774   2.650 -0.5518 -0.3320  3.5256
  623SOL    HW2 1869   1.268   0.814   2.479 -1.2325  1.8673 -2.6193
  624SOL     OW 1870   0.516   0.707   0.008  0.0417 -0.5249  0.2601
  624SOL    HW1 1871   0.546   0.750  -0.073  1.6404 -1.5853  4.4666
  624SOL    HW2 1872   0.513   0.775   0.085 -0.7014 -1.0466 -2.6450
  625SOL     OW 1873   2.747   1.686   0.891 -0.3574 -0.0412 -0.1284
  625SOL    HW1 1874   2.678   1.721   0.959 -0.9638  0.1397  0.5950
  625SOL    HW2 1875   2.724   1.593   0.852 -2.6344 -0.7015 -0.6209
  626SOL     OW 1876   0.504   2.761   1.927 -0.2959 -0.3024  0.6045
  626SOL    HW1 1877   0.569   2.838   1.895 -0.7449 -1.4088 -0.7749
  626SOL    HW2 1878   0.415   2.765   1.875 -0.1416  2.1174  4.0082
  627SOL     OW 1879   0.745   1.057   1.515 -0.0594  1.2043  0.1174
  627SOL    HW1 1880   0.749   0.958   1.479  2.7846 -1.1009 -3.6514
  627SOL    HW2 1881   0.814   1.115   1.464 -1.5110  0.9486 -0.8721
  628SOL     OW 1882   2.424   0.180   0.712 -0.2259 -0.3001  0.1511
  628SOL    HW1 1883   2.451   0.110   0.643  2.6228  2.4110  3.1326
  628SOL    HW2 1884   2.319   0.193   0.717 -1.3011  3.4177 -1.4043
  629SOL     OW 1885   1.967   0.943   1.976 -0.3696  0.0389 -0.1100
  629SOL    HW1 1886   2.062   0.948   2.024  1.0160  3.7042  1.0870
  629SOL    HW2 1887   1.918   1.030   1.994  0.2691  0.4320  0.1059
  630SOL     OW 1888   2.755   2.187   0.771  0.7892  0.2606  0.0391
  630SOL    HW1 1889   2.669   2.232   0.800  4.2021 -2.0006 -0.7305
  630SOL    HW2 1890   2.732   2.087   0.736  3.0369  0.7329 -0.6988
  631SOL     OW 1891   3.009   0.216   2.102  0.3519 -0.0134  0.2543
  631SOL    HW1 1892   3.076   0.219   2.177  1.5456  0.4490  0.2035
  631SOL    HW2 1893   3.055   0.184   2.013 -0.6199 -2.0364 -1.3072
  632SOL     OW 1894   2.301   2.525   0.700 -0.6076  0.6155  1.7167
  632SOL    HW1 1895   2.360   2.612   0.713  0.8233  2.4102 -0.1870
  632SOL    HW2 1896   2.281   2.521   0.599  2.2374  1.4232  1.9570
  633SOL     OW 1897   1.608   1.281   2.576  0.1332  0.1985 -0.1770
  633SOL    HW1 1898   1.611   1.352   2.651 -1.0970 -1.0234  2.7656
  633SOL    HW2 1899   1.510   1.256   2.551 -0.7247 -0.4137  0.5109
  634SOL     OW 1900   0.639   2.042   1.006  0.2858  0.5987 -0.0109
  634SOL    HW1 1901   0.575   2.095   1.068 -0.2548  0.3875 -0.2076
  634SOL    HW2 1902   0.711   2.096   0.965 -2.0529  2.0315  0.6604
  635SOL     OW 1903   0.056   2.286   3.077  0.1038 -0.7653  0.8563
  635SOL    HW1 1904   0.001   2.314   2.992 -0.9893 -1.2657  0.9142
  635SOL    HW2 1905   0.059   2.357   3.153  1.1722  4.4159 -2.3862
  636SOL     OW 1906   2.278   2.829   2.021  0.3105  1.3444  0.2234
  636SOL    HW1 1907   2.275   2.933   2.035  0.4606  1.5409  1.0324
  636SOL    HW2 1908   2.229   2.779   2.103 -1.7430 -3.3315  3.4978
  637SOL     OW 1909   2.540   0.726   2.052 -0.0915  0.8435  0.0064
  637SOL    HW1 1910   2.515   0.721   1.952  0.6027 -2.5757  1.0052
  637SOL    HW2 1911   2.601   0.809   2.070 -0.8181  0.2954  0.2633
  638SOL     OW 1912   2.513   1.863   1.338 -0.4481  0.1294  0.4620
  638SOL    HW1 1913   2.405   1.882   1.338  0.1650 -1.9612  2.7972
  638SOL    HW2 1914   2.536   1.771   1.384 -1.3010 -0.9739  0.5133
  639SOL     OW 1915   1.309   2.237   1.618 -0.3564  0.1091 -0.1728
  639SOL    HW1 1916   1.304   2.208   1.521  0.4021  3.0283  2.2396
  639SOL    HW2 1917   1.222   2.216   1.668  0.8704  1.1189  0.0525
  640SOL     OW 1918   0.186   1.206   1.550  0.6408  0.3118 -0.5673
  640SOL    HW1 1919   0.159   1.239   1.646  2.1760  0.3738  0.3152
  640SOL    HW2 1920   0.265   1.137   1.550  1.6929 -2.8672  2.2044
  641SOL     OW 1921   1.971   0.173   1.461 -0.5570  0.8904 -0.3340
  641SOL    HW1 1922   1.900   0.249   1.448 -2.3858 -0.4393  0.0675
  641SOL    HW2 1923   1.990   0.155   1.557 -2.6771 -1.3005 -3.5774
  642SOL     OW 1924   1.991   0.094   0.313  0.0157 -0.1286  0.3587
  642SOL    HW1 1925   2.094   0.075   0.319 -2.2857  0.9001 -0.2621
  642SOL    HW2 1926   1.942   0.061   0.396  2.0067  0.5862  0.1961
  643SOL     OW 1927   2.851   1.874   2.091 -0.7505  0.1812  0.0080
  643SOL    HW1 1928   2.786   1.797   2.066 -0.0769  0.7388  2.5426
  643SOL    HW2 1929   2.844   1.951   2.020  0.9932  0.4398 -0.0396
  644SOL     OW 1930   2.194   2.291   1.222 -0.0104 -0.1234  0.5630
  644SOL    HW1 1931   2.282   2.252   1.185  0.3952  3.5329  2.6379
  644SOL    HW2 1932   2.206   2.310   1.324  0.6574 -1.2112 -1.7986
  645SOL     OW 1933   0.596   0.814   1.158  0.1280  0.1004 -0.1635
  645SOL    HW1 1934   0.544   0.732   1.117  1.2145 -2.2852  1.0785
  645SOL    HW2 1935   0.620   0.900   1.096 -0.5043  2.4748  1.4496
  646SOL     OW 1936   1.508   1.958   1.809 -0.1490  0.5302 -0.1897
  646SOL    HW1 1937   1.595   2.014   1.789 -2.1197 -0.7935  0.0491
  646SOL    HW2 1938   1.447   2.004   1.876 -0.3241  0.0759 -1.8271
  647SOL     OW 1939   0.864   0.931   0.657  0.4279 -0.1594 -0.1068
  647SOL    HW1 1940   0.959   0.914   0.697  0.9037  1.9760 -0.6698
  647SOL    HW2 1941   0.797   0.872   0.711  2.9423  2.9645 -0.2583
  648SOL     OW 1942   0.203   0.188   0.318  0.1888  0.7987 -0.0156
  648SOL    HW1 1943   0.211   0.107   0.253  0.4822 -0.8356 -0.2903
  648SOL    HW2 1944   0.179   0.276   0.282  0.8588 -0.1275  0.2065
  649SOL     OW 1945   3.094   0.120   0.937 -0.2058 -0.2132  0.4768
  649SOL    HW1 1946   3.190   0.106   0.897 -0.6806 -0.0674 -1.4838
  649SOL    HW2 1947   3.085   0.142   1.038  0.8599  1.8038 -1.9497
  650SOL     OW 1948   2.721   0.721   1.423  0.3006 -0.2506  0.6239
  650SOL    HW1 1949   2.631   0.720   1.469 -1.3229  2.5405 -0.5947
  650SOL    HW2 1950   2.734   0.798   1.353  0.0688  1.8286 -0.3469
  651SOL     OW 1951   0.903   1.594   1.607 -0.4100 -0.2412 -0.4455
  651SOL    HW1 1952   0.983   1.656   1.626 -0.0211 -2.5280  1.2109
  651SOL    HW2 1953   0.854   1.603   1.513  0.3807 -2.2216  1.5402
  652SOL     OW 1954   2.261   2.506   2.379  0.8109  0.2323  0.0465
  652SOL    HW1 1955   2.221   2.527   2.471  0.0077 -1.1385 -4.2723
  652SOL    HW2 1956   2.222   2.570   2.306  0.0569  0.3873 -2.1123
  653SOL     OW 1957   2.695   1.183   0.285 -0.2717  0.2546 -0.4031
  653SOL    HW1 1958   2.747   1.269   0.295  2.2710 -0.4916  0.7272
  653SOL    HW2 1959   2.748   1.103   0.330  0.2959  0.1475 -1.4170
  654SOL     OW 1960   1.277   2.277   1.220 -0.5633  0.1265 -0.5496
  654SOL    HW1 1961   1.272   2.186   1.271  1.8402 -1.1316  0.7297
  654SOL    HW2 1962   1.326   2.274   1.130 -1.9078 -0.5246  0.3944
  655SOL     OW 1963   0.213   1.039   1.852  0.1608  0.6846 -0.0090
  655SOL    HW1 1964   0.259   0.950   1.840  3.7534 -0.4743  0.8435
  655SOL    HW2 1965   0.278   1.120   1.855  1.0221  0.6115 -1.0617
  656SOL     OW 1966   2.510   2.486   2.559 -0.1070 -0.3689 -0.6273
  656SOL    HW1 1967   2.614   2.472   2.536 -1.3431 -0.5481  0.6970
  656SOL    HW2 1968   2.470   2.572   2.514 -0.9081  2.3619  2.0602
  657SOL     OW 1969   3.053   1.092   1.858  0.1459  0.3004 -0.3360
  657SOL    HW1 1970   3.039   1.165   1.936  0.8056  0.6141  0.6263
  657SOL    HW2 1971   3.156   1.067   1.848  0.0683 -2.9992  2.9418
  658SOL     OW 1972   1.641   0.184   2.372  0.1370  0.5314 -0.4088
  658SOL    HW1 1973   1.691   0.125   2.444  0.1238 -4.4125 -1.0155
  658SOL    HW2 1974   1.695   0.171   2.280  0.7629  2.6646  0.1233
  659SOL     OW 1975   1.409   0.564   2.891  0.0207 -0.0927 -0.3028
  659SOL    HW1 1976   1.479   0.634   2.928 -1.1330 -1.3651  1.8571
  659SOL    HW2 1977   1.323   0.608   2.848  1.9894  1.1063 -1.4618
  660SOL     OW 1978   1.423   0.377   1.404 -0.3303  0.6439 -0.3355
  660SOL    HW1 1979   1.472   0.373   1.500 -0.1874 -0.7345  0.4020
  660SOL    HW2 1980   1.480   0.343   1.325 -0.8739 -0.1030  2.8865
  661SOL     OW 1981   2.483   1.170   0.667  0.0448 -0.5168 -0.4005
  661SOL    HW1 1982   2.497   1.097   0.594 -0.9596 -1.3324 -1.1947
  661SOL    HW2 1983   2.414   1.245   0.638 -0.8557  0.3066  1.3248
  662SOL     OW 1984   1.318   0.427   1.832 -0.1832 -0.0495 -0.3892
  662SOL    HW1 1985   1.267   0.336   1.817 -3.1892  0.0486 -1.3031
  662SOL    HW2 1986   1.291   0.466   1.926  1.6072  2.3019  0.6554
  663SOL     OW 1987   0.838   1.594   2.165 -0.1133 -0.3192 -0.3646
  663SOL    HW1 1988   0.814   1.691   2.190  2.2467  2.4409 -1.0679
  663SOL    HW2 1989   0.770   1.554   2.092  0.0027 -1.1659 -1.2403
  664SOL     OW 1990   1.684   2.016   1.383  0.0772 -0.1966  0.3414
  664SOL    HW1 1991   1.602   1.988   1.441 -0.9144  1.4995  0.5730
  664SOL    HW2 1992   1.775   1.975   1.414  0.2549  0.9507  0.4946
  665SOL     OW 1993   2.232   0.628   1.969  0.3514 -0.5585  0.6848
  665SOL    HW1 1994   2.214   0.536   2.009  3.1177 -0.1591 -0.8825
  665SOL    HW2 1995   2.227   0.705   2.035 -0.9351  0.7563 -1.2577
  666SOL     OW 1996   0.493   2.293   0.475 -0.4277  0.2167 -0.3703
  666SOL    HW1 1997   0.547   2.386   0.473 -1.2097 -1.0081  1.1739
  666SOL    HW2 1998   0.445   2.272   0.563 -0.8695 -2.9322 -1.9579
  667SOL     OW 1999   2.052   0.280   1.009  0.7488  0.5058 -0.0208
  667SOL    HW1 2000   2.084   0.379   1.025  1.4375  0.6618 -3.4109
  667SOL    HW2 2001   1.999   0.241   1.088  0.0908  0.4615  1.8225
  668SOL     OW 2002   1.994   0.505   1.190 -0.0259 -0.5611  0.0133
  668SOL    HW1 2003   2.060   0.553   1.124 -0.6856 -0.8969  2.9610
  668SOL    HW2 2004   2.029   0.491   1.286  0.7075 -2.0125  1.4496
  669SOL     OW 2005   2.998   2.086   0.909 -0.1424 -0.4086 -0.1554
  669SOL    HW1 2006   2.915   2.118   0.855  0.0708 -1.4612  4.7864
  669SOL    HW2 2007   2.989   2.130   1.004  3.1829  0.8934 -3.2301
  670SOL     OW 2008   2.818   2.335   2.015  0.0986  0.4896 -0.3623
  670SOL    HW1 2009   2.746   2.324   2.086  1.2514 -2.6934 -0.6428
  670SOL    HW2 2010   2.814   2.435   1.977 -0.5519  1.7635  1.2854
  671SOL     OW 2011   1.748   1.646   1.451 -0.1518 -0.3794 -0.3846
  671SOL    HW1 2012   1.763   1.697   1.362  0.8925 -1.7460  0.7562
  671SOL    HW2 2013   1.657   1.601   1.444  0.4632 -3.3955  0.8901
  672SOL     OW 2014   0.429   0.647   2.439 -0.3561  0.9320  0.3868
  672SOL    HW1 2015   0.461   0.653   2.343 -0.3415 -0.2231 -1.3288
  672SOL    HW2 2016   0.341   0.704   2.447  0.3104  1.1518  0.4278
  673SOL     OW 2017   0.182   1.207   1.147  0.1124 -0.1062 -0.4652
  673SOL    HW1 2018   0.216   1.281   1.215  1.2356  0.4779  2.1337
  673SOL    HW2 2019   0.255   1.130   1.133  0.6593 -0.6490 -3.0121
  674SOL     OW 2020   1.526   2.870   0.141  0.1327 -0.7294 -0.1183
  674SOL    HW1 2021   1.592   2.948   0.117 -0.2439  1.4939  0.4375
  674SOL    HW2 2022   1.557   2.773   0.119 -2.8453 -0.0117  1.1977
  675SOL     OW 2023   1.701   0.818   2.334  0.2601 -0.2177 -0.1330
  675SOL    HW1 2024   1.787   0.781   2.297 -0.0530 -2.7378  3.8430
  675SOL    HW2 2025   1.622   0.775   2.291 -0.5233 -1.6416  2.7228
  676SOL     OW 2026   2.499   1.520   1.989 -0.2171 -0.7610 -0.1384
  676SOL    HW1 2027   2.441   1.479   1.915  0.4057  3.2778  2.9095
  676SOL    HW2 2028   2.534   1.452   2.065  0.3914 -1.8134 -0.7384
  677SOL     OW 2029   1.789   0.566   0.981 -0.0561 -0.7467  0.1770
  677SOL    HW1 2030   1.853   0.557   1.061  0.0424 -1.9560 -1.0187
  677SOL    HW2 2031   1.709   0.503   0.984  2.7913 -0.5808 -0.6456
  678SOL     OW 2032   0.074   0.759   1.670  0.2905  0.7853  0.6856
  678SOL    HW1 2033   0.163   0.790   1.712 -0.9797  2.1820 -0.0423
  678SOL    HW2 2034  -0.013   0.794   1.719 -0.2191 -2.3252 -1.2130
  679SOL     OW 2035   2.521   1.200   1.059  0.4836  0.1321  0.8282
  679SOL    HW1 2036   2.487   1.227   1.153 -0.5971 -1.2086 -0.7961
  679SOL    HW2 2037   2.517   1.095   1.043 -1.5205  1.6597 -1.3287
  680SOL     OW 2038   2.843   0.630   1.664 -0.1334 -0.0523 -0.3691
  680SOL    HW1 2039   2.800   0.666   1.576 -1.1792  0.5103  0.5777
  680SOL    HW2 2040   2.875   0.708   1.723  1.4080 -1.8935  0.3452
  681SOL     OW 2041   3.015   0.164   1.617 -0.3326  0.2150  0.5183
  681SOL    HW1 2042   3.101   0.150   1.557  0.6488  0.0780  2.0616
  681SOL    HW2 2043   2.965   0.250   1.591  2.2183  1.0920  0.8431
  682SOL     OW 2044   0.768   0.047   1.394 -0.2326  0.1144 -0.4503
  682SOL    HW1 2045   0.686  -0.014   1.406 -0.4199  3.2062  0.3122
  682SOL    HW2 2046   0.816   0.039   1.305 -1.4175  0.0982 -1.5370
  683SOL     OW 2047   1.407   0.239   2.173  0.3811 -0.1977 -0.3404
  683SOL    HW1 2048   1.362   0.295   2.248  1.8404  0.5816  1.8781
  683SOL    HW2 2049   1.495   0.290   2.141 -0.0369  0.4169  3.3181
  684SOL     OW 2050   1.439   2.143   0.490 -0.0013  0.1545 -0.1249
  684SOL    HW1 2051   1.497   2.061   0.522 -0.7419 -0.4516  0.4421
  684SOL    HW2 2052   1.349   2.116   0.446  0.0247  0.7910 -1.2737
  685SOL     OW 2053   2.174   1.895   1.923 -0.6515 -0.8850  0.0970
  685SOL    HW1 2054   2.204   1.972   1.862  0.0209 -0.1119  1.5666
  685SOL    HW2 2055   2.256   1.861   1.975  2.7707  0.3325  1.1497
  686SOL     OW 2056   1.573   1.745   2.718  0.3769  0.0664  0.6289
  686SOL    HW1 2057   1.593   1.646   2.714  1.4218 -0.9970  1.2174
  686SOL    HW2 2058   1.640   1.787   2.781 -2.9214  1.6483  0.7589
  687SOL     OW 2059   1.349   2.522   1.915  0.1107 -0.0628  0.5972
  687SOL    HW1 2060   1.376   2.452   1.842 -0.8356 -0.3559 -1.4474
  687SOL    HW2 2061   1.417   2.528   1.989  0.5311  2.7492  1.7258
  688SOL     OW 2062   2.083   1.389   1.634  0.1139 -0.2171  0.3716
  688SOL    HW1 2063   2.179   1.400   1.591  0.3748  0.4236  1.4197
  688SOL    HW2 2064   2.019   1.329   1.582  0.2500 -0.1300  0.0726
  689SOL     OW 2065   2.457   1.116   2.765 -0.2381 -0.0718  0.0619
  689SOL    HW1 2066   2.354   1.099   2.758 -3.2327  0.8643 -0.5104
  689SOL    HW2 2067   2.499   1.070   2.846  0.6015  1.8327  0.0641
  690SOL     OW 2068   2.219   2.816   3.067 -0.1022 -0.0693 -0.0095
  690SOL    HW1 2069   2.140   2.776   3.013  0.6315 -1.9194  1.2176
  690SOL    HW2 2070   2.213   2.823   3.174  1.6235 -1.3109  0.6356
  691SOL     OW 2071   2.566   0.476   2.168 -0.4807  0.1768  0.5288
  691SOL    HW1 2072   2.603   0.405   2.105  0.3279  1.7779  1.7572
  691SOL    HW2 2073   2.562   0.569   2.124 -1.7907 -0.5436  0.4862
  692SOL     OW 2074   2.764   1.227   0.716 -0.6073 -0.2942 -0.3340
  692SOL    HW1 2075   2.660   1.244   0.708 -1.7333 -1.2503 -0.0535
  692SOL    HW2 2076   2.826   1.307   0.731 -1.1177 -2.0091  1.4207
  693SOL     OW 2077   2.882   2.991   0.602 -0.3693 -0.3967 -0.2821
  693SOL    HW1 2078   2.878   3.069   0.666  4.2036 -1.5172 -2.5544
  693SOL    HW2 2079   2.806   2.978   0.534  2.5610  1.1984  0.2054
  694SOL     OW 2080   2.382   2.201   0.066 -0.7334 -0.4280  0.0344
  694SOL    HW1 2081   2.360   2.285   0.118  1.0214 -3.7223 -0.6971
  694SOL    HW2 2082   2.299   2.143   0.027 -0.2170  0.7770 -0.5319
  695SOL     OW 2083   0.530   3.010   1.466  0.0562 -0.2996  0.4167
  695SOL    HW1 2084   0.515   2.909   1.461 -0.7354 -1.0948 -0.5260
  695SOL    HW2 2085   0.472   3.063   1.534 -0.6314  0.9995  0.4502
  696SOL     OW 2086   2.692   1.904   0.724  0.5358  0.1082  0.2866
  696SOL    HW1 2087   2.700   1.817   0.783 -0.6211  0.4794 -0.5742
  696SOL    HW2 2088   2.701   1.887   0.618 -1.8368  1.3504 -2.1930
  697SOL     OW 2089   1.739   2.096   1.750 -0.2909  0.1637 -0.0991
  697SOL    HW1 2090   1.799   2.014   1.762 -2.3558  1.0235  2.4170
  697SOL    HW2 2091   1.796   2.177   1.733 -0.2158  1.0577 -0.1879
  698SOL     OW 2092   2.925   0.382   2.734  0.6149 -0.2806  0.1877
  698SOL    HW1 2093   2.894   0.336   2.644 -1.2288  0.0442 -1.4194
  698SOL    HW2 2094   3.007   0.344   2.777  0.1170 -4.2276 -0.6178
  699SOL     OW 2095   1.563   0.063   2.935  0.1114 -0.1163 -0.1710
  699SOL    HW1 2096   1.516  -0.011   2.878 -1.6978  1.6712 -0.4931
  699SOL    HW2 2097   1.598   0.131   2.864  0.1347  0.9129  2.2254
  700SOL     OW 2098   1.022   2.370   1.362  0.2666  0.2295  0.6985
  700SOL    HW1 2099   1.117   2.327   1.354  3.1936 -2.8496  0.4708
  700SOL    HW2 2100   0.959   2.328   1.292  1.3208  1.4106 -0.0257
  701SOL     OW 2101   1.873   2.830   0.047 -0.4316  0.2199 -0.3138
  701SOL    HW1 2102   1.897   2.747   0.110 -0.9469  2.3237  2.1532
  701SOL    HW2 2103   1.926   2.912   0.079  0.9528  0.1359 -0.9508
  702SOL     OW 2104   2.092   1.385   1.911 -0.2815  0.7625 -0.7161
  702SOL    HW1 2105   2.160   1.306   1.911  2.3533  0.3945  0.5257
  702SOL    HW2 2106   2.070   1.425   1.820 -2.4854 -0.8579  2.7010
  703SOL     OW 2107   1.951   0.817   1.422 -0.0476  0.0805  0.0316
  703SOL    HW1 2108   1.941   0.721   1.470  1.5734  1.9731  0.6595
  703SOL    HW2 2109   1.993   0.887   1.485  0.4851 -0.7167 -1.5648
  704SOL     OW 2110   0.315   2.028   1.689 -0.2543 -0.1890  0.2887
  704SOL    HW1 2111   0.345   1.963   1.770 -3.3519 -1.0932 -0.3388
  704SOL    HW2 2112   0.364   2.119   1.683 -0.0726 -1.8983 -2.0514
  705SOL     OW 2113   2.521   1.405   0.891 -0.8610 -0.1775 -0.0111
  705SOL    HW1 2114   2.433   1.388   0.843 -0.4431  0.5463 -1.2561
  705SOL    HW2 2115   2.558   1.320   0.943  1.5554 -0.8487 -5.2296
  706SOL     OW 2116   0.659   1.758   1.845  0.5686 -0.0999  0.4146
  706SOL    HW1 2117   0.693   1.670   1.874  1.8540  4.0515 -1.0669
  706SOL    HW2 2118   0.722   1.835   1.880 -0.3947  0.1802 -0.2859
  707SOL     OW 2119   2.274   1.179   1.841  0.2622  0.7343  0.6177
  707SOL    HW1 2120   2.366   1.173   1.895 -0.1488 -0.6920  0.7315
  707SOL    HW2 2121   2.240   1.089   1.815 -0.2817  1.8568  0.5762
  708SOL     OW 2122   3.073   0.466   3.025  0.3669 -0.2955  0.1717
  708SOL    HW1 2123   3.072   0.525   2.937  0.8618  1.2591 -0.3616
  708SOL    HW2 2124   3.112   0.378   2.992  0.8439  1.4061 -0.5699
  709SOL     OW 2125   1.826   1.809   0.297  0.2699  0.7179 -0.1873
  709SOL    HW1 2126   1.858   1.908   0.318 -0.4669 -0.5899 -0.4331
  709SOL    HW2 2127   1.816   1.789   0.200 -1.8949 -1.0355  0.7582
  710SOL     OW 2128   1.722   1.615   2.460  0.2211  0.8602  0.6674
  710SOL    HW1 2129   1.786   1.583   2.389 -0.4626 -0.4858 -0.8737
  710SOL    HW2 2130   1.748   1.584   2.551  0.7919  1.6294 -1.8136
  711SOL     OW 2131   2.643   2.926   0.966 -0.3860  0.1313  0.0821
  711SOL    HW1 2132   2.589   3.011   0.952  1.8337 -0.1803 -0.5574
  711SOL    HW2 2133   2.741   2.941   0.968 -0.1573  0.6058  4.0545
  712SOL     OW 2134   1.512   2.355   1.770  0.0504 -0.6061  0.1628
  712SOL    HW1 2135   1.591   2.303   1.812  0.3041  1.1659  2.0188
  712SOL    HW2 2136   1.442   2.291   1.721  0.3382 -1.7105 -1.8699
  713SOL     OW 2137   2.806   1.439   2.458  0.0365 -0.4235  0.4291
  713SOL    HW1 2138   2.800   1.337   2.486 -0.6077 -1.6567 -1.5926
  713SOL    HW2 2139   2.765   1.493   2.535  1.0369 -2.7771  0.6915
  714SOL     OW 2140   2.608   0.478   2.431  0.3974 -0.2473  0.5080
  714SOL    HW1 2141   2.549   0.415   2.486 -0.4757  0.2566  1.1090
  714SOL    HW2 2142   2.586   0.469   2.331  0.5577  0.3336 -0.2721
  715SOL     OW 2143   1.569   2.097   1.134  0.1281  0.4115 -0.2473
  715SOL    HW1 2144   1.517   2.180   1.109 -1.3669 -1.0774  0.5309
  715SOL    HW2 2145   1.604   2.084   1.231  0.7645 -1.8047  0.8147
  716SOL     OW 2146   1.230   0.223   1.503  0.3978 -0.5674 -0.1303
  716SOL    HW1 2147   1.126   0.239   1.493  0.2111  0.5950  0.6901
  716SOL    HW2 2148   1.288   0.303   1.472  1.9780 -1.0518 -1.3226
  717SOL     OW 2149   1.090   0.592   1.613 -0.1498  0.6146  0.2188
  717SOL    HW1 2150   1.193   0.592   1.645  1.8439 -1.3187 -1.9706
  717SOL    HW2 2151   1.084   0.599   1.506  0.4700  2.7499 -0.1185
  718SOL     OW 2152   0.637   1.032   1.011 -0.8229  0.7947  0.0527
  718SOL    HW1 2153   0.620   1.011   0.909 -0.0114 -0.0504 -2.5627
  718SOL    HW2 2154   0.695   1.121   1.025  1.3374  2.1562 -2.5279
  719SOL     OW 2155   0.792   1.883   2.245  0.3113  0.2931 -0.9743
  719SOL    HW1 2156   0.856   1.875   2.330 -3.6658 -1.3613  0.2306
  719SOL    HW2 2157   0.699   1.906   2.276 -0.3484 -0.1749  2.0826
  720SOL     OW 2158   2.209   1.080   0.250  0.1802 -0.0532 -0.2588
  720SOL    HW1 2159   2.289   1.021   0.218  0.0185  1.6264  1.3692
  720SOL    HW2 2160   2.175   1.047   0.344  0.1070 -0.2971 -2.4223
  721SOL     OW 2161   2.302   0.009   2.038 -0.7010 -0.1872 -0.1358
  721SOL    HW1 2162   2.326   0.083   1.969 -1.5755 -3.5690 -2.7481
  721SOL    HW2 2163   2.200  -0.004   2.044 -1.8305 -2.6690  0.0466
  722SOL     OW 2164   2.396   1.669   0.543  0.0389  0.4020 -1.0704
  722SOL    HW1 2165   2.383   1.636   0.443 -0.7963  1.1736 -1.9334
  722SOL    HW2 2166   2.326   1.638   0.610  0.5944  1.5589 -0.2298
  723SOL     OW 2167   2.549   2.827   1.941 -0.3012  0.3849 -0.0906
  723SOL    HW1 2168   2.612   2.872   2.010  1.0010  1.4999 -0.6058
  723SOL    HW2 2169   2.452   2.845   1.959  2.6386  1.6089 -2.4239
  724SOL     OW 2170   0.479   2.446   2.442 -0.4287 -0.3763  0.5247
  724SOL    HW1 2171   0.376   2.453   2.428 -0.0213  0.2808 -0.7095
  724SOL    HW2 2172   0.498   2.437   2.547  0.1023 -1.9191  0.5234
  725SOL     OW 2173   2.395   2.760   1.445 -0.7839  0.1867 -0.6834
  725SOL    HW1 2174   2.435   2.784   1.351 -0.9108  2.6384 -2.0498
  725SOL    HW2 2175   2.412   2.660   1.478 -1.2527 -2.0316  2.0866
  726SOL     OW 2176   2.392   2.257   0.706 -0.1549 -0.2070 -0.2454
  726SOL    HW1 2177   2.333   2.341   0.693  2.1231  4.3933 -1.0190
  726SOL    HW2 2178   2.395   2.200   0.622  0.2773  2.2254  1.0586
  727SOL     OW 2179   0.223   0.004   0.120 -0.2424  0.1348  0.0210
  727SOL    HW1 2180   0.244  -0.093   0.111  1.5468  1.2395  1.3495
  727SOL    HW2 2181   0.227   0.063   0.036 -0.8622 -0.3721 -0.9396
  728SOL     OW 2182   2.772   0.687   0.997 -0.7441  0.3444 -0.2126
  728SOL    HW1 2183   2.720   0.640   0.925  0.6589 -1.6534 -0.7243
  728SOL    HW2 2184   2.796   0.616   1.072  0.0734 -3.0390  1.4691
  729SOL     OW 2185   2.910   2.459   0.688 -0.5689  0.5100 -0.0461
  729SOL    HW1 2186   2.874   2.364   0.699  1.7507 -1.9383 -0.0367
  729SOL    HW2 2187   3.008   2.471   0.727 -0.2449 -0.4734  2.9765
  730SOL     OW 2188   2.580   0.584   0.793 -0.3625  0.5244  1.0324
  730SOL    HW1 2189   2.527   0.660   0.753  0.0538  1.8536 -0.6697
  730SOL    HW2 2190   2.646   0.532   0.732  0.7177 -0.2041  1.8344
  731SOL     OW 2191   0.011   2.109   2.464  0.4124 -0.1182  0.1819
  731SOL    HW1 2192   0.046   2.161   2.540  0.7796 -0.1323 -0.0506
  731SOL    HW2 2193  -0.077   2.156   2.434 -1.9154  2.5493 -1.2396
  732SOL     OW 2194   1.107   2.896   1.950  0.0550  0.4346 -0.2799
  732SOL    HW1 2195   1.114   2.842   2.039 -1.0009 -1.4329 -0.3964
  732SOL    HW2 2196   1.131   2.841   1.864  1.8211  1.3332  1.3128
  733SOL     OW 2197   3.080   0.743   2.050 -0.9452  0.1435 -0.6249
  733SOL    HW1 2198   3.183   0.765   2.064 -0.5913 -0.8969  0.5802
  733SOL    HW2 2199   3.067   0.642   2.040  1.2919 -1.1028  0.4633
  734SOL     OW 2200   1.408   0.332   2.739 -0.1491  0.1961 -0.1225
  734SOL    HW1 2201   1.417   0.420   2.789 -1.1000  0.1637 -0.9709
  734SOL    HW2 2202   1.322   0.279   2.771  1.5791 -0.7740 -1.3746
  735SOL     OW 2203   2.867   2.610   2.255 -0.1742 -0.3391  0.5022
  735SOL    HW1 2204   2.832   2.646   2.163 -0.4098 -0.7554 -2.4504
  735SOL    HW2 2205   2.963   2.574   2.250 -0.9413  0.4113  3.2371
  736SOL     OW 2206   0.775   0.393   2.661  0.6390  0.2755  0.1140
  736SOL    HW1 2207   0.738   0.490   2.665  2.1709  0.7399  1.3928
  736SOL    HW2 2208   0.765   0.354   2.568 -2.6747 -0.0523 -2.8112
  737SOL     OW 2209   2.652   0.503   2.859  0.4166 -0.2233 -0.1361
  737SOL    HW1 2210   2.631   0.455   2.952  3.0636 -0.4549  1.6614
  737SOL    HW2 2211   2.739   0.459   2.814 -0.1250 -0.3832 -0.8762
  738SOL     OW 2212   1.612   1.223   2.979  0.6618 -0.0130  0.6263
  738SOL    HW1 2213   1.702   1.175   2.970  0.5471 -1.6680 -2.6363
  738SOL    HW2 2214   1.548   1.182   2.911 -0.4682 -0.7273 -0.1408
  739SOL     OW 2215   1.810   0.666   0.704  0.0904 -0.2338 -0.5101
  739SOL    HW1 2216   1.792   0.642   0.801 -0.8083 -2.1115 -1.7430
  739SOL    HW2 2217   1.827   0.581   0.644  0.8030 -0.8983 -1.3900
  740SOL     OW 2218   1.961   1.869   2.194  0.4076 -0.3615 -0.5139
  740SOL    HW1 2219   2.052   1.842   2.159  0.0296  0.0660 -2.3692
  740SOL    HW2 2220   1.882   1.861   2.123 -0.9100 -0.6629 -0.2671
  741SOL     OW 2221   2.481   0.043   2.621  0.0280  0.4297 -0.5984
  741SOL    HW1 2222   2.580   0.023   2.630 -0.2174  1.8689 -0.2530
  741SOL    HW2 2223   2.446   0.038   2.522 -0.1789  0.0630 -0.4954
  742SOL     OW 2224   2.234   1.372   0.130 -0.4724  0.3625 -0.1583
  742SOL    HW1 2225   2.150   1.431   0.139 -1.7055 -0.4926 -1.6143
  742SOL    HW2 2226   2.242   1.292   0.196  0.3937 -1.4645  0.1323
  743SOL     OW 2227   1.748   0.598   2.616 -0.3892  0.0343  0.3797
  743SOL    HW1 2228   1.728   0.545   2.528  0.4617 -1.1535  0.4701
  743SOL    HW2 2229   1.677   0.670   2.632 -0.3233 -0.5974  2.5960
  744SOL     OW 2230   2.665   2.100   0.029 -0.0956  0.0262  0.0507
  744SOL    HW1 2231   2.562   2.116   0.042  3.1704 -0.0907  0.1471
  744SOL    HW2 2232   2.717   2.059   0.107  2.7814 -0.4089 -0.7048
  745SOL     OW 2233   2.143   2.710   2.200  0.4112  0.3601 -0.0908
  745SOL    HW1 2234   2.054   2.674   2.159 -1.2828  1.6231  1.2067
  745SOL    HW2 2235   2.126   2.768   2.281 -0.4841  0.4272 -3.4382
  746SOL     OW 2236   3.077   2.572   1.819  0.2283  0.4077 -0.0380
  746SOL    HW1 2237   3.173   2.594   1.784 -1.5304  1.8889 -2.3198
  746SOL    HW2 2238   3.034   2.657   1.860  1.6247  0.5709 -3.4176
  747SOL     OW 2239   3.086   1.803   1.677 -0.5328  0.6072  0.1327
  747SOL    HW1 2240   3.037   1.711   1.657 -0.3800 -1.4709  0.0982
  747SOL    HW2 2241   3.144   1.830   1.597 -1.7452 -0.7895 -0.4157
  748SOL     OW 2242   1.787   2.692   2.880 -0.3968 -0.0693  0.1279
  748SOL    HW1 2243   1.786   2.752   2.967  0.3300  0.8949  2.0690
  748SOL    HW2 2244   1.691   2.671   2.837 -0.1165 -0.1055 -3.6165
  749SOL     OW 2245   1.309   0.030   0.833 -0.6638  0.5010 -0.7344
  749SOL    HW1 2246   1.243  -0.049   0.817  3.0182  0.8923  4.4705
  749SOL    HW2 2247   1.340   0.078   0.747  0.1646 -1.6044  0.5201
  750SOL     OW 2248   2.315   0.233   1.890  0.2623 -0.2334 -0.0957
  750SOL    HW1 2249   2.336   0.294   1.810  2.1105  2.0361 -2.1514
  750SOL    HW2 2250   2.277   0.285   1.970  3.1493 -1.8685 -0.3833
  751SOL     OW 2251   0.822   2.200   2.793  0.2893  0.2944  0.2212
  751SOL    HW1 2252   0.874   2.195   2.882  0.7331 -0.4743 -0.8911
  751SOL    HW2 2253   0.735   2.141   2.799  1.9855  0.8144  2.7407
  752SOL     OW 2254   1.248   0.894   1.561  0.1619 -0.0413  0.6261
  752SOL    HW1 2255   1.326   0.946   1.515  0.3812  3.2356  0.4164
  752SOL    HW2 2256   1.273   0.797   1.588  0.1258 -0.3173  0.6227
  753SOL     OW 2257   0.944   2.616   1.746  0.3317  0.1715  0.8320
  753SOL    HW1 2258   1.031   2.664   1.754  0.3810  0.5103  0.0825
  753SOL    HW2 2259   0.864   2.676   1.720 -0.0703 -1.5472  0.3402
  754SOL     OW 2260   1.184   1.264   3.046 -0.2507 -0.2875  0.4488
  754SOL    HW1 2261   1.185   1.173   2.991 -0.5218  1.7435 -0.9669
  754SOL    HW2 2262   1.176   1.350   2.992 -3.1602  0.8755  0.6916
  755SOL     OW 2263   1.945   0.467   2.216  0.2436  0.3637 -0.1471
  755SOL    HW1 2264   2.030   0.435   2.261  0.1231 -0.2071 -1.8630
  755SOL    HW2 2265   1.861   0.476   2.279 -1.2246  0.3917 -0.8670
  756SOL     OW 2266   2.643   0.986   2.960  0.0957  0.2599 -0.3808
  756SOL    HW1 2267   2.742   0.940   2.974  2.4195 -0.4042  0.1707
  756SOL    HW2 2268   2.572   0.923   2.996 -1.7868 -0.3798 -0.4816
  757SOL     OW 2269   0.083   0.500   1.786  0.9540  0.4291 -0.4320
  757SOL    HW1 2270   0.083   0.597   1.746  0.1227  2.0360  0.6441
  757SOL    HW2 2271   0.164   0.443   1.768 -1.3534  0.6364 -1.2792
  758SOL     OW 2272   2.408   3.089   1.473 -0.5022 -0.7619  0.1274
  758SOL    HW1 2273   2.328   3.045   1.518  0.8489  1.7129 -1.7566
  758SOL    HW2 2274   2.396   3.098   1.371 -0.7382  0.2435  0.9774
  759SOL     OW 2275   1.675   3.091   0.068 -0.3720  0.0404 -0.4057
  759SOL    HW1 2276   1.638   3.122  -0.023 -0.0609 -0.7598 -1.1047
  759SOL    HW2 2277   1.782   3.095   0.077  3.2399 -1.7675  0.6506
  760SOL     OW 2278   2.753   2.023   2.766  0.1606 -0.1013  0.5760
  760SOL    HW1 2279   2.847   1.988   2.765 -1.4709 -0.6230 -0.8032
  760SOL    HW2 2280   2.761   2.126   2.755  0.4185 -1.8374 -1.7636
  761SOL     OW 2281   1.956   1.699   1.620 -0.4700  0.0680  0.2619
  761SOL    HW1 2282   2.025   1.621   1.627 -0.0820  0.0509 -0.8727
  761SOL    HW2 2283   1.863   1.663   1.577 -1.3536 -1.0718 -4.3710
  762SOL     OW 2284   0.516   2.410   0.963  0.4818  0.2273 -0.0732
  762SOL    HW1 2285   0.591   2.398   0.890  1.6042 -1.9667 -0.3849
  762SOL    HW2 2286   0.556   2.451   1.052 -5.1214 -1.5050  0.5677
  763SOL     OW 2287   2.108   1.519   2.984 -0.1180  0.0641  0.1116
  763SOL    HW1 2288   2.185   1.456   2.993 -0.5977  0.5820 -2.8547
  763SOL    HW2 2289   2.017   1.490   3.019  1.0025  3.0521  0.7649
  764SOL     OW 2290   0.687   0.518   0.910 -0.4634 -0.2205 -0.0376
  764SOL    HW1 2291   0.687   0.425   0.859  0.5516 -0.3553  1.5278
  764SOL    HW2 2292   0.788   0.542   0.926 -1.0726 -2.4816 -0.8175
  765SOL     OW 2293   0.665   0.234   0.811  0.2218 -0.0614 -0.5514
  765SOL    HW1 2294   0.767   0.234   0.795 -1.2886 -0.9861 -1.2120
  765SOL    HW2 2295   0.638   0.216   0.911  2.6188  2.2249 -2.0863
  766SOL     OW 2296   2.953   2.089   0.035 -0.2159  0.0788  0.0592
  766SOL    HW1 2297   2.852   2.105   0.008  0.9196 -0.1572  0.4620
  766SOL    HW2 2298   3.007   2.176   0.040 -1.2290 -0.0840 -0.1961
  767SOL     OW 2299   2.864   1.539   0.513 -1.0261  0.0713  0.3576
  767SOL    HW1 2300   2.769   1.529   0.551 -0.7044 -0.3044  1.5075
  767SOL    HW2 2301   2.925   1.594   0.577 -2.5627 -1.0191 -1.1747
  768SOL     OW 2302   1.095   0.256   0.311 -0.2431 -0.0650  0.0068
  768SOL    HW1 2303   1.029   0.180   0.303  0.4963  1.3252 -1.8213
  768SOL    HW2 2304   1.192   0.226   0.284  2.5728  1.1316 -1.6564
  769SOL     OW 2305   1.186   1.812   2.266  0.2557 -0.2123  0.4479
  769SOL    HW1 2306   1.139   1.821   2.364  0.4248  0.5890 -0.6505
  769SOL    HW2 2307   1.198   1.715   2.246 -1.4139  3.2797 -0.1208
  770SOL     OW 2308   0.170   1.231   2.416 -0.4785 -0.4653 -0.3674
  770SOL    HW1 2309   0.137   1.272   2.504 -1.7109  1.6790  1.2205
  770SOL    HW2 2310   0.088   1.202   2.359  0.4326 -1.6505 -1.9061
  771SOL     OW 2311   2.972   2.815   1.905 -0.2546  0.3887  0.0859
  771SOL    HW1 2312   2.935   2.874   1.831  2.1395 -1.1633  3.2477
  771SOL    HW2 2313   2.972   2.868   1.994 -1.7188  2.5158  1.0628
  772SOL     OW 2314   2.119   0.106   2.975 -0.0368  0.0990  0.3817
  772SOL    HW1 2315   2.200   0.039   2.977 -1.0737  3.7611 -0.9803
  772SOL    HW2 2316   2.124   0.199   3.029 -1.9542  0.6917  0.1729
  773SOL     OW 2317   0.679   2.061   2.470  0.0560  0.1211 -0.3499
  773SOL    HW1 2318   0.663   2.128   2.393 -1.0133 -1.8553 -0.4878
  773SOL    HW2 2319   0.602   2.065   2.540  1.3674 -0.9733  0.5415
  774SOL     OW 2320   2.035   3.076   2.618 -0.2533  0.2854 -0.5666
  774SOL    HW1 2321   2.056   3.177   2.639  0.3556 -0.3699 -0.0253
  774SOL    HW2 2322   2.096   3.018   2.679  3.7482 -0.1895  1.5687
  775SOL     OW 2323   2.515   2.839   2.381 -0.3459  0.0488 -1.1255
  775SOL    HW1 2324   2.501   2.939   2.378  2.0023 -1.2143  3.5600
  775SOL    HW2 2325   2.599   2.812   2.437 -1.2013 -0.2624 -1.5224
  776SOL     OW 2326   0.010   1.254   0.206  0.3585 -0.3400 -0.3256
  776SOL    HW1 2327  -0.028   1.218   0.118  1.0237 -1.1994 -0.8188
  776SOL    HW2 2328  -0.058   1.277   0.286  0.2025 -0.3809  0.6433
  777SOL     OW 2329   0.209   2.692   0.489  0.5250 -0.0289  0.1460
  777SOL    HW1 2330   0.104   2.695   0.484  0.4078 -2.6026  3.1850
  777SOL    HW2 2331   0.254   2.778   0.519 -0.3525 -1.4987  0.5787
  778SOL     OW 2332   1.324   1.959   0.153 -0.0398  0.1592 -0.0260
  778SOL    HW1 2333   1.269   1.977   0.239  1.2663 -1.3951 -0.3697
  778SOL    HW2 2334   1.323   2.041   0.088 -2.9552 -0.1016  1.6653
  779SOL     OW 2335   0.181   0.797   0.491  0.1962  0.7092 -0.1196
  779SOL    HW1 2336   0.161   0.696   0.484  0.2326 -1.7319 -2.9884
  779SOL    HW2 2337   0.118   0.845   0.561 -2.2941 -1.2091 -0.6811
  780SOL     OW 2338   0.027   0.317   2.389  0.8387 -0.6514  0.4985
  780SOL    HW1 2339  -0.013   0.413   2.377  1.7318 -0.2172  0.3228
  780SOL    HW2 2340   0.113   0.301   2.333  0.1999  1.2489 -1.3891
  781SOL     OW 2341   0.597   1.740   1.593 -0.3324 -0.6725 -0.2140
  781SOL    HW1 2342   0.630   1.763   1.689  1.3261 -1.9042  0.4861
  781SOL    HW2 2343   0.543   1.654   1.579  0.8718  1.8835  0.1648
  782SOL     OW 2344   2.601   0.151   0.926  0.6715 -0.1137 -0.0980
  782SOL    HW1 2345   2.553   0.165   0.838  1.5495 -2.8714  1.2136
  782SOL    HW2 2346   2.535   0.179   1.002  0.8760 -0.1059 -0.0317
  783SOL     OW 2347   2.858   0.686   2.501 -0.1250  0.4241 -0.0003
  783SOL    HW1 2348   2.820   0.737   2.582 -1.7816  0.9986 -0.7644
  783SOL    HW2 2349   2.801   0.610   2.456 -1.1868 -1.3646 -0.4037
  784SOL     OW 2350   1.346   2.206   0.032  0.3208 -0.7479 -0.8815
  784SOL    HW1 2351   1.409   2.272   0.080 -1.0150  1.5370 -0.7068
  784SOL    HW2 2352   1.373   2.189  -0.063  0.2419  2.2439  2.1491
  785SOL     OW 2353   2.175   0.341   0.010  0.0076 -0.3072  0.1047
  785SOL    HW1 2354   2.082   0.355   0.062 -0.2539  0.1488  0.7128
  785SOL    HW2 2355   2.194   0.427  -0.054 -0.4746  0.9984 -2.2704
  786SOL     OW 2356   2.042   2.162   2.240 -0.5992  0.6963  0.2054
  786SOL    HW1 2357   1.996   2.077   2.209  1.5190  0.1162 -0.6445
  786SOL    HW2 2358   2.136   2.155   2.272 -2.3586  0.4081  1.8868
  787SOL     OW 2359   1.379   0.629   0.835 -0.1386  0.1250 -0.1815
  787SOL    HW1 2360   1.309   0.708   0.851  0.5390  1.2485  0.6033
  787SOL    HW2 2361   1.420   0.633   0.739 -1.4062  0.1368  1.8058
  788SOL     OW 2362   1.216   0.423   3.030  0.0254  0.3068 -0.0450
  788SOL    HW1 2363   1.135   0.416   2.971 -1.8835  1.6426  1.4100
  788SOL    HW2 2364   1.305   0.443   2.977 -0.0783 -0.2120 -1.5957
  789SOL     OW 2365   2.623   0.094   1.820  0.0106  0.1066 -0.0342
  789SOL    HW1 2366   2.530   0.109   1.861  1.1067  1.2515 -1.0985
  789SOL    HW2 2367   2.641  -0.010   1.787 -0.5305 -2.3830 -0.0398
  790SOL     OW 2368   2.593   2.633   0.819 -0.0495 -0.4339 -1.0897
  790SOL    HW1 2369   2.664   2.650   0.744  1.5703  1.0122 -0.8327
  790SOL    HW2 2370   2.598   2.689   0.911  0.0525  0.9597  1.7392
  791SOL     OW 2371   1.952   1.286   0.229  0.1807  0.2227 -0.2162
  791SOL    HW1 2372   1.868   1.232   0.259  0.0002 -0.5082 -0.1389
  791SOL    HW2 2373   2.037   1.229   0.218  4.9587  1.0178 -1.8939
  792SOL     OW 2374   0.414   1.975   2.213 -0.0133  0.0321  0.1013
  792SOL    HW1 2375   0.456   2.068   2.224 -2.1037 -0.2942  1.2400
  792SOL    HW2 2376   0.326   1.963   2.268  0.8532  0.2250 -1.0388
  793SOL     OW 2377   2.139   1.547   2.145  0.5288  0.2407  0.3347
  793SOL    HW1 2378   2.217   1.610   2.119 -2.4921 -1.3440  1.4465
  793SOL    HW2 2379   2.116   1.471   2.068 -0.2870 -0.2388 -0.6353
  794SOL     OW 2380   0.451   1.434   2.480  1.0148  0.5824  0.0792
  794SOL    HW1 2381   0.458   1.356   2.410 -0.1716 -0.3258 -0.4355
  794SOL    HW2 2382   0.377   1.510   2.456 -0.0753  2.7908 -1.4819
  795SOL     OW 2383   2.535   2.323   1.804 -0.0530 -0.0275  0.1909
  795SOL    HW1 2384   2.533   2.358   1.903  1.5773 -0.2314 -0.9608
  795SOL    HW2 2385   2.487   2.235   1.797  1.9577 -0.7890  0.3373
  796SOL     OW 2386   3.056   1.056   2.690 -0.1704  0.4699  0.3125
  796SOL    HW1 2387   2.977   1.107   2.727  2.5060 -0.5650  0.3946
  796SOL    HW2 2388   3.108   1.022   2.772 -1.9483 -2.6956 -3.3356
  797SOL     OW 2389   0.687   0.659   1.363 -0.3456  0.0244 -0.3749
  797SOL    HW1 2390   0.754   0.707   1.423 -1.6453  0.4063 -0.5405
  797SOL    HW2 2391   0.658   0.723   1.284 -2.6367  3.1095  2.9709
  798SOL     OW 2392   1.204   0.455   0.984  0.2267  0.3490 -0.2628
  798SOL    HW1 2393   1.250   0.482   1.072 -4.2030  3.0525 -3.2003
  798SOL    HW2 2394   1.244   0.509   0.902  1.1741 -3.6780 -2.4215
  799SOL     OW 2395   1.832   2.733   1.010  0.1231  0.1325 -0.1759
  799SOL    HW1 2396   1.814   2.646   1.056 -0.1629  0.5720 -3.1959
  799SOL    HW2 2397   1.862   2.715   0.913  2.6037 -2.0690  0.7965
  800SOL     OW 2398   2.955   0.838   1.816 -0.1828  0.4188  0.0588
  800SOL    HW1 2399   2.964   0.942   1.826  2.4060 -1.0494 -1.6185
  800SOL    HW2 2400   2.968   0.787   1.905  2.3354  1.9005 -0.7980
  801SOL     OW 2401   1.970   2.159   0.140 -0.2125 -0.1748 -0.1138
  801SOL    HW1 2402   1.877   2.152   0.097  1.6929 -2.4383  0.4832
  801SOL    HW2 2403   2.036   2.084   0.105  2.1631  0.9325 -3.8102
  802SOL     OW 2404   0.697   0.677   2.540 -0.8880 -1.1617  0.2335
  802SOL    HW1 2405   0.757   0.673   2.455 -1.9847  0.6686  0.2024
  802SOL    HW2 2406   0.595   0.676   2.514  0.8096 -0.1575 -1.4127
  803SOL     OW 2407   0.912   0.069   0.864 -0.1544  0.9145 -0.3522
  803SOL    HW1 2408   0.981   0.125   0.915 -0.8761 -0.6878  1.8312
  803SOL    HW2 2409   0.903   0.096   0.766 -1.0339  2.4875  1.9618
  804SOL     OW 2410   0.315   0.026   2.194  0.2509 -0.3908  0.2767
  804SOL    HW1 2411   0.298   0.125   2.223 -0.2819  0.0823 -1.4052
  804SOL    HW2 2412   0.255  -0.011   2.116 -0.0774  1.3016  0.8715
  805SOL     OW 2413   2.365   0.370   0.326  1.0852 -0.1138  0.1497
  805SOL    HW1 2414   2.438   0.363   0.397 -2.0229  2.0271 -3.5167
  805SOL    HW2 2415   2.378   0.301   0.248  1.8047 -1.3061  1.3227
  806SOL     OW 2416   0.635   2.495   1.839  0.0479  0.5042 -0.2783
  806SOL    HW1 2417   0.587   2.583   1.874  1.6395  0.9282  1.9529
  806SOL    HW2 2418   0.701   2.513   1.762 -1.7821  0.4754  0.7433
  807SOL     OW 2419   2.537   0.986   0.446 -0.2562  0.1310  1.0870
  807SOL    HW1 2420   2.627   0.942   0.475 -1.8080  1.0080 -2.9172
  807SOL    HW2 2421   2.520   0.987   0.349 -0.3665  1.6442  2.0670
  808SOL     OW 2422   0.612   2.032   2.879  0.7052 -0.1458 -0.1246
  808SOL    HW1 2423   0.615   2.063   2.977 -2.7260  0.8568 -2.0129
  808SOL    HW2 2424   0.629   1.930   2.871 -0.2176 -0.6238 -1.0397
  809SOL     OW 2425   2.549   1.990   1.903  0.1510 -0.5301  0.0537
  809SOL    HW1 2426   2.650   2.018   1.893 -1.1531 -0.8405 -0.7903
  809SOL    HW2 2427   2.506   1.987   1.814  3.7317  1.9638  2.8137
  810SOL     OW 2428   2.169   1.079   0.543  0.5167  0.1446  0.0935
  810SOL    HW1 2429   2.145   1.034   0.629  0.8162  2.4987  0.4288
  810SOL    HW2 2430   2.114   1.166   0.533 -1.4010 -1.5986  1.5127
  811SOL     OW 2431   1.279   2.583   1.187 -0.3877  0.5716  0.6198
  811SOL    HW1 2432   1.277   2.483   1.201 -0.6071  1.3976 -0.7710
  811SOL    HW2 2433   1.298   2.635   1.272  0.1723  2.5034 -2.0024
  812SOL     OW 2434   1.414   0.786   1.955  0.5690  0.0179  0.8012
  812SOL    HW1 2435   1.356   0.765   1.872  3.0364 -0.8275 -1.2672
  812SOL    HW2 2436   1.453   0.881   1.935 -3.5568 -0.9111 -0.1725
  813SOL     OW 2437   1.574   2.065   2.427  0.2767 -0.0162  0.3007
  813SOL    HW1 2438   1.664   2.015   2.433  1.8944  2.2029  1.8157
  813SOL    HW2 2439   1.536   2.046   2.332  3.1729  1.0923 -0.2579
  814SOL     OW 2440   2.976   1.694   2.898  0.3175  0.1880 -0.4135
  814SOL    HW1 2441   3.038   1.644   2.967  1.1286  0.7350  2.0550
  814SOL    HW2 2442   2.998   1.798   2.900  0.0880  0.1094  0.1119
  815SOL     OW 2443   2.164   2.906   2.773  0.2263 -0.1458  0.1948
  815SOL    HW1 2444   2.142   2.820   2.826  0.7928  0.5682 -2.5846
  815SOL    HW2 2445   2.264   2.937   2.788  1.3019 -1.7153  0.1115
  816SOL     OW 2446   1.525   0.365   1.665 -0.4359  0.3600 -0.7154
  816SOL    HW1 2447   1.579   0.285   1.700  0.1812  3.9427  0.5058
  816SOL    HW2 2448   1.460   0.395   1.737  2.1515  0.7142  0.5973
  817SOL     OW 2449   0.387   1.225   2.651 -0.2374  0.1653  0.1345
  817SOL    HW1 2450   0.292   1.250   2.688 -2.5567 -1.3240  0.5230
  817SOL    HW2 2451   0.442   1.304   2.607  3.1441  3.0241  0.6917
  818SOL     OW 2452   2.005   0.814   0.463  0.5898 -0.0352  0.0007
  818SOL    HW1 2453   2.089   0.863   0.430 -1.3270  0.0774  0.3196
  818SOL    HW2 2454   1.995   0.829   0.564 -0.1331  0.6210  0.5180
  819SOL     OW 2455   2.759   2.902   3.098 -0.0329 -0.6340 -0.1400
  819SOL    HW1 2456   2.723   2.814   3.133 -1.0361  2.3988  1.0701
  819SOL    HW2 2457   2.719   2.922   3.005  2.0947 -0.7166  0.6944
  820SOL     OW 2458   1.271   1.052   0.546  0.2809 -0.0085  0.0007
  820SOL    HW1 2459   1.277   1.157   0.555 -3.5163  0.4333  0.6418
  820SOL    HW2 2460   1.271   0.997   0.635 -0.0101  0.1740  3.7627
  821SOL     OW 2461   0.074   1.186   0.731  0.7122 -0.1212 -0.7930
  821SOL    HW1 2462   0.023   1.185   0.824  0.4179  1.1927  1.3725
  821SOL    HW2 2463   0.131   1.270   0.727 -1.5457 -2.8882  2.3274
  822SOL     OW 2464   2.518   1.778   2.426  0.2986 -0.5455  0.0027
  822SOL    HW1 2465   2.510   1.831   2.515  0.1344 -0.9646 -1.9874
  822SOL    HW2 2466   2.429   1.768   2.377  2.2907  0.5662 -0.4295
  823SOL     OW 2467   2.014   0.957   1.193 -0.1712 -0.0234  0.8111
  823SOL    HW1 2468   1.977   0.924   1.285  3.5703  0.2049  1.1839
  823SOL    HW2 2469   1.947   0.942   1.107 -0.4504 -1.1471 -1.3961
  824SOL     OW 2470   0.210   1.911   2.781 -0.1541 -0.3797 -0.3044
  824SOL    HW1 2471   0.247   1.862   2.864 -1.1666 -1.3535  1.7372
  824SOL    HW2 2472   0.277   1.925   2.707 -0.8738  1.6293 -2.4653
  825SOL     OW 2473   1.328   1.071   0.261 -0.2564  0.0806  0.1710
  825SOL    HW1 2474   1.330   1.170   0.221  0.9325  2.3821 -1.1800
  825SOL    HW2 2475   1.296   1.072   0.359  0.3041 -0.8623 -0.7789
  826SOL     OW 2476   1.929   0.599   1.580  0.0702  0.0786 -0.2635
  826SOL    HW1 2477   2.016   0.553   1.617 -1.4310 -1.0066  1.3703
  826SOL    HW2 2478   1.851   0.532   1.579 -0.2936  0.5209  1.4995
  827SOL     OW 2479   0.728   1.165   0.383  0.1797 -0.1597  0.6445
  827SOL    HW1 2480   0.780   1.128   0.302 -0.5762 -1.5442 -1.3638
  827SOL    HW2 2481   0.653   1.104   0.422  0.4446 -0.0629  1.6428
  828SOL     OW 2482   2.640   0.129   1.536  0.0606 -0.0492  0.5110
  828SOL    HW1 2483   2.545   0.086   1.518  0.2282  2.4792  0.8167
  828SOL    HW2 2484   2.657   0.142   1.638  1.3115  0.2002  2.5993
  829SOL     OW 2485   2.925   2.431   2.914 -0.4223  0.1894  0.5239
  829SOL    HW1 2486   2.845   2.406   2.976 -2.8503  1.1331  0.3227
  829SOL    HW2 2487   2.940   2.532   2.906 -1.6699 -0.9014  1.9147
  830SOL     OW 2488   2.872   0.913   3.047 -0.0534  0.3261 -0.3466
  830SOL    HW1 2489   2.923   0.997   3.086  2.2929 -0.5707  1.8695
  830SOL    HW2 2490   2.863   0.834   3.115  0.2571 -2.6345  1.1117
  831SOL     OW 2491   0.062   0.553   0.425  0.8347  0.0784 -0.2557
  831SOL    HW1 2492   0.033   0.480   0.494 -0.1903  2.2741  1.8987
  831SOL    HW2 2493   0.081   0.506   0.334  0.7113 -0.6546  1.5184
  832SOL     OW 2494   1.789   0.769   3.028 -0.7969  0.2650 -0.3742
  832SOL    HW1 2495   1.697   0.796   2.988  2.7741 -3.4774 -2.9839
  832SOL    HW2 2496   1.791   0.667   3.057  0.4551  0.6990 -1.3415
  833SOL     OW 2497   2.397   2.093   0.481 -0.5816 -0.3891  0.3440
  833SOL    HW1 2498   2.302   2.057   0.460  1.1018 -0.0457  0.1270
  833SOL    HW2 2499   2.474   2.021   0.454  2.7850 -0.7057 -0.5654
  834SOL     OW 2500   0.197   0.111   0.582 -0.5032  0.0678  0.5201
  834SOL    HW1 2501   0.268   0.035   0.582 -0.2249  0.6074 -0.4904
  834SOL    HW2 2502   0.180   0.148   0.483  0.3028  1.6572 -1.3083
  835SOL     OW 2503   2.416   1.528   1.097 -0.0481  0.7930 -0.6905
  835SOL    HW1 2504   2.505   1.570   1.134  2.1279  0.5815 -3.2728
  835SOL    HW2 2505   2.435   1.490   1.005 -0.2685  2.6450  2.2622
  836SOL     OW 2506   1.597   0.820   2.600 -0.1785  0.2054 -0.2600
  836SOL    HW1 2507   1.492   0.822   2.596  0.4945  0.3512  0.9013
  836SOL    HW2 2508   1.639   0.819   2.503 -0.9843 -1.5290  2.5772
  837SOL     OW 2509   1.702   0.112   0.571  0.2487  0.0863  0.0865
  837SOL    HW1 2510   1.670   0.192   0.636 -2.4023 -0.6406 -1.0442
  837SOL    HW2 2511   1.658   0.115   0.477  1.3366  0.1285 -0.0114
  838SOL     OW 2512   1.210   1.395   2.706 -0.3984  0.3964  0.1645
  838SOL    HW1 2513   1.200   1.466   2.782 -0.0350 -0.9075  1.9988
  838SOL    HW2 2514   1.119   1.362   2.670  0.6055  0.8451  0.7341
  839SOL     OW 2515   1.573   0.350   0.970  0.1405 -0.1130 -0.2554
  839SOL    HW1 2516   1.520   0.420   1.027  0.8823 -1.3510 -0.3352
  839SOL    HW2 2517   1.541   0.253   1.000 -2.6169 -0.6675  1.0551
  840SOL     OW 2518   2.582   2.949   1.703  0.3393 -0.1296 -0.4493
  840SOL    HW1 2519   2.514   2.935   1.628 -1.3991 -0.5409  1.0296
  840SOL    HW2 2520   2.570   2.874   1.773  0.1906 -0.7993 -1.6308
  841SOL     OW 2521   1.540   0.811   2.941  0.3010 -0.5854 -0.1745
  841SOL    HW1 2522   1.459   0.849   2.998 -0.9192 -3.6889  4.8804
  841SOL    HW2 2523   1.579   0.886   2.873 -0.9923  1.4097 -1.1123
  842SOL     OW 2524   0.839   1.558   1.006  0.4498  0.2147  0.4779
  842SOL    HW1 2525   0.808   1.652   1.037  2.0697  0.0525 -1.1118
  842SOL    HW2 2526   0.768   1.507   0.950 -0.7584 -0.1284 -2.6462
  843SOL     OW 2527   0.130   0.148   1.444  0.4187  0.3694 -0.0641
  843SOL    HW1 2528   0.208   0.171   1.507  1.0179 -2.0104 -1.6461
  843SOL    HW2 2529   0.135   0.049   1.424  0.4503  0.6639  1.0995
  844SOL     OW 2530   0.732   2.540   0.201 -0.8065  0.4053 -0.4509
  844SOL    HW1 2531   0.710   2.567   0.298 -2.3495 -1.0696  0.0094
  844SOL    HW2 2532   0.648   2.523   0.143 -0.2227 -1.9477 -0.8271
  845SOL     OW 2533   1.693   2.933   1.295  0.8042  0.6589  0.1286
  845SOL    HW1 2534   1.669   3.011   1.360 -0.3181 -2.0831  0.3529
  845SOL    HW2 2535   1.625   2.916   1.217 -1.5160 -2.4629  1.6727
  846SOL     OW 2536   1.712   2.981   0.889  0.1041  0.2741 -0.0429
  846SOL    HW1 2537   1.735   3.023   0.799 -0.8812  0.7670  0.9384
  846SOL    HW2 2538   1.767   2.896   0.914 -2.9220  0.0940 -2.6057
  847SOL     OW 2539   2.062   1.612   0.192  0.2107 -0.4016 -0.2075
  847SOL    HW1 2540   2.031   1.566   0.278  2.5713  2.6068 -2.0800
  847SOL    HW2 2541   1.990   1.611   0.120 -0.3658  0.5368 -0.8107
  848SOL     OW 2542   2.470   0.836   2.661 -0.0574 -0.1676 -0.0026
  848SOL    HW1 2543   2.461   0.931   2.686  2.1916 -2.0244 -1.0020
  848SOL    HW2 2544   2.408   0.806   2.582  2.6206 -1.1083 -1.2069
  849SOL     OW 2545   2.417   0.865   2.256 -0.2110 -0.9053 -0.4854
  849SOL    HW1 2546   2.474   0.796   2.204  0.6899 -4.1084 -0.8708
  849SOL    HW2 2547   2.384   0.828   2.347  0.9642 -0.5140 -2.1306
  850SOL     OW 2548   1.554   0.142   1.254 -0.5533 -0.1004  0.3146
  850SOL    HW1 2549   1.533   0.098   1.162  0.9022  1.6811 -1.0039
  850SOL    HW2 2550   1.516   0.093   1.339 -0.3974  0.4186  2.5161
  851SOL     OW 2551   0.490   1.775   0.684  0.3272 -0.1386 -0.0005
  851SOL    HW1 2552   0.465   1.874   0.708  0.0828  1.5055  0.2028
  851SOL    HW2 2553   0.593   1.768   0.679  0.5194  1.8566  0.0196
  852SOL     OW 2554   0.791   2.141   1.687  0.5494  0.1792  0.0562
  852SOL    HW1 2555   0.796   2.228   1.639 -2.0797 -2.5171  0.3941
  852SOL    HW2 2556   0.718   2.151   1.764  0.4538 -0.1710  0.1207
  853SOL     OW 2557   2.517   1.517   2.581  0.1635 -0.4632  0.1754
  853SOL    HW1 2558   2.489   1.429   2.533  0.7684  3.1509  1.0525
  853SOL    HW2 2559   2.527   1.594   2.513 -2.3248 -0.8531 -1.2363
  854SOL     OW 2560   2.367   1.431   1.759  0.4960  0.5965 -0.0618
  854SOL    HW1 2561   2.430   1.410   1.677 -1.5354 -0.3541 -0.1853
  854SOL    HW2 2562   2.301   1.350   1.774 -0.5998  1.0733 -2.1842
  855SOL     OW 2563   2.054   2.310   0.972  0.2541  0.4764  0.3763
  855SOL    HW1 2564   2.069   2.410   0.942 -0.2661 -1.3969  1.1845
  855SOL    HW2 2565   2.106   2.280   1.058 -1.2653 -3.4803 -0.4985
  856SOL     OW 2566   1.411   1.340   0.888  0.1884 -0.3339 -0.1630
  856SOL    HW1 2567   1.377   1.444   0.880 -3.3479  0.6004  1.3674
  856SOL    HW2 2568   1.419   1.317   0.990  0.5223 -1.3737  1.6971
  857SOL     OW 2569   2.948   2.583   1.048 -0.8993 -0.2463 -0.1004
  857SOL    HW1 2570   2.871   2.514   1.029  2.0307 -1.1861 -2.2800
  857SOL    HW2 2571   3.033   2.556   0.995 -1.0995  2.7107 -4.5599
  858SOL     OW 2572   2.274   2.128   1.744 -0.3881 -0.1337  0.0562
  858SOL    HW1 2573   2.181   2.132   1.692  0.8827 -1.7116 -1.0611
  858SOL    HW2 2574   2.360   2.103   1.689  0.5327 -3.4181  1.1227
  859SOL     OW 2575   2.430   0.493   1.007  0.2066 -0.2054 -0.6157
  859SOL    HW1 2576   2.492   0.520   0.930 -1.5615  0.2212 -1.1632
  859SOL    HW2 2577   2.479   0.434   1.086 -1.6631 -2.2808  1.2058
  860SOL     OW 2578   1.966   2.769   0.500  0.4141  0.7004  0.0383
  860SOL    HW1 2579   1.952   2.689   0.434  0.6023  1.5735  1.1921
  860SOL    HW2 2580   1.993   2.857   0.454 -1.9825 -2.0870  1.7939
  861SOL     OW 2581   1.076   2.572   2.764 -0.3101  0.0426  0.0851
  861SOL    HW1 2582   1.102   2.671   2.783  0.5879 -1.5742  1.2945
  861SOL    HW2 2583   1.125   2.511   2.828  0.9329  2.4914 -0.4221
  862SOL     OW 2584   2.949   2.557   1.548  0.0280  0.4097  0.3536
  862SOL    HW1 2585   2.986   2.556   1.640 -0.4666 -0.3156 -0.8151
  862SOL    HW2 2586   2.876   2.631   1.540 -0.1105 -0.0377  1.8685
  863SOL     OW 2587   1.889   2.622   0.242 -0.6327 -0.3494  0.1618
  863SOL    HW1 2588   1.921   2.532   0.212 -1.0603  3.4888  0.3312
  863SOL    HW2 2589   1.786   2.633   0.253 -0.4691 -2.4096 -2.2177
  864SOL     OW 2590   1.877   1.160   2.935 -0.2243 -0.5248 -0.3560
  864SOL    HW1 2591   1.889   1.110   2.838  1.4709 -0.9484 -1.2635
  864SOL    HW2 2592   1.969   1.167   2.982  0.2210  1.6076 -1.0414
  865SOL     OW 2593   2.131   1.740   0.685  0.1663  0.2117 -0.4460
  865SOL    HW1 2594   2.199   1.766   0.763  1.2421 -0.2196  2.5987
  865SOL    HW2 2595   2.043   1.692   0.723 -1.2741 -2.6008 -0.0665
  866SOL     OW 2596   2.910   2.841   1.019  0.2310 -0.0789 -0.0149
  866SOL    HW1 2597   2.978   2.863   0.940  0.5796  0.5066 -3.5637
  866SOL    HW2 2598   2.899   2.740   1.027 -4.1898  2.1053 -2.9907
  867SOL     OW 2599   0.433   1.301   0.852 -0.0289 -0.1264 -0.3245
  867SOL    HW1 2600   0.455   1.201   0.822 -0.9295 -1.9802 -0.3860
  867SOL    HW2 2601   0.335   1.329   0.840  2.1416 -0.7021 -0.9689
  868SOL     OW 2602   0.843   1.931   1.979 -0.1217  0.1698  0.3014
  868SOL    HW1 2603   0.844   1.901   2.085  1.5564  2.4405  1.3330
  868SOL    HW2 2604   0.802   2.025   1.963 -1.3763  0.7467 -0.9464
  869SOL     OW 2605   2.500   2.031   1.605  0.3570  0.1788 -0.2793
  869SOL    HW1 2606   2.590   2.072   1.577  0.2643 -1.3484 -2.2646
  869SOL    HW2 2607   2.473   1.949   1.552  1.1418  1.9485  1.4051
  870SOL     OW 2608   2.349   2.551   1.196  0.9507 -0.7352 -0.1733
  870SOL    HW1 2609   2.259   2.498   1.210 -1.2606 -1.7296 -0.6544
  870SOL    HW2 2610   2.427   2.505   1.245 -0.6989 -1.3681 -0.0463
  871SOL     OW 2611   2.998   2.029   0.559  0.0883 -0.3815 -0.5275
  871SOL    HW1 2612   2.934   2.104   0.591 -2.9054 -1.2702  0.7607
  871SOL    HW2 2613   2.970   1.983   0.473 -0.0395 -1.5665  3.8606
  872SOL     OW 2614   2.167   0.503   1.695  0.4713  0.0437 -0.3363
  872SOL    HW1 2615   2.135   0.510   1.796 -3.8416  1.4525  0.6106
  872SOL    HW2 2616   2.251   0.440   1.685 -0.0817 -3.7533  0.2510
  873SOL     OW 2617   1.729   2.119   2.952 -0.0287 -0.3235  0.0120
  873SOL    HW1 2618   1.715   2.216   2.979 -0.9600 -2.5527 -1.0410
  873SOL    HW2 2619   1.672   2.094   2.871  1.1183  0.4433  2.1045
  874SOL     OW 2620   0.701   2.488   0.769  0.1090  0.1277 -0.1217
  874SOL    HW1 2621   0.668   2.582   0.807  0.3380  3.2251 -0.8695
  874SOL    HW2 2622   0.797   2.461   0.790  0.8622  2.1908 -4.4907
  875SOL     OW 2623   2.330   1.511   1.489  0.9227 -0.2207 -0.1159
  875SOL    HW1 2624   2.428   1.533   1.497 -1.7104 -1.2475  4.8297
  875SOL    HW2 2625   2.296   1.524   1.393 -0.6640 -0.3598 -1.4785
  876SOL     OW 2626   0.142   2.212   2.697 -0.0399  0.1274  0.5800
  876SOL    HW1 2627   0.157   2.120   2.735  0.2342  1.7265 -0.8148
  876SOL    HW2 2628   0.189   2.286   2.757  1.7124 -1.3983 -0.2106
  877SOL     OW 2629   2.769   2.680   0.611 -0.4794 -0.4004 -0.0403
  877SOL    HW1 2630   2.814   2.767   0.641  0.5091  1.2767 -3.5796
  877SOL    HW2 2631   2.829   2.591   0.617 -1.4872 -0.0638 -0.1651
  878SOL     OW 2632   2.841   1.528   2.203 -0.6512  0.5738  0.1073
  878SOL    HW1 2633   2.940   1.549   2.193  1.0340  2.0645  1.2745
  878SOL    HW2 2634   2.815   1.522   2.304 -2.3480  3.3509  2.1877
  879SOL     OW 2635   2.380   0.008   1.212  0.2887 -0.0653  0.3413
  879SOL    HW1 2636   2.413  -0.092   1.204 -1.1172  0.0056  1.5565
  879SOL    HW2 2637   2.289   0.014   1.159  1.0935 -0.4581  0.2551
  880SOL     OW 2638   0.672   0.432   2.155 -0.3207 -0.4806  0.4878
  880SOL    HW1 2639   0.618   0.402   2.235 -3.3418  0.8089 -0.7213
  880SOL    HW2 2640   0.744   0.375   2.120 -2.2917  0.4951 -0.3934
  881SOL     OW 2641   0.910   0.039   0.395 -0.1877  0.0176 -0.4013
  881SOL    HW1 2642   0.939  -0.052   0.443  2.9089 -0.6526 -1.6131
  881SOL    HW2 2643   0.857   0.032   0.309  0.1645  0.0616 -0.7567
  882SOL     OW 2644   2.752   1.637   1.671 -0.1252 -0.0472 -0.3089
  882SOL    HW1 2645   2.856   1.606   1.679  1.6010 -0.1607  1.4621
  882SOL    HW2 2646   2.716   1.679   1.756  2.6133  0.6026 -2.3989
  883SOL     OW 2647   0.952   0.586   0.938 -0.2914  0.4834 -0.1438
  883SOL    HW1 2648   0.982   0.680   0.974 -1.4617 -0.3463 -0.9847
  883SOL    HW2 2649   1.036   0.524   0.948  1.5776 -0.1583 -0.2128
  884SOL     OW 2650   1.193   1.920   1.000  0.3516 -0.2348 -0.0462
  884SOL    HW1 2651   1.148   1.860   0.931  2.6569  0.6938  1.7539
  884SOL    HW2 2652   1.132   1.974   1.061  0.3013 -0.2171 -0.7686
  885SOL     OW 2653   2.244   1.833   2.312 -0.0392 -0.1657 -0.2917
  885SOL    HW1 2654   2.166   1.780   2.352 -1.2630 -0.8047 -0.4364
  885SOL    HW2 2655   2.257   1.935   2.341 -0.6758  1.5885  3.5134
  886SOL     OW 2656   2.645   0.459   1.774 -0.2488  0.0209 -0.3458
  886SOL    HW1 2657   2.692   0.408   1.852  2.0529  0.4545  0.3622
  886SOL    HW2 2658   2.709   0.523   1.734 -1.9715 -1.0674  3.0634
  887SOL     OW 2659   0.099   2.057   1.281  0.2842  0.0766  0.1715
  887SOL    HW1 2660   0.056   2.022   1.193 -1.7696  0.8174 -0.7832
  887SOL    HW2 2661   0.120   2.160   1.280  1.5782 -1.8191 -0.3794
  888SOL     OW 2662   0.567   1.294   1.499  0.3667  0.3100 -0.1913
  888SOL    HW1 2663   0.632   1.312   1.420 -0.5995 -1.9653 -0.2324
  888SOL    HW2 2664   0.548   1.196   1.501 -0.4990  0.8792  0.0459
  889SOL     OW 2665   0.839   2.539   2.137  0.2658  0.4096  0.5064
  889SOL    HW1 2666   0.742   2.509   2.123 -0.5339  1.9649 -1.1697
  889SOL    HW2 2667   0.913   2.508   2.066  0.3380 -0.5251 -0.4054
  890SOL     OW 2668   2.334   2.455   0.182 -0.6638 -0.1440  0.0155
  890SOL    HW1 2669   2.358   2.538   0.121 -3.3229  1.0776 -2.5426
  890SOL    HW2 2670   2.229   2.439   0.180  0.6648 -4.9173 -1.2285
  891SOL     OW 2671   2.624   1.503   0.649  0.4944  0.3836 -0.8400
  891SOL    HW1 2672   2.622   1.464   0.745 -0.4544 -2.2557  0.3843
  891SOL    HW2 2673   2.534   1.536   0.612 -0.9785  2.3172  0.1491
  892SOL     OW 2674   0.249   0.307   2.231 -0.2921  0.1844 -0.0012
  892SOL    HW1 2675   0.258   0.300   2.127 -1.6989 -0.2884 -1.8680
  892SOL    HW2 2676   0.333   0.358   2.273 -1.6762 -1.1099  2.4456
  893SOL     OW 2677   1.673   0.238   2.728 -0.3744 -0.1589 -0.1982
  893SOL    HW1 2678   1.744   0.312   2.749 -2.5469  1.8682  4.5927
  893SOL    HW2 2679   1.574   0.273   2.725 -1.3826  0.0787 -2.1374
  894SOL     OW 2680   2.185   1.995   0.028 -0.8178 -0.4671  0.3188
  894SOL    HW1 2681   2.148   1.928  -0.041  0.9577 -0.2242 -2.4571
  894SOL    HW2 2682   2.218   1.939   0.113 -1.4001 -0.1301 -0.8867
  895SOL     OW 2683   2.917   1.434   0.803 -0.0760 -0.4212  0.2370
  895SOL    HW1 2684   2.942   1.387   0.890  1.4326 -1.3003 -1.4438
  895SOL    HW2 2685   2.963   1.529   0.793  3.8109 -0.1115  1.2189
  896SOL     OW 2686   1.745   1.774   1.170  0.5748 -0.5283  0.4099
  896SOL    HW1 2687   1.809   1.842   1.120 -0.4205  1.8203 -0.1909
  896SOL    HW2 2688   1.648   1.790   1.144  0.8997 -1.6907 -0.2723
  897SOL     OW 2689   0.287   0.539   3.095  0.5311  0.0368  0.1690
  897SOL    HW1 2690   0.241   0.608   3.036  4.6838  1.4261 -2.5602
  897SOL    HW2 2691   0.378   0.572   3.121  0.1167  0.2756  1.9527
  898SOL     OW 2692   0.557   2.858   1.136 -0.4718  0.2624  0.3467
  898SOL    HW1 2693   0.503   2.948   1.157 -1.0225  0.8744  0.7497
  898SOL    HW2 2694   0.659   2.871   1.154  0.2960 -0.5698  0.3983
  899SOL     OW 2695   2.669   0.928   1.239  0.1860 -0.0779  0.9060
  899SOL    HW1 2696   2.579   0.894   1.196 -0.6773 -2.1930 -1.1126
  899SOL    HW2 2697   2.738   0.936   1.161 -0.9398 -2.7169 -0.5905
  900SOL     OW 2698   1.014   2.425   2.352 -0.1153 -0.7087 -0.2699
  900SOL    HW1 2699   0.941   2.473   2.301  0.5108 -3.6569 -0.0435
  900SOL    HW2 2700   0.990   2.414   2.448 -1.7273 -3.6275 -0.0716
  901SOL     OW 2701   1.902   2.430   1.370  0.2353  0.0315  0.0931
  901SOL    HW1 2702   1.882   2.442   1.271 -0.5815 -1.3543 -2.2201
  901SOL    HW2 2703   1.999   2.415   1.397  0.3993  1.5330  2.3658
  902SOL     OW 2704   2.578   1.633   1.466  0.3066  0.2281  0.3471
  902SOL    HW1 2705   2.632   1.633   1.554 -1.4861 -0.1977 -1.1825
  902SOL    HW2 2706   2.637   1.598   1.385 -0.3588 -1.7595 -1.3762
  903SOL     OW 2707   0.276   2.380   1.995 -0.1043 -0.8824 -0.6522
  903SOL    HW1 2708   0.189   2.327   2.003  1.1035  2.5785  0.1145
  903SOL    HW2 2709   0.261   2.459   1.923 -0.4270  0.5240 -0.6966
  904SOL     OW 2710   1.969   0.831   2.542 -0.1074  0.6069  1.0851
  904SOL    HW1 2711   1.958   0.746   2.600  2.3779 -3.0555 -1.5319
  904SOL    HW2 2712   1.959   0.810   2.441 -0.5912  1.5693  2.9110
  905SOL     OW 2713   2.748   0.008   2.613 -0.5201 -0.2372  0.4426
  905SOL    HW1 2714   2.835  -0.045   2.649  0.1740 -2.9953  2.6774
  905SOL    HW2 2715   2.768   0.104   2.583 -0.2639 -0.9344 -0.4167
  906SOL     OW 2716   0.158   1.767   1.883 -0.5524 -0.1435  0.8343
  906SOL    HW1 2717   0.089   1.772   1.807  1.2453 -0.3046 -0.0820
  906SOL    HW2 2718   0.233   1.840   1.879 -0.1634 -0.8863  2.0104
  907SOL     OW 2719   0.162   2.475   0.997 -0.1471 -0.2712 -0.1635
  907SOL    HW1 2720   0.252   2.529   0.998 -0.0800  0.1883 -0.7882
  907SOL    HW2 2721   0.120   2.474   0.899  2.8161 -0.9360 -1.0023
  908SOL     OW 2722   2.639   2.932   0.431 -0.2457 -0.1333  0.7560
  908SOL    HW1 2723   2.631   2.954   0.326 -2.6242 -2.0562 -3.7193
  908SOL    HW2 2724   2.621   2.833   0.456 -0.3824 -1.2507  0.8156
  909SOL     OW 2725   0.822   0.899   2.658 -0.1253 -0.1518  0.0167
  909SOL    HW1 2726   0.770   0.813   2.640  0.5474  1.4144 -3.1996
  909SOL    HW2 2727   0.881   0.926   2.581  0.8645 -0.6665  0.5780
  910SOL     OW 2728   1.750   1.799   2.018 -0.3449 -0.1363 -0.3807
  910SOL    HW1 2729   1.811   1.838   1.944 -1.6455  1.4308  0.4327
  910SOL    HW2 2730   1.669   1.859   2.046 -1.0432 -0.2885  0.3294
  911SOL     OW 2731   1.758   3.028   1.615  0.2321 -0.0599 -0.1640
  911SOL    HW1 2732   1.852   3.028   1.573 -1.8004  0.4892  1.1120
  911SOL    HW2 2733   1.734   2.956   1.687 -1.3767  0.9200 -1.6914
  912SOL     OW 2734   2.833   0.956   0.765 -0.3786  0.5238 -0.1097
  912SOL    HW1 2735   2.884   0.946   0.856 -0.1876  0.0148  0.4588
  912SOL    HW2 2736   2.783   1.046   0.755  1.3178  1.6749 -2.1493
  913SOL     OW 2737   2.529   1.286   1.546 -0.0295 -0.0300  0.3254
  913SOL    HW1 2738   2.538   1.186   1.540 -0.9995  0.7118 -1.4585
  913SOL    HW2 2739   2.597   1.332   1.475  1.4487  0.2905 -0.2041
  914SOL     OW 2740   2.836   0.523   1.231  0.0006  0.1115  0.1558
  914SOL    HW1 2741   2.794   0.431   1.232  2.0728  2.0177 -3.2013
  914SOL    HW2 2742   2.806   0.592   1.302  1.0223 -1.3595  0.2836
  915SOL     OW 2743   1.222   0.796   0.999  0.3974 -0.0705 -0.1322
  915SOL    HW1 2744   1.284   0.753   1.073 -0.3503 -0.5624  0.1970
  915SOL    HW2 2745   1.139   0.843   1.041  2.6196  0.6465  0.2981
  916SOL     OW 2746   0.556   0.038   0.642 -0.1665  0.3680 -0.1115
  916SOL    HW1 2747   0.572   0.103   0.723  0.7151  2.3900 -1.3579
  916SOL    HW2 2748   0.572   0.078   0.545  0.8776 -3.2389 -0.6172
  917SOL     OW 2749   2.742   2.624   1.947 -0.4385 -0.1271 -0.3054
  917SOL    HW1 2750   2.658   2.683   1.934  1.0218 -1.0063 -1.3379
  917SOL    HW2 2751   2.820   2.691   1.958  0.9096  2.1875  1.6188
  918SOL     OW 2752   0.970   2.176   3.026 -0.3690  0.2795 -0.5571
  918SOL    HW1 2753   0.919   2.200   3.113  2.7376  0.1910 -1.5653
  918SOL    HW2 2754   1.021   2.086   3.033 -2.3871  0.0022 -0.2333
  919SOL     OW 2755   0.951   1.606   2.805 -0.0366  0.0842  0.7554
  919SOL    HW1 2756   0.955   1.683   2.736 -1.0540  1.8763 -0.6511
  919SOL    HW2 2757   0.900   1.525   2.766 -1.1520 -1.2311 -0.3217
  920SOL     OW 2758   1.258   2.065   2.502  0.4625  0.0989  0.3646
  920SOL    HW1 2759   1.192   2.095   2.429  2.2323 -3.5346  0.2187
  920SOL    HW2 2760   1.269   1.962   2.495 -1.6241  2.3795 -2.0813
  921SOL     OW 2761   1.068   0.090   2.567 -0.6532  1.0401 -0.0066
  921SOL    HW1 2762   1.091   0.091   2.461  2.3869  2.9968 -0.7187
  921SOL    HW2 2763   0.990   0.033   2.598 -0.6067  0.4981  0.3480
  922SOL     OW 2764   2.210   2.372   2.772  0.1006  0.3907 -0.1934
  922SOL    HW1 2765   2.178   2.275   2.766 -0.4808  1.2606 -2.8210
  922SOL    HW2 2766   2.143   2.430   2.721 -0.8173  0.3980  1.4513
  923SOL     OW 2767   1.234   2.663   0.300 -0.9116 -0.3206  0.0867
  923SOL    HW1 2768   1.304   2.700   0.364 -3.1394 -1.0072  0.6106
  923SOL    HW2 2769   1.255   2.561   0.278  0.6987 -0.3030  0.4018
  924SOL     OW 2770   2.889   1.582   0.089 -0.1356  0.1249  0.2849
  924SOL    HW1 2771   2.800   1.599   0.041 -0.0064  2.2936  0.7275
  924SOL    HW2 2772   2.962   1.568   0.020  0.6151  1.4029 -0.3635
  925SOL     OW 2773   0.026   2.831   1.641 -0.0727 -0.3387  1.1613
  925SOL    HW1 2774  -0.065   2.883   1.657 -0.4643  0.3170  0.3467
  925SOL    HW2 2775   0.066   2.845   1.547 -0.4285 -1.2770  0.6135
  926SOL     OW 2776   1.369   2.923   1.318  0.0442  0.3596  0.1203
  926SOL    HW1 2777   1.412   2.889   1.233  1.2077  0.7654  1.3897
  926SOL    HW2 2778   1.412   3.007   1.362  2.7723  0.3381 -0.4224
  927SOL     OW 2779   0.276   2.546   1.785  0.1309 -0.1381  0.3960
  927SOL    HW1 2780   0.249   2.486   1.705 -0.7846 -2.5274  0.9577
  927SOL    HW2 2781   0.267   2.649   1.769 -2.5353 -1.1307  0.8583
  928SOL     OW 2782   1.571   1.984   2.144  0.5583 -0.8968  0.0626
  928SOL    HW1 2783   1.628   2.064   2.106  2.1589  1.5238 -2.1264
  928SOL    HW2 2784   1.474   1.967   2.107 -1.7196 -0.4109 -0.2113
  929SOL     OW 2785   2.456   2.464   2.854  0.2713 -0.4497 -0.3731
  929SOL    HW1 2786   2.359   2.426   2.854 -0.0754  0.3190  0.1338
  929SOL    HW2 2787   2.474   2.472   2.759 -1.2258  1.2303  1.5174
  930SOL     OW 2788   2.206   1.982   1.075  0.1596 -0.5630 -0.2193
  930SOL    HW1 2789   2.208   1.971   1.181 -2.1103  2.5115  3.1077
  930SOL    HW2 2790   2.238   2.078   1.047  1.5595  2.5512  1.0701
  931SOL     OW 2791   0.542   1.720   2.620  0.4316 -0.1758 -0.0204
  931SOL    HW1 2792   0.627   1.725   2.677  1.1850  3.0545 -2.4170
  931SOL    HW2 2793   0.523   1.628   2.578 -3.0363  1.5719 -1.2127
  932SOL     OW 2794   0.476   0.109   2.931  0.5491  0.3977  0.1349
  932SOL    HW1 2795   0.577   0.127   2.917 -1.5463 -0.2588 -0.1883
  932SOL    HW2 2796   0.463   0.015   2.978 -2.5606 -0.8837  1.3701
  933SOL     OW 2797   1.040   0.806   2.984  0.0708  0.2484 -0.1184
  933SOL    HW1 2798   1.077   0.801   3.079 -1.1887 -1.0138 -1.9913
  933SOL    HW2 2799   0.989   0.891   2.958 -0.7705 -1.6467  0.6334
  934SOL     OW 2800   0.861   3.042   2.724 -0.6714 -0.1187 -0.3145
  934SOL    HW1 2801   0.868   2.981   2.641 -0.3524 -0.1868  0.4237
  934SOL    HW2 2802   0.899   3.002   2.815 -0.6595 -1.7809  0.4498
  935SOL     OW 2803   3.085   0.503   0.800  0.1344 -0.3147 -0.0178
  935SOL    HW1 2804   3.111   0.443   0.718 -1.9351  0.0980 -2.2561
  935SOL    HW2 2805   2.987   0.548   0.784 -0.3434  1.1798 -1.0313
  936SOL     OW 2806   1.081   2.912   0.170 -0.0424  0.0396  0.1824
  936SOL    HW1 2807   1.120   2.935   0.078  1.3148  0.2814  0.0715
  936SOL    HW2 2808   1.135   2.838   0.215 -2.6666  3.6852  1.4263
  937SOL     OW 2809   1.925   2.605   2.091  0.1270  0.0306  0.2887
  937SOL    HW1 2810   1.828   2.633   2.118  0.6375 -1.9956  1.7822
  937SOL    HW2 2811   1.955   2.637   1.995  0.8160  0.0284 -2.1303
  938SOL     OW 2812   2.798   2.154   1.495  0.4430  0.1759 -0.6296
  938SOL    HW1 2813   2.745   2.230   1.537  1.3173  0.6909  1.9512
  938SOL    HW2 2814   2.855   2.101   1.566  0.8805 -1.7964  0.6653
  939SOL     OW 2815   2.814   1.109   2.491 -0.3671 -0.5033  0.3510
  939SOL    HW1 2816   2.907   1.128   2.450 -1.7764 -2.4748  1.6986
  939SOL    HW2 2817   2.805   1.156   2.583  0.6500 -0.4737 -0.1443
  940SOL     OW 2818   1.051   0.471   2.639  0.1214  0.0579  0.1192
  940SOL    HW1 2819   1.132   0.405   2.626  0.3254  4.6453 -1.7541
  940SOL    HW2 2820   0.951   0.436   2.658  0.2898  1.3105 -0.1436
  941SOL     OW 2821   0.035   2.824   2.227  0.7054 -0.1099 -0.0997
  941SOL    HW1 2822   0.037   2.723   2.221  0.7867  2.8209  1.8903
  941SOL    HW2 2823   0.087   2.859   2.303 -0.2483  1.0148  1.1990
  942SOL     OW 2824   0.050   0.077   2.521 -0.2860 -0.0860 -0.2302
  942SOL    HW1 2825   0.092   0.060   2.615 -0.6443  0.7189 -0.9350
  942SOL    HW2 2826   0.056   0.180   2.491  0.2663  2.1088  1.0046
  943SOL     OW 2827   2.091   1.623   2.424 -0.3584 -1.2055 -0.1176
  943SOL    HW1 2828   2.133   1.559   2.350  2.5442 -1.0747 -0.9566
  943SOL    HW2 2829   2.095   1.595   2.529 -0.8340  1.7197  1.1504
  944SOL     OW 2830   2.176   2.390   1.479 -0.0352  0.3370  0.2197
  944SOL    HW1 2831   2.261   2.428   1.532 -1.2401  2.7046 -3.4531
  944SOL    HW2 2832   2.113   2.337   1.540  0.9977  2.4968  1.1216
  945SOL     OW 2833   0.609   1.403   0.358 -0.5456  0.2323 -0.2106
  945SOL    HW1 2834   0.602   1.420   0.255 -1.2709 -1.8236  0.9277
  945SOL    HW2 2835   0.660   1.312   0.374 -0.6376  0.9397 -1.0789
  946SOL     OW 2836   0.417   0.960   2.519  0.1981  0.6775  0.6298
  946SOL    HW1 2837   0.337   0.920   2.460 -2.1768  0.2443  1.1110
  946SOL    HW2 2838   0.405   1.056   2.558  4.3083  3.4783  1.9440
  947SOL     OW 2839   1.474   0.540   0.098 -0.0682 -0.4099  0.1600
  947SOL    HW1 2840   1.434   0.580   0.014  1.1840 -1.3356  1.1970
  947SOL    HW2 2841   1.398   0.511   0.167 -2.3038 -1.0595  1.0123
  948SOL     OW 2842   1.975   3.083   2.213 -0.3752  0.1613  0.2673
  948SOL    HW1 2843   1.947   3.070   2.111  0.7061  1.8787  0.3200
  948SOL    HW2 2844   1.964   2.989   2.263 -0.9362 -3.3897 -0.9874
  949SOL     OW 2845   0.625   2.530   0.494 -0.1083  0.3975 -0.0455
  949SOL    HW1 2846   0.632   2.627   0.459  2.6039 -2.0711 -0.9659
  949SOL    HW2 2847   0.680   2.509   0.578 -0.9499  1.4383  0.1394
  950SOL     OW 2848   0.307   2.141   3.096  0.3988 -0.3927 -0.1587
  950SOL    HW1 2849   0.231   2.210   3.072 -1.8913 -0.1172  3.0032
  950SOL    HW2 2850   0.300   2.046   3.050 -0.6455 -1.8528 -0.3976
  951SOL     OW 2851   1.184   2.858   2.726  0.1761 -1.0691  0.3545
  951SOL    HW1 2852   1.184   2.851   2.622  0.5576  2.1522  0.1311
  951SOL    HW2 2853   1.279   2.881   2.768 -0.0078  1.5079  0.1410
  952SOL     OW 2854   0.088   1.628   0.474  0.5076  0.1872  0.3814
  952SOL    HW1 2855   0.166   1.691   0.467 -0.0904  0.1756 -1.3383
  952SOL    HW2 2856   0.057   1.602   0.566  3.7625  1.4630 -2.2622
  953SOL     OW 2857   2.570   1.756   0.185  0.4066  0.2406  0.2017
  953SOL    HW1 2858   2.565   1.655   0.206 -0.4349  0.0672  0.7124
  953SOL    HW2 2859   2.585   1.778   0.083 -4.1261  0.9462  3.8876
  954SOL     OW 2860   2.175   0.590   0.986 -0.3657  0.2877 -0.1202
  954SOL    HW1 2861   2.142   0.613   0.891 -2.0130 -0.6542 -2.0533
  954SOL    HW2 2862   2.271   0.539   0.988 -1.5042  0.4401 -0.4954
  955SOL     OW 2863   0.249   2.652   1.343  0.8970 -0.3144 -0.8510
  955SOL    HW1 2864   0.145   2.642   1.331  0.8233  0.2215 -1.3412
  955SOL    HW2 2865   0.300   2.642   1.257 -0.7086  0.8817 -1.3283
  956SOL     OW 2866   2.771   2.466   2.472  0.1475 -0.1906  0.0689
  956SOL    HW1 2867   2.758   2.366   2.452  0.9152  0.5002  1.2669
  956SOL    HW2 2868   2.801   2.525   2.386  0.8470  1.9472 -4.5359
  957SOL     OW 2869   1.562   2.055   2.698 -0.8293  0.1983 -0.0973
  957SOL    HW1 2870   1.528   1.959   2.715  1.7342 -1.0080 -2.0406
  957SOL    HW2 2871   1.562   2.085   2.602  3.0171  0.9816 -0.3512
  958SOL     OW 2872   2.673   2.345   2.976  0.0177  0.2403  0.0743
  958SOL    HW1 2873   2.585   2.358   2.918 -0.8799  0.2395 -1.0148
  958SOL    HW2 2874   2.668   2.249   3.016 -2.5756  0.5234 -2.3951
  959SOL     OW 2875   0.287   2.763   0.077  0.0217 -0.0873 -0.5843
  959SOL    HW1 2876   0.194   2.724   0.096 -0.7986  0.6340  0.4592
  959SOL    HW2 2877   0.355   2.698   0.113 -0.1149  2.6614 -0.1730
  960SOL     OW 2878   1.989   0.477   1.930  0.1861  0.0383  0.1136
  960SOL    HW1 2879   1.947   0.569   1.909 -1.1392  0.7680  2.0679
  960SOL    HW2 2880   1.960   0.444   2.028  0.3239  0.7418  0.6025
  961SOL     OW 2881   2.574   1.848   1.049 -0.0417  0.0183 -0.1848
  961SOL    HW1 2882   2.540   1.902   0.970  1.8470 -1.9190 -0.4323
  961SOL    HW2 2883   2.536   1.888   1.137  0.2952 -1.6503  0.0505
  962SOL     OW 2884   1.303   0.911   0.027 -0.2521  0.2126 -0.1042
  962SOL    HW1 2885   1.284   0.965  -0.062 -1.9019  0.8414 -0.0127
  962SOL    HW2 2886   1.314   0.963   0.115 -1.0196 -3.3621  1.0330
  963SOL     OW 2887   2.258   2.586   1.875  1.0546 -0.0314  0.4035
  963SOL    HW1 2888   2.276   2.525   1.958  1.9525 -0.8712  1.9061
  963SOL    HW2 2889   2.267   2.689   1.895 -0.7488 -0.1489  2.8229
  964SOL     OW 2890   2.427   0.374   1.659 -0.0656 -0.3436  0.0844
  964SOL    HW1 2891   2.527   0.401   1.683  3.3197 -0.5803 -3.1448
  964SOL    HW2 2892   2.410   0.372   1.557  1.1907  0.5979 -0.2783
  965SOL     OW 2893   2.583   3.046   0.183  0.7371 -0.9841 -0.6652
  965SOL    HW1 2894   2.654   2.980   0.138  2.8159 -1.0223  3.9529
  965SOL    HW2 2895   2.496   3.066   0.128 -3.4697  1.9320 -2.5293
  966SOL     OW 2896   2.508   2.518   2.256  0.3525  0.7611 -0.0486
  966SOL    HW1 2897   2.413   2.485   2.288 -1.1191  1.7045 -1.0097
  966SOL    HW2 2898   2.514   2.619   2.247  2.4554  1.5943 -3.2773
  967SOL     OW 2899   2.754   2.792   2.490 -0.7057 -0.0973 -0.5517
  967SOL    HW1 2900   2.788   2.733   2.411 -2.8632 -0.5797  0.7954
  967SOL    HW2 2901   2.802   2.886   2.502  1.6398  1.9779 -0.2661
  968SOL     OW 2902   1.956   1.065   2.685  0.8351 -0.0750  0.2383
  968SOL    HW1 2903   1.937   1.144   2.621  0.7958 -4.3644  3.1414
  968SOL    HW2 2904   1.928   0.973   2.637 -0.2345  1.4176 -2.2450
  969SOL     OW 2905   2.732   2.371   1.097  0.1710 -0.9203  0.8491
  969SOL    HW1 2906   2.666   2.368   1.015  2.8628 -0.8757 -0.8620
  969SOL    HW2 2907   2.790   2.285   1.106  2.6254  0.8913 -1.6799
  970SOL     OW 2908   1.071   2.135   1.766  0.5597  0.7815  0.2454
  970SOL    HW1 2909   0.968   2.135   1.749  2.1691  0.0034 -0.0859
  970SOL    HW2 2910   1.097   2.173   1.858  0.4492 -1.0517 -1.2595
  971SOL     OW 2911   2.812   2.092   1.913  0.5611 -1.1197  0.2404
  971SOL    HW1 2912   2.830   2.185   1.959 -1.1462 -1.5302  1.4837
  971SOL    HW2 2913   2.873   2.068   1.831 -1.4856 -0.0563 -1.1694
  972SOL     OW 2914   2.074   2.396   0.238  0.4099  0.3604  0.2270
  972SOL    HW1 2915   2.042   2.312   0.184 -2.2461 -1.3813 -0.8781
  972SOL    HW2 2916   2.091   2.374   0.338  2.5224  0.7112  1.4622
  973SOL     OW 2917   1.284   1.069   1.991 -0.8596  0.0455  0.1916
  973SOL    HW1 2918   1.221   1.050   1.914  0.0859  2.3103 -1.1782
  973SOL    HW2 2919   1.282   1.166   2.011 -1.6237 -0.2436 -2.0860
  974SOL     OW 2920   1.618   0.593   1.925  0.6220 -0.3835 -0.2959
  974SOL    HW1 2921   1.708   0.639   1.888  1.3021  1.1849 -0.7854
  974SOL    HW2 2922   1.549   0.664   1.958 -3.0613 -0.5816 -1.1575
  975SOL     OW 2923   2.363   3.048   0.029 -0.5459  0.3111 -0.0680
  975SOL    HW1 2924   2.298   2.969   0.013  0.3070  2.3894 -0.4601
  975SOL    HW2 2925   2.402   3.076  -0.060  0.4670  0.1445 -1.1282
  976SOL     OW 2926   1.947   2.840   2.346  0.3059  0.0895  0.3525
  976SOL    HW1 2927   1.877   2.784   2.291  0.7905 -1.6100 -0.7856
  976SOL    HW2 2928   1.947   2.819   2.448 -0.7320  1.5267 -4.3700
  977SOL     OW 2929   0.466   0.612   1.026  0.5377  0.5105  0.4125
  977SOL    HW1 2930   0.374   0.631   0.993 -0.6736 -1.1730  1.3068
  977SOL    HW2 2931   0.536   0.567   0.955  1.2354 -0.8988 -0.6873
   3.10000   3.10000   3.10000
