1000 SPC/Fw water molecules t=   1.35000 step= 1350
 2931
    1SOL     OW    1   2.526   0.329   2.641 -0.5048 -1.0129  0.5080
    1SOL    HW1    2   2.528   0.228   2.637  0.0192  2.8095  1.4128
    1SOL    HW2    3   2.581   0.363   2.725 -1.1980 -0.8133  2.1095
    2SOL     OW    4   2.760   2.989   1.376 -0.4173 -0.2872  0.3505
    2SOL    HW1    5   2.827   3.039   1.306  3.7273  1.5661  0.1877
    2SOL    HW2    6   2.723   3.056   1.449 -0.0681 -0.1929  0.6065
    3SOL     OW    7   2.644   2.579   0.433  0.4671  0.0108  0.1257
    3SOL    HW1    8   2.591   2.493   0.453  0.5928  0.1957 -0.1380
    3SOL    HW2    9   2.692   2.612   0.517 -0.2704  0.2797  0.3323
    4SOL     OW   10   1.225   1.496   2.418 -0.0394 -0.1753  0.2339
    4SOL    HW1   11   1.189   1.526   2.324  0.5756 -0.1366 -1.3237
    4SOL    HW2   12   1.291   1.411   2.410  1.1238 -0.8529 -0.9440
    5SOL     OW   13   1.171   1.562   2.903 -0.1779 -0.3798 -0.0736
    5SOL    HW1   14   1.217   1.644   2.952 -0.6261 -0.2300  0.4639
    5SOL    HW2   15   1.069   1.566   2.895  1.5718  1.6339 -2.8879
    6SOL     OW   16   0.257   1.850   3.012  0.1463 -0.1485 -0.0790
    6SOL    HW1   17   0.151   1.846   3.033  2.2377 -2.8885  1.7189
    6SOL    HW2   18   0.308   1.789   3.079 -1.0902 -3.1657 -0.7112
    7SOL     OW   19   2.507   0.891   1.052 -0.4393  0.8226  0.1421
    7SOL    HW1   20   2.430   0.832   1.088 -1.6186  1.6011 -0.3092
    7SOL    HW2   21   2.572   0.842   0.989  0.3291  0.9665 -1.5134
    8SOL     OW   22   0.399   0.630   1.495 -0.8899  1.1213  0.0920
    8SOL    HW1   23   0.486   0.574   1.496 -0.7077  1.5620 -0.2522
    8SOL    HW2   24   0.383   0.670   1.405  0.6497  0.1382  1.2220
    9SOL     OW   25   1.173   0.848   2.420 -0.8122 -0.3303  0.3587
    9SOL    HW1   26   1.214   0.880   2.327  0.1383  1.6632  0.3335
    9SOL    HW2   27   1.123   0.759   2.411  0.6772  0.9334 -1.4281
   10SOL     OW   28   0.681   1.381   1.299  0.2884 -0.2424  0.0694
   10SOL    HW1   29   0.581   1.382   1.272 -3.0644 -0.1244 -0.0430
   10SOL    HW2   30   0.720   1.473   1.299  0.5711 -3.2022  0.8946
   11SOL     OW   31   2.314   2.821   0.821 -0.4727  0.1253  0.2753
   11SOL    HW1   32   2.286   2.797   0.918  2.4263 -1.7886 -0.9466
   11SOL    HW2   33   2.417   2.820   0.806  3.8684  0.3764 -0.7568
   12SOL     OW   34   1.477   0.855   0.431  0.5556  0.5556 -0.1038
   12SOL    HW1   35   1.452   0.929   0.366 -0.1580  1.6892  1.8670
   12SOL    HW2   36   1.525   0.774   0.385 -0.8537  0.6027  0.1475
   13SOL     OW   37   2.412   0.738   1.758  0.0075 -0.3231  0.2290
   13SOL    HW1   38   2.359   0.663   1.804  1.1254  1.5004 -1.5340
   13SOL    HW2   39   2.445   0.703   1.670 -1.4653  0.0795  1.4227
   14SOL     OW   40   1.937   0.027   0.628  0.1532 -0.2934 -0.5739
   14SOL    HW1   41   1.841   0.051   0.593  1.3191  2.0604 -0.2899
   14SOL    HW2   42   1.933  -0.036   0.710  1.7176  1.5878  0.3651
   15SOL     OW   43   1.908   2.105   2.640  0.1155  0.1172 -0.5852
   15SOL    HW1   44   1.872   2.188   2.694  0.5397  0.3988 -0.2370
   15SOL    HW2   45   1.839   2.031   2.623 -0.7294 -0.6036  2.3230
   16SOL     OW   46   1.597   1.704   2.989 -0.2093  0.1832 -0.2117
   16SOL    HW1   47   1.583   1.607   3.024  0.6606  0.7323  2.8317
   16SOL    HW2   48   1.681   1.756   3.026  1.1467  2.3232  1.6447
   17SOL     OW   49   0.121   0.420   0.175 -0.5692 -0.1260 -0.1427
   17SOL    HW1   50   0.209   0.458   0.146  1.4088 -1.6720 -0.2330
   17SOL    HW2   51   0.041   0.441   0.113  0.2168 -1.0420 -2.5674
   18SOL     OW   52   0.933   2.990   2.167 -0.2046  0.4462 -0.2813
   18SOL    HW1   53   0.883   2.909   2.210 -2.9301 -0.2622  0.6229
   18SOL    HW2   54   0.985   2.972   2.081 -0.7411 -0.2408  2.1824
   19SOL     OW   55   0.534   0.843   1.892  0.7225  0.1992  0.2554
   19SOL    HW1   56   0.583   0.776   1.951 -1.1252 -0.1201 -0.3653
   19SOL    HW2   57   0.579   0.936   1.887  1.7503  0.8845 -1.2137
   20SOL     OW   58   0.219   2.828   0.860  0.4719  0.3373  0.0304
   20SOL    HW1   59   0.142   2.888   0.829  0.3422 -0.5665 -1.4216
   20SOL    HW2   60   0.234   2.744   0.798 -2.6505 -3.3454  0.5823
   21SOL     OW   61   2.762   0.254   1.953  0.4631  0.1120  0.3139
   21SOL    HW1   62   2.706   0.186   1.896  1.0090 -1.7206 -1.8590
   21SOL    HW2   63   2.840   0.208   2.000 -0.7829  1.7975  0.8036
   22SOL     OW   64   2.357   0.200   0.121  0.2652  0.2174  0.1264
   22SOL    HW1   65   2.352   0.102   0.091  2.6513 -3.4800 -0.4469
   22SOL    HW2   66   2.325   0.273   0.056  0.0081  0.0421 -0.5899
   23SOL     OW   67   2.809   0.558   0.661  0.3914  0.5099  0.0425
   23SOL    HW1   68   2.823   0.465   0.617  0.7587 -0.7150  1.4642
   23SOL    HW2   69   2.780   0.640   0.601 -0.7638  0.8567  0.0776
   24SOL     OW   70   0.242   1.872   0.467 -0.1996 -0.4142 -0.5710
   24SOL    HW1   71   0.190   1.909   0.385 -2.4857  0.5281 -2.7879
   24SOL    HW2   72   0.342   1.889   0.446 -1.2374  2.0024 -0.5312
   25SOL     OW   73   2.216   0.633   0.212 -0.2042  0.0141  0.4234
   25SOL    HW1   74   2.182   0.651   0.118  0.8591  1.6862  1.3701
   25SOL    HW2   75   2.238   0.532   0.232 -0.0127  0.3033  0.9479
   26SOL     OW   76   2.451   2.146   2.100 -0.1421 -0.7675  0.0169
   26SOL    HW1   77   2.534   2.206   2.111 -0.3215  0.3820 -0.3919
   26SOL    HW2   78   2.467   2.071   2.030 -0.8591 -0.0247 -1.8762
   27SOL     OW   79   0.625   2.957   0.255 -0.7557  0.4224 -0.5214
   27SOL    HW1   80   0.721   2.993   0.235  1.0932  1.6242  2.4390
   27SOL    HW2   81   0.568   2.939   0.173  0.1548  1.2254  0.6265
   28SOL     OW   82   1.574   0.113   0.334  0.4023 -0.2991  0.0857
   28SOL    HW1   83   1.638   0.069   0.265 -0.5934 -0.2265  2.3176
   28SOL    HW2   84   1.595   0.215   0.348 -0.1848 -0.4087  0.8004
   29SOL     OW   85   1.954   0.565   0.270  0.3653  0.3201 -0.0024
   29SOL    HW1   86   1.881   0.606   0.327 -0.0836 -0.3940 -1.2025
   29SOL    HW2   87   2.051   0.594   0.287  0.5832 -3.6585 -0.5556
   30SOL     OW   88   0.176   2.086   0.871 -0.6894 -0.1174  0.0374
   30SOL    HW1   89   0.161   2.017   0.793  2.2021  1.0052  0.5761
   30SOL    HW2   90   0.086   2.122   0.912 -2.8583 -2.7940 -3.4118
   31SOL     OW   91   2.178   0.100   2.420  0.3412 -1.0319 -0.0852
   31SOL    HW1   92   2.145   0.097   2.521 -0.7855 -0.6757 -2.1075
   31SOL    HW2   93   2.107   0.062   2.352  1.0108 -0.2410 -1.8889
   32SOL     OW   94   2.955   0.010   0.261 -0.4685 -0.6163  0.1894
   32SOL    HW1   95   2.938  -0.056   0.335  0.6993 -0.4105  0.2997
   32SOL    HW2   96   3.048   0.058   0.276  1.9711 -0.7396  1.0922
   33SOL     OW   97   0.891   0.269   0.611 -0.4703 -0.9197  0.4370
   33SOL    HW1   98   0.864   0.201   0.541 -0.3244  0.4492 -1.8852
   33SOL    HW2   99   0.991   0.297   0.596 -2.5508  0.2804  0.1499
   34SOL     OW  100   0.302   2.735   1.095 -0.4957 -0.2288  0.5685
   34SOL    HW1  101   0.261   2.776   1.009  0.6348  0.0414  0.1733
   34SOL    HW2  102   0.401   2.760   1.113 -0.5071 -1.7924  1.1548
   35SOL     OW  103   0.041   0.113   1.877 -0.7670  0.2220 -0.0730
   35SOL    HW1  104   0.076   0.016   1.895 -2.7223 -3.3222 -0.6499
   35SOL    HW2  105   0.014   0.118   1.774 -2.1275  0.4332 -1.3039
   36SOL     OW  106   1.819   1.213   1.548 -0.2368 -0.9462 -0.4375
   36SOL    HW1  107   1.895   1.145   1.566  4.0800  3.1565 -2.8405
   36SOL    HW2  108   1.846   1.277   1.468 -0.1509  0.2089 -0.1943
   37SOL     OW  109   1.181   0.204   0.969 -0.3566 -0.2620  0.3662
   37SOL    HW1  110   1.217   0.294   1.000 -2.1560 -2.4368  0.2092
   37SOL    HW2  111   1.256   0.133   0.967 -2.1279 -0.4749  1.0097
   38SOL     OW  112   1.141   2.888   2.367 -0.0252  0.1605  1.0419
   38SOL    HW1  113   1.085   2.838   2.432 -0.2990 -0.0695 -0.5960
   38SOL    HW2  114   1.119   2.990   2.348  2.8110  0.0439 -1.2566
   39SOL     OW  115   2.382   1.360   3.028  0.6785  0.2251  0.0947
   39SOL    HW1  116   2.454   1.285   3.027  2.4543 -1.4051  0.0996
   39SOL    HW2  117   2.352   1.393   3.122 -0.2136  0.5941  0.4241
   40SOL     OW  118   2.015   2.473   2.615  0.1342  0.5982  0.2448
   40SOL    HW1  119   1.992   2.576   2.604  0.8958 -1.5923  0.2661
   40SOL    HW2  120   1.999   2.418   2.528 -0.3429 -2.5968 -0.0609
   41SOL     OW  121   3.038   0.654   2.792 -0.2313 -0.1078 -0.1566
   41SOL    HW1  122   2.944   0.688   2.809 -1.9634  0.7068  1.5321
   41SOL    HW2  123   3.039   0.553   2.778 -0.7933 -0.4364  0.1560
   42SOL     OW  124   1.764   1.780   0.541 -0.2737 -0.1126 -0.1401
   42SOL    HW1  125   1.704   1.700   0.566  2.2531 -2.2263  0.0877
   42SOL    HW2  126   1.787   1.784   0.436 -0.7613 -0.8685  0.3464
   43SOL     OW  127   0.485   1.677   1.261  0.7521  0.3424 -0.0761
   43SOL    HW1  128   0.474   1.595   1.198  3.3367  0.6300  0.3171
   43SOL    HW2  129   0.405   1.684   1.334 -1.3739 -1.2589  1.4150
   44SOL     OW  130   1.674   2.419   3.017  0.1544  0.4307 -0.3300
   44SOL    HW1  131   1.575   2.442   3.019 -0.8453 -0.6441  1.2447
   44SOL    HW2  132   1.725   2.425   2.930 -1.9284  0.2062 -1.2756
   45SOL     OW  133   0.381   1.908   2.570 -0.2810  0.3736 -0.1335
   45SOL    HW1  134   0.353   1.883   2.476  0.5877  0.9700  0.5025
   45SOL    HW2  135   0.442   1.838   2.621  0.1270 -1.6375 -0.7399
   46SOL     OW  136   1.304   0.651   0.175  0.0284  0.2609  1.0160
   46SOL    HW1  137   1.289   0.737   0.118 -0.1620 -0.5416  0.6401
   46SOL    HW2  138   1.227   0.578   0.166 -2.0346 -1.1418  0.9064
   47SOL     OW  139   0.190   2.486   1.595 -0.1296 -0.4770 -0.2241
   47SOL    HW1  140   0.132   2.405   1.571  1.4161  1.0233 -1.2674
   47SOL    HW2  141   0.247   2.525   1.522  0.5443 -2.1237  0.7560
   48SOL     OW  142   2.634   0.605   0.145  0.3973 -0.3562  0.2325
   48SOL    HW1  143   2.621   0.598   0.247  2.1813 -0.4704  0.5624
   48SOL    HW2  144   2.725   0.644   0.127  2.3620 -0.4310 -0.6122
   49SOL     OW  145   0.307   0.758   1.733 -0.7768  0.0490  0.6041
   49SOL    HW1  146   0.386   0.796   1.787 -1.1132  0.7544 -0.2752
   49SOL    HW2  147   0.351   0.705   1.653  2.2129  0.7378  0.6364
   50SOL     OW  148   1.722   1.141   0.295  0.3829  0.1413 -0.5284
   50SOL    HW1  149   1.748   1.046   0.253 -0.4479 -1.0586 -2.9192
   50SOL    HW2  150   1.669   1.132   0.385 -2.2508 -1.0542 -0.1256
   51SOL     OW  151   3.024   1.756   0.266  0.2559  0.4888  0.0272
   51SOL    HW1  152   2.966   1.697   0.201 -0.0085  1.9253 -0.7813
   51SOL    HW2  153   3.096   1.705   0.319  0.9768 -1.0894 -0.5218
   52SOL     OW  154   0.819   2.147   0.644 -0.1319 -0.4061  0.3090
   52SOL    HW1  155   0.713   2.144   0.634 -0.6477 -1.0750 -0.1957
   52SOL    HW2  156   0.858   2.066   0.689 -0.2213  1.1354  1.1195
   53SOL     OW  157   0.172   0.441   1.581 -0.3242 -0.6755  0.6434
   53SOL    HW1  158   0.260   0.496   1.589  0.2744 -1.8209 -0.9122
   53SOL    HW2  159   0.112   0.479   1.499 -0.4488 -0.0888 -1.4684
   54SOL     OW  160   1.792   0.498   3.059 -0.2818 -0.0082  0.1365
   54SOL    HW1  161   1.836   0.432   3.123 -2.5418 -1.1722  1.8099
   54SOL    HW2  162   1.700   0.523   3.098  0.2091 -1.2041 -0.9957
   55SOL     OW  163   0.739   2.892   0.706  0.8094  0.2593 -0.2369
   55SOL    HW1  164   0.689   2.981   0.697  0.8716 -1.7287  0.5367
   55SOL    HW2  165   0.830   2.893   0.661 -1.8437 -1.7889 -0.6026
   56SOL     OW  166   0.574   1.617   0.012 -0.0820 -0.2412 -0.6946
   56SOL    HW1  167   0.504   1.663   0.071  0.1792 -0.6746 -2.1782
   56SOL    HW2  168   0.542   1.526  -0.025 -1.8688 -0.9034  1.0534
   57SOL     OW  169   1.763   2.498   2.412  0.5603 -0.0934 -0.0008
   57SOL    HW1  170   1.803   2.406   2.391  1.6233 -0.4934 -1.4242
   57SOL    HW2  171   1.677   2.498   2.477 -2.4357 -0.9814  0.7955
   58SOL     OW  172   0.649   0.269   1.132 -0.0484  0.1225  0.1370
   58SOL    HW1  173   0.557   0.292   1.178  2.2129  2.1935 -0.6192
   58SOL    HW2  174   0.680   0.170   1.140  0.9673 -0.0966 -2.3325
   59SOL     OW  175   0.420   2.409   2.731  0.3466  0.3689 -0.0618
   59SOL    HW1  176   0.437   2.318   2.680  4.2728 -4.3345  0.4487
   59SOL    HW2  177   0.491   2.426   2.805 -1.0313  0.6788 -0.5373
   60SOL     OW  178   2.293   2.131   2.339 -0.7173 -0.1787  0.0356
   60SOL    HW1  179   2.352   2.145   2.257 -0.7600 -0.0745 -1.3282
   60SOL    HW2  180   2.332   2.167   2.428 -0.0174  0.9224  0.3838
   61SOL     OW  181   1.221   0.640   0.460  0.2364  0.4063  0.6838
   61SOL    HW1  182   1.127   0.676   0.484 -0.9328 -0.1425  0.9412
   61SOL    HW2  183   1.254   0.651   0.368  0.7953 -2.4867  2.1616
   62SOL     OW  184   2.715   1.728   2.791 -0.3780  0.5190 -0.6447
   62SOL    HW1  185   2.661   1.703   2.707  1.2986 -4.1446  0.6686
   62SOL    HW2  186   2.816   1.699   2.787  2.1267 -0.3807 -0.4106
   63SOL     OW  187   0.556   0.897   0.190 -0.0949  0.3220 -0.0299
   63SOL    HW1  188   0.600   0.973   0.134 -1.0268  0.8821 -0.8709
   63SOL    HW2  189   0.605   0.872   0.278  1.9471  0.2835  0.1689
   64SOL     OW  190   3.046   0.546   2.363 -0.3717  0.9151 -0.1856
   64SOL    HW1  191   2.973   0.585   2.422 -0.7043  1.2384  1.6340
   64SOL    HW2  192   3.065   0.591   2.275  2.8827 -0.0837 -0.8234
   65SOL     OW  193   0.212   1.450   0.699 -0.2780 -0.1438 -0.2375
   65SOL    HW1  194   0.206   1.524   0.776 -0.6095  0.1966  2.7340
   65SOL    HW2  195   0.253   1.472   0.606 -2.0624 -2.3159  0.5704
   66SOL     OW  196   2.537   0.390   0.527  0.2553  0.3126 -0.1466
   66SOL    HW1  197   2.637   0.378   0.520 -1.6677  0.0634  0.3221
   66SOL    HW2  198   2.491   0.319   0.593  1.8446  1.0631 -0.4499
   67SOL     OW  199   0.642   2.486   1.446  0.0275 -0.4535  0.2367
   67SOL    HW1  200   0.733   2.442   1.474  1.5879 -1.2479  0.9780
   67SOL    HW2  201   0.567   2.419   1.422  3.0205 -1.0932  1.3016
   68SOL     OW  202   0.995   1.066   2.509 -0.0693  0.2690 -0.0529
   68SOL    HW1  203   1.065   0.987   2.497  2.0643  0.4285 -3.4115
   68SOL    HW2  204   0.953   1.112   2.426 -1.4399  2.1310 -1.5363
   69SOL     OW  205   0.759   2.732   2.215  0.2497 -0.1903  0.1308
   69SOL    HW1  206   0.782   2.637   2.178  2.3715  0.8002  0.1118
   69SOL    HW2  207   0.661   2.738   2.243  1.5440  1.0071  0.3457
   70SOL     OW  208   0.448   0.112   2.529 -0.2878 -0.0748 -0.0513
   70SOL    HW1  209   0.365   0.102   2.582  0.8494 -0.8826 -3.6443
   70SOL    HW2  210   0.519   0.039   2.547  2.4136  1.7298 -2.6679
   71SOL     OW  211   1.123   1.791   0.321 -0.6992 -0.2129 -0.6678
   71SOL    HW1  212   1.070   1.715   0.359 -0.8511  1.0545 -1.1892
   71SOL    HW2  213   1.074   1.836   0.237 -1.0345 -0.3821 -2.1808
   72SOL     OW  214   1.820   0.182   2.177 -0.0162 -0.0434 -0.1272
   72SOL    HW1  215   1.871   0.272   2.175 -2.0173 -1.8025  0.1183
   72SOL    HW2  216   1.888   0.108   2.178  1.0270  0.0705  3.0253
   73SOL     OW  217   2.799   2.165   2.375 -0.2642 -0.2768  0.3572
   73SOL    HW1  218   2.784   2.066   2.352  2.0617 -0.1606 -1.9433
   73SOL    HW2  219   2.836   2.180   2.470 -0.4552 -0.0984 -0.1394
   74SOL     OW  220   2.662   2.868   2.181  0.2088 -0.0688  0.7101
   74SOL    HW1  221   2.670   2.817   2.270  0.1496  0.5935 -1.8352
   74SOL    HW2  222   2.749   2.915   2.150  1.0031  1.9708 -2.8252
   75SOL     OW  223   0.961   0.843   1.055  0.4056  0.0592 -0.0654
   75SOL    HW1  224   0.878   0.897   1.019 -0.3589  3.6548  2.6053
   75SOL    HW2  225   0.984   0.871   1.154 -1.9119  1.2035  0.6314
   76SOL     OW  226   1.847   1.236   2.437  0.3184  0.5261  0.0195
   76SOL    HW1  227   1.748   1.259   2.451  1.1661 -0.1478  0.1176
   76SOL    HW2  228   1.919   1.307   2.414  2.4928 -0.5627  0.6433
   77SOL     OW  229   2.924   0.934   1.034 -0.4788  0.3647  0.0155
   77SOL    HW1  230   2.905   0.833   1.014  0.6749  0.3527 -1.0547
   77SOL    HW2  231   2.996   0.940   1.113  1.4929 -2.4319  1.8133
   78SOL     OW  232   2.011   1.394   1.403  0.2945 -0.7598 -0.8041
   78SOL    HW1  233   2.107   1.411   1.437 -0.3038 -0.8396  1.5418
   78SOL    HW2  234   1.978   1.450   1.319 -2.8743  2.5602  1.3802
   79SOL     OW  235   0.661   1.417   0.790  0.4193 -0.4237 -0.1348
   79SOL    HW1  236   0.574   1.386   0.834  0.4529 -0.1040 -3.4752
   79SOL    HW2  237   0.699   1.347   0.721 -2.0039  1.2948  3.4435
   80SOL     OW  238   0.628   0.501   1.505  0.1542 -0.0912 -0.0704
   80SOL    HW1  239   0.698   0.559   1.454 -0.9730 -2.4646 -1.3224
   80SOL    HW2  240   0.606   0.412   1.460 -0.0594  2.1473  1.8478
   81SOL     OW  241   0.995   1.308   2.600  0.0758  0.0992 -0.1782
   81SOL    HW1  242   0.991   1.207   2.582 -1.0072  1.5671  1.4146
   81SOL    HW2  243   0.949   1.362   2.522  0.1850 -2.5943  1.1203
   82SOL     OW  244   1.000   2.852   1.539  0.3860 -0.4242  0.3876
   82SOL    HW1  245   0.993   2.752   1.518  0.8840  1.0453 -0.3481
   82SOL    HW2  246   0.994   2.906   1.452 -0.5899 -3.1118  1.0899
   83SOL     OW  247   2.550   2.376   0.878 -0.4672  0.0345  0.1137
   83SOL    HW1  248   2.470   2.325   0.850  3.5850  2.5148 -0.2495
   83SOL    HW2  249   2.538   2.480   0.869  1.0898  0.8476  1.4194
   84SOL     OW  250   0.728   0.015   2.367  0.4667  0.0139 -0.4894
   84SOL    HW1  251   0.703  -0.053   2.441 -0.9946  1.0763 -1.2926
   84SOL    HW2  252   0.795  -0.022   2.300  1.3261 -0.9456 -0.0372
   85SOL     OW  253   0.286   1.637   1.435  0.1483 -0.3177  0.0970
   85SOL    HW1  254   0.256   1.737   1.424 -1.1088  0.3898  0.3531
   85SOL    HW2  255   0.318   1.600   1.525  0.0165  0.1086 -0.8345
   86SOL     OW  256   0.436   1.057   1.529  0.0005  0.3935  0.9149
   86SOL    HW1  257   0.377   1.010   1.452  0.8054 -0.7842  0.4274
   86SOL    HW2  258   0.538   1.029   1.517  0.1798 -1.8525  0.8885
   87SOL     OW  259   1.651   0.669   0.269 -0.1831  0.0856 -0.1227
   87SOL    HW1  260   1.729   0.743   0.274 -1.8488 -2.0647  1.4354
   87SOL    HW2  261   1.627   0.647   0.166 -0.6164 -0.8349 -1.0948
   88SOL     OW  262   1.570   1.358   0.258  0.9743  0.0321  0.6360
   88SOL    HW1  263   1.632   1.277   0.277  0.8390 -0.0228 -0.6409
   88SOL    HW2  264   1.472   1.334   0.274  3.0050 -0.8177  0.7902
   89SOL     OW  265   3.078   0.294   0.626  0.1177  0.3336  0.5269
   89SOL    HW1  266   3.156   0.224   0.597  2.2942 -0.9253 -2.5166
   89SOL    HW2  267   2.981   0.265   0.604  2.0651  0.6918  1.0281
   90SOL     OW  268   0.807   1.584   0.131 -0.4724 -0.0960  0.7356
   90SOL    HW1  269   0.864   1.504   0.095 -0.4821 -0.0738 -1.2067
   90SOL    HW2  270   0.724   1.604   0.077  1.6900 -0.4289  1.2311
   91SOL     OW  271   1.212   1.464   1.769  0.2409  0.2524  0.2635
   91SOL    HW1  272   1.187   1.514   1.855  1.9831 -0.8905  1.2131
   91SOL    HW2  273   1.303   1.422   1.766 -1.3024 -0.4979 -0.6567
   92SOL     OW  274   0.015   0.950   1.232  0.0486 -0.3338 -0.0584
   92SOL    HW1  275   0.077   1.026   1.192 -0.1019  3.1311  2.1760
   92SOL    HW2  276   0.005   0.966   1.337 -1.3392 -0.1693  0.7326
   93SOL     OW  277   3.086   2.723   0.036  0.1182  0.3606  0.3204
   93SOL    HW1  278   3.022   2.722  -0.047 -0.1622 -1.5229 -0.5539
   93SOL    HW2  279   3.098   2.626   0.078 -1.0966 -2.0831 -0.1960
   94SOL     OW  280   1.493   1.418   1.757 -0.1437 -0.5601 -0.4758
   94SOL    HW1  281   1.571   1.356   1.785 -1.1759  0.2370  0.7495
   94SOL    HW2  282   1.526   1.518   1.770  1.8731 -0.0826  0.6097
   95SOL     OW  283   1.402   2.507   2.958 -0.2145 -0.2559 -0.1336
   95SOL    HW1  284   1.312   2.545   2.986 -2.3416  0.0156  1.5119
   95SOL    HW2  285   1.396   2.406   2.934  0.8245  0.9365 -2.0212
   96SOL     OW  286   0.562   2.107   1.306 -0.0350 -0.0355 -0.1295
   96SOL    HW1  287   0.502   2.052   1.245  0.3571  2.2671 -0.1520
   96SOL    HW2  288   0.632   2.050   1.355 -0.9176 -0.8225 -2.0908
   97SOL     OW  289   0.305   1.610   2.439 -0.0079 -0.0174 -0.3869
   97SOL    HW1  290   0.255   1.676   2.378  0.1667 -0.1229  1.2506
   97SOL    HW2  291   0.282   1.629   2.539  1.1921  3.4197  1.2948
   98SOL     OW  292   2.169   1.614   1.200  0.2913  0.2292  0.1450
   98SOL    HW1  293   2.074   1.575   1.178  1.9381 -3.3634  0.4003
   98SOL    HW2  294   2.242   1.560   1.156 -0.3012  0.6927 -0.5118
   99SOL     OW  295   2.568   2.113   1.306 -0.3314  0.3818  0.1026
   99SOL    HW1  296   2.610   2.138   1.398  0.1773  0.1320  1.9792
   99SOL    HW2  297   2.532   2.018   1.307  0.5624  2.4970  0.8700
  100SOL     OW  298   2.304   0.410   2.108  0.2260 -0.0427  0.1276
  100SOL    HW1  299   2.261   0.390   2.200 -1.5855  3.3157 -1.0114
  100SOL    HW2  300   2.407   0.419   2.113 -1.5723 -2.2590  0.2535
  101SOL     OW  301   0.397   1.534   0.506  0.0470 -0.1519  0.3221
  101SOL    HW1  302   0.423   1.617   0.571 -1.2498  1.8654 -1.1020
  101SOL    HW2  303   0.454   1.532   0.417  0.7913 -0.1740 -1.6215
  102SOL     OW  304   2.300   1.073   0.821 -0.1256  0.0579  0.0174
  102SOL    HW1  305   2.253   0.989   0.786 -1.6160  0.1625 -0.6229
  102SOL    HW2  306   2.401   1.073   0.789  2.6800 -0.8944 -0.7530
  103SOL     OW  307   2.235   0.087   0.345 -0.0344 -0.9367 -0.4948
  103SOL    HW1  308   2.286   0.139   0.269  1.4173 -0.0659 -1.5431
  103SOL    HW2  309   2.305   0.052   0.414  0.5720  1.5878 -0.2748
  104SOL     OW  310   0.045   1.887   2.093  0.3360 -0.2975  0.0798
  104SOL    HW1  311   0.088   1.845   2.007 -0.9867 -2.1163 -0.6734
  104SOL    HW2  312  -0.054   1.909   2.082 -1.1752 -4.5131  0.5445
  105SOL     OW  313   1.281   2.099   0.788  0.5649 -0.3223 -0.7099
  105SOL    HW1  314   1.261   2.141   0.696  2.0560  0.2255 -0.0407
  105SOL    HW2  315   1.316   2.005   0.784 -0.4104  1.6324  1.5787
  106SOL     OW  316   2.072   0.394   1.407  0.4024  0.7357 -0.5516
  106SOL    HW1  317   2.017   0.305   1.421 -0.5457 -0.4015 -1.1601
  106SOL    HW2  318   2.098   0.443   1.497 -0.4475 -0.8851  1.2353
  107SOL     OW  319   1.981   2.941   1.190  0.0067 -0.0618  0.1714
  107SOL    HW1  320   1.909   3.014   1.205  0.3072  1.2778  0.8741
  107SOL    HW2  321   1.948   2.872   1.122 -0.8057  0.0081  2.5728
  108SOL     OW  322   0.874   2.836   1.166  0.0818 -0.1248  0.0303
  108SOL    HW1  323   0.861   2.746   1.216  1.8880 -1.1180  0.1676
  108SOL    HW2  324   0.952   2.891   1.208  2.6572 -1.4409 -1.4627
  109SOL     OW  325   2.156   0.152   0.779 -0.3404  0.2757 -0.1848
  109SOL    HW1  326   2.067   0.147   0.725  0.4389 -1.0411 -2.2892
  109SOL    HW2  327   2.153   0.094   0.865  0.0671 -0.0243 -0.1505
  110SOL     OW  328   0.469   2.797   2.775 -0.1012 -0.1440  0.2601
  110SOL    HW1  329   0.432   2.786   2.681 -1.8922 -0.0650  1.3806
  110SOL    HW2  330   0.541   2.725   2.804 -2.8324  2.9416  0.2025
  111SOL     OW  331   1.289   0.497   2.333 -0.6132 -0.2855 -0.0407
  111SOL    HW1  332   1.193   0.514   2.376  2.0012 -0.5764 -0.4766
  111SOL    HW2  333   1.350   0.445   2.397 -2.0173 -0.1802 -1.0578
  112SOL     OW  334   1.774   0.420   1.493  0.0945 -0.4170  0.7272
  112SOL    HW1  335   1.761   0.441   1.392 -0.8772  1.1030 -1.5427
  112SOL    HW2  336   1.692   0.390   1.543  2.4779  0.5208  0.0120
  113SOL     OW  337   2.395   1.694   1.718  0.4954 -0.5379 -0.0130
  113SOL    HW1  338   2.430   1.595   1.718 -0.8472  0.3664 -0.1824
  113SOL    HW2  339   2.418   1.743   1.807 -0.4404 -1.0946 -0.7556
  114SOL     OW  340   0.292   0.505   1.195 -0.6933 -0.6946  0.1579
  114SOL    HW1  341   0.365   0.537   1.128  2.6953  1.1408 -0.7622
  114SOL    HW2  342   0.222   0.581   1.217 -1.3155 -0.6554  0.6835
  115SOL     OW  343   2.791   1.519   1.269 -0.0609 -0.3971 -0.9325
  115SOL    HW1  344   2.778   1.417   1.280  2.0959 -0.7068 -2.3985
  115SOL    HW2  345   2.849   1.538   1.190 -1.4688  1.5627  3.5596
  116SOL     OW  346   1.900   0.963   0.673 -0.0259 -0.4409  0.3271
  116SOL    HW1  347   1.816   0.902   0.678  1.9339 -3.6437 -2.7222
  116SOL    HW2  348   1.875   1.062   0.695  2.3914  1.2791  0.1850
  117SOL     OW  349   1.134   0.374   0.570 -0.1668 -0.1104 -0.3806
  117SOL    HW1  350   1.185   0.458   0.547 -0.2373  0.7582 -0.6846
  117SOL    HW2  351   1.140   0.303   0.493  0.0976 -0.4075  3.6742
  118SOL     OW  352   1.094   1.205   1.124  0.0499 -0.2437  0.3581
  118SOL    HW1  353   1.049   1.150   1.199 -2.2716 -0.3151 -1.9961
  118SOL    HW2  354   1.124   1.302   1.152  2.3294 -1.4155 -1.9286
  119SOL     OW  355   1.858   1.601   2.199  0.1067 -0.2145  0.2678
  119SOL    HW1  356   1.809   1.678   2.154  1.6430 -1.5910  1.7967
  119SOL    HW2  357   1.957   1.590   2.164  0.4299  0.5375  0.9480
  120SOL     OW  358   2.906   2.800   0.240  0.1353 -0.0719  0.0328
  120SOL    HW1  359   2.974   2.814   0.167 -2.7349 -1.8621 -1.6457
  120SOL    HW2  360   2.825   2.748   0.209  0.5017  0.8667  1.2204
  121SOL     OW  361   1.853   0.727   2.149  0.1073  0.4698  0.5555
  121SOL    HW1  362   1.904   0.802   2.096 -1.2827  1.1328  0.4304
  121SOL    HW2  363   1.886   0.629   2.139 -0.4758 -0.0745 -2.5099
  122SOL     OW  364   2.594   2.501   1.340 -0.4519  0.2760 -0.0958
  122SOL    HW1  365   2.618   2.448   1.256  5.1490 -3.4194  1.3359
  122SOL    HW2  366   2.620   2.447   1.429 -0.9344  0.5256  3.2433
  123SOL     OW  367   1.719   0.125   1.715 -0.4502  0.4423  0.3381
  123SOL    HW1  368   1.715   0.033   1.671 -0.8691  5.1349  0.7754
  123SOL    HW2  369   1.817   0.164   1.719 -1.7782  0.7214  1.4276
  124SOL     OW  370   3.049   0.470   1.107 -0.0539 -0.1838  0.3807
  124SOL    HW1  371   2.968   0.515   1.154  1.5465  2.3179 -0.7170
  124SOL    HW2  372   3.069   0.514   1.019 -1.0792 -1.3459  1.2636
  125SOL     OW  373   0.901   1.914   0.763 -0.0744 -0.1585  0.1929
  125SOL    HW1  374   0.984   1.849   0.769  2.8615  0.8791  0.0439
  125SOL    HW2  375   0.841   1.908   0.842  2.3727 -1.8203 -1.6224
  126SOL     OW  376   1.961   2.269   2.430  0.1208 -0.1693  0.9319
  126SOL    HW1  377   2.024   2.221   2.362  2.6957 -0.4062  0.8484
  126SOL    HW2  378   1.925   2.205   2.504 -1.0142  0.7266  4.2682
  127SOL     OW  379   0.894   0.975   0.200 -0.0958 -0.1183  0.5601
  127SOL    HW1  380   0.934   1.017   0.290  1.6294  2.1691 -0.7616
  127SOL    HW2  381   0.932   0.879   0.187  1.8614 -1.6101  1.1236
  128SOL     OW  382   0.946   0.271   1.417 -0.0300 -0.5067 -0.2020
  128SOL    HW1  383   0.919   0.346   1.355 -1.7024 -0.4025  2.2266
  128SOL    HW2  384   0.888   0.189   1.427  0.4140  1.9269 -0.9039
  129SOL     OW  385   1.873   0.656   1.852  0.0870 -0.2092 -0.1711
  129SOL    HW1  386   1.911   0.656   1.752 -1.4216 -1.2155 -0.4652
  129SOL    HW2  387   1.881   0.753   1.901  1.7935  3.0382  0.3177
  130SOL     OW  388   1.419   2.251   1.004 -0.0347  0.1682 -0.0204
  130SOL    HW1  389   1.383   2.231   0.908 -0.4347 -2.2096  0.6967
  130SOL    HW2  390   1.483   2.331   1.005  1.2840  0.2629 -1.5336
  131SOL     OW  391   3.049   1.385   1.356  0.2009  0.9074  0.1641
  131SOL    HW1  392   2.992   1.305   1.384  1.9331  2.8497  0.9667
  131SOL    HW2  393   3.144   1.387   1.385 -2.7834  3.8961  0.4984
  132SOL     OW  394   2.049   2.380   0.510  0.0604 -0.0682  0.3147
  132SOL    HW1  395   1.963   2.436   0.505  0.4737  0.3636  0.7452
  132SOL    HW2  396   2.046   2.309   0.591 -2.1515 -2.7434 -0.0185
  133SOL     OW  397   1.787   2.340   2.732  0.4265  0.2132 -0.5649
  133SOL    HW1  398   1.703   2.351   2.674  0.0114  1.1869  2.0194
  133SOL    HW2  399   1.847   2.420   2.704  0.6417  1.6834  0.3765
  134SOL     OW  400   2.681   2.375   1.596  0.1823  0.0659  0.2289
  134SOL    HW1  401   2.622   2.361   1.683  1.0973  3.2509  1.4154
  134SOL    HW2  402   2.766   2.432   1.615  0.3709 -1.7836  1.0554
  135SOL     OW  403   0.690   1.450   2.670  0.0096 -0.3301  0.5737
  135SOL    HW1  404   0.706   1.360   2.722  0.6741 -1.3989  2.0165
  135SOL    HW2  405   0.688   1.424   2.565  1.2625 -4.6773 -0.4245
  136SOL     OW  406   1.209   2.014   0.444 -0.2423  0.0690 -0.6272
  136SOL    HW1  407   1.133   2.083   0.446  0.6286 -0.9901 -1.2914
  136SOL    HW2  408   1.180   1.913   0.441 -0.3534 -1.2737 -0.7467
  137SOL     OW  409   0.406   1.211   2.242  0.1157  0.2073 -0.4806
  137SOL    HW1  410   0.301   1.224   2.264 -2.7258  1.3344  1.1663
  137SOL    HW2  411   0.440   1.113   2.245  1.3351  0.8852 -1.3434
  138SOL     OW  412   2.446   1.551   0.309 -0.0429  0.0310  0.1042
  138SOL    HW1  413   2.375   1.501   0.252  0.3417  3.4168  0.8031
  138SOL    HW2  414   2.501   1.485   0.365 -1.2750  1.4586  0.5418
  139SOL     OW  415   1.849   2.633   1.509 -0.0370  0.4287  0.5890
  139SOL    HW1  416   1.751   2.641   1.476 -1.4225 -0.0495 -0.7237
  139SOL    HW2  417   1.902   2.558   1.460  1.0799  0.2258 -1.4102
  140SOL     OW  418   3.004   2.985   2.601 -0.2913 -0.4954  0.3819
  140SOL    HW1  419   3.044   2.898   2.560  1.6640 -0.4124  0.1397
  140SOL    HW2  420   3.059   3.075   2.573 -0.1359  2.3579 -0.2399
  141SOL     OW  421   1.334   1.635   1.570 -0.0608 -0.0518 -0.0772
  141SOL    HW1  422   1.248   1.693   1.570 -2.3780 -2.2938 -2.3606
  141SOL    HW2  423   1.332   1.561   1.642  0.4520  0.3520  0.2202
  142SOL     OW  424   1.515   0.614   2.232  0.4049  0.4539 -0.4255
  142SOL    HW1  425   1.545   0.602   2.134  0.0674 -0.7355  0.9431
  142SOL    HW2  426   1.413   0.591   2.248  1.3918  0.3925 -1.6795
  143SOL     OW  427   2.772   0.806   0.556  0.4787  0.3775 -0.1450
  143SOL    HW1  428   2.841   0.853   0.491  0.5597 -2.6165  2.3736
  143SOL    HW2  429   2.779   0.856   0.651  2.8435 -0.2275  2.3592
  144SOL     OW  430   2.902   1.176   1.483 -0.0883  0.3925 -0.5896
  144SOL    HW1  431   2.875   1.179   1.581  0.8984 -0.1344 -0.2531
  144SOL    HW2  432   2.947   1.088   1.455  0.1428  0.2562  1.2201
  145SOL     OW  433   0.945   1.822   0.127 -0.3377  0.3154 -0.0874
  145SOL    HW1  434   0.911   1.846   0.031  2.9899 -0.7780 -0.5344
  145SOL    HW2  435   0.918   1.724   0.158 -1.3824 -0.8574  0.1110
  146SOL     OW  436   2.449   0.668   1.487  0.4881 -0.0443  0.1888
  146SOL    HW1  437   2.386   0.584   1.469 -0.7778  1.5561  1.2638
  146SOL    HW2  438   2.408   0.760   1.460 -0.8313 -0.4433  0.5127
  147SOL     OW  439   1.091   2.514   0.579 -0.0036  0.4946 -0.0943
  147SOL    HW1  440   1.048   2.564   0.496  1.7633  0.4953  0.3361
  147SOL    HW2  441   1.188   2.481   0.565  0.2015 -1.5958 -1.5036
  148SOL     OW  442   1.591   1.457   0.015 -0.6060  0.1174 -0.4257
  148SOL    HW1  443   1.566   1.384  -0.054  0.5422  2.4134 -0.8164
  148SOL    HW2  444   1.578   1.422   0.114  0.4837 -0.6343 -1.9251
  149SOL     OW  445   0.684   1.495   1.951  0.6245  0.1200  0.3984
  149SOL    HW1  446   0.592   1.464   1.985  0.4062 -0.0053 -2.0821
  149SOL    HW2  447   0.724   1.441   1.872  1.4179  0.7136  2.3606
  150SOL     OW  448   3.033   1.215   0.972  0.1507 -0.2848  0.0399
  150SOL    HW1  449   3.107   1.222   1.050 -2.3197  0.5616  0.8612
  150SOL    HW2  450   2.986   1.121   0.976 -1.4314  0.3166  1.0273
  151SOL     OW  451   0.256   0.816   2.058  1.0696  0.2546 -0.5184
  151SOL    HW1  452   0.282   0.886   1.986  1.1030  0.5124 -0.8309
  151SOL    HW2  453   0.291   0.720   2.028  2.6628 -1.5376 -1.5817
  152SOL     OW  454   1.436   1.809   1.176 -0.2308  0.9279 -0.8288
  152SOL    HW1  455   1.482   1.905   1.177  0.6984  2.1661  0.2674
  152SOL    HW2  456   1.335   1.815   1.143  1.2349  1.2803 -0.4538
  153SOL     OW  457   0.199   1.520   0.205 -0.1845 -0.1252  0.0532
  153SOL    HW1  458   0.155   1.432   0.189  0.3747  0.7373  1.5994
  153SOL    HW2  459   0.168   1.561   0.293 -1.1713  1.1170 -0.2624
  154SOL     OW  460   2.292   1.873   2.783 -0.3940 -1.0351 -0.1263
  154SOL    HW1  461   2.321   1.772   2.778 -1.3328  1.1692  0.4187
  154SOL    HW2  462   2.357   1.939   2.730  0.5847 -0.1361 -1.5058
  155SOL     OW  463   2.460   1.249   0.354 -0.5524 -0.1969 -0.5394
  155SOL    HW1  464   2.553   1.211   0.326 -1.1572 -0.1748  4.0044
  155SOL    HW2  465   2.384   1.180   0.333 -2.9500 -0.1476 -0.4415
  156SOL     OW  466   2.464   0.824   0.738 -0.0107 -0.2875 -0.5549
  156SOL    HW1  467   2.372   0.845   0.781  0.9756 -0.0746  3.7370
  156SOL    HW2  468   2.483   0.883   0.655  0.7720 -1.0937  1.4230
  157SOL     OW  469   1.234   2.966   3.013 -0.4572 -1.0243  0.2282
  157SOL    HW1  470   1.296   2.948   2.929  0.4586  1.5413  0.7782
  157SOL    HW2  471   1.254   3.053   3.066  0.0473  1.3939  1.9293
  158SOL     OW  472   1.010   1.871   1.832  0.5811  0.1580 -0.2326
  158SOL    HW1  473   1.034   1.969   1.806  1.1784 -2.4826 -2.0418
  158SOL    HW2  474   0.942   1.875   1.910  2.0262  0.7569  0.6682
  159SOL     OW  475   0.867   0.426   1.218  0.1808  0.3932 -0.0801
  159SOL    HW1  476   0.820   0.510   1.251  1.3201 -1.7104 -0.9243
  159SOL    HW2  477   0.809   0.365   1.159 -2.3343 -0.5741  0.3067
  160SOL     OW  478   1.369   2.434   1.523  0.4265 -0.3716 -0.1999
  160SOL    HW1  479   1.330   2.360   1.586  1.1493 -0.7732 -1.7308
  160SOL    HW2  480   1.465   2.426   1.492 -0.3025 -0.9861  2.1848
  161SOL     OW  481   3.057   2.704   0.469 -0.5014 -1.0878 -0.1099
  161SOL    HW1  482   3.022   2.623   0.516  2.1906 -0.5672  0.7987
  161SOL    HW2  483   3.009   2.735   0.387  2.6813 -0.4076  1.9986
  162SOL     OW  484   2.573   1.811   0.475 -0.1021  0.4526 -0.0431
  162SOL    HW1  485   2.562   1.811   0.368  1.4830  1.5197 -0.5180
  162SOL    HW2  486   2.511   1.732   0.509  3.6229 -4.7055 -1.6720
  163SOL     OW  487   1.946   2.663   0.759  0.1562 -0.1714 -0.1572
  163SOL    HW1  488   1.933   2.662   0.655 -0.6714  2.9958 -1.4548
  163SOL    HW2  489   2.004   2.585   0.797 -2.4485 -1.3565 -0.1020
  164SOL     OW  490   3.057   0.245   1.243 -0.3067 -0.0486 -0.8111
  164SOL    HW1  491   3.062   0.343   1.209 -1.1247 -1.7170  0.5252
  164SOL    HW2  492   3.137   0.232   1.310  0.8509  1.2971 -2.9445
  165SOL     OW  493   1.096   1.425   0.675  0.1976 -0.3788  0.0620
  165SOL    HW1  494   1.087   1.459   0.776  0.6010 -1.7833 -0.7957
  165SOL    HW2  495   1.098   1.495   0.600  2.8096  0.5498  1.4577
  166SOL     OW  496   1.556   1.014   1.767 -0.3323  0.1416 -0.0424
  166SOL    HW1  497   1.467   1.022   1.826  0.4965 -0.9517  1.2272
  166SOL    HW2  498   1.617   1.100   1.761 -1.3598  1.9842 -0.5796
  167SOL     OW  499   0.783   1.934   1.448 -0.1030  0.3237  0.1795
  167SOL    HW1  500   0.802   2.005   1.517  0.7255 -0.8268  1.6126
  167SOL    HW2  501   0.729   1.856   1.487  1.5701  1.2521  0.1502
  168SOL     OW  502   1.568   2.345   0.158 -0.2201 -0.0520  0.0600
  168SOL    HW1  503   1.631   2.376   0.082 -1.2978  0.5752 -2.5700
  168SOL    HW2  504   1.620   2.311   0.241  1.4111  3.0082  0.7404
  169SOL     OW  505   0.080   2.577   2.216 -0.1067  0.1998 -0.3047
  169SOL    HW1  506   0.132   2.520   2.139  0.8212 -0.4195 -1.1161
  169SOL    HW2  507   0.117   2.563   2.313 -0.1704 -0.5990  1.2340
  170SOL     OW  508   1.138   0.212   2.047  0.2168 -0.1615  0.3437
  170SOL    HW1  509   1.235   0.228   2.096  0.7687  0.6116 -1.4100
  170SOL    HW2  510   1.154   0.172   1.953  1.1171  2.1375  0.9430
  171SOL     OW  511   0.220   0.848   2.384  0.3138  0.3096  0.2378
  171SOL    HW1  512   0.120   0.848   2.420  1.3743  1.1239 -2.5905
  171SOL    HW2  513   0.231   0.868   2.285  0.7080  0.2472  0.7453
  172SOL     OW  514   0.948   1.014   2.921 -0.1317  0.7044 -0.5701
  172SOL    HW1  515   0.935   1.094   2.983 -1.4210 -0.3038  0.5222
  172SOL    HW2  516   0.866   0.990   2.866 -0.5371 -1.8049  0.8906
  173SOL     OW  517   0.518   2.454   0.158 -0.2709  0.1995 -0.4520
  173SOL    HW1  518   0.507   2.379   0.090 -1.5769 -1.2605 -3.9419
  173SOL    HW2  519   0.436   2.484   0.210 -2.1984  0.9572 -0.7222
  174SOL     OW  520   1.496   2.858   1.081  0.3310  0.0116 -0.0270
  174SOL    HW1  521   1.585   2.910   1.054  2.0053  1.5924 -0.5454
  174SOL    HW2  522   1.470   2.780   1.024  1.0244  1.1080  1.8579
  175SOL     OW  523   0.422   3.047   1.685 -0.6613 -0.0432  0.3283
  175SOL    HW1  524   0.495   3.043   1.758  0.0028  0.4033 -0.1123
  175SOL    HW2  525   0.365   3.133   1.676 -3.1534 -1.4217  0.2769
  176SOL     OW  526   2.608   0.357   0.025  0.2626 -0.1512  0.0319
  176SOL    HW1  527   2.628   0.450   0.069 -0.0458 -2.1598  0.3661
  176SOL    HW2  528   2.580   0.290   0.093  1.2007  2.9739  1.1844
  177SOL     OW  529   0.324   0.294   0.995  0.2260  0.1133  0.2158
  177SOL    HW1  530   0.295   0.192   0.992  0.1668 -0.5856 -1.0323
  177SOL    HW2  531   0.294   0.355   1.074  2.5746  1.4922  1.6485
  178SOL     OW  532   0.009   2.740   2.560  0.4411 -0.0225 -0.2271
  178SOL    HW1  533  -0.008   2.645   2.522 -0.0892  1.5457 -1.6987
  178SOL    HW2  534   0.085   2.751   2.629 -1.3032 -0.5257  0.1028
  179SOL     OW  535   3.024   1.551   1.106 -0.5224 -0.3015 -0.3962
  179SOL    HW1  536   3.109   1.574   1.057 -1.0752  1.1792  1.8439
  179SOL    HW2  537   3.032   1.480   1.185 -1.6047 -2.2429 -0.4011
  180SOL     OW  538   0.200   1.384   1.771 -0.1138  0.3008 -0.3617
  180SOL    HW1  539   0.289   1.334   1.809 -0.0549 -0.7086 -0.2117
  180SOL    HW2  540   0.142   1.419   1.850 -1.2503  0.4099  2.0532
  181SOL     OW  541   2.971   1.946   2.521 -0.4543  0.1637  0.6373
  181SOL    HW1  542   3.035   2.011   2.487 -0.8614 -0.5137 -2.0949
  181SOL    HW2  543   2.897   1.920   2.449 -1.2730 -0.1855 -2.0821
  182SOL     OW  544   2.338   1.279   1.268  0.0990  0.0697 -0.1699
  182SOL    HW1  545   2.257   1.252   1.209 -0.1744  0.7906  0.1859
  182SOL    HW2  546   2.375   1.375   1.242 -1.1424 -2.8406  1.0026
  183SOL     OW  547   1.380   2.268   2.477 -0.2726  0.9018 -0.6124
  183SOL    HW1  548   1.331   2.176   2.471  1.3409  1.0776 -1.2675
  183SOL    HW2  549   1.480   2.256   2.463 -1.3138  1.2775 -0.5997
  184SOL     OW  550   2.151   0.858   0.727  0.6498  0.4178  0.7820
  184SOL    HW1  551   2.050   0.883   0.730 -1.0422  2.2043 -1.2173
  184SOL    HW2  552   2.158   0.755   0.710  1.9666 -3.0637 -0.5179
  185SOL     OW  553   1.527   2.748   2.026 -0.0242 -0.0839  0.3564
  185SOL    HW1  554   1.442   2.803   2.001  1.9280  0.5572 -0.9796
  185SOL    HW2  555   1.572   2.777   2.115 -0.2501 -0.0303 -0.0829
  186SOL     OW  556   0.060   2.191   1.649  0.4146  0.0268 -0.1106
  186SOL    HW1  557   0.041   2.249   1.729  1.2383  1.2866  0.3335
  186SOL    HW2  558   0.157   2.151   1.650  1.1785 -0.9120  2.0335
  187SOL     OW  559   1.364   0.631   1.644 -0.3651  0.0168  0.2189
  187SOL    HW1  560   1.461   0.675   1.652  1.4252  1.7643  0.1490
  187SOL    HW2  561   1.348   0.551   1.718 -0.9684 -2.7661  0.6015
  188SOL     OW  562   2.795   2.721   1.415 -1.0529 -0.0092 -0.0280
  188SOL    HW1  563   2.793   2.823   1.398  0.7904 -0.4267  2.0026
  188SOL    HW2  564   2.723   2.668   1.358  1.3598 -1.5604 -2.6423
  189SOL     OW  565   0.878   1.179   1.403  0.0693  0.5252 -0.2035
  189SOL    HW1  566   0.954   1.224   1.461  3.2673 -0.9798 -0.3536
  189SOL    HW2  567   0.801   1.244   1.368  0.0284  1.3700 -0.7828
  190SOL     OW  568   1.478   1.859   1.551 -0.2543  0.3431 -0.2133
  190SOL    HW1  569   1.426   1.766   1.540 -1.6511 -1.0921  0.8299
  190SOL    HW2  570   1.486   1.893   1.653  0.6554  1.8395 -0.3176
  191SOL     OW  571   0.919   0.827   1.528  0.3603 -0.5862 -0.0449
  191SOL    HW1  572   0.971   0.780   1.606  1.1124 -0.2040  0.1300
  191SOL    HW2  573   0.989   0.842   1.455  0.7257 -1.0239  1.2890
  192SOL     OW  574   1.852   2.471   1.101  0.4577 -0.1472  0.2928
  192SOL    HW1  575   1.750   2.473   1.080  0.4651 -0.5046 -2.0066
  192SOL    HW2  576   1.905   2.411   1.037 -2.4487  1.4524  3.0481
  193SOL     OW  577   0.521   0.523   0.408  0.1297  0.5031  0.1988
  193SOL    HW1  578   0.516   0.427   0.435  1.4379  0.8647  0.0038
  193SOL    HW2  579   0.575   0.536   0.319 -1.9701 -0.8507  0.9751
  194SOL     OW  580   0.314   0.912   1.321  0.0288 -0.2069 -0.0986
  194SOL    HW1  581   0.249   0.836   1.309 -0.4678  3.2462 -0.1146
  194SOL    HW2  582   0.352   0.953   1.231  1.6813 -1.5445 -1.7845
  195SOL     OW  583   0.985   2.891   0.528 -0.1051  0.1873  0.4375
  195SOL    HW1  584   0.965   2.802   0.481 -1.9403  0.7785 -0.2258
  195SOL    HW2  585   1.073   2.931   0.494 -2.2628  3.6639  0.7326
  196SOL     OW  586   0.234   1.355   1.350  0.7310  0.0972 -0.0594
  196SOL    HW1  587   0.271   1.453   1.364 -0.8720  0.3565  0.0915
  196SOL    HW2  588   0.218   1.296   1.437  1.0875 -0.0987  0.3078
  197SOL     OW  589   0.824   2.008   0.327  0.2339 -0.0049  0.5126
  197SOL    HW1  590   0.809   1.956   0.417 -0.7804  2.2070 -0.0597
  197SOL    HW2  591   0.863   1.948   0.255 -1.3845  2.2855  1.3214
  198SOL     OW  592   0.287   1.233   0.350 -0.4790  0.2102  0.1456
  198SOL    HW1  593   0.190   1.231   0.316  1.4729 -2.7317  1.6194
  198SOL    HW2  594   0.309   1.315   0.406  0.5238 -1.1608 -1.9830
  199SOL     OW  595   2.281   0.461   2.586 -0.3697  0.6879  0.0123
  199SOL    HW1  596   2.197   0.437   2.639  0.0697 -1.9321 -1.0720
  199SOL    HW2  597   2.372   0.415   2.616  2.1947  0.4801  1.1830
  200SOL     OW  598   0.010   2.965   0.810 -0.0799 -0.3783  0.0092
  200SOL    HW1  599   0.035   3.053   0.853 -1.2688  0.0549  1.7207
  200SOL    HW2  600  -0.067   2.978   0.745 -0.1437  1.6301  1.3091
  201SOL     OW  601   0.954   0.742   0.516 -0.5518  0.3035  0.1482
  201SOL    HW1  602   0.962   0.807   0.593 -0.9337 -1.4783 -0.7629
  201SOL    HW2  603   0.888   0.667   0.532 -0.9954 -2.5209 -2.3898
  202SOL     OW  604   0.405   1.208   1.854  0.9062  0.8373  0.1003
  202SOL    HW1  605   0.482   1.156   1.803  0.8572 -1.9600  0.5709
  202SOL    HW2  606   0.431   1.290   1.915  0.6858  1.5853  0.4095
  203SOL     OW  607   0.603   0.225   1.564  0.8232  0.1575  0.1286
  203SOL    HW1  608   0.629   0.190   1.474 -2.0921 -0.3911  0.7145
  203SOL    HW2  609   0.677   0.204   1.632  0.1728  1.0662 -1.9623
  204SOL     OW  610   2.115   1.815   2.990 -0.2794 -0.0920 -0.1285
  204SOL    HW1  611   2.117   1.718   3.026  1.5834 -1.6983  1.3643
  204SOL    HW2  612   2.184   1.836   2.922  1.1389  0.0502  0.5950
  205SOL     OW  613   1.835   1.873   3.090 -0.0608  0.7599  0.4419
  205SOL    HW1  614   1.924   1.862   3.041 -1.9138 -0.4622 -0.6935
  205SOL    HW2  615   1.784   1.950   3.046  1.3585  0.3558  1.5027
  206SOL     OW  616   2.406   2.793   0.382 -0.1467 -0.4416 -0.2350
  206SOL    HW1  617   2.405   2.705   0.439  0.5980  0.0268 -1.3208
  206SOL    HW2  618   2.494   2.811   0.325  1.9222  0.9379 -0.1711
  207SOL     OW  619   0.709   1.748   2.888  0.2731 -0.2080 -0.3679
  207SOL    HW1  620   0.774   1.672   2.854  1.8271 -2.4503 -1.2299
  207SOL    HW2  621   0.630   1.711   2.945 -1.3641  0.1001  0.8930
  208SOL     OW  622   1.101   1.678   1.268 -0.2804 -0.1000 -0.9267
  208SOL    HW1  623   1.119   1.737   1.181 -2.4223  3.8582  0.6119
  208SOL    HW2  624   1.086   1.737   1.353 -4.4194 -2.5963  0.6632
  209SOL     OW  625   0.201   0.988   3.095 -0.0252  0.1752 -0.2163
  209SOL    HW1  626   0.188   0.918   3.017 -2.6968  2.2815  0.1717
  209SOL    HW2  627   0.223   0.942   3.187 -0.4810  0.0988  0.5337
  210SOL     OW  628   1.714   0.486   1.227 -0.3657  0.0336  0.0156
  210SOL    HW1  629   1.661   0.569   1.202 -1.7061 -1.5691  1.9482
  210SOL    HW2  630   1.820   0.492   1.221  2.4804  0.2632  1.3855
  211SOL     OW  631   2.027   1.020   1.560 -0.0355  0.2420 -0.1241
  211SOL    HW1  632   2.041   0.952   1.646  3.3089 -0.0001 -0.6575
  211SOL    HW2  633   2.102   1.089   1.552 -1.2334 -1.0430  0.4953
  212SOL     OW  634   0.029   0.976   1.506  0.7085 -0.5018 -0.2044
  212SOL    HW1  635   0.091   1.046   1.550  0.6806  0.5760  1.6683
  212SOL    HW2  636   0.026   0.887   1.560 -0.4548 -1.3227  0.8002
  213SOL     OW  637   2.741   0.232   0.269  0.1032  0.0306 -0.5624
  213SOL    HW1  638   2.838   0.203   0.248 -2.2116  0.5865 -0.1134
  213SOL    HW2  639   2.676   0.160   0.262  4.3871  1.0485 -1.4262
  214SOL     OW  640   2.153   0.362   2.337 -0.2475 -0.3104 -0.1313
  214SOL    HW1  641   2.201   0.424   2.403  0.9880  1.2991 -1.3433
  214SOL    HW2  642   2.159   0.258   2.362 -1.4153  0.7383 -0.2481
  215SOL     OW  643   1.678   2.270   2.098 -0.3082  0.2896 -0.1553
  215SOL    HW1  644   1.776   2.299   2.076 -0.5806 -0.0227  0.5406
  215SOL    HW2  645   1.616   2.350   2.117 -1.4314  0.1346  1.7203
  216SOL     OW  646   2.168   0.604   0.647 -0.3858 -0.1065 -1.2024
  216SOL    HW1  647   2.136   0.513   0.629  0.3815  0.2101  0.5141
  216SOL    HW2  648   2.183   0.650   0.556 -0.1510  0.3509 -1.1641
  217SOL     OW  649   0.890   2.819   2.526  0.6099  0.6676  0.5243
  217SOL    HW1  650   0.864   2.745   2.595  2.7564 -0.9284  0.2718
  217SOL    HW2  651   0.842   2.807   2.430 -0.3115 -1.1878  0.8103
  218SOL     OW  652   1.886   1.464   0.065 -0.1169 -0.1830  0.0576
  218SOL    HW1  653   1.783   1.467   0.062 -1.3205 -2.2076 -0.1244
  218SOL    HW2  654   1.924   1.385   0.117  0.5284 -0.0411 -1.0578
  219SOL     OW  655   2.485   1.288   2.532  0.1442 -0.0332  0.2753
  219SOL    HW1  656   2.558   1.261   2.462 -2.0710 -0.1105 -0.1286
  219SOL    HW2  657   2.491   1.229   2.621 -0.1029 -0.7907 -1.5638
  220SOL     OW  658   1.426   1.030   1.401 -0.0809 -0.1037  0.8477
  220SOL    HW1  659   1.529   1.019   1.406  0.2128 -2.2529 -1.3305
  220SOL    HW2  660   1.397   1.043   1.304 -0.8447 -0.7273 -0.7557
  221SOL     OW  661   1.330   0.945   2.204  0.8319  0.1921 -0.3738
  221SOL    HW1  662   1.317   1.006   2.123  1.9447 -3.6994 -0.6219
  221SOL    HW2  663   1.415   0.975   2.252  1.7788 -0.5470  1.5691
  222SOL     OW  664   1.094   0.145   1.221 -0.2779  0.3137  0.4487
  222SOL    HW1  665   1.043   0.201   1.291  0.9614  0.5175 -0.7466
  222SOL    HW2  666   1.095   0.179   1.125 -1.8437  0.1686  1.4656
  223SOL     OW  667   2.699   0.918   2.107  0.0656 -0.3906 -0.5114
  223SOL    HW1  668   2.653   1.006   2.140  0.9747 -1.6323 -1.3182
  223SOL    HW2  669   2.795   0.907   2.146  1.9092  0.9580 -4.2928
  224SOL     OW  670   1.479   1.053   2.719  0.1802 -0.2059  0.2559
  224SOL    HW1  671   1.512   0.964   2.662  4.7004  0.3516 -1.9564
  224SOL    HW2  672   1.506   1.139   2.671  2.1005 -1.4226  2.6080
  225SOL     OW  673   2.974   2.687   2.874  0.0008 -0.6198 -0.4882
  225SOL    HW1  674   2.888   2.705   2.818  2.2025 -3.7733 -0.3212
  225SOL    HW2  675   3.057   2.726   2.832 -2.3795  0.7704  1.4426
  226SOL     OW  676   2.379   1.617   2.781  0.3864  0.0697 -0.8151
  226SOL    HW1  677   2.444   1.584   2.706 -2.1547  1.6124  0.9181
  226SOL    HW2  678   2.354   1.557   2.862 -0.9802 -0.2914  0.6660
  227SOL     OW  679   0.859   0.230   3.066  0.0923  0.4302  0.0865
  227SOL    HW1  680   0.912   0.316   3.073 -0.6873  0.5927  1.1079
  227SOL    HW2  681   0.787   0.228   2.992 -1.2846 -0.4115  0.2052
  228SOL     OW  682   2.405   0.599   2.821  0.2474  0.1403 -0.5058
  228SOL    HW1  683   2.430   0.679   2.755 -1.5589  1.8226  1.3507
  228SOL    HW2  684   2.472   0.523   2.829 -1.3405 -0.9128  2.3327
  229SOL     OW  685   0.565   0.462   1.785 -0.2939  0.1575 -0.1197
  229SOL    HW1  686   0.588   0.383   1.847 -1.3984 -0.9944  1.0617
  229SOL    HW2  687   0.594   0.449   1.683 -0.7746  1.9353  0.4360
  230SOL     OW  688   1.871   1.208   2.029  0.1104  0.2361  0.6916
  230SOL    HW1  689   1.935   1.272   1.977 -0.0306  0.9666  1.1836
  230SOL    HW2  690   1.797   1.260   2.083 -2.2692  0.3234 -0.3934
  231SOL     OW  691   0.675   1.062   3.093 -0.0796 -0.1546 -0.1625
  231SOL    HW1  692   0.754   1.134   3.099  1.6755  2.9239  0.4680
  231SOL    HW2  693   0.587   1.108   3.107  1.5526 -4.8117 -2.0630
  232SOL     OW  694   2.455   2.993   2.821  0.2892  0.4941 -0.0028
  232SOL    HW1  695   2.522   2.915   2.842 -1.9182 -3.8888  0.6262
  232SOL    HW2  696   2.473   3.048   2.735  0.9768 -1.2600 -2.7097
  233SOL     OW  697   1.763   1.255   1.228 -0.1196  0.0516 -0.1623
  233SOL    HW1  698   1.807   1.269   1.134 -1.9568  1.0950 -0.0024
  233SOL    HW2  699   1.745   1.153   1.252  1.6124  0.2160  0.5125
  234SOL     OW  700   1.608   2.528   1.842  0.1735  0.5065  0.1150
  234SOL    HW1  701   1.586   2.587   1.927  1.7158 -0.2490 -1.0496
  234SOL    HW2  702   1.567   2.429   1.847  1.7163 -2.7744 -1.3034
  235SOL     OW  703   0.028   2.981   2.870 -0.0244 -0.5275  0.4696
  235SOL    HW1  704  -0.047   3.002   2.799 -2.9233 -0.8368 -1.4766
  235SOL    HW2  705   0.010   3.019   2.960  0.3768 -0.0881 -0.5337
  236SOL     OW  706   2.893   0.692   0.113  0.3295 -0.9245 -0.0163
  236SOL    HW1  707   2.971   0.743   0.163  1.5484 -0.7624  2.1202
  236SOL    HW2  708   2.925   0.598   0.092 -1.0908  0.0056 -0.0417
  237SOL     OW  709   1.475   1.639   0.953 -0.5701  0.1241  0.0250
  237SOL    HW1  710   1.575   1.619   0.941  0.8179 -0.3783 -1.2395
  237SOL    HW2  711   1.454   1.683   1.047  1.3386  1.7243 -0.6766
  238SOL     OW  712   1.890   1.233   0.762  0.2658 -0.0272 -0.0114
  238SOL    HW1  713   1.914   1.259   0.857 -2.3708 -0.4861 -2.7121
  238SOL    HW2  714   1.801   1.280   0.737 -2.3789  0.3925  1.0196
  239SOL     OW  715   2.065   0.300   2.765 -0.6556 -0.2066  0.0317
  239SOL    HW1  716   2.103   0.233   2.840 -0.9525  0.4079  0.9658
  239SOL    HW2  717   1.973   0.337   2.791 -0.8342 -0.9109  1.6325
  240SOL     OW  718   0.924   0.679   0.221 -0.0964  0.4722 -0.1334
  240SOL    HW1  719   0.991   0.617   0.175  0.2174 -1.1025  0.8535
  240SOL    HW2  720   0.953   0.685   0.317 -0.7110  0.3261  0.4685
  241SOL     OW  721   0.586   0.083   0.399 -0.0832 -0.2454  0.0732
  241SOL    HW1  722   0.634   0.162   0.342 -2.4559  0.0662  0.6667
  241SOL    HW2  723   0.595  -0.010   0.352  0.6293 -1.2273 -0.7369
  242SOL     OW  724   0.623   2.570   1.171 -0.0410  0.0258  0.4586
  242SOL    HW1  725   0.644   2.545   1.271 -1.0422 -0.3369 -0.0781
  242SOL    HW2  726   0.593   2.671   1.152 -0.7439  0.2119 -0.4665
  243SOL     OW  727   1.044   0.542   2.413  0.0159 -0.1003 -0.3124
  243SOL    HW1  728   0.957   0.565   2.368 -1.1094 -0.7751 -0.5501
  243SOL    HW2  729   1.024   0.503   2.508 -2.0798 -1.8026  1.3933
  244SOL     OW  730   2.766   1.874   2.355 -0.0691  0.5343  0.7753
  244SOL    HW1  731   2.791   1.861   2.251  0.9051 -1.9260  0.6877
  244SOL    HW2  732   2.677   1.827   2.383  0.0551  1.1263  0.1305
  245SOL     OW  733   2.176   0.914   2.181 -0.0723  0.3492  0.0052
  245SOL    HW1  734   2.275   0.927   2.202  0.1147 -2.0132 -1.6010
  245SOL    HW2  735   2.115   0.982   2.229 -2.8501  2.0953 -1.0164
  246SOL     OW  736   0.222   2.886   1.717  0.7696  0.3661  0.3048
  246SOL    HW1  737   0.146   2.906   1.641 -2.2300  1.2645  1.2517
  246SOL    HW2  738   0.311   2.938   1.699 -0.3049 -2.5337  0.8775
  247SOL     OW  739   2.238   0.641   3.009  0.3241 -0.4358  0.0615
  247SOL    HW1  740   2.294   0.604   2.925  0.0458 -0.3441  2.6853
  247SOL    HW2  741   2.189   0.731   2.981 -0.0715  1.2056  1.3923
  248SOL     OW  742   2.203   1.825   1.566  0.0961  0.1951  0.5279
  248SOL    HW1  743   2.279   1.791   1.622 -1.0826  3.1335 -2.3549
  248SOL    HW2  744   2.110   1.810   1.614 -3.6340 -2.1089  0.7438
  249SOL     OW  745   1.941   1.888   1.878  0.1227 -0.3196 -1.0435
  249SOL    HW1  746   1.951   1.858   1.781 -0.1131 -2.4128 -1.1309
  249SOL    HW2  747   2.029   1.935   1.910 -1.2946  2.4095 -1.7942
  250SOL     OW  748   1.097   0.706   1.880  0.1323  0.5215  0.5301
  250SOL    HW1  749   1.101   0.622   1.940  0.4010  0.2248 -1.2374
  250SOL    HW2  750   1.095   0.683   1.775  1.1840 -0.0218 -0.8416
  251SOL     OW  751   3.011   1.637   2.543 -0.5044 -0.9822  0.4316
  251SOL    HW1  752   3.009   1.740   2.526 -0.5521 -0.6799  1.3269
  251SOL    HW2  753   2.919   1.590   2.548 -0.4372 -1.2515  0.2546
  252SOL     OW  754   1.596   0.745   1.712 -0.0314  0.4155  0.0832
  252SOL    HW1  755   1.699   0.731   1.705  0.1663 -0.1999  0.0976
  252SOL    HW2  756   1.563   0.843   1.728 -1.5125 -1.4917  2.9032
  253SOL     OW  757   0.990   1.601   0.455  0.0384 -0.9397  0.0423
  253SOL    HW1  758   0.977   1.508   0.412  0.5168  0.2153 -0.2732
  253SOL    HW2  759   0.909   1.621   0.522 -1.4734 -0.1715  2.3176
  254SOL     OW  760   2.027   2.194   1.660  0.0832  0.5684  0.4733
  254SOL    HW1  761   1.989   2.119   1.599  1.2253  0.0952  0.6948
  254SOL    HW2  762   1.954   2.259   1.696  1.9975  0.4115  0.6078
  255SOL     OW  763   0.149   1.191   2.904 -0.0174  0.2812 -0.1351
  255SOL    HW1  764   0.217   1.265   2.885 -0.4988 -2.2534 -0.2303
  255SOL    HW2  765   0.174   1.121   2.983 -0.5301 -2.5353  0.4855
  256SOL     OW  766   2.847   1.395   1.857 -0.2055 -0.5763  0.4783
  256SOL    HW1  767   2.785   1.482   1.848  1.0646 -0.6005 -1.1787
  256SOL    HW2  768   2.796   1.306   1.841 -3.5369 -0.2242 -0.4975
  257SOL     OW  769   0.790   0.149   1.740  0.0137 -0.3022  0.2987
  257SOL    HW1  770   0.859   0.217   1.704 -1.0461 -3.2381  0.2263
  257SOL    HW2  771   0.833   0.050   1.750 -0.0730  0.6428  2.0930
  258SOL     OW  772   2.983   1.222   0.503 -0.3059 -0.2421  0.0198
  258SOL    HW1  773   2.889   1.262   0.496  0.2245  1.7966  1.3440
  258SOL    HW2  774   3.032   1.254   0.592 -1.2358  2.0261  2.0414
  259SOL     OW  775   0.396   2.887   3.044 -0.2835  0.3030  0.0426
  259SOL    HW1  776   0.333   2.824   3.096 -0.6254  0.9262 -0.9062
  259SOL    HW2  777   0.421   2.847   2.953 -0.7849 -0.8515 -2.3777
  260SOL     OW  778   2.714   0.726   2.803  0.4660  0.6273 -0.0002
  260SOL    HW1  779   2.631   0.789   2.789 -0.5595  1.2484 -0.8981
  260SOL    HW2  780   2.685   0.623   2.805 -1.9078  0.3907  0.7890
  261SOL     OW  781   2.701   1.273   1.294 -0.6160 -0.1019 -0.5250
  261SOL    HW1  782   2.653   1.216   1.226  1.9775 -0.3701 -1.0981
  261SOL    HW2  783   2.769   1.219   1.351 -1.2711 -3.1398 -1.7450
  262SOL     OW  784   1.370   2.976   1.926  0.0081  0.2373  0.1913
  262SOL    HW1  785   1.401   3.076   1.924 -0.3919  0.7818  2.4445
  262SOL    HW2  786   1.275   2.962   1.960 -0.8049  1.4643  0.8043
  263SOL     OW  787   0.847   0.692   2.291 -0.0977 -0.3574 -0.1066
  263SOL    HW1  788   0.800   0.622   2.226 -3.8558  0.7781  2.2828
  263SOL    HW2  789   0.880   0.770   2.228  1.6454  1.4439 -1.2248
  264SOL     OW  790   2.244   0.804   0.413  0.7646 -0.0227  0.6767
  264SOL    HW1  791   2.266   0.764   0.320 -0.5893  1.2895 -1.3553
  264SOL    HW2  792   2.324   0.863   0.443  1.7856 -2.6141  2.7079
  265SOL     OW  793   0.947   2.443   2.611  0.0571 -0.6344  0.2961
  265SOL    HW1  794   0.998   2.501   2.675 -2.4975 -0.5152  1.0844
  265SOL    HW2  795   0.928   2.348   2.650 -0.5049  1.0655 -0.3705
  266SOL     OW  796   1.331   1.778   3.049  0.2303 -0.2243  0.3168
  266SOL    HW1  797   1.317   1.819   3.144  0.9970 -0.9926  1.2576
  266SOL    HW2  798   1.427   1.748   3.022 -0.5207 -0.2211 -2.8089
  267SOL     OW  799   1.061   0.073   2.306  0.6556 -0.1533 -0.3494
  267SOL    HW1  800   1.021   0.016   2.226  0.7426 -3.1565 -1.2619
  267SOL    HW2  801   1.074   0.169   2.275  0.4929  1.1739 -1.1500
  268SOL     OW  802   0.750   1.260   1.051  1.0444  0.4976 -0.5153
  268SOL    HW1  803   0.735   1.297   1.151 -2.7449  0.8637  0.1794
  268SOL    HW2  804   0.801   1.324   0.993  1.0825  0.7916 -2.1912
  269SOL     OW  805   2.351   2.499   1.580  0.2164 -0.0044 -0.3243
  269SOL    HW1  806   2.414   2.425   1.623  0.9398 -0.2902  1.7798
  269SOL    HW2  807   2.314   2.551   1.664  3.2358  1.0091  2.5196
  270SOL     OW  808   0.131   2.972   1.967 -0.1357 -0.8377  0.1767
  270SOL    HW1  809   0.166   2.919   1.882  0.0258  1.4631 -1.9962
  270SOL    HW2  810   0.072   2.917   2.032  2.3618 -1.3665  0.1655
  271SOL     OW  811   0.429   1.400   1.158  0.5145  0.0692 -0.1836
  271SOL    HW1  812   0.428   1.376   1.054 -1.3656  1.4849 -0.5177
  271SOL    HW2  813   0.341   1.372   1.205  2.3112 -0.7056 -1.5431
  272SOL     OW  814   2.002   2.977   1.939 -0.5355  0.3724  0.6602
  272SOL    HW1  815   1.905   2.950   1.899  0.6202 -1.3894 -2.6828
  272SOL    HW2  816   2.071   3.019   1.874 -2.1795 -0.0507  3.4647
  273SOL     OW  817   1.481   1.465   2.747  0.0943  0.6223 -0.3181
  273SOL    HW1  818   1.394   1.432   2.703  1.3033  0.1650 -1.9218
  273SOL    HW2  819   1.499   1.422   2.838 -2.6623 -0.2993 -1.8610
  274SOL     OW  820   1.169   0.518   2.059 -0.1788  0.1402  0.2317
  274SOL    HW1  821   1.134   0.418   2.045  0.6367 -2.8457 -1.6867
  274SOL    HW2  822   1.215   0.533   2.151  0.8765  0.9965  1.0627
  275SOL     OW  823   0.654   2.133   1.902 -0.2717 -0.0427  0.0797
  275SOL    HW1  824   0.621   2.199   1.977 -0.8945  2.7307  1.5708
  275SOL    HW2  825   0.578   2.090   1.846 -1.2042  1.3441 -0.2889
  276SOL     OW  826   2.191   1.105   2.789 -0.1877 -0.5104  0.0951
  276SOL    HW1  827   2.120   1.125   2.714 -0.1353 -0.9122 -0.2734
  276SOL    HW2  828   2.161   1.028   2.848  0.0543 -0.3917  1.4966
  277SOL     OW  829   0.022   0.805   0.261  0.5459  0.4351  0.4575
  277SOL    HW1  830   0.116   0.847   0.242 -0.4225  1.5624  1.9590
  277SOL    HW2  831   0.030   0.720   0.320  0.6618 -0.5674 -0.1829
  278SOL     OW  832   0.210   0.241   2.937  0.3796 -0.2689  0.2725
  278SOL    HW1  833   0.300   0.194   2.935  0.8261  0.2024  2.3247
  278SOL    HW2  834   0.217   0.339   2.976  1.3257 -1.5480 -1.0185
  279SOL     OW  835   0.259   0.029   0.921  0.6454  0.7937  0.4246
  279SOL    HW1  836   0.283  -0.068   0.951  0.2454 -2.8277 -0.6939
  279SOL    HW2  837   0.322   0.069   0.851  0.2183  0.9426  2.4450
  280SOL     OW  838   1.603   2.966   2.393  0.0009  0.3698 -0.1111
  280SOL    HW1  839   1.650   3.027   2.462 -1.7939  3.6731  0.9444
  280SOL    HW2  840   1.545   3.014   2.318 -2.0135  1.2824  1.4215
  281SOL     OW  841   0.567   0.978   2.284 -0.4272 -0.4005  0.2411
  281SOL    HW1  842   0.594   0.889   2.239  3.1054 -1.1301  2.2266
  281SOL    HW2  843   0.522   0.961   2.379  2.1082 -0.1510  0.6593
  282SOL     OW  844   1.774   2.479   0.509 -0.2577  0.1589  0.5325
  282SOL    HW1  845   1.729   2.403   0.452  0.3626 -0.3365  0.1466
  282SOL    HW2  846   1.725   2.568   0.498  3.0841  1.3954 -1.8922
  283SOL     OW  847   1.181   0.943   0.763 -0.7020 -0.1729  0.0551
  283SOL    HW1  848   1.208   0.892   0.852  2.3265  1.3101  1.4062
  283SOL    HW2  849   1.125   1.029   0.790 -1.5415  0.0495 -0.6479
  284SOL     OW  850   2.235   2.811   2.494 -0.5108  0.3125  0.4517
  284SOL    HW1  851   2.332   2.826   2.447  2.1951  1.5613 -0.0720
  284SOL    HW2  852   2.232   2.836   2.594  1.7683 -1.2983 -1.2496
  285SOL     OW  853   1.403   3.090   2.570 -0.1253  0.4975  0.0231
  285SOL    HW1  854   1.445   3.080   2.473 -1.0000  1.3766 -1.9613
  285SOL    HW2  855   1.303   3.111   2.569  1.9131  0.2352 -1.9623
  286SOL     OW  856   0.427   0.428   0.759  0.2473  0.6507  0.4276
  286SOL    HW1  857   0.380   0.387   0.843 -2.2974  0.9891  0.2296
  286SOL    HW2  858   0.449   0.350   0.697  2.1307 -2.2502  1.5298
  287SOL     OW  859   0.072   1.296   2.566  0.2152  0.1565  0.5208
  287SOL    HW1  860   0.023   1.210   2.604 -4.0733 -0.0766  2.5061
  287SOL    HW2  861   0.041   1.379   2.611  0.5560  0.6326  0.7161
  288SOL     OW  862   1.597   2.734   1.638 -0.1319  0.2255 -0.5547
  288SOL    HW1  863   1.593   2.653   1.705 -0.4477 -2.0327 -1.7758
  288SOL    HW2  864   1.593   2.702   1.540 -1.0991  1.2594  3.6621
  289SOL     OW  865   0.582   2.735   0.861  0.2455 -0.4108  0.4208
  289SOL    HW1  866   0.634   2.801   0.796  0.2733  1.5424  1.9244
  289SOL    HW2  867   0.562   2.783   0.948 -2.4832  0.4386 -1.7921
  290SOL     OW  868   2.821   1.128   1.744 -0.7113 -0.2041 -0.3037
  290SOL    HW1  869   2.759   1.046   1.752 -1.5182  1.3931 -0.9494
  290SOL    HW2  870   2.922   1.110   1.773  2.8499  3.0928 -0.7537
  291SOL     OW  871   1.976   3.087   0.042 -0.3210 -0.1544 -0.1211
  291SOL    HW1  872   1.996   3.130   0.138  0.0532 -3.1299  0.1689
  291SOL    HW2  873   2.049   3.119  -0.027 -1.0796  0.1051 -2.0069
  292SOL     OW  874   3.028   1.239   3.104  0.1618 -0.0929  0.0807
  292SOL    HW1  875   2.930   1.250   3.070  1.0385  2.4056 -0.4139
  292SOL    HW2  876   3.099   1.228   3.023 -1.5309 -1.3602  1.4868
  293SOL     OW  877   0.565   2.149   0.283  0.7351 -0.2193 -0.3658
  293SOL    HW1  878   0.562   2.242   0.329  1.0231 -1.5708 -0.5540
  293SOL    HW2  879   0.658   2.107   0.278  0.3892 -3.5813  2.0159
  294SOL     OW  880   1.815   2.332   1.786  0.0710 -0.1420 -0.1760
  294SOL    HW1  881   1.866   2.347   1.873  2.5648  0.9132  2.1871
  294SOL    HW2  882   1.744   2.407   1.770 -1.3836  0.7745  3.7746
  295SOL     OW  883   0.982   1.042   0.451  0.5099  0.1352 -0.1837
  295SOL    HW1  884   1.075   1.000   0.473 -2.3883 -0.0981 -1.8114
  295SOL    HW2  885   0.917   1.029   0.530 -0.5568  1.1168 -0.1844
  296SOL     OW  886   1.193   2.130   2.723  0.0630 -0.2215  0.4644
  296SOL    HW1  887   1.108   2.192   2.738  0.8802  1.7020  2.9921
  296SOL    HW2  888   1.219   2.094   2.627  0.7261  0.7797  1.6840
  297SOL     OW  889   1.346   0.573   1.282  0.0885  0.3417  0.0998
  297SOL    HW1  890   1.381   0.493   1.343  1.9164 -1.9562 -1.5010
  297SOL    HW2  891   1.431   0.628   1.246  0.3670 -0.7136  1.6401
  298SOL     OW  892   0.520   1.380   2.991  0.1764  0.4310 -0.0578
  298SOL    HW1  893   0.467   1.312   3.053 -0.2316 -1.6142  0.2280
  298SOL    HW2  894   0.582   1.327   2.931 -0.4898  0.7918 -1.9599
  299SOL     OW  895   0.429   0.280   1.305 -0.2546 -0.2422  0.2484
  299SOL    HW1  896   0.371   0.364   1.274 -0.3403  0.2522 -0.5544
  299SOL    HW2  897   0.404   0.238   1.396 -0.6643 -2.7439  2.1603
  300SOL     OW  898   1.271   1.734   2.573 -0.0956 -0.0666  0.1310
  300SOL    HW1  899   1.250   1.646   2.526  1.4177 -1.5348  1.4108
  300SOL    HW2  900   1.358   1.729   2.631 -0.4433  1.5245  1.5051
  301SOL     OW  901   0.445   0.274   0.513 -0.2347 -0.6494 -0.1653
  301SOL    HW1  902   0.351   0.236   0.498  0.7521  2.6901 -1.8379
  301SOL    HW2  903   0.511   0.215   0.456 -3.4009  2.5694 -0.0376
  302SOL     OW  904   1.228   2.456   2.301  0.4964  0.2269 -0.4907
  302SOL    HW1  905   1.133   2.496   2.323  0.5750 -0.2482 -0.9749
  302SOL    HW2  906   1.280   2.415   2.380  2.8686  1.5436  0.8079
  303SOL     OW  907   0.935   2.435   0.817  0.5205 -0.2132 -0.2079
  303SOL    HW1  908   0.988   2.452   0.732  1.1613 -3.0588 -2.7528
  303SOL    HW2  909   0.967   2.475   0.910 -0.1992  1.6033  0.6370
  304SOL     OW  910   0.066   1.911   0.678  0.2863  0.1482  0.0739
  304SOL    HW1  911   0.146   1.925   0.611 -1.8099 -0.2415  2.2074
  304SOL    HW2  912  -0.017   1.962   0.640  0.6077  2.0636 -0.4956
  305SOL     OW  913   1.600   0.879   0.696 -0.0157 -0.7040 -0.1994
  305SOL    HW1  914   1.511   0.886   0.637 -2.0293  0.5989 -0.5611
  305SOL    HW2  915   1.643   0.789   0.718 -0.2687 -0.5691  3.0799
  306SOL     OW  916   0.429   1.949   1.883  0.0522 -0.5289  0.7576
  306SOL    HW1  917   0.498   1.875   1.874 -1.4837  1.6739  0.0960
  306SOL    HW2  918   0.415   1.979   1.980  0.7510  0.2173 -0.9576
  307SOL     OW  919   3.026   0.878   2.492  0.5983  0.2374 -0.5322
  307SOL    HW1  920   3.051   0.942   2.571  1.6536  1.6106 -1.0745
  307SOL    HW2  921   2.952   0.810   2.517 -0.8481  0.7820  1.0598
  308SOL     OW  922   1.577   2.678   2.835 -0.1444  0.2305  0.1115
  308SOL    HW1  923   1.557   2.637   2.738 -2.9186  2.2944 -0.3904
  308SOL    HW2  924   1.529   2.628   2.911  0.0928  1.1300  0.6982
  309SOL     OW  925   1.242   0.154   1.791 -0.0332  0.1108  0.2258
  309SOL    HW1  926   1.346   0.150   1.813  2.1347 -0.0655  0.2578
  309SOL    HW2  927   1.219   0.164   1.690  0.7082 -0.7805 -1.0107
  310SOL     OW  928   1.511   2.574   0.675 -0.1376  0.7007 -0.0135
  310SOL    HW1  929   1.491   2.612   0.761  0.7238 -0.2949 -2.0687
  310SOL    HW2  930   1.567   2.639   0.610 -1.2387  0.4007  0.1915
  311SOL     OW  931   1.148   0.985   1.737  0.2277  0.3097 -0.0781
  311SOL    HW1  932   1.134   0.899   1.792  0.8002  1.6845  0.8618
  311SOL    HW2  933   1.192   0.969   1.648  0.8334  0.1795  0.7660
  312SOL     OW  934   1.545   0.671   1.120 -0.1148 -0.4718 -0.3552
  312SOL    HW1  935   1.572   0.766   1.083  0.1076 -0.5170  3.0772
  312SOL    HW2  936   1.496   0.611   1.053  1.3724  1.0400  0.9061
  313SOL     OW  937   1.614   1.346   0.724  0.8993 -0.4796 -0.1345
  313SOL    HW1  938   1.554   1.344   0.810 -3.4381 -0.1446  2.0406
  313SOL    HW2  939   1.591   1.268   0.661  1.5107  0.4683 -1.0118
  314SOL     OW  940   2.985   3.087   3.092 -0.1283  0.1095 -0.0283
  314SOL    HW1  941   2.969   3.084   3.194 -1.2706 -0.7956 -2.9728
  314SOL    HW2  942   2.908   3.048   3.040  0.2595  0.3624  1.3586
  315SOL     OW  943   1.182   0.247   2.760 -0.3914 -0.1725 -0.1562
  315SOL    HW1  944   1.205   0.174   2.689  0.3551 -1.8300  0.2636
  315SOL    HW2  945   1.154   0.207   2.852  2.0337  1.0387 -0.8065
  316SOL     OW  946   1.740   2.093   0.887 -0.3667 -0.0545 -0.1213
  316SOL    HW1  947   1.684   2.100   0.974  1.1191  0.4458  3.8683
  316SOL    HW2  948   1.737   2.181   0.834 -1.8832 -1.0803  2.0876
  317SOL     OW  949   1.173   0.638   2.758 -0.8066 -0.2756  0.0291
  317SOL    HW1  950   1.113   0.692   2.826 -0.9158 -2.0046  0.5844
  317SOL    HW2  951   1.114   0.577   2.706 -1.1739  0.5096 -1.4222
  318SOL     OW  952   1.431   0.005   2.233 -0.0194  0.0647  0.1420
  318SOL    HW1  953   1.422   0.101   2.201  3.2521 -0.8443 -0.6780
  318SOL    HW2  954   1.355  -0.052   2.203  0.1778  0.5167  1.5530
  319SOL     OW  955   0.661   2.340   2.919  0.2743  0.6263  0.1538
  319SOL    HW1  956   0.610   2.272   2.980  1.7042 -0.5528 -1.7894
  319SOL    HW2  957   0.703   2.293   2.834  1.3395 -2.0950  1.5723
  320SOL     OW  958   1.660   2.255   0.404 -0.1101 -0.5937  0.3934
  320SOL    HW1  959   1.738   2.189   0.421 -4.5687  2.5272 -1.4851
  320SOL    HW2  960   1.575   2.222   0.446  0.6288  1.1407 -1.8601
  321SOL     OW  961   1.675   2.765   0.579  0.1960 -0.1508 -0.2095
  321SOL    HW1  962   1.618   2.815   0.506 -1.7859  1.9730 -1.6402
  321SOL    HW2  963   1.780   2.775   0.570 -0.9211 -0.2926  0.6198
  322SOL     OW  964   2.599   1.126   2.313  0.1373 -0.1700 -0.1179
  322SOL    HW1  965   2.703   1.120   2.329  0.6988  1.0939 -0.9025
  322SOL    HW2  966   2.547   1.040   2.331 -0.8225  2.7489 -0.2378
  323SOL     OW  967   1.164   2.653   0.805  0.0746  0.3778 -0.1785
  323SOL    HW1  968   1.126   2.616   0.710 -1.2205  1.3076 -5.7871
  323SOL    HW2  969   1.142   2.751   0.830 -1.2050  0.4913  0.5415
  324SOL     OW  970   0.221   2.548   2.447 -0.7475 -0.0561 -0.1981
  324SOL    HW1  971   0.153   2.514   2.517 -0.5752  1.7652 -1.1321
  324SOL    HW2  972   0.280   2.633   2.479 -1.1318 -0.0920  0.3425
  325SOL     OW  973   1.217   3.010   0.457 -0.5398  0.2355 -0.0770
  325SOL    HW1  974   1.237   3.052   0.360  1.8838 -1.6484  0.1030
  325SOL    HW2  975   1.256   3.076   0.529 -0.2483  0.3319  0.9484
  326SOL     OW  976   2.471   0.784   0.008 -0.0583  0.1800 -0.5515
  326SOL    HW1  977   2.386   0.738  -0.042 -0.9745 -4.0418 -1.0521
  326SOL    HW2  978   2.520   0.720   0.075  0.3151  0.3064 -1.7362
  327SOL     OW  979   2.792   0.307   0.542 -0.1505 -0.8715 -0.3709
  327SOL    HW1  980   2.789   0.256   0.448  1.0198  0.6131 -0.0797
  327SOL    HW2  981   2.775   0.254   0.630  1.9782 -0.1296 -1.5003
  328SOL     OW  982   2.618   0.640   0.411 -0.5330  0.0366 -0.0254
  328SOL    HW1  983   2.697   0.706   0.431  0.0123 -0.7465  1.3136
  328SOL    HW2  984   2.587   0.585   0.492 -2.3105  0.5716  0.2898
  329SOL     OW  985   2.917   2.961   2.101  0.4597  0.9980 -0.5534
  329SOL    HW1  986   3.001   2.918   2.144 -0.1139  1.7060  1.2511
  329SOL    HW2  987   2.924   3.063   2.108  0.7380 -0.1076  0.3881
  330SOL     OW  988   0.599   0.196   1.932  0.0862  0.5799 -0.2106
  330SOL    HW1  989   0.644   0.146   1.851 -2.7458 -0.8221 -0.1469
  330SOL    HW2  990   0.562   0.126   2.000  1.3231  1.2989 -1.5140
  331SOL     OW  991   3.016   1.908   1.109  0.3770 -0.3415  0.2787
  331SOL    HW1  992   2.982   1.879   1.019 -1.1707  0.5433  3.1586
  331SOL    HW2  993   2.939   1.891   1.177  0.3898 -1.0032 -0.6141
  332SOL     OW  994   0.408   1.178   0.069  0.3596 -0.0027  0.1490
  332SOL    HW1  995   0.344   1.105   0.026  0.2633 -4.0256 -2.4281
  332SOL    HW2  996   0.374   1.221   0.156  0.2812  1.3920  1.0382
  333SOL     OW  997   2.929   0.992   0.364 -0.7208 -0.4377  0.8220
  333SOL    HW1  998   2.962   1.078   0.417  0.0682  1.2844  1.3070
  333SOL    HW2  999   3.016   0.927   0.344 -1.9889 -1.3331 -0.5976
  334SOL     OW 1000   1.701   1.267   1.823 -0.7256 -0.4214 -0.3117
  334SOL    HW1 1001   1.754   1.261   1.738  0.1060  0.7949 -0.4989
  334SOL    HW2 1002   1.750   1.245   1.911 -1.9309 -1.6198  1.0793
  335SOL     OW 1003   1.971   2.740   2.602 -0.1958 -0.2091  0.7558
  335SOL    HW1 1004   1.876   2.767   2.638  0.0965 -1.8448  0.1314
  335SOL    HW2 1005   2.051   2.786   2.654 -1.0027 -1.0031 -0.3326
  336SOL     OW 1006   0.239   0.016   2.702 -0.0732 -0.1601  0.1027
  336SOL    HW1 1007   0.311   0.045   2.769  0.9154 -0.2241 -0.2765
  336SOL    HW2 1008   0.163  -0.040   2.744  2.8046 -0.4266  0.4292
  337SOL     OW 1009   0.930   2.924   2.961 -0.4063 -0.3068  0.3219
  337SOL    HW1 1010   0.890   2.837   3.016 -1.0090 -3.1906  1.0809
  337SOL    HW2 1011   1.034   2.929   2.963  0.0257  2.1952  1.3652
  338SOL     OW 1012   0.041   0.967   0.670 -0.4265 -0.5114 -0.3111
  338SOL    HW1 1013  -0.056   0.934   0.681 -2.8303  1.4710 -0.1056
  338SOL    HW2 1014   0.044   1.072   0.666  0.7526 -0.9529 -1.8307
  339SOL     OW 1015   1.691   1.355   2.171 -0.8360 -0.1887 -0.0797
  339SOL    HW1 1016   1.593   1.378   2.152  2.8497  0.2662  1.4940
  339SOL    HW2 1017   1.747   1.436   2.141 -4.7073 -2.1078 -3.2315
  340SOL     OW 1018   2.232   0.781   1.177 -0.3737  0.3162 -0.2597
  340SOL    HW1 1019   2.134   0.825   1.172 -1.8594 -0.2680  1.8357
  340SOL    HW2 1020   2.237   0.688   1.135  0.9397  1.3316  2.1716
  341SOL     OW 1021   1.911   2.102   0.342 -0.4559 -0.4551  0.3453
  341SOL    HW1 1022   1.944   2.128   0.245 -0.2197 -1.4478 -0.4838
  341SOL    HW2 1023   1.986   2.090   0.410 -0.6542  0.2787 -1.5869
  342SOL     OW 1024   2.168   2.125   2.755 -0.1617 -0.7620 -0.2572
  342SOL    HW1 1025   2.200   2.026   2.759 -1.6423 -1.4959 -0.3530
  342SOL    HW2 1026   2.089   2.140   2.686  1.2999  0.9129  0.0948
  343SOL     OW 1027   0.424   0.778   2.765 -0.1869 -0.1776 -0.4164
  343SOL    HW1 1028   0.443   0.821   2.671  1.1325  0.3213  0.4648
  343SOL    HW2 1029   0.491   0.807   2.840 -0.4345  1.0850  3.0263
  344SOL     OW 1030   1.895   1.498   0.389  0.2204 -0.1403  0.2555
  344SOL    HW1 1031   1.890   1.428   0.313  0.5051  1.2206 -0.1517
  344SOL    HW2 1032   1.801   1.522   0.423  0.5378 -0.1516  1.1825
  345SOL     OW 1033   1.404   2.243   2.869 -0.5839  0.1896  0.2549
  345SOL    HW1 1034   1.327   2.213   2.806  0.1125 -1.9075 -0.4021
  345SOL    HW2 1035   1.483   2.174   2.859  2.0188  0.2382 -3.2030
  346SOL     OW 1036   2.342   0.905   1.400  0.3933 -0.3988  0.0754
  346SOL    HW1 1037   2.300   0.995   1.424  1.8000  1.3717  1.5731
  346SOL    HW2 1038   2.295   0.860   1.316 -1.3950 -0.5756 -2.2290
  347SOL     OW 1039   0.715   2.719   1.613 -0.2269 -0.0774  0.3094
  347SOL    HW1 1040   0.649   2.736   1.695 -1.7179  1.0475  0.3087
  347SOL    HW2 1041   0.667   2.731   1.525  1.3143 -0.4394 -0.2701
  348SOL     OW 1042   0.166   0.790   2.880  0.3001  0.3864 -0.1366
  348SOL    HW1 1043   0.085   0.735   2.837 -1.3576 -2.4170 -0.8771
  348SOL    HW2 1044   0.257   0.776   2.828 -0.7477 -0.6368 -3.0967
  349SOL     OW 1045   1.831   0.459   2.795  0.5431 -0.0025  0.2797
  349SOL    HW1 1046   1.824   0.522   2.714 -0.3669 -0.1919  2.5164
  349SOL    HW2 1047   1.809   0.504   2.885  0.1287  1.8295  0.1023
  350SOL     OW 1048   1.685   0.361   0.359  0.8457 -0.0244 -0.1029
  350SOL    HW1 1049   1.753   0.371   0.438 -1.7315 -0.4107  0.5667
  350SOL    HW2 1050   1.660   0.450   0.318 -1.2781 -2.5302  2.8641
  351SOL     OW 1051   0.935   0.836   2.072  0.0699 -0.0744 -0.6294
  351SOL    HW1 1052   0.963   0.935   2.077  2.1300  2.1972 -1.6867
  351SOL    HW2 1053   0.980   0.790   1.993 -1.0153  1.1765 -0.1374
  352SOL     OW 1054   2.084   1.365   0.573 -0.1726 -0.6680  0.3079
  352SOL    HW1 1055   2.035   1.404   0.492 -1.8374  1.0036  1.6531
  352SOL    HW2 1056   2.030   1.363   0.660 -0.5780  2.9652 -1.3349
  353SOL     OW 1057   2.199   2.803   1.069 -0.6145  0.0664  0.1533
  353SOL    HW1 1058   2.246   2.732   1.129  1.3705  3.5238 -1.9336
  353SOL    HW2 1059   2.118   2.841   1.118  3.4144 -0.2229  1.7261
  354SOL     OW 1060   0.289   1.446   2.869  0.0551 -0.2329 -0.1652
  354SOL    HW1 1061   0.278   1.488   2.773  1.2488  0.1326 -0.3805
  354SOL    HW2 1062   0.393   1.438   2.897  0.6964  0.8623  1.9311
  355SOL     OW 1063   0.743   1.595   0.609  0.5125  0.3135  0.2790
  355SOL    HW1 1064   0.720   1.520   0.678 -3.9898  1.6490  1.1175
  355SOL    HW2 1065   0.701   1.573   0.517 -1.3334 -1.3259  2.0812
  356SOL     OW 1066   0.855   0.300   2.030  0.4653 -0.2890  0.0453
  356SOL    HW1 1067   0.945   0.257   2.035  0.4806 -0.5119 -2.4019
  356SOL    HW2 1068   0.794   0.252   1.963 -0.6987  0.1687  1.7774
  357SOL     OW 1069   1.014   1.336   0.366 -0.5622  0.5085  0.0943
  357SOL    HW1 1070   1.115   1.342   0.336  0.4287 -1.6726  3.1629
  357SOL    HW2 1071   0.994   1.245   0.418 -0.7916  0.3575 -0.9402
  358SOL     OW 1072   1.623   1.525   0.510 -0.2608 -0.1800  0.2597
  358SOL    HW1 1073   1.614   1.459   0.594  1.0355  3.5266  1.6380
  358SOL    HW2 1074   1.570   1.490   0.425 -0.1844  0.3687  0.1327
  359SOL     OW 1075   1.601   2.587   0.287  0.5379 -0.5269  0.4141
  359SOL    HW1 1076   1.556   2.496   0.260  0.4556 -0.2608  1.2275
  359SOL    HW2 1077   1.537   2.647   0.342  2.4694 -0.8755  0.8362
  360SOL     OW 1078   0.780   0.523   0.570  0.5721 -0.0493  0.5435
  360SOL    HW1 1079   0.675   0.516   0.549 -0.5529 -1.4716 -1.8014
  360SOL    HW2 1080   0.828   0.434   0.579 -1.5130 -1.6993  0.9635
  361SOL     OW 1081   1.319   1.268   0.637  0.4156 -0.1172 -0.2398
  361SOL    HW1 1082   1.390   1.325   0.692  1.6307  1.7209 -0.9399
  361SOL    HW2 1083   1.226   1.317   0.633 -2.5137 -0.3900  1.1717
  362SOL     OW 1084   1.380   1.752   0.716 -0.0822  0.2569 -0.3504
  362SOL    HW1 1085   1.411   1.714   0.808 -3.5358  1.1969  1.6317
  362SOL    HW2 1086   1.436   1.833   0.682  2.0779 -0.3897 -0.3142
  363SOL     OW 1087   1.231   1.308   2.065  0.4173  0.2967 -0.0223
  363SOL    HW1 1088   1.307   1.374   2.071  0.1260  0.6804  1.4651
  363SOL    HW2 1089   1.158   1.331   2.130  0.8254 -1.3724 -0.6651
  364SOL     OW 1090   0.527   2.364   2.041  0.6196 -0.0092  0.1827
  364SOL    HW1 1091   0.424   2.375   2.037  0.0033 -1.1723 -1.3139
  364SOL    HW2 1092   0.570   2.400   1.953 -0.3791 -0.8929 -0.2463
  365SOL     OW 1093   1.049   1.992   1.336 -0.3467  0.2488 -0.1331
  365SOL    HW1 1094   0.955   1.958   1.365  0.9033 -0.3298  1.1672
  365SOL    HW2 1095   1.051   2.032   1.239  0.1955  1.6547 -0.9996
  366SOL     OW 1096   2.859   1.944   0.355  0.1506  0.1162 -0.4666
  366SOL    HW1 1097   2.774   1.942   0.299 -2.2382 -1.5697 -1.1486
  366SOL    HW2 1098   2.909   1.851   0.349  0.8992 -0.2421 -1.5816
  367SOL     OW 1099   0.940   1.180   0.027 -0.4109  0.2262 -0.1049
  367SOL    HW1 1100   0.930   1.112   0.106 -3.6554 -1.5062  0.1914
  367SOL    HW2 1101   1.003   1.260   0.046 -1.4647  1.3367 -1.6543
  368SOL     OW 1102   1.466   0.526   0.579  0.4004  0.6670 -0.7459
  368SOL    HW1 1103   1.407   0.592   0.518 -1.6614  2.5082 -0.8607
  368SOL    HW2 1104   1.561   0.570   0.594  0.8969  1.3351  1.2489
  369SOL     OW 1105   0.386   1.725   0.179  0.3989 -0.3806 -0.3618
  369SOL    HW1 1106   0.442   1.780   0.246 -0.6600 -1.5585 -2.6167
  369SOL    HW2 1107   0.295   1.689   0.215 -0.4059  2.3294  0.5269
  370SOL     OW 1108   0.411   2.099   1.035 -0.8248  0.4170  0.0258
  370SOL    HW1 1109   0.451   2.196   1.038  0.5623  0.8804  0.7430
  370SOL    HW2 1110   0.322   2.097   0.992  0.3533 -2.0261 -1.2803
  371SOL     OW 1111   2.867   2.221   2.639  0.4315  0.2439  0.4395
  371SOL    HW1 1112   2.823   2.152   2.706 -0.9005 -2.2664  0.8735
  371SOL    HW2 1113   2.922   2.293   2.687 -0.7977  1.4879  0.7226
  372SOL     OW 1114   1.059   2.095   1.064 -0.0966  0.5739  1.1191
  372SOL    HW1 1115   0.962   2.118   1.035 -0.2879 -2.0521  0.1994
  372SOL    HW2 1116   1.129   2.150   1.013 -0.8286  1.1824  1.1066
  373SOL     OW 1117   1.929   1.907   0.993 -0.1440 -0.1219 -0.1057
  373SOL    HW1 1118   2.019   1.950   1.025 -1.5141  1.7747 -0.8962
  373SOL    HW2 1119   1.857   1.970   0.952  1.6810  0.5864  3.3507
  374SOL     OW 1120   1.859   0.413   0.565 -0.0911  0.1801  0.0562
  374SOL    HW1 1121   1.849   0.381   0.666  0.9147  0.6807  0.4104
  374SOL    HW2 1122   1.956   0.415   0.546 -0.5004 -0.3497 -0.5871
  375SOL     OW 1123   2.390   2.191   1.086 -0.2824  0.4727  0.8857
  375SOL    HW1 1124   2.439   2.158   1.002 -0.0748 -0.2392  1.5594
  375SOL    HW2 1125   2.450   2.186   1.169 -0.2172  2.1100 -1.7133
  376SOL     OW 1126   3.053   0.547   1.408  0.3361  0.5466 -0.8846
  376SOL    HW1 1127   3.023   0.598   1.491 -1.1651 -1.5580  1.3859
  376SOL    HW2 1128   3.013   0.451   1.409  1.3842  3.0777 -0.0647
  377SOL     OW 1129   2.166   2.929   0.310 -0.2182 -0.1298 -0.1177
  377SOL    HW1 1130   2.181   3.032   0.298 -0.3318  1.0772  1.0454
  377SOL    HW2 1131   2.254   2.883   0.346 -0.6477  0.9915  0.0418
  378SOL     OW 1132   1.745   1.829   2.524  0.1655  0.2720  0.0227
  378SOL    HW1 1133   1.838   1.867   2.488  1.6296  1.8048 -2.9310
  378SOL    HW2 1134   1.711   1.759   2.455 -2.5465  1.6830 -1.7760
  379SOL     OW 1135   0.728   0.148   2.828  0.3855  0.0918 -0.2718
  379SOL    HW1 1136   0.782   0.067   2.784  0.6643  0.9053 -1.4655
  379SOL    HW2 1137   0.706   0.221   2.761  3.9678 -2.5346 -1.3060
  380SOL     OW 1138   1.578   1.148   0.539 -0.2426 -0.0807 -0.1507
  380SOL    HW1 1139   1.483   1.174   0.512 -0.0772 -0.5561 -0.9117
  380SOL    HW2 1140   1.579   1.049   0.567 -0.5352  1.7617  0.6208
  381SOL     OW 1141   1.357   1.207   1.577  0.1382  0.2845  0.1777
  381SOL    HW1 1142   1.391   1.130   1.513 -0.3132  1.8358  0.0938
  381SOL    HW2 1143   1.426   1.279   1.608  0.1228  1.4750  3.4376
  382SOL     OW 1144   1.829   0.896   0.226 -0.0502  0.0732  0.4403
  382SOL    HW1 1145   1.857   0.871   0.130 -0.3768 -0.1573  0.8741
  382SOL    HW2 1146   1.905   0.873   0.292  0.0537 -0.0550 -0.8561
  383SOL     OW 1147   2.597   1.000   1.489 -0.3660 -0.3662  0.1776
  383SOL    HW1 1148   2.504   0.962   1.465  3.4664  1.4125  0.2857
  383SOL    HW2 1149   2.657   1.018   1.405 -0.3353  0.0463  0.7392
  384SOL     OW 1150   0.876   2.233   0.167 -0.4361 -0.1302 -0.6676
  384SOL    HW1 1151   0.827   2.317   0.204 -0.8453 -0.1478 -2.2454
  384SOL    HW2 1152   0.888   2.159   0.238 -1.3660  0.9749  0.9529
  385SOL     OW 1153   2.970   1.993   1.658 -0.5054 -0.1562  0.3304
  385SOL    HW1 1154   3.035   2.067   1.623  0.3258  3.6479 -3.4015
  385SOL    HW2 1155   3.014   1.898   1.670  0.1046 -1.2301 -0.9326
  386SOL     OW 1156   0.472   1.077   0.467 -0.4041 -0.0375  0.1723
  386SOL    HW1 1157   0.465   0.969   0.476 -0.3970 -0.7177 -0.3118
  386SOL    HW2 1158   0.397   1.123   0.414 -0.8866 -0.2842 -1.9277
  387SOL     OW 1159   0.910   0.395   1.654 -0.2889 -0.9433  0.0017
  387SOL    HW1 1160   0.962   0.487   1.661  3.3846  0.6664 -3.0499
  387SOL    HW2 1161   0.904   0.365   1.555 -3.7002  0.3345  0.3191
  388SOL     OW 1162   1.190   2.731   1.747  0.1586  0.1095  0.1776
  388SOL    HW1 1163   1.175   2.752   1.647 -2.8547 -0.7638 -1.4683
  388SOL    HW2 1164   1.258   2.650   1.765  0.6181 -1.8571 -0.8209
  389SOL     OW 1165   0.125   2.973   1.272 -0.3282 -0.3835  0.9560
  389SOL    HW1 1166   0.030   2.990   1.238 -0.9167 -1.5512  0.6891
  389SOL    HW2 1167   0.151   2.877   1.273 -1.8721  1.7853 -0.2454
  390SOL     OW 1168   1.064   0.971   1.301 -0.0137  0.2333  0.0391
  390SOL    HW1 1169   1.141   0.975   1.372  1.7549  0.1252  0.4367
  390SOL    HW2 1170   0.979   1.013   1.339  2.5990  0.9495  1.9255
  391SOL     OW 1171   2.182   1.112   1.084 -0.1105  0.0479  0.0617
  391SOL    HW1 1172   2.128   1.026   1.123 -2.6065 -1.2420 -2.4325
  391SOL    HW2 1173   2.223   1.091   0.992 -0.5725  0.8489  0.9549
  392SOL     OW 1174   0.886   2.647   3.038  0.6141 -0.5140  0.0724
  392SOL    HW1 1175   0.980   2.621   3.018 -2.0516  1.6952 -1.4185
  392SOL    HW2 1176   0.847   2.590   3.119  1.7417  0.0889 -1.3665
  393SOL     OW 1177   0.349   0.541   1.980 -0.5407 -0.7180 -0.0564
  393SOL    HW1 1178   0.306   0.444   1.988 -0.5628 -1.8646  1.4336
  393SOL    HW2 1179   0.422   0.546   1.911 -2.0336  2.9084  1.5073
  394SOL     OW 1180   2.985   1.931   2.795  0.4993  0.3778 -0.1402
  394SOL    HW1 1181   3.063   1.986   2.839  1.5712  2.7594  1.4588
  394SOL    HW2 1182   2.985   1.932   2.692  0.6328 -0.6042  0.3033
  395SOL     OW 1183   1.597   1.987   0.666  0.0420 -0.3344 -0.0156
  395SOL    HW1 1184   1.660   1.921   0.620 -0.0652 -0.0727 -0.2585
  395SOL    HW2 1185   1.640   2.026   0.750 -0.4518  1.0154 -1.0276
  396SOL     OW 1186   2.819   1.837   1.271  0.0608 -0.5442  0.1430
  396SOL    HW1 1187   2.781   1.742   1.290  0.2533 -0.5626  0.7840
  396SOL    HW2 1188   2.796   1.912   1.334 -0.1732 -0.0516 -0.5936
  397SOL     OW 1189   1.028   2.226   0.497  0.1227  0.3432  0.2058
  397SOL    HW1 1190   0.950   2.198   0.563 -4.6783  1.2966 -0.2042
  397SOL    HW2 1191   1.047   2.325   0.503 -2.1035  0.3369 -2.0740
  398SOL     OW 1192   2.164   0.007   1.006 -0.0501 -0.1959 -0.2173
  398SOL    HW1 1193   2.178  -0.084   1.057  0.3987  0.9935  3.6085
  398SOL    HW2 1194   2.077   0.053   1.035  0.1676  0.6084 -0.6931
  399SOL     OW 1195   3.088   2.440   2.565  0.6881 -0.1050  0.0297
  399SOL    HW1 1196   3.004   2.380   2.546 -1.6243 -2.5280  0.0643
  399SOL    HW2 1197   3.146   2.397   2.637 -1.5885  1.4642  1.0217
  400SOL     OW 1198   0.809   1.639   1.359  0.1598 -0.0996  0.4470
  400SOL    HW1 1199   0.733   1.686   1.416  0.8623  2.2523  1.5055
  400SOL    HW2 1200   0.808   1.664   1.261  1.2064  1.6059  2.9108
  401SOL     OW 1201   1.865   0.100   1.268 -0.0913  0.2652 -0.6628
  401SOL    HW1 1202   1.893   0.100   1.364 -1.2032  0.3915 -0.9986
  401SOL    HW2 1203   1.767   0.129   1.261  0.3738 -1.3803  0.6560
  402SOL     OW 1204   1.298   0.135   3.093  0.3068 -0.0801 -0.1199
  402SOL    HW1 1205   1.379   0.124   3.027 -2.8397  0.0766 -0.4962
  402SOL    HW2 1206   1.253   0.229   3.089  0.1426 -2.3830 -2.0557
  403SOL     OW 1207   2.276   1.771   0.961 -0.5891  0.4555 -0.7825
  403SOL    HW1 1208   2.382   1.784   0.975 -0.2657  0.0175 -1.5168
  403SOL    HW2 1209   2.225   1.858   0.990  1.3087 -0.3469  1.4787
  404SOL     OW 1210   0.168   2.473   2.801  0.3425 -0.0968  0.7235
  404SOL    HW1 1211   0.268   2.448   2.796 -0.8647  2.0976 -1.8737
  404SOL    HW2 1212   0.148   2.566   2.833 -0.0531 -0.2076 -1.3380
  405SOL     OW 1213   0.127   2.466   0.697 -0.3608  0.6842  0.0728
  405SOL    HW1 1214   0.125   2.390   0.620  0.1182 -1.4246 -1.0012
  405SOL    HW2 1215   0.195   2.540   0.670  0.1399  4.1370 -1.9836
  406SOL     OW 1216   0.084   1.524   3.038 -0.2467 -0.1341  0.2541
  406SOL    HW1 1217   0.160   1.489   2.974 -1.2192  2.0192  1.2551
  406SOL    HW2 1218   0.127   1.561   3.124 -0.1225  4.0639  2.2920
  407SOL     OW 1219   1.538   0.931   1.009  0.4578  0.5048 -0.3825
  407SOL    HW1 1220   1.512   0.927   0.911  0.6353  2.1854  1.3571
  407SOL    HW2 1221   1.475   0.996   1.068 -4.5201  0.6942  1.7287
  408SOL     OW 1222   1.611   2.445   0.964 -0.2369  0.1869  0.1748
  408SOL    HW1 1223   1.666   2.424   0.882  0.5714  0.7009  0.7000
  408SOL    HW2 1224   1.533   2.512   0.946  1.0549  1.0700  0.9876
  409SOL     OW 1225   0.635   0.832   0.757  0.3436  0.0200  0.1944
  409SOL    HW1 1226   0.554   0.817   0.695  1.5613  1.8392 -0.6275
  409SOL    HW2 1227   0.681   0.746   0.800  1.6179  1.0910 -1.0865
  410SOL     OW 1228   1.313   2.018   1.391 -0.2093 -0.0375 -0.1472
  410SOL    HW1 1229   1.360   1.952   1.452  0.0848 -2.7036  1.1887
  410SOL    HW2 1230   1.215   2.000   1.374  3.4807  0.0116 -0.4121
  411SOL     OW 1231   2.627   1.900   3.044  0.5622 -0.1265 -0.8512
  411SOL    HW1 1232   2.559   1.944   2.978  1.4469 -0.1976 -0.9773
  411SOL    HW2 1233   2.688   1.832   2.998 -0.0596  0.0957  1.0904
  412SOL     OW 1234   1.484   2.478   2.175  0.2007  0.0567  0.1065
  412SOL    HW1 1235   1.517   2.576   2.156 -0.8696  1.2284 -1.9460
  412SOL    HW2 1236   1.387   2.464   2.207 -0.1468 -0.3618  0.2978
  413SOL     OW 1237   3.025   0.226   2.914 -0.1307  0.0801 -0.1042
  413SOL    HW1 1238   3.012   0.146   2.977 -3.8613  0.9203 -0.2335
  413SOL    HW2 1239   3.123   0.244   2.891 -0.3953  1.6733  2.0740
  414SOL     OW 1240   1.904   1.548   1.202 -0.3354  0.7281 -0.1694
  414SOL    HW1 1241   1.875   1.635   1.156 -0.0530 -1.6896  2.1377
  414SOL    HW2 1242   1.823   1.479   1.197  0.4096 -3.2474 -2.0553
  415SOL     OW 1243   0.345   2.233   0.726  0.4376 -0.2990  0.8113
  415SOL    HW1 1244   0.329   2.335   0.721  2.8019  1.4812 -2.1610
  415SOL    HW2 1245   0.275   2.177   0.789  0.1394  0.2130  2.0391
  416SOL     OW 1246   0.374   1.080   1.053 -0.2983  0.0318  0.2009
  416SOL    HW1 1247   0.347   1.016   0.970 -2.5326 -0.8670  0.4489
  416SOL    HW2 1248   0.460   1.142   1.039  1.7710  0.2258 -1.4581
  417SOL     OW 1249   2.235   2.305   2.018 -0.1088 -0.0118 -0.3505
  417SOL    HW1 1250   2.308   2.235   2.042 -0.6601  2.3768  2.1811
  417SOL    HW2 1251   2.145   2.262   2.018  2.6928 -1.0658 -3.4922
  418SOL     OW 1252   1.086   0.574   1.340 -0.4673  0.7320  0.0874
  418SOL    HW1 1253   1.039   0.504   1.278 -0.8441  0.1207 -2.2460
  418SOL    HW2 1254   1.184   0.579   1.312 -0.1635 -1.7345 -1.8598
  419SOL     OW 1255   0.967   0.505   2.985  0.5956  0.4939 -0.6669
  419SOL    HW1 1256   0.909   0.496   2.902  3.3195 -1.8020  1.6723
  419SOL    HW2 1257   1.008   0.600   2.996  0.2056 -3.1701  0.2357
  420SOL     OW 1258   0.098   2.264   0.513 -0.2128 -0.1892  0.1337
  420SOL    HW1 1259   0.177   2.217   0.469 -0.1330  0.3150  0.5439
  420SOL    HW2 1260   0.032   2.192   0.551 -0.2561 -0.5617 -0.9062
  421SOL     OW 1261   0.312   2.996   0.645 -0.1420 -0.4520  0.0470
  421SOL    HW1 1262   0.292   2.918   0.714  0.7824  0.0214 -0.3594
  421SOL    HW2 1263   0.413   3.019   0.645 -0.3012  0.8765  0.3181
  422SOL     OW 1264   1.031   2.547   1.034 -0.4871  0.5801  0.1810
  422SOL    HW1 1265   1.074   2.598   0.953  0.9101 -0.3937 -1.4136
  422SOL    HW2 1266   1.047   2.590   1.126  1.7143  0.4932 -2.3818
  423SOL     OW 1267   0.133   0.707   1.285  0.4137  0.3728 -0.4884
  423SOL    HW1 1268   0.068   0.640   1.331 -2.6814  1.8474  1.6171
  423SOL    HW2 1269   0.076   0.778   1.242  0.4067 -1.7505 -1.8224
  424SOL     OW 1270   1.022   2.229   2.035  0.6891 -0.5863 -0.2251
  424SOL    HW1 1271   1.053   2.325   2.020  1.2879 -1.8070  1.6871
  424SOL    HW2 1272   1.015   2.205   2.134 -0.9713  0.3705  0.7250
  425SOL     OW 1273   1.989   1.294   1.002  0.0124 -0.2770 -0.2742
  425SOL    HW1 1274   2.047   1.217   1.038 -0.0321 -0.3919  1.0792
  425SOL    HW2 1275   2.034   1.388   0.986 -1.4868 -0.4884  1.1865
  426SOL     OW 1276   1.513   1.606   1.377  0.8425  0.1492  0.1141
  426SOL    HW1 1277   1.497   1.676   1.307  0.2732 -0.9760  1.9231
  426SOL    HW2 1278   1.438   1.607   1.454 -2.0047 -0.3281 -1.1548
  427SOL     OW 1279   1.935   2.353   2.072  0.5248 -0.3507  0.0845
  427SOL    HW1 1280   1.980   2.287   2.131 -0.1504  0.4933 -0.7521
  427SOL    HW2 1281   1.923   2.449   2.114  0.6485 -1.0780 -0.5011
  428SOL     OW 1282   0.870   3.070   0.166  0.8941 -0.9328 -0.2229
  428SOL    HW1 1283   0.884   3.135   0.083  1.3047  0.2190 -1.0146
  428SOL    HW2 1284   0.944   2.995   0.173 -0.7904 -0.4559  0.8044
  429SOL     OW 1285   1.316   0.076   0.258  0.6091  0.2183 -0.0278
  429SOL    HW1 1286   1.416   0.093   0.288  1.8859  0.5854 -1.1049
  429SOL    HW2 1287   1.308   0.085   0.152 -2.1221 -0.7964 -1.2706
  430SOL     OW 1288   2.810   1.417   0.312  0.4543 -0.1752 -0.4340
  430SOL    HW1 1289   2.817   1.455   0.220  4.7298 -0.9324  2.9631
  430SOL    HW2 1290   2.859   1.476   0.388  0.8617 -1.0364  1.7219
  431SOL     OW 1291   2.119   1.552   0.881 -0.2858 -0.3772  0.5709
  431SOL    HW1 1292   2.201   1.611   0.897  0.1605 -1.0788  0.2692
  431SOL    HW2 1293   2.040   1.609   0.839 -1.0409 -0.3463  2.7216
  432SOL     OW 1294   2.891   2.247   1.177  0.6514  0.0927 -0.6067
  432SOL    HW1 1295   2.911   2.151   1.148 -2.2159  0.2057  1.2250
  432SOL    HW2 1296   2.937   2.284   1.261  0.4329  1.5469 -3.8362
  433SOL     OW 1297   1.824   0.335   0.833 -0.5007 -0.8040 -0.0084
  433SOL    HW1 1298   1.745   0.376   0.882  3.4397 -0.1902 -5.0384
  433SOL    HW2 1299   1.880   0.270   0.890  0.8116 -0.8995  1.0734
  434SOL     OW 1300   1.521   0.293   0.697  0.6934  0.1392 -0.1065
  434SOL    HW1 1301   1.490   0.382   0.655  1.0588 -0.9777  1.7704
  434SOL    HW2 1302   1.538   0.299   0.801 -1.7138  2.6508  0.3565
  435SOL     OW 1303   1.438   1.504   2.082 -0.1712  0.2858  0.1217
  435SOL    HW1 1304   1.451   1.564   2.165  0.2992  0.3431 -0.2173
  435SOL    HW2 1305   1.483   1.532   1.999 -0.1682 -2.0280  1.0978
  436SOL     OW 1306   1.700   2.735   2.281 -0.2806  0.0419  0.4455
  436SOL    HW1 1307   1.657   2.810   2.338  0.6160 -1.6726 -0.3410
  436SOL    HW2 1308   1.729   2.650   2.334  1.4214 -0.7571  1.1398
  437SOL     OW 1309   1.098   2.938   0.950  0.2901 -0.6997 -0.0570
  437SOL    HW1 1310   1.028   2.994   0.895  2.7734  0.9311 -2.2007
  437SOL    HW2 1311   1.102   2.963   1.051 -3.6533 -0.0201 -0.5396
  438SOL     OW 1312   0.992   2.600   1.322 -0.1405 -0.0109  0.1833
  438SOL    HW1 1313   1.076   2.641   1.372  0.7367  1.6566  1.7900
  438SOL    HW2 1314   0.988   2.500   1.325 -1.5313  2.2794  0.3358
  439SOL     OW 1315   0.682   1.776   1.101  0.1852 -0.0545  0.4357
  439SOL    HW1 1316   0.672   1.864   1.048 -0.0927 -1.7956 -0.6193
  439SOL    HW2 1317   0.605   1.758   1.172  0.0311 -0.3119 -0.2407
  440SOL     OW 1318   1.033   2.523   1.948 -0.1064  0.6423  0.1630
  440SOL    HW1 1319   1.001   2.545   1.854  2.9608 -0.6530 -1.2028
  440SOL    HW2 1320   1.137   2.536   1.948  3.0411 -0.8656 -1.0766
  441SOL     OW 1321   0.512   2.722   1.424  0.6273  0.0059 -0.0774
  441SOL    HW1 1322   0.569   2.639   1.437 -1.6150  1.2843 -2.8817
  441SOL    HW2 1323   0.410   2.699   1.406 -3.5658 -0.9459  0.4921
  442SOL     OW 1324   2.261   0.722   2.507 -0.2125  0.1537 -0.2836
  442SOL    HW1 1325   2.271   0.624   2.536 -0.6112  0.8226  0.0317
  442SOL    HW2 1326   2.167   0.740   2.462  0.4096  2.2020 -1.2204
  443SOL     OW 1327   1.220   2.718   2.146 -0.3241 -0.2978  1.0006
  443SOL    HW1 1328   1.205   2.794   2.219 -2.2799 -1.0515  0.0502
  443SOL    HW2 1329   1.178   2.628   2.161  3.4124  0.6304 -0.3299
  444SOL     OW 1330   1.093   1.266   1.583  0.0345  0.2357 -0.2580
  444SOL    HW1 1331   1.193   1.250   1.566  1.1220 -1.6114 -1.0960
  444SOL    HW2 1332   1.071   1.329   1.662 -1.4896 -1.2017  1.4906
  445SOL     OW 1333   0.021   2.324   1.881 -0.0068 -0.6610  0.5810
  445SOL    HW1 1334   0.017   2.428   1.856 -1.8281 -1.0865 -0.0962
  445SOL    HW2 1335  -0.066   2.297   1.934  0.4832 -0.8289  0.5756
  446SOL     OW 1336   0.206   1.913   2.318 -0.1550 -0.5245 -0.0383
  446SOL    HW1 1337   0.166   1.999   2.359 -0.5213  1.6166  0.3084
  446SOL    HW2 1338   0.164   1.880   2.228 -0.1469 -2.3723 -2.3723
  447SOL     OW 1339   1.199   1.680   1.939  0.6337 -0.2428 -0.1928
  447SOL    HW1 1340   1.123   1.749   1.931  2.7280  0.3651 -0.1422
  447SOL    HW2 1341   1.282   1.702   1.878  1.2750 -0.0030 -0.9665
  448SOL     OW 1342   0.169   1.551   2.046  0.1054 -0.0197 -0.4523
  448SOL    HW1 1343   0.186   1.638   1.995  0.4370  3.1578  1.3676
  448SOL    HW2 1344   0.138   1.575   2.146  0.1961  1.0927  3.3686
  449SOL     OW 1345   1.981   2.951   0.823  0.4700 -0.1574  0.2578
  449SOL    HW1 1346   2.054   2.991   0.885 -0.7948  0.4608 -0.9748
  449SOL    HW2 1347   1.983   2.852   0.792 -1.3759  0.7071 -1.8815
  450SOL     OW 1348   2.326   1.333   0.770 -0.4111 -0.2095  0.1864
  450SOL    HW1 1349   2.297   1.238   0.798 -2.6398 -0.2008 -1.0262
  450SOL    HW2 1350   2.250   1.392   0.741  3.5033  1.2114  2.3872
  451SOL     OW 1351   1.383  -0.002   1.435  0.7601 -0.1549  0.4735
  451SOL    HW1 1352   1.318   0.079   1.449  1.2356  0.5637 -0.4333
  451SOL    HW2 1353   1.418  -0.040   1.527 -2.2119 -0.0959 -0.4853
  452SOL     OW 1354   2.656   2.301   2.183  0.0122  0.3226  0.7022
  452SOL    HW1 1355   2.585   2.366   2.221 -0.0962  0.0510 -1.0587
  452SOL    HW2 1356   2.697   2.245   2.259 -0.1876  0.4774  0.3075
  453SOL     OW 1357   2.437   2.674   3.059 -0.1655  0.0467  0.6149
  453SOL    HW1 1358   2.363   2.715   3.119 -2.0759  0.9885 -0.2483
  453SOL    HW2 1359   2.405   2.613   2.983 -1.0553  1.0680 -1.5749
  454SOL     OW 1360   1.022   1.096   2.084 -0.7484 -0.4321  0.3274
  454SOL    HW1 1361   0.978   1.114   1.988 -0.4101  0.0724  1.2564
  454SOL    HW2 1362   1.112   1.149   2.088 -2.5742 -0.2152 -1.9887
  455SOL     OW 1363   0.649   2.607   2.898  0.4439 -0.1754 -0.1069
  455SOL    HW1 1364   0.716   2.656   2.962  3.9463  1.0016 -1.8141
  455SOL    HW2 1365   0.647   2.504   2.917  0.0181  0.5641 -0.4131
  456SOL     OW 1366   0.494   1.900   0.386 -0.4831 -0.6604  0.1962
  456SOL    HW1 1367   0.587   1.875   0.438  0.1906 -0.3780 -0.5361
  456SOL    HW2 1368   0.502   1.995   0.344  1.4366 -0.8449  1.2451
  457SOL     OW 1369   0.356   2.614   0.723  0.5624 -0.5313 -0.0078
  457SOL    HW1 1370   0.361   2.642   0.626 -4.1093  1.7114  2.1901
  457SOL    HW2 1371   0.446   2.640   0.775  0.1330 -0.4197 -1.3160
  458SOL     OW 1372   2.966   3.059   1.211  0.7035 -0.4863  0.1518
  458SOL    HW1 1373   3.013   3.139   1.159 -0.6433 -0.7983 -1.0422
  458SOL    HW2 1374   2.966   2.975   1.148  0.0336 -1.1201  2.4591
  459SOL     OW 1375   2.191   2.534   0.838 -0.8817  0.4310  1.1164
  459SOL    HW1 1376   2.240   2.604   0.899  1.4476  0.6286  0.6680
  459SOL    HW2 1377   2.244   2.515   0.753 -0.0018 -2.3641 -0.5031
  460SOL     OW 1378   1.141   1.944   2.937  0.0455  0.1228 -0.1547
  460SOL    HW1 1379   1.196   2.005   2.875  0.6308  1.6162  0.7577
  460SOL    HW2 1380   1.203   1.868   2.974  1.5821 -2.0998  1.2873
  461SOL     OW 1381   0.481   2.136   2.675 -0.2043  0.4364 -0.1409
  461SOL    HW1 1382   0.433   2.057   2.629 -0.9491 -2.0913  1.7500
  461SOL    HW2 1383   0.528   2.110   2.766 -0.1530 -0.4327  0.1378
  462SOL     OW 1384   0.933   1.154   1.836  0.1711  0.6113  0.2615
  462SOL    HW1 1385   1.020   1.110   1.793  1.6517 -2.3145 -1.0985
  462SOL    HW2 1386   0.900   1.242   1.796  1.0826 -1.5822  2.7928
  463SOL     OW 1387   0.455   0.778   0.536 -0.3309  0.1551  0.1985
  463SOL    HW1 1388   0.479   0.685   0.497  3.0024 -0.3818 -1.0645
  463SOL    HW2 1389   0.355   0.781   0.568  0.4754  2.7209  0.5782
  464SOL     OW 1390   0.593   2.222   2.281  0.2711  0.2538 -0.0836
  464SOL    HW1 1391   0.603   2.286   2.362 -1.1137 -1.2776  1.9416
  464SOL    HW2 1392   0.537   2.264   2.209  1.5960 -0.1614  1.8616
  465SOL     OW 1393   0.283   0.907   0.828 -0.0015 -0.3463  0.1189
  465SOL    HW1 1394   0.194   0.952   0.797  0.7073 -1.9067  1.0876
  465SOL    HW2 1395   0.280   0.805   0.816 -1.1345 -0.9364  0.8284
  466SOL     OW 1396   1.356   1.128   1.162  0.2283 -0.5680 -0.6080
  466SOL    HW1 1397   1.403   1.209   1.214 -0.7963  0.1554  3.5820
  466SOL    HW2 1398   1.254   1.133   1.168  1.6849 -0.2005 -2.1587
  467SOL     OW 1399   0.508   0.318   2.324  0.1300 -0.1433  0.0611
  467SOL    HW1 1400   0.486   0.403   2.381 -2.0370 -1.4427  1.0985
  467SOL    HW2 1401   0.494   0.227   2.371 -0.8493  0.1072 -0.9444
  468SOL     OW 1402   0.448   2.317   1.685 -0.6633  0.2781 -0.7955
  468SOL    HW1 1403   0.530   2.374   1.714 -0.8707 -2.8043  2.8150
  468SOL    HW2 1404   0.441   2.303   1.582  1.6972  0.4504  1.6183
  469SOL     OW 1405   1.499   1.336   1.283  0.1145 -0.2114  0.2472
  469SOL    HW1 1406   1.592   1.292   1.276 -1.3739  1.5666 -3.2853
  469SOL    HW2 1407   1.493   1.430   1.325 -1.5484  0.6800  2.6005
  470SOL     OW 1408   3.025   1.688   0.760 -0.5233 -0.4072 -0.3579
  470SOL    HW1 1409   3.095   1.762   0.730 -1.5808  4.0563 -0.0441
  470SOL    HW2 1410   2.948   1.721   0.823 -2.0220 -0.9035 -3.0568
  471SOL     OW 1411   2.635   1.369   2.139  0.0767  0.1848  0.0133
  471SOL    HW1 1412   2.614   1.293   2.207 -0.2375 -0.6537  0.9669
  471SOL    HW2 1413   2.728   1.407   2.162 -2.0612  1.6761 -1.0840
  472SOL     OW 1414   1.125   2.466   3.061 -0.5881 -0.3016 -0.1852
  472SOL    HW1 1415   1.147   2.481   3.161  1.6491 -1.1327 -0.4783
  472SOL    HW2 1416   1.078   2.375   3.055  1.3067  0.0441  1.3933
  473SOL     OW 1417   1.054   1.501   0.928 -0.5523 -0.5708 -0.4595
  473SOL    HW1 1418   0.959   1.515   0.970  0.9558  0.6527 -3.2264
  473SOL    HW2 1419   1.126   1.497   1.001 -0.4977  2.2387  3.6719
  474SOL     OW 1420   0.747   1.236   0.623  0.6853 -0.1502 -0.2842
  474SOL    HW1 1421   0.728   1.250   0.523  2.8097 -1.4150 -1.3762
  474SOL    HW2 1422   0.807   1.156   0.643  0.3799  1.9234  0.6996
  475SOL     OW 1423   2.836   0.159   0.763 -0.4327 -0.4513 -0.0282
  475SOL    HW1 1424   2.915   0.200   0.814 -1.0913 -1.3689 -2.4538
  475SOL    HW2 1425   2.752   0.166   0.821  0.7465 -0.1844 -0.8858
  476SOL     OW 1426   0.899   2.983   1.783  0.8025  0.0813  0.1804
  476SOL    HW1 1427   0.952   2.932   1.857 -1.3091  1.6377 -0.8548
  476SOL    HW2 1428   0.899   2.934   1.692  0.5974  1.2122  1.7208
  477SOL     OW 1429   1.430   0.335   2.499 -0.1096  0.0706 -0.2880
  477SOL    HW1 1430   1.423   0.352   2.601 -2.7595 -0.2706 -2.0507
  477SOL    HW2 1431   1.491   0.256   2.468 -2.1033 -3.1763 -1.4863
  478SOL     OW 1432   2.249   1.835   0.250  0.1480 -0.5376 -0.4682
  478SOL    HW1 1433   2.185   1.752   0.241  2.1032  0.6722  0.7379
  478SOL    HW2 1434   2.344   1.825   0.211  1.2607  1.5374 -0.6079
  479SOL     OW 1435   1.278   1.072   2.919 -0.7127 -0.2694 -0.5478
  479SOL    HW1 1436   1.344   1.082   2.839 -2.2545 -0.7887 -4.1830
  479SOL    HW2 1437   1.186   1.083   2.882  1.7769  2.3564 -3.4300
  480SOL     OW 1438   2.507   2.303   0.384  0.3338 -0.1549  0.1422
  480SOL    HW1 1439   2.480   2.202   0.365  1.9284 -1.0141 -0.8386
  480SOL    HW2 1440   2.452   2.375   0.337  0.0109 -2.1158 -1.1534
  481SOL     OW 1441   1.041   1.176   0.828  0.4551  0.7197 -0.0756
  481SOL    HW1 1442   1.040   1.263   0.769 -1.2083  1.3297  0.7585
  481SOL    HW2 1443   1.043   1.189   0.932 -0.2103 -2.2455 -0.3436
  482SOL     OW 1444   1.594   0.321   2.025  0.1143  0.1005  0.0333
  482SOL    HW1 1445   1.603   0.426   2.007 -0.6983  2.3665  1.2900
  482SOL    HW2 1446   1.667   0.284   2.087 -0.9607  2.5908 -4.2378
  483SOL     OW 1447   0.189   2.380   1.267  0.2147  0.3998  0.0655
  483SOL    HW1 1448   0.095   2.354   1.303  0.1171 -0.0165 -0.4243
  483SOL    HW2 1449   0.187   2.420   1.169  1.2817 -0.2385  1.6374
  484SOL     OW 1450   1.686   0.979   1.378  0.1762 -0.2987  0.2245
  484SOL    HW1 1451   1.768   0.917   1.389 -1.9324 -1.0690  1.2229
  484SOL    HW2 1452   1.684   1.041   1.459  0.4158 -0.0706 -0.7536
  485SOL     OW 1453   0.651   1.080   1.812 -0.2498  0.3873 -0.2888
  485SOL    HW1 1454   0.657   1.046   1.717  2.5386  0.6253  5.0980
  485SOL    HW2 1455   0.745   1.113   1.846  0.8196 -0.3625 -0.9320
  486SOL     OW 1456   0.948   1.934   2.460  0.3754  0.3900  1.0498
  486SOL    HW1 1457   0.988   1.888   2.544  0.7907 -1.1138 -0.7704
  486SOL    HW2 1458   0.879   2.011   2.480 -0.3193 -1.1018 -2.7352
  487SOL     OW 1459   1.752   1.551   0.911 -0.3121 -0.1862 -0.0774
  487SOL    HW1 1460   1.737   1.458   0.880 -1.4612  1.2863 -1.8887
  487SOL    HW2 1461   1.804   1.611   0.844  0.9597 -0.1085  1.1466
  488SOL     OW 1462   2.958   0.888   2.232 -0.3066  0.3442 -0.0567
  488SOL    HW1 1463   3.005   0.808   2.186  0.9838  0.3184 -0.4985
  488SOL    HW2 1464   2.984   0.895   2.332  1.5931  0.2772 -2.5378
  489SOL     OW 1465   2.776   0.253   1.307 -0.1766 -0.1781 -0.4727
  489SOL    HW1 1466   2.712   0.197   1.372 -1.8400 -0.0655 -0.9124
  489SOL    HW2 1467   2.867   0.216   1.288 -2.8032  1.5852 -1.0149
  490SOL     OW 1468   1.448   2.936   2.790  0.1862  0.1469  0.2889
  490SOL    HW1 1469   1.502   2.849   2.795 -2.0031 -0.3480 -0.1777
  490SOL    HW2 1470   1.462   2.979   2.699  0.4449  2.3490 -0.1565
  491SOL     OW 1471   1.790   1.475   2.668  0.0052  0.0551  0.6091
  491SOL    HW1 1472   1.738   1.493   2.755  0.7188  1.8860 -0.0326
  491SOL    HW2 1473   1.895   1.464   2.681 -1.8005 -0.5755 -2.0232
  492SOL     OW 1474   0.521   2.023   0.677  0.1011  0.4775  0.2433
  492SOL    HW1 1475   0.564   2.002   0.770 -1.8062  3.0113  0.0233
  492SOL    HW2 1476   0.464   2.112   0.671 -2.2904  0.6243 -0.0313
  493SOL     OW 1477   0.440   1.415   2.048  0.0737 -0.1318 -0.1660
  493SOL    HW1 1478   0.351   1.472   2.052  0.7935  1.0183 -1.2317
  493SOL    HW2 1479   0.438   1.341   2.121  0.6658 -1.1728  0.3575
  494SOL     OW 1480   2.630   2.705   0.181  0.1394 -0.4725 -0.5430
  494SOL    HW1 1481   2.611   2.644   0.262 -0.5061 -0.2101 -0.3949
  494SOL    HW2 1482   2.559   2.699   0.101 -0.2315  0.0280 -2.6328
  495SOL     OW 1483   2.734   2.671   2.694 -0.6027 -0.2272 -0.2224
  495SOL    HW1 1484   2.675   2.587   2.675  0.5399 -2.8005 -0.1138
  495SOL    HW2 1485   2.772   2.708   2.605  1.8825 -0.8985  1.3402
  496SOL     OW 1486   2.035   2.176   0.711 -0.3241 -0.2040  0.2796
  496SOL    HW1 1487   2.044   2.197   0.810  1.2202 -0.3546 -0.9265
  496SOL    HW2 1488   2.089   2.091   0.681  1.2600 -1.4315 -3.1532
  497SOL     OW 1489   0.202   2.975   2.411 -0.2808 -0.2744 -0.6189
  497SOL    HW1 1490   0.168   3.027   2.493 -1.4918 -1.6774 -0.2071
  497SOL    HW2 1491   0.247   3.030   2.336  0.0466 -2.4156  0.8335
  498SOL     OW 1492   1.215   1.448   1.183 -0.1975  0.4268 -0.4984
  498SOL    HW1 1493   1.298   1.415   1.242  0.3032 -0.3992 -0.2600
  498SOL    HW2 1494   1.173   1.540   1.211  0.9884 -2.4532  1.2896
  499SOL     OW 1495   0.724   1.850   0.537  0.2637  0.0359  0.2638
  499SOL    HW1 1496   0.735   1.754   0.584 -0.3841  0.1692  0.8148
  499SOL    HW2 1497   0.742   1.930   0.598  2.6402 -1.7165  0.6307
  500SOL     OW 1498   1.465   2.973   1.648 -0.3738  0.2596  0.7055
  500SOL    HW1 1499   1.412   2.957   1.734 -0.4821 -0.7297  0.3019
  500SOL    HW2 1500   1.526   2.888   1.630 -0.4976  0.9901 -2.2784
  501SOL     OW 1501   0.834   1.123   2.297 -0.5743 -0.0931  0.0899
  501SOL    HW1 1502   0.739   1.083   2.289 -1.0500  2.7649 -1.4485
  501SOL    HW2 1503   0.905   1.084   2.236  0.3782 -2.3184  0.8435
  502SOL     OW 1504   2.616   0.945   1.758 -0.5251  0.1384 -0.0185
  502SOL    HW1 1505   2.603   0.964   1.654  1.3042 -0.0421  0.6319
  502SOL    HW2 1506   2.546   0.876   1.795 -1.6064 -4.8822 -2.7953
  503SOL     OW 1507   1.295   0.123   0.641  0.2080  0.0090 -0.9541
  503SOL    HW1 1508   1.231   0.197   0.671  0.1978 -0.8735  1.0079
  503SOL    HW2 1509   1.377   0.165   0.605 -1.0148 -2.1585 -0.5538
  504SOL     OW 1510   3.039   2.319   1.409  0.1325 -0.2466  0.3109
  504SOL    HW1 1511   2.980   2.406   1.424 -6.0831  0.4673  0.3680
  504SOL    HW2 1512   3.076   2.273   1.494 -1.5755 -1.4375 -1.3659
  505SOL     OW 1513   2.267   1.177   1.521 -0.3427  0.1128 -0.0928
  505SOL    HW1 1514   2.300   1.231   1.443  1.1442 -1.7742  0.0843
  505SOL    HW2 1515   2.319   1.201   1.610  1.5355 -0.9684  0.3980
  506SOL     OW 1516   2.005   0.219   1.765  0.1240  0.3687 -0.0749
  506SOL    HW1 1517   2.074   0.153   1.796 -1.3673 -1.6735 -4.1597
  506SOL    HW2 1518   1.971   0.290   1.834 -0.6720 -1.5197 -0.1743
  507SOL     OW 1519   0.536   0.684   2.172 -0.1143 -0.4068 -0.2647
  507SOL    HW1 1520   0.454   0.665   2.122  0.8256  2.3246  0.6278
  507SOL    HW2 1521   0.603   0.606   2.164  0.9878  2.6714 -0.4892
  508SOL     OW 1522   0.252   1.621   0.902 -0.3045  0.1617  0.5287
  508SOL    HW1 1523   0.341   1.656   0.865  2.8206 -3.5961  1.4649
  508SOL    HW2 1524   0.211   1.682   0.976  0.5854  0.1158  1.3963
  509SOL     OW 1525   1.349   1.251   2.360  0.2673  0.0065  0.8083
  509SOL    HW1 1526   1.271   1.192   2.406 -1.7054 -1.2636  3.1803
  509SOL    HW2 1527   1.415   1.185   2.315 -2.6638  2.7340  1.5722
  510SOL     OW 1528   1.288   2.029   2.057 -0.2623 -0.4525  0.1166
  510SOL    HW1 1529   1.240   2.121   2.046 -1.6807  2.2223 -0.2729
  510SOL    HW2 1530   1.229   1.950   2.090  1.7256 -0.0728 -0.3761
  511SOL     OW 1531   3.084   2.685   1.345 -0.5622 -0.7771 -0.3579
  511SOL    HW1 1532   3.071   2.635   1.256  0.1931  1.9454  1.0180
  511SOL    HW2 1533   2.990   2.713   1.381 -3.1850 -2.3114 -1.5187
  512SOL     OW 1534   2.355   0.415   1.393  0.0337  0.0032 -0.2887
  512SOL    HW1 1535   2.251   0.400   1.382 -1.7556  2.0668 -1.0032
  512SOL    HW2 1536   2.415   0.357   1.332  0.8064  1.1938  0.9585
  513SOL     OW 1537   2.477   2.051   0.857 -0.0836 -0.6961  0.1452
  513SOL    HW1 1538   2.420   2.101   0.787 -0.4992 -1.9814  1.4850
  513SOL    HW2 1539   2.549   1.994   0.802  0.4424 -2.6217 -0.2550
  514SOL     OW 1540   0.591   2.801   0.507  0.4258  0.3248 -0.7986
  514SOL    HW1 1541   0.589   2.848   0.413  1.3397  0.3211 -0.0267
  514SOL    HW2 1542   0.658   2.842   0.575 -1.0811  1.4097 -2.9036
  515SOL     OW 1543   2.014   1.137   2.259  0.3917  0.1957 -0.0287
  515SOL    HW1 1544   1.982   1.161   2.165 -5.2487 -1.4395 -0.5642
  515SOL    HW2 1545   1.937   1.139   2.325 -2.5437  3.0640 -0.7324
  516SOL     OW 1546   0.268   0.253   1.946  0.4858  0.4845  0.6067
  516SOL    HW1 1547   0.341   0.216   1.887 -0.5712 -0.0865  1.2468
  516SOL    HW2 1548   0.172   0.211   1.925  1.8672  1.5712  0.1943
  517SOL     OW 1549   0.415   3.036   1.176 -0.7051  0.0135  0.0530
  517SOL    HW1 1550   0.428   3.135   1.151 -1.4504 -2.5181  2.4783
  517SOL    HW2 1551   0.321   3.013   1.216  0.1945  2.1334 -2.3888
  518SOL     OW 1552   2.191   3.094   1.757 -0.2871 -0.2450 -0.5281
  518SOL    HW1 1553   2.274   3.139   1.805 -0.6852 -0.6238 -0.4230
  518SOL    HW2 1554   2.215   3.032   1.681 -0.2701  0.3093  1.5062
  519SOL     OW 1555   2.360   2.234   2.591  0.6088 -0.2255 -0.4124
  519SOL    HW1 1556   2.284   2.237   2.658 -0.1242  0.1300 -1.0151
  519SOL    HW2 1557   2.406   2.325   2.589  1.0701  0.2900  0.5684
  520SOL     OW 1558   1.740   2.876   1.875 -0.1516 -0.0160 -0.1083
  520SOL    HW1 1559   1.659   2.839   1.928 -1.4301 -1.6482  0.5954
  520SOL    HW2 1560   1.813   2.806   1.856  2.4317  1.6247  1.8741
  521SOL     OW 1561   0.554   3.081   2.132 -0.0961 -0.1861 -0.2828
  521SOL    HW1 1562   0.453   3.064   2.157  1.0934  0.8138  1.5998
  521SOL    HW2 1563   0.610   3.096   2.220 -1.1828 -1.7363  0.4398
  522SOL     OW 1564   0.205   1.886   1.431 -0.1292  0.2473  0.2400
  522SOL    HW1 1565   0.264   1.940   1.497 -1.3533  1.6348 -1.3863
  522SOL    HW2 1566   0.163   1.947   1.360  1.3149 -1.5550  0.8664
  523SOL     OW 1567   2.257   2.928   1.548 -0.0540 -1.0196  0.0323
  523SOL    HW1 1568   2.332   2.856   1.558 -0.3284 -1.1052  1.6417
  523SOL    HW2 1569   2.167   2.889   1.507 -2.6700 -1.2465 -2.1532
  524SOL     OW 1570   0.184   2.777   2.781  0.2922 -0.4053 -0.7710
  524SOL    HW1 1571   0.142   2.856   2.829  3.0573 -1.4471  0.3882
  524SOL    HW2 1572   0.286   2.776   2.791 -1.8392  1.9332  1.6959
  525SOL     OW 1573   2.151   1.965   0.476  0.2568 -0.2109  0.6021
  525SOL    HW1 1574   2.176   1.895   0.548 -2.4782 -1.8081 -2.9465
  525SOL    HW2 1575   2.173   1.928   0.382 -1.1846 -2.1679  2.1773
  526SOL     OW 1576   0.388   1.534   1.650  0.6186 -0.4056 -0.7891
  526SOL    HW1 1577   0.304   1.481   1.690 -1.8257 -1.2872 -3.1859
  526SOL    HW2 1578   0.463   1.471   1.620 -2.6258 -1.2443 -0.0001
  527SOL     OW 1579   1.094   2.971   1.256 -0.2981 -0.4843  0.3737
  527SOL    HW1 1580   1.184   2.922   1.262 -0.5575  1.3397 -0.2736
  527SOL    HW2 1581   1.106   3.077   1.251 -2.1786 -0.0220  0.1688
  528SOL     OW 1582   1.358   2.415   0.509  0.1838 -0.2534  0.1477
  528SOL    HW1 1583   1.401   2.321   0.491 -0.8362 -1.5591  0.1675
  528SOL    HW2 1584   1.412   2.474   0.576  0.7338 -0.2333  1.4031
  529SOL     OW 1585   1.934   1.743   0.770 -0.2919 -0.5240  0.7673
  529SOL    HW1 1586   1.872   1.784   0.699  1.2907 -0.1040  0.6051
  529SOL    HW2 1587   1.948   1.809   0.851  0.5029  0.8519  4.2695
  530SOL     OW 1588   0.284   2.508   0.308 -0.0699 -0.8725  0.1821
  530SOL    HW1 1589   0.244   2.583   0.372 -0.0054 -0.5135  2.1264
  530SOL    HW2 1590   0.341   2.443   0.363 -0.1160  0.9623  0.2973
  531SOL     OW 1591   1.813   1.016   0.993 -0.0969  0.0393  0.2987
  531SOL    HW1 1592   1.829   1.028   0.894  0.1397 -0.5906 -0.4482
  531SOL    HW2 1593   1.712   1.013   1.015  1.9775  0.6601 -0.3893
  532SOL     OW 1594   0.507   1.094   0.793  0.0066 -0.5722  0.2913
  532SOL    HW1 1595   0.534   1.113   0.695  2.4049 -1.5679  1.6927
  532SOL    HW2 1596   0.451   1.009   0.810 -0.6087 -2.4050  1.2863
  533SOL     OW 1597   1.759   0.024   2.590  0.3967 -0.3248 -0.1382
  533SOL    HW1 1598   1.863   0.015   2.603 -1.1320 -3.3753  0.8472
  533SOL    HW2 1599   1.712   0.086   2.661  0.8592 -0.6613  0.0362
  534SOL     OW 1600   0.312   0.223   1.626  0.5593 -0.4090 -0.1453
  534SOL    HW1 1601   0.412   0.231   1.606  1.9029 -1.3937  0.0759
  534SOL    HW2 1602   0.260   0.312   1.628  1.1816  1.5772 -2.8221
  535SOL     OW 1603   1.967   0.334   0.134  0.3298 -0.0318 -0.0946
  535SOL    HW1 1604   1.960   0.424   0.195 -2.2055  1.2612  0.4389
  535SOL    HW2 1605   1.954   0.243   0.194  1.5805  0.9898  1.1696
  536SOL     OW 1606   1.404   2.630   0.943 -0.2155  0.3363  0.4986
  536SOL    HW1 1607   1.379   2.604   1.042  0.6675 -1.4923 -0.9910
  536SOL    HW2 1608   1.326   2.630   0.877  0.3130  2.2939 -0.7979
  537SOL     OW 1609   0.827   0.293   2.404 -0.4958  0.4369 -0.4325
  537SOL    HW1 1610   0.812   0.366   2.333 -0.1010  1.0863  1.2510
  537SOL    HW2 1611   0.786   0.203   2.374  1.2150  1.2687  0.2087
  538SOL     OW 1612   1.671   2.327   1.484  0.2315 -0.3302 -0.4605
  538SOL    HW1 1613   1.666   2.225   1.470  2.7523 -0.9283 -2.4353
  538SOL    HW2 1614   1.760   2.361   1.452 -1.5117  1.1841 -0.5741
  539SOL     OW 1615   0.162   1.643   2.689  0.0027 -0.2368 -0.1331
  539SOL    HW1 1616   0.069   1.632   2.646  0.1303  3.4802 -2.4793
  539SOL    HW2 1617   0.176   1.725   2.752 -1.1639  0.9399 -1.4532
  540SOL     OW 1618   2.661   1.740   1.913 -0.5512  0.1467  0.3282
  540SOL    HW1 1619   2.603   1.672   1.960 -0.9558  1.5166 -0.0361
  540SOL    HW2 1620   2.613   1.829   1.930  1.2294 -2.0374  0.4658
  541SOL     OW 1621   0.518   2.195   0.013  0.3521 -0.2354  0.2793
  541SOL    HW1 1622   0.525   2.162   0.113  0.2243 -1.2625 -0.2533
  541SOL    HW2 1623   0.416   2.191  -0.019 -1.2666  0.8535 -2.0844
  542SOL     OW 1624   2.225   2.553   0.423 -0.1431  0.0207  0.2381
  542SOL    HW1 1625   2.181   2.646   0.408 -1.0969 -0.3232  0.3335
  542SOL    HW2 1626   2.151   2.483   0.451  1.3282  0.4713 -1.7136
  543SOL     OW 1627   1.126   1.810   1.561  0.2588 -0.2504 -0.4197
  543SOL    HW1 1628   1.130   1.875   1.643 -0.7033 -0.6744  2.5903
  543SOL    HW2 1629   1.089   1.857   1.478 -0.8475  0.0264  3.3233
  544SOL     OW 1630   1.095   0.457   0.176  0.1699  0.0744  0.1260
  544SOL    HW1 1631   1.077   0.394   0.260  1.7842  1.3044 -0.2407
  544SOL    HW2 1632   1.145   0.408   0.096 -0.2281 -1.9486  0.9567
  545SOL     OW 1633   1.116   1.740   0.812  0.1155  0.8210 -0.0060
  545SOL    HW1 1634   1.196   1.747   0.751 -1.1732  0.8357  0.5804
  545SOL    HW2 1635   1.088   1.645   0.838 -0.4128  1.2552 -2.1695
  546SOL     OW 1636   2.640   1.527   3.035  0.0313  0.0413 -0.4131
  546SOL    HW1 1637   2.637   1.594   2.961 -0.6139 -2.2600  2.1635
  546SOL    HW2 1638   2.559   1.464   3.044 -0.5130  0.6371  0.4487
  547SOL     OW 1639   0.629   3.004   2.609  0.4902 -0.0197 -0.1434
  547SOL    HW1 1640   0.724   3.012   2.650 -0.3028  0.6087  2.7360
  547SOL    HW2 1641   0.558   2.949   2.666 -3.4500 -1.0616  1.7438
  548SOL     OW 1642   2.090   0.874   2.990  0.1164 -0.1816 -0.3144
  548SOL    HW1 1643   1.992   0.830   3.006 -0.2152 -0.6653  0.6272
  548SOL    HW2 1644   2.096   0.966   3.040 -2.0707 -1.6166  2.3173
  549SOL     OW 1645   0.671   0.565   0.183 -0.3374  0.7321  0.5643
  549SOL    HW1 1646   0.602   0.613   0.120  0.0320  2.3432  0.8172
  549SOL    HW2 1647   0.765   0.597   0.185  1.7859  0.7055 -2.1677
  550SOL     OW 1648   2.619   2.800   2.896 -0.0372 -0.1478  0.3142
  550SOL    HW1 1649   2.558   2.747   2.960  1.3348  0.4141  0.4087
  550SOL    HW2 1650   2.666   2.745   2.817 -0.2383 -2.1705  2.8280
  551SOL     OW 1651   0.287   0.861   0.255 -0.8260  0.3680  0.5216
  551SOL    HW1 1652   0.386   0.891   0.237  0.8631 -1.2653  0.7447
  551SOL    HW2 1653   0.281   0.823   0.354  1.0470  0.8269  0.4924
  552SOL     OW 1654   0.620   2.988   1.895  0.1654  0.1298 -0.4066
  552SOL    HW1 1655   0.589   3.027   1.985  1.1894 -0.9082 -2.4216
  552SOL    HW2 1656   0.720   2.975   1.902 -0.1917 -0.3122 -0.9081
  553SOL     OW 1657   2.905   2.455   0.360 -0.1791 -0.5205  0.1073
  553SOL    HW1 1658   2.890   2.358   0.388  0.0738  3.6839 -0.4788
  553SOL    HW2 1659   2.817   2.484   0.314 -0.9519 -1.3761 -1.6782
  554SOL     OW 1660   2.132   0.359   0.533 -0.5096 -0.3408 -0.4232
  554SOL    HW1 1661   2.196   0.397   0.459 -0.9081  0.2283 -0.7961
  554SOL    HW2 1662   2.172   0.288   0.597 -0.2215 -1.1535  3.6453
  555SOL     OW 1663   0.369   2.766   2.503 -0.3832  0.5205 -0.0796
  555SOL    HW1 1664   0.294   2.832   2.495  1.5149 -1.4768  0.7229
  555SOL    HW2 1665   0.432   2.760   2.419  1.4174 -2.6108 -1.0654
  556SOL     OW 1666   0.858   2.369   1.555 -0.2261 -0.3249 -0.2329
  556SOL    HW1 1667   0.895   2.451   1.606 -1.8140 -4.3214  2.6108
  556SOL    HW2 1668   0.917   2.345   1.471  0.1405  0.4116 -1.5584
  557SOL     OW 1669   0.148   2.032   0.228 -0.1379 -0.8358  0.2632
  557SOL    HW1 1670   0.050   2.017   0.203  2.3616  1.8340 -0.6051
  557SOL    HW2 1671   0.208   2.062   0.149 -0.4838  0.2865  3.7199
  558SOL     OW 1672   2.784   2.207   0.423 -0.0905 -0.3730  0.3515
  558SOL    HW1 1673   2.684   2.231   0.426  1.0009 -1.4740 -0.8837
  558SOL    HW2 1674   2.803   2.110   0.396 -1.0330  2.3185  1.0135
  559SOL     OW 1675   0.429   2.317   1.406  0.4848  0.0882 -0.2173
  559SOL    HW1 1676   0.338   2.339   1.356  0.8087  0.8297  0.4012
  559SOL    HW2 1677   0.473   2.230   1.370 -1.4356  0.1893 -0.7095
  560SOL     OW 1678   2.111   1.123   3.073 -0.0281 -0.3878  0.3969
  560SOL    HW1 1679   2.155   1.117   3.167  1.0455  2.0459  2.2939
  560SOL    HW2 1680   2.170   1.183   3.010 -1.9676 -0.8401 -2.2094
  561SOL     OW 1681   0.008   1.867   0.001 -0.3471  0.4359  0.3164
  561SOL    HW1 1682  -0.013   1.813   0.088  0.7183  0.3018  0.0725
  561SOL    HW2 1683  -0.020   1.971  -0.003 -0.6096  0.5541 -2.5205
  562SOL     OW 1684   1.004   2.162   2.303  0.4267  0.3503  0.1390
  562SOL    HW1 1685   0.977   2.230   2.366  0.7879 -0.9344 -0.6424
  562SOL    HW2 1686   1.022   2.065   2.336  0.3656 -0.2167  1.8337
  563SOL     OW 1687   0.699   2.550   2.631 -0.0947 -0.6809  0.1485
  563SOL    HW1 1688   0.797   2.512   2.631 -0.8930  0.6259 -0.2018
  563SOL    HW2 1689   0.658   2.565   2.727  2.4756  0.7121  0.5088
  564SOL     OW 1690   2.845   1.372   2.907  0.6771  0.5607  0.1278
  564SOL    HW1 1691   2.759   1.393   2.961 -1.2070 -0.5971  1.4882
  564SOL    HW2 1692   2.901   1.454   2.881 -1.6760  0.8673  0.5342
  565SOL     OW 1693   2.503   1.996   2.651 -0.4263 -0.1083  0.0189
  565SOL    HW1 1694   2.464   2.086   2.623 -2.2591 -1.9525  3.3682
  565SOL    HW2 1695   2.589   2.012   2.705  0.4435 -0.3016 -2.1691
  566SOL     OW 1696   1.999   2.869   1.466 -0.4554  0.2606  0.5216
  566SOL    HW1 1697   1.945   2.782   1.481  0.8763  1.4279 -1.0806
  566SOL    HW2 1698   2.002   2.892   1.367 -1.2231 -0.0938  1.7294
  567SOL     OW 1699   2.399   3.067   2.356  0.2026  0.3608  0.0436
  567SOL    HW1 1700   2.310   3.119   2.378  2.0027  3.5464  3.6318
  567SOL    HW2 1701   2.409   3.057   2.257  0.6471  3.5384  2.0410
  568SOL     OW 1702   1.534   1.793   0.241 -0.0025  0.8084  0.3139
  568SOL    HW1 1703   1.481   1.882   0.237  3.1623  2.2868  0.7179
  568SOL    HW2 1704   1.637   1.807   0.257  0.2122 -1.1977  1.5648
  569SOL     OW 1705   0.270   0.648   0.783  0.3420  0.1492  0.1227
  569SOL    HW1 1706   0.327   0.563   0.750 -0.7537  1.6285  3.2246
  569SOL    HW2 1707   0.167   0.628   0.767 -0.2939 -0.0614 -1.2374
  570SOL     OW 1708   0.645   0.845   2.926  0.1580  0.7967 -0.2739
  570SOL    HW1 1709   0.704   0.850   2.844 -0.9895 -1.0227  2.3256
  570SOL    HW2 1710   0.670   0.916   2.999  2.0845  1.5143  0.3532
  571SOL     OW 1711   0.786   3.082   1.083  0.4365  0.5447  0.6825
  571SOL    HW1 1712   0.826   3.133   1.003 -0.0054  0.8974 -1.7782
  571SOL    HW2 1713   0.815   2.982   1.094  3.5433 -0.9241  0.0257
  572SOL     OW 1714   1.637   2.664   1.358 -0.1479 -0.1048  0.8789
  572SOL    HW1 1715   1.601   2.613   1.274  1.6455 -2.5711 -1.8894
  572SOL    HW2 1716   1.656   2.769   1.339 -2.2591 -0.9271 -1.2699
  573SOL     OW 1717   2.952   0.486   2.025  0.8079  0.1884 -0.6200
  573SOL    HW1 1718   2.864   0.432   2.046  0.1714 -1.4702  0.1088
  573SOL    HW2 1719   3.002   0.451   1.947  0.6260  0.3784  3.5077
  574SOL     OW 1720   0.157   1.756   1.112  0.3448  0.1772 -0.2476
  574SOL    HW1 1721   0.194   1.747   1.207  1.0413 -0.7114  0.4447
  574SOL    HW2 1722   0.066   1.806   1.112 -1.3124  0.9189  0.1801
  575SOL     OW 1723   0.833   2.193   0.960  0.7055 -0.4060  0.7444
  575SOL    HW1 1724   0.777   2.233   1.036  0.4891  1.6840 -1.3233
  575SOL    HW2 1725   0.876   2.262   0.892  1.5878 -0.3145 -1.9657
  576SOL     OW 1726   2.859   2.982   1.664 -0.0734  0.0309  0.0510
  576SOL    HW1 1727   2.766   2.949   1.699 -2.0354 -2.2542  2.1079
  576SOL    HW2 1728   2.871   3.084   1.648  0.1696  1.4546  0.6318
  577SOL     OW 1729   2.601   1.182   0.000  0.9347  0.7537  0.2703
  577SOL    HW1 1730   2.630   1.102  -0.064 -1.8374 -2.1452 -1.3496
  577SOL    HW2 1731   2.647   1.193   0.093  1.9496  2.1541  1.3307
  578SOL     OW 1732   1.405   2.769   2.469 -0.3607 -0.0015  0.2611
  578SOL    HW1 1733   1.310   2.785   2.430  1.1829  0.1742  0.3341
  578SOL    HW2 1734   1.462   2.855   2.484  0.4609  1.8010 -0.4481
  579SOL     OW 1735   0.025   2.467   0.199 -0.5624 -0.0810 -0.4271
  579SOL    HW1 1736  -0.062   2.458   0.257 -0.3514  0.9450 -0.7564
  579SOL    HW2 1737   0.107   2.424   0.242 -1.5635  0.0764 -0.3863
  580SOL     OW 1738   0.965   2.646   0.367  0.5351 -0.1424  0.6100
  580SOL    HW1 1739   1.040   2.685   0.305 -1.5931 -3.1860  0.0413
  580SOL    HW2 1740   0.900   2.586   0.309 -1.1045 -1.3643 -0.5922
  581SOL     OW 1741   1.224   2.650   1.446 -0.0732 -0.1888 -0.5653
  581SOL    HW1 1742   1.276   2.565   1.482  0.6239 -0.0576 -1.7792
  581SOL    HW2 1743   1.280   2.733   1.421  0.5804 -2.9972  0.7514
  582SOL     OW 1744   1.491   0.113   1.879  0.1803 -0.0051 -0.1808
  582SOL    HW1 1745   1.533   0.195   1.926 -0.0930 -0.4582 -1.4531
  582SOL    HW2 1746   1.544   0.074   1.803  2.7833  1.4855  2.9700
  583SOL     OW 1747   2.423   3.077   0.532  0.2786 -0.1115  0.0300
  583SOL    HW1 1748   2.506   3.021   0.522 -1.4774 -1.5835 -1.5335
  583SOL    HW2 1749   2.343   3.012   0.555  1.5841 -1.3652  2.0015
  584SOL     OW 1750   1.546   1.099   2.270  0.4883 -0.2176  0.1196
  584SOL    HW1 1751   1.607   1.173   2.225  3.2083  1.2742 -0.3532
  584SOL    HW2 1752   1.611   1.017   2.291  1.3702 -0.3008 -0.5801
  585SOL     OW 1753   2.109   2.659   2.884 -0.0401 -0.2678 -0.0959
  585SOL    HW1 1754   2.132   2.555   2.876 -1.8214  1.4194  0.6120
  585SOL    HW2 1755   2.009   2.684   2.875 -1.2767 -0.9484  0.0590
  586SOL     OW 1756   2.872   0.363   1.565  0.5095  0.6709 -0.3523
  586SOL    HW1 1757   2.866   0.452   1.609  0.3310  1.5176  0.4430
  586SOL    HW2 1758   2.789   0.323   1.516  2.4255  0.0183 -0.9347
  587SOL     OW 1759   2.065   1.496   2.640  0.0462 -0.2172  0.2241
  587SOL    HW1 1760   2.099   1.411   2.591 -0.0234  0.2328  0.0238
  587SOL    HW2 1761   2.097   1.500   2.740 -1.9556  0.4391  0.8382
  588SOL     OW 1762   0.488   2.709   2.258  0.6715  0.2634  0.3320
  588SOL    HW1 1763   0.412   2.721   2.192 -0.9486  1.5006  0.7226
  588SOL    HW2 1764   0.503   2.614   2.299  0.3990  2.1874 -3.0879
  589SOL     OW 1765   2.193   1.296   2.476  0.1766 -0.4057  0.0435
  589SOL    HW1 1766   2.153   1.239   2.398 -1.6692 -0.7156  1.0199
  589SOL    HW2 1767   2.296   1.289   2.477  2.4158 -0.2479 -1.8298
  590SOL     OW 1768   2.312   1.755   2.033  0.4552  0.1677  0.0973
  590SOL    HW1 1769   2.393   1.682   2.033  0.9815  0.1103  2.8669
  590SOL    HW2 1770   2.314   1.801   2.131  1.6040  0.9638  0.1985
  591SOL     OW 1771   1.246   2.433   0.227 -0.4909  0.0931 -0.5234
  591SOL    HW1 1772   1.280   2.364   0.163 -2.3781  3.9152  1.4758
  591SOL    HW2 1773   1.270   2.412   0.328  0.1905  0.5620  1.7694
  592SOL     OW 1774   1.778   2.341   0.744  0.7052 -0.1310 -0.1518
  592SOL    HW1 1775   1.773   2.409   0.663 -1.2357  2.0338 -0.3497
  592SOL    HW2 1776   1.866   2.288   0.744 -0.8197  2.8475 -1.6911
  593SOL     OW 1777   0.703   0.284   0.224  0.1189 -0.4319 -0.0120
  593SOL    HW1 1778   0.779   0.255   0.159  2.3071 -0.5157  0.1300
  593SOL    HW2 1779   0.678   0.383   0.196 -0.8751  0.1083  0.4497
  594SOL     OW 1780   1.048   1.823   2.697  0.6293  0.4320  0.2042
  594SOL    HW1 1781   1.134   1.783   2.646  0.9026 -1.2282 -2.7175
  594SOL    HW2 1782   1.075   1.875   2.783 -2.4633  2.6687  1.1891
  595SOL     OW 1783   1.569   0.067   0.999  0.3144 -0.2293 -0.4726
  595SOL    HW1 1784   1.649   0.003   0.982  1.1335  1.4211 -0.4341
  595SOL    HW2 1785   1.482   0.038   0.954  2.6297 -0.0018 -2.0704
  596SOL     OW 1786   0.033   1.555   2.293 -0.1073 -0.6266  0.2323
  596SOL    HW1 1787   0.090   1.472   2.315  2.3782  1.2683  1.2508
  596SOL    HW2 1788   0.004   1.604   2.381 -3.3968  3.9563  0.4747
  597SOL     OW 1789   1.918   2.669   1.800  0.0043  0.5054 -0.1110
  597SOL    HW1 1790   1.866   2.645   1.713  0.2875  2.6232  1.7273
  597SOL    HW2 1791   2.011   2.620   1.798 -2.3865 -2.2226  0.1705
  598SOL     OW 1792   2.537   2.904   1.231  0.0973 -0.1658 -0.4274
  598SOL    HW1 1793   2.613   2.928   1.297  2.4378  1.7629 -0.1899
  598SOL    HW2 1794   2.567   2.900   1.129 -0.6615 -0.2142 -1.4987
  599SOL     OW 1795   2.884   0.300   2.471 -0.5033  0.6490 -0.1784
  599SOL    HW1 1796   2.968   0.337   2.421 -1.7058 -0.8068  0.3067
  599SOL    HW2 1797   2.796   0.334   2.426  0.5575 -3.4758 -1.1647
  600SOL     OW 1798   2.820   1.146   2.719  0.5372  0.6433  0.2681
  600SOL    HW1 1799   2.803   1.066   2.786 -0.0780  0.0922  0.7453
  600SOL    HW2 1800   2.809   1.242   2.758 -1.0065  1.7467 -0.9169
  601SOL     OW 1801   3.089   1.343   2.010  0.4806  0.0705  0.1658
  601SOL    HW1 1802   3.000   1.369   1.957 -0.7849  1.5553 -1.7182
  601SOL    HW2 1803   3.140   1.424   2.044 -2.2726 -1.6052  1.1061
  602SOL     OW 1804   1.445   1.661   2.314 -0.1469 -0.9333 -0.4402
  602SOL    HW1 1805   1.358   1.625   2.360 -1.1271 -1.4779 -0.4528
  602SOL    HW2 1806   1.533   1.646   2.365  1.9227 -0.1467 -0.0429
  603SOL     OW 1807   0.684   1.169   2.770  0.2765  0.0931 -0.3823
  603SOL    HW1 1808   0.590   1.167   2.729  1.7273 -0.8953 -2.6302
  603SOL    HW2 1809   0.748   1.094   2.737 -1.4829  0.9273  0.4962
  604SOL     OW 1810   2.437   1.000   0.165  0.3310  0.1933 -0.4177
  604SOL    HW1 1811   2.470   1.065   0.092 -2.8586 -0.0074  0.5501
  604SOL    HW2 1812   2.439   0.900   0.134 -3.0918 -0.5359 -0.0532
  605SOL     OW 1813   2.503   1.184   1.982 -0.2122  0.2516  0.0927
  605SOL    HW1 1814   2.572   1.117   1.945 -0.0586 -0.1250  1.8336
  605SOL    HW2 1815   2.538   1.246   2.060  0.0799  1.8820  2.8538
  606SOL     OW 1816   1.518   2.534   2.554 -0.7054  0.8139 -0.1679
  606SOL    HW1 1817   1.463   2.611   2.514 -0.7816  1.8989 -0.7233
  606SOL    HW2 1818   1.465   2.450   2.583 -0.0758 -0.6435 -1.3642
  607SOL     OW 1819   1.359   1.584   0.313  0.4549 -0.1988 -0.0872
  607SOL    HW1 1820   1.267   1.635   0.328 -0.2729 -1.2429 -0.2559
  607SOL    HW2 1821   1.435   1.649   0.291 -2.7059 -2.3542  0.9910
  608SOL     OW 1822   1.453   2.818   0.392 -0.2088  0.4445  0.1318
  608SOL    HW1 1823   1.487   2.860   0.304 -4.1124  0.7170  0.2743
  608SOL    HW2 1824   1.384   2.881   0.436  1.4754  0.5922  2.5938
  609SOL     OW 1825   1.284   1.342   0.216  0.3356  0.4280 -0.6532
  609SOL    HW1 1826   1.325   1.434   0.239 -0.5904  0.5694 -2.0531
  609SOL    HW2 1827   1.257   1.339   0.111 -0.1338  1.1103  0.2229
  610SOL     OW 1828   2.984   1.159   2.225  0.5955  0.8693  0.4208
  610SOL    HW1 1829   2.976   1.058   2.197  0.0015  1.3466  1.7529
  610SOL    HW2 1830   3.015   1.220   2.148  0.6001 -0.1377 -0.5520
  611SOL     OW 1831   2.536   0.263   1.185  0.0967  0.2058  0.1076
  611SOL    HW1 1832   2.473   0.185   1.213 -1.2440 -0.3669 -0.1067
  611SOL    HW2 1833   2.638   0.238   1.181  2.1073 -2.0930 -0.4274
  612SOL     OW 1834   0.722   2.297   1.176  0.7736 -0.1004  0.1299
  612SOL    HW1 1835   0.658   2.227   1.228 -0.2639  0.9455  0.9102
  612SOL    HW2 1836   0.688   2.394   1.168 -2.3895  0.8994 -1.7133
  613SOL     OW 1837   0.856   1.377   2.390  0.7126 -0.3018  0.2564
  613SOL    HW1 1838   0.837   1.447   2.312 -0.0883 -0.3018  2.5301
  613SOL    HW2 1839   0.851   1.276   2.362  0.4516  1.8396 -0.9184
  614SOL     OW 1840   1.569   1.680   1.862 -0.3833 -0.1938 -0.6282
  614SOL    HW1 1841   1.532   1.777   1.863  2.9326 -0.6019  0.4894
  614SOL    HW2 1842   1.667   1.678   1.889 -1.3184  0.6463 -2.9860
  615SOL     OW 1843   0.759   1.367   1.742 -0.7963  0.0195 -0.2387
  615SOL    HW1 1844   0.687   1.336   1.677 -4.2878  3.7252 -1.4029
  615SOL    HW2 1845   0.818   1.442   1.696 -1.0832  0.0160 -0.5009
  616SOL     OW 1846   1.121   1.574   2.176  0.1679 -0.1971 -0.1112
  616SOL    HW1 1847   1.018   1.546   2.165 -1.1993 -1.5412 -0.0816
  616SOL    HW2 1848   1.161   1.605   2.082  0.3948 -1.6636 -0.2051
  617SOL     OW 1849   2.979   1.539   1.616 -0.2773 -0.3115  0.2986
  617SOL    HW1 1850   2.966   1.481   1.701  2.0030  1.9981  0.7487
  617SOL    HW2 1851   2.945   1.489   1.531 -1.3210 -0.8224 -1.0981
  618SOL     OW 1852   1.941   1.985   1.439 -0.1972 -1.0770 -0.0478
  618SOL    HW1 1853   1.999   1.980   1.356 -0.1484 -0.8827  1.5555
  618SOL    HW2 1854   1.897   1.897   1.461  1.6939 -0.9558 -0.6695
  619SOL     OW 1855   1.706   0.456   2.386 -0.2315 -0.4051 -0.6326
  619SOL    HW1 1856   1.625   0.512   2.347 -0.6210  3.4539 -2.5420
  619SOL    HW2 1857   1.687   0.355   2.412 -0.6395 -0.3651  0.8757
  620SOL     OW 1858   2.198   2.928   0.597 -0.4206  0.0077 -0.1342
  620SOL    HW1 1859   2.131   2.994   0.630  0.8873 -0.0879 -1.4096
  620SOL    HW2 1860   2.244   2.869   0.674 -1.8550 -1.9693  1.0313
  621SOL     OW 1861   2.175   1.863   1.295  0.7602  0.8083 -0.0143
  621SOL    HW1 1862   2.193   1.853   1.401 -1.9756  0.6306 -0.0693
  621SOL    HW2 1863   2.159   1.765   1.251  0.5533 -1.5594 -0.3035
  622SOL     OW 1864   2.157   0.839   1.720  0.3934  0.0744  0.2804
  622SOL    HW1 1865   2.239   0.787   1.680  0.5228 -0.6492 -1.6685
  622SOL    HW2 1866   2.142   0.806   1.818  0.4512  0.5363 -0.5571
  623SOL     OW 1867   1.364   0.755   2.620 -0.1249  0.0278  0.1821
  623SOL    HW1 1868   1.300   0.706   2.682 -1.3198  1.7504 -0.2274
  623SOL    HW2 1869   1.320   0.793   2.534 -1.6994 -1.0996 -1.4590
  624SOL     OW 1870   0.496   0.706   0.012 -0.2226  0.6876 -0.5282
  624SOL    HW1 1871   0.544   0.752  -0.069 -0.2928  0.9658 -0.3912
  624SOL    HW2 1872   0.494   0.772   0.092 -0.1728 -3.4867 -3.0001
  625SOL     OW 1873   2.800   1.747   0.909 -0.0581  0.0066 -0.1556
  625SOL    HW1 1874   2.715   1.771   0.965  1.5010  0.2166  1.6540
  625SOL    HW2 1875   2.825   1.648   0.922 -1.5087  0.6025 -2.7395
  626SOL     OW 1876   0.531   2.731   1.843  0.0083  0.5216  0.2503
  626SOL    HW1 1877   0.558   2.829   1.865  0.8836 -0.2793 -1.4954
  626SOL    HW2 1878   0.433   2.705   1.869  0.2919 -0.0011  1.6227
  627SOL     OW 1879   0.701   0.991   1.521 -0.5139  0.4911 -0.4935
  627SOL    HW1 1880   0.765   0.913   1.555  0.3885  1.2693  0.2238
  627SOL    HW2 1881   0.749   1.042   1.447 -2.6020  2.4406  0.3762
  628SOL     OW 1882   2.409   0.190   0.686 -0.0008  0.4201  0.1756
  628SOL    HW1 1883   2.426   0.099   0.635  1.3402 -0.9169 -0.9709
  628SOL    HW2 1884   2.313   0.200   0.727  2.2199  0.7214 -0.3127
  629SOL     OW 1885   1.970   0.907   1.984  0.1057 -0.2062  0.1048
  629SOL    HW1 1886   2.067   0.898   2.025 -1.5538 -1.0055  1.8434
  629SOL    HW2 1887   1.949   1.010   1.979  0.7495  1.3981 -2.6465
  630SOL     OW 1888   2.793   2.174   0.781 -0.1504 -0.6992 -0.0189
  630SOL    HW1 1889   2.723   2.250   0.801  1.4672  2.7535  0.1609
  630SOL    HW2 1890   2.754   2.093   0.724  2.0711 -0.4242  0.5386
  631SOL     OW 1891   2.982   0.131   2.112  0.1610  0.2924 -0.1923
  631SOL    HW1 1892   2.995   0.158   2.212  2.0415  1.9648  2.2104
  631SOL    HW2 1893   3.051   0.163   2.042 -0.9172  0.1855 -0.5664
  632SOL     OW 1894   2.389   2.538   0.637 -0.1210  0.1643 -0.6334
  632SOL    HW1 1895   2.465   2.596   0.676 -0.3011 -3.2431  0.5848
  632SOL    HW2 1896   2.357   2.569   0.543 -0.2767  1.9345 -0.8552
  633SOL     OW 1897   1.579   1.277   2.538 -0.3523 -0.2657  0.0149
  633SOL    HW1 1898   1.576   1.343   2.616  2.2176 -0.0650 -0.6263
  633SOL    HW2 1899   1.497   1.289   2.478  1.2922  1.7396  0.1947
  634SOL     OW 1900   0.634   1.983   0.941 -0.2802 -0.2259  1.0568
  634SOL    HW1 1901   0.542   2.015   0.974  1.4902 -0.7074 -0.8378
  634SOL    HW2 1902   0.707   2.055   0.961 -1.2083  1.7986  0.3847
  635SOL     OW 1903   0.018   2.315   3.058  0.2461 -0.1499 -0.0466
  635SOL    HW1 1904  -0.013   2.366   2.974 -1.6169 -0.0908  1.0075
  635SOL    HW2 1905   0.002   2.372   3.143 -0.6888  1.1919  1.5205
  636SOL     OW 1906   2.296   2.788   2.041 -0.2400  0.1755 -0.3815
  636SOL    HW1 1907   2.278   2.885   2.040  1.8748  0.6359  2.3582
  636SOL    HW2 1908   2.223   2.734   2.093 -1.4393  0.1798  0.7511
  637SOL     OW 1909   2.562   0.680   2.045 -0.5304  0.3073 -0.3257
  637SOL    HW1 1910   2.524   0.672   1.953  1.4749  2.6424 -1.5583
  637SOL    HW2 1911   2.597   0.775   2.072  0.3538 -0.2963  3.3060
  638SOL     OW 1912   2.474   1.853   1.300  0.2646  0.0970  0.3405
  638SOL    HW1 1913   2.373   1.833   1.292  0.0363  1.2836  2.1830
  638SOL    HW2 1914   2.526   1.772   1.355  2.2702 -0.2544  1.4560
  639SOL     OW 1915   1.260   2.220   1.645 -0.1771  0.0212 -0.5401
  639SOL    HW1 1916   1.261   2.174   1.551 -2.7897 -0.6323  0.7370
  639SOL    HW2 1917   1.170   2.204   1.703  2.2864  1.0087  1.5402
  640SOL     OW 1918   0.195   1.192   1.555 -0.5377 -0.0539  0.0256
  640SOL    HW1 1919   0.195   1.256   1.636  0.1631 -1.5288  1.4719
  640SOL    HW2 1920   0.287   1.139   1.549  1.0907  1.0364  0.5592
  641SOL     OW 1921   2.019   0.079   1.526 -0.3472  0.3955 -0.4475
  641SOL    HW1 1922   1.993   0.143   1.607  0.4127  0.2318 -1.3385
  641SOL    HW2 1923   2.053  -0.011   1.561 -3.4889 -0.0791  1.6836
  642SOL     OW 1924   1.935   0.119   0.310  0.0191  0.3939  0.3669
  642SOL    HW1 1925   2.030   0.087   0.342 -0.9104 -0.5648  0.0344
  642SOL    HW2 1926   1.879   0.156   0.392  0.5563  0.5621  2.7473
  643SOL     OW 1927   2.865   1.912   2.062  0.1192  0.1553 -0.2037
  643SOL    HW1 1928   2.831   1.827   2.013  0.3006 -2.0854 -0.4230
  643SOL    HW2 1929   2.833   2.004   2.015 -1.6804  2.1327 -0.1554
  644SOL     OW 1930   2.180   2.324   1.192 -0.1139 -0.1467 -0.0200
  644SOL    HW1 1931   2.266   2.280   1.155 -0.2220  1.1100  1.2502
  644SOL    HW2 1932   2.185   2.306   1.292  3.6872 -1.6085 -1.8616
  645SOL     OW 1933   0.605   0.801   1.162  0.0929 -0.6310 -0.2406
  645SOL    HW1 1934   0.538   0.739   1.103  0.4183 -2.0105 -2.2840
  645SOL    HW2 1935   0.651   0.882   1.112 -0.0834  1.2729  0.6280
  646SOL     OW 1936   1.504   1.935   1.827  1.0312  0.1885 -0.5269
  646SOL    HW1 1937   1.594   1.985   1.830 -0.5401 -1.6646  0.2553
  646SOL    HW2 1938   1.431   1.971   1.896 -0.7014  0.7026 -1.3915
  647SOL     OW 1939   0.851   0.971   0.683 -0.3931 -0.6366  0.3527
  647SOL    HW1 1940   0.893   0.986   0.778  0.8678  0.8331 -0.5820
  647SOL    HW2 1941   0.765   0.917   0.685  1.5969 -2.3114 -2.0326
  648SOL     OW 1942   0.111   0.162   0.283  1.0756 -0.1216  0.4256
  648SOL    HW1 1943   0.168   0.107   0.221 -0.2614  2.0349  2.8384
  648SOL    HW2 1944   0.121   0.262   0.266  0.3831  1.0597 -1.5174
  649SOL     OW 1945   3.066   0.159   0.922  0.2256  0.0515  0.1571
  649SOL    HW1 1946   3.158   0.155   0.874  0.6915  0.0111  2.8346
  649SOL    HW2 1947   3.070   0.217   1.008 -0.1945  0.6794 -0.6838
  650SOL     OW 1948   2.713   0.720   1.394  0.0247 -0.1162 -0.2615
  650SOL    HW1 1949   2.618   0.686   1.420 -2.6523 -1.8183  0.8892
  650SOL    HW2 1950   2.703   0.806   1.340  0.4885  0.0498  1.2991
  651SOL     OW 1951   0.906   1.587   1.639 -0.1619  0.4386 -0.5389
  651SOL    HW1 1952   0.984   1.638   1.680 -0.3594  1.9882 -2.5501
  651SOL    HW2 1953   0.888   1.622   1.546 -1.2739  1.8749  4.0154
  652SOL     OW 1954   2.252   2.488   2.455 -0.0989 -0.6808 -0.5097
  652SOL    HW1 1955   2.186   2.459   2.526  0.0759 -0.6256  0.5840
  652SOL    HW2 1956   2.222   2.585   2.418 -1.3030 -0.1495 -0.1777
  653SOL     OW 1957   2.732   1.169   0.242 -0.0440 -0.1894  0.2679
  653SOL    HW1 1958   2.761   1.265   0.275 -0.7009  0.8932 -1.7428
  653SOL    HW2 1959   2.796   1.103   0.285 -0.0745  1.4886  0.7016
  654SOL     OW 1960   1.254   2.276   1.239  0.2230  0.2365  0.6129
  654SOL    HW1 1961   1.297   2.222   1.314  0.1668  0.2077 -1.0185
  654SOL    HW2 1962   1.297   2.264   1.147  1.6343 -0.6544  0.4034
  655SOL     OW 1963   0.221   1.020   1.845 -0.3089  0.0231  0.0849
  655SOL    HW1 1964   0.258   0.942   1.787  0.9331 -0.2032 -2.3673
  655SOL    HW2 1965   0.301   1.080   1.867  0.7452 -0.5314 -1.9692
  656SOL     OW 1966   2.534   2.471   2.585  0.2415  0.0124  0.0358
  656SOL    HW1 1967   2.615   2.452   2.520  0.6201  0.8285 -2.1253
  656SOL    HW2 1968   2.450   2.515   2.531 -1.9805 -1.4776 -2.1413
  657SOL     OW 1969   3.056   1.080   1.893 -0.6107  0.4496  0.1814
  657SOL    HW1 1970   3.063   1.166   1.951  1.0281 -1.4270  2.7929
  657SOL    HW2 1971   3.152   1.052   1.858  1.8731 -0.7341  1.7399
  658SOL     OW 1972   1.637   0.190   2.384  0.0161 -0.5250 -0.5132
  658SOL    HW1 1973   1.691   0.138   2.455 -0.3248  0.0246  0.2124
  658SOL    HW2 1974   1.685   0.183   2.295 -3.9831  1.9351 -2.0593
  659SOL     OW 1975   1.396   0.627   2.900 -0.1567 -0.2598  0.0467
  659SOL    HW1 1976   1.439   0.720   2.912 -0.6618  0.8128 -1.3876
  659SOL    HW2 1977   1.320   0.630   2.827 -0.1959  3.0748  0.9019
  660SOL     OW 1978   1.462   0.351   1.420  0.1981 -0.0894 -0.6584
  660SOL    HW1 1979   1.504   0.357   1.517  0.5994  0.9518 -2.8504
  660SOL    HW2 1980   1.529   0.310   1.353  2.7370 -2.5367  1.3675
  661SOL     OW 1981   2.528   1.172   0.643  0.3956  0.3102  0.4908
  661SOL    HW1 1982   2.510   1.144   0.545  0.3925 -1.2329 -1.4376
  661SOL    HW2 1983   2.461   1.239   0.677  0.0289  1.3922 -0.0755
  662SOL     OW 1984   1.328   0.422   1.830 -0.3602 -0.3749 -0.1461
  662SOL    HW1 1985   1.279   0.336   1.799  0.8589 -2.6560 -0.3152
  662SOL    HW2 1986   1.294   0.455   1.922  0.9881  0.7646  0.6367
  663SOL     OW 1987   0.834   1.560   2.186 -0.1464  0.3239 -0.4445
  663SOL    HW1 1988   0.791   1.642   2.238 -1.8389 -0.5930  0.6094
  663SOL    HW2 1989   0.782   1.529   2.106 -0.4317 -2.6450  0.6369
  664SOL     OW 1990   1.663   2.046   1.411  0.0472 -0.7041 -0.6616
  664SOL    HW1 1991   1.610   1.963   1.448  0.1580 -0.2803  3.3674
  664SOL    HW2 1992   1.764   2.038   1.418 -0.0050 -1.4982 -1.3771
  665SOL     OW 1993   2.187   0.694   2.019 -0.3430  0.0159 -0.4447
  665SOL    HW1 1994   2.208   0.599   2.054  1.8435  2.3506 -1.4629
  665SOL    HW2 1995   2.178   0.766   2.096  0.5411 -1.7275 -0.2851
  666SOL     OW 1996   0.452   2.351   0.474  0.6805 -0.5732  0.0392
  666SOL    HW1 1997   0.516   2.424   0.503 -3.7290 -2.0330  0.9344
  666SOL    HW2 1998   0.413   2.299   0.559 -0.6518  1.9155  2.4415
  667SOL     OW 1999   1.950   0.199   1.029  0.0218  0.2144 -0.5761
  667SOL    HW1 2000   2.021   0.270   1.029 -1.1862 -0.9109  0.4317
  667SOL    HW2 2001   1.910   0.168   1.123  2.2561 -1.0839  1.4525
  668SOL     OW 2002   1.992   0.545   1.184  0.3264 -0.0036  0.4887
  668SOL    HW1 2003   2.062   0.545   1.110  1.6842  2.7175  3.9472
  668SOL    HW2 2004   2.032   0.498   1.272 -0.2639 -1.4078 -0.9682
  669SOL     OW 2005   3.026   2.193   0.938 -0.0051 -1.2029 -0.9449
  669SOL    HW1 2006   2.945   2.180   0.872  0.6039  0.5901 -1.7912
  669SOL    HW2 2007   3.005   2.238   1.028  5.6223 -1.0206 -1.6891
  670SOL     OW 2008   2.862   2.332   2.023 -0.1857  0.0356 -0.3054
  670SOL    HW1 2009   2.781   2.303   2.086 -1.1372 -2.3141  1.4204
  670SOL    HW2 2010   2.861   2.432   2.007  0.1058 -1.2114  0.6313
  671SOL     OW 2011   1.752   1.747   1.430 -0.3368 -0.1426  0.0966
  671SOL    HW1 2012   1.765   1.764   1.329  1.3368 -0.6494  0.0800
  671SOL    HW2 2013   1.663   1.694   1.451 -2.3650 -3.5972  1.8340
  672SOL     OW 2014   0.451   0.591   2.424  0.1594  0.7739  0.8590
  672SOL    HW1 2015   0.460   0.647   2.338 -1.3133  0.6255  0.4587
  672SOL    HW2 2016   0.379   0.618   2.487  1.5052 -0.9575 -0.2221
  673SOL     OW 2017   0.141   1.180   1.137  0.1770  0.2273  0.0152
  673SOL    HW1 2018   0.152   1.222   1.231  1.6896  0.3502 -0.7416
  673SOL    HW2 2019   0.233   1.161   1.091  0.8732 -0.0160 -2.0437
  674SOL     OW 2020   1.557   2.893   0.145 -0.1916 -0.0763 -0.1067
  674SOL    HW1 2021   1.598   2.988   0.109  0.0404  1.7547 -2.0065
  674SOL    HW2 2022   1.602   2.808   0.110 -0.7394  1.1409 -0.2844
  675SOL     OW 2023   1.656   0.842   2.296  0.5364 -0.1892 -0.5464
  675SOL    HW1 2024   1.741   0.819   2.249 -1.3110 -0.0630  1.2921
  675SOL    HW2 2025   1.577   0.777   2.287 -0.7052  3.2259 -1.4956
  676SOL     OW 2026   2.491   1.557   2.007  0.3990 -0.2210 -0.3280
  676SOL    HW1 2027   2.453   1.514   1.919  0.4531 -1.1099 -0.3164
  676SOL    HW2 2028   2.547   1.489   2.064 -1.3982  2.1850 -2.7544
  677SOL     OW 2029   1.834   0.618   0.918 -0.2748  0.1803  1.0590
  677SOL    HW1 2030   1.877   0.649   1.009 -0.4495 -1.9506  2.5058
  677SOL    HW2 2031   1.831   0.515   0.920 -2.0096  0.2757  0.3334
  678SOL     OW 2032   0.026   0.745   1.666  0.4273  0.4504 -0.0638
  678SOL    HW1 2033   0.130   0.746   1.694 -0.8290 -1.0776  1.7450
  678SOL    HW2 2034  -0.038   0.791   1.735  1.9894  0.0201 -1.6846
  679SOL     OW 2035   2.547   1.149   1.099 -0.2925 -0.0772  0.2577
  679SOL    HW1 2036   2.462   1.188   1.149 -0.4731 -0.0495  0.1649
  679SOL    HW2 2037   2.533   1.051   1.059  2.3372 -2.4926  1.5797
  680SOL     OW 2038   2.822   0.646   1.640 -0.0577  0.3921 -0.2837
  680SOL    HW1 2039   2.803   0.670   1.541 -2.2778 -0.3665  0.7770
  680SOL    HW2 2040   2.839   0.726   1.706 -2.3277  0.0615  0.8547
  681SOL     OW 2041   2.989   0.116   1.609  0.1948 -0.2909 -0.2809
  681SOL    HW1 2042   3.043   0.079   1.530 -0.1740  0.3728  0.0702
  681SOL    HW2 2043   2.947   0.214   1.593 -2.0394  1.9877  1.1034
  682SOL     OW 2044   0.796   0.056   1.390  0.0846 -0.0234  0.6727
  682SOL    HW1 2045   0.714   0.000   1.416 -1.1606  0.7068 -2.0340
  682SOL    HW2 2046   0.838   0.023   1.301  0.9856 -1.2977 -0.4092
  683SOL     OW 2047   1.360   0.279   2.189 -0.2074 -0.3497  0.6114
  683SOL    HW1 2048   1.358   0.349   2.267  0.6967  0.1138  0.4430
  683SOL    HW2 2049   1.457   0.273   2.153  0.1170  0.9602 -1.2544
  684SOL     OW 2050   1.425   2.140   0.501  0.5733 -0.0626 -0.5250
  684SOL    HW1 2051   1.492   2.082   0.552 -0.0805 -0.7294  0.5477
  684SOL    HW2 2052   1.334   2.091   0.488  0.1690 -1.3623 -0.6472
  685SOL     OW 2053   2.184   2.006   1.930  0.2209 -0.3903  0.5064
  685SOL    HW1 2054   2.242   2.043   1.856 -1.9367 -0.0440 -0.4873
  685SOL    HW2 2055   2.232   1.923   1.972  0.4565  1.5596  0.8311
  686SOL     OW 2056   1.530   1.744   2.655  0.2425 -0.1038 -0.1961
  686SOL    HW1 2057   1.529   1.652   2.702 -3.0155 -1.3981  0.8415
  686SOL    HW2 2058   1.610   1.767   2.598  2.4893  0.4985  2.0646
  687SOL     OW 2059   1.304   2.524   1.894  0.2399 -0.2417 -0.4368
  687SOL    HW1 2060   1.343   2.432   1.868  1.0940  1.3245  3.1276
  687SOL    HW2 2061   1.351   2.573   1.976  0.6016  1.5202  1.0155
  688SOL     OW 2062   2.078   1.450   1.683 -0.0009 -0.4985  0.0888
  688SOL    HW1 2063   2.164   1.498   1.647 -1.9774  0.1590  0.1396
  688SOL    HW2 2064   2.021   1.398   1.611  1.0418 -2.4705 -1.3442
  689SOL     OW 2065   2.457   1.099   2.762  0.0439  0.4434  0.1692
  689SOL    HW1 2066   2.352   1.095   2.777  1.5434  0.2145 -1.0251
  689SOL    HW2 2067   2.521   1.069   2.834 -0.0347  1.4939  1.8520
  690SOL     OW 2068   2.207   2.759   0.090  0.4172  0.1010 -0.5674
  690SOL    HW1 2069   2.137   2.728   0.024 -2.6817  0.3248  1.3502
  690SOL    HW2 2070   2.165   2.800   0.174  0.1660  0.8020 -1.9378
  691SOL     OW 2071   2.600   0.414   2.130  0.7168 -0.1014  0.4375
  691SOL    HW1 2072   2.628   0.340   2.062 -3.0494 -1.3781 -0.2711
  691SOL    HW2 2073   2.596   0.512   2.089  1.5624 -0.0618  1.3039
  692SOL     OW 2074   2.794   1.208   0.715 -0.1552 -0.1511 -0.3943
  692SOL    HW1 2075   2.694   1.202   0.691  1.6060  1.0528  1.6031
  692SOL    HW2 2076   2.815   1.290   0.778 -0.5742 -0.6666  1.1209
  693SOL     OW 2077   2.872   3.002   0.675  0.2998  0.5396 -0.0759
  693SOL    HW1 2078   2.865   3.098   0.719 -0.4937 -0.9617 -1.4105
  693SOL    HW2 2079   2.806   2.991   0.596  2.1336  1.7864  1.0916
  694SOL     OW 2080   2.431   2.235   0.053 -0.6437 -0.1440 -0.2420
  694SOL    HW1 2081   2.405   2.338   0.070 -2.5046  1.4466 -1.5084
  694SOL    HW2 2082   2.349   2.174   0.026  1.2465  1.9218  0.3925
  695SOL     OW 2083   0.603   2.986   1.485 -0.3777  0.5653  0.3951
  695SOL    HW1 2084   0.570   2.912   1.423 -1.9220  1.3560 -0.8655
  695SOL    HW2 2085   0.537   3.012   1.557 -1.1997  0.8588 -1.3081
  696SOL     OW 2086   2.674   1.924   0.708  0.0723  0.0427 -0.3099
  696SOL    HW1 2087   2.733   1.877   0.779  1.6674 -1.1474  0.3471
  696SOL    HW2 2088   2.657   1.866   0.621 -0.9953 -1.3754  1.0439
  697SOL     OW 2089   1.746   2.055   1.828  0.4002 -0.1232 -0.6338
  697SOL    HW1 2090   1.823   1.992   1.845 -1.7311  1.7257  1.0295
  697SOL    HW2 2091   1.780   2.146   1.787 -1.2394 -0.0631 -0.7496
  698SOL     OW 2092   2.887   0.372   2.734  0.1830  0.1891 -0.1302
  698SOL    HW1 2093   2.895   0.330   2.641 -1.0837  1.7681  3.0406
  698SOL    HW2 2094   2.950   0.326   2.802 -0.5784 -2.7109  1.6377
  699SOL     OW 2095   1.507   0.060   2.932  0.2288  0.4102 -0.0187
  699SOL    HW1 2096   1.480  -0.031   2.888  0.4916  0.1135  2.4059
  699SOL    HW2 2097   1.558   0.113   2.861  0.7847  1.8824  2.1776
  700SOL     OW 2098   0.978   2.312   1.310 -0.5013  0.2795 -0.1136
  700SOL    HW1 2099   1.073   2.289   1.274  1.0298  0.7807  1.1321
  700SOL    HW2 2100   0.910   2.312   1.237  0.1432 -0.3241  0.6490
  701SOL     OW 2101   1.910   2.818   0.003 -0.2015 -0.0685  0.7511
  701SOL    HW1 2102   1.890   2.746   0.072  0.3900  0.0770 -2.6571
  701SOL    HW2 2103   1.913   2.916   0.043 -0.3830  0.0654 -0.2008
  702SOL     OW 2104   2.087   1.327   1.916  0.4251  0.4592 -0.3802
  702SOL    HW1 2105   2.148   1.240   1.906 -1.1749  1.2088 -0.8881
  702SOL    HW2 2106   2.083   1.380   1.828 -1.9140 -1.7224 -1.0804
  703SOL     OW 2107   1.910   0.835   1.409  0.0214 -0.5594  0.0774
  703SOL    HW1 2108   1.916   0.745   1.459  0.4882  1.5859 -0.0814
  703SOL    HW2 2109   1.959   0.912   1.466 -0.6964 -0.6317 -0.0037
  704SOL     OW 2110   0.306   2.096   1.661 -0.5726 -0.3666 -0.1051
  704SOL    HW1 2111   0.336   2.024   1.731  0.8174  2.2543 -0.6666
  704SOL    HW2 2112   0.345   2.195   1.681  0.7580  2.4097 -1.5486
  705SOL     OW 2113   2.539   1.394   0.945  0.1084  0.2749 -0.5592
  705SOL    HW1 2114   2.479   1.376   0.862  0.5251 -1.5756  0.2122
  705SOL    HW2 2115   2.570   1.308   0.989 -3.2954  2.6472  1.5995
  706SOL     OW 2116   0.644   1.776   1.838 -0.1802  0.2010 -0.4838
  706SOL    HW1 2117   0.639   1.676   1.876 -2.0786 -1.0731  0.8363
  706SOL    HW2 2118   0.724   1.819   1.887 -2.9347  0.2723  0.6633
  707SOL     OW 2119   2.254   1.117   1.868  0.5349  0.2746 -0.2939
  707SOL    HW1 2120   2.340   1.132   1.916 -1.5892 -2.0597 -0.6174
  707SOL    HW2 2121   2.253   1.019   1.831  1.9985 -1.2749 -1.0426
  708SOL     OW 2122   3.013   0.482   3.065  0.6795 -0.4639 -0.1554
  708SOL    HW1 2123   3.006   0.550   2.988  1.9708  0.4760  2.6297
  708SOL    HW2 2124   2.977   0.389   3.037  1.4861 -2.9323  2.1606
  709SOL     OW 2125   1.815   1.848   0.265 -0.1665 -0.8343  0.3882
  709SOL    HW1 2126   1.823   1.945   0.301  1.4572 -4.1318  1.8215
  709SOL    HW2 2127   1.834   1.838   0.160  1.0498  0.8466 -1.5833
  710SOL     OW 2128   1.697   1.583   2.411  0.3684 -0.5571 -0.0914
  710SOL    HW1 2129   1.760   1.574   2.332 -0.8897 -1.5230  4.1450
  710SOL    HW2 2130   1.733   1.535   2.493 -0.9269  4.6639  0.7243
  711SOL     OW 2131   2.653   2.916   0.976 -0.5437  0.0535  0.0999
  711SOL    HW1 2132   2.631   3.003   0.925  1.8718 -2.3586 -0.6070
  711SOL    HW2 2133   2.740   2.873   0.935 -0.8736 -2.0161 -0.5799
  712SOL     OW 2134   1.480   2.295   1.820  0.5495  0.7606 -0.8684
  712SOL    HW1 2135   1.539   2.216   1.849  2.6388  0.3062 -0.4348
  712SOL    HW2 2136   1.409   2.277   1.744  0.6071  0.4649 -0.3261
  713SOL     OW 2137   2.785   1.510   2.489 -0.2110 -0.5357 -0.0131
  713SOL    HW1 2138   2.826   1.415   2.501  2.1703 -0.2361 -2.1950
  713SOL    HW2 2139   2.689   1.520   2.526 -1.5661  0.8161  1.1946
  714SOL     OW 2140   2.659   0.453   2.382 -0.0231  0.4404 -0.0826
  714SOL    HW1 2141   2.581   0.465   2.445  1.2598 -0.6470  0.5915
  714SOL    HW2 2142   2.637   0.442   2.282 -0.8291  0.0697 -0.1652
  715SOL     OW 2143   1.577   2.038   1.146 -0.5404  0.2054 -0.3150
  715SOL    HW1 2144   1.516   2.110   1.112  0.3618 -0.6856  0.1118
  715SOL    HW2 2145   1.606   2.045   1.245 -2.5862  0.0072 -3.3016
  716SOL     OW 2146   1.223   0.233   1.520 -0.3079  0.0523  0.0456
  716SOL    HW1 2147   1.128   0.251   1.486 -0.2732  0.5829  1.0785
  716SOL    HW2 2148   1.300   0.288   1.475 -0.1434  1.2022  0.0334
  717SOL     OW 2149   1.091   0.618   1.615 -0.1865  0.1456 -0.2292
  717SOL    HW1 2150   1.191   0.640   1.646  0.0168  1.1954  1.5081
  717SOL    HW2 2151   1.098   0.597   1.510  1.5423 -2.5741 -0.0272
  718SOL     OW 2152   0.725   0.984   0.991 -0.2916 -0.2738  0.7049
  718SOL    HW1 2153   0.678   0.968   0.897 -0.5746 -2.1451 -0.5834
  718SOL    HW2 2154   0.737   1.089   1.005 -0.2329  0.9860  1.3965
  719SOL     OW 2155   0.748   1.829   2.288  0.4063  0.1509 -0.2928
  719SOL    HW1 2156   0.826   1.879   2.339  0.4129 -1.2474 -2.0497
  719SOL    HW2 2157   0.653   1.876   2.305 -2.0182  1.0376  0.1767
  720SOL     OW 2158   2.197   1.104   0.253  0.1635 -0.0417 -0.0098
  720SOL    HW1 2159   2.289   1.056   0.229  2.1256 -1.3056  1.1503
  720SOL    HW2 2160   2.170   1.082   0.355 -0.7815 -1.3386 -0.6949
  721SOL     OW 2161   2.300   3.083   2.087  0.3718  0.7524 -0.4691
  721SOL    HW1 2162   2.330   3.162   2.030 -1.7950  1.8733 -1.1203
  721SOL    HW2 2163   2.204   3.095   2.133  0.0083  0.6868  0.3966
  722SOL     OW 2164   2.393   1.621   0.556  0.6160 -0.0410  0.2854
  722SOL    HW1 2165   2.379   1.593   0.457  1.2774 -0.5150  1.7322
  722SOL    HW2 2166   2.306   1.657   0.607 -2.8266  0.7555 -1.2000
  723SOL     OW 2167   2.556   2.751   1.965  0.2136  0.4785 -0.4297
  723SOL    HW1 2168   2.616   2.796   2.039  0.4400 -0.7301 -1.9829
  723SOL    HW2 2169   2.454   2.755   1.985 -0.9814 -2.2451 -0.3784
  724SOL     OW 2170   0.524   2.479   2.417 -0.0878 -0.1487  0.5401
  724SOL    HW1 2171   0.424   2.476   2.439 -2.5224  0.5837  0.6923
  724SOL    HW2 2172   0.587   2.496   2.499  1.7909 -2.3387  3.1276
  725SOL     OW 2173   2.481   2.766   1.556 -0.0744  0.0406 -0.0538
  725SOL    HW1 2174   2.546   2.779   1.477 -1.0835 -1.1680 -1.4973
  725SOL    HW2 2175   2.448   2.666   1.568 -1.1115  0.7675 -3.5780
  726SOL     OW 2176   2.352   2.225   0.675 -0.2480  0.3273 -0.0082
  726SOL    HW1 2177   2.328   2.318   0.632 -0.5730 -1.8510  1.7936
  726SOL    HW2 2178   2.392   2.161   0.606  0.5668 -0.2484 -1.4989
  727SOL     OW 2179   0.218   0.009   0.085  0.2465 -0.0094  0.5121
  727SOL    HW1 2180   0.299  -0.041   0.050  0.9383  0.5337 -1.7385
  727SOL    HW2 2181   0.133  -0.046   0.069  1.5893  0.6345 -0.0993
  728SOL     OW 2182   2.846   0.664   0.966 -0.3658 -0.1367  0.4059
  728SOL    HW1 2183   2.786   0.631   0.892  1.3640 -0.9125 -1.2085
  728SOL    HW2 2184   2.815   0.619   1.052  2.2088  2.4285  0.5788
  729SOL     OW 2185   2.906   2.439   0.700 -0.1366  0.0318 -0.4819
  729SOL    HW1 2186   2.874   2.342   0.732 -3.3971 -1.1922  4.0306
  729SOL    HW2 2187   2.999   2.432   0.653 -0.4315 -1.3610 -0.4106
  730SOL     OW 2188   2.600   0.586   0.825 -0.8412 -0.0354 -0.6883
  730SOL    HW1 2189   2.540   0.658   0.787  1.0131  1.1661  0.8194
  730SOL    HW2 2190   2.678   0.564   0.767 -3.0528  2.0193  2.6111
  731SOL     OW 2191   0.072   2.134   2.433 -1.1033  0.3781 -0.4632
  731SOL    HW1 2192   0.123   2.174   2.508 -1.6528 -0.0374  0.1030
  731SOL    HW2 2193   0.031   2.196   2.363 -0.1883 -1.2453  1.5675
  732SOL     OW 2194   1.103   2.864   1.950 -0.9532  0.6854  0.2626
  732SOL    HW1 2195   1.139   2.807   2.029 -2.1476 -0.1523 -2.7735
  732SOL    HW2 2196   1.133   2.823   1.859 -0.4642 -2.4876  1.0064
  733SOL     OW 2197   0.010   0.698   2.127  0.3164  0.7239 -1.1120
  733SOL    HW1 2198   0.104   0.729   2.100 -0.9332 -0.4147  0.1160
  733SOL    HW2 2199  -0.014   0.612   2.071  0.3169 -2.0793 -1.3267
  734SOL     OW 2200   1.429   0.379   2.766 -0.2114 -0.4267  0.1904
  734SOL    HW1 2201   1.439   0.477   2.807  1.0503  0.7148  1.1092
  734SOL    HW2 2202   1.333   0.347   2.758  1.3885  1.3887 -0.1928
  735SOL     OW 2203   2.908   2.619   2.245 -0.7226  0.4113  0.2084
  735SOL    HW1 2204   2.878   2.620   2.143  2.1417  1.9605 -1.5356
  735SOL    HW2 2205   3.009   2.606   2.258 -0.7236 -0.6562  2.0908
  736SOL     OW 2206   0.727   0.445   2.611  0.7577  0.8501  0.1329
  736SOL    HW1 2207   0.738   0.533   2.572 -1.0846 -2.9466 -1.0065
  736SOL    HW2 2208   0.737   0.374   2.537  1.7280  0.6951  1.8461
  737SOL     OW 2209   2.646   0.450   2.858 -0.7043  0.8550  0.1029
  737SOL    HW1 2210   2.643   0.397   2.952  1.7484 -0.6513  1.0736
  737SOL    HW2 2211   2.732   0.420   2.803 -0.1050  2.6695 -1.9653
  738SOL     OW 2212   1.575   1.236   2.928 -0.0399 -0.5173  0.4685
  738SOL    HW1 2213   1.677   1.233   2.934 -0.9844  1.5629 -0.3461
  738SOL    HW2 2214   1.545   1.153   2.880  1.1852  2.4749  1.0273
  739SOL     OW 2215   1.729   0.629   0.680  0.0815  0.4955 -0.2246
  739SOL    HW1 2216   1.777   0.641   0.773  1.1386 -2.5538  0.9467
  739SOL    HW2 2217   1.780   0.561   0.623 -1.3992  0.9675 -0.6041
  740SOL     OW 2218   1.957   1.869   2.320  0.2636 -0.4214 -1.0598
  740SOL    HW1 2219   2.019   1.799   2.370 -0.2909 -0.7925  4.1083
  740SOL    HW2 2220   1.891   1.822   2.255  1.7746 -1.0491 -1.0804
  741SOL     OW 2221   2.534   0.043   2.592 -1.0277 -0.2602 -0.3339
  741SOL    HW1 2222   2.639   0.055   2.601 -0.2874 -0.2761 -0.4753
  741SOL    HW2 2223   2.505   0.001   2.504  2.0482  1.2730 -0.4720
  742SOL     OW 2224   2.251   1.405   0.162  0.1224 -0.6486 -0.3231
  742SOL    HW1 2225   2.205   1.495   0.176 -1.3496 -2.1308  0.4133
  742SOL    HW2 2226   2.219   1.335   0.227  0.3863  0.8437 -1.6353
  743SOL     OW 2227   1.803   0.628   2.586 -0.0598 -0.2281 -0.4531
  743SOL    HW1 2228   1.778   0.553   2.520 -0.1754  0.2404  1.4276
  743SOL    HW2 2229   1.743   0.713   2.584  0.1586  1.5798 -0.6830
  744SOL     OW 2230   2.696   2.132   0.060 -0.0949 -0.4437  0.0227
  744SOL    HW1 2231   2.615   2.184   0.097  2.3371 -2.4123 -0.0099
  744SOL    HW2 2232   2.679   2.029   0.038  0.6900  1.5825  1.2459
  745SOL     OW 2233   2.147   2.681   2.239  0.1369 -0.1086 -0.7188
  745SOL    HW1 2234   2.043   2.663   2.215 -1.2587  0.5421 -0.3925
  745SOL    HW2 2235   2.152   2.740   2.326  0.5471  2.9301 -1.2935
  746SOL     OW 2236   3.095   2.585   1.814  0.3004 -0.6959  0.0375
  746SOL    HW1 2237   3.197   2.610   1.812 -0.7591 -0.5698  1.1611
  746SOL    HW2 2238   3.043   2.665   1.862 -0.2704 -0.5930  0.7713
  747SOL     OW 2239   0.017   1.771   1.629 -0.4700 -0.1352 -0.1133
  747SOL    HW1 2240  -0.025   1.680   1.601 -0.1740  1.0060  1.6501
  747SOL    HW2 2241   0.090   1.800   1.563  1.7329 -0.4945  0.5166
  748SOL     OW 2242   1.832   2.779   2.852 -0.4023 -0.3325  0.1438
  748SOL    HW1 2243   1.866   2.815   2.945 -0.5573  2.9308  0.6856
  748SOL    HW2 2244   1.739   2.732   2.848 -1.3282  0.4522 -0.6248
  749SOL     OW 2245   1.339   3.082   0.878 -0.2328 -0.0913 -0.1233
  749SOL    HW1 2246   1.264   3.008   0.893  0.0692  0.5383 -1.1893
  749SOL    HW2 2247   1.334   3.135   0.784  2.2119 -0.1843 -2.4650
  750SOL     OW 2248   2.328   0.205   1.874 -0.5918 -0.1927  0.2010
  750SOL    HW1 2249   2.376   0.272   1.805  0.5977 -0.1689  2.1966
  750SOL    HW2 2250   2.263   0.250   1.935  0.5509 -3.8073  0.2800
  751SOL     OW 2251   0.892   2.204   2.733 -1.1422  0.0856  0.0733
  751SOL    HW1 2252   0.913   2.188   2.835 -0.3822  2.8663 -0.4171
  751SOL    HW2 2253   0.829   2.135   2.694 -0.6843  0.1809  2.9966
  752SOL     OW 2254   1.268   0.851   1.521 -0.3462  0.1573 -0.0375
  752SOL    HW1 2255   1.342   0.912   1.480  0.0114  2.2640  2.0671
  752SOL    HW2 2256   1.302   0.759   1.557 -0.4160 -1.2915  2.3606
  753SOL     OW 2257   0.940   2.594   1.678 -0.4503  0.6637 -0.2500
  753SOL    HW1 2258   1.009   2.674   1.673  0.8540  1.2144  0.3403
  753SOL    HW2 2259   0.851   2.634   1.646  2.2779  1.0997  1.2829
  754SOL     OW 2260   1.226   1.336   3.047  0.0475  0.0202 -0.4586
  754SOL    HW1 2261   1.259   1.249   3.011 -1.7401  2.0036 -1.2123
  754SOL    HW2 2262   1.223   1.412   2.977  0.3905 -0.6308 -1.9270
  755SOL     OW 2263   1.922   0.440   2.214 -0.3965  0.5453  0.7224
  755SOL    HW1 2264   2.009   0.418   2.268 -1.0512  2.2080  2.6426
  755SOL    HW2 2265   1.839   0.460   2.270  1.1255 -0.5290 -1.4204
  756SOL     OW 2266   2.628   0.958   2.948  0.4404  0.1660  0.3625
  756SOL    HW1 2267   2.729   0.956   2.959 -0.4083  2.5458 -0.1805
  756SOL    HW2 2268   2.580   0.880   3.003 -1.2073 -2.6271  3.2569
  757SOL     OW 2269   3.087   0.441   1.795  0.3847 -0.1413  0.1095
  757SOL    HW1 2270   3.061   0.538   1.771  2.6024 -1.0709  1.0856
  757SOL    HW2 2271   3.134   0.394   1.717  1.5627  1.8782 -1.9746
  758SOL     OW 2272   2.404   0.075   1.457 -0.2074 -0.5593  0.3388
  758SOL    HW1 2273   2.343   0.013   1.511  0.1967 -1.1526 -2.2692
  758SOL    HW2 2274   2.384   0.052   1.357 -1.3151  0.1719  2.1997
  759SOL     OW 2275   1.683   0.041   0.089 -0.0884 -0.2908 -0.0432
  759SOL    HW1 2276   1.639   0.111   0.030 -0.9233  0.6390 -2.6199
  759SOL    HW2 2277   1.783   0.024   0.069 -0.5922  1.3452  1.2333
  760SOL     OW 2278   2.721   2.049   2.818 -0.3648 -0.4374 -0.1838
  760SOL    HW1 2279   2.811   1.996   2.819 -0.0163 -2.8057 -1.0729
  760SOL    HW2 2280   2.708   2.127   2.882 -1.8265 -3.4700  0.6746
  761SOL     OW 2281   1.945   1.726   1.625  0.2669 -0.0504 -0.2043
  761SOL    HW1 2282   1.973   1.630   1.649 -0.1851 -1.4094 -0.5329
  761SOL    HW2 2283   1.856   1.731   1.567 -2.7636  0.6555  1.4506
  762SOL     OW 2284   0.487   2.391   1.000  0.5702  1.0674  0.1305
  762SOL    HW1 2285   0.529   2.387   0.901  0.3016  1.0991 -2.4637
  762SOL    HW2 2286   0.523   2.470   1.059 -2.1462  2.8199  2.1513
  763SOL     OW 2287   2.104   1.514   2.991  0.3185 -0.0078 -0.0422
  763SOL    HW1 2288   2.176   1.449   3.029 -1.7185  0.2239  0.8540
  763SOL    HW2 2289   2.009   1.482   3.016  2.7934  0.2739 -1.5448
  764SOL     OW 2290   0.687   0.583   0.884 -0.0192 -0.5716  0.3030
  764SOL    HW1 2291   0.676   0.483   0.858 -1.8123  0.6402  1.1832
  764SOL    HW2 2292   0.785   0.611   0.907  0.0411  0.1576 -0.2339
  765SOL     OW 2293   0.685   0.227   0.839 -0.2515 -0.0047 -0.4655
  765SOL    HW1 2294   0.777   0.252   0.796 -1.0426  1.4027 -0.4677
  765SOL    HW2 2295   0.679   0.268   0.936  0.3515  3.2703 -0.3741
  766SOL     OW 2296   2.968   2.093   3.097  0.1925 -0.2829  0.0837
  766SOL    HW1 2297   2.868   2.115   3.101  2.4844 -0.8368  2.6819
  766SOL    HW2 2298   3.030   2.177   3.070  1.5176  0.7061 -1.4447
  767SOL     OW 2299   2.903   1.572   0.526  0.2160  0.1292  0.3473
  767SOL    HW1 2300   2.807   1.566   0.570 -2.3911  2.0889 -1.0269
  767SOL    HW2 2301   2.973   1.616   0.586 -0.7853 -3.7925  1.4506
  768SOL     OW 2302   1.081   0.229   0.330 -0.3499  0.3847 -0.1290
  768SOL    HW1 2303   1.000   0.176   0.355 -1.5639  0.5569  1.0680
  768SOL    HW2 2304   1.162   0.173   0.297 -1.2955  0.3761 -0.7924
  769SOL     OW 2305   1.127   1.849   2.241  0.3102 -0.5731 -0.2391
  769SOL    HW1 2306   1.066   1.863   2.323  3.6624  2.6414 -0.1316
  769SOL    HW2 2307   1.134   1.752   2.207  3.8857 -2.9380 -3.2198
  770SOL     OW 2308   0.140   1.301   2.305 -0.5853 -0.1499  0.9687
  770SOL    HW1 2309   0.137   1.281   2.409  1.4958 -1.7075  1.6364
  770SOL    HW2 2310   0.061   1.261   2.258  2.4903 -2.0859  1.6162
  771SOL     OW 2311   2.973   2.825   1.873 -0.2037  0.2029  0.4563
  771SOL    HW1 2312   2.968   2.869   1.782 -2.1918 -2.1138  0.8392
  771SOL    HW2 2313   2.937   2.893   1.949  2.2986  2.3543 -0.5515
  772SOL     OW 2314   2.180   0.115   2.962 -0.2767 -0.2762 -0.2465
  772SOL    HW1 2315   2.273   0.084   2.939  0.3666  1.5510  1.8529
  772SOL    HW2 2316   2.181   0.214   3.004  0.7312  1.5126 -2.9751
  773SOL     OW 2317   0.704   2.070   2.522 -0.1112 -0.3003 -0.3315
  773SOL    HW1 2318   0.681   2.108   2.428 -0.8766  1.6567 -0.2127
  773SOL    HW2 2319   0.623   2.070   2.585  1.4165 -0.5655 -0.0703
  774SOL     OW 2320   2.043   0.030   2.650  0.0721  0.4194  0.1090
  774SOL    HW1 2321   2.030   0.106   2.715 -1.0645  0.9476  0.0938
  774SOL    HW2 2322   2.097  -0.046   2.703  0.7903 -0.7175 -0.6437
  775SOL     OW 2323   2.545   2.846   2.480  0.3500  0.1814 -0.6160
  775SOL    HW1 2324   2.520   2.926   2.418  1.3076  0.5590  0.2986
  775SOL    HW2 2325   2.647   2.847   2.498 -2.1984  0.0341 -1.3361
  776SOL     OW 2326   0.042   1.249   0.262 -0.1930  0.5641  0.0022
  776SOL    HW1 2327  -0.002   1.245   0.165 -2.9348 -1.7637  0.1611
  776SOL    HW2 2328  -0.019   1.239   0.342  0.6192 -2.0233 -2.3544
  777SOL     OW 2329   0.234   2.724   0.500 -0.2157 -0.0834 -0.4733
  777SOL    HW1 2330   0.131   2.722   0.480  0.4921  1.0612  3.3694
  777SOL    HW2 2331   0.276   2.818   0.490 -0.3507 -0.3389  1.7728
  778SOL     OW 2332   1.341   1.994   0.186 -0.3677 -0.3092  0.0257
  778SOL    HW1 2333   1.289   1.997   0.276  2.2922  0.3903  2.1508
  778SOL    HW2 2334   1.343   2.090   0.141 -0.1647 -0.0553  0.5403
  779SOL     OW 2335   0.170   0.785   0.508 -0.0320  0.0167 -0.2057
  779SOL    HW1 2336   0.115   0.697   0.499 -1.6043  0.4453  0.7385
  779SOL    HW2 2337   0.132   0.851   0.574  1.5036 -0.5187  0.1310
  780SOL     OW 2338   0.021   0.290   2.321 -0.2486 -1.0621  0.3881
  780SOL    HW1 2339  -0.002   0.389   2.304  2.0594 -0.5507  0.2467
  780SOL    HW2 2340   0.119   0.268   2.289  1.5531  0.2392 -0.1123
  781SOL     OW 2341   0.623   1.727   1.563 -0.6534  0.0439  0.2046
  781SOL    HW1 2342   0.639   1.766   1.657 -2.8865 -0.8464 -0.0937
  781SOL    HW2 2343   0.558   1.655   1.570 -0.0852  2.4624 -0.9640
  782SOL     OW 2344   2.569   0.151   0.906 -0.2102  0.0335  0.7256
  782SOL    HW1 2345   2.513   0.164   0.820  1.1884  0.3695 -0.0388
  782SOL    HW2 2346   2.540   0.208   0.987  1.8141 -0.8510 -0.5779
  783SOL     OW 2347   2.813   0.657   2.513  0.1372 -0.2249 -0.3196
  783SOL    HW1 2348   2.768   0.689   2.596 -1.7595  0.0300 -1.3420
  783SOL    HW2 2349   2.769   0.576   2.471 -1.0909 -0.7048  0.4200
  784SOL     OW 2350   1.354   2.247   0.058 -0.5895 -0.4877 -0.2407
  784SOL    HW1 2351   1.442   2.293   0.090 -2.2039 -2.3185 -1.8396
  784SOL    HW2 2352   1.363   2.215  -0.038  1.6496 -3.6143  1.5184
  785SOL     OW 2353   2.177   0.370   3.068 -0.1607  0.0546  0.3525
  785SOL    HW1 2354   2.104   0.353   3.143 -2.4860 -3.5938  0.9197
  785SOL    HW2 2355   2.196   0.472   3.056 -0.3237 -0.0616 -0.1296
  786SOL     OW 2356   2.066   2.134   2.214  0.0156  0.2315 -0.0399
  786SOL    HW1 2357   2.029   2.045   2.240  2.8190  0.6367 -0.4296
  786SOL    HW2 2358   2.163   2.140   2.251  0.3473  0.8587  2.8745
  787SOL     OW 2359   1.406   0.590   0.871  0.0176 -0.2214 -0.1456
  787SOL    HW1 2360   1.357   0.681   0.882  1.2761  0.0223  1.0408
  787SOL    HW2 2361   1.432   0.567   0.773 -0.1021 -1.3831 -0.1543
  788SOL     OW 2362   1.218   0.396   3.020 -0.1461  0.1564 -0.3309
  788SOL    HW1 2363   1.127   0.444   3.004 -0.4056  0.0735 -2.1216
  788SOL    HW2 2364   1.289   0.464   3.001 -2.5686 -0.5331  3.4332
  789SOL     OW 2365   2.570   0.107   1.788 -0.0895  0.3436  0.0046
  789SOL    HW1 2366   2.493   0.133   1.854 -3.1016  0.5901  4.6356
  789SOL    HW2 2367   2.580   0.005   1.777 -0.1276  0.8365  3.3227
  790SOL     OW 2368   2.545   2.658   0.832  0.8558 -0.4362  0.0110
  790SOL    HW1 2369   2.625   2.646   0.773  4.4701 -3.2353  1.9557
  790SOL    HW2 2370   2.566   2.706   0.917 -0.4586  2.9695 -3.5037
  791SOL     OW 2371   1.945   1.266   0.232  0.4975 -0.2000 -0.3663
  791SOL    HW1 2372   1.861   1.224   0.272  0.8379  0.7542  2.1712
  791SOL    HW2 2373   2.030   1.206   0.223 -0.4572 -1.2825 -1.6786
  792SOL     OW 2374   0.426   2.005   2.176 -0.4462 -0.4278  0.0305
  792SOL    HW1 2375   0.487   2.060   2.240 -0.9650 -0.6622  2.7672
  792SOL    HW2 2376   0.360   1.943   2.230 -0.3344 -3.1450 -1.3924
  793SOL     OW 2377   2.131   1.566   2.097 -0.0260 -0.2530  0.4224
  793SOL    HW1 2378   2.195   1.642   2.056  3.6908  2.4802 -0.1027
  793SOL    HW2 2379   2.146   1.470   2.053 -0.6335 -0.5385  1.1673
  794SOL     OW 2380   0.448   1.385   2.483 -0.6472  0.0388  0.2975
  794SOL    HW1 2381   0.458   1.327   2.395  0.8452 -1.0502 -3.1006
  794SOL    HW2 2382   0.417   1.484   2.465  1.8648  2.7380 -0.2370
  795SOL     OW 2383   2.506   2.337   1.805  0.1830 -0.0976 -0.1202
  795SOL    HW1 2384   2.472   2.389   1.888  4.0501 -3.3920 -0.4961
  795SOL    HW2 2385   2.449   2.250   1.785  0.6721 -0.4950  0.3482
  796SOL     OW 2386   3.076   1.052   2.711 -0.3958 -0.0179  0.1825
  796SOL    HW1 2387   2.982   1.083   2.741 -3.0746  0.4817  1.2502
  796SOL    HW2 2388   3.156   1.052   2.776  2.5932 -2.4292 -1.4871
  797SOL     OW 2389   0.778   0.668   1.348 -0.0945  0.1112 -0.2382
  797SOL    HW1 2390   0.812   0.745   1.409 -0.2015  1.8273 -0.6142
  797SOL    HW2 2391   0.709   0.707   1.284 -0.3425  1.1539  1.5678
  798SOL     OW 2392   1.279   0.426   1.069 -0.7103  0.1033 -0.5111
  798SOL    HW1 2393   1.295   0.465   1.163 -2.6584  0.6247  0.3278
  798SOL    HW2 2394   1.338   0.470   0.990 -0.4357 -2.3003 -2.0622
  799SOL     OW 2395   1.905   2.732   1.019 -0.6724  0.7830 -0.1890
  799SOL    HW1 2396   1.880   2.644   1.072  0.9211  1.1192  0.2780
  799SOL    HW2 2397   1.898   2.709   0.918  0.3148 -0.5658  3.6764
  800SOL     OW 2398   2.963   0.822   1.866  0.4254 -0.3662 -0.0747
  800SOL    HW1 2399   2.983   0.922   1.893 -1.9310  0.5293 -1.8054
  800SOL    HW2 2400   2.940   0.764   1.951  2.6679  1.1915  2.8137
  801SOL     OW 2401   1.982   2.129   0.060  0.2352 -0.2040  0.3151
  801SOL    HW1 2402   1.900   2.098   0.010  0.0911 -1.7576  1.4875
  801SOL    HW2 2403   2.069   2.085   0.019  1.3330 -0.4472  0.1775
  802SOL     OW 2404   0.707   0.721   2.526 -0.0056 -0.2233  0.7205
  802SOL    HW1 2405   0.761   0.736   2.435 -0.3666  2.7607 -0.4597
  802SOL    HW2 2406   0.607   0.696   2.505 -2.1681 -2.2840  1.9143
  803SOL     OW 2407   0.954   0.079   0.886 -0.6872 -0.0041 -0.2881
  803SOL    HW1 2408   1.033   0.138   0.924 -0.6855 -2.0761 -0.6253
  803SOL    HW2 2409   0.909   0.114   0.800  2.1940 -0.1142 -0.9595
  804SOL     OW 2410   0.292   3.074   2.170  0.1618  0.2510 -0.2020
  804SOL    HW1 2411   0.280   3.177   2.187 -3.1944  0.7191  2.4764
  804SOL    HW2 2412   0.232   3.048   2.089 -2.4513  2.2833  0.0180
  805SOL     OW 2413   2.333   0.409   0.299  0.0698 -0.3027 -0.2057
  805SOL    HW1 2414   2.418   0.425   0.356  1.0034 -2.6984 -0.4288
  805SOL    HW2 2415   2.347   0.324   0.233  0.5283  1.1252 -2.0065
  806SOL     OW 2416   0.627   2.477   1.803 -0.3002 -0.2737  0.6655
  806SOL    HW1 2417   0.581   2.572   1.816 -0.9928  1.0293  0.5725
  806SOL    HW2 2418   0.724   2.488   1.772  0.2823  0.2269  0.1656
  807SOL     OW 2419   2.484   0.936   0.435 -0.1936 -0.4844  0.2313
  807SOL    HW1 2420   2.567   0.881   0.459 -0.6475  1.8339 -2.5479
  807SOL    HW2 2421   2.498   0.959   0.331  1.2111  3.1408 -1.3294
  808SOL     OW 2422   0.621   2.004   2.882 -0.6737 -0.2113  0.0070
  808SOL    HW1 2423   0.610   2.036   2.980  0.9598  1.4072  0.3768
  808SOL    HW2 2424   0.666   1.906   2.873  1.0510 -0.1288 -2.0598
  809SOL     OW 2425   2.548   2.006   1.886 -0.2952  0.1997  0.3747
  809SOL    HW1 2426   2.641   2.050   1.870 -4.1713  0.6317  3.9494
  809SOL    HW2 2427   2.495   1.999   1.797  1.2108 -2.0916 -0.2113
  810SOL     OW 2428   2.149   1.096   0.510 -0.4472  0.0778  0.6805
  810SOL    HW1 2429   2.146   1.032   0.593 -0.6369  0.1320  0.6931
  810SOL    HW2 2430   2.143   1.197   0.538  0.6401 -2.8752 -1.9309
  811SOL     OW 2431   1.367   2.558   1.201 -0.6616  0.4261  0.1481
  811SOL    HW1 2432   1.334   2.471   1.249  2.3382 -0.3777  0.3977
  811SOL    HW2 2433   1.342   2.650   1.240 -1.0089 -1.3249  1.6859
  812SOL     OW 2434   1.406   0.783   1.946 -0.4105  0.2495 -0.4906
  812SOL    HW1 2435   1.314   0.744   1.914  2.1187 -1.7872 -0.7759
  812SOL    HW2 2436   1.403   0.872   1.992  1.0008 -2.7185 -1.6663
  813SOL     OW 2437   1.587   2.066   2.428  0.0334 -0.1815 -0.2622
  813SOL    HW1 2438   1.635   1.977   2.457 -0.9081 -0.1191  1.1709
  813SOL    HW2 2439   1.572   2.067   2.327 -0.2774 -1.3859 -0.4321
  814SOL     OW 2440   2.975   1.617   2.893 -0.7585  0.4174  0.1879
  814SOL    HW1 2441   3.042   1.570   2.964 -0.2079 -0.4538  3.1252
  814SOL    HW2 2442   3.011   1.711   2.868 -0.0712  1.9997  1.4922
  815SOL     OW 2443   2.199   2.898   2.767 -0.5023  0.2075 -0.4019
  815SOL    HW1 2444   2.166   2.824   2.834 -0.0140 -1.6087 -0.5665
  815SOL    HW2 2445   2.298   2.932   2.792  0.4520  0.2872  0.2193
  816SOL     OW 2446   1.573   0.351   1.685 -0.0594 -0.1617  0.1237
  816SOL    HW1 2447   1.634   0.277   1.724 -0.8133  2.6751 -0.6908
  816SOL    HW2 2448   1.495   0.373   1.750 -0.7156  0.1272  1.0002
  817SOL     OW 2449   0.384   1.182   2.658  0.2513  0.1151 -0.1150
  817SOL    HW1 2450   0.298   1.191   2.714  0.9524  0.3421 -0.6866
  817SOL    HW2 2451   0.410   1.264   2.598 -2.8832  1.1696 -1.2234
  818SOL     OW 2452   1.982   0.812   0.442 -0.3365  0.1958  0.1559
  818SOL    HW1 2453   2.086   0.811   0.432 -0.2173 -2.7999 -1.0333
  818SOL    HW2 2454   1.943   0.864   0.525  0.7710 -0.6304  0.6571
  819SOL     OW 2455   2.728   2.981   3.062 -0.1124  0.4986  0.3048
  819SOL    HW1 2456   2.748   2.915   3.141 -0.2838 -0.8180  2.2049
  819SOL    HW2 2457   2.697   2.938   2.970 -2.0775  0.8015 -0.2188
  820SOL     OW 2458   1.243   1.033   0.525 -0.0228  0.3100 -0.3014
  820SOL    HW1 2459   1.265   1.130   0.551  1.8899  1.6332  1.1381
  820SOL    HW2 2460   1.231   0.979   0.616 -0.2651  0.0471  2.3179
  821SOL     OW 2461   0.032   1.245   0.711 -0.0545 -0.0631 -0.0131
  821SOL    HW1 2462   0.000   1.230   0.811  3.5955  0.0469 -1.9314
  821SOL    HW2 2463   0.102   1.320   0.710  2.3431 -1.9893  2.5466
  822SOL     OW 2464   2.513   1.804   2.462 -0.0670 -0.2332 -0.1899
  822SOL    HW1 2465   2.507   1.878   2.538 -0.7695 -0.8726 -0.1568
  822SOL    HW2 2466   2.446   1.822   2.382 -1.3923 -0.4668 -0.2650
  823SOL     OW 2467   1.990   0.902   1.147 -0.2731  0.4687  0.1545
  823SOL    HW1 2468   1.958   0.866   1.242 -0.5622  1.2119  2.9632
  823SOL    HW2 2469   1.915   0.936   1.082  1.4516  0.0103  1.8600
  824SOL     OW 2470   0.218   1.987   2.792  0.2082 -0.1497 -0.5706
  824SOL    HW1 2471   0.239   1.934   2.881 -1.2449  1.1279  1.8205
  824SOL    HW2 2472   0.260   1.959   2.702  1.0255 -1.8580 -1.7685
  825SOL     OW 2473   1.327   1.054   0.264  0.2958  0.5044 -0.0509
  825SOL    HW1 2474   1.327   1.154   0.239  0.4281 -2.2610 -1.4813
  825SOL    HW2 2475   1.293   1.037   0.361 -5.1384 -0.5532  1.3990
  826SOL     OW 2476   1.934   0.617   1.592 -0.1042 -0.1968 -0.6933
  826SOL    HW1 2477   2.015   0.575   1.644 -0.1359  2.5521  0.4195
  826SOL    HW2 2478   1.867   0.541   1.559  1.0530 -0.9633  1.4273
  827SOL     OW 2479   0.677   1.222   0.307  0.4384 -0.6829  0.3595
  827SOL    HW1 2480   0.750   1.161   0.270  1.1725  1.1278  0.6228
  827SOL    HW2 2481   0.597   1.172   0.344  2.7320 -1.6051  0.4627
  828SOL     OW 2482   2.656   0.115   1.510  0.3806  0.0049 -0.1944
  828SOL    HW1 2483   2.560   0.118   1.475  2.2609  3.1073  1.3013
  828SOL    HW2 2484   2.655   0.111   1.616  0.8400  1.7698  0.3624
  829SOL     OW 2485   2.967   2.406   2.836  0.1844  0.6321  0.4142
  829SOL    HW1 2486   2.869   2.386   2.861  1.9202  1.8971  2.1703
  829SOL    HW2 2487   2.983   2.498   2.794 -1.5831  0.4820 -0.1700
  830SOL     OW 2488   2.877   0.950   3.041 -0.0513 -0.4323 -0.2896
  830SOL    HW1 2489   2.931   1.008   3.103 -0.5991  1.4484 -0.4107
  830SOL    HW2 2490   2.871   0.853   3.076 -0.8484 -1.8330  0.2730
  831SOL     OW 2491   0.014   0.546   0.420 -0.2854 -0.0520 -0.1302
  831SOL    HW1 2492   0.012   0.466   0.489 -1.0924  0.0857  0.7605
  831SOL    HW2 2493   0.044   0.523   0.325  0.0478  0.4856 -1.3394
  832SOL     OW 2494   1.847   0.774   3.054  0.1628  0.5193  0.3771
  832SOL    HW1 2495   1.752   0.800   3.023 -1.5956 -2.9976 -0.9262
  832SOL    HW2 2496   1.857   0.668   3.043 -1.3193 -1.0122  2.3270
  833SOL     OW 2497   2.427   2.050   0.445  0.1056  0.0205 -0.1902
  833SOL    HW1 2498   2.326   2.031   0.438 -2.4496 -1.5996  0.7605
  833SOL    HW2 2499   2.489   1.969   0.472 -1.3910 -0.2093 -2.7504
  834SOL     OW 2500   0.176   0.117   0.546  0.5314  0.4850 -0.0350
  834SOL    HW1 2501   0.191   0.018   0.583  1.9993 -2.2808 -0.1410
  834SOL    HW2 2502   0.146   0.120   0.448  1.0842  0.4819 -0.6620
  835SOL     OW 2503   2.462   1.520   1.163  0.7388  0.1362  0.1823
  835SOL    HW1 2504   2.518   1.611   1.160  2.4429 -0.9540 -0.7286
  835SOL    HW2 2505   2.491   1.468   1.076  1.2759  0.6714 -1.2116
  836SOL     OW 2506   1.625   0.830   2.577  0.4503 -0.3605  0.3275
  836SOL    HW1 2507   1.530   0.788   2.604 -0.4113  0.3906  2.0847
  836SOL    HW2 2508   1.637   0.851   2.476  0.9721  0.3527  1.1680
  837SOL     OW 2509   1.651   0.058   0.605  0.3615  0.3852  0.2590
  837SOL    HW1 2510   1.606   0.134   0.661  2.2910  0.2864  0.4589
  837SOL    HW2 2511   1.625   0.064   0.504 -0.9225  0.4695 -1.4328
  838SOL     OW 2512   1.236   1.359   2.719  0.0130  0.0008 -0.6332
  838SOL    HW1 2513   1.211   1.424   2.796 -1.3141 -0.0219 -0.9413
  838SOL    HW2 2514   1.149   1.325   2.672 -0.6963 -0.6831 -1.6662
  839SOL     OW 2515   1.607   0.375   0.980 -0.1238 -0.1276 -0.5428
  839SOL    HW1 2516   1.641   0.406   1.071 -1.3123  2.1634 -0.4808
  839SOL    HW2 2517   1.575   0.275   0.988  0.4328 -1.7258 -2.2104
  840SOL     OW 2518   2.602   2.923   1.744  0.5785  0.1982 -0.3780
  840SOL    HW1 2519   2.553   2.889   1.656  5.5148  0.7744 -2.9888
  840SOL    HW2 2520   2.598   2.852   1.820  0.1622  1.6487 -0.7160
  841SOL     OW 2521   1.544   0.859   2.971 -0.1298 -0.3657  0.0406
  841SOL    HW1 2522   1.497   0.940   3.017 -1.0433  2.8659 -2.5694
  841SOL    HW2 2523   1.616   0.885   2.902 -1.7577 -0.4216 -0.8351
  842SOL     OW 2524   0.787   1.549   0.996  0.3514  0.3364  0.0632
  842SOL    HW1 2525   0.738   1.629   1.034 -1.0916 -0.8443  2.7299
  842SOL    HW2 2526   0.737   1.497   0.921 -0.0632  0.6528  0.2626
  843SOL     OW 2527   0.113   0.130   1.435  0.2347 -0.3074 -0.2508
  843SOL    HW1 2528   0.179   0.168   1.503 -3.2064 -1.1765 -0.7752
  843SOL    HW2 2529   0.135   0.033   1.406  0.0053  0.3692  0.5699
  844SOL     OW 2530   0.771   2.478   0.240  0.3392  0.3159  0.2283
  844SOL    HW1 2531   0.753   2.488   0.340 -3.1290 -0.2290 -2.8271
  844SOL    HW2 2532   0.684   2.446   0.197  0.4560  2.8188 -0.6760
  845SOL     OW 2533   1.694   2.930   1.355 -0.0891  0.3990 -0.7495
  845SOL    HW1 2534   1.747   2.931   1.444  0.1705  1.3194 -0.7489
  845SOL    HW2 2535   1.656   3.025   1.337  1.2339  1.0446  0.8543
  846SOL     OW 2536   1.708   2.960   0.915  0.3562  0.1106  0.0840
  846SOL    HW1 2537   1.674   2.973   0.817  0.3344  0.3552 -1.2387
  846SOL    HW2 2538   1.806   2.927   0.917 -1.6295 -2.0325 -1.4582
  847SOL     OW 2539   2.090   1.604   0.215  0.2612  0.0524 -0.1052
  847SOL    HW1 2540   2.054   1.598   0.310  0.1607  2.1943 -1.2484
  847SOL    HW2 2541   2.014   1.613   0.141  0.1095  1.5384 -2.0069
  848SOL     OW 2542   2.469   0.810   2.669 -0.2702 -0.5088 -0.2978
  848SOL    HW1 2543   2.469   0.912   2.691  1.4112 -0.1929  1.0936
  848SOL    HW2 2544   2.386   0.776   2.617  2.0019  2.5470  3.1284
  849SOL     OW 2545   2.436   0.839   2.308 -0.3587  0.1106  0.2832
  849SOL    HW1 2546   2.495   0.759   2.268 -0.2110 -0.4781  0.4743
  849SOL    HW2 2547   2.386   0.809   2.393 -0.1955 -0.2557  0.2487
  850SOL     OW 2548   1.564   0.111   1.277  0.7557  0.9483  0.0999
  850SOL    HW1 2549   1.543   0.079   1.180 -0.7450 -1.1666 -1.2879
  850SOL    HW2 2550   1.498   0.080   1.356 -1.3907  3.2272  1.2727
  851SOL     OW 2551   0.465   1.743   0.680  0.0159  0.9309  0.3700
  851SOL    HW1 2552   0.450   1.834   0.631  0.4585 -0.5621 -0.9158
  851SOL    HW2 2553   0.560   1.739   0.716 -0.4592 -2.3883 -1.6162
  852SOL     OW 2554   0.813   2.110   1.664 -0.6679  0.0935  0.1506
  852SOL    HW1 2555   0.827   2.203   1.616  0.7758 -0.3025 -2.5738
  852SOL    HW2 2556   0.758   2.119   1.749  3.3307 -0.5219 -2.2741
  853SOL     OW 2557   2.547   1.558   2.590 -0.3048 -0.3202  0.0022
  853SOL    HW1 2558   2.527   1.466   2.550  0.9806  2.2308 -2.6292
  853SOL    HW2 2559   2.504   1.636   2.531  1.9918  0.3749  0.2878
  854SOL     OW 2560   2.436   1.416   1.784 -0.7420  0.0441 -0.1782
  854SOL    HW1 2561   2.492   1.369   1.708 -2.2596  0.4731 -1.2460
  854SOL    HW2 2562   2.409   1.345   1.858 -0.3537 -0.9586  0.8597
  855SOL     OW 2563   2.041   2.334   0.954 -0.5513 -0.0941  0.1600
  855SOL    HW1 2564   2.092   2.412   0.908 -0.0968 -0.6190  1.8873
  855SOL    HW2 2565   2.098   2.300   1.038  0.0107  2.7459 -1.2800
  856SOL     OW 2566   1.398   1.382   0.924  0.1138  0.0114 -0.0452
  856SOL    HW1 2567   1.392   1.476   0.961  0.4756 -0.1657  0.2761
  856SOL    HW2 2568   1.352   1.310   0.983 -1.5375 -4.3461  0.1371
  857SOL     OW 2569   2.984   2.639   1.072 -0.0006 -0.2102 -0.0808
  857SOL    HW1 2570   2.889   2.597   1.083  0.9984 -0.1640  0.9588
  857SOL    HW2 2571   3.048   2.579   1.010  1.4721  0.9975 -2.4272
  858SOL     OW 2572   2.318   2.161   1.687 -0.0774 -0.0853  0.3704
  858SOL    HW1 2573   2.218   2.170   1.670  0.1810 -0.6816 -2.8665
  858SOL    HW2 2574   2.368   2.085   1.633 -2.1130 -1.8251  1.0645
  859SOL     OW 2575   2.447   0.500   1.050 -0.0818  0.0375 -0.4556
  859SOL    HW1 2576   2.508   0.542   0.972  4.6304  0.2739 -1.7662
  859SOL    HW2 2577   2.491   0.414   1.097 -0.9862  0.9903 -0.2909
  860SOL     OW 2578   1.952   2.778   0.465  0.3165 -0.0379  0.0734
  860SOL    HW1 2579   1.956   2.724   0.372  2.2994  0.7851  0.2686
  860SOL    HW2 2580   2.020   2.855   0.461  0.1387 -0.0967 -0.1331
  861SOL     OW 2581   1.103   2.599   2.758 -0.0121  0.4641 -0.1369
  861SOL    HW1 2582   1.146   2.697   2.751  1.0250 -0.7695  0.8680
  861SOL    HW2 2583   1.122   2.555   2.851  1.0362 -1.7892 -0.5668
  862SOL     OW 2584   2.924   2.526   1.584  0.0581  0.9311 -0.7964
  862SOL    HW1 2585   2.996   2.553   1.653  1.9022 -1.8980 -2.3967
  862SOL    HW2 2586   2.881   2.606   1.542  3.1577 -2.6899  3.2417
  863SOL     OW 2587   1.866   2.625   0.208 -0.0524 -0.0275  0.2011
  863SOL    HW1 2588   1.912   2.533   0.201 -2.6610 -3.0081 -0.1956
  863SOL    HW2 2589   1.763   2.607   0.219  1.3040  0.6990 -1.2774
  864SOL     OW 2590   1.870   1.182   2.932  0.1493  0.1584  0.2846
  864SOL    HW1 2591   1.888   1.142   2.837 -2.6383 -0.9408  1.5307
  864SOL    HW2 2592   1.947   1.162   3.000  2.3157  3.1803  3.0170
  865SOL     OW 2593   2.190   1.787   0.694 -0.0520 -0.3125 -0.1320
  865SOL    HW1 2594   2.226   1.791   0.789  2.5160 -0.0155  0.9222
  865SOL    HW2 2595   2.088   1.766   0.699 -2.4954  0.3545  0.1310
  866SOL     OW 2596   2.957   2.884   1.017  0.1309 -0.2883  0.4964
  866SOL    HW1 2597   3.012   2.907   0.933 -2.6300  1.0009  0.5598
  866SOL    HW2 2598   2.974   2.786   1.051  2.9646 -1.8763  1.9511
  867SOL     OW 2599   0.416   1.329   0.866  0.4552 -0.2227  0.1069
  867SOL    HW1 2600   0.445   1.232   0.836 -1.1452 -0.4258 -0.8095
  867SOL    HW2 2601   0.328   1.357   0.823  1.1265  0.9451 -1.1518
  868SOL     OW 2602   0.820   1.928   2.016  0.5756 -0.4046  0.4283
  868SOL    HW1 2603   0.802   1.896   2.112 -2.5482  1.4064  0.3862
  868SOL    HW2 2604   0.762   2.014   1.988 -0.1339  3.7548 -1.7013
  869SOL     OW 2605   2.478   1.986   1.590 -0.0937  1.1245 -0.0236
  869SOL    HW1 2606   2.581   2.009   1.589 -0.1751  0.7890  0.2922
  869SOL    HW2 2607   2.450   1.936   1.503  0.1955 -0.5264  1.3737
  870SOL     OW 2608   2.261   2.608   1.229  0.1637 -0.7062 -0.0455
  870SOL    HW1 2609   2.208   2.520   1.221  0.1532  1.0002  1.7681
  870SOL    HW2 2610   2.339   2.596   1.290  1.1872 -1.3315  0.3316
  871SOL     OW 2611   2.991   2.076   0.567 -0.0034 -0.0659 -0.1790
  871SOL    HW1 2612   2.918   2.144   0.603 -1.4405 -1.4733  1.8107
  871SOL    HW2 2613   2.946   2.028   0.489 -1.9049  2.1227 -0.6623
  872SOL     OW 2614   2.146   0.494   1.696 -0.1026  0.1007  0.0886
  872SOL    HW1 2615   2.120   0.471   1.794 -0.2990  2.1628  0.0922
  872SOL    HW2 2616   2.243   0.464   1.677  0.9220  0.1530 -0.7298
  873SOL     OW 2617   1.729   2.080   2.967  0.4483  0.2423  0.2293
  873SOL    HW1 2618   1.735   2.181   2.993 -0.6502  0.9122 -0.2613
  873SOL    HW2 2619   1.664   2.066   2.886  1.3560 -1.6349  0.1477
  874SOL     OW 2620   0.663   2.455   0.760 -0.1049  0.4825 -0.3950
  874SOL    HW1 2621   0.621   2.537   0.805  0.1691 -2.9283  0.1943
  874SOL    HW2 2622   0.765   2.452   0.775  1.4719  1.7393  1.2374
  875SOL     OW 2623   2.263   1.558   1.470  0.2281  0.3923  0.3202
  875SOL    HW1 2624   2.365   1.575   1.483  2.0739  1.6912  1.9328
  875SOL    HW2 2625   2.213   1.603   1.386 -0.1968  0.3336  0.1366
  876SOL     OW 2626   0.149   2.236   2.691  0.3629  0.2697  0.3592
  876SOL    HW1 2627   0.169   2.144   2.740 -2.4897 -3.2662 -0.3263
  876SOL    HW2 2628   0.166   2.320   2.751  0.4348 -0.6246 -1.8099
  877SOL     OW 2629   2.757   2.673   0.657 -0.8023 -0.0190  0.0702
  877SOL    HW1 2630   2.816   2.760   0.681  1.9718  1.4119  0.5674
  877SOL    HW2 2631   2.806   2.583   0.680 -0.6801  1.8781 -0.2445
  878SOL     OW 2632   2.876   1.450   2.251  0.2370 -0.6920 -0.2906
  878SOL    HW1 2633   2.964   1.501   2.237 -0.4731 -0.3238 -3.6906
  878SOL    HW2 2634   2.836   1.477   2.341  1.2573 -0.5224 -1.5326
  879SOL     OW 2635   2.392   0.030   1.177 -0.0218 -0.7575 -0.0054
  879SOL    HW1 2636   2.441  -0.062   1.184 -0.1776  0.9487  0.0565
  879SOL    HW2 2637   2.321   0.034   1.100 -0.4675  2.4579  1.9787
  880SOL     OW 2638   0.710   0.443   2.202  0.5278 -0.4568 -0.3078
  880SOL    HW1 2639   0.628   0.391   2.233  2.7680  2.5409 -1.1527
  880SOL    HW2 2640   0.770   0.391   2.138 -2.2838  1.1962 -1.2625
  881SOL     OW 2641   0.891   0.045   0.424  0.3717 -0.1408 -0.2237
  881SOL    HW1 2642   0.895  -0.041   0.474  0.8162  1.8411 -3.3150
  881SOL    HW2 2643   0.872   0.030   0.321  0.9089 -1.6606 -1.6408
  882SOL     OW 2644   2.708   1.614   1.674  0.7696 -0.3039 -0.6261
  882SOL    HW1 2645   2.810   1.618   1.656 -1.6750  1.4994 -1.7216
  882SOL    HW2 2646   2.682   1.673   1.756 -0.8434  1.9330  0.1525
  883SOL     OW 2647   0.957   0.596   0.970  0.5466 -0.2818  0.3194
  883SOL    HW1 2648   0.966   0.692   0.999 -1.7215 -0.1173 -0.0440
  883SOL    HW2 2649   1.047   0.549   0.946  1.2380 -0.0963 -0.4840
  884SOL     OW 2650   1.177   1.839   1.057 -0.1331  0.3328 -0.6316
  884SOL    HW1 2651   1.156   1.792   0.969  0.2102  1.2403 -1.5590
  884SOL    HW2 2652   1.135   1.934   1.050 -0.4439 -1.9858 -2.5823
  885SOL     OW 2653   2.306   1.851   2.302 -0.4627  0.1927  0.1595
  885SOL    HW1 2654   2.221   1.804   2.336 -1.5995 -0.0819  3.9594
  885SOL    HW2 2655   2.309   1.946   2.337  0.2683 -0.7176 -0.0131
  886SOL     OW 2656   2.662   0.469   1.776  0.3167 -0.0359  0.2426
  886SOL    HW1 2657   2.722   0.399   1.825 -0.8108  0.6534 -1.7240
  886SOL    HW2 2658   2.720   0.548   1.744 -0.2062 -0.1990  0.7668
  887SOL     OW 2659   0.116   2.052   1.243 -0.3512 -0.0418  0.2925
  887SOL    HW1 2660   0.030   2.011   1.200 -2.5890 -0.0451  0.4536
  887SOL    HW2 2661   0.151   2.132   1.194 -0.7148 -0.4482  0.5092
  888SOL     OW 2662   0.547   1.312   1.560 -0.0382 -0.5651 -0.1867
  888SOL    HW1 2663   0.563   1.361   1.472 -0.0352  0.7378  3.9951
  888SOL    HW2 2664   0.510   1.213   1.547 -1.6040 -0.2960  0.4713
  889SOL     OW 2665   0.838   2.474   2.146  0.2594  0.1870  0.0054
  889SOL    HW1 2666   0.778   2.392   2.123 -0.1587 -2.5001 -3.3225
  889SOL    HW2 2667   0.913   2.485   2.077  1.6110 -0.3514 -1.5775
  890SOL     OW 2668   2.356   2.471   0.196 -0.0658  0.0769 -0.1608
  890SOL    HW1 2669   2.359   2.547   0.127  1.2873  0.7824 -1.1149
  890SOL    HW2 2670   2.286   2.487   0.271  0.7302 -0.1179  1.0154
  891SOL     OW 2671   2.635   1.521   0.653 -0.1416 -0.1127 -0.5390
  891SOL    HW1 2672   2.619   1.507   0.751  0.3668 -1.3447 -2.3090
  891SOL    HW2 2673   2.550   1.557   0.612 -0.4882  1.4054  0.2760
  892SOL     OW 2674   0.275   0.256   2.206 -0.1032  0.8653  0.4678
  892SOL    HW1 2675   0.278   0.254   2.099 -1.4241  0.9945 -0.5957
  892SOL    HW2 2676   0.361   0.297   2.247  0.4172  1.7674 -0.4817
  893SOL     OW 2677   1.679   0.222   2.766  0.5523 -0.5025 -0.0375
  893SOL    HW1 2678   1.751   0.294   2.765 -0.3083  0.3357 -1.4027
  893SOL    HW2 2679   1.587   0.266   2.779  0.2258  1.1294 -0.6216
  894SOL     OW 2680   2.231   2.017   0.052 -0.5224  0.1025  0.4414
  894SOL    HW1 2681   2.179   1.961  -0.022 -2.0971  2.1852 -4.4471
  894SOL    HW2 2682   2.257   1.961   0.131 -1.8879 -0.8936 -1.1264
  895SOL     OW 2683   2.867   1.428   0.862  0.6149  0.1679 -0.0615
  895SOL    HW1 2684   2.932   1.361   0.906  2.2317 -0.0918  1.0752
  895SOL    HW2 2685   2.915   1.490   0.797  0.4639 -2.7423 -0.0287
  896SOL     OW 2686   1.739   1.783   1.164 -0.5407 -0.0141 -0.0525
  896SOL    HW1 2687   1.805   1.836   1.104 -2.0798  0.1462  0.1965
  896SOL    HW2 2688   1.646   1.782   1.119 -1.8323 -1.9367 -0.2432
  897SOL     OW 2689   0.275   0.557   3.045  0.0404 -0.0083  0.3158
  897SOL    HW1 2690   0.243   0.621   2.972  0.4945 -0.4185  2.2941
  897SOL    HW2 2691   0.362   0.600   3.079 -2.6453 -1.2829  0.2215
  898SOL     OW 2692   0.568   2.829   1.125 -0.1641 -0.1105 -0.1224
  898SOL    HW1 2693   0.508   2.910   1.149 -0.7893 -0.2408  2.5942
  898SOL    HW2 2694   0.671   2.850   1.134  1.1614  1.5848  1.9781
  899SOL     OW 2695   2.730   0.951   1.240 -0.5806  0.3590 -0.0983
  899SOL    HW1 2696   2.641   0.940   1.182 -1.6143  2.3211  1.5727
  899SOL    HW2 2697   2.810   0.963   1.173  0.7636  1.3692  1.3947
  900SOL     OW 2698   0.991   2.548   2.371  0.1798 -0.1729 -0.9584
  900SOL    HW1 2699   0.906   2.535   2.319  1.1996 -0.1081  1.5034
  900SOL    HW2 2700   0.997   2.486   2.457  1.4489  1.0632 -2.0095
  901SOL     OW 2701   1.930   2.402   1.365  0.6955  0.2954 -0.4304
  901SOL    HW1 2702   1.901   2.423   1.270  0.4392 -0.4365  1.1704
  901SOL    HW2 2703   2.017   2.357   1.382  0.2735  1.0733 -1.2598
  902SOL     OW 2704   2.585   1.651   1.435 -0.1750 -0.1917  0.1949
  902SOL    HW1 2705   2.611   1.649   1.536  0.9667  1.3824  0.4635
  902SOL    HW2 2706   2.642   1.586   1.374 -1.6653  0.9414  1.1915
  903SOL     OW 2707   0.246   2.453   2.014  0.1275 -0.2558  0.2943
  903SOL    HW1 2708   0.187   2.375   1.979 -2.4452 -0.4876  2.6453
  903SOL    HW2 2709   0.276   2.516   1.936  0.2290 -0.9854  2.6236
  904SOL     OW 2710   1.991   0.746   2.409 -0.2981  0.4483  0.9534
  904SOL    HW1 2711   1.934   0.713   2.493  1.1161 -1.7505  1.4615
  904SOL    HW2 2712   1.933   0.746   2.324 -1.4328 -0.0052  2.2967
  905SOL     OW 2713   2.801   0.069   2.587 -0.5356 -0.7363  0.0795
  905SOL    HW1 2714   2.864  -0.013   2.585 -0.2596 -0.9467  1.2810
  905SOL    HW2 2715   2.838   0.157   2.547  0.4598  0.8712  0.0895
  906SOL     OW 2716   0.178   1.777   1.857  0.6990  0.6290  0.3473
  906SOL    HW1 2717   0.127   1.751   1.769  1.7728 -1.5243 -1.2057
  906SOL    HW2 2718   0.265   1.826   1.837  1.0665 -1.3433  0.4308
  907SOL     OW 2719   0.167   2.495   1.006  0.4214  0.2992  0.0654
  907SOL    HW1 2720   0.241   2.569   1.012 -2.6750  1.1103  2.6672
  907SOL    HW2 2721   0.184   2.429   0.929 -1.5703  1.0195  0.7205
  908SOL     OW 2722   2.694   2.972   0.450 -0.1891  0.0761 -0.0090
  908SOL    HW1 2723   2.670   3.018   0.358 -2.8827 -0.8068 -0.7950
  908SOL    HW2 2724   2.734   2.880   0.429  2.0699 -1.5040  3.6281
  909SOL     OW 2725   0.813   0.922   2.672  0.4736 -0.7001 -0.4043
  909SOL    HW1 2726   0.770   0.860   2.601  0.0108  1.9451 -0.6945
  909SOL    HW2 2727   0.908   0.949   2.644  0.4093 -1.9198 -1.4479
  910SOL     OW 2728   1.767   1.831   2.076 -0.2528 -0.2805  0.1637
  910SOL    HW1 2729   1.827   1.852   1.992 -1.7858 -0.4774 -2.8743
  910SOL    HW2 2730   1.702   1.911   2.101 -1.6185  0.6370  1.2760
  911SOL     OW 2731   1.790   2.979   1.603  0.1738  0.1564 -0.3153
  911SOL    HW1 2732   1.885   2.955   1.573 -1.7534 -1.8731  1.0018
  911SOL    HW2 2733   1.757   2.927   1.688  1.5336  0.9008 -0.1568
  912SOL     OW 2734   2.872   0.958   0.771 -0.3188 -0.5158 -0.4949
  912SOL    HW1 2735   2.900   0.940   0.869 -1.2663 -0.8955 -1.7173
  912SOL    HW2 2736   2.839   1.057   0.753 -0.7221 -0.7149  0.8923
  913SOL     OW 2737   2.561   1.275   1.570 -0.1412  0.3966 -0.0049
  913SOL    HW1 2738   2.587   1.175   1.565  1.9518 -1.0181 -0.0897
  913SOL    HW2 2739   2.559   1.318   1.477 -3.6400  0.3352  3.0754
  914SOL     OW 2740   2.801   0.520   1.224  0.1508  0.1235  0.2378
  914SOL    HW1 2741   2.767   0.429   1.256  2.8405  0.1467  2.7580
  914SOL    HW2 2742   2.799   0.590   1.296 -2.9198 -2.2430 -0.9539
  915SOL     OW 2743   1.215   0.822   0.995 -0.4827  0.0716  0.1588
  915SOL    HW1 2744   1.266   0.789   1.079 -2.6563 -1.0983 -0.6123
  915SOL    HW2 2745   1.116   0.853   1.025 -1.4828  0.3561  0.4675
  916SOL     OW 2746   0.592   0.017   0.671 -0.3969  0.4773 -0.1495
  916SOL    HW1 2747   0.618   0.100   0.730 -0.9671  0.9583 -2.9385
  916SOL    HW2 2748   0.584   0.037   0.570 -2.3383  0.5437  1.2486
  917SOL     OW 2749   2.813   2.604   1.989 -0.2095  0.5065 -0.2737
  917SOL    HW1 2750   2.715   2.622   1.991 -0.5197  0.1957 -0.1455
  917SOL    HW2 2751   2.866   2.676   1.937 -0.0482 -1.2466 -2.3244
  918SOL     OW 2752   1.008   2.217   3.025 -0.6986 -0.1861  0.4325
  918SOL    HW1 2753   0.955   2.229   3.115  1.9131 -0.5517  2.0532
  918SOL    HW2 2754   1.059   2.128   3.031 -1.7800  0.4591  0.9784
  919SOL     OW 2755   0.911   1.591   2.808  0.2729 -0.4223 -0.2800
  919SOL    HW1 2756   0.950   1.674   2.763 -2.4662 -0.1653 -0.9485
  919SOL    HW2 2757   0.869   1.525   2.742 -0.7701 -0.0929  2.6366
  920SOL     OW 2758   1.266   2.004   2.495 -0.5893  0.2380  0.1250
  920SOL    HW1 2759   1.267   2.014   2.389  0.4173  2.8737  0.2735
  920SOL    HW2 2760   1.250   1.904   2.525  0.0302  1.4548 -1.5031
  921SOL     OW 2761   1.103   0.053   2.570  0.4577 -0.2113 -0.5154
  921SOL    HW1 2762   1.089   0.072   2.469 -1.1033 -0.3865  2.7481
  921SOL    HW2 2763   1.013   0.063   2.625 -0.9911 -2.0072 -0.5602
  922SOL     OW 2764   2.146   2.384   2.834  0.0101  0.1577 -1.2565
  922SOL    HW1 2765   2.155   2.281   2.831  0.2398  0.9691  1.2778
  922SOL    HW2 2766   2.082   2.416   2.764  3.5674 -0.5213 -3.3709
  923SOL     OW 2767   1.248   2.699   0.251 -0.4262  0.2724 -0.4622
  923SOL    HW1 2768   1.333   2.724   0.306 -1.1393  1.6935  2.5970
  923SOL    HW2 2769   1.238   2.596   0.242 -1.5940  2.4969 -0.2323
  924SOL     OW 2770   2.900   1.566   0.088  0.4190  0.1110 -0.4141
  924SOL    HW1 2771   2.817   1.582   0.033  0.9291 -0.8698  2.2283
  924SOL    HW2 2772   2.980   1.534   0.030  0.2554 -2.2151 -0.1114
  925SOL     OW 2773   3.102   2.912   1.574  0.1564 -0.2139  0.8084
  925SOL    HW1 2774   3.004   2.943   1.600  0.7744 -1.5063  2.2270
  925SOL    HW2 2775   3.106   2.842   1.497  0.5972  0.5277 -2.3556
  926SOL     OW 2776   1.345   2.863   1.313  0.0364  0.8590 -0.0063
  926SOL    HW1 2777   1.422   2.869   1.244  2.1144 -0.3546  0.9801
  926SOL    HW2 2778   1.360   2.938   1.384  0.0581  0.8657 -0.5258
  927SOL     OW 2779   0.278   2.634   1.792 -0.1359 -0.0975  0.1915
  927SOL    HW1 2780   0.264   2.554   1.723  0.4812  1.2325 -1.8097
  927SOL    HW2 2781   0.256   2.728   1.755 -1.0691  0.1390  0.5339
  928SOL     OW 2782   1.569   2.015   2.132  0.2089 -0.3923 -0.1955
  928SOL    HW1 2783   1.611   2.108   2.100 -1.3407  2.2255 -1.2959
  928SOL    HW2 2784   1.469   1.999   2.116 -2.8117  1.2818  0.5063
  929SOL     OW 2785   2.410   2.483   2.857 -0.5246 -0.3198 -0.2075
  929SOL    HW1 2786   2.324   2.434   2.852  3.7173 -0.6772  0.4550
  929SOL    HW2 2787   2.468   2.484   2.772  2.2948  2.1269 -1.0075
  930SOL     OW 2788   2.171   2.017   1.063  0.3499  0.0470  0.2987
  930SOL    HW1 2789   2.188   1.977   1.159 -2.4516  0.4753  0.5790
  930SOL    HW2 2790   2.238   2.097   1.053  0.4013  0.5727 -0.8528
  931SOL     OW 2791   0.535   1.710   2.662  0.0223 -0.0863 -0.4755
  931SOL    HW1 2792   0.597   1.766   2.728  0.8276 -0.2729 -0.5451
  931SOL    HW2 2793   0.570   1.609   2.653 -0.3368  0.3120  2.5794
  932SOL     OW 2794   0.461   0.048   2.915 -0.0969  0.0915 -0.1199
  932SOL    HW1 2795   0.554   0.087   2.906  1.0216  1.7557 -1.9094
  932SOL    HW2 2796   0.451  -0.039   2.976 -1.7965 -0.7024 -0.2898
  933SOL     OW 2797   1.067   0.769   2.995  0.0672  0.1454 -0.2781
  933SOL    HW1 2798   1.134   0.807   3.063 -1.8552  3.0421 -1.0704
  933SOL    HW2 2799   0.995   0.841   2.975 -3.1722 -2.5500  0.7820
  934SOL     OW 2800   0.879   3.028   2.710 -0.4504  0.7483  0.1113
  934SOL    HW1 2801   0.910   2.967   2.634 -0.0817  0.8543  0.3443
  934SOL    HW2 2802   0.906   2.991   2.804 -2.0685 -3.4483 -3.0033
  935SOL     OW 2803   3.083   0.526   0.789 -0.4664 -0.3561 -0.1664
  935SOL    HW1 2804   3.079   0.431   0.740  0.7187 -3.1868 -1.1103
  935SOL    HW2 2805   2.989   0.567   0.794  1.5899 -1.5911 -1.6340
  936SOL     OW 2806   1.115   2.912   0.143 -0.2115 -0.1668 -0.0563
  936SOL    HW1 2807   1.151   2.927   0.044 -1.0325  0.1714  2.4916
  936SOL    HW2 2808   1.166   2.840   0.196 -0.6580  1.1453  1.6581
  937SOL     OW 2809   1.904   2.623   2.105 -0.2254 -0.5518  0.0448
  937SOL    HW1 2810   1.828   2.674   2.149  0.2754  3.2392 -0.9335
  937SOL    HW2 2811   1.917   2.638   2.002 -2.0580  0.7780  0.3371
  938SOL     OW 2812   2.718   2.092   1.576  0.3878  0.3704 -0.4041
  938SOL    HW1 2813   2.721   2.192   1.562 -0.4145  0.5967  0.8163
  938SOL    HW2 2814   2.807   2.060   1.611 -0.8701  0.1107 -1.4696
  939SOL     OW 2815   2.836   1.256   2.470 -0.5783  0.0772 -0.0513
  939SOL    HW1 2816   2.909   1.239   2.398 -1.1925  1.3590  0.5727
  939SOL    HW2 2817   2.839   1.197   2.556 -2.3481  0.7252 -0.6985
  940SOL     OW 2818   0.990   0.451   2.669  0.1045 -0.1113 -0.8150
  940SOL    HW1 2819   1.043   0.361   2.689 -2.3825  0.6738  1.6752
  940SOL    HW2 2820   0.885   0.450   2.658  2.5245  0.0562  1.3312
  941SOL     OW 2821   0.043   2.865   2.208  0.1230 -0.3275  0.4668
  941SOL    HW1 2822   0.063   2.769   2.202 -2.8801  3.7523  1.6034
  941SOL    HW2 2823   0.098   2.903   2.290  0.9164 -2.6861 -0.8374
  942SOL     OW 2824   0.047   0.130   2.551  0.1498 -0.2132  0.1057
  942SOL    HW1 2825   0.125   0.141   2.616  0.3796  0.5637  0.9633
  942SOL    HW2 2826   0.036   0.211   2.483 -2.7319  0.3025  0.2107
  943SOL     OW 2827   2.109   1.683   2.432 -0.2169  0.8605  0.1965
  943SOL    HW1 2828   2.135   1.612   2.363  0.1951  0.1249  1.8383
  943SOL    HW2 2829   2.095   1.641   2.525 -0.7885 -1.3781 -5.3157
  944SOL     OW 2830   2.175   2.326   1.464 -0.1801  0.0632 -0.3296
  944SOL    HW1 2831   2.228   2.411   1.491 -3.7340  0.3939 -0.1557
  944SOL    HW2 2832   2.121   2.283   1.544 -1.0110  1.1636  0.0979
  945SOL     OW 2833   0.621   1.484   0.367 -0.3615 -0.1869 -0.2050
  945SOL    HW1 2834   0.656   1.527   0.278 -0.1658  1.2940  1.3558
  945SOL    HW2 2835   0.629   1.377   0.364 -0.3993 -0.3109  1.1015
  946SOL     OW 2836   0.442   0.928   2.517 -0.2688 -0.3045 -0.8562
  946SOL    HW1 2837   0.367   0.872   2.472 -0.8383 -0.2269  1.7474
  946SOL    HW2 2838   0.414   1.013   2.576  0.1949  0.2377  3.5265
  947SOL     OW 2839   1.548   0.578   0.032  0.0047 -0.1115 -0.1903
  947SOL    HW1 2840   1.499   0.613  -0.052  1.7581 -0.3003 -2.7749
  947SOL    HW2 2841   1.478   0.544   0.102  0.8986  1.4491 -3.0931
  948SOL     OW 2842   2.055   3.080   2.193  0.2754  0.3984  0.1322
  948SOL    HW1 2843   2.042   3.041   2.099 -0.9615  1.4335 -0.9818
  948SOL    HW2 2844   2.014   3.008   2.260 -0.8898 -0.0203 -1.0934
  949SOL     OW 2845   0.686   2.540   0.499  0.3558  0.0225 -0.1332
  949SOL    HW1 2846   0.658   2.639   0.499 -1.3449 -0.0697  1.1300
  949SOL    HW2 2847   0.686   2.509   0.599  1.1590  2.7973  1.7853
  950SOL     OW 2848   0.240   2.150   3.050  0.7696  0.3793  0.4329
  950SOL    HW1 2849   0.160   2.216   3.049 -0.8629 -1.6732  0.1529
  950SOL    HW2 2850   0.235   2.072   2.982 -0.7457  2.5900 -0.8662
  951SOL     OW 2851   1.187   2.860   2.706 -0.3862 -0.2708  0.5032
  951SOL    HW1 2852   1.157   2.925   2.629 -2.0554  2.1140 -1.6166
  951SOL    HW2 2853   1.283   2.881   2.737 -0.5950  0.2599  1.3036
  952SOL     OW 2854   0.096   1.644   0.435 -0.3146 -0.0761  0.0827
  952SOL    HW1 2855   0.152   1.728   0.472  0.3801 -0.7069  1.7314
  952SOL    HW2 2856   0.047   1.607   0.515  1.1658  2.2025 -0.9851
  953SOL     OW 2857   2.512   1.781   0.165  0.4271  0.0637  0.4182
  953SOL    HW1 2858   2.500   1.681   0.206 -2.0452  0.3259  1.2747
  953SOL    HW2 2859   2.578   1.793   0.089 -1.1065 -0.7346  0.9442
  954SOL     OW 2860   2.184   0.529   0.989  0.2084 -0.0492 -0.1107
  954SOL    HW1 2861   2.179   0.548   0.883  1.4583  0.0462 -2.3086
  954SOL    HW2 2862   2.279   0.493   1.015  1.1430  1.8901 -0.5536
  955SOL     OW 2863   0.257   2.683   1.374 -0.1088  0.3813 -0.2489
  955SOL    HW1 2864   0.159   2.672   1.401  0.3092  0.2303 -3.5352
  955SOL    HW2 2865   0.270   2.675   1.269  2.0972  0.7641 -2.0581
  956SOL     OW 2866   2.756   2.443   2.448 -0.2220  0.9475  0.2734
  956SOL    HW1 2867   2.790   2.350   2.462  0.2336 -1.6669  0.4991
  956SOL    HW2 2868   2.796   2.493   2.367 -0.8864 -1.7079 -0.1073
  957SOL     OW 2869   1.547   2.017   2.748  0.2411 -0.9197 -0.3089
  957SOL    HW1 2870   1.550   1.917   2.737  0.0464  3.0972 -0.3141
  957SOL    HW2 2871   1.531   2.065   2.659  1.8728 -2.6109 -0.2122
  958SOL     OW 2872   2.733   2.319   2.956 -0.4108  0.1011  0.1557
  958SOL    HW1 2873   2.646   2.373   2.940  2.8058  1.2614 -0.6689
  958SOL    HW2 2874   2.724   2.265   3.043  1.2472  1.3725 -0.8908
  959SOL     OW 2875   0.244   2.746   0.130 -0.0926 -0.2868  0.0894
  959SOL    HW1 2876   0.153   2.726   0.082 -0.1835 -0.5682  0.0630
  959SOL    HW2 2877   0.277   2.678   0.196  2.0841  0.8623  0.5421
  960SOL     OW 2878   1.984   0.428   1.935 -0.2562  0.6066  0.2216
  960SOL    HW1 2879   1.938   0.517   1.895  0.5272  1.8111 -1.7057
  960SOL    HW2 2880   1.977   0.431   2.036 -0.3886  0.9258 -1.5147
  961SOL     OW 2881   2.560   1.828   1.037  0.4232  0.1505 -0.2742
  961SOL    HW1 2882   2.523   1.910   0.985  0.1493  0.0143 -0.8105
  961SOL    HW2 2883   2.561   1.835   1.142  1.6025 -0.9731 -0.9578
  962SOL     OW 2884   1.265   0.903   0.041  0.6948 -0.2536  0.4046
  962SOL    HW1 2885   1.270   0.955  -0.050 -1.1751 -1.5717  1.7418
  962SOL    HW2 2886   1.279   0.965   0.124  0.5910  0.5671 -0.6358
  963SOL     OW 2887   2.202   2.554   1.845  0.2261 -0.1114  0.2146
  963SOL    HW1 2888   2.196   2.458   1.886  1.7377 -1.6591  1.1404
  963SOL    HW2 2889   2.239   2.618   1.914 -1.1024  1.5777  0.1174
  964SOL     OW 2890   2.403   0.427   1.689  0.3432  0.1802  0.2550
  964SOL    HW1 2891   2.503   0.455   1.715  1.7473 -0.8732  0.4330
  964SOL    HW2 2892   2.400   0.419   1.585 -0.8543  0.6637 -2.8689
  965SOL     OW 2893   2.601   3.074   0.217  0.2867  0.1375 -0.4437
  965SOL    HW1 2894   2.660   3.076   0.133 -2.5441 -1.4920  0.7780
  965SOL    HW2 2895   2.498   3.050   0.193  0.5655 -0.3521 -2.6416
  966SOL     OW 2896   2.471   2.458   2.292 -0.2127  0.0056  0.7823
  966SOL    HW1 2897   2.389   2.441   2.348  1.7115  3.2239  0.8727
  966SOL    HW2 2898   2.477   2.555   2.256  0.7292 -0.2420 -1.9714
  967SOL     OW 2899   2.810   2.787   2.447  0.0773 -0.0645  0.5272
  967SOL    HW1 2900   2.836   2.721   2.372  2.4406 -1.1998  0.9699
  967SOL    HW2 2901   2.885   2.858   2.464  1.7935 -2.3382  0.0348
  968SOL     OW 2902   1.910   1.082   2.670 -0.0532 -0.2032 -0.2685
  968SOL    HW1 2903   1.899   1.145   2.585  0.0444 -0.3189 -2.6530
  968SOL    HW2 2904   1.936   0.979   2.647 -0.6837 -1.4839  1.0177
  969SOL     OW 2905   2.732   2.458   1.083 -0.3556  0.0848  0.0440
  969SOL    HW1 2906   2.663   2.419   1.017 -1.2020 -0.4804  0.6908
  969SOL    HW2 2907   2.800   2.382   1.111  0.2771 -2.3055 -2.8968
  970SOL     OW 2908   1.046   2.138   1.794  0.0663 -0.1938 -0.4568
  970SOL    HW1 2909   0.964   2.128   1.729  0.1328 -2.1758  2.1991
  970SOL    HW2 2910   1.016   2.174   1.888  0.3787  0.1384  0.0852
  971SOL     OW 2911   2.810   2.101   1.878  0.1992  0.1857  0.2916
  971SOL    HW1 2912   2.824   2.197   1.918 -0.0875 -0.6191  1.2855
  971SOL    HW2 2913   2.881   2.068   1.806 -0.1247  3.1219 -1.1284
  972SOL     OW 2914   2.016   2.358   0.206  1.0089 -0.1428  0.0180
  972SOL    HW1 2915   2.003   2.292   0.128 -1.2958 -0.5865  0.2209
  972SOL    HW2 2916   2.023   2.319   0.299 -0.5518  1.7201  0.4247
  973SOL     OW 2917   1.334   1.064   1.948  0.0202  0.1614  0.1800
  973SOL    HW1 2918   1.279   1.047   1.865  0.4184 -0.6254  1.7106
  973SOL    HW2 2919   1.308   1.156   1.987  0.7316  0.3333 -1.3710
  974SOL     OW 2920   1.604   0.585   1.990 -0.1215  0.2534 -0.1432
  974SOL    HW1 2921   1.679   0.594   1.922 -2.0175  2.3367 -1.3951
  974SOL    HW2 2922   1.527   0.651   1.972 -2.0039 -0.6550  2.2421
  975SOL     OW 2923   2.363   3.019   0.040 -0.0662  0.1383  0.3348
  975SOL    HW1 2924   2.306   2.941   0.071  0.1832  1.4921 -0.7520
  975SOL    HW2 2925   2.411   2.994  -0.052 -0.9333  1.2032 -0.5420
  976SOL     OW 2926   1.934   2.897   2.368  0.1140 -0.1346 -0.2201
  976SOL    HW1 2927   1.849   2.861   2.312 -1.5337 -0.4909  1.3897
  976SOL    HW2 2928   1.949   2.838   2.451 -2.1928 -0.5660  1.2096
  977SOL     OW 2929   0.451   0.646   1.008  0.3193 -0.3784 -0.8873
  977SOL    HW1 2930   0.371   0.693   0.961 -2.9891 -1.5546 -1.1513
  977SOL    HW2 2931   0.521   0.605   0.946 -1.7569 -2.0483  2.8038
   3.10000   3.10000   3.10000
