1000 SPC/Fw water molecules t=   0.57000 step= 570
 2931
    1SOL     OW    1   2.482   0.366   2.614  0.1549  0.5363 -0.1208
    1SOL    HW1    2   2.518   0.272   2.594  0.8393  1.8650 -1.3538
    1SOL    HW2    3   2.541   0.409   2.689  0.8495 -1.9783  0.6014
    2SOL     OW    4   2.699   3.045   1.430  0.1423 -0.6188 -0.5828
    2SOL    HW1    5   2.731   3.080   1.336 -0.0209  0.3284 -1.8931
    2SOL    HW2    6   2.637   3.111   1.479 -0.9089 -3.0164 -2.2809
    3SOL     OW    7   2.745   2.585   0.399 -0.0873 -0.0742 -0.2627
    3SOL    HW1    8   2.732   2.485   0.425  0.4053 -1.8836  2.6239
    3SOL    HW2    9   2.822   2.632   0.451 -0.8999  0.8790  0.0765
    4SOL     OW   10   1.302   1.459   2.358 -0.3474 -0.4913  0.0587
    4SOL    HW1   11   1.213   1.501   2.337  1.1491 -0.9676  0.0069
    4SOL    HW2   12   1.293   1.381   2.420 -0.2749 -0.7940  0.3405
    5SOL     OW   13   1.191   1.499   3.062  0.0410 -0.0885  0.2221
    5SOL    HW1   14   1.232   1.585   3.099 -0.0792 -0.2755  1.6672
    5SOL    HW2   15   1.088   1.494   3.085  1.8099 -1.7223  1.3322
    6SOL     OW   16   0.076   1.832   2.923  0.2211  0.2124  0.3087
    6SOL    HW1   17   0.012   1.844   3.007 -0.9707 -1.8169  2.0984
    6SOL    HW2   18   0.171   1.804   2.941 -0.6322  0.8846  2.8345
    7SOL     OW   19   2.577   0.907   1.159 -1.0340  0.0818 -0.5377
    7SOL    HW1   20   2.489   0.862   1.197 -5.3068 -0.3455  2.1987
    7SOL    HW2   21   2.583   0.911   1.055  1.2958 -0.4734 -1.0278
    8SOL     OW   22   0.451   0.597   1.524 -0.0867 -0.1389  0.5011
    8SOL    HW1   23   0.531   0.535   1.548  2.5196  2.8619  1.1380
    8SOL    HW2   24   0.426   0.596   1.421  0.8522 -0.4180 -1.1380
    9SOL     OW   25   1.157   0.928   2.296  0.2151  0.1130  0.2690
    9SOL    HW1   26   1.244   0.978   2.254  2.6815 -0.6103 -0.6111
    9SOL    HW2   27   1.105   0.873   2.229  1.9075 -2.4088  0.9348
   10SOL     OW   28   0.678   1.345   1.264  0.0530  0.2402  0.3004
   10SOL    HW1   29   0.585   1.371   1.217 -2.9274 -0.4997 -1.9058
   10SOL    HW2   30   0.754   1.420   1.267 -2.0277 -0.1811  1.0510
   11SOL     OW   31   2.373   2.712   0.945 -0.2338  0.4612  0.5220
   11SOL    HW1   32   2.362   2.678   1.040  1.3929 -0.0679 -0.6213
   11SOL    HW2   33   2.474   2.703   0.921  0.4925 -1.7526  0.8425
   12SOL     OW   34   1.472   0.926   0.336 -0.1456 -0.7661 -0.3945
   12SOL    HW1   35   1.399   0.991   0.303  0.4941  1.0718 -0.2876
   12SOL    HW2   36   1.484   0.846   0.273  2.8695  0.0909 -0.2835
   13SOL     OW   37   2.529   0.680   1.803 -0.7178 -0.5225 -0.4701
   13SOL    HW1   38   2.448   0.678   1.867 -0.9111  0.6807 -0.5454
   13SOL    HW2   39   2.511   0.656   1.704 -1.8378  0.3342  0.6056
   14SOL     OW   40   1.973   0.071   0.739 -0.2176 -0.0556  0.5095
   14SOL    HW1   41   1.903   0.132   0.689 -0.5750 -0.0396 -1.7467
   14SOL    HW2   42   1.926  -0.012   0.784 -2.9065 -0.1845  1.3228
   15SOL     OW   43   1.947   2.009   2.794 -0.1980 -0.6599 -0.4850
   15SOL    HW1   44   1.910   2.103   2.781 -2.4424  1.2471  0.3328
   15SOL    HW2   45   1.882   1.937   2.756  1.4951 -0.6596 -1.7518
   16SOL     OW   46   1.613   1.712   3.014  0.1817  0.0489 -0.1906
   16SOL    HW1   47   1.604   1.613   3.040  1.4044 -1.3455 -3.0269
   16SOL    HW2   48   1.701   1.746   3.052 -0.4559  0.2035 -0.7327
   17SOL     OW   49   0.100   0.507   0.152  0.0747  0.4156 -0.0177
   17SOL    HW1   50   0.159   0.550   0.078  0.4380  0.6421  0.8942
   17SOL    HW2   51   0.011   0.467   0.119 -1.4112 -1.0101 -0.9936
   18SOL     OW   52   0.993   2.945   2.120 -0.4788  0.6818  0.0186
   18SOL    HW1   53   0.922   2.875   2.139  2.9646  2.1852  0.9254
   18SOL    HW2   54   1.080   2.903   2.077 -0.8257 -0.7091 -3.8586
   19SOL     OW   55   0.532   0.828   1.907 -0.2041 -0.2797 -0.2260
   19SOL    HW1   56   0.526   0.799   2.007 -2.5735  1.4522 -0.1434
   19SOL    HW2   57   0.621   0.805   1.865 -3.3359 -0.0894  2.0250
   20SOL     OW   58   0.188   2.796   0.810  0.3656  0.0792  0.2226
   20SOL    HW1   59   0.115   2.863   0.769  0.9380 -0.2450 -1.9355
   20SOL    HW2   60   0.269   2.780   0.745  0.3561 -1.1368  1.9372
   21SOL     OW   61   2.772   0.196   2.067  0.3324 -0.3202 -0.4866
   21SOL    HW1   62   2.694   0.173   2.005 -0.6295  0.0271  1.1328
   21SOL    HW2   63   2.826   0.118   2.101  0.4750  1.0703  0.4695
   22SOL     OW   64   2.350   0.234   0.086  0.3805 -0.6253  0.1725
   22SOL    HW1   65   2.353   0.136   0.072 -1.0409  1.2632  1.4583
   22SOL    HW2   66   2.253   0.276   0.099 -1.1273  1.7618  1.3573
   23SOL     OW   67   2.736   0.635   0.620 -0.3952  0.2185 -0.0763
   23SOL    HW1   68   2.728   0.546   0.569  1.4514 -1.9035  0.3592
   23SOL    HW2   69   2.742   0.723   0.557  0.1293  2.2902 -2.0507
   24SOL     OW   70   0.128   1.916   0.377  0.3506  0.3781 -0.2939
   24SOL    HW1   71   0.081   1.973   0.302 -1.7300 -2.8106 -2.7191
   24SOL    HW2   72   0.231   1.901   0.373  3.2879  1.0302  1.9562
   25SOL     OW   73   2.221   0.515   0.233 -0.4053 -0.6116  0.8088
   25SOL    HW1   74   2.254   0.598   0.293  0.6892  1.2896  4.6843
   25SOL    HW2   75   2.215   0.524   0.131 -0.8327  1.0859  0.9260
   26SOL     OW   76   2.556   2.124   2.076 -0.2769 -0.2765 -0.0097
   26SOL    HW1   77   2.606   2.185   2.144  0.1620 -1.5085 -0.9953
   26SOL    HW2   78   2.611   2.040   2.044  1.6693 -2.8857 -2.9358
   27SOL     OW   79   0.603   2.934   0.165  0.2100 -0.2500 -0.1135
   27SOL    HW1   80   0.688   2.991   0.145 -0.1605 -1.1724  1.0092
   27SOL    HW2   81   0.532   2.941   0.091 -1.4671  0.1950  1.5954
   28SOL     OW   82   1.543   0.182   0.307 -0.7745  0.0078 -0.5572
   28SOL    HW1   83   1.596   0.158   0.218  0.9870  2.2106  1.5429
   28SOL    HW2   84   1.550   0.282   0.340 -2.0889  0.5660  1.0926
   29SOL     OW   85   1.970   0.503   0.362  0.2781  0.4804 -0.1846
   29SOL    HW1   86   1.981   0.598   0.387 -2.6416 -0.8402  1.3122
   29SOL    HW2   87   2.063   0.461   0.334 -0.0205  1.1396 -0.3455
   30SOL     OW   88   0.225   2.047   0.909  0.7187 -0.0002 -0.6859
   30SOL    HW1   89   0.198   2.024   0.809  0.8060  3.0085 -0.2342
   30SOL    HW2   90   0.151   2.106   0.949 -2.9105 -3.7139 -2.9598
   31SOL     OW   91   2.097   3.091   2.307 -0.3549  0.2576 -0.0931
   31SOL    HW1   92   2.123   3.068   2.402 -1.2459 -2.4987 -1.0412
   31SOL    HW2   93   2.030   3.027   2.262  1.7686 -0.1439 -1.7968
   32SOL     OW   94   2.959   0.204   0.239 -0.2900 -0.0468  0.0058
   32SOL    HW1   95   2.925   0.141   0.320  0.2223 -1.6042 -0.5048
   32SOL    HW2   96   3.061   0.219   0.248 -2.2675 -0.6206 -0.2341
   33SOL     OW   97   0.916   0.347   0.567  0.7084  0.2024  0.8848
   33SOL    HW1   98   0.902   0.253   0.531 -0.8307 -1.7400  1.0952
   33SOL    HW2   99   1.000   0.350   0.625 -1.3052  2.3432 -1.7078
   34SOL     OW  100   0.365   2.851   1.078  0.1672 -0.5913  0.4150
   34SOL    HW1  101   0.319   2.798   1.002 -0.9207 -3.7558  3.6017
   34SOL    HW2  102   0.469   2.848   1.067  0.9937 -2.7509 -0.1611
   35SOL     OW  103   0.023   0.212   1.861  0.0402  0.3613 -0.0311
   35SOL    HW1  104   0.064   0.118   1.879  1.2069 -0.1092  1.5866
   35SOL    HW2  105  -0.052   0.211   1.792 -0.8656 -1.6489 -0.7894
   36SOL     OW  106   1.937   1.088   1.846  0.2786 -0.2771 -0.2216
   36SOL    HW1  107   1.957   1.036   1.760 -0.3467  1.9540  2.5304
   36SOL    HW2  108   1.992   1.168   1.864 -0.5235 -1.0460  0.9013
   37SOL     OW  109   1.198   0.159   0.927 -0.2722  0.0953 -0.2439
   37SOL    HW1  110   1.250   0.229   0.989  1.2567 -2.5956  0.7655
   37SOL    HW2  111   1.255   0.075   0.898 -0.9557 -0.5462 -1.2034
   38SOL     OW  112   1.105   2.762   2.426  0.8639  0.2147  0.3279
   38SOL    HW1  113   1.054   2.669   2.452  1.2335 -0.2127 -1.0890
   38SOL    HW2  114   1.048   2.836   2.388  1.6858 -0.2985 -0.3295
   39SOL     OW  115   2.308   1.383   3.010  0.7517  0.4383  0.1401
   39SOL    HW1  116   2.393   1.324   2.987  0.9160 -0.6307 -2.4592
   39SOL    HW2  117   2.263   1.363   3.102 -1.4630  1.6623  1.2301
   40SOL     OW  118   2.112   2.520   2.520  0.7183 -0.1332  0.4207
   40SOL    HW1  119   2.075   2.621   2.526 -1.8810 -1.1262 -1.9052
   40SOL    HW2  120   2.029   2.466   2.482 -1.3905 -0.4938 -1.3900
   41SOL     OW  121   2.952   0.683   2.739  0.3084  0.1588  0.1435
   41SOL    HW1  122   2.868   0.752   2.734 -4.2786  1.7511 -1.4210
   41SOL    HW2  123   2.917   0.583   2.742 -2.1947 -0.6872 -0.9501
   42SOL     OW  124   1.766   1.752   0.567  0.3843 -0.0090 -0.4207
   42SOL    HW1  125   1.749   1.651   0.546  0.9753 -0.5252 -2.1573
   42SOL    HW2  126   1.764   1.808   0.481  2.2313 -2.0687 -0.0259
   43SOL     OW  127   0.472   1.715   1.096  0.5347  0.3353 -0.6103
   43SOL    HW1  128   0.484   1.622   1.139 -1.0914 -1.1541 -0.7550
   43SOL    HW2  129   0.386   1.713   1.043  2.7450  2.4976  0.0629
   44SOL     OW  130   1.818   2.478   3.048  0.0418  0.0578  0.2566
   44SOL    HW1  131   1.826   2.563   2.997 -0.9228 -3.0053  3.3273
   44SOL    HW2  132   1.902   2.458   3.104 -2.7746  2.5745 -0.1197
   45SOL     OW  133   0.306   1.913   2.606  0.0042  0.0304  0.3589
   45SOL    HW1  134   0.250   1.913   2.513  1.3099  0.9178 -3.1354
   45SOL    HW2  135   0.383   1.838   2.612  1.3197 -0.4919  1.3945
   46SOL     OW  136   1.205   0.644   0.153  0.0535 -0.0250 -0.0497
   46SOL    HW1  137   1.257   0.725   0.112 -0.4293 -0.1294 -1.2111
   46SOL    HW2  138   1.121   0.681   0.209 -0.6757 -1.5727 -0.1084
   47SOL     OW  139   0.187   2.457   1.641  0.5021  0.1408  0.3190
   47SOL    HW1  140   0.272   2.397   1.636 -0.5899  2.0424  2.6149
   47SOL    HW2  141   0.143   2.462   1.546 -1.7812 -2.3946 -3.5625
   48SOL     OW  142   2.614   0.599   0.142  0.2478  0.3825 -0.3023
   48SOL    HW1  143   2.585   0.611   0.239  3.7708  4.0295  1.1947
   48SOL    HW2  144   2.713   0.628   0.144 -3.2080 -0.0316 -0.2511
   49SOL     OW  145   0.358   0.770   1.701 -0.1269 -0.2687  0.2835
   49SOL    HW1  146   0.426   0.796   1.774 -0.6020  3.3941  0.5246
   49SOL    HW2  147   0.389   0.696   1.633  0.0585 -2.0913 -0.8634
   50SOL     OW  148   1.659   1.123   0.307 -0.1715 -0.0973  0.5679
   50SOL    HW1  149   1.622   1.029   0.281 -0.5717  0.0269 -0.5887
   50SOL    HW2  150   1.616   1.160   0.392  2.3956 -0.9781 -3.8657
   51SOL     OW  151   2.918   1.875   0.336 -0.5923 -0.5528  0.6533
   51SOL    HW1  152   2.870   1.832   0.256 -1.0124 -2.3873  1.3869
   51SOL    HW2  153   3.014   1.836   0.354  0.1028 -1.7222  0.8948
   52SOL     OW  154   0.828   1.920   0.465 -0.3049  0.2047  0.3112
   52SOL    HW1  155   0.751   1.978   0.497  0.8792  1.1282  1.3075
   52SOL    HW2  156   0.853   1.845   0.536 -0.4464  0.0099 -2.0100
   53SOL     OW  157   3.097   0.376   1.562  0.3141  0.6781  0.1485
   53SOL    HW1  158   3.098   0.408   1.657  0.3984 -0.8177 -2.2658
   53SOL    HW2  159   3.024   0.428   1.505  0.8080 -0.2183  2.7520
   54SOL     OW  160   1.777   0.457   3.075  0.0611  0.1927  0.1438
   54SOL    HW1  161   1.794   0.390   3.147 -0.5992  2.3848 -0.9395
   54SOL    HW2  162   1.675   0.477   3.077 -0.9906  0.6747  0.1107
   55SOL     OW  163   0.747   2.902   0.645  0.2040 -0.5810  0.7958
   55SOL    HW1  164   0.696   2.993   0.625 -2.4205  0.1626  3.8425
   55SOL    HW2  165   0.850   2.893   0.627 -1.0162  1.4386  1.2688
   56SOL     OW  166   0.440   1.568   3.048  0.1330 -0.1863  0.1359
   56SOL    HW1  167   0.369   1.634   3.099  1.5777  0.7774 -1.0697
   56SOL    HW2  168   0.400   1.477   3.023 -0.9438 -1.8087 -0.4311
   57SOL     OW  169   1.814   2.509   2.673  0.3037 -0.2469  0.0846
   57SOL    HW1  170   1.851   2.470   2.582 -1.1949 -0.9580  1.0310
   57SOL    HW2  171   1.717   2.488   2.698 -0.1976  0.3710 -1.1289
   58SOL     OW  172   0.652   0.376   1.058  0.0808 -0.2210 -0.4742
   58SOL    HW1  173   0.576   0.444   1.046 -3.8321 -1.7617 -1.1496
   58SOL    HW2  174   0.607   0.283   1.074  0.1634 -0.3767  0.3570
   59SOL     OW  175   0.405   2.376   2.760 -0.1526  0.6045  0.1803
   59SOL    HW1  176   0.422   2.279   2.718 -0.7138  0.4850 -1.2849
   59SOL    HW2  177   0.482   2.405   2.820 -1.3998  1.5281  1.1173
   60SOL     OW  178   2.321   2.072   2.222 -0.2805 -0.4399 -0.3816
   60SOL    HW1  179   2.416   2.083   2.188 -2.7575  0.5279 -2.0583
   60SOL    HW2  180   2.317   2.087   2.323 -2.0255 -0.5979  0.5016
   61SOL     OW  181   1.294   0.578   0.533  0.0949 -0.4398  0.4032
   61SOL    HW1  182   1.241   0.659   0.563 -0.5928  1.0710 -0.7844
   61SOL    HW2  183   1.292   0.568   0.431 -0.6292 -3.4440 -0.4516
   62SOL     OW  184   2.670   1.781   2.940  0.4663  0.1672 -0.4999
   62SOL    HW1  185   2.661   1.684   2.973 -1.0610  1.0834  1.2858
   62SOL    HW2  186   2.752   1.801   2.872  1.8382  0.0888 -2.4367
   63SOL     OW  187   0.582   0.927   0.159  0.3324  0.3452  0.0752
   63SOL    HW1  188   0.558   1.027   0.146  2.0442 -0.1515  0.4479
   63SOL    HW2  189   0.625   0.895   0.247 -0.0881  2.6709 -0.3688
   64SOL     OW  190   0.075   0.578   2.545  0.5224  0.2912  0.3188
   64SOL    HW1  191   0.060   0.587   2.647 -0.3342 -1.4689 -3.4495
   64SOL    HW2  192   0.052   0.661   2.486  2.1956 -1.2319 -3.2628
   65SOL     OW  193   0.198   1.484   0.552  0.3208 -0.0188 -0.1077
   65SOL    HW1  194   0.235   1.534   0.632  1.6501  1.1283  2.5841
   65SOL    HW2  195   0.278   1.446   0.500 -0.0960 -0.4878 -0.0840
   66SOL     OW  196   2.519   0.434   0.607  0.4333  0.0691 -0.1532
   66SOL    HW1  197   2.443   0.470   0.661 -0.1685 -2.7205 -2.9887
   66SOL    HW2  198   2.536   0.332   0.624  0.7596 -0.1611 -3.1794
   67SOL     OW  199   0.551   2.518   1.390  0.2826  0.2911 -0.3606
   67SOL    HW1  200   0.618   2.484   1.462  1.4736  3.8205 -0.0062
   67SOL    HW2  201   0.503   2.441   1.342 -0.5320  1.1337  1.4573
   68SOL     OW  202   1.018   1.100   2.455 -0.1101  0.1360  0.1213
   68SOL    HW1  203   1.066   1.019   2.405  2.3256  0.4910 -1.7230
   68SOL    HW2  204   0.936   1.124   2.393 -0.1228 -2.9662 -1.2004
   69SOL     OW  205   0.785   2.763   2.185  0.4728  0.2001  0.5134
   69SOL    HW1  206   0.789   2.660   2.182  0.7315 -3.9297 -1.0483
   69SOL    HW2  207   0.688   2.796   2.179  1.1294 -1.7223  2.1009
   70SOL     OW  208   0.631   0.279   2.710 -0.4491 -0.0342  0.0650
   70SOL    HW1  209   0.618   0.341   2.791 -1.1411  2.5734  0.8593
   70SOL    HW2  210   0.577   0.192   2.708 -2.4320 -0.1113 -0.2354
   71SOL     OW  211   1.056   1.776   0.332 -0.1571 -0.1003 -0.0676
   71SOL    HW1  212   0.995   1.691   0.353 -0.6075 -2.3063  1.1282
   71SOL    HW2  213   1.031   1.809   0.239  1.7866 -1.2000 -1.1779
   72SOL     OW  214   1.767   0.155   2.029 -0.0508  0.4494  0.1124
   72SOL    HW1  215   1.837   0.180   1.959  0.7482  1.4829  1.9250
   72SOL    HW2  216   1.786   0.067   2.081  0.5282  4.8525  2.0647
   73SOL     OW  217   2.782   2.163   2.482  0.1297 -0.1435 -0.7758
   73SOL    HW1  218   2.754   2.070   2.477  1.4478  1.8615 -3.1098
   73SOL    HW2  219   2.830   2.182   2.576  2.5865  1.3600  2.8486
   74SOL     OW  220   2.721   2.936   2.023  0.3935 -0.4244  0.2971
   74SOL    HW1  221   2.651   2.921   2.103  2.1135 -0.7289  0.9865
   74SOL    HW2  222   2.814   2.970   2.057 -2.1697 -0.2258 -4.1983
   75SOL     OW  223   0.957   0.766   1.039 -0.0923  0.0866  0.7659
   75SOL    HW1  224   0.865   0.783   0.988 -2.3022 -0.1826 -1.3389
   75SOL    HW2  225   0.975   0.839   1.115 -2.8293 -0.0019  0.4653
   76SOL     OW  226   1.708   1.259   2.549 -0.4169  0.4931 -0.3583
   76SOL    HW1  227   1.613   1.219   2.544 -2.8849 -0.1565  0.8417
   76SOL    HW2  228   1.706   1.349   2.603 -1.1536 -1.7687 -0.1780
   77SOL     OW  229   2.928   0.953   0.968  0.5290 -0.5384 -0.1015
   77SOL    HW1  230   2.938   0.854   0.955 -3.2354  1.7942 -1.3055
   77SOL    HW2  231   2.958   0.984   1.062 -2.5347  0.0716  0.1046
   78SOL     OW  232   2.058   1.392   1.532 -0.2190 -0.5025  0.1927
   78SOL    HW1  233   2.153   1.437   1.527  0.5210  3.3992  1.8604
   78SOL    HW2  234   2.026   1.369   1.438 -1.3306  1.5026 -0.8402
   79SOL     OW  235   0.641   1.313   0.864  0.1761 -0.1110  0.4161
   79SOL    HW1  236   0.541   1.313   0.892  1.3857  1.9567  0.0653
   79SOL    HW2  237   0.652   1.334   0.766  1.4251  2.3321  3.6205
   80SOL     OW  238   0.679   0.474   1.612 -0.2972  0.0421  0.3471
   80SOL    HW1  239   0.749   0.552   1.600 -0.5595  0.3794 -2.7531
   80SOL    HW2  240   0.715   0.373   1.601 -0.0371 -1.6684 -0.2282
   81SOL     OW  241   1.057   1.381   2.600 -0.1674  0.4472 -0.0187
   81SOL    HW1  242   1.070   1.292   2.565 -0.9074  1.6738  1.1240
   81SOL    HW2  243   0.983   1.434   2.550 -0.8492  0.8232  0.7559
   82SOL     OW  244   0.943   2.948   1.508 -0.2933  0.0099  0.2982
   82SOL    HW1  245   0.941   2.998   1.421 -2.6416 -2.4201 -1.1765
   82SOL    HW2  246   0.879   2.869   1.502  0.1284 -0.0502  0.1506
   83SOL     OW  247   2.699   2.479   0.850  0.1193  0.5020 -0.0116
   83SOL    HW1  248   2.609   2.423   0.828 -2.0092 -2.4655 -0.1622
   83SOL    HW2  249   2.689   2.577   0.818 -0.7079 -1.0992 -0.1453
   84SOL     OW  250   0.701   3.088   2.319 -0.3990 -0.2894 -0.0305
   84SOL    HW1  251   0.671   3.008   2.369 -1.5404  1.6385 -0.8900
   84SOL    HW2  252   0.804   3.097   2.325  1.2197  0.1323 -2.5463
   85SOL     OW  253   0.365   1.614   1.542 -0.6053  0.2166 -0.3187
   85SOL    HW1  254   0.312   1.701   1.539 -0.1645 -2.5947  2.3658
   85SOL    HW2  255   0.379   1.568   1.630  1.0966  1.6189 -2.0827
   86SOL     OW  256   0.365   0.961   1.506  0.3625  0.1214  0.1285
   86SOL    HW1  257   0.323   0.922   1.420  0.6543  0.6933 -1.1175
   86SOL    HW2  258   0.364   0.893   1.587 -0.4611 -1.6254  1.6429
   87SOL     OW  259   1.552   0.657   0.190  0.1074  0.0447 -0.4206
   87SOL    HW1  260   1.641   0.721   0.200  3.8398  1.2158 -1.3336
   87SOL    HW2  261   1.533   0.637   0.090 -0.5005 -0.6039  0.4327
   88SOL     OW  262   1.568   1.392   0.244  0.4271  0.4474  0.0216
   88SOL    HW1  263   1.600   1.293   0.256  2.0101 -0.2889  0.5359
   88SOL    HW2  264   1.472   1.417   0.270 -1.9533  3.7251 -0.8733
   89SOL     OW  265   0.032   0.411   0.598  0.0793  0.1141 -0.1913
   89SOL    HW1  266   0.107   0.344   0.562  2.6290 -0.0319  0.1953
   89SOL    HW2  267  -0.063   0.383   0.568  0.2136 -1.1605 -0.1716
   90SOL     OW  268   0.914   1.555   3.082 -0.2557  0.3059  0.5748
   90SOL    HW1  269   0.831   1.560   3.146  1.7324 -0.4738 -0.6013
   90SOL    HW2  270   0.893   1.597   2.990  0.4485  1.5496  0.7920
   91SOL     OW  271   1.273   1.420   1.813 -0.0069 -0.0558 -0.5253
   91SOL    HW1  272   1.249   1.515   1.855 -3.3556  0.1772 -1.2476
   91SOL    HW2  273   1.349   1.428   1.743 -2.0503 -0.5839 -0.1781
   92SOL     OW  274   3.059   0.996   1.205  0.7080 -0.3099  0.1579
   92SOL    HW1  275   3.113   1.067   1.149  0.4150  1.2186  0.9791
   92SOL    HW2  276   3.089   0.994   1.303  0.0431  2.3284 -2.4149
   93SOL     OW  277   3.078   2.737   0.026 -0.3154  0.5438 -0.2739
   93SOL    HW1  278   3.057   2.739  -0.075  0.3984 -1.6048 -0.7075
   93SOL    HW2  279   3.139   2.653   0.041  0.7124 -0.1004 -2.1022
   94SOL     OW  280   1.550   1.476   1.697 -0.0897  0.1657  0.8752
   94SOL    HW1  281   1.564   1.383   1.742  0.5257  0.9470 -1.0698
   94SOL    HW2  282   1.581   1.548   1.766  0.2263  0.6276  1.6707
   95SOL     OW  283   1.349   2.524   3.013  0.7040 -0.3735 -0.0272
   95SOL    HW1  284   1.256   2.510   3.054  2.0325  0.5198  0.9591
   95SOL    HW2  285   1.379   2.442   2.966 -0.8111 -0.6378  2.6561
   96SOL     OW  286   0.527   2.026   1.298 -0.2057  0.2568  0.3891
   96SOL    HW1  287   0.506   2.034   1.195 -0.1357  2.3117 -0.4094
   96SOL    HW2  288   0.594   1.956   1.334 -0.9781  2.2500  2.2366
   97SOL     OW  289   0.393   1.599   2.449  0.4022  0.5769 -0.0452
   97SOL    HW1  290   0.315   1.561   2.502  1.6408  1.4290 -0.9796
   97SOL    HW2  291   0.436   1.682   2.497  0.7466  0.9149 -0.2712
   98SOL     OW  292   1.958   1.586   1.254  0.1031 -0.2475 -0.6174
   98SOL    HW1  293   1.896   1.554   1.334  1.4710 -1.8453  0.9586
   98SOL    HW2  294   1.962   1.518   1.179 -1.2532  1.4218  1.6586
   99SOL     OW  295   2.488   2.114   1.372  0.3078  0.4139  0.0305
   99SOL    HW1  296   2.449   2.157   1.457 -0.2917  0.9912  0.0359
   99SOL    HW2  297   2.469   2.011   1.373  1.4144  0.3612 -0.5801
  100SOL     OW  298   2.295   0.387   2.085 -0.0819 -0.0369 -0.4380
  100SOL    HW1  299   2.236   0.338   2.155 -2.1529 -1.3844  1.4303
  100SOL    HW2  300   2.389   0.414   2.116  1.2678  0.3650  1.3802
  101SOL     OW  301   0.375   1.494   0.250 -0.2561  0.1968  0.1365
  101SOL    HW1  302   0.443   1.512   0.325 -0.7287  0.5390  1.7491
  101SOL    HW2  303   0.389   1.544   0.162  0.2910  0.4775 -0.0714
  102SOL     OW  304   2.318   1.015   0.835 -0.3113 -0.1505  0.1057
  102SOL    HW1  305   2.233   0.957   0.811 -1.3101 -2.6184 -0.5449
  102SOL    HW2  306   2.329   1.100   0.779 -2.3839 -3.9388 -1.5954
  103SOL     OW  307   2.284   0.001   0.410  0.2656  0.4495  0.2487
  103SOL    HW1  308   2.312   0.091   0.374 -1.5454 -1.9131 -1.7576
  103SOL    HW2  309   2.361  -0.046   0.467  0.4034 -3.3279 -1.5341
  104SOL     OW  310   0.080   1.738   2.206 -0.1968 -0.2277  0.3939
  104SOL    HW1  311   0.121   1.674   2.135 -0.6792 -1.9959 -5.3062
  104SOL    HW2  312  -0.017   1.757   2.179 -0.0654 -0.1384 -1.4921
  105SOL     OW  313   1.264   2.082   0.800  0.3703  0.7340 -0.4483
  105SOL    HW1  314   1.216   2.135   0.727  1.8012  0.1243 -0.5533
  105SOL    HW2  315   1.293   1.988   0.770  0.7952  1.9510  0.1715
  106SOL     OW  316   2.141   0.551   1.377  0.1922  0.1096  0.5920
  106SOL    HW1  317   2.108   0.479   1.442 -2.0295  0.4209 -0.9548
  106SOL    HW2  318   2.151   0.645   1.417  1.5432 -0.4631  0.8243
  107SOL     OW  319   1.759   3.005   1.101  0.0663 -0.1613  0.4201
  107SOL    HW1  320   1.783   3.103   1.138  2.7473 -0.0803  2.2385
  107SOL    HW2  321   1.704   2.956   1.173 -1.1965 -0.0740  1.4203
  108SOL     OW  322   0.816   2.762   1.218 -0.0046  0.1830 -0.6144
  108SOL    HW1  323   0.776   2.742   1.312 -0.4012 -0.7849  0.4147
  108SOL    HW2  324   0.918   2.776   1.219  0.4727 -1.3439 -0.8108
  109SOL     OW  325   2.237   0.151   0.781  0.7322 -0.1600 -0.4130
  109SOL    HW1  326   2.143   0.111   0.772  0.1564 -0.9083 -1.1058
  109SOL    HW2  327   2.254   0.176   0.878 -0.6999 -0.7491 -0.0241
  110SOL     OW  328   0.449   2.828   2.732  0.2648  0.6717  0.4543
  110SOL    HW1  329   0.427   2.847   2.631 -1.0526  1.5555  0.8067
  110SOL    HW2  330   0.523   2.751   2.742  2.6152  0.8901 -1.7215
  111SOL     OW  331   1.320   0.522   2.282  0.3386 -0.6366 -0.2233
  111SOL    HW1  332   1.251   0.554   2.357 -1.1202  0.2139  1.1891
  111SOL    HW2  333   1.370   0.440   2.317 -0.6159  0.3900  0.1312
  112SOL     OW  334   1.750   0.498   1.470 -0.0794 -0.5824  0.0238
  112SOL    HW1  335   1.743   0.464   1.373 -0.7287 -0.5798 -0.0851
  112SOL    HW2  336   1.706   0.439   1.543  0.2041  1.3935 -1.3796
  113SOL     OW  337   2.261   1.631   1.761 -0.0721  0.2244  0.2838
  113SOL    HW1  338   2.302   1.541   1.725 -3.4572 -0.7682  2.4420
  113SOL    HW2  339   2.311   1.660   1.849  1.9974  1.8840 -0.3231
  114SOL     OW  340   0.364   0.526   1.256  0.2454 -0.1483 -0.4086
  114SOL    HW1  341   0.381   0.626   1.230  1.7793 -1.4815 -1.2652
  114SOL    HW2  342   0.300   0.471   1.188  0.7602 -0.8021  0.0158
  115SOL     OW  343   2.742   1.645   1.260  1.0054  0.5251 -0.1970
  115SOL    HW1  344   2.749   1.543   1.282 -0.5431 -1.2084  1.4988
  115SOL    HW2  345   2.753   1.666   1.159 -0.2671 -1.0495  0.0905
  116SOL     OW  346   1.815   1.009   0.715  0.2474  0.2070  0.0671
  116SOL    HW1  347   1.727   0.977   0.678  1.3070  0.7835  1.3929
  116SOL    HW2  348   1.811   1.108   0.745  4.8376  1.3762 -1.2819
  117SOL     OW  349   1.160   0.409   0.677  0.3411  0.2616 -0.5414
  117SOL    HW1  350   1.192   0.423   0.776 -0.5550  1.5224  1.9028
  117SOL    HW2  351   1.209   0.471   0.611  1.6736 -0.4867  2.9861
  118SOL     OW  352   1.095   1.147   1.072 -0.2618  0.2271  0.0766
  118SOL    HW1  353   1.088   1.056   1.116  0.4449 -3.7149  0.0277
  118SOL    HW2  354   1.113   1.227   1.139  0.1954  0.5531 -1.3686
  119SOL     OW  355   1.848   1.619   2.111 -0.0458  0.4425 -0.3126
  119SOL    HW1  356   1.810   1.711   2.145 -2.3201  0.8911  0.7142
  119SOL    HW2  357   1.958   1.605   2.112 -0.7727 -0.9625 -0.1593
  120SOL     OW  358   2.957   2.846   0.236 -0.0944  0.2912 -0.6025
  120SOL    HW1  359   2.997   2.806   0.151 -0.5916 -1.4219  2.8252
  120SOL    HW2  360   2.876   2.790   0.280 -2.8203 -0.0337 -0.8951
  121SOL     OW  361   2.014   0.766   2.282  0.2019  0.3449 -0.6368
  121SOL    HW1  362   2.023   0.827   2.199 -0.0323  0.2111  1.9027
  121SOL    HW2  363   2.015   0.667   2.258  0.9808 -0.7446 -0.4169
  122SOL     OW  364   2.614   2.671   1.244 -1.4679  0.9728 -0.3153
  122SOL    HW1  365   2.656   2.578   1.217  1.0308 -2.2059  0.7805
  122SOL    HW2  366   2.596   2.734   1.162  2.1349 -1.3705  0.3959
  123SOL     OW  367   1.734   0.061   1.678 -0.0781 -0.1406 -0.3811
  123SOL    HW1  368   1.786  -0.018   1.627 -0.1887  0.9102  0.4284
  123SOL    HW2  369   1.800   0.124   1.733  0.1128  0.2220  3.1186
  124SOL     OW  370   0.119   0.413   1.106 -0.0400 -0.1148  0.0430
  124SOL    HW1  371   0.112   0.489   1.171  1.4674 -0.9792 -2.1490
  124SOL    HW2  372   0.089   0.446   1.007 -0.9032  3.6280  2.0516
  125SOL     OW  373   0.846   1.752   0.677  0.1369  1.3785 -0.0246
  125SOL    HW1  374   0.946   1.737   0.664 -0.8303 -0.7219  0.9937
  125SOL    HW2  375   0.814   1.703   0.762 -1.1299  0.7894 -3.0260
  126SOL     OW  376   1.915   2.354   2.436 -0.2117 -0.6796  0.1066
  126SOL    HW1  377   1.998   2.303   2.397 -0.9546  0.1514 -0.6717
  126SOL    HW2  378   1.837   2.287   2.452  0.2016 -0.2852  3.0660
  127SOL     OW  379   0.828   0.907   0.318  0.3705 -0.2935  0.4837
  127SOL    HW1  380   0.892   0.968   0.377 -2.4423  4.8481 -0.9868
  127SOL    HW2  381   0.882   0.824   0.280  0.7481 -0.8416 -0.6211
  128SOL     OW  382   0.957   0.187   1.371  0.6005  0.2408  0.3296
  128SOL    HW1  383   0.935   0.276   1.330  1.4863 -0.8952 -0.6396
  128SOL    HW2  384   0.886   0.115   1.352 -1.8201 -0.8076 -0.2779
  129SOL     OW  385   1.824   0.688   1.880 -0.5276  0.0119  0.3586
  129SOL    HW1  386   1.829   0.697   1.770 -1.0146 -0.1151  0.3329
  129SOL    HW2  387   1.848   0.768   1.938 -1.0281 -0.0678  0.6635
  130SOL     OW  388   1.345   2.232   1.026  0.3321  0.2770 -0.1731
  130SOL    HW1  389   1.330   2.162   0.953  0.7940  0.6321 -2.5568
  130SOL    HW2  390   1.426   2.293   1.006  0.6127  0.1850 -0.4015
  131SOL     OW  391   3.091   1.461   1.393 -0.4465 -0.6741 -0.3230
  131SOL    HW1  392   3.055   1.365   1.403  0.9727  0.6980 -0.8606
  131SOL    HW2  393   3.193   1.458   1.403 -0.9450  0.9902 -0.8920
  132SOL     OW  394   2.010   2.429   0.511 -0.1333  0.6639  0.1266
  132SOL    HW1  395   1.906   2.439   0.522  0.9116 -0.3227  1.5333
  132SOL    HW2  396   2.047   2.390   0.601 -1.0638 -1.3532  2.3471
  133SOL     OW  397   1.865   2.274   2.803 -0.6742  0.1922 -1.3961
  133SOL    HW1  398   1.838   2.302   2.899  0.1566  1.6755 -0.9111
  133SOL    HW2  399   1.876   2.357   2.746  1.2407 -2.1600 -0.8947
  134SOL     OW  400   2.694   2.342   1.621 -0.6451 -0.5669 -0.0068
  134SOL    HW1  401   2.649   2.313   1.710 -0.8332 -0.1259  1.3132
  134SOL    HW2  402   2.737   2.436   1.634 -3.4744  0.3305  0.6465
  135SOL     OW  403   0.710   1.521   2.655 -0.0953  0.3333  0.2955
  135SOL    HW1  404   0.674   1.419   2.683 -1.2270  1.1609  4.2866
  135SOL    HW2  405   0.761   1.518   2.566 -0.9253  3.3733  1.1900
  136SOL     OW  406   1.194   1.983   0.447  0.1269 -0.7478  0.2770
  136SOL    HW1  407   1.151   2.044   0.519 -0.7574 -3.6508 -0.8296
  136SOL    HW2  408   1.135   1.907   0.417 -0.0815  0.9184 -0.3950
  137SOL     OW  409   0.372   1.142   2.126  0.5104  0.1786  0.4722
  137SOL    HW1  410   0.282   1.153   2.177 -2.4923 -1.0388 -0.6558
  137SOL    HW2  411   0.422   1.061   2.162 -1.1415 -0.4115 -1.1370
  138SOL     OW  412   2.427   1.484   0.255  0.4276  0.0562  0.3880
  138SOL    HW1  413   2.335   1.458   0.215  0.5406  1.8778  1.4421
  138SOL    HW2  414   2.476   1.399   0.290 -3.5876 -1.6253 -0.2197
  139SOL     OW  415   1.816   2.661   1.279  0.2429 -0.3910  0.3902
  139SOL    HW1  416   1.727   2.636   1.242 -0.1571 -0.6665  2.1875
  139SOL    HW2  417   1.860   2.579   1.321 -0.9683  0.3686 -0.6385
  140SOL     OW  418   3.011   2.945   2.620 -0.7598 -0.8616 -0.1439
  140SOL    HW1  419   3.087   2.876   2.613  2.6763  0.7148  0.2058
  140SOL    HW2  420   3.014   3.004   2.703  0.5448 -1.7603  0.2830
  141SOL     OW  421   1.265   1.711   1.602  0.1576 -0.1241  0.0093
  141SOL    HW1  422   1.182   1.754   1.646  1.6019 -0.8511 -2.5619
  141SOL    HW2  423   1.334   1.678   1.669  0.9143  2.4184 -0.8872
  142SOL     OW  424   1.566   0.616   2.180 -0.4617  0.1922 -0.0679
  142SOL    HW1  425   1.570   0.583   2.081 -2.1336  0.9194  0.7127
  142SOL    HW2  426   1.465   0.615   2.217 -3.1429  0.2808  0.0231
  143SOL     OW  427   2.738   0.875   0.499 -0.1859 -0.1240  0.0988
  143SOL    HW1  428   2.789   0.929   0.429  0.5011  1.4424  2.3594
  143SOL    HW2  429   2.740   0.918   0.590  0.5402  0.5220 -0.8880
  144SOL     OW  430   2.937   1.243   1.444  0.0019 -0.8645  0.4788
  144SOL    HW1  431   2.871   1.206   1.518 -1.0815 -1.1391  0.1666
  144SOL    HW2  432   3.006   1.170   1.414 -1.2490 -0.7950 -1.4814
  145SOL     OW  433   1.011   1.852   0.075 -0.3734  0.4779  0.8881
  145SOL    HW1  434   1.041   1.926   0.008  2.3030 -0.6057  1.3884
  145SOL    HW2  435   0.995   1.763   0.025 -1.5369  0.4561 -0.7602
  146SOL     OW  436   2.452   0.659   1.531  0.1509 -0.1334  0.3793
  146SOL    HW1  437   2.435   0.576   1.470 -0.6445  2.7625  1.0142
  146SOL    HW2  438   2.393   0.736   1.499 -2.8159 -1.9578 -1.8767
  147SOL     OW  439   1.110   2.452   0.590 -0.1902  0.1285  0.9805
  147SOL    HW1  440   1.070   2.501   0.503 -1.5487 -0.3280 -3.4545
  147SOL    HW2  441   1.210   2.423   0.574 -0.3124  0.4123 -1.1090
  148SOL     OW  442   1.643   1.448   3.073  0.2258 -0.0977 -0.3427
  148SOL    HW1  443   1.663   1.361   3.021 -0.9785 -2.9616  3.5918
  148SOL    HW2  444   1.618   1.429   3.173 -1.1949  0.4387  0.4843
  149SOL     OW  445   0.720   1.444   1.931 -0.2146  0.5347  0.5436
  149SOL    HW1  446   0.634   1.415   1.980  1.3492  1.4749 -2.0589
  149SOL    HW2  447   0.738   1.388   1.847  1.6362  0.5324  2.4709
  150SOL     OW  448   3.034   1.251   0.957  0.1203  0.2169  0.5923
  150SOL    HW1  449   3.126   1.233   1.005  1.2902 -1.6534  0.8661
  150SOL    HW2  450   2.983   1.169   0.927  0.9046  1.1113 -1.5673
  151SOL     OW  451   0.192   0.776   2.101  0.2175  0.0448 -0.8371
  151SOL    HW1  452   0.216   0.845   2.025  2.0449  1.2771 -1.0543
  151SOL    HW2  453   0.252   0.689   2.104  4.0394  0.1688 -1.8819
  152SOL     OW  454   1.365   1.773   1.289  0.3668  0.8519  0.4138
  152SOL    HW1  455   1.375   1.867   1.338 -0.6767  0.7535  0.0058
  152SOL    HW2  456   1.271   1.756   1.249  2.1487  1.0718 -1.7136
  153SOL     OW  457   0.036   1.556   0.169 -1.2476 -0.1414  0.0810
  153SOL    HW1  458   0.045   1.453   0.183 -0.8546 -1.6601 -0.7722
  153SOL    HW2  459   0.020   1.601   0.260 -1.7841 -0.8250  0.8592
  154SOL     OW  460   2.344   1.854   2.815 -0.2406 -0.1759 -0.6519
  154SOL    HW1  461   2.355   1.751   2.815 -3.7292  1.1892  1.4378
  154SOL    HW2  462   2.431   1.907   2.798 -0.6193 -2.8525 -3.2378
  155SOL     OW  463   2.437   1.232   0.390 -0.3861  0.0962  1.3188
  155SOL    HW1  464   2.514   1.211   0.321  0.2652 -0.5099  0.3682
  155SOL    HW2  465   2.344   1.194   0.366 -2.7821 -1.3911  0.2441
  156SOL     OW  466   2.570   0.951   0.895 -0.1114  0.1708 -0.2404
  156SOL    HW1  467   2.469   0.973   0.893 -0.4316  1.9031  0.8048
  156SOL    HW2  468   2.635   1.028   0.879 -1.3350 -2.0447 -1.3230
  157SOL     OW  469   1.240   2.994   3.022  0.7864  0.6217  0.4847
  157SOL    HW1  470   1.299   2.977   2.935  1.0158 -2.2056 -0.7800
  157SOL    HW2  471   1.239   3.095   3.046 -1.7759  0.5929  1.1512
  158SOL     OW  472   1.002   1.851   2.004  0.1745 -0.5126  0.2812
  158SOL    HW1  473   1.042   1.943   1.978 -3.2083 -0.1410 -0.1228
  158SOL    HW2  474   0.922   1.856   2.064  2.8206 -1.0652  0.0639
  159SOL     OW  475   0.856   0.445   1.263  0.4365 -0.1001 -0.6045
  159SOL    HW1  476   0.837   0.537   1.309 -0.6335 -1.6998 -1.4250
  159SOL    HW2  477   0.800   0.435   1.180 -0.1198  0.6790  0.5479
  160SOL     OW  478   1.446   2.414   1.683  0.4755  0.0099 -0.3815
  160SOL    HW1  479   1.431   2.514   1.661 -2.4130 -0.7929  2.4896
  160SOL    HW2  480   1.512   2.377   1.610  2.5219  0.7291  0.7457
  161SOL     OW  481   0.127   2.897   0.324  0.0440  0.0599  0.2666
  161SOL    HW1  482   0.030   2.850   0.305 -5.3863 -1.8750 -1.2010
  161SOL    HW2  483   0.142   2.971   0.250 -1.3769  0.7040  0.1674
  162SOL     OW  484   2.565   1.922   0.435 -0.6814  0.1821 -0.2836
  162SOL    HW1  485   2.602   1.883   0.349  0.3091  0.4984  2.0372
  162SOL    HW2  486   2.562   1.839   0.501  0.6891 -2.4691 -1.2058
  163SOL     OW  487   1.954   2.713   0.776 -0.5140  0.5551  0.4954
  163SOL    HW1  488   1.901   2.709   0.687 -0.3603  1.0613  0.3597
  163SOL    HW2  489   2.036   2.645   0.779 -1.6183 -0.3115 -0.6574
  164SOL     OW  490   3.040   0.216   1.193 -0.3917 -0.5834 -0.6555
  164SOL    HW1  491   3.102   0.275   1.131 -0.3375 -2.1146 -0.3634
  164SOL    HW2  492   3.093   0.162   1.268  1.0509 -1.4960 -2.9353
  165SOL     OW  493   0.937   1.425   0.659  0.1814 -0.4792  0.0852
  165SOL    HW1  494   0.917   1.495   0.728  0.7075  0.0618 -0.3137
  165SOL    HW2  495   0.903   1.456   0.565 -1.8000  1.2316 -1.4740
  166SOL     OW  496   1.475   1.089   1.735  0.0329 -0.3230  0.7524
  166SOL    HW1  497   1.397   1.069   1.804  1.8977  4.8147 -0.2047
  166SOL    HW2  498   1.562   1.124   1.784 -0.3879  0.7084 -0.6428
  167SOL     OW  499   0.774   1.900   1.488 -0.2466  0.3025 -0.2519
  167SOL    HW1  500   0.773   1.967   1.564 -0.4456 -1.2643  0.9380
  167SOL    HW2  501   0.726   1.810   1.511  2.4542 -1.0995 -0.6070
  168SOL     OW  502   1.642   2.398   0.132  0.1030  0.2508 -0.2768
  168SOL    HW1  503   1.700   2.460   0.075  1.3881  0.8034  0.9859
  168SOL    HW2  504   1.684   2.322   0.189 -2.6515  1.1901  3.5527
  169SOL     OW  505   0.216   2.591   2.233 -0.6268 -0.4776  0.0856
  169SOL    HW1  506   0.176   2.524   2.165  0.3972 -1.9467  1.9887
  169SOL    HW2  507   0.282   2.544   2.297 -3.1454  0.2358 -1.2795
  170SOL     OW  508   1.236   0.293   1.956 -0.3735 -0.5087  0.3591
  170SOL    HW1  509   1.283   0.278   2.047  1.9535 -1.0647  0.1971
  170SOL    HW2  510   1.194   0.206   1.918  0.4032  0.2255  2.1035
  171SOL     OW  511   0.217   0.834   2.372  0.2004  0.3585  0.1062
  171SOL    HW1  512   0.128   0.843   2.424 -1.0363 -1.0671 -1.4941
  171SOL    HW2  513   0.204   0.818   2.268 -0.5248 -1.1459 -2.3075
  172SOL     OW  514   0.912   1.110   2.943 -0.3133 -0.4522 -0.4861
  172SOL    HW1  515   0.996   1.170   2.968 -1.9984 -0.4345 -0.7168
  172SOL    HW2  516   0.905   1.094   2.841  1.8820 -0.7141  1.4187
  173SOL     OW  517   0.664   2.684   0.068 -0.6706  0.5727 -0.0417
  173SOL    HW1  518   0.658   2.781   0.101 -0.2491 -4.3184 -0.2170
  173SOL    HW2  519   0.574   2.638   0.062  0.8159  0.1621 -1.7067
  174SOL     OW  520   1.397   2.857   1.065  0.1181  0.5487 -0.0904
  174SOL    HW1  521   1.382   2.940   1.010 -0.9694 -2.0199  2.2670
  174SOL    HW2  522   1.379   2.767   1.015  1.0329 -0.1009 -0.3582
  175SOL     OW  523   0.409   0.057   1.647  0.1686 -0.2206  0.4347
  175SOL    HW1  524   0.483   0.096   1.709 -0.9248 -1.1850  1.3092
  175SOL    HW2  525   0.344   0.132   1.608  1.5855  0.5469  2.3120
  176SOL     OW  526   2.559   0.386   3.074  0.3206 -0.1192 -0.8131
  176SOL    HW1  527   2.557   0.467   3.137  2.8457  0.7313 -0.1610
  176SOL    HW2  528   2.478   0.326   3.110  2.6630 -1.2365 -1.2198
  177SOL     OW  529   0.349   0.287   0.951 -0.4000 -0.0731  0.8596
  177SOL    HW1  530   0.401   0.219   1.010  2.2908  0.9108 -3.4422
  177SOL    HW2  531   0.258   0.316   0.983  3.4591 -0.4535  0.0131
  178SOL     OW  532   0.027   2.687   2.622  0.3605 -0.3667 -0.0337
  178SOL    HW1  533  -0.051   2.633   2.665 -0.1574  0.6258  2.3813
  178SOL    HW2  534   0.102   2.705   2.693 -1.7548 -1.7646  1.3079
  179SOL     OW  535   0.020   1.700   1.183 -0.3568  0.0073  0.1899
  179SOL    HW1  536  -0.061   1.750   1.168  0.7220 -0.5372  2.2132
  179SOL    HW2  537   0.017   1.641   1.266  2.8785  1.1849 -1.2572
  180SOL     OW  538   0.212   1.208   1.853  0.3052  0.0073  0.1735
  180SOL    HW1  539   0.319   1.225   1.855  0.4148 -0.6000  0.9051
  180SOL    HW2  540   0.165   1.260   1.925  0.3110 -3.7990 -1.2217
  181SOL     OW  541   3.019   1.846   2.522 -0.1170 -0.4233 -0.5386
  181SOL    HW1  542   3.084   1.927   2.516  2.7058  2.0135  1.7058
  181SOL    HW2  543   2.938   1.869   2.453  0.4462 -0.3025  0.4454
  182SOL     OW  544   2.275   1.291   1.161 -0.2331  0.1997  0.1751
  182SOL    HW1  545   2.212   1.232   1.102 -1.3053 -2.3006  0.3904
  182SOL    HW2  546   2.279   1.391   1.143  0.4944 -0.4127 -1.8666
  183SOL     OW  547   1.497   2.249   2.514 -0.6297 -0.5589  0.3214
  183SOL    HW1  548   1.421   2.179   2.497 -3.1450 -2.5050 -0.2283
  183SOL    HW2  549   1.594   2.208   2.487  1.5947 -0.6251  1.9966
  184SOL     OW  550   2.055   0.930   0.807  0.5427 -0.3127 -0.5422
  184SOL    HW1  551   1.975   0.960   0.746 -0.9893 -0.4266 -1.0267
  184SOL    HW2  552   2.026   0.858   0.874  0.4706  0.2247 -1.7066
  185SOL     OW  553   1.566   2.725   2.079 -0.2758  0.7432  0.2636
  185SOL    HW1  554   1.520   2.816   2.056 -1.2278  0.7902 -2.0087
  185SOL    HW2  555   1.543   2.696   2.177  0.8492 -0.4076 -0.7042
  186SOL     OW  556   0.079   2.175   1.697 -0.4149 -0.3366 -0.3169
  186SOL    HW1  557   0.127   2.268   1.702  0.2707 -1.2958 -1.5746
  186SOL    HW2  558   0.152   2.107   1.719  0.6626  0.6989  0.9021
  187SOL     OW  559   1.387   0.707   1.667  0.2464  0.1781 -0.4456
  187SOL    HW1  560   1.454   0.708   1.587 -1.8118  0.0426 -1.4821
  187SOL    HW2  561   1.431   0.763   1.744 -0.4805  1.6427  0.5096
  188SOL     OW  562   2.794   2.810   1.459 -0.1862  0.2494 -0.1598
  188SOL    HW1  563   2.761   2.910   1.461  0.0180 -0.3682  0.5920
  188SOL    HW2  564   2.721   2.741   1.431 -0.8229 -0.7656 -0.6462
  189SOL     OW  565   0.856   1.063   1.368 -0.7251  0.0522 -0.3979
  189SOL    HW1  566   0.922   1.124   1.421 -0.9765  2.3727 -2.0700
  189SOL    HW2  567   0.800   1.123   1.304  1.5278  1.4216  0.2656
  190SOL     OW  568   1.540   1.879   1.579 -0.0812  0.4099  0.4652
  190SOL    HW1  569   1.441   1.885   1.549  0.5268 -1.4519  1.6922
  190SOL    HW2  570   1.554   1.879   1.680 -0.3396 -2.7094  1.1599
  191SOL     OW  571   0.964   0.753   1.546 -0.2736  0.0072 -0.6429
  191SOL    HW1  572   1.009   0.664   1.523 -2.4118 -0.8375 -0.0493
  191SOL    HW2  573   1.039   0.822   1.565 -0.1914 -0.9857  1.8614
  192SOL     OW  574   1.850   2.242   1.125  0.1305 -0.6124  0.0669
  192SOL    HW1  575   1.769   2.195   1.075 -1.1363 -2.4610 -1.1312
  192SOL    HW2  576   1.909   2.303   1.068  2.1858 -1.2975  0.8417
  193SOL     OW  577   0.512   0.614   0.395  0.1732 -0.2324 -0.2024
  193SOL    HW1  578   0.488   0.558   0.483  0.3716 -0.1932  1.7882
  193SOL    HW2  579   0.578   0.568   0.330  0.8486  1.0659  0.8367
  194SOL     OW  580   0.287   0.828   1.257  0.3926 -0.4450  0.2300
  194SOL    HW1  581   0.211   0.760   1.260  2.4610 -1.3677 -0.5084
  194SOL    HW2  582   0.274   0.900   1.181 -1.4360  0.7185 -0.3255
  195SOL     OW  583   0.998   2.916   0.460  0.1001 -0.3887  0.7178
  195SOL    HW1  584   0.991   2.820   0.436  1.5899  3.1067  1.8017
  195SOL    HW2  585   1.090   2.946   0.441 -1.3367 -1.1056  1.1047
  196SOL     OW  586   0.266   1.402   1.396 -0.3719 -0.4601 -0.5383
  196SOL    HW1  587   0.328   1.480   1.430 -0.2937  1.7317 -0.6054
  196SOL    HW2  588   0.247   1.333   1.474 -0.7832 -1.2761  1.5268
  197SOL     OW  589   0.879   2.041   0.216 -1.0469 -0.3355 -0.4972
  197SOL    HW1  590   0.863   2.004   0.310 -1.6985  0.3197  0.5469
  197SOL    HW2  591   0.916   1.973   0.146  0.4559 -0.5149 -0.5765
  198SOL     OW  592   0.278   1.237   0.273  0.0656 -0.2017 -0.3941
  198SOL    HW1  593   0.175   1.229   0.251  2.2654  0.6202 -2.7815
  198SOL    HW2  594   0.307   1.333   0.256  1.3931  1.7064 -0.8205
  199SOL     OW  595   2.215   0.370   2.532 -0.0124 -0.6205  0.0891
  199SOL    HW1  596   2.137   0.328   2.594  0.3145 -3.6095  0.7917
  199SOL    HW2  597   2.307   0.357   2.568 -2.4035  2.5966 -0.0814
  200SOL     OW  598   0.025   2.962   0.667  0.8796 -0.0736  0.0718
  200SOL    HW1  599  -0.071   2.973   0.627 -0.8569  0.6388  1.9277
  200SOL    HW2  600   0.046   3.039   0.735 -1.4879  0.9986  2.4669
  201SOL     OW  601   1.095   0.728   0.648 -0.4154  0.3403  0.1142
  201SOL    HW1  602   1.084   0.814   0.703  2.6701 -0.4374 -1.2582
  201SOL    HW2  603   1.007   0.675   0.629  1.6371 -0.5167  0.6954
  202SOL     OW  604   0.496   1.234   1.824 -0.4609 -0.5882  0.4209
  202SOL    HW1  605   0.513   1.216   1.722 -1.5005  2.0336  1.2839
  202SOL    HW2  606   0.534   1.159   1.881  0.9566  0.4473  2.0490
  203SOL     OW  607   0.734   0.189   1.576  0.0269 -0.6084 -0.3996
  203SOL    HW1  608   0.738   0.134   1.487 -2.0833  1.7388 -1.0650
  203SOL    HW2  609   0.774   0.134   1.656 -0.0544 -1.6850  2.2079
  204SOL     OW  610   2.099   1.865   3.002 -0.1440  0.3442  0.0105
  204SOL    HW1  611   2.103   1.762   3.000 -4.4740 -1.6644 -0.8585
  204SOL    HW2  612   2.032   1.900   2.929 -3.0326  0.1607 -3.5575
  205SOL     OW  613   1.828   1.889   0.036 -0.3277  0.4294 -0.0409
  205SOL    HW1  614   1.920   1.867  -0.009 -2.7906 -0.4341 -0.5149
  205SOL    HW2  615   1.785   1.976  -0.002 -0.0147  1.6188 -2.4380
  206SOL     OW  616   2.517   2.778   0.321 -0.0805  0.2428 -0.4994
  206SOL    HW1  617   2.575   2.691   0.349  1.1275 -1.1783 -0.9835
  206SOL    HW2  618   2.540   2.821   0.227 -0.6210  0.6477  1.4931
  207SOL     OW  619   0.551   1.784   2.914 -0.5760  0.0018  0.0981
  207SOL    HW1  620   0.654   1.767   2.896 -0.4901 -1.1210  0.9937
  207SOL    HW2  621   0.512   1.700   2.968  0.4411  0.0880  1.2086
  208SOL     OW  622   1.113   1.543   1.405  0.5418  0.0458 -0.5689
  208SOL    HW1  623   1.100   1.619   1.333  1.6966  1.6346  0.3194
  208SOL    HW2  624   1.172   1.578   1.489  1.2803 -0.6771  3.9925
  209SOL     OW  625   0.275   0.949   2.995 -0.1581  0.1653 -0.1072
  209SOL    HW1  626   0.322   0.887   2.928  0.8824 -0.2487  1.6286
  209SOL    HW2  627   0.245   0.897   3.080 -1.1033 -0.8569 -0.1373
  210SOL     OW  628   1.746   0.472   1.202  0.6178 -0.3172  0.5059
  210SOL    HW1  629   1.690   0.546   1.158  0.6269 -3.2685 -0.5683
  210SOL    HW2  630   1.848   0.488   1.181  2.4256  1.7220 -2.1252
  211SOL     OW  631   2.092   1.061   1.617  0.0986 -0.3262  0.3502
  211SOL    HW1  632   2.160   1.036   1.692 -0.9142 -0.9689 -2.4157
  211SOL    HW2  633   2.132   1.119   1.542  1.2127  0.7835  0.3856
  212SOL     OW  634   0.040   0.997   1.460  0.3985  0.0162  0.3372
  212SOL    HW1  635   0.064   1.077   1.522  0.3948  1.6373 -3.7006
  212SOL    HW2  636   0.050   0.902   1.508  1.9374 -0.3469 -0.0647
  213SOL     OW  637   2.761   0.384   0.255  0.0896  0.1882  0.2206
  213SOL    HW1  638   2.831   0.319   0.216 -2.8821  4.6190  1.0086
  213SOL    HW2  639   2.724   0.446   0.187  0.9559 -2.9139 -0.5498
  214SOL     OW  640   2.154   0.246   2.276 -0.4266 -0.3035  0.2979
  214SOL    HW1  641   2.159   0.294   2.368 -2.4943  0.3371 -0.8156
  214SOL    HW2  642   2.141   0.141   2.282 -0.7948 -0.8040  0.0416
  215SOL     OW  643   1.638   2.289   2.024 -0.1990  0.9783  0.1998
  215SOL    HW1  644   1.743   2.310   2.024  2.0131  1.7346  1.5268
  215SOL    HW2  645   1.581   2.361   2.078  1.4638 -0.5886 -0.1468
  216SOL     OW  646   2.220   0.550   0.711  0.0711  0.7094  0.6462
  216SOL    HW1  647   2.230   0.454   0.664 -0.6396 -2.2766  0.6673
  216SOL    HW2  648   2.156   0.611   0.660  2.0687 -2.0137 -0.9349
  217SOL     OW  649   0.727   2.771   2.488 -0.2435 -0.7519 -0.0196
  217SOL    HW1  650   0.701   2.702   2.558  1.0271  2.5457  0.9384
  217SOL    HW2  651   0.767   2.732   2.402 -0.2276  1.7323 -0.4188
  218SOL     OW  652   1.913   1.425   0.060  0.1930  0.5475 -0.0022
  218SOL    HW1  653   1.834   1.469   0.013  0.2032  1.8798 -0.9588
  218SOL    HW2  654   1.886   1.338   0.109  1.2964 -1.8330  1.8372
  219SOL     OW  655   2.342   1.292   2.578 -0.4089 -0.4801  0.4740
  219SOL    HW1  656   2.362   1.251   2.485 -0.7480 -0.4989  3.5627
  219SOL    HW2  657   2.349   1.223   2.658 -0.0229 -0.5181  3.5707
  220SOL     OW  658   1.545   0.990   1.231  0.3984  0.0102  0.3647
  220SOL    HW1  659   1.640   1.031   1.250  1.2752  0.8484 -1.0496
  220SOL    HW2  660   1.509   1.040   1.147 -0.1176  0.0631  0.0653
  221SOL     OW  661   1.362   1.069   2.200 -0.6837 -0.4760 -0.0745
  221SOL    HW1  662   1.322   1.117   2.121  0.0781 -1.5784 -1.4596
  221SOL    HW2  663   1.463   1.056   2.184 -0.8606 -0.3234  1.9189
  222SOL     OW  664   1.234   0.023   1.197 -0.4493  0.0158 -0.9955
  222SOL    HW1  665   1.274  -0.002   1.288 -0.7025 -1.4144 -1.7187
  222SOL    HW2  666   1.225   0.125   1.179  1.3686  2.1454  0.3696
  223SOL     OW  667   2.834   0.864   2.049 -0.3782 -0.1660  0.3162
  223SOL    HW1  668   2.879   0.854   2.142 -0.8925  0.5358 -0.5148
  223SOL    HW2  669   2.896   0.913   1.982 -3.0103 -0.3027  1.1417
  224SOL     OW  670   1.495   0.959   2.740  0.1156  0.5301 -0.1387
  224SOL    HW1  671   1.549   0.905   2.665  2.0785 -1.8933 -1.7622
  224SOL    HW2  672   1.488   1.058   2.706 -0.6361  1.7227  1.3858
  225SOL     OW  673   2.961   2.779   2.895 -0.0229  0.1132 -0.0349
  225SOL    HW1  674   2.930   2.712   2.820  1.1905 -0.5947 -0.4145
  225SOL    HW2  675   3.023   2.856   2.852  1.3251  1.3380 -0.3697
  226SOL     OW  676   2.415   1.585   2.836 -0.2111 -0.5264 -0.2325
  226SOL    HW1  677   2.480   1.564   2.757  1.3954  0.5334  0.0908
  226SOL    HW2  678   2.346   1.510   2.853  1.2381  1.6269 -1.2757
  227SOL     OW  679   0.880   0.142   3.043 -0.6608  0.3284  0.4945
  227SOL    HW1  680   0.869   0.044   3.085 -1.0220 -3.6654  0.2583
  227SOL    HW2  681   0.885   0.141   2.937 -2.3836  3.9617 -2.5696
  228SOL     OW  682   2.382   0.628   2.843  0.3948 -0.2368 -0.0771
  228SOL    HW1  683   2.328   0.666   2.761  0.3071  2.2854 -2.1222
  228SOL    HW2  684   2.475   0.590   2.810  0.6620  0.9277  0.4971
  229SOL     OW  685   0.577   0.528   1.897  0.0126 -0.1259  0.6405
  229SOL    HW1  686   0.521   0.486   1.817  4.1907 -1.2029 -5.7168
  229SOL    HW2  687   0.675   0.549   1.872  1.5285 -1.0774 -0.3527
  230SOL     OW  688   1.921   1.192   2.162  0.1357 -0.1164  0.3938
  230SOL    HW1  689   1.993   1.232   2.097 -0.3607  1.1985 -2.4255
  230SOL    HW2  690   1.823   1.241   2.164 -3.2238 -1.1008  0.6590
  231SOL     OW  691   0.651   0.989   2.977  0.7445  0.1449 -0.7008
  231SOL    HW1  692   0.731   1.052   2.958  0.1147  0.9513 -2.4850
  231SOL    HW2  693   0.622   0.997   3.075 -2.8313  1.1293  0.0857
  232SOL     OW  694   2.444   0.029   2.744 -0.1289 -0.1225  0.2024
  232SOL    HW1  695   2.499  -0.038   2.801  0.3074  3.3698  0.5054
  232SOL    HW2  696   2.485   0.040   2.650 -0.4272  1.9397  0.3092
  233SOL     OW  697   1.700   1.304   1.108  0.0860 -0.0669  0.6768
  233SOL    HW1  698   1.704   1.344   1.014  2.4919  0.4918  0.5901
  233SOL    HW2  699   1.739   1.204   1.106 -1.4917 -0.3571 -0.4401
  234SOL     OW  700   1.614   2.573   1.836 -0.3607  0.3054 -0.1369
  234SOL    HW1  701   1.598   2.624   1.924 -0.1662 -1.1231  1.8606
  234SOL    HW2  702   1.533   2.520   1.805 -0.8277  1.5176  2.9412
  235SOL     OW  703   0.021   3.022   2.905  0.0891 -0.2075 -0.2292
  235SOL    HW1  704   0.075   3.105   2.874 -0.7066 -0.0544  0.7129
  235SOL    HW2  705  -0.050   3.052   2.972  0.3761 -0.7158 -0.9734
  236SOL     OW  706   2.885   0.693   0.138 -0.1874  0.4522  0.2235
  236SOL    HW1  707   2.938   0.773   0.181  2.1581  3.8690 -0.0623
  236SOL    HW2  708   2.951   0.626   0.091  0.8436 -1.4353 -0.9265
  237SOL     OW  709   1.445   1.658   1.042 -0.3723  0.9375  0.2615
  237SOL    HW1  710   1.545   1.658   1.022 -3.6602 -0.5325  0.1666
  237SOL    HW2  711   1.433   1.672   1.145  1.3662  0.7671  2.0250
  238SOL     OW  712   1.774   1.286   0.822  0.4953 -0.0514 -0.0120
  238SOL    HW1  713   1.874   1.297   0.795 -1.5536 -2.4454  1.3025
  238SOL    HW2  714   1.715   1.366   0.801 -1.4619 -2.3963  1.7138
  239SOL     OW  715   2.045   0.261   2.719  0.1603 -0.3449  0.6276
  239SOL    HW1  716   2.121   0.228   2.785 -1.6669  0.1425  0.6654
  239SOL    HW2  717   1.971   0.317   2.768  0.3061 -2.0020 -2.1349
  240SOL     OW  718   0.976   0.667   0.280  0.7416 -0.3279  0.4749
  240SOL    HW1  719   0.977   0.575   0.240  0.9653 -2.0762  2.5327
  240SOL    HW2  720   0.946   0.671   0.383 -0.4592 -1.6589  1.4355
  241SOL     OW  721   0.585   0.104   0.321  0.0252  0.1667  0.1740
  241SOL    HW1  722   0.598   0.169   0.238  0.6940 -1.7434  2.0796
  241SOL    HW2  723   0.538   0.020   0.287  1.2287 -0.1837 -2.8331
  242SOL     OW  724   0.670   2.483   1.133  0.2690 -0.1195 -0.3585
  242SOL    HW1  725   0.653   2.540   1.215  1.5505 -2.1428 -0.1740
  242SOL    HW2  726   0.765   2.496   1.087  3.8441  1.0199 -1.0662
  243SOL     OW  727   1.111   0.622   2.435 -0.3628  0.1976  0.1046
  243SOL    HW1  728   1.028   0.680   2.401  0.8492  1.0773 -0.7238
  243SOL    HW2  729   1.073   0.538   2.491 -1.3581 -3.9081  0.2493
  244SOL     OW  730   2.801   1.850   2.381 -0.8666 -0.2114 -0.5141
  244SOL    HW1  731   2.837   1.838   2.285  0.3222 -0.1336 -1.3217
  244SOL    HW2  732   2.713   1.801   2.404  2.3105 -1.6420 -1.2061
  245SOL     OW  733   2.503   0.681   2.178 -0.3623  0.0853  0.1046
  245SOL    HW1  734   2.517   0.750   2.252  0.1559  1.0231 -0.3297
  245SOL    HW2  735   2.579   0.608   2.188 -0.1218 -1.9058  2.0922
  246SOL     OW  736   0.259   2.940   1.694 -0.7648 -0.0008 -0.0308
  246SOL    HW1  737   0.225   2.908   1.601 -0.5835  0.3767 -1.0840
  246SOL    HW2  738   0.313   3.027   1.689 -0.3796  0.2987  1.2966
  247SOL     OW  739   2.200   0.554   3.049 -0.8009 -0.3556 -0.1956
  247SOL    HW1  740   2.262   0.563   2.969 -0.8433 -2.4401  2.8300
  247SOL    HW2  741   2.175   0.648   3.082 -0.7158  1.8718  1.3131
  248SOL     OW  742   2.132   1.810   1.590 -0.0664 -0.3953 -0.8589
  248SOL    HW1  743   2.211   1.759   1.638 -0.6158 -0.5953  2.3758
  248SOL    HW2  744   2.042   1.807   1.635 -0.3243 -0.9614 -2.6075
  249SOL     OW  745   1.953   1.950   1.937 -0.1357 -1.0727 -0.8382
  249SOL    HW1  746   1.945   1.885   1.859 -0.0395  0.8803 -1.3023
  249SOL    HW2  747   2.045   1.993   1.949  1.3123 -1.4180  1.9959
  250SOL     OW  748   1.113   0.739   1.864  0.3905 -0.0627  0.2169
  250SOL    HW1  749   1.122   0.660   1.933  0.9264  1.0284  0.1681
  250SOL    HW2  750   1.134   0.720   1.763  1.4969  1.4044  1.1399
  251SOL     OW  751   3.036   1.560   2.542 -0.0328 -0.0141 -0.0054
  251SOL    HW1  752   3.041   1.665   2.553  2.1507  2.2624  0.5524
  251SOL    HW2  753   2.939   1.522   2.549 -0.2617 -2.1453  2.3691
  252SOL     OW  754   1.538   0.888   1.504  0.3678 -0.1390  0.3319
  252SOL    HW1  755   1.532   0.904   1.405  1.4665 -1.3789  0.5197
  252SOL    HW2  756   1.525   0.977   1.558 -1.6744  2.9814  2.3187
  253SOL     OW  757   0.902   1.549   0.393 -0.9772 -0.1322 -0.1718
  253SOL    HW1  758   0.960   1.461   0.384  3.7052 -2.3400  0.2982
  253SOL    HW2  759   0.815   1.532   0.342  0.7036  1.1926  3.1777
  254SOL     OW  760   2.079   2.148   1.579 -0.3348 -0.8499 -0.5821
  254SOL    HW1  761   2.017   2.098   1.510 -0.6959 -0.8564 -0.3785
  254SOL    HW2  762   2.027   2.160   1.667 -0.5698 -0.6239  0.7533
  255SOL     OW  763   0.102   1.164   2.928 -0.5529  0.6052  0.1303
  255SOL    HW1  764   0.143   1.256   2.936 -1.1334 -2.5917 -0.9547
  255SOL    HW2  765   0.173   1.088   2.948 -0.9126 -0.5229 -0.9420
  256SOL     OW  766   2.806   1.356   1.827  0.1768 -0.1278 -0.3568
  256SOL    HW1  767   2.773   1.439   1.879 -0.9260 -0.6956  2.3457
  256SOL    HW2  768   2.739   1.274   1.840 -0.1122 -0.8060 -1.5385
  257SOL     OW  769   0.892   0.131   1.816 -0.3415 -0.3481 -0.3539
  257SOL    HW1  770   0.961   0.203   1.770  1.0064  1.6038  0.4682
  257SOL    HW2  771   0.935   0.038   1.835 -2.4699 -2.3649 -2.5008
  258SOL     OW  772   2.956   1.281   0.421 -0.3807  0.0380 -0.5186
  258SOL    HW1  773   2.895   1.371   0.422  0.5305  2.3454 -0.9947
  258SOL    HW2  774   3.017   1.269   0.503 -4.1937 -1.6284 -1.0382
  259SOL     OW  775   0.477   2.935   3.007  0.5647 -0.4575 -0.1116
  259SOL    HW1  776   0.390   2.897   3.054 -1.9666  0.1292  2.0446
  259SOL    HW2  777   0.520   2.870   2.943 -0.2038 -1.5377  3.0617
  260SOL     OW  778   2.716   0.841   2.720  0.5662 -0.3439 -0.5722
  260SOL    HW1  779   2.619   0.857   2.687 -0.7878 -1.6928  1.6210
  260SOL    HW2  780   2.726   0.831   2.821 -0.2231 -1.4523 -0.4109
  261SOL     OW  781   2.724   1.376   1.335  0.3829  0.2033  0.7839
  261SOL    HW1  782   2.675   1.301   1.279 -0.0590  0.6866  1.5537
  261SOL    HW2  783   2.806   1.332   1.383 -3.4625 -1.6221 -0.3021
  262SOL     OW  784   1.439   2.946   1.994  0.5566  0.1157  0.0680
  262SOL    HW1  785   1.487   3.024   1.941 -1.4323 -0.5229 -2.3341
  262SOL    HW2  786   1.335   2.947   1.989 -0.7182 -3.2646  1.4864
  263SOL     OW  787   0.873   0.733   2.359  0.5429 -0.0602  0.9284
  263SOL    HW1  788   0.857   0.644   2.307 -1.0757 -0.9857 -1.0067
  263SOL    HW2  789   0.898   0.808   2.289  1.8894  0.0577 -1.3802
  264SOL     OW  790   2.231   0.747   0.372 -0.1802  0.8123 -0.9246
  264SOL    HW1  791   2.138   0.760   0.412  2.4317  0.8446  0.7917
  264SOL    HW2  792   2.286   0.820   0.415 -5.0911 -0.0440  1.4733
  265SOL     OW  793   0.908   2.282   2.629  0.2774 -0.0540 -0.3350
  265SOL    HW1  794   0.959   2.327   2.706  0.4450 -1.7284 -3.2039
  265SOL    HW2  795   0.887   2.186   2.656  0.2935 -1.2751  0.7076
  266SOL     OW  796   1.328   1.753   0.017 -0.0352  0.2344 -0.5490
  266SOL    HW1  797   1.309   1.828   0.087  2.0804  2.1619  0.4873
  266SOL    HW2  798   1.429   1.744   0.008 -0.1658  0.1351 -0.5955
  267SOL     OW  799   1.025   3.063   2.376 -0.5197  0.2720 -0.1342
  267SOL    HW1  800   1.056   3.025   2.285  1.4421 -0.4844  0.1381
  267SOL    HW2  801   1.001   3.166   2.369 -0.0877  0.7084  0.1549
  268SOL     OW  802   0.649   1.137   1.072 -0.4436 -0.0773  0.0291
  268SOL    HW1  803   0.669   1.198   1.154 -0.6781 -1.7339 -0.5900
  268SOL    HW2  804   0.647   1.191   0.978  0.2837  1.0802 -1.3027
  269SOL     OW  805   2.444   2.457   1.555  0.6521 -0.0745 -0.2132
  269SOL    HW1  806   2.525   2.395   1.549  1.7103  0.7043 -0.2905
  269SOL    HW2  807   2.402   2.474   1.649  0.4880  1.3839  0.9646
  270SOL     OW  808   0.135   3.064   1.896 -0.0627  0.4388 -0.5479
  270SOL    HW1  809   0.169   3.013   1.812 -2.0653  0.1730 -1.1513
  270SOL    HW2  810   0.069   3.003   1.949 -0.8141  1.8859 -0.5569
  271SOL     OW  811   0.464   1.441   1.143 -0.5869 -0.2782 -0.1294
  271SOL    HW1  812   0.439   1.429   1.043 -0.2063 -1.2907  0.6551
  271SOL    HW2  813   0.390   1.428   1.210  1.2685  1.9663 -1.6460
  272SOL     OW  814   1.975   2.885   1.930 -0.2597 -1.0323  0.1359
  272SOL    HW1  815   1.922   2.826   1.870  1.0462  1.3872  0.7942
  272SOL    HW2  816   2.012   2.960   1.868 -0.9257 -0.6154 -2.6131
  273SOL     OW  817   1.379   1.436   2.843 -0.3657  0.4684  0.2037
  273SOL    HW1  818   1.318   1.488   2.774  1.1880 -0.1861  0.1076
  273SOL    HW2  819   1.356   1.461   2.944  2.3356  0.4594 -0.2015
  274SOL     OW  820   1.171   0.531   2.043  0.3766 -0.1161 -0.2486
  274SOL    HW1  821   1.207   0.451   1.982  0.5198 -3.3392 -3.1734
  274SOL    HW2  822   1.214   0.538   2.135 -0.1002  1.3578 -1.9511
  275SOL     OW  823   0.612   2.077   1.923 -0.0411  0.0752 -0.5579
  275SOL    HW1  824   0.577   2.176   1.926  1.8233  0.1894  0.9659
  275SOL    HW2  825   0.551   2.009   1.888  2.3954  0.9103  0.3639
  276SOL     OW  826   2.184   0.901   2.796 -0.3063  0.4060  0.7189
  276SOL    HW1  827   2.115   0.911   2.720  0.5706 -2.3240  4.1233
  276SOL    HW2  828   2.133   0.875   2.883 -1.7118  0.4897  1.9271
  277SOL     OW  829   3.062   0.880   0.226  0.0441 -0.0917  0.1929
  277SOL    HW1  830   3.153   0.919   0.193 -0.8511  0.0316  1.1329
  277SOL    HW2  831   3.073   0.808   0.298 -3.5283  0.3709 -0.5837
  278SOL     OW  832   0.235   0.287   3.015 -0.1671 -0.4361  0.5838
  278SOL    HW1  833   0.308   0.224   3.044  0.6061 -0.1567 -0.6026
  278SOL    HW2  834   0.264   0.385   3.025  3.7301  1.7559  0.3108
  279SOL     OW  835   0.118   0.066   0.892 -0.2403 -0.1313 -0.4105
  279SOL    HW1  836   0.160   0.032   0.983 -3.0936 -0.1316  2.2652
  279SOL    HW2  837   0.185   0.094   0.820  0.8711  1.9872  0.4876
  280SOL     OW  838   1.632   2.885   2.568 -0.1880 -0.4202  0.1524
  280SOL    HW1  839   1.696   2.966   2.580  0.1407  2.2296  1.0632
  280SOL    HW2  840   1.538   2.918   2.532 -0.9189  1.5419  0.2094
  281SOL     OW  841   0.567   0.969   2.292 -0.2125  0.1100  0.0368
  281SOL    HW1  842   0.570   0.877   2.240  1.1465  0.0142  1.8113
  281SOL    HW2  843   0.514   0.962   2.384 -0.3134  1.0366 -0.8244
  282SOL     OW  844   1.699   2.384   0.510  0.7361  0.1227  0.1884
  282SOL    HW1  845   1.658   2.308   0.455 -2.1684  2.4467 -1.4989
  282SOL    HW2  846   1.675   2.478   0.482  0.2812 -2.4038 -0.8187
  283SOL     OW  847   1.167   0.944   0.830 -0.3390 -0.3117 -0.3300
  283SOL    HW1  848   1.175   0.867   0.898 -0.5193 -0.7338  0.4359
  283SOL    HW2  849   1.096   1.017   0.851 -1.9844  2.5185  1.0190
  284SOL     OW  850   2.358   2.787   2.306 -0.2551 -0.2484 -0.1420
  284SOL    HW1  851   2.423   2.856   2.271 -1.7929 -3.6502 -1.6848
  284SOL    HW2  852   2.336   2.791   2.408 -1.5030  3.3746  2.7600
  285SOL     OW  853   1.396   2.999   2.520 -0.0276  1.1612 -0.4829
  285SOL    HW1  854   1.379   2.995   2.420  2.2827 -0.2126  0.1418
  285SOL    HW2  855   1.314   3.046   2.568 -1.2834  1.0689  0.6729
  286SOL     OW  856   0.442   0.420   0.727 -0.0967 -0.2445  0.1118
  286SOL    HW1  857   0.402   0.366   0.805  0.5562  2.4520 -0.9747
  286SOL    HW2  858   0.443   0.374   0.635  0.4117  1.8861  0.6497
  287SOL     OW  859   0.148   1.296   2.544  0.1189  0.1688 -0.0922
  287SOL    HW1  860   0.086   1.222   2.578  2.7368  2.3291  2.2277
  287SOL    HW2  861   0.100   1.388   2.549 -2.4265  1.4517 -0.9860
  288SOL     OW  862   1.535   2.649   1.567  0.0877 -0.3591  0.2378
  288SOL    HW1  863   1.622   2.606   1.606  1.6771 -1.4459  2.4138
  288SOL    HW2  864   1.549   2.678   1.475  0.5857 -1.8257  1.7022
  289SOL     OW  865   0.677   2.691   0.812 -0.5977  0.2476  0.0075
  289SOL    HW1  866   0.708   2.764   0.742 -0.3979  0.8965 -0.8057
  289SOL    HW2  867   0.636   2.730   0.895  0.9261 -2.4971 -0.6910
  290SOL     OW  868   2.840   1.083   1.640 -0.1088  0.0581  0.7853
  290SOL    HW1  869   2.761   1.023   1.659  0.9180 -2.1111  0.3360
  290SOL    HW2  870   2.903   1.082   1.721 -0.8216  1.6848  1.5989
  291SOL     OW  871   1.951   0.057   0.059 -0.4230  0.3075 -0.1153
  291SOL    HW1  872   1.980   0.056   0.157  0.1818 -2.7687  0.3051
  291SOL    HW2  873   1.989   0.138   0.006 -0.2796 -0.3590 -3.0895
  292SOL     OW  874   2.967   1.183   3.056 -0.2732  0.7006  0.3663
  292SOL    HW1  875   2.913   1.263   3.014  0.5904  1.7453  0.7343
  292SOL    HW2  876   3.057   1.154   3.004 -1.6912 -0.5148  1.2157
  293SOL     OW  877   0.577   2.121   0.153 -0.1615 -0.6323  0.4432
  293SOL    HW1  878   0.545   2.177   0.233 -1.5245 -1.8220  3.3003
  293SOL    HW2  879   0.676   2.091   0.169  0.1943  2.0766 -2.0663
  294SOL     OW  880   1.700   2.231   1.763  0.3272  0.0624  0.2574
  294SOL    HW1  881   1.668   2.289   1.845  1.1098 -0.8140  2.1107
  294SOL    HW2  882   1.704   2.273   1.669  1.6657 -0.1022 -2.4642
  295SOL     OW  883   1.031   1.012   0.473 -0.6643 -0.2488  0.8291
  295SOL    HW1  884   1.118   0.998   0.529  0.9287  0.9472  2.7674
  295SOL    HW2  885   0.947   1.001   0.527  3.0604  2.4282 -0.2840
  296SOL     OW  886   1.284   2.071   2.511 -0.2707  0.4620 -0.5685
  296SOL    HW1  887   1.278   2.082   2.408  2.7550  1.6805  3.4930
  296SOL    HW2  888   1.304   1.974   2.536  1.2711  0.4685 -2.0218
  297SOL     OW  889   1.471   0.604   1.393 -0.2040 -0.7952  0.3269
  297SOL    HW1  890   1.431   0.509   1.386 -1.2261 -1.0461  2.1514
  297SOL    HW2  891   1.568   0.603   1.422 -0.0106  1.8207 -0.4893
  298SOL     OW  892   0.498   1.283   2.927  0.6805  0.8399  0.6083
  298SOL    HW1  893   0.522   1.222   3.009 -1.1541 -0.5364  2.2711
  298SOL    HW2  894   0.556   1.272   2.842 -2.1405  4.0420 -0.2498
  299SOL     OW  895   0.473   0.263   1.408  0.3089  0.4008 -0.6839
  299SOL    HW1  896   0.450   0.357   1.360  1.9723  1.3404 -2.7185
  299SOL    HW2  897   0.566   0.275   1.459 -1.2076 -0.2011 -0.0260
  300SOL     OW  898   1.191   1.811   2.889 -0.0911 -0.3613 -0.5254
  300SOL    HW1  899   1.191   1.720   2.842  1.5348  1.5473 -0.6193
  300SOL    HW2  900   1.236   1.814   2.979  0.6267 -1.0944  0.5654
  301SOL     OW  901   0.465   0.271   0.498  0.5333 -0.1899  0.4721
  301SOL    HW1  902   0.362   0.254   0.506  1.0911  2.6243 -2.9503
  301SOL    HW2  903   0.518   0.231   0.418  0.7700  1.4736  0.6672
  302SOL     OW  904   1.212   2.371   2.251 -0.5820 -0.0349 -0.1299
  302SOL    HW1  905   1.145   2.396   2.318 -2.0703  0.8317 -0.6228
  302SOL    HW2  906   1.246   2.269   2.259 -2.2716  0.7247  1.6574
  303SOL     OW  907   0.955   2.324   0.799  0.3907 -0.1450  0.1134
  303SOL    HW1  908   1.017   2.372   0.726  0.0828  1.3025 -0.7059
  303SOL    HW2  909   0.934   2.391   0.876 -0.2326  1.0982  0.5680
  304SOL     OW  910   0.162   2.056   0.633  0.1350 -0.3806  0.2476
  304SOL    HW1  911   0.187   2.011   0.543 -0.6189  1.7667  0.4390
  304SOL    HW2  912   0.119   2.145   0.612  0.8666 -1.8926  1.4582
  305SOL     OW  913   1.577   0.902   0.593  0.2849  0.3032  0.1743
  305SOL    HW1  914   1.534   0.887   0.501 -1.9286 -3.5321 -1.3424
  305SOL    HW2  915   1.646   0.827   0.614 -0.1580 -0.3176 -1.1987
  306SOL     OW  916   0.457   1.851   1.877  0.1149 -0.6817  0.3115
  306SOL    HW1  917   0.549   1.807   1.849  1.9414 -4.2903  2.3849
  306SOL    HW2  918   0.433   1.834   1.976 -1.3324 -0.1051  2.3863
  307SOL     OW  919   0.008   0.856   2.584 -0.8181 -0.0881 -0.4551
  307SOL    HW1  920  -0.001   0.943   2.643  0.9647  1.7694 -0.2035
  307SOL    HW2  921  -0.035   0.779   2.640 -2.8220  1.3314  1.2281
  308SOL     OW  922   1.531   2.695   2.845 -0.2065  0.3228 -0.4387
  308SOL    HW1  923   1.534   2.608   2.794 -1.7062  4.0031  2.4321
  308SOL    HW2  924   1.505   2.680   2.946  0.6801  1.0262  1.5227
  309SOL     OW  925   1.214   0.065   1.783 -0.1263  0.1033  0.1435
  309SOL    HW1  926   1.318   0.062   1.793 -2.6356  0.8702  0.6780
  309SOL    HW2  927   1.189   0.088   1.685  1.0539 -2.3706 -0.1236
  310SOL     OW  928   1.516   2.544   0.682  0.0501  0.0310 -0.0133
  310SOL    HW1  929   1.527   2.613   0.753 -0.4081 -1.3904 -1.3903
  310SOL    HW2  930   1.571   2.569   0.600 -0.8103 -0.7763  0.6813
  311SOL     OW  931   1.194   0.893   1.594  0.5606 -0.0475  0.3540
  311SOL    HW1  932   1.275   0.833   1.615  0.0354  1.9384  0.6489
  311SOL    HW2  933   1.227   0.988   1.569  1.0041  1.8846 -3.4395
  312SOL     OW  934   1.659   0.677   1.011 -0.4621 -0.1562 -0.5480
  312SOL    HW1  935   1.604   0.759   1.036  1.3165 -0.8259 -3.5430
  312SOL    HW2  936   1.602   0.608   0.959 -0.7894 -0.8069  2.1896
  313SOL     OW  937   1.543   1.417   0.671  0.7253 -0.1988  0.0587
  313SOL    HW1  938   1.476   1.441   0.746  1.5822 -0.6595  1.6580
  313SOL    HW2  939   1.523   1.323   0.631 -1.4414 -1.3368 -1.6316
  314SOL     OW  940   2.996   0.018   0.055 -0.0800  1.0328 -0.1176
  314SOL    HW1  941   2.963   0.085   0.130  2.5581  0.7211 -1.9730
  314SOL    HW2  942   2.949  -0.075   0.054 -0.1944  0.3262  1.0489
  315SOL     OW  943   1.216   0.208   2.809 -0.1757 -0.1259  0.1811
  315SOL    HW1  944   1.203   0.130   2.745  3.0721  1.3288  2.6918
  315SOL    HW2  945   1.209   0.180   2.910  0.0747 -2.9785  1.4579
  316SOL     OW  946   1.683   2.105   0.925  0.7448 -0.5265  0.0911
  316SOL    HW1  947   1.617   2.071   0.999  0.3788  0.6562 -0.6957
  316SOL    HW2  948   1.650   2.199   0.885 -0.1122  1.0575 -0.1880
  317SOL     OW  949   1.109   0.718   2.857 -0.2302 -0.5917  0.0920
  317SOL    HW1  950   1.025   0.744   2.916 -1.1228  1.9196 -0.9003
  317SOL    HW2  951   1.090   0.625   2.811 -0.0072  2.1846 -0.6293
  318SOL     OW  952   1.358   3.018   2.256 -0.8477  0.2635  0.3938
  318SOL    HW1  953   1.333   3.116   2.230 -2.3470  3.6724  2.1811
  318SOL    HW2  954   1.412   2.969   2.181  3.2547 -0.1759 -3.6105
  319SOL     OW  955   0.639   2.424   2.922 -0.0166  0.5969  0.2637
  319SOL    HW1  956   0.569   2.406   3.002 -0.3669 -0.8043  2.6848
  319SOL    HW2  957   0.738   2.396   2.942  0.3790  0.3448 -2.5324
  320SOL     OW  958   1.636   2.165   0.309  0.5068 -0.0512 -0.3349
  320SOL    HW1  959   1.728   2.149   0.344  2.0918 -2.7919 -0.2784
  320SOL    HW2  960   1.558   2.142   0.378 -0.6720  1.6865  0.2555
  321SOL     OW  961   1.673   2.661   0.484  0.1532  0.0878 -0.1375
  321SOL    HW1  962   1.609   2.706   0.416  0.7213  1.4211  0.9458
  321SOL    HW2  963   1.764   2.714   0.482 -0.9370  0.0106  2.3032
  322SOL     OW  964   2.553   1.135   2.302 -0.6502 -0.0808 -0.1202
  322SOL    HW1  965   2.633   1.166   2.357 -1.9545 -0.7747  0.2211
  322SOL    HW2  966   2.551   1.033   2.295 -2.0017  1.3354  0.5854
  323SOL     OW  967   1.021   2.646   0.819  0.7674  0.3760  0.3918
  323SOL    HW1  968   1.052   2.614   0.722  0.1560  1.1336 -1.7185
  323SOL    HW2  969   0.998   2.746   0.824  0.3243 -0.8879  1.3928
  324SOL     OW  970   0.242   2.501   2.509  0.1705  0.4778  0.2587
  324SOL    HW1  971   0.177   2.434   2.555 -1.9094  3.6132  0.1168
  324SOL    HW2  972   0.198   2.596   2.511 -0.7874  0.9427 -0.8160
  325SOL     OW  973   1.267   3.029   0.445  0.0158 -0.1824  0.3137
  325SOL    HW1  974   1.262   3.068   0.350  0.6467  1.3284  1.5264
  325SOL    HW2  975   1.277   3.108   0.513 -0.7445 -0.2052  0.2500
  326SOL     OW  976   2.461   0.758   3.087 -0.4251 -0.0100  0.5216
  326SOL    HW1  977   2.389   0.718   3.023 -0.1317  0.1940 -1.1715
  326SOL    HW2  978   2.513   0.689   3.146 -0.9946 -0.1000 -0.6997
  327SOL     OW  979   2.866   0.345   0.518 -0.4338 -0.2893  0.4151
  327SOL    HW1  980   2.843   0.354   0.418  1.3924 -3.0270 -0.1978
  327SOL    HW2  981   2.795   0.289   0.574 -1.4693 -0.5772  2.9799
  328SOL     OW  982   2.515   0.638   0.393 -0.5387 -0.1873  0.3348
  328SOL    HW1  983   2.434   0.699   0.389  3.1703  0.9703 -0.4424
  328SOL    HW2  984   2.503   0.566   0.467  2.1185  1.0131 -0.5359
  329SOL     OW  985   2.983   2.986   2.159 -0.0083  0.8203 -0.3856
  329SOL    HW1  986   3.037   2.907   2.202 -1.7295  0.0965  0.3155
  329SOL    HW2  987   3.033   3.078   2.175  2.1690  0.7576  0.1642
  330SOL     OW  988   0.561   0.174   1.871  0.4136 -0.6723 -0.4149
  330SOL    HW1  989   0.661   0.204   1.863  0.4324 -0.3964  0.9421
  330SOL    HW2  990   0.543   0.093   1.939 -0.8015 -0.2532  1.2840
  331SOL     OW  991   2.963   1.937   1.115  0.4919 -0.0757 -0.1069
  331SOL    HW1  992   3.001   2.019   1.063  0.4503  0.0098  1.3759
  331SOL    HW2  993   2.875   1.967   1.163  1.1084  2.8021  1.2006
  332SOL     OW  994   0.430   1.131   0.072  0.2491  0.3784 -0.0769
  332SOL    HW1  995   0.379   1.076  -0.001 -0.0820 -0.9495  0.5050
  332SOL    HW2  996   0.368   1.144   0.157  1.1407 -2.8948  2.1912
  333SOL     OW  997   2.861   1.060   0.311  0.0580  0.1013 -0.2200
  333SOL    HW1  998   2.893   1.142   0.370  0.3234  2.2005  1.5045
  333SOL    HW2  999   2.940   1.013   0.264 -0.1965  1.0171 -0.3531
  334SOL     OW 1000   1.692   1.186   1.869 -0.0136  0.5629 -0.9605
  334SOL    HW1 1001   1.791   1.152   1.844 -0.5174 -1.0116 -1.6726
  334SOL    HW2 1002   1.698   1.258   1.944 -0.0936 -0.1228  1.3176
  335SOL     OW 1003   1.985   2.735   2.612 -0.3104 -0.3922  0.6293
  335SOL    HW1 1004   1.924   2.683   2.674  0.6674  1.8774 -1.2878
  335SOL    HW2 1005   2.053   2.794   2.661 -2.0851 -1.4594 -1.3867
  336SOL     OW 1006   0.243   0.077   2.840  0.1984  0.1415  0.5736
  336SOL    HW1 1007   0.337   0.047   2.810 -0.7005  0.3736 -0.0093
  336SOL    HW2 1008   0.242   0.165   2.886 -0.9473  0.2085 -0.9591
  337SOL     OW 1009   0.927   2.809   2.811 -0.2682  0.1877 -0.3834
  337SOL    HW1 1010   0.924   2.785   2.911 -0.3032 -1.0132  0.2973
  337SOL    HW2 1011   1.012   2.770   2.772  1.8240 -0.3607 -0.1494
  338SOL     OW 1012   0.058   1.025   0.687 -0.4960  0.7899 -0.2975
  338SOL    HW1 1013  -0.032   0.973   0.684  1.3123  1.4906 -0.9112
  338SOL    HW2 1014   0.033   1.126   0.679  0.6610 -2.4281  1.3433
  339SOL     OW 1015   1.710   1.359   2.082 -0.0459  0.1906  0.3898
  339SOL    HW1 1016   1.611   1.353   2.124  0.4753 -0.2963  0.6462
  339SOL    HW2 1017   1.761   1.447   2.099 -0.9838 -1.1037 -1.3494
  340SOL     OW 1018   2.359   0.724   1.223 -0.0182 -0.3641 -0.6849
  340SOL    HW1 1019   2.255   0.728   1.210  1.5134 -1.0187 -0.9561
  340SOL    HW2 1020   2.393   0.655   1.154  0.2401 -1.0984  0.0884
  341SOL     OW 1021   1.935   2.153   0.358  0.3651 -0.8760 -0.0681
  341SOL    HW1 1022   1.950   2.194   0.264  1.3260 -1.1682  0.1483
  341SOL    HW2 1023   2.029   2.129   0.400 -2.4804 -1.0680 -0.4162
  342SOL     OW 1024   2.194   2.088   2.749 -0.1356  0.1738 -0.1166
  342SOL    HW1 1025   2.274   2.030   2.789  0.3195 -1.1851 -1.2758
  342SOL    HW2 1026   2.102   2.041   2.760 -0.4636 -0.5349  1.2924
  343SOL     OW 1027   0.379   0.787   2.747 -0.1604  0.1528  0.0785
  343SOL    HW1 1028   0.392   0.856   2.676 -1.5623 -1.2565  1.5836
  343SOL    HW2 1029   0.475   0.745   2.760 -0.3643  3.5645 -1.0259
  344SOL     OW 1030   1.946   1.396   0.453  0.4223 -0.2364  0.3002
  344SOL    HW1 1031   1.923   1.320   0.392  1.3471 -1.3479  1.8221
  344SOL    HW2 1032   1.867   1.456   0.481  0.1923 -0.5977  1.1975
  345SOL     OW 1033   1.365   2.260   2.893 -0.3139  0.1173 -0.1408
  345SOL    HW1 1034   1.287   2.202   2.849 -1.4779  0.6706  1.5994
  345SOL    HW2 1035   1.461   2.239   2.856 -0.2649  1.3791 -0.7503
  346SOL     OW 1036   2.314   0.897   1.430  0.4120  0.0912 -0.2634
  346SOL    HW1 1037   2.273   0.993   1.415  0.3650  1.9562 -0.1435
  346SOL    HW2 1038   2.318   0.834   1.344  1.4815 -1.4720  1.4613
  347SOL     OW 1039   0.718   2.782   1.471 -0.4179 -0.4149  0.0160
  347SOL    HW1 1040   0.697   2.729   1.555  1.0402 -0.1218 -1.2384
  347SOL    HW2 1041   0.646   2.855   1.447 -0.2210  0.3798  0.3980
  348SOL     OW 1042   0.143   0.673   2.820  0.4628  0.4790 -0.2951
  348SOL    HW1 1043   0.094   0.753   2.861  2.7615 -1.6999 -1.3762
  348SOL    HW2 1044   0.238   0.695   2.773  0.7104 -2.3716 -1.5905
  349SOL     OW 1045   1.805   0.409   2.814 -0.3073 -0.0548  0.3671
  349SOL    HW1 1046   1.788   0.488   2.751  0.1717  2.1944  1.0686
  349SOL    HW2 1047   1.804   0.436   2.914  0.0091  2.8191 -1.7025
  350SOL     OW 1048   1.556   0.440   0.359 -0.6942  0.3471  0.0076
  350SOL    HW1 1049   1.615   0.462   0.442 -0.1810 -1.9841  2.3420
  350SOL    HW2 1050   1.551   0.513   0.283  0.7272 -2.4646 -3.0380
  351SOL     OW 1051   0.956   0.853   2.095 -0.3272 -0.3016  0.0452
  351SOL    HW1 1052   0.914   0.950   2.074 -0.2424  0.7020  1.8139
  351SOL    HW2 1053   0.976   0.813   2.000  0.8638  0.3384 -0.9087
  352SOL     OW 1054   2.033   1.293   0.688 -0.5411 -0.1582 -0.3685
  352SOL    HW1 1055   2.003   1.329   0.592  0.0591 -0.1833 -2.3915
  352SOL    HW2 1056   2.121   1.337   0.718  2.2870 -0.5390  2.3416
  353SOL     OW 1057   2.144   2.915   1.089  0.5525 -0.2397 -0.1711
  353SOL    HW1 1058   2.210   2.841   1.109 -0.8585  1.2362 -1.2449
  353SOL    HW2 1059   2.052   2.879   1.069  1.9937  0.5423  0.3502
  354SOL     OW 1060   0.245   1.404   2.894 -0.0567 -0.0853 -0.3008
  354SOL    HW1 1061   0.244   1.464   2.803 -1.1689  2.2557  1.7551
  354SOL    HW2 1062   0.340   1.366   2.914  0.7227 -0.9310  2.0987
  355SOL     OW 1063   0.510   1.528   0.499 -0.5464 -0.2041 -0.2946
  355SOL    HW1 1064   0.481   1.625   0.529 -0.8580  1.0111 -0.9112
  355SOL    HW2 1065   0.599   1.493   0.539  2.5034  3.1144 -1.9149
  356SOL     OW 1066   0.954   0.281   2.092 -0.1076 -0.1783 -0.2279
  356SOL    HW1 1067   1.040   0.342   2.077  1.1341  0.5317 -0.5106
  356SOL    HW2 1068   0.902   0.248   2.010 -2.2797 -0.1190 -1.5877
  357SOL     OW 1069   1.020   1.293   0.391 -0.3800 -0.2353  0.0407
  357SOL    HW1 1070   0.998   1.206   0.332  0.5968 -1.9114  1.7692
  357SOL    HW2 1071   1.064   1.271   0.483 -0.3487 -1.0975 -0.5073
  358SOL     OW 1072   1.694   1.515   0.475 -0.0348  0.2479 -0.4110
  358SOL    HW1 1073   1.633   1.484   0.555  0.8620  0.2797  0.7425
  358SOL    HW2 1074   1.656   1.486   0.384  2.5928 -1.7939 -1.3184
  359SOL     OW 1075   1.595   2.740   0.063 -0.0397  0.1319 -0.0062
  359SOL    HW1 1076   1.506   2.692   0.041  1.2784  1.3882  1.6615
  359SOL    HW2 1077   1.591   2.842   0.046  0.1013  3.1020 -0.6258
  360SOL     OW 1078   0.877   0.609   0.540  0.2979 -0.2290 -0.0535
  360SOL    HW1 1079   0.789   0.650   0.574  0.6605  1.3949  0.4157
  360SOL    HW2 1080   0.873   0.503   0.535 -0.4893  1.0270 -3.6490
  361SOL     OW 1081   1.198   1.394   0.698 -0.7988 -0.0300  0.2235
  361SOL    HW1 1082   1.239   1.422   0.792 -2.0429 -0.6457  0.1962
  361SOL    HW2 1083   1.112   1.440   0.679  0.3375 -0.2696 -2.8027
  362SOL     OW 1084   1.346   1.768   0.778 -0.3265  0.7837  0.2019
  362SOL    HW1 1085   1.353   1.711   0.865  1.9099 -1.5073  0.4642
  362SOL    HW2 1086   1.431   1.828   0.766 -1.5794 -1.2211 -1.5339
  363SOL     OW 1087   1.198   1.266   2.041 -0.1375 -0.0934 -0.4081
  363SOL    HW1 1088   1.258   1.337   2.089 -1.8503  2.3975  0.9330
  363SOL    HW2 1089   1.180   1.302   1.946  2.4100 -1.1751 -0.9340
  364SOL     OW 1090   0.531   2.344   1.925 -0.8434  0.1968 -0.2521
  364SOL    HW1 1091   0.442   2.401   1.927 -0.3429  0.4845 -1.2159
  364SOL    HW2 1092   0.610   2.389   1.871  1.2692  1.8487 -0.6360
  365SOL     OW 1093   1.026   1.884   1.395 -0.3193 -0.6447 -0.1324
  365SOL    HW1 1094   0.925   1.874   1.422 -1.3503  1.0568  0.1668
  365SOL    HW2 1095   1.052   1.830   1.306 -0.2570 -2.6800  1.1260
  366SOL     OW 1096   2.818   2.063   0.495 -0.3531  0.3924 -0.0117
  366SOL    HW1 1097   2.722   2.027   0.487  2.3719  1.7021 -0.0489
  366SOL    HW2 1098   2.885   1.999   0.447  1.2931 -1.9765  0.4336
  367SOL     OW 1099   0.843   1.152   0.175  0.5860 -0.0788 -0.1121
  367SOL    HW1 1100   0.819   1.055   0.204  6.6729 -1.6462  0.4045
  367SOL    HW2 1101   0.901   1.145   0.089  1.5062 -1.4197 -0.2981
  368SOL     OW 1102   1.506   0.588   0.716 -1.0399 -0.4260 -0.3274
  368SOL    HW1 1103   1.422   0.597   0.654 -0.8728  0.3243 -0.3358
  368SOL    HW2 1104   1.580   0.659   0.686  1.8740  0.0290  0.7486
  369SOL     OW 1105   0.223   1.695   0.062  0.1235  0.5513  0.3086
  369SOL    HW1 1106   0.257   1.770   0.121  1.1152 -0.1078  0.3941
  369SOL    HW2 1107   0.168   1.622   0.115 -0.5170  0.9624 -1.2599
  370SOL     OW 1108   0.445   2.106   1.044  0.1314 -0.4368  0.1950
  370SOL    HW1 1109   0.467   2.207   1.031  0.9240  1.2758  0.3160
  370SOL    HW2 1110   0.363   2.082   0.983  2.8707 -0.1707 -1.6117
  371SOL     OW 1111   2.893   2.233   2.726 -0.4354 -0.2789  0.0521
  371SOL    HW1 1112   2.879   2.199   2.820  1.0353  0.7117 -2.7481
  371SOL    HW2 1113   2.992   2.246   2.695  1.1729 -1.3953 -1.0917
  372SOL     OW 1114   1.070   1.948   1.021 -0.1472  0.2841  1.1326
  372SOL    HW1 1115   0.997   2.018   1.041  0.2610  1.4319  3.0502
  372SOL    HW2 1116   1.128   1.970   0.938  4.0723 -0.5889 -0.3862
  373SOL     OW 1117   1.961   1.989   0.902 -0.1641  0.2373  0.2018
  373SOL    HW1 1118   2.030   1.982   0.978  0.1015  2.2456 -1.2232
  373SOL    HW2 1119   1.872   2.030   0.928  1.2716  1.3650  0.0950
  374SOL     OW 1120   1.780   0.464   0.564 -0.3893 -0.3221  0.8107
  374SOL    HW1 1121   1.797   0.390   0.629 -1.1143  2.7240 -4.7292
  374SOL    HW2 1122   1.862   0.461   0.496  2.8327 -0.3648  2.1696
  375SOL     OW 1123   2.359   2.156   1.111 -0.0311  0.7800 -0.6420
  375SOL    HW1 1124   2.426   2.177   1.036  2.6547  3.0922  1.1052
  375SOL    HW2 1125   2.408   2.158   1.200 -1.8082  0.2339 -1.3772
  376SOL     OW 1126   2.998   0.613   1.418 -0.0182 -0.4496 -0.2449
  376SOL    HW1 1127   3.067   0.660   1.482  1.2978  1.5024 -1.4737
  376SOL    HW2 1128   2.900   0.634   1.448 -0.6567  0.1857  2.6231
  377SOL     OW 1129   2.237   2.831   0.349 -0.7170 -0.3370 -0.1180
  377SOL    HW1 1130   2.224   2.932   0.334  2.9394 -2.3658 -1.0844
  377SOL    HW2 1131   2.339   2.809   0.342 -0.0131  0.4716  1.1144
  378SOL     OW 1132   1.747   1.845   2.681  0.0161 -0.6790  0.6368
  378SOL    HW1 1133   1.659   1.853   2.742  2.6164  1.2654  0.2137
  378SOL    HW2 1134   1.794   1.753   2.678  0.0475  1.1585 -0.4192
  379SOL     OW 1135   0.875   0.136   2.736  0.1618 -0.5938 -0.5946
  379SOL    HW1 1136   0.821   0.051   2.702  0.6161 -1.2254 -1.6151
  379SOL    HW2 1137   0.823   0.221   2.721 -0.1312  1.2008  1.3313
  380SOL     OW 1138   1.501   1.194   0.534  0.0752  0.3250 -0.1376
  380SOL    HW1 1139   1.396   1.197   0.507 -0.9618  0.4564 -0.8895
  380SOL    HW2 1140   1.537   1.098   0.553 -0.7757  2.6919 -1.4705
  381SOL     OW 1141   1.306   1.194   1.529  0.3353 -0.1219 -0.6840
  381SOL    HW1 1142   1.369   1.216   1.450  0.2837 -0.7384  1.3073
  381SOL    HW2 1143   1.359   1.150   1.608  0.9722 -0.9404 -0.4128
  382SOL     OW 1144   1.770   0.803   0.244  0.2289  0.2090 -0.6866
  382SOL    HW1 1145   1.804   0.797   0.146  1.1112 -0.9272 -0.2069
  382SOL    HW2 1146   1.843   0.780   0.314  1.7258 -1.0510 -1.3438
  383SOL     OW 1147   2.570   0.955   1.514  0.2985  0.0591 -0.5128
  383SOL    HW1 1148   2.467   0.949   1.484 -2.5712  1.4105  0.2917
  383SOL    HW2 1149   2.638   0.920   1.441 -1.3393 -0.9630  0.7409
  384SOL     OW 1150   0.904   2.275   0.078  0.1283 -0.2206  0.5537
  384SOL    HW1 1151   0.875   2.363   0.125 -0.5013 -2.5899 -0.4046
  384SOL    HW2 1152   0.898   2.196   0.147 -3.3460 -0.0515  4.3978
  385SOL     OW 1153   3.003   1.980   1.802 -0.1890 -0.2357  0.0322
  385SOL    HW1 1154   3.088   2.038   1.776 -2.4597  2.2138 -0.6088
  385SOL    HW2 1155   3.001   1.878   1.775 -1.1401 -2.3780  0.7617
  386SOL     OW 1156   0.432   1.158   0.467 -0.0203 -0.1944 -0.5486
  386SOL    HW1 1157   0.459   1.059   0.448  1.3740 -0.3477 -2.6304
  386SOL    HW2 1158   0.368   1.193   0.397 -0.5057 -3.4491  1.8684
  387SOL     OW 1159   1.006   0.336   1.664 -0.0500  0.9066  0.2381
  387SOL    HW1 1160   1.061   0.415   1.629 -0.5888 -0.3022  0.6857
  387SOL    HW2 1161   0.932   0.307   1.592  2.8615  0.8836 -0.5778
  388SOL     OW 1162   1.219   2.645   1.789  0.3146  0.2057  0.1375
  388SOL    HW1 1163   1.232   2.638   1.689  1.7210 -3.2240 -1.0581
  388SOL    HW2 1164   1.265   2.570   1.845  0.4505 -1.2486 -1.4868
  389SOL     OW 1165   0.230   3.090   1.129 -0.9658  0.5099  0.3196
  389SOL    HW1 1166   0.158   3.098   1.200  1.0427 -0.0634  1.6779
  389SOL    HW2 1167   0.259   2.989   1.110  0.4401 -1.4178 -0.1120
  390SOL     OW 1168   1.050   0.941   1.232  0.0943  0.0746 -0.5255
  390SOL    HW1 1169   1.143   0.937   1.273  0.3286 -0.6580  0.3042
  390SOL    HW2 1170   0.982   0.968   1.309  1.2415  2.0818  0.4425
  391SOL     OW 1171   2.062   1.139   1.041 -0.5003  0.7118  0.1211
  391SOL    HW1 1172   1.986   1.084   1.070  1.8618  1.7736 -2.8020
  391SOL    HW2 1173   2.096   1.096   0.951 -2.9619 -0.6550 -0.8713
  392SOL     OW 1174   0.924   2.670   3.054  0.9604 -0.4314 -0.0368
  392SOL    HW1 1175   0.832   2.667   3.099  3.0359  0.1375  0.4902
  392SOL    HW2 1176   0.997   2.714   3.108  1.5625 -3.6753 -0.5397
  393SOL     OW 1177   0.393   0.505   2.092  0.2213 -0.4265  0.2193
  393SOL    HW1 1178   0.294   0.477   2.081  0.3071 -1.1287 -0.4297
  393SOL    HW2 1179   0.442   0.496   2.000  0.3282 -0.2720 -2.1888
  394SOL     OW 1180   2.921   1.835   2.792  0.0675 -0.2012  0.4261
  394SOL    HW1 1181   3.004   1.851   2.849 -1.4326 -1.8839  0.0212
  394SOL    HW2 1182   2.935   1.843   2.688 -1.9703 -1.5217 -1.1127
  395SOL     OW 1183   1.578   1.923   0.714 -0.2681 -0.2488 -0.1505
  395SOL    HW1 1184   1.648   1.860   0.667  1.1188  1.1861  1.0601
  395SOL    HW2 1185   1.618   1.981   0.795 -0.2640 -1.2597  0.1661
  396SOL     OW 1186   2.746   2.056   1.327 -0.1548 -0.1253  0.4351
  396SOL    HW1 1187   2.767   2.039   1.427 -1.7291 -2.8907 -1.5284
  396SOL    HW2 1188   2.652   2.102   1.319 -1.4764 -0.5958  0.0751
  397SOL     OW 1189   1.030   2.112   0.621 -0.3107 -0.0162 -0.0825
  397SOL    HW1 1190   0.974   2.046   0.568  0.9242  2.4108  2.0215
  397SOL    HW2 1191   0.981   2.168   0.696 -1.2345  2.0633  1.9993
  398SOL     OW 1192   2.205   0.101   1.069  0.0252  0.1744 -0.8809
  398SOL    HW1 1193   2.175  -0.002   1.066  0.3122 -2.6545 -1.0340
  398SOL    HW2 1194   2.127   0.164   1.047  0.0348 -3.3520  1.5045
  399SOL     OW 1195   2.917   2.554   2.732 -0.7663  0.5538  0.3466
  399SOL    HW1 1196   2.875   2.497   2.654  0.1123  1.2599  0.7403
  399SOL    HW2 1197   2.890   2.519   2.822 -2.1804 -0.1686 -0.6934
  400SOL     OW 1198   0.813   1.589   1.284 -0.0867 -0.2018 -0.2716
  400SOL    HW1 1199   0.763   1.609   1.372  0.1102  1.3582 -2.0890
  400SOL    HW2 1200   0.788   1.660   1.213 -1.4703  1.7154 -0.1455
  401SOL     OW 1201   1.804   0.129   1.264 -0.2372 -0.1582 -0.0115
  401SOL    HW1 1202   1.874   0.171   1.331 -1.4031  0.3095  0.3927
  401SOL    HW2 1203   1.712   0.141   1.307 -0.1841  0.5023  1.8949
  402SOL     OW 1204   1.321   0.171   3.051  0.5253  0.3854  0.4178
  402SOL    HW1 1205   1.400   0.141   2.990  0.3127  0.5754 -2.4000
  402SOL    HW2 1206   1.331   0.261   3.096  0.3183 -2.3929  0.6051
  403SOL     OW 1207   2.322   1.833   0.928 -0.1765  0.3118 -0.3640
  403SOL    HW1 1208   2.409   1.809   0.973 -1.3478  0.5292  1.1321
  403SOL    HW2 1209   2.256   1.882   0.997 -0.2686  1.4411 -0.4155
  404SOL     OW 1210   0.167   2.494   2.869  0.2151  0.0796 -0.2035
  404SOL    HW1 1211   0.258   2.455   2.827  2.6609 -1.5754  1.0215
  404SOL    HW2 1212   0.165   2.601   2.879 -0.7778 -0.4432  2.9008
  405SOL     OW 1213   0.236   2.550   0.539  0.0003 -0.5298  0.2105
  405SOL    HW1 1214   0.178   2.541   0.449 -0.5938  2.3837 -1.8502
  405SOL    HW2 1215   0.295   2.638   0.552  0.2734  0.1936  1.5325
  406SOL     OW 1216   0.009   1.529   2.981  0.1430  0.0394  0.7035
  406SOL    HW1 1217   0.096   1.497   2.938  1.9680 -1.0731 -1.0272
  406SOL    HW2 1218   0.012   1.536   3.082  1.7991 -1.0352 -0.9930
  407SOL     OW 1219   1.511   0.903   0.921  0.1695  0.2467 -0.0672
  407SOL    HW1 1220   1.540   0.898   0.823 -2.5768  0.1844 -1.3264
  407SOL    HW2 1221   1.438   0.977   0.945  0.9163  1.0262  0.5304
  408SOL     OW 1222   1.561   2.421   0.973  0.3842 -0.1643 -0.1068
  408SOL    HW1 1223   1.637   2.411   0.906 -0.9431 -1.5695  2.2632
  408SOL    HW2 1224   1.548   2.516   1.012 -1.3128  3.5448  1.5998
  409SOL     OW 1225   0.654   0.827   0.711 -1.0316 -0.4320  0.4146
  409SOL    HW1 1226   0.584   0.852   0.643  1.0541 -0.4487  1.7898
  409SOL    HW2 1227   0.661   0.722   0.728  0.2753 -1.3071 -1.5868
  410SOL     OW 1228   1.268   2.015   1.459  0.0726 -0.3111 -0.7004
  410SOL    HW1 1229   1.290   2.072   1.550  1.1920 -0.7838  5.8270
  410SOL    HW2 1230   1.174   1.974   1.450  0.4581 -2.5300 -5.2383
  411SOL     OW 1231   2.389   1.806   3.104  0.2854 -0.6082  0.1770
  411SOL    HW1 1232   2.306   1.817   3.040  0.6678  0.3589 -2.3935
  411SOL    HW2 1233   2.475   1.827   3.048  0.1904  1.6216  1.8576
  412SOL     OW 1234   1.508   2.441   2.210  0.4735  0.8501 -0.0129
  412SOL    HW1 1235   1.560   2.493   2.285 -0.4520  2.5207  1.7209
  412SOL    HW2 1236   1.406   2.427   2.246 -0.3262 -0.9308  2.0694
  413SOL     OW 1237   3.056   0.253   2.979  0.3399  0.3698 -0.1783
  413SOL    HW1 1238   2.999   0.197   3.042  0.2626 -0.4494  2.0936
  413SOL    HW2 1239   3.155   0.249   3.013  0.9136  1.6306  0.1573
  414SOL     OW 1240   1.745   1.381   1.385 -0.2729  0.0219  0.2741
  414SOL    HW1 1241   1.704   1.474   1.418  0.2284  0.0802  0.5654
  414SOL    HW2 1242   1.728   1.363   1.285  1.5014 -0.0230  0.7290
  415SOL     OW 1243   0.352   2.264   0.619  0.3553  0.0919 -0.3942
  415SOL    HW1 1244   0.317   2.364   0.596 -1.2941  1.1122  0.6357
  415SOL    HW2 1245   0.271   2.197   0.619 -2.8041 -1.8702  0.9810
  416SOL     OW 1246   0.371   1.050   1.058 -0.0106  0.8356 -0.1629
  416SOL    HW1 1247   0.334   0.992   0.976  0.8158 -0.2532 -2.3310
  416SOL    HW2 1248   0.471   1.068   1.042 -1.2727  0.8480 -1.9952
  417SOL     OW 1249   2.118   2.368   1.907  0.0359 -0.2510 -0.2065
  417SOL    HW1 1250   2.157   2.300   1.975 -0.7716  4.3748  0.4040
  417SOL    HW2 1251   2.039   2.424   1.949  0.8374 -0.7050 -0.9213
  418SOL     OW 1252   1.135   0.521   1.311 -0.5641 -0.0713 -0.1894
  418SOL    HW1 1253   1.030   0.524   1.303  2.8629  1.5324  0.2336
  418SOL    HW2 1254   1.179   0.459   1.244  0.8024  0.6491  1.0967
  419SOL     OW 1255   1.008   0.376   3.045  0.3126 -0.0133 -0.1635
  419SOL    HW1 1256   1.039   0.407   2.952  2.4816  1.8101  0.8268
  419SOL    HW2 1257   0.951   0.287   3.035 -0.7589  0.4090  0.3389
  420SOL     OW 1258   0.234   2.255   0.331  0.1337  0.0263 -0.0679
  420SOL    HW1 1259   0.183   2.201   0.257 -2.3401  0.1884 -1.0058
  420SOL    HW2 1260   0.168   2.295   0.395 -0.6862 -0.6303 -0.6903
  421SOL     OW 1261   0.354   3.082   0.681  0.1461 -0.1479  0.1636
  421SOL    HW1 1262   0.353   2.994   0.629  1.2835  2.5183  0.2777
  421SOL    HW2 1263   0.444   3.130   0.695 -0.9330 -0.4764 -0.3130
  422SOL     OW 1264   0.928   2.505   1.038  0.3242  0.2085  0.1567
  422SOL    HW1 1265   0.955   2.577   0.970 -2.1118 -3.5209 -2.2749
  422SOL    HW2 1266   0.986   2.507   1.123 -1.8376  0.4818  2.9608
  423SOL     OW 1267   0.055   0.686   1.207 -0.4036 -0.8052  0.1919
  423SOL    HW1 1268  -0.000   0.650   1.288  1.2655  0.1616  0.6739
  423SOL    HW2 1269   0.023   0.778   1.167 -0.2623  2.1319 -2.5204
  424SOL     OW 1270   0.982   2.176   2.082 -0.3175  0.3998 -0.7207
  424SOL    HW1 1271   1.011   2.276   2.074 -0.4901 -0.3914 -2.1408
  424SOL    HW2 1272   0.969   2.145   2.182  3.4487  0.6370 -1.5398
  425SOL     OW 1273   1.991   1.428   1.027 -0.1577  0.2275 -0.0278
  425SOL    HW1 1274   2.021   1.327   1.021 -0.2057 -0.4139  0.3766
  425SOL    HW2 1275   2.056   1.503   0.987 -0.2113 -2.8137  0.7979
  426SOL     OW 1276   1.521   1.556   1.440 -0.2860  0.5825  0.6201
  426SOL    HW1 1277   1.451   1.636   1.430  0.1757  0.0529 -0.4642
  426SOL    HW2 1278   1.514   1.508   1.532 -1.8247 -3.3172 -3.2109
  427SOL     OW 1279   1.898   2.408   2.099 -0.2428 -0.0092 -0.0097
  427SOL    HW1 1280   1.965   2.359   2.163 -0.0880  0.9693  1.2923
  427SOL    HW2 1281   1.879   2.506   2.130 -1.7908  2.1923  2.5221
  428SOL     OW 1282   0.867   3.002   0.144 -0.1113 -0.4316  0.5079
  428SOL    HW1 1283   0.924   3.084   0.179 -0.4599 -0.0650 -0.7281
  428SOL    HW2 1284   0.921   2.910   0.156 -1.0695  0.9432 -1.1439
  429SOL     OW 1285   1.309   0.096   0.222 -0.3824  0.5648 -0.0546
  429SOL    HW1 1286   1.399   0.125   0.266 -1.5839  1.5388 -1.5346
  429SOL    HW2 1287   1.316   0.101   0.119  2.0359 -1.4249 -2.6040
  430SOL     OW 1288   2.813   1.533   0.356  0.3923  0.4611 -0.1958
  430SOL    HW1 1289   2.876   1.577   0.287 -1.4169 -0.4025  0.4673
  430SOL    HW2 1290   2.803   1.594   0.442  0.5226  0.9973  1.9709
  431SOL     OW 1291   2.128   1.630   0.899  0.2046  0.0464 -0.5315
  431SOL    HW1 1292   2.207   1.692   0.925 -2.5026  0.7963  1.6447
  431SOL    HW2 1293   2.051   1.680   0.851  1.4021  0.5766 -1.3185
  432SOL     OW 1294   2.929   2.248   1.235  0.3720 -0.4393  0.9022
  432SOL    HW1 1295   2.866   2.176   1.262  1.9367  2.1847 -2.7064
  432SOL    HW2 1296   2.964   2.299   1.313 -0.1763 -0.3597  0.1468
  433SOL     OW 1297   1.853   0.348   0.820  0.6321  0.1203 -0.4091
  433SOL    HW1 1298   1.778   0.358   0.892  3.2399  0.4131  0.4060
  433SOL    HW2 1299   1.922   0.274   0.838 -1.9007 -2.8760 -2.2584
  434SOL     OW 1300   1.535   0.302   0.734  0.4950  0.0557  0.1077
  434SOL    HW1 1301   1.529   0.404   0.696 -1.8192  0.1876 -1.7997
  434SOL    HW2 1302   1.562   0.301   0.831  0.6927  1.6757 -0.9381
  435SOL     OW 1303   1.431   1.425   2.126  0.1678 -0.8254  0.5856
  435SOL    HW1 1304   1.393   1.430   2.223 -0.7308 -1.9284  0.7264
  435SOL    HW2 1305   1.398   1.507   2.065  1.9530 -0.2120 -0.4781
  436SOL     OW 1306   1.624   2.628   2.422 -0.5175 -0.4683 -0.3997
  436SOL    HW1 1307   1.627   2.729   2.456 -0.6100  1.7161 -1.1755
  436SOL    HW2 1308   1.628   2.561   2.499 -2.0859 -0.5216  1.1069
  437SOL     OW 1309   1.089   2.894   0.921 -0.1179 -0.0253 -0.2489
  437SOL    HW1 1310   1.046   2.987   0.910 -1.8252 -0.3808 -1.9677
  437SOL    HW2 1311   1.136   2.879   1.010  0.8623 -2.7322 -3.6957
  438SOL     OW 1312   1.091   2.577   1.272 -0.4379  0.9251 -0.6549
  438SOL    HW1 1313   1.140   2.631   1.346  1.7447  0.9350  3.9094
  438SOL    HW2 1314   1.074   2.480   1.310 -2.5913  0.2801  3.4579
  439SOL     OW 1315   0.737   1.783   1.014 -0.2924 -0.2024 -0.1096
  439SOL    HW1 1316   0.718   1.859   0.949 -0.4046  1.0320  1.1416
  439SOL    HW2 1317   0.648   1.764   1.061 -0.5536 -2.0816 -1.6868
  440SOL     OW 1318   1.046   2.450   2.045  0.3094  0.0646 -0.2610
  440SOL    HW1 1319   1.030   2.515   1.966  0.9317  2.2707  1.1128
  440SOL    HW2 1320   1.148   2.416   2.049  1.8359  0.6873  1.0784
  441SOL     OW 1321   0.389   2.754   1.425  0.6124  1.0031 -0.4923
  441SOL    HW1 1322   0.462   2.694   1.458  1.4773  1.9343  0.9447
  441SOL    HW2 1323   0.367   2.757   1.323 -0.3026 -0.3677 -1.2154
  442SOL     OW 1324   2.240   0.675   2.602  0.3197  0.6256  0.2376
  442SOL    HW1 1325   2.229   0.571   2.587  1.1628 -1.0393 -0.1136
  442SOL    HW2 1326   2.148   0.724   2.600  1.6545  1.7081 -1.5682
  443SOL     OW 1327   1.255   2.676   2.200 -0.3136 -0.0693 -0.2017
  443SOL    HW1 1328   1.256   2.569   2.186  1.5688 -0.9303  1.3071
  443SOL    HW2 1329   1.196   2.705   2.280 -1.9433  1.7374  0.4022
  444SOL     OW 1330   1.029   1.218   1.492  0.5556  0.2722  0.4317
  444SOL    HW1 1331   1.114   1.230   1.435 -1.6610  1.5916  1.3941
  444SOL    HW2 1332   1.045   1.242   1.586 -2.0626 -0.4892 -1.7928
  445SOL     OW 1333   0.040   2.349   1.950 -0.7194  1.0380 -0.4433
  445SOL    HW1 1334   0.043   2.262   1.897  0.0256  2.4836  1.9963
  445SOL    HW2 1335  -0.034   2.341   2.022 -1.0429 -1.7776  1.2429
  446SOL     OW 1336   0.176   1.938   2.367  0.1031 -0.1647 -0.2275
  446SOL    HW1 1337   0.120   2.026   2.372  0.7214 -1.0727 -0.5912
  446SOL    HW2 1338   0.140   1.869   2.306  0.5986  3.3977  1.3586
  447SOL     OW 1339   1.230   1.679   1.934 -0.3684 -0.2080 -0.5346
  447SOL    HW1 1340   1.141   1.715   1.977  0.0791 -1.1693 -0.2276
  447SOL    HW2 1341   1.318   1.731   1.957 -0.5698 -1.9198  1.2793
  448SOL     OW 1342   0.164   1.421   2.024 -0.1972  0.6105 -0.1449
  448SOL    HW1 1343   0.161   1.512   1.975 -1.4255 -3.7671 -0.4325
  448SOL    HW2 1344   0.106   1.419   2.109 -1.3430 -0.8440 -0.5116
  449SOL     OW 1345   1.843   2.946   0.851 -0.3930  0.8599  0.0827
  449SOL    HW1 1346   1.822   2.958   0.955  0.8679 -0.6713  0.3911
  449SOL    HW2 1347   1.885   2.858   0.826 -0.4238  1.6350 -0.5623
  450SOL     OW 1348   2.265   1.482   0.691  0.0963  0.4397  0.7952
  450SOL    HW1 1349   2.238   1.548   0.762  2.8516 -2.2815  0.3214
  450SOL    HW2 1350   2.265   1.523   0.593  0.3043 -1.0667 -0.6273
  451SOL     OW 1351   1.392   3.068   1.492  0.0245 -0.1779  0.0971
  451SOL    HW1 1352   1.300   3.123   1.505 -3.7399  0.1750  2.1614
  451SOL    HW2 1353   1.400   2.994   1.564 -2.6727  4.1339 -1.9213
  452SOL     OW 1354   2.652   2.274   2.266  0.1498 -0.1924 -0.1941
  452SOL    HW1 1355   2.609   2.366   2.280 -1.6122 -1.6764  0.9203
  452SOL    HW2 1356   2.680   2.227   2.358  0.2631  0.4938  0.3952
  453SOL     OW 1357   2.463   2.666   0.024 -0.5591 -0.0425 -0.1872
  453SOL    HW1 1358   2.372   2.704   0.056 -2.4075  1.5819  1.8387
  453SOL    HW2 1359   2.448   2.600  -0.054  1.4177 -1.9567  3.5166
  454SOL     OW 1360   0.955   1.128   2.028  0.6664 -0.0810  0.5645
  454SOL    HW1 1361   0.946   1.137   1.926  2.4569 -0.6814  2.2998
  454SOL    HW2 1362   1.049   1.151   2.063 -0.6247  0.6157  0.1917
  455SOL     OW 1363   0.659   2.684   2.816 -0.1442  0.1424 -0.5823
  455SOL    HW1 1364   0.752   2.726   2.804  0.7734 -0.8903 -0.9597
  455SOL    HW2 1365   0.653   2.602   2.869 -0.1005  0.4130  0.3873
  456SOL     OW 1366   0.375   1.886   0.232 -0.4408 -0.5884 -0.0728
  456SOL    HW1 1367   0.478   1.860   0.241  1.2264  3.7373 -0.5964
  456SOL    HW2 1368   0.372   1.986   0.194 -2.8389  0.7452  1.2440
  457SOL     OW 1369   0.387   2.790   0.613  0.1120  0.0294 -0.7708
  457SOL    HW1 1370   0.417   2.827   0.520 -0.4627  0.0262 -4.5834
  457SOL    HW2 1371   0.463   2.770   0.675 -0.1497  0.1096  0.0240
  458SOL     OW 1372   2.808   0.038   1.201  0.1832  0.2883 -0.5921
  458SOL    HW1 1373   2.886   0.102   1.215  0.1643 -1.2179  0.2642
  458SOL    HW2 1374   2.828  -0.027   1.123 -1.9655 -1.6134  2.3183
  459SOL     OW 1375   2.204   2.537   0.821 -0.0268 -0.1258  0.0094
  459SOL    HW1 1376   2.263   2.605   0.875 -3.1611 -1.0004  0.0621
  459SOL    HW2 1377   2.254   2.498   0.739  0.4115  3.3504  1.3159
  460SOL     OW 1378   1.219   2.065   2.779 -0.3572  0.2255 -0.0092
  460SOL    HW1 1379   1.239   2.073   2.675  0.0214 -0.3289  1.0909
  460SOL    HW2 1380   1.240   1.973   2.821  2.3338  2.1428  0.0471
  461SOL     OW 1381   0.477   2.098   2.716  0.5397  0.3106 -0.4821
  461SOL    HW1 1382   0.411   2.023   2.687  2.9546  0.1950  1.6039
  461SOL    HW2 1383   0.533   2.077   2.803 -0.3953  0.3598 -0.4943
  462SOL     OW 1384   0.977   1.067   1.745  0.3584  0.5893 -0.6686
  462SOL    HW1 1385   1.030   1.005   1.684  0.6138  1.2752 -1.0194
  462SOL    HW2 1386   0.889   1.100   1.704  0.5678 -1.2233 -2.4131
  463SOL     OW 1387   0.474   0.865   0.493  0.4240 -0.1079  0.2511
  463SOL    HW1 1388   0.493   0.772   0.462 -1.0341  0.5024  1.3932
  463SOL    HW2 1389   0.373   0.886   0.480  0.7005  0.9874 -3.1463
  464SOL     OW 1390   0.622   2.336   2.201 -0.5103 -0.2439  0.2460
  464SOL    HW1 1391   0.576   2.407   2.261  4.2985  1.3907 -1.3026
  464SOL    HW2 1392   0.577   2.332   2.106  1.2426  2.3396  1.9773
  465SOL     OW 1393   0.280   0.913   0.841  0.4321  0.1326  0.1093
  465SOL    HW1 1394   0.196   0.933   0.788  2.9956 -1.7254  0.2293
  465SOL    HW2 1395   0.310   0.817   0.825 -0.2182  3.3780  2.9115
  466SOL     OW 1396   1.397   1.156   1.048  0.3536  0.1062  0.5682
  466SOL    HW1 1397   1.405   1.249   1.004  0.1467 -1.7050 -2.0088
  466SOL    HW2 1398   1.297   1.138   1.060  1.4529  1.6006 -3.0609
  467SOL     OW 1399   0.614   0.420   2.458 -0.0763 -0.1530  0.1980
  467SOL    HW1 1400   0.564   0.507   2.467  0.2248  0.1148 -1.7795
  467SOL    HW2 1401   0.629   0.373   2.548 -1.3459  0.2528 -1.3722
  468SOL     OW 1402   0.381   2.264   1.616  0.1016  0.0992 -0.3085
  468SOL    HW1 1403   0.477   2.301   1.641 -0.3363 -2.6338  1.9864
  468SOL    HW2 1404   0.377   2.249   1.513  1.0121  0.5044  0.5215
  469SOL     OW 1405   1.466   1.299   1.347  0.5411 -0.0695  0.2234
  469SOL    HW1 1406   1.511   1.277   1.250 -2.1049 -0.5768 -1.1805
  469SOL    HW2 1407   1.498   1.389   1.381 -3.0236 -1.1823 -0.9767
  470SOL     OW 1408   3.013   1.839   0.717  0.1393  0.6520  0.2299
  470SOL    HW1 1409   3.067   1.896   0.650 -1.0409  1.5914 -1.4703
  470SOL    HW2 1410   3.063   1.762   0.753 -0.1660 -0.9572 -1.7753
  471SOL     OW 1411   2.592   1.366   2.153  0.0241 -0.2373 -0.2227
  471SOL    HW1 1412   2.583   1.278   2.206 -0.0781  2.8026  0.4035
  471SOL    HW2 1413   2.676   1.425   2.183 -0.1862  2.1890 -1.7148
  472SOL     OW 1414   1.167   2.376   0.078 -0.1166 -0.0421 -0.8462
  472SOL    HW1 1415   1.227   2.393   0.163  0.8292 -1.7576 -0.6595
  472SOL    HW2 1416   1.088   2.311   0.095  0.9822 -0.1527 -2.9514
  473SOL     OW 1417   1.079   1.489   1.034 -0.4228 -0.2214  0.0727
  473SOL    HW1 1418   0.988   1.525   0.992  0.7312  0.6228  1.5640
  473SOL    HW2 1419   1.062   1.416   1.102  0.3096  0.2082 -0.0960
  474SOL     OW 1420   0.649   1.283   0.588  0.0033  0.3181  0.4598
  474SOL    HW1 1421   0.555   1.237   0.573  0.8315 -1.1505  0.8029
  474SOL    HW2 1422   0.719   1.209   0.588 -0.7007  1.0952  0.8823
  475SOL     OW 1423   2.827   0.024   0.808 -0.2648 -0.1247  0.3047
  475SOL    HW1 1424   2.908   0.093   0.814 -0.8865 -0.2589  1.1269
  475SOL    HW2 1425   2.734   0.058   0.849 -0.8640 -0.0153 -2.2468
  476SOL     OW 1426   1.012   2.976   1.772  0.9689 -0.0570 -0.4223
  476SOL    HW1 1427   1.108   3.003   1.792  0.5384  3.1472 -1.4280
  476SOL    HW2 1428   0.993   2.963   1.671  0.8671  0.2252  1.4375
  477SOL     OW 1429   1.445   0.314   2.406 -0.2513 -0.0005  0.1664
  477SOL    HW1 1430   1.411   0.349   2.500 -1.0605  2.1751 -1.2296
  477SOL    HW2 1431   1.545   0.292   2.405 -0.4221  0.1599 -0.0713
  478SOL     OW 1432   2.229   1.851   0.237  0.3551  0.0351 -0.6727
  478SOL    HW1 1433   2.174   1.767   0.250  0.1269 -2.8467 -1.1215
  478SOL    HW2 1434   2.312   1.829   0.174 -1.5920 -1.3701  0.2332
  479SOL     OW 1435   1.267   0.951   2.885  0.0052 -0.1730 -0.6265
  479SOL    HW1 1436   1.348   0.964   2.818  1.1761 -0.4992 -0.4505
  479SOL    HW2 1437   1.202   0.875   2.853 -1.8843 -0.0008 -1.6980
  480SOL     OW 1438   2.598   2.331   0.386  0.4474 -0.5494  0.5978
  480SOL    HW1 1439   2.539   2.264   0.442  1.5923 -0.2723  3.0417
  480SOL    HW2 1440   2.542   2.403   0.335 -2.7330 -0.6964 -0.1305
  481SOL     OW 1441   0.982   1.171   0.824 -0.6910 -0.2403  0.2626
  481SOL    HW1 1442   0.966   1.268   0.795 -2.1799 -1.1013  0.4352
  481SOL    HW2 1443   1.010   1.163   0.929  1.1140 -1.4883 -0.1797
  482SOL     OW 1444   1.558   0.318   1.988  0.3472  0.0136 -0.0165
  482SOL    HW1 1445   1.573   0.402   1.934 -1.1896 -0.6231 -0.5166
  482SOL    HW2 1446   1.652   0.266   2.008 -0.2124 -2.1583 -1.3283
  483SOL     OW 1447   0.140   2.317   1.247 -0.5814 -0.2410 -0.2136
  483SOL    HW1 1448   0.140   2.394   1.314 -2.5508 -2.0882 -0.9269
  483SOL    HW2 1449   0.162   2.336   1.148  1.4359  0.6782  0.9165
  484SOL     OW 1450   1.767   1.100   1.332 -0.1698  0.1478 -0.4888
  484SOL    HW1 1451   1.840   1.036   1.376 -2.0785  0.4924 -0.3818
  484SOL    HW2 1452   1.762   1.198   1.366 -0.8516  1.2314 -0.6332
  485SOL     OW 1453   0.763   0.770   1.790  0.0265  0.3155 -0.0327
  485SOL    HW1 1454   0.739   0.835   1.713 -1.5189 -0.0503 -0.0797
  485SOL    HW2 1455   0.850   0.727   1.771 -2.0982  1.3104 -0.7794
  486SOL     OW 1456   0.846   1.871   2.446  0.0434  0.9149  0.2849
  486SOL    HW1 1457   0.881   1.863   2.548 -0.5996  0.6648  0.1691
  486SOL    HW2 1458   0.852   1.965   2.407 -1.4897  0.1760  0.9271
  487SOL     OW 1459   1.754   1.578   0.952  0.2249  0.3061 -0.5526
  487SOL    HW1 1460   1.825   1.509   0.989  1.2693 -0.7738 -0.1008
  487SOL    HW2 1461   1.793   1.637   0.878 -1.4736 -0.1493  1.3002
  488SOL     OW 1462   2.954   0.869   2.313 -0.1753  0.5391 -0.1471
  488SOL    HW1 1463   2.986   0.774   2.289 -1.0960  0.7178 -0.2049
  488SOL    HW2 1464   2.959   0.891   2.414 -0.5443  0.9871  0.3106
  489SOL     OW 1465   2.791   0.372   1.292  0.4938  0.0978  0.2160
  489SOL    HW1 1466   2.751   0.315   1.370 -0.7438  0.1428 -1.6357
  489SOL    HW2 1467   2.885   0.338   1.266 -1.1781 -2.3300  0.9386
  490SOL     OW 1468   1.400   2.944   2.797  0.0258 -0.3708  0.3751
  490SOL    HW1 1469   1.414   2.847   2.839 -1.7032 -2.1560  1.6699
  490SOL    HW2 1470   1.443   2.960   2.702  2.2107  0.2703  0.8315
  491SOL     OW 1471   1.713   1.514   2.658 -0.4907  0.3291 -0.4896
  491SOL    HW1 1472   1.659   1.504   2.750 -1.1465  1.0589  1.8083
  491SOL    HW2 1473   1.815   1.551   2.674  0.6028 -1.8308 -1.3232
  492SOL     OW 1474   0.577   2.064   0.634  0.0503  0.6176 -0.3577
  492SOL    HW1 1475   0.606   2.022   0.729  0.6003 -1.2866  1.9456
  492SOL    HW2 1476   0.507   2.136   0.648  2.3077 -1.5360 -0.5050
  493SOL     OW 1477   0.479   1.386   2.073 -0.5952 -0.2417  0.5385
  493SOL    HW1 1478   0.421   1.459   2.030 -1.1257  0.2420 -1.0006
  493SOL    HW2 1479   0.426   1.294   2.072 -0.1490  0.3619 -0.1259
  494SOL     OW 1480   2.719   2.553   0.079  0.2849  0.4378  0.0609
  494SOL    HW1 1481   2.743   2.530   0.176 -1.7142  2.1598  1.1546
  494SOL    HW2 1482   2.636   2.611   0.071  0.3300 -2.0052 -1.3789
  495SOL     OW 1483   2.559   2.752   2.598 -0.1869 -0.6882  0.2344
  495SOL    HW1 1484   2.558   2.647   2.615  0.5115 -1.3534 -0.4728
  495SOL    HW2 1485   2.652   2.778   2.550  1.6620  2.7966 -2.5314
  496SOL     OW 1486   2.024   2.287   0.819 -0.0126  0.0874 -0.4328
  496SOL    HW1 1487   2.079   2.352   0.872 -1.7124 -0.4958  0.6365
  496SOL    HW2 1488   2.030   2.185   0.848 -1.3185 -1.3209  2.3262
  497SOL     OW 1489   0.149   3.014   2.361  0.5807 -0.2645  0.0580
  497SOL    HW1 1490   0.124   3.069   2.445 -0.9337  0.7124 -1.5517
  497SOL    HW2 1491   0.173   3.073   2.276  0.9930  0.5293 -2.7374
  498SOL     OW 1492   1.198   1.315   1.262  0.2162 -0.3339  0.2849
  498SOL    HW1 1493   1.301   1.316   1.273  1.6512  0.7895 -0.3510
  498SOL    HW2 1494   1.159   1.398   1.317 -0.9700  1.7201  0.1322
  499SOL     OW 1495   0.633   1.809   0.259  0.4577  0.1699 -0.0256
  499SOL    HW1 1496   0.678   1.742   0.201 -3.8341  3.1508 -0.5441
  499SOL    HW2 1497   0.699   1.870   0.306  1.4015  0.5530  0.6225
  500SOL     OW 1498   1.399   2.875   1.688 -0.4473 -0.1396 -0.0437
  500SOL    HW1 1499   1.434   2.871   1.789 -1.5698 -0.6170  3.1815
  500SOL    HW2 1500   1.415   2.779   1.649 -1.4736  0.8248  0.6212
  501SOL     OW 1501   0.777   1.166   2.274 -0.0429  0.3155  0.4939
  501SOL    HW1 1502   0.698   1.099   2.280 -1.3842  0.4633 -0.7898
  501SOL    HW2 1503   0.805   1.182   2.175 -1.4356  1.3932  6.2803
  502SOL     OW 1504   2.568   0.936   1.780 -0.9609  0.2391  0.1194
  502SOL    HW1 1505   2.561   0.948   1.675  0.7178  0.9393 -0.1937
  502SOL    HW2 1506   2.578   0.834   1.808  1.1002 -1.1793 -1.4977
  503SOL     OW 1507   1.294   0.164   0.590  0.0015  0.0866 -0.2721
  503SOL    HW1 1508   1.231   0.242   0.603 -1.1996  0.0947  1.1476
  503SOL    HW2 1509   1.390   0.182   0.619  1.0055  1.2385 -1.4081
  504SOL     OW 1510   3.018   2.336   1.474 -0.4044 -0.5070 -0.4034
  504SOL    HW1 1511   2.964   2.419   1.507  0.4670  1.1549  1.1747
  504SOL    HW2 1512   3.052   2.279   1.552  2.4465  3.1550 -1.6920
  505SOL     OW 1513   2.280   1.181   1.413  0.1819  0.3612  0.1252
  505SOL    HW1 1514   2.266   1.224   1.315  1.8254  2.3897  1.0122
  505SOL    HW2 1515   2.365   1.212   1.464  1.9834  0.2427 -2.4415
  506SOL     OW 1516   1.931   0.200   1.806 -0.4399  0.0596  0.1245
  506SOL    HW1 1517   2.015   0.137   1.791  3.7285  0.7302  1.4271
  506SOL    HW2 1518   1.962   0.290   1.849 -0.1342  1.5535 -1.4757
  507SOL     OW 1519   0.555   0.699   2.181  0.4154 -0.0550 -0.4397
  507SOL    HW1 1520   0.497   0.612   2.143 -0.0262 -1.5582 -2.8318
  507SOL    HW2 1521   0.647   0.671   2.217 -1.1738 -0.6371  1.7189
  508SOL     OW 1522   0.323   1.656   0.789 -0.3951 -0.4673 -0.2748
  508SOL    HW1 1523   0.382   1.707   0.726  1.6987  0.0370  0.9254
  508SOL    HW2 1524   0.271   1.716   0.855  0.5999  1.3390  0.7928
  509SOL     OW 1525   1.290   1.191   2.442  0.1124  0.0243 -0.5161
  509SOL    HW1 1526   1.308   1.162   2.345  2.4452  0.3907  2.7694
  509SOL    HW2 1527   1.192   1.170   2.469 -2.5403  2.0574  0.3495
  510SOL     OW 1528   1.270   2.097   2.227  0.4022  0.7140  0.1170
  510SOL    HW1 1529   1.281   2.105   2.121 -3.5534  1.3110  1.5645
  510SOL    HW2 1530   1.194   2.029   2.252 -2.9444  2.2846 -0.3053
  511SOL     OW 1531   3.012   2.701   1.268 -0.4917 -0.4135  0.1936
  511SOL    HW1 1532   3.026   2.719   1.163 -0.6963  0.4542 -4.5646
  511SOL    HW2 1533   2.913   2.719   1.293 -1.2785  1.2584 -1.4725
  512SOL     OW 1534   2.400   0.459   1.375  0.5302  0.1325  0.2128
  512SOL    HW1 1535   2.298   0.484   1.352 -1.2466  1.2198  2.2789
  512SOL    HW2 1536   2.445   0.420   1.289  1.3957 -2.0421 -0.1489
  513SOL     OW 1537   2.565   2.170   0.945  0.1695 -0.3616  0.0650
  513SOL    HW1 1538   2.537   2.219   0.856 -0.2369  0.9505  3.3313
  513SOL    HW2 1539   2.663   2.130   0.941  1.4451 -1.1311 -0.0066
  514SOL     OW 1540   0.674   2.772   0.406  0.1386  0.1763  0.1548
  514SOL    HW1 1541   0.666   2.840   0.327 -1.6973  4.7027  2.5290
  514SOL    HW2 1542   0.689   2.817   0.499  2.3308 -4.6525 -0.1131
  515SOL     OW 1543   1.912   1.361   2.369 -0.1727 -0.4437 -0.4167
  515SOL    HW1 1544   1.945   1.292   2.295 -0.1537  0.3697  0.2968
  515SOL    HW2 1545   1.826   1.332   2.423 -0.8499 -2.0791  1.9964
  516SOL     OW 1546   0.290   0.313   1.893 -0.3037 -0.0463 -0.2112
  516SOL    HW1 1547   0.386   0.265   1.889  1.5933 -0.2273  2.2003
  516SOL    HW2 1548   0.212   0.255   1.869  1.8243  1.7440 -0.6778
  517SOL     OW 1549   0.473   0.116   1.122  0.3858 -0.2440 -0.2381
  517SOL    HW1 1550   0.460   0.158   1.213 -0.5710  3.1889  1.6652
  517SOL    HW2 1551   0.387   0.057   1.100 -2.2851 -1.0058 -1.6532
  518SOL     OW 1552   2.125   3.091   1.792  0.1113  0.2315  0.1489
  518SOL    HW1 1553   2.191   3.171   1.805 -1.0329  1.5194  0.2616
  518SOL    HW2 1554   2.132   3.065   1.689  1.9938 -1.1093 -3.4411
  519SOL     OW 1555   2.305   2.125   2.496  0.0033 -1.1398 -0.7154
  519SOL    HW1 1556   2.257   2.098   2.587 -0.7807 -0.7538  3.9016
  519SOL    HW2 1557   2.314   2.228   2.472 -0.7717  0.5666 -1.1536
  520SOL     OW 1558   1.818   2.708   1.730  0.6187 -0.3437 -0.0013
  520SOL    HW1 1559   1.745   2.641   1.776 -3.5199 -2.4761 -1.0182
  520SOL    HW2 1560   1.906   2.654   1.703 -1.8453  0.0258  1.6196
  521SOL     OW 1561   0.551   0.005   2.085  0.1004  0.1448 -0.7135
  521SOL    HW1 1562   0.451   0.001   2.108 -0.6891 -0.0263  1.2386
  521SOL    HW2 1563   0.616  -0.011   2.166 -0.9465 -1.1110 -1.8056
  522SOL     OW 1564   0.204   1.844   1.527 -0.2622 -0.2568  0.5929
  522SOL    HW1 1565   0.229   1.912   1.601  0.9442 -1.6868  0.6660
  522SOL    HW2 1566   0.196   1.891   1.432 -2.9908 -2.4157  0.3356
  523SOL     OW 1567   2.185   2.920   1.532  0.0539  0.1676  0.9076
  523SOL    HW1 1568   2.245   2.837   1.555 -1.8271 -1.6515 -1.3322
  523SOL    HW2 1569   2.112   2.894   1.468  2.2338  0.1435  1.6177
  524SOL     OW 1570   0.188   2.787   2.845 -0.0065  0.0274  0.4894
  524SOL    HW1 1571   0.136   2.870   2.868 -2.8384 -0.5102 -0.9649
  524SOL    HW2 1572   0.291   2.809   2.817 -0.9412  1.3408 -0.5551
  525SOL     OW 1573   2.173   2.047   0.421  0.3265  0.0087  0.2047
  525SOL    HW1 1574   2.193   2.005   0.518 -0.1488 -1.5274 -1.6362
  525SOL    HW2 1575   2.189   1.979   0.343 -3.1674 -1.5194 -1.8873
  526SOL     OW 1576   0.431   1.541   1.834  0.2976  0.1339 -0.1955
  526SOL    HW1 1577   0.521   1.596   1.838  2.0496 -1.2627 -3.2596
  526SOL    HW2 1578   0.461   1.442   1.837  0.5227 -3.8747  1.2780
  527SOL     OW 1579   1.096   2.894   1.209  0.8533 -0.4983  0.1324
  527SOL    HW1 1580   1.148   2.835   1.274 -3.2252 -1.4634 -2.3561
  527SOL    HW2 1581   1.140   2.986   1.202 -0.5374 -0.4552  0.2854
  528SOL     OW 1582   1.362   2.348   0.523  0.3742  0.3974  0.0503
  528SOL    HW1 1583   1.398   2.245   0.527  1.7498 -2.4719  0.2775
  528SOL    HW2 1584   1.402   2.405   0.598 -2.0708  0.1371 -1.4309
  529SOL     OW 1585   1.914   1.755   0.777  0.1982  0.1531 -0.1800
  529SOL    HW1 1586   1.863   1.758   0.682 -2.3869  1.3308 -2.1490
  529SOL    HW2 1587   1.915   1.847   0.825 -1.3794  0.4714  1.2084
  530SOL     OW 1588   0.420   2.550   0.163 -0.5829 -0.4450  0.5173
  530SOL    HW1 1589   0.445   2.529   0.256  0.5863 -1.1700 -0.8218
  530SOL    HW2 1590   0.446   2.471   0.100  2.1450  1.4322  1.7295
  531SOL     OW 1591   1.824   0.964   1.111 -0.0526 -0.2968  0.4788
  531SOL    HW1 1592   1.732   0.944   1.068 -0.2326  0.4020 -0.2310
  531SOL    HW2 1593   1.816   1.015   1.203  1.2819  2.3585  2.5674
  532SOL     OW 1594   0.283   1.179   0.715 -0.1506 -0.5995  0.6363
  532SOL    HW1 1595   0.312   1.180   0.615  0.5596  0.4476 -0.8891
  532SOL    HW2 1596   0.220   1.102   0.745  0.5856 -0.3213  2.7943
  533SOL     OW 1597   1.792   0.013   2.576  0.5892 -0.2129  0.3875
  533SOL    HW1 1598   1.885  -0.011   2.610 -0.8505  0.1318  1.9736
  533SOL    HW2 1599   1.735   0.084   2.630 -3.3783 -0.5000  2.6224
  534SOL     OW 1600   0.222   0.213   1.508 -0.6477 -0.0832 -0.3987
  534SOL    HW1 1601   0.316   0.245   1.467 -0.1149  1.6023 -0.1967
  534SOL    HW2 1602   0.154   0.291   1.510  1.3984  0.2658 -1.8641
  535SOL     OW 1603   1.849   0.329   0.215  0.0979  0.2702 -0.0728
  535SOL    HW1 1604   1.892   0.405   0.273 -3.2659 -1.2267  2.2225
  535SOL    HW2 1605   1.789   0.264   0.269  0.7714  1.2050 -4.9687
  536SOL     OW 1606   1.332   2.604   0.932  0.5046 -0.4637 -0.1776
  536SOL    HW1 1607   1.368   2.509   0.915  1.7332 -1.0655  1.2646
  536SOL    HW2 1608   1.229   2.615   0.919  2.6591 -1.5622  0.4668
  537SOL     OW 1609   0.891   0.220   2.349 -0.2982  0.2113  0.2059
  537SOL    HW1 1610   0.913   0.242   2.245  3.3935 -1.7418 -1.8991
  537SOL    HW2 1611   0.816   0.150   2.369 -0.7660 -1.1146  1.0207
  538SOL     OW 1612   1.656   2.346   1.493 -0.3156  0.5603 -0.0947
  538SOL    HW1 1613   1.646   2.248   1.466  2.2629  1.4128 -2.7773
  538SOL    HW2 1614   1.722   2.386   1.424 -1.1666  0.9094 -0.7452
  539SOL     OW 1615   0.169   1.587   2.681 -0.1784 -0.4565 -0.5141
  539SOL    HW1 1616   0.071   1.569   2.642 -0.1539  1.3764 -1.5073
  539SOL    HW2 1617   0.187   1.692   2.703 -2.6851  0.4060 -0.9936
  540SOL     OW 1618   2.710   1.681   1.986  0.1418 -0.4345  0.0870
  540SOL    HW1 1619   2.637   1.612   1.989  1.6176  2.4826  0.3898
  540SOL    HW2 1620   2.675   1.772   1.958 -1.3148 -3.9481 -0.8035
  541SOL     OW 1621   0.450   2.340   3.098  0.1575  0.1358  0.2904
  541SOL    HW1 1622   0.504   2.246   3.116  1.4722 -2.3652  3.2745
  541SOL    HW2 1623   0.351   2.314   3.075  0.0455 -0.8642  0.5453
  542SOL     OW 1624   2.251   2.569   0.462  0.2677  0.1115 -0.3331
  542SOL    HW1 1625   2.238   2.660   0.410 -0.2540 -0.6851 -4.6131
  542SOL    HW2 1626   2.163   2.515   0.471  2.1005  1.2691 -1.6170
  543SOL     OW 1627   0.990   1.784   1.719  0.2313 -0.3998  0.0774
  543SOL    HW1 1628   0.985   1.800   1.821 -1.4613  0.3744  1.7042
  543SOL    HW2 1629   0.923   1.839   1.666  1.4326 -1.7264  0.6697
  544SOL     OW 1630   0.893   0.400   0.220 -0.0626 -0.2844 -0.2996
  544SOL    HW1 1631   0.910   0.316   0.276 -0.6279  0.4531 -1.5830
  544SOL    HW2 1632   0.955   0.406   0.137 -3.4521 -1.6562 -2.4068
  545SOL     OW 1633   1.113   1.720   0.618 -0.6085  0.0957  0.5576
  545SOL    HW1 1634   1.205   1.730   0.670  0.9254 -1.8615  0.5480
  545SOL    HW2 1635   1.127   1.713   0.514 -1.6668 -2.0938 -0.3874
  546SOL     OW 1636   2.647   1.539   3.072 -0.2434 -0.1815 -0.6252
  546SOL    HW1 1637   2.561   1.518   3.023 -0.3912  0.8178 -2.2434
  546SOL    HW2 1638   2.644   1.518   3.175  0.7520  2.1693 -2.2429
  547SOL     OW 1639   0.544   0.027   2.773  0.1891 -0.1303  0.0167
  547SOL    HW1 1640   0.599  -0.032   2.705  1.2345  2.7935 -3.3558
  547SOL    HW2 1641   0.532  -0.023   2.859 -2.1487  2.5641 -0.5982
  548SOL     OW 1642   2.051   0.835   3.028 -0.4544 -0.1395 -0.1743
  548SOL    HW1 1643   1.955   0.794   3.046 -3.6511  0.9235  1.0232
  548SOL    HW2 1644   2.056   0.933   3.059  0.8869 -1.6286  0.0858
  549SOL     OW 1645   0.651   0.493   0.188  0.2637  0.3179  0.6602
  549SOL    HW1 1646   0.621   0.553   0.107  2.0670 -0.1090 -1.8872
  549SOL    HW2 1647   0.759   0.496   0.196  3.5847  1.1317  0.8885
  550SOL     OW 1648   2.550   2.859   2.867 -0.5136 -0.2746  0.1058
  550SOL    HW1 1649   2.538   2.790   2.945  1.2768  1.8427  0.6155
  550SOL    HW2 1650   2.547   2.822   2.772 -0.8432  3.5317  2.4192
  551SOL     OW 1651   0.269   0.915   0.226  0.3808 -0.0572  0.5207
  551SOL    HW1 1652   0.374   0.922   0.219 -0.1621  1.5747  1.7168
  551SOL    HW2 1653   0.238   0.898   0.325 -0.5366 -0.9172  1.9107
  552SOL     OW 1654   0.786   2.853   1.845 -0.6175  0.3866 -0.0391
  552SOL    HW1 1655   0.746   2.909   1.927 -1.5302  1.7074  4.1729
  552SOL    HW2 1656   0.858   2.912   1.792 -0.2127 -1.4253 -0.2999
  553SOL     OW 1657   3.085   2.525   0.359  0.9593 -0.0746  0.1086
  553SOL    HW1 1658   3.017   2.444   0.346 -0.5979 -1.8478 -0.8217
  553SOL    HW2 1659   3.032   2.602   0.412 -2.1101  0.3517  0.5570
  554SOL     OW 1660   2.245   0.318   0.563  0.0965  0.3061 -0.2680
  554SOL    HW1 1661   2.285   0.281   0.473 -0.1895  1.1559  1.6630
  554SOL    HW2 1662   2.219   0.245   0.628  1.2192 -0.4581 -0.0108
  555SOL     OW 1663   0.426   2.886   2.450  0.3184 -0.3557  0.6394
  555SOL    HW1 1664   0.358   2.962   2.453 -0.3065 -1.2806  0.6143
  555SOL    HW2 1665   0.423   2.846   2.357 -1.0703 -0.2206  1.0736
  556SOL     OW 1666   0.910   2.373   1.677 -0.3930  0.1647 -0.5523
  556SOL    HW1 1667   0.924   2.453   1.741  0.1316 -0.1189 -0.3907
  556SOL    HW2 1668   0.963   2.383   1.590 -0.0000  0.5041 -0.8769
  557SOL     OW 1669   0.117   2.097   0.129 -0.1938  0.0236  0.3002
  557SOL    HW1 1670   0.028   2.049   0.107 -1.8499 -0.5584  1.6029
  557SOL    HW2 1671   0.145   2.144   0.038 -1.8003  0.2984 -0.3877
  558SOL     OW 1672   2.948   2.278   0.346 -0.4346  0.0418  0.5715
  558SOL    HW1 1673   2.882   2.222   0.405 -0.0100 -1.6931  0.9223
  558SOL    HW2 1674   2.936   2.255   0.246  2.1951  2.4641  0.7277
  559SOL     OW 1675   0.399   2.266   1.324  0.0447 -0.2589  0.1191
  559SOL    HW1 1676   0.299   2.264   1.288 -1.9461  2.2631 -2.5970
  559SOL    HW2 1677   0.445   2.174   1.311 -2.3423  0.4295 -1.8118
  560SOL     OW 1678   2.092   1.104   3.068  0.1590 -0.2706 -0.2520
  560SOL    HW1 1679   2.054   1.194   3.099 -0.6962  0.4708 -0.1521
  560SOL    HW2 1680   2.195   1.092   3.072  0.5256 -1.3037 -0.6219
  561SOL     OW 1681   3.010   1.938   3.095  0.3194 -0.1141 -0.1947
  561SOL    HW1 1682   2.946   1.865   3.132  0.1371 -1.1536 -1.4096
  561SOL    HW2 1683   2.948   2.008   3.048 -4.0041  1.9918 -0.1233
  562SOL     OW 1684   0.921   2.130   2.375  0.2144  0.0515  0.9297
  562SOL    HW1 1685   0.817   2.122   2.355 -2.0770 -0.3271  1.0750
  562SOL    HW2 1686   0.937   2.212   2.430  1.1014 -3.8976 -1.6519
  563SOL     OW 1687   0.684   2.439   2.596 -0.2752  0.1935 -0.1928
  563SOL    HW1 1688   0.772   2.379   2.589  1.0315 -0.3631 -2.0073
  563SOL    HW2 1689   0.673   2.477   2.689 -0.8012  0.9222  2.4528
  564SOL     OW 1690   2.750   1.305   2.890  0.3501 -0.6119  0.7338
  564SOL    HW1 1691   2.672   1.324   2.953  1.4841 -0.1558  0.1276
  564SOL    HW2 1692   2.798   1.389   2.852  2.1245  0.2800  2.0250
  565SOL     OW 1693   2.534   1.982   2.566  0.1313  0.6361  0.0893
  565SOL    HW1 1694   2.443   2.035   2.549 -1.4321 -0.0052 -0.5061
  565SOL    HW2 1695   2.579   2.001   2.658  1.0719 -0.0968  1.2116
  566SOL     OW 1696   2.009   2.877   1.324  0.2103 -0.1591 -0.5444
  566SOL    HW1 1697   1.946   2.798   1.297  0.3434  1.1086 -0.5539
  566SOL    HW2 1698   2.077   2.896   1.250 -1.4153 -1.7004  1.7571
  567SOL     OW 1699   2.440   0.127   2.210  0.0484  0.5110  0.7801
  567SOL    HW1 1700   2.410   0.068   2.127  0.7756 -2.2320  0.9884
  567SOL    HW2 1701   2.389   0.215   2.215  4.0936 -0.2278 -1.4645
  568SOL     OW 1702   1.548   1.813   0.290 -0.0963  0.1502 -0.7226
  568SOL    HW1 1703   1.496   1.887   0.237  2.1892  1.5023 -0.2979
  568SOL    HW2 1704   1.636   1.851   0.338  2.4915 -1.7867 -4.0745
  569SOL     OW 1705   0.310   0.645   0.818 -0.1418  0.3952  0.2734
  569SOL    HW1 1706   0.351   0.557   0.784  3.8507 -1.1690  0.1627
  569SOL    HW2 1707   0.210   0.629   0.838 -2.1018 -0.4410  3.8019
  570SOL     OW 1708   0.634   0.748   2.828  0.5892 -0.6687  0.6634
  570SOL    HW1 1709   0.709   0.727   2.760  1.8745  0.9540 -1.9419
  570SOL    HW2 1710   0.646   0.847   2.865 -1.7088  1.6865  0.2924
  571SOL     OW 1711   0.867   3.062   1.103 -0.0363 -0.2299 -0.0289
  571SOL    HW1 1712   0.907   3.106   1.017 -0.1597  1.8238  0.2685
  571SOL    HW2 1713   0.900   2.967   1.120 -2.0388  0.7911 -2.6516
  572SOL     OW 1714   1.570   2.639   1.141  0.0438  0.2607 -0.4272
  572SOL    HW1 1715   1.505   2.594   1.204  1.0257  0.0621 -2.4711
  572SOL    HW2 1716   1.529   2.724   1.104 -0.3943 -1.4130 -0.8277
  573SOL     OW 1717   2.928   0.431   2.051 -0.1740 -0.6998  0.0075
  573SOL    HW1 1718   2.875   0.339   2.061 -1.3728  0.8484  0.7943
  573SOL    HW2 1719   2.868   0.508   2.026  2.4877 -1.0990  0.4739
  574SOL     OW 1720   0.205   1.781   0.997  0.0344 -0.3556 -0.0631
  574SOL    HW1 1721   0.199   1.885   0.985  0.7328  0.9149 -1.1168
  574SOL    HW2 1722   0.169   1.757   1.090  1.2374 -1.2823 -1.1096
  575SOL     OW 1723   0.801   2.166   0.961  0.0641 -0.0787  0.2617
  575SOL    HW1 1724   0.798   2.198   1.059 -0.4881 -0.0716 -1.6415
  575SOL    HW2 1725   0.867   2.220   0.903 -0.1570 -1.7007 -0.5151
  576SOL     OW 1726   2.936   2.923   1.711 -0.0078  0.1376 -0.3915
  576SOL    HW1 1727   2.877   2.858   1.653 -0.5190 -1.4621 -0.1751
  576SOL    HW2 1728   2.941   3.022   1.664 -1.1276  2.6769  0.1995
  577SOL     OW 1729   2.548   1.247   3.085 -0.2602 -0.0743  0.0273
  577SOL    HW1 1730   2.571   1.166   3.018 -1.3953 -0.8651 -0.2864
  577SOL    HW2 1731   2.620   1.251   3.161  1.8581 -0.1623  1.2306
  578SOL     OW 1732   1.312   2.701   2.573 -0.5493 -0.2489 -0.1791
  578SOL    HW1 1733   1.233   2.748   2.530  1.5033 -1.5431  2.2124
  578SOL    HW2 1734   1.387   2.764   2.596  0.0892 -3.0223  2.3379
  579SOL     OW 1735   0.115   2.516   0.104 -0.0255 -0.1578  0.0617
  579SOL    HW1 1736   0.098   2.525   0.206  2.0464  1.8339 -0.1813
  579SOL    HW2 1737   0.211   2.477   0.081  0.2849 -1.0199  0.6124
  580SOL     OW 1738   1.008   2.614   0.387 -0.2977 -0.6710 -0.1471
  580SOL    HW1 1739   1.094   2.641   0.331 -1.2524 -0.4140 -0.9878
  580SOL    HW2 1740   0.938   2.572   0.326  1.3189  2.3820 -0.5864
  581SOL     OW 1741   1.241   2.629   1.514 -0.6103 -0.4221  0.1048
  581SOL    HW1 1742   1.298   2.551   1.475 -1.4006 -0.6443 -3.3389
  581SOL    HW2 1743   1.266   2.713   1.456  0.8908 -0.7669 -1.6412
  582SOL     OW 1744   1.490   0.086   1.839  0.1808  0.4987 -0.5363
  582SOL    HW1 1745   1.504   0.171   1.898 -2.6845 -0.1784 -0.5747
  582SOL    HW2 1746   1.573   0.067   1.781  0.2466 -0.2319 -1.9133
  583SOL     OW 1747   2.499   2.970   0.538  0.0178  0.0339  0.0242
  583SOL    HW1 1748   2.510   2.888   0.471  3.1336  1.9928 -3.0533
  583SOL    HW2 1749   2.428   2.957   0.607  3.7643  0.8529 -0.0568
  584SOL     OW 1750   1.613   1.030   2.083  0.1818 -0.3774  0.2878
  584SOL    HW1 1751   1.643   1.098   2.005 -0.4996 -0.3133 -0.8504
  584SOL    HW2 1752   1.689   0.966   2.114 -0.8890 -1.4082 -2.3623
  585SOL     OW 1753   2.093   2.638   2.899 -0.2857  0.3381  0.4302
  585SOL    HW1 1754   2.130   2.551   2.870 -0.1053  2.7710  1.8509
  585SOL    HW2 1755   1.989   2.646   2.891  2.4107  0.9722  3.1057
  586SOL     OW 1756   2.736   0.244   1.513  0.2406  0.0592  0.3778
  586SOL    HW1 1757   2.780   0.325   1.567  0.8110 -1.0002 -3.0717
  586SOL    HW2 1758   2.645   0.200   1.552 -1.9154 -0.3308  1.2857
  587SOL     OW 1759   1.968   1.615   2.733  0.2622 -0.1083  0.5796
  587SOL    HW1 1760   2.022   1.565   2.658 -0.2371  0.1043 -1.7180
  587SOL    HW2 1761   1.995   1.581   2.827 -0.1503 -2.1094 -2.8507
  588SOL     OW 1762   0.468   2.736   2.226 -0.2616  0.1473  0.3652
  588SOL    HW1 1763   0.371   2.706   2.193 -1.7799 -2.3262  1.9859
  588SOL    HW2 1764   0.505   2.660   2.287  0.0003  1.7580  0.7704
  589SOL     OW 1765   2.107   1.443   2.549 -0.1252 -0.1720 -0.4359
  589SOL    HW1 1766   2.031   1.402   2.493  1.5293 -1.3170 -0.5707
  589SOL    HW2 1767   2.188   1.375   2.555  0.0975  2.1132 -1.5837
  590SOL     OW 1768   2.368   1.671   2.030 -0.0029 -0.2045 -0.0207
  590SOL    HW1 1769   2.439   1.597   2.016  0.2986  1.9734 -1.1232
  590SOL    HW2 1770   2.386   1.730   2.114  1.2469 -1.2703 -0.1107
  591SOL     OW 1771   1.366   2.421   0.274  0.7674 -0.3923  0.3578
  591SOL    HW1 1772   1.461   2.410   0.232 -0.3035  1.7083 -0.5938
  591SOL    HW2 1773   1.365   2.405   0.377  0.6205  1.2452 -0.9401
  592SOL     OW 1774   1.759   2.373   0.793  0.8451  0.0381  0.5283
  592SOL    HW1 1775   1.735   2.368   0.689 -0.2814  0.8303 -2.1531
  592SOL    HW2 1776   1.852   2.335   0.811 -0.6263  0.6179  0.6635
  593SOL     OW 1777   0.631   0.248   0.070  0.6797  1.5317  0.5853
  593SOL    HW1 1778   0.728   0.218   0.046  0.2270 -0.0300  1.0065
  593SOL    HW2 1779   0.629   0.344   0.096 -0.4024 -2.1539 -3.4581
  594SOL     OW 1780   0.959   1.897   2.688  0.5308 -0.4456  0.2021
  594SOL    HW1 1781   1.042   1.906   2.751  1.1589 -3.0435  1.4828
  594SOL    HW2 1782   0.876   1.948   2.723  2.4058  1.1792  1.0883
  595SOL     OW 1783   1.541   0.047   1.014 -0.3407  0.5528  0.1417
  595SOL    HW1 1784   1.610  -0.031   1.025 -1.3188 -1.2383 -1.7234
  595SOL    HW2 1785   1.459   0.029   0.946 -1.7130  2.4446 -2.7616
  596SOL     OW 1786   3.072   1.452   2.208  0.5003  0.9195 -0.1242
  596SOL    HW1 1787   2.968   1.444   2.219 -2.1623  1.5476  1.9985
  596SOL    HW2 1788   3.099   1.532   2.265 -1.0287 -1.8134 -0.3185
  597SOL     OW 1789   2.052   2.616   1.637 -0.0561  0.2917  0.3294
  597SOL    HW1 1790   2.097   2.577   1.560  0.2086 -0.7267  0.1338
  597SOL    HW2 1791   2.118   2.630   1.715  0.9898 -2.3440  0.0699
  598SOL     OW 1792   2.461   2.929   1.375 -0.0702  0.1834 -0.5210
  598SOL    HW1 1793   2.542   2.989   1.394  2.3199  0.1379 -1.1321
  598SOL    HW2 1794   2.466   2.872   1.291  0.5849 -1.2837  0.7659
  599SOL     OW 1795   2.928   0.394   2.451  0.6542  0.0414  0.0597
  599SOL    HW1 1796   2.985   0.476   2.430 -1.3066  2.2391  1.8270
  599SOL    HW2 1797   2.826   0.408   2.433  1.1297 -2.0603  1.6334
  600SOL     OW 1798   2.823   1.131   2.690  0.0816 -0.1261  0.8909
  600SOL    HW1 1799   2.823   1.034   2.720  2.2723  0.2013 -0.3384
  600SOL    HW2 1800   2.786   1.192   2.760 -0.1948 -3.0927 -1.5937
  601SOL     OW 1801   3.042   1.255   1.985 -0.5779  0.3835 -0.5425
  601SOL    HW1 1802   2.950   1.287   1.949 -1.4741  2.3756  2.1861
  601SOL    HW2 1803   3.120   1.329   1.986 -1.9861  0.3237 -1.5193
  602SOL     OW 1804   1.439   1.710   2.376 -0.4097 -0.2703  0.1503
  602SOL    HW1 1805   1.392   1.619   2.351  1.5841 -1.3937 -0.7927
  602SOL    HW2 1806   1.545   1.703   2.362  3.9639  1.3138 -1.5095
  603SOL     OW 1807   0.639   1.260   2.676 -0.1230 -0.8139 -0.1633
  603SOL    HW1 1808   0.561   1.224   2.614 -1.4233 -1.0545  2.0113
  603SOL    HW2 1809   0.712   1.190   2.689  0.0652 -0.0048  1.3478
  604SOL     OW 1810   2.404   0.987   0.157  0.0084  0.2321 -0.2979
  604SOL    HW1 1811   2.414   1.066   0.095  0.4414  3.3345 -0.0836
  604SOL    HW2 1812   2.430   0.894   0.114  1.4072 -0.6438  0.1141
  605SOL     OW 1813   2.649   1.154   1.946 -0.3328  0.0279  0.1799
  605SOL    HW1 1814   2.628   1.059   1.901 -1.2259 -1.4040 -0.9092
  605SOL    HW2 1815   2.615   1.162   2.045 -1.3319  2.0601 -1.5370
  606SOL     OW 1816   1.516   2.503   2.654  0.2447  0.3302  0.4422
  606SOL    HW1 1817   1.450   2.562   2.596  1.0624  0.5374  1.4862
  606SOL    HW2 1818   1.493   2.403   2.637 -0.6764 -0.6334 -1.5152
  607SOL     OW 1819   1.382   1.600   0.395 -0.0913  0.0099  0.4113
  607SOL    HW1 1820   1.416   1.600   0.491 -0.8310 -0.5744 -0.8102
  607SOL    HW2 1821   1.437   1.663   0.328 -0.8102  1.5471 -1.4224
  608SOL     OW 1822   1.437   2.826   0.416  0.1306 -0.1618 -0.4001
  608SOL    HW1 1823   1.519   2.876   0.377 -1.1710 -1.6732 -0.0208
  608SOL    HW2 1824   1.356   2.891   0.412  1.5568  0.9327 -0.1163
  609SOL     OW 1825   1.259   1.386   0.268  0.1382  0.4771  0.2299
  609SOL    HW1 1826   1.291   1.477   0.312  0.4995  1.2410 -0.8195
  609SOL    HW2 1827   1.158   1.385   0.252 -1.5925  0.7385 -3.5565
  610SOL     OW 1828   3.001   1.134   2.245  0.9786 -0.0920 -0.7507
  610SOL    HW1 1829   3.005   1.030   2.252  0.0771  0.1059 -1.7565
  610SOL    HW2 1830   2.979   1.173   2.148 -0.5085  1.0371 -1.4150
  611SOL     OW 1831   2.552   0.314   1.170  0.3741 -0.0779 -0.0911
  611SOL    HW1 1832   2.513   0.225   1.208  1.8892 -0.0140  1.1275
  611SOL    HW2 1833   2.650   0.326   1.206  1.4327 -0.5987 -0.2033
  612SOL     OW 1834   0.815   2.229   1.242 -0.2795  0.1124 -0.1966
  612SOL    HW1 1835   0.760   2.174   1.310 -1.3971  1.2931 -0.6763
  612SOL    HW2 1836   0.769   2.318   1.225 -0.1341 -1.0514 -0.7732
  613SOL     OW 1837   0.838   1.420   2.426  0.0145 -0.4393  0.0611
  613SOL    HW1 1838   0.912   1.412   2.351 -1.1402 -1.8219 -2.4371
  613SOL    HW2 1839   0.751   1.363   2.405 -0.1002 -0.7569  2.6883
  614SOL     OW 1840   1.647   1.632   1.913 -0.3085  0.6591  0.4901
  614SOL    HW1 1841   1.597   1.706   1.964 -0.4355  0.5498  1.2141
  614SOL    HW2 1842   1.747   1.627   1.941 -0.6844 -0.7029  1.5645
  615SOL     OW 1843   0.793   1.271   1.695 -0.1564 -0.2493 -0.8786
  615SOL    HW1 1844   0.723   1.235   1.635 -0.0510  3.4000  3.0587
  615SOL    HW2 1845   0.838   1.354   1.658  2.1345 -2.9719  0.5112
  616SOL     OW 1846   1.081   1.611   2.294 -0.6741  0.2104  0.5676
  616SOL    HW1 1847   1.016   1.590   2.219  1.0086  0.1558  2.1570
  616SOL    HW2 1848   1.090   1.709   2.310  2.1593 -0.6613 -0.2067
  617SOL     OW 1849   2.917   1.536   1.612 -0.2173  0.1843  0.0232
  617SOL    HW1 1850   2.905   1.449   1.670  1.5735 -1.0403  2.8661
  617SOL    HW2 1851   2.974   1.527   1.526 -1.0778 -0.4472  1.5446
  618SOL     OW 1852   1.928   2.070   1.312  0.5486 -0.0223 -0.6849
  618SOL    HW1 1853   1.904   2.145   1.241  0.0292 -0.4236  0.1669
  618SOL    HW2 1854   1.916   1.970   1.283  1.1988 -3.7225  3.5245
  619SOL     OW 1855   1.743   0.485   2.368  0.1450 -0.7212 -0.2992
  619SOL    HW1 1856   1.677   0.518   2.295 -0.8197  0.1452  2.2060
  619SOL    HW2 1857   1.746   0.381   2.375  0.1539 -0.5215  5.0056
  620SOL     OW 1858   2.332   2.950   0.752  0.0824  0.1823  0.0307
  620SOL    HW1 1859   2.285   3.036   0.791 -0.4171  2.0691 -0.5250
  620SOL    HW2 1860   2.316   2.865   0.805  0.9773  4.2393 -0.5915
  621SOL     OW 1861   2.092   1.815   1.329  0.0657  0.0608  0.2559
  621SOL    HW1 1862   2.122   1.821   1.432 -0.6421  0.6699  1.1589
  621SOL    HW2 1863   2.051   1.724   1.306  2.0296 -0.6642 -0.7984
  622SOL     OW 1864   2.286   0.915   1.804  0.3555 -0.1540 -0.6302
  622SOL    HW1 1865   2.387   0.910   1.789  2.3729 -0.7169 -1.3121
  622SOL    HW2 1866   2.261   0.831   1.863  0.6079  2.1957  1.2571
  623SOL     OW 1867   1.341   0.791   2.462 -0.4524  0.0257  0.7366
  623SOL    HW1 1868   1.272   0.711   2.459 -0.4961  1.5002  1.4043
  623SOL    HW2 1869   1.307   0.872   2.406  3.7427  1.7268  5.0942
  624SOL     OW 1870   0.570   0.667   3.091 -0.3837  0.4389 -0.6433
  624SOL    HW1 1871   0.588   0.710   2.996  1.9209 -0.4627  0.6217
  624SOL    HW2 1872   0.573   0.744   3.164 -1.1281  1.1546  0.2282
  625SOL     OW 1873   2.771   1.725   0.993 -0.0696 -0.3441  0.3718
  625SOL    HW1 1874   2.676   1.766   1.018  0.8209 -0.3003 -0.8649
  625SOL    HW2 1875   2.848   1.795   1.001  1.0306  0.8342 -1.8385
  626SOL     OW 1876   0.621   2.694   1.707 -0.0533  0.8532 -0.0126
  626SOL    HW1 1877   0.679   2.767   1.756 -0.6755  1.2826 -2.8965
  626SOL    HW2 1878   0.528   2.674   1.747 -0.2316  0.3414 -1.6239
  627SOL     OW 1879   0.696   0.957   1.562 -0.1774 -0.0687 -0.1969
  627SOL    HW1 1880   0.612   0.914   1.513  1.6553 -1.0871 -0.0867
  627SOL    HW2 1881   0.768   0.971   1.490  1.9434  1.1288 -0.3895
  628SOL     OW 1882   2.496   0.142   0.653  0.0086 -0.8233  0.2165
  628SOL    HW1 1883   2.516   0.052   0.615 -0.7864  1.8720 -1.3343
  628SOL    HW2 1884   2.399   0.144   0.692 -1.8417 -0.5936  1.2422
  629SOL     OW 1885   1.934   0.935   2.084  0.7577 -0.3784  0.2986
  629SOL    HW1 1886   1.927   0.980   1.992 -0.0858 -1.3715  1.7950
  629SOL    HW2 1887   1.908   1.004   2.160 -1.0403  0.1253  0.2862
  630SOL     OW 1888   2.916   2.334   0.813  0.1837 -0.5519  0.4473
  630SOL    HW1 1889   2.828   2.393   0.830 -0.4298  1.8553 -0.5950
  630SOL    HW2 1890   2.901   2.232   0.804  1.1964  0.1829  0.2191
  631SOL     OW 1891   3.085   0.143   2.186 -0.2140  0.0172 -0.2109
  631SOL    HW1 1892   3.087   0.217   2.257 -0.8012 -3.4508 -0.9207
  631SOL    HW2 1893   3.078   0.185   2.091 -0.7568  0.6583 -1.4347
  632SOL     OW 1894   2.465   2.572   0.645 -0.0914  0.4795 -0.1831
  632SOL    HW1 1895   2.504   2.667   0.672  2.4258  2.9384 -0.5394
  632SOL    HW2 1896   2.385   2.579   0.580 -2.5769  1.8930 -1.3909
  633SOL     OW 1897   1.454   1.231   2.677 -0.4471  0.2586 -0.5246
  633SOL    HW1 1898   1.438   1.301   2.756  2.2346 -0.5949  0.9418
  633SOL    HW2 1899   1.398   1.244   2.593  1.8929 -2.5156 -0.2985
  634SOL     OW 1900   0.631   1.985   0.873  0.5000 -0.2668 -0.0831
  634SOL    HW1 1901   0.556   1.978   0.943  0.1678  2.4108 -0.3831
  634SOL    HW2 1902   0.694   2.066   0.891 -0.3743 -0.2099 -0.2872
  635SOL     OW 1903   2.997   2.349   0.060  0.4061 -0.2461 -0.0598
  635SOL    HW1 1904   2.932   2.408   0.005  1.1909 -1.1378 -0.1943
  635SOL    HW2 1905   3.091   2.388   0.068 -2.3001 -0.7493 -0.4232
  636SOL     OW 1906   2.338   2.744   1.956 -0.5727 -0.4766 -0.0169
  636SOL    HW1 1907   2.338   2.842   1.996 -0.2753  1.4684  1.6374
  636SOL    HW2 1908   2.267   2.688   2.003 -0.4461 -1.4600 -1.2360
  637SOL     OW 1909   2.750   0.620   1.964 -0.3011  0.4365 -0.3281
  637SOL    HW1 1910   2.663   0.628   1.907  1.9182 -0.4257  1.3297
  637SOL    HW2 1911   2.771   0.710   2.004 -3.5590  0.6391  2.2697
  638SOL     OW 1912   2.420   1.846   1.311 -0.0773 -0.3695 -0.0378
  638SOL    HW1 1913   2.320   1.819   1.325 -0.7049  1.9822 -2.6973
  638SOL    HW2 1914   2.491   1.779   1.355  1.7697 -3.7732 -1.8677
  639SOL     OW 1915   1.303   2.176   1.699 -0.2315 -0.8052 -0.1164
  639SOL    HW1 1916   1.348   2.270   1.726  1.6226  1.1144 -1.5701
  639SOL    HW2 1917   1.216   2.152   1.754 -0.2885 -0.1486  1.4586
  640SOL     OW 1918   0.223   1.199   1.594 -0.1909  0.3928 -0.1720
  640SOL    HW1 1919   0.200   1.200   1.696  0.9069 -3.6575  0.6139
  640SOL    HW2 1920   0.287   1.120   1.565  0.0523 -1.2995  2.3580
  641SOL     OW 1921   2.026   0.319   1.447 -0.6746  0.1823  0.5705
  641SOL    HW1 1922   1.958   0.362   1.514  1.2097 -0.5930  0.0002
  641SOL    HW2 1923   2.082   0.241   1.489  0.7807  1.3834  1.3478
  642SOL     OW 1924   2.019   0.050   0.331 -0.1548 -0.4959 -0.2951
  642SOL    HW1 1925   2.092   0.014   0.397  0.4719  0.0536  0.1058
  642SOL    HW2 1926   1.972   0.134   0.372 -1.1361 -0.9956  1.5645
  643SOL     OW 1927   2.921   1.787   2.126  0.4833 -0.1014 -0.2586
  643SOL    HW1 1928   2.848   1.735   2.072 -1.1002  3.4223 -0.8733
  643SOL    HW2 1929   2.918   1.890   2.108  0.3052  0.5498  0.1013
  644SOL     OW 1930   2.269   2.406   1.208 -0.2963 -0.2535 -0.2137
  644SOL    HW1 1931   2.302   2.328   1.146  1.6259 -1.1629 -2.2445
  644SOL    HW2 1932   2.234   2.376   1.303 -0.3592 -2.7743  0.3802
  645SOL     OW 1933   0.568   0.860   1.287 -0.2237  0.3514 -0.4819
  645SOL    HW1 1934   0.467   0.869   1.261 -0.7840  0.9759  2.1574
  645SOL    HW2 1935   0.625   0.894   1.206  3.0658  2.8476  0.8630
  646SOL     OW 1936   1.465   1.828   2.043 -0.0233 -0.1732  0.0546
  646SOL    HW1 1937   1.517   1.894   1.982  3.3117 -1.5917  0.3944
  646SOL    HW2 1938   1.489   1.835   2.142 -1.6992 -2.2636  0.1578
  647SOL     OW 1939   0.836   1.032   0.631 -0.0832 -0.6453 -0.0171
  647SOL    HW1 1940   0.885   1.077   0.715  0.8348  0.1505 -0.3602
  647SOL    HW2 1941   0.767   0.956   0.656  0.9149  0.6735 -1.0369
  648SOL     OW 1942   0.142   0.225   0.228  0.7023  0.3420  0.3071
  648SOL    HW1 1943   0.153   0.137   0.173  2.6971  0.7909 -1.7340
  648SOL    HW2 1944   0.168   0.312   0.177 -2.0595 -1.1756  1.0094
  649SOL     OW 1945   3.002   0.238   0.855  0.1795  0.6514  0.3229
  649SOL    HW1 1946   3.092   0.189   0.865 -0.5141  1.4387  1.7282
  649SOL    HW2 1947   3.008   0.339   0.851 -0.2663  0.3072 -0.5074
  650SOL     OW 1948   2.725   0.631   1.517  0.5193  0.2182 -0.5986
  650SOL    HW1 1949   2.622   0.613   1.530 -1.3376  0.3933  1.8305
  650SOL    HW2 1950   2.747   0.719   1.466  2.4667 -0.9389 -2.9228
  651SOL     OW 1951   0.923   1.516   1.628  0.1415  0.0953 -0.5589
  651SOL    HW1 1952   0.969   1.594   1.679  0.5421 -0.9097 -1.9268
  651SOL    HW2 1953   0.966   1.494   1.539  2.1642 -1.1539  2.4207
  652SOL     OW 1954   2.332   2.394   2.439 -1.3665  0.3759 -0.0820
  652SOL    HW1 1955   2.248   2.447   2.476  0.3733  0.4030  1.6423
  652SOL    HW2 1956   2.391   2.452   2.373 -3.0192  1.2800 -1.3309
  653SOL     OW 1957   2.691   1.272   0.243 -0.4755 -0.7027 -0.4506
  653SOL    HW1 1958   2.736   1.359   0.278 -1.2104  2.2578 -2.2315
  653SOL    HW2 1959   2.753   1.190   0.265  3.0878  0.2444  3.2710
  654SOL     OW 1960   1.272   2.228   1.284  0.0295  0.2404  0.5009
  654SOL    HW1 1961   1.294   2.138   1.333  0.6853  0.8382 -0.4919
  654SOL    HW2 1962   1.286   2.226   1.180  2.9326 -2.6596 -0.5119
  655SOL     OW 1963   0.196   0.926   1.867  0.2393 -0.2568  0.0407
  655SOL    HW1 1964   0.252   0.864   1.806  0.3636  1.4760  0.5948
  655SOL    HW2 1965   0.210   1.027   1.850  0.1835  0.8052 -0.6199
  656SOL     OW 1966   2.554   2.482   2.617 -0.0623 -0.7820 -0.1906
  656SOL    HW1 1967   2.645   2.480   2.564  1.1333  0.7766  0.8010
  656SOL    HW2 1968   2.476   2.460   2.558  2.4901  1.4635  0.5936
  657SOL     OW 1969   3.002   1.011   1.870 -0.0680 -0.3519  0.2977
  657SOL    HW1 1970   3.008   1.097   1.927 -4.3939 -1.6243  0.5299
  657SOL    HW2 1971   3.094   0.960   1.861  1.5396 -3.1239 -0.7247
  658SOL     OW 1972   1.719   0.211   2.367  0.2456  0.0746  0.1698
  658SOL    HW1 1973   1.769   0.153   2.437 -2.5577 -0.4375 -0.0394
  658SOL    HW2 1974   1.707   0.160   2.275  0.4627 -1.7159 -2.8173
  659SOL     OW 1975   1.391   0.610   2.820  0.5342 -0.1833  0.7652
  659SOL    HW1 1976   1.455   0.691   2.829  0.2161 -2.0587 -2.4418
  659SOL    HW2 1977   1.292   0.630   2.823  0.4611  1.0064  3.3024
  660SOL     OW 1978   1.389   0.346   1.428 -0.1124 -0.2125 -0.2235
  660SOL    HW1 1979   1.426   0.368   1.520 -1.9362  2.9208 -2.0452
  660SOL    HW2 1980   1.430   0.261   1.395 -1.2853  3.0217  1.5842
  661SOL     OW 1981   2.383   1.234   0.680 -0.7404 -0.1191 -0.0866
  661SOL    HW1 1982   2.426   1.211   0.583 -0.6952 -0.0794 -5.5234
  661SOL    HW2 1983   2.350   1.334   0.689 -3.1923 -1.6072 -0.5346
  662SOL     OW 1984   1.387   0.408   1.746 -0.1629  0.0361  0.0491
  662SOL    HW1 1985   1.350   0.341   1.810  0.5572 -0.3513 -1.3306
  662SOL    HW2 1986   1.403   0.500   1.791 -2.2211 -0.1599  1.4987
  663SOL     OW 1987   0.858   1.562   2.121  0.4138  0.5030  0.3878
  663SOL    HW1 1988   0.788   1.602   2.182 -1.5512  3.2813 -1.4649
  663SOL    HW2 1989   0.819   1.488   2.053 -2.7821  1.6826  3.6009
  664SOL     OW 1990   1.647   2.079   1.399  0.4186 -0.2320 -0.4248
  664SOL    HW1 1991   1.603   2.013   1.471 -2.2363 -1.6987  0.4670
  664SOL    HW2 1992   1.749   2.077   1.403 -1.6664 -3.9125 -0.8338
  665SOL     OW 1993   2.307   0.684   1.967  0.2652  0.5571  0.3878
  665SOL    HW1 1994   2.240   0.605   1.960 -1.7268 -0.5499  1.0707
  665SOL    HW2 1995   2.350   0.683   2.060  0.8844 -0.4982 -2.4174
  666SOL     OW 1996   0.512   2.257   0.357 -0.1282  0.7137 -0.3502
  666SOL    HW1 1997   0.563   2.340   0.394  0.6967  0.2046 -0.4535
  666SOL    HW2 1998   0.415   2.246   0.386  0.5287 -0.1460 -2.3840
  667SOL     OW 1999   1.958   0.221   1.049  0.6384 -0.2706 -0.0976
  667SOL    HW1 2000   1.968   0.319   1.075  1.1867 -0.4891 -1.0678
  667SOL    HW2 2001   1.901   0.170   1.119 -0.4817  1.9141  2.8270
  668SOL     OW 2002   2.015   0.503   1.133 -0.4089 -0.6532 -0.1953
  668SOL    HW1 2003   2.081   0.554   1.073  0.0840 -1.0692 -0.0870
  668SOL    HW2 2004   2.046   0.503   1.234  2.6830  2.0815  2.7840
  669SOL     OW 2005   3.070   2.182   1.011  0.1109 -0.2713  0.2045
  669SOL    HW1 2006   3.047   2.244   0.926  0.7897  0.4629 -2.8229
  669SOL    HW2 2007   3.045   2.227   1.100 -1.8886  0.1343  2.0074
  670SOL     OW 2008   2.880   2.321   2.119  0.5645  0.0023 -0.8316
  670SOL    HW1 2009   2.795   2.313   2.184 -1.0065 -0.2583  0.7630
  670SOL    HW2 2010   2.885   2.409   2.057  1.1238 -1.2701  0.5948
  671SOL     OW 2011   1.791   1.807   1.477  0.4502  0.2905 -0.1276
  671SOL    HW1 2012   1.811   1.821   1.376 -3.1017 -2.0578 -1.1132
  671SOL    HW2 2013   1.689   1.824   1.494 -0.8280  0.7805 -1.4789
  672SOL     OW 2014   0.463   0.650   2.428 -0.0676 -0.1827 -1.1516
  672SOL    HW1 2015   0.471   0.689   2.332  2.8311 -1.3640  1.0512
  672SOL    HW2 2016   0.370   0.658   2.476 -2.2980  1.1230 -0.6277
  673SOL     OW 2017   0.154   1.175   1.141  0.4896 -0.9963  0.1315
  673SOL    HW1 2018   0.153   1.242   1.224  0.2539 -0.9101  0.7278
  673SOL    HW2 2019   0.250   1.138   1.121  0.0910 -2.2344 -0.2838
  674SOL     OW 2020   1.627   2.998   0.313  0.6130 -0.3250  0.1701
  674SOL    HW1 2021   1.598   3.099   0.329 -0.1473 -2.2198 -1.2552
  674SOL    HW2 2022   1.723   2.989   0.288 -1.6995  0.3136 -0.4832
  675SOL     OW 2023   1.718   0.823   2.275  0.4608 -0.4705 -0.5870
  675SOL    HW1 2024   1.820   0.800   2.268  1.6193  0.2595 -3.7019
  675SOL    HW2 2025   1.663   0.743   2.242  0.5285  0.9304  0.6843
  676SOL     OW 2026   2.540   1.498   1.920 -0.4103 -0.3411  0.0830
  676SOL    HW1 2027   2.477   1.473   1.846 -0.9523  2.8827  1.3490
  676SOL    HW2 2028   2.571   1.414   1.981  0.7600 -0.6567  1.7751
  677SOL     OW 2029   1.920   0.706   0.917  0.1006  0.6175  0.0012
  677SOL    HW1 2030   1.849   0.734   0.987  1.5954  0.0466  1.5104
  677SOL    HW2 2031   1.955   0.612   0.922 -2.3082  0.3434  2.1181
  678SOL     OW 2032   0.065   0.747   1.585 -0.3202  0.0396  0.2238
  678SOL    HW1 2033   0.160   0.784   1.593 -0.0247 -0.9590 -1.9238
  678SOL    HW2 2034   0.038   0.692   1.673  0.1749  2.1279  2.0125
  679SOL     OW 2035   2.575   1.184   1.216 -0.6962 -0.4903 -0.0900
  679SOL    HW1 2036   2.478   1.222   1.211 -0.6155 -0.1492 -0.7690
  679SOL    HW2 2037   2.584   1.080   1.208 -0.9487  2.3550  2.2909
  680SOL     OW 2038   2.827   0.435   1.662  0.1539  0.2010  0.0796
  680SOL    HW1 2039   2.794   0.513   1.602 -0.7702 -1.5961 -1.2748
  680SOL    HW2 2040   2.915   0.455   1.707  3.8174 -2.6419 -1.2102
  681SOL     OW 2041   2.955   0.077   1.593 -0.0024  0.9046  0.0491
  681SOL    HW1 2042   3.039   0.072   1.536  0.9612  0.5355 -2.0972
  681SOL    HW2 2043   2.874   0.106   1.544 -0.4430 -2.0844  2.0117
  682SOL     OW 2044   0.730   0.051   1.348  0.2257  0.1924 -0.1927
  682SOL    HW1 2045   0.671  -0.023   1.390 -0.3444 -0.8384  0.7317
  682SOL    HW2 2046   0.759   0.022   1.255  0.5277 -0.2415  0.6302
  683SOL     OW 2047   1.400   0.202   2.177 -0.1938  0.1604  0.5364
  683SOL    HW1 2048   1.420   0.217   2.276  2.1560 -0.2693 -0.5940
  683SOL    HW2 2049   1.467   0.250   2.119  1.1328  0.9488  1.0859
  684SOL     OW 2050   1.462   2.074   0.507 -0.3391 -0.4142 -0.7699
  684SOL    HW1 2051   1.504   2.018   0.582 -1.1212 -1.4862 -2.6121
  684SOL    HW2 2052   1.367   2.035   0.489 -2.4402 -3.5619  1.2356
  685SOL     OW 2053   2.196   2.082   1.967  0.3895  0.6957  0.4380
  685SOL    HW1 2054   2.233   2.068   1.866 -0.5873  0.4532 -3.1966
  685SOL    HW2 2055   2.260   2.053   2.040  0.9937 -0.0148  1.2943
  686SOL     OW 2056   1.518   1.848   2.801  0.2790  0.0159 -0.4166
  686SOL    HW1 2057   1.562   1.804   2.889  0.6266 -1.7226 -0.9638
  686SOL    HW2 2058   1.434   1.799   2.774  0.5866 -2.5152  1.1801
  687SOL     OW 2059   1.337   2.450   1.984  0.3886 -0.0739  0.1028
  687SOL    HW1 2060   1.360   2.351   1.966 -0.3326 -1.7470 -0.2950
  687SOL    HW2 2061   1.412   2.505   2.029 -1.3932 -0.9408  1.1519
  688SOL     OW 2062   1.997   1.549   1.766  0.0142  0.0398 -0.6137
  688SOL    HW1 2063   2.092   1.581   1.789  1.2496  0.9610  0.6748
  688SOL    HW2 2064   1.990   1.518   1.670  2.6954 -0.2047  0.2201
  689SOL     OW 2065   2.379   1.085   2.766 -0.0631 -0.0801 -0.0904
  689SOL    HW1 2066   2.313   1.010   2.797 -1.1549  0.8218 -3.4696
  689SOL    HW2 2067   2.471   1.087   2.812 -2.2226  4.5144  1.5704
  690SOL     OW 2068   2.215   2.808   0.021 -0.1716 -0.2746  0.5641
  690SOL    HW1 2069   2.168   2.791  -0.068  0.2846 -0.2024  0.4316
  690SOL    HW2 2070   2.159   2.782   0.095  2.3053  4.0024 -0.8161
  691SOL     OW 2071   2.593   0.416   2.148  0.3455  0.0657 -0.4346
  691SOL    HW1 2072   2.644   0.327   2.148 -0.8254  2.0089 -1.5998
  691SOL    HW2 2073   2.614   0.472   2.068 -1.6026 -0.3909  0.3135
  692SOL     OW 2074   2.661   1.218   0.755  0.6631  0.1782 -0.4009
  692SOL    HW1 2075   2.554   1.211   0.760 -1.3289 -3.6881  0.9404
  692SOL    HW2 2076   2.708   1.283   0.820 -1.1673  0.9310 -0.2669
  693SOL     OW 2077   2.841   2.948   0.587 -0.6177 -0.2880  0.9855
  693SOL    HW1 2078   2.823   3.016   0.665 -0.5996  1.7920 -2.4181
  693SOL    HW2 2079   2.819   2.996   0.498 -0.3255  1.4043  0.5930
  694SOL     OW 2080   2.404   2.242   0.085 -0.6415  0.4396  0.0938
  694SOL    HW1 2081   2.433   2.258   0.182 -1.4464  0.6258 -0.2144
  694SOL    HW2 2082   2.305   2.209   0.076  1.8916  1.3551  0.3526
  695SOL     OW 2083   0.524   2.975   1.455  0.2263 -0.0633  0.9557
  695SOL    HW1 2084   0.448   2.906   1.440  1.3899 -0.7319  0.0240
  695SOL    HW2 2085   0.499   3.046   1.527 -0.8698  1.7497 -0.8712
  696SOL     OW 2086   2.852   2.064   0.767 -0.4726  0.0268 -0.2167
  696SOL    HW1 2087   2.916   1.984   0.775 -2.1431  0.3510  0.1046
  696SOL    HW2 2088   2.816   2.065   0.668 -0.7185 -1.7340  0.2038
  697SOL     OW 2089   1.655   1.932   1.853 -0.5177  0.8353 -0.4271
  697SOL    HW1 2090   1.732   1.866   1.829  0.3844  1.7443  1.9512
  697SOL    HW2 2091   1.674   2.031   1.840 -1.0762 -0.9457 -1.9032
  698SOL     OW 2092   2.894   0.406   2.738  0.0973 -0.6557  0.2029
  698SOL    HW1 2093   2.900   0.399   2.631  0.9564  1.2821 -0.3395
  698SOL    HW2 2094   2.969   0.349   2.788  0.6183  1.2592 -1.7445
  699SOL     OW 2095   1.550   0.042   2.933 -0.5647  0.1866 -0.1547
  699SOL    HW1 2096   1.501  -0.043   2.900 -1.7962  0.0870  1.0339
  699SOL    HW2 2097   1.615   0.084   2.860 -0.8787  1.8579  1.5325
  700SOL     OW 2098   1.042   2.326   1.395 -0.6282  0.5047 -0.3017
  700SOL    HW1 2099   1.131   2.286   1.358  1.8930  0.8954  0.3770
  700SOL    HW2 2100   0.959   2.278   1.346 -0.5664 -2.1633  1.5180
  701SOL     OW 2101   1.936   2.898  -0.003  0.0206  0.4126 -0.8173
  701SOL    HW1 2102   1.866   2.862   0.067  1.0154  0.9170 -1.7214
  701SOL    HW2 2103   1.959   3.000   0.004 -0.4085 -1.4484  1.1253
  702SOL     OW 2104   2.068   1.317   1.953  0.5777  0.3587  0.2025
  702SOL    HW1 2105   2.169   1.303   1.929 -0.5178  0.7732 -2.0533
  702SOL    HW2 2106   2.015   1.392   1.903  0.0522 -1.2356  2.1346
  703SOL     OW 2107   1.931   0.918   1.460 -0.3836  0.2878 -0.3004
  703SOL    HW1 2108   1.911   0.831   1.514 -0.4343  2.2181 -0.1253
  703SOL    HW2 2109   1.994   0.984   1.514  0.4781 -1.6188 -0.7437
  704SOL     OW 2110   0.283   2.022   1.747 -0.2348  0.2867 -0.3369
  704SOL    HW1 2111   0.349   1.952   1.797 -0.1326 -0.0041  1.7210
  704SOL    HW2 2112   0.337   2.097   1.700 -0.9641  3.0905  2.5534
  705SOL     OW 2113   2.547   1.557   0.885  0.7451 -0.0097 -0.1199
  705SOL    HW1 2114   2.499   1.470   0.861  0.9056  0.0360 -1.0132
  705SOL    HW2 2115   2.649   1.544   0.871 -1.0854 -1.3602  0.2579
  706SOL     OW 2116   0.704   1.709   1.888 -0.5589  0.0456  0.3954
  706SOL    HW1 2117   0.737   1.608   1.897  0.9932 -1.1502 -0.3074
  706SOL    HW2 2118   0.757   1.772   1.951 -0.2419 -1.4655 -1.9864
  707SOL     OW 2119   2.312   1.168   1.888  0.0926  0.0665 -0.9906
  707SOL    HW1 2120   2.372   1.156   1.972 -0.7092  1.1800  1.2314
  707SOL    HW2 2121   2.276   1.078   1.845  0.7267 -0.2008 -0.4987
  708SOL     OW 2122   2.960   0.530   3.041  0.2524 -0.2535  0.1664
  708SOL    HW1 2123   2.959   0.596   2.959  1.3729 -0.7083 -0.4234
  708SOL    HW2 2124   2.955   0.430   3.002  1.4869  0.9569 -0.3729
  709SOL     OW 2125   1.837   1.872   0.307 -0.5909  0.0448 -0.0651
  709SOL    HW1 2126   1.884   1.965   0.320  1.3948  2.1081 -0.5635
  709SOL    HW2 2127   1.812   1.857   0.205  1.5454 -2.5829 -2.2740
  710SOL     OW 2128   1.707   1.619   2.384 -0.5286 -0.3235 -0.2150
  710SOL    HW1 2129   1.800   1.604   2.341  0.7366  3.3730 -0.5693
  710SOL    HW2 2130   1.687   1.586   2.481 -0.3437  2.7600 -0.6918
  711SOL     OW 2131   2.564   2.923   1.081 -0.0943  0.3340  0.9844
  711SOL    HW1 2132   2.519   3.017   1.077  1.7541  0.3859  0.4554
  711SOL    HW2 2133   2.669   2.933   1.065  0.0932  1.1936  1.1063
  712SOL     OW 2134   1.408   2.154   1.972 -0.3662  0.5013 -0.0644
  712SOL    HW1 2135   1.502   2.189   1.989 -1.2737  0.3700 -1.1478
  712SOL    HW2 2136   1.399   2.124   1.877  0.1466 -0.3689  1.2246
  713SOL     OW 2137   2.787   1.464   2.493 -0.1329  0.6130 -0.1857
  713SOL    HW1 2138   2.792   1.368   2.447 -0.1839  1.7341 -0.1838
  713SOL    HW2 2139   2.701   1.487   2.548  0.4893  1.3794 -0.4974
  714SOL     OW 2140   2.647   0.441   2.407 -0.0351  0.2801  0.5470
  714SOL    HW1 2141   2.572   0.406   2.466  1.3191  0.0284  0.2722
  714SOL    HW2 2142   2.632   0.439   2.308  2.0182 -1.2354  0.2783
  715SOL     OW 2143   1.532   2.069   1.156 -0.0864 -0.4922 -0.5810
  715SOL    HW1 2144   1.455   2.135   1.133  0.8526 -2.3463  0.7981
  715SOL    HW2 2145   1.575   2.084   1.250 -0.0083 -2.2239  2.2208
  716SOL     OW 2146   1.174   0.120   1.504  0.0054 -0.4836  0.2700
  716SOL    HW1 2147   1.082   0.135   1.457 -2.9380  1.4397 -0.7404
  716SOL    HW2 2148   1.224   0.216   1.518  1.4714  3.9465  0.6763
  717SOL     OW 2149   1.163   0.550   1.595  0.6025  0.1098 -0.0905
  717SOL    HW1 2150   1.249   0.606   1.610 -0.0724 -0.2970 -6.5546
  717SOL    HW2 2151   1.156   0.516   1.495  0.0591  0.2571 -0.7381
  718SOL     OW 2152   0.666   0.882   0.979  0.3539 -0.7007  0.7417
  718SOL    HW1 2153   0.647   0.862   0.876 -1.4081  0.1350 -1.5278
  718SOL    HW2 2154   0.673   0.984   1.000 -1.5599 -1.3236 -1.1172
  719SOL     OW 2155   0.670   1.715   2.307  0.6972 -0.7881 -0.1558
  719SOL    HW1 2156   0.718   1.783   2.365  0.5987 -0.7722  1.2925
  719SOL    HW2 2157   0.677   1.626   2.355 -1.1077  2.0731 -2.7745
  720SOL     OW 2158   2.198   1.130   0.272 -0.4124 -0.1670 -0.3694
  720SOL    HW1 2159   2.263   1.059   0.226  0.3572 -1.2095 -0.5764
  720SOL    HW2 2160   2.177   1.107   0.370 -2.4761 -2.8673  1.1374
  721SOL     OW 2161   2.248   3.029   2.069  0.3706 -0.2457  0.0212
  721SOL    HW1 2162   2.200   3.065   1.989  1.0517  0.8947  0.1031
  721SOL    HW2 2163   2.189   3.041   2.151  1.2661 -0.9858 -1.3666
  722SOL     OW 2164   2.301   1.599   0.455 -0.3021 -0.3726  0.1418
  722SOL    HW1 2165   2.342   1.561   0.369  0.5173  2.7284  2.1157
  722SOL    HW2 2166   2.210   1.646   0.433  1.6648 -2.0092 -0.9760
  723SOL     OW 2167   2.646   2.676   1.885 -0.3088 -0.0778 -0.2095
  723SOL    HW1 2168   2.662   2.763   1.937  1.2560 -2.5374  0.5207
  723SOL    HW2 2169   2.553   2.640   1.893  0.8604  0.2008  2.1664
  724SOL     OW 2170   0.503   2.509   2.399 -0.1446  0.4406  0.1022
  724SOL    HW1 2171   0.411   2.488   2.446  1.6185  1.4699  1.9439
  724SOL    HW2 2172   0.576   2.505   2.470 -0.2123 -3.3556 -0.3982
  725SOL     OW 2173   2.369   2.710   1.496  0.2350  0.4109 -0.5320
  725SOL    HW1 2174   2.426   2.788   1.472 -1.0512 -0.2869  0.4757
  725SOL    HW2 2175   2.417   2.623   1.495 -1.2465  2.3705  3.5073
  726SOL     OW 2176   2.492   2.323   0.728  0.2047 -0.7094  0.0131
  726SOL    HW1 2177   2.465   2.425   0.696 -0.2948 -0.2836 -0.8407
  726SOL    HW2 2178   2.478   2.255   0.656  3.5123 -0.1232  1.3412
  727SOL     OW 2179   0.171   3.069   0.116  0.5355 -0.7049 -0.5661
  727SOL    HW1 2180   0.248   3.061   0.046 -0.3773 -0.5668 -0.6597
  727SOL    HW2 2181   0.082   3.085   0.071  0.4272 -1.2777 -0.9931
  728SOL     OW 2182   2.882   0.688   0.896 -0.0769 -0.0371  0.1688
  728SOL    HW1 2183   2.826   0.670   0.809 -4.9572  2.2992  2.8882
  728SOL    HW2 2184   2.827   0.674   0.982  0.4789  1.3520  0.2777
  729SOL     OW 2185   0.027   2.548   0.716 -0.0050 -0.3681 -0.0433
  729SOL    HW1 2186   0.008   2.468   0.779 -1.2435  3.3200 -2.1117
  729SOL    HW2 2187   0.113   2.544   0.655  0.5406 -0.5859 -0.2339
  730SOL     OW 2188   2.560   0.687   0.825  0.7601  0.7704  0.0387
  730SOL    HW1 2189   2.557   0.791   0.833  0.6725  0.7092  0.4059
  730SOL    HW2 2190   2.617   0.649   0.742 -0.0817 -0.4058  0.2994
  731SOL     OW 2191   0.026   2.183   2.434  0.0747 -0.3361  0.0786
  731SOL    HW1 2192   0.026   2.228   2.530 -1.1892  2.7895 -1.3957
  731SOL    HW2 2193  -0.059   2.198   2.377  1.0356  0.3533 -0.2191
  732SOL     OW 2194   1.188   2.829   1.986  0.0850  0.2663 -0.0604
  732SOL    HW1 2195   1.215   2.772   2.069 -1.0491  0.9384 -1.7726
  732SOL    HW2 2196   1.182   2.775   1.898 -1.6902  3.8020 -0.2751
  733SOL     OW 2197   3.041   0.634   2.225 -1.0503 -0.3430  0.0419
  733SOL    HW1 2198   3.142   0.651   2.200  1.3215  2.4847  1.3528
  733SOL    HW2 2199   2.999   0.555   2.180  1.9069  1.1770  1.0637
  734SOL     OW 2200   1.420   0.366   2.678 -0.1853  0.2225 -0.1827
  734SOL    HW1 2201   1.436   0.469   2.694  1.8573  1.2204  2.6397
  734SOL    HW2 2202   1.350   0.322   2.745 -1.0640  0.1858  1.1209
  735SOL     OW 2203   2.889   2.611   2.288 -0.1377 -0.1230  0.3269
  735SOL    HW1 2204   2.865   2.554   2.200 -1.3073  1.4506  1.3128
  735SOL    HW2 2205   2.976   2.670   2.268 -0.8513 -0.9437  0.4741
  736SOL     OW 2206   0.935   0.446   2.544  0.1205 -0.7836  0.5088
  736SOL    HW1 2207   0.860   0.509   2.508 -2.6442  1.3803  1.8827
  736SOL    HW2 2208   0.917   0.351   2.501 -1.0373 -0.9838 -3.5547
  737SOL     OW 2209   2.622   0.482   2.829  0.1535 -0.6191  0.1253
  737SOL    HW1 2210   2.587   0.427   2.909 -1.1579 -2.6767  1.1793
  737SOL    HW2 2211   2.726   0.469   2.823 -0.6571 -0.9114 -0.5429
  738SOL     OW 2212   1.723   1.260   2.904 -0.2625  0.1378  0.0788
  738SOL    HW1 2213   1.816   1.224   2.886 -1.3075 -2.3287  0.3024
  738SOL    HW2 2214   1.659   1.225   2.832 -0.1285 -0.4952 -0.4329
  739SOL     OW 2215   1.759   0.702   0.680  0.1321  0.2116 -0.1633
  739SOL    HW1 2216   1.796   0.700   0.780  0.2942 -0.3420  1.6517
  739SOL    HW2 2217   1.770   0.606   0.633 -0.7497  1.4463 -0.6804
  740SOL     OW 2218   1.939   1.911   2.379  0.4803 -0.5681 -0.0201
  740SOL    HW1 2219   1.984   1.830   2.432  1.7576 -0.0518 -0.6037
  740SOL    HW2 2220   1.893   1.891   2.286 -0.9464 -0.7067 -4.7039
  741SOL     OW 2221   2.578   0.120   2.528 -0.0255  0.5245  0.1458
  741SOL    HW1 2222   2.679   0.100   2.528  0.6116 -2.4621 -0.1621
  741SOL    HW2 2223   2.528   0.085   2.440 -0.0514 -1.2551  0.1054
  742SOL     OW 2224   2.207   1.374   0.160  0.2261 -0.0262  0.3862
  742SOL    HW1 2225   2.106   1.408   0.150  2.0344  1.8013  0.8084
  742SOL    HW2 2226   2.208   1.275   0.201  1.8208  0.6589 -3.7762
  743SOL     OW 2227   1.749   0.621   2.633 -0.2275 -0.1624  0.4627
  743SOL    HW1 2228   1.761   0.550   2.559  3.0178 -1.2092 -5.4574
  743SOL    HW2 2229   1.688   0.702   2.607  2.5995 -0.6831 -1.6447
  744SOL     OW 2230   2.708   2.008   0.061 -0.0661 -0.2970  0.0613
  744SOL    HW1 2231   2.638   2.076   0.107 -2.2817  3.3505  0.3927
  744SOL    HW2 2232   2.671   1.912   0.058  1.7070 -1.9500  1.7681
  745SOL     OW 2233   2.169   2.648   2.140  0.6422  0.1636 -0.4288
  745SOL    HW1 2234   2.074   2.690   2.150  0.5197  1.3347 -0.0666
  745SOL    HW2 2235   2.247   2.682   2.202 -0.1312 -0.2481  1.7172
  746SOL     OW 2236   0.014   2.646   1.726 -0.1845  0.0685 -0.4299
  746SOL    HW1 2237   0.080   2.567   1.727 -0.4339 -1.7972  3.8846
  746SOL    HW2 2238   0.006   2.689   1.822 -1.2223  0.6794  2.2632
  747SOL     OW 2239   3.085   1.744   1.665 -0.2093  0.3120  0.3782
  747SOL    HW1 2240   3.007   1.686   1.635 -0.9241  0.3004 -1.8700
  747SOL    HW2 2241   3.152   1.751   1.588 -2.1927 -1.4878  2.7440
  748SOL     OW 2242   1.810   2.711   2.908  0.0282  0.0413 -0.0391
  748SOL    HW1 2243   1.844   2.801   2.952  0.0491  0.5390  1.5558
  748SOL    HW2 2244   1.714   2.719   2.878 -0.4443 -0.2827  2.4472
  749SOL     OW 2245   1.327   3.031   0.853  0.2099 -0.6586  0.1065
  749SOL    HW1 2246   1.251   2.965   0.830 -2.0342 -4.4788 -0.2945
  749SOL    HW2 2247   1.417   3.010   0.806 -2.4631 -0.1480  1.5390
  750SOL     OW 2248   2.303   0.197   1.864  0.0977  0.1020  0.0109
  750SOL    HW1 2249   2.308   0.254   1.775 -0.1081  1.7503 -0.1797
  750SOL    HW2 2250   2.292   0.259   1.949  1.4234 -0.6420 -1.2735
  751SOL     OW 2251   0.774   2.043   2.834  0.2800 -0.5406 -0.0223
  751SOL    HW1 2252   0.864   2.045   2.883  0.4566  0.1823  1.2793
  751SOL    HW2 2253   0.697   2.062   2.895  1.0890 -0.4198  0.7221
  752SOL     OW 2254   1.319   0.848   1.273 -0.2171  0.0929 -0.1748
  752SOL    HW1 2255   1.412   0.892   1.250 -1.6093  0.2532 -0.1081
  752SOL    HW2 2256   1.329   0.758   1.319 -0.5196  0.4018 -0.5827
  753SOL     OW 2257   0.938   2.635   1.819 -0.2513  0.7433 -0.3706
  753SOL    HW1 2258   1.037   2.656   1.796 -0.9024 -2.0356 -0.2093
  753SOL    HW2 2259   0.878   2.718   1.839 -0.0667  2.3556  1.1738
  754SOL     OW 2260   1.137   1.195   3.034 -0.0648 -0.6135 -0.1846
  754SOL    HW1 2261   1.192   1.136   2.964  4.1937 -2.0719 -1.7532
  754SOL    HW2 2262   1.187   1.283   3.062 -0.6145  0.3953  0.3250
  755SOL     OW 2263   1.996   0.496   2.249  0.4960  0.3822 -0.0418
  755SOL    HW1 2264   2.053   0.406   2.259 -0.2715 -0.8491  1.2228
  755SOL    HW2 2265   1.934   0.509   2.330  0.0869  0.1640  2.3035
  756SOL     OW 2266   2.587   1.001   2.966 -0.0180  0.0317 -0.2435
  756SOL    HW1 2267   2.689   0.984   2.974 -0.6973  0.1195  1.9976
  756SOL    HW2 2268   2.532   0.919   2.982  3.6269 -0.1701 -0.2592
  757SOL     OW 2269   0.103   0.484   2.019 -0.5218 -0.3454  0.0668
  757SOL    HW1 2270   0.177   0.434   1.969  0.8574  0.3570 -0.8334
  757SOL    HW2 2271   0.007   0.430   2.017 -3.0792 -1.1623  1.9169
  758SOL     OW 2272   2.220   0.093   1.491  0.6411  0.5106 -0.9512
  758SOL    HW1 2273   2.208  -0.010   1.510  1.6482 -0.1119  3.0257
  758SOL    HW2 2274   2.262   0.112   1.397  0.6949 -0.4868 -1.0126
  759SOL     OW 2275   1.678   0.133   0.076  0.2044 -0.0374 -0.0446
  759SOL    HW1 2276   1.632   0.100  -0.013 -1.8299  1.3280 -0.8467
  759SOL    HW2 2277   1.777   0.118   0.082 -0.1528  0.8162 -0.8715
  760SOL     OW 2278   2.571   2.051   2.836  0.9480 -0.3809  0.3356
  760SOL    HW1 2279   2.622   1.971   2.871 -2.4143 -0.7046  0.6597
  760SOL    HW2 2280   2.586   2.141   2.888  2.8310 -0.2576  0.5186
  761SOL     OW 2281   1.871   1.784   1.732 -0.6809 -0.1552 -0.3595
  761SOL    HW1 2282   1.894   1.685   1.753 -2.7395  2.0191 -1.1918
  761SOL    HW2 2283   1.832   1.794   1.638 -1.4618 -1.8652  1.5256
  762SOL     OW 2284   0.487   2.368   0.958  0.2705 -0.1357  0.2072
  762SOL    HW1 2285   0.530   2.353   0.864 -1.1795  1.2906  0.7142
  762SOL    HW2 2286   0.558   2.416   1.022  3.1940  1.6833  0.4342
  763SOL     OW 2287   2.100   1.570   3.009 -0.2448  0.4215  0.1545
  763SOL    HW1 2288   2.182   1.507   2.983 -1.9027  0.0442 -2.4889
  763SOL    HW2 2289   2.045   1.544   3.090 -1.5859  0.6192 -2.6283
  764SOL     OW 2290   0.681   0.578   0.740  0.3655  0.5052  0.4314
  764SOL    HW1 2291   0.603   0.510   0.746 -0.2208  0.2031 -2.7055
  764SOL    HW2 2292   0.768   0.540   0.775 -2.1591  1.7266 -2.2822
  765SOL     OW 2293   0.779   0.252   0.789 -0.1132 -0.0664  0.2806
  765SOL    HW1 2294   0.818   0.305   0.708  0.8895  2.0289 -3.6365
  765SOL    HW2 2295   0.746   0.309   0.871 -1.1280  0.0173 -3.8100
  766SOL     OW 2296   2.858   2.162   2.985 -0.1260 -0.1347  0.1752
  766SOL    HW1 2297   2.791   2.095   3.034  0.5510 -0.5416 -0.1427
  766SOL    HW2 2298   2.919   2.217   3.046 -2.4066  2.9223 -3.3789
  767SOL     OW 2299   2.784   1.674   0.572 -0.3017 -0.0077  0.1903
  767SOL    HW1 2300   2.682   1.691   0.577  3.2971  0.5344 -1.9341
  767SOL    HW2 2301   2.840   1.728   0.637 -1.7837  0.9052  0.4571
  768SOL     OW 2302   1.031   0.099   0.235 -0.0705 -0.8300 -0.0494
  768SOL    HW1 2303   0.993   0.116   0.332 -0.4167 -2.8017  2.0632
  768SOL    HW2 2304   1.131   0.108   0.221 -0.6818 -3.2579 -1.2117
  769SOL     OW 2305   1.100   1.886   2.340  0.0119 -0.4433 -0.1333
  769SOL    HW1 2306   1.000   1.876   2.320  1.5484 -0.0248  0.6491
  769SOL    HW2 2307   1.125   1.876   2.442 -0.5463 -0.2164  1.5314
  770SOL     OW 2308   0.174   1.149   2.299 -0.0542  0.6786 -0.1585
  770SOL    HW1 2309   0.194   1.189   2.393  0.4605  0.7042 -1.4023
  770SOL    HW2 2310   0.070   1.148   2.277 -2.8317 -1.6706  2.8120
  771SOL     OW 2311   3.070   2.845   1.938 -0.0983 -0.1133 -0.2188
  771SOL    HW1 2312   3.041   2.877   1.841 -1.7489 -1.2166  3.3575
  771SOL    HW2 2313   3.011   2.885   2.014  1.0982  0.8193 -0.3667
  772SOL     OW 2314   2.240   0.180   2.859 -0.3808 -0.4207  0.1873
  772SOL    HW1 2315   2.327   0.138   2.813 -1.2597 -0.8505  0.2879
  772SOL    HW2 2316   2.254   0.221   2.951 -2.6379  0.2579  0.1040
  773SOL     OW 2317   0.649   2.118   2.384  0.3342 -0.6177  0.2052
  773SOL    HW1 2318   0.609   2.151   2.291  1.5672 -0.5088 -0.0718
  773SOL    HW2 2319   0.593   2.134   2.475  0.5415  1.7060  2.9057
  774SOL     OW 2320   2.096   3.063   2.588 -0.7953  0.2679  0.2373
  774SOL    HW1 2321   2.089   3.157   2.634 -0.0655  0.4462  1.2541
  774SOL    HW2 2322   2.129   2.993   2.656  2.1309 -1.1754  1.9715
  775SOL     OW 2323   2.563   2.982   2.253  0.1167 -0.3634  1.0218
  775SOL    HW1 2324   2.517   3.079   2.247 -0.0234  2.1299 -0.2231
  775SOL    HW2 2325   2.624   2.963   2.335 -0.8790 -0.3492  1.0777
  776SOL     OW 2326   0.022   1.232   0.194  0.2794 -0.0650  0.0607
  776SOL    HW1 2327  -0.039   1.205   0.116  1.9423  0.9668  1.1495
  776SOL    HW2 2328  -0.035   1.254   0.278 -3.1968 -2.4208  0.1906
  777SOL     OW 2329   0.400   2.896   0.368 -0.7604 -0.4557 -0.5303
  777SOL    HW1 2330   0.299   2.901   0.350 -0.1379  0.6893 -0.1018
  777SOL    HW2 2331   0.464   2.888   0.289 -0.4607  0.8291  1.1874
  778SOL     OW 2332   1.338   1.981   0.162  0.1798 -0.3929 -0.0740
  778SOL    HW1 2333   1.284   2.014   0.246 -0.1506 -0.1627  0.6759
  778SOL    HW2 2334   1.397   2.058   0.123  0.9710  1.3243 -1.9103
  779SOL     OW 2335   0.181   0.907   0.482 -0.0580  0.0468  0.5764
  779SOL    HW1 2336   0.145   0.806   0.464  1.7427 -1.7101 -0.1952
  779SOL    HW2 2337   0.149   0.956   0.565  0.9398  0.4157  0.2436
  780SOL     OW 2338   0.114   0.314   2.421 -1.0764 -0.0821  0.0637
  780SOL    HW1 2339   0.106   0.400   2.474 -0.8401 -1.1818  1.2819
  780SOL    HW2 2340   0.210   0.299   2.379  0.5474  1.3529 -0.5903
  781SOL     OW 2341   0.662   1.651   1.527 -0.2669 -0.4452  0.3605
  781SOL    HW1 2342   0.713   1.589   1.592 -2.4758  0.5601  1.0283
  781SOL    HW2 2343   0.561   1.627   1.520 -1.5190  1.4775  1.4625
  782SOL     OW 2344   2.610   0.144   0.914 -0.0186 -0.1802 -0.2740
  782SOL    HW1 2345   2.574   0.180   0.824  2.3697 -1.9449 -1.0699
  782SOL    HW2 2346   2.609   0.199   0.999  0.6868 -0.8127  1.3280
  783SOL     OW 2347   2.783   0.676   2.444  0.4479  0.1338  0.3355
  783SOL    HW1 2348   2.785   0.703   2.547  0.0585 -0.0458  2.3771
  783SOL    HW2 2349   2.735   0.578   2.425 -1.3695 -2.5405 -0.7611
  784SOL     OW 2350   1.476   2.168   0.036  0.5521  0.1903 -0.6559
  784SOL    HW1 2351   1.513   2.265   0.064 -0.8314 -0.1760  0.0672
  784SOL    HW2 2352   1.415   2.170  -0.044  1.3823  0.1489 -0.6887
  785SOL     OW 2353   2.070   0.318   0.048  0.1536  0.3032  0.6043
  785SOL    HW1 2354   1.977   0.313   0.097  0.0552 -1.8325 -0.9919
  785SOL    HW2 2355   2.106   0.418   0.026  1.6793  3.0787  1.0757
  786SOL     OW 2356   2.070   2.188   2.257  0.5561 -0.1102  0.5340
  786SOL    HW1 2357   1.999   2.119   2.285 -2.2085  0.1944  2.9285
  786SOL    HW2 2358   2.165   2.140   2.235  0.5041  1.1073 -0.5330
  787SOL     OW 2359   1.340   0.500   0.918  0.4000 -0.4915 -0.2309
  787SOL    HW1 2360   1.299   0.591   0.945 -1.7790 -2.3325 -1.3451
  787SOL    HW2 2361   1.399   0.514   0.827 -1.4527 -1.4718 -0.3342
  788SOL     OW 2362   1.268   0.385   0.082  0.5587  0.0352 -0.1569
  788SOL    HW1 2363   1.183   0.330   0.051  1.9923 -1.6565  1.5925
  788SOL    HW2 2364   1.251   0.481   0.126  3.0926 -0.7159  1.0385
  789SOL     OW 2365   2.562   0.079   1.937  0.0009 -0.0697  0.3542
  789SOL    HW1 2366   2.461   0.078   1.905  1.9632 -1.4047  1.8979
  789SOL    HW2 2367   2.596  -0.022   1.930  1.3189 -3.8229  0.8537
  790SOL     OW 2368   2.613   2.803   0.785 -0.2201  0.2988  0.4827
  790SOL    HW1 2369   2.626   2.857   0.699 -0.7398  1.1346 -1.7874
  790SOL    HW2 2370   2.599   2.855   0.869  1.2428 -0.6695 -0.6885
  791SOL     OW 2371   1.901   1.206   0.231 -0.4377 -0.5664 -0.7942
  791SOL    HW1 2372   1.811   1.166   0.262  1.4114  3.2809 -2.2868
  791SOL    HW2 2373   1.982   1.147   0.230  0.4885 -0.1338 -0.5513
  792SOL     OW 2374   0.430   1.771   2.141  0.5728  0.5078 -0.0699
  792SOL    HW1 2375   0.509   1.716   2.182  0.3440 -2.9665 -1.6316
  792SOL    HW2 2376   0.354   1.793   2.208 -0.6381 -1.0320  0.5979
  793SOL     OW 2377   2.113   1.563   2.137 -0.5811 -0.3292  0.2585
  793SOL    HW1 2378   2.197   1.614   2.104  0.2414 -0.4540  2.8091
  793SOL    HW2 2379   2.102   1.470   2.091 -0.2494 -1.5714  0.1623
  794SOL     OW 2380   0.546   1.397   2.342 -0.4284 -0.6231 -0.0404
  794SOL    HW1 2381   0.537   1.404   2.236  1.3261 -0.2883 -1.4143
  794SOL    HW2 2382   0.499   1.478   2.395 -0.5488 -0.0487  1.2541
  795SOL     OW 2383   2.515   2.270   1.833  0.1458  0.0401  0.2538
  795SOL    HW1 2384   2.547   2.226   1.923  0.0094 -0.0238  1.1061
  795SOL    HW2 2385   2.436   2.219   1.786 -2.5399 -0.8786  1.3177
  796SOL     OW 2386   3.091   1.119   2.679 -0.2600  0.2563 -0.1277
  796SOL    HW1 2387   2.986   1.121   2.674 -0.1069 -1.9638  0.0546
  796SOL    HW2 2388   3.138   1.137   2.770 -1.2203 -1.8937 -0.8877
  797SOL     OW 2389   0.747   0.677   1.407 -0.0403 -0.1205  0.1288
  797SOL    HW1 2390   0.830   0.721   1.454 -1.1102  0.7224  1.5670
  797SOL    HW2 2391   0.674   0.749   1.385  0.8897  1.1642 -0.4280
  798SOL     OW 2392   1.282   0.335   1.128 -0.5455 -0.4464  0.4103
  798SOL    HW1 2393   1.351   0.337   1.210 -2.1538  2.0465 -1.1275
  798SOL    HW2 2394   1.305   0.407   1.053  0.0005  0.1301 -0.3052
  799SOL     OW 2395   1.969   2.714   1.055  0.0640 -0.0122  0.4436
  799SOL    HW1 2396   1.910   2.688   1.137 -2.0938  1.1314  0.3571
  799SOL    HW2 2397   1.918   2.713   0.965 -2.8215  1.4211 -1.8399
  800SOL     OW 2398   3.048   0.624   1.826  0.0876  0.5946 -0.1227
  800SOL    HW1 2399   2.965   0.656   1.884 -0.8608  1.4630  0.6354
  800SOL    HW2 2400   3.128   0.594   1.889  2.5720 -1.5854 -1.7589
  801SOL     OW 2401   1.974   2.250   0.071 -0.1938 -0.3261 -0.1535
  801SOL    HW1 2402   1.896   2.243   0.003  0.1322 -0.0051 -0.8500
  801SOL    HW2 2403   2.046   2.177   0.055 -3.2512 -1.2538 -1.0639
  802SOL     OW 2404   0.726   0.830   2.560 -0.3045  0.0230 -0.1748
  802SOL    HW1 2405   0.782   0.801   2.471  2.2877 -1.9522 -0.9125
  802SOL    HW2 2406   0.630   0.856   2.545  2.4257  0.4159 -0.1597
  803SOL     OW 2407   0.960   0.076   0.879  0.3032 -0.3281 -0.1057
  803SOL    HW1 2408   1.057   0.122   0.896 -0.1258 -1.5147 -1.4389
  803SOL    HW2 2409   0.894   0.152   0.841  0.8933  2.7352  0.4739
  804SOL     OW 2410   0.277   0.029   2.145 -0.0109 -0.1526 -0.2157
  804SOL    HW1 2411   0.316   0.122   2.141  0.2514 -1.6050 -0.1970
  804SOL    HW2 2412   0.262  -0.008   2.053  0.5234  2.8604  0.7906
  805SOL     OW 2413   2.413   0.268   0.367 -0.4712 -0.1920  0.4393
  805SOL    HW1 2414   2.495   0.311   0.406 -1.8762  3.3171  1.6967
  805SOL    HW2 2415   2.414   0.271   0.264  0.1306 -0.2321 -1.7126
  806SOL     OW 2416   0.642   2.424   1.672  0.3542 -0.6463  0.4284
  806SOL    HW1 2417   0.639   2.524   1.700  0.1194 -1.4435 -0.4609
  806SOL    HW2 2418   0.737   2.389   1.650  0.4368 -0.8530 -2.8467
  807SOL     OW 2419   2.452   0.907   0.425  0.5609 -0.4219  0.1235
  807SOL    HW1 2420   2.541   0.897   0.477  4.3828  3.2775 -1.5177
  807SOL    HW2 2421   2.471   0.932   0.326 -0.0329 -0.2262  0.7876
  808SOL     OW 2422   0.542   2.043   3.001  0.3609  0.0687 -0.0566
  808SOL    HW1 2423   0.564   2.060   3.102  1.5491  1.6882 -1.5478
  808SOL    HW2 2424   0.536   1.938   2.975 -0.4084 -0.5554  3.1260
  809SOL     OW 2425   2.692   1.944   1.946  0.6023 -0.5333  0.5196
  809SOL    HW1 2426   2.777   1.996   1.971 -2.7533  0.2280 -1.9090
  809SOL    HW2 2427   2.665   1.957   1.846  1.4980 -1.4876  0.8447
  810SOL     OW 2428   2.110   1.042   0.513 -0.0387 -0.3325  0.0047
  810SOL    HW1 2429   2.185   1.010   0.578  1.2815 -1.4707  2.0228
  810SOL    HW2 2430   2.047   1.118   0.552 -1.3446  0.5449  0.7956
  811SOL     OW 2431   1.362   2.484   1.287 -0.0315 -0.1862 -0.2202
  811SOL    HW1 2432   1.359   2.379   1.301  2.8393 -2.1545 -0.0489
  811SOL    HW2 2433   1.284   2.518   1.232 -0.9665 -1.5479  0.9564
  812SOL     OW 2434   1.461   0.851   1.948 -0.6043  0.5154 -0.0297
  812SOL    HW1 2435   1.529   0.902   2.006  0.3015 -0.1111 -2.9372
  812SOL    HW2 2436   1.378   0.911   1.937 -0.4189 -4.7337 -1.7447
  813SOL     OW 2437   1.744   2.120   2.470  0.4262 -0.6328 -0.2151
  813SOL    HW1 2438   1.813   2.045   2.462  0.5254 -0.2636 -0.9886
  813SOL    HW2 2439   1.704   2.122   2.372 -0.8583 -1.6909 -1.0031
  814SOL     OW 2440   2.871   1.561   2.831  0.1249  0.3957 -0.3356
  814SOL    HW1 2441   2.961   1.561   2.890  1.8907 -0.9813  0.5347
  814SOL    HW2 2442   2.863   1.649   2.774 -0.3655  2.7703  1.0209
  815SOL     OW 2443   2.181   2.882   2.764 -0.2257  0.8330  0.1805
  815SOL    HW1 2444   2.145   2.823   2.848 -0.9348 -1.0841  2.7583
  815SOL    HW2 2445   2.284   2.871   2.761  0.7980  0.1214  0.2043
  816SOL     OW 2446   1.639   0.329   1.658 -0.2179  0.4296  0.5231
  816SOL    HW1 2447   1.658   0.226   1.663 -0.1441 -0.7167  0.9949
  816SOL    HW2 2448   1.549   0.353   1.692  0.9872  0.3270  1.0086
  817SOL     OW 2449   0.416   1.230   2.533  0.1473  0.1054  0.0254
  817SOL    HW1 2450   0.316   1.255   2.559  1.4924  1.6345 -0.3196
  817SOL    HW2 2451   0.453   1.296   2.458 -1.5999  2.2837 -1.8417
  818SOL     OW 2452   1.981   0.784   0.463  0.1694  0.0255 -0.1636
  818SOL    HW1 2453   2.024   0.882   0.461  0.0862  1.2121  0.6472
  818SOL    HW2 2454   1.917   0.781   0.543  0.9337  0.5973  1.9713
  819SOL     OW 2455   2.783   2.918   3.031 -0.3948  0.3878 -0.1018
  819SOL    HW1 2456   2.850   2.847   2.993  0.6972 -1.5495 -0.8546
  819SOL    HW2 2457   2.695   2.917   2.975 -0.3054  1.0435 -1.0106
  820SOL     OW 2458   1.268   1.118   0.652  0.1238 -0.1148  0.4298
  820SOL    HW1 2459   1.243   1.222   0.667  0.6224  3.1747 -1.3647
  820SOL    HW2 2460   1.223   1.060   0.721  1.3186 -0.9162  0.5120
  821SOL     OW 2461   3.094   1.298   0.677 -0.1799  0.1548 -0.2269
  821SOL    HW1 2462   3.062   1.300   0.780 -0.1752  3.2718  2.5715
  821SOL    HW2 2463   3.161   1.372   0.651  0.1283 -0.5506  1.3682
  822SOL     OW 2464   2.542   1.741   2.435 -0.3863  0.0144  0.0346
  822SOL    HW1 2465   2.528   1.831   2.487  0.8011  2.1294 -2.1925
  822SOL    HW2 2466   2.477   1.730   2.350 -0.2668  0.3325 -3.0117
  823SOL     OW 2467   2.085   0.781   1.211  0.9416  0.5531  0.0111
  823SOL    HW1 2468   2.020   0.812   1.285  2.4371 -0.2966  1.3739
  823SOL    HW2 2469   2.035   0.757   1.122 -0.4387 -0.8413 -2.0621
  824SOL     OW 2470   0.141   2.065   2.791  0.4311  0.5451 -0.1996
  824SOL    HW1 2471   0.085   1.986   2.822 -0.6806  1.1634 -0.5025
  824SOL    HW2 2472   0.216   2.049   2.717  2.7488 -2.1800 -1.5237
  825SOL     OW 2473   1.247   1.100   0.312 -0.0657  0.0525  0.1706
  825SOL    HW1 2474   1.238   1.202   0.283 -4.0267  3.2480 -0.6094
  825SOL    HW2 2475   1.216   1.077   0.410  1.9041 -2.3344  1.2359
  826SOL     OW 2476   1.926   0.670   1.610 -0.2698  0.3541 -0.0040
  826SOL    HW1 2477   2.006   0.611   1.638 -0.9935  1.1541 -0.4450
  826SOL    HW2 2478   1.849   0.620   1.565  0.9555  1.4573  0.8853
  827SOL     OW 2479   0.704   1.371   0.281 -0.0414 -0.0071  0.2142
  827SOL    HW1 2480   0.747   1.292   0.229  0.3300 -0.0383  0.2270
  827SOL    HW2 2481   0.685   1.343   0.381 -1.5479  3.7243  3.6214
  828SOL     OW 2482   2.519   0.094   1.589 -0.0278 -0.3494 -0.3556
  828SOL    HW1 2483   2.424   0.113   1.555 -1.3866 -1.4624  4.1684
  828SOL    HW2 2484   2.512   0.027   1.663 -0.2326  0.2367  0.2189
  829SOL     OW 2485   2.827   2.449   2.971  0.1727 -0.2314 -0.1318
  829SOL    HW1 2486   2.791   2.354   2.956 -1.9703 -0.3492  0.8139
  829SOL    HW2 2487   2.770   2.498   3.044  0.8421  1.1956 -0.7549
  830SOL     OW 2488   2.862   0.950   2.995  0.2978  0.2346 -0.2178
  830SOL    HW1 2489   2.921   1.028   3.029  0.4333  1.6702 -0.0112
  830SOL    HW2 2490   2.869   0.871   3.057  0.5030 -1.0374 -1.1922
  831SOL     OW 2491   0.104   0.660   0.387  0.6572 -0.1953  0.4896
  831SOL    HW1 2492   0.066   0.588   0.451 -1.3110 -1.8472 -0.7107
  831SOL    HW2 2493   0.130   0.631   0.290  0.3659 -0.1728  0.2914
  832SOL     OW 2494   1.802   0.737   3.070 -0.1888 -0.0763 -0.0671
  832SOL    HW1 2495   1.713   0.788   3.040 -1.6688 -1.7010 -0.6515
  832SOL    HW2 2496   1.796   0.632   3.061  1.7184 -2.0977  0.1986
  833SOL     OW 2497   2.443   2.163   0.517  0.0313  0.4694 -0.0951
  833SOL    HW1 2498   2.351   2.141   0.479  2.2131  1.1494 -2.2214
  833SOL    HW2 2499   2.498   2.074   0.510  2.0155  0.6427 -1.8634
  834SOL     OW 2500   0.195   0.206   0.497 -0.1088 -0.2294  0.0273
  834SOL    HW1 2501   0.211   0.115   0.532 -3.4218  4.4202  0.3761
  834SOL    HW2 2502   0.162   0.210   0.396  0.1689  0.8720  2.3221
  835SOL     OW 2503   2.378   1.576   1.130  0.4781  0.2312  0.2786
  835SOL    HW1 2504   2.390   1.666   1.173 -2.2558 -2.3993  0.2406
  835SOL    HW2 2505   2.436   1.557   1.044  0.6394 -1.2602  2.7812
  836SOL     OW 2506   1.608   0.829   2.527  0.1379 -0.2258 -0.0352
  836SOL    HW1 2507   1.509   0.803   2.515  0.7024  0.9324  1.7749
  836SOL    HW2 2508   1.653   0.849   2.437 -0.8313  2.2894  0.4688
  837SOL     OW 2509   1.723   0.172   0.565 -0.0846  0.1706  0.8616
  837SOL    HW1 2510   1.665   0.237   0.622 -0.0028  0.4340  1.0038
  837SOL    HW2 2511   1.679   0.085   0.546 -0.3187  2.3323  0.4267
  838SOL     OW 2512   1.137   1.560   2.780  0.2176  0.1251  0.1818
  838SOL    HW1 2513   1.139   1.516   2.875  0.1546 -0.6165  0.5221
  838SOL    HW2 2514   1.079   1.497   2.719  1.4131 -3.3603 -0.9428
  839SOL     OW 2515   1.625   0.302   0.989 -0.0221  0.3647  0.5417
  839SOL    HW1 2516   1.675   0.330   1.074 -0.2230 -0.6416  1.2760
  839SOL    HW2 2517   1.573   0.213   1.003  0.5669 -1.0200  0.9912
  840SOL     OW 2518   2.458   2.939   1.736  0.2517  0.1047  0.4304
  840SOL    HW1 2519   2.381   2.915   1.794 -0.2757  3.5290 -0.7041
  840SOL    HW2 2520   2.539   2.874   1.751 -0.3461  0.4281 -0.9925
  841SOL     OW 2521   1.553   0.829   2.987 -0.5806 -0.1246 -0.2480
  841SOL    HW1 2522   1.475   0.835   3.045  4.3118  0.9040  0.6015
  841SOL    HW2 2523   1.548   0.883   2.897  1.4693  2.3055 -0.2685
  842SOL     OW 2524   0.853   1.557   0.910 -0.4102  0.7086  0.4985
  842SOL    HW1 2525   0.814   1.643   0.955  1.2114  0.8502  1.8912
  842SOL    HW2 2526   0.788   1.475   0.923  0.0849 -1.4203  0.9530
  843SOL     OW 2527   0.057   0.026   1.370 -0.0975  0.1581  0.3510
  843SOL    HW1 2528   0.127   0.073   1.433 -0.9631  2.2641  0.3316
  843SOL    HW2 2529   0.037  -0.073   1.405  2.0574  0.2199 -3.0896
  844SOL     OW 2530   0.799   2.471   0.238  0.8775 -0.2027  0.0801
  844SOL    HW1 2531   0.760   2.450   0.331 -0.9665  0.9835  0.5292
  844SOL    HW2 2532   0.736   2.536   0.188 -1.9539  0.7141  0.9289
  845SOL     OW 2533   1.645   2.897   1.326 -0.2040  0.2785  0.5127
  845SOL    HW1 2534   1.713   2.820   1.319  3.1506  0.6962  1.7271
  845SOL    HW2 2535   1.625   2.930   1.423 -3.0025  0.4582 -0.4408
  846SOL     OW 2536   1.560   2.910   0.747 -0.2222 -0.4207 -0.4311
  846SOL    HW1 2537   1.566   2.882   0.645 -1.2874  0.3449 -1.3120
  846SOL    HW2 2538   1.653   2.924   0.792 -1.4006  0.4620 -0.0164
  847SOL     OW 2539   2.033   1.660   0.373  0.0207  0.5277 -0.2566
  847SOL    HW1 2540   1.979   1.570   0.372 -3.1905 -1.7929  1.8196
  847SOL    HW2 2541   1.966   1.740   0.364 -0.5285 -4.1180  1.9948
  848SOL     OW 2542   2.454   0.850   2.609 -0.0841  0.0306 -0.4317
  848SOL    HW1 2543   2.419   0.937   2.658  0.9469  0.0005  1.2584
  848SOL    HW2 2544   2.378   0.782   2.579 -2.1659  2.7590 -0.5770
  849SOL     OW 2545   2.562   0.859   2.370  0.2335  0.0484 -0.3774
  849SOL    HW1 2546   2.661   0.839   2.399 -0.9345  0.1499 -0.9749
  849SOL    HW2 2547   2.504   0.857   2.460  0.7371 -1.2736  1.4036
  850SOL     OW 2548   1.519   0.133   1.314  0.5741  0.9687 -0.7949
  850SOL    HW1 2549   1.514   0.106   1.214 -1.6905  1.0087  0.0855
  850SOL    HW2 2550   1.493   0.063   1.389  0.9160 -1.0199 -3.0616
  851SOL     OW 2551   0.464   1.819   0.554  0.1244 -0.8887 -0.2276
  851SOL    HW1 2552   0.485   1.916   0.580 -0.6204 -1.4333  0.9231
  851SOL    HW2 2553   0.515   1.785   0.471  0.1939 -0.3971 -2.1662
  852SOL     OW 2554   0.809   2.102   1.705  0.3560  0.3750 -0.6814
  852SOL    HW1 2555   0.852   2.193   1.680  2.3172 -0.3272 -1.3417
  852SOL    HW2 2556   0.735   2.098   1.780  0.0592 -0.3362  0.6588
  853SOL     OW 2557   2.523   1.495   2.579  0.7544  0.1020  0.4060
  853SOL    HW1 2558   2.431   1.438   2.568 -0.2449 -2.9474 -0.4602
  853SOL    HW2 2559   2.524   1.571   2.508  1.6218  2.8140  0.2498
  854SOL     OW 2560   2.385   1.380   1.732  0.0313  0.0265  0.5267
  854SOL    HW1 2561   2.442   1.337   1.652  0.9518  0.3670 -1.6826
  854SOL    HW2 2562   2.333   1.306   1.783  0.6229 -0.8688 -0.2464
  855SOL     OW 2563   2.039   2.447   1.069 -0.2444 -0.3538 -0.3950
  855SOL    HW1 2564   2.044   2.543   1.036  1.0988 -1.4861 -3.1934
  855SOL    HW2 2565   2.124   2.419   1.115 -3.5853 -2.1763 -0.6835
  856SOL     OW 2566   1.329   1.434   0.937 -0.5904 -0.0403  0.1053
  856SOL    HW1 2567   1.400   1.501   0.970  0.0548  0.1464 -0.4815
  856SOL    HW2 2568   1.236   1.460   0.968 -0.3004  1.1698  0.8711
  857SOL     OW 2569   3.027   2.705   0.949  0.0357 -0.0854 -0.3531
  857SOL    HW1 2570   2.980   2.615   0.945 -1.4620 -2.1875 -1.2219
  857SOL    HW2 2571   3.111   2.704   0.889 -1.3656  1.3795  2.5733
  858SOL     OW 2572   2.326   2.098   1.711  0.2804  0.0109 -0.0280
  858SOL    HW1 2573   2.241   2.088   1.646  0.8432 -0.3894 -3.4751
  858SOL    HW2 2574   2.396   2.026   1.687  1.3781  0.6221 -0.7912
  859SOL     OW 2575   2.470   0.544   1.044  0.1642 -0.8291  0.1130
  859SOL    HW1 2576   2.522   0.592   0.967 -0.2865 -0.0674  0.3125
  859SOL    HW2 2577   2.520   0.468   1.086  0.9724  2.9470  1.2402
  860SOL     OW 2578   1.911   2.795   0.441  0.8865  0.1803 -0.1780
  860SOL    HW1 2579   1.886   2.767   0.347  0.2595  0.6455 -3.1338
  860SOL    HW2 2580   2.009   2.839   0.442  5.1869 -1.0403 -0.4435
  861SOL     OW 2581   1.012   2.391   2.880 -0.3045 -0.2619  0.0487
  861SOL    HW1 2582   1.077   2.464   2.843 -0.2265 -0.1050 -2.7525
  861SOL    HW2 2583   0.996   2.393   2.982  0.3155 -2.6225  1.9946
  862SOL     OW 2584   2.865   2.555   1.621  0.0900  0.4081  0.3356
  862SOL    HW1 2585   2.960   2.567   1.665  0.3904 -3.4448 -0.8951
  862SOL    HW2 2586   2.832   2.639   1.573 -2.3584 -0.3429  2.7545
  863SOL     OW 2587   1.832   2.711   0.181  0.0443 -0.3846  0.1150
  863SOL    HW1 2588   1.897   2.629   0.193  1.1051  1.4472 -0.5065
  863SOL    HW2 2589   1.735   2.687   0.142 -1.1784  0.5002 -0.1810
  864SOL     OW 2590   2.001   1.225   2.827 -0.2210  0.2005 -0.5248
  864SOL    HW1 2591   1.972   1.182   2.739 -4.6655 -0.3787  0.8781
  864SOL    HW2 2592   2.037   1.159   2.898 -1.5332 -2.1297  2.4900
  865SOL     OW 2593   2.195   1.887   0.702  0.0097  0.1240 -0.4282
  865SOL    HW1 2594   2.264   1.868   0.779 -0.4741  2.3681  0.3085
  865SOL    HW2 2595   2.104   1.917   0.734  0.2469 -0.4991 -3.4461
  866SOL     OW 2596   2.849   2.914   1.011  0.1546 -0.2002 -0.3077
  866SOL    HW1 2597   2.854   2.988   0.939 -1.2914  0.8874 -0.5593
  866SOL    HW2 2598   2.904   2.836   0.987  1.3999  0.4031  0.6405
  867SOL     OW 2599   0.361   1.399   0.904  0.6481  0.3782 -0.5039
  867SOL    HW1 2600   0.325   1.310   0.874 -0.8750 -3.0138  0.4072
  867SOL    HW2 2601   0.323   1.485   0.858  1.4196 -0.3434  0.0431
  868SOL     OW 2602   0.750   1.921   2.127  0.1689 -0.2189  0.0020
  868SOL    HW1 2603   0.693   1.867   2.201 -1.5573 -0.6136  0.9439
  868SOL    HW2 2604   0.695   1.986   2.069 -1.3435  2.6045  0.0545
  869SOL     OW 2605   2.550   1.929   1.670 -0.1362 -0.1506  0.0550
  869SOL    HW1 2606   2.632   1.983   1.637 -1.2223 -0.6561  1.1103
  869SOL    HW2 2607   2.587   1.834   1.687  2.2648 -2.2176 -1.4981
  870SOL     OW 2608   2.318   2.686   1.222  0.4142  0.2126 -1.2257
  870SOL    HW1 2609   2.311   2.590   1.198 -0.5264  3.0081 -3.5993
  870SOL    HW2 2610   2.306   2.714   1.322 -2.1928 -0.8542 -1.4843
  871SOL     OW 2611   0.016   2.281   0.566 -0.5367 -0.3230 -0.5508
  871SOL    HW1 2612  -0.009   2.374   0.607 -1.0248 -1.2012  1.5565
  871SOL    HW2 2613  -0.041   2.255   0.486 -0.5040  0.8795  1.5607
  872SOL     OW 2614   2.118   0.481   1.677 -0.2210  0.1823 -0.0204
  872SOL    HW1 2615   2.086   0.482   1.776 -1.6583  1.5927  1.5972
  872SOL    HW2 2616   2.221   0.459   1.669  0.3451  3.2955 -0.4091
  873SOL     OW 2617   1.734   2.138   3.055 -0.0738 -0.3112  0.1449
  873SOL    HW1 2618   1.650   2.147   3.115  1.2876 -0.4858  3.0548
  873SOL    HW2 2619   1.703   2.153   2.955  1.0196 -1.2558 -0.2930
  874SOL     OW 2620   0.690   2.415   0.769 -0.0390  0.1980  0.3444
  874SOL    HW1 2621   0.683   2.515   0.796  1.9565  2.8818 -0.7528
  874SOL    HW2 2622   0.785   2.391   0.744 -2.8305  1.2404 -3.5137
  875SOL     OW 2623   2.286   1.545   1.434  0.5717 -0.3279 -0.1140
  875SOL    HW1 2624   2.377   1.575   1.474 -0.7374  2.1896  0.7437
  875SOL    HW2 2625   2.284   1.556   1.338  0.0600  1.4133  0.9941
  876SOL     OW 2626   0.048   2.293   2.682  0.1451  0.0791  0.0992
  876SOL    HW1 2627   0.097   2.210   2.712 -0.3103 -1.3376  0.0638
  876SOL    HW2 2628   0.070   2.379   2.739 -2.4767 -0.3974 -1.8335
  877SOL     OW 2629   2.960   2.715   0.551  0.6432 -0.0884 -1.2678
  877SOL    HW1 2630   2.916   2.809   0.569 -1.1021  1.7467  1.4294
  877SOL    HW2 2631   3.021   2.684   0.629 -2.4764 -1.5033  0.4189
  878SOL     OW 2632   2.800   1.519   2.236 -0.7384  0.3799  0.0484
  878SOL    HW1 2633   2.819   1.609   2.195  1.2172 -1.5326  1.5596
  878SOL    HW2 2634   2.795   1.523   2.342  3.1451  0.6490  0.5199
  879SOL     OW 2635   2.409   0.087   1.258  0.6673  0.2959  0.3973
  879SOL    HW1 2636   2.419  -0.014   1.287  1.8839 -1.8066  0.1638
  879SOL    HW2 2637   2.335   0.100   1.185 -0.5955  0.2901  0.8763
  880SOL     OW 2638   0.767   0.499   2.249  0.0843 -0.2227 -0.8497
  880SOL    HW1 2639   0.709   0.450   2.326 -1.6658 -2.1859 -0.3211
  880SOL    HW2 2640   0.814   0.437   2.180  2.9336 -0.7304 -0.4705
  881SOL     OW 2641   0.882   0.103   0.461  0.6943  0.0241 -0.3188
  881SOL    HW1 2642   0.913   0.018   0.507  2.9805  1.7065 -1.5286
  881SOL    HW2 2643   0.783   0.091   0.423  0.3650  1.2661  0.7600
  882SOL     OW 2644   2.714   1.707   1.703 -0.0597  0.6440 -0.4609
  882SOL    HW1 2645   2.775   1.654   1.641 -0.0085 -0.7121  1.0345
  882SOL    HW2 2646   2.747   1.700   1.803 -0.9353 -0.1319 -1.5454
  883SOL     OW 2647   0.876   0.476   0.927  0.0201 -0.2018  0.2222
  883SOL    HW1 2648   0.940   0.548   0.965 -0.7953  1.3009 -0.8469
  883SOL    HW2 2649   0.800   0.444   0.984  1.2103  0.3025 -0.5738
  884SOL     OW 2650   1.115   1.713   1.179 -0.1627 -0.4621  0.0335
  884SOL    HW1 2651   1.094   1.626   1.117  1.3380  1.8488  0.9629
  884SOL    HW2 2652   1.110   1.802   1.125  0.2515  0.5549 -2.9380
  885SOL     OW 2653   2.315   1.783   2.277  0.3168 -0.2577  0.6140
  885SOL    HW1 2654   2.231   1.745   2.320 -2.5915  3.4494 -1.0974
  885SOL    HW2 2655   2.307   1.881   2.247 -1.8927 -0.3749  0.8967
  886SOL     OW 2656   2.603   0.372   1.812 -0.3650  0.6896 -0.0311
  886SOL    HW1 2657   2.599   0.271   1.840  0.8086  1.1282  3.4117
  886SOL    HW2 2658   2.696   0.401   1.790 -1.1558 -2.2933  1.1213
  887SOL     OW 2659   0.122   2.012   1.302 -0.1831 -0.6368  0.3028
  887SOL    HW1 2660   0.032   1.969   1.296  0.5560 -0.2146  0.5086
  887SOL    HW2 2661   0.125   2.106   1.262  1.2119 -1.2303 -1.2084
  888SOL     OW 2662   0.599   1.224   1.507 -0.5884  0.3282  0.0616
  888SOL    HW1 2663   0.644   1.270   1.424  0.0876 -1.7265  0.2058
  888SOL    HW2 2664   0.614   1.125   1.506 -0.6746  0.1130  2.3084
  889SOL     OW 2665   0.829   2.502   2.210 -0.2928  0.0658 -0.4001
  889SOL    HW1 2666   0.755   2.431   2.201  0.4350  1.7115 -0.9419
  889SOL    HW2 2667   0.907   2.478   2.149 -1.0088  0.7502 -1.6143
  890SOL     OW 2668   2.420   2.483   0.253 -0.2177  0.1419 -0.4934
  890SOL    HW1 2669   2.406   2.514   0.156 -2.5001  2.3184 -0.3907
  890SOL    HW2 2670   2.348   2.520   0.317 -0.8547  0.9661 -2.8759
  891SOL     OW 2671   2.512   1.700   0.624  0.1272  0.0328 -0.3510
  891SOL    HW1 2672   2.512   1.646   0.716 -2.6161 -2.1032 -0.5665
  891SOL    HW2 2673   2.443   1.664   0.553 -1.3350 -0.2217  0.3423
  892SOL     OW 2674   0.383   0.275   2.323  0.0856 -0.1169  0.1908
  892SOL    HW1 2675   0.397   0.348   2.255  0.3114  1.8326  5.0191
  892SOL    HW2 2676   0.445   0.287   2.406 -0.9739 -3.4921  1.0989
  893SOL     OW 2677   1.652   0.202   2.718 -0.1959  0.3168 -0.0428
  893SOL    HW1 2678   1.725   0.268   2.756  2.8149 -0.9262 -1.2697
  893SOL    HW2 2679   1.559   0.247   2.711 -2.5503 -0.4687 -0.7153
  894SOL     OW 2680   2.172   2.069   0.045  0.3627 -0.0488  0.0229
  894SOL    HW1 2681   2.160   1.998  -0.030 -0.8375  2.8463  0.2465
  894SOL    HW2 2682   2.181   2.029   0.140  1.6399 -0.3499 -2.5424
  895SOL     OW 2683   2.805   1.462   0.889  0.3878  0.2465  0.2187
  895SOL    HW1 2684   2.885   1.416   0.929 -1.3736  3.1251  0.4563
  895SOL    HW2 2685   2.801   1.562   0.920  0.8735  3.2378 -0.1933
  896SOL     OW 2686   1.815   1.833   1.203 -0.6451 -0.3151 -0.0862
  896SOL    HW1 2687   1.856   1.739   1.210 -1.7934 -0.5442 -1.9432
  896SOL    HW2 2688   1.751   1.846   1.122 -1.3256  1.9352 -1.7385
  897SOL     OW 2689   0.272   0.574   3.049  0.2808 -0.3663  0.1963
  897SOL    HW1 2690   0.211   0.597   2.969  0.4525  0.0196 -0.2624
  897SOL    HW2 2691   0.367   0.602   3.034 -3.1347 -0.9057 -1.9949
  898SOL     OW 2692   0.645   2.880   1.041 -0.3432  0.3215  0.0388
  898SOL    HW1 2693   0.671   2.978   1.041 -1.0197  0.0715  0.9585
  898SOL    HW2 2694   0.701   2.825   1.105  0.6640  2.2090 -0.8859
  899SOL     OW 2695   2.793   0.844   1.358  0.5183  0.2182  0.1462
  899SOL    HW1 2696   2.801   0.777   1.280  1.3499 -2.3802 -1.1103
  899SOL    HW2 2697   2.880   0.894   1.377  2.5022 -1.7660  3.0989
  900SOL     OW 2698   0.963   2.502   2.418  0.5476  0.3920 -0.3010
  900SOL    HW1 2699   0.906   2.494   2.329  1.7799  0.3615 -0.2358
  900SOL    HW2 2700   0.934   2.448   2.496 -3.5526 -3.0946 -0.9234
  901SOL     OW 2701   1.885   2.405   1.353  0.0245 -0.3796  0.3241
  901SOL    HW1 2702   1.868   2.337   1.274 -1.1544 -1.4854 -2.8122
  901SOL    HW2 2703   1.976   2.391   1.403  0.6286  1.0008  1.2467
  902SOL     OW 2704   2.540   1.652   1.496  0.1283 -0.2761  0.1664
  902SOL    HW1 2705   2.563   1.653   1.596  1.7331 -0.6241 -1.7841
  902SOL    HW2 2706   2.624   1.666   1.437  0.0936  0.8821 -0.5621
  903SOL     OW 2707   0.296   2.474   1.963 -0.5646 -1.0427 -0.0117
  903SOL    HW1 2708   0.206   2.425   1.949 -0.4998 -2.1059 -0.6822
  903SOL    HW2 2709   0.304   2.557   1.900  1.0321  2.5621  2.5589
  904SOL     OW 2710   1.977   0.786   2.566 -0.0566 -0.1812  0.3689
  904SOL    HW1 2711   1.894   0.738   2.609 -2.8762 -0.2943  2.4766
  904SOL    HW2 2712   1.996   0.766   2.465 -1.3523  2.7029 -0.0044
  905SOL     OW 2713   2.921   0.105   2.493 -0.1666 -0.0434  0.5452
  905SOL    HW1 2714   2.972   0.016   2.470 -3.6313 -2.3123 -0.5609
  905SOL    HW2 2715   2.974   0.191   2.473 -0.4531  2.0705  2.7206
  906SOL     OW 2716   0.126   1.666   1.876 -0.1175 -0.2047  0.6259
  906SOL    HW1 2717   0.065   1.693   1.789 -1.6298 -1.7466 -1.5906
  906SOL    HW2 2718   0.231   1.685   1.861  1.4508  1.3196  3.0556
  907SOL     OW 2719   0.213   2.417   0.969  0.0213  0.1577  0.2731
  907SOL    HW1 2720   0.307   2.376   0.983 -0.2626  0.8878 -2.5544
  907SOL    HW2 2721   0.214   2.493   0.899 -1.8974 -0.6321 -1.5872
  908SOL     OW 2722   2.807   3.062   0.321  0.1162 -0.7938  0.6846
  908SOL    HW1 2723   2.712   3.044   0.281 -3.1057 -0.5491 -1.5436
  908SOL    HW2 2724   2.881   2.992   0.292  2.4557 -1.7711  1.6872
  909SOL     OW 2725   0.837   1.056   2.670  0.2067  0.2180 -0.0225
  909SOL    HW1 2726   0.794   0.961   2.656  0.4222  0.1426 -1.2621
  909SOL    HW2 2727   0.908   1.069   2.597 -2.3376  0.4645  1.3805
  910SOL     OW 2728   1.784   1.888   2.148  0.0544 -0.1495  0.5286
  910SOL    HW1 2729   1.850   1.913   2.072  0.3551  0.5056  1.3837
  910SOL    HW2 2730   1.731   1.966   2.189  1.7866 -0.9769  2.0636
  911SOL     OW 2731   1.844   2.928   1.565 -0.0437 -0.4704  0.2682
  911SOL    HW1 2732   1.906   2.890   1.491  1.5666 -2.1941 -0.2898
  911SOL    HW2 2733   1.824   2.861   1.644 -3.6388  0.5073 -1.0864
  912SOL     OW 2734   2.861   1.011   0.719 -0.1505 -0.1014 -0.4730
  912SOL    HW1 2735   2.877   0.965   0.813  0.1908 -0.9424  0.3495
  912SOL    HW2 2736   2.783   1.082   0.717 -0.3958 -1.8019 -0.3958
  913SOL     OW 2737   2.517   1.249   1.513 -0.7172  0.6319 -0.0853
  913SOL    HW1 2738   2.544   1.152   1.532  1.4915  1.6744 -0.6560
  913SOL    HW2 2739   2.589   1.300   1.454  1.1583 -1.8729 -0.5804
  914SOL     OW 2740   2.777   0.640   1.159  0.3824 -0.5620 -0.1966
  914SOL    HW1 2741   2.797   0.543   1.192 -0.2020  1.5361 -2.0373
  914SOL    HW2 2742   2.675   0.645   1.156  0.4009 -0.1392  1.4232
  915SOL     OW 2743   1.234   0.719   1.008  0.3464 -0.4637 -0.0869
  915SOL    HW1 2744   1.267   0.769   1.096 -3.2386  0.6083  2.8682
  915SOL    HW2 2745   1.129   0.696   1.007  1.0933  0.3981 -0.3217
  916SOL     OW 2746   0.625   0.054   0.637 -0.0859 -0.2028  0.0156
  916SOL    HW1 2747   0.649   0.089   0.732 -1.7946  0.5415  1.3332
  916SOL    HW2 2748   0.595   0.139   0.579  0.5938 -1.9804  0.0093
  917SOL     OW 2749   2.896   2.565   1.997 -0.4750  0.1033  0.4989
  917SOL    HW1 2750   2.818   2.570   1.927  0.4977 -1.9013 -0.4348
  917SOL    HW2 2751   2.964   2.639   1.984  1.8309 -3.9186 -0.6471
  918SOL     OW 2752   1.034   2.088   3.000 -0.3441  0.7055 -0.4467
  918SOL    HW1 2753   0.989   2.180   3.021 -1.6548  2.1037 -0.2399
  918SOL    HW2 2754   1.109   2.104   2.931 -0.6427  1.3494 -0.1882
  919SOL     OW 2755   0.812   1.693   2.846 -0.2326 -0.5259  0.4615
  919SOL    HW1 2756   0.890   1.740   2.794  1.4476  1.9410  2.7453
  919SOL    HW2 2757   0.767   1.613   2.794  1.4885 -0.2957 -3.4439
  920SOL     OW 2758   1.264   1.779   2.555 -0.5027  0.3974  0.0785
  920SOL    HW1 2759   1.336   1.750   2.489 -1.0036 -1.3519  2.9657
  920SOL    HW2 2760   1.236   1.702   2.614  3.2958  1.6377  0.5915
  921SOL     OW 2761   1.119   0.003   2.652 -0.4293 -0.2496 -0.4892
  921SOL    HW1 2762   1.104  -0.037   2.553 -1.4390 -1.8719 -0.4978
  921SOL    HW2 2763   1.038   0.048   2.691  0.4022  1.2664 -1.1202
  922SOL     OW 2764   2.195   2.364   2.792  0.9651  0.0484  0.0971
  922SOL    HW1 2765   2.202   2.261   2.775 -2.5277  0.6726 -3.7145
  922SOL    HW2 2766   2.157   2.421   2.708 -0.2953 -0.6506 -2.4183
  923SOL     OW 2767   1.254   2.670   0.261 -0.1629 -0.2486 -0.0636
  923SOL    HW1 2768   1.315   2.724   0.330  2.3734  0.5036  1.8001
  923SOL    HW2 2769   1.299   2.576   0.235  1.0360 -0.7643 -1.7676
  924SOL     OW 2770   2.896   1.710   0.101 -0.3444  0.2258 -0.3539
  924SOL    HW1 2771   2.824   1.653   0.051  0.0382 -1.5724  1.9712
  924SOL    HW2 2772   2.988   1.659   0.109  1.7336 -2.2153 -1.3977
  925SOL     OW 2773   0.046   2.849   1.464  0.3474  0.4744  0.0866
  925SOL    HW1 2774   0.024   2.822   1.561  0.9424  1.4209  0.5162
  925SOL    HW2 2775  -0.008   2.799   1.390 -0.6281 -0.8856 -2.6589
  926SOL     OW 2776   1.321   2.823   1.355  0.7163  0.4943  0.1148
  926SOL    HW1 2777   1.369   2.819   1.263 -1.3328 -4.8599 -1.5084
  926SOL    HW2 2778   1.328   2.915   1.404 -0.2277  0.1531  1.6362
  927SOL     OW 2779   0.351   2.659   1.757 -0.0287  0.7662  0.0215
  927SOL    HW1 2780   0.303   2.593   1.691 -0.6373 -1.5767 -0.4222
  927SOL    HW2 2781   0.322   2.760   1.743 -2.5576  1.4649 -1.3519
  928SOL     OW 2782   1.629   2.100   2.217 -0.0082 -0.5638  0.5934
  928SOL    HW1 2783   1.641   2.169   2.142  1.2666  0.8070 -0.7480
  928SOL    HW2 2784   1.530   2.089   2.235  1.6105  1.6990 -0.5550
  929SOL     OW 2785   2.419   2.513   2.886  0.2133  0.3529  0.0839
  929SOL    HW1 2786   2.335   2.457   2.877  0.2768  2.0011  0.8982
  929SOL    HW2 2787   2.490   2.503   2.811  0.2058 -1.8899  0.1528
  930SOL     OW 2788   2.166   1.981   1.099 -0.1834 -0.0320  0.2487
  930SOL    HW1 2789   2.142   1.914   1.181  0.3439 -0.6983  1.7842
  930SOL    HW2 2790   2.231   2.059   1.125 -0.7235 -1.6567 -3.8847
  931SOL     OW 2791   0.552   1.752   2.641  0.1607 -0.6481  0.0656
  931SOL    HW1 2792   0.555   1.777   2.745  1.2744 -1.3851 -0.3467
  931SOL    HW2 2793   0.602   1.659   2.632 -0.0612 -0.6728 -0.4914
  932SOL     OW 2794   0.436   0.117   3.075  0.3767  0.6218 -0.1579
  932SOL    HW1 2795   0.508   0.175   3.128 -0.6082 -1.8227  1.0094
  932SOL    HW2 2796   0.462   0.024   3.048  1.3389  0.8191 -0.7349
  933SOL     OW 2797   0.918   0.827   3.021  0.2362 -0.0362  0.4724
  933SOL    HW1 2798   0.841   0.810   3.090 -2.1345 -0.8399  0.0620
  933SOL    HW2 2799   0.923   0.926   2.994 -0.6611 -2.9652 -0.0481
  934SOL     OW 2800   0.770   2.993   2.648  0.4971  0.6114 -0.0367
  934SOL    HW1 2801   0.749   2.930   2.567  1.6767  1.1804  1.2791
  934SOL    HW2 2802   0.842   2.950   2.716  1.7310 -2.8532  2.3746
  935SOL     OW 2803   0.016   0.502   0.871  0.4150 -0.8336  0.5117
  935SOL    HW1 2804   0.013   0.470   0.776 -1.7256  1.3733  0.0881
  935SOL    HW2 2805  -0.046   0.585   0.891 -0.6563 -0.7885  0.7192
  936SOL     OW 2806   1.105   2.816   0.098 -0.1884  0.0001  0.1881
  936SOL    HW1 2807   1.162   2.883   0.037 -1.4277 -0.9777  0.0160
  936SOL    HW2 2808   1.158   2.757   0.166  0.4217 -1.2936  0.4559
  937SOL     OW 2809   1.871   2.680   2.100 -0.6743  0.2651 -0.6247
  937SOL    HW1 2810   1.769   2.681   2.116 -1.2374 -0.6981 -1.0320
  937SOL    HW2 2811   1.908   2.753   2.038 -1.1535 -1.1142 -0.4932
  938SOL     OW 2812   2.787   2.079   1.626  0.0681 -0.1118  0.4384
  938SOL    HW1 2813   2.768   2.177   1.599 -0.6916 -0.3941 -0.3760
  938SOL    HW2 2814   2.863   2.071   1.691 -0.7372 -0.5011  0.9500
  939SOL     OW 2815   2.800   1.215   2.417  0.4530 -0.6582 -0.3130
  939SOL    HW1 2816   2.853   1.179   2.332  1.5786  0.6068 -1.3012
  939SOL    HW2 2817   2.833   1.169   2.509  0.2655  2.1233  1.0301
  940SOL     OW 2818   1.084   0.446   2.780  0.1008  0.2599  0.6355
  940SOL    HW1 2819   1.130   0.350   2.784 -2.5806 -0.9334 -2.7572
  940SOL    HW2 2820   1.014   0.455   2.706  1.5709 -0.5874  1.2178
  941SOL     OW 2821   0.027   2.773   2.286  0.6267 -0.2328  0.1008
  941SOL    HW1 2822   0.088   2.688   2.271 -2.0416  1.7680 -0.1478
  941SOL    HW2 2823   0.080   2.852   2.330  0.0537  1.2143  2.0288
  942SOL     OW 2824   0.138   0.091   2.577  0.2492  0.1152  0.1897
  942SOL    HW1 2825   0.168   0.107   2.673 -5.1087  1.1230  0.1843
  942SOL    HW2 2826   0.117   0.174   2.522  1.5222 -1.0803  0.3505
  943SOL     OW 2827   2.099   1.664   2.398  0.3575  0.2221  0.3455
  943SOL    HW1 2828   2.077   1.619   2.308 -1.3045  3.4983  1.4080
  943SOL    HW2 2829   2.121   1.606   2.479  0.1237  1.5049  0.2859
  944SOL     OW 2830   2.183   2.374   1.468 -0.5189  0.3506 -0.0982
  944SOL    HW1 2831   2.271   2.409   1.510 -0.7270 -2.6702  0.9599
  944SOL    HW2 2832   2.150   2.277   1.498  0.7255 -1.9977  1.3703
  945SOL     OW 2833   0.664   1.586   0.095 -0.0179 -0.2919  0.5295
  945SOL    HW1 2834   0.599   1.565   0.013 -2.8848  0.8478  0.3361
  945SOL    HW2 2835   0.664   1.508   0.164  0.3658 -0.5385 -1.7653
  946SOL     OW 2836   0.412   0.951   2.531  0.6388  0.4629  0.0058
  946SOL    HW1 2837   0.350   0.895   2.470  0.1761 -2.3354  0.1289
  946SOL    HW2 2838   0.397   1.052   2.512  2.6139 -0.1769 -4.8978
  947SOL     OW 2839   1.492   0.504   3.063 -0.2580  0.0860 -0.6808
  947SOL    HW1 2840   1.460   0.526   2.968  0.5950 -0.6604  2.7217
  947SOL    HW2 2841   1.415   0.482   3.124  0.6563 -1.9530 -3.0143
  948SOL     OW 2842   1.877   3.014   2.172  0.0237 -0.2986 -0.4969
  948SOL    HW1 2843   1.896   2.962   2.085  0.7471 -0.0271  1.8409
  948SOL    HW2 2844   1.872   2.953   2.258  0.7701 -0.4506  3.4800
  949SOL     OW 2845   0.643   2.492   0.469  0.3064  0.1213 -0.1008
  949SOL    HW1 2846   0.663   2.590   0.456 -0.3357 -2.0822 -4.2113
  949SOL    HW2 2847   0.633   2.462   0.567 -0.3098 -0.1394 -1.5412
  950SOL     OW 2848   0.191   2.256   2.994  0.2128 -0.2699  0.1850
  950SOL    HW1 2849   0.139   2.346   2.974 -1.0502 -2.2044 -0.5679
  950SOL    HW2 2850   0.207   2.198   2.906  1.0924 -2.9136 -0.0820
  951SOL     OW 2851   1.173   2.622   2.806  0.4380  0.2512  0.1287
  951SOL    HW1 2852   1.238   2.655   2.879 -0.7468  4.4503 -0.1144
  951SOL    HW2 2853   1.198   2.663   2.713 -1.4347 -1.1469  1.4094
  952SOL     OW 2854   0.028   1.664   0.434  0.1136  0.5379  0.1864
  952SOL    HW1 2855   0.064   1.756   0.432 -0.5618 -2.9738 -2.1761
  952SOL    HW2 2856   0.100   1.596   0.473 -1.7801 -0.2739 -3.9327
  953SOL     OW 2857   2.566   1.761   0.214 -0.1888  0.6451  0.4596
  953SOL    HW1 2858   2.562   1.663   0.244 -0.7645 -0.9584 -0.3702
  953SOL    HW2 2859   2.501   1.777   0.134  0.6119 -2.4149  1.5585
  954SOL     OW 2860   2.216   0.583   0.980  0.0069 -0.3792 -0.3885
  954SOL    HW1 2861   2.223   0.575   0.873 -1.1353  0.2043 -5.0430
  954SOL    HW2 2862   2.303   0.550   1.027  0.9117 -0.9454  0.5428
  955SOL     OW 2863   0.121   2.563   1.385  0.4086 -0.1213 -0.3110
  955SOL    HW1 2864   0.033   2.582   1.326 -0.6122  2.1980 -2.8946
  955SOL    HW2 2865   0.138   2.644   1.444 -0.5153 -2.3662  0.0403
  956SOL     OW 2866   2.805   2.444   2.489  0.2023  0.0439 -0.0146
  956SOL    HW1 2867   2.823   2.340   2.476 -1.6022 -1.6961  2.4527
  956SOL    HW2 2868   2.858   2.505   2.421  0.7910 -0.4168 -2.1983
  957SOL     OW 2869   1.613   2.109   2.830  1.0099  0.5614  0.3646
  957SOL    HW1 2870   1.559   2.022   2.836  2.3564  1.6511 -1.5390
  957SOL    HW2 2871   1.661   2.112   2.738  1.5208  0.9751 -1.7524
  958SOL     OW 2872   2.589   2.284   2.999 -0.1046  0.0561 -0.1910
  958SOL    HW1 2873   2.554   2.365   2.945 -0.4954 -1.1247 -0.8369
  958SOL    HW2 2874   2.522   2.243   3.068 -1.1218 -3.5775 -0.6633
  959SOL     OW 2875   0.325   2.777   0.059 -0.1646  0.3485 -0.6183
  959SOL    HW1 2876   0.228   2.776   0.019  0.1514  1.3458 -1.5777
  959SOL    HW2 2877   0.356   2.687   0.098 -0.7881 -0.1424 -1.6471
  960SOL     OW 2878   2.012   0.461   1.941 -0.3627  0.2421  0.4436
  960SOL    HW1 2879   1.940   0.537   1.927  0.4360  2.4842 -0.9628
  960SOL    HW2 2880   2.041   0.455   2.038 -0.9145 -0.6914 -1.6427
  961SOL     OW 2881   2.555   1.902   1.064 -0.3689 -0.5122  0.3503
  961SOL    HW1 2882   2.563   2.004   1.040  0.5234 -0.4882 -2.1397
  961SOL    HW2 2883   2.520   1.882   1.158  2.0348  0.1062 -0.0751
  962SOL     OW 2884   1.307   0.911   0.085 -0.2259 -0.0105 -0.2893
  962SOL    HW1 2885   1.283   0.921  -0.010  1.9196 -0.5341  1.8636
  962SOL    HW2 2886   1.276   0.990   0.146  0.2107  0.0694  0.6800
  963SOL     OW 2887   2.307   2.526   1.777 -0.1276  0.1393 -0.3463
  963SOL    HW1 2888   2.238   2.459   1.825 -0.0438  0.6103  0.1893
  963SOL    HW2 2889   2.345   2.592   1.849 -2.8168 -0.1493 -1.8342
  964SOL     OW 2890   2.369   0.394   1.664  0.2657  0.6202 -0.5892
  964SOL    HW1 2891   2.458   0.394   1.726 -0.1504 -1.1278 -0.5366
  964SOL    HW2 2892   2.395   0.408   1.564  2.3383 -1.1233 -1.8784
  965SOL     OW 2893   2.618   2.980   0.122  0.0126 -0.1869  0.4236
  965SOL    HW1 2894   2.692   2.961   0.046 -0.5086 -3.2470 -0.4700
  965SOL    HW2 2895   2.524   3.007   0.081  0.7903  1.9041 -1.3507
  966SOL     OW 2896   2.542   2.554   2.296  0.3454  0.3042  0.6136
  966SOL    HW1 2897   2.632   2.605   2.311  2.5886 -0.6613  1.2489
  966SOL    HW2 2898   2.470   2.624   2.264  0.0280  1.8370  2.7268
  967SOL     OW 2899   2.779   2.806   2.461  0.3248  0.3470 -0.1088
  967SOL    HW1 2900   2.843   2.750   2.398 -0.6831  0.7477 -0.7664
  967SOL    HW2 2901   2.837   2.871   2.520  2.6377  1.7071 -1.1498
  968SOL     OW 2902   1.928   1.062   2.602  0.3281 -0.1221 -0.0099
  968SOL    HW1 2903   1.850   1.127   2.573  0.3688  1.1892  0.0623
  968SOL    HW2 2904   1.920   0.961   2.584  1.8515  2.8922  3.5388
  969SOL     OW 2905   2.754   2.457   1.121  0.3282  0.1323 -0.0217
  969SOL    HW1 2906   2.735   2.442   1.018  0.8380 -0.1108 -0.7818
  969SOL    HW2 2907   2.817   2.386   1.160 -3.4680 -2.4221  0.8620
  970SOL     OW 2908   1.057   2.122   1.823 -0.7134  0.1022 -0.3568
  970SOL    HW1 2909   0.972   2.095   1.768 -1.4902  1.3469  0.5407
  970SOL    HW2 2910   1.023   2.158   1.914  0.6524  2.3015  0.0368
  971SOL     OW 2911   2.919   2.054   2.058  0.7127  0.1964 -0.0782
  971SOL    HW1 2912   2.900   2.159   2.079 -0.0885  1.2909  0.2593
  971SOL    HW2 2913   2.978   2.040   1.968  2.1086 -0.7302 -0.8391
  972SOL     OW 2914   1.986   2.478   0.219  0.2147 -0.0105 -0.0256
  972SOL    HW1 2915   1.990   2.399   0.151  1.0222  1.6619  3.1576
  972SOL    HW2 2916   2.006   2.449   0.315  1.1365 -1.4884  0.0610
  973SOL     OW 2917   1.247   1.013   1.886  0.2381  0.4769  0.1678
  973SOL    HW1 2918   1.195   0.922   1.882 -0.3119  2.3795  2.1275
  973SOL    HW2 2919   1.185   1.094   1.896  0.8166  0.8626  0.7850
  974SOL     OW 2920   1.565   0.610   1.895  0.4130 -0.1455  0.3020
  974SOL    HW1 2921   1.662   0.641   1.884  1.4549  0.8492 -1.2383
  974SOL    HW2 2922   1.497   0.686   1.909 -1.8096  0.2985 -2.8699
  975SOL     OW 2923   2.371   3.052   0.025  0.0697 -0.1072 -0.5383
  975SOL    HW1 2924   2.301   2.992   0.071  1.9057  1.0428  1.6225
  975SOL    HW2 2925   2.358   3.055  -0.079  0.0508  0.9246 -1.1984
  976SOL     OW 2926   1.882   2.800   2.354  0.1890  0.4753 -0.5403
  976SOL    HW1 2927   1.828   2.715   2.331  0.3318 -3.3325 -1.8746
  976SOL    HW2 2928   1.898   2.800   2.456  1.4333 -1.0082 -1.8022
  977SOL     OW 2929   0.512   0.639   1.004 -0.4656  0.9445  0.9420
  977SOL    HW1 2930   0.435   0.633   0.933 -2.8637 -0.1150 -1.0459
  977SOL    HW2 2931   0.573   0.720   0.994  3.1426  1.7550 -3.6451
   3.10000   3.10000   3.10000
