1000 SPC/Fw water molecules t=   1.47000 step= 1470
 2931
    1SOL     OW    1   2.435   0.341   2.654 -0.1601  0.4184 -0.0996
    1SOL    HW1    2   2.440   0.238   2.646 -0.1855  0.4597  0.5619
    1SOL    HW2    3   2.493   0.374   2.728  0.9208 -0.6640  2.1572
    2SOL     OW    4   2.732   2.984   1.393 -0.4141  0.1243  0.2300
    2SOL    HW1    5   2.824   3.003   1.352 -0.6265  0.2252  1.7405
    2SOL    HW2    6   2.696   3.057   1.460 -0.7350 -2.6891 -0.5310
    3SOL     OW    7   2.645   2.558   0.387  0.0119 -0.1828  0.0126
    3SOL    HW1    8   2.610   2.457   0.382  1.8371 -3.1961  0.8595
    3SOL    HW2    9   2.712   2.575   0.464 -0.6436  1.3957  0.1408
    4SOL     OW   10   1.218   1.513   2.412 -0.0545  0.2734 -0.1130
    4SOL    HW1   11   1.166   1.488   2.326  0.8929 -0.4638  2.8873
    4SOL    HW2   12   1.242   1.432   2.472  0.0409 -0.6822 -1.0226
    5SOL     OW   13   1.192   1.559   2.916 -0.2344 -0.1388  0.5004
    5SOL    HW1   14   1.229   1.640   2.969  3.5965 -1.3707  2.0808
    5SOL    HW2   15   1.091   1.559   2.893  0.3279  1.8500  0.5817
    6SOL     OW   16   0.282   1.787   3.015  0.2161 -0.4975  0.2066
    6SOL    HW1   17   0.183   1.769   2.992  1.7601  0.5820 -1.5036
    6SOL    HW2   18   0.314   1.766   3.107 -3.8845  4.2342 -2.2705
    7SOL     OW   19   2.477   0.905   1.051 -0.1034 -0.0606 -0.4735
    7SOL    HW1   20   2.384   0.856   1.062  0.8690 -0.9648 -0.6477
    7SOL    HW2   21   2.525   0.874   0.965  1.1980  0.7652  0.6430
    8SOL     OW   22   0.333   0.679   1.521  0.5532 -0.0003 -0.0267
    8SOL    HW1   23   0.417   0.615   1.524  1.9985 -0.7688  1.4003
    8SOL    HW2   24   0.343   0.760   1.455  2.8154 -1.1866 -1.3188
    9SOL     OW   25   1.168   0.833   2.357 -0.2421  0.4894 -0.3625
    9SOL    HW1   26   1.243   0.872   2.299  0.5721  1.4087 -0.6807
    9SOL    HW2   27   1.143   0.732   2.341  0.9102  0.2541 -0.0069
   10SOL     OW   28   0.721   1.391   1.291  0.6974  0.0737 -1.0577
   10SOL    HW1   29   0.656   1.390   1.212 -2.6182  2.7175  0.0331
   10SOL    HW2   30   0.763   1.492   1.309  0.2605  0.5214  0.3398
   11SOL     OW   31   2.300   2.826   0.850 -0.0131  0.0417  0.5300
   11SOL    HW1   32   2.272   2.823   0.953  0.5388 -0.5588 -1.1588
   11SOL    HW2   33   2.397   2.815   0.833 -1.4397  0.9937  0.6192
   12SOL     OW   34   1.516   0.922   0.401  0.0893  0.6789 -0.4135
   12SOL    HW1   35   1.462   0.964   0.323 -1.6446 -0.0473  1.2625
   12SOL    HW2   36   1.556   0.833   0.369 -0.5858  0.9172  0.7921
   13SOL     OW   37   2.421   0.693   1.788 -0.0033  0.6213  0.0584
   13SOL    HW1   38   2.340   0.644   1.835 -0.4758 -1.6157  1.7287
   13SOL    HW2   39   2.453   0.664   1.694 -0.2723 -1.4688 -0.9952
   14SOL     OW   40   1.963   3.096   0.601  0.4761 -0.4582 -0.3857
   14SOL    HW1   41   1.875   3.153   0.603 -0.0062  0.8587 -0.7001
   14SOL    HW2   42   1.968   3.035   0.684  2.1564 -0.5135 -3.0418
   15SOL     OW   43   1.877   2.061   2.673  0.2576 -0.0644 -0.1011
   15SOL    HW1   44   1.802   2.055   2.746  0.2374 -1.2380  1.3288
   15SOL    HW2   45   1.848   2.023   2.580  0.5115  1.3906  0.0195
   16SOL     OW   46   1.613   1.752   3.019 -0.1694  0.1720  0.5750
   16SOL    HW1   47   1.593   1.649   3.036 -0.4361  0.4237 -3.2483
   16SOL    HW2   48   1.708   1.786   3.049  1.9653  1.2952 -2.1016
   17SOL     OW   49   0.107   0.428   0.176  0.2854  0.2752 -0.3608
   17SOL    HW1   50   0.189   0.454   0.116  0.7725  0.0052  0.1972
   17SOL    HW2   51   0.025   0.414   0.109 -1.4023 -2.5397  0.5421
   18SOL     OW   52   0.904   2.985   2.143  0.2181 -0.4271 -0.2742
   18SOL    HW1   53   0.868   2.900   2.190 -3.4145 -1.1646  0.4486
   18SOL    HW2   54   0.965   2.970   2.054  0.0068 -0.4974 -2.7534
   19SOL     OW   55   0.584   0.859   1.890  0.6946  0.0837  0.4255
   19SOL    HW1   56   0.641   0.824   1.971  1.9869  0.0359 -0.1840
   19SOL    HW2   57   0.618   0.950   1.853  0.9373  0.5894 -0.8533
   20SOL     OW   58   0.238   2.845   0.842 -0.7955  0.4850 -0.0212
   20SOL    HW1   59   0.133   2.842   0.834  1.7300 -2.7518 -2.6465
   20SOL    HW2   60   0.289   2.764   0.801  1.5728  1.2310 -2.3781
   21SOL     OW   61   2.765   0.281   1.976  0.1374  0.3814  0.4551
   21SOL    HW1   62   2.712   0.200   1.939 -0.4178 -0.3533  1.1153
   21SOL    HW2   63   2.864   0.252   2.002  0.4409  0.9839 -0.0347
   22SOL     OW   64   2.367   0.187   0.129 -0.0942 -0.1080  0.3969
   22SOL    HW1   65   2.389   0.097   0.083  1.7977 -2.2095  1.8405
   22SOL    HW2   66   2.308   0.251   0.063 -1.1296  2.8579 -1.5149
   23SOL     OW   67   2.831   0.533   0.685 -0.0728 -0.6654 -0.5329
   23SOL    HW1   68   2.861   0.450   0.634  0.1743 -0.8598  0.9416
   23SOL    HW2   69   2.839   0.619   0.630  0.1545  1.2009  2.4511
   24SOL     OW   70   0.243   1.849   0.437  0.4309 -0.1588 -0.4460
   24SOL    HW1   71   0.187   1.894   0.366  0.1910  0.1595  0.8191
   24SOL    HW2   72   0.347   1.870   0.426 -1.8343  0.6341 -3.5495
   25SOL     OW   73   2.263   0.614   0.219  0.1830 -0.4320 -0.3227
   25SOL    HW1   74   2.290   0.633   0.120  0.2436  0.0746  0.5695
   25SOL    HW2   75   2.290   0.517   0.244  2.2719 -0.4998  0.4543
   26SOL     OW   76   2.450   2.136   2.105 -0.5555 -0.0487 -0.4608
   26SOL    HW1   77   2.525   2.191   2.152 -0.9567  1.4480 -0.7700
   26SOL    HW2   78   2.487   2.068   2.034  1.7013  0.2076 -0.3782
   27SOL     OW   79   0.574   2.932   0.165 -0.8481 -0.2829 -0.7869
   27SOL    HW1   80   0.657   2.992   0.149 -0.1646 -0.4415  0.9109
   27SOL    HW2   81   0.497   2.953   0.097 -0.3013 -2.6531  0.7446
   28SOL     OW   82   1.632   0.106   0.324 -0.0147  0.5933  0.1996
   28SOL    HW1   83   1.663   0.048   0.240  1.0596 -0.8717 -0.0048
   28SOL    HW2   84   1.652   0.203   0.309 -0.5691 -1.4046 -1.5864
   29SOL     OW   85   1.982   0.597   0.281  0.7438  0.5998  0.3207
   29SOL    HW1   86   1.966   0.665   0.358  1.9140 -1.0566  0.4694
   29SOL    HW2   87   2.073   0.628   0.236  0.7735 -0.2590  0.2407
   30SOL     OW   88   0.201   2.059   0.894 -0.0006  0.1045  0.6023
   30SOL    HW1   89   0.204   1.990   0.816  1.3766  1.3305 -1.2948
   30SOL    HW2   90   0.110   2.073   0.939 -0.1453  1.1101 -0.6143
   31SOL     OW   91   2.187   0.076   2.389  0.3476 -0.4353 -0.6574
   31SOL    HW1   92   2.183   0.027   2.479 -0.5013 -1.1823 -1.7950
   31SOL    HW2   93   2.113   0.049   2.325  3.3441  0.3524 -1.2021
   32SOL     OW   94   2.979   3.052   0.264  0.3428  0.0726 -0.1087
   32SOL    HW1   95   2.921   2.966   0.261  1.1927  2.4393  0.1043
   32SOL    HW2   96   3.070   3.041   0.309  1.3110 -2.2679 -0.2553
   33SOL     OW   97   0.890   0.204   0.626  0.1689 -0.3062 -0.1461
   33SOL    HW1   98   0.889   0.148   0.540  1.1152  1.7190 -0.7947
   33SOL    HW2   99   0.970   0.275   0.624  2.9222  1.1732  0.6019
   34SOL     OW  100   0.333   2.719   1.088 -0.2292 -0.4808 -0.2973
   34SOL    HW1  101   0.278   2.755   1.007 -1.2170 -0.5638 -0.6923
   34SOL    HW2  102   0.431   2.756   1.084  2.1014 -1.0650  2.6424
   35SOL     OW  103   0.005   0.107   1.865  0.3913  0.4346  0.5262
   35SOL    HW1  104   0.023   0.010   1.894  2.5530  0.1546 -3.0174
   35SOL    HW2  105  -0.025   0.111   1.763  0.9762 -2.3042 -0.4941
   36SOL     OW  106   1.874   1.195   1.520  1.3317 -0.1072 -0.4703
   36SOL    HW1  107   1.922   1.105   1.546 -1.3632  0.8828 -0.4167
   36SOL    HW2  108   1.918   1.248   1.440  0.5749 -1.0771 -2.0956
   37SOL     OW  109   1.134   0.186   0.972 -0.4214  0.5202 -0.2470
   37SOL    HW1  110   1.156   0.290   0.971 -0.7541 -0.3737 -0.4818
   37SOL    HW2  111   1.221   0.137   0.945  0.5131 -1.0293  1.4004
   38SOL     OW  112   1.173   2.911   2.426  0.2119 -0.6240  1.1383
   38SOL    HW1  113   1.084   2.894   2.466  4.8363 -0.1425  1.7044
   38SOL    HW2  114   1.167   2.989   2.358  1.8992  0.9779  0.7637
   39SOL     OW  115   2.453   1.404   3.047  0.8882  0.0764  0.1099
   39SOL    HW1  116   2.538   1.347   3.064 -0.5043  0.9478 -0.9180
   39SOL    HW2  117   2.374   1.386   3.117 -1.8533  0.1285 -1.3621
   40SOL     OW  118   2.031   2.512   2.611 -0.0522  0.3585  0.0306
   40SOL    HW1  119   2.014   2.616   2.603  1.9449  0.7877 -1.3641
   40SOL    HW2  120   1.985   2.469   2.533 -0.6739  0.8216  3.7202
   41SOL     OW  121   3.019   0.662   2.826  0.3759  0.9593 -0.3487
   41SOL    HW1  122   2.968   0.752   2.821  0.7301  0.1978  0.9272
   41SOL    HW2  123   2.996   0.595   2.744 -3.0127  2.3450 -2.6948
   42SOL     OW  124   1.784   1.740   0.575  0.4353 -0.5744  0.1101
   42SOL    HW1  125   1.732   1.651   0.585  2.8847  0.9178 -1.4092
   42SOL    HW2  126   1.829   1.752   0.482  2.4980 -0.7428 -0.7167
   43SOL     OW  127   0.501   1.662   1.232 -0.5513  0.1186 -0.8435
   43SOL    HW1  128   0.510   1.574   1.179  0.1008  3.1681  0.3469
   43SOL    HW2  129   0.411   1.671   1.277  0.0960  1.7030  0.4747
   44SOL     OW  130   1.661   2.391   2.980 -0.2448 -0.5090 -0.1213
   44SOL    HW1  131   1.578   2.455   2.971 -2.7171  0.3086  1.1545
   44SOL    HW2  132   1.714   2.398   2.889  0.5682 -3.7583 -2.0933
   45SOL     OW  133   0.370   1.913   2.555  0.0160  0.0976  0.4056
   45SOL    HW1  134   0.293   1.895   2.483 -1.1140  2.3912 -0.4497
   45SOL    HW2  135   0.439   1.833   2.564  3.2181 -1.0485 -0.5974
   46SOL     OW  136   1.286   0.697   0.269 -0.6556  0.5328  0.3736
   46SOL    HW1  137   1.305   0.753   0.182 -0.9768  0.4065  2.1477
   46SOL    HW2  138   1.225   0.618   0.256 -0.7404  1.5906  1.0312
   47SOL     OW  139   0.180   2.455   1.564 -0.0603 -0.1691  0.1457
   47SOL    HW1  140   0.130   2.361   1.569 -3.0512 -2.5181 -0.0952
   47SOL    HW2  141   0.197   2.490   1.469  1.3923  1.0734 -0.1653
   48SOL     OW  142   2.675   0.633   0.151  0.3774 -0.1091  0.0542
   48SOL    HW1  143   2.652   0.665   0.252  0.9228  3.3028  2.5635
   48SOL    HW2  144   2.770   0.663   0.117  2.1385 -0.7899  1.8099
   49SOL     OW  145   0.334   0.799   1.758 -0.2089  0.7001 -0.2509
   49SOL    HW1  146   0.419   0.799   1.817 -0.4377 -0.1193 -1.8567
   49SOL    HW2  147   0.351   0.743   1.674  2.1824  0.1194 -0.0554
   50SOL     OW  148   1.739   1.141   0.313  0.3453  0.3294  0.0840
   50SOL    HW1  149   1.763   1.043   0.285 -0.1955  1.1501 -0.6280
   50SOL    HW2  150   1.682   1.146   0.401  1.3594 -0.2180 -1.0307
   51SOL     OW  151   3.011   1.744   0.267 -0.3314 -0.3686  0.1755
   51SOL    HW1  152   2.951   1.684   0.202 -1.1531  1.0374 -1.5918
   51SOL    HW2  153   3.081   1.690   0.317 -0.7894  1.3170 -1.5836
   52SOL     OW  154   0.802   2.151   0.647 -0.0908 -0.2195 -0.2168
   52SOL    HW1  155   0.701   2.158   0.674 -2.7041  2.8135 -0.4225
   52SOL    HW2  156   0.843   2.062   0.676 -1.4319  1.6470  1.4747
   53SOL     OW  157   0.223   0.442   1.508  0.5910  0.1917 -1.0713
   53SOL    HW1  158   0.281   0.527   1.498 -1.5902 -0.1271  0.6962
   53SOL    HW2  159   0.131   0.453   1.467 -1.6506 -1.2677  1.4268
   54SOL     OW  160   1.776   0.502   3.085 -0.4376  0.1368  0.0203
   54SOL    HW1  161   1.835   0.432   3.130 -3.0033 -0.8243  0.3099
   54SOL    HW2  162   1.678   0.506   3.123 -2.5709 -3.1487  0.9692
   55SOL     OW  163   0.730   2.930   0.702 -0.3428  0.7310 -0.7621
   55SOL    HW1  164   0.677   3.018   0.688  0.0016  2.5768 -1.1941
   55SOL    HW2  165   0.823   2.937   0.658 -0.2220  1.3720 -2.3202
   56SOL     OW  166   0.584   1.590   3.069  0.1512 -0.4999 -0.0436
   56SOL    HW1  167   0.497   1.634   3.108 -2.2531  0.6525 -0.0965
   56SOL    HW2  168   0.577   1.490   3.040 -1.4634 -0.8187 -1.0090
   57SOL     OW  169   1.747   2.503   2.402 -0.5498 -0.0164 -0.4891
   57SOL    HW1  170   1.802   2.413   2.418 -2.9622  1.2356  0.8659
   57SOL    HW2  171   1.646   2.493   2.428 -0.5949  1.9871  3.2428
   58SOL     OW  172   0.666   0.247   1.089 -0.3624 -0.4457 -0.4847
   58SOL    HW1  173   0.587   0.238   1.154  0.8530  1.1346 -0.1629
   58SOL    HW2  174   0.720   0.160   1.090  1.4928  1.0608  0.9148
   59SOL     OW  175   0.454   2.410   2.724  0.3749 -0.4176 -0.3932
   59SOL    HW1  176   0.442   2.312   2.697 -2.0516  0.7556  1.0844
   59SOL    HW2  177   0.556   2.439   2.741 -0.3301 -1.8093  0.8896
   60SOL     OW  178   2.278   2.111   2.347  0.0438 -0.3593 -0.0823
   60SOL    HW1  179   2.339   2.117   2.260  2.9073 -1.6102 -0.4470
   60SOL    HW2  180   2.320   2.158   2.433 -1.0640  1.4210  2.8549
   61SOL     OW  181   1.209   0.645   0.531 -0.1009  0.1261  0.0567
   61SOL    HW1  182   1.125   0.691   0.571 -4.1614 -2.2472  4.1837
   61SOL    HW2  183   1.225   0.691   0.440 -1.1879 -1.5091 -0.4011
   62SOL     OW  184   2.721   1.706   2.754  0.4100 -0.0862 -0.3640
   62SOL    HW1  185   2.637   1.645   2.770  0.5120  2.1120 -1.0903
   62SOL    HW2  186   2.807   1.681   2.806 -1.1053  0.9440  0.8942
   63SOL     OW  187   0.533   0.906   0.198 -0.5797  0.2484 -0.1105
   63SOL    HW1  188   0.597   0.943   0.124 -0.1915 -1.9378 -0.6374
   63SOL    HW2  189   0.562   0.931   0.292 -0.9183 -1.3207 -0.1573
   64SOL     OW  190   3.035   0.572   2.324 -0.3122  0.5086 -0.7643
   64SOL    HW1  191   2.965   0.614   2.389 -3.1624 -1.5339  1.9430
   64SOL    HW2  192   3.022   0.610   2.231  1.9058  0.4881 -0.7263
   65SOL     OW  193   0.197   1.432   0.717  0.2958  0.1605  0.1190
   65SOL    HW1  194   0.205   1.500   0.793 -2.2170 -1.0122  3.5370
   65SOL    HW2  195   0.244   1.459   0.627  2.5849 -0.9475  0.5809
   66SOL     OW  196   2.539   0.375   0.528  0.3223 -0.2585  0.0890
   66SOL    HW1  197   2.639   0.361   0.535 -2.2724 -2.2604 -2.3091
   66SOL    HW2  198   2.484   0.316   0.595 -1.2694 -2.7097  0.3475
   67SOL     OW  199   0.633   2.488   1.472 -0.5528  0.2988  0.1164
   67SOL    HW1  200   0.717   2.439   1.504  0.7347  0.4066 -0.0896
   67SOL    HW2  201   0.548   2.429   1.455  0.0679 -0.4572  0.2443
   68SOL     OW  202   0.972   1.010   2.464  0.2288 -0.3315 -1.0661
   68SOL    HW1  203   1.046   0.936   2.431 -0.8511 -3.9460 -2.9861
   68SOL    HW2  204   0.942   1.082   2.393 -2.4623  0.0744  0.6796
   69SOL     OW  205   0.800   2.742   2.287  0.4510  0.0600  0.9248
   69SOL    HW1  206   0.819   2.668   2.216  1.5713 -0.6120  1.9718
   69SOL    HW2  207   0.696   2.749   2.295  0.2923 -1.4392  1.4440
   70SOL     OW  208   0.432   0.110   2.489 -0.2561  0.0945  0.0343
   70SOL    HW1  209   0.349   0.051   2.508  0.0723  1.0586 -0.7999
   70SOL    HW2  210   0.511   0.051   2.517  0.0969  1.3156  0.5357
   71SOL     OW  211   1.093   1.728   0.314 -0.3301 -0.1104  0.0408
   71SOL    HW1  212   1.061   1.654   0.384 -0.3219  2.5452  0.0200
   71SOL    HW2  213   1.030   1.741   0.232 -0.9142  0.3529 -2.3596
   72SOL     OW  214   1.820   0.213   2.164 -0.2942  0.1736  0.1077
   72SOL    HW1  215   1.864   0.309   2.177  2.9609  3.1999  1.1609
   72SOL    HW2  216   1.885   0.137   2.156  0.5214  0.4174  0.0334
   73SOL     OW  217   2.777   2.190   2.431 -0.5742  0.0218 -0.2288
   73SOL    HW1  218   2.774   2.086   2.415  1.4454 -0.6816  0.6833
   73SOL    HW2  219   2.788   2.208   2.534 -0.5562  2.7609  1.1588
   74SOL     OW  220   2.724   2.876   2.158  0.3352  0.1618  0.0644
   74SOL    HW1  221   2.727   2.883   2.265 -1.0459 -0.2654  0.0217
   74SOL    HW2  222   2.794   2.940   2.122  0.0344 -0.4193  1.4640
   75SOL     OW  223   0.989   0.873   1.110  0.7009 -0.6134 -0.1626
   75SOL    HW1  224   0.891   0.890   1.091  2.6755  1.3390  3.0243
   75SOL    HW2  225   1.025   0.917   1.198 -1.2909 -0.1511 -0.6419
   76SOL     OW  226   1.873   1.273   2.508  0.3011 -0.1869  0.5232
   76SOL    HW1  227   1.777   1.281   2.544 -0.2398 -3.1793  1.6934
   76SOL    HW2  228   1.915   1.365   2.514  1.2388 -0.0477  1.2549
   77SOL     OW  229   2.889   0.942   1.058 -0.2252  0.2689 -0.0285
   77SOL    HW1  230   2.844   0.846   1.041 -0.7671 -1.7171  0.4680
   77SOL    HW2  231   2.969   0.934   1.125 -2.2296 -3.4980 -0.4084
   78SOL     OW  232   2.007   1.331   1.345 -0.2298  0.0514 -0.9551
   78SOL    HW1  233   2.074   1.305   1.275 -1.3119 -1.9491  1.7267
   78SOL    HW2  234   1.952   1.410   1.310 -1.4479 -1.4027 -1.1927
   79SOL     OW  235   0.680   1.404   0.812 -0.3953  0.7983  1.0791
   79SOL    HW1  236   0.582   1.389   0.818  1.5729  1.1588 -0.4275
   79SOL    HW2  237   0.733   1.341   0.749 -0.3113  1.8299 -2.4477
   80SOL     OW  238   0.568   0.533   1.537 -0.4695  0.2731 -0.1126
   80SOL    HW1  239   0.624   0.596   1.478 -1.2933  0.6655 -0.7400
   80SOL    HW2  240   0.597   0.435   1.540 -0.3018 -0.6964 -2.1005
   81SOL     OW  241   0.987   1.282   2.608  0.1633 -0.1938 -0.2554
   81SOL    HW1  242   0.960   1.183   2.618  2.5871 -1.2562 -2.1738
   81SOL    HW2  243   0.943   1.326   2.527 -0.8359  2.1492 -0.7368
   82SOL     OW  244   0.973   2.869   1.533 -0.6986 -0.2123 -0.1003
   82SOL    HW1  245   0.897   2.801   1.522 -0.7418  0.1917 -1.3798
   82SOL    HW2  246   1.025   2.898   1.449 -0.7663 -0.5288  2.1927
   83SOL     OW  247   2.551   2.357   0.881  0.0307 -0.3821  0.4056
   83SOL    HW1  248   2.485   2.308   0.813  0.5059 -0.3196  0.4861
   83SOL    HW2  249   2.548   2.459   0.872  1.1671  3.2780 -0.9837
   84SOL     OW  250   0.743   0.028   2.344 -0.4685 -0.2976 -0.1496
   84SOL    HW1  251   0.712  -0.032   2.427  0.5589 -0.1487  2.0192
   84SOL    HW2  252   0.824  -0.007   2.293 -0.4762 -1.3026  1.4322
   85SOL     OW  253   0.264   1.653   1.428  0.5189  0.0189  0.1073
   85SOL    HW1  254   0.222   1.749   1.442 -1.0321  4.2586 -2.5812
   85SOL    HW2  255   0.342   1.627   1.495 -0.7699 -1.7685  1.9160
   86SOL     OW  256   0.408   1.023   1.569 -0.0758 -0.3520  0.4130
   86SOL    HW1  257   0.381   0.986   1.478 -1.0431  0.6019  1.8216
   86SOL    HW2  258   0.402   0.955   1.643 -2.7028  2.0387 -2.4627
   87SOL     OW  259   1.622   0.659   0.298 -0.4090 -0.6640  0.5964
   87SOL    HW1  260   1.702   0.721   0.272 -1.6675 -2.1527  0.7409
   87SOL    HW2  261   1.572   0.639   0.213  2.9104  2.2073  2.3400
   88SOL     OW  262   1.603   1.400   0.282 -0.2774  0.0544 -0.2138
   88SOL    HW1  263   1.664   1.315   0.278  3.0363  1.5186 -1.1605
   88SOL    HW2  264   1.504   1.383   0.253  0.4055 -3.1433 -0.9407
   89SOL     OW  265   0.007   0.338   0.589 -0.3482  0.6698 -0.6436
   89SOL    HW1  266   0.079   0.264   0.597  0.5581  3.2714  1.0319
   89SOL    HW2  267  -0.087   0.307   0.552  2.1270  0.5648  0.0797
   90SOL     OW  268   0.776   1.592   0.163 -0.0206  0.3244 -0.2241
   90SOL    HW1  269   0.863   1.537   0.161  1.2932 -0.9955  2.2557
   90SOL    HW2  270   0.706   1.577   0.085  0.8506 -0.5214 -0.6575
   91SOL     OW  271   1.182   1.476   1.776  0.0297  0.4360 -0.0078
   91SOL    HW1  272   1.203   1.556   1.842 -2.1966  3.3875  2.3813
   91SOL    HW2  273   1.238   1.393   1.804 -0.1491  0.2593  2.6114
   92SOL     OW  274   0.015   0.987   1.206  0.3079 -0.0356  0.0629
   92SOL    HW1  275   0.077   1.071   1.187 -0.5501  0.8944  2.7268
   92SOL    HW2  276  -0.002   0.968   1.308  0.8738 -2.5041 -1.0436
   93SOL     OW  277   3.039   2.711   0.034 -0.1951 -0.1242 -0.1673
   93SOL    HW1  278   3.065   2.733  -0.062 -2.8163 -0.7159  1.4395
   93SOL    HW2  279   3.059   2.616   0.064  0.7318  2.3897 -0.7235
   94SOL     OW  280   1.510   1.369   1.728  0.1810 -0.9622 -0.6290
   94SOL    HW1  281   1.584   1.296   1.747  0.6576 -0.1899  0.7987
   94SOL    HW2  282   1.544   1.461   1.754  0.6005 -1.2424  1.9321
   95SOL     OW  283   1.389   2.485   2.943 -0.0297 -0.2950 -0.1848
   95SOL    HW1  284   1.292   2.487   2.973  0.7746 -1.6325 -0.3093
   95SOL    HW2  285   1.408   2.390   2.895  1.9200 -1.6310 -1.3058
   96SOL     OW  286   0.589   2.105   1.272  0.2731  0.3531  0.3850
   96SOL    HW1  287   0.517   2.070   1.206  0.2093 -0.5199 -0.2055
   96SOL    HW2  288   0.626   2.032   1.338  1.1323 -0.4550  3.1957
   97SOL     OW  289   0.294   1.640   2.429 -0.3022 -0.1777 -0.1190
   97SOL    HW1  290   0.253   1.726   2.382 -0.3320  0.4641  0.5794
   97SOL    HW2  291   0.268   1.627   2.527  0.8038  2.6751  0.3486
   98SOL     OW  292   2.223   1.644   1.245  0.6919  0.1170 -0.3839
   98SOL    HW1  293   2.129   1.644   1.200 -0.7246 -1.5131  1.7639
   98SOL    HW2  294   2.297   1.593   1.194 -3.3522  1.5114 -1.0835
   99SOL     OW  295   2.564   2.142   1.302 -0.2869 -0.3708 -0.5512
   99SOL    HW1  296   2.655   2.165   1.341  2.8297 -0.5766 -2.7317
   99SOL    HW2  297   2.539   2.041   1.321  1.6320  0.0644  0.2833
  100SOL     OW  298   2.310   0.404   2.108 -0.3285 -0.3921  0.2112
  100SOL    HW1  299   2.253   0.388   2.192  1.7990  1.6671  1.9980
  100SOL    HW2  300   2.409   0.425   2.137  1.5807  2.3722 -1.6379
  101SOL     OW  301   0.407   1.549   0.527  0.3575  0.1785 -0.1164
  101SOL    HW1  302   0.417   1.635   0.585  0.4263 -1.7386  0.7771
  101SOL    HW2  303   0.482   1.532   0.465 -4.0113 -0.1281  1.4879
  102SOL     OW  304   2.303   1.085   0.870 -0.7055 -0.0570 -0.1811
  102SOL    HW1  305   2.279   0.981   0.853  1.1393 -1.4005  1.4451
  102SOL    HW2  306   2.374   1.118   0.803  1.6024 -0.4898 -0.3673
  103SOL     OW  307   2.245   0.065   0.347 -0.1960 -0.1029  0.0126
  103SOL    HW1  308   2.304   0.101   0.269  1.0625  1.4039  0.3918
  103SOL    HW2  309   2.305   0.046   0.430  1.7930 -0.8840 -0.5422
  104SOL     OW  310   0.029   1.806   2.124  0.0658 -0.7171  0.6712
  104SOL    HW1  311   0.070   1.792   2.027  0.2161  0.3913 -2.0856
  104SOL    HW2  312  -0.076   1.830   2.129  0.0867 -1.9638  0.6632
  105SOL     OW  313   1.373   2.093   0.788  0.6405 -0.1907  0.0905
  105SOL    HW1  314   1.409   2.094   0.690  1.5874 -1.4557 -1.8148
  105SOL    HW2  315   1.328   2.002   0.805 -0.1282  0.3512 -0.7144
  106SOL     OW  316   2.128   0.385   1.444  0.5244  0.0415  0.6438
  106SOL    HW1  317   2.091   0.290   1.429  3.6642  0.7773 -4.8664
  106SOL    HW2  318   2.124   0.416   1.543 -0.1102  0.0072 -0.2066
  107SOL     OW  319   1.959   2.944   1.180 -0.1422 -0.5080 -0.6109
  107SOL    HW1  320   1.920   3.036   1.205 -0.9506 -0.3542  0.1528
  107SOL    HW2  321   1.880   2.882   1.156  1.0508  1.4111 -2.5325
  108SOL     OW  322   0.833   2.859   1.194 -0.0397  0.3816  0.4383
  108SOL    HW1  323   0.836   2.776   1.132  0.3683  0.8807 -0.9334
  108SOL    HW2  324   0.925   2.872   1.244 -0.3720 -0.8504  1.5841
  109SOL     OW  325   2.149   0.170   0.712  0.2370  0.2742 -0.0120
  109SOL    HW1  326   2.085   0.102   0.666  0.4182  0.5548 -0.7077
  109SOL    HW2  327   2.098   0.220   0.789 -0.0518  1.1875 -1.1717
  110SOL     OW  328   0.463   2.783   2.790 -0.1885  0.0563 -0.3761
  110SOL    HW1  329   0.443   2.773   2.693 -0.7709  1.5614  1.7109
  110SOL    HW2  330   0.532   2.713   2.828  0.9122 -2.5320  1.5839
  111SOL     OW  331   1.274   0.494   2.307  0.1098 -0.2660 -0.0677
  111SOL    HW1  332   1.186   0.529   2.350 -1.1508 -1.0548  2.0299
  111SOL    HW2  333   1.329   0.431   2.364 -0.3847  1.1482 -2.3521
  112SOL     OW  334   1.773   0.385   1.489 -0.1791 -0.2473 -0.3989
  112SOL    HW1  335   1.743   0.429   1.402  1.7875  2.1734  0.3677
  112SOL    HW2  336   1.690   0.381   1.556 -0.4507 -0.3211 -0.7344
  113SOL     OW  337   2.381   1.700   1.740  0.1086  0.3461  0.6954
  113SOL    HW1  338   2.352   1.605   1.721 -1.2783 -0.3915  1.6921
  113SOL    HW2  339   2.431   1.711   1.827 -0.1512  1.3010  1.4223
  114SOL     OW  340   0.298   0.481   1.219  0.2858 -0.1736  0.4539
  114SOL    HW1  341   0.356   0.521   1.141 -1.3878 -1.9909  1.0235
  114SOL    HW2  342   0.218   0.549   1.242  0.1425 -0.0875  0.8391
  115SOL     OW  343   2.708   1.545   1.197 -0.7802  0.3542 -0.4528
  115SOL    HW1  344   2.702   1.455   1.242 -1.0415  0.2619  0.6304
  115SOL    HW2  345   2.798   1.547   1.143  1.3543 -0.2706  0.1131
  116SOL     OW  346   1.879   0.924   0.741  0.5905 -0.2839  0.5929
  116SOL    HW1  347   1.797   0.856   0.731  1.6760  0.1434 -0.4433
  116SOL    HW2  348   1.845   1.027   0.746 -1.7294 -1.1123  0.0457
  117SOL     OW  349   1.106   0.350   0.571 -0.1701 -0.0256  0.7452
  117SOL    HW1  350   1.107   0.449   0.571  0.2070 -1.9187 -0.0169
  117SOL    HW2  351   1.127   0.320   0.473  0.6420 -1.9300 -1.9096
  118SOL     OW  352   1.113   1.210   1.084 -0.0087  0.0390 -0.1582
  118SOL    HW1  353   1.010   1.216   1.099  2.3683  0.2097  1.2804
  118SOL    HW2  354   1.157   1.298   1.119  0.7217  0.2714 -1.2316
  119SOL     OW  355   1.859   1.551   2.220  0.0412 -0.4359 -0.5074
  119SOL    HW1  356   1.825   1.617   2.147  0.9488  2.0652  1.2758
  119SOL    HW2  357   1.957   1.524   2.206  3.3125  3.4975  2.6329
  120SOL     OW  358   2.904   2.793   0.246  0.5075 -0.3402 -0.1008
  120SOL    HW1  359   2.969   2.762   0.170 -0.7248 -2.2981 -0.1336
  120SOL    HW2  360   2.803   2.773   0.236 -1.5816 -0.8410 -1.8213
  121SOL     OW  361   1.940   0.746   2.236  0.6633 -0.2499  0.6920
  121SOL    HW1  362   1.965   0.797   2.148 -0.1990  2.5381  0.0754
  121SOL    HW2  363   1.958   0.646   2.236  1.3097  0.6700  1.7217
  122SOL     OW  364   2.579   2.497   1.331  0.6669 -0.5991 -0.5514
  122SOL    HW1  365   2.634   2.426   1.284  0.2094  1.5512  3.8921
  122SOL    HW2  366   2.536   2.465   1.420  2.3761 -0.1395 -0.3194
  123SOL     OW  367   1.693   0.167   1.737 -0.7886 -0.0716  0.1572
  123SOL    HW1  368   1.706   0.073   1.703  1.0657  0.2035  1.1116
  123SOL    HW2  369   1.780   0.216   1.726  0.7033  0.8402  0.0753
  124SOL     OW  370   3.072   0.443   1.079  0.0679 -0.3852  0.5428
  124SOL    HW1  371   3.000   0.500   1.126 -1.3604  0.0399 -1.5396
  124SOL    HW2  372   3.095   0.470   0.981 -0.0391 -0.2905  0.2520
  125SOL     OW  373   0.867   1.907   0.823 -0.4173  0.6596  0.6205
  125SOL    HW1  374   0.953   1.850   0.812  3.4537  0.1169 -0.6397
  125SOL    HW2  375   0.891   2.005   0.850 -1.4147 -1.0814 -1.4963
  126SOL     OW  376   1.916   2.300   2.448 -0.9083 -0.0256  0.7159
  126SOL    HW1  377   1.965   2.268   2.358 -0.2691  0.8225 -0.9668
  126SOL    HW2  378   1.922   2.222   2.519  0.3071  1.8629  1.4411
  127SOL     OW  379   0.881   0.993   0.228 -0.1497  0.1617  0.2853
  127SOL    HW1  380   0.940   1.016   0.314  0.6260 -0.3341 -0.3165
  127SOL    HW2  381   0.883   0.894   0.206 -0.4796  2.3974  1.4225
  128SOL     OW  382   0.953   0.262   1.438  0.2330 -0.3214  0.8252
  128SOL    HW1  383   0.942   0.313   1.347  1.1430 -2.8007 -2.2605
  128SOL    HW2  384   0.912   0.167   1.456  1.2427 -2.1719  0.5884
  129SOL     OW  385   1.858   0.695   1.847 -0.1990  0.3126  0.5558
  129SOL    HW1  386   1.875   0.678   1.745  0.3817 -1.5243  4.8621
  129SOL    HW2  387   1.876   0.788   1.882 -1.8524 -0.7590  0.4911
  130SOL     OW  388   1.373   2.288   0.972  0.1022  1.0478 -0.3111
  130SOL    HW1  389   1.361   2.208   0.903 -2.0810 -0.4647 -1.2946
  130SOL    HW2  390   1.463   2.338   0.956 -0.2751 -1.2712 -0.6315
  131SOL     OW  391   3.081   1.430   1.360  0.4541 -0.3001 -0.0017
  131SOL    HW1  392   3.087   1.330   1.394  1.3960 -3.6816  0.2000
  131SOL    HW2  393   3.174   1.472   1.361  0.1233  0.7950 -0.6209
  132SOL     OW  394   2.050   2.362   0.501  0.2951 -0.1963  0.5158
  132SOL    HW1  395   1.957   2.407   0.515  1.5405 -1.1258 -0.0338
  132SOL    HW2  396   2.058   2.274   0.553 -0.2852 -0.9079 -0.1691
  133SOL     OW  397   1.763   2.412   2.729 -0.6812  0.8748  0.6192
  133SOL    HW1  398   1.698   2.409   2.647 -1.1047  2.6699 -1.5292
  133SOL    HW2  399   1.852   2.458   2.712  1.4538  0.8372 -1.0676
  134SOL     OW  400   2.701   2.395   1.588 -0.2711  0.2381  0.0199
  134SOL    HW1  401   2.646   2.370   1.670 -0.1932  0.6233 -2.7804
  134SOL    HW2  402   2.779   2.461   1.601  0.9156 -2.3956 -0.2756
  135SOL     OW  403   0.727   1.427   2.683  0.2011 -0.2648 -0.6829
  135SOL    HW1  404   0.704   1.331   2.688  1.2547  2.6758 -2.6642
  135SOL    HW2  405   0.760   1.453   2.590 -1.2662 -1.6395 -0.7815
  136SOL     OW  406   1.179   2.039   0.391 -0.0551  0.3642 -0.3173
  136SOL    HW1  407   1.121   2.110   0.444 -1.0434 -0.8829  2.2411
  136SOL    HW2  408   1.128   1.950   0.378  3.1217 -3.8949 -0.0990
  137SOL     OW  409   0.403   1.223   2.242  0.0087 -0.2221  0.0075
  137SOL    HW1  410   0.323   1.216   2.310 -0.3635 -2.6849 -0.7522
  137SOL    HW2  411   0.462   1.135   2.244 -0.2189  3.0511 -0.5798
  138SOL     OW  412   2.449   1.530   0.267  0.1107  0.0232 -0.2892
  138SOL    HW1  413   2.351   1.532   0.230 -1.5033 -0.3042  0.6776
  138SOL    HW2  414   2.470   1.432   0.292 -1.3854 -0.1568  0.3110
  139SOL     OW  415   1.855   2.658   1.579 -0.8669  0.4178  0.2554
  139SOL    HW1  416   1.763   2.692   1.549  2.5942  2.2274  0.6435
  139SOL    HW2  417   1.878   2.564   1.539  0.1637 -0.2298  1.5354
  140SOL     OW  418   2.984   2.961   2.617 -0.2496  0.3483 -0.2633
  140SOL    HW1  419   3.022   2.864   2.597 -0.8327  1.5721  1.5160
  140SOL    HW2  420   3.056   3.032   2.590  1.0613 -1.5104 -2.3403
  141SOL     OW  421   1.292   1.624   1.543 -0.0007 -0.3134 -0.0051
  141SOL    HW1  422   1.209   1.687   1.561  0.7914 -0.6769 -1.5421
  141SOL    HW2  423   1.298   1.545   1.611  1.5963 -0.3404  1.3112
  142SOL     OW  424   1.497   0.651   2.216  0.3747  0.1989 -0.5440
  142SOL    HW1  425   1.465   0.687   2.126 -1.0488  2.3135  1.7911
  142SOL    HW2  426   1.419   0.620   2.274  0.5388 -0.1754 -0.1507
  143SOL     OW  427   2.769   0.802   0.551  0.1781  0.6887  0.2660
  143SOL    HW1  428   2.822   0.826   0.466 -1.2081 -0.1820  1.7606
  143SOL    HW2  429   2.798   0.855   0.630  0.4201 -2.3372  0.1671
  144SOL     OW  430   2.929   1.178   1.444  0.1142  0.0967  0.5017
  144SOL    HW1  431   2.863   1.163   1.524 -1.8027  0.7145 -0.9056
  144SOL    HW2  432   3.009   1.109   1.437  0.5622 -1.6029 -0.1975
  145SOL     OW  433   0.875   1.849   0.102 -0.7570 -0.5898 -0.1299
  145SOL    HW1  434   0.857   1.902   0.015  2.0844 -1.0005  0.3502
  145SOL    HW2  435   0.836   1.755   0.106  0.0740 -0.2148  0.6433
  146SOL     OW  436   2.454   0.686   1.515  0.0559  0.7028 -0.0388
  146SOL    HW1  437   2.441   0.592   1.473 -1.4542 -1.0402  3.3425
  146SOL    HW2  438   2.403   0.764   1.468 -0.4376 -1.9033 -0.3837
  147SOL     OW  439   1.105   2.508   0.610 -0.2943 -0.2744 -0.0929
  147SOL    HW1  440   1.054   2.563   0.535 -1.7330 -0.7262 -0.4567
  147SOL    HW2  441   1.200   2.473   0.580  0.4549  1.8149 -0.0007
  148SOL     OW  442   1.611   1.473   3.070  0.3878  0.1928 -0.0983
  148SOL    HW1  443   1.595   1.377   3.037  3.2868 -0.4781  0.4698
  148SOL    HW2  444   1.604   1.470   3.171  1.5637 -0.9958  0.2239
  149SOL     OW  445   0.665   1.518   1.957 -0.0105 -0.0752  0.3428
  149SOL    HW1  446   0.573   1.488   1.995 -0.5017 -0.7425  1.9290
  149SOL    HW2  447   0.713   1.458   1.885 -1.2269 -1.8200 -0.7310
  150SOL     OW  448   3.031   1.170   0.971  0.1733  0.1892 -0.5471
  150SOL    HW1  449   3.118   1.158   1.024  0.2887 -0.3483 -0.5275
  150SOL    HW2  450   2.962   1.102   0.989  1.7322  3.6415  0.0926
  151SOL     OW  451   0.268   0.820   2.095 -0.1256  0.8500  0.4413
  151SOL    HW1  452   0.309   0.916   2.081  0.8162 -0.6209  0.7560
  151SOL    HW2  453   0.295   0.748   2.027  0.4244  2.2516  0.9216
  152SOL     OW  454   1.449   1.840   1.115  0.5427 -0.0927 -0.4641
  152SOL    HW1  455   1.477   1.935   1.125 -0.9938 -2.3650  0.5402
  152SOL    HW2  456   1.348   1.837   1.092  1.8038  0.4992  0.4390
  153SOL     OW  457   0.143   1.521   0.212  0.0423  0.5508 -0.1879
  153SOL    HW1  458   0.136   1.413   0.220 -0.1079 -1.8240 -0.0231
  153SOL    HW2  459   0.124   1.570   0.303 -0.3556  0.9412  1.4657
  154SOL     OW  460   2.264   1.800   2.771  0.1235 -0.8864 -0.0453
  154SOL    HW1  461   2.297   1.706   2.800 -0.3863 -0.7421 -0.5477
  154SOL    HW2  462   2.331   1.859   2.724 -1.4302  0.5936  0.0330
  155SOL     OW  463   2.452   1.266   0.351 -0.7596  0.6099  0.5187
  155SOL    HW1  464   2.557   1.250   0.336 -0.8771  0.2340 -2.7570
  155SOL    HW2  465   2.408   1.175   0.354  0.8000  0.1684 -0.2140
  156SOL     OW  466   2.422   0.835   0.697 -0.3215  0.0761 -0.1597
  156SOL    HW1  467   2.320   0.827   0.713 -1.3454  1.4227 -0.0365
  156SOL    HW2  468   2.442   0.910   0.627 -1.7802 -0.6861 -0.3737
  157SOL     OW  469   1.202   2.982   3.003  0.0419  0.2914  0.0661
  157SOL    HW1  470   1.240   2.928   2.917 -2.4817 -2.0566  0.0658
  157SOL    HW2  471   1.249   3.071   3.022 -1.8937 -1.3751  0.1671
  158SOL     OW  472   1.071   1.858   1.840  0.1241 -0.0428  0.0167
  158SOL    HW1  473   1.073   1.957   1.803 -1.1318  2.4157  1.2326
  158SOL    HW2  474   0.980   1.844   1.888  0.4856 -1.1063 -1.1508
  159SOL     OW  475   0.854   0.426   1.229  0.0264  0.0948  0.1153
  159SOL    HW1  476   0.779   0.483   1.278 -3.4006 -1.1097  0.0669
  159SOL    HW2  477   0.823   0.384   1.144  1.0268 -1.8867  0.2026
  160SOL     OW  478   1.449   2.453   1.460 -0.3137  0.2600 -0.5487
  160SOL    HW1  479   1.385   2.391   1.515  0.8705 -1.7659  2.7727
  160SOL    HW2  480   1.540   2.412   1.423 -0.1577  1.5967 -2.5637
  161SOL     OW  481   3.041   2.649   0.437  0.2128  0.4032 -0.3580
  161SOL    HW1  482   3.006   2.556   0.436  2.8738  0.6895 -0.8896
  161SOL    HW2  483   2.970   2.707   0.390 -0.2828  0.4033  1.1453
  162SOL     OW  484   2.581   1.865   0.466 -0.3227  0.2893 -0.0094
  162SOL    HW1  485   2.550   1.849   0.367 -3.1759 -2.8609  0.3541
  162SOL    HW2  486   2.538   1.789   0.522 -3.3921  0.5743 -1.0708
  163SOL     OW  487   1.958   2.706   0.757 -0.0224 -0.1478  0.4600
  163SOL    HW1  488   1.936   2.715   0.658  0.7991  3.0041  2.5553
  163SOL    HW2  489   2.009   2.618   0.778 -2.3182  0.2083 -0.9124
  164SOL     OW  490   3.076   0.214   1.199  0.5458 -0.7659  0.1174
  164SOL    HW1  491   3.069   0.305   1.152  2.7740 -0.8087  0.9681
  164SOL    HW2  492   3.140   0.223   1.274  0.5008  1.4912  0.7760
  165SOL     OW  493   1.119   1.402   0.674  0.3544 -0.0716 -0.1813
  165SOL    HW1  494   1.132   1.446   0.768  1.0133 -0.2175  0.6209
  165SOL    HW2  495   1.071   1.459   0.601  3.6483 -0.0900  0.5803
  166SOL     OW  496   1.503   1.003   1.795  0.0241  0.2263  0.3614
  166SOL    HW1  497   1.426   1.026   1.859 -0.6241 -1.5783 -1.0916
  166SOL    HW2  498   1.572   1.078   1.780  0.8153 -1.5359  1.0946
  167SOL     OW  499   0.700   1.966   1.464 -1.1219  0.3467  0.0230
  167SOL    HW1  500   0.703   2.046   1.528 -1.2597 -0.7131  2.2582
  167SOL    HW2  501   0.664   1.874   1.505 -0.5086 -2.9720  0.2089
  168SOL     OW  502   1.547   2.331   0.148  0.0135 -0.1173 -0.1339
  168SOL    HW1  503   1.586   2.347   0.053 -2.2705  0.0519  0.5800
  168SOL    HW2  504   1.620   2.324   0.222  3.4660  0.5617 -2.9835
  169SOL     OW  505   0.064   2.550   2.187 -0.0596 -0.1434  0.2255
  169SOL    HW1  506   0.110   2.497   2.109 -1.0142 -2.2307 -0.9842
  169SOL    HW2  507   0.114   2.546   2.276 -3.5248  1.9157 -0.7363
  170SOL     OW  508   1.169   0.179   2.044  0.2502 -0.7963 -0.1874
  170SOL    HW1  509   1.253   0.193   2.100  1.4414 -0.7982  0.4364
  170SOL    HW2  510   1.189   0.156   1.945  0.2586  2.7920  1.4150
  171SOL     OW  511   0.240   0.864   2.338  0.2608  0.0209 -0.1330
  171SOL    HW1  512   0.142   0.871   2.383 -2.1291  0.7333  0.0117
  171SOL    HW2  513   0.250   0.826   2.244  0.4052  1.5521  1.1376
  172SOL     OW  514   0.963   1.049   2.857  0.0459  0.3877  0.2122
  172SOL    HW1  515   0.916   1.124   2.917 -1.2102  1.3970 -0.1444
  172SOL    HW2  516   0.896   1.012   2.785  0.0643 -0.7212 -0.5418
  173SOL     OW  517   0.487   2.477   0.090 -0.2453  0.4806  0.0100
  173SOL    HW1  518   0.475   2.456  -0.012  2.7827  3.0765 -1.5504
  173SOL    HW2  519   0.412   2.426   0.142  0.6473  0.2048  1.5945
  174SOL     OW  520   1.526   2.860   1.088 -0.5283 -0.1283 -0.2705
  174SOL    HW1  521   1.592   2.893   1.015  0.3217 -0.7594 -2.7614
  174SOL    HW2  522   1.480   2.769   1.060 -1.2768 -0.1924  3.1879
  175SOL     OW  523   0.399   3.061   1.730  0.0348  0.1925 -0.1830
  175SOL    HW1  524   0.494   3.058   1.768  1.1852 -0.7789  1.4180
  175SOL    HW2  525   0.371   3.156   1.697 -3.5132  1.9716  1.0615
  176SOL     OW  526   2.638   0.378   0.026 -0.0333  0.2548  0.1868
  176SOL    HW1  527   2.638   0.468   0.078 -0.0912  1.5553  1.0152
  176SOL    HW2  528   2.659   0.294   0.081  3.4028  1.5261 -1.7490
  177SOL     OW  529   0.377   0.314   0.965  0.5311 -0.0558 -0.3849
  177SOL    HW1  530   0.358   0.219   0.927  1.6593 -1.4626 -3.6052
  177SOL    HW2  531   0.336   0.331   1.056 -0.7602  1.6560 -0.9867
  178SOL     OW  532   0.024   2.726   2.554  0.5734  0.0591  0.2455
  178SOL    HW1  533   0.003   2.625   2.540 -1.7910 -0.6936 -2.0667
  178SOL    HW2  534   0.091   2.745   2.631  0.0499 -1.2277  1.8852
  179SOL     OW  535   2.976   1.539   1.125 -0.0215  0.3843  0.1216
  179SOL    HW1  536   3.058   1.552   1.069 -2.6139  1.1127  0.9996
  179SOL    HW2  537   2.993   1.484   1.209 -1.6215 -3.1540  0.1199
  180SOL     OW  538   0.199   1.371   1.795  0.3287 -0.0838  0.2414
  180SOL    HW1  539   0.290   1.317   1.801  0.6186  1.6916  1.9273
  180SOL    HW2  540   0.160   1.394   1.884 -0.3259  1.2114 -4.7998
  181SOL     OW  541   2.969   1.902   2.542 -0.0939 -0.1236  0.1382
  181SOL    HW1  542   3.034   1.980   2.511 -0.8719 -0.7139 -1.9341
  181SOL    HW2  543   2.879   1.893   2.489 -2.0893  2.1474 -1.3588
  182SOL     OW  544   2.301   1.325   1.250 -0.5294  0.8549  0.0813
  182SOL    HW1  545   2.243   1.280   1.182  1.9568  2.1693  0.7366
  182SOL    HW2  546   2.353   1.406   1.207 -0.5027  1.2350 -2.1510
  183SOL     OW  547   1.401   2.301   2.466  0.0756 -0.8094 -0.2322
  183SOL    HW1  548   1.336   2.223   2.494  0.3402 -3.3469 -0.0648
  183SOL    HW2  549   1.495   2.265   2.442  1.2867  0.8492  2.1597
  184SOL     OW  550   2.137   0.811   0.756 -0.1796  0.1496  0.0607
  184SOL    HW1  551   2.044   0.866   0.770 -2.7656 -1.0983 -3.6753
  184SOL    HW2  552   2.120   0.714   0.714  0.0183 -1.8962 -0.0540
  185SOL     OW  553   1.560   2.775   2.035  1.0454  0.7154 -0.4952
  185SOL    HW1  554   1.487   2.848   2.050  0.1607  0.3773 -1.4745
  185SOL    HW2  555   1.632   2.774   2.108 -0.0430  0.4842  0.8734
  186SOL     OW  556   0.071   2.215   1.668  0.5355  0.1174  0.3692
  186SOL    HW1  557   0.041   2.275   1.753 -1.7678 -1.3663  0.6306
  186SOL    HW2  558   0.161   2.158   1.687  1.1515 -2.5202  3.6575
  187SOL     OW  559   1.340   0.644   1.658  0.4858  0.2886 -0.5823
  187SOL    HW1  560   1.433   0.686   1.643 -4.3384  0.0079  0.3975
  187SOL    HW2  561   1.342   0.569   1.734 -0.2024 -0.3445 -0.0390
  188SOL     OW  562   2.746   2.713   1.443 -0.1719  0.2167  0.7069
  188SOL    HW1  563   2.712   2.807   1.458  0.6858 -1.9753 -2.3065
  188SOL    HW2  564   2.672   2.654   1.400  0.1925 -0.8625  0.1200
  189SOL     OW  565   0.912   1.203   1.368  0.2844  0.3310  0.1058
  189SOL    HW1  566   0.985   1.242   1.431  0.2066 -0.0398 -1.3088
  189SOL    HW2  567   0.843   1.275   1.333 -3.2309 -0.9896  0.9269
  190SOL     OW  568   1.457   1.897   1.524  0.1922 -0.5111 -0.0111
  190SOL    HW1  569   1.411   1.807   1.508  0.0362  1.0969  0.2146
  190SOL    HW2  570   1.505   1.905   1.615 -0.5669  3.1247 -1.5585
  191SOL     OW  571   0.880   0.814   1.514 -0.2998 -0.4571  0.1333
  191SOL    HW1  572   0.919   0.783   1.603  0.0338  0.1243  1.4466
  191SOL    HW2  573   0.945   0.851   1.445 -0.6262  0.6223  2.8093
  192SOL     OW  574   1.834   2.471   1.100 -0.1829 -0.5882 -0.0469
  192SOL    HW1  575   1.751   2.441   1.052 -0.5079 -0.1360  0.5565
  192SOL    HW2  576   1.924   2.431   1.070 -0.6323  2.0325  0.5157
  193SOL     OW  577   0.558   0.573   0.479  0.1205  0.2150 -0.0070
  193SOL    HW1  578   0.513   0.485   0.493 -0.3955  2.5413 -0.9774
  193SOL    HW2  579   0.596   0.586   0.380  3.6074 -2.1006 -3.1109
  194SOL     OW  580   0.355   0.885   1.320 -0.0146 -0.6961  0.5666
  194SOL    HW1  581   0.271   0.839   1.274 -0.8138  0.1797  2.8524
  194SOL    HW2  582   0.412   0.942   1.257  0.3840 -0.9897 -2.2706
  195SOL     OW  583   0.984   2.894   0.530 -0.0479  0.4740  0.4029
  195SOL    HW1  584   0.971   2.802   0.482 -1.2267  0.2699  0.6569
  195SOL    HW2  585   1.085   2.919   0.527  1.2204  0.9101  0.0906
  196SOL     OW  586   0.277   1.394   1.335  0.2734  0.3630  0.2262
  196SOL    HW1  587   0.282   1.485   1.384 -1.6307  1.7309 -0.2709
  196SOL    HW2  588   0.253   1.315   1.393 -0.1344  0.2814 -1.8244
  197SOL     OW  589   0.851   2.019   0.311 -0.1131  0.3371 -0.0422
  197SOL    HW1  590   0.841   1.980   0.405 -0.4195  0.6230  1.7783
  197SOL    HW2  591   0.858   1.939   0.244 -0.7007  0.4439  0.6656
  198SOL     OW  592   0.304   1.255   0.342  0.3074 -0.0556 -0.2528
  198SOL    HW1  593   0.200   1.239   0.345 -0.7161 -0.4428 -0.3309
  198SOL    HW2  594   0.315   1.353   0.375 -0.1108  0.7236 -0.2161
  199SOL     OW  595   2.217   0.468   2.584 -1.0944 -0.0014  0.1208
  199SOL    HW1  596   2.141   0.406   2.624 -1.8252  2.4444 -1.0008
  199SOL    HW2  597   2.311   0.439   2.619  0.2216  1.7603  1.2701
  200SOL     OW  598   3.077   2.976   0.821 -0.0645 -0.8039 -0.0261
  200SOL    HW1  599   3.066   3.069   0.869 -2.5296 -0.5938  1.3762
  200SOL    HW2  600   3.007   2.956   0.744 -1.9684 -1.3909 -1.1007
  201SOL     OW  601   0.929   0.717   0.517  0.3105 -0.6190  0.3720
  201SOL    HW1  602   0.888   0.798   0.575 -1.9337  1.9850  1.6618
  201SOL    HW2  603   0.889   0.629   0.555 -0.6070 -2.1445 -1.7174
  202SOL     OW  604   0.438   1.250   1.823  0.2546 -0.0726  0.1522
  202SOL    HW1  605   0.510   1.218   1.756 -0.6099 -1.4569 -3.2358
  202SOL    HW2  606   0.472   1.290   1.913 -1.7722  0.1807  0.8280
  203SOL     OW  607   0.656   0.226   1.561  0.2244  0.8164  0.3684
  203SOL    HW1  608   0.693   0.169   1.483 -0.7185  1.0955 -2.2007
  203SOL    HW2  609   0.724   0.225   1.641  3.2567 -2.0068  1.5062
  204SOL     OW  610   2.065   1.797   2.967  0.0324  0.0815 -0.5787
  204SOL    HW1  611   2.051   1.694   2.991 -1.6070 -2.4467  1.2996
  204SOL    HW2  612   2.122   1.805   2.876  2.1290  0.8749  1.0802
  205SOL     OW  613   1.841   1.874   3.087 -0.5484  0.1184  0.0192
  205SOL    HW1  614   1.925   1.837   3.034  1.8129  0.2156 -2.2567
  205SOL    HW2  615   1.797   1.950   3.032 -1.1117  0.7683 -1.2649
  206SOL     OW  616   2.417   2.757   0.308  0.1966 -0.6421 -0.7174
  206SOL    HW1  617   2.416   2.692   0.387 -1.4906  0.5736 -1.1625
  206SOL    HW2  618   2.501   2.760   0.252 -0.4602  2.5098 -2.1239
  207SOL     OW  619   0.724   1.768   2.843  0.1233  0.1902 -0.3071
  207SOL    HW1  620   0.816   1.729   2.810 -0.4647  0.2682  1.8120
  207SOL    HW2  621   0.663   1.694   2.889 -1.1237  1.3328 -2.2225
  208SOL     OW  622   1.028   1.618   1.233 -0.2058 -0.5560 -0.0306
  208SOL    HW1  623   1.002   1.679   1.154 -2.1020 -2.8705 -0.3541
  208SOL    HW2  624   0.966   1.625   1.313  0.0483 -2.7269 -1.4978
  209SOL     OW  625   0.247   0.980   3.085  0.4228 -0.6742  0.2119
  209SOL    HW1  626   0.222   0.899   3.020 -1.8482  0.6487  1.0508
  209SOL    HW2  627   0.237   0.949   3.181  0.7851  1.0323 -0.9211
  210SOL     OW  628   1.718   0.485   1.247 -0.2462  0.3152  0.0513
  210SOL    HW1  629   1.655   0.558   1.206 -0.8454 -0.8478  1.8989
  210SOL    HW2  630   1.816   0.491   1.213  2.4981  0.0926  0.6686
  211SOL     OW  631   2.063   1.010   1.581  0.6830  0.3773  0.1900
  211SOL    HW1  632   2.109   0.955   1.657  2.2586 -1.4354 -1.0731
  211SOL    HW2  633   2.121   1.081   1.537 -3.2759 -0.9287  2.9719
  212SOL     OW  634   0.019   0.986   1.481 -0.2314  0.5713  0.2928
  212SOL    HW1  635   0.083   1.060   1.526  1.7818 -1.7650  0.6013
  212SOL    HW2  636   0.023   0.894   1.531  0.5546 -0.8152 -1.4498
  213SOL     OW  637   2.778   0.201   0.260  0.5346 -0.0452  0.5169
  213SOL    HW1  638   2.870   0.155   0.231  3.6972  0.0983  1.5982
  213SOL    HW2  639   2.691   0.145   0.262  0.9278 -0.6768  0.5877
  214SOL     OW  640   2.157   0.341   2.334  0.2261  0.1078 -0.0025
  214SOL    HW1  641   2.189   0.399   2.412  1.2555 -1.3841 -4.1008
  214SOL    HW2  642   2.162   0.239   2.354  0.0493 -1.2880 -1.3322
  215SOL     OW  643   1.657   2.251   2.077  0.1949 -0.3505 -0.4667
  215SOL    HW1  644   1.760   2.270   2.079  1.4939 -0.2435 -1.2432
  215SOL    HW2  645   1.610   2.336   2.112 -0.6057 -2.3695  0.3546
  216SOL     OW  646   2.146   0.570   0.644 -0.0418 -0.5027  1.0372
  216SOL    HW1  647   2.103   0.476   0.625  0.7073 -0.1394  1.0613
  216SOL    HW2  648   2.212   0.594   0.561  3.9990  0.0080 -4.0123
  217SOL     OW  649   0.925   2.808   2.552 -0.6020 -0.8569 -0.4027
  217SOL    HW1  650   0.903   2.757   2.637  3.1969  1.1149 -0.3067
  217SOL    HW2  651   0.883   2.770   2.463 -1.6062 -0.4228 -2.1220
  218SOL     OW  652   1.884   1.467   0.012 -0.4452 -0.3366  0.2126
  218SOL    HW1  653   1.782   1.475  -0.003 -0.2593  1.4447 -1.3384
  218SOL    HW2  654   1.910   1.383   0.072 -0.5369  1.2689  1.5130
  219SOL     OW  655   2.460   1.261   2.512 -0.1279 -0.2768 -0.3186
  219SOL    HW1  656   2.496   1.211   2.431  2.3793  1.3813  1.2821
  219SOL    HW2  657   2.462   1.203   2.596 -0.5001 -0.1820  1.0375
  220SOL     OW  658   1.428   1.003   1.392 -0.2885  0.0316 -0.1440
  220SOL    HW1  659   1.532   0.986   1.401  1.0106 -0.9626 -1.8770
  220SOL    HW2  660   1.399   1.055   1.305  0.1261  2.8779  1.0601
  221SOL     OW  661   1.358   0.963   2.236  0.5399  0.6716 -0.1663
  221SOL    HW1  662   1.341   0.976   2.129  0.4440  1.8469 -2.0063
  221SOL    HW2  663   1.444   1.013   2.262 -0.5086 -1.0717 -0.3077
  222SOL     OW  664   1.116   0.092   1.235  0.3981 -0.6877  0.1078
  222SOL    HW1  665   1.116   0.170   1.304 -0.3138  1.5863  0.5632
  222SOL    HW2  666   1.104   0.120   1.138 -0.7168 -1.9198  1.1860
  223SOL     OW  667   2.701   0.921   2.090 -0.1913  0.2481  0.0736
  223SOL    HW1  668   2.666   1.013   2.059  0.5458  1.3123 -0.4431
  223SOL    HW2  669   2.796   0.927   2.125 -1.4901 -0.1077  2.2059
  224SOL     OW  670   1.579   1.058   2.746  0.6917 -0.5259 -0.0266
  224SOL    HW1  671   1.592   0.972   2.694 -0.2733 -0.6705 -0.9566
  224SOL    HW2  672   1.591   1.146   2.692  2.3475 -3.8810  3.1135
  225SOL     OW  673   2.959   2.691   2.861  0.1847 -0.6687  0.9081
  225SOL    HW1  674   2.871   2.671   2.806 -3.0708  0.0951 -2.2201
  225SOL    HW2  675   2.995   2.786   2.851  1.6360  0.1588  1.7194
  226SOL     OW  676   2.352   1.525   2.820  0.2497 -0.8103 -0.2327
  226SOL    HW1  677   2.399   1.526   2.729  0.0842  0.0124 -1.9146
  226SOL    HW2  678   2.394   1.471   2.895  0.1391  2.6825  2.9706
  227SOL     OW  679   0.844   0.263   3.070 -0.0418 -0.1205 -0.1551
  227SOL    HW1  680   0.886   0.357   3.042 -0.5441  0.2680  0.2467
  227SOL    HW2  681   0.782   0.227   2.993 -0.9850  0.0448 -0.2300
  228SOL     OW  682   2.414   0.621   2.830  0.7778  0.5249 -0.2159
  228SOL    HW1  683   2.427   0.704   2.773  0.8708  1.3659  0.3177
  228SOL    HW2  684   2.503   0.572   2.842 -3.6889 -0.0870  0.1753
  229SOL     OW  685   0.502   0.484   1.795 -0.4164  0.1942  0.4103
  229SOL    HW1  686   0.546   0.401   1.831 -1.5552  3.0240 -0.5540
  229SOL    HW2  687   0.524   0.504   1.693 -2.1613 -1.2879 -2.3413
  230SOL     OW  688   1.879   1.236   2.012  0.0825 -0.3096 -0.6266
  230SOL    HW1  689   1.947   1.312   1.986 -0.6023  0.8391  1.8488
  230SOL    HW2  690   1.808   1.264   2.080  0.4882  0.8139 -0.2591
  231SOL     OW  691   0.646   1.067   3.086 -0.4828 -0.2668 -0.0929
  231SOL    HW1  692   0.737   1.110   3.109  1.5136  0.9543  1.7330
  231SOL    HW2  693   0.569   1.132   3.129 -0.3275 -0.7240 -0.9704
  232SOL     OW  694   2.410   3.009   2.858  0.3414  0.2606 -0.7151
  232SOL    HW1  695   2.477   2.927   2.851 -1.6743 -3.4099  0.2776
  232SOL    HW2  696   2.424   3.077   2.777 -0.1881  0.3988 -0.9601
  233SOL     OW  697   1.734   1.224   1.171 -0.2825 -0.2638 -0.4578
  233SOL    HW1  698   1.810   1.239   1.106 -2.7342 -0.7907 -1.2724
  233SOL    HW2  699   1.711   1.126   1.178 -1.0571 -0.6471 -0.6167
  234SOL     OW  700   1.654   2.570   1.821 -0.2568 -0.4536 -0.3527
  234SOL    HW1  701   1.613   2.627   1.901 -1.5405  0.5587 -2.2464
  234SOL    HW2  702   1.601   2.484   1.807  1.3217  1.8368  2.9156
  235SOL     OW  703   3.091   2.935   2.895 -0.4788  0.1053  0.8268
  235SOL    HW1  704   3.056   2.966   2.801  0.3899  0.3869 -1.4921
  235SOL    HW2  705   3.068   3.005   2.974  0.5775  0.1516  0.7552
  236SOL     OW  706   2.930   0.651   0.073 -0.6666  0.6111 -0.5730
  236SOL    HW1  707   2.989   0.669   0.155  0.4429 -1.4694  1.7393
  236SOL    HW2  708   2.969   0.571   0.014  1.0843 -0.3579 -1.2120
  237SOL     OW  709   1.427   1.626   0.916 -0.6357 -0.1379 -0.3948
  237SOL    HW1  710   1.521   1.582   0.923 -1.7668 -1.2470 -0.7060
  237SOL    HW2  711   1.408   1.696   0.991 -0.1143  1.1042  1.2692
  238SOL     OW  712   1.891   1.193   0.785  0.1560 -0.0580  0.0891
  238SOL    HW1  713   1.907   1.232   0.883  0.6510  0.5399  2.6229
  238SOL    HW2  714   1.798   1.213   0.752 -2.2968  2.2880  2.5415
  239SOL     OW  715   2.061   0.261   2.736  0.0788 -0.1056 -0.5386
  239SOL    HW1  716   2.092   0.188   2.805  0.7768 -0.6856  1.5668
  239SOL    HW2  717   2.008   0.339   2.773  1.0258 -2.1204 -1.2692
  240SOL     OW  718   0.915   0.692   0.232 -0.5200  0.1680 -0.5402
  240SOL    HW1  719   0.988   0.624   0.201  3.1203 -1.8430  0.3820
  240SOL    HW2  720   0.915   0.705   0.338 -1.0496 -0.6572  3.0582
  241SOL     OW  721   0.574   0.112   0.390 -0.4072  0.2415 -0.1605
  241SOL    HW1  722   0.662   0.157   0.360 -1.0211  2.2488 -0.6609
  241SOL    HW2  723   0.530   0.063   0.318  0.0738  1.8853  2.9805
  242SOL     OW  724   0.630   2.551   1.170  0.1672 -0.0939  0.0079
  242SOL    HW1  725   0.641   2.529   1.272 -0.1129 -1.4641 -0.6890
  242SOL    HW2  726   0.600   2.650   1.151 -0.7730  1.8206 -3.2850
  243SOL     OW  727   1.046   0.598   2.395 -0.0278  0.3936 -0.3873
  243SOL    HW1  728   0.953   0.621   2.349 -1.1435 -0.2946  3.6436
  243SOL    HW2  729   1.037   0.577   2.496 -1.1498 -0.6230  0.6833
  244SOL     OW  730   2.765   1.906   2.357  0.0832  0.1322 -0.0951
  244SOL    HW1  731   2.812   1.903   2.266 -0.4624  3.2987 -0.9532
  244SOL    HW2  732   2.677   1.852   2.359  2.0201  0.8809 -0.5338
  245SOL     OW  733   2.179   0.933   2.146  0.1237  0.6236 -0.2000
  245SOL    HW1  734   2.280   0.914   2.170  0.4145 -0.5215 -2.3389
  245SOL    HW2  735   2.144   1.011   2.206 -0.5051 -0.0749  0.3807
  246SOL     OW  736   0.245   2.836   1.777  0.1167 -0.4497  0.5777
  246SOL    HW1  737   0.176   2.824   1.703  0.2612 -1.0246  1.9283
  246SOL    HW2  738   0.294   2.928   1.760 -1.6972 -1.5425  2.2739
  247SOL     OW  739   2.234   0.622   3.035 -0.2872 -0.0163 -0.0895
  247SOL    HW1  740   2.295   0.605   2.948 -0.7982  0.4156  0.2709
  247SOL    HW2  741   2.168   0.698   3.014  0.6292 -2.0524  2.2010
  248SOL     OW  742   2.196   1.849   1.626 -0.0357 -0.1342  0.2872
  248SOL    HW1  743   2.270   1.792   1.682 -1.0210  1.7819  1.2983
  248SOL    HW2  744   2.109   1.796   1.625 -1.1448  1.9297 -0.5696
  249SOL     OW  745   1.925   1.885   1.831 -0.7310  0.2331  0.2843
  249SOL    HW1  746   1.942   1.800   1.771 -0.3371 -0.6172  0.5091
  249SOL    HW2  747   2.018   1.926   1.857  0.4675  1.7866  0.0247
  250SOL     OW  748   1.081   0.703   1.858 -0.7970 -0.2567  0.3614
  250SOL    HW1  749   1.103   0.642   1.940 -1.8686  0.5385 -1.8178
  250SOL    HW2  750   1.077   0.656   1.765 -3.2074  0.3145 -1.3141
  251SOL     OW  751   3.022   1.643   2.554  0.2680 -0.3646 -0.4124
  251SOL    HW1  752   3.020   1.746   2.531  0.6018  2.0521 -2.4682
  251SOL    HW2  753   2.950   1.584   2.506  1.7938 -2.5144 -0.6761
  252SOL     OW  754   1.583   0.790   1.630 -0.4097  0.4335 -1.4401
  252SOL    HW1  755   1.623   0.827   1.543 -1.1016  0.6842 -2.5285
  252SOL    HW2  756   1.564   0.868   1.695 -3.1562 -1.5061 -0.8130
  253SOL     OW  757   0.974   1.535   0.490 -0.4038 -0.7868 -0.4367
  253SOL    HW1  758   0.966   1.458   0.416 -1.0043  1.7909 -1.7883
  253SOL    HW2  759   0.879   1.573   0.511 -1.5359 -0.6548  0.2026
  254SOL     OW  760   2.024   2.207   1.639  0.2103 -0.0001 -0.4638
  254SOL    HW1  761   1.959   2.141   1.599  0.7226 -1.1960 -1.6693
  254SOL    HW2  762   1.970   2.278   1.696 -0.9543  1.2227 -0.7046
  255SOL     OW  763   0.144   1.165   2.918  0.3440 -0.2641  0.7300
  255SOL    HW1  764   0.174   1.262   2.940 -2.6788 -2.7406 -1.5231
  255SOL    HW2  765   0.210   1.094   2.950  0.5668 -1.0373 -0.7580
  256SOL     OW  766   2.831   1.377   1.850 -0.0965  0.1179 -0.4542
  256SOL    HW1  767   2.760   1.447   1.814 -1.1081  0.5628 -1.0119
  256SOL    HW2  768   2.820   1.281   1.816  2.7353  2.4229  1.1538
  257SOL     OW  769   0.797   0.147   1.811  0.1880  0.4842  0.6124
  257SOL    HW1  770   0.843   0.236   1.790 -1.0807 -2.9851  2.3497
  257SOL    HW2  771   0.844   0.071   1.769 -0.3084  0.6390 -0.9682
  258SOL     OW  772   2.981   1.182   0.518  0.3063 -0.5629  0.4072
  258SOL    HW1  773   2.894   1.213   0.571  2.0591 -2.6144  0.2832
  258SOL    HW2  774   3.072   1.197   0.566 -0.7143  1.4345 -0.6505
  259SOL     OW  775   0.419   2.907   3.012  1.1285  0.1795 -0.5608
  259SOL    HW1  776   0.377   2.831   3.076 -1.9040 -2.8092 -1.4903
  259SOL    HW2  777   0.437   2.869   2.917  1.4183 -0.1352  0.3557
  260SOL     OW  778   2.734   0.756   2.739 -0.9036  0.3679 -0.0853
  260SOL    HW1  779   2.656   0.816   2.710  0.3978 -0.7401 -2.0015
  260SOL    HW2  780   2.713   0.662   2.780  2.0016  0.0445 -2.1070
  261SOL     OW  781   2.720   1.299   1.328 -0.1409 -0.1531  0.5237
  261SOL    HW1  782   2.669   1.235   1.267  2.1655  2.4954  0.7668
  261SOL    HW2  783   2.810   1.265   1.371  1.5286 -1.6549 -2.3290
  262SOL     OW  784   1.373   2.962   2.031 -0.4221 -0.4305  0.4627
  262SOL    HW1  785   1.420   3.053   2.001 -0.4191  1.6497  0.7774
  262SOL    HW2  786   1.286   2.935   1.982  1.2117  0.2242  1.4841
  263SOL     OW  787   0.796   0.687   2.285  0.0626 -0.4917 -0.0495
  263SOL    HW1  788   0.722   0.636   2.228 -1.7712  0.8273 -1.6448
  263SOL    HW2  789   0.847   0.749   2.221 -0.6132 -0.7528 -2.0495
  264SOL     OW  790   2.291   0.806   0.410 -0.0558  0.6534 -0.1412
  264SOL    HW1  791   2.291   0.739   0.327 -0.8748 -0.7196 -0.9977
  264SOL    HW2  792   2.386   0.854   0.416  1.8964 -1.1813 -3.5278
  265SOL     OW  793   0.956   2.392   2.611 -0.0642 -0.0885 -0.0047
  265SOL    HW1  794   1.014   2.464   2.654 -1.2560 -2.9433 -1.4418
  265SOL    HW2  795   0.938   2.312   2.677 -2.0818 -1.8072  3.4591
  266SOL     OW  796   1.318   1.765   3.059  0.2634 -0.1969 -0.0096
  266SOL    HW1  797   1.302   1.828   3.141 -3.7148  1.4607  0.1375
  266SOL    HW2  798   1.420   1.749   3.049  0.4405 -0.7046  1.3412
  267SOL     OW  799   1.096   0.018   2.267 -0.3240  0.6575 -0.4372
  267SOL    HW1  800   1.028  -0.048   2.216  1.0052 -1.0015 -1.6014
  267SOL    HW2  801   1.126   0.089   2.196 -2.7664 -2.0487  0.7541
  268SOL     OW  802   0.842   1.241   1.061  0.5892  0.1521 -0.1956
  268SOL    HW1  803   0.800   1.333   1.097  0.8746  1.4908  0.3101
  268SOL    HW2  804   0.882   1.256   0.969  1.5461 -1.8934  4.1053
  269SOL     OW  805   2.373   2.487   1.655  0.1995 -0.3838 -0.1649
  269SOL    HW1  806   2.440   2.431   1.706 -1.3163  0.3761  1.1817
  269SOL    HW2  807   2.306   2.528   1.720  2.2905 -2.8897  1.4452
  270SOL     OW  808   0.123   2.978   2.009  0.0781  0.1173 -0.0008
  270SOL    HW1  809   0.154   2.917   1.933 -0.2146  0.2825  1.1936
  270SOL    HW2  810   0.095   2.919   2.092 -1.8983  1.2919 -0.7496
  271SOL     OW  811   0.505   1.403   1.114  0.0543 -0.4942  0.3162
  271SOL    HW1  812   0.494   1.395   1.012  2.4259 -0.2373 -1.3874
  271SOL    HW2  813   0.419   1.388   1.168 -0.0962 -0.3717 -3.4601
  272SOL     OW  814   1.925   3.054   1.950 -0.7445  0.7052  0.3248
  272SOL    HW1  815   1.864   2.979   1.910 -2.2632 -0.3768 -0.7449
  272SOL    HW2  816   2.006   3.084   1.896 -0.3771  1.7599  2.8263
  273SOL     OW  817   1.527   1.458   2.771  0.5563  0.1088  1.0707
  273SOL    HW1  818   1.438   1.410   2.747 -2.2307  3.0735  0.4732
  273SOL    HW2  819   1.548   1.461   2.873  1.3514 -1.5323  2.1045
  274SOL     OW  820   1.159   0.520   2.039 -0.3127 -0.0271  0.2887
  274SOL    HW1  821   1.082   0.450   2.043 -2.4423  1.6514 -0.1869
  274SOL    HW2  822   1.217   0.520   2.127 -1.2100  2.9281 -1.0425
  275SOL     OW  823   0.624   2.117   1.936  0.1345 -0.1339  0.7889
  275SOL    HW1  824   0.573   2.206   1.955  0.4938  0.5890 -4.1944
  275SOL    HW2  825   0.560   2.034   1.927  2.9033 -0.7701  0.1587
  276SOL     OW  826   2.200   1.009   2.787  0.7866 -0.6001 -0.0026
  276SOL    HW1  827   2.120   1.066   2.752 -1.1748 -2.8466 -0.0197
  276SOL    HW2  828   2.164   0.919   2.824  0.9196 -0.8732 -3.9821
  277SOL     OW  829   3.070   0.796   0.290  0.4298 -0.2876  0.0196
  277SOL    HW1  830   3.158   0.843   0.266 -1.0607  0.7334  1.0817
  277SOL    HW2  831   3.085   0.716   0.354 -0.0415  2.2407  1.3838
  278SOL     OW  832   0.247   0.249   2.988  1.0317  0.0902  0.4672
  278SOL    HW1  833   0.330   0.192   2.969 -0.4791  0.4122  1.1680
  278SOL    HW2  834   0.261   0.353   2.984  2.5227  2.5930  1.6880
  279SOL     OW  835   0.267   0.057   0.922 -0.2697 -0.7119  0.1531
  279SOL    HW1  836   0.317   0.016   1.000  0.2681 -0.5393  0.0962
  279SOL    HW2  837   0.214  -0.015   0.867  0.8987  1.9317 -1.4128
  280SOL     OW  838   1.622   2.953   2.412  0.6422  0.2801  0.1484
  280SOL    HW1  839   1.686   3.011   2.471 -0.8138 -1.4731 -0.6099
  280SOL    HW2  840   1.554   3.005   2.342 -3.9806  0.8253 -0.4493
  281SOL     OW  841   0.537   0.942   2.260 -0.3680 -0.2746 -0.1607
  281SOL    HW1  842   0.539   0.845   2.226 -2.7708  1.0469 -2.9472
  281SOL    HW2  843   0.505   0.947   2.359  1.0019 -0.5701  1.1317
  282SOL     OW  844   1.776   2.457   0.549 -0.1999 -0.2682  0.3124
  282SOL    HW1  845   1.745   2.411   0.461 -1.3147  0.1868 -0.5092
  282SOL    HW2  846   1.734   2.552   0.558  0.1906 -2.5196  1.4398
  283SOL     OW  847   1.134   0.904   0.768  0.2296 -0.9488  0.0384
  283SOL    HW1  848   1.157   0.849   0.855 -0.1063  2.5742  1.4900
  283SOL    HW2  849   1.102   1.001   0.793 -0.7753 -1.9442 -0.6530
  284SOL     OW  850   2.249   2.832   2.467 -0.0404 -0.0371 -0.1337
  284SOL    HW1  851   2.343   2.824   2.430 -0.3658 -0.3714 -0.4350
  284SOL    HW2  852   2.238   2.839   2.571 -1.3938  1.2280 -3.8761
  285SOL     OW  853   1.384   0.023   2.588  0.0264 -0.0459  0.1133
  285SOL    HW1  854   1.437   0.005   2.501  0.2463 -1.6670 -1.5253
  285SOL    HW2  855   1.291   0.069   2.577 -0.0656 -0.9659  2.7448
  286SOL     OW  856   0.431   0.478   0.745 -0.5891  1.3091 -0.0214
  286SOL    HW1  857   0.433   0.408   0.828 -0.0562 -1.5432 -0.4481
  286SOL    HW2  858   0.435   0.422   0.659 -0.8253 -0.9405  1.0648
  287SOL     OW  859   0.084   1.322   2.661 -0.1150  0.3379 -0.1898
  287SOL    HW1  860   0.007   1.249   2.660  2.1997 -1.8371  0.5024
  287SOL    HW2  861   0.143   1.327   2.745 -1.1894 -0.9529 -4.3404
  288SOL     OW  862   1.521   2.735   1.634 -0.5713 -0.0025  0.3522
  288SOL    HW1  863   1.557   2.677   1.706 -2.4123 -0.7809 -2.6682
  288SOL    HW2  864   1.532   2.696   1.537  1.0468  0.8887  1.1583
  289SOL     OW  865   0.614   2.737   0.869 -0.0656 -0.1780  0.3269
  289SOL    HW1  866   0.642   2.795   0.792 -0.2112  2.4123  0.8139
  289SOL    HW2  867   0.613   2.787   0.958 -0.1571  0.2490 -2.7393
  290SOL     OW  868   2.803   1.118   1.734  0.0522 -0.2636 -0.2232
  290SOL    HW1  869   2.714   1.063   1.753 -0.8167  1.9929 -1.8763
  290SOL    HW2  870   2.888   1.072   1.773  2.0466 -0.4155 -2.4476
  291SOL     OW  871   1.948   0.005   0.065  0.3260 -0.3178 -0.0344
  291SOL    HW1  872   1.965   0.033   0.167 -0.5023  5.3187  0.5726
  291SOL    HW2  873   2.005   0.069   0.008  0.8265 -0.6629  1.3866
  292SOL     OW  874   3.008   1.186   3.076 -0.3016 -0.4362 -0.1562
  292SOL    HW1  875   2.977   1.261   3.017 -0.7171 -1.5960 -0.1963
  292SOL    HW2  876   3.095   1.143   3.045 -0.4634 -1.7175 -0.5527
  293SOL     OW  877   0.563   2.103   0.298  0.0159 -0.5315  0.4816
  293SOL    HW1  878   0.525   2.163   0.378 -1.0239 -0.0133  0.9616
  293SOL    HW2  879   0.659   2.073   0.320 -0.1589  1.2575  0.4914
  294SOL     OW  880   1.852   2.379   1.781  0.2473  0.3858 -0.3348
  294SOL    HW1  881   1.880   2.373   1.882  0.6134  1.7365 -2.1785
  294SOL    HW2  882   1.784   2.460   1.763  0.4043  0.6758  0.9454
  295SOL     OW  883   1.008   1.063   0.445  0.0788 -0.5576 -0.1881
  295SOL    HW1  884   1.113   1.063   0.465  2.3350 -0.7516 -1.0405
  295SOL    HW2  885   0.963   1.006   0.518  1.0676  2.8047  0.2294
  296SOL     OW  886   1.155   2.138   2.735 -0.1417  0.1636  0.2231
  296SOL    HW1  887   1.055   2.120   2.740 -1.7091  0.7610  2.3056
  296SOL    HW2  888   1.195   2.117   2.644  0.5224  0.2859  0.6988
  297SOL     OW  889   1.325   0.561   1.249 -0.5020 -0.1581 -0.9249
  297SOL    HW1  890   1.368   0.496   1.316  0.3696  1.9470 -4.4156
  297SOL    HW2  891   1.394   0.592   1.179  0.4727  0.6685  1.1459
  298SOL     OW  892   0.507   1.343   2.959 -0.6334 -0.0002 -0.4086
  298SOL    HW1  893   0.473   1.294   3.047  1.2647 -1.6208 -0.1444
  298SOL    HW2  894   0.548   1.274   2.890 -2.0194 -0.3810 -0.3913
  299SOL     OW  895   0.412   0.206   1.278 -0.0616 -0.6041 -0.8726
  299SOL    HW1  896   0.376   0.296   1.237  0.8691 -2.5223 -3.2110
  299SOL    HW2  897   0.408   0.211   1.379  1.5306 -0.0875 -2.2201
  300SOL     OW  898   1.275   1.752   2.567  0.1711  0.4001 -0.3524
  300SOL    HW1  899   1.272   1.660   2.512  2.1886  1.0792 -0.9710
  300SOL    HW2  900   1.354   1.755   2.638  0.3010  0.2294  2.7056
  301SOL     OW  901   0.424   0.337   0.502  0.3199  0.1320 -0.5579
  301SOL    HW1  902   0.330   0.299   0.504 -1.1136 -1.1554 -2.9771
  301SOL    HW2  903   0.479   0.282   0.434  1.6503  0.3862 -3.3919
  302SOL     OW  904   1.270   2.467   2.242  0.2063 -0.2788 -0.2324
  302SOL    HW1  905   1.171   2.483   2.273 -1.2013  0.1793 -1.1354
  302SOL    HW2  906   1.318   2.390   2.290 -0.2488  1.1606  0.0708
  303SOL     OW  907   0.966   2.405   0.819  0.8699  0.5171  0.4283
  303SOL    HW1  908   1.008   2.430   0.730 -0.5843 -3.5034 -0.3312
  303SOL    HW2  909   0.990   2.475   0.892 -0.3155  0.9642  2.8738
  304SOL     OW  910   0.107   1.890   0.675  0.2239  0.5012  0.1626
  304SOL    HW1  911   0.178   1.873   0.597  2.6269 -2.3763 -1.2051
  304SOL    HW2  912   0.036   1.953   0.649 -0.8455 -3.4306 -2.8360
  305SOL     OW  913   1.577   0.862   0.706  0.1722 -0.5446  0.3346
  305SOL    HW1  914   1.520   0.862   0.616 -3.8671 -0.0563 -0.8702
  305SOL    HW2  915   1.649   0.786   0.727  0.7082 -0.4455 -1.0743
  306SOL     OW  916   0.438   1.912   1.908 -0.5630 -0.7349  0.4039
  306SOL    HW1  917   0.522   1.855   1.887  1.3961 -0.2307 -1.4986
  306SOL    HW2  918   0.412   1.907   2.008 -0.4765 -0.4674  3.1518
  307SOL     OW  919   3.060   0.885   2.461 -0.5292 -0.1884 -0.0697
  307SOL    HW1  920   3.081   0.955   2.536  1.3251 -0.5892 -1.3220
  307SOL    HW2  921   2.987   0.821   2.494 -0.6891  1.0495  0.8142
  308SOL     OW  922   1.494   2.699   2.788 -0.6170  0.5383  0.4241
  308SOL    HW1  923   1.513   2.670   2.691 -0.2341  1.1269 -2.7263
  308SOL    HW2  924   1.434   2.634   2.838  3.4356 -1.3150  1.2068
  309SOL     OW  925   1.238   0.141   1.779  0.1580 -0.1409 -0.1094
  309SOL    HW1  926   1.337   0.113   1.799  0.8579  0.8412  0.3584
  309SOL    HW2  927   1.223   0.179   1.681  1.3919  0.4935  0.1112
  310SOL     OW  928   1.470   2.609   0.663 -0.4841 -0.1919 -0.2375
  310SOL    HW1  929   1.429   2.629   0.755  0.5501  1.7335 -2.6482
  310SOL    HW2  930   1.551   2.673   0.636  3.3548  2.9697 -3.4770
  311SOL     OW  931   1.106   0.972   1.780 -0.5999 -0.1739  0.1187
  311SOL    HW1  932   1.075   0.873   1.799 -3.2293 -1.3961  1.5419
  311SOL    HW2  933   1.153   0.979   1.686 -1.6379  1.3917 -1.6536
  312SOL     OW  934   1.525   0.664   1.075 -0.0223 -0.4788 -0.4796
  312SOL    HW1  935   1.542   0.767   1.068 -4.2170  2.8167  0.6828
  312SOL    HW2  936   1.502   0.633   0.981 -0.6212 -0.5223 -0.1830
  313SOL     OW  937   1.653   1.293   0.734  0.0604 -0.7086  0.0619
  313SOL    HW1  938   1.581   1.298   0.809 -0.9178  0.0812 -1.0692
  313SOL    HW2  939   1.614   1.235   0.651  1.7684  0.2309 -1.3787
  314SOL     OW  940   2.988   3.081  -0.004  0.1544 -0.5613 -0.0180
  314SOL    HW1  941   3.000   3.090   0.102 -1.2925  0.8746  3.4557
  314SOL    HW2  942   2.905   3.030  -0.032 -0.1237 -1.9165  0.2800
  315SOL     OW  943   1.173   0.201   2.780  0.2443 -0.3085  0.7350
  315SOL    HW1  944   1.154   0.145   2.697  0.6285  2.6771  0.2294
  315SOL    HW2  945   1.204   0.145   2.864  3.8333 -0.9867 -0.5279
  316SOL     OW  946   1.682   2.089   0.866  0.0654  0.0548 -0.1824
  316SOL    HW1  947   1.618   2.100   0.940  0.7462  2.2272  0.9891
  316SOL    HW2  948   1.709   2.181   0.823 -1.9760  1.0420  0.7570
  317SOL     OW  949   1.167   0.685   2.764 -0.1032  0.2205  0.1260
  317SOL    HW1  950   1.110   0.736   2.838 -1.6728  2.0799  2.6995
  317SOL    HW2  951   1.111   0.615   2.713  0.5280 -0.4394  1.4484
  318SOL     OW  952   1.420   3.067   2.275  0.6041 -0.0173  1.2726
  318SOL    HW1  953   1.412   3.167   2.245  0.2738  2.0152  1.6448
  318SOL    HW2  954   1.372   3.006   2.205  2.4271 -1.0163  0.0080
  319SOL     OW  955   0.661   2.390   2.958  0.1638  0.4026  0.5067
  319SOL    HW1  956   0.634   2.329   3.037 -1.2603  1.8829 -1.2299
  319SOL    HW2  957   0.724   2.344   2.890 -1.6262 -1.0623  2.4793
  320SOL     OW  958   1.703   2.245   0.379 -0.4035  0.1187  0.2919
  320SOL    HW1  959   1.771   2.170   0.402  1.5634 -2.7726 -2.6541
  320SOL    HW2  960   1.614   2.208   0.402 -1.0110 -1.7750 -1.6618
  321SOL     OW  961   1.674   2.773   0.526 -0.3710 -0.1738 -0.0863
  321SOL    HW1  962   1.588   2.815   0.496 -0.8356 -4.2370 -0.5690
  321SOL    HW2  963   1.753   2.839   0.535 -2.0021 -1.1406 -0.7951
  322SOL     OW  964   2.562   1.104   2.316 -0.6066 -0.0557  0.3008
  322SOL    HW1  965   2.651   1.077   2.360 -1.1069  1.5019  1.9314
  322SOL    HW2  966   2.503   1.018   2.301  1.7284  1.8289 -0.2823
  323SOL     OW  967   1.182   2.692   0.817 -0.1760  0.2228  0.2163
  323SOL    HW1  968   1.152   2.631   0.738  0.0421 -1.7132 -0.7865
  323SOL    HW2  969   1.143   2.792   0.813  3.6813 -0.7689  2.7456
  324SOL     OW  970   0.225   2.527   2.431 -0.3978 -0.1321  0.2766
  324SOL    HW1  971   0.156   2.461   2.474  1.4795 -1.0054  0.1568
  324SOL    HW2  972   0.205   2.629   2.444 -0.8113  2.6740  0.2140
  325SOL     OW  973   1.237   3.021   0.456  0.4217  0.5624  0.2293
  325SOL    HW1  974   1.181   3.045   0.373 -0.8142  2.2384  1.0187
  325SOL    HW2  975   1.272   3.108   0.497  0.5659  2.8412 -2.0676
  326SOL     OW  976   2.507   0.768   3.089  0.0511  0.3209 -0.1425
  326SOL    HW1  977   2.425   0.724   3.047  0.9680 -0.6799  0.6419
  326SOL    HW2  978   2.571   0.702   3.147  0.8306  2.9841  1.0077
  327SOL     OW  979   2.827   0.297   0.520  0.5782  0.2563  0.6966
  327SOL    HW1  980   2.812   0.279   0.423  2.3784  1.5110 -0.5286
  327SOL    HW2  981   2.821   0.220   0.584  2.1318  2.1291  0.5718
  328SOL     OW  982   2.559   0.661   0.392 -0.3380 -0.0085 -0.5526
  328SOL    HW1  983   2.606   0.664   0.485  0.6875 -0.6345 -1.9211
  328SOL    HW2  984   2.510   0.575   0.369  1.5241 -0.5084 -1.6001
  329SOL     OW  985   2.943   3.032   2.128 -0.1014  0.7649  0.1329
  329SOL    HW1  986   3.006   2.987   2.195  2.1699  2.2832 -0.5058
  329SOL    HW2  987   2.957   3.135   2.111  0.8886  0.5730 -0.3906
  330SOL     OW  988   0.550   0.231   1.906 -0.6235 -0.0880 -0.5206
  330SOL    HW1  989   0.631   0.194   1.857 -0.5655  1.1031  2.2056
  330SOL    HW2  990   0.534   0.173   1.992 -0.0083 -0.8019 -1.2382
  331SOL     OW  991   3.001   1.891   1.123  0.3123  0.5631  0.1637
  331SOL    HW1  992   2.979   1.883   1.023 -1.3518 -1.2716  1.1629
  331SOL    HW2  993   2.931   1.860   1.193  0.3092 -1.5952  1.8679
  332SOL     OW  994   0.394   1.194   0.074 -0.4047  0.5210  0.4962
  332SOL    HW1  995   0.353   1.111   0.023 -0.2819  2.2466 -1.9778
  332SOL    HW2  996   0.369   1.192   0.174 -0.6769  1.1671 -0.9074
  333SOL     OW  997   2.870   0.984   0.342 -0.4312  0.1315 -0.0128
  333SOL    HW1  998   2.919   1.050   0.403 -1.3893 -6.2321  0.0311
  333SOL    HW2  999   2.942   0.913   0.308  0.8509  0.6369 -1.7932
  334SOL     OW 1000   1.721   1.205   1.767 -0.0474 -0.4377  0.1100
  334SOL    HW1 1001   1.773   1.194   1.675 -1.2636 -1.5148 -0.9583
  334SOL    HW2 1002   1.792   1.220   1.844 -0.3156  2.0894  2.5756
  335SOL     OW 1003   1.933   2.800   2.623 -0.3252  0.6279  0.4998
  335SOL    HW1 1004   1.864   2.784   2.695  0.5888  0.4956  1.8160
  335SOL    HW2 1005   1.973   2.895   2.624 -0.1155  0.2477 -0.1313
  336SOL     OW 1006   0.246   3.093   2.706 -0.5781 -0.0213 -0.4584
  336SOL    HW1 1007   0.286   3.136   2.789  1.1002  1.7085 -1.0717
  336SOL    HW2 1008   0.248   2.986   2.709  2.7234 -1.8718  0.8593
  337SOL     OW 1009   0.958   2.904   2.955  0.6799  0.0863  0.0606
  337SOL    HW1 1010   0.935   2.822   3.009  4.6610 -0.0282  2.0215
  337SOL    HW2 1011   1.053   2.937   2.982 -4.5664  0.3247 -3.1221
  338SOL     OW 1012   0.016   0.932   0.665 -0.5608 -0.5980  0.3739
  338SOL    HW1 1013  -0.082   0.906   0.667  0.0537  0.9913 -2.9407
  338SOL    HW2 1014   0.035   1.032   0.691 -0.2389 -0.1676  1.1696
  339SOL     OW 1015   1.659   1.350   2.150  0.8757 -0.0861 -0.1910
  339SOL    HW1 1016   1.566   1.357   2.112  1.3153 -0.7714  1.4760
  339SOL    HW2 1017   1.720   1.431   2.156  0.1396  0.0983 -1.8751
  340SOL     OW 1018   2.231   0.795   1.149  0.1016 -0.3200 -0.0692
  340SOL    HW1 1019   2.148   0.859   1.153 -0.1641  2.2231  3.4822
  340SOL    HW2 1020   2.212   0.704   1.103 -0.0256  2.3305 -2.7576
  341SOL     OW 1021   1.913   2.047   0.410  0.4752  0.1447  0.4682
  341SOL    HW1 1022   1.927   2.093   0.320  2.0456  2.6040  2.0573
  341SOL    HW2 1023   1.997   2.003   0.451 -1.7527 -0.1041  0.3686
  342SOL     OW 1024   2.141   2.115   2.714 -0.0825  0.0180 -0.1922
  342SOL    HW1 1025   2.175   2.023   2.699 -0.5375  2.5297 -1.3029
  342SOL    HW2 1026   2.037   2.116   2.710 -0.2945  0.5666 -0.6051
  343SOL     OW 1027   0.399   0.786   2.747 -0.2068  0.3720 -0.0549
  343SOL    HW1 1028   0.402   0.818   2.647 -0.6022 -0.6425 -0.5099
  343SOL    HW2 1029   0.491   0.793   2.795 -0.4440 -0.5287  1.4318
  344SOL     OW 1030   1.926   1.479   0.414  0.0846 -0.3035  0.5260
  344SOL    HW1 1031   1.928   1.400   0.343 -1.1709  0.1021 -1.3868
  344SOL    HW2 1032   1.829   1.502   0.444 -0.4684  1.0826 -0.0770
  345SOL     OW 1033   1.400   2.212   2.854 -0.7811 -0.3828 -0.3292
  345SOL    HW1 1034   1.301   2.200   2.827  3.3295 -0.8619 -3.2560
  345SOL    HW2 1035   1.464   2.159   2.793  0.0306 -1.4364  0.6487
  346SOL     OW 1036   2.333   0.899   1.406 -0.3444 -0.4383 -0.2444
  346SOL    HW1 1037   2.304   1.000   1.426 -0.5672 -1.0584  0.1070
  346SOL    HW2 1038   2.286   0.861   1.320  1.0933 -1.2294  0.6836
  347SOL     OW 1039   0.724   2.759   1.659  0.0063  0.3978 -0.1190
  347SOL    HW1 1040   0.673   2.770   1.748 -0.9829  3.9848  0.7204
  347SOL    HW2 1041   0.660   2.739   1.580 -0.1544  0.2004  2.6515
  348SOL     OW 1042   0.168   0.781   2.914  0.0840 -0.5655  0.5512
  348SOL    HW1 1043   0.078   0.755   2.873  2.1324  0.2887  0.4726
  348SOL    HW2 1044   0.248   0.780   2.845 -2.1238  1.2754  0.1142
  349SOL     OW 1045   1.856   0.438   2.808  0.2264 -0.3225  0.0263
  349SOL    HW1 1046   1.829   0.497   2.723 -1.5961  0.7696 -0.6963
  349SOL    HW2 1047   1.822   0.470   2.899 -0.9771 -0.9243  0.5128
  350SOL     OW 1048   1.691   0.379   0.361 -0.2733  0.3180 -0.3783
  350SOL    HW1 1049   1.751   0.396   0.442 -0.7766 -0.2277  2.1115
  350SOL    HW2 1050   1.677   0.464   0.303 -0.5220  1.8551  3.1494
  351SOL     OW 1051   0.892   0.828   2.068 -0.3908  0.5415  0.2383
  351SOL    HW1 1052   0.905   0.929   2.083  0.5072  2.2641 -4.5729
  351SOL    HW2 1053   0.935   0.790   1.976 -0.1834 -1.1669  1.2566
  352SOL     OW 1054   2.069   1.348   0.616  0.0779  0.1685 -0.1332
  352SOL    HW1 1055   2.020   1.410   0.547 -1.1463 -0.8262  1.2597
  352SOL    HW2 1056   2.011   1.294   0.687  1.9697 -1.2209  1.5923
  353SOL     OW 1057   2.201   2.766   1.117  0.1818 -0.6174 -0.2749
  353SOL    HW1 1058   2.252   2.688   1.164  0.8520 -4.2561 -1.2182
  353SOL    HW2 1059   2.115   2.796   1.162 -0.7381 -0.4958  2.2327
  354SOL     OW 1060   0.233   1.436   2.872  0.1106 -0.1877  0.3211
  354SOL    HW1 1061   0.208   1.498   2.792  1.7873  2.6076  2.3782
  354SOL    HW2 1062   0.335   1.440   2.887  0.2559  2.0537  1.4710
  355SOL     OW 1063   0.710   1.581   0.597 -0.2353 -0.0810  0.6942
  355SOL    HW1 1064   0.712   1.525   0.684 -1.1665 -0.9271 -2.4061
  355SOL    HW2 1065   0.692   1.524   0.511 -0.3755  1.7260  0.9469
  356SOL     OW 1066   0.901   0.283   2.037  0.2196  0.1396  0.4066
  356SOL    HW1 1067   1.002   0.257   2.038  0.3294  2.7345 -0.5942
  356SOL    HW2 1068   0.847   0.214   1.976  1.3442 -1.8981 -1.5929
  357SOL     OW 1069   1.013   1.340   0.302  0.2914  0.1564 -1.0129
  357SOL    HW1 1070   1.113   1.340   0.289 -1.4026  3.9282  3.2679
  357SOL    HW2 1071   0.967   1.259   0.348  0.1406  1.6240  0.8737
  358SOL     OW 1072   1.672   1.494   0.538  0.6442 -0.5767  0.0695
  358SOL    HW1 1073   1.661   1.409   0.597  1.5669 -0.5781 -2.2120
  358SOL    HW2 1074   1.616   1.477   0.453  0.7551 -0.6825  2.7934
  359SOL     OW 1075   1.613   2.594   0.307  0.1980  0.3044 -0.1399
  359SOL    HW1 1076   1.520   2.557   0.289 -0.4915 -0.2322  0.1763
  359SOL    HW2 1077   1.615   2.663   0.381 -0.2207 -0.9130  0.1092
  360SOL     OW 1078   0.797   0.480   0.581  0.5416 -0.6358  0.1503
  360SOL    HW1 1079   0.701   0.521   0.569 -1.6795 -0.4595 -0.0353
  360SOL    HW2 1080   0.806   0.382   0.610  1.7363  2.9286 -0.3495
  361SOL     OW 1081   1.376   1.309   0.609 -0.1520  0.4897 -0.4668
  361SOL    HW1 1082   1.395   1.309   0.714  1.3921 -2.2359  0.4046
  361SOL    HW2 1083   1.282   1.343   0.588  1.7967  0.9462  2.7013
  362SOL     OW 1084   1.387   1.819   0.717 -0.5168  0.3552  0.2859
  362SOL    HW1 1085   1.415   1.746   0.784 -2.4256  1.3780  0.8779
  362SOL    HW2 1086   1.467   1.857   0.664  1.1253 -0.1374  2.1340
  363SOL     OW 1087   1.266   1.319   2.100  0.2699  0.3746  0.6437
  363SOL    HW1 1088   1.357   1.361   2.067  1.0060  2.8830 -0.8488
  363SOL    HW2 1089   1.194   1.396   2.109 -2.5802 -0.1310 -3.5010
  364SOL     OW 1090   0.545   2.362   2.062 -0.1438  0.3339 -0.2519
  364SOL    HW1 1091   0.450   2.385   2.094 -1.5522  0.6942 -3.0341
  364SOL    HW2 1092   0.576   2.413   1.974  0.3355  1.3608 -0.0574
  365SOL     OW 1093   0.983   1.943   1.359 -0.8065  0.0874 -0.3395
  365SOL    HW1 1094   0.886   1.960   1.385 -0.3063  0.6202  0.1618
  365SOL    HW2 1095   1.013   2.010   1.290  1.4754 -1.7834  0.0629
  366SOL     OW 1096   2.828   1.959   0.311 -0.4291 -0.5440 -0.1756
  366SOL    HW1 1097   2.792   1.869   0.339  0.6657  0.8393 -3.3858
  366SOL    HW2 1098   2.913   1.956   0.247  1.3713  0.2904  2.1615
  367SOL     OW 1099   0.893   1.211   0.038  0.0921 -0.0033 -0.1389
  367SOL    HW1 1100   0.916   1.138   0.108 -1.1731  0.1998 -3.0282
  367SOL    HW2 1101   0.980   1.268   0.016 -0.2374 -1.1577 -1.3479
  368SOL     OW 1102   1.480   0.581   0.576 -0.2165  0.2145  0.1192
  368SOL    HW1 1103   1.383   0.608   0.546  0.3651  1.1934 -3.5299
  368SOL    HW2 1104   1.546   0.613   0.504 -3.3012 -0.1761  0.1352
  369SOL     OW 1105   0.394   1.697   0.146  0.0284 -0.6714  0.2574
  369SOL    HW1 1106   0.427   1.755   0.226  0.9427 -1.3289 -0.5172
  369SOL    HW2 1107   0.340   1.612   0.169 -1.3626 -2.5332 -1.1834
  370SOL     OW 1108   0.377   2.189   1.071 -0.2270  0.4940  0.0048
  370SOL    HW1 1109   0.417   2.278   1.034 -0.4250  3.8129  1.0166
  370SOL    HW2 1110   0.313   2.145   0.998  0.0183 -0.5792  0.3868
  371SOL     OW 1111   2.901   2.259   2.681  0.2827  0.0806  0.8884
  371SOL    HW1 1112   2.923   2.159   2.685  3.6456  0.7720  0.4212
  371SOL    HW2 1113   2.898   2.304   2.775 -1.4334  0.2509 -1.1728
  372SOL     OW 1114   1.053   2.141   1.139 -1.0366 -0.3907 -0.1293
  372SOL    HW1 1115   0.984   2.156   1.062 -1.9730 -1.9093 -0.1293
  372SOL    HW2 1116   1.125   2.215   1.145  0.8961 -1.1190 -0.9494
  373SOL     OW 1117   1.903   1.931   0.984 -0.2245 -0.2593 -0.0840
  373SOL    HW1 1118   1.996   1.977   1.005 -0.0968  0.7590 -0.7858
  373SOL    HW2 1119   1.822   1.984   0.942  0.9625 -1.5365 -1.3422
  374SOL     OW 1120   1.878   0.435   0.566  0.1152  0.1026 -0.0429
  374SOL    HW1 1121   1.861   0.367   0.646  0.4441 -3.9366  2.2573
  374SOL    HW2 1122   1.947   0.389   0.502 -0.7171  0.8544  2.2696
  375SOL     OW 1123   2.418   2.216   1.088  0.0736  0.0652 -0.4305
  375SOL    HW1 1124   2.468   2.230   1.002  0.7574  1.8385 -0.3418
  375SOL    HW2 1125   2.477   2.208   1.173  0.4565  3.7504 -0.0477
  376SOL     OW 1126   0.018   0.640   1.423  0.3416  0.6554 -0.0667
  376SOL    HW1 1127   0.051   0.691   1.503 -1.5671 -1.1447 -1.3700
  376SOL    HW2 1128  -0.034   0.548   1.441  2.8696  0.5154 -1.6441
  377SOL     OW 1129   2.158   2.860   0.284 -0.0712 -0.0507 -0.4959
  377SOL    HW1 1130   2.175   2.960   0.294  0.9790 -0.5221 -0.4274
  377SOL    HW2 1131   2.247   2.807   0.300 -0.1280 -0.0168 -1.3427
  378SOL     OW 1132   1.805   1.891   2.463 -0.0608  0.0343  0.0278
  378SOL    HW1 1133   1.866   1.898   2.378 -1.2525 -2.4297 -0.4805
  378SOL    HW2 1134   1.777   1.793   2.478  0.8380  1.6084 -1.5103
  379SOL     OW 1135   0.745   0.206   2.834 -0.1098  0.1285  0.3175
  379SOL    HW1 1136   0.776   0.129   2.772 -0.9109 -0.4461 -0.5593
  379SOL    HW2 1137   0.753   0.303   2.799 -0.3915 -3.3585  0.5956
  380SOL     OW 1138   1.578   1.146   0.519  0.0665 -0.0296 -0.3142
  380SOL    HW1 1139   1.495   1.208   0.530 -0.9578  1.8092  0.4084
  380SOL    HW2 1140   1.544   1.050   0.479 -3.3800 -0.5793 -2.7049
  381SOL     OW 1141   1.323   1.209   1.577 -0.1038 -0.4503 -0.3900
  381SOL    HW1 1142   1.366   1.132   1.519 -1.6187 -1.2361 -0.4925
  381SOL    HW2 1143   1.389   1.263   1.632 -1.2790 -0.2042 -1.5863
  382SOL     OW 1144   1.810   0.874   0.240 -0.1958  0.4024  0.2156
  382SOL    HW1 1145   1.839   0.828   0.151  1.5559  0.0619  0.3037
  382SOL    HW2 1146   1.890   0.892   0.302  0.4792  0.7660 -0.5749
  383SOL     OW 1147   2.570   1.022   1.482 -0.1982  0.2246 -0.1724
  383SOL    HW1 1148   2.478   0.976   1.460 -1.6933  0.1041 -2.8604
  383SOL    HW2 1149   2.644   0.981   1.430  0.2097  0.0935  0.3096
  384SOL     OW 1150   0.856   2.252   0.143  0.3725 -0.0083  0.0152
  384SOL    HW1 1151   0.824   2.351   0.160  1.6136  1.4545 -0.8839
  384SOL    HW2 1152   0.868   2.196   0.227  0.8321  0.9437 -1.2156
  385SOL     OW 1153   2.956   2.037   1.675  0.3496  0.1386  0.1719
  385SOL    HW1 1154   3.033   2.103   1.653 -2.6510  1.9548 -3.0903
  385SOL    HW2 1155   2.990   1.935   1.674 -1.2915 -1.2219  0.2861
  386SOL     OW 1156   0.486   1.050   0.477 -0.2886  0.2754 -0.0338
  386SOL    HW1 1157   0.486   0.951   0.516  0.3895 -1.7084  1.4914
  386SOL    HW2 1158   0.395   1.089   0.458  3.3668  1.8473  1.6792
  387SOL     OW 1159   0.941   0.364   1.699  0.5935 -0.1361 -0.1005
  387SOL    HW1 1160   1.022   0.426   1.699 -1.4919  2.5574 -1.5371
  387SOL    HW2 1161   0.911   0.339   1.602  0.6674  3.1330  0.0119
  388SOL     OW 1162   1.185   2.727   1.768  0.2056 -0.5637 -0.3451
  388SOL    HW1 1163   1.222   2.756   1.677 -0.8862  0.1371  2.7792
  388SOL    HW2 1164   1.242   2.652   1.814 -0.1982  1.3437 -0.1329
  389SOL     OW 1165   0.137   2.963   1.367 -0.2859  0.4847 -0.0551
  389SOL    HW1 1166   0.039   2.950   1.338 -0.6579 -0.7766  1.5635
  389SOL    HW2 1167   0.195   2.875   1.367 -0.5526  1.3009  0.8497
  390SOL     OW 1168   1.043   0.975   1.356 -0.3156 -0.0286 -0.0661
  390SOL    HW1 1169   1.124   0.981   1.421  0.4593  1.1443  1.5623
  390SOL    HW2 1170   0.991   1.066   1.342  2.9934 -0.2612 -1.3613
  391SOL     OW 1171   2.173   1.157   1.096  0.0873  0.5178 -0.4814
  391SOL    HW1 1172   2.123   1.079   1.141 -0.3356  1.2006  0.4849
  391SOL    HW2 1173   2.238   1.125   1.020  0.6832  0.8246  4.0196
  392SOL     OW 1174   0.910   2.638   3.077 -0.0450 -0.1797  0.4868
  392SOL    HW1 1175   0.981   2.566   3.072 -2.5350 -0.0808  0.5215
  392SOL    HW2 1176   0.863   2.630   3.171 -0.9792 -1.3130  3.3898
  393SOL     OW 1177   0.316   0.569   1.987 -0.0328 -0.0707  0.0751
  393SOL    HW1 1178   0.251   0.489   1.996 -3.7780 -0.4129  1.0260
  393SOL    HW2 1179   0.392   0.545   1.918 -0.7002 -0.8044  2.1801
  394SOL     OW 1180   3.028   1.967   2.806  0.1166  0.8111 -0.6832
  394SOL    HW1 1181   3.127   1.982   2.829  2.0760  1.1203 -1.1780
  394SOL    HW2 1182   3.017   1.939   2.703 -1.7224  0.8659 -0.8679
  395SOL     OW 1183   1.611   1.961   0.652  0.3817  0.0470 -1.0780
  395SOL    HW1 1184   1.674   1.883   0.623 -0.2420 -0.9988 -1.0267
  395SOL    HW2 1185   1.637   2.000   0.748 -1.8612 -1.4361  1.6112
  396SOL     OW 1186   2.828   1.800   1.302  0.2686  0.2952  0.3276
  396SOL    HW1 1187   2.766   1.728   1.256  0.1966 -0.1223 -4.3372
  396SOL    HW2 1188   2.786   1.851   1.379  0.3024 -0.6004 -0.0239
  397SOL     OW 1189   1.016   2.240   0.516  0.3322  0.4634  0.0378
  397SOL    HW1 1190   0.920   2.222   0.551  0.2588  0.6186  1.3124
  397SOL    HW2 1191   1.051   2.334   0.547 -0.8234 -0.2143 -1.2863
  398SOL     OW 1192   2.156   3.093   1.047  0.1052  0.0224  0.4926
  398SOL    HW1 1193   2.081   3.034   1.088 -1.1544  2.0611  2.8964
  398SOL    HW2 1194   2.121   3.184   1.011  0.9736 -0.4485 -0.0242
  399SOL     OW 1195   3.068   2.469   2.571 -0.0779  0.3789  0.1019
  399SOL    HW1 1196   2.969   2.443   2.552 -0.1737 -2.8358 -2.4044
  399SOL    HW2 1197   3.102   2.424   2.658 -1.5281  0.5868 -1.9645
  400SOL     OW 1198   0.767   1.645   1.371  0.4127  0.5366  0.5039
  400SOL    HW1 1199   0.673   1.655   1.408 -2.0643 -0.6325  0.3589
  400SOL    HW2 1200   0.793   1.721   1.306  0.8417 -0.0269  1.3172
  401SOL     OW 1201   1.861   0.114   1.202  0.2249  0.2144 -0.5442
  401SOL    HW1 1202   1.931   0.120   1.277  0.2976 -1.6277  1.1441
  401SOL    HW2 1203   1.769   0.153   1.230 -1.0154  3.2028  3.2957
  402SOL     OW 1204   1.304   0.134   3.045  0.5369  0.9901 -0.0034
  402SOL    HW1 1205   1.400   0.132   3.007  0.9192 -1.2559 -0.6300
  402SOL    HW2 1206   1.271   0.223   3.088  0.1162  0.9621  2.1918
  403SOL     OW 1207   2.285   1.778   0.915 -0.2141 -0.0365 -0.2534
  403SOL    HW1 1208   2.387   1.773   0.912  1.5305 -0.9701  0.1985
  403SOL    HW2 1209   2.247   1.843   0.983  1.5145 -0.6289 -1.3018
  404SOL     OW 1210   0.210   2.463   2.832 -0.1694 -0.7572 -0.1856
  404SOL    HW1 1211   0.310   2.434   2.807  3.2617 -0.9923 -1.6446
  404SOL    HW2 1212   0.186   2.560   2.809 -2.7103 -0.1016 -2.0939
  405SOL     OW 1213   0.087   2.466   0.728 -0.0737 -0.2985  1.0754
  405SOL    HW1 1214   0.107   2.381   0.664 -1.5999  0.8102 -2.9064
  405SOL    HW2 1215   0.123   2.552   0.683  1.5394 -2.6677 -1.4002
  406SOL     OW 1216   0.055   1.544   3.045 -0.1969  0.3468 -0.1310
  406SOL    HW1 1217   0.133   1.499   2.987 -1.1587 -1.1566  0.4570
  406SOL    HW2 1218   0.083   1.548   3.144  0.6229  2.7008 -1.2459
  407SOL     OW 1219   1.547   0.951   0.957  0.0415 -0.0942 -0.4232
  407SOL    HW1 1220   1.537   0.903   0.863  1.7518 -0.2391  2.9196
  407SOL    HW2 1221   1.472   1.014   0.982  1.0191 -0.0006 -1.6400
  408SOL     OW 1222   1.587   2.440   0.948 -0.7893 -0.0861  0.2991
  408SOL    HW1 1223   1.653   2.408   0.872 -2.4162 -1.2998  0.7592
  408SOL    HW2 1224   1.541   2.532   0.930 -2.0471  0.7228  0.3608
  409SOL     OW 1225   0.675   0.772   0.760  0.6297 -0.0934  0.0004
  409SOL    HW1 1226   0.582   0.789   0.719  1.3040  1.5950 -1.4169
  409SOL    HW2 1227   0.688   0.689   0.818  1.9917 -0.3962  1.0432
  410SOL     OW 1228   1.280   2.052   1.375 -0.5875  0.0726 -0.4479
  410SOL    HW1 1229   1.343   1.982   1.418 -1.8344 -0.6310  0.5243
  410SOL    HW2 1230   1.175   2.023   1.365 -1.3984 -0.3796 -1.6067
  411SOL     OW 1231   2.641   1.820   3.022 -0.5414  0.1273  0.2615
  411SOL    HW1 1232   2.548   1.864   3.030 -1.6540  1.2069 -0.6977
  411SOL    HW2 1233   2.696   1.863   2.948  0.5513 -1.2445  0.0631
  412SOL     OW 1234   1.532   2.486   2.155 -0.0938 -0.2132 -0.0879
  412SOL    HW1 1235   1.537   2.562   2.083  3.9310  2.0329 -0.5240
  412SOL    HW2 1236   1.450   2.488   2.222 -0.6288 -1.7126 -0.6185
  413SOL     OW 1237   3.080   0.207   2.926  0.3615 -0.2837 -0.8362
  413SOL    HW1 1238   3.052   0.115   2.967 -2.3360  0.8240  1.3559
  413SOL    HW2 1239   3.181   0.221   2.954 -1.0839  1.0831  2.0585
  414SOL     OW 1240   1.897   1.539   1.170 -0.0791 -0.0091  0.0116
  414SOL    HW1 1241   1.847   1.630   1.177 -1.5622 -2.4229  0.4868
  414SOL    HW2 1242   1.839   1.475   1.118 -1.2728 -0.6960  0.0546
  415SOL     OW 1243   0.385   2.295   0.735 -0.0461 -0.0685 -0.7265
  415SOL    HW1 1244   0.416   2.343   0.819  0.8078 -3.3987 -4.2702
  415SOL    HW2 1245   0.288   2.262   0.738  0.9525 -1.3994 -4.4350
  416SOL     OW 1246   0.361   1.018   1.089  0.2247 -0.2044 -0.4208
  416SOL    HW1 1247   0.304   1.011   1.006  0.8268  1.9136  2.0229
  416SOL    HW2 1248   0.459   1.008   1.072 -1.3011 -0.4873  0.7960
  417SOL     OW 1249   2.272   2.346   2.020  0.1688  0.8616  0.8131
  417SOL    HW1 1250   2.325   2.284   2.086  2.6497 -1.0932  1.5181
  417SOL    HW2 1251   2.224   2.294   1.946  3.2348  0.1242 -1.0695
  418SOL     OW 1252   1.082   0.599   1.351  0.0714 -0.1193  0.5569
  418SOL    HW1 1253   1.004   0.591   1.283  0.0310 -0.9050 -3.1293
  418SOL    HW2 1254   1.175   0.609   1.309 -3.0400 -1.3811 -3.0452
  419SOL     OW 1255   0.948   0.480   2.949 -0.3827 -0.0943  0.2479
  419SOL    HW1 1256   0.891   0.504   2.869  2.4379  0.9586 -0.0498
  419SOL    HW2 1257   0.978   0.574   2.980  0.5738  0.2719 -1.6651
  420SOL     OW 1258   0.076   2.259   0.545  0.0222  0.3474  0.4594
  420SOL    HW1 1259   0.148   2.269   0.472 -0.7704 -2.1149 -0.5001
  420SOL    HW2 1260   0.016   2.173   0.538 -0.5622 -1.0536  1.1938
  421SOL     OW 1261   0.332   2.961   0.614 -0.0909 -0.4391 -0.3110
  421SOL    HW1 1262   0.303   2.921   0.706 -1.0966  0.5863  0.7406
  421SOL    HW2 1263   0.409   3.028   0.624 -1.3374 -2.0660 -0.0941
  422SOL     OW 1264   1.000   2.579   1.005 -0.2869  0.0003 -0.1829
  422SOL    HW1 1265   1.090   2.613   0.971  0.2315  0.2586 -1.5591
  422SOL    HW2 1266   0.996   2.578   1.111  0.4661 -2.8856  0.3649
  423SOL     OW 1267   0.158   0.743   1.211  0.0977  0.1029 -0.9384
  423SOL    HW1 1268   0.106   0.683   1.277 -1.5500 -0.8040  1.9662
  423SOL    HW2 1269   0.104   0.830   1.187 -2.7386  0.9405  1.0893
  424SOL     OW 1270   1.124   2.210   2.041  0.6213  0.2742 -0.1678
  424SOL    HW1 1271   1.127   2.313   2.018 -2.8701  0.8982  0.2748
  424SOL    HW2 1272   1.090   2.185   2.137 -0.5224 -0.0667  0.4366
  425SOL     OW 1273   1.963   1.303   1.017 -0.1668  0.4324  0.7079
  425SOL    HW1 1274   2.039   1.239   1.042 -2.6748 -0.5953 -0.1173
  425SOL    HW2 1275   1.987   1.404   1.000 -0.3588  1.5376 -0.1571
  426SOL     OW 1276   1.483   1.584   1.357 -0.4500 -0.1056 -0.8900
  426SOL    HW1 1277   1.487   1.662   1.289  0.6463 -3.4893  1.6304
  426SOL    HW2 1278   1.399   1.591   1.420 -4.5101  0.9440 -1.7993
  427SOL     OW 1279   1.906   2.333   2.091 -0.5685  0.0168  0.2690
  427SOL    HW1 1280   1.975   2.272   2.135  0.0749  0.1372  0.9419
  427SOL    HW2 1281   1.923   2.438   2.107  1.8265  4.8825 -2.7764
  428SOL     OW 1282   0.819   3.074   0.142  0.0152  0.6417 -0.2997
  428SOL    HW1 1283   0.833   3.166   0.103  0.3503 -0.2930  1.7198
  428SOL    HW2 1284   0.902   3.018   0.142 -3.8567  0.6300  1.4282
  429SOL     OW 1285   1.335   0.110   0.239  0.7624  0.2324 -0.5468
  429SOL    HW1 1286   1.428   0.094   0.281 -1.0210 -2.0783 -2.9138
  429SOL    HW2 1287   1.336   0.085   0.140  0.6310 -2.4681  1.4379
  430SOL     OW 1288   2.850   1.393   0.289  0.1760  0.2862 -0.4196
  430SOL    HW1 1289   2.854   1.442   0.197  3.6292  0.4349  1.7093
  430SOL    HW2 1290   2.861   1.451   0.372 -1.9124 -0.5907  2.2577
  431SOL     OW 1291   2.100   1.557   0.960  0.0730  0.5008  0.4370
  431SOL    HW1 1292   2.184   1.587   0.916 -2.1832  2.2212  1.5874
  431SOL    HW2 1293   2.018   1.602   0.915 -0.3569 -1.0437 -0.5638
  432SOL     OW 1294   2.948   2.222   1.156  0.3325 -0.7370 -0.1161
  432SOL    HW1 1295   2.958   2.125   1.189 -1.3340 -0.6524  2.6198
  432SOL    HW2 1296   2.981   2.285   1.232  0.3668  2.6243 -0.0091
  433SOL     OW 1297   1.839   0.261   0.805 -0.0507  0.0500  0.0999
  433SOL    HW1 1298   1.748   0.276   0.854  0.5984  0.1871 -1.6194
  433SOL    HW2 1299   1.910   0.294   0.864  1.4566 -0.1356  0.0467
  434SOL     OW 1300   1.539   0.343   0.690 -0.0184  0.2739 -0.0944
  434SOL    HW1 1301   1.513   0.430   0.638  0.8927 -1.2116  1.4707
  434SOL    HW2 1302   1.544   0.347   0.794  0.2617  1.2537  0.0329
  435SOL     OW 1303   1.475   1.502   2.031  0.4604 -0.4101 -0.3943
  435SOL    HW1 1304   1.478   1.552   2.124  2.2129  0.1984  3.1930
  435SOL    HW2 1305   1.490   1.568   1.952 -2.5612 -0.1138 -1.3056
  436SOL     OW 1306   1.713   2.727   2.263  0.1159 -0.2475 -0.5595
  436SOL    HW1 1307   1.650   2.790   2.323 -2.2364  2.6712  0.2765
  436SOL    HW2 1308   1.731   2.636   2.308  0.0145  1.1746  1.0511
  437SOL     OW 1309   1.094   2.949   0.908  0.2317 -0.3772  0.0272
  437SOL    HW1 1310   1.020   3.017   0.881  2.7284  1.5983 -0.6370
  437SOL    HW2 1311   1.125   2.957   1.007  2.7088 -0.3126 -0.6354
  438SOL     OW 1312   1.000   2.642   1.322  0.4227  0.1924 -0.1428
  438SOL    HW1 1313   1.075   2.706   1.339  1.0114  3.7358 -2.5846
  438SOL    HW2 1314   1.006   2.550   1.373  0.2627 -0.2116  2.4429
  439SOL     OW 1315   0.715   1.812   1.150 -0.5691  0.3711  0.1589
  439SOL    HW1 1316   0.684   1.883   1.080  1.4617 -0.9146 -2.3570
  439SOL    HW2 1317   0.638   1.751   1.181 -0.8313  0.9146 -0.0916
  440SOL     OW 1318   1.067   2.478   1.938  0.2247 -1.2970 -0.0045
  440SOL    HW1 1319   1.009   2.515   1.859  1.1001 -0.8804  0.5107
  440SOL    HW2 1320   1.167   2.505   1.937  0.2196  2.3345 -0.9828
  441SOL     OW 1321   0.513   2.731   1.458 -0.6079 -0.4556  0.7246
  441SOL    HW1 1322   0.571   2.640   1.468 -0.8390 -1.5877  0.4744
  441SOL    HW2 1323   0.419   2.715   1.424 -0.2083 -1.0875 -2.1500
  442SOL     OW 1324   2.270   0.735   2.491  0.3146  0.0742  0.1633
  442SOL    HW1 1325   2.250   0.637   2.522 -0.3295  1.1148  0.2853
  442SOL    HW2 1326   2.182   0.788   2.506 -0.2868  0.7750 -1.0943
  443SOL     OW 1327   1.184   2.750   2.207  0.4590 -0.3699  0.0387
  443SOL    HW1 1328   1.162   2.793   2.297 -1.9272 -0.4787  2.0156
  443SOL    HW2 1329   1.264   2.688   2.205 -1.4300 -1.2381 -0.3747
  444SOL     OW 1330   1.062   1.328   1.569 -0.2296  0.5614 -0.1340
  444SOL    HW1 1331   1.156   1.284   1.562 -0.8303 -0.6611 -0.7257
  444SOL    HW2 1332   1.072   1.424   1.608 -3.7424  1.0067  1.3314
  445SOL     OW 1333   3.102   2.312   1.923 -0.1072  0.3305  0.0914
  445SOL    HW1 1334   3.075   2.405   1.892 -1.4119 -0.7267  0.6671
  445SOL    HW2 1335   3.028   2.272   1.984 -1.1602  0.5088  0.1868
  446SOL     OW 1336   0.154   1.891   2.348 -0.5174  0.3446  0.1296
  446SOL    HW1 1337   0.110   1.972   2.395  2.3257  1.4780  3.3819
  446SOL    HW2 1338   0.093   1.850   2.271 -1.1496 -1.6725 -0.7773
  447SOL     OW 1339   1.260   1.688   1.954 -0.3593  0.3465  0.3614
  447SOL    HW1 1340   1.197   1.760   1.913 -0.7966  0.2106  2.0753
  447SOL    HW2 1341   1.354   1.720   1.980  1.8893 -0.5560 -2.9311
  448SOL     OW 1342   0.163   1.541   2.035 -0.5009 -0.6896 -0.4605
  448SOL    HW1 1343   0.199   1.625   1.981 -1.8180  0.0323  3.1053
  448SOL    HW2 1344   0.113   1.567   2.125  0.1631  1.6366  2.0764
  449SOL     OW 1345   2.033   2.954   0.832  0.0997  0.1122  0.3376
  449SOL    HW1 1346   2.121   2.971   0.882  1.2647  3.4640  1.4378
  449SOL    HW2 1347   2.008   2.856   0.831 -1.7302  0.7853  1.8318
  450SOL     OW 1348   2.283   1.363   0.764  0.1676  0.0706  0.1269
  450SOL    HW1 1349   2.280   1.292   0.841  1.4137 -2.3107  2.9571
  450SOL    HW2 1350   2.204   1.353   0.692 -1.4529  1.3496 -0.4017
  451SOL     OW 1351   1.445   0.038   1.476  0.5672 -0.1591 -0.0374
  451SOL    HW1 1352   1.365   0.099   1.488  1.3371 -0.7428 -0.4338
  451SOL    HW2 1353   1.470  -0.006   1.567  0.5113  0.2956  0.2730
  452SOL     OW 1354   2.655   2.290   2.214 -0.0725  0.2350  0.1595
  452SOL    HW1 1355   2.596   2.374   2.233  0.7790  2.2682 -0.3388
  452SOL    HW2 1356   2.710   2.264   2.297  1.8869  0.4716  0.1148
  453SOL     OW 1357   2.440   2.639   3.091  0.2524  0.5663  0.2048
  453SOL    HW1 1358   2.349   2.688   3.120 -1.9360  2.7887 -0.8976
  453SOL    HW2 1359   2.433   2.574   3.006  1.7294 -0.1157 -1.3073
  454SOL     OW 1360   0.974   1.118   2.093 -0.2296  0.0641 -0.3526
  454SOL    HW1 1361   0.958   1.162   2.003  0.2973 -1.1793 -0.9954
  454SOL    HW2 1362   1.063   1.144   2.136 -0.9057  1.9448  0.6822
  455SOL     OW 1363   0.700   2.642   2.865  0.6900  0.0420 -0.0850
  455SOL    HW1 1364   0.765   2.692   2.922 -0.6039  1.1988 -0.1917
  455SOL    HW2 1365   0.691   2.546   2.902 -0.1908  3.4495  0.4581
  456SOL     OW 1366   0.507   1.840   0.360  0.4099 -0.1818 -0.8453
  456SOL    HW1 1367   0.590   1.803   0.407 -0.3474 -0.5314  2.8586
  456SOL    HW2 1368   0.512   1.937   0.335 -1.0652 -3.0248  0.1694
  457SOL     OW 1369   0.363   2.623   0.728 -0.6865  0.7049  0.1427
  457SOL    HW1 1370   0.347   2.640   0.628  2.6767  0.4885  2.2091
  457SOL    HW2 1371   0.464   2.640   0.749  1.6953 -1.2963  0.3358
  458SOL     OW 1372   2.982   2.999   1.258  0.4883 -0.8316 -0.1113
  458SOL    HW1 1373   3.027   3.090   1.233  1.2725 -2.5573 -4.4153
  458SOL    HW2 1374   2.959   2.949   1.169 -4.1946  0.8559  2.4135
  459SOL     OW 1375   2.135   2.560   0.906 -0.0038 -0.0231  0.3104
  459SOL    HW1 1376   2.141   2.634   0.982 -1.7776  0.1728 -0.0752
  459SOL    HW2 1377   2.217   2.558   0.845 -0.2060 -1.8616  3.1819
  460SOL     OW 1378   1.138   1.953   2.981 -0.0627 -0.2115 -0.1464
  460SOL    HW1 1379   1.180   2.020   2.910 -1.0949 -0.1723  0.3058
  460SOL    HW2 1380   1.207   1.876   3.007  1.8012 -0.3489 -1.5685
  461SOL     OW 1381   0.494   2.127   2.658 -0.2393 -0.2943  0.2280
  461SOL    HW1 1382   0.456   2.046   2.599 -0.7171  0.2677 -0.1253
  461SOL    HW2 1383   0.522   2.101   2.760 -0.4978  0.7643  1.7495
  462SOL     OW 1384   0.927   1.210   1.849 -0.0481  0.4935  0.4234
  462SOL    HW1 1385   0.997   1.166   1.794 -0.4137 -1.5704  1.1935
  462SOL    HW2 1386   0.893   1.297   1.800  2.2478 -0.3680  2.2273
  463SOL     OW 1387   0.447   0.798   0.579 -0.3224 -0.4237  0.8476
  463SOL    HW1 1388   0.494   0.707   0.563  1.3469  3.8791  1.1868
  463SOL    HW2 1389   0.344   0.781   0.563  0.5390 -1.8232 -0.5966
  464SOL     OW 1390   0.595   2.254   2.305 -0.0034 -0.2283 -0.4865
  464SOL    HW1 1391   0.556   2.324   2.375 -0.6900  0.9900  1.8730
  464SOL    HW2 1392   0.567   2.280   2.206  0.1602  0.9951 -1.1122
  465SOL     OW 1393   0.237   0.901   0.826 -0.1114 -0.5975  0.0984
  465SOL    HW1 1394   0.159   0.916   0.753  0.2124 -1.3660 -1.7642
  465SOL    HW2 1395   0.244   0.801   0.858 -0.2954  0.4478  1.3151
  466SOL     OW 1396   1.359   1.121   1.140 -0.3800 -0.2685 -0.0796
  466SOL    HW1 1397   1.401   1.209   1.174 -0.2973  0.2300 -0.3380
  466SOL    HW2 1398   1.258   1.133   1.109  3.0882  1.9623 -2.9235
  467SOL     OW 1399   0.489   0.375   2.378 -0.4356  0.6636 -0.1398
  467SOL    HW1 1400   0.469   0.470   2.415 -3.3355  1.0253  0.5577
  467SOL    HW2 1401   0.476   0.295   2.443 -2.1129 -1.6187 -2.1548
  468SOL     OW 1402   0.420   2.279   1.671  0.4057 -0.2460  0.1592
  468SOL    HW1 1403   0.477   2.354   1.713 -0.5058  0.4631 -0.5226
  468SOL    HW2 1404   0.379   2.313   1.582  0.7727 -1.2074 -0.9439
  469SOL     OW 1405   1.493   1.343   1.217  0.5590  0.5662 -0.7803
  469SOL    HW1 1406   1.581   1.282   1.209  0.4007 -1.9829 -4.5751
  469SOL    HW2 1407   1.508   1.428   1.273  0.1309  1.6644  0.5757
  470SOL     OW 1408   3.014   1.688   0.738  0.0704  0.0900 -0.1401
  470SOL    HW1 1409   3.096   1.750   0.748 -0.2915 -2.8361  4.0669
  470SOL    HW2 1410   2.919   1.722   0.770  0.4322  0.4867 -0.9746
  471SOL     OW 1411   2.614   1.339   2.155 -0.0298  0.0084 -0.4626
  471SOL    HW1 1412   2.587   1.267   2.224 -0.3943  0.6942 -0.6146
  471SOL    HW2 1413   2.701   1.391   2.189  1.8100 -2.4973  0.2154
  472SOL     OW 1414   1.106   2.425   3.045 -0.0833  0.0562 -0.0515
  472SOL    HW1 1415   1.127   2.421   3.147 -0.9589  0.3119  1.4651
  472SOL    HW2 1416   1.064   2.332   3.016 -2.6254 -1.3265  1.7852
  473SOL     OW 1417   1.093   1.527   0.912  0.6921  0.8006  0.3394
  473SOL    HW1 1418   0.995   1.558   0.943 -2.0695 -1.6548 -2.3414
  473SOL    HW2 1419   1.138   1.475   0.983 -0.8684  2.4184 -0.8597
  474SOL     OW 1420   0.807   1.233   0.641  0.5276 -0.6778  0.1240
  474SOL    HW1 1421   0.773   1.235   0.545  1.7859 -1.7228 -0.6292
  474SOL    HW2 1422   0.869   1.153   0.662  0.4488  0.1592  0.7493
  475SOL     OW 1423   2.846   0.116   0.784  0.7771 -0.4075 -0.3338
  475SOL    HW1 1424   2.933   0.157   0.825  0.7529  0.0954  0.6684
  475SOL    HW2 1425   2.763   0.154   0.831  0.0176 -1.2912 -0.8963
  476SOL     OW 1426   0.930   2.995   1.759  0.1099  0.4361  0.8047
  476SOL    HW1 1427   0.993   2.943   1.820  0.9113 -0.0994 -0.8044
  476SOL    HW2 1428   0.930   2.958   1.663 -3.9253  2.6271  1.3663
  477SOL     OW 1429   1.429   0.327   2.468 -0.0941 -0.0424 -0.4881
  477SOL    HW1 1430   1.435   0.330   2.572  2.0825  1.0890 -0.5199
  477SOL    HW2 1431   1.489   0.252   2.430 -0.3837  0.9050 -2.7533
  478SOL     OW 1432   2.256   1.815   0.244  0.1938 -0.7565 -0.3897
  478SOL    HW1 1433   2.187   1.736   0.232 -1.8461 -1.5228 -0.8719
  478SOL    HW2 1434   2.348   1.791   0.214 -0.2007  1.2814  0.0223
  479SOL     OW 1435   1.258   1.026   2.877  0.6407 -0.2534  0.5021
  479SOL    HW1 1436   1.339   1.027   2.818  0.3601  0.2573  0.0753
  479SOL    HW2 1437   1.171   1.064   2.840  4.2023 -1.3581 -2.1565
  480SOL     OW 1438   2.510   2.320   0.364  0.2969  0.0573  0.4471
  480SOL    HW1 1439   2.469   2.236   0.410 -1.2994 -0.2091  3.3301
  480SOL    HW2 1440   2.457   2.358   0.281  0.3777 -0.7281  0.1042
  481SOL     OW 1441   1.075   1.171   0.809  0.6003 -0.3148 -0.5188
  481SOL    HW1 1442   1.113   1.245   0.750 -2.8802  1.3200  0.1521
  481SOL    HW2 1443   1.108   1.168   0.906 -1.9843 -1.9652 -0.0530
  482SOL     OW 1444   1.614   0.359   2.045  0.1544  0.0815  0.1693
  482SOL    HW1 1445   1.604   0.451   2.005  0.6498  0.8536 -1.0546
  482SOL    HW2 1446   1.712   0.322   2.054 -1.7794  0.0772  0.8506
  483SOL     OW 1447   0.159   2.383   1.271 -0.2918 -0.2047 -0.3450
  483SOL    HW1 1448   0.063   2.395   1.297  1.5152 -2.3656 -1.5940
  483SOL    HW2 1449   0.169   2.393   1.168  0.3159  1.1594 -0.3673
  484SOL     OW 1450   1.701   0.970   1.393 -0.0827 -0.0134 -0.0379
  484SOL    HW1 1451   1.778   0.900   1.397  1.6739 -1.1714  4.0964
  484SOL    HW2 1452   1.734   1.062   1.426  0.4453  1.1300 -1.1597
  485SOL     OW 1453   0.685   1.079   1.787 -0.0415  0.2339 -0.2049
  485SOL    HW1 1454   0.713   1.050   1.689  0.7690  0.0097  1.0335
  485SOL    HW2 1455   0.755   1.126   1.844  2.0988 -3.3718  3.0490
  486SOL     OW 1456   0.936   1.966   2.477  0.0588 -0.0621  0.3075
  486SOL    HW1 1457   0.959   1.899   2.549  0.6165 -1.0160 -3.3658
  486SOL    HW2 1458   0.840   1.999   2.483  1.2559  2.1433  0.2363
  487SOL     OW 1459   1.705   1.509   0.892  0.0291 -0.5637  0.3826
  487SOL    HW1 1460   1.696   1.443   0.810  1.6006 -1.3174 -0.6877
  487SOL    HW2 1461   1.772   1.591   0.878  1.6915  3.8861 -2.3067
  488SOL     OW 1462   2.990   0.936   2.197  0.0784  0.4660  0.1891
  488SOL    HW1 1463   3.046   0.873   2.138  0.0877  0.1113  1.6803
  488SOL    HW2 1464   2.995   0.914   2.302  3.1278  1.7643  0.5603
  489SOL     OW 1465   2.740   0.266   1.318 -0.7847  0.0055  0.4882
  489SOL    HW1 1466   2.704   0.216   1.397 -0.7606 -0.2976  0.7009
  489SOL    HW2 1467   2.812   0.213   1.267 -0.3624  2.8253  2.2157
  490SOL     OW 1468   1.416   2.974   2.807 -0.2417  0.1860 -0.0013
  490SOL    HW1 1469   1.474   2.884   2.792  3.3677 -0.4534 -1.5483
  490SOL    HW2 1470   1.418   3.033   2.717 -0.6505  1.7721 -1.5345
  491SOL     OW 1471   1.828   1.514   2.686  0.5364  0.5268  0.4233
  491SOL    HW1 1472   1.783   1.458   2.754  1.8867  2.1175 -0.3889
  491SOL    HW2 1473   1.930   1.493   2.688 -0.1097 -0.9819  0.1813
  492SOL     OW 1474   0.523   2.055   0.752 -0.4028  0.1621  0.5299
  492SOL    HW1 1475   0.548   2.041   0.852 -2.6673  0.5703 -0.3124
  492SOL    HW2 1476   0.457   2.133   0.732  0.0858 -2.1607 -1.3568
  493SOL     OW 1477   0.426   1.462   2.058  0.0154 -0.4038  0.1799
  493SOL    HW1 1478   0.325   1.494   2.061 -1.1577 -1.0613  0.6409
  493SOL    HW2 1479   0.433   1.376   2.116  0.8486  1.3104 -0.3069
  494SOL     OW 1480   2.651   2.694   0.161 -0.3950 -0.0510  0.0888
  494SOL    HW1 1481   2.656   2.620   0.237  0.5573  0.4413 -1.3444
  494SOL    HW2 1482   2.588   2.664   0.084  0.4183 -0.3428 -0.9050
  495SOL     OW 1483   2.726   2.654   2.724  0.2536  0.6108 -0.0285
  495SOL    HW1 1484   2.713   2.556   2.704 -0.4968  0.2511  1.5161
  495SOL    HW2 1485   2.732   2.711   2.636 -0.7347  0.5718  1.4303
  496SOL     OW 1486   2.028   2.169   0.723  0.4773  0.1608 -0.3552
  496SOL    HW1 1487   2.039   2.213   0.819  0.3003 -1.5533 -2.2255
  496SOL    HW2 1488   2.041   2.066   0.727 -0.8344 -2.3836  2.4964
  497SOL     OW 1489   0.201   2.987   2.405  0.3042 -0.3027  0.0214
  497SOL    HW1 1490   0.145   3.055   2.457  0.7498  0.5676 -0.0182
  497SOL    HW2 1491   0.237   3.035   2.320 -0.3073 -1.8168 -0.1539
  498SOL     OW 1492   1.237   1.451   1.144 -0.0451  0.2744  0.2219
  498SOL    HW1 1493   1.333   1.443   1.180  1.0266 -1.5369  0.4981
  498SOL    HW2 1494   1.173   1.523   1.185  2.6866  1.3306 -3.7060
  499SOL     OW 1495   0.785   1.829   0.531  0.6322 -0.5428 -0.2002
  499SOL    HW1 1496   0.735   1.737   0.539 -2.2891  1.0655 -1.5500
  499SOL    HW2 1497   0.831   1.860   0.616 -0.8863 -1.6751 -2.9337
  500SOL     OW 1498   1.419   2.988   1.702 -0.5358  0.4775 -0.0979
  500SOL    HW1 1499   1.366   2.972   1.789  0.4545 -1.1465 -0.8802
  500SOL    HW2 1500   1.463   2.899   1.670 -1.5271  0.2794 -1.3401
  501SOL     OW 1501   0.780   1.129   2.300 -0.2894  0.2992  0.0562
  501SOL    HW1 1502   0.710   1.056   2.331 -0.3626  0.2790  1.5221
  501SOL    HW2 1503   0.800   1.128   2.197  1.1952  0.4168 -0.3066
  502SOL     OW 1504   2.568   0.975   1.760 -0.1685  0.1400  0.0363
  502SOL    HW1 1505   2.563   1.001   1.658  0.7599  2.4518  0.7386
  502SOL    HW2 1506   2.541   0.881   1.784  0.9942  1.5646 -0.6088
  503SOL     OW 1507   1.335   0.165   0.614  0.3062  0.1729  0.1217
  503SOL    HW1 1508   1.259   0.241   0.619 -2.0211  1.3858 -1.5743
  503SOL    HW2 1509   1.431   0.211   0.600 -0.1501  2.3276  2.1079
  504SOL     OW 1510   3.026   2.330   1.405 -0.5633 -0.0625  0.6519
  504SOL    HW1 1511   2.996   2.398   1.470  0.2132  2.5501 -0.0300
  504SOL    HW2 1512   3.006   2.231   1.431 -0.1674  1.1106 -3.0097
  505SOL     OW 1513   2.283   1.151   1.473 -0.3897  0.0051 -0.3921
  505SOL    HW1 1514   2.289   1.214   1.389  0.3994 -1.9040  0.1873
  505SOL    HW2 1515   2.363   1.175   1.541  4.3644 -0.9142  0.4696
  506SOL     OW 1516   1.998   0.236   1.757  0.3124  0.5088  0.7103
  506SOL    HW1 1517   2.040   0.155   1.795 -3.0376  1.4723 -0.2938
  506SOL    HW2 1518   2.000   0.314   1.826 -3.9520  1.6994  1.2170
  507SOL     OW 1519   0.513   0.662   2.180 -0.2605 -0.0075  0.2028
  507SOL    HW1 1520   0.439   0.659   2.108  0.7176 -1.0686  1.6921
  507SOL    HW2 1521   0.559   0.566   2.175  0.1644 -3.9780 -0.2284
  508SOL     OW 1522   0.272   1.629   0.913  0.0967  0.6266 -0.4574
  508SOL    HW1 1523   0.345   1.681   0.862  1.8371 -1.8792  1.4860
  508SOL    HW2 1524   0.238   1.689   0.995  0.8205 -0.2584  1.0310
  509SOL     OW 1525   1.338   1.211   2.456  0.4085 -0.3347 -0.0358
  509SOL    HW1 1526   1.261   1.149   2.475 -2.5453 -2.8780  0.1983
  509SOL    HW2 1527   1.405   1.163   2.391 -3.7533 -3.1258  0.5339
  510SOL     OW 1528   1.298   1.988   2.049 -0.0949 -0.5969 -0.5814
  510SOL    HW1 1529   1.243   2.059   2.004 -0.5732  2.1658  1.6012
  510SOL    HW2 1530   1.242   1.938   2.127  2.6455 -3.3798  2.0734
  511SOL     OW 1531   3.060   2.643   1.295  0.1971 -0.2764 -0.6847
  511SOL    HW1 1532   3.018   2.636   1.198 -1.1903  1.0112  0.7364
  511SOL    HW2 1533   2.998   2.624   1.371  0.5824  1.2244  0.4152
  512SOL     OW 1534   2.407   0.423   1.390  0.0537 -0.2832 -0.1491
  512SOL    HW1 1535   2.306   0.434   1.403 -0.2480 -3.0205 -0.9971
  512SOL    HW2 1536   2.425   0.366   1.305  3.7516  1.2509  2.3481
  513SOL     OW 1537   2.468   2.010   0.830  0.0253 -0.6881  0.3960
  513SOL    HW1 1538   2.445   2.099   0.779  0.3456 -1.5494  0.0066
  513SOL    HW2 1539   2.536   1.950   0.777  0.0005 -1.6568 -1.4497
  514SOL     OW 1540   0.650   2.797   0.411  0.5538 -0.2154 -0.4966
  514SOL    HW1 1541   0.619   2.842   0.324  1.4589 -1.0917 -0.6499
  514SOL    HW2 1542   0.654   2.851   0.498  0.6358 -1.1292 -0.6139
  515SOL     OW 1543   2.023   1.170   2.307  0.0577  0.2032  0.5043
  515SOL    HW1 1544   2.001   1.212   2.216 -3.9731  1.5800  2.0154
  515SOL    HW2 1545   1.948   1.162   2.376 -1.8516  1.7508 -1.4049
  516SOL     OW 1546   0.276   0.252   1.961 -0.0695 -0.0984  0.0922
  516SOL    HW1 1547   0.364   0.259   1.911 -2.2390  1.3298  0.7287
  516SOL    HW2 1548   0.207   0.184   1.919 -1.4506 -0.6794 -0.1743
  517SOL     OW 1549   0.367   3.045   1.217  0.6443  0.5786 -0.2964
  517SOL    HW1 1550   0.410   3.139   1.228  0.3105 -0.0492 -1.5394
  517SOL    HW2 1551   0.276   3.019   1.261 -1.3048 -0.3740 -0.0583
  518SOL     OW 1552   2.138   3.089   1.764  0.4318  0.2565 -0.3111
  518SOL    HW1 1553   2.210   3.158   1.793  2.5317  3.9141  0.2383
  518SOL    HW2 1554   2.175   3.015   1.700  0.0940  0.1081  0.5871
  519SOL     OW 1555   2.403   2.220   2.587  0.1239 -0.3213  0.2220
  519SOL    HW1 1556   2.332   2.219   2.664 -1.4578  0.3392  0.1356
  519SOL    HW2 1557   2.467   2.304   2.582 -1.1046  2.4173  0.4068
  520SOL     OW 1558   1.753   2.859   1.860  0.0126 -0.6613  0.0284
  520SOL    HW1 1559   1.671   2.820   1.912  0.8952 -1.3982 -0.3998
  520SOL    HW2 1560   1.821   2.785   1.828 -1.0551  1.0645 -1.0684
  521SOL     OW 1561   0.563   0.046   2.090 -0.5347  0.8555  0.1054
  521SOL    HW1 1562   0.470   0.017   2.118  1.9581  1.0407 -0.2583
  521SOL    HW2 1563   0.630   0.059   2.165 -1.3727  3.4829 -0.7455
  522SOL     OW 1564   0.181   1.904   1.481 -0.2069  0.0582  0.4349
  522SOL    HW1 1565   0.226   1.953   1.559 -1.5864 -0.2474  1.2892
  522SOL    HW2 1566   0.129   1.966   1.414 -1.8678  1.2134  0.5443
  523SOL     OW 1567   2.243   2.896   1.590 -0.2416 -0.0521  0.8030
  523SOL    HW1 1568   2.307   2.827   1.538 -2.3130  1.3068 -2.2656
  523SOL    HW2 1569   2.147   2.893   1.551  0.7927  1.1668  1.0720
  524SOL     OW 1570   0.188   2.762   2.793  0.2138  0.0251  0.3414
  524SOL    HW1 1571   0.117   2.815   2.843  1.6274  0.6901 -3.4587
  524SOL    HW2 1572   0.286   2.778   2.813 -0.3056  2.0324  1.7290
  525SOL     OW 1573   2.144   1.946   0.467  0.0491 -0.0202  0.3253
  525SOL    HW1 1574   2.149   1.874   0.544  3.3364 -1.7653  0.8451
  525SOL    HW2 1575   2.173   1.917   0.376 -2.7426 -1.9403  0.5167
  526SOL     OW 1576   0.434   1.523   1.601 -0.3207 -0.2053 -0.3940
  526SOL    HW1 1577   0.401   1.487   1.690  2.5964 -0.4611  1.2065
  526SOL    HW2 1578   0.470   1.450   1.537 -0.8355  0.2648 -0.7879
  527SOL     OW 1579   1.084   2.922   1.269  0.3183 -0.0323 -0.8207
  527SOL    HW1 1580   1.183   2.896   1.258 -1.3078 -0.3155  0.8722
  527SOL    HW2 1581   1.070   3.023   1.255 -0.2204  1.2451 -1.9478
  528SOL     OW 1582   1.353   2.409   0.487  0.1290 -0.0107  0.0712
  528SOL    HW1 1583   1.404   2.316   0.491  0.0762 -0.0765 -1.3661
  528SOL    HW2 1584   1.387   2.475   0.559  0.3871 -0.4540 -0.6221
  529SOL     OW 1585   1.888   1.703   0.812 -0.0426  0.4557  0.3694
  529SOL    HW1 1586   1.830   1.728   0.724 -2.2116  0.1365  1.8445
  529SOL    HW2 1587   1.906   1.787   0.870  0.2928 -0.0966  1.0499
  530SOL     OW 1588   0.281   2.463   0.342  0.1006 -0.7991 -0.3176
  530SOL    HW1 1589   0.287   2.557   0.379  1.0018 -0.0378  0.6557
  530SOL    HW2 1590   0.354   2.402   0.387 -0.4004  1.5520 -0.2591
  531SOL     OW 1591   1.820   0.994   0.998  0.0129 -1.2050  0.1384
  531SOL    HW1 1592   1.848   0.973   0.904  1.1317 -0.6866  0.1798
  531SOL    HW2 1593   1.715   1.012   1.001 -2.1120  0.1033  0.5987
  532SOL     OW 1594   0.494   1.062   0.783 -0.3102 -0.0617 -0.6518
  532SOL    HW1 1595   0.503   1.066   0.679  0.2016 -1.4472  0.0556
  532SOL    HW2 1596   0.424   0.990   0.808 -1.5808  1.4013  2.3788
  533SOL     OW 1597   1.763   0.035   2.575 -0.3707  0.6168  0.0256
  533SOL    HW1 1598   1.867   0.028   2.573  1.0558 -1.2759  0.4483
  533SOL    HW2 1599   1.726   0.090   2.653 -1.7395 -1.8782  2.6379
  534SOL     OW 1600   0.371   0.224   1.571  0.0908 -0.3600 -0.2786
  534SOL    HW1 1601   0.478   0.216   1.568  1.8562 -2.0711  1.5213
  534SOL    HW2 1602   0.330   0.323   1.561  1.0644  0.5630  0.0356
  535SOL     OW 1603   1.955   0.360   0.158  0.2040  0.1715  0.1531
  535SOL    HW1 1604   1.957   0.449   0.212 -0.1768 -1.8439 -2.8053
  535SOL    HW2 1605   1.956   0.276   0.221 -1.2647  3.4445  1.8890
  536SOL     OW 1606   1.416   2.656   0.963  0.2751 -0.2654 -0.3533
  536SOL    HW1 1607   1.394   2.618   1.056 -0.0809  0.7631  4.5920
  536SOL    HW2 1608   1.331   2.667   0.906  0.8998  0.6369 -1.1146
  537SOL     OW 1609   0.806   0.278   2.420  0.3222  0.1534  0.2101
  537SOL    HW1 1610   0.821   0.329   2.335  0.0055  1.1874  1.2491
  537SOL    HW2 1611   0.765   0.187   2.396  0.3955  0.1787 -0.1674
  538SOL     OW 1612   1.662   2.296   1.393 -0.1762 -0.0181 -0.7819
  538SOL    HW1 1613   1.658   2.195   1.419  1.4613 -1.4932  0.0996
  538SOL    HW2 1614   1.759   2.336   1.381  1.0030  0.6405 -1.9318
  539SOL     OW 1615   0.190   1.637   2.691  0.0906 -0.0341  0.2186
  539SOL    HW1 1616   0.094   1.613   2.653 -0.3814 -0.3079 -0.3274
  539SOL    HW2 1617   0.193   1.728   2.745  1.4133  1.4478  1.3758
  540SOL     OW 1618   2.657   1.744   1.927 -0.1521 -0.2606  0.2293
  540SOL    HW1 1619   2.602   1.661   1.953 -1.2594 -1.1801 -0.0663
  540SOL    HW2 1620   2.597   1.829   1.925 -3.5331  0.9537  1.6809
  541SOL     OW 1621   0.575   2.174   0.018  0.4847 -0.2336  0.2455
  541SOL    HW1 1622   0.598   2.156   0.119 -2.3322  0.4413 -0.0188
  541SOL    HW2 1623   0.472   2.160   0.001  1.1178 -0.7875 -1.7448
  542SOL     OW 1624   2.202   2.595   0.441  0.6140  0.0000  0.8597
  542SOL    HW1 1625   2.132   2.669   0.446  3.2822  2.0122  1.8127
  542SOL    HW2 1626   2.160   2.500   0.447 -2.8727  1.8659  0.5738
  543SOL     OW 1627   1.099   1.791   1.566 -0.7407 -0.1050  0.2936
  543SOL    HW1 1628   1.094   1.834   1.660 -0.7858  0.6920  2.1129
  543SOL    HW2 1629   1.037   1.837   1.492  1.0075  1.0149  1.1771
  544SOL     OW 1630   1.100   0.491   0.164  0.1858  0.1543 -0.1851
  544SOL    HW1 1631   1.106   0.417   0.237 -0.0741  1.9572  0.5923
  544SOL    HW2 1632   1.115   0.464   0.068 -1.3037  0.6085  0.7080
  545SOL     OW 1633   1.103   1.767   0.778 -0.1472  0.3334  0.2652
  545SOL    HW1 1634   1.190   1.777   0.719  0.6975 -1.2774 -1.0778
  545SOL    HW2 1635   1.101   1.683   0.844 -1.6727 -2.4852 -0.6223
  546SOL     OW 1636   2.680   1.559   3.015  0.6803  0.0220  0.3960
  546SOL    HW1 1637   2.689   1.663   3.027  0.4372  0.3257  1.8865
  546SOL    HW2 1638   2.584   1.527   2.989 -3.3856 -1.8119 -0.7298
  547SOL     OW 1639   0.624   3.011   2.566  0.4281 -0.0720 -0.3061
  547SOL    HW1 1640   0.676   3.026   2.657 -0.4921  1.4479 -2.0024
  547SOL    HW2 1641   0.560   2.932   2.569  0.9629 -2.0065 -3.9633
  548SOL     OW 1642   2.060   0.842   3.013 -0.2810  0.0797  0.7072
  548SOL    HW1 1643   1.961   0.811   3.027  0.8671  0.1094  0.6882
  548SOL    HW2 1644   2.084   0.936   3.054 -1.4789 -1.2706 -0.1174
  549SOL     OW 1645   0.647   0.596   0.223  0.0663 -0.2394  0.5924
  549SOL    HW1 1646   0.594   0.624   0.134 -3.0351 -0.1848 -3.7418
  549SOL    HW2 1647   0.748   0.627   0.223  0.9679 -0.9468  3.2470
  550SOL     OW 1648   2.578   2.807   2.896 -0.6346 -0.0126  0.0225
  550SOL    HW1 1649   2.518   2.752   2.961 -1.1343  0.2826  0.0492
  550SOL    HW2 1650   2.630   2.754   2.822 -1.1874 -0.4781 -2.8381
  551SOL     OW 1651   0.248   0.930   0.262 -0.5011  0.3810 -0.5087
  551SOL    HW1 1652   0.344   0.921   0.231 -1.9500 -4.0681  2.9867
  551SOL    HW2 1653   0.239   0.892   0.358 -0.3194 -2.7815 -0.9796
  552SOL     OW 1654   0.664   2.984   1.866 -0.0465 -1.1197  0.1669
  552SOL    HW1 1655   0.643   3.052   1.944 -0.0313  0.4004  2.0492
  552SOL    HW2 1656   0.759   2.998   1.830  1.1780  1.3946  0.3122
  553SOL     OW 1657   2.894   2.417   0.350  0.3125 -0.2839 -0.5181
  553SOL    HW1 1658   2.859   2.322   0.383 -0.4515 -1.8819 -0.1500
  553SOL    HW2 1659   2.814   2.478   0.346 -3.5674 -1.2447  2.1489
  554SOL     OW 1660   2.126   0.349   0.474 -0.0803  0.2578 -0.5497
  554SOL    HW1 1661   2.204   0.365   0.401  1.1379  3.4961 -1.3461
  554SOL    HW2 1662   2.152   0.278   0.544 -0.8024  0.0067  0.0918
  555SOL     OW 1663   0.396   2.808   2.518  0.2306  0.5797 -0.2789
  555SOL    HW1 1664   0.321   2.867   2.473  1.4117  0.7899  1.2448
  555SOL    HW2 1665   0.450   2.765   2.443  0.6585  0.0469  0.8071
  556SOL     OW 1666   0.874   2.373   1.585 -0.1144 -0.0412  0.1024
  556SOL    HW1 1667   0.897   2.449   1.654 -1.9618 -2.6080  0.3294
  556SOL    HW2 1668   0.946   2.370   1.511 -0.8548  2.0997 -0.6537
  557SOL     OW 1669   0.136   2.042   0.206 -0.0616  0.2733 -0.1976
  557SOL    HW1 1670   0.098   1.981   0.131  0.3310 -0.8326 -1.6441
  557SOL    HW2 1671   0.212   2.105   0.175  3.8780  1.2006  0.1322
  558SOL     OW 1672   2.761   2.202   0.438 -0.6024  0.0553 -0.1821
  558SOL    HW1 1673   2.664   2.225   0.443  0.3799  0.5256  1.5587
  558SOL    HW2 1674   2.795   2.122   0.384 -1.5124  0.4751 -0.8024
  559SOL     OW 1675   0.435   2.316   1.369  0.3124  0.1872  0.0545
  559SOL    HW1 1676   0.342   2.328   1.330 -0.2211 -1.6226  1.5029
  559SOL    HW2 1677   0.485   2.237   1.328 -0.5889  1.9213  0.2921
  560SOL     OW 1678   2.103   1.105   3.076 -0.1537 -0.4821  0.0722
  560SOL    HW1 1679   2.153   1.147   3.157  0.8281  0.2337 -1.4569
  560SOL    HW2 1680   2.162   1.095   2.985  2.5421  0.0652  0.1471
  561SOL     OW 1681   0.020   1.879   3.090 -0.2141  0.4537  0.5414
  561SOL    HW1 1682  -0.003   1.805   3.156  2.2364  0.0463 -0.7870
  561SOL    HW2 1683  -0.050   1.953   3.079  2.1479  1.8486 -0.5253
  562SOL     OW 1684   1.060   2.172   2.345  0.6366  0.3101 -0.0759
  562SOL    HW1 1685   1.041   2.276   2.351  2.3927  0.8781 -3.0511
  562SOL    HW2 1686   0.993   2.115   2.406 -2.6635 -2.5854  2.4057
  563SOL     OW 1687   0.700   2.522   2.621 -0.0475 -0.0902  0.0580
  563SOL    HW1 1688   0.789   2.471   2.610  0.1312 -0.1697 -0.0943
  563SOL    HW2 1689   0.693   2.591   2.697 -0.0943 -0.2028 -0.4120
  564SOL     OW 1690   2.901   1.425   2.931  0.8325 -0.0561 -0.5740
  564SOL    HW1 1691   2.811   1.464   2.963 -0.1812 -2.0526  2.3773
  564SOL    HW2 1692   2.961   1.498   2.881 -0.4087 -0.2654 -1.3632
  565SOL     OW 1693   2.490   1.949   2.650 -0.0349 -0.4561 -0.1994
  565SOL    HW1 1694   2.452   2.049   2.645 -1.4149  0.8770  2.0961
  565SOL    HW2 1695   2.591   1.954   2.681  2.0847  1.7631 -1.4214
  566SOL     OW 1696   1.997   2.885   1.468 -0.1565  0.2943 -0.0508
  566SOL    HW1 1697   1.945   2.802   1.504 -1.1111 -1.8002  0.3303
  566SOL    HW2 1698   1.995   2.903   1.367 -1.6741  0.4783  0.5626
  567SOL     OW 1699   2.444   0.003   2.323 -0.1436  0.1241  0.0969
  567SOL    HW1 1700   2.344   0.030   2.327 -0.6575  0.5827  0.0760
  567SOL    HW2 1701   2.476   0.015   2.224  0.4793  0.0685  1.5660
  568SOL     OW 1702   1.543   1.793   0.295  0.1186 -0.3437  0.5110
  568SOL    HW1 1703   1.490   1.869   0.250  0.9213 -0.7489  0.5764
  568SOL    HW2 1704   1.645   1.806   0.306  0.1040 -0.7013  1.8073
  569SOL     OW 1705   0.242   0.634   0.822  0.2681  0.4755  0.9445
  569SOL    HW1 1706   0.308   0.568   0.770  0.4942  1.4051 -1.4713
  569SOL    HW2 1707   0.150   0.601   0.808  3.1893  1.9830 -0.2706
  570SOL     OW 1708   0.633   0.869   2.867 -0.5153 -0.4909  0.4351
  570SOL    HW1 1709   0.718   0.871   2.804 -1.9137 -0.1788 -1.6353
  570SOL    HW2 1710   0.640   0.937   2.945  0.2323  3.6298 -1.2358
  571SOL     OW 1711   0.833   0.011   1.120 -0.0031 -0.4398 -0.5392
  571SOL    HW1 1712   0.878   0.016   1.023  0.8348  0.7310  0.1751
  571SOL    HW2 1713   0.814  -0.092   1.151  1.2113 -0.3636  2.5390
  572SOL     OW 1714   1.607   2.679   1.376  0.3940  0.9899 -0.3589
  572SOL    HW1 1715   1.599   2.606   1.309  2.5216 -0.4859  2.5568
  572SOL    HW2 1716   1.620   2.776   1.338 -1.1533  0.0908  0.7283
  573SOL     OW 1717   3.041   0.485   2.032  1.0012  0.3471 -0.1596
  573SOL    HW1 1718   2.999   0.397   2.063  1.7849 -3.1498  1.1972
  573SOL    HW2 1719   3.091   0.475   1.938  1.5063  0.7847 -0.9277
  574SOL     OW 1720   0.173   1.760   1.134 -0.1012 -0.0221 -0.0112
  574SOL    HW1 1721   0.214   1.795   1.224 -1.9361 -1.5185  1.1717
  574SOL    HW2 1722   0.071   1.787   1.124 -0.2327  0.7908 -0.6561
  575SOL     OW 1723   0.865   2.186   0.951  0.6692 -0.0213  0.0044
  575SOL    HW1 1724   0.818   2.235   1.034  0.0154 -1.5089 -0.9109
  575SOL    HW2 1725   0.905   2.255   0.882  2.9468  1.1984 -2.7949
  576SOL     OW 1726   2.899   3.019   1.693 -0.0357  0.6338  0.1916
  576SOL    HW1 1727   2.798   3.010   1.668  0.2818 -2.1020 -2.0154
  576SOL    HW2 1728   2.941   3.113   1.654  2.7847  1.2655  1.6269
  577SOL     OW 1729   2.667   1.236   0.023  0.3417  0.3978  0.4924
  577SOL    HW1 1730   2.704   1.159  -0.038 -1.9231 -0.2877 -3.5022
  577SOL    HW2 1731   2.692   1.223   0.123 -1.9725  1.6147  1.4834
  578SOL     OW 1732   1.408   2.795   2.510 -0.1755 -0.0114  0.4557
  578SOL    HW1 1733   1.324   2.845   2.468 -1.6197  0.0231  0.0091
  578SOL    HW2 1734   1.494   2.850   2.507  0.1239  0.1448 -0.2901
  579SOL     OW 1735   0.021   2.456   0.201  0.8141 -0.1435  0.1617
  579SOL    HW1 1736  -0.063   2.446   0.263 -0.1710 -0.7314  1.2149
  579SOL    HW2 1737   0.108   2.485   0.251  0.9579 -3.3177 -0.0362
  580SOL     OW 1738   0.977   2.652   0.396 -0.2074 -0.7602  0.1908
  580SOL    HW1 1739   1.070   2.680   0.362 -0.9894  0.2420  0.1324
  580SOL    HW2 1740   0.904   2.667   0.331  1.2984  0.6790  0.4306
  581SOL     OW 1741   1.291   2.679   1.455  0.5763  0.5607 -0.0514
  581SOL    HW1 1742   1.348   2.596   1.479 -0.2084 -0.3476 -0.5443
  581SOL    HW2 1743   1.336   2.762   1.408  0.3337  0.5279  2.8641
  582SOL     OW 1744   1.485   0.101   1.915 -0.1673 -0.1810  0.1812
  582SOL    HW1 1745   1.475   0.158   2.003 -1.9708  0.7782  1.7468
  582SOL    HW2 1746   1.571   0.117   1.856 -0.4907 -0.8595  1.8593
  583SOL     OW 1747   2.433   3.091   0.531  0.7553  0.6842  0.1978
  583SOL    HW1 1748   2.523   3.044   0.508 -1.3681 -1.2982 -1.1411
  583SOL    HW2 1749   2.356   3.023   0.553 -1.1138 -0.1017 -1.2100
  584SOL     OW 1750   1.555   1.124   2.302 -1.1602 -0.2722  0.8370
  584SOL    HW1 1751   1.573   1.207   2.245  1.3865 -1.9965  1.5048
  584SOL    HW2 1752   1.650   1.100   2.343  0.9151  3.6785 -0.5256
  585SOL     OW 1753   2.072   2.681   2.899 -0.7177 -0.0849  0.0715
  585SOL    HW1 1754   2.103   2.585   2.865  1.0645 -0.6130 -0.9238
  585SOL    HW2 1755   1.971   2.696   2.900  1.0501  0.2403 -0.4425
  586SOL     OW 1756   2.895   0.397   1.526 -0.0977  0.3616 -0.1660
  586SOL    HW1 1757   2.872   0.476   1.585  1.9557 -2.4923 -0.0216
  586SOL    HW2 1758   2.813   0.384   1.458 -1.4186  1.6451 -0.9378
  587SOL     OW 1759   2.091   1.458   2.681  0.5790  0.0007  0.6620
  587SOL    HW1 1760   2.122   1.383   2.616 -2.0572 -0.6997  2.5640
  587SOL    HW2 1761   2.146   1.462   2.766  0.5952  0.5681  0.2409
  588SOL     OW 1762   0.534   2.687   2.320  0.0614  0.3627  0.1455
  588SOL    HW1 1763   0.493   2.684   2.230 -0.0836 -0.4456 -0.3895
  588SOL    HW2 1764   0.545   2.588   2.365  1.9911 -1.5748  2.6060
  589SOL     OW 1765   2.189   1.288   2.496 -0.0429  0.0889  0.1810
  589SOL    HW1 1766   2.139   1.232   2.418 -0.8891  2.0975 -2.0498
  589SOL    HW2 1767   2.292   1.283   2.492 -2.0144 -1.6070 -1.2065
  590SOL     OW 1768   2.370   1.768   2.067  0.1637 -0.5077 -0.2592
  590SOL    HW1 1769   2.432   1.690   2.068  0.0944  2.5186  3.3252
  590SOL    HW2 1770   2.346   1.794   2.165  3.2119 -2.0896 -0.4564
  591SOL     OW 1771   1.224   2.392   0.227 -0.1898 -0.7622  0.1969
  591SOL    HW1 1772   1.273   2.315   0.174  0.4703  1.1058 -1.7885
  591SOL    HW2 1773   1.259   2.400   0.319  2.4441  1.5806  0.9356
  592SOL     OW 1774   1.779   2.333   0.789 -0.0692  0.3058 -0.0570
  592SOL    HW1 1775   1.791   2.383   0.701  0.5097  0.0706 -1.6953
  592SOL    HW2 1776   1.868   2.286   0.820 -0.1162 -1.0648 -1.0790
  593SOL     OW 1777   0.733   0.288   0.217  0.1880  0.5274  0.2429
  593SOL    HW1 1778   0.783   0.288   0.125 -1.1918  2.2915 -1.1384
  593SOL    HW2 1779   0.698   0.385   0.235  2.0539  2.4002 -0.9225
  594SOL     OW 1780   1.048   1.841   2.704 -0.0645  0.6970 -0.1095
  594SOL    HW1 1781   1.141   1.811   2.663 -1.8716 -1.2097 -1.6012
  594SOL    HW2 1782   1.067   1.878   2.801 -0.8218 -0.2140 -2.7986
  595SOL     OW 1783   1.540   0.053   0.998 -0.6905  0.2621  0.5324
  595SOL    HW1 1784   1.619   0.000   0.949  2.0536 -0.3108 -0.5169
  595SOL    HW2 1785   1.444   0.042   0.953 -0.7097 -2.0699  0.0874
  596SOL     OW 1786   0.059   1.500   2.287  0.1226 -0.9000 -0.0647
  596SOL    HW1 1787   0.133   1.432   2.322 -0.0726  0.7900 -0.2557
  596SOL    HW2 1788   0.047   1.576   2.356  1.1640 -0.6291 -0.3454
  597SOL     OW 1789   1.985   2.666   1.839 -0.2261  0.2399  0.6749
  597SOL    HW1 1790   1.952   2.654   1.743  0.6821 -1.0441 -0.3018
  597SOL    HW2 1791   2.087   2.668   1.843  2.4567  1.8798  0.4961
  598SOL     OW 1792   2.532   2.885   1.219 -0.2998 -0.0963 -0.0882
  598SOL    HW1 1793   2.607   2.906   1.291 -4.2226 -1.6046  0.8400
  598SOL    HW2 1794   2.564   2.904   1.120  1.4500  1.1219  0.1279
  599SOL     OW 1795   2.820   0.262   2.500 -0.4749 -0.1966  0.2055
  599SOL    HW1 1796   2.903   0.259   2.442 -0.8028 -1.9432 -1.4689
  599SOL    HW2 1797   2.753   0.323   2.456 -0.2255  1.6301 -0.6522
  600SOL     OW 1798   2.816   1.208   2.764 -0.2453  0.4316 -0.2998
  600SOL    HW1 1799   2.720   1.176   2.789 -0.9513 -2.2322  1.8929
  600SOL    HW2 1800   2.834   1.304   2.790  1.6518 -1.9449  2.1952
  601SOL     OW 1801   3.065   1.353   2.008 -0.4839 -0.2488  0.1915
  601SOL    HW1 1802   2.985   1.378   1.948  0.8330  0.9654 -3.7527
  601SOL    HW2 1803   3.142   1.427   2.015 -1.0162  0.4121  1.0085
  602SOL     OW 1804   1.481   1.589   2.282  0.1035 -0.3637 -0.2845
  602SOL    HW1 1805   1.395   1.557   2.332 -0.0347  0.4592 -2.1697
  602SOL    HW2 1806   1.568   1.583   2.335  0.2242 -0.4599 -3.1405
  603SOL     OW 1807   0.674   1.130   2.720  0.0211  0.3921 -0.2595
  603SOL    HW1 1808   0.570   1.118   2.724 -0.9826 -1.2009  0.2295
  603SOL    HW2 1809   0.729   1.060   2.663  2.7786  1.2782 -0.5164
  604SOL     OW 1810   2.464   0.974   0.163  0.0919 -0.0927  0.3722
  604SOL    HW1 1811   2.506   1.058   0.119  1.6156 -0.8836  1.6444
  604SOL    HW2 1812   2.474   0.891   0.101 -0.1451 -1.1350  0.7231
  605SOL     OW 1813   2.507   1.154   1.959  0.0993 -0.7447 -0.5664
  605SOL    HW1 1814   2.541   1.089   1.882 -2.4739 -1.6056  0.1789
  605SOL    HW2 1815   2.576   1.226   1.991 -0.1343 -0.3035  0.0609
  606SOL     OW 1816   1.491   2.549   2.543  0.4366 -0.2511 -0.3195
  606SOL    HW1 1817   1.447   2.645   2.529  1.1161 -0.8812 -1.6130
  606SOL    HW2 1818   1.425   2.468   2.535  0.0602 -2.5971 -0.8311
  607SOL     OW 1819   1.317   1.603   0.275 -0.5470 -0.0897 -0.5075
  607SOL    HW1 1820   1.233   1.659   0.275 -1.6355  0.1854  0.4277
  607SOL    HW2 1821   1.401   1.664   0.285 -0.3908 -0.4489 -1.4838
  608SOL     OW 1822   1.433   2.851   0.398  0.3023 -0.4976  0.4668
  608SOL    HW1 1823   1.466   2.874   0.300  0.2569  0.7240 -0.2098
  608SOL    HW2 1824   1.350   2.908   0.424  1.1588  2.0208 -1.3440
  609SOL     OW 1825   1.347   1.362   0.176  0.3766  0.3632 -0.0796
  609SOL    HW1 1826   1.346   1.454   0.218  0.6711 -3.1112 -3.4820
  609SOL    HW2 1827   1.292   1.359   0.089  0.8622 -0.1765 -2.5448
  610SOL     OW 1828   3.007   1.195   2.274  0.3016  0.3883 -0.1174
  610SOL    HW1 1829   3.005   1.097   2.238  1.0785 -0.4983 -0.9368
  610SOL    HW2 1830   3.038   1.261   2.204 -0.3697 -0.3460 -0.2932
  611SOL     OW 1831   2.499   0.260   1.187 -0.1922 -0.3314  0.2538
  611SOL    HW1 1832   2.429   0.180   1.196  0.3134 -0.2043 -0.8353
  611SOL    HW2 1833   2.578   0.260   1.255 -0.1136  1.2451 -0.9490
  612SOL     OW 1834   0.758   2.295   1.168  0.2474  0.4921 -0.1522
  612SOL    HW1 1835   0.712   2.216   1.222  0.4004 -1.1606  1.6399
  612SOL    HW2 1836   0.701   2.378   1.153  2.1230 -1.3819 -0.2592
  613SOL     OW 1837   0.846   1.387   2.386 -0.4864 -0.2085  0.4722
  613SOL    HW1 1838   0.856   1.457   2.314  1.9542  0.1214  1.8241
  613SOL    HW2 1839   0.796   1.301   2.365  1.6095 -0.3417  0.8021
  614SOL     OW 1840   1.560   1.682   1.812  0.5644  0.5963 -0.1352
  614SOL    HW1 1841   1.523   1.778   1.794  0.6253  0.5765  0.0410
  614SOL    HW2 1842   1.657   1.671   1.844 -0.5959 -1.1183 -1.8025
  615SOL     OW 1843   0.755   1.384   1.731 -0.0110 -0.2577 -0.1421
  615SOL    HW1 1844   0.743   1.329   1.648  0.4789  2.8211  1.7729
  615SOL    HW2 1845   0.814   1.471   1.713  0.1600  2.2524 -0.7844
  616SOL     OW 1846   1.124   1.534   2.140  0.5577 -0.3085 -0.1962
  616SOL    HW1 1847   1.026   1.557   2.164  0.2247 -0.8351 -0.2304
  616SOL    HW2 1848   1.157   1.586   2.055 -1.2191  0.1806  0.6064
  617SOL     OW 1849   3.004   1.522   1.645  0.0829  0.8159  0.7398
  617SOL    HW1 1850   3.004   1.434   1.702  1.7383  0.8114  0.0902
  617SOL    HW2 1851   2.993   1.498   1.547  0.6209 -1.7375  0.9152
  618SOL     OW 1852   1.933   1.942   1.433  0.0364  0.3644  0.1040
  618SOL    HW1 1853   2.032   1.954   1.401  1.1377  1.1948 -1.0340
  618SOL    HW2 1854   1.914   1.853   1.489  0.1763 -3.7705 -1.3578
  619SOL     OW 1855   1.695   0.455   2.359  0.1437  0.6143 -0.3888
  619SOL    HW1 1856   1.625   0.506   2.313  2.3430 -1.1773  1.1555
  619SOL    HW2 1857   1.666   0.355   2.371  3.5293 -0.4175 -1.7523
  620SOL     OW 1858   2.209   2.942   0.576  0.0920  0.2041  0.4152
  620SOL    HW1 1859   2.118   2.991   0.568  0.6343 -2.3480 -0.3574
  620SOL    HW2 1860   2.225   2.896   0.669  0.2226 -2.9930  1.1565
  621SOL     OW 1861   2.229   1.893   1.362  0.1208  0.0577  0.5992
  621SOL    HW1 1862   2.216   1.902   1.467 -1.1605 -1.9188  0.3883
  621SOL    HW2 1863   2.216   1.797   1.328 -1.4903  3.1283 -0.2154
  622SOL     OW 1864   2.209   0.903   1.776  0.5188  0.7167  0.5279
  622SOL    HW1 1865   2.291   0.849   1.750  0.3520 -0.5240  1.7920
  622SOL    HW2 1866   2.177   0.877   1.871  3.1510 -0.9268 -0.8105
  623SOL     OW 1867   1.337   0.789   2.573 -0.2496  0.4721 -0.4300
  623SOL    HW1 1868   1.274   0.744   2.649 -0.1128 -0.5487  1.2459
  623SOL    HW2 1869   1.285   0.845   2.499  0.1824  1.6699 -2.5315
  624SOL     OW 1870   0.513   0.722   3.098  0.1361 -0.3938  0.5968
  624SOL    HW1 1871   0.564   0.754   3.022 -1.7994  0.4528 -1.8718
  624SOL    HW2 1872   0.492   0.798   3.164  1.7372  1.4412  0.0988
  625SOL     OW 1873   2.759   1.694   0.890 -0.5188 -0.3641 -0.1367
  625SOL    HW1 1874   2.697   1.735   0.963 -0.2672 -1.2951  2.5002
  625SOL    HW2 1875   2.774   1.591   0.903 -0.1135 -1.3913 -0.2346
  626SOL     OW 1876   0.509   2.756   1.905 -0.1814  0.3822  0.9185
  626SOL    HW1 1877   0.569   2.839   1.922 -0.6847  0.6143 -1.4751
  626SOL    HW2 1878   0.422   2.787   1.863  2.2824 -1.4771 -2.1362
  627SOL     OW 1879   0.737   1.033   1.517  0.2084  0.8073 -0.4300
  627SOL    HW1 1880   0.777   0.936   1.537  0.1230 -1.8799  2.6885
  627SOL    HW2 1881   0.803   1.079   1.452  3.9616 -3.5993  2.0729
  628SOL     OW 1882   2.432   0.190   0.708 -0.1582 -0.8731 -0.1266
  628SOL    HW1 1883   2.452   0.111   0.650  0.6434  1.7133 -0.6870
  628SOL    HW2 1884   2.329   0.198   0.733 -0.4056  0.5120  3.7591
  629SOL     OW 1885   1.972   0.935   1.977 -0.0747  0.0354 -0.0800
  629SOL    HW1 1886   2.055   0.952   2.043  0.7976  1.4488 -0.1148
  629SOL    HW2 1887   1.937   1.025   1.945  0.4411  2.3412  2.6046
  630SOL     OW 1888   2.732   2.180   0.769  0.1502  0.0747  0.2055
  630SOL    HW1 1889   2.676   2.236   0.827  2.9970  0.2056 -2.5588
  630SOL    HW2 1890   2.695   2.082   0.767  0.6761  2.4855 -1.2451
  631SOL     OW 1891   3.002   0.221   2.098  0.0881 -0.1123 -0.0657
  631SOL    HW1 1892   3.048   0.242   2.189 -1.2284 -0.3448  2.5829
  631SOL    HW2 1893   3.064   0.171   2.026  0.5202 -0.9864 -1.5204
  632SOL     OW 1894   2.319   2.502   0.666 -0.9921  0.4373  0.4106
  632SOL    HW1 1895   2.399   2.553   0.713 -1.0475  3.0892  0.6283
  632SOL    HW2 1896   2.295   2.554   0.581  0.1062  1.8960  1.0443
  633SOL     OW 1897   1.602   1.275   2.582  0.3131  0.1371 -0.0293
  633SOL    HW1 1898   1.565   1.356   2.637 -0.0412  2.9198 -1.4607
  633SOL    HW2 1899   1.533   1.244   2.510 -1.3305  0.4801 -0.2164
  634SOL     OW 1900   0.632   2.029   0.999  0.1112  0.1594  0.2260
  634SOL    HW1 1901   0.591   2.094   1.069  0.2271  0.4085  1.5582
  634SOL    HW2 1902   0.726   2.054   0.974  1.2059  1.7497  1.4380
  635SOL     OW 1903   0.051   2.303   3.055  0.0423 -0.5897  0.3142
  635SOL    HW1 1904   0.026   2.376   2.984  0.5995  2.4032  3.1828
  635SOL    HW2 1905   0.056   2.341   3.152 -0.1198  0.0971  0.9602
  636SOL     OW 1906   2.285   2.806   1.998 -0.1955  0.7116  0.4969
  636SOL    HW1 1907   2.302   2.910   1.999 -0.8576 -0.5235 -0.2106
  636SOL    HW2 1908   2.227   2.774   2.086 -3.4349 -1.8753  2.0764
  637SOL     OW 1909   2.542   0.707   2.048  0.1435  0.6069  0.1424
  637SOL    HW1 1910   2.505   0.692   1.953 -2.5743  0.0394  1.6929
  637SOL    HW2 1911   2.612   0.785   2.051  1.7988 -1.3003  0.5727
  638SOL     OW 1912   2.517   1.867   1.323  0.0514 -0.0914  0.1565
  638SOL    HW1 1913   2.414   1.886   1.331  4.1909 -1.3388  0.9139
  638SOL    HW2 1914   2.542   1.784   1.379 -2.0938  0.6393  1.4733
  639SOL     OW 1915   1.311   2.228   1.615 -0.0524  0.2506  0.0217
  639SOL    HW1 1916   1.324   2.163   1.540  0.5834  2.0680  1.4973
  639SOL    HW2 1917   1.235   2.201   1.677  0.3594  0.3919  1.1624
  640SOL     OW 1918   0.168   1.200   1.564 -0.1658 -0.0340 -0.4764
  640SOL    HW1 1919   0.165   1.286   1.625  2.3205 -1.2511 -0.3419
  640SOL    HW2 1920   0.265   1.156   1.565  2.6130  1.7130 -1.5012
  641SOL     OW 1921   1.985   0.157   1.477 -0.1373  0.3966 -0.4034
  641SOL    HW1 1922   1.898   0.210   1.498 -0.1844  2.7116 -1.0858
  641SOL    HW2 1923   2.030   0.123   1.559 -0.9878  3.0603 -0.2960
  642SOL     OW 1924   1.985   0.104   0.310  0.9942 -0.6850 -0.0395
  642SOL    HW1 1925   2.083   0.098   0.340 -2.3089 -0.9098  2.2970
  642SOL    HW2 1926   1.919   0.070   0.378 -0.5228 -0.3704 -2.1073
  643SOL     OW 1927   2.867   1.866   2.084 -0.5312  0.0435  0.0742
  643SOL    HW1 1928   2.820   1.797   2.024  1.5077  0.1788  1.3607
  643SOL    HW2 1929   2.854   1.963   2.050 -0.5016  0.0951  2.7214
  644SOL     OW 1930   2.189   2.296   1.205  0.2681 -0.5059  0.5492
  644SOL    HW1 1931   2.280   2.278   1.166  0.6901 -0.0520  1.3559
  644SOL    HW2 1932   2.197   2.308   1.306  1.4252  1.8220 -1.5022
  645SOL     OW 1933   0.591   0.801   1.160  0.0430  0.8208 -0.2652
  645SOL    HW1 1934   0.529   0.732   1.112  1.0071 -0.9333  0.3642
  645SOL    HW2 1935   0.621   0.890   1.112  1.9000  0.0975  1.9394
  646SOL     OW 1936   1.515   1.949   1.814 -0.0041  0.3553 -0.0869
  646SOL    HW1 1937   1.594   2.013   1.807 -1.2093 -0.5250 -0.1152
  646SOL    HW2 1938   1.449   1.974   1.886 -0.5273 -0.2143  0.2561
  647SOL     OW 1939   0.863   0.933   0.664 -0.4871 -0.5333 -0.1185
  647SOL    HW1 1940   0.940   0.917   0.730 -0.5932 -1.1292  0.1914
  647SOL    HW2 1941   0.777   0.901   0.709  0.3370  0.4813 -2.9710
  648SOL     OW 1942   0.191   0.174   0.318  0.2956  0.2177  0.5096
  648SOL    HW1 1943   0.203   0.092   0.248  2.9344 -1.4767 -2.6611
  648SOL    HW2 1944   0.171   0.265   0.277  1.2680  1.9782 -0.6509
  649SOL     OW 1945  -0.001   0.121   0.931  0.1609 -0.2655  0.2089
  649SOL    HW1 1946   0.104   0.121   0.926  0.4528  2.7484 -0.0610
  649SOL    HW2 1947  -0.045   0.174   1.006 -1.5676 -1.2815 -1.8190
  650SOL     OW 1948   2.717   0.718   1.406  0.4994  0.0317  0.6493
  650SOL    HW1 1949   2.631   0.682   1.450 -2.3841  0.3034 -0.3709
  650SOL    HW2 1950   2.697   0.801   1.340 -2.7462  1.6970  1.3611
  651SOL     OW 1951   0.909   1.601   1.617  0.1200 -0.1186 -0.6233
  651SOL    HW1 1952   1.001   1.645   1.612 -0.8113  2.3843  1.5240
  651SOL    HW2 1953   0.841   1.613   1.539  0.4155  1.0508  1.8372
  652SOL     OW 1954   2.240   2.502   2.389  0.5095  0.0480 -0.2247
  652SOL    HW1 1955   2.186   2.515   2.473  5.1336  1.1600 -2.2210
  652SOL    HW2 1956   2.202   2.562   2.311 -1.1941  0.8814 -0.9772
  653SOL     OW 1957   2.697   1.186   0.293 -0.3039 -0.3874  0.1262
  653SOL    HW1 1958   2.770   1.261   0.299  3.0693  0.6721 -1.0137
  653SOL    HW2 1959   2.743   1.091   0.292  0.6782  0.4474 -0.1304
  654SOL     OW 1960   1.284   2.282   1.231 -0.1191 -0.3594  0.0176
  654SOL    HW1 1961   1.323   2.207   1.297  1.8735 -3.1461 -0.8684
  654SOL    HW2 1962   1.318   2.276   1.134 -0.9977 -0.9871 -0.3938
  655SOL     OW 1963   0.209   1.027   1.850 -0.2919  0.5603  0.3077
  655SOL    HW1 1964   0.246   0.940   1.803  1.5675 -1.1535 -2.6725
  655SOL    HW2 1965   0.283   1.102   1.854  2.5454 -1.5814  0.4227
  656SOL     OW 1966   2.518   2.493   2.579  0.1099  0.0111 -0.8007
  656SOL    HW1 1967   2.612   2.501   2.533 -2.1405 -1.1527  2.4651
  656SOL    HW2 1968   2.439   2.483   2.513 -0.4398  1.0058 -1.5635
  657SOL     OW 1969   3.039   1.093   1.865  0.3310  0.0819 -0.4003
  657SOL    HW1 1970   3.030   1.179   1.927  1.4202 -1.7706  0.9745
  657SOL    HW2 1971   3.135   1.052   1.866 -0.3792 -0.3943 -1.0870
  658SOL     OW 1972   1.637   0.179   2.381  0.2208  0.1418 -0.4265
  658SOL    HW1 1973   1.676   0.116   2.458 -0.1001  0.5522  2.1525
  658SOL    HW2 1974   1.690   0.154   2.291 -2.1598 -2.3259  1.6108
  659SOL     OW 1975   1.402   0.576   2.897  0.5736 -0.4900  0.0932
  659SOL    HW1 1976   1.491   0.628   2.888 -1.6254  0.0765 -3.4504
  659SOL    HW2 1977   1.322   0.619   2.847  0.3466 -2.2302  1.6909
  660SOL     OW 1978   1.441   0.367   1.405 -0.7283  0.2091 -0.2255
  660SOL    HW1 1979   1.457   0.386   1.508  1.2338 -0.6727 -0.0551
  660SOL    HW2 1980   1.499   0.293   1.367 -1.6386  3.0597  1.1005
  661SOL     OW 1981   2.486   1.177   0.674 -0.2747  0.0191 -0.0453
  661SOL    HW1 1982   2.525   1.143   0.583 -0.0488 -2.5639  0.4381
  661SOL    HW2 1983   2.431   1.268   0.663 -0.0779 -1.1114 -1.1603
  662SOL     OW 1984   1.320   0.423   1.841 -0.0380  0.1297 -0.0117
  662SOL    HW1 1985   1.297   0.322   1.819  2.2352 -0.3553 -1.5515
  662SOL    HW2 1986   1.252   0.464   1.911 -0.0770  0.4220 -0.9988
  663SOL     OW 1987   0.842   1.599   2.180 -0.2844 -0.0226 -0.7242
  663SOL    HW1 1988   0.816   1.690   2.225 -1.8571  0.1420  2.1068
  663SOL    HW2 1989   0.788   1.581   2.090  0.4359 -1.7742  0.1022
  664SOL     OW 1990   1.674   2.023   1.375  0.3509 -0.2058  0.4109
  664SOL    HW1 1991   1.621   1.942   1.412  0.1698 -1.6689 -0.7058
  664SOL    HW2 1992   1.778   2.016   1.389  0.3151  0.5092 -1.6153
  665SOL     OW 1993   2.219   0.649   1.957  0.2876 -0.7125  0.2107
  665SOL    HW1 1994   2.187   0.557   1.986  1.1222 -1.2647 -0.6963
  665SOL    HW2 1995   2.268   0.703   2.028  0.9926  0.9283  0.1435
  666SOL     OW 1996   0.507   2.296   0.476 -0.0467  0.0387  0.0111
  666SOL    HW1 1997   0.574   2.377   0.470 -0.4825 -2.6547 -0.7939
  666SOL    HW2 1998   0.460   2.282   0.565 -0.3410  0.7896  1.4384
  667SOL     OW 1999   2.025   0.255   1.013  1.1396  1.1482 -0.1268
  667SOL    HW1 2000   2.056   0.346   1.058  1.0561  0.9168 -1.8978
  667SOL    HW2 2001   1.953   0.201   1.067 -0.4448 -0.8769  0.4438
  668SOL     OW 2002   1.996   0.530   1.183 -0.1337 -0.7857  0.0633
  668SOL    HW1 2003   2.062   0.561   1.110 -1.7226 -1.9013  2.0769
  668SOL    HW2 2004   2.039   0.515   1.277  2.6158  0.3856  1.5503
  669SOL     OW 2005   2.997   2.103   0.910 -0.2940 -0.4106  0.2050
  669SOL    HW1 2006   2.943   2.122   0.828  3.5977 -0.6394  0.8883
  669SOL    HW2 2007   2.971   2.172   0.979 -1.5401 -3.4279 -0.8140
  670SOL     OW 2008   2.823   2.343   2.020 -0.3899 -0.8437  0.1443
  670SOL    HW1 2009   2.775   2.307   2.103 -0.0827  0.3308  1.3327
  670SOL    HW2 2010   2.786   2.442   1.998 -0.3965 -1.9306 -3.4289
  671SOL     OW 2011   1.745   1.668   1.456  0.0351 -0.9663 -0.2436
  671SOL    HW1 2012   1.763   1.691   1.356  3.0064  1.0413  2.4385
  671SOL    HW2 2013   1.657   1.615   1.462 -1.4716  0.1082  0.5462
  672SOL     OW 2014   0.437   0.626   2.437 -0.1684  0.3787 -0.1212
  672SOL    HW1 2015   0.464   0.648   2.337  1.0662 -0.9762 -3.7169
  672SOL    HW2 2016   0.344   0.671   2.457 -0.1191 -0.3011 -0.0397
  673SOL     OW 2017   0.171   1.206   1.162  0.5752 -0.0661 -0.3734
  673SOL    HW1 2018   0.203   1.298   1.207 -0.3774  0.8521 -0.8889
  673SOL    HW2 2019   0.252   1.151   1.123 -0.4076  0.7968 -0.8574
  674SOL     OW 2020   1.528   2.884   0.145  0.0777 -0.5239 -0.4186
  674SOL    HW1 2021   1.567   2.976   0.117 -1.2914  0.9709  0.3192
  674SOL    HW2 2022   1.584   2.800   0.124 -2.4657  0.5992  1.2805
  675SOL     OW 2023   1.689   0.831   2.335  0.5205 -0.4671  0.0697
  675SOL    HW1 2024   1.785   0.822   2.301  1.9535  2.2795 -1.9004
  675SOL    HW2 2025   1.633   0.754   2.298 -1.8842 -1.0863 -3.5056
  676SOL     OW 2026   2.502   1.534   1.990 -0.3788 -0.2328 -0.1067
  676SOL    HW1 2027   2.447   1.500   1.914  3.2544 -0.1646  1.2507
  676SOL    HW2 2028   2.545   1.459   2.051  0.9969  0.2854  0.1458
  677SOL     OW 2029   1.794   0.588   0.968 -0.5378 -0.6103  0.4935
  677SOL    HW1 2030   1.869   0.579   1.036 -0.9965 -1.4227  1.0686
  677SOL    HW2 2031   1.707   0.543   0.995  1.3282 -1.1439  0.0380
  678SOL     OW 2032   0.065   0.740   1.656  0.2058  0.4739  0.4220
  678SOL    HW1 2033   0.162   0.752   1.685  0.5900 -0.4609 -0.9041
  678SOL    HW2 2034  -0.007   0.770   1.725  1.5752  1.4367 -1.2693
  679SOL     OW 2035   2.512   1.189   1.056  0.2323  0.4348 -0.3591
  679SOL    HW1 2036   2.439   1.223   1.117  2.4637 -0.7170  0.6631
  679SOL    HW2 2037   2.490   1.097   1.016  1.6143  1.2449  2.0625
  680SOL     OW 2038   2.841   0.636   1.667  0.1288 -0.1731  0.1764
  680SOL    HW1 2039   2.815   0.678   1.575  0.8118 -2.0062 -1.8380
  680SOL    HW2 2040   2.887   0.706   1.728  0.9961  0.1351  0.8638
  681SOL     OW 2041   3.015   0.162   1.605  0.3926  0.1251  0.1602
  681SOL    HW1 2042   3.101   0.148   1.544 -1.3260  0.7008 -0.8909
  681SOL    HW2 2043   2.974   0.255   1.592 -0.8282 -1.0301 -0.0741
  682SOL     OW 2044   0.779   0.040   1.403 -0.2408  0.3423  0.1041
  682SOL    HW1 2045   0.690   0.005   1.443 -0.5081 -1.1106 -1.7743
  682SOL    HW2 2046   0.788   0.029   1.301  0.6717 -0.7682 -1.5446
  683SOL     OW 2047   1.391   0.246   2.174  0.4028 -0.5351 -0.1118
  683SOL    HW1 2048   1.350   0.299   2.255  1.6398  2.5383  0.0234
  683SOL    HW2 2049   1.480   0.292   2.147 -2.0076  0.8363  0.9150
  684SOL     OW 2050   1.439   2.132   0.493 -0.1042  0.5186 -0.0855
  684SOL    HW1 2051   1.508   2.065   0.535  0.5177  0.4700 -1.1090
  684SOL    HW2 2052   1.347   2.091   0.464 -0.5742 -0.5432  1.1568
  685SOL     OW 2053   2.184   1.925   1.920 -0.5518 -0.7549  0.1300
  685SOL    HW1 2054   2.241   1.981   1.854  0.2504 -2.9835 -1.8730
  685SOL    HW2 2055   2.249   1.855   1.966  2.2978 -4.5834 -0.8099
  686SOL     OW 2056   1.561   1.746   2.699  0.7398 -0.0092  0.5582
  686SOL    HW1 2057   1.521   1.650   2.705 -1.8508 -1.8902 -0.5253
  686SOL    HW2 2058   1.649   1.746   2.751 -0.0740  2.6181  0.8395
  687SOL     OW 2059   1.344   2.524   1.899  0.2887 -0.4842  0.3854
  687SOL    HW1 2060   1.404   2.455   1.844  0.3463  0.9052 -2.8838
  687SOL    HW2 2061   1.357   2.523   2.001  3.1460  2.8948  2.0823
  688SOL     OW 2062   2.080   1.404   1.624  0.2106 -0.9685  0.2039
  688SOL    HW1 2063   2.168   1.434   1.575 -0.7400  0.3816  0.4130
  688SOL    HW2 2064   2.012   1.357   1.563 -1.2947 -0.2323  1.0569
  689SOL     OW 2065   2.468   1.110   2.762 -0.2996  0.1357  0.1699
  689SOL    HW1 2066   2.369   1.090   2.799 -3.8445  0.7571  0.9180
  689SOL    HW2 2067   2.542   1.086   2.830  1.4278  1.1079 -1.4873
  690SOL     OW 2068   2.216   2.819   3.082  0.2899  0.2756 -0.8779
  690SOL    HW1 2069   2.195   2.755   3.004 -0.3677  0.3853 -0.0298
  690SOL    HW2 2070   2.139   2.838   3.153  0.7349 -1.9450  0.1188
  691SOL     OW 2071   2.581   0.463   2.141 -0.5923  0.6098  0.9645
  691SOL    HW1 2072   2.668   0.420   2.109 -2.5703 -1.1547 -0.5400
  691SOL    HW2 2073   2.570   0.560   2.107  1.0030  1.8865  1.1763
  692SOL     OW 2074   2.783   1.229   0.717 -0.5331  0.3955  0.0029
  692SOL    HW1 2075   2.678   1.235   0.714 -1.3142  0.6073  0.9596
  692SOL    HW2 2076   2.834   1.305   0.763  0.0628 -0.6929  1.0160
  693SOL     OW 2077   2.879   3.001   0.612  0.2551  0.0651 -0.4669
  693SOL    HW1 2078   2.860   3.088   0.658 -2.6259 -0.8608  0.3431
  693SOL    HW2 2079   2.821   2.970   0.534  0.6071 -2.2496  1.8620
  694SOL     OW 2080   2.404   2.213   0.064 -0.9094 -0.1559  0.2251
  694SOL    HW1 2081   2.376   2.304   0.090 -0.9519 -2.4106 -1.3612
  694SOL    HW2 2082   2.328   2.140   0.054  1.1192  0.6915  1.1689
  695SOL     OW 2083   0.533   3.013   1.460 -0.2684  0.1481 -0.2167
  695SOL    HW1 2084   0.531   2.913   1.431 -0.2917 -2.1311  0.8929
  695SOL    HW2 2085   0.471   3.038   1.541 -0.4618  1.0929  1.1267
  696SOL     OW 2086   2.685   1.900   0.721  0.0473 -0.0240  0.2442
  696SOL    HW1 2087   2.725   1.823   0.778  0.2693  3.3080  0.2385
  696SOL    HW2 2088   2.668   1.879   0.617  1.3550 -0.3734  0.2194
  697SOL     OW 2089   1.750   2.091   1.749 -0.2572 -0.2369 -0.1626
  697SOL    HW1 2090   1.812   2.025   1.798  0.1948 -0.1093 -1.0837
  697SOL    HW2 2091   1.762   2.187   1.785 -0.6898  2.7717 -1.1477
  698SOL     OW 2092   2.906   0.399   2.735  0.5914 -0.3884 -0.2340
  698SOL    HW1 2093   2.861   0.345   2.652  2.4084 -4.7847 -0.8483
  698SOL    HW2 2094   2.965   0.341   2.795  3.5977  1.2595  1.5236
  699SOL     OW 2095   1.564   0.071   2.937  0.0626 -0.1758 -0.3779
  699SOL    HW1 2096   1.499   0.002   2.891 -0.0698 -2.6381  2.4549
  699SOL    HW2 2097   1.617   0.116   2.859 -0.6561 -1.7397  0.0086
  700SOL     OW 2098   1.009   2.360   1.340  0.0488  0.4597  0.7156
  700SOL    HW1 2099   1.110   2.353   1.307  3.6990  0.3524 -0.2822
  700SOL    HW2 2100   0.947   2.306   1.275  1.3714 -0.5662  1.4185
  701SOL     OW 2101   1.885   2.815   0.046 -0.2563  0.4224  0.2627
  701SOL    HW1 2102   1.893   2.763   0.138  0.7284 -0.3452 -1.0786
  701SOL    HW2 2103   1.890   2.916   0.065 -1.5880  0.9984  2.8567
  702SOL     OW 2104   2.100   1.363   1.926 -0.3889  0.7911 -0.5628
  702SOL    HW1 2105   2.145   1.267   1.923 -0.0308 -1.8319  0.1452
  702SOL    HW2 2106   2.096   1.410   1.838  1.3198  0.3213  1.9356
  703SOL     OW 2107   1.947   0.822   1.425  0.1797 -0.3485  0.0349
  703SOL    HW1 2108   1.930   0.737   1.482  0.5937  1.1655 -2.0844
  703SOL    HW2 2109   2.005   0.891   1.473  0.6956 -2.4080  0.7000
  704SOL     OW 2110   0.329   2.039   1.691 -0.0870 -0.0935  0.3050
  704SOL    HW1 2111   0.379   1.984   1.766  1.3639 -1.0109 -3.6812
  704SOL    HW2 2112   0.363   2.134   1.675 -2.4609 -0.9993 -2.6779
  705SOL     OW 2113   2.546   1.409   0.894 -0.3268 -0.0343  0.0453
  705SOL    HW1 2114   2.471   1.409   0.824 -0.7467 -0.2167 -3.0924
  705SOL    HW2 2115   2.576   1.316   0.932 -2.4016  0.6356  1.4295
  706SOL     OW 2116   0.648   1.761   1.853  0.1041 -0.1806 -0.5829
  706SOL    HW1 2117   0.644   1.670   1.892  0.4116  0.3808  0.2515
  706SOL    HW2 2118   0.744   1.800   1.869 -0.2480 -1.2009  0.2933
  707SOL     OW 2119   2.262   1.160   1.826  0.4053  0.5990  0.2157
  707SOL    HW1 2120   2.347   1.155   1.889 -0.6012  0.7311  0.0434
  707SOL    HW2 2121   2.228   1.070   1.792  0.6803 -1.8120  1.3609
  708SOL     OW 2122   3.060   0.473   3.015  0.5749 -0.2047  0.3902
  708SOL    HW1 2123   3.053   0.547   2.937 -0.0409 -0.2260 -0.7736
  708SOL    HW2 2124   3.036   0.383   2.970  1.5295 -1.5547  2.4307
  709SOL     OW 2125   1.822   1.800   0.297 -0.2325  0.2031 -0.1213
  709SOL    HW1 2126   1.834   1.890   0.350  1.3508 -3.0252  1.3334
  709SOL    HW2 2127   1.865   1.800   0.207  1.7860 -1.4508 -0.2108
  710SOL     OW 2128   1.715   1.590   2.445  0.0466  0.7731  0.6835
  710SOL    HW1 2129   1.770   1.569   2.358  2.9649  1.4242 -1.7319
  710SOL    HW2 2130   1.764   1.570   2.531  0.8383  0.7985  1.6596
  711SOL     OW 2131   2.642   2.923   0.957 -0.1200  0.0828  0.4216
  711SOL    HW1 2132   2.653   3.024   0.940 -1.7503  0.8465  1.8820
  711SOL    HW2 2133   2.731   2.877   0.978  4.5792  0.5562 -5.3375
  712SOL     OW 2134   1.503   2.348   1.763  0.4381  0.6631  0.3483
  712SOL    HW1 2135   1.572   2.273   1.774  1.2551  1.9720  0.4865
  712SOL    HW2 2136   1.427   2.320   1.693 -0.0079  2.1061  0.0224
  713SOL     OW 2137   2.806   1.456   2.458 -0.0621 -0.6145 -0.1623
  713SOL    HW1 2138   2.801   1.362   2.503  0.5970 -0.7522 -0.0638
  713SOL    HW2 2139   2.715   1.501   2.472  2.2138  0.8628  0.4097
  714SOL     OW 2140   2.605   0.478   2.426 -0.1011  0.0496  0.0679
  714SOL    HW1 2141   2.518   0.473   2.482 -1.0205 -2.5454  1.5431
  714SOL    HW2 2142   2.585   0.481   2.323  0.4017  1.1399 -1.9046
  715SOL     OW 2143   1.566   2.087   1.132 -0.0909  0.1755  0.0308
  715SOL    HW1 2144   1.532   2.184   1.132  0.7912  1.4617 -2.0481
  715SOL    HW2 2145   1.615   2.053   1.221  1.3597  0.9649  3.2439
  716SOL     OW 2146   1.211   0.227   1.508  0.3025 -0.0311 -0.3301
  716SOL    HW1 2147   1.117   0.275   1.513 -0.3788 -0.6424 -0.5018
  716SOL    HW2 2148   1.286   0.285   1.467  1.8721  1.3048  1.1740
  717SOL     OW 2149   1.086   0.579   1.618  0.2842  0.1427 -0.3338
  717SOL    HW1 2150   1.191   0.596   1.612 -1.4317  2.4858 -1.6375
  717SOL    HW2 2151   1.048   0.591   1.521  1.8168 -0.4580 -0.1673
  718SOL     OW 2152   0.663   1.014   1.009 -0.9380  0.0185  0.2355
  718SOL    HW1 2153   0.616   1.054   0.923 -0.0446  1.9703 -0.6053
  718SOL    HW2 2154   0.739   1.081   1.043 -1.8636  1.1052 -0.5831
  719SOL     OW 2155   0.788   1.868   2.266  0.4178  0.3219 -0.4515
  719SOL    HW1 2156   0.866   1.920   2.309 -3.2097  1.8366 -0.7839
  719SOL    HW2 2157   0.704   1.904   2.309  0.2764  3.8059 -0.0444
  720SOL     OW 2158   2.204   1.084   0.259  0.0087 -0.5871 -0.2483
  720SOL    HW1 2159   2.280   1.022   0.232 -0.7808  1.9798 -0.4027
  720SOL    HW2 2160   2.180   1.073   0.359  3.3031  0.4804 -1.5149
  721SOL     OW 2161   2.322   0.015   2.050 -0.4542 -0.0015 -0.6780
  721SOL    HW1 2162   2.343   0.105   2.003  1.8011  0.5947  2.8005
  721SOL    HW2 2163   2.219   0.000   2.064 -2.2215  1.5156 -1.3240
  722SOL     OW 2164   2.392   1.647   0.573  0.1020  0.7576 -0.8490
  722SOL    HW1 2165   2.402   1.604   0.477  0.4201  1.3518 -0.9048
  722SOL    HW2 2166   2.297   1.677   0.600 -0.0136 -1.7222  0.7138
  723SOL     OW 2167   2.551   2.812   1.954 -0.3741  0.6249 -0.6653
  723SOL    HW1 2168   2.607   2.846   2.036  2.0785  0.1381  0.4058
  723SOL    HW2 2169   2.455   2.793   1.979  1.6734 -1.5074 -0.1836
  724SOL     OW 2170   0.485   2.460   2.426 -0.4496 -0.4455  0.3770
  724SOL    HW1 2171   0.385   2.485   2.444  0.5076 -0.5881 -2.0797
  724SOL    HW2 2172   0.544   2.474   2.513 -0.1456  1.1736 -1.8511
  725SOL     OW 2173   2.425   2.751   1.463 -1.1811  0.2915 -0.5934
  725SOL    HW1 2174   2.425   2.773   1.360  0.6291  2.5908  0.1454
  725SOL    HW2 2175   2.410   2.651   1.495  0.3424 -0.4786  0.9154
  726SOL     OW 2176   2.389   2.242   0.706  0.3338  0.3862  0.1777
  726SOL    HW1 2177   2.363   2.344   0.700 -2.6544  3.2471  0.8233
  726SOL    HW2 2178   2.415   2.205   0.615  0.4174  2.0606  1.1078
  727SOL     OW 2179   0.228   3.098   0.115 -0.3635  0.2809  0.4244
  727SOL    HW1 2180   0.236   2.998   0.098 -0.0515 -0.0285 -1.2960
  727SOL    HW2 2181   0.273   3.160   0.044  0.2202  0.9124 -0.3894
  728SOL     OW 2182   2.793   0.684   1.002 -0.5190  0.2883 -0.2334
  728SOL    HW1 2183   2.734   0.648   0.925 -2.0773 -0.9614 -0.1721
  728SOL    HW2 2184   2.803   0.603   1.075 -0.2878 -2.5575  1.4729
  729SOL     OW 2185   2.916   2.450   0.683  0.0600  0.4386 -0.0281
  729SOL    HW1 2186   2.870   2.373   0.733  1.4803 -0.7806  1.8057
  729SOL    HW2 2187   3.018   2.457   0.715  0.3713 -3.4438 -0.0788
  730SOL     OW 2188   2.581   0.573   0.774  0.1097 -0.0267  0.3585
  730SOL    HW1 2189   2.533   0.645   0.717 -1.9135  2.4013 -0.7276
  730SOL    HW2 2190   2.684   0.555   0.752  1.8596  0.6105 -2.0965
  731SOL     OW 2191   0.007   2.119   2.455  0.1241 -0.5839  0.1408
  731SOL    HW1 2192   0.072   2.155   2.527  1.3332 -0.4186  3.1467
  731SOL    HW2 2193  -0.081   2.182   2.457 -5.4275 -0.5142  0.1879
  732SOL     OW 2194   1.107   2.875   1.963 -0.1001  0.8304 -1.0196
  732SOL    HW1 2195   1.112   2.837   2.061  2.2397  0.4289 -0.1213
  732SOL    HW2 2196   1.136   2.809   1.888 -0.7794  1.2377  1.3374
  733SOL     OW 2197   0.003   0.748   2.070 -1.1423  0.1268 -0.3543
  733SOL    HW1 2198   0.102   0.789   2.071 -1.5627 -0.5473 -1.9964
  733SOL    HW2 2199   0.010   0.645   2.065  1.9774 -1.9936 -0.5219
  734SOL     OW 2200   1.421   0.336   2.746 -0.7563 -0.4461 -0.2732
  734SOL    HW1 2201   1.413   0.413   2.811  1.0324  1.1351 -0.2771
  734SOL    HW2 2202   1.333   0.280   2.743 -0.1153  1.2712 -0.7283
  735SOL     OW 2203   2.877   2.619   2.247  0.0019 -0.3623  0.0015
  735SOL    HW1 2204   2.796   2.666   2.197 -1.8032  0.8168 -0.1407
  735SOL    HW2 2205   2.951   2.587   2.184 -0.3629  0.4760  1.3622
  736SOL     OW 2206   0.763   0.400   2.659  0.1774 -0.3849  0.6402
  736SOL    HW1 2207   0.675   0.450   2.634  0.2304 -0.4508 -1.4253
  736SOL    HW2 2208   0.787   0.329   2.583  2.2660 -4.7530 -2.1732
  737SOL     OW 2209   2.646   0.499   2.864 -0.2374  0.5502 -0.3503
  737SOL    HW1 2210   2.649   0.471   2.965 -1.6274  0.3412 -1.2670
  737SOL    HW2 2211   2.735   0.469   2.817 -0.8478  1.4875  2.8196
  738SOL     OW 2212   1.595   1.224   2.964 -0.0876  0.1874  0.6270
  738SOL    HW1 2213   1.697   1.230   2.978  2.3724  0.5123  0.5506
  738SOL    HW2 2214   1.581   1.145   2.895  1.6552 -2.0174 -1.3883
  739SOL     OW 2215   1.801   0.671   0.722  0.4710  0.2464 -0.3317
  739SOL    HW1 2216   1.802   0.638   0.820  2.0125  0.1299  0.1344
  739SOL    HW2 2217   1.832   0.596   0.654  0.3305 -1.5945  0.0126
  740SOL     OW 2218   1.949   1.885   2.216  0.2612 -0.5314 -0.9856
  740SOL    HW1 2219   2.042   1.843   2.211  0.5561 -0.5563 -1.1980
  740SOL    HW2 2220   1.882   1.844   2.144  0.6530 -0.7807 -1.0565
  741SOL     OW 2221   2.486   0.035   2.624 -0.3033 -0.0330  0.2852
  741SOL    HW1 2222   2.588   0.038   2.634  0.9418  0.0671  0.4179
  741SOL    HW2 2223   2.453   0.021   2.525 -0.2461  1.8263 -0.1369
  742SOL     OW 2224   2.248   1.368   0.131 -0.2534  0.1067 -0.0345
  742SOL    HW1 2225   2.168   1.427   0.162 -0.6140  1.5654 -0.7907
  742SOL    HW2 2226   2.280   1.293   0.198 -1.9297 -1.8306  1.1302
  743SOL     OW 2227   1.761   0.595   2.600 -0.5992  0.1208  0.5427
  743SOL    HW1 2228   1.742   0.543   2.510  0.9759  0.5803 -0.1495
  743SOL    HW2 2229   1.695   0.673   2.613  1.5196  2.8018  0.9413
  744SOL     OW 2230   2.655   2.109   0.035  0.2358 -0.4147 -0.4315
  744SOL    HW1 2231   2.563   2.153   0.039  2.9689 -1.0730 -2.2912
  744SOL    HW2 2232   2.678   2.040   0.106  0.9682 -0.4691  2.5839
  745SOL     OW 2233   2.139   2.690   2.220  0.2598  0.8350 -0.6229
  745SOL    HW1 2234   2.057   2.651   2.167 -1.1920  1.3073  0.4610
  745SOL    HW2 2235   2.110   2.770   2.273 -2.1137 -2.0933 -1.2425
  746SOL     OW 2236   3.072   2.558   1.824 -0.0205  0.3480 -0.1596
  746SOL    HW1 2237   3.174   2.544   1.816 -0.3509  1.8787  0.6404
  746SOL    HW2 2238   3.048   2.657   1.831  1.2176 -0.9336  1.1700
  747SOL     OW 2239  -0.000   1.792   1.668 -0.3549  0.3765  0.8071
  747SOL    HW1 2240  -0.020   1.687   1.664 -0.5692 -1.1905 -2.5948
  747SOL    HW2 2241   0.060   1.820   1.589  0.5721  1.6908  1.5253
  748SOL     OW 2242   1.798   2.706   2.882 -0.5924 -0.9197 -0.1833
  748SOL    HW1 2243   1.820   2.737   2.981  1.8943  1.6722 -0.7020
  748SOL    HW2 2244   1.698   2.680   2.859 -0.2606 -1.1135 -1.0048
  749SOL     OW 2245   1.321   0.015   0.846 -0.2407  0.2769 -0.6412
  749SOL    HW1 2246   1.269  -0.071   0.857 -0.7744  3.8257 -1.2207
  749SOL    HW2 2247   1.333   0.050   0.752 -0.1418  3.2101  1.5890
  750SOL     OW 2248   2.305   0.243   1.888 -0.0773 -0.2832  0.6613
  750SOL    HW1 2249   2.333   0.278   1.792  3.7379 -1.6687 -3.7932
  750SOL    HW2 2250   2.314   0.315   1.962 -0.6517 -1.0215  0.0287
  751SOL     OW 2251   0.817   2.200   2.791 -0.2629 -0.1799 -0.0594
  751SOL    HW1 2252   0.870   2.166   2.872 -0.0513 -1.0502 -0.4047
  751SOL    HW2 2253   0.751   2.128   2.758  1.2622  0.3803  0.7257
  752SOL     OW 2254   1.238   0.889   1.542  0.5824  0.2383  0.7849
  752SOL    HW1 2255   1.307   0.933   1.474 -0.2584 -0.0355 -3.1627
  752SOL    HW2 2256   1.276   0.803   1.588 -1.1900 -1.0899  0.3279
  753SOL     OW 2257   0.931   2.605   1.723  0.2613  0.6273  0.8239
  753SOL    HW1 2258   1.021   2.648   1.707  3.3948  0.0295 -0.3150
  753SOL    HW2 2259   0.852   2.669   1.694  0.4698  1.3982 -0.5292
  754SOL     OW 2260   1.195   1.270   3.035 -0.4179 -0.4422  0.4537
  754SOL    HW1 2261   1.224   1.180   2.989 -2.8396  0.8805  0.5081
  754SOL    HW2 2262   1.200   1.355   2.976  1.1443 -0.4605 -2.3331
  755SOL     OW 2263   1.944   0.459   2.223  0.0589  0.0978 -0.1443
  755SOL    HW1 2264   2.016   0.401   2.269  1.7165  0.3475 -0.0166
  755SOL    HW2 2265   1.856   0.477   2.279 -0.7854  2.0657  0.2713
  756SOL     OW 2266   2.622   0.991   2.968  0.7621 -0.3227 -0.1335
  756SOL    HW1 2267   2.729   0.965   2.979  0.8033  1.6472 -1.2014
  756SOL    HW2 2268   2.566   0.905   2.987  0.7950 -1.9156  0.7520
  757SOL     OW 2269   0.065   0.485   1.790  0.5537  0.4521  0.0056
  757SOL    HW1 2270   0.025   0.554   1.721  1.3239  1.5940 -0.6625
  757SOL    HW2 2271   0.154   0.446   1.768 -0.0650  0.6573  2.0123
  758SOL     OW 2272   2.415   0.005   1.475  0.3946 -0.3580  0.1423
  758SOL    HW1 2273   2.366  -0.062   1.532 -0.3119  1.2864 -1.7325
  758SOL    HW2 2274   2.376   0.019   1.382 -0.0981 -0.1283 -0.8890
  759SOL     OW 2275   1.682   3.097   0.081 -0.2053 -0.2268 -0.2677
  759SOL    HW1 2276   1.633   3.138  -0.002 -1.0676 -1.4622  0.3814
  759SOL    HW2 2277   1.789   3.084   0.064  1.0865 -1.2707 -0.4016
  760SOL     OW 2278   2.744   2.033   2.751  0.6545 -0.1897  0.3259
  760SOL    HW1 2279   2.822   1.990   2.800  0.0953 -1.2559  1.0866
  760SOL    HW2 2280   2.716   2.119   2.801  0.5740  0.1356 -2.0707
  761SOL     OW 2281   1.971   1.696   1.623 -0.2490  0.3041  0.0141
  761SOL    HW1 2282   2.017   1.601   1.632  0.0060  1.5785 -1.3658
  761SOL    HW2 2283   1.890   1.693   1.552 -0.6256  0.7570 -1.0875
  762SOL     OW 2284   0.507   2.408   0.960  0.6821  0.0975  0.5562
  762SOL    HW1 2285   0.573   2.441   0.884 -3.4984 -0.5045 -3.4761
  762SOL    HW2 2286   0.527   2.454   1.049 -0.5576 -1.3605 -2.5132
  763SOL     OW 2287   2.107   1.514   2.987 -0.0180  0.0426 -0.1302
  763SOL    HW1 2288   2.192   1.478   3.027  1.2322  0.0108  0.3389
  763SOL    HW2 2289   2.016   1.480   3.020 -0.8325 -1.1482 -1.1632
  764SOL     OW 2290   0.702   0.530   0.906 -0.2068 -0.4969  0.1476
  764SOL    HW1 2291   0.672   0.445   0.856  1.1515 -0.2091  0.8966
  764SOL    HW2 2292   0.805   0.530   0.906 -1.7850 -0.7660  0.5589
  765SOL     OW 2293   0.655   0.235   0.825  0.3272 -0.1464  0.1066
  765SOL    HW1 2294   0.746   0.208   0.787  0.3507  1.4620  2.5609
  765SOL    HW2 2295   0.658   0.263   0.923 -0.3614  1.1596 -3.1429
  766SOL     OW 2296   2.957   2.092   0.032 -0.2362 -0.2054  0.3175
  766SOL    HW1 2297   2.855   2.109   0.022  2.1850 -0.6898 -1.8867
  766SOL    HW2 2298   3.013   2.159  -0.020  1.0704 -0.8824  1.6852
  767SOL     OW 2299   2.888   1.544   0.511 -0.1069  0.0683 -0.1934
  767SOL    HW1 2300   2.808   1.516   0.569 -2.1109 -0.5273 -0.7882
  767SOL    HW2 2301   2.967   1.576   0.567 -2.7438 -2.8271  0.4209
  768SOL     OW 2302   1.100   0.251   0.317 -0.4626  0.3055 -0.3191
  768SOL    HW1 2303   1.018   0.195   0.343  0.8234  0.9920  1.3361
  768SOL    HW2 2304   1.175   0.193   0.267  2.0622 -0.8199 -0.3297
  769SOL     OW 2305   1.182   1.813   2.253 -0.0760 -0.4253  0.6626
  769SOL    HW1 2306   1.111   1.838   2.327  2.9514  0.2107 -0.4206
  769SOL    HW2 2307   1.202   1.717   2.261  0.6167  3.0974 -1.5991
  770SOL     OW 2308   0.180   1.242   2.410 -0.1314 -0.4103  0.4857
  770SOL    HW1 2309   0.177   1.298   2.499  0.8125  1.0113  3.3592
  770SOL    HW2 2310   0.083   1.228   2.371 -0.6440 -0.6846 -0.3403
  771SOL     OW 2311   2.969   2.806   1.899  0.0066  0.0628  0.0512
  771SOL    HW1 2312   2.937   2.879   1.838  1.8776 -1.9393  1.5759
  771SOL    HW2 2313   2.998   2.847   1.989  2.0071  2.6439  1.9013
  772SOL     OW 2314   2.130   0.101   2.961 -0.3104 -0.0839  0.5151
  772SOL    HW1 2315   2.178   0.013   2.977 -2.2783  3.4370 -0.5697
  772SOL    HW2 2316   2.163   0.190   3.006  0.0022 -1.7896  1.1667
  773SOL     OW 2317   0.678   2.062   2.480 -0.2139 -0.0491 -0.1369
  773SOL    HW1 2318   0.653   2.131   2.407  1.6131  0.5546 -0.4538
  773SOL    HW2 2319   0.619   2.078   2.565 -1.3733 -1.8520 -1.4272
  774SOL     OW 2320   2.033   3.084   2.628 -0.0397 -0.5562 -0.5108
  774SOL    HW1 2321   2.036   3.184   2.658  1.5822 -2.0229  1.3837
  774SOL    HW2 2322   2.106   3.029   2.686  2.4351 -1.8163  3.2630
  775SOL     OW 2323   2.517   2.839   2.409  0.1262 -0.1792 -0.6804
  775SOL    HW1 2324   2.488   2.928   2.372  0.8304 -0.3631 -2.3089
  775SOL    HW2 2325   2.610   2.843   2.455 -0.7456  3.1362  0.4814
  776SOL     OW 2326   3.103   1.269   0.220  0.0150 -0.4743 -0.6191
  776SOL    HW1 2327   3.078   1.224   0.130 -0.2996 -3.1814 -0.8538
  776SOL    HW2 2328   3.022   1.298   0.283  0.6020 -1.7410 -0.2155
  777SOL     OW 2329   0.208   2.698   0.483 -0.1889 -0.1333  0.3519
  777SOL    HW1 2330   0.109   2.665   0.480 -1.1517 -0.3937 -2.8348
  777SOL    HW2 2331   0.217   2.799   0.477  0.4107 -0.7189 -0.0311
  778SOL     OW 2332   1.326   1.959   0.161 -0.1751 -0.1248 -0.4404
  778SOL    HW1 2333   1.259   1.985   0.234  0.6892  1.6740 -2.0725
  778SOL    HW2 2334   1.355   2.042   0.108  1.5928 -1.1266  0.7245
  779SOL     OW 2335   0.180   0.782   0.505  0.0955  0.5656 -0.3864
  779SOL    HW1 2336   0.136   0.691   0.473 -1.7693 -1.8717  0.4850
  779SOL    HW2 2337   0.112   0.843   0.560  0.9170  1.8433 -1.7162
  780SOL     OW 2338   0.002   0.332   2.370  0.6397 -0.2153  0.7295
  780SOL    HW1 2339  -0.039   0.430   2.363  1.3249 -0.3051  0.0425
  780SOL    HW2 2340   0.103   0.332   2.346  0.5073  2.6354  1.0811
  781SOL     OW 2341   0.594   1.746   1.581  0.2441  0.0263  0.3719
  781SOL    HW1 2342   0.643   1.749   1.674 -0.3863  0.7575  3.4775
  781SOL    HW2 2343   0.512   1.684   1.575  1.4430  0.7020  1.8446
  782SOL     OW 2344   2.581   0.152   0.926  0.1467  0.0626 -0.1866
  782SOL    HW1 2345   2.509   0.162   0.856  1.3488  1.1616 -0.9172
  782SOL    HW2 2346   2.561   0.212   1.009  0.9635 -0.7195  1.2054
  783SOL     OW 2347   2.858   0.676   2.508  0.6612  0.2741 -0.3621
  783SOL    HW1 2348   2.833   0.722   2.600 -1.4892  0.5609 -0.2187
  783SOL    HW2 2349   2.775   0.634   2.454 -1.5184 -0.4159 -0.6415
  784SOL     OW 2350   1.335   2.220   0.046  0.2634 -0.0707 -0.1345
  784SOL    HW1 2351   1.426   2.252   0.089  4.9029 -2.6560 -1.4201
  784SOL    HW2 2352   1.328   2.242  -0.050  2.1308 -2.1709  0.3769
  785SOL     OW 2353   2.180   0.347   0.003 -0.5352 -0.1541  0.2857
  785SOL    HW1 2354   2.094   0.334   0.061  2.0367 -0.0599 -0.0003
  785SOL    HW2 2355   2.194   0.453  -0.011  0.5252 -0.8311  2.1693
  786SOL     OW 2356   2.049   2.143   2.234  0.1782  0.6839  0.1349
  786SOL    HW1 2357   2.005   2.049   2.224  0.4421 -1.5083  2.3669
  786SOL    HW2 2358   2.141   2.147   2.282  3.2451 -1.5078 -0.9048
  787SOL     OW 2359   1.383   0.623   0.835 -0.1290  0.2720 -0.1896
  787SOL    HW1 2360   1.320   0.706   0.834 -1.0370 -0.7752  0.2859
  787SOL    HW2 2361   1.417   0.601   0.742 -0.0297  1.9587  2.3377
  788SOL     OW 2362   1.222   0.409   3.033 -0.0744  0.5006 -0.0303
  788SOL    HW1 2363   1.148   0.379   2.970 -1.8677  1.0549 -1.5742
  788SOL    HW2 2364   1.288   0.479   2.988 -0.0593  1.2440  0.6555
  789SOL     OW 2365   2.622   0.097   1.825  0.0613 -0.2826 -0.2257
  789SOL    HW1 2366   2.538   0.134   1.866  1.8075 -2.0294 -0.2912
  789SOL    HW2 2367   2.608   0.002   1.771  0.4929  0.9021  0.4251
  790SOL     OW 2368   2.592   2.640   0.849  0.0400 -0.3636 -0.7449
  790SOL    HW1 2369   2.641   2.631   0.756 -0.4547  0.4473 -0.8600
  790SOL    HW2 2370   2.616   2.731   0.906  1.8662  1.0222 -1.1073
  791SOL     OW 2371   1.950   1.278   0.236 -0.2590  0.4048  0.1821
  791SOL    HW1 2372   1.873   1.219   0.280 -2.6917  1.4783 -0.6134
  791SOL    HW2 2373   2.040   1.224   0.221  2.3088 -2.3695 -2.4815
  792SOL     OW 2374   0.415   1.978   2.203 -0.2008 -0.0967  0.4742
  792SOL    HW1 2375   0.479   2.040   2.252 -0.3220 -0.2142 -1.2184
  792SOL    HW2 2376   0.331   1.955   2.258  1.8314  1.3879  2.3579
  793SOL     OW 2377   2.133   1.546   2.136  0.4197 -0.0682  0.0681
  793SOL    HW1 2378   2.206   1.610   2.120 -3.8137 -2.4714  0.4838
  793SOL    HW2 2379   2.118   1.479   2.054 -1.5810  2.2439  1.2067
  794SOL     OW 2380   0.426   1.411   2.475  0.5964  0.6548  0.4551
  794SOL    HW1 2381   0.454   1.370   2.382  0.5444  1.5728  1.1680
  794SOL    HW2 2382   0.386   1.511   2.466 -0.1795 -0.1429  0.2821
  795SOL     OW 2383   2.532   2.319   1.802  0.2124  0.2181  0.1873
  795SOL    HW1 2384   2.533   2.372   1.891 -0.3840  0.9385 -1.0455
  795SOL    HW2 2385   2.469   2.240   1.804 -1.0186 -0.5067 -1.2131
  796SOL     OW 2386   3.065   1.050   2.692 -0.4769  0.0370  0.0942
  796SOL    HW1 2387   2.966   1.051   2.707 -0.2650  1.1299 -3.8164
  796SOL    HW2 2388   3.108   1.084   2.778  0.2318 -0.7835 -2.0265
  797SOL     OW 2389   0.716   0.662   1.360 -1.3170 -0.5939  0.5791
  797SOL    HW1 2390   0.778   0.721   1.417 -1.4842  1.8669 -0.0646
  797SOL    HW2 2391   0.649   0.721   1.305  1.2541  0.8642 -1.8450
  798SOL     OW 2392   1.205   0.449   0.996  0.0853  0.2779 -0.3458
  798SOL    HW1 2393   1.224   0.453   1.094  1.0081 -3.6577 -4.0042
  798SOL    HW2 2394   1.255   0.522   0.943 -2.8908  2.2193  0.4373
  799SOL     OW 2395   1.828   2.735   1.020 -0.1823 -0.0410 -0.1957
  799SOL    HW1 2396   1.834   2.647   1.068  3.0452 -1.2989 -0.5740
  799SOL    HW2 2397   1.853   2.720   0.920 -0.8295 -2.0146 -1.5405
  800SOL     OW 2398   2.955   0.827   1.823 -0.2549  0.4450 -0.4392
  800SOL    HW1 2399   2.998   0.920   1.834  0.1302 -1.7084  0.0237
  800SOL    HW2 2400   2.964   0.766   1.903 -0.2002 -0.3519 -2.0205
  801SOL     OW 2401   1.967   2.162   0.145  0.2091  0.6068  0.0691
  801SOL    HW1 2402   1.912   2.193   0.066  0.3135 -3.0133  1.2705
  801SOL    HW2 2403   2.034   2.087   0.111 -2.2845 -3.0428 -0.1628
  802SOL     OW 2404   0.718   0.702   2.536 -0.3968 -0.6735  0.0298
  802SOL    HW1 2405   0.738   0.720   2.436 -1.5110  0.3901  1.1553
  802SOL    HW2 2406   0.617   0.693   2.550  0.8361  0.3122 -1.2339
  803SOL     OW 2407   0.925   0.040   0.863 -0.7029  0.6775  0.1286
  803SOL    HW1 2408   0.992   0.111   0.896  0.4932  1.0905  1.1496
  803SOL    HW2 2409   0.874   0.067   0.779  0.6660 -0.2718 -0.5888
  804SOL     OW 2410   0.296   0.030   2.189  0.9438  0.0073  0.2676
  804SOL    HW1 2411   0.286   0.132   2.211 -1.0305 -0.6412 -0.9869
  804SOL    HW2 2412   0.242  -0.002   2.107  1.6610  2.2329  0.9189
  805SOL     OW 2413   2.343   0.381   0.328  0.4675 -0.3722  0.1039
  805SOL    HW1 2414   2.409   0.386   0.403 -3.9568 -3.7579 -0.8466
  805SOL    HW2 2415   2.364   0.304   0.262  1.0994 -0.6925 -0.6194
  806SOL     OW 2416   0.636   2.489   1.838  0.1283  0.0713  0.2782
  806SOL    HW1 2417   0.588   2.582   1.843 -0.4419 -0.6220 -2.0633
  806SOL    HW2 2418   0.726   2.493   1.792 -2.7002  0.0561 -0.8258
  807SOL     OW 2419   2.544   0.973   0.432  0.0878  0.7857  0.2692
  807SOL    HW1 2420   2.618   0.907   0.456 -1.2659  2.1337 -0.3832
  807SOL    HW2 2421   2.525   0.977   0.334 -0.1621 -3.6599 -2.1997
  808SOL     OW 2422   0.600   2.028   2.890  0.2124  0.3573 -0.0699
  808SOL    HW1 2423   0.597   2.071   2.983  1.3043 -0.1094 -1.3739
  808SOL    HW2 2424   0.663   1.946   2.887  1.1129  0.8062 -3.7975
  809SOL     OW 2425   2.542   2.003   1.892  0.0126 -0.3801  0.6299
  809SOL    HW1 2426   2.635   2.049   1.897 -0.7967  1.9412 -0.7074
  809SOL    HW2 2427   2.515   2.002   1.797  1.3681 -2.5023  1.9407
  810SOL     OW 2428   2.153   1.081   0.534  0.2571 -0.1914  0.1906
  810SOL    HW1 2429   2.150   1.004   0.599  0.4920  1.0783  2.7148
  810SOL    HW2 2430   2.174   1.167   0.586  0.8625  0.1396  0.1251
  811SOL     OW 2431   1.292   2.555   1.181 -0.5532  0.9093  0.0204
  811SOL    HW1 2432   1.295   2.453   1.184 -0.8343 -0.4182 -2.0884
  811SOL    HW2 2433   1.281   2.600   1.272  0.5718  2.6341  0.3432
  812SOL     OW 2434   1.403   0.785   1.939  0.4411  0.1684  0.4672
  812SOL    HW1 2435   1.303   0.780   1.918  0.0572  0.4545 -2.9169
  812SOL    HW2 2436   1.440   0.855   1.874  1.4631 -0.3475  2.5844
  813SOL     OW 2437   1.568   2.057   2.419 -0.0934  0.4137 -0.0098
  813SOL    HW1 2438   1.662   2.013   2.419  0.1359 -0.8769 -0.2489
  813SOL    HW2 2439   1.525   2.042   2.326 -1.5029  0.1410  1.4345
  814SOL     OW 2440   2.966   1.691   2.903  0.2295 -0.0717 -0.0247
  814SOL    HW1 2441   3.048   1.655   2.957  1.4728  0.5215 -0.8596
  814SOL    HW2 2442   2.971   1.795   2.891 -0.2798 -2.0876  2.0463
  815SOL     OW 2443   2.168   2.909   2.772 -0.5439 -0.0480 -0.1086
  815SOL    HW1 2444   2.125   2.820   2.798  2.0225  1.8693  0.3110
  815SOL    HW2 2445   2.247   2.934   2.835 -0.6965  0.3897 -0.2474
  816SOL     OW 2446   1.533   0.352   1.673  0.0770 -0.1832  0.0102
  816SOL    HW1 2447   1.609   0.287   1.702 -0.0598  0.6573  2.7521
  816SOL    HW2 2448   1.502   0.409   1.751 -2.0030 -1.4733  1.4044
  817SOL     OW 2449   0.394   1.212   2.649 -0.1711  0.7472 -0.0068
  817SOL    HW1 2450   0.335   1.237   2.734 -3.1846  0.7959 -0.6505
  817SOL    HW2 2451   0.411   1.292   2.576  0.5619  0.6515 -2.9986
  818SOL     OW 2452   1.992   0.821   0.460  0.3976 -0.0154  0.1771
  818SOL    HW1 2453   2.094   0.832   0.465 -0.0794 -0.7607 -2.2852
  818SOL    HW2 2454   1.952   0.799   0.552  1.1610 -1.1534  1.6903
  819SOL     OW 2455   2.753   2.922   3.093  0.3170 -0.9156  0.4328
  819SOL    HW1 2456   2.775   2.849   3.158 -0.6975 -1.7671 -1.2198
  819SOL    HW2 2457   2.690   2.886   3.020  0.3834  3.3763 -0.7809
  820SOL     OW 2458   1.267   1.059   0.538  0.1044  0.2860  0.3031
  820SOL    HW1 2459   1.331   1.110   0.605  1.1353 -1.8361 -0.9053
  820SOL    HW2 2460   1.243   0.961   0.571  2.3126 -1.7671  2.6544
  821SOL     OW 2461   0.065   1.194   0.738  0.4215 -0.3936 -0.0839
  821SOL    HW1 2462   0.003   1.191   0.824 -1.3392  2.0001  1.4220
  821SOL    HW2 2463   0.111   1.283   0.736 -3.0504 -1.6395  0.4806
  822SOL     OW 2464   2.506   1.791   2.431  0.4285 -0.2302 -0.0487
  822SOL    HW1 2465   2.511   1.850   2.515  0.0148 -0.2042 -1.3148
  822SOL    HW2 2466   2.420   1.806   2.378  0.0707 -2.6171  1.2648
  823SOL     OW 2467   2.014   0.958   1.174 -0.1865 -0.1533  0.1888
  823SOL    HW1 2468   2.007   0.891   1.251  2.1769  2.2735 -0.3995
  823SOL    HW2 2469   1.926   0.971   1.111 -0.4717  2.6648  1.9619
  824SOL     OW 2470   0.214   1.923   2.792 -0.1029 -0.5733 -0.1861
  824SOL    HW1 2471   0.271   1.894   2.877 -0.3948 -0.6800  3.6361
  824SOL    HW2 2472   0.266   1.923   2.701 -0.7669 -0.8158 -4.1544
  825SOL     OW 2473   1.327   1.073   0.258  0.0539 -0.3964  0.3622
  825SOL    HW1 2474   1.343   1.177   0.235  0.2102  0.7311 -1.8412
  825SOL    HW2 2475   1.279   1.063   0.348 -0.2567 -0.8409 -1.5393
  826SOL     OW 2476   1.926   0.595   1.588 -0.1206  0.2229 -0.2259
  826SOL    HW1 2477   2.015   0.572   1.636  0.3374  0.3177 -1.9792
  826SOL    HW2 2478   1.886   0.508   1.549  2.0069 -0.8408 -1.2543
  827SOL     OW 2479   0.723   1.163   0.371  0.3996  0.4338  0.1636
  827SOL    HW1 2480   0.770   1.084   0.319  1.3429 -1.7389 -0.0716
  827SOL    HW2 2481   0.629   1.139   0.412  0.0334 -0.6219  0.0233
  828SOL     OW 2482   2.635   0.121   1.527 -0.3130 -0.0981  0.0166
  828SOL    HW1 2483   2.539   0.081   1.505  0.6521  2.3591 -1.3320
  828SOL    HW2 2484   2.641   0.158   1.624 -0.3708  1.7832  1.3985
  829SOL     OW 2485   2.947   2.413   2.898 -0.3175  0.5857  0.6942
  829SOL    HW1 2486   2.845   2.391   2.914 -2.7891  0.9452 -1.7368
  829SOL    HW2 2487   2.966   2.514   2.887 -1.5402  1.5659 -1.6571
  830SOL     OW 2488   2.881   0.911   3.052 -0.7042 -0.0492 -0.0844
  830SOL    HW1 2489   2.944   0.994   3.065 -1.1603 -0.0372 -1.2155
  830SOL    HW2 2490   2.929   0.818   3.077  1.3365 -0.1858  3.4587
  831SOL     OW 2491   0.042   0.560   0.417  0.5367 -0.5150  0.4372
  831SOL    HW1 2492   0.023   0.488   0.490  1.2812 -1.2567  0.4736
  831SOL    HW2 2493   0.072   0.512   0.329  0.3535  2.9075 -0.5044
  832SOL     OW 2494   1.807   0.761   3.046 -0.6668  0.0901 -0.8975
  832SOL    HW1 2495   1.720   0.811   3.052  3.2187 -1.3449  1.2580
  832SOL    HW2 2496   1.798   0.658   3.040 -2.6422  1.2489 -0.2507
  833SOL     OW 2497   2.403   2.098   0.474 -0.2454  0.0236 -0.0699
  833SOL    HW1 2498   2.307   2.060   0.469  1.1764  1.9408  1.2132
  833SOL    HW2 2499   2.479   2.022   0.478  0.2990 -0.7881  1.4469
  834SOL     OW 2500   0.210   0.111   0.571 -0.2646 -0.0920  0.1751
  834SOL    HW1 2501   0.222   0.012   0.598  0.7981  0.7959  0.0022
  834SOL    HW2 2502   0.213   0.124   0.463 -0.1306 -1.3091 -0.0215
  835SOL     OW 2503   2.426   1.512   1.118 -0.9739 -0.1005 -0.6785
  835SOL    HW1 2504   2.509   1.552   1.166  0.2206  1.2874 -1.0412
  835SOL    HW2 2505   2.448   1.499   1.022  0.6059  1.5909  1.5688
  836SOL     OW 2506   1.601   0.818   2.591 -0.3401 -0.0843  0.2739
  836SOL    HW1 2507   1.500   0.795   2.592  1.1736 -1.7912 -0.6851
  836SOL    HW2 2508   1.634   0.833   2.495  1.0070  0.4759  3.6186
  837SOL     OW 2509   1.707   0.105   0.586 -0.3767  0.3936 -0.7161
  837SOL    HW1 2510   1.655   0.189   0.619  2.0256 -0.2093 -2.0700
  837SOL    HW2 2511   1.685   0.086   0.487 -2.3496  0.1944  0.6000
  838SOL     OW 2512   1.225   1.388   2.700 -0.7734  0.2447  0.0288
  838SOL    HW1 2513   1.198   1.447   2.782 -1.6781 -0.1062 -0.0811
  838SOL    HW2 2514   1.146   1.332   2.665  1.4716 -2.2424  1.4342
  839SOL     OW 2515   1.571   0.356   0.972 -0.0759  0.0515 -0.0030
  839SOL    HW1 2516   1.514   0.403   1.044  0.9438 -1.6220 -1.6221
  839SOL    HW2 2517   1.585   0.258   1.007 -0.4407  0.1192  1.0970
  840SOL     OW 2518   2.580   2.956   1.709  0.0738 -0.0054 -0.1112
  840SOL    HW1 2519   2.541   2.889   1.642 -1.2773  0.7063 -0.8984
  840SOL    HW2 2520   2.563   2.915   1.804 -2.5370 -0.4488 -0.5523
  841SOL     OW 2521   1.531   0.833   2.941  0.1919 -0.4682  0.0523
  841SOL    HW1 2522   1.458   0.904   2.965 -1.7891 -1.4442 -0.4288
  841SOL    HW2 2523   1.596   0.858   2.860  0.4814 -3.1469  1.3282
  842SOL     OW 2524   0.824   1.558   1.003  0.6190  0.1103  0.4008
  842SOL    HW1 2525   0.774   1.639   1.045  0.4863 -0.9089 -0.6836
  842SOL    HW2 2526   0.775   1.511   0.922  0.0136 -1.9397 -2.2987
  843SOL     OW 2527   0.120   0.130   1.446 -0.1060  0.7467  0.2817
  843SOL    HW1 2528   0.211   0.176   1.457  0.0490  0.8413  1.3477
  843SOL    HW2 2529   0.135   0.035   1.411  2.2825 -0.6845 -0.7464
  844SOL     OW 2530   0.754   2.534   0.215 -0.5602  0.2173 -0.6268
  844SOL    HW1 2531   0.759   2.520   0.318 -0.4408  3.0912  1.0594
  844SOL    HW2 2532   0.661   2.509   0.172 -2.7101  0.2885  1.3458
  845SOL     OW 2533   1.677   2.938   1.288  0.2039 -0.4899  0.2406
  845SOL    HW1 2534   1.673   3.028   1.335  1.5230 -2.3526 -0.3062
  845SOL    HW2 2535   1.621   2.927   1.200  1.4956  1.9084 -1.6507
  846SOL     OW 2536   1.711   2.970   0.896  0.0299  0.2089 -0.2954
  846SOL    HW1 2537   1.731   2.991   0.799  0.9105  0.5650  0.4839
  846SOL    HW2 2538   1.789   2.928   0.949 -1.1460  1.6206 -0.8135
  847SOL     OW 2539   2.055   1.611   0.204 -0.0559  0.1042 -0.0406
  847SOL    HW1 2540   1.994   1.616   0.285  2.0337 -0.1341 -1.8742
  847SOL    HW2 2541   2.011   1.564   0.124  0.4187  0.2301 -2.9777
  848SOL     OW 2542   2.462   0.855   2.659  0.1599 -0.4493  0.0265
  848SOL    HW1 2543   2.462   0.954   2.666  0.7033 -0.2168  0.4530
  848SOL    HW2 2544   2.397   0.814   2.589 -0.7399 -1.8106  0.7351
  849SOL     OW 2545   2.421   0.892   2.280 -0.1479 -0.2203 -0.3174
  849SOL    HW1 2546   2.474   0.846   2.201 -0.8490 -2.5148 -3.5126
  849SOL    HW2 2547   2.383   0.823   2.345  0.9554  0.1807 -2.4004
  850SOL     OW 2548   1.578   0.153   1.249 -0.9300 -0.7328 -0.3538
  850SOL    HW1 2549   1.560   0.110   1.155 -2.1192  1.4012 -0.7132
  850SOL    HW2 2550   1.535   0.102   1.331 -0.2324  1.7520  3.0185
  851SOL     OW 2551   0.482   1.777   0.681  0.0578 -0.0638 -0.0570
  851SOL    HW1 2552   0.509   1.878   0.698 -0.3626  0.7720  1.8750
  851SOL    HW2 2553   0.560   1.717   0.713  0.7255  1.0018 -1.0922
  852SOL     OW 2554   0.776   2.133   1.686  0.4169  0.3934 -0.1025
  852SOL    HW1 2555   0.797   2.223   1.649  2.8654  1.1371  1.6290
  852SOL    HW2 2556   0.713   2.145   1.771 -0.7049 -0.5009 -0.4994
  853SOL     OW 2557   2.520   1.529   2.578 -0.1460 -0.6066  0.1843
  853SOL    HW1 2558   2.491   1.439   2.544  0.6866  2.1752 -0.4448
  853SOL    HW2 2559   2.497   1.603   2.510  1.6283 -0.6385 -2.4685
  854SOL     OW 2560   2.367   1.409   1.768 -0.1749  0.7221 -0.2504
  854SOL    HW1 2561   2.373   1.415   1.664  0.6871 -1.4719  1.4602
  854SOL    HW2 2562   2.313   1.324   1.793 -0.2633  1.1567 -1.5524
  855SOL     OW 2563   2.050   2.302   0.964  0.3484  0.2901  0.1818
  855SOL    HW1 2564   2.095   2.387   0.930 -2.9127 -1.2803 -1.1788
  855SOL    HW2 2565   2.079   2.265   1.056 -0.9059  2.5328  2.2708
  856SOL     OW 2566   1.417   1.350   0.885 -0.2530 -0.1572  0.1686
  856SOL    HW1 2567   1.363   1.445   0.877  0.8808 -0.9337  0.0093
  856SOL    HW2 2568   1.402   1.309   0.979 -0.8164  1.2882  1.3398
  857SOL     OW 2569   2.971   2.571   1.059 -0.5847  0.9024 -0.2716
  857SOL    HW1 2570   2.878   2.527   1.051  1.3917  0.9817  0.3918
  857SOL    HW2 2571   3.044   2.499   1.042 -2.0635 -2.2625  1.0677
  858SOL     OW 2572   2.283   2.144   1.747 -0.1835 -0.7747 -0.1737
  858SOL    HW1 2573   2.187   2.180   1.725  1.9704 -0.3326  0.5492
  858SOL    HW2 2574   2.322   2.066   1.686 -0.7385  1.4960 -4.1183
  859SOL     OW 2575   2.435   0.502   1.021 -0.3011 -0.3221 -0.5197
  859SOL    HW1 2576   2.484   0.507   0.933 -0.7051  1.3582  0.6870
  859SOL    HW2 2577   2.445   0.410   1.077  0.4567  2.6498  1.8134
  860SOL     OW 2578   1.956   2.752   0.486  0.1424  0.5164  0.7028
  860SOL    HW1 2579   1.911   2.715   0.402  2.1440 -0.5145  1.1011
  860SOL    HW2 2580   2.028   2.818   0.468 -2.7025 -1.6343  0.5977
  861SOL     OW 2581   1.087   2.572   2.765 -0.4345 -0.2458 -0.2755
  861SOL    HW1 2582   1.125   2.667   2.757 -2.4438 -0.0449  2.1317
  861SOL    HW2 2583   1.086   2.545   2.862  2.2680 -0.3809 -0.4528
  862SOL     OW 2584   2.947   2.547   1.544  0.3606 -0.0532 -0.1285
  862SOL    HW1 2585   3.014   2.597   1.601 -0.1752  0.8171  2.8094
  862SOL    HW2 2586   2.868   2.612   1.520 -2.0160  0.4632 -0.1232
  863SOL     OW 2587   1.906   2.627   0.243 -0.2252  0.1317 -0.4445
  863SOL    HW1 2588   1.982   2.563   0.231 -4.6589 -2.7981  1.8004
  863SOL    HW2 2589   1.813   2.582   0.241 -0.8728  1.4011  2.5610
  864SOL     OW 2590   1.876   1.175   2.947  0.3475 -0.5432 -0.3500
  864SOL    HW1 2591   1.907   1.150   2.848  0.5401  0.0133  1.0387
  864SOL    HW2 2592   1.944   1.135   3.014 -0.3987 -1.2643 -1.5309
  865SOL     OW 2593   2.133   1.739   0.690 -0.3596 -0.0842 -0.0380
  865SOL    HW1 2594   2.193   1.742   0.780  0.3469 -2.2906 -0.2549
  865SOL    HW2 2595   2.028   1.728   0.711  0.2312  0.3213  2.0174
  866SOL     OW 2596   2.908   2.847   1.023 -0.2294 -0.6315  0.1684
  866SOL    HW1 2597   2.957   2.903   0.945 -0.0898  1.2946 -1.2445
  866SOL    HW2 2598   2.930   2.747   1.017  2.7498  1.1559  1.2562
  867SOL     OW 2599   0.433   1.313   0.868  0.0872 -0.5139 -0.3761
  867SOL    HW1 2600   0.453   1.213   0.836 -0.3089 -0.7366 -3.2486
  867SOL    HW2 2601   0.356   1.358   0.820  0.6000 -1.6269  2.0271
  868SOL     OW 2602   0.842   1.917   1.975  0.4799  0.5435  0.0248
  868SOL    HW1 2603   0.844   1.894   2.080 -1.7014 -0.5190 -3.0069
  868SOL    HW2 2604   0.782   1.998   1.952  0.8736  1.1833  0.6965
  869SOL     OW 2605   2.493   2.024   1.614 -0.1923  0.2680 -0.0829
  869SOL    HW1 2606   2.577   2.076   1.584  1.3554 -0.7512 -0.0089
  869SOL    HW2 2607   2.465   1.954   1.547  2.0202  1.6401 -0.3164
  870SOL     OW 2608   2.332   2.566   1.207  0.2725  0.3103 -0.7455
  870SOL    HW1 2609   2.296   2.466   1.214 -1.9908 -0.9330  1.3970
  870SOL    HW2 2610   2.433   2.571   1.223 -0.9274 -1.9008  1.3374
  871SOL     OW 2611   2.992   2.045   0.562  0.6225 -1.0994  0.0386
  871SOL    HW1 2612   2.906   2.085   0.606 -0.6588  4.5666 -1.5730
  871SOL    HW2 2613   2.972   2.005   0.471 -1.2269  4.2890  0.4442
  872SOL     OW 2614   2.163   0.505   1.703  0.3526 -0.5457 -0.0035
  872SOL    HW1 2615   2.127   0.502   1.803  0.1136  1.8276  0.9448
  872SOL    HW2 2616   2.269   0.508   1.696  0.3976  3.6616 -2.8115
  873SOL     OW 2617   1.729   2.123   2.948  0.0031  0.0481  0.2524
  873SOL    HW1 2618   1.707   2.218   2.977  0.1686  0.3731 -1.4705
  873SOL    HW2 2619   1.678   2.098   2.864  2.0680  1.0815 -0.3304
  874SOL     OW 2620   0.697   2.482   0.777  0.0566 -0.0579 -0.2553
  874SOL    HW1 2621   0.708   2.585   0.805  0.1934  1.8269  0.8734
  874SOL    HW2 2622   0.784   2.426   0.777  0.1718  0.0228  3.5117
  875SOL     OW 2623   2.306   1.522   1.486  1.2590 -0.3299 -0.1638
  875SOL    HW1 2624   2.391   1.574   1.491  0.3159 -1.4258  1.2970
  875SOL    HW2 2625   2.249   1.542   1.400 -3.9997 -2.1739  0.4953
  876SOL     OW 2626   0.137   2.204   2.681  0.3193  0.1761  0.3129
  876SOL    HW1 2627   0.177   2.130   2.735 -2.0073  0.9780  1.8934
  876SOL    HW2 2628   0.153   2.294   2.734 -1.5464 -0.1164  0.7063
  877SOL     OW 2629   2.781   2.689   0.621 -0.2674 -0.2096 -0.5217
  877SOL    HW1 2630   2.826   2.780   0.631 -0.0500  1.0771  3.8013
  877SOL    HW2 2631   2.839   2.603   0.642 -1.8974  0.5841 -2.0933
  878SOL     OW 2632   2.862   1.504   2.193 -0.8717  1.0647  0.2048
  878SOL    HW1 2633   2.963   1.510   2.167  1.1866  1.5092  0.4809
  878SOL    HW2 2634   2.853   1.492   2.300 -0.3911 -3.4350  1.7625
  879SOL     OW 2635   2.373   0.011   1.195 -0.0055 -0.2047  0.4917
  879SOL    HW1 2636   2.425  -0.077   1.211  0.6581  1.0279 -1.9616
  879SOL    HW2 2637   2.292  -0.012   1.134 -0.1645 -0.4100  1.8005
  880SOL     OW 2638   0.690   0.441   2.149 -0.5315 -0.0931 -0.0616
  880SOL    HW1 2639   0.628   0.375   2.199 -1.8487 -1.3790  3.5756
  880SOL    HW2 2640   0.761   0.402   2.088  1.7545 -0.8349 -0.1523
  881SOL     OW 2641   0.912   0.042   0.408 -0.0847 -0.0330 -0.2349
  881SOL    HW1 2642   0.942  -0.049   0.457 -1.6308 -0.7951  0.5395
  881SOL    HW2 2643   0.866   0.032   0.317  0.1743 -0.4748 -2.4490
  882SOL     OW 2644   2.742   1.640   1.685  0.2300  0.0399 -0.4368
  882SOL    HW1 2645   2.842   1.603   1.672  0.2885  0.2514 -0.1782
  882SOL    HW2 2646   2.734   1.696   1.768  2.1347 -2.9462 -0.3273
  883SOL     OW 2647   0.961   0.577   0.947 -0.4192  0.5471 -0.3186
  883SOL    HW1 2648   0.978   0.670   0.991  0.1453 -1.5701 -1.4981
  883SOL    HW2 2649   1.045   0.516   0.968 -0.9641 -3.1928 -0.2003
  884SOL     OW 2650   1.184   1.921   1.008  0.1871 -0.0333 -0.4416
  884SOL    HW1 2651   1.163   1.877   0.920 -0.7322  1.2228  0.2680
  884SOL    HW2 2652   1.124   1.999   1.038 -1.4344  0.1390  0.9091
  885SOL     OW 2653   2.256   1.835   2.313 -0.3635 -0.2147 -0.1911
  885SOL    HW1 2654   2.208   1.768   2.378 -1.9234  0.9512  2.0634
  885SOL    HW2 2655   2.237   1.940   2.334 -2.2197  1.0329 -0.1156
  886SOL     OW 2656   2.659   0.461   1.782 -0.5559  0.0918 -0.6435
  886SOL    HW1 2657   2.704   0.401   1.858 -0.8371  0.4012  2.7291
  886SOL    HW2 2658   2.721   0.536   1.761  0.4984 -1.4430  0.4522
  887SOL     OW 2659   0.095   2.063   1.279  0.2362 -0.1387  0.1804
  887SOL    HW1 2660   0.058   1.996   1.208  1.9579 -1.1871 -2.1483
  887SOL    HW2 2661   0.137   2.148   1.238 -3.1826 -0.5554  1.4513
  888SOL     OW 2662   0.561   1.289   1.504  0.0193  0.1926 -0.0426
  888SOL    HW1 2663   0.615   1.314   1.418  0.7481  1.4851  0.5809
  888SOL    HW2 2664   0.564   1.188   1.513 -0.1018 -1.3181 -1.4389
  889SOL     OW 2665   0.836   2.524   2.125 -0.0510  0.7783  0.3917
  889SOL    HW1 2666   0.763   2.451   2.123 -0.1122  0.2987  0.0321
  889SOL    HW2 2667   0.915   2.515   2.052 -1.4260 -1.2967 -0.6786
  890SOL     OW 2668   2.357   2.460   0.183 -1.0842 -0.1752 -0.1199
  890SOL    HW1 2669   2.391   2.543   0.126  2.3234  0.4013  1.1866
  890SOL    HW2 2670   2.283   2.490   0.250 -0.3541 -0.0810 -1.5608
  891SOL     OW 2671   2.617   1.496   0.661  0.3139 -0.0751  0.1209
  891SOL    HW1 2672   2.598   1.467   0.763 -4.9290 -0.7286  1.3530
  891SOL    HW2 2673   2.549   1.567   0.624 -2.6710 -1.3271 -1.9353
  892SOL     OW 2674   0.259   0.300   2.229 -0.0052  0.3180  0.1027
  892SOL    HW1 2675   0.263   0.296   2.124 -2.7715 -0.8821 -1.0684
  892SOL    HW2 2676   0.348   0.334   2.273 -2.4620  1.1159 -0.1051
  893SOL     OW 2677   1.682   0.240   2.736  0.0428 -0.0767 -0.4897
  893SOL    HW1 2678   1.750   0.316   2.765 -0.0931  1.8405 -3.7302
  893SOL    HW2 2679   1.581   0.273   2.733 -0.3556  1.3498  1.9077
  894SOL     OW 2680   2.207   2.002   0.030 -0.5676 -0.2416 -0.1158
  894SOL    HW1 2681   2.163   1.947  -0.045 -2.8094 -1.0997  0.5044
  894SOL    HW2 2682   2.244   1.938   0.104  0.3497  3.1898 -1.2909
  895SOL     OW 2683   2.915   1.448   0.805 -0.0866 -0.6515 -0.5234
  895SOL    HW1 2684   2.951   1.419   0.896 -0.4836  1.6667 -0.0869
  895SOL    HW2 2685   2.970   1.529   0.763 -0.3280  1.2080  0.7481
  896SOL     OW 2686   1.729   1.784   1.162  0.4577 -0.1201  0.3369
  896SOL    HW1 2687   1.789   1.837   1.093  0.4393 -1.2162 -1.5694
  896SOL    HW2 2688   1.630   1.802   1.143  0.2862  0.8723 -0.4643
  897SOL     OW 2689   0.273   0.540   3.089  0.3570 -0.3111  0.5669
  897SOL    HW1 2690   0.182   0.579   3.061 -1.0472  2.1663  0.1315
  897SOL    HW2 2691   0.349   0.606   3.067  1.6300  1.3264 -2.6000
  898SOL     OW 2692   0.571   2.847   1.124 -0.1615  0.5281  0.2384
  898SOL    HW1 2693   0.496   2.918   1.150 -1.6093 -1.4317 -0.2257
  898SOL    HW2 2694   0.660   2.864   1.178 -0.8838  0.2499  1.7681
  899SOL     OW 2695   2.671   0.937   1.221 -0.3730 -0.3161  0.2610
  899SOL    HW1 2696   2.601   0.929   1.140  0.9779 -0.2038 -2.3689
  899SOL    HW2 2697   2.765   0.944   1.178 -1.2149 -0.6540  0.0694
  900SOL     OW 2698   1.015   2.467   2.355  0.0764 -1.4241 -0.2163
  900SOL    HW1 2699   0.936   2.497   2.297 -0.0241  0.6972  1.5606
  900SOL    HW2 2700   0.983   2.427   2.445 -0.6742 -0.4315  4.7013
  901SOL     OW 2701   1.898   2.433   1.370  0.0384 -0.2207  0.1604
  901SOL    HW1 2702   1.870   2.453   1.270 -2.4931  1.1399 -3.7685
  901SOL    HW2 2703   2.000   2.419   1.390  2.1228 -1.3155  0.3645
  902SOL     OW 2704   2.579   1.628   1.455 -0.1185 -0.0120  0.6504
  902SOL    HW1 2705   2.622   1.621   1.546 -0.3975  1.4640 -0.8901
  902SOL    HW2 2706   2.641   1.588   1.378  0.6051  1.9387 -1.6160
  903SOL     OW 2707   0.268   2.399   2.014  0.1420 -0.6955 -0.4630
  903SOL    HW1 2708   0.208   2.325   1.981  2.6213  0.5854 -0.3020
  903SOL    HW2 2709   0.290   2.458   1.928  1.0913 -1.4783 -0.6494
  904SOL     OW 2710   1.973   0.809   2.510  0.0750  0.6050  0.9286
  904SOL    HW1 2711   1.883   0.791   2.556 -0.9034  0.7013  1.4766
  904SOL    HW2 2712   1.964   0.797   2.408 -2.7084 -0.0973  3.4920
  905SOL     OW 2713   2.760   0.020   2.600 -0.1797 -0.3473  0.4444
  905SOL    HW1 2714   2.850  -0.038   2.613 -0.2149 -1.2192 -0.7768
  905SOL    HW2 2715   2.778   0.114   2.560 -2.6605 -0.1558  0.1973
  906SOL     OW 2716   0.173   1.776   1.869 -0.7086 -0.1841 -0.0552
  906SOL    HW1 2717   0.108   1.787   1.788 -0.9297 -0.4786 -0.6128
  906SOL    HW2 2718   0.270   1.810   1.855 -0.3910 -0.1760 -0.3157
  907SOL     OW 2719   0.157   2.485   1.012  0.1534 -0.2879 -0.5743
  907SOL    HW1 2720   0.223   2.564   1.023  1.8178 -2.0946 -2.7874
  907SOL    HW2 2721   0.160   2.458   0.912 -0.8832  0.0311  0.7764
  908SOL     OW 2722   2.656   2.939   0.424 -0.4180 -0.4119  0.3217
  908SOL    HW1 2723   2.628   3.012   0.348 -2.2993 -0.1625 -1.4461
  908SOL    HW2 2724   2.634   2.843   0.388 -2.2066  0.8397 -1.6580
  909SOL     OW 2725   0.825   0.907   2.663 -0.5218 -0.3953  0.0871
  909SOL    HW1 2726   0.787   0.826   2.608  2.4733 -1.6125 -1.2889
  909SOL    HW2 2727   0.901   0.953   2.611  0.5236  0.5060 -1.6951
  910SOL     OW 2728   1.760   1.799   2.038 -0.2321 -0.0418 -0.9685
  910SOL    HW1 2729   1.809   1.843   1.958 -0.9926 -0.4856 -0.6564
  910SOL    HW2 2730   1.690   1.862   2.085  0.7336  1.3651 -1.1171
  911SOL     OW 2731   1.760   3.021   1.621 -0.2127  0.2025 -0.3681
  911SOL    HW1 2732   1.829   2.997   1.551  0.0347  2.1246  1.1854
  911SOL    HW2 2733   1.750   2.965   1.707  2.1330  1.6276  0.0594
  912SOL     OW 2734   2.840   0.947   0.776 -0.1362  0.0481 -0.3230
  912SOL    HW1 2735   2.861   0.925   0.877  0.6722 -1.0067 -0.5845
  912SOL    HW2 2736   2.839   1.049   0.753 -3.6121  1.1961  0.5657
  913SOL     OW 2737   2.530   1.285   1.546 -0.0903 -0.0342 -0.2622
  913SOL    HW1 2738   2.576   1.195   1.545  0.3949 -0.0518  1.6332
  913SOL    HW2 2739   2.570   1.347   1.468  1.0295 -1.4317 -0.3777
  914SOL     OW 2740   2.825   0.521   1.230  0.4977 -0.2351  0.1646
  914SOL    HW1 2741   2.779   0.437   1.260 -0.7196  0.9246  1.7330
  914SOL    HW2 2742   2.815   0.609   1.284 -0.0981  0.9557 -1.8696
  915SOL     OW 2743   1.223   0.792   1.004 -0.2355  0.3190 -0.3358
  915SOL    HW1 2744   1.298   0.789   1.076 -2.3252 -0.9809  0.6138
  915SOL    HW2 2745   1.138   0.835   1.042  0.5398 -1.5819  0.7651
  916SOL     OW 2746   0.550   0.036   0.648  0.2529 -0.1357 -0.5175
  916SOL    HW1 2747   0.578   0.116   0.710  2.1029 -2.5150  1.8651
  916SOL    HW2 2748   0.550   0.053   0.544 -0.2876  3.5512  0.8004
  917SOL     OW 2749   2.757   2.623   1.956 -0.6776  0.3155 -0.0920
  917SOL    HW1 2750   2.669   2.678   1.948 -0.2465 -1.3579  0.7018
  917SOL    HW2 2751   2.828   2.671   1.895  1.0055  1.6004 -2.5335
  918SOL     OW 2752   0.980   2.166   3.028 -0.4490  0.2885  0.4070
  918SOL    HW1 2753   0.935   2.200   3.113  1.6521  0.8788  0.4706
  918SOL    HW2 2754   1.041   2.084   3.047  0.1498  1.2588  1.7901
  919SOL     OW 2755   0.946   1.606   2.785  0.4265  0.3334  0.6921
  919SOL    HW1 2756   0.998   1.662   2.711  1.7415  0.6356 -1.2216
  919SOL    HW2 2757   0.878   1.537   2.743 -0.2454 -1.8517 -0.0304
  920SOL     OW 2758   1.242   2.054   2.497  0.2486  0.6085  0.0884
  920SOL    HW1 2759   1.183   2.084   2.422  0.6501 -1.9252 -0.6955
  920SOL    HW2 2760   1.268   1.958   2.479 -1.1406  1.9133 -0.2307
  921SOL     OW 2761   1.087   0.053   2.565 -0.6961  0.9106 -0.1517
  921SOL    HW1 2762   1.053   0.071   2.465  0.3097  1.3151 -0.4838
  921SOL    HW2 2763   1.018   0.034   2.638 -0.1263  3.1094  2.0520
  922SOL     OW 2764   2.204   2.366   2.781  0.2847 -0.0507 -0.2600
  922SOL    HW1 2765   2.172   2.267   2.784 -0.7103 -0.9434  1.0781
  922SOL    HW2 2766   2.144   2.416   2.713  0.5703 -0.7634 -2.7974
  923SOL     OW 2767   1.253   2.671   0.297  0.0044 -0.1839  0.3506
  923SOL    HW1 2768   1.343   2.717   0.308 -0.4949 -1.4073 -0.9011
  923SOL    HW2 2769   1.265   2.572   0.264 -1.0543 -0.3505  0.9537
  924SOL     OW 2770   2.902   1.573   0.081 -0.8907  0.3917  0.2269
  924SOL    HW1 2771   2.824   1.562   0.013 -0.4252 -1.0600 -1.8131
  924SOL    HW2 2772   2.993   1.562   0.033  1.9361  0.6444  0.6933
  925SOL     OW 2773   0.029   2.847   1.604 -0.0833 -0.7690  1.1835
  925SOL    HW1 2774  -0.051   2.898   1.651  1.2376 -0.1623  0.6616
  925SOL    HW2 2775   0.061   2.892   1.518 -0.3445 -0.8571  1.4028
  926SOL     OW 2776   1.363   2.912   1.312  0.0030  0.0239  0.1954
  926SOL    HW1 2777   1.433   2.904   1.237  0.8818  2.4293  0.2566
  926SOL    HW2 2778   1.387   2.983   1.386  1.9911  2.7818 -0.6282
  927SOL     OW 2779   0.276   2.558   1.779 -0.1124 -0.5025 -0.3322
  927SOL    HW1 2780   0.234   2.511   1.693 -2.3690  0.2852 -2.3392
  927SOL    HW2 2781   0.266   2.662   1.785  3.0800 -1.8234  0.7377
  928SOL     OW 2782   1.553   2.005   2.139  0.6001 -0.8246  0.2550
  928SOL    HW1 2783   1.601   2.102   2.131  0.0744  2.7702  3.1376
  928SOL    HW2 2784   1.450   1.998   2.105  0.2227 -0.6556  0.2919
  929SOL     OW 2785   2.446   2.475   2.860  0.3600 -0.4793 -0.2600
  929SOL    HW1 2786   2.350   2.437   2.833 -1.7671 -0.9864  0.5461
  929SOL    HW2 2787   2.485   2.509   2.775  2.8378 -0.4062 -0.2270
  930SOL     OW 2788   2.197   1.993   1.074 -0.0847 -0.4147 -0.0313
  930SOL    HW1 2789   2.219   1.955   1.172  4.9494 -1.0208 -0.1713
  930SOL    HW2 2790   2.268   2.070   1.053  0.8918  0.9016  0.7783
  931SOL     OW 2791   0.535   1.711   2.623  0.2873  0.3526 -0.0372
  931SOL    HW1 2792   0.591   1.754   2.697 -2.1210  0.2526  1.4599
  931SOL    HW2 2793   0.558   1.616   2.596 -2.4451  0.6356 -3.0277
  932SOL     OW 2794   0.470   0.092   2.924  0.4030  0.6897  0.2744
  932SOL    HW1 2795   0.546   0.151   2.891 -2.9055  0.8435  0.7924
  932SOL    HW2 2796   0.504  -0.005   2.948 -0.5555 -1.1434  0.6368
  933SOL     OW 2797   1.038   0.804   2.992 -0.1833  0.0334  0.0191
  933SOL    HW1 2798   1.106   0.815   3.066 -0.6256 -0.2001 -1.1541
  933SOL    HW2 2799   1.006   0.890   2.945  2.1089  0.0823 -0.8763
  934SOL     OW 2800   0.882   3.042   2.729 -0.4855  0.1873 -0.2145
  934SOL    HW1 2801   0.900   2.966   2.661 -2.5287 -0.7396  1.5722
  934SOL    HW2 2802   0.892   3.012   2.831 -1.1683 -1.0078 -0.6083
  935SOL     OW 2803   3.088   0.516   0.811 -0.1527 -0.2323 -0.4277
  935SOL    HW1 2804   3.123   0.452   0.738 -0.7409 -0.6791  0.2920
  935SOL    HW2 2805   2.982   0.527   0.797  0.8706 -3.8481 -1.1124
  936SOL     OW 2806   1.088   2.905   0.163 -0.1358 -0.0614  0.4728
  936SOL    HW1 2807   1.131   2.948   0.079 -1.6611  1.9924 -1.8038
  936SOL    HW2 2808   1.132   2.819   0.189 -1.6871  1.4297 -1.1435
  937SOL     OW 2809   1.912   2.611   2.087  0.3821 -0.0909  0.0179
  937SOL    HW1 2810   1.835   2.647   2.147  1.5139 -1.5031 -1.2177
  937SOL    HW2 2811   1.916   2.644   1.984  2.0250 -1.3171 -1.9650
  938SOL     OW 2812   2.776   2.152   1.503  0.8349  0.0081 -0.2624
  938SOL    HW1 2813   2.764   2.251   1.535 -0.1155  1.9038  0.4331
  938SOL    HW2 2814   2.823   2.094   1.581  1.3939  0.4849  2.3612
  939SOL     OW 2815   2.818   1.133   2.476  0.2374 -0.8391  0.5127
  939SOL    HW1 2816   2.897   1.162   2.417  0.0488 -0.9402  2.6284
  939SOL    HW2 2817   2.839   1.145   2.576 -1.8977 -2.4902  1.1633
  940SOL     OW 2818   1.046   0.454   2.640  0.2947  0.3483 -0.1945
  940SOL    HW1 2819   1.092   0.376   2.687  1.1158  3.0256 -2.0893
  940SOL    HW2 2820   0.942   0.462   2.622  0.9050  1.1284  1.3236
  941SOL     OW 2821   0.018   2.829   2.222  0.1516 -0.3317  0.0580
  941SOL    HW1 2822   0.016   2.731   2.193  1.1610  0.6682 -0.2246
  941SOL    HW2 2823   0.058   2.842   2.315  4.7242 -1.4532  3.1987
  942SOL     OW 2824   0.051   0.073   2.523  0.0829 -0.0143  0.0390
  942SOL    HW1 2825   0.127   0.071   2.594  0.3458  0.8391 -2.6021
  942SOL    HW2 2826   0.022   0.173   2.501  1.4785  0.5518  0.4706
  943SOL     OW 2827   2.098   1.651   2.431 -0.1646 -0.7656 -0.1246
  943SOL    HW1 2828   2.129   1.621   2.336 -1.9508 -0.0402 -0.7476
  943SOL    HW2 2829   2.103   1.585   2.516 -0.9959 -0.2341 -1.4917
  944SOL     OW 2830   2.178   2.371   1.476 -0.0010  0.8604  0.3887
  944SOL    HW1 2831   2.236   2.442   1.525 -0.9025 -1.9293  0.4007
  944SOL    HW2 2832   2.136   2.300   1.535 -0.8763 -0.8756 -2.1470
  945SOL     OW 2833   0.618   1.415   0.367 -0.3325 -1.0921 -0.4363
  945SOL    HW1 2834   0.669   1.471   0.298 -1.7797 -3.5430 -0.6896
  945SOL    HW2 2835   0.647   1.317   0.355  1.2080 -0.0394  1.3206
  946SOL     OW 2836   0.410   0.943   2.506 -0.1925  0.3018 -0.3033
  946SOL    HW1 2837   0.331   0.914   2.437  0.6894 -3.2255  0.1167
  946SOL    HW2 2838   0.402   1.035   2.557 -1.5822  1.3754  2.2055
  947SOL     OW 2839   1.482   0.555   0.090 -0.3884 -0.4690  0.2115
  947SOL    HW1 2840   1.449   0.597   0.004 -1.1237 -0.6182  2.3445
  947SOL    HW2 2841   1.401   0.519   0.149 -0.5273 -0.7938  2.4521
  948SOL     OW 2842   1.990   3.083   2.209 -0.6420  0.1391 -0.1928
  948SOL    HW1 2843   1.962   3.074   2.108 -0.1132 -1.3311  1.1572
  948SOL    HW2 2844   1.964   2.991   2.258 -0.3660 -0.9344  1.1176
  949SOL     OW 2845   0.633   2.526   0.495 -0.5799 -0.1564 -0.3210
  949SOL    HW1 2846   0.636   2.623   0.465 -2.4868  0.5389  3.5470
  949SOL    HW2 2847   0.651   2.510   0.595  1.9009 -0.7296  0.0697
  950SOL     OW 2848   0.300   2.157   3.091  0.2599 -0.5325  0.4524
  950SOL    HW1 2849   0.209   2.210   3.083  0.6466  0.2931 -2.1641
  950SOL    HW2 2850   0.299   2.056   3.060  0.8035 -0.5673 -0.6517
  951SOL     OW 2851   1.174   2.874   2.723  0.3875 -0.2956  0.0100
  951SOL    HW1 2852   1.151   2.880   2.624  1.3206 -1.3257  0.5603
  951SOL    HW2 2853   1.262   2.930   2.747 -0.8261 -0.8683 -1.3972
  952SOL     OW 2854   0.069   1.617   0.465  0.2498  0.0476  0.4859
  952SOL    HW1 2855   0.129   1.700   0.461  1.7302  1.8824  2.3893
  952SOL    HW2 2856   0.051   1.583   0.557 -0.6344  1.7853 -1.0559
  953SOL     OW 2857   2.565   1.757   0.181  0.6277 -0.2945 -0.5735
  953SOL    HW1 2858   2.527   1.663   0.196 -3.2435 -0.4142 -0.7675
  953SOL    HW2 2859   2.623   1.768   0.099 -1.0095 -0.3104  3.2862
  954SOL     OW 2860   2.183   0.577   0.990  0.1207  0.4616  0.2057
  954SOL    HW1 2861   2.172   0.581   0.887  0.6526  1.4962 -1.4531
  954SOL    HW2 2862   2.280   0.549   1.019 -3.0358  0.7191 -0.8378
  955SOL     OW 2863   0.222   2.668   1.367  0.8621 -0.7482 -0.4406
  955SOL    HW1 2864   0.116   2.665   1.359  1.3713 -0.1345 -2.4568
  955SOL    HW2 2865   0.266   2.639   1.280  0.5620 -1.6239 -1.0733
  956SOL     OW 2866   2.765   2.464   2.470 -0.1602 -0.2880  0.3633
  956SOL    HW1 2867   2.784   2.366   2.447 -0.1094  1.2644 -0.0341
  956SOL    HW2 2868   2.799   2.536   2.393  1.6429  2.1787 -0.8847
  957SOL     OW 2869   1.577   2.044   2.712 -0.5189  0.6703 -0.4467
  957SOL    HW1 2870   1.564   1.942   2.733 -2.1734 -0.1294  0.7856
  957SOL    HW2 2871   1.599   2.067   2.614 -0.2500 -0.8138 -3.8753
  958SOL     OW 2872   2.681   2.334   2.978 -0.2594  0.1719 -0.0179
  958SOL    HW1 2873   2.589   2.387   2.979 -1.7356 -0.9720  0.0240
  958SOL    HW2 2874   2.670   2.263   3.052 -1.1880  1.4712 -0.0985
  959SOL     OW 2875   0.286   2.759   0.091  0.1890  0.1455 -0.2074
  959SOL    HW1 2876   0.185   2.737   0.085 -1.3727  0.7110 -1.8117
  959SOL    HW2 2877   0.338   2.681   0.130  1.8325  0.8095 -2.2686
  960SOL     OW 2878   1.983   0.467   1.934  0.3938  0.4182 -0.3512
  960SOL    HW1 2879   1.925   0.541   1.893  0.3467  1.1565 -0.6931
  960SOL    HW2 2880   1.979   0.474   2.040 -2.4508  1.2693 -1.9626
  961SOL     OW 2881   2.570   1.851   1.050 -0.0204  0.2556  0.0799
  961SOL    HW1 2882   2.533   1.940   1.019 -0.5112 -1.2091 -1.8766
  961SOL    HW2 2883   2.573   1.843   1.153  1.8013 -1.1659 -0.5493
  962SOL     OW 2884   1.311   0.906   0.035 -0.0420  0.3172 -0.1304
  962SOL    HW1 2885   1.271   0.945  -0.054  0.6144 -2.1217 -2.2361
  962SOL    HW2 2886   1.325   0.970   0.114  0.8229  2.1517 -1.7284
  963SOL     OW 2887   2.227   2.591   1.858  0.6857  0.2963  0.2501
  963SOL    HW1 2888   2.216   2.502   1.913  0.4827 -0.4161  2.6249
  963SOL    HW2 2889   2.253   2.674   1.920  0.3074 -1.0842  0.1693
  964SOL     OW 2890   2.413   0.382   1.667 -0.1192 -0.4587 -0.7308
  964SOL    HW1 2891   2.498   0.409   1.728  0.1835  1.1634  0.4713
  964SOL    HW2 2892   2.442   0.380   1.566  5.4550  1.6593  1.8264
  965SOL     OW 2893   2.584   3.068   0.201 -0.1771 -0.9274 -1.0023
  965SOL    HW1 2894   2.644   3.059   0.115 -0.2672  0.0499  1.9533
  965SOL    HW2 2895   2.483   3.036   0.196 -4.7113  0.8013  2.2807
  966SOL     OW 2896   2.492   2.503   2.267  0.6821  0.2226 -0.5091
  966SOL    HW1 2897   2.390   2.473   2.271  0.5773 -2.1440  1.2643
  966SOL    HW2 2898   2.505   2.605   2.272 -0.9107  2.9231  0.2502
  967SOL     OW 2899   2.784   2.797   2.493 -1.2268 -0.5512 -0.2454
  967SOL    HW1 2900   2.854   2.746   2.438 -2.1459  0.8273  1.0596
  967SOL    HW2 2901   2.821   2.862   2.569 -1.7220  1.2013  0.9796
  968SOL     OW 2902   1.935   1.065   2.679  0.3628  0.2944  0.1577
  968SOL    HW1 2903   1.915   1.146   2.628  1.8102 -4.6755  0.8526
  968SOL    HW2 2904   1.973   0.993   2.616 -1.0351  0.8269  0.0900
  969SOL     OW 2905   2.729   2.403   1.083 -0.1958 -0.8866  0.1007
  969SOL    HW1 2906   2.665   2.385   1.003 -0.1660 -3.1756  1.6793
  969SOL    HW2 2907   2.802   2.330   1.096 -3.1893 -3.2781  1.4755
  970SOL     OW 2908   1.059   2.120   1.765  0.2088  0.4833 -0.0084
  970SOL    HW1 2909   0.966   2.113   1.722  0.9053 -0.3339  0.7955
  970SOL    HW2 2910   1.056   2.156   1.859  1.4207 -0.8891 -0.8773
  971SOL     OW 2911   2.799   2.104   1.900  0.7546  0.1193  0.4684
  971SOL    HW1 2912   2.800   2.196   1.949 -3.1947 -0.4102  0.6438
  971SOL    HW2 2913   2.857   2.097   1.814  0.1629  0.3004  1.0554
  972SOL     OW 2914   2.060   2.392   0.235  0.5600 -0.1863 -0.1239
  972SOL    HW1 2915   2.035   2.302   0.182  1.1968 -2.3605 -2.1008
  972SOL    HW2 2916   2.066   2.375   0.339 -1.1213  1.1500  1.6422
  973SOL     OW 2917   1.306   1.074   1.977 -0.3766 -0.3946  0.2941
  973SOL    HW1 2918   1.212   1.044   1.947 -3.1122 -0.0536  2.4544
  973SOL    HW2 2919   1.296   1.157   2.035 -1.3340  0.3069  3.5984
  974SOL     OW 2920   1.606   0.601   1.935  0.3292 -0.2444 -0.1893
  974SOL    HW1 2921   1.695   0.648   1.899  0.7775 -2.0963  0.7370
  974SOL    HW2 2922   1.518   0.650   1.905 -0.4265  2.1364  1.6305
  975SOL     OW 2923   2.371   3.035   0.017 -0.4329  0.4082  0.8125
  975SOL    HW1 2924   2.313   2.951   0.033  2.9039 -0.2909 -0.4827
  975SOL    HW2 2925   2.398   3.036  -0.084  1.7447  1.2652 -1.7512
  976SOL     OW 2926   1.939   2.843   2.352  0.2446 -0.3267  0.0064
  976SOL    HW1 2927   1.858   2.797   2.303  0.4635 -1.9870 -0.9370
  976SOL    HW2 2928   1.933   2.835   2.452 -0.0598 -0.4892 -5.1484
  977SOL     OW 2929   0.445   0.608   1.022  0.5243 -0.0467  0.0530
  977SOL    HW1 2930   0.389   0.610   0.937 -0.1863  2.2618 -1.3371
  977SOL    HW2 2931   0.543   0.563   1.009  0.6237  0.2321  0.2743
   3.10000   3.10000   3.10000
