1000 SPC/Fw water molecules t=   0.40000 step= 400
 2931
    1SOL     OW    1   2.531   0.304   2.592 -0.3137 -0.0509  0.8982
    1SOL    HW1    2   2.582   0.214   2.577  2.5301  0.7967  2.5600
    1SOL    HW2    3   2.558   0.348   2.682 -1.7250  1.6147  2.6953
    2SOL     OW    4   2.703   3.054   1.439  0.1650  0.7405  0.7102
    2SOL    HW1    5   2.764   3.124   1.390 -1.1632  0.1999  0.2891
    2SOL    HW2    6   2.625   3.096   1.501 -0.4501  3.3319  1.5120
    3SOL     OW    7   2.738   2.592   0.398  0.4906  0.1948 -0.1766
    3SOL    HW1    8   2.699   2.497   0.375  0.5579  0.5088 -0.9926
    3SOL    HW2    9   2.801   2.601   0.482  1.4300  0.0373 -1.4320
    4SOL     OW   10   1.341   1.476   2.366 -0.1146  0.1684 -0.4679
    4SOL    HW1   11   1.253   1.501   2.314 -2.8598  1.4643 -2.4919
    4SOL    HW2   12   1.321   1.396   2.430 -1.6669  1.8283  1.6402
    5SOL     OW   13   1.198   1.495   3.029 -0.1286  0.1835  0.4041
    5SOL    HW1   14   1.260   1.548   3.091 -0.2845 -0.1377 -1.9005
    5SOL    HW2   15   1.106   1.543   3.027 -0.5891  1.4027  1.0208
    6SOL     OW   16   0.025   1.777   2.885  0.4156 -0.1587  0.2456
    6SOL    HW1   17   0.025   1.833   2.975  2.2622  2.7072 -0.8423
    6SOL    HW2   18   0.017   1.672   2.893  0.1895  1.5645 -0.8588
    7SOL     OW   19   2.554   0.888   1.146 -0.1213  0.2733  0.1948
    7SOL    HW1   20   2.456   0.869   1.170  3.1999 -2.8233  4.5237
    7SOL    HW2   21   2.570   0.894   1.039  0.0943 -3.2189 -0.3910
    8SOL     OW   22   0.404   0.639   1.545  0.1029  0.0929 -0.2536
    8SOL    HW1   23   0.489   0.581   1.560 -2.5658 -0.2570 -0.4628
    8SOL    HW2   24   0.350   0.598   1.467 -0.4878 -0.2199  1.5469
    9SOL     OW   25   1.158   0.968   2.253 -0.6628 -0.3538 -0.4329
    9SOL    HW1   26   1.209   1.055   2.228  1.6337  1.2348 -0.3986
    9SOL    HW2   27   1.089   0.931   2.181  1.1545  1.9339  1.0069
   10SOL     OW   28   0.727   1.350   1.252 -0.9235  0.4568  0.1226
   10SOL    HW1   29   0.641   1.390   1.215 -0.9245 -2.7622  2.9232
   10SOL    HW2   30   0.807   1.418   1.268  2.4249  0.7032  2.3650
   11SOL     OW   31   2.347   2.655   0.962  0.4787  0.5559  0.2888
   11SOL    HW1   32   2.321   2.681   1.064 -3.0275  0.3873  2.5875
   11SOL    HW2   33   2.447   2.662   0.948  0.3511  0.3151  0.2404
   12SOL     OW   34   1.441   0.925   0.406 -0.1845  0.2215 -0.1951
   12SOL    HW1   35   1.372   0.985   0.357  0.3797 -0.1417 -0.0791
   12SOL    HW2   36   1.416   0.823   0.415  0.3970 -1.2699 -4.5860
   13SOL     OW   37   2.525   0.669   1.839  0.4922  0.0605 -0.3597
   13SOL    HW1   38   2.442   0.648   1.900 -0.7422  0.7588 -1.1620
   13SOL    HW2   39   2.508   0.648   1.737 -0.3602  0.6090 -1.7449
   14SOL     OW   40   1.968   0.031   0.667  1.1667  0.2740  0.7338
   14SOL    HW1   41   1.884   0.082   0.629  1.7321  0.2294  0.7372
   14SOL    HW2   42   1.933  -0.052   0.725 -0.5914  1.8995 -0.5727
   15SOL     OW   43   1.946   2.019   2.854  0.0729  0.1752  0.2355
   15SOL    HW1   44   1.896   2.109   2.877 -1.1807 -0.2639 -0.0633
   15SOL    HW2   45   1.903   1.977   2.765 -1.5458 -1.2815 -0.0361
   16SOL     OW   46   1.619   1.739  -0.001  0.2397 -0.3643  0.0235
   16SOL    HW1   47   1.640   1.636   0.008  1.5733 -1.1277  1.8143
   16SOL    HW2   48   1.682   1.799   0.057 -0.3523  1.3864  0.1913
   17SOL     OW   49   0.093   0.483   0.159 -0.6330  0.1950 -0.9102
   17SOL    HW1   50   0.158   0.494   0.078  0.6911  2.1781 -0.9033
   17SOL    HW2   51  -0.002   0.514   0.134 -0.2415  1.0435 -3.2030
   18SOL     OW   52   0.979   2.899   2.180  0.4263 -0.1881 -0.2568
   18SOL    HW1   53   0.889   2.841   2.175 -0.1612 -1.3132 -0.1365
   18SOL    HW2   54   1.048   2.868   2.115 -1.1211  0.6566 -2.0522
   19SOL     OW   55   0.511   0.868   1.958  0.3645 -0.4968 -0.6182
   19SOL    HW1   56   0.530   0.964   1.982  1.5106 -0.1813 -0.1911
   19SOL    HW2   57   0.598   0.812   1.958  0.4479 -2.7661  0.9061
   20SOL     OW   58   0.193   2.801   0.815 -0.8579  0.0540  0.0871
   20SOL    HW1   59   0.126   2.864   0.769  0.9962 -2.6641 -0.2826
   20SOL    HW2   60   0.290   2.802   0.775  0.2871  2.6683  5.5893
   21SOL     OW   61   2.776   0.186   2.151  0.4029 -0.3655 -0.3302
   21SOL    HW1   62   2.745   0.122   2.077  2.6537 -2.0413 -0.5708
   21SOL    HW2   63   2.816   0.138   2.235  0.6166  0.3224  2.2196
   22SOL     OW   64   2.311   0.227   0.004  0.4529  0.3236  0.0245
   22SOL    HW1   65   2.327   0.123  -0.013 -0.0540 -0.0526  0.9026
   22SOL    HW2   66   2.211   0.253   0.001 -1.0628  0.7357 -0.0960
   23SOL     OW   67   2.809   0.648   0.662 -0.5073 -0.5262 -0.5447
   23SOL    HW1   68   2.815   0.556   0.607  3.9662 -0.0328 -0.2246
   23SOL    HW2   69   2.780   0.730   0.606  0.9589  1.8510  0.0803
   24SOL     OW   70   0.148   1.910   0.448 -0.3911  0.5460 -0.5903
   24SOL    HW1   71   0.051   1.912   0.408 -3.3894  3.1992  2.8284
   24SOL    HW2   72   0.224   1.928   0.382  3.0511 -2.1833  2.1374
   25SOL     OW   73   2.257   0.478   0.199  0.3435  0.1391  0.1415
   25SOL    HW1   74   2.318   0.408   0.239 -0.6142  0.5966  3.4235
   25SOL    HW2   75   2.233   0.482   0.095 -0.2734  2.2102 -0.2402
   26SOL     OW   76   2.479   2.186   2.099 -0.5911  0.0253 -0.0798
   26SOL    HW1   77   2.554   2.256   2.130  0.9935 -0.7681  1.0904
   26SOL    HW2   78   2.520   2.100   2.063 -0.3845 -0.0156  2.3062
   27SOL     OW   79   0.664   2.967   0.104 -0.3350  0.8182  0.2165
   27SOL    HW1   80   0.761   2.991   0.131  0.3864 -0.8189 -0.3994
   27SOL    HW2   81   0.631   3.024   0.025 -2.1522 -0.6779 -1.3863
   28SOL     OW   82   1.559   0.167   0.278  0.0189  0.3073 -0.1438
   28SOL    HW1   83   1.618   0.128   0.199  2.4542 -1.1442  1.0823
   28SOL    HW2   84   1.581   0.264   0.307  0.5792 -1.0799  2.8814
   29SOL     OW   85   2.043   0.560   0.342 -0.5948 -0.5727  0.9058
   29SOL    HW1   86   2.026   0.664   0.350 -0.0009 -2.0433 -0.6797
   29SOL    HW2   87   2.134   0.538   0.292  1.0984 -2.9394 -3.0506
   30SOL     OW   88   0.126   2.020   0.937 -0.0547  0.3066 -0.3083
   30SOL    HW1   89   0.117   2.017   0.834  0.3514  2.2785  0.0850
   30SOL    HW2   90   0.060   2.079   0.990  1.6531 -1.5632 -1.7950
   31SOL     OW   91   2.102   0.007   2.309 -0.1231  0.1823 -0.0935
   31SOL    HW1   92   2.101   0.005   2.416 -1.9305 -0.2530 -0.1574
   31SOL    HW2   93   2.017  -0.030   2.258  0.1033  0.1441 -1.2756
   32SOL     OW   94   2.909   0.186   0.151  0.6309  0.2772  0.1776
   32SOL    HW1   95   2.875   0.104   0.203 -0.3820 -0.0201  2.3675
   32SOL    HW2   96   2.992   0.224   0.198 -0.2326 -0.6752  0.1638
   33SOL     OW   97   0.942   0.328   0.488 -0.5662  0.0511  0.2520
   33SOL    HW1   98   0.900   0.234   0.477 -1.7271  1.6088 -1.1603
   33SOL    HW2   99   1.012   0.327   0.573  2.7041  0.2671  2.6295
   34SOL     OW  100   0.399   2.841   1.067 -0.1427 -0.0261 -1.2440
   34SOL    HW1  101   0.340   2.854   0.980 -0.8952 -3.7328 -1.5294
   34SOL    HW2  102   0.501   2.833   1.040 -0.2076  1.5133 -2.8992
   35SOL     OW  103   0.038   0.073   1.846 -0.1101  1.0712  0.3172
   35SOL    HW1  104   0.107  -0.006   1.863  0.9440 -0.9727  0.3817
   35SOL    HW2  105  -0.009   0.073   1.751  0.5594  0.8898 -1.5398
   36SOL     OW  106   1.935   1.123   1.805 -0.1416 -0.1407  0.4560
   36SOL    HW1  107   1.997   1.092   1.725  3.2492 -0.5895 -2.2425
   36SOL    HW2  108   1.977   1.193   1.869  1.7591  0.2890  0.0900
   37SOL     OW  109   1.200   0.241   0.945 -0.3867 -0.5124 -0.1151
   37SOL    HW1  110   1.224   0.321   1.007  1.2864 -1.1578 -1.6333
   37SOL    HW2  111   1.223   0.151   0.985  0.2644  1.3970 -1.0685
   38SOL     OW  112   1.061   2.691   2.415 -0.2730  0.5033 -0.0765
   38SOL    HW1  113   1.015   2.599   2.428  1.9405 -1.6359  0.3702
   38SOL    HW2  114   1.001   2.777   2.420  0.2293 -2.3269  1.4170
   39SOL     OW  115   2.308   1.391   3.008  0.2198 -0.2191 -0.1678
   39SOL    HW1  116   2.394   1.333   3.013  2.0209 -0.5526  0.6640
   39SOL    HW2  117   2.246   1.371   3.085 -0.4357 -0.1630 -2.7834
   40SOL     OW  118   2.094   2.531   2.516  0.2098 -0.1242  0.0625
   40SOL    HW1  119   2.059   2.614   2.564 -4.0281 -3.0803  3.6618
   40SOL    HW2  120   2.023   2.478   2.469 -0.5657 -0.3111  2.4098
   41SOL     OW  121   2.923   0.695   2.749  0.1154 -0.0870 -0.1266
   41SOL    HW1  122   2.829   0.732   2.756  1.8101 -1.2016  1.5516
   41SOL    HW2  123   2.920   0.594   2.770 -2.3521  1.4705 -0.3675
   42SOL     OW  124   1.766   1.762   0.569 -0.4097  0.1140  0.1285
   42SOL    HW1  125   1.699   1.686   0.558  0.6842  1.3897  0.1961
   42SOL    HW2  126   1.815   1.794   0.481 -1.5769  2.2837 -1.4647
   43SOL     OW  127   0.453   1.753   1.208  0.5355 -0.3204 -0.4350
   43SOL    HW1  128   0.435   1.723   1.304  1.2016 -0.7300 -1.4814
   43SOL    HW2  129   0.362   1.763   1.152 -0.2646 -1.7589 -2.5513
   44SOL     OW  130   1.779   2.545   0.013  0.0564 -0.3588 -0.2677
   44SOL    HW1  131   1.781   2.578  -0.083  0.0688 -2.3443  0.7089
   44SOL    HW2  132   1.869   2.545   0.055  1.1830 -0.0772 -1.3927
   45SOL     OW  133   0.286   1.915   2.601  0.0380 -0.4797 -0.0540
   45SOL    HW1  134   0.234   1.914   2.510 -1.6940 -3.8876  1.4905
   45SOL    HW2  135   0.364   1.844   2.608 -0.7750 -0.2089  1.1731
   46SOL     OW  136   1.158   0.649   0.238  0.5819  0.2658 -0.0714
   46SOL    HW1  137   1.213   0.699   0.166 -2.1328  2.9864  1.1120
   46SOL    HW2  138   1.058   0.674   0.226  0.9406  1.0596 -0.3845
   47SOL     OW  139   0.216   2.440   1.598 -0.5084 -0.0932  0.2510
   47SOL    HW1  140   0.312   2.390   1.604 -0.1132 -0.2348  1.8034
   47SOL    HW2  141   0.192   2.472   1.506  0.9703 -2.7949  2.0665
   48SOL     OW  142   2.589   0.599   0.151  0.0710 -0.0728 -0.8163
   48SOL    HW1  143   2.558   0.599   0.250  3.4224  1.0749  0.6511
   48SOL    HW2  144   2.696   0.625   0.134  3.6537  5.1839  1.4002
   49SOL     OW  145   0.358   0.805   1.745  0.2281 -0.2231 -0.1239
   49SOL    HW1  146   0.420   0.804   1.830  0.2739  2.9190 -0.8780
   49SOL    HW2  147   0.390   0.737   1.671 -1.3441 -0.7022 -0.8206
   50SOL     OW  148   1.699   1.086   0.379 -0.5388  0.0643 -0.1747
   50SOL    HW1  149   1.690   0.996   0.343  0.7436  0.7645  0.9981
   50SOL    HW2  150   1.626   1.109   0.449 -1.8313  0.8539 -1.7594
   51SOL     OW  151   2.997   1.888   0.338 -0.2772  0.2678 -0.4582
   51SOL    HW1  152   2.977   1.923   0.240  0.0408  1.0304 -0.9908
   51SOL    HW2  153   3.002   1.782   0.342 -0.4047 -1.5248  1.1381
   52SOL     OW  154   0.790   1.972   0.492 -0.2523 -0.2944  0.2997
   52SOL    HW1  155   0.712   2.016   0.542  0.2973 -1.1430 -1.1965
   52SOL    HW2  156   0.819   1.881   0.536  1.7163 -2.4019  1.2589
   53SOL     OW  157   3.095   0.356   1.560 -0.6797 -0.0921  0.0465
   53SOL    HW1  158   3.048   0.361   1.652  1.5388  2.4373  0.2137
   53SOL    HW2  159   3.072   0.440   1.509  0.3353  0.0066 -0.3213
   54SOL     OW  160   1.748   0.481   3.053 -0.1300 -0.0926  0.0832
   54SOL    HW1  161   1.781   0.417   3.131  0.5345 -0.8635  1.4249
   54SOL    HW2  162   1.646   0.504   3.062 -3.5780  0.7555  3.2664
   55SOL     OW  163   0.725   2.952   0.571  0.4138 -0.6252  0.1040
   55SOL    HW1  164   0.683   3.046   0.590 -3.3482 -3.3317 -1.7216
   55SOL    HW2  165   0.831   2.945   0.556  3.7206 -0.3197  0.5012
   56SOL     OW  166   0.456   1.567   3.017 -0.0919 -0.3582  0.1510
   56SOL    HW1  167   0.380   1.616   3.067  0.5354  2.3137  1.1880
   56SOL    HW2  168   0.434   1.477   2.976 -0.3018  4.1720  1.1718
   57SOL     OW  169   1.812   2.430   2.683  0.2859  0.4538 -0.0814
   57SOL    HW1  170   1.861   2.422   2.592 -0.3726  1.3935  0.0590
   57SOL    HW2  171   1.713   2.464   2.682  0.2926 -0.2713  0.8514
   58SOL     OW  172   0.640   0.423   1.122  0.4719  0.0197 -0.1035
   58SOL    HW1  173   0.577   0.498   1.087  1.0496 -4.9507 -1.7215
   58SOL    HW2  174   0.604   0.327   1.099 -0.4628  1.1212 -1.6959
   59SOL     OW  175   0.438   2.401   2.728  0.0915 -0.3892  0.3082
   59SOL    HW1  176   0.445   2.307   2.691 -0.2978 -0.9941 -1.5953
   59SOL    HW2  177   0.527   2.433   2.772 -1.2172 -0.9274  1.8464
   60SOL     OW  178   2.297   2.110   2.269  0.1140 -0.0002 -0.7010
   60SOL    HW1  179   2.375   2.151   2.210  1.6553 -0.8205  1.7036
   60SOL    HW2  180   2.313   2.139   2.368 -1.1363  0.9837 -0.4979
   61SOL     OW  181   1.375   0.644   0.508 -0.3939  0.3447 -0.2549
   61SOL    HW1  182   1.288   0.695   0.543 -1.5326  0.3989  3.0072
   61SOL    HW2  183   1.367   0.622   0.405 -1.8735 -0.6504 -2.3956
   62SOL     OW  184   2.650   1.821   3.020  0.1976 -0.7743 -0.4995
   62SOL    HW1  185   2.628   1.730   3.064 -0.5380  1.7902  0.2120
   62SOL    HW2  186   2.709   1.813   2.938  1.8439  1.8301 -1.6271
   63SOL     OW  187   0.500   0.871   0.170 -0.2397  0.5521 -0.0804
   63SOL    HW1  188   0.464   0.963   0.134 -0.3859  0.6588  2.6270
   63SOL    HW2  189   0.588   0.874   0.223 -1.0258 -0.2583 -1.5156
   64SOL     OW  190   0.084   0.514   2.525 -0.6540  0.7067  0.0214
   64SOL    HW1  191   0.032   0.517   2.611 -1.0765  0.8740  0.0559
   64SOL    HW2  192   0.084   0.593   2.467  1.7542 -2.1115  2.9941
   65SOL     OW  193   0.181   1.475   0.629 -0.3029  0.1353  0.0929
   65SOL    HW1  194   0.172   1.551   0.699 -0.6775 -0.9928  1.3484
   65SOL    HW2  195   0.277   1.472   0.581 -0.2564 -1.5957 -4.0647
   66SOL     OW  196   2.523   0.424   0.653  0.0128  0.1455 -0.3753
   66SOL    HW1  197   2.449   0.486   0.694  1.7388  1.1489 -0.9350
   66SOL    HW2  198   2.516   0.330   0.687  1.4300  0.7320  1.8453
   67SOL     OW  199   0.498   2.499   1.409  0.2394 -0.4674  0.6737
   67SOL    HW1  200   0.561   2.457   1.477 -1.8432 -0.3054  1.5388
   67SOL    HW2  201   0.451   2.423   1.353  0.6740 -0.6434  2.0326
   68SOL     OW  202   1.026   1.097   2.480 -0.4170 -0.0689  0.1744
   68SOL    HW1  203   1.075   1.023   2.423 -3.5365 -1.7793 -2.3459
   68SOL    HW2  204   0.925   1.101   2.454 -1.0472 -1.0098 -1.8760
   69SOL     OW  205   0.754   2.745   2.147 -0.3457  0.5893  0.4437
   69SOL    HW1  206   0.785   2.657   2.191  3.3100  1.0233  1.2334
   69SOL    HW2  207   0.646   2.765   2.166 -3.4601 -1.1106  0.4000
   70SOL     OW  208   0.652   0.276   2.748 -0.1674  0.1542 -0.3646
   70SOL    HW1  209   0.679   0.328   2.835  1.6289  0.7446  1.8788
   70SOL    HW2  210   0.604   0.182   2.767 -1.7296 -1.1116  2.0385
   71SOL     OW  211   1.129   1.795   0.338  0.0913  0.0961 -0.1088
   71SOL    HW1  212   1.048   1.730   0.353 -2.4437  0.2527 -1.9388
   71SOL    HW2  213   1.132   1.817   0.234 -1.1070  0.6429  0.4330
   72SOL     OW  214   1.811   0.163   2.061 -0.3522 -0.0451 -0.6196
   72SOL    HW1  215   1.865   0.177   1.976 -1.7170  0.5606  0.3754
   72SOL    HW2  216   1.842   0.082   2.116  0.0228 -1.2691  0.4849
   73SOL     OW  217   2.744   2.212   2.524 -0.1037 -0.7127  0.1506
   73SOL    HW1  218   2.720   2.106   2.504 -1.6646 -0.8481  2.0035
   73SOL    HW2  219   2.772   2.221   2.625 -0.2224  0.7986  1.1977
   74SOL     OW  220   2.739   2.969   2.017 -0.2179  0.3972 -0.3221
   74SOL    HW1  221   2.673   2.976   2.093  1.6720 -2.8865 -0.7801
   74SOL    HW2  222   2.837   2.991   2.044 -0.6983 -0.2190 -1.0171
   75SOL     OW  223   0.910   0.754   1.034 -0.1660  0.3702 -0.0600
   75SOL    HW1  224   0.829   0.800   1.003  2.8906 -0.3088  2.4710
   75SOL    HW2  225   0.952   0.802   1.120  0.3342  0.4405 -1.7164
   76SOL     OW  226   1.744   1.238   2.581  0.0142 -0.2905 -0.5966
   76SOL    HW1  227   1.651   1.210   2.560  0.0892  0.2680  0.7590
   76SOL    HW2  228   1.747   1.308   2.662  0.1831  0.0556  2.8587
   77SOL     OW  229   2.927   0.980   0.992 -0.3233 -0.3805 -0.5997
   77SOL    HW1  230   2.918   0.876   0.971 -3.1209 -1.2828 -1.7624
   77SOL    HW2  231   2.972   0.982   1.087 -1.2376 -1.9963  1.2265
   78SOL     OW  232   1.986   1.418   1.505  0.8963  0.2821 -0.4828
   78SOL    HW1  233   2.091   1.430   1.496  2.3565 -0.5358  0.5509
   78SOL    HW2  234   1.940   1.371   1.420 -0.6631  1.2045  0.2328
   79SOL     OW  235   0.595   1.352   0.826 -0.5694 -0.3480 -0.2060
   79SOL    HW1  236   0.508   1.387   0.869 -1.7182 -0.8552  0.3148
   79SOL    HW2  237   0.580   1.305   0.735 -0.3737  0.8641  0.1789
   80SOL     OW  238   0.652   0.490   1.583  0.3672 -0.0850 -0.0031
   80SOL    HW1  239   0.715   0.553   1.528 -1.3933 -0.4224  0.3513
   80SOL    HW2  240   0.684   0.392   1.586  0.0777  0.2803  0.1272
   81SOL     OW  241   0.997   1.365   2.612  0.6878  0.1236 -0.1319
   81SOL    HW1  242   1.052   1.276   2.593 -1.8730 -0.9589  0.5584
   81SOL    HW2  243   0.950   1.395   2.525 -0.9860  0.7718 -1.6543
   82SOL     OW  244   0.972   2.961   1.532  0.5556  0.0627 -0.3060
   82SOL    HW1  245   1.043   2.924   1.468  0.6012 -0.7952 -1.5370
   82SOL    HW2  246   0.879   2.913   1.527 -3.1157  0.0973 -2.0505
   83SOL     OW  247   2.695   2.459   0.782 -0.7030 -0.4665  0.1551
   83SOL    HW1  248   2.629   2.385   0.752 -2.9411  1.8384  1.6867
   83SOL    HW2  249   2.661   2.554   0.744  0.7415 -0.5688  0.7577
   84SOL     OW  250   0.703   3.088   2.383  0.8634 -0.3562 -0.3136
   84SOL    HW1  251   0.641   3.016   2.427  0.1781  1.1428 -0.7598
   84SOL    HW2  252   0.786   3.105   2.436 -1.5803  2.6712 -0.9969
   85SOL     OW  253   0.416   1.677   1.529 -0.6825 -0.2461  0.2229
   85SOL    HW1  254   0.345   1.755   1.513  0.7507  1.5729  1.2235
   85SOL    HW2  255   0.425   1.638   1.629  0.9519 -0.3826  1.9863
   86SOL     OW  256   0.364   0.985   1.512 -0.0175 -0.3244  0.3705
   86SOL    HW1  257   0.358   0.933   1.421  0.9495  0.3360  0.9390
   86SOL    HW2  258   0.381   0.926   1.597  0.3135  0.6728 -0.2950
   87SOL     OW  259   1.527   0.643   0.249  0.0961  0.2358  0.7279
   87SOL    HW1  260   1.605   0.709   0.263 -0.5083 -0.0743 -1.6463
   87SOL    HW2  261   1.520   0.620   0.146  0.3964 -0.9313  1.5694
   88SOL     OW  262   1.569   1.315   0.190 -0.2383  0.2666  0.4140
   88SOL    HW1  263   1.618   1.246   0.248  2.9234  0.8259 -0.9080
   88SOL    HW2  264   1.479   1.347   0.230  1.3636  2.1555 -2.2456
   89SOL     OW  265   0.015   0.450   0.552  0.7636  0.2264  0.1806
   89SOL    HW1  266   0.087   0.376   0.561  2.8790  0.9040  0.0236
   89SOL    HW2  267  -0.085   0.413   0.535  1.1829  0.1273 -0.4470
   90SOL     OW  268   0.950   1.622   3.013 -0.0792 -0.5730 -0.0618
   90SOL    HW1  269   0.869   1.597   3.075 -1.1795  0.3368  1.0348
   90SOL    HW2  270   0.929   1.643   2.915 -0.4664 -0.5190  0.4746
   91SOL     OW  271   1.267   1.482   1.786  0.4802 -0.5783  0.1178
   91SOL    HW1  272   1.274   1.562   1.848 -1.2868  0.7106 -3.1717
   91SOL    HW2  273   1.363   1.444   1.764 -0.2369 -0.0706  1.4873
   92SOL     OW  274   3.057   1.037   1.213 -0.0753  0.0610  0.6020
   92SOL    HW1  275   3.128   1.106   1.184 -0.2364  0.1442  1.6483
   92SOL    HW2  276   3.079   0.981   1.300  1.8696  1.3167  1.1055
   93SOL     OW  277   3.092   2.746   0.063 -0.4865  0.4579  0.3148
   93SOL    HW1  278   3.075   2.758  -0.037  1.2226 -3.1552  0.2843
   93SOL    HW2  279   3.143   2.663   0.087 -0.3589  0.5827  0.4004
   94SOL     OW  280   1.532   1.405   1.697 -0.2822  0.6577 -0.0013
   94SOL    HW1  281   1.593   1.321   1.703  0.0977 -1.1264  1.0577
   94SOL    HW2  282   1.580   1.484   1.747 -1.2787 -0.6831  1.7130
   95SOL     OW  283   1.299   2.497   2.978  0.0687  0.8276  0.2650
   95SOL    HW1  284   1.241   2.477   3.063 -1.7602 -0.9756  2.6771
   95SOL    HW2  285   1.329   2.411   2.924  0.4173 -1.0851 -0.4679
   96SOL     OW  286   0.579   2.015   1.185  0.3255  0.5366 -0.4381
   96SOL    HW1  287   0.547   2.027   1.089  0.3958  0.6912 -1.5978
   96SOL    HW2  288   0.557   1.920   1.221 -0.6804  0.1236  3.7298
   97SOL     OW  289   0.376   1.520   2.532 -0.1346  0.8023 -0.0165
   97SOL    HW1  290   0.273   1.536   2.535  0.1162 -0.0060 -0.5110
   97SOL    HW2  291   0.421   1.600   2.575  1.8374 -0.5790  0.2102
   98SOL     OW  292   1.978   1.622   1.278 -0.1945 -0.4538  0.0285
   98SOL    HW1  293   1.930   1.612   1.193  0.1598  0.7792  0.3321
   98SOL    HW2  294   2.029   1.533   1.297  0.6879 -0.2206 -2.3121
   99SOL     OW  295   2.491   2.130   1.367 -0.4927 -0.4265  0.2546
   99SOL    HW1  296   2.455   2.165   1.458  1.3812 -3.0684  1.5165
   99SOL    HW2  297   2.483   2.023   1.363 -0.9795 -0.1929 -1.0244
  100SOL     OW  298   2.312   0.382   2.040 -0.1984  0.0594  0.4594
  100SOL    HW1  299   2.256   0.345   2.124 -2.6982 -1.1250  1.6878
  100SOL    HW2  300   2.419   0.381   2.055 -0.3955  1.7040  1.1432
  101SOL     OW  301   0.378   1.490   0.268  0.5961 -0.6558  0.0778
  101SOL    HW1  302   0.403   1.506   0.371 -1.5555  0.9552  2.5012
  101SOL    HW2  303   0.405   1.568   0.204 -0.3918  0.6388 -1.5487
  102SOL     OW  304   2.307   1.053   0.811  0.0278 -0.7835  0.2994
  102SOL    HW1  305   2.218   1.002   0.806 -0.6727  0.5590 -1.4608
  102SOL    HW2  306   2.326   1.119   0.727  0.8356 -0.4153  0.3302
  103SOL     OW  307   2.295   0.044   0.401  0.2633  0.2111 -0.0210
  103SOL    HW1  308   2.332   0.130   0.350  0.5378 -0.8504 -0.8752
  103SOL    HW2  309   2.365   0.013   0.469 -0.5393 -2.0362  0.4032
  104SOL     OW  310   0.067   1.834   2.117  0.6841 -0.9663 -0.0004
  104SOL    HW1  311   0.069   1.793   2.024 -3.8859 -1.5332  1.0671
  104SOL    HW2  312  -0.033   1.837   2.158 -1.2003  0.0545 -1.4076
  105SOL     OW  313   1.233   1.983   0.790  0.2888  0.0852 -0.4355
  105SOL    HW1  314   1.165   2.005   0.715  1.3793  1.6681 -0.6479
  105SOL    HW2  315   1.289   1.896   0.781  0.0963 -0.7790  0.0968
  106SOL     OW  316   2.095   0.487   1.388  0.6113  0.7310  0.1717
  106SOL    HW1  317   2.048   0.409   1.437 -0.8420  1.3177 -1.5181
  106SOL    HW2  318   2.105   0.565   1.452 -0.2039  1.7469 -0.3935
  107SOL     OW  319   1.806   3.006   1.082  0.0902 -0.2945  0.4432
  107SOL    HW1  320   1.844   3.079   1.146 -0.6187  1.1631  0.8270
  107SOL    HW2  321   1.743   2.942   1.137  0.3647  0.7529 -0.7617
  108SOL     OW  322   0.802   2.725   1.289  0.5232  0.4882 -0.3967
  108SOL    HW1  323   0.778   2.783   1.376 -1.4039 -0.5941  1.2133
  108SOL    HW2  324   0.888   2.663   1.298  3.1709  0.6945 -1.2057
  109SOL     OW  325   2.186   0.108   0.815  0.1687  0.2091 -0.8579
  109SOL    HW1  326   2.103   0.058   0.773  0.2327 -0.5790 -0.3811
  109SOL    HW2  327   2.183   0.103   0.922 -0.5774 -1.0576  0.6409
  110SOL     OW  328   0.455   2.813   2.684 -0.1613 -0.2114 -0.1933
  110SOL    HW1  329   0.443   2.838   2.583 -2.6885 -1.6210  2.2773
  110SOL    HW2  330   0.553   2.783   2.705 -1.6253 -1.0085 -3.9229
  111SOL     OW  331   1.307   0.532   2.260  0.3934 -0.5772 -0.6121
  111SOL    HW1  332   1.241   0.580   2.321 -0.4226 -0.6388 -1.7940
  111SOL    HW2  333   1.335   0.444   2.305  0.1173  1.8478  1.9699
  112SOL     OW  334   1.750   0.513   1.425 -0.0337  0.2817  0.4969
  112SOL    HW1  335   1.731   0.488   1.326  2.3059  0.6434  1.0471
  112SOL    HW2  336   1.710   0.442   1.495 -0.7283 -3.2246 -0.6305
  113SOL     OW  337   2.308   1.636   1.730 -0.5761  0.3292 -0.2566
  113SOL    HW1  338   2.356   1.541   1.730  0.2364 -0.0435  0.4701
  113SOL    HW2  339   2.328   1.680   1.820 -1.5470 -3.4847  0.8568
  114SOL     OW  340   0.306   0.540   1.306 -0.1070  0.0796 -0.6766
  114SOL    HW1  341   0.307   0.637   1.266 -1.6371 -1.3477  0.0158
  114SOL    HW2  342   0.239   0.474   1.268  1.8533 -0.5658  0.3259
  115SOL     OW  343   2.626   1.565   1.211 -0.1945  0.1067 -0.1149
  115SOL    HW1  344   2.675   1.491   1.266 -1.1039 -0.9707  0.6588
  115SOL    HW2  345   2.687   1.606   1.135  0.9068 -0.0282 -1.8743
  116SOL     OW  346   1.807   1.037   0.800  0.2514  0.1671 -0.2554
  116SOL    HW1  347   1.725   0.988   0.751 -1.0536 -1.5335 -0.1226
  116SOL    HW2  348   1.791   1.140   0.802  1.2104  0.0012  0.0176
  117SOL     OW  349   1.108   0.337   0.719 -0.0818 -0.1529  0.1858
  117SOL    HW1  350   1.141   0.312   0.814  1.4141  0.4357 -1.0548
  117SOL    HW2  351   1.130   0.439   0.699  1.8602  0.5127  0.0505
  118SOL     OW  352   1.114   1.118   1.136 -0.3992 -0.0827 -0.2140
  118SOL    HW1  353   1.071   1.042   1.188 -0.6000  1.4740 -2.2438
  118SOL    HW2  354   1.130   1.209   1.189  1.7772  2.9094 -0.5042
  119SOL     OW  355   1.819   1.612   2.109 -0.0266 -0.1002  0.5284
  119SOL    HW1  356   1.788   1.702   2.141 -0.8847 -4.4244 -0.7223
  119SOL    HW2  357   1.921   1.605   2.106  2.2949 -1.9056  0.1942
  120SOL     OW  358   2.970   2.806   0.305 -0.3990 -0.0944 -0.3282
  120SOL    HW1  359   3.008   2.786   0.207  2.7897  2.8382  0.9522
  120SOL    HW2  360   2.974   2.724   0.363  2.8649  1.2731 -0.0223
  121SOL     OW  361   1.987   0.717   2.225 -0.2805 -0.0909  0.3298
  121SOL    HW1  362   2.048   0.746   2.145  0.0671  1.0393 -2.6049
  121SOL    HW2  363   1.958   0.618   2.215  1.2701  0.9246  1.4366
  122SOL     OW  364   2.720   2.621   1.303 -0.0391  0.9688 -0.3055
  122SOL    HW1  365   2.736   2.577   1.211 -0.1234  0.7903  4.4872
  122SOL    HW2  366   2.634   2.578   1.350 -2.0682  0.2030  1.1350
  123SOL     OW  367   1.741   0.068   1.720  0.3745  0.3440 -0.1034
  123SOL    HW1  368   1.740  -0.017   1.660 -0.8923 -0.2634  2.2427
  123SOL    HW2  369   1.830   0.087   1.765 -3.2695  2.4904 -1.6186
  124SOL     OW  370   0.108   0.493   1.081  0.0089  0.2187  0.5570
  124SOL    HW1  371   0.094   0.583   1.123  1.8249 -0.2901 -2.1927
  124SOL    HW2  372   0.090   0.495   0.984  1.3706  1.6992  0.1592
  125SOL     OW  373   0.915   1.758   0.653  0.0424 -1.0171 -0.8288
  125SOL    HW1  374   1.009   1.718   0.645 -0.7629  2.4269  0.9150
  125SOL    HW2  375   0.889   1.767   0.752 -0.3605  2.5341  0.0364
  126SOL     OW  376   1.923   2.360   2.405 -0.0742 -0.1588  0.3300
  126SOL    HW1  377   1.983   2.289   2.359 -1.2851 -1.6374  2.5112
  126SOL    HW2  378   1.824   2.331   2.405 -0.7927  1.4753 -1.1473
  127SOL     OW  379   0.780   0.966   0.240  0.4635 -0.1773  0.3133
  127SOL    HW1  380   0.855   0.992   0.307 -2.9904  0.4647  3.0886
  127SOL    HW2  381   0.802   0.879   0.190  2.1840  2.5408  1.1585
  128SOL     OW  382   0.943   0.169   1.413  0.2790  0.0788 -0.5497
  128SOL    HW1  383   0.895   0.255   1.368  0.6319  1.3501 -1.6713
  128SOL    HW2  384   0.876   0.095   1.441 -2.7052  1.9680  1.4002
  129SOL     OW  385   1.897   0.668   1.849  0.1840  0.2529 -0.0057
  129SOL    HW1  386   1.912   0.661   1.745 -0.0475 -1.9059 -3.7058
  129SOL    HW2  387   1.908   0.763   1.895 -2.6712 -3.0613  2.4220
  130SOL     OW  388   1.311   2.159   1.022 -0.2276  0.6653 -0.1597
  130SOL    HW1  389   1.292   2.081   0.957  2.7449  1.3828 -0.6704
  130SOL    HW2  390   1.348   2.247   0.974 -1.0892  2.8732 -3.0107
  131SOL     OW  391   0.013   1.505   1.382  0.0627 -0.1887  0.4056
  131SOL    HW1  392  -0.026   1.406   1.371 -0.2595 -1.4492  1.5444
  131SOL    HW2  393   0.117   1.497   1.394 -0.7031 -0.2810  1.4790
  132SOL     OW  394   2.009   2.420   0.538  0.0365 -0.4660 -0.4663
  132SOL    HW1  395   1.907   2.420   0.544 -0.2892 -0.8052  1.8920
  132SOL    HW2  396   2.048   2.387   0.625 -1.5783  1.5045  1.1078
  133SOL     OW  397   1.864   2.267   2.884  0.1807  0.0187 -0.6388
  133SOL    HW1  398   1.915   2.309   2.960  0.7354  0.6412 -0.6451
  133SOL    HW2  399   1.854   2.340   2.803  1.9094  0.4898 -2.7689
  134SOL     OW  400   2.734   2.351   1.627  0.1990 -0.3126 -0.2281
  134SOL    HW1  401   2.673   2.345   1.710  1.8392  1.6185  1.1363
  134SOL    HW2  402   2.803   2.428   1.637 -1.2822  1.4939 -0.0394
  135SOL     OW  403   0.730   1.532   2.595  0.2410  0.3830 -0.5248
  135SOL    HW1  404   0.700   1.448   2.639 -3.4915  0.4508 -1.0648
  135SOL    HW2  405   0.768   1.507   2.507 -3.2019  3.0939  4.6559
  136SOL     OW  406   1.189   2.026   0.449 -0.1103  0.1022 -0.6401
  136SOL    HW1  407   1.123   2.061   0.522  0.3564 -0.6679  0.7688
  136SOL    HW2  408   1.173   1.932   0.410 -0.2253  1.8693  0.7019
  137SOL     OW  409   0.409   1.107   2.130  0.1903  0.1682 -0.9392
  137SOL    HW1  410   0.317   1.076   2.157  0.2512  2.0778  1.3268
  137SOL    HW2  411   0.477   1.067   2.197 -0.0713  1.4446  0.6002
  138SOL     OW  412   2.441   1.494   0.187 -0.5204 -0.1996  0.4241
  138SOL    HW1  413   2.349   1.456   0.162  0.8459 -1.3250 -0.7316
  138SOL    HW2  414   2.487   1.428   0.251 -0.4188 -0.3360  0.7617
  139SOL     OW  415   1.808   2.656   1.207  0.2491  0.2302  0.1809
  139SOL    HW1  416   1.712   2.621   1.177  0.0209 -1.6142 -0.7074
  139SOL    HW2  417   1.858   2.594   1.279  1.1939 -0.6524  2.9946
  140SOL     OW  418   2.984   2.970   2.508 -0.3220 -0.2057  0.7056
  140SOL    HW1  419   3.059   2.897   2.502 -1.0996  1.6572  0.8450
  140SOL    HW2  420   3.018   3.061   2.553  2.6106  0.0071  2.1039
  141SOL     OW  421   1.228   1.668   1.603 -0.5125  0.1854  0.5009
  141SOL    HW1  422   1.164   1.732   1.650 -0.0705  1.8330 -0.9492
  141SOL    HW2  423   1.254   1.590   1.662 -0.5479  1.6928  0.3398
  142SOL     OW  424   1.604   0.629   2.227  0.1068  0.2553 -0.1740
  142SOL    HW1  425   1.630   0.614   2.125 -0.1096 -0.7376  1.1766
  142SOL    HW2  426   1.503   0.626   2.236  3.1077  1.5364 -0.6788
  143SOL     OW  427   2.723   0.875   0.500  0.1943 -0.1913  0.1987
  143SOL    HW1  428   2.722   0.911   0.405  1.2935 -0.5751  0.9136
  143SOL    HW2  429   2.765   0.938   0.571 -0.9106  1.5034 -3.8620
  144SOL     OW  430   2.983   1.284   1.361  0.6367 -0.1376  0.4435
  144SOL    HW1  431   2.940   1.247   1.451  0.6336  0.1146  0.9524
  144SOL    HW2  432   2.997   1.216   1.283  0.6934  0.5252  0.3123
  145SOL     OW  433   1.033   1.848   0.067 -0.6018 -0.2754  0.3317
  145SOL    HW1  434   1.015   1.920  -0.011 -1.1980 -1.4957 -2.1556
  145SOL    HW2  435   1.013   1.752   0.033  1.4345 -0.6779  2.5596
  146SOL     OW  436   2.459   0.631   1.537 -0.9334  0.3395  0.6946
  146SOL    HW1  437   2.426   0.545   1.486 -0.2157 -0.9293 -0.1484
  146SOL    HW2  438   2.411   0.718   1.522 -1.0011 -2.0936 -1.5931
  147SOL     OW  439   1.073   2.492   0.590  0.5447 -0.3981 -0.4134
  147SOL    HW1  440   1.041   2.558   0.521  1.3861 -3.3205  0.3926
  147SOL    HW2  441   1.165   2.447   0.560  0.2038  1.9178 -0.1298
  148SOL     OW  442   1.635   1.466   3.066  0.0732  0.7784 -0.5809
  148SOL    HW1  443   1.670   1.409   2.985 -0.4612 -0.8764  2.5847
  148SOL    HW2  444   1.611   1.406   3.148  0.7742 -0.8521 -2.4836
  149SOL     OW  445   0.681   1.416   1.931 -0.7578 -0.1158 -0.3536
  149SOL    HW1  446   0.617   1.379   2.003 -0.3539  0.9216  1.5251
  149SOL    HW2  447   0.740   1.344   1.889 -0.5351 -0.7812  0.5021
  150SOL     OW  448   2.969   1.254   0.914  0.4149 -0.3068 -0.0042
  150SOL    HW1  449   3.056   1.274   0.966 -0.1195 -0.6993  2.0150
  150SOL    HW2  450   2.933   1.155   0.925  0.1214 -0.0313  0.4504
  151SOL     OW  451   0.190   0.767   2.143 -0.3313  0.2045 -0.7413
  151SOL    HW1  452   0.157   0.850   2.084  1.9169 -1.6398  0.0876
  151SOL    HW2  453   0.250   0.701   2.089 -3.1367  0.8605 -0.5637
  152SOL     OW  454   1.368   1.726   1.256 -0.6232 -0.1008 -0.2851
  152SOL    HW1  455   1.392   1.779   1.340 -0.7615 -0.7835  1.6808
  152SOL    HW2  456   1.271   1.738   1.220 -0.3758 -3.1544  0.9497
  153SOL     OW  457   0.037   1.541   0.168  0.1199  0.4347  0.2316
  153SOL    HW1  458   0.003   1.442   0.181 -1.8578 -1.3762  2.3702
  153SOL    HW2  459   0.061   1.590   0.259 -2.1003  0.2180 -0.0750
  154SOL     OW  460   2.370   1.850   2.825 -0.2425 -0.2995  0.0285
  154SOL    HW1  461   2.387   1.759   2.868 -1.2531 -2.2628 -2.9557
  154SOL    HW2  462   2.416   1.866   2.737  0.8781  2.4128  1.9851
  155SOL     OW  463   2.499   1.273   0.329 -0.4245  0.3371  0.4903
  155SOL    HW1  464   2.585   1.241   0.274 -1.2153  0.0531 -1.0291
  155SOL    HW2  465   2.413   1.215   0.306  1.6379  1.4658 -0.5040
  156SOL     OW  466   2.544   0.946   0.873 -0.2102 -0.1846 -0.2368
  156SOL    HW1  467   2.446   0.954   0.845  0.8229 -0.4134 -0.3498
  156SOL    HW2  468   2.597   1.039   0.878 -1.6744  3.0194 -0.1259
  157SOL     OW  469   1.193   2.981   2.977 -0.2050 -0.2343 -0.1864
  157SOL    HW1  470   1.249   2.918   2.922 -2.1085  0.5650 -0.7137
  157SOL    HW2  471   1.210   3.082   2.973 -2.1115 -1.2602  0.8923
  158SOL     OW  472   1.031   1.841   1.998 -0.0888 -0.2952 -0.6870
  158SOL    HW1  473   1.057   1.927   2.050 -1.6547  1.3834 -2.0203
  158SOL    HW2  474   0.937   1.799   2.024  0.3992  0.7798  2.5237
  159SOL     OW  475   0.859   0.425   1.289  0.1481  0.3597  0.3425
  159SOL    HW1  476   0.846   0.494   1.366 -1.2617  0.9110  1.3509
  159SOL    HW2  477   0.780   0.420   1.222  0.4482  0.2492  1.1604
  160SOL     OW  478   1.473   2.482   1.637 -0.1536 -0.2530 -0.2793
  160SOL    HW1  479   1.497   2.581   1.612  1.5559  0.1626  1.3382
  160SOL    HW2  480   1.550   2.420   1.599 -2.7552  0.3953  0.6388
  161SOL     OW  481   0.189   2.898   0.351  0.1519 -0.1316 -0.2152
  161SOL    HW1  482   0.110   2.853   0.385  2.4083  2.4988 -2.9583
  161SOL    HW2  483   0.150   2.976   0.293 -2.6247 -1.7740  0.9164
  162SOL     OW  484   2.602   1.907   0.519  0.1863  0.6644 -0.5440
  162SOL    HW1  485   2.568   1.856   0.434 -1.4184 -1.0068  1.9251
  162SOL    HW2  486   2.599   1.849   0.604 -1.9939 -2.6123 -1.2564
  163SOL     OW  487   1.958   2.659   0.710 -0.0992  0.2133 -0.3235
  163SOL    HW1  488   1.886   2.686   0.640  1.4505  1.0995  0.5717
  163SOL    HW2  489   2.048   2.633   0.666 -1.0537 -0.7716 -0.7227
  164SOL     OW  490   3.044   0.288   1.236  0.2483 -0.2285  0.7819
  164SOL    HW1  491   3.096   0.332   1.161 -0.9011 -0.5783  1.5786
  164SOL    HW2  492   3.079   0.315   1.328  0.2712 -1.5313 -0.9810
  165SOL     OW  493   0.983   1.449   0.682 -0.3058 -0.4995 -0.1631
  165SOL    HW1  494   0.927   1.432   0.770 -3.3291 -0.2680  1.3228
  165SOL    HW2  495   0.931   1.501   0.613 -0.8448  0.5621  0.0560
  166SOL     OW  496   1.463   1.067   1.760  0.5761 -0.0822 -0.0479
  166SOL    HW1  497   1.372   1.048   1.805  1.4272 -1.3143  2.3097
  166SOL    HW2  498   1.527   1.108   1.826 -1.7040 -1.9002 -2.1786
  167SOL     OW  499   0.834   1.924   1.530 -0.1771 -0.0651  0.2494
  167SOL    HW1  500   0.800   1.976   1.613 -1.3094 -1.7720 -0.1556
  167SOL    HW2  501   0.761   1.871   1.482 -0.6490 -0.9380 -0.4188
  168SOL     OW  502   1.604   2.390   0.166  0.5892 -0.0276 -0.1538
  168SOL    HW1  503   1.686   2.438   0.124  1.0005 -0.6513 -3.2206
  168SOL    HW2  504   1.624   2.325   0.248  1.5422 -0.5019  3.0772
  169SOL     OW  505   0.205   2.605   2.216  1.0024 -0.3320 -0.3237
  169SOL    HW1  506   0.259   2.552   2.151  2.5001  0.6445  1.6896
  169SOL    HW2  507   0.196   2.563   2.309 -1.8878 -0.4137 -0.5276
  170SOL     OW  508   1.249   0.281   1.915 -0.4125 -0.0483 -0.2226
  170SOL    HW1  509   1.298   0.248   2.000 -0.0798  0.3850 -0.5597
  170SOL    HW2  510   1.222   0.198   1.852  0.9816 -1.9885  1.0489
  171SOL     OW  511   0.223   0.755   2.422 -0.3026 -0.0009 -0.2583
  171SOL    HW1  512   0.138   0.784   2.479 -0.4931 -0.3561 -3.7381
  171SOL    HW2  513   0.212   0.776   2.324 -0.7031 -1.0515  3.4048
  172SOL     OW  514   0.864   1.144   2.940  0.3053 -0.0216  0.7450
  172SOL    HW1  515   0.951   1.184   2.975  0.1785 -1.2542  0.7743
  172SOL    HW2  516   0.866   1.134   2.838 -0.6823  1.9838  1.5713
  173SOL     OW  517   0.643   2.669   0.141 -0.0293  0.0636 -0.3025
  173SOL    HW1  518   0.612   2.770   0.131  0.3888  2.5860 -2.7447
  173SOL    HW2  519   0.562   2.607   0.135 -0.2400  0.1373  1.8614
  174SOL     OW  520   1.396   2.810   1.047 -0.1678  0.1588 -0.1402
  174SOL    HW1  521   1.406   2.889   0.975  1.5388  1.9382 -1.1687
  174SOL    HW2  522   1.328   2.736   1.021  0.2367 -2.3655 -1.2583
  175SOL     OW  523   0.440   0.013   1.669  1.1082  0.6341  0.1355
  175SOL    HW1  524   0.494   0.048   1.748 -1.4835  2.2368 -1.3298
  175SOL    HW2  525   0.379   0.083   1.623  0.7872 -1.6970 -1.6435
  176SOL     OW  526   2.503   0.427   3.059  0.2541  0.4832 -0.1663
  176SOL    HW1  527   2.528   0.479   3.144 -2.5679 -3.0760  1.2392
  176SOL    HW2  528   2.428   0.362   3.088 -0.5634 -0.2359  4.2567
  177SOL     OW  529   0.379   0.330   0.943 -0.3313 -0.5422 -0.2085
  177SOL    HW1  530   0.416   0.282   1.024 -0.1451 -1.6759  0.8327
  177SOL    HW2  531   0.302   0.396   0.955 -2.5297 -0.5333  2.0365
  178SOL     OW  532   0.052   2.706   2.580  0.0065  0.4093 -0.2754
  178SOL    HW1  533  -0.019   2.641   2.616  2.0584  0.8558 -0.0337
  178SOL    HW2  534   0.116   2.749   2.654  0.0414 -0.2531  1.1000
  179SOL     OW  535   0.023   1.717   1.165 -0.2215  0.3321 -0.1113
  179SOL    HW1  536  -0.047   1.793   1.152  3.0178  1.0954 -2.6654
  179SOL    HW2  537  -0.002   1.658   1.243 -0.4923  0.3167  2.7011
  180SOL     OW  538   0.216   1.231   1.821 -0.0217 -0.9244 -0.4732
  180SOL    HW1  539   0.314   1.246   1.809  1.9531  0.2850  3.0555
  180SOL    HW2  540   0.166   1.310   1.868  1.1693 -2.5431  0.8915
  181SOL     OW  541   3.044   1.837   2.569  0.5639  0.1244 -0.0269
  181SOL    HW1  542   3.107   1.903   2.518 -4.0083  0.5410  0.5790
  181SOL    HW2  543   2.944   1.857   2.530 -4.6017  1.5130 -2.7137
  182SOL     OW  544   2.329   1.259   1.160 -0.1980  0.5655 -0.6724
  182SOL    HW1  545   2.243   1.216   1.118 -2.0269  0.6427 -1.3115
  182SOL    HW2  546   2.329   1.368   1.155  2.4511  2.6088  0.7309
  183SOL     OW  547   1.504   2.282   2.524 -0.1389  0.3325 -0.2456
  183SOL    HW1  548   1.441   2.203   2.543  1.6763  2.7197 -2.5464
  183SOL    HW2  549   1.603   2.240   2.495  0.3883 -0.0772  1.0650
  184SOL     OW  550   2.074   0.933   0.810  0.2362  0.2431 -0.2523
  184SOL    HW1  551   1.982   0.980   0.821 -0.0938 -1.3052  1.0222
  184SOL    HW2  552   2.068   0.829   0.834 -0.4718  0.0951  1.1363
  185SOL     OW  553   1.639   2.669   2.103 -0.4926  0.4458 -0.3406
  185SOL    HW1  554   1.560   2.720   2.059  0.5634 -3.4373  0.1152
  185SOL    HW2  555   1.637   2.672   2.208  0.7020  1.1158  0.3966
  186SOL     OW  556   0.099   2.200   1.725 -0.8556  0.1830 -0.4150
  186SOL    HW1  557   0.131   2.297   1.725  1.4816  1.4722  0.9753
  186SOL    HW2  558   0.177   2.132   1.718 -1.8925  0.7711 -2.0643
  187SOL     OW  559   1.377   0.704   1.677 -0.0777  0.7197  0.4911
  187SOL    HW1  560   1.432   0.771   1.614 -1.5150 -0.4286 -1.1619
  187SOL    HW2  561   1.381   0.736   1.774 -0.7129  2.1702 -2.4316
  188SOL     OW  562   2.778   2.790   1.520  0.3234 -0.4979 -0.4348
  188SOL    HW1  563   2.743   2.887   1.510  0.1260  0.5033  0.4950
  188SOL    HW2  564   2.752   2.727   1.442  2.2487 -1.0909 -2.5735
  189SOL     OW  565   0.844   0.998   1.400  0.3747  0.0339 -0.2688
  189SOL    HW1  566   0.906   1.068   1.438  1.5782  0.0951 -1.6298
  189SOL    HW2  567   0.791   1.041   1.323  1.0791  4.8584 -1.9349
  190SOL     OW  568   1.509   1.772   1.574  0.1452  1.7282 -0.0581
  190SOL    HW1  569   1.409   1.785   1.548 -3.0311  1.9468  3.5249
  190SOL    HW2  570   1.532   1.816   1.666  1.7745 -0.6439  0.4724
  191SOL     OW  571   0.998   0.765   1.556  0.1124 -0.3786 -0.0266
  191SOL    HW1  572   1.052   0.677   1.568 -1.1069 -0.4345  1.7845
  191SOL    HW2  573   1.063   0.849   1.551 -1.6510  2.0098 -0.0549
  192SOL     OW  574   1.835   2.303   1.177 -0.2631  0.2696  0.0190
  192SOL    HW1  575   1.766   2.252   1.119  1.7505 -2.1400 -1.1766
  192SOL    HW2  576   1.897   2.372   1.124  2.5493  0.6935  0.2480
  193SOL     OW  577   0.509   0.559   0.398 -0.3735  0.4060  0.3835
  193SOL    HW1  578   0.486   0.468   0.438  1.5307  0.9998  1.2269
  193SOL    HW2  579   0.491   0.567   0.294  0.0578 -0.3939 -1.8400
  194SOL     OW  580   0.310   0.826   1.232 -0.2425 -0.0604  0.3600
  194SOL    HW1  581   0.208   0.816   1.224  1.0300 -0.0731 -0.2813
  194SOL    HW2  582   0.350   0.893   1.166  1.9339 -1.2289  0.6070
  195SOL     OW  583   0.956   2.921   0.437 -0.3828  0.2954 -0.2491
  195SOL    HW1  584   0.976   2.818   0.423  0.2498 -3.6696 -0.3760
  195SOL    HW2  585   1.045   2.974   0.421  1.9806  2.0976  1.0252
  196SOL     OW  586   0.284   1.453   1.424  0.2924 -0.0414  0.1824
  196SOL    HW1  587   0.336   1.525   1.481 -0.3401  0.8530 -1.6877
  196SOL    HW2  588   0.254   1.367   1.477 -0.8377  0.5220  0.7105
  197SOL     OW  589   0.907   2.026   0.233  0.9815  0.0999 -0.9729
  197SOL    HW1  590   0.883   1.992   0.328  2.7130  0.5558 -0.3897
  197SOL    HW2  591   0.968   1.960   0.174  1.5336 -0.5795 -2.5504
  198SOL     OW  592   0.258   1.262   0.259 -0.0210  0.1740  0.4143
  198SOL    HW1  593   0.161   1.255   0.211 -2.5312 -0.6337 -0.8352
  198SOL    HW2  594   0.295   1.361   0.260 -1.6970  0.5948 -1.5736
  199SOL     OW  595   2.263   0.369   2.509 -0.0153  0.0189 -0.4949
  199SOL    HW1  596   2.184   0.366   2.571 -3.4252  1.8773 -0.7982
  199SOL    HW2  597   2.355   0.344   2.554 -0.7216  1.6326  1.0953
  200SOL     OW  598   3.099   2.970   0.727 -0.1058  0.8848 -0.3484
  200SOL    HW1  599   3.017   2.974   0.666  0.5328  2.8025  1.1216
  200SOL    HW2  600   3.118   3.058   0.774 -2.0231  1.2450 -2.1350
  201SOL     OW  601   1.147   0.739   0.599 -0.1073  0.8479  1.0204
  201SOL    HW1  602   1.143   0.818   0.666 -1.9451  0.8086 -0.0836
  201SOL    HW2  603   1.057   0.714   0.559  4.4453 -0.9795 -1.0301
  202SOL     OW  604   0.492   1.258   1.729  0.5459 -0.1472  0.1483
  202SOL    HW1  605   0.494   1.256   1.627 -0.7534  0.6921  0.2603
  202SOL    HW2  606   0.562   1.201   1.777 -3.0422  1.5894 -0.3778
  203SOL     OW  607   0.678   0.199   1.593  0.0999 -0.6785  0.3403
  203SOL    HW1  608   0.675   0.132   1.510  2.2527  1.5263  0.7897
  203SOL    HW2  609   0.743   0.163   1.664 -2.6708  2.2072  1.1685
  204SOL     OW  610   2.087   1.838   3.028  0.2391  0.4608 -0.3086
  204SOL    HW1  611   2.111   1.738   3.005 -3.8002  1.2470  1.1961
  204SOL    HW2  612   2.016   1.882   2.964  1.7940 -4.1484  0.5939
  205SOL     OW  613   1.854   1.872   0.087 -0.4334 -0.3803  0.1746
  205SOL    HW1  614   1.940   1.854   0.029  2.2597  1.7372  0.9738
  205SOL    HW2  615   1.800   1.950   0.049  3.1432 -1.6976  2.2299
  206SOL     OW  616   2.545   2.826   0.415 -0.1574 -0.3720 -0.5230
  206SOL    HW1  617   2.585   2.734   0.417 -2.0980  1.3371 -0.2037
  206SOL    HW2  618   2.558   2.873   0.324 -0.5208 -0.2501  1.4530
  207SOL     OW  619   0.623   1.750   2.889 -0.4332  0.5045 -0.0905
  207SOL    HW1  620   0.715   1.721   2.858 -1.0049  1.4606  0.3889
  207SOL    HW2  621   0.579   1.681   2.947  2.3439  0.2815 -0.3801
  208SOL     OW  622   1.026   1.525   1.446  0.5064  0.5870 -0.0314
  208SOL    HW1  623   0.968   1.569   1.366 -1.1061 -0.2860  0.3296
  208SOL    HW2  624   1.094   1.590   1.493 -0.3443 -2.1428  0.0744
  209SOL     OW  625   0.280   0.949   3.025  0.9804  0.3101 -0.2123
  209SOL    HW1  626   0.282   0.911   2.925  0.3216  1.1281 -2.1885
  209SOL    HW2  627   0.228   0.886   3.088 -0.3414  0.1848 -0.6612
  210SOL     OW  628   1.724   0.503   1.149  0.1130 -0.5248  0.7061
  210SOL    HW1  629   1.687   0.597   1.113  0.4475  1.8199  3.2240
  210SOL    HW2  630   1.826   0.496   1.141 -0.1286  0.1175 -0.7644
  211SOL     OW  631   2.156   1.056   1.647 -0.7622  0.1274 -0.5737
  211SOL    HW1  632   2.220   0.998   1.707  1.1458 -1.2907 -0.1489
  211SOL    HW2  633   2.199   1.131   1.592 -1.2694 -1.7947  3.2594
  212SOL     OW  634   0.014   0.957   1.463 -0.2326  0.1403  0.2365
  212SOL    HW1  635   0.023   1.056   1.486 -1.4487 -1.6398 -0.0249
  212SOL    HW2  636   0.066   0.895   1.522 -1.6669 -1.5687 -1.2683
  213SOL     OW  637   2.716   0.345   0.267 -0.6660  0.0702  0.1108
  213SOL    HW1  638   2.778   0.282   0.215  1.8313 -1.0101 -0.6254
  213SOL    HW2  639   2.681   0.415   0.206 -0.4450 -0.9092  2.2957
  214SOL     OW  640   2.187   0.268   2.279 -0.7935 -0.2552  0.0958
  214SOL    HW1  641   2.205   0.317   2.370 -0.1404  0.8863 -2.5413
  214SOL    HW2  642   2.159   0.170   2.288 -0.1504  0.9135 -1.2964
  215SOL     OW  643   1.659   2.269   2.048 -0.2521 -0.1401 -0.8084
  215SOL    HW1  644   1.756   2.295   2.033 -1.4049 -2.0399 -2.0106
  215SOL    HW2  645   1.601   2.327   2.114 -0.8311 -1.1432 -2.1853
  216SOL     OW  646   2.205   0.525   0.671 -0.3824 -0.1627  0.2698
  216SOL    HW1  647   2.165   0.439   0.633  4.9175  1.2014 -1.4301
  216SOL    HW2  648   2.218   0.601   0.597 -0.5190  0.1108 -0.2551
  217SOL     OW  649   0.762   2.785   2.459 -0.5193  0.0489  0.5325
  217SOL    HW1  650   0.735   2.705   2.514  1.3818  1.4579  0.4675
  217SOL    HW2  651   0.724   2.784   2.369  2.0484 -1.0809  1.6104
  218SOL     OW  652   1.932   1.400   0.076 -0.4955 -0.8481  0.1092
  218SOL    HW1  653   1.832   1.434   0.070  0.4090  3.6334 -1.2169
  218SOL    HW2  654   1.948   1.330   0.152  2.5880 -0.0284  1.4266
  219SOL     OW  655   2.378   1.285   2.527 -0.1913 -1.0898  0.1495
  219SOL    HW1  656   2.330   1.262   2.435  0.0578 -1.2542 -2.8943
  219SOL    HW2  657   2.401   1.207   2.587 -0.9340  1.7696 -1.1049
  220SOL     OW  658   1.489   1.037   1.264  0.0796 -0.4227  0.2210
  220SOL    HW1  659   1.592   1.055   1.282  1.6221  0.5536 -0.6189
  220SOL    HW2  660   1.464   1.062   1.166  3.6759  0.7314 -1.3344
  221SOL     OW  661   1.341   1.174   2.197  0.5938 -0.7366  0.3644
  221SOL    HW1  662   1.284   1.234   2.132  0.3520 -2.4921 -1.6618
  221SOL    HW2  663   1.426   1.136   2.150  1.1319 -1.3067 -0.2609
  222SOL     OW  664   1.227   0.069   1.162  0.1825 -0.5018  0.7519
  222SOL    HW1  665   1.321   0.080   1.209  2.0839  1.0637  2.9894
  222SOL    HW2  666   1.158   0.146   1.173 -1.2040 -0.2384 -0.2376
  223SOL     OW  667   2.959   0.813   1.996 -0.0320  0.0202  0.0207
  223SOL    HW1  668   2.977   0.831   2.097 -0.0900  1.1727  1.0657
  223SOL    HW2  669   2.957   0.905   1.946 -0.4178  0.2797 -0.1851
  224SOL     OW  670   1.509   0.963   2.812 -0.8541  0.3388 -0.2451
  224SOL    HW1  671   1.564   0.896   2.754  1.1957  0.0182 -0.4931
  224SOL    HW2  672   1.498   1.055   2.754  0.5511 -1.3550 -0.2551
  225SOL     OW  673   3.020   2.775   2.903 -1.0541 -0.1117 -0.2289
  225SOL    HW1  674   3.001   2.686   2.847 -1.2696  1.2425  1.8457
  225SOL    HW2  675   3.059   2.855   2.848  0.9852 -1.4745 -0.7913
  226SOL     OW  676   2.461   1.605   2.890 -0.3186 -0.6304  0.2600
  226SOL    HW1  677   2.479   1.586   2.793 -1.4346  1.0968  2.0719
  226SOL    HW2  678   2.413   1.527   2.936  1.4224 -0.7699  1.7438
  227SOL     OW  679   0.881   0.120   2.989  0.2339 -0.4019  0.3564
  227SOL    HW1  680   0.891   0.047   3.062  1.5467  2.4219  0.2327
  227SOL    HW2  681   0.851   0.085   2.892  2.6448  0.6518 -1.4116
  228SOL     OW  682   2.363   0.593   2.851  0.2480  0.4002 -0.1897
  228SOL    HW1  683   2.319   0.588   2.759  1.4648  0.7636  2.1507
  228SOL    HW2  684   2.462   0.554   2.852  0.4152 -1.0268 -1.0798
  229SOL     OW  685   0.563   0.516   1.851 -0.5922  0.1617  0.1221
  229SOL    HW1  686   0.580   0.534   1.755 -1.0858  0.4608  1.8584
  229SOL    HW2  687   0.620   0.588   1.894  3.8629 -1.2994 -2.2186
  230SOL     OW  688   1.883   1.244   2.171  0.0586  0.0177  0.0405
  230SOL    HW1  689   1.948   1.229   2.090 -1.8772  1.2260  2.2619
  230SOL    HW2  690   1.792   1.295   2.154 -0.7033  1.2932 -0.0811
  231SOL     OW  691   0.652   1.010   3.002  0.1328  0.2114  0.4375
  231SOL    HW1  692   0.718   1.080   2.962  0.4322 -1.1569 -2.3075
  231SOL    HW2  693   0.641   1.017   3.104 -1.3499 -0.3285 -2.0865
  232SOL     OW  694   2.485   0.028   2.734 -0.2505 -0.3347  0.8112
  232SOL    HW1  695   2.505  -0.063   2.775 -2.3564 -1.5338 -0.4961
  232SOL    HW2  696   2.512   0.027   2.633 -3.4883 -0.6131  0.9476
  233SOL     OW  697   1.693   1.246   1.068  0.2171 -0.2527 -0.2310
  233SOL    HW1  698   1.710   1.301   0.981 -1.5218 -1.9351  1.3308
  233SOL    HW2  699   1.757   1.164   1.065  1.6234 -0.1996 -0.3736
  234SOL     OW  700   1.679   2.587   1.822  0.6951 -0.1625 -0.1590
  234SOL    HW1  701   1.675   2.607   1.922  0.0862 -1.7089  0.3012
  234SOL    HW2  702   1.596   2.537   1.780 -1.6952  2.9418 -0.8668
  235SOL     OW  703   0.124   3.011   2.904 -0.6600 -0.5238 -0.0352
  235SOL    HW1  704   0.184   3.078   2.855 -0.0583  2.5537 -0.1339
  235SOL    HW2  705   0.049   3.061   2.958 -0.0438  1.6028  1.0015
  236SOL     OW  706   2.843   0.669   0.125  0.1674  0.0534  0.0890
  236SOL    HW1  707   2.916   0.730   0.168  0.9864 -1.2366 -1.0495
  236SOL    HW2  708   2.886   0.613   0.042 -0.1448 -1.4796 -0.1459
  237SOL     OW  709   1.485   1.626   1.011 -0.7827  0.0737 -0.4480
  237SOL    HW1  710   1.583   1.595   1.031  1.7336  0.4544 -1.7035
  237SOL    HW2  711   1.446   1.669   1.094  4.9328  2.3407 -0.8964
  238SOL     OW  712   1.799   1.326   0.824 -0.4803 -0.2780  0.0151
  238SOL    HW1  713   1.887   1.330   0.771 -0.1981 -2.9007  0.4209
  238SOL    HW2  714   1.728   1.378   0.778  0.3286 -1.1869  1.2404
  239SOL     OW  715   2.078   0.247   2.738  0.4625  0.0338 -0.1775
  239SOL    HW1  716   2.167   0.228   2.785 -1.1063 -0.7626  0.2464
  239SOL    HW2  717   2.020   0.320   2.781  1.4549 -2.5094 -0.3882
  240SOL     OW  718   0.875   0.692   0.223  0.1178 -0.3839 -0.0391
  240SOL    HW1  719   0.873   0.609   0.160 -1.2368  2.3104 -0.4041
  240SOL    HW2  720   0.877   0.674   0.328  0.4725  0.6826  4.4822
  241SOL     OW  721   0.563   0.042   0.326  0.3659  0.2879 -0.0091
  241SOL    HW1  722   0.586   0.022   0.226  2.2549 -1.0604 -3.2043
  241SOL    HW2  723   0.537  -0.051   0.370  0.9037  2.4479  0.0879
  242SOL     OW  724   0.690   2.449   1.148 -0.0196 -0.0992 -0.1435
  242SOL    HW1  725   0.667   2.519   1.226 -1.6291 -0.8047  3.0209
  242SOL    HW2  726   0.781   2.472   1.106 -0.1932  3.3663  3.5037
  243SOL     OW  727   1.095   0.643   2.415  0.0162  0.1226  0.6009
  243SOL    HW1  728   1.015   0.703   2.376  1.7497 -0.9484  0.8059
  243SOL    HW2  729   1.059   0.559   2.466  1.0657  3.0160 -0.5340
  244SOL     OW  730   2.790   1.891   2.437  0.2629 -0.2990  0.0423
  244SOL    HW1  731   2.857   1.896   2.364 -1.7030  0.9210  1.8574
  244SOL    HW2  732   2.699   1.847   2.413 -0.6812  0.3948  0.9189
  245SOL     OW  733   2.455   0.733   2.133  0.0602 -0.0182  0.6546
  245SOL    HW1  734   2.473   0.778   2.228 -0.1567  2.6746 -0.2539
  245SOL    HW2  735   2.541   0.739   2.077  1.4591 -1.0747 -0.5650
  246SOL     OW  736   0.264   2.891   1.685  0.6272 -0.0371 -0.3005
  246SOL    HW1  737   0.197   2.879   1.605  0.2005  0.2763 -2.3153
  246SOL    HW2  738   0.334   2.967   1.672 -0.6609 -0.0014  0.0221
  247SOL     OW  739   2.172   0.556   3.037 -0.0970  0.1869 -0.0015
  247SOL    HW1  740   2.259   0.565   2.973  0.9052 -0.1279 -0.2074
  247SOL    HW2  741   2.124   0.646   3.035  1.2885 -0.0418  3.5131
  248SOL     OW  742   2.200   1.848   1.618  0.1485  0.3206  0.0219
  248SOL    HW1  743   2.257   1.764   1.650  0.6134  0.6364  0.6455
  248SOL    HW2  744   2.124   1.877   1.685 -0.2353 -0.0842  0.1896
  249SOL     OW  745   1.931   1.991   1.977 -0.6284  0.4208  0.0507
  249SOL    HW1  746   1.943   1.922   1.897 -0.4568 -0.8443 -0.6323
  249SOL    HW2  747   2.021   2.040   1.998  0.9846  1.2936 -0.5247
  250SOL     OW  748   1.018   0.663   1.849  0.0852  0.3826  0.2294
  250SOL    HW1  749   1.066   0.607   1.921  2.1513  1.7246  0.2153
  250SOL    HW2  750   1.034   0.635   1.752 -2.3045  0.8125 -1.0138
  251SOL     OW  751   3.059   1.554   2.565 -0.0565  0.1533 -0.3978
  251SOL    HW1  752   3.065   1.657   2.545  1.3967  0.4705 -1.0800
  251SOL    HW2  753   2.959   1.533   2.586 -0.2389  0.1024  1.5453
  252SOL     OW  754   1.505   0.904   1.518  0.2892 -0.0260 -0.0650
  252SOL    HW1  755   1.497   0.973   1.437 -2.0705 -1.6372 -2.6297
  252SOL    HW2  756   1.516   0.949   1.609  0.4399 -2.5480 -1.3656
  253SOL     OW  757   0.961   1.603   0.366  0.0385 -0.3101 -0.4206
  253SOL    HW1  758   0.998   1.507   0.354 -1.9723  4.6603  0.7783
  253SOL    HW2  759   0.854   1.610   0.369 -0.5698  2.1496  3.0068
  254SOL     OW  760   2.011   2.182   1.592  0.4383  0.1068  0.5891
  254SOL    HW1  761   1.975   2.139   1.502  1.0227 -0.0232 -1.1757
  254SOL    HW2  762   1.930   2.195   1.658 -0.4361  1.4982 -2.4020
  255SOL     OW  763   0.115   1.159   2.923  0.4011  0.0435  0.0787
  255SOL    HW1  764   0.157   1.249   2.886  1.1867 -1.6655 -0.9924
  255SOL    HW2  765   0.179   1.091   2.961  1.6027 -2.1750 -2.3469
  256SOL     OW  766   2.799   1.385   1.837  0.3483  0.1081  0.1118
  256SOL    HW1  767   2.731   1.459   1.821  0.7025  0.3118  0.0184
  256SOL    HW2  768   2.752   1.293   1.848 -0.5114 -0.6715 -1.1382
  257SOL     OW  769   0.908   0.199   1.924  0.0691 -0.2678 -0.5969
  257SOL    HW1  770   0.918   0.246   1.832  1.5069 -0.8436  0.8273
  257SOL    HW2  771   0.899   0.096   1.914  1.0568  1.6558  0.5633
  258SOL     OW  772   2.954   1.276   0.432 -0.0902  0.7318  0.5046
  258SOL    HW1  773   2.904   1.355   0.396  1.8850  1.0273 -1.2696
  258SOL    HW2  774   2.988   1.283   0.532  0.3742 -0.0077 -0.7925
  259SOL     OW  775   0.431   2.935   2.975  0.3325 -0.4063 -0.3257
  259SOL    HW1  776   0.393   2.856   3.031 -1.3425  0.6663  1.4475
  259SOL    HW2  777   0.477   2.908   2.883  0.9046  0.0163 -0.6322
  260SOL     OW  778   2.659   0.807   2.774  0.3663  0.3268 -0.1277
  260SOL    HW1  779   2.584   0.832   2.706  1.2565  0.6618 -0.3670
  260SOL    HW2  780   2.640   0.847   2.868  0.8889  4.4907 -1.7735
  261SOL     OW  781   2.732   1.367   1.319 -0.5379  0.6315 -0.4566
  261SOL    HW1  782   2.689   1.307   1.250 -1.1571 -0.0270  0.2347
  261SOL    HW2  783   2.837   1.357   1.325  0.3593 -2.9256  0.5188
  262SOL     OW  784   1.479   2.901   2.021  0.1692 -0.1669 -0.2895
  262SOL    HW1  785   1.475   3.002   1.997  3.1890  1.3814 -0.8907
  262SOL    HW2  786   1.388   2.852   2.016  1.5682  0.2759  1.1906
  263SOL     OW  787   0.878   0.778   2.320 -0.6735  0.3708 -0.0015
  263SOL    HW1  788   0.824   0.694   2.286 -0.4164  1.3508 -0.1499
  263SOL    HW2  789   0.905   0.839   2.239 -1.0548 -1.1811 -0.2453
  264SOL     OW  790   2.262   0.741   0.477  0.1828 -0.3254 -0.0176
  264SOL    HW1  791   2.176   0.750   0.426  0.5585  0.3873 -2.1722
  264SOL    HW2  792   2.303   0.831   0.495  0.6493  1.4568 -3.2492
  265SOL     OW  793   0.890   2.290   2.685  0.2242 -0.3578 -0.5728
  265SOL    HW1  794   0.921   2.356   2.763  0.1021 -0.1705  2.2363
  265SOL    HW2  795   0.846   2.208   2.721  1.4430  0.2139 -1.3872
  266SOL     OW  796   1.348   1.702   0.059 -0.3855 -0.1144  0.1114
  266SOL    HW1  797   1.326   1.787   0.119  2.4703 -0.0373  2.0870
  266SOL    HW2  798   1.452   1.688   0.050  1.1313  3.0888 -0.1008
  267SOL     OW  799   1.074   3.097   2.389 -0.2994 -0.5144 -0.1437
  267SOL    HW1  800   1.075   3.015   2.326 -0.0147  0.1659  1.5425
  267SOL    HW2  801   1.027   3.177   2.340 -2.1155 -0.5402  0.9924
  268SOL     OW  802   0.664   1.163   0.998  0.3463 -0.2106 -0.0557
  268SOL    HW1  803   0.698   1.216   1.081 -0.6616 -1.5978 -0.4224
  268SOL    HW2  804   0.634   1.225   0.925  0.3190  0.2642  0.1056
  269SOL     OW  805   2.416   2.476   1.598 -0.2351 -0.2634 -0.2201
  269SOL    HW1  806   2.513   2.438   1.611  0.8539 -3.0127  1.5407
  269SOL    HW2  807   2.370   2.499   1.689 -1.3345  0.0982  0.9058
  270SOL     OW  808   0.203   2.970   1.949 -0.4832  0.7240  0.0321
  270SOL    HW1  809   0.242   2.939   1.857 -0.0348 -2.8831  0.7354
  270SOL    HW2  810   0.126   2.909   1.979 -2.0372  1.6092 -0.9719
  271SOL     OW  811   0.465   1.396   1.196  0.6384  0.1648 -0.1297
  271SOL    HW1  812   0.424   1.433   1.109 -2.0161 -2.3294 -1.2855
  271SOL    HW2  813   0.442   1.443   1.288  0.2274 -0.2578  0.8427
  272SOL     OW  814   1.905   2.918   1.899 -0.3326  0.0037  0.4148
  272SOL    HW1  815   1.868   2.861   1.820  0.1837 -0.4032 -0.8707
  272SOL    HW2  816   1.966   2.990   1.865 -0.1195  1.0886 -0.6899
  273SOL     OW  817   1.421   1.424   2.825 -0.8676 -0.0062 -0.5030
  273SOL    HW1  818   1.426   1.499   2.753 -0.4446 -0.5104  0.6449
  273SOL    HW2  819   1.367   1.442   2.911  2.3915 -0.6566 -0.0051
  274SOL     OW  820   1.141   0.507   2.035 -0.1726  0.3914  0.5265
  274SOL    HW1  821   1.170   0.419   1.987 -2.7430 -1.3002 -0.6412
  274SOL    HW2  822   1.196   0.526   2.126  0.7652  1.1052 -0.6397
  275SOL     OW  823   0.622   2.074   1.990 -0.3516  0.1770 -0.6265
  275SOL    HW1  824   0.585   2.168   1.968  1.7312  2.1877 -2.0828
  275SOL    HW2  825   0.552   1.999   1.971  0.3944  1.5096  0.2232
  276SOL     OW  826   2.158   0.959   2.801  0.3753 -0.5425 -0.3334
  276SOL    HW1  827   2.100   0.941   2.718 -1.4556 -2.7705 -2.7547
  276SOL    HW2  828   2.122   0.911   2.882  0.2133  0.5804 -2.3309
  277SOL     OW  829   3.053   0.845   0.205  0.1067  0.5209  0.1175
  277SOL    HW1  830   3.144   0.864   0.164 -0.3433 -0.9688 -0.6262
  277SOL    HW2  831   3.057   0.786   0.288 -0.3359  3.5391 -1.0284
  278SOL     OW  832   0.181   0.270   2.969 -0.0173  0.4869 -0.6702
  278SOL    HW1  833   0.259   0.210   3.018  1.3864  1.7281  0.6131
  278SOL    HW2  834   0.199   0.371   2.991  1.7196  0.8307  2.0526
  279SOL     OW  835   0.159   0.047   0.875  0.3454  0.0841  0.2312
  279SOL    HW1  836   0.199   0.059   0.969 -0.6708  1.5200  0.4286
  279SOL    HW2  837   0.233   0.029   0.803 -2.0730  0.8938 -1.2245
  280SOL     OW  838   1.616   2.945   2.544 -0.9369 -0.0462  0.3837
  280SOL    HW1  839   1.686   3.017   2.563 -5.3785  0.1225 -0.6513
  280SOL    HW2  840   1.523   2.989   2.532  1.4649  0.6173 -0.6853
  281SOL     OW  841   0.576   0.955   2.328 -0.2556 -0.1908 -0.4895
  281SOL    HW1  842   0.559   0.861   2.290  0.5434  0.6550  3.3779
  281SOL    HW2  843   0.527   0.964   2.419  0.4451  0.9600  0.7891
  282SOL     OW  844   1.716   2.435   0.503  0.5272 -0.1875  0.0439
  282SOL    HW1  845   1.681   2.359   0.445 -0.8930  0.0586  3.7449
  282SOL    HW2  846   1.668   2.531   0.498  0.6164 -1.8841 -0.2419
  283SOL     OW  847   1.193   0.970   0.742  0.0083  0.0232  0.5236
  283SOL    HW1  848   1.195   0.903   0.826 -0.4776 -0.6945  3.4786
  283SOL    HW2  849   1.136   1.054   0.760 -0.5548 -0.2772 -1.7746
  284SOL     OW  850   2.364   2.801   2.378  0.2237 -0.1295 -0.4826
  284SOL    HW1  851   2.335   2.879   2.314  0.1732 -0.0115 -2.8528
  284SOL    HW2  852   2.399   2.827   2.467  2.5897  0.8973 -2.7020
  285SOL     OW  853   1.343   2.976   2.546  0.1596 -0.2146  0.2343
  285SOL    HW1  854   1.353   2.992   2.439  0.2604  1.3517  0.9704
  285SOL    HW2  855   1.267   3.037   2.583  2.3679  1.2901  2.0290
  286SOL     OW  856   0.469   0.432   0.689  0.0190  0.0085  0.3404
  286SOL    HW1  857   0.457   0.379   0.780 -2.0884 -2.0443  0.3884
  286SOL    HW2  858   0.443   0.370   0.609 -1.8171  1.0159 -2.0380
  287SOL     OW  859   0.111   1.331   2.520  0.2178 -0.2360  0.8171
  287SOL    HW1  860   0.076   1.246   2.573  0.3863 -3.0418 -1.7044
  287SOL    HW2  861   0.068   1.417   2.553 -0.5730 -3.1940  4.2030
  288SOL     OW  862   1.610   2.699   1.481  0.2728  0.4019  0.1495
  288SOL    HW1  863   1.656   2.625   1.434 -3.1623 -0.3780  3.1829
  288SOL    HW2  864   1.591   2.777   1.409 -0.5089  2.2245  1.3490
  289SOL     OW  865   0.652   2.738   0.771  0.1349 -0.1668 -0.1104
  289SOL    HW1  866   0.697   2.812   0.713  2.1394 -0.5883 -2.1601
  289SOL    HW2  867   0.651   2.763   0.874 -2.7615  0.2251 -1.4780
  290SOL     OW  868   2.880   1.187   1.579 -0.4272 -0.5022 -0.0187
  290SOL    HW1  869   2.778   1.170   1.564 -0.8910 -1.7228 -0.8766
  290SOL    HW2  870   2.915   1.132   1.661  0.4613 -3.0208  1.0732
  291SOL     OW  871   1.996   0.057   0.111 -0.3089 -0.0793  0.4919
  291SOL    HW1  872   2.010   0.053   0.215  0.2758 -2.4878  0.1400
  291SOL    HW2  873   2.042   0.136   0.067 -0.5530 -1.1322 -1.4277
  292SOL     OW  874   2.968   1.144   3.033 -0.1058 -0.0252 -0.1224
  292SOL    HW1  875   2.905   1.213   2.991 -0.8927 -1.5698  0.9944
  292SOL    HW2  876   3.067   1.151   3.009  0.7993 -1.0441  0.8663
  293SOL     OW  877   0.629   2.101   0.118 -0.5192  0.7836 -0.2889
  293SOL    HW1  878   0.579   2.159   0.191 -3.0572 -2.1307 -0.8328
  293SOL    HW2  879   0.734   2.100   0.134  1.9415  2.4980 -0.3019
  294SOL     OW  880   1.676   2.151   1.749  0.2865  0.3196  0.2096
  294SOL    HW1  881   1.707   2.183   1.842 -3.3464 -2.5766  1.8160
  294SOL    HW2  882   1.669   2.224   1.679 -0.2730 -1.4178 -0.4074
  295SOL     OW  883   1.001   1.006   0.407  0.2824 -0.4144  0.4402
  295SOL    HW1  884   1.084   0.954   0.393  0.1116 -0.0770  0.3721
  295SOL    HW2  885   0.985   1.041   0.505 -0.0009 -0.9832  2.9960
  296SOL     OW  886   1.318   2.033   2.505  0.4478  0.1413 -0.0914
  296SOL    HW1  887   1.346   2.061   2.411  3.0152 -2.8338 -2.9587
  296SOL    HW2  888   1.316   1.934   2.512 -1.1251  2.2111  1.4998
  297SOL     OW  889   1.471   0.627   1.349  0.2315 -0.6328  0.2541
  297SOL    HW1  890   1.473   0.525   1.329 -4.9581 -1.5314  0.1139
  297SOL    HW2  891   1.566   0.666   1.366  1.5478 -1.5918  0.5147
  298SOL     OW  892   0.439   1.214   2.869 -0.6069 -0.0320  0.7125
  298SOL    HW1  893   0.467   1.139   2.931 -1.9858 -0.5329 -1.4041
  298SOL    HW2  894   0.518   1.244   2.810 -1.1429  1.7705 -0.3855
  299SOL     OW  895   0.460   0.324   1.470  0.3290 -0.8772  0.3092
  299SOL    HW1  896   0.484   0.367   1.378  0.1672 -0.0635  1.0301
  299SOL    HW2  897   0.550   0.325   1.526  1.4225  1.3960 -0.4928
  300SOL     OW  898   1.180   1.815   2.884 -0.4011 -0.2702  0.3773
  300SOL    HW1  899   1.182   1.719   2.839 -0.0737 -4.0415 -0.3063
  300SOL    HW2  900   1.199   1.817   2.985  0.2905 -0.5972 -0.4316
  301SOL     OW  901   0.434   0.286   0.439  0.1606  0.0122  0.2602
  301SOL    HW1  902   0.358   0.319   0.377 -1.7555  1.0221  0.5227
  301SOL    HW2  903   0.481   0.199   0.404  0.5312 -3.5776 -0.5481
  302SOL     OW  904   1.239   2.326   2.330 -0.1115 -0.0197  0.0930
  302SOL    HW1  905   1.172   2.339   2.409  3.1412 -1.8531 -1.2516
  302SOL    HW2  906   1.226   2.241   2.275 -0.1668 -2.0587 -0.8950
  303SOL     OW  907   0.942   2.347   0.795  0.1161 -0.6012 -0.2061
  303SOL    HW1  908   0.989   2.385   0.708  2.0229  1.0469  0.9891
  303SOL    HW2  909   0.934   2.417   0.870 -1.5103 -1.6520 -1.4551
  304SOL     OW  910   0.138   2.053   0.667 -0.2681 -0.1125 -0.2916
  304SOL    HW1  911   0.182   1.986   0.597  0.5037 -1.8364 -3.9348
  304SOL    HW2  912   0.074   2.116   0.616  0.2826 -0.3077 -0.9451
  305SOL     OW  913   1.611   0.894   0.633 -0.4634  0.5321  0.2950
  305SOL    HW1  914   1.555   0.915   0.550  1.2604 -2.4221  1.0371
  305SOL    HW2  915   1.697   0.833   0.618  0.2675  2.4345 -2.7496
  306SOL     OW  916   0.454   1.875   1.888  0.5919 -0.2370  0.4558
  306SOL    HW1  917   0.542   1.831   1.850  2.1411  1.5635 -1.1970
  306SOL    HW2  918   0.419   1.833   1.981  1.3201  2.6420  2.2383
  307SOL     OW  919   0.025   0.839   2.600 -0.1067 -0.0147  0.0716
  307SOL    HW1  920   0.043   0.935   2.637  0.6145  0.7819  0.6566
  307SOL    HW2  921  -0.067   0.808   2.641  0.4571  2.5726  4.4036
  308SOL     OW  922   1.554   2.635   2.885 -0.7500  0.3911  0.1747
  308SOL    HW1  923   1.577   2.580   2.793  1.8039 -3.1731  0.7688
  308SOL    HW2  924   1.469   2.603   2.926 -2.2333  2.5806 -1.4383
  309SOL     OW  925   1.213   0.082   1.737 -0.1686  0.9064 -0.3243
  309SOL    HW1  926   1.310   0.062   1.755 -0.1059  2.4972  2.1476
  309SOL    HW2  927   1.191   0.110   1.643  2.7816 -2.2117  0.8748
  310SOL     OW  928   1.396   2.604   0.729  0.3893 -0.6442  0.7685
  310SOL    HW1  929   1.414   2.698   0.765 -0.5733 -0.3041  0.9361
  310SOL    HW2  930   1.452   2.588   0.648 -0.3393 -3.8005  0.3106
  311SOL     OW  931   1.193   0.959   1.542 -0.8779  1.0799  0.4202
  311SOL    HW1  932   1.254   0.891   1.487  1.4242 -2.0005 -0.7380
  311SOL    HW2  933   1.243   1.048   1.555 -2.3117  1.4943  1.7495
  312SOL     OW  934   1.618   0.686   0.986  0.0940  0.4503  0.5650
  312SOL    HW1  935   1.604   0.786   0.973 -1.6872 -0.1849  1.1586
  312SOL    HW2  936   1.566   0.634   0.918  2.2694  0.0351  0.5101
  313SOL     OW  937   1.538   1.407   0.635 -0.0549 -0.0375  0.6585
  313SOL    HW1  938   1.435   1.423   0.630 -2.2110  1.9402  0.4729
  313SOL    HW2  939   1.560   1.304   0.637 -1.0056 -0.7465 -0.0256
  314SOL     OW  940   2.976   0.017   3.032  0.0793 -0.3340  0.9619
  314SOL    HW1  941   2.950   0.103   3.085  1.1643  0.5212  1.7060
  314SOL    HW2  942   2.913  -0.061   3.046  1.8153 -0.4460 -0.0587
  315SOL     OW  943   1.227   0.245   2.784 -0.0825 -0.2549 -0.1857
  315SOL    HW1  944   1.231   0.161   2.722 -0.8800 -0.9404  1.8099
  315SOL    HW2  945   1.214   0.225   2.882 -4.1900  0.1668 -1.5142
  316SOL     OW  946   1.700   2.089   0.922  0.1096  0.1736  0.5803
  316SOL    HW1  947   1.653   2.111   1.013  0.8632  2.3810 -2.1944
  316SOL    HW2  948   1.701   2.167   0.858 -1.3020 -0.9609 -1.7420
  317SOL     OW  949   1.135   0.699   2.837  0.3507  0.4928 -0.3121
  317SOL    HW1  950   1.082   0.723   2.919  0.2178 -0.1904 -0.6335
  317SOL    HW2  951   1.107   0.604   2.804 -0.5165 -0.5511  2.6905
  318SOL     OW  952   1.469   3.047   2.277 -0.0915 -0.6516 -0.9052
  318SOL    HW1  953   1.427   3.130   2.232 -0.3351  2.8707  2.8424
  318SOL    HW2  954   1.503   2.971   2.215 -0.4055 -2.0045  3.0800
  319SOL     OW  955   0.650   2.407   2.920 -0.1935 -0.3228 -0.0885
  319SOL    HW1  956   0.577   2.389   2.991  0.8968  0.9801 -0.3614
  319SOL    HW2  957   0.702   2.323   2.889  2.7400  1.0829 -0.2916
  320SOL     OW  958   1.638   2.177   0.344 -0.1746 -0.0578 -0.2675
  320SOL    HW1  959   1.742   2.160   0.367 -2.1988 -2.5433  0.9567
  320SOL    HW2  960   1.573   2.137   0.420 -1.9121 -2.2590  1.0855
  321SOL     OW  961   1.579   2.678   0.515  0.3994 -0.5227 -0.5649
  321SOL    HW1  962   1.499   2.736   0.491  2.8808 -0.0077 -2.5942
  321SOL    HW2  963   1.661   2.742   0.539  1.7754  0.7571 -0.3691
  322SOL     OW  964   2.555   1.113   2.259 -0.4072 -0.0972 -0.2325
  322SOL    HW1  965   2.637   1.149   2.307 -1.4010  1.8398 -0.8004
  322SOL    HW2  966   2.538   1.016   2.290 -1.5721 -2.0325  1.3574
  323SOL     OW  967   0.981   2.675   0.798  0.4583  0.0755 -0.3475
  323SOL    HW1  968   0.998   2.613   0.722  0.0226  1.1084 -0.1223
  323SOL    HW2  969   1.016   2.772   0.780 -1.8449  0.7423 -0.6698
  324SOL     OW  970   0.175   2.472   2.462  1.0619 -0.3006 -0.1975
  324SOL    HW1  971   0.130   2.395   2.515  1.4084 -0.6984  0.4395
  324SOL    HW2  972   0.138   2.564   2.488  1.6130 -0.4079  1.3900
  325SOL     OW  973   1.187   3.061   0.462  0.3529 -0.5804 -0.2701
  325SOL    HW1  974   1.241   3.095   0.376  0.3033 -2.1516  0.3407
  325SOL    HW2  975   1.214   3.120   0.547  1.8532  1.2941 -1.7542
  326SOL     OW  976   2.451   0.754   3.068  0.6440  0.3507 -0.4686
  326SOL    HW1  977   2.404   0.714   2.985  0.8379  1.7254 -1.2974
  326SOL    HW2  978   2.488   0.679   3.133 -0.4886  0.6803  1.4628
  327SOL     OW  979   2.835   0.399   0.525  0.2874  0.0739 -0.3490
  327SOL    HW1  980   2.800   0.382   0.427  1.9219 -0.9569 -1.4600
  327SOL    HW2  981   2.791   0.339   0.595  2.5565 -1.6299  1.1656
  328SOL     OW  982   2.469   0.547   0.397 -0.0521  0.1337 -0.3296
  328SOL    HW1  983   2.402   0.624   0.425 -0.3649  1.4180 -0.5887
  328SOL    HW2  984   2.511   0.502   0.486 -1.8756 -1.5904  2.4879
  329SOL     OW  985   2.967   2.999   2.163 -0.9739  0.0514  0.3545
  329SOL    HW1  986   3.018   2.925   2.219  1.8426  0.4524 -0.4152
  329SOL    HW2  987   3.018   3.089   2.163 -1.0172 -0.3365  0.3244
  330SOL     OW  988   0.526   0.169   1.886  0.0941  0.1757 -0.0208
  330SOL    HW1  989   0.575   0.259   1.862  0.6795  0.1263 -1.0607
  330SOL    HW2  990   0.554   0.118   1.974 -0.9530 -0.5847 -0.7630
  331SOL     OW  991   2.957   1.928   1.128  0.0912  0.0793 -0.4198
  331SOL    HW1  992   2.981   2.018   1.078 -0.9599  1.7018  1.3047
  331SOL    HW2  993   2.874   1.942   1.187  0.2556  0.6173 -0.3647
  332SOL     OW  994   0.419   1.133   0.085 -0.0351 -0.3426 -0.2630
  332SOL    HW1  995   0.361   1.085   0.013 -0.6264  0.6199  2.3234
  332SOL    HW2  996   0.362   1.178   0.161  0.5563  1.8419  0.2231
  333SOL     OW  997   2.870   1.033   0.309  0.0860  0.2834  0.0058
  333SOL    HW1  998   2.930   1.086   0.375 -0.8690  1.6809  0.1134
  333SOL    HW2  999   2.927   0.985   0.234  0.8822  0.6937  0.2023
  334SOL     OW 1000   1.663   1.184   1.911  0.3161  0.7400 -0.0899
  334SOL    HW1 1001   1.763   1.174   1.876  2.6034 -1.6759 -1.8481
  334SOL    HW2 1002   1.648   1.275   1.960  1.0378 -1.7646  0.9428
  335SOL     OW 1003   2.016   2.757   2.633 -0.4130 -0.1989 -0.3841
  335SOL    HW1 1004   1.945   2.813   2.678 -0.2620  0.4173 -3.0122
  335SOL    HW2 1005   2.105   2.802   2.649 -0.0221 -3.2002  0.1697
  336SOL     OW 1006   0.254   0.116   2.749  0.1177  0.2016  0.0377
  336SOL    HW1 1007   0.351   0.088   2.769  0.6119 -3.3737  0.9932
  336SOL    HW2 1008   0.222   0.196   2.809 -3.1797 -0.5628  1.5303
  337SOL     OW 1009   0.899   2.767   2.808  0.7160  0.5802 -0.4207
  337SOL    HW1 1010   0.894   2.725   2.908 -0.6149 -2.8879  0.7479
  337SOL    HW2 1011   0.991   2.742   2.762  0.9303 -2.0222  1.8656
  338SOL     OW 1012   0.036   0.992   0.637  0.1081 -0.5250  0.4777
  338SOL    HW1 1013  -0.064   0.985   0.655 -0.4033 -0.7479  0.1554
  338SOL    HW2 1014   0.056   1.095   0.641  2.2034  0.7373  3.4089
  339SOL     OW 1015   1.655   1.398   2.081  0.3336 -0.1506  0.3047
  339SOL    HW1 1016   1.560   1.438   2.082 -1.0793  0.4527 -3.4583
  339SOL    HW2 1017   1.726   1.464   2.112  0.4310  1.0629 -1.8320
  340SOL     OW 1018   2.281   0.808   1.181 -0.2582  0.1333  0.4056
  340SOL    HW1 1019   2.177   0.833   1.186 -1.9588 -0.8840  1.3244
  340SOL    HW2 1020   2.302   0.720   1.132 -0.9243  0.1255 -0.1988
  341SOL     OW 1021   1.899   2.156   0.366  0.3089  0.2343 -0.2682
  341SOL    HW1 1022   1.926   2.153   0.269  0.5859  0.0551  1.9989
  341SOL    HW2 1023   1.984   2.140   0.426  2.4293  0.7976 -1.1302
  342SOL     OW 1024   2.208   2.093   2.765 -0.1747  0.6207  0.1247
  342SOL    HW1 1025   2.271   2.014   2.787  1.3729  1.0735  1.9682
  342SOL    HW2 1026   2.109   2.084   2.803  1.5091 -0.5197 -1.0349
  343SOL     OW 1027   0.338   0.799   2.773 -0.2016 -0.1700 -0.0615
  343SOL    HW1 1028   0.351   0.867   2.694  0.6585 -0.3440 -0.6343
  343SOL    HW2 1029   0.430   0.756   2.792  2.6475 -3.3855  0.0331
  344SOL     OW 1030   1.904   1.452   0.407 -0.0250 -0.2533  0.4829
  344SOL    HW1 1031   1.909   1.365   0.347  0.2259 -0.8886 -0.0246
  344SOL    HW2 1032   1.806   1.493   0.420 -1.1283  2.1992 -0.0360
  345SOL     OW 1033   1.389   2.243   2.850  0.2413  0.6191  0.3479
  345SOL    HW1 1034   1.307   2.198   2.808 -0.4447 -0.4349  1.9115
  345SOL    HW2 1035   1.479   2.215   2.807  0.8847  0.7785  1.3401
  346SOL     OW 1036   2.319   0.857   1.457 -0.3770  0.1095  0.3316
  346SOL    HW1 1037   2.255   0.914   1.511  1.5339  0.4223  0.2598
  346SOL    HW2 1038   2.286   0.840   1.360 -0.7581 -0.6864  0.2962
  347SOL     OW 1039   0.718   2.854   1.511 -0.1449  0.4541 -0.0939
  347SOL    HW1 1040   0.698   2.810   1.605  0.7343 -0.6051  0.5692
  347SOL    HW2 1041   0.631   2.885   1.461 -1.4326  1.2020  0.9687
  348SOL     OW 1042   0.083   0.673   2.867 -0.5594 -0.8843  0.1008
  348SOL    HW1 1043  -0.008   0.664   2.816 -1.0963  1.4553  2.9634
  348SOL    HW2 1044   0.152   0.718   2.811 -1.3434 -2.5340  1.4793
  349SOL     OW 1045   1.875   0.430   2.814 -0.6289  0.0034 -0.3584
  349SOL    HW1 1046   1.837   0.493   2.740  0.1258 -1.1596  1.7960
  349SOL    HW2 1047   1.849   0.452   2.915 -0.4744  1.3659 -0.5408
  350SOL     OW 1048   1.650   0.388   0.383 -0.3836  0.7437  0.0865
  350SOL    HW1 1049   1.736   0.402   0.437 -0.1848 -1.7389 -0.3575
  350SOL    HW2 1050   1.601   0.482   0.376 -0.0687 -0.3765 -1.4803
  351SOL     OW 1051   0.946   0.914   2.067  0.7366 -0.3687  0.0927
  351SOL    HW1 1052   0.935   1.009   2.021  0.0956  0.7789  1.0817
  351SOL    HW2 1053   0.941   0.841   1.990  0.1304  1.8442 -0.2603
  352SOL     OW 1054   2.003   1.322   0.633  0.2920 -0.5008  0.4912
  352SOL    HW1 1055   1.940   1.368   0.555 -0.6078 -2.3838 -1.0615
  352SOL    HW2 1056   2.104   1.342   0.621 -1.7138 -3.4686  1.7766
  353SOL     OW 1057   2.124   2.899   1.121  0.0265  0.3168  0.1691
  353SOL    HW1 1058   2.198   2.847   1.171  1.9905  0.3285  0.8742
  353SOL    HW2 1059   2.083   2.843   1.043  1.6976  0.2152  0.1654
  354SOL     OW 1060   0.252   1.394   2.845  0.3305 -0.3102  0.0439
  354SOL    HW1 1061   0.260   1.464   2.769 -1.5185  2.2934  0.0616
  354SOL    HW2 1062   0.338   1.337   2.852 -0.7814  1.3015 -2.7104
  355SOL     OW 1063   0.515   1.530   0.546  0.5340  0.1927 -0.4968
  355SOL    HW1 1064   0.489   1.607   0.612 -0.5214 -1.3839 -0.2319
  355SOL    HW2 1065   0.579   1.456   0.587 -0.6066  0.6429 -0.4855
  356SOL     OW 1066   0.920   0.387   2.117  0.2277 -0.6670 -0.0187
  356SOL    HW1 1067   0.990   0.465   2.111  1.4179  1.8452  3.0020
  356SOL    HW2 1068   0.926   0.314   2.042 -2.4348  1.5191 -0.2243
  357SOL     OW 1069   1.009   1.273   0.299 -0.0550  0.6741  1.0238
  357SOL    HW1 1070   0.947   1.252   0.220  1.2564 -2.2367  0.6619
  357SOL    HW2 1071   1.000   1.187   0.357 -0.6265 -0.5856 -2.8980
  358SOL     OW 1072   1.648   1.558   0.439 -0.2911 -0.8597  0.3537
  358SOL    HW1 1073   1.606   1.496   0.515 -1.1060  2.1632  0.7920
  358SOL    HW2 1074   1.574   1.592   0.375  4.3806 -1.7103 -1.9397
  359SOL     OW 1075   1.559   2.681   0.125  0.0589 -0.1732 -0.9725
  359SOL    HW1 1076   1.617   2.621   0.060  1.1282 -2.5031 -2.5536
  359SOL    HW2 1077   1.458   2.663   0.122  2.8584  0.8520  1.9548
  360SOL     OW 1078   0.906   0.594   0.507 -0.4678 -0.0790 -0.3383
  360SOL    HW1 1079   0.819   0.605   0.558  2.0728  0.1123 -1.2620
  360SOL    HW2 1080   0.929   0.492   0.485  1.3080 -0.0167  2.8913
  361SOL     OW 1081   1.257   1.385   0.675  0.0966  0.3207  0.4428
  361SOL    HW1 1082   1.295   1.399   0.771  0.3655 -0.8615  0.7447
  361SOL    HW2 1083   1.157   1.418   0.667  3.0818 -1.4188 -0.2024
  362SOL     OW 1084   1.383   1.748   0.778 -0.2197 -0.2740  0.1696
  362SOL    HW1 1085   1.413   1.695   0.859  0.3351  0.6469  0.3123
  362SOL    HW2 1086   1.459   1.807   0.739  0.4613  0.3098 -0.3911
  363SOL     OW 1087   1.178   1.334   2.013  0.6921 -0.7322  0.5127
  363SOL    HW1 1088   1.181   1.409   2.084  2.7486  1.5955 -0.1740
  363SOL    HW2 1089   1.210   1.372   1.919 -0.7955 -1.5293 -1.8812
  364SOL     OW 1090   0.546   2.338   1.929 -0.1593  0.0664 -0.3418
  364SOL    HW1 1091   0.462   2.392   1.966  0.2917  0.4410 -1.4578
  364SOL    HW2 1092   0.571   2.360   1.832 -0.7657 -1.0894  0.4385
  365SOL     OW 1093   1.081   1.951   1.380 -0.1638  0.1745  0.2251
  365SOL    HW1 1094   0.998   1.960   1.440  2.5048 -2.7906  1.2942
  365SOL    HW2 1095   1.072   1.871   1.314  1.0709  0.8388  0.2406
  366SOL     OW 1096   2.825   2.075   0.470 -0.2519 -0.3950  0.0838
  366SOL    HW1 1097   2.730   2.024   0.467 -1.3222 -2.9135 -1.2596
  366SOL    HW2 1098   2.896   2.023   0.419 -1.3044  1.0213  0.8340
  367SOL     OW 1099   0.813   1.214   0.125 -0.0033  0.1485  0.8992
  367SOL    HW1 1100   0.783   1.124   0.162 -3.7085 -0.3005  0.7899
  367SOL    HW2 1101   0.810   1.214   0.025  0.2960 -3.0423 -0.4791
  368SOL     OW 1102   1.539   0.553   0.710 -0.3906  0.3486  0.3396
  368SOL    HW1 1103   1.483   0.603   0.635  0.2043 -0.9681  1.7924
  368SOL    HW2 1104   1.632   0.598   0.715 -1.9019 -0.1194 -0.8747
  369SOL     OW 1105   0.291   1.727   0.077 -0.1179  0.5958 -0.6668
  369SOL    HW1 1106   0.311   1.812   0.134 -1.1632 -1.0106 -2.4639
  369SOL    HW2 1107   0.212   1.680   0.120  0.7658 -3.1699  0.2663
  370SOL     OW 1108   0.390   2.111   1.014 -0.0305  0.1668  0.9058
  370SOL    HW1 1109   0.401   2.204   0.970 -0.9671 -0.4424  0.4235
  370SOL    HW2 1110   0.292   2.077   1.006 -1.3954  1.4137 -0.5297
  371SOL     OW 1111   2.907   2.206   2.743 -0.2787  0.2423 -0.0475
  371SOL    HW1 1112   2.912   2.191   2.849 -0.0846 -1.0434  0.2035
  371SOL    HW2 1113   2.996   2.228   2.697  0.6595 -0.0378 -0.3469
  372SOL     OW 1114   0.939   1.871   0.915  0.7938  0.9856  0.1627
  372SOL    HW1 1115   0.889   1.961   0.939 -0.7990  0.0556  4.1876
  372SOL    HW2 1116   1.030   1.888   0.869  0.6098 -1.0796  1.2639
  373SOL     OW 1117   1.992   2.003   0.930 -0.3057 -0.1160 -0.8655
  373SOL    HW1 1118   2.044   2.022   1.018  0.9523  1.1276 -0.2852
  373SOL    HW2 1119   1.889   2.018   0.941 -1.7313  2.6037 -0.0278
  374SOL     OW 1120   1.869   0.453   0.552 -0.9213  0.9076 -0.4533
  374SOL    HW1 1121   1.865   0.409   0.648 -0.8964 -3.4090  0.9717
  374SOL    HW2 1122   1.959   0.446   0.516  1.2371 -0.5617  1.3832
  375SOL     OW 1123   2.388   2.152   1.131 -0.0191 -0.5497  0.4050
  375SOL    HW1 1124   2.469   2.164   1.072 -0.0407  0.8471  0.8065
  375SOL    HW2 1125   2.415   2.148   1.234 -0.2753  1.5494  3.9702
  376SOL     OW 1126   3.044   0.613   1.439 -0.3056 -0.1349 -0.8224
  376SOL    HW1 1127   3.115   0.668   1.496 -1.3764 -2.6962  3.2611
  376SOL    HW2 1128   2.952   0.615   1.484 -0.5417 -0.8538 -0.7535
  377SOL     OW 1129   2.272   2.841   0.320  0.2190 -0.8934 -0.5974
  377SOL    HW1 1130   2.257   2.942   0.329  0.7157 -0.1516 -0.1496
  377SOL    HW2 1131   2.361   2.811   0.350 -1.0143  1.3350  0.5372
  378SOL     OW 1132   1.842   1.901   2.635 -0.7218  0.2827 -0.1849
  378SOL    HW1 1133   1.796   1.816   2.667 -0.8741  1.9234  0.6800
  378SOL    HW2 1134   1.906   1.896   2.553 -1.9473 -1.5794  1.6637
  379SOL     OW 1135   0.845   0.060   2.722  0.5289  0.4371  0.2778
  379SOL    HW1 1136   0.805  -0.031   2.691  2.0201 -1.2113  0.9661
  379SOL    HW2 1137   0.784   0.142   2.706  2.3014 -0.9632  0.2079
  380SOL     OW 1138   1.516   1.143   0.592 -0.1119 -0.4903  0.1015
  380SOL    HW1 1139   1.422   1.148   0.555  3.0412 -0.8813  0.8284
  380SOL    HW2 1140   1.537   1.060   0.652  1.6310 -1.2194 -2.4641
  381SOL     OW 1141   1.319   1.200   1.496  0.1780 -0.5108  0.0102
  381SOL    HW1 1142   1.348   1.256   1.411  1.0490  2.6375 -0.2055
  381SOL    HW2 1143   1.375   1.220   1.578 -0.9160 -0.7528  0.7934
  382SOL     OW 1144   1.747   0.799   0.280  0.0844 -0.3598 -0.0994
  382SOL    HW1 1145   1.767   0.755   0.190  0.1840  0.6739  1.6665
  382SOL    HW2 1146   1.835   0.829   0.324 -0.2728 -0.0454 -1.4555
  383SOL     OW 1147   2.585   0.988   1.509 -0.4967 -0.6977 -0.3103
  383SOL    HW1 1148   2.497   0.982   1.461  1.9555  1.2052  3.5165
  383SOL    HW2 1149   2.665   0.936   1.469  0.2364 -1.0479 -1.8982
  384SOL     OW 1150   0.924   2.279   0.109 -0.5918 -0.1944 -0.3919
  384SOL    HW1 1151   0.858   2.361   0.129 -1.0313  0.2623 -0.0905
  384SOL    HW2 1152   0.922   2.206   0.177 -2.5598  2.1846 -1.2501
  385SOL     OW 1153   3.010   2.009   1.750 -0.2545 -0.0920  0.1797
  385SOL    HW1 1154   3.067   2.097   1.745 -1.6153  1.1920  1.0060
  385SOL    HW2 1155   3.069   1.936   1.706 -4.3278 -1.2675  0.8807
  386SOL     OW 1156   0.442   1.139   0.442  0.1755  0.5855  0.3066
  386SOL    HW1 1157   0.442   1.036   0.434 -1.8263 -0.8291 -0.4167
  386SOL    HW2 1158   0.371   1.188   0.377  0.7738  0.4235  2.4177
  387SOL     OW 1159   0.972   0.300   1.674  0.1858 -0.6160 -0.0363
  387SOL    HW1 1160   1.029   0.383   1.658 -3.3277 -2.2211  0.4101
  387SOL    HW2 1161   0.977   0.243   1.589  1.1745 -1.4313 -3.2551
  388SOL     OW 1162   1.160   2.617   1.778 -0.2651  0.2297 -0.0090
  388SOL    HW1 1163   1.168   2.632   1.671  1.4484 -0.2491  1.4823
  388SOL    HW2 1164   1.232   2.550   1.818 -0.4024 -1.3060 -1.9961
  389SOL     OW 1165   0.263   0.013   1.133  0.2100  0.7298 -0.2115
  389SOL    HW1 1166   0.207   0.017   1.224  2.0236  1.7197 -1.1849
  389SOL    HW2 1167   0.293  -0.082   1.107  0.1485  0.3329  2.1546
  390SOL     OW 1168   1.023   0.876   1.241 -0.2955  0.0376 -0.6321
  390SOL    HW1 1169   1.119   0.850   1.272 -0.3475  3.3610  2.7792
  390SOL    HW2 1170   0.964   0.901   1.325 -1.0857  0.5075  2.8730
  391SOL     OW 1171   2.100   1.140   1.047 -0.1814  0.4194  0.6947
  391SOL    HW1 1172   2.020   1.074   1.051 -2.0380 -0.3855  0.0333
  391SOL    HW2 1173   2.174   1.104   0.991  0.2737 -1.5602  0.3821
  392SOL     OW 1174   0.868   2.716   3.072  0.1678 -0.0054 -0.8146
  392SOL    HW1 1175   0.780   2.715   3.129 -1.5176 -0.9043 -0.4760
  392SOL    HW2 1176   0.952   2.753   3.122  0.7523 -1.3809  2.4748
  393SOL     OW 1177   0.352   0.587   2.017  0.5370 -0.0037  0.9549
  393SOL    HW1 1178   0.261   0.549   1.980  1.6934 -1.6505  0.0902
  393SOL    HW2 1179   0.432   0.556   1.961  0.6985 -0.6072  2.0942
  394SOL     OW 1180   2.844   1.818   2.786  0.0774  0.6158  0.2279
  394SOL    HW1 1181   2.942   1.826   2.755  1.0334 -1.8257  2.8746
  394SOL    HW2 1182   2.795   1.903   2.809  0.6603 -1.2333 -0.5064
  395SOL     OW 1183   1.600   1.926   0.709  0.0919  0.1203  0.6048
  395SOL    HW1 1184   1.677   1.875   0.671 -1.7275  2.5926  1.6588
  395SOL    HW2 1185   1.619   1.975   0.796 -0.3395 -1.8553  0.0551
  396SOL     OW 1186   2.754   2.061   1.296  0.1094 -0.2351  0.6529
  396SOL    HW1 1187   2.798   2.045   1.393  0.0106 -0.2209  2.1537
  396SOL    HW2 1188   2.657   2.094   1.308  1.0720  1.8759 -1.1103
  397SOL     OW 1189   1.008   2.078   0.647  0.3184  0.0717  0.2118
  397SOL    HW1 1190   0.935   2.021   0.590 -0.7063  0.1147 -0.9211
  397SOL    HW2 1191   0.969   2.138   0.718 -0.5577 -2.2024  0.3250
  398SOL     OW 1192   2.178   0.050   1.070  0.7685  0.2220  0.5545
  398SOL    HW1 1193   2.163  -0.050   1.079  1.2998  0.6542  0.3971
  398SOL    HW2 1194   2.087   0.102   1.093  0.1557 -1.3454 -1.2635
  399SOL     OW 1195   2.952   2.551   2.743  0.2683 -0.4972  0.0152
  399SOL    HW1 1196   2.900   2.528   2.657 -1.2985 -2.9528 -0.0833
  399SOL    HW2 1197   2.897   2.545   2.828  1.5063 -1.4495 -1.7491
  400SOL     OW 1198   0.846   1.605   1.266  0.2616  0.2019 -0.1148
  400SOL    HW1 1199   0.784   1.632   1.345  0.7779 -0.0522  0.3051
  400SOL    HW2 1200   0.806   1.635   1.177 -2.4935  1.3244  1.1275
  401SOL     OW 1201   1.835   0.116   1.272 -0.2300  0.3208 -0.5424
  401SOL    HW1 1202   1.901   0.147   1.348  1.1778  1.6055  1.9307
  401SOL    HW2 1203   1.741   0.103   1.314  1.7966 -0.5628  2.4722
  402SOL     OW 1204   1.311   0.145   3.041  0.0291 -0.3152 -0.2045
  402SOL    HW1 1205   1.404   0.126   3.004  2.5649 -1.8624 -1.4634
  402SOL    HW2 1206   1.302   0.236   3.099  2.6164  2.2504  3.4330
  403SOL     OW 1207   2.287   1.812   0.948  0.5145 -0.0319 -0.3710
  403SOL    HW1 1208   2.389   1.814   0.969 -0.1955  2.3906 -0.0091
  403SOL    HW2 1209   2.237   1.884   1.000 -1.1424  1.2179 -0.3560
  404SOL     OW 1210   0.182   2.463   2.828 -0.0728  0.9983  0.4833
  404SOL    HW1 1211   0.278   2.449   2.800 -2.0909 -0.8183  1.9489
  404SOL    HW2 1212   0.151   2.558   2.800 -2.0079  0.6401 -1.0069
  405SOL     OW 1213   0.268   2.562   0.584 -0.2480  1.0507 -0.3214
  405SOL    HW1 1214   0.251   2.562   0.480  0.7664  2.7186  0.2845
  405SOL    HW2 1215   0.316   2.651   0.620  0.3445 -2.0691  0.8865
  406SOL     OW 1216   0.023   1.522   2.960  0.2744  0.0041  0.2689
  406SOL    HW1 1217   0.106   1.481   2.916 -0.4399 -0.1596  0.6084
  406SOL    HW2 1218   0.034   1.541   3.063  0.6543 -0.7747  1.1754
  407SOL     OW 1219   1.537   0.940   0.894 -0.3672 -0.3457 -0.6162
  407SOL    HW1 1220   1.541   0.901   0.795 -0.5245 -0.5549  0.8063
  407SOL    HW2 1221   1.479   1.026   0.905  1.8071  0.6616 -2.6759
  408SOL     OW 1222   1.481   2.380   0.969  0.7880  0.6915  0.0183
  408SOL    HW1 1223   1.551   2.356   0.891  0.5129 -1.3133 -0.7816
  408SOL    HW2 1224   1.517   2.454   1.029 -1.8889 -0.2926 -0.0856
  409SOL     OW 1225   0.660   0.888   0.681  0.3069 -0.3663  0.4729
  409SOL    HW1 1226   0.577   0.918   0.623  0.9186  1.9008 -0.4449
  409SOL    HW2 1227   0.681   0.785   0.675  0.6353 -2.9981 -1.9541
  410SOL     OW 1228   1.321   2.003   1.502 -0.4574  0.2123 -0.0990
  410SOL    HW1 1229   1.312   2.082   1.564  3.6057  0.7098 -2.1738
  410SOL    HW2 1230   1.226   1.975   1.467  2.1138 -0.2145  0.4608
  411SOL     OW 1231   2.365   1.839   0.041 -0.1165 -0.0977  0.3981
  411SOL    HW1 1232   2.291   1.859  -0.027  2.3371  0.9063  1.9810
  411SOL    HW2 1233   2.456   1.822  -0.010 -0.2088  0.6773 -0.4045
  412SOL     OW 1234   1.511   2.399   2.230 -0.1702 -0.0493 -0.1328
  412SOL    HW1 1235   1.508   2.501   2.237 -0.4233 -0.8441 -1.1031
  412SOL    HW2 1236   1.437   2.366   2.290 -0.0314  2.0085  1.0917
  413SOL     OW 1237   3.013   0.274   2.920 -0.5393 -0.1380  0.7554
  413SOL    HW1 1238   2.971   0.181   2.899 -0.0681  1.6208 -2.0170
  413SOL    HW2 1239   3.107   0.261   2.967  1.2973 -1.6862  0.7214
  414SOL     OW 1240   1.783   1.339   1.318 -0.1914  0.5216  0.1429
  414SOL    HW1 1241   1.742   1.429   1.346 -0.2456  1.0797  0.3919
  414SOL    HW2 1242   1.763   1.318   1.220  1.3548  2.8110  2.6685
  415SOL     OW 1243   0.367   2.269   0.670  0.1653 -0.1206  0.2518
  415SOL    HW1 1244   0.349   2.370   0.642 -0.4241  0.3708 -1.6386
  415SOL    HW2 1245   0.276   2.219   0.657  2.2695  1.4318 -1.2624
  416SOL     OW 1246   0.361   1.014   1.064 -0.0060 -0.1573  0.3555
  416SOL    HW1 1247   0.306   0.987   0.982  2.4768 -1.5252 -1.8087
  416SOL    HW2 1248   0.456   1.053   1.034  0.7453  1.7247 -1.2049
  417SOL     OW 1249   2.152   2.328   1.874  0.1202 -0.3815  0.1766
  417SOL    HW1 1250   2.188   2.237   1.855 -0.6028  1.6684  1.9324
  417SOL    HW2 1251   2.056   2.330   1.902  2.7443 -1.0756 -0.2890
  418SOL     OW 1252   1.139   0.428   1.346  0.3558  0.4738 -0.7799
  418SOL    HW1 1253   1.043   0.437   1.308 -3.6205  1.9714 -1.9848
  418SOL    HW2 1254   1.205   0.415   1.271 -0.5445  0.3731  1.1303
  419SOL     OW 1255   0.971   0.379   3.020 -0.1812  0.3931  0.7556
  419SOL    HW1 1256   1.001   0.423   2.931 -0.6975 -0.8105  1.4966
  419SOL    HW2 1257   0.967   0.275   3.003  2.2582  0.4514  2.2735
  420SOL     OW 1258   0.201   2.280   0.366  0.3397 -0.1720 -0.1180
  420SOL    HW1 1259   0.165   2.230   0.284 -1.1547  1.9937 -0.3034
  420SOL    HW2 1260   0.127   2.298   0.439 -1.4672 -2.9637 -2.6819
  421SOL     OW 1261   0.329   3.072   0.643 -0.1132 -0.2614 -0.0664
  421SOL    HW1 1262   0.361   3.022   0.556 -0.7157  0.2113 -1.5427
  421SOL    HW2 1263   0.395   3.140   0.684  0.7502 -1.1170 -1.1009
  422SOL     OW 1264   0.929   2.508   1.021 -0.0829 -0.0211  0.4194
  422SOL    HW1 1265   0.965   2.587   0.963  0.4279 -3.2965 -0.6812
  422SOL    HW2 1266   0.983   2.502   1.106 -1.6867 -1.8996 -0.3853
  423SOL     OW 1267   0.024   0.738   1.193  0.2733 -0.1095 -0.4486
  423SOL    HW1 1268  -0.009   0.707   1.290  0.1918 -0.1254  3.2564
  423SOL    HW2 1269  -0.038   0.718   1.119  1.3216 -0.2343  1.3945
  424SOL     OW 1270   1.027   2.141   2.175  0.2674  0.1061 -0.7854
  424SOL    HW1 1271   1.047   2.229   2.132 -2.0320 -1.3666  0.5275
  424SOL    HW2 1272   0.967   2.147   2.259  0.8079 -1.1907  0.2898
  425SOL     OW 1273   2.022   1.413   1.082 -0.5028 -0.0086 -0.1208
  425SOL    HW1 1274   2.045   1.312   1.080 -3.0917 -1.3838  2.7721
  425SOL    HW2 1275   2.053   1.475   0.999  1.8059  0.7736 -4.4380
  426SOL     OW 1276   1.559   1.518   1.387 -0.1953  0.3043 -0.2951
  426SOL    HW1 1277   1.510   1.599   1.360  1.1994 -2.0775 -0.7018
  426SOL    HW2 1278   1.545   1.497   1.487 -1.3445 -2.1251 -2.4733
  427SOL     OW 1279   1.921   2.364   2.029 -0.1414  0.1983  0.3031
  427SOL    HW1 1280   1.979   2.323   2.108  2.1337  2.9973  2.4074
  427SOL    HW2 1281   1.906   2.464   2.043  2.4194 -0.8904 -0.8465
  428SOL     OW 1282   0.931   3.042   0.125 -0.3898  0.0512  0.4243
  428SOL    HW1 1283   0.975   3.125   0.164 -1.2850 -3.4813 -1.8800
  428SOL    HW2 1284   0.997   2.964   0.108 -1.0690 -0.1508 -1.7115
  429SOL     OW 1285   1.329   0.057   0.235 -0.6359  0.3806  0.3166
  429SOL    HW1 1286   1.430   0.090   0.260  1.6386  2.3937 -1.7436
  429SOL    HW2 1287   1.324   0.009   0.145  1.3992  0.2467  1.5770
  430SOL     OW 1288   2.815   1.502   0.364 -0.0728 -0.3939  0.0082
  430SOL    HW1 1289   2.860   1.572   0.296  0.0424  0.4813 -2.2536
  430SOL    HW2 1290   2.791   1.554   0.450  1.2356  1.1765 -1.7716
  431SOL     OW 1291   2.099   1.600   0.896  0.5405  0.0394  0.8046
  431SOL    HW1 1292   2.175   1.661   0.929 -1.1885  1.0141  1.8247
  431SOL    HW2 1293   2.020   1.653   0.854  0.7578 -0.1876 -1.6407
  432SOL     OW 1294   2.895   2.297   1.242  0.4469  0.3082  0.1680
  432SOL    HW1 1295   2.838   2.217   1.279 -3.4989 -1.1480  0.6805
  432SOL    HW2 1296   2.947   2.339   1.318  3.8205  1.0762 -2.0706
  433SOL     OW 1297   1.834   0.328   0.793 -0.0533  0.3622  0.7381
  433SOL    HW1 1298   1.736   0.295   0.781 -0.4886  0.5716 -1.0720
  433SOL    HW2 1299   1.882   0.287   0.876 -3.0818 -1.9288 -0.8722
  434SOL     OW 1300   1.543   0.272   0.709  0.0744  0.0232 -0.0094
  434SOL    HW1 1301   1.537   0.365   0.667 -1.9245  1.4043 -0.6397
  434SOL    HW2 1302   1.542   0.278   0.815  1.7835 -1.2249 -2.9968
  435SOL     OW 1303   1.435   1.542   2.114  0.1332  0.0703 -0.0612
  435SOL    HW1 1304   1.400   1.502   2.205  3.2967 -0.1076 -1.0625
  435SOL    HW2 1305   1.391   1.633   2.087  0.1088 -0.3040 -0.2925
  436SOL     OW 1306   1.643   2.686   2.370  0.3670 -1.0035  0.4046
  436SOL    HW1 1307   1.605   2.783   2.391  1.9276 -0.5245 -1.1528
  436SOL    HW2 1308   1.617   2.621   2.450  1.8040  1.8314  0.9256
  437SOL     OW 1309   1.087   2.921   0.843  0.2916 -0.3698  0.8019
  437SOL    HW1 1310   1.043   3.012   0.842  0.2352 -2.6990 -1.4981
  437SOL    HW2 1311   1.123   2.901   0.938  1.4345 -1.5228  0.9455
  438SOL     OW 1312   1.025   2.503   1.286  0.5674  0.3357 -0.4366
  438SOL    HW1 1313   1.055   2.562   1.361 -0.9913 -0.6396  0.2673
  438SOL    HW2 1314   1.017   2.406   1.324  2.2059  2.2731  3.6428
  439SOL     OW 1315   0.708   1.685   1.041  0.1676  0.0747  0.6864
  439SOL    HW1 1316   0.760   1.760   0.987  2.1405 -0.2022 -0.0437
  439SOL    HW2 1317   0.614   1.723   1.072 -4.1510 -0.7706 -2.2407
  440SOL     OW 1318   1.037   2.443   2.038 -0.0079 -0.0368  0.0783
  440SOL    HW1 1319   0.979   2.478   1.956  1.0868 -1.4390 -0.2263
  440SOL    HW2 1320   1.138   2.454   2.023  0.7294 -0.1842  0.1227
  441SOL     OW 1321   0.351   2.720   1.308 -0.2044 -0.0911  1.4296
  441SOL    HW1 1322   0.421   2.653   1.355  1.9512 -1.3052  1.3018
  441SOL    HW2 1323   0.374   2.747   1.208 -0.7290  0.5948 -1.3953
  442SOL     OW 1324   2.253   0.671   2.594  0.1131  0.2583  0.2837
  442SOL    HW1 1325   2.257   0.597   2.523  0.7315  0.2562  2.5798
  442SOL    HW2 1326   2.153   0.707   2.601 -0.9944 -1.6667  1.6670
  443SOL     OW 1327   1.281   2.602   2.222  0.0630  1.3199  0.1401
  443SOL    HW1 1328   1.280   2.498   2.237  3.9723 -0.4018  0.3286
  443SOL    HW2 1329   1.208   2.652   2.281  0.1237 -0.8854  0.4082
  444SOL     OW 1330   1.030   1.211   1.459 -0.2343 -0.1614  0.2799
  444SOL    HW1 1331   1.129   1.215   1.461  1.3797 -0.4832 -1.5077
  444SOL    HW2 1332   0.987   1.302   1.476 -0.8397 -0.6442 -0.0082
  445SOL     OW 1333   0.177   2.270   2.071 -0.0354  0.2299 -0.5735
  445SOL    HW1 1334   0.079   2.258   2.040 -2.3373  0.3937 -2.6188
  445SOL    HW2 1335   0.202   2.202   2.139 -2.5626  1.2635 -1.1293
  446SOL     OW 1336   0.137   1.951   2.348  0.5252 -0.1623  0.2834
  446SOL    HW1 1337   0.109   2.050   2.340 -1.7576  0.0890 -1.3962
  446SOL    HW2 1338   0.141   1.889   2.261 -0.4479  0.5382 -0.4331
  447SOL     OW 1339   1.275   1.705   1.952 -0.4344  0.0651  1.0925
  447SOL    HW1 1340   1.181   1.747   1.960 -1.4353 -0.4639 -0.4068
  447SOL    HW2 1341   1.357   1.767   1.973  1.9589 -0.4782 -1.7997
  448SOL     OW 1342   0.198   1.448   2.055  0.4891 -0.2129  0.1893
  448SOL    HW1 1343   0.169   1.536   2.007  0.0034  0.4512 -0.9598
  448SOL    HW2 1344   0.143   1.431   2.137 -0.4046 -2.3502  1.6159
  449SOL     OW 1345   1.875   2.926   0.808  0.4232 -0.7234 -0.5842
  449SOL    HW1 1346   1.858   2.936   0.909  0.9014 -1.5021  2.2155
  449SOL    HW2 1347   1.896   2.831   0.777  1.9810  1.8591  1.1900
  450SOL     OW 1348   2.236   1.441   0.672  0.4728  0.2707 -0.0723
  450SOL    HW1 1349   2.187   1.485   0.753 -2.7571 -1.0193  0.0122
  450SOL    HW2 1350   2.270   1.512   0.609  2.0007  0.2037  0.9867
  451SOL     OW 1351   1.397   3.032   1.497 -0.1495  0.2927  0.1730
  451SOL    HW1 1352   1.340   3.111   1.512  0.1769 -2.0289 -0.8118
  451SOL    HW2 1353   1.429   2.969   1.576 -0.0204  2.7728 -0.4818
  452SOL     OW 1354   2.689   2.308   2.256 -0.3971 -0.5017  0.0311
  452SOL    HW1 1355   2.625   2.389   2.249  3.0482 -0.2708  1.8096
  452SOL    HW2 1356   2.704   2.282   2.353  2.0622  1.5542 -0.0656
  453SOL     OW 1357   2.461   2.657   3.071  0.8399  0.4914 -0.1921
  453SOL    HW1 1358   2.372   2.693   3.115  0.3505  0.0264  2.2066
  453SOL    HW2 1359   2.432   2.602   2.978 -2.2081 -5.0426 -1.4398
  454SOL     OW 1360   0.935   1.191   1.993 -0.1816 -0.5082 -0.1275
  454SOL    HW1 1361   0.897   1.177   1.900 -0.8025  0.4482  0.5222
  454SOL    HW2 1362   1.030   1.229   1.996 -1.8808  0.3162 -1.9894
  455SOL     OW 1363   0.655   2.658   2.816 -0.3535  0.2068 -0.5063
  455SOL    HW1 1364   0.744   2.712   2.813  0.9219 -2.4376  0.7657
  455SOL    HW2 1365   0.663   2.571   2.878  1.7150  3.5971  0.0937
  456SOL     OW 1366   0.379   1.939   0.216  0.1597 -0.2929  0.1902
  456SOL    HW1 1367   0.481   1.964   0.218  0.1873  3.1262 -0.9882
  456SOL    HW2 1368   0.325   2.019   0.177 -1.1021  0.1906  0.6835
  457SOL     OW 1369   0.411   2.764   0.653  0.2057 -0.3475 -0.2968
  457SOL    HW1 1370   0.421   2.828   0.574 -2.2294 -0.4453 -1.6373
  457SOL    HW2 1371   0.505   2.734   0.693 -2.5733 -1.1863  0.2671
  458SOL     OW 1372   2.894   0.035   1.240 -0.6641 -0.3410 -0.3583
  458SOL    HW1 1373   2.973   0.100   1.257 -3.8672 -0.2872  2.6549
  458SOL    HW2 1374   2.916  -0.032   1.164 -0.4464  2.4658 -2.3816
  459SOL     OW 1375   2.211   2.487   0.778  0.5200  0.0766  0.5231
  459SOL    HW1 1376   2.248   2.556   0.842 -0.4328 -0.2694 -0.5365
  459SOL    HW2 1377   2.272   2.411   0.753  1.3831  3.4549 -0.6239
  460SOL     OW 1378   1.195   2.049   2.760  0.0667  0.4668  0.1368
  460SOL    HW1 1379   1.226   2.045   2.662 -0.2708  0.2371  0.7976
  460SOL    HW2 1380   1.192   1.954   2.804 -0.8293  1.7895  0.4505
  461SOL     OW 1381   0.431   2.113   2.705 -0.6027 -0.0772 -0.1574
  461SOL    HW1 1382   0.368   2.050   2.657  0.9739 -1.2602 -0.8155
  461SOL    HW2 1383   0.475   2.083   2.791  0.3188 -1.1065  1.7007
  462SOL     OW 1384   0.944   1.021   1.756  0.0868  0.0424  0.1376
  462SOL    HW1 1385   0.918   0.927   1.721 -1.2918 -1.2858 -0.3299
  462SOL    HW2 1386   0.899   1.099   1.704 -0.7370  1.9157 -1.2342
  463SOL     OW 1387   0.442   0.851   0.477  0.6298 -0.0388  0.1864
  463SOL    HW1 1388   0.470   0.751   0.456  0.4067 -0.0570 -1.5924
  463SOL    HW2 1389   0.340   0.867   0.467 -2.8775 -2.8418  0.7139
  464SOL     OW 1390   0.614   2.356   2.212 -0.3746 -0.3213 -0.8837
  464SOL    HW1 1391   0.543   2.415   2.251  2.4197  0.9517 -1.0914
  464SOL    HW2 1392   0.609   2.350   2.111 -0.7438  1.2614  0.3868
  465SOL     OW 1393   0.238   0.916   0.820 -0.1943 -0.6683  0.2070
  465SOL    HW1 1394   0.164   0.943   0.755 -0.6267  0.3863 -0.3453
  465SOL    HW2 1395   0.243   0.813   0.824  0.0551 -1.9576  1.9844
  466SOL     OW 1396   1.367   1.136   1.017  0.3684  0.0551 -0.5480
  466SOL    HW1 1397   1.350   1.227   0.972 -0.0983  0.7796  1.9093
  466SOL    HW2 1398   1.279   1.087   1.042 -0.4993  1.3364 -0.8778
  467SOL     OW 1399   0.584   0.418   2.482 -0.6892 -0.2235  0.2992
  467SOL    HW1 1400   0.552   0.512   2.513  2.3193 -0.0998 -1.4541
  467SOL    HW2 1401   0.617   0.361   2.566  1.2149 -0.7519  1.6961
  468SOL     OW 1402   0.433   2.252   1.620  0.0623  0.4155 -0.3661
  468SOL    HW1 1403   0.517   2.302   1.649  1.6960 -1.4101 -0.7922
  468SOL    HW2 1404   0.436   2.235   1.517 -0.9744  2.8604 -1.0354
  469SOL     OW 1405   1.398   1.327   1.270  0.4082 -0.1314  0.7732
  469SOL    HW1 1406   1.437   1.263   1.205 -0.1824 -2.6421  1.2348
  469SOL    HW2 1407   1.469   1.396   1.304 -2.2462 -0.1823 -2.1552
  470SOL     OW 1408   3.032   1.773   0.739 -0.2215 -0.2105 -0.1510
  470SOL    HW1 1409   3.096   1.841   0.700 -0.2127  2.0074 -3.0881
  470SOL    HW2 1410   3.042   1.756   0.842 -1.0968 -1.9914  0.5898
  471SOL     OW 1411   2.560   1.391   2.166 -0.2561 -0.1004 -0.1367
  471SOL    HW1 1412   2.525   1.316   2.230 -1.1087 -1.6791 -0.4907
  471SOL    HW2 1413   2.652   1.426   2.198 -0.0783 -1.7285 -2.5763
  472SOL     OW 1414   1.125   2.453   0.078  0.1641 -0.7345 -0.5771
  472SOL    HW1 1415   1.175   2.453   0.166 -0.9494  0.5452 -0.7811
  472SOL    HW2 1416   1.056   2.373   0.069 -1.9214  0.7325  0.3240
  473SOL     OW 1417   1.064   1.503   1.009  0.0568 -0.0955 -0.2180
  473SOL    HW1 1418   0.977   1.504   0.949  0.1563  0.2171 -2.4714
  473SOL    HW2 1419   1.056   1.430   1.081 -0.5260  0.7596 -1.2657
  474SOL     OW 1420   0.649   1.284   0.545  0.0307  0.2456  0.0491
  474SOL    HW1 1421   0.575   1.226   0.501 -0.2939 -2.4240  0.9599
  474SOL    HW2 1422   0.731   1.227   0.575  0.4169 -1.3464 -2.8263
  475SOL     OW 1423   2.800   0.050   0.817  0.2339  0.0459 -0.2096
  475SOL    HW1 1424   2.888   0.104   0.797 -0.7445  0.1406 -2.5213
  475SOL    HW2 1425   2.738   0.080   0.896 -2.1437 -1.8328 -0.3440
  476SOL     OW 1426   0.982   3.049   1.795  0.3842 -0.0374 -0.0275
  476SOL    HW1 1427   1.059   3.108   1.821  0.2892 -1.0476 -1.9240
  476SOL    HW2 1428   0.994   3.007   1.701 -0.6427 -2.3618 -1.3464
  477SOL     OW 1429   1.466   0.295   2.404  0.1844 -0.1264 -0.4339
  477SOL    HW1 1430   1.467   0.317   2.506 -0.2970  0.5118 -0.2320
  477SOL    HW2 1431   1.548   0.238   2.379 -0.3623  1.1210  0.5805
  478SOL     OW 1432   2.242   1.892   0.293 -0.6824 -0.1368  0.0108
  478SOL    HW1 1433   2.187   1.812   0.319  1.1990  2.4868 -1.4301
  478SOL    HW2 1434   2.325   1.872   0.233  3.2650 -4.0935  0.4075
  479SOL     OW 1435   1.231   0.969   2.906 -0.0450 -0.1674  0.0813
  479SOL    HW1 1436   1.335   0.971   2.892 -0.1413  1.4690  0.5383
  479SOL    HW2 1437   1.184   0.889   2.858  0.5305 -0.7589  0.0526
  480SOL     OW 1438   2.687   2.301   0.390  0.5195  0.4392 -0.3016
  480SOL    HW1 1439   2.748   2.222   0.428  0.2095 -0.3503  3.9275
  480SOL    HW2 1440   2.609   2.259   0.332  2.4919 -2.4189 -0.0742
  481SOL     OW 1441   1.056   1.185   0.875  0.2929  0.1891 -0.4326
  481SOL    HW1 1442   1.048   1.288   0.857 -1.5134 -2.0841  0.0576
  481SOL    HW2 1443   1.083   1.165   0.973  1.1830  1.1441 -0.7062
  482SOL     OW 1444   1.566   0.300   1.992  0.3085 -0.2127  0.2322
  482SOL    HW1 1445   1.571   0.399   1.953 -1.5909 -1.8757 -1.0979
  482SOL    HW2 1446   1.661   0.264   2.015  0.6831  3.2657  2.7503
  483SOL     OW 1447   0.226   2.334   1.212 -0.0744  0.2666  0.3848
  483SOL    HW1 1448   0.153   2.383   1.272  0.1648  1.9052  1.9178
  483SOL    HW2 1449   0.228   2.359   1.111  1.0659 -1.7218 -2.9133
  484SOL     OW 1450   1.759   1.054   1.328 -0.2179  0.1715  0.3309
  484SOL    HW1 1451   1.820   1.003   1.396  2.7408 -2.8341 -1.5541
  484SOL    HW2 1452   1.759   1.158   1.333 -0.4024 -1.1810  1.5480
  485SOL     OW 1453   0.746   0.732   1.828  0.0786  0.0556 -0.0966
  485SOL    HW1 1454   0.714   0.800   1.759  0.4784  2.0799  0.6423
  485SOL    HW2 1455   0.846   0.706   1.818  2.7344 -1.6966 -1.3284
  486SOL     OW 1456   0.827   1.885   2.413 -0.0757 -0.2059 -0.2782
  486SOL    HW1 1457   0.867   1.908   2.505 -1.0493  2.3069  1.5819
  486SOL    HW2 1458   0.803   1.970   2.356 -0.5776 -1.9081  0.1643
  487SOL     OW 1459   1.785   1.583   1.045  0.3657 -0.6384  0.1159
  487SOL    HW1 1460   1.835   1.494   1.052 -0.3031 -1.1507 -0.6578
  487SOL    HW2 1461   1.827   1.635   0.963 -1.4638 -2.3362 -1.9056
  488SOL     OW 1462   2.951   0.825   2.292  0.6255  0.6490  0.0602
  488SOL    HW1 1463   3.034   0.762   2.280  1.9404  0.5608 -1.0689
  488SOL    HW2 1464   2.876   0.782   2.348  0.7550  0.7013  2.1622
  489SOL     OW 1465   2.766   0.328   1.282 -0.1996  0.1519 -0.9378
  489SOL    HW1 1466   2.766   0.316   1.386  0.8139  0.9287 -0.7711
  489SOL    HW2 1467   2.853   0.301   1.234 -0.2777  2.8749 -0.4698
  490SOL     OW 1468   1.435   2.907   2.820  0.0942 -0.3973  0.0580
  490SOL    HW1 1469   1.454   2.809   2.845 -1.8178 -0.2559  0.2552
  490SOL    HW2 1470   1.436   2.929   2.718  0.7667  3.3041  0.3500
  491SOL     OW 1471   1.742   1.495   2.716 -0.0382 -0.0634 -0.0629
  491SOL    HW1 1472   1.741   1.431   2.795 -0.7476  1.6340 -3.2276
  491SOL    HW2 1473   1.820   1.563   2.721 -2.1274 -1.4342  1.2103
  492SOL     OW 1474   0.538   2.057   0.656  0.5319  0.2806  0.3390
  492SOL    HW1 1475   0.593   2.045   0.738 -0.7244  1.8057  0.9386
  492SOL    HW2 1476   0.476   2.146   0.665  0.6255 -0.3141 -0.1766
  493SOL     OW 1477   0.467   1.364   2.102  0.7044  0.8567 -0.0942
  493SOL    HW1 1478   0.379   1.415   2.080 -0.3528 -0.7476  0.7059
  493SOL    HW2 1479   0.441   1.260   2.102  0.6843 -0.1719  1.1657
  494SOL     OW 1480   2.700   2.589   0.094 -0.0321 -0.7897 -0.1867
  494SOL    HW1 1481   2.708   2.607   0.194  0.1813  0.7471 -0.7778
  494SOL    HW2 1482   2.608   2.625   0.058 -0.6330  0.1401  0.3642
  495SOL     OW 1483   2.536   2.817   2.606  0.0674 -0.5566 -0.4157
  495SOL    HW1 1484   2.544   2.710   2.616  0.1117 -0.8820 -2.0936
  495SOL    HW2 1485   2.603   2.851   2.531  2.4865  0.8620  2.1587
  496SOL     OW 1486   1.985   2.313   0.812 -0.1003  0.2375  0.0330
  496SOL    HW1 1487   2.050   2.373   0.874  1.9446  0.0739 -0.4919
  496SOL    HW2 1488   2.014   2.217   0.804 -2.2971 -1.4265  1.2075
  497SOL     OW 1489   0.185   2.996   2.387 -0.5192  0.0738  0.1460
  497SOL    HW1 1490   0.128   3.053   2.460 -2.2864 -1.1339  0.0758
  497SOL    HW2 1491   0.207   3.054   2.300 -1.0566  0.0193 -1.6873
  498SOL     OW 1492   1.115   1.369   1.232  0.2385 -0.2188  0.7700
  498SOL    HW1 1493   1.218   1.359   1.233 -1.4714  3.2901  0.0643
  498SOL    HW2 1494   1.086   1.415   1.321  0.2182 -0.7849  2.5768
  499SOL     OW 1495   0.626   1.810   0.337  0.2919 -0.5098 -0.3376
  499SOL    HW1 1496   0.657   1.751   0.256 -1.7608 -1.8085 -3.0816
  499SOL    HW2 1497   0.702   1.861   0.379 -0.9243  0.5689 -0.0231
  500SOL     OW 1498   1.519   2.878   1.673 -0.5958  0.2303  0.3371
  500SOL    HW1 1499   1.560   2.914   1.761 -0.4157 -1.3729 -0.5790
  500SOL    HW2 1500   1.591   2.822   1.617 -1.1149 -0.8862 -1.9033
  501SOL     OW 1501   0.785   1.160   2.293 -0.3416 -0.8296  0.1181
  501SOL    HW1 1502   0.720   1.086   2.301 -0.4581  0.9740  0.2039
  501SOL    HW2 1503   0.809   1.181   2.194  1.1501  0.8765 -2.3428
  502SOL     OW 1504   2.592   0.927   1.789  0.4868 -0.3843 -0.2009
  502SOL    HW1 1505   2.585   0.939   1.685  1.0296 -0.2194  0.8757
  502SOL    HW2 1506   2.599   0.831   1.815 -0.3081  0.4208 -1.4176
  503SOL     OW 1507   1.297   0.133   0.654 -0.0882  0.0562 -0.2886
  503SOL    HW1 1508   1.219   0.203   0.677 -1.4152  1.9843 -0.6458
  503SOL    HW2 1509   1.395   0.173   0.661  1.6161 -0.0016 -0.4885
  504SOL     OW 1510   3.038   2.305   1.527 -0.3919  0.0311 -0.0505
  504SOL    HW1 1511   3.000   2.391   1.570 -0.5951 -0.9929 -0.0746
  504SOL    HW2 1512   3.128   2.267   1.574  2.0595 -1.4220  2.7752
  505SOL     OW 1513   2.317   1.180   1.458  0.2397  0.4508 -0.5403
  505SOL    HW1 1514   2.271   1.181   1.363 -0.1980 -0.4618 -0.6283
  505SOL    HW2 1515   2.408   1.232   1.466 -1.9907 -1.9324 -2.5719
  506SOL     OW 1516   1.973   0.157   1.858 -0.2956  0.2949  0.3156
  506SOL    HW1 1517   2.065   0.127   1.827  0.7490  0.7932  0.3014
  506SOL    HW2 1518   1.974   0.261   1.872  1.6349  1.0625  0.1833
  507SOL     OW 1519   0.543   0.722   2.204  1.0661 -0.3705  0.4585
  507SOL    HW1 1520   0.479   0.713   2.126  1.7469  3.1810 -0.7734
  507SOL    HW2 1521   0.622   0.653   2.200  0.4087  4.0899 -1.2209
  508SOL     OW 1522   0.325   1.687   0.786  0.1074 -0.4095  0.0557
  508SOL    HW1 1523   0.353   1.737   0.695  0.7668  0.6896  1.2614
  508SOL    HW2 1524   0.316   1.752   0.871 -0.0412 -0.9812  1.3383
  509SOL     OW 1525   1.275   1.229   2.483  0.1020 -0.4475  0.4125
  509SOL    HW1 1526   1.304   1.221   2.380  1.0305  0.2574 -0.9504
  509SOL    HW2 1527   1.201   1.158   2.501 -0.8828  1.3781  1.3705
  510SOL     OW 1528   1.301   2.032   2.225  0.3309  0.6229  0.1403
  510SOL    HW1 1529   1.337   2.031   2.128  0.8092 -0.1635  0.7424
  510SOL    HW2 1530   1.223   1.968   2.244  3.7782  3.0422  0.0579
  511SOL     OW 1531   3.012   2.760   1.300  0.2627 -0.2323 -0.2020
  511SOL    HW1 1532   3.023   2.762   1.196 -1.8290  0.7177  0.3594
  511SOL    HW2 1533   2.916   2.718   1.324  0.1127 -1.1403 -0.8739
  512SOL     OW 1534   2.366   0.418   1.376  0.2071 -0.2215  0.2451
  512SOL    HW1 1535   2.275   0.453   1.336  2.1051  2.1592  0.4585
  512SOL    HW2 1536   2.436   0.401   1.297 -0.6533 -1.7662  1.2970
  513SOL     OW 1537   2.591   2.139   0.922  0.1628  0.3800  0.3227
  513SOL    HW1 1538   2.564   2.219   0.856  0.8012  1.4533  1.1539
  513SOL    HW2 1539   2.669   2.084   0.882 -0.1532  0.4185  1.5896
  514SOL     OW 1540   0.647   2.716   0.427  0.7210 -0.4454 -0.3147
  514SOL    HW1 1541   0.673   2.688   0.333 -0.6359  2.5864 -0.2789
  514SOL    HW2 1542   0.704   2.798   0.463  1.7068 -0.0442  1.1316
  515SOL     OW 1543   1.928   1.347   2.421 -0.3330  0.0769  0.2780
  515SOL    HW1 1544   1.928   1.304   2.323  0.2725  0.6481 -1.0061
  515SOL    HW2 1545   1.872   1.300   2.493  1.5215 -0.7143 -1.5974
  516SOL     OW 1546   0.252   0.269   1.876  0.1801  0.3291  0.2190
  516SOL    HW1 1547   0.347   0.239   1.877  0.8788  0.6458  0.6201
  516SOL    HW2 1548   0.181   0.194   1.854  0.8671  0.5745 -2.1737
  517SOL     OW 1549   0.474   0.179   1.163  0.1114 -0.8445  0.2289
  517SOL    HW1 1550   0.531   0.154   1.252 -1.1030 -0.8084  1.2039
  517SOL    HW2 1551   0.395   0.106   1.143 -2.9323 -1.2720 -0.2167
  518SOL     OW 1552   2.141   3.042   1.808  0.2847  0.6349 -0.4755
  518SOL    HW1 1553   2.191   3.140   1.807  1.7494  1.8180 -1.4274
  518SOL    HW2 1554   2.125   2.999   1.710  0.1259  1.4783 -1.3171
  519SOL     OW 1555   2.349   2.183   2.523 -0.2918 -0.0847 -0.1036
  519SOL    HW1 1556   2.329   2.157   2.621  0.6468 -3.4854 -1.6148
  519SOL    HW2 1557   2.357   2.285   2.498  0.1840 -0.4259 -1.8567
  520SOL     OW 1558   1.851   2.755   1.681 -0.5925  0.0437  0.2115
  520SOL    HW1 1559   1.802   2.680   1.727  3.1420 -0.0741 -2.2201
  520SOL    HW2 1560   1.948   2.720   1.650  0.4320  0.2014  1.1269
  521SOL     OW 1561   0.569   0.045   2.145 -0.8454  0.0252 -0.5928
  521SOL    HW1 1562   0.471   0.044   2.180 -0.1324 -1.3912 -0.2225
  521SOL    HW2 1563   0.644   0.039   2.221  1.3778 -2.5229  1.4569
  522SOL     OW 1564   0.236   1.870   1.466 -0.0607 -0.4852 -0.1546
  522SOL    HW1 1565   0.281   1.944   1.524  0.2688 -2.2249 -1.4467
  522SOL    HW2 1566   0.203   1.915   1.379 -1.6733  0.9461  0.5899
  523SOL     OW 1567   2.132   2.918   1.570 -0.1816  0.1096 -0.3302
  523SOL    HW1 1568   2.196   2.840   1.586 -1.5426 -2.6493 -1.7805
  523SOL    HW2 1569   2.061   2.898   1.495  0.1012 -0.8974  2.3395
  524SOL     OW 1570   0.210   2.753   2.792  0.1720  0.2833  0.1354
  524SOL    HW1 1571   0.191   2.833   2.850  2.8958 -1.6592 -1.4512
  524SOL    HW2 1572   0.310   2.758   2.761  2.4131 -0.8284 -0.1919
  525SOL     OW 1573   2.142   2.041   0.490 -0.1228 -0.1516 -0.8709
  525SOL    HW1 1574   2.136   1.986   0.581 -2.9356 -0.1471  1.1198
  525SOL    HW2 1575   2.194   1.995   0.416 -1.5334  0.5962  1.4886
  526SOL     OW 1576   0.434   1.535   1.774  0.3173  0.0456  0.4243
  526SOL    HW1 1577   0.433   1.546   1.880  0.0292 -3.9947  6.2820
  526SOL    HW2 1578   0.479   1.442   1.751 -0.2388 -1.1367  0.0043
  527SOL     OW 1579   1.051   2.942   1.215  0.2792 -0.1702  0.6161
  527SOL    HW1 1580   1.121   2.868   1.236  0.9891 -1.6845 -1.6800
  527SOL    HW2 1581   1.105   3.029   1.198 -2.1685  0.2530  1.0193
  528SOL     OW 1582   1.314   2.371   0.568  0.3168 -0.3960 -0.1873
  528SOL    HW1 1583   1.351   2.279   0.578 -0.3041 -1.9555  0.2338
  528SOL    HW2 1584   1.332   2.431   0.653 -0.1007 -1.5035 -1.3264
  529SOL     OW 1585   1.892   1.751   0.818 -0.0508 -0.2037 -0.3381
  529SOL    HW1 1586   1.856   1.758   0.719 -0.3588  1.2675 -0.2720
  529SOL    HW2 1587   1.944   1.839   0.848 -0.9751  0.8875 -1.7250
  530SOL     OW 1588   0.444   2.491   0.183  0.0008  0.0255  0.7336
  530SOL    HW1 1589   0.453   2.447   0.275  2.0602 -2.5339 -1.9821
  530SOL    HW2 1590   0.437   2.422   0.106 -1.6889 -1.5871 -1.2661
  531SOL     OW 1591   1.852   1.016   1.074  0.1824  0.6396 -0.5471
  531SOL    HW1 1592   1.807   0.989   0.980 -2.1084 -2.1373 -2.1593
  531SOL    HW2 1593   1.788   1.030   1.157  2.4413  2.4132  1.1367
  532SOL     OW 1594   0.370   1.179   0.722 -0.1430  0.7013 -0.2964
  532SOL    HW1 1595   0.370   1.186   0.619  0.0951  2.7519 -1.1792
  532SOL    HW2 1596   0.337   1.089   0.765 -1.3576  0.8285  2.4415
  533SOL     OW 1597   1.833   0.059   2.527  0.1923 -0.2488  0.1637
  533SOL    HW1 1598   1.938   0.033   2.533  1.1006 -0.6712  1.5573
  533SOL    HW2 1599   1.798   0.103   2.613 -0.0019 -3.2599 -0.0541
  534SOL     OW 1600   0.233   0.184   1.545  0.5686 -0.0514 -0.5183
  534SOL    HW1 1601   0.310   0.250   1.529 -1.0959  2.4272 -2.4841
  534SOL    HW2 1602   0.149   0.232   1.574  0.5521 -0.5848 -0.3255
  535SOL     OW 1603   1.908   0.389   0.192  0.1623 -0.2384  0.1243
  535SOL    HW1 1604   1.974   0.461   0.227 -1.6050 -5.5541  1.5974
  535SOL    HW2 1605   1.853   0.338   0.260 -0.2632 -1.6837  0.0863
  536SOL     OW 1606   1.240   2.593   0.983  0.3182  0.9750 -0.6636
  536SOL    HW1 1607   1.306   2.523   1.018 -0.4078  2.4155 -2.1314
  536SOL    HW2 1608   1.250   2.609   0.879 -1.6434 -0.2837 -3.1138
  537SOL     OW 1609   0.897   0.203   2.346  0.1172 -0.0403  0.1480
  537SOL    HW1 1610   0.910   0.258   2.255  4.0209 -3.1463 -1.0211
  537SOL    HW2 1611   0.812   0.145   2.356  0.7887  1.5308  2.1891
  538SOL     OW 1612   1.695   2.342   1.542 -0.3973 -0.0257 -0.2548
  538SOL    HW1 1613   1.660   2.264   1.480  0.2546  2.9716 -2.4475
  538SOL    HW2 1614   1.779   2.391   1.510  0.4381 -0.2553 -2.2443
  539SOL     OW 1615   0.184   1.634   2.702  0.0802  0.2742  0.0138
  539SOL    HW1 1616   0.104   1.607   2.649  4.2669  1.2305  2.4904
  539SOL    HW2 1617   0.169   1.729   2.729 -2.0808 -1.9438 -0.2046
  540SOL     OW 1618   2.702   1.724   2.036  0.4671 -0.0311 -0.2979
  540SOL    HW1 1619   2.652   1.636   2.018 -1.2548 -2.0894 -1.3796
  540SOL    HW2 1620   2.647   1.810   2.032 -4.3113 -2.3556 -0.0863
  541SOL     OW 1621   0.455   2.298   3.064  0.4726 -0.1330 -0.1757
  541SOL    HW1 1622   0.471   2.201   3.092 -1.2094 -0.2543 -0.1765
  541SOL    HW2 1623   0.360   2.298   3.019  1.0709 -1.5356  2.5496
  542SOL     OW 1624   2.189   2.609   0.488 -0.0271 -0.2302  0.1028
  542SOL    HW1 1625   2.161   2.695   0.447  0.0683 -2.6173  1.3197
  542SOL    HW2 1626   2.112   2.541   0.519 -0.8181  0.6411  3.4650
  543SOL     OW 1627   1.009   1.787   1.723 -0.5382 -0.3345 -0.5183
  543SOL    HW1 1628   1.029   1.820   1.818 -0.3949 -0.5163 -1.0939
  543SOL    HW2 1629   0.936   1.847   1.671 -1.2813  2.5877  0.1614
  544SOL     OW 1630   0.877   0.430   0.158  0.2494 -0.5412  0.2414
  544SOL    HW1 1631   0.947   0.392   0.224  1.1629  2.9834  0.5023
  544SOL    HW2 1632   0.908   0.410   0.061  1.0882  1.2802  1.4176
  545SOL     OW 1633   1.156   1.697   0.617  0.0633 -0.1888 -0.4476
  545SOL    HW1 1634   1.245   1.722   0.664  0.3848 -1.0848 -0.6916
  545SOL    HW2 1635   1.146   1.741   0.522  0.7613  0.1808  0.0371
  546SOL     OW 1636   2.666   1.551   0.019  0.4526 -0.0378 -0.4348
  546SOL    HW1 1637   2.683   1.544  -0.081  0.6367 -0.6899  3.2551
  546SOL    HW2 1638   2.580   1.515   0.053 -0.3781 -0.7108  0.3188
  547SOL     OW 1639   0.547   0.023   2.804  0.2087  0.0495  0.0717
  547SOL    HW1 1640   0.550  -0.042   2.726 -1.8744  2.8410  2.1865
  547SOL    HW2 1641   0.532  -0.031   2.894  2.2465  2.0349 -1.4161
  548SOL     OW 1642   2.061   0.835   3.012 -0.3675  0.4013  0.2766
  548SOL    HW1 1643   1.972   0.791   3.044  0.6219  2.5504  2.2066
  548SOL    HW2 1644   2.076   0.931   3.058  1.2533 -0.2662  1.4287
  549SOL     OW 1645   0.600   0.393   0.128  0.4510 -0.3026  0.4052
  549SOL    HW1 1646   0.606   0.471   0.062  4.1729 -0.5130  0.7634
  549SOL    HW2 1647   0.685   0.391   0.180  1.3080  1.1155 -1.0435
  550SOL     OW 1648   2.521   2.876   2.878  0.3138 -0.3381  0.2751
  550SOL    HW1 1649   2.509   2.793   2.934  0.8783 -3.5642 -1.0339
  550SOL    HW2 1650   2.547   2.864   2.779  0.3574  0.9843  0.8987
  551SOL     OW 1651   0.240   0.805   0.180  0.1737  0.7205 -0.4010
  551SOL    HW1 1652   0.345   0.796   0.167  0.5365  1.6651  0.9940
  551SOL    HW2 1653   0.212   0.828   0.278 -1.0047 -1.4737 -2.6418
  552SOL     OW 1654   0.814   2.810   1.849 -0.6768 -0.6248  0.1093
  552SOL    HW1 1655   0.811   2.811   1.955 -0.9184 -0.8036 -1.2519
  552SOL    HW2 1656   0.869   2.898   1.811  1.4714 -0.8490 -0.1652
  553SOL     OW 1657   3.052   2.551   0.398  0.0117 -0.0415 -0.6318
  553SOL    HW1 1658   3.017   2.459   0.366 -1.8433 -0.3581  0.9461
  553SOL    HW2 1659   3.011   2.572   0.490 -1.9703 -1.5340 -0.9838
  554SOL     OW 1660   2.150   0.271   0.566  0.4566  0.6635  0.4100
  554SOL    HW1 1661   2.207   0.209   0.506  2.7271  0.0761 -1.5377
  554SOL    HW2 1662   2.130   0.225   0.656  1.0056  1.2465 -1.8644
  555SOL     OW 1663   0.448   2.917   2.436 -0.6212 -0.6573 -0.0496
  555SOL    HW1 1664   0.349   2.949   2.423 -1.5568  0.2770  0.8175
  555SOL    HW2 1665   0.482   2.879   2.346 -0.4773  2.1567 -2.8542
  556SOL     OW 1666   0.913   2.292   1.688  0.2212  0.4859  0.2559
  556SOL    HW1 1667   0.919   2.391   1.725 -2.6555  3.3103 -2.2084
  556SOL    HW2 1668   0.972   2.277   1.603 -1.7419 -0.2869 -0.1374
  557SOL     OW 1669   0.171   2.138   0.116 -0.0434 -0.0653  0.2044
  557SOL    HW1 1670   0.114   2.052   0.103 -0.0461  1.7082 -0.5922
  557SOL    HW2 1671   0.179   2.187   0.023  0.1257 -2.7440 -1.0654
  558SOL     OW 1672   2.965   2.323   0.301 -0.7739 -0.3093  0.8303
  558SOL    HW1 1673   2.865   2.345   0.315  1.0817 -0.7095 -0.7101
  558SOL    HW2 1674   2.987   2.330   0.197  1.4129 -1.9553  0.1753
  559SOL     OW 1675   0.439   2.216   1.351 -0.4463  0.1883  0.3257
  559SOL    HW1 1676   0.357   2.249   1.298 -1.3020 -2.3459  1.7701
  559SOL    HW2 1677   0.501   2.153   1.291  1.2391 -0.4635 -0.6716
  560SOL     OW 1678   2.068   1.134   3.102  0.3804  0.0656 -0.3254
  560SOL    HW1 1679   2.079   1.185   3.010  0.4837  1.6616 -0.0036
  560SOL    HW2 1680   1.980   1.150   3.155 -0.8042 -2.5579  1.1155
  561SOL     OW 1681   3.052   1.917   0.029  0.5629  0.3508 -0.5480
  561SOL    HW1 1682   2.980   1.839   0.016 -3.8349 -0.0369 -2.1003
  561SOL    HW2 1683   3.017   2.006  -0.018 -0.3625 -0.0317 -2.4647
  562SOL     OW 1684   0.864   2.172   2.427 -0.1252 -0.2050 -0.9103
  562SOL    HW1 1685   0.764   2.168   2.408  0.7291 -1.8652 -1.0136
  562SOL    HW2 1686   0.874   2.192   2.532  1.0539 -0.8395 -0.2267
  563SOL     OW 1687   0.708   2.546   2.550 -1.0294 -0.0078  0.8633
  563SOL    HW1 1688   0.790   2.480   2.544  1.1949 -2.1361 -1.0625
  563SOL    HW2 1689   0.688   2.584   2.647  0.2145  2.1469  0.2695
  564SOL     OW 1690   2.730   1.309   2.837 -0.3964  0.0061  0.0565
  564SOL    HW1 1691   2.665   1.302   2.920 -0.7337 -0.0806  0.6870
  564SOL    HW2 1692   2.783   1.400   2.829  0.0844  0.6951 -1.1067
  565SOL     OW 1693   2.523   1.972   2.590  0.7766 -0.4097  0.1575
  565SOL    HW1 1694   2.480   2.058   2.551 -2.3153 -2.0758  0.0171
  565SOL    HW2 1695   2.592   1.990   2.663 -2.1946  0.1436  0.6731
  566SOL     OW 1696   1.965   2.869   1.365 -0.3829  0.0499  0.0929
  566SOL    HW1 1697   1.958   2.770   1.381  0.9016 -1.2461 -1.2769
  566SOL    HW2 1698   2.020   2.889   1.280 -0.2745  0.7466  0.3240
  567SOL     OW 1699   2.467   0.143   2.231  0.2150 -0.5250 -0.1980
  567SOL    HW1 1700   2.497   0.118   2.137  0.4751 -0.2173  1.5347
  567SOL    HW2 1701   2.368   0.176   2.242  0.2543 -0.9938 -0.9817
  568SOL     OW 1702   1.490   1.831   0.400  0.0439  0.2768 -0.6594
  568SOL    HW1 1703   1.481   1.880   0.308  3.0978 -2.4231  1.2564
  568SOL    HW2 1704   1.538   1.889   0.465  1.4832  0.1457 -1.9487
  569SOL     OW 1705   0.323   0.639   0.800  0.2028 -0.1631 -0.2405
  569SOL    HW1 1706   0.398   0.577   0.754  0.1920  0.5612  2.0473
  569SOL    HW2 1707   0.224   0.620   0.757 -0.8203 -1.3543  1.0561
  570SOL     OW 1708   0.594   0.771   2.834  0.4740 -0.3076 -0.1371
  570SOL    HW1 1709   0.666   0.760   2.758 -0.2091  0.8735  1.4472
  570SOL    HW2 1710   0.589   0.872   2.866 -3.6383  1.1871 -1.0812
  571SOL     OW 1711   0.808   3.036   1.099 -0.1074  0.1761 -0.2451
  571SOL    HW1 1712   0.857   3.108   1.043  0.7092  0.4951 -0.4307
  571SOL    HW2 1713   0.882   2.984   1.151  1.7161 -0.3662  0.3412
  572SOL     OW 1714   1.545   2.569   1.158  0.3878  0.2072  0.0507
  572SOL    HW1 1715   1.476   2.529   1.230 -1.6150 -0.4412 -1.3167
  572SOL    HW2 1716   1.523   2.670   1.131 -2.7145  1.9741 -0.4326
  573SOL     OW 1717   2.945   0.417   2.084 -0.2911 -0.1047 -0.0981
  573SOL    HW1 1718   2.905   0.323   2.110  0.0422 -3.9419  0.8176
  573SOL    HW2 1719   2.875   0.493   2.059 -0.0677  0.2977  1.0789
  574SOL     OW 1720   0.235   1.796   1.033 -0.4282 -0.3940 -0.6519
  574SOL    HW1 1721   0.197   1.888   0.998 -1.5747 -0.7364  0.8660
  574SOL    HW2 1722   0.153   1.744   1.082  0.0421 -1.0777 -0.9773
  575SOL     OW 1723   0.888   2.143   1.007 -0.2884  0.1877 -0.3703
  575SOL    HW1 1724   0.895   2.146   1.109  1.6059 -1.2329 -0.2538
  575SOL    HW2 1725   0.926   2.228   0.964 -0.2867 -1.9242 -0.9320
  576SOL     OW 1726   2.910   2.941   1.737 -0.3751  0.0317 -0.5484
  576SOL    HW1 1727   2.854   2.890   1.666  2.2498  0.9783  1.0557
  576SOL    HW2 1728   2.951   3.032   1.706 -0.2149 -0.2055  1.1530
  577SOL     OW 1729   2.567   1.262   3.054 -0.0950 -0.1493  0.4291
  577SOL    HW1 1730   2.544   1.163   3.019  2.0583  0.4487  2.7037
  577SOL    HW2 1731   2.629   1.258   3.135 -1.5676  0.3776 -2.5419
  578SOL     OW 1732   1.319   2.679   2.549 -0.1218 -0.4296 -0.3938
  578SOL    HW1 1733   1.240   2.664   2.482 -1.3970  0.4727 -0.8303
  578SOL    HW2 1734   1.337   2.777   2.553 -0.2916 -2.4171  2.0368
  579SOL     OW 1735   0.127   2.503   0.185  0.2658 -0.8440  0.1477
  579SOL    HW1 1736   0.061   2.526   0.262  2.1124 -1.6786  0.5341
  579SOL    HW2 1737   0.203   2.444   0.218 -0.2281 -2.0000  0.1529
  580SOL     OW 1738   1.007   2.645   0.361 -0.0142  0.1344  0.3059
  580SOL    HW1 1739   1.079   2.670   0.293 -1.3752  2.8322  2.0452
  580SOL    HW2 1740   0.929   2.594   0.315  1.2931  1.0110 -1.2144
  581SOL     OW 1741   1.191   2.617   1.504  0.1795 -0.0957  0.0573
  581SOL    HW1 1742   1.250   2.533   1.507  1.4552  1.0622 -2.4649
  581SOL    HW2 1743   1.243   2.692   1.457  2.2529 -1.2014 -1.7443
  582SOL     OW 1744   1.480   0.044   1.853  0.2007  0.1114  0.0148
  582SOL    HW1 1745   1.467   0.134   1.902 -0.5410  1.0627  1.0097
  582SOL    HW2 1746   1.563   0.046   1.797 -1.5812  0.6226 -0.6557
  583SOL     OW 1747   2.448   3.009   0.606  0.0443  0.2059 -0.0265
  583SOL    HW1 1748   2.512   2.948   0.553  0.2991  0.0960 -1.1021
  583SOL    HW2 1749   2.389   2.943   0.664 -0.2485  1.8735  0.3035
  584SOL     OW 1750   1.573   0.999   2.132  0.1620  0.1500  0.1757
  584SOL    HW1 1751   1.621   1.042   2.052  0.4807 -0.0025  1.3803
  584SOL    HW2 1752   1.630   0.984   2.218 -3.4615  0.8153  0.5766
  585SOL     OW 1753   2.110   2.647   2.919 -0.2660 -0.2891 -0.4748
  585SOL    HW1 1754   2.158   2.578   2.866 -0.2124  3.8616  1.1811
  585SOL    HW2 1755   2.017   2.674   2.885 -2.5814 -0.7527 -1.7281
  586SOL     OW 1756   2.752   0.236   1.549 -0.4707  0.2815  0.3262
  586SOL    HW1 1757   2.776   0.319   1.612  1.8768  2.3800  1.2113
  586SOL    HW2 1758   2.669   0.183   1.566  0.7297 -0.1296  0.5637
  587SOL     OW 1759   1.972   1.648   2.734 -0.2614  0.1450 -0.2860
  587SOL    HW1 1760   2.034   1.609   2.668 -1.4180  0.7745  3.6268
  587SOL    HW2 1761   1.990   1.617   2.832  0.4561  0.1836  0.8397
  588SOL     OW 1762   0.479   2.733   2.248  0.4125  0.3294 -0.2983
  588SOL    HW1 1763   0.386   2.729   2.208  1.7903 -0.9555  1.2556
  588SOL    HW2 1764   0.489   2.650   2.314 -0.7207  0.8515  1.5238
  589SOL     OW 1765   2.145   1.445   2.555 -0.4350 -0.0725  0.6732
  589SOL    HW1 1766   2.069   1.398   2.503  2.5259 -0.5635 -2.2821
  589SOL    HW2 1767   2.226   1.384   2.564  2.2608 -0.8357 -0.3129
  590SOL     OW 1768   2.356   1.689   1.987  0.6086  0.3118  0.4701
  590SOL    HW1 1769   2.442   1.630   1.984 -0.0504 -1.6608  1.6039
  590SOL    HW2 1770   2.345   1.739   2.075  2.4541  0.3897  0.1687
  591SOL     OW 1771   1.364   2.462   0.291  0.1240  0.0316  0.2127
  591SOL    HW1 1772   1.445   2.433   0.236  0.7644  3.0220  0.6002
  591SOL    HW2 1773   1.360   2.410   0.379  0.8418  2.4518 -0.0709
  592SOL     OW 1774   1.688   2.334   0.784  0.3671 -0.1593 -0.0674
  592SOL    HW1 1775   1.676   2.366   0.689  0.2170 -2.4707  0.0384
  592SOL    HW2 1776   1.793   2.331   0.809 -0.4430  1.3093 -2.9444
  593SOL     OW 1777   0.620   0.159   0.007  0.4987 -0.1092  1.3839
  593SOL    HW1 1778   0.697   0.163  -0.055 -3.5886 -0.9253 -2.0579
  593SOL    HW2 1779   0.599   0.252   0.049  0.1580 -0.7115  0.1653
  594SOL     OW 1780   0.927   1.993   2.676 -0.1193 -0.5451 -0.0118
  594SOL    HW1 1781   1.014   2.046   2.693  0.5483 -1.8291 -0.4250
  594SOL    HW2 1782   0.853   2.019   2.746  2.7212  0.1513  2.3619
  595SOL     OW 1783   1.552   0.035   1.090 -0.4053 -0.7067 -0.5223
  595SOL    HW1 1784   1.646  -0.000   1.054 -1.5645  1.5261 -1.8654
  595SOL    HW2 1785   1.468   0.006   1.033 -0.2864  0.5974  0.7739
  596SOL     OW 1786   0.003   1.389   2.239  0.0242  0.1904 -0.7261
  596SOL    HW1 1787  -0.093   1.417   2.260  0.3283 -1.1734  4.6061
  596SOL    HW2 1788   0.048   1.355   2.331  2.2382 -1.5073  3.9384
  597SOL     OW 1789   2.094   2.616   1.657 -0.4992 -0.0666 -0.1850
  597SOL    HW1 1790   2.069   2.541   1.593 -2.2533  0.5462 -0.4152
  597SOL    HW2 1791   2.161   2.586   1.728  1.2067 -2.9333  2.3420
  598SOL     OW 1792   2.518   2.896   1.264 -0.6040 -0.1059  0.5520
  598SOL    HW1 1793   2.584   2.943   1.333 -2.1293  0.1417  3.6743
  598SOL    HW2 1794   2.543   2.917   1.162  2.2937  0.2018 -1.1438
  599SOL     OW 1795   2.912   0.369   2.474  0.0163  0.5921  0.0416
  599SOL    HW1 1796   2.985   0.409   2.411  0.9235 -3.8308 -1.8166
  599SOL    HW2 1797   2.822   0.356   2.428 -0.4897 -1.0375 -0.7940
  600SOL     OW 1798   2.819   1.086   2.727  0.0303  0.1800  0.2056
  600SOL    HW1 1799   2.773   1.002   2.759  0.1700 -1.4175  0.7667
  600SOL    HW2 1800   2.766   1.174   2.760  0.2814  1.8851  1.2109
  601SOL     OW 1801   3.007   1.241   2.024 -0.4817  0.1912  0.0958
  601SOL    HW1 1802   2.941   1.312   1.996  2.5286 -2.3285 -0.3153
  601SOL    HW2 1803   3.078   1.273   2.092  2.4815  1.3651 -1.9029
  602SOL     OW 1804   1.526   1.729   2.370 -0.3906  0.1878 -0.5220
  602SOL    HW1 1805   1.482   1.630   2.355 -1.3254  0.1349 -0.0468
  602SOL    HW2 1806   1.621   1.723   2.415 -1.3780 -1.6040 -2.4890
  603SOL     OW 1807   0.642   1.262   2.688 -0.2246 -0.3127  0.4820
  603SOL    HW1 1808   0.574   1.232   2.615 -1.6082  0.5452 -2.7666
  603SOL    HW2 1809   0.729   1.205   2.675  0.1845 -0.2461  0.0880
  604SOL     OW 1810   2.413   0.968   0.173  0.1821  0.0976 -0.5703
  604SOL    HW1 1811   2.498   1.019   0.141 -1.0580  0.2221 -0.7245
  604SOL    HW2 1812   2.395   0.877   0.122 -0.8350 -2.4241 -0.6283
  605SOL     OW 1813   2.690   1.130   1.950  0.1390  0.2579  0.4102
  605SOL    HW1 1814   2.645   1.059   1.891  0.8527  5.1610  0.8787
  605SOL    HW2 1815   2.689   1.110   2.050  0.3310 -0.4598 -0.3905
  606SOL     OW 1816   1.525   2.535   2.613 -0.3222 -0.6321  0.2436
  606SOL    HW1 1817   1.454   2.603   2.581 -2.3639  0.4090 -0.9804
  606SOL    HW2 1818   1.510   2.440   2.575 -1.3344  3.0701 -0.9821
  607SOL     OW 1819   1.356   1.581   0.439 -0.2824  0.5785 -0.0032
  607SOL    HW1 1820   1.284   1.578   0.514  2.6223  0.0537  1.2874
  607SOL    HW2 1821   1.408   1.666   0.428 -1.1771 -1.2982 -2.9507
  608SOL     OW 1822   1.419   2.892   0.456 -0.4033 -0.1076  0.3845
  608SOL    HW1 1823   1.490   2.924   0.389 -0.6373 -0.3124 -1.8540
  608SOL    HW2 1824   1.341   2.959   0.469 -0.8562  0.1162  0.9258
  609SOL     OW 1825   1.290   1.374   0.276 -0.5803  0.2185 -0.0129
  609SOL    HW1 1826   1.323   1.458   0.333  0.9951 -0.0524  1.9758
  609SOL    HW2 1827   1.189   1.364   0.276  2.6256  0.3474  1.2690
  610SOL     OW 1828   2.959   1.114   2.290 -0.0222  0.3014 -0.2256
  610SOL    HW1 1829   2.948   1.011   2.291 -0.9019  1.8619 -0.4142
  610SOL    HW2 1830   2.975   1.152   2.197 -0.0440 -1.5067 -0.1314
  611SOL     OW 1831   2.517   0.306   1.154 -0.0721 -0.4557 -0.1923
  611SOL    HW1 1832   2.468   0.214   1.180  1.7408 -2.2209 -0.9542
  611SOL    HW2 1833   2.609   0.315   1.200  0.5783 -0.1578 -0.4307
  612SOL     OW 1834   0.751   2.195   1.263  0.4893  0.4333 -0.0558
  612SOL    HW1 1835   0.692   2.120   1.221 -1.6309 -0.0379 -0.2280
  612SOL    HW2 1836   0.715   2.288   1.231 -0.7906 -0.3477  1.1599
  613SOL     OW 1837   0.895   1.463   2.371 -0.3963  0.5732  0.3539
  613SOL    HW1 1838   0.975   1.504   2.320  0.4531  1.2344  1.0185
  613SOL    HW2 1839   0.836   1.396   2.317  1.3204 -3.5103 -1.7033
  614SOL     OW 1840   1.664   1.594   1.820  0.0939  0.5211  0.2467
  614SOL    HW1 1841   1.656   1.698   1.815 -2.4809 -0.3833  0.6939
  614SOL    HW2 1842   1.722   1.563   1.900  0.2612  0.6021  1.2389
  615SOL     OW 1843   0.816   1.280   1.723  1.1541  0.6201 -0.1507
  615SOL    HW1 1844   0.773   1.232   1.638 -1.8760 -1.0484 -1.8744
  615SOL    HW2 1845   0.837   1.380   1.699  0.8873  5.2672 -1.3365
  616SOL     OW 1846   1.113   1.545   2.200  0.2592  0.6420  0.1657
  616SOL    HW1 1847   1.021   1.534   2.148 -3.1659 -0.9541  0.2987
  616SOL    HW2 1848   1.137   1.647   2.203  0.3230  2.4770 -1.2656
  617SOL     OW 1849   2.971   1.547   1.625 -0.6986 -0.7023 -0.5137
  617SOL    HW1 1850   2.937   1.469   1.683  2.2515 -0.4664  2.1380
  617SOL    HW2 1851   3.017   1.518   1.532  2.2768 -2.5378 -0.9456
  618SOL     OW 1852   1.875   2.097   1.366 -0.1806 -0.4355 -0.5237
  618SOL    HW1 1853   1.853   2.179   1.305 -1.1502  2.2107  1.5165
  618SOL    HW2 1854   1.868   2.010   1.318  1.6379  0.0785  0.6018
  619SOL     OW 1855   1.758   0.462   2.379 -0.1041 -0.3224 -0.6412
  619SOL    HW1 1856   1.690   0.526   2.335  0.4707 -1.0770  0.9656
  619SOL    HW2 1857   1.729   0.365   2.359  0.6639  1.3508  3.8126
  620SOL     OW 1858   2.295   2.858   0.776  0.0563  0.6205 -0.3767
  620SOL    HW1 1859   2.232   2.925   0.812  3.2102  0.6025 -1.6186
  620SOL    HW2 1860   2.324   2.784   0.847  0.3348 -0.1136  1.9944
  621SOL     OW 1861   2.131   1.854   1.350 -0.6814 -0.9448 -0.1988
  621SOL    HW1 1862   2.153   1.871   1.451  2.0987 -1.2653  0.7797
  621SOL    HW2 1863   2.079   1.765   1.340  0.4515 -0.3180  0.3441
  622SOL     OW 1864   2.327   0.949   1.855 -0.5376 -0.4869 -0.1800
  622SOL    HW1 1865   2.427   0.936   1.825 -3.5338  0.9308 -0.3236
  622SOL    HW2 1866   2.286   0.860   1.892 -3.8132 -1.0752 -1.0907
  623SOL     OW 1867   1.333   0.791   2.442  0.3699 -0.0603 -0.2984
  623SOL    HW1 1868   1.246   0.745   2.456  2.0883  2.3877 -2.7279
  623SOL    HW2 1869   1.340   0.863   2.371  2.1824 -0.0676  0.3672
  624SOL     OW 1870   0.536   0.636   3.084 -0.0153  0.2123 -0.0755
  624SOL    HW1 1871   0.567   0.673   2.993 -2.6535  0.4494  0.9615
  624SOL    HW2 1872   0.530   0.712   3.150  3.8832 -1.7906 -0.9459
  625SOL     OW 1873   2.787   1.710   1.013  0.2476 -0.1337 -0.4627
  625SOL    HW1 1874   2.694   1.751   0.986 -0.0332  0.4243  1.7577
  625SOL    HW2 1875   2.860   1.782   1.031 -0.5584 -2.0262 -1.1315
  626SOL     OW 1876   0.623   2.690   1.713 -0.2568 -0.5203  0.1218
  626SOL    HW1 1877   0.687   2.744   1.775  0.8353 -0.3662 -2.3081
  626SOL    HW2 1878   0.526   2.699   1.740  0.9653 -2.6696  0.8458
  627SOL     OW 1879   0.644   0.883   1.580 -0.0144  0.2539 -0.1804
  627SOL    HW1 1880   0.576   0.836   1.512 -2.8506  0.0766 -2.4765
  627SOL    HW2 1881   0.733   0.914   1.530 -0.2529 -1.0237  1.0992
  628SOL     OW 1882   2.428   0.145   0.698 -0.0321 -0.2000 -0.1875
  628SOL    HW1 1883   2.458   0.054   0.649  0.4582  0.5655  0.1333
  628SOL    HW2 1884   2.331   0.134   0.741 -1.0249  0.9336 -0.5066
  629SOL     OW 1885   1.900   0.913   1.983  0.0476 -0.6457  0.0792
  629SOL    HW1 1886   1.901   0.980   1.904 -0.0796 -1.4193  1.5281
  629SOL    HW2 1887   1.888   0.956   2.076 -0.8036  3.0209 -1.8489
  630SOL     OW 1888   2.906   2.310   0.778 -0.1023  0.7761 -0.0653
  630SOL    HW1 1889   2.831   2.379   0.770  2.5445  1.5498  1.4473
  630SOL    HW2 1890   2.878   2.221   0.733 -0.7947  2.6935  0.7175
  631SOL     OW 1891   3.086   0.132   2.168 -0.9758  0.3380  0.2931
  631SOL    HW1 1892   3.163   0.188   2.215  1.1052  1.6054 -0.4608
  631SOL    HW2 1893   3.099   0.132   2.066 -2.2588 -1.7333  2.6152
  632SOL     OW 1894   2.432   2.568   0.584  0.2096 -0.1917  0.5016
  632SOL    HW1 1895   2.474   2.658   0.617  1.4661  1.6891 -0.1115
  632SOL    HW2 1896   2.333   2.587   0.548  2.8185  2.2496  0.3162
  633SOL     OW 1897   1.469   1.193   2.685  0.3280 -0.1338  0.0746
  633SOL    HW1 1898   1.448   1.280   2.732  1.1226  0.5845  1.3522
  633SOL    HW2 1899   1.405   1.188   2.605  2.7039 -2.0053 -0.3744
  634SOL     OW 1900   0.640   2.038   0.918 -0.1600 -0.4956  0.0999
  634SOL    HW1 1901   0.542   2.080   0.920 -0.2361 -0.2888  2.5316
  634SOL    HW2 1902   0.717   2.094   0.963 -1.1971  0.9250  0.3051
  635SOL     OW 1903   3.015   2.389   0.028 -0.5530 -0.2936  0.2721
  635SOL    HW1 1904   2.949   2.441  -0.033 -0.7278  1.0708 -0.6292
  635SOL    HW2 1905   3.105   2.435   0.053  0.1355  0.7470  1.0908
  636SOL     OW 1906   2.402   2.748   1.995  0.1778  0.4416 -0.3023
  636SOL    HW1 1907   2.390   2.849   2.010  0.8217  1.3132 -1.6836
  636SOL    HW2 1908   2.336   2.696   2.061  0.6744 -0.8061 -2.2193
  637SOL     OW 1909   2.765   0.606   1.981  0.1520  0.2600  0.0069
  637SOL    HW1 1910   2.699   0.605   1.896  1.4086 -0.0989 -6.4611
  637SOL    HW2 1911   2.828   0.688   1.983  0.0558  0.3158 -2.0513
  638SOL     OW 1912   2.439   1.850   1.294  0.4197 -0.1867  0.0540
  638SOL    HW1 1913   2.335   1.858   1.286 -0.2946  0.3168 -0.8492
  638SOL    HW2 1914   2.468   1.782   1.365  0.4936  0.8685 -0.8664
  639SOL     OW 1915   1.319   2.213   1.682 -0.0757 -0.0587  0.2384
  639SOL    HW1 1916   1.358   2.309   1.681 -1.2338 -0.3544  1.4839
  639SOL    HW2 1917   1.255   2.191   1.765  1.2440 -1.8338 -0.8463
  640SOL     OW 1918   0.186   1.192   1.548  0.2118  0.1647  0.1099
  640SOL    HW1 1919   0.190   1.205   1.650  0.5404 -2.5546 -2.7988
  640SOL    HW2 1920   0.238   1.114   1.507 -2.4807  1.2420 -0.1363
  641SOL     OW 1921   1.963   0.270   1.487  0.4267  0.1227 -0.2707
  641SOL    HW1 1922   1.879   0.296   1.543 -0.0585  0.2388 -0.0763
  641SOL    HW2 1923   2.028   0.208   1.535 -3.1848  1.0061 -1.7331
  642SOL     OW 1924   2.033   0.080   0.372 -0.4125 -0.1539  0.1374
  642SOL    HW1 1925   2.135   0.070   0.396  0.6400  2.6280  0.2915
  642SOL    HW2 1926   1.985   0.127   0.451  1.6184  2.1965  0.4352
  643SOL     OW 1927   2.900   1.850   2.163  0.4445 -0.1698 -0.4003
  643SOL    HW1 1928   2.830   1.777   2.136  1.6069 -2.5755 -2.0123
  643SOL    HW2 1929   2.897   1.930   2.094  1.0362 -1.1257 -1.2345
  644SOL     OW 1930   2.292   2.428   1.243  0.1272  0.1412 -0.0549
  644SOL    HW1 1931   2.339   2.345   1.199  0.1521  0.5865 -1.7980
  644SOL    HW2 1932   2.244   2.407   1.338 -2.8213  1.9879 -2.0782
  645SOL     OW 1933   0.605   0.823   1.237 -0.7066  0.2127  0.3394
  645SOL    HW1 1934   0.511   0.779   1.249  1.6508 -0.5381  1.0599
  645SOL    HW2 1935   0.625   0.851   1.140  1.2315 -1.4188  4.6838
  646SOL     OW 1936   1.498   1.821   2.049  0.2031 -0.3207 -0.2326
  646SOL    HW1 1937   1.572   1.849   1.983  0.3214 -2.1631 -0.1345
  646SOL    HW2 1938   1.526   1.812   2.149 -0.3797 -0.7928  0.8020
  647SOL     OW 1939   0.836   1.099   0.663  0.2447 -0.1260 -0.5727
  647SOL    HW1 1940   0.884   1.123   0.747  2.8716  0.7123 -3.1307
  647SOL    HW2 1941   0.757   1.034   0.672 -0.1779  0.0645  1.8413
  648SOL     OW 1942   0.152   0.253   0.300 -0.1990  0.4400 -0.2611
  648SOL    HW1 1943   0.140   0.169   0.243  0.6568  2.6503 -1.1594
  648SOL    HW2 1944   0.134   0.344   0.247  1.3979  0.9817 -3.2208
  649SOL     OW 1945   3.027   0.198   0.775 -0.4104 -0.8803  0.3362
  649SOL    HW1 1946   3.119   0.157   0.757  0.0439 -3.1834  1.0136
  649SOL    HW2 1947   3.042   0.292   0.813  1.3840 -1.3669  0.5796
  650SOL     OW 1948   2.728   0.660   1.536 -0.8393 -0.2859  0.3114
  650SOL    HW1 1949   2.632   0.626   1.521  2.7774 -2.3625  0.6006
  650SOL    HW2 1950   2.750   0.752   1.486  1.2366  0.8992  3.9159
  651SOL     OW 1951   0.874   1.543   1.674  0.0649  0.0969  0.0558
  651SOL    HW1 1952   0.905   1.625   1.730  0.6796 -0.4145  3.0691
  651SOL    HW2 1953   0.940   1.518   1.597  0.7437  1.1845  1.6446
  652SOL     OW 1954   2.399   2.475   2.464  0.3448 -0.6467  0.2665
  652SOL    HW1 1955   2.304   2.502   2.484  2.2947 -1.4435 -0.7936
  652SOL    HW2 1956   2.432   2.498   2.369 -1.2301 -0.6323  1.3561
  653SOL     OW 1957   2.738   1.248   0.185  0.0963 -0.3647 -0.4153
  653SOL    HW1 1958   2.746   1.337   0.238  0.4355 -1.9876  0.5590
  653SOL    HW2 1959   2.786   1.169   0.232  0.5956  0.7098  0.6405
  654SOL     OW 1960   1.272   2.177   1.286 -0.0404  0.0374  0.4793
  654SOL    HW1 1961   1.281   2.093   1.350 -2.7606  0.3573 -1.7719
  654SOL    HW2 1962   1.274   2.160   1.184 -0.0786  1.2406  3.0016
  655SOL     OW 1963   0.171   0.961   1.889  0.6742 -0.3378 -0.3157
  655SOL    HW1 1964   0.248   0.899   1.849  2.3467  0.2169 -3.3279
  655SOL    HW2 1965   0.182   1.065   1.879 -0.9634 -0.2596  3.1830
  656SOL     OW 1966   2.575   2.567   2.650 -0.3682  0.2448  0.2824
  656SOL    HW1 1967   2.667   2.528   2.641 -0.8335 -0.5388  0.4912
  656SOL    HW2 1968   2.503   2.521   2.590 -0.5175 -0.7973  1.2681
  657SOL     OW 1969   3.012   1.060   1.820 -0.2392 -0.5903 -0.2619
  657SOL    HW1 1970   3.000   1.142   1.889 -1.6519 -0.9794 -2.8867
  657SOL    HW2 1971   3.104   1.018   1.836 -0.5616  0.1643 -1.3860
  658SOL     OW 1972   1.705   0.193   2.318  0.2133  0.7623 -1.1060
  658SOL    HW1 1973   1.763   0.141   2.396 -0.4193 -2.9328  1.1155
  658SOL    HW2 1974   1.731   0.169   2.223 -0.9684 -0.5954 -0.6668
  659SOL     OW 1975   1.410   0.638   2.750 -0.5387 -0.2638  0.2087
  659SOL    HW1 1976   1.469   0.714   2.715  0.2358  2.8418  1.1680
  659SOL    HW2 1977   1.321   0.667   2.797  1.1850  0.0804  1.8445
  660SOL     OW 1978   1.446   0.340   1.402 -0.2423  0.4609  0.0910
  660SOL    HW1 1979   1.460   0.360   1.505 -0.6550  1.1982  3.2889
  660SOL    HW2 1980   1.495   0.244   1.390  0.7140  0.8836  1.3340
  661SOL     OW 1981   2.440   1.245   0.642  0.4186 -0.1364 -0.1730
  661SOL    HW1 1982   2.489   1.252   0.553 -0.9594  0.8776  1.9348
  661SOL    HW2 1983   2.368   1.324   0.664 -0.9680 -0.6960  3.5372
  662SOL     OW 1984   1.448   0.434   1.708 -0.3797  0.0070  0.4841
  662SOL    HW1 1985   1.375   0.388   1.769 -1.6409 -3.4219 -2.4477
  662SOL    HW2 1986   1.430   0.533   1.692 -1.7888  2.5511 -0.2789
  663SOL     OW 1987   0.858   1.576   2.089  0.1565 -0.2203  1.0892
  663SOL    HW1 1988   0.806   1.667   2.099 -1.7470 -5.3898  2.0731
  663SOL    HW2 1989   0.808   1.505   2.033  1.8420 -0.8720 -0.5987
  664SOL     OW 1990   1.593   2.126   1.418  0.8216  0.1619  0.2977
  664SOL    HW1 1991   1.506   2.091   1.459  0.9571 -0.6127 -0.4806
  664SOL    HW2 1992   1.675   2.057   1.432  2.0137 -1.4128  2.2372
  665SOL     OW 1993   2.275   0.667   1.958  0.1766 -0.5676 -0.0327
  665SOL    HW1 1994   2.244   0.571   1.968  2.0460  0.2791  1.2684
  665SOL    HW2 1995   2.340   0.691   2.042  0.6101  0.5137 -0.4064
  666SOL     OW 1996   0.484   2.235   0.315 -0.1968  0.5360 -0.0993
  666SOL    HW1 1997   0.536   2.267   0.399  2.1502 -1.7852  1.0735
  666SOL    HW2 1998   0.380   2.234   0.333 -0.5064 -0.4299 -0.8799
  667SOL     OW 1999   1.918   0.223   1.036 -0.5314  0.1127 -0.4724
  667SOL    HW1 2000   1.989   0.299   1.037  0.3968 -0.3992 -0.3334
  667SOL    HW2 2001   1.877   0.202   1.129 -0.8361  1.8335  2.0387
  668SOL     OW 2002   1.996   0.514   1.125 -0.4236  0.4272  0.3819
  668SOL    HW1 2003   2.072   0.548   1.054 -1.6595 -0.3735  2.2425
  668SOL    HW2 2004   2.013   0.537   1.222  1.9982  0.3412 -2.6571
  669SOL     OW 2005   3.023   2.181   1.002  0.1483 -0.1005  0.5908
  669SOL    HW1 2006   2.992   2.242   0.920  0.8866 -1.4959 -3.6107
  669SOL    HW2 2007   2.976   2.210   1.093 -0.2877 -1.3445  0.2785
  670SOL     OW 2008   2.903   2.299   2.085 -0.6296  0.2218  0.2147
  670SOL    HW1 2009   2.831   2.286   2.154  2.3319 -1.3702  0.8011
  670SOL    HW2 2010   2.891   2.385   2.029  0.5226  1.7558  0.4153
  671SOL     OW 2011   1.775   1.776   1.542 -0.3431  0.1198  0.1943
  671SOL    HW1 2012   1.824   1.716   1.475 -1.7105  0.6536 -1.1622
  671SOL    HW2 2013   1.673   1.769   1.535  1.0715 -3.3921 -0.6891
  672SOL     OW 2014   0.474   0.657   2.544  0.1414  0.3541 -0.1480
  672SOL    HW1 2015   0.395   0.694   2.485 -1.7559  1.0808 -0.2693
  672SOL    HW2 2016   0.444   0.624   2.634  2.1422 -1.5049 -2.2564
  673SOL     OW 2017   0.071   1.311   1.113  0.0214 -0.7494  0.1438
  673SOL    HW1 2018   0.093   1.383   1.184 -1.1411  0.3462 -0.3525
  673SOL    HW2 2019   0.154   1.255   1.077 -1.1607 -0.5037  0.0979
  674SOL     OW 2020   1.633   2.964   0.311  0.2625  0.3021  0.1195
  674SOL    HW1 2021   1.643   3.009   0.223 -2.0457 -0.4422  0.1227
  674SOL    HW2 2022   1.714   2.905   0.335 -0.5518  1.3904 -1.4070
  675SOL     OW 2023   1.733   0.842   2.338 -0.1404 -0.1856 -0.3326
  675SOL    HW1 2024   1.831   0.815   2.339  1.5369  0.6976 -0.5623
  675SOL    HW2 2025   1.675   0.760   2.299  0.8883 -0.0516 -1.6685
  676SOL     OW 2026   2.562   1.518   1.932 -0.4430 -0.3802 -0.2789
  676SOL    HW1 2027   2.501   1.480   1.852  1.4205  2.3804 -1.1691
  676SOL    HW2 2028   2.563   1.450   2.008  1.7785 -2.8544 -0.8248
  677SOL     OW 2029   1.910   0.729   0.904  0.3637  0.4541 -0.6542
  677SOL    HW1 2030   1.831   0.736   0.969  2.3212 -2.8239  0.1192
  677SOL    HW2 2031   1.973   0.644   0.916  1.5596  2.3054  0.3437
  678SOL     OW 2032   0.113   0.740   1.614  0.3364  0.4283  0.0757
  678SOL    HW1 2033   0.208   0.751   1.650 -1.4673 -2.7749  1.5481
  678SOL    HW2 2034   0.048   0.722   1.692 -0.7250  1.9828 -1.0590
  679SOL     OW 2035   2.602   1.176   1.161 -0.4732  0.5884  0.1703
  679SOL    HW1 2036   2.502   1.187   1.147 -0.0175  2.2258  1.2494
  679SOL    HW2 2037   2.631   1.075   1.168 -1.4637 -0.5094 -1.6481
  680SOL     OW 2038   2.847   0.473   1.709 -0.1099  0.0435  0.1457
  680SOL    HW1 2039   2.799   0.532   1.637 -0.3344  1.9281 -2.1685
  680SOL    HW2 2040   2.914   0.529   1.763  0.5660 -3.0573  1.0004
  681SOL     OW 2041   2.989   0.068   1.615 -0.0751 -0.1482 -0.2227
  681SOL    HW1 2042   3.045   0.052   1.534 -0.6565 -3.0870 -1.1096
  681SOL    HW2 2043   2.903   0.124   1.595 -3.9872 -0.5937 -0.8872
  682SOL     OW 2044   0.661   0.046   1.346 -0.1761  0.4643 -0.1922
  682SOL    HW1 2045   0.584  -0.004   1.395  0.6943 -0.3857  0.4594
  682SOL    HW2 2046   0.694  -0.012   1.263  0.0478 -0.5022  0.1093
  683SOL     OW 2047   1.366   0.210   2.156  0.1288 -0.0974 -0.0956
  683SOL    HW1 2048   1.377   0.222   2.261  1.4981  0.9988  0.2488
  683SOL    HW2 2049   1.430   0.272   2.103  1.2154 -1.2747  2.3703
  684SOL     OW 2050   1.451   2.116   0.544  0.4804  0.2063 -0.0272
  684SOL    HW1 2051   1.470   2.059   0.631 -0.1683 -0.2424  0.3257
  684SOL    HW2 2052   1.364   2.089   0.498  0.4349 -0.9523  1.5728
  685SOL     OW 2053   2.218   2.052   1.963  0.4242  0.6783  0.5172
  685SOL    HW1 2054   2.272   2.061   1.873 -1.4623  0.0077 -1.5479
  685SOL    HW2 2055   2.273   2.066   2.052 -0.4326 -2.0609 -0.3982
  686SOL     OW 2056   1.506   1.828   2.861 -0.5343 -0.0433 -0.6210
  686SOL    HW1 2057   1.555   1.791   2.945 -1.8072 -2.5268  0.0063
  686SOL    HW2 2058   1.403   1.817   2.870  0.3608 -1.4310 -2.3404
  687SOL     OW 2059   1.320   2.393   1.977  0.2769 -0.1728  0.0128
  687SOL    HW1 2060   1.343   2.291   1.977 -1.8965  0.8536  0.8429
  687SOL    HW2 2061   1.402   2.455   1.981  2.1422  0.3085 -0.5425
  688SOL     OW 2062   2.049   1.522   1.777 -0.4729  0.1377  0.7185
  688SOL    HW1 2063   2.146   1.551   1.760 -0.4354  3.3801  0.7378
  688SOL    HW2 2064   1.998   1.488   1.689 -2.0354 -2.3737 -0.6465
  689SOL     OW 2065   2.387   1.104   2.730  0.2147 -0.4705 -0.0764
  689SOL    HW1 2066   2.294   1.071   2.761 -0.4084 -0.7907 -2.6553
  689SOL    HW2 2067   2.447   1.115   2.812 -0.2702  1.6239  0.4697
  690SOL     OW 2068   2.246   2.768   0.062 -0.1367  0.4830  0.0918
  690SOL    HW1 2069   2.167   2.750   0.006  1.5340 -0.6773  1.2419
  690SOL    HW2 2070   2.220   2.803   0.159  3.2469  1.8462  3.4215
  691SOL     OW 2071   2.598   0.401   2.104 -0.2179  0.2426 -0.5450
  691SOL    HW1 2072   2.653   0.314   2.115  0.4187 -0.9258  0.7401
  691SOL    HW2 2073   2.656   0.488   2.093 -0.8702  1.2400  2.5476
  692SOL     OW 2074   2.634   1.207   0.819 -0.3619  0.1238 -0.1729
  692SOL    HW1 2075   2.566   1.218   0.741  0.5112  0.9702  0.6937
  692SOL    HW2 2076   2.659   1.296   0.869  2.1681 -2.0651 -0.3264
  693SOL     OW 2077   2.855   2.987   0.581  0.2877  0.2749 -0.2984
  693SOL    HW1 2078   2.803   3.050   0.643  2.4148  1.3970  0.1911
  693SOL    HW2 2079   2.835   2.999   0.483 -0.1613  3.9465  1.1716
  694SOL     OW 2080   2.449   2.213   0.146  0.2683 -0.7504 -0.2845
  694SOL    HW1 2081   2.419   2.294   0.201  1.2770 -2.5687 -1.3826
  694SOL    HW2 2082   2.368   2.158   0.119 -1.3828  0.9236 -1.2209
  695SOL     OW 2083   0.490   2.955   1.433  0.1131 -0.1757 -0.0929
  695SOL    HW1 2084   0.431   2.873   1.400 -1.0984  0.4024  0.0609
  695SOL    HW2 2085   0.455   2.999   1.522  1.7552 -2.8934  0.5803
  696SOL     OW 2086   2.843   2.045   0.745  0.4178  0.6567 -0.1813
  696SOL    HW1 2087   2.895   1.957   0.759  0.5785  0.8611 -0.3321
  696SOL    HW2 2088   2.808   2.054   0.650  1.1737 -0.6527 -1.3551
  697SOL     OW 2089   1.661   1.876   1.827 -0.5954 -0.0570 -0.2321
  697SOL    HW1 2090   1.764   1.859   1.828  0.9785 -0.6472  1.4017
  697SOL    HW2 2091   1.631   1.969   1.784  1.3392  1.4577 -0.0305
  698SOL     OW 2092   2.901   0.426   2.753 -0.3372  0.0467  0.2877
  698SOL    HW1 2093   2.931   0.400   2.660  1.6168  0.6836  5.3083
  698SOL    HW2 2094   2.936   0.357   2.823  0.0238  4.2985  1.2230
  699SOL     OW 2095   1.556   0.059   2.915 -0.1613 -0.2960  0.2799
  699SOL    HW1 2096   1.515  -0.030   2.883 -0.4991  1.6756  1.0943
  699SOL    HW2 2097   1.608   0.111   2.843  0.6272  0.6661  2.4383
  700SOL     OW 2098   0.990   2.241   1.376  0.4862  0.1495  0.7443
  700SOL    HW1 2099   1.069   2.180   1.344 -2.5755  1.0239  2.6306
  700SOL    HW2 2100   0.898   2.200   1.339  0.0666  0.9371 -0.1054
  701SOL     OW 2101   1.912   2.861   0.009  0.1911  0.3568 -0.3513
  701SOL    HW1 2102   1.891   2.818   0.102  0.8740 -1.4075  1.3074
  701SOL    HW2 2103   1.936   2.960  -0.003  1.5078  0.7087 -0.8309
  702SOL     OW 2104   2.083   1.317   1.959 -0.3551 -0.3463 -0.3655
  702SOL    HW1 2105   2.174   1.268   1.966 -0.9375  0.1441  1.6280
  702SOL    HW2 2106   2.069   1.375   1.874 -0.8539  1.0710  0.1896
  703SOL     OW 2107   1.935   0.908   1.484  0.2599  0.0949  0.2220
  703SOL    HW1 2108   1.941   0.822   1.537 -0.0159  1.6282  0.9865
  703SOL    HW2 2109   1.998   0.985   1.512  3.4542 -1.3471 -3.9912
  704SOL     OW 2110   0.301   2.023   1.696 -0.4945  0.0266 -0.6660
  704SOL    HW1 2111   0.342   1.983   1.785 -0.8674  2.3999  3.2664
  704SOL    HW2 2112   0.359   2.101   1.662 -2.3622 -1.1756  0.2324
  705SOL     OW 2113   2.472   1.499   0.875 -0.6409  0.2312 -0.7854
  705SOL    HW1 2114   2.472   1.424   0.806 -1.6616  1.7067 -0.8042
  705SOL    HW2 2115   2.562   1.500   0.928  0.7967  0.7998 -0.0534
  706SOL     OW 2116   0.681   1.711   1.840  0.4944 -0.8000 -0.1735
  706SOL    HW1 2117   0.638   1.621   1.835  1.2378  2.9912  0.6014
  706SOL    HW2 2118   0.710   1.738   1.941  0.1110 -0.1274 -0.2487
  707SOL     OW 2119   2.340   1.198   1.976  0.0194  0.3784  0.5039
  707SOL    HW1 2120   2.434   1.224   2.011  0.1902 -1.0437 -0.6023
  707SOL    HW2 2121   2.326   1.095   1.953 -0.7706 -0.8566 -0.5920
  708SOL     OW 2122   3.018   0.523   3.037  0.1285  0.4310 -0.3392
  708SOL    HW1 2123   3.066   0.589   2.976  0.0076 -3.0159 -1.4319
  708SOL    HW2 2124   2.984   0.444   2.979  1.0988  1.2632 -3.1127
  709SOL     OW 2125   1.882   1.852   0.345  0.4148  0.2519 -1.0898
  709SOL    HW1 2126   1.897   1.952   0.369 -0.3964 -1.2521 -0.5979
  709SOL    HW2 2127   1.846   1.843   0.246 -0.2234 -1.1759 -1.0992
  710SOL     OW 2128   1.770   1.628   2.474 -0.0156  0.1596 -0.1179
  710SOL    HW1 2129   1.850   1.574   2.435 -1.1082 -1.6861 -1.7338
  710SOL    HW2 2130   1.723   1.589   2.560 -1.7807 -2.2081  2.6231
  711SOL     OW 2131   2.611   2.942   0.967 -0.6454 -0.2051 -0.1099
  711SOL    HW1 2132   2.567   3.038   0.964 -1.1526 -1.5543  1.4712
  711SOL    HW2 2133   2.715   2.949   0.975 -2.4029  1.0708  0.4941
  712SOL     OW 2134   1.404   2.142   1.961  0.2068  0.3877 -0.1673
  712SOL    HW1 2135   1.498   2.142   1.994  2.2312  0.8880  0.6235
  712SOL    HW2 2136   1.388   2.081   1.883  0.3660  0.4464 -0.4853
  713SOL     OW 2137   2.795   1.503   2.531  0.5465  0.5621 -0.3134
  713SOL    HW1 2138   2.785   1.404   2.509  2.0938 -0.8292  0.2948
  713SOL    HW2 2139   2.712   1.555   2.561 -0.1570  0.2557 -0.8410
  714SOL     OW 2140   2.625   0.456   2.373 -0.7282 -0.2343 -0.0135
  714SOL    HW1 2141   2.582   0.390   2.444 -2.8814 -5.0765  1.7073
  714SOL    HW2 2142   2.586   0.446   2.279  1.8534  1.2783 -0.8081
  715SOL     OW 2143   1.575   2.156   1.153  0.1011 -0.6218 -0.5186
  715SOL    HW1 2144   1.482   2.187   1.117 -2.1083 -0.7948 -0.6332
  715SOL    HW2 2145   1.577   2.129   1.250  2.7657 -0.5732 -3.0825
  716SOL     OW 2146   1.235   0.153   1.482 -0.0766 -0.1834  0.0395
  716SOL    HW1 2147   1.137   0.160   1.435  1.2623  1.3738  2.0876
  716SOL    HW2 2148   1.285   0.247   1.467 -1.4340  1.5450 -0.4484
  717SOL     OW 2149   1.165   0.550   1.593 -0.0863 -0.4053 -0.3964
  717SOL    HW1 2150   1.247   0.609   1.627 -1.3213  2.0203 -0.6589
  717SOL    HW2 2151   1.175   0.505   1.501  3.3024 -0.9781 -0.1243
  718SOL     OW 2152   0.645   0.897   0.958  0.2272  0.1674 -0.4432
  718SOL    HW1 2153   0.645   0.877   0.858  0.5979  2.1526 -0.7153
  718SOL    HW2 2154   0.654   0.999   0.979  0.8908 -2.1003 -1.0365
  719SOL     OW 2155   0.605   1.738   2.289 -0.2174  0.4557 -0.1427
  719SOL    HW1 2156   0.670   1.779   2.355 -0.6655 -2.1101 -2.9636
  719SOL    HW2 2157   0.611   1.631   2.298 -0.8904 -2.9837 -3.0128
  720SOL     OW 2158   2.219   1.134   0.297  0.0867 -0.4320 -0.1520
  720SOL    HW1 2159   2.223   1.057   0.225 -0.7630 -2.0892 -1.3138
  720SOL    HW2 2160   2.226   1.099   0.397  2.7790  0.7042 -0.8522
  721SOL     OW 2161   2.249   3.002   2.055 -0.0992 -0.1315 -0.5951
  721SOL    HW1 2162   2.187   2.982   1.970  1.5722 -0.9505  0.5271
  721SOL    HW2 2163   2.186   3.019   2.138 -0.7127  1.2498  1.7061
  722SOL     OW 2164   2.357   1.640   0.481 -0.0735  0.1079 -0.1472
  722SOL    HW1 2165   2.401   1.669   0.397 -1.0712  0.2591  0.2116
  722SOL    HW2 2166   2.257   1.656   0.476 -1.0020 -0.9655  1.2048
  723SOL     OW 2167   2.649   2.715   1.926 -0.3622 -0.3226 -0.2653
  723SOL    HW1 2168   2.677   2.805   1.967  0.1608  0.0674  0.8663
  723SOL    HW2 2169   2.546   2.699   1.926 -3.2264  1.6611  2.4782
  724SOL     OW 2170   0.467   2.503   2.406  0.3180 -0.1411  0.2598
  724SOL    HW1 2171   0.374   2.498   2.447 -0.8837  2.6321  2.0611
  724SOL    HW2 2172   0.542   2.504   2.478 -0.8247 -2.9715  0.5639
  725SOL     OW 2173   2.370   2.761   1.568  0.1760 -1.1303  0.0734
  725SOL    HW1 2174   2.423   2.780   1.482  0.7062  1.8944  2.4663
  725SOL    HW2 2175   2.354   2.656   1.579 -5.0962 -2.2968  0.6828
  726SOL     OW 2176   2.491   2.307   0.691 -0.7251 -0.2131 -0.2963
  726SOL    HW1 2177   2.474   2.394   0.639  0.3764  1.6486 -0.4451
  726SOL    HW2 2178   2.450   2.229   0.638 -0.7861  4.2505  2.4454
  727SOL     OW 2179   0.093   0.008   0.159 -0.0094 -0.7219 -0.2980
  727SOL    HW1 2180   0.169   0.038   0.098  1.3788 -2.9761 -1.8267
  727SOL    HW2 2181   0.026  -0.052   0.111  0.5296  2.5340 -0.6968
  728SOL     OW 2182   2.909   0.706   0.903 -0.2578  0.1381  0.5976
  728SOL    HW1 2183   2.866   0.703   0.809  1.0255 -1.2565  1.0700
  728SOL    HW2 2184   2.854   0.655   0.975  0.2326 -0.3262 -2.3067
  729SOL     OW 2185   0.036   2.526   0.745 -0.0444  0.2563 -0.5720
  729SOL    HW1 2186   0.042   2.481   0.839 -0.3726 -0.5097  0.6590
  729SOL    HW2 2187   0.119   2.539   0.689 -1.0572  3.2038  1.9220
  730SOL     OW 2188   2.554   0.657   0.860 -0.5220  0.6034 -0.5044
  730SOL    HW1 2189   2.541   0.759   0.852 -0.0608 -0.8317 -0.5385
  730SOL    HW2 2190   2.623   0.610   0.799 -0.5708 -1.8569 -0.3483
  731SOL     OW 2191   3.077   2.180   2.389  0.1208  0.3493  0.6719
  731SOL    HW1 2192   3.108   2.234   2.473 -0.7717 -0.7450 -0.2207
  731SOL    HW2 2193   2.991   2.213   2.342 -0.4176  1.0067  1.2690
  732SOL     OW 2194   1.206   2.776   2.032 -0.9010  0.4999  0.3066
  732SOL    HW1 2195   1.241   2.714   2.108  0.0063  1.4785  1.4768
  732SOL    HW2 2196   1.182   2.728   1.945 -1.8523 -0.9117  0.2913
  733SOL     OW 2197   0.017   0.571   2.249 -0.2689  0.2005  0.4096
  733SOL    HW1 2198   0.088   0.614   2.187  0.7710  0.7532  0.3637
  733SOL    HW2 2199  -0.051   0.507   2.200 -0.0184 -1.6023 -0.9554
  734SOL     OW 2200   1.456   0.374   2.670  0.1146  0.2478  0.1935
  734SOL    HW1 2201   1.458   0.472   2.710 -1.6881  0.0841 -1.7711
  734SOL    HW2 2202   1.368   0.321   2.700  1.5296 -0.6092  2.2602
  735SOL     OW 2203   2.864   2.609   2.285  0.3304  0.0684 -0.0948
  735SOL    HW1 2204   2.841   2.563   2.198  0.2777 -0.4965 -1.2652
  735SOL    HW2 2205   2.944   2.668   2.268 -1.3770 -2.8936  0.0042
  736SOL     OW 2206   0.915   0.439   2.510  0.1803  0.2198  0.2445
  736SOL    HW1 2207   0.817   0.469   2.489  0.2153 -1.0835  0.9770
  736SOL    HW2 2208   0.929   0.346   2.460 -0.4664 -1.6349 -1.1011
  737SOL     OW 2209   2.606   0.446   2.817  0.0053  0.3689  0.2028
  737SOL    HW1 2210   2.568   0.407   2.906  2.6388 -0.4443 -1.6192
  737SOL    HW2 2211   2.706   0.420   2.804  1.2124  0.4470 -1.2016
  738SOL     OW 2212   1.714   1.280   2.879 -0.3255  0.7745  0.3478
  738SOL    HW1 2213   1.807   1.235   2.880  1.1634 -1.3438  0.1590
  738SOL    HW2 2214   1.645   1.223   2.830  1.5251 -1.9538 -0.1431
  739SOL     OW 2215   1.781   0.687   0.648 -0.0405  0.0067  0.1361
  739SOL    HW1 2216   1.838   0.705   0.729 -0.0679 -2.1637 -1.1181
  739SOL    HW2 2217   1.805   0.594   0.600 -2.6946 -0.1924  0.9169
  740SOL     OW 2218   1.939   1.921   2.376 -0.1621  0.2362 -0.3484
  740SOL    HW1 2219   2.007   1.840   2.378  2.4699 -0.9440  5.0008
  740SOL    HW2 2220   1.860   1.907   2.310  2.1909  2.6568  1.3985
  741SOL     OW 2221   2.552   0.050   2.465  0.4439  0.7932 -0.7636
  741SOL    HW1 2222   2.653   0.034   2.446 -0.4522  2.8696 -0.1785
  741SOL    HW2 2223   2.506   0.110   2.392  0.4266  3.2795 -0.5020
  742SOL     OW 2224   2.195   1.367   0.153 -0.3057 -0.1436 -0.2140
  742SOL    HW1 2225   2.109   1.417   0.141  2.3045 -0.3050 -0.5464
  742SOL    HW2 2226   2.195   1.288   0.219 -0.7563  3.9080 -1.8706
  743SOL     OW 2227   1.778   0.615   2.613 -0.0367  0.4719  0.3470
  743SOL    HW1 2228   1.782   0.564   2.520 -3.1803  0.3251  1.8424
  743SOL    HW2 2229   1.695   0.688   2.616 -1.7223  2.4318 -1.8138
  744SOL     OW 2230   2.665   2.098   0.044  0.0480 -0.6489  0.1881
  744SOL    HW1 2231   2.588   2.146   0.092 -0.0772 -1.3332 -3.4573
  744SOL    HW2 2232   2.657   1.993   0.062  0.8774 -0.2413 -3.0634
  745SOL     OW 2233   2.225   2.626   2.192 -0.5712  0.6080 -0.3936
  745SOL    HW1 2234   2.123   2.624   2.164  0.3578 -0.2305  0.8733
  745SOL    HW2 2235   2.248   2.679   2.281 -0.1239  0.6217 -0.9184
  746SOL     OW 2236   0.051   2.642   1.743 -0.1242  0.1261 -0.1241
  746SOL    HW1 2237   0.136   2.591   1.708  1.7584  2.9293  0.7521
  746SOL    HW2 2238   0.071   2.708   1.816  1.3563  0.1427 -0.7757
  747SOL     OW 2239   0.046   1.798   1.657  0.2947  0.7986  0.4410
  747SOL    HW1 2240  -0.007   1.720   1.622 -1.8962  2.5014  1.5392
  747SOL    HW2 2241   0.128   1.816   1.595  3.3484 -0.9625 -3.4587
  748SOL     OW 2242   1.811   2.732   2.873 -0.1890 -0.1444 -0.2117
  748SOL    HW1 2243   1.823   2.787   2.961  0.8722  3.2751  1.4168
  748SOL    HW2 2244   1.710   2.730   2.839 -0.4816 -0.4956 -2.3292
  749SOL     OW 2245   1.382   3.032   0.876 -0.7407  0.7396  0.0254
  749SOL    HW1 2246   1.309   3.093   0.842  1.4612 -4.3669 -1.4989
  749SOL    HW2 2247   1.472   3.028   0.817  2.7871 -0.9131 -2.5756
  750SOL     OW 2248   2.260   0.178   1.831  0.3717  0.4185 -0.2690
  750SOL    HW1 2249   2.299   0.217   1.750 -1.1852 -1.5059  2.8622
  750SOL    HW2 2250   2.281   0.240   1.913  1.3681 -2.6099 -0.8162
  751SOL     OW 2251   0.748   2.142   2.889 -0.2034 -0.3191  0.4384
  751SOL    HW1 2252   0.836   2.107   2.934  3.2848 -2.3163 -1.1810
  751SOL    HW2 2253   0.663   2.083   2.913  0.6888 -1.8160  2.0992
  752SOL     OW 2254   1.303   0.823   1.271  0.7495 -0.0092  0.4101
  752SOL    HW1 2255   1.345   0.919   1.275  1.2530  2.1992  1.6147
  752SOL    HW2 2256   1.372   0.745   1.285  1.3976  0.4503 -1.3984
  753SOL     OW 2257   0.917   2.532   1.802 -0.1289  0.2973  0.1246
  753SOL    HW1 2258   1.012   2.574   1.788 -1.5899 -0.1391 -2.2852
  753SOL    HW2 2259   0.847   2.604   1.817  0.6049 -1.4447 -0.7600
  754SOL     OW 2260   1.125   1.226   3.043 -0.5382  0.2965  0.0669
  754SOL    HW1 2261   1.166   1.161   2.972 -1.4742  0.0821  0.6430
  754SOL    HW2 2262   1.173   1.323   3.047  1.6946  0.2712 -0.0998
  755SOL     OW 2263   1.981   0.433   2.212 -0.2009  0.3870 -0.0039
  755SOL    HW1 2264   2.048   0.359   2.244  1.6852 -2.1289  1.8255
  755SOL    HW2 2265   1.886   0.420   2.253  2.6284 -1.0053 -0.5252
  756SOL     OW 2266   2.539   1.011   2.996  0.0288 -0.3277  0.1631
  756SOL    HW1 2267   2.643   0.995   3.006  3.5272 -1.4865 -2.2298
  756SOL    HW2 2268   2.477   0.930   3.017 -0.4359  0.1942 -0.6481
  757SOL     OW 2269   0.106   0.448   2.001  0.4948  0.6476 -0.2453
  757SOL    HW1 2270   0.161   0.377   1.948 -1.3582  5.4702 -0.5574
  757SOL    HW2 2271   0.020   0.410   2.045 -2.8608  0.3080 -0.6956
  758SOL     OW 2272   2.203   0.100   1.492  0.1590 -0.0400 -0.0314
  758SOL    HW1 2273   2.187   0.007   1.531  0.7955  1.9859  1.2905
  758SOL    HW2 2274   2.253   0.103   1.399  0.5193  0.3248 -1.3793
  759SOL     OW 2275   1.695   0.049   0.066  0.0420  0.5793 -0.2885
  759SOL    HW1 2276   1.649   0.055  -0.025 -1.0273  0.5723 -1.1994
  759SOL    HW2 2277   1.799   0.062   0.063  1.7304  0.2137  1.2884
  760SOL     OW 2278   2.651   2.015   2.833 -0.9399  0.1311 -0.8299
  760SOL    HW1 2279   2.599   1.960   2.907  1.1388 -0.5107  2.0722
  760SOL    HW2 2280   2.647   2.117   2.849 -1.1415 -0.4183  2.1460
  761SOL     OW 2281   1.926   1.789   1.782 -0.0533  0.3383  0.0365
  761SOL    HW1 2282   1.982   1.703   1.805  1.6566 -0.5054 -0.7577
  761SOL    HW2 2283   1.869   1.777   1.696 -0.6162 -3.3154  1.2224
  762SOL     OW 2284   0.478   2.376   0.969 -0.0911 -0.5180 -0.1485
  762SOL    HW1 2285   0.519   2.403   0.874  0.5266 -1.2785 -0.1827
  762SOL    HW2 2286   0.549   2.399   1.043 -1.0204  0.1880 -1.9055
  763SOL     OW 2287   2.065   1.541   2.964  0.3853  0.3500 -0.2062
  763SOL    HW1 2288   2.153   1.507   2.933  0.0601 -1.9997 -1.4913
  763SOL    HW2 2289   2.018   1.492   3.042 -0.8005 -0.2430 -2.0039
  764SOL     OW 2290   0.697   0.611   0.711 -0.1277 -0.2012  0.2742
  764SOL    HW1 2291   0.606   0.570   0.686 -2.3989  1.3252  1.2876
  764SOL    HW2 2292   0.733   0.570   0.805  0.9689 -0.5193  3.6974
  765SOL     OW 2293   0.807   0.297   0.744  0.1718 -0.6910 -0.1948
  765SOL    HW1 2294   0.812   0.338   0.650  0.4022 -2.4599  4.3880
  765SOL    HW2 2295   0.809   0.375   0.822 -0.7216  3.8933  1.4365
  766SOL     OW 2296   2.930   2.150   3.029 -0.1582  0.3214 -0.3494
  766SOL    HW1 2297   2.832   2.139   3.060 -0.4186 -1.4453  0.7825
  766SOL    HW2 2298   2.966   2.243   3.054 -1.7759 -0.5322 -1.0969
  767SOL     OW 2299   2.789   1.659   0.606  0.4056  0.3649 -0.2335
  767SOL    HW1 2300   2.704   1.696   0.655 -0.3783 -0.7764  1.9807
  767SOL    HW2 2301   2.872   1.650   0.663 -0.1353 -1.9845  0.0564
  768SOL     OW 2302   1.084   0.153   0.235 -0.2518 -0.2916  0.3537
  768SOL    HW1 2303   1.054   0.137   0.329 -2.1359  0.5093  0.8127
  768SOL    HW2 2304   1.187   0.136   0.220  2.3555 -1.2170 -0.8205
  769SOL     OW 2305   1.123   1.824   2.308  0.3359  0.2413  0.2351
  769SOL    HW1 2306   1.025   1.860   2.331  0.1200 -0.0119  1.0193
  769SOL    HW2 2307   1.173   1.789   2.392 -1.4400 -1.5387  0.6230
  770SOL     OW 2308   0.164   1.123   2.301 -0.3260 -0.1670  0.1375
  770SOL    HW1 2309   0.204   1.209   2.348  1.0326  0.7289  0.4545
  770SOL    HW2 2310   0.064   1.109   2.324  0.0168  2.6430 -1.0008
  771SOL     OW 2311   3.056   2.828   1.951  0.2981 -0.4413 -0.4114
  771SOL    HW1 2312   3.018   2.864   1.861  1.0202  0.0864  0.2333
  771SOL    HW2 2313   3.020   2.865   2.037  3.2513  0.9250 -0.5863
  772SOL     OW 2314   2.324   0.217   2.834 -0.8728 -0.0984  0.2446
  772SOL    HW1 2315   2.391   0.147   2.795  0.1609 -0.7605 -1.5432
  772SOL    HW2 2316   2.347   0.246   2.927 -1.8134  1.5695 -1.5458
  773SOL     OW 2317   0.607   2.111   2.387 -0.0121  0.0458  0.4868
  773SOL    HW1 2318   0.578   2.189   2.324  0.8587  0.8924 -2.1430
  773SOL    HW2 2319   0.537   2.061   2.441  0.6231 -2.0541  0.0732
  774SOL     OW 2320   2.101   0.009   2.582  0.3120  0.0342  0.1553
  774SOL    HW1 2321   2.130   0.096   2.631  1.6218 -0.4346  2.2530
  774SOL    HW2 2322   2.144  -0.076   2.628 -0.7106  1.4950  1.7402
  775SOL     OW 2323   2.584   2.954   2.234 -0.0850  0.5067 -0.4708
  775SOL    HW1 2324   2.572   3.051   2.261 -0.9745  0.5163 -1.2794
  775SOL    HW2 2325   2.601   2.885   2.311  0.0837 -1.7867  0.7548
  776SOL     OW 2326   3.101   1.252   0.161 -0.1342 -0.2623 -0.1574
  776SOL    HW1 2327   3.047   1.213   0.080 -2.0721 -1.3856  0.8929
  776SOL    HW2 2328   3.050   1.260   0.248  0.8852 -1.0259 -2.3822
  777SOL     OW 2329   0.443   2.930   0.426 -0.0131  0.9117 -0.1065
  777SOL    HW1 2330   0.351   2.930   0.374 -1.1172 -0.1289 -1.5711
  777SOL    HW2 2331   0.501   2.843   0.414  0.6107 -0.3794  1.2438
  778SOL     OW 2332   1.320   1.966   0.184  0.2971 -0.6075 -0.4027
  778SOL    HW1 2333   1.267   1.996   0.269 -1.0676 -0.2014 -0.0840
  778SOL    HW2 2334   1.364   2.050   0.140  0.0667 -0.2459  1.1931
  779SOL     OW 2335   0.160   0.840   0.437 -0.1578  1.0829  0.2912
  779SOL    HW1 2336   0.120   0.747   0.411  1.4812 -2.5947  0.5388
  779SOL    HW2 2337   0.100   0.901   0.495  0.9430 -0.2023 -1.5028
  780SOL     OW 2338   0.189   0.283   2.369  0.3177 -0.1135  0.6497
  780SOL    HW1 2339   0.166   0.361   2.435 -0.9009  0.0968 -0.5137
  780SOL    HW2 2340   0.265   0.310   2.302  1.2832  3.0060  0.1337
  781SOL     OW 2341   0.705   1.687   1.488  0.3001 -0.3768 -0.2619
  781SOL    HW1 2342   0.732   1.657   1.584 -0.7387 -1.9328  0.1487
  781SOL    HW2 2343   0.604   1.684   1.475  0.9004 -2.0134  0.1813
  782SOL     OW 2344   2.549   0.104   0.955  0.7771  0.3165 -0.1322
  782SOL    HW1 2345   2.512   0.106   0.857  0.5485 -3.3702 -2.8061
  782SOL    HW2 2346   2.543   0.195   1.005 -0.3731  0.9918 -0.7809
  783SOL     OW 2347   2.758   0.684   2.472 -0.0522 -0.4890  0.1637
  783SOL    HW1 2348   2.727   0.679   2.574 -0.3374 -0.0951 -1.3493
  783SOL    HW2 2349   2.744   0.597   2.411  2.9535  0.3381 -0.8535
  784SOL     OW 2350   1.399   2.203   0.048 -0.0383 -0.5578  0.5383
  784SOL    HW1 2351   1.451   2.288   0.065 -1.5436  1.2406  0.1510
  784SOL    HW2 2352   1.392   2.178  -0.055 -0.5160  1.5000  2.5326
  785SOL     OW 2353   2.054   0.318   3.063 -0.7155  0.6061 -0.1219
  785SOL    HW1 2354   1.984   0.333   3.139 -1.3536 -1.8868  0.7489
  785SOL    HW2 2355   2.104   0.400   3.025  1.0344 -0.8413 -1.2822
  786SOL     OW 2356   2.025   2.176   2.250  0.0392 -0.6019  0.1581
  786SOL    HW1 2357   1.978   2.091   2.280  1.6856  4.3514 -2.2533
  786SOL    HW2 2358   2.126   2.170   2.252  0.7963  2.8279 -2.1301
  787SOL     OW 2359   1.361   0.520   0.922 -0.3626 -0.0367  0.3523
  787SOL    HW1 2360   1.330   0.614   0.927  0.2019 -2.5012 -0.9224
  787SOL    HW2 2361   1.418   0.501   0.841 -0.8178 -0.4669 -2.0078
  788SOL     OW 2362   1.206   0.433   0.053 -0.1089 -0.5020  0.1540
  788SOL    HW1 2363   1.128   0.406  -0.003  1.2462 -1.8421 -1.2899
  788SOL    HW2 2364   1.184   0.487   0.135  0.6426  0.7101 -0.2882
  789SOL     OW 2365   2.529   0.102   1.979  0.6491 -0.5834  0.3226
  789SOL    HW1 2366   2.423   0.109   1.970 -4.2371 -0.6846 -5.7687
  789SOL    HW2 2367   2.558   0.014   1.938  0.7372  0.0080  1.3990
  790SOL     OW 2368   2.660   2.742   0.754  0.0950 -0.1339  0.3371
  790SOL    HW1 2369   2.714   2.784   0.680 -0.8401  2.4897  3.6855
  790SOL    HW2 2370   2.642   2.803   0.840 -1.0406  1.5831  1.4381
  791SOL     OW 2371   1.927   1.221   0.293  0.3022  0.5184 -0.0045
  791SOL    HW1 2372   1.837   1.171   0.308 -2.0661 -2.7044 -1.2092
  791SOL    HW2 2373   2.010   1.171   0.330  1.2889 -0.7582 -0.0105
  792SOL     OW 2374   0.373   1.737   2.110 -0.0753  0.0163  0.4920
  792SOL    HW1 2375   0.432   1.770   2.190 -1.0386  2.0360  0.3294
  792SOL    HW2 2376   0.268   1.733   2.128 -0.7989 -0.6134 -0.5927
  793SOL     OW 2377   2.105   1.574   2.110 -0.1054 -0.6205 -0.4073
  793SOL    HW1 2378   2.138   1.613   2.020  0.0933  0.0615  1.7059
  793SOL    HW2 2379   2.086   1.473   2.103 -0.1464 -0.9456  0.7416
  794SOL     OW 2380   0.561   1.458   2.330 -0.0817 -0.5162  0.0890
  794SOL    HW1 2381   0.531   1.418   2.239  1.4360 -0.3769  0.6195
  794SOL    HW2 2382   0.490   1.469   2.402  2.4405 -0.0075  0.9376
  795SOL     OW 2383   2.543   2.284   1.821 -0.1888 -0.5851  0.2981
  795SOL    HW1 2384   2.488   2.310   1.907  0.5961 -2.4227  1.1349
  795SOL    HW2 2385   2.492   2.215   1.762  1.6306  0.9914  1.3241
  796SOL     OW 2386   0.018   1.105   2.672 -0.3833  0.2090  0.5843
  796SOL    HW1 2387  -0.087   1.106   2.677 -1.8445 -0.9079 -2.3488
  796SOL    HW2 2388   0.064   1.125   2.765  1.8094 -1.3365  0.8157
  797SOL     OW 2389   0.789   0.665   1.419 -0.1770  0.2258 -0.0606
  797SOL    HW1 2390   0.864   0.719   1.464 -1.5368  0.4613  0.5734
  797SOL    HW2 2391   0.733   0.720   1.354  2.2183  0.6362  0.6293
  798SOL     OW 2392   1.311   0.383   1.147 -0.0249  0.4228 -0.1698
  798SOL    HW1 2393   1.377   0.362   1.224  1.2035 -0.1503  2.1948
  798SOL    HW2 2394   1.353   0.426   1.066  1.2012 -0.3203  3.6565
  799SOL     OW 2395   1.995   2.706   0.973  0.1477  0.1538 -0.2283
  799SOL    HW1 2396   1.920   2.674   1.041 -0.6826 -3.1576  1.0809
  799SOL    HW2 2397   1.970   2.676   0.872 -2.0364  0.2377  0.8210
  800SOL     OW 2398   3.038   0.652   1.827 -0.1192 -0.2666  0.1761
  800SOL    HW1 2399   3.008   0.733   1.887  0.1780  0.2833 -3.5220
  800SOL    HW2 2400   3.075   0.572   1.883 -3.0403 -0.2684 -0.4459
  801SOL     OW 2401   1.941   2.257   0.084  0.4737 -0.0530 -0.1259
  801SOL    HW1 2402   1.855   2.234   0.029  0.7422 -0.1932 -0.7022
  801SOL    HW2 2403   2.030   2.210   0.055  0.4155 -4.0858  0.2406
  802SOL     OW 2404   0.733   0.812   2.567 -0.2100 -0.0331 -0.6680
  802SOL    HW1 2405   0.794   0.810   2.487  1.5904 -1.2712  1.0068
  802SOL    HW2 2406   0.642   0.757   2.553 -1.1485  2.5138  0.7814
  803SOL     OW 2407   0.944   0.097   0.903  0.0075 -0.0161 -0.4151
  803SOL    HW1 2408   1.021   0.157   0.934  0.4742 -0.5773 -1.8084
  803SOL    HW2 2409   0.882   0.150   0.844  1.8714  0.5056  1.4711
  804SOL     OW 2410   0.285   0.053   2.160 -0.1198 -0.1796  0.2365
  804SOL    HW1 2411   0.316   0.147   2.133  2.8197 -0.2339  0.0145
  804SOL    HW2 2412   0.290  -0.009   2.079  3.1663 -1.7040  0.4527
  805SOL     OW 2413   2.428   0.245   0.251  0.4629  0.0888  0.9378
  805SOL    HW1 2414   2.531   0.270   0.270  3.5644  1.3185  3.0462
  805SOL    HW2 2415   2.403   0.244   0.148  0.2896  2.0962 -1.9568
  806SOL     OW 2416   0.660   2.402   1.685  0.3063  0.2227  0.0015
  806SOL    HW1 2417   0.655   2.505   1.663 -3.2502  1.2682  0.3655
  806SOL    HW2 2418   0.756   2.363   1.681  0.5546 -0.8923 -1.2825
  807SOL     OW 2419   2.400   0.982   0.463 -1.2303 -0.3642  0.3761
  807SOL    HW1 2420   2.493   0.996   0.504  0.1276 -3.0756 -1.0313
  807SOL    HW2 2421   2.409   0.951   0.364  0.8535 -0.8480 -3.5365
  808SOL     OW 2422   0.540   1.997   2.972  0.4160  0.8312  0.8235
  808SOL    HW1 2423   0.559   2.016   3.073  4.1024 -0.6257 -1.3684
  808SOL    HW2 2424   0.551   1.899   2.943  0.1294  1.0920 -1.3698
  809SOL     OW 2425   2.597   1.980   1.974  0.0645  0.1012 -0.5583
  809SOL    HW1 2426   2.694   2.007   1.951 -0.3941  0.5580 -1.6650
  809SOL    HW2 2427   2.553   1.933   1.897  0.2086  1.1965 -0.7329
  810SOL     OW 2428   2.083   1.074   0.542  0.5949 -0.5211  1.2323
  810SOL    HW1 2429   2.149   1.016   0.602  0.1436  0.2335 -1.1832
  810SOL    HW2 2430   2.033   1.155   0.591 -1.4077 -0.4390  1.2147
  811SOL     OW 2431   1.353   2.456   1.309  0.0316  0.2841  0.3315
  811SOL    HW1 2432   1.336   2.353   1.318  1.9882  0.9023  2.3885
  811SOL    HW2 2433   1.262   2.507   1.287 -0.9399  1.6072  2.4611
  812SOL     OW 2434   1.464   0.790   1.950  0.3504  0.3257  0.0607
  812SOL    HW1 2435   1.526   0.862   1.991  0.8580 -0.4555  0.0131
  812SOL    HW2 2436   1.368   0.831   1.956 -0.1318  0.7143  1.8466
  813SOL     OW 2437   1.730   2.182   2.441 -0.0973 -0.0239  0.0624
  813SOL    HW1 2438   1.790   2.109   2.493  0.6466 -0.8975 -2.2017
  813SOL    HW2 2439   1.701   2.143   2.348 -1.2828 -1.0195  0.6157
  814SOL     OW 2440   2.858   1.522   2.896 -0.0314  0.4343 -0.5761
  814SOL    HW1 2441   2.962   1.501   2.916  0.7546  0.0691 -3.9907
  814SOL    HW2 2442   2.848   1.617   2.853  0.8478 -1.6258 -1.2257
  815SOL     OW 2443   2.267   2.844   2.694 -0.0259 -0.1903  0.5077
  815SOL    HW1 2444   2.260   2.791   2.783  1.6480 -1.8498  1.7002
  815SOL    HW2 2445   2.373   2.845   2.669  0.5285 -2.6303  0.2214
  816SOL     OW 2446   1.686   0.307   1.594 -0.3416 -0.3881 -0.7140
  816SOL    HW1 2447   1.694   0.208   1.629 -0.0541 -2.9776 -0.1718
  816SOL    HW2 2448   1.619   0.361   1.653 -0.2975 -1.5542  0.2439
  817SOL     OW 2449   0.448   1.253   2.486  0.0708  0.3458  0.3549
  817SOL    HW1 2450   0.395   1.338   2.518 -2.1479  0.6023 -0.4263
  817SOL    HW2 2451   0.515   1.282   2.414 -1.6301 -0.1633  1.9388
  818SOL     OW 2452   1.963   0.835   0.434 -0.2896 -0.0521  0.3118
  818SOL    HW1 2453   1.995   0.924   0.482 -0.6153  0.7533  3.6361
  818SOL    HW2 2454   1.903   0.781   0.499  1.2409  0.1677  1.0752
  819SOL     OW 2455   2.780   2.891   3.027  0.5405 -0.3678 -0.2222
  819SOL    HW1 2456   2.862   2.830   2.998  0.1967 -0.0072 -1.2577
  819SOL    HW2 2457   2.704   2.896   2.957 -0.3704  0.3393 -1.5717
  820SOL     OW 2458   1.249   1.124   0.531 -0.2514 -0.6791  0.4000
  820SOL    HW1 2459   1.247   1.221   0.569 -1.5656  0.1992 -2.4849
  820SOL    HW2 2460   1.217   1.048   0.600 -0.3256  0.3944 -1.9424
  821SOL     OW 2461   3.089   1.269   0.668  0.8142  0.1585 -0.1265
  821SOL    HW1 2462   3.035   1.260   0.754  0.1773  1.9934 -1.7755
  821SOL    HW2 2463   3.159   1.347   0.668 -0.9209 -2.5615  0.1082
  822SOL     OW 2464   2.525   1.754   2.417  0.0540 -0.1370 -0.1070
  822SOL    HW1 2465   2.510   1.825   2.493  0.7521  0.3800 -2.5024
  822SOL    HW2 2466   2.459   1.760   2.340  2.3415 -0.7973 -1.0903
  823SOL     OW 2467   2.024   0.878   1.225  0.4884 -0.4315 -0.2141
  823SOL    HW1 2468   1.966   0.876   1.313 -0.5375  0.3913  0.1276
  823SOL    HW2 2469   1.974   0.930   1.149  0.3512 -4.6075 -2.0762
  824SOL     OW 2470   0.110   2.023   2.796  0.2171 -0.0627  0.5089
  824SOL    HW1 2471   0.036   1.946   2.813 -3.0674  0.5755  0.9736
  824SOL    HW2 2472   0.193   1.991   2.743  1.0136 -0.6191 -0.8970
  825SOL     OW 2473   1.278   1.073   0.230  0.2867  0.5040  0.4856
  825SOL    HW1 2474   1.339   1.153   0.259  3.0473 -1.0435 -0.0911
  825SOL    HW2 2475   1.192   1.091   0.173 -2.3284 -2.7643 -0.0163
  826SOL     OW 2476   1.944   0.644   1.589 -0.2890 -0.1150  1.0187
  826SOL    HW1 2477   2.005   0.565   1.626  0.5473 -0.6615  1.7300
  826SOL    HW2 2478   1.872   0.615   1.517  0.3765 -1.1443 -1.0996
  827SOL     OW 2479   0.735   1.430   0.297  0.0757 -0.6393 -0.1073
  827SOL    HW1 2480   0.739   1.342   0.240 -0.8774  2.2158 -3.5776
  827SOL    HW2 2481   0.695   1.412   0.389 -1.0907 -0.5600 -2.0776
  828SOL     OW 2482   2.514   0.085   1.580  0.0979  0.2891  0.0917
  828SOL    HW1 2483   2.432   0.144   1.595 -5.3541 -1.7983 -0.3090
  828SOL    HW2 2484   2.512  -0.002   1.632 -1.1394  0.1629  0.0642
  829SOL     OW 2485   2.820   2.501   2.968  0.0914  0.2227 -0.1293
  829SOL    HW1 2486   2.748   2.443   2.920 -0.8173 -0.5977 -1.2249
  829SOL    HW2 2487   2.776   2.536   3.061 -4.2999 -0.7765  1.5032
  830SOL     OW 2488   2.802   0.940   3.021  0.6413 -0.2371  0.3510
  830SOL    HW1 2489   2.880   1.009   3.005  1.3126  0.5362 -0.8049
  830SOL    HW2 2490   2.834   0.857   3.080  1.2507 -2.5793  0.3321
  831SOL     OW 2491   0.012   0.640   0.366 -0.1759 -0.1985  0.8971
  831SOL    HW1 2492   0.007   0.572   0.452  2.4256 -0.4108 -1.6138
  831SOL    HW2 2493   0.068   0.600   0.284  2.8742  2.1306  0.0049
  832SOL     OW 2494   1.855   0.725   0.015 -0.1306  0.2163 -0.6495
  832SOL    HW1 2495   1.755   0.754  -0.014 -0.8685  2.5070  0.9168
  832SOL    HW2 2496   1.882   0.626  -0.011 -1.2410  0.6402 -1.2210
  833SOL     OW 2497   2.408   2.124   0.531  0.6203 -0.2778  0.4809
  833SOL    HW1 2498   2.313   2.120   0.483  0.1938  1.4424 -3.2642
  833SOL    HW2 2499   2.459   2.033   0.525  2.3949 -2.1970 -1.6928
  834SOL     OW 2500   0.158   0.203   0.582  0.4500 -0.5157 -0.0807
  834SOL    HW1 2501   0.216   0.126   0.614 -0.7009  0.8790  0.3662
  834SOL    HW2 2502   0.149   0.199   0.484 -0.7343  0.8933 -1.4660
  835SOL     OW 2503   2.355   1.521   1.142  0.6884 -0.4819  0.5974
  835SOL    HW1 2504   2.449   1.527   1.187  0.3900  1.2514 -0.0067
  835SOL    HW2 2505   2.351   1.527   1.042  0.9760  0.4596 -0.4763
  836SOL     OW 2506   1.572   0.812   2.578  0.0270  0.2605 -0.3836
  836SOL    HW1 2507   1.478   0.791   2.544  1.6949 -2.6410 -0.2072
  836SOL    HW2 2508   1.629   0.855   2.503 -0.5376  2.3554 -0.2506
  837SOL     OW 2509   1.737   0.134   0.538  0.1606  0.6334  0.1921
  837SOL    HW1 2510   1.695   0.175   0.620 -2.6773 -1.6987 -0.6936
  837SOL    HW2 2511   1.668   0.118   0.461  0.8576 -2.5881  1.1540
  838SOL     OW 2512   1.206   1.572   2.725 -0.4070 -0.1725 -0.0755
  838SOL    HW1 2513   1.223   1.509   2.808 -4.4925 -1.4096  1.5741
  838SOL    HW2 2514   1.125   1.533   2.671 -1.4385 -1.4042  2.1833
  839SOL     OW 2515   1.591   0.304   0.978 -0.0182  0.4117 -0.4224
  839SOL    HW1 2516   1.660   0.367   1.020 -0.3182 -2.8109  2.8374
  839SOL    HW2 2517   1.545   0.245   1.047 -1.7517  1.2056 -0.2636
  840SOL     OW 2518   2.525   2.931   1.729 -0.7613 -0.2928 -0.2721
  840SOL    HW1 2519   2.471   2.862   1.671  0.2573  3.0933  0.1727
  840SOL    HW2 2520   2.591   2.887   1.791  0.3166  1.6061 -0.4234
  841SOL     OW 2521   1.604   0.818   3.056 -0.0635 -0.3170  0.1321
  841SOL    HW1 2522   1.527   0.828   3.127 -0.1765 -0.1107  0.4566
  841SOL    HW2 2523   1.580   0.866   2.973  1.8307 -3.1623 -1.7120
  842SOL     OW 2524   0.822   1.469   0.900  0.2399  0.1880  0.2593
  842SOL    HW1 2525   0.788   1.542   0.970  0.9548  0.8197 -1.3136
  842SOL    HW2 2526   0.737   1.420   0.863  0.6469  0.3365  2.3252
  843SOL     OW 2527   0.099   0.019   1.385 -0.2868 -0.2235 -0.1846
  843SOL    HW1 2528   0.157   0.078   1.442 -1.0269 -1.1735  1.0543
  843SOL    HW2 2529   0.091  -0.073   1.434  0.7563 -0.1582  2.3837
  844SOL     OW 2530   0.809   2.494   0.272  0.3179 -0.1722 -0.1136
  844SOL    HW1 2531   0.761   2.452   0.354 -0.4763 -1.1363  0.3031
  844SOL    HW2 2532   0.745   2.549   0.212 -3.0044  0.3160  3.0698
  845SOL     OW 2533   1.663   2.884   1.281 -0.3514 -0.0704  0.9385
  845SOL    HW1 2534   1.738   2.813   1.257 -2.3164  0.6022  0.1081
  845SOL    HW2 2535   1.674   2.928   1.376  1.1864  2.0889  2.2578
  846SOL     OW 2536   1.587   2.950   0.709  0.3955 -0.5033  0.3394
  846SOL    HW1 2537   1.543   2.922   0.621  1.4332  2.5098  0.8467
  846SOL    HW2 2538   1.690   2.957   0.707 -0.8583  1.9479 -0.0601
  847SOL     OW 2539   2.087   1.665   0.407 -0.1119 -0.3282 -0.8323
  847SOL    HW1 2540   2.042   1.576   0.388 -2.0503  3.4373  0.8678
  847SOL    HW2 2541   2.024   1.751   0.385 -3.0543  3.1900  2.4034
  848SOL     OW 2542   2.446   0.860   2.614 -0.1483 -0.1509  0.2167
  848SOL    HW1 2543   2.395   0.939   2.656  0.9054  0.7922 -1.0073
  848SOL    HW2 2544   2.389   0.770   2.614 -1.1957  1.3373 -0.7165
  849SOL     OW 2545   2.568   0.856   2.363 -0.5122  0.1608 -0.1016
  849SOL    HW1 2546   2.651   0.799   2.392 -1.1204  1.3009  1.4426
  849SOL    HW2 2547   2.508   0.858   2.442  0.1349 -1.3349  0.6280
  850SOL     OW 2548   1.563   0.101   1.362 -0.2821 -0.1615  0.2344
  850SOL    HW1 2549   1.561   0.078   1.259 -1.6329 -1.5028  2.3774
  850SOL    HW2 2550   1.511   0.035   1.420  0.4478  0.6605 -0.2654
  851SOL     OW 2551   0.440   1.819   0.565 -0.2125 -0.6866 -0.2426
  851SOL    HW1 2552   0.469   1.895   0.632 -1.8522  1.6693  0.3582
  851SOL    HW2 2553   0.495   1.811   0.478 -0.4526 -1.6699 -1.3212
  852SOL     OW 2554   0.820   2.048   1.799 -0.4433  0.4061 -0.2524
  852SOL    HW1 2555   0.856   2.142   1.768  0.8283  0.2453  1.1346
  852SOL    HW2 2556   0.762   2.048   1.886 -2.7535 -4.2214  0.3451
  853SOL     OW 2557   2.512   1.541   2.599 -0.2198  0.2080 -0.1543
  853SOL    HW1 2558   2.467   1.451   2.567 -2.1990  0.9606 -0.1574
  853SOL    HW2 2559   2.524   1.608   2.516 -0.3413 -0.9571  1.4726
  854SOL     OW 2560   2.426   1.374   1.750 -0.4413 -0.3578 -0.2854
  854SOL    HW1 2561   2.478   1.335   1.669  1.2500 -0.6977  0.3357
  854SOL    HW2 2562   2.394   1.300   1.817 -2.3543  0.5315 -1.7557
  855SOL     OW 2563   2.082   2.461   1.047  0.0829  0.7633 -0.6801
  855SOL    HW1 2564   2.071   2.560   1.023  0.1049  0.8837  0.6567
  855SOL    HW2 2565   2.163   2.449   1.112  0.5681  0.2359 -0.1568
  856SOL     OW 2566   1.318   1.411   0.934  0.7362 -0.4428 -0.3547
  856SOL    HW1 2567   1.387   1.473   0.989  2.2831  0.7002  0.3474
  856SOL    HW2 2568   1.217   1.433   0.956 -1.7038  1.4531 -0.9927
  857SOL     OW 2569   3.065   2.756   0.997 -0.3870 -0.3999 -0.5300
  857SOL    HW1 2570   3.005   2.702   0.936  1.8217  1.4486  1.3588
  857SOL    HW2 2571   3.156   2.777   0.948  2.1913 -0.7332  0.1871
  858SOL     OW 2572   2.367   2.096   1.717 -0.3697  0.1426 -0.0693
  858SOL    HW1 2573   2.282   2.061   1.676 -1.6174  0.0238  0.1791
  858SOL    HW2 2574   2.439   2.025   1.687 -2.7671  0.2615 -3.4754
  859SOL     OW 2575   2.388   0.571   1.081  0.7306  0.3484  0.8555
  859SOL    HW1 2576   2.440   0.619   1.007  1.0903  0.7346 -0.8528
  859SOL    HW2 2577   2.450   0.502   1.127  1.7365 -0.6738 -0.6551
  860SOL     OW 2578   1.815   2.813   0.508  0.2422 -0.5644  0.1152
  860SOL    HW1 2579   1.812   2.773   0.407  1.1396  0.9333 -0.4857
  860SOL    HW2 2580   1.873   2.899   0.515  1.5881  1.9445  0.0214
  861SOL     OW 2581   0.983   2.455   2.869  0.5093 -0.3264  0.3809
  861SOL    HW1 2582   1.049   2.517   2.822  0.3358 -0.4466 -0.8645
  861SOL    HW2 2583   0.974   2.468   2.969 -2.1635 -2.4697 -0.3193
  862SOL     OW 2584   2.931   2.553   1.615 -0.0254  0.1189 -0.2020
  862SOL    HW1 2585   2.998   2.586   1.689  1.7016  3.5229 -2.4689
  862SOL    HW2 2586   2.889   2.641   1.578  2.2543 -1.7742 -2.8459
  863SOL     OW 2587   1.808   2.743   0.245 -0.1410 -0.0490 -0.4352
  863SOL    HW1 2588   1.845   2.649   0.260 -0.7590  2.2929 -0.3696
  863SOL    HW2 2589   1.716   2.740   0.199  0.3417  1.6158  0.8718
  864SOL     OW 2590   2.031   1.244   2.852 -0.0389 -0.6837  0.2965
  864SOL    HW1 2591   2.017   1.163   2.781  2.7294 -2.9195 -4.2811
  864SOL    HW2 2592   2.083   1.325   2.813 -0.7458  1.7939  0.6500
  865SOL     OW 2593   2.174   1.934   0.731 -0.3500 -0.1277  0.6470
  865SOL    HW1 2594   2.242   1.880   0.788  1.0936 -0.0440  1.0364
  865SOL    HW2 2595   2.107   1.988   0.788 -1.5190  0.4080  0.7009
  866SOL     OW 2596   2.879   2.961   1.012  0.0681 -0.4321  0.2964
  866SOL    HW1 2597   2.871   3.022   0.925 -2.8940  1.2305 -3.2520
  866SOL    HW2 2598   2.956   2.889   0.999 -1.0610 -1.0471  1.9705
  867SOL     OW 2599   0.360   1.453   0.932  0.1528  0.0792  0.0038
  867SOL    HW1 2600   0.290   1.390   0.887  0.7786 -0.1347  1.3204
  867SOL    HW2 2601   0.353   1.555   0.892 -0.1931  4.1748  1.2934
  868SOL     OW 2602   0.765   1.834   2.084  0.3850  0.3442  0.6471
  868SOL    HW1 2603   0.696   1.814   2.167 -1.7870 -1.1623  1.1198
  868SOL    HW2 2604   0.764   1.936   2.056  0.0442 -0.3902  2.3837
  869SOL     OW 2605   2.577   1.934   1.639 -0.2773  0.0418 -0.5819
  869SOL    HW1 2606   2.656   2.004   1.619  5.6239  0.9376  1.9202
  869SOL    HW2 2607   2.604   1.843   1.600  2.0423  1.6376  1.3175
  870SOL     OW 2608   2.320   2.717   1.238 -0.5512 -0.4698 -0.6288
  870SOL    HW1 2609   2.321   2.614   1.275  1.2719 -4.4393  0.2289
  870SOL    HW2 2610   2.397   2.779   1.270 -0.9663  1.5588  1.9839
  871SOL     OW 2611   3.098   2.270   0.562  1.6077  0.1326 -0.2365
  871SOL    HW1 2612   3.066   2.323   0.644 -3.5270  0.2597  0.1765
  871SOL    HW2 2613   3.031   2.272   0.480 -0.1032 -0.7757 -1.5141
  872SOL     OW 2614   2.087   0.431   1.700  0.1186 -0.0159 -0.5079
  872SOL    HW1 2615   2.056   0.431   1.798 -0.3605 -2.3095 -1.2527
  872SOL    HW2 2616   2.192   0.411   1.692  0.1928  0.6038  0.7251
  873SOL     OW 2617   1.700   2.096   0.003  0.0820  0.0367 -0.1087
  873SOL    HW1 2618   1.641   2.153   0.069  2.8664  0.1103  0.1295
  873SOL    HW2 2619   1.671   2.108  -0.098  1.5137 -0.0730 -1.1494
  874SOL     OW 2620   0.672   2.464   0.755  0.1421  0.2229  0.2168
  874SOL    HW1 2621   0.683   2.566   0.749  1.5207  0.5914 -0.4521
  874SOL    HW2 2622   0.764   2.411   0.764  1.0247  2.0188 -0.8491
  875SOL     OW 2623   2.257   1.507   1.433 -0.0766  0.1431 -0.1107
  875SOL    HW1 2624   2.317   1.562   1.494  1.0788  2.2994  1.4774
  875SOL    HW2 2625   2.284   1.514   1.332  1.0063  2.2170 -0.7432
  876SOL     OW 2626   0.067   2.276   2.656  0.2009 -0.0527  0.0836
  876SOL    HW1 2627   0.117   2.198   2.699 -2.2315  1.7817 -2.7552
  876SOL    HW2 2628   0.076   2.363   2.715  0.4306  2.8725  0.3242
  877SOL     OW 2629   2.923   2.646   0.623  0.0081 -0.5110 -0.2910
  877SOL    HW1 2630   2.919   2.746   0.637 -1.3453 -1.0990  1.7045
  877SOL    HW2 2631   2.997   2.606   0.687  1.0368  0.0368 -0.1698
  878SOL     OW 2632   2.820   1.503   2.248 -0.1532 -0.3182  0.6334
  878SOL    HW1 2633   2.791   1.581   2.184 -0.0208 -0.0210 -0.5768
  878SOL    HW2 2634   2.812   1.529   2.348  0.3228  1.0596  1.0291
  879SOL     OW 2635   2.396   0.073   1.234 -0.4575  0.5501  0.4963
  879SOL    HW1 2636   2.426  -0.025   1.244 -0.9100  0.9954 -1.7159
  879SOL    HW2 2637   2.333   0.082   1.151  0.1180  1.0888  2.7575
  880SOL     OW 2638   0.734   0.527   2.255  0.1236 -0.2662 -0.5512
  880SOL    HW1 2639   0.672   0.462   2.308 -2.4530  1.3093 -0.4871
  880SOL    HW2 2640   0.804   0.482   2.189  0.2973 -0.1214  0.0926
  881SOL     OW 2641   0.820   0.086   0.415  0.2137 -0.2596  0.0089
  881SOL    HW1 2642   0.874  -0.007   0.420  0.0878  0.5805  0.5291
  881SOL    HW2 2643   0.723   0.066   0.377  0.5030  0.4479 -2.1908
  882SOL     OW 2644   2.724   1.662   1.700 -0.3909 -0.0162 -0.1486
  882SOL    HW1 2645   2.817   1.652   1.652 -1.9162  0.2326 -1.0103
  882SOL    HW2 2646   2.734   1.710   1.789  1.0487  2.4069  1.1656
  883SOL     OW 2647   0.812   0.506   0.928  0.1515  0.0854  0.5185
  883SOL    HW1 2648   0.869   0.590   0.944 -0.5314  1.5321 -0.6369
  883SOL    HW2 2649   0.752   0.478   1.011 -1.2193  1.5207 -0.9289
  884SOL     OW 2650   1.103   1.757   1.147 -0.1503  0.0137  0.6467
  884SOL    HW1 2651   1.086   1.658   1.113 -0.1653 -1.8496 -0.9817
  884SOL    HW2 2652   1.066   1.830   1.090  2.0990 -2.2649  3.2078
  885SOL     OW 2653   2.330   1.845   2.222 -0.2453 -0.6427  0.2317
  885SOL    HW1 2654   2.252   1.797   2.273  0.2034  0.4227 -1.1899
  885SOL    HW2 2655   2.321   1.951   2.209 -1.0004 -1.6423 -0.8369
  886SOL     OW 2656   2.602   0.348   1.808 -0.6259 -0.2096 -0.3725
  886SOL    HW1 2657   2.577   0.334   1.906  1.9623 -1.4137 -0.6734
  886SOL    HW2 2658   2.689   0.403   1.793  0.3721 -0.2088  1.0292
  887SOL     OW 2659   0.153   2.056   1.259  0.1635  0.1425  0.5215
  887SOL    HW1 2660   0.054   2.038   1.273 -1.2898 -1.0210 -0.6801
  887SOL    HW2 2661   0.176   2.144   1.212 -0.3284  1.4611  0.2307
  888SOL     OW 2662   0.657   1.214   1.496 -0.1031 -0.1654 -0.0025
  888SOL    HW1 2663   0.666   1.269   1.409 -1.5663  2.7879 -1.7296
  888SOL    HW2 2664   0.586   1.136   1.491 -0.0623  2.0236 -0.9510
  889SOL     OW 2665   0.858   2.467   2.252 -0.1475  0.8977 -0.0965
  889SOL    HW1 2666   0.771   2.406   2.250 -2.6528  1.0665 -1.7466
  889SOL    HW2 2667   0.915   2.467   2.163  0.8156  1.4446  0.1517
  890SOL     OW 2668   2.350   2.479   0.234  0.1700  0.7340  0.2979
  890SOL    HW1 2669   2.336   2.560   0.177  0.2337 -0.7658  2.7972
  890SOL    HW2 2670   2.279   2.473   0.304 -0.7318  2.9337 -0.6207
  891SOL     OW 2671   2.529   1.721   0.703 -0.3917  0.3403 -0.5277
  891SOL    HW1 2672   2.501   1.658   0.784  0.4644 -0.5185 -0.1980
  891SOL    HW2 2673   2.458   1.710   0.627 -0.9648 -0.0766  2.2886
  892SOL     OW 2674   0.398   0.370   2.222  0.5684 -0.4107  0.1563
  892SOL    HW1 2675   0.397   0.465   2.177  0.2374 -0.9398  0.7887
  892SOL    HW2 2676   0.460   0.365   2.302  0.5217 -0.6927  0.3370
  893SOL     OW 2677   1.710   0.221   2.708 -0.2461  0.0376  0.0373
  893SOL    HW1 2678   1.770   0.268   2.777  1.1694 -3.5433  0.2324
  893SOL    HW2 2679   1.629   0.279   2.681  2.9016 -1.7289  0.4648
  894SOL     OW 2680   2.170   2.088   0.069 -0.3005  0.0048 -0.2420
  894SOL    HW1 2681   2.159   2.009   0.005  1.7232 -1.1835  1.0644
  894SOL    HW2 2682   2.169   2.065   0.169  0.0487  0.4632  0.3983
  895SOL     OW 2683   2.745   1.447   0.935  0.7923  0.5933 -0.1129
  895SOL    HW1 2684   2.820   1.374   0.916  2.2621 -0.0508  0.3803
  895SOL    HW2 2685   2.782   1.530   0.978  1.6227 -0.6707  1.5496
  896SOL     OW 2686   1.844   1.869   1.222  0.1181  0.1210  0.1241
  896SOL    HW1 2687   1.928   1.804   1.233  2.3909 -1.2087 -2.3645
  896SOL    HW2 2688   1.776   1.831   1.155  1.7515 -0.4510 -1.2214
  897SOL     OW 2689   0.268   0.509   3.029  0.4984  0.4389  0.3681
  897SOL    HW1 2690   0.221   0.558   2.955  1.3808 -0.6526  0.5382
  897SOL    HW2 2691   0.358   0.552   3.060  0.4400  1.7816 -1.5496
  898SOL     OW 2692   0.685   2.801   1.020 -0.2196  0.1883 -0.1496
  898SOL    HW1 2693   0.718   2.900   1.032  1.3966 -0.3244  3.4950
  898SOL    HW2 2694   0.703   2.741   1.103  1.9936 -0.7704 -0.2919
  899SOL     OW 2695   2.848   0.888   1.427 -0.5470  0.0582 -0.3086
  899SOL    HW1 2696   2.832   0.895   1.326  2.3546 -3.5202 -1.4488
  899SOL    HW2 2697   2.948   0.910   1.450  2.1402 -0.2742  0.6773
  900SOL     OW 2698   0.989   2.435   2.473  0.2233  0.8946  1.0451
  900SOL    HW1 2699   0.933   2.426   2.379 -0.7866 -2.9189 -0.0060
  900SOL    HW2 2700   0.956   2.373   2.549  0.5348  0.7614 -2.7892
  901SOL     OW 2701   1.917   2.447   1.401  0.0420 -0.7945 -0.5177
  901SOL    HW1 2702   1.881   2.387   1.327 -2.0794  3.0339 -0.3699
  901SOL    HW2 2703   2.012   2.424   1.439 -0.0282  2.0281 -2.1281
  902SOL     OW 2704   2.512   1.672   1.483 -0.2102  0.5061  0.7170
  902SOL    HW1 2705   2.572   1.648   1.565 -0.2633 -1.9125 -0.8507
  902SOL    HW2 2706   2.540   1.623   1.397 -1.8165 -0.0262  0.6420
  903SOL     OW 2707   0.338   2.498   1.994 -0.5228  0.4987 -0.0144
  903SOL    HW1 2708   0.269   2.421   1.999  0.6901 -1.3072 -3.4626
  903SOL    HW2 2709   0.305   2.576   1.932  2.4506 -0.4631 -0.3613
  904SOL     OW 2710   1.993   0.792   2.499 -0.0583  0.1823  1.1022
  904SOL    HW1 2711   1.922   0.726   2.533 -0.4592  4.5852  2.5048
  904SOL    HW2 2712   2.032   0.765   2.406  0.5345 -0.9583  1.6914
  905SOL     OW 2713   2.850   0.087   2.382  0.6662 -0.1936  0.1741
  905SOL    HW1 2714   2.888  -0.009   2.387 -0.8533  0.8042  0.1626
  905SOL    HW2 2715   2.911   0.156   2.428 -1.0622 -0.4985 -2.3531
  906SOL     OW 2716   0.156   1.696   1.882 -0.2929  0.3872 -0.1431
  906SOL    HW1 2717   0.105   1.734   1.802 -2.7334 -3.6765  3.7685
  906SOL    HW2 2718   0.259   1.688   1.871 -2.6044 -1.9254 -0.4162
  907SOL     OW 2719   0.219   2.477   0.955 -0.6059 -0.4622  0.2397
  907SOL    HW1 2720   0.309   2.423   0.971 -0.3604 -1.6396 -0.1355
  907SOL    HW2 2721   0.236   2.569   0.919  0.3800 -0.9935  1.1307
  908SOL     OW 2722   2.830   3.047   0.268 -0.1404 -0.1842 -0.1465
  908SOL    HW1 2723   2.733   3.025   0.242  1.6835  1.7904 -0.0811
  908SOL    HW2 2724   2.887   2.959   0.286  1.4581  2.4197 -0.4797
  909SOL     OW 2725   0.846   1.045   2.685  0.4694  0.3372 -0.2065
  909SOL    HW1 2726   0.799   0.958   2.669  0.8078 -0.0887  0.9928
  909SOL    HW2 2727   0.940   1.045   2.637  0.9606 -0.3854 -2.7168
  910SOL     OW 2728   1.782   1.877   2.154 -0.3877  0.2639  0.2551
  910SOL    HW1 2729   1.864   1.899   2.091  0.5024 -1.3185 -2.5868
  910SOL    HW2 2730   1.708   1.951   2.159 -3.1136  0.7218  0.0876
  911SOL     OW 2731   1.786   2.962   1.538  0.5127 -0.3793  0.3607
  911SOL    HW1 2732   1.852   2.968   1.462 -1.1596  2.0682  1.9400
  911SOL    HW2 2733   1.802   2.875   1.594  0.0448 -1.0035 -0.0636
  912SOL     OW 2734   2.851   1.020   0.719  0.4299  0.1028  0.2569
  912SOL    HW1 2735   2.870   0.984   0.814 -3.6955 -1.0921  0.2471
  912SOL    HW2 2736   2.765   1.083   0.720  0.7106  1.8562 -0.0475
  913SOL     OW 2737   2.552   1.279   1.525 -0.2064 -0.5651 -0.3071
  913SOL    HW1 2738   2.575   1.178   1.513  1.7360  1.5628 -2.1331
  913SOL    HW2 2739   2.605   1.349   1.469 -0.9232  0.7895 -0.4798
  914SOL     OW 2740   2.775   0.597   1.140  0.1406  0.6279 -0.7097
  914SOL    HW1 2741   2.770   0.505   1.193 -1.3163 -3.3126  1.0764
  914SOL    HW2 2742   2.699   0.660   1.176  0.3020  1.6748  0.2573
  915SOL     OW 2743   1.190   0.785   0.985  0.4295 -0.1136  0.6886
  915SOL    HW1 2744   1.231   0.806   1.075 -0.4047 -4.3104 -1.7193
  915SOL    HW2 2745   1.096   0.740   0.992 -0.0612 -1.1253 -0.8890
  916SOL     OW 2746   0.571   0.130   0.676 -0.2677 -0.4708  0.0268
  916SOL    HW1 2747   0.664   0.155   0.711 -2.4902 -1.3361 -3.2448
  916SOL    HW2 2748   0.565   0.155   0.578  1.5659  0.5745 -0.6877
  917SOL     OW 2749   2.862   2.563   2.000  0.5883 -0.4451 -0.1771
  917SOL    HW1 2750   2.778   2.597   1.956 -0.6494 -1.5996 -0.8672
  917SOL    HW2 2751   2.935   2.638   1.995 -0.4704  0.4259  2.6039
  918SOL     OW 2752   1.007   2.074   3.012 -0.0337 -0.4646  0.3806
  918SOL    HW1 2753   1.020   2.153   3.079 -0.7916  0.9207 -1.4832
  918SOL    HW2 2754   1.084   2.072   2.937  0.8538 -0.6064 -1.8620
  919SOL     OW 2755   0.870   1.713   2.757 -0.1532 -0.0740  0.4948
  919SOL    HW1 2756   0.902   1.800   2.708 -0.0449  0.8533 -1.7556
  919SOL    HW2 2757   0.825   1.643   2.693 -0.0556  0.2754 -1.4401
  920SOL     OW 2758   1.293   1.753   2.522 -0.5525  0.0888  0.0202
  920SOL    HW1 2759   1.384   1.746   2.472 -0.9617 -1.0518  1.9946
  920SOL    HW2 2760   1.266   1.671   2.582  2.2762 -0.0935  2.4558
  921SOL     OW 2761   1.137   0.010   2.650 -0.4351 -0.3896  0.0798
  921SOL    HW1 2762   1.105  -0.002   2.551 -0.9634  0.2272 -1.8925
  921SOL    HW2 2763   1.058   0.017   2.716  3.2835  0.9121 -1.3068
  922SOL     OW 2764   2.185   2.371   2.742  0.0488 -0.2828  0.1678
  922SOL    HW1 2765   2.173   2.268   2.755 -0.8928  3.1218 -2.2646
  922SOL    HW2 2766   2.121   2.408   2.674  1.6445 -0.6912 -1.3609
  923SOL     OW 2767   1.273   2.731   0.266  0.1895 -0.9717 -0.0084
  923SOL    HW1 2768   1.326   2.792   0.334 -2.2693  1.5206 -0.1134
  923SOL    HW2 2769   1.286   2.627   0.285 -0.4122 -0.6934  1.1632
  924SOL     OW 2770   2.886   1.705   0.149 -0.0730 -0.6553  0.0244
  924SOL    HW1 2771   2.796   1.677   0.103  0.5813 -0.7969  1.2094
  924SOL    HW2 2772   2.963   1.648   0.116 -3.8884 -0.8608  0.2772
  925SOL     OW 2773   0.047   2.867   1.520  0.0396 -0.0225  0.0323
  925SOL    HW1 2774   0.018   2.796   1.592 -0.9715  0.6185  1.6863
  925SOL    HW2 2775  -0.003   2.846   1.431  3.0611  0.2573  0.8951
  926SOL     OW 2776   1.310   2.832   1.317 -0.0793  0.4781  0.3456
  926SOL    HW1 2777   1.355   2.820   1.226 -1.9989 -1.6045  1.3603
  926SOL    HW2 2778   1.355   2.909   1.365 -1.5655  1.4662 -0.0392
  927SOL     OW 2779   0.359   2.661   1.751 -0.3135 -0.2180  0.4978
  927SOL    HW1 2780   0.342   2.569   1.705 -0.9819  1.5232 -0.2580
  927SOL    HW2 2781   0.302   2.743   1.712 -0.1029 -0.6359  0.3601
  928SOL     OW 2782   1.597   2.072   2.227  0.3206  0.0699  0.5092
  928SOL    HW1 2783   1.604   2.156   2.165  0.8672 -0.2328  0.8216
  928SOL    HW2 2784   1.496   2.060   2.259 -1.8243 -2.9208 -0.2900
  929SOL     OW 2785   2.401   2.498   2.859 -0.2217 -0.6143 -0.2303
  929SOL    HW1 2786   2.316   2.440   2.830 -0.7516  1.9483 -0.4870
  929SOL    HW2 2787   2.478   2.504   2.791  3.0404  0.7956  0.7591
  930SOL     OW 2788   2.164   1.993   1.131 -0.2390 -0.8131 -0.1382
  930SOL    HW1 2789   2.131   1.956   1.220 -1.4300  1.4714 -0.5783
  930SOL    HW2 2790   2.251   2.053   1.133 -2.3292  0.0807 -1.9875
  931SOL     OW 2791   0.513   1.726   2.642  0.0746 -0.1323 -0.1811
  931SOL    HW1 2792   0.533   1.757   2.739  4.0781  0.9647  1.2986
  931SOL    HW2 2793   0.593   1.671   2.612 -1.2833 -1.2763 -0.7798
  932SOL     OW 2794   0.361   0.092   3.079  0.4062  0.4883  0.5149
  932SOL    HW1 2795   0.461   0.126   3.091  2.7717 -0.3860 -2.3592
  932SOL    HW2 2796   0.352  -0.005   3.033 -1.5729 -0.0186  1.6302
  933SOL     OW 2797   0.962   0.847   3.033 -0.3429 -0.1506 -0.2553
  933SOL    HW1 2798   0.869   0.809   3.030  0.5316  0.0436 -0.9550
  933SOL    HW2 2799   0.961   0.951   3.027 -0.2865  1.3797  1.2531
  934SOL     OW 2800   0.721   2.923   2.671 -0.2210 -0.3222 -0.0228
  934SOL    HW1 2801   0.726   2.877   2.573 -3.0985 -0.2239  0.2746
  934SOL    HW2 2802   0.784   2.878   2.739 -1.8665 -0.4813 -3.0942
  935SOL     OW 2803   3.102   0.540   0.821  0.0299 -0.0627 -0.8474
  935SOL    HW1 2804   3.101   0.519   0.718  0.6807  0.3159  0.2579
  935SOL    HW2 2805   3.034   0.614   0.854 -3.6113 -0.0094  0.4427
  936SOL     OW 2806   1.099   2.844   0.080  0.1975  0.3953  0.3221
  936SOL    HW1 2807   1.133   2.893  -0.005  1.2996 -0.5689 -1.1461
  936SOL    HW2 2808   1.169   2.819   0.150 -3.0358 -1.7451 -0.3728
  937SOL     OW 2809   1.911   2.646   2.068 -0.7908  0.3667  0.6399
  937SOL    HW1 2810   1.810   2.655   2.091 -0.7052 -3.1786 -2.0096
  937SOL    HW2 2811   1.935   2.712   1.992 -1.3404 -1.1682 -3.0437
  938SOL     OW 2812   2.794   2.089   1.559  0.6097 -0.0704  0.0610
  938SOL    HW1 2813   2.771   2.192   1.557 -2.1749  0.4353  0.2575
  938SOL    HW2 2814   2.865   2.068   1.633  0.5641 -0.8188  0.9868
  939SOL     OW 2815   2.788   1.229   2.475  0.0217  0.1391 -0.7457
  939SOL    HW1 2816   2.853   1.185   2.408 -2.1548  1.0206 -0.3218
  939SOL    HW2 2817   2.792   1.185   2.568  1.7942  0.6414  0.1564
  940SOL     OW 2818   1.035   0.430   2.768 -0.2475  0.4097 -0.2540
  940SOL    HW1 2819   1.097   0.349   2.760 -0.7354 -0.1065  1.4683
  940SOL    HW2 2820   0.980   0.462   2.682 -0.5258 -1.6787 -0.3344
  941SOL     OW 2821  -0.007   2.784   2.258 -0.0553 -0.2622  0.2712
  941SOL    HW1 2822   0.056   2.723   2.202  0.6148 -0.1872 -0.9159
  941SOL    HW2 2823   0.053   2.844   2.312 -1.9397  0.2312  1.1737
  942SOL     OW 2824   0.059   0.079   2.551  0.5207 -0.0169  0.2376
  942SOL    HW1 2825   0.130   0.086   2.628  0.4564  0.3100  0.3967
  942SOL    HW2 2826   0.070   0.150   2.474 -0.0569  1.3913  0.0676
  943SOL     OW 2827   2.106   1.713   2.333 -0.1964  0.4754 -0.3132
  943SOL    HW1 2828   2.100   1.668   2.239 -1.3188 -3.3579 -1.3728
  943SOL    HW2 2829   2.134   1.649   2.410 -0.9290 -1.5155 -0.6959
  944SOL     OW 2830   2.200   2.366   1.498  0.2798  0.4002  0.1163
  944SOL    HW1 2831   2.295   2.393   1.535 -0.0285 -0.5274 -2.2824
  944SOL    HW2 2832   2.143   2.298   1.548  0.1677  1.6093 -2.9458
  945SOL     OW 2833   0.706   1.581   0.069 -0.3309 -0.2302 -0.1085
  945SOL    HW1 2834   0.612   1.610   0.048  0.9632  1.5502  2.6781
  945SOL    HW2 2835   0.710   1.515   0.150 -0.1237 -2.4618 -0.9338
  946SOL     OW 2836   0.381   0.980   2.543  0.8570 -0.5720 -0.6506
  946SOL    HW1 2837   0.316   0.923   2.484  0.7164 -0.8998 -0.9171
  946SOL    HW2 2838   0.370   1.085   2.531  1.9142  2.3027  1.8437
  947SOL     OW 2839   1.486   0.541   3.077  0.1654 -0.7385 -0.2177
  947SOL    HW1 2840   1.490   0.614   3.003  1.6728  1.6362 -0.8515
  947SOL    HW2 2841   1.389   0.515   3.091 -0.5625 -0.4595 -0.5510
  948SOL     OW 2842   1.898   2.999   2.160 -0.1296  0.6809  0.2816
  948SOL    HW1 2843   1.871   2.971   2.058  0.5682 -0.6439 -0.1079
  948SOL    HW2 2844   1.878   2.923   2.228  2.6933  0.7791 -1.1938
  949SOL     OW 2845   0.603   2.441   0.475 -0.3362  0.3020 -0.5619
  949SOL    HW1 2846   0.614   2.546   0.477  0.0388  0.5108 -1.9142
  949SOL    HW2 2847   0.584   2.412   0.574  0.5995 -0.5589  2.9425
  950SOL     OW 2848   0.197   2.234   2.972 -0.3494  0.3091 -0.1156
  950SOL    HW1 2849   0.192   2.326   2.927 -3.5842 -1.2516  1.9240
  950SOL    HW2 2850   0.173   2.160   2.906 -2.9567  4.2648  2.3988
  951SOL     OW 2851   1.167   2.654   2.769 -0.1874 -0.1445  0.3853
  951SOL    HW1 2852   1.215   2.619   2.853 -0.1397  1.0077 -1.0976
  951SOL    HW2 2853   1.223   2.653   2.680  1.1265  0.2597 -1.0467
  952SOL     OW 2854   0.109   1.643   0.402 -0.8526  0.6227 -0.4215
  952SOL    HW1 2855   0.152   1.728   0.442 -3.2234 -1.9883 -0.1210
  952SOL    HW2 2856   0.126   1.563   0.465  0.0404 -3.1191 -1.3221
  953SOL     OW 2857   2.534   1.771   0.254  0.3954  0.1566 -0.2422
  953SOL    HW1 2858   2.558   1.673   0.244  0.6695  2.8763 -1.9023
  953SOL    HW2 2859   2.470   1.806   0.179 -1.3984 -0.8917 -1.7670
  954SOL     OW 2860   2.167   0.583   0.933  0.9200 -0.0339 -0.5429
  954SOL    HW1 2861   2.188   0.560   0.835 -2.6644  2.1784  1.5851
  954SOL    HW2 2862   2.255   0.570   0.990 -0.4287  1.3964 -2.5654
  955SOL     OW 2863   0.110   2.553   1.371 -0.7833 -0.2290 -0.0449
  955SOL    HW1 2864   0.018   2.578   1.336  1.0788 -0.1488  0.0456
  955SOL    HW2 2865   0.173   2.637   1.347 -1.4152  1.3104 -0.0668
  956SOL     OW 2866   2.813   2.476   2.512 -0.4178 -0.0979 -0.7458
  956SOL    HW1 2867   2.793   2.374   2.499  1.5890  0.2848  0.0479
  956SOL    HW2 2868   2.837   2.530   2.424  2.0203  0.8249  1.8496
  957SOL     OW 2869   1.567   2.055   2.727 -0.0841  0.5072 -0.1773
  957SOL    HW1 2870   1.519   1.971   2.772  0.2951 -1.5954 -0.7275
  957SOL    HW2 2871   1.638   2.026   2.664 -2.0442 -0.5950 -0.0777
  958SOL     OW 2872   2.591   2.287   2.956 -0.3909  0.6184  0.3262
  958SOL    HW1 2873   2.510   2.355   2.948 -3.3207  1.9759  1.1157
  958SOL    HW2 2874   2.607   2.249   3.052  2.2173  1.3240 -1.3884
  959SOL     OW 2875   0.339   2.770   0.098 -0.4884  0.2515  0.0373
  959SOL    HW1 2876   0.268   2.831   0.141 -1.0871  2.3519  0.2361
  959SOL    HW2 2877   0.361   2.682   0.151 -0.7590  1.4903 -1.7410
  960SOL     OW 2878   1.958   0.427   1.929  0.2957  0.1322 -0.3723
  960SOL    HW1 2879   1.931   0.523   1.903 -1.9727 -0.1231  0.8254
  960SOL    HW2 2880   1.973   0.424   2.033 -0.3937 -0.0329 -1.0898
  961SOL     OW 2881   2.543   1.849   1.031 -0.1617  0.3324  0.8036
  961SOL    HW1 2882   2.538   1.946   0.999  0.0680  0.6087 -0.1345
  961SOL    HW2 2883   2.525   1.832   1.134 -0.3848  1.8434  2.9005
  962SOL     OW 2884   1.333   0.863   0.057  0.5603  0.2829 -0.2616
  962SOL    HW1 2885   1.286   0.895  -0.030 -2.3648 -0.3698  1.2474
  962SOL    HW2 2886   1.321   0.930   0.135  0.9996  1.6951  3.1596
  963SOL     OW 2887   2.283   2.556   1.822  0.0805 -0.4427 -0.3175
  963SOL    HW1 2888   2.224   2.512   1.890  0.1626  1.7128 -2.1575
  963SOL    HW2 2889   2.337   2.632   1.871 -1.6697  2.4788  1.4569
  964SOL     OW 2890   2.365   0.364   1.649  0.4833 -0.1398  0.3515
  964SOL    HW1 2891   2.458   0.362   1.695  2.3689  3.0232  0.7329
  964SOL    HW2 2892   2.373   0.404   1.556 -0.1113 -1.3390  2.7947
  965SOL     OW 2893   2.585   2.984   0.157 -0.3067  0.2848  0.2902
  965SOL    HW1 2894   2.658   2.964   0.087 -2.7959 -0.1957  0.4516
  965SOL    HW2 2895   2.490   2.992   0.115  1.0864  2.8505  0.8392
  966SOL     OW 2896   2.517   2.521   2.188  0.1149  0.7820 -0.1958
  966SOL    HW1 2897   2.549   2.620   2.180  0.4787 -0.5178  0.7067
  966SOL    HW2 2898   2.419   2.505   2.157 -0.0589 -0.4279 -1.1132
  967SOL     OW 2899   2.746   2.862   2.448  1.1151  0.2206  0.2818
  967SOL    HW1 2900   2.775   2.780   2.388  3.4272 -2.3139  4.0988
  967SOL    HW2 2901   2.835   2.904   2.480  0.2675 -1.9958  1.7583
  968SOL     OW 2902   1.946   1.044   2.623 -0.4496  0.4005 -0.4213
  968SOL    HW1 2903   1.867   1.100   2.595 -1.4436 -0.4659  0.3347
  968SOL    HW2 2904   1.969   0.960   2.563  1.5716 -1.6814 -0.3941
  969SOL     OW 2905   2.759   2.483   1.077 -0.3538 -0.8238  0.0468
  969SOL    HW1 2906   2.733   2.476   0.976  1.4312  1.0443 -0.5745
  969SOL    HW2 2907   2.828   2.409   1.104  0.9279 -0.3253 -1.4496
  970SOL     OW 2908   1.088   2.123   1.852 -0.4252  0.0777 -0.2369
  970SOL    HW1 2909   1.010   2.060   1.818 -1.2798 -1.7031 -2.1140
  970SOL    HW2 2910   1.051   2.209   1.897  0.6593 -1.7388  0.6141
  971SOL     OW 2911   2.865   2.049   1.979  0.9476  0.2218  0.8136
  971SOL    HW1 2912   2.878   2.139   2.024  2.3403 -2.9473  0.9620
  971SOL    HW2 2913   2.931   2.036   1.902 -1.5083  1.7347  0.7579
  972SOL     OW 2914   1.948   2.487   0.266  0.5552 -0.0448  0.0395
  972SOL    HW1 2915   1.939   2.426   0.180 -1.1205 -1.7463  1.1761
  972SOL    HW2 2916   1.970   2.437   0.352  1.8442 -1.9282 -1.7901
  973SOL     OW 2917   1.216   0.914   1.865  0.3677  0.4234 -0.2204
  973SOL    HW1 2918   1.180   0.821   1.886  0.7989 -0.2715 -2.2489
  973SOL    HW2 2919   1.147   0.965   1.809  0.8218 -2.5536  0.7853
  974SOL     OW 2920   1.643   0.569   1.950  0.1141 -0.0655 -0.9006
  974SOL    HW1 2921   1.730   0.600   1.894  0.2693  1.8299 -1.2783
  974SOL    HW2 2922   1.561   0.636   1.941 -2.6228  0.8583 -0.2673
  975SOL     OW 2923   2.351   3.048   3.078 -0.4192 -0.1772  0.6269
  975SOL    HW1 2924   2.279   2.980   3.105 -1.3176  0.1895  0.0982
  975SOL    HW2 2925   2.405   3.019   2.997  1.5870  0.4963  1.4735
  976SOL     OW 2926   1.898   2.825   2.358 -0.5266  0.5651  0.2302
  976SOL    HW1 2927   1.811   2.768   2.350  0.7275 -1.3537  0.4848
  976SOL    HW2 2928   1.937   2.824   2.456 -0.0557 -0.7814  2.2450
  977SOL     OW 2929   0.511   0.624   1.001  0.2491 -1.1350 -0.5516
  977SOL    HW1 2930   0.422   0.638   0.940 -2.0751  0.8231 -1.9742
  977SOL    HW2 2931   0.587   0.698   0.981  1.1349 -0.9423 -0.9913
   3.10000   3.10000   3.10000
