1000 SPC/Fw water molecules t=   0.90000 step= 900
 2931
    1SOL     OW    1   2.501   0.350   2.660 -0.0423 -0.5704 -0.1423
    1SOL    HW1    2   2.509   0.254   2.626  1.0354  0.5123  0.5033
    1SOL    HW2    3   2.542   0.375   2.753 -0.3481 -0.8911 -0.3410
    2SOL     OW    4   2.722   3.050   1.445 -0.2054 -0.0385  0.1582
    2SOL    HW1    5   2.795   3.057   1.370 -0.9567  0.0644  0.4556
    2SOL    HW2    6   2.682   3.139   1.473 -2.0540  0.7720 -1.6389
    3SOL     OW    7   2.685   2.607   0.393 -0.2169  0.0209  0.4385
    3SOL    HW1    8   2.661   2.504   0.386 -2.2328 -1.5936  1.5788
    3SOL    HW2    9   2.756   2.628   0.464  1.6274 -1.2151  1.5875
    4SOL     OW   10   1.242   1.534   2.307 -0.1952  0.5496 -0.3078
    4SOL    HW1   11   1.167   1.577   2.255  0.5670 -0.5550 -1.5655
    4SOL    HW2   12   1.205   1.445   2.344  0.1170 -0.1124  0.8180
    5SOL     OW   13   1.153   1.491   0.002 -0.0898  0.2099 -0.1239
    5SOL    HW1   14   1.229   1.563   0.010  1.2929  0.8608  0.5079
    5SOL    HW2   15   1.061   1.524   0.039  1.2909 -0.4102 -1.6299
    6SOL     OW   16   0.136   1.810   2.944  0.1086 -0.4853  0.3599
    6SOL    HW1   17   0.061   1.848   3.005  0.2474 -0.4015 -2.7159
    6SOL    HW2   18   0.218   1.785   2.999  3.5863 -1.1582 -1.6656
    7SOL     OW   19   2.616   0.925   1.104  0.1223  0.2285  0.1404
    7SOL    HW1   20   2.528   0.870   1.118 -2.0653 -0.9912 -2.3555
    7SOL    HW2   21   2.630   0.950   1.006  2.2182 -1.0162 -1.5609
    8SOL     OW   22   0.369   0.617   1.565 -0.3269  0.1015  0.2181
    8SOL    HW1   23   0.461   0.573   1.585  2.8832  2.6255  0.8239
    8SOL    HW2   24   0.377   0.680   1.484 -0.0351  0.1129  1.6568
    9SOL     OW   25   1.180   0.878   2.412 -0.0908  0.5251  0.5061
    9SOL    HW1   26   1.245   0.908   2.342 -0.2955  0.0846 -1.2450
    9SOL    HW2   27   1.149   0.781   2.405  2.9326 -0.8975 -0.3934
   10SOL     OW   28   0.658   1.349   1.296  0.2823  0.3914 -0.8762
   10SOL    HW1   29   0.555   1.368   1.268 -1.3507  0.1729  1.8087
   10SOL    HW2   30   0.717   1.435   1.296  1.1722 -2.0082  1.8761
   11SOL     OW   31   2.341   2.735   0.852 -0.1292  0.2713  0.1713
   11SOL    HW1   32   2.265   2.735   0.921 -0.6580  0.0622 -3.0408
   11SOL    HW2   33   2.424   2.793   0.873 -1.3864  1.5855 -0.1966
   12SOL     OW   34   1.488   0.902   0.351 -0.1094  0.1780  0.2089
   12SOL    HW1   35   1.426   0.969   0.304  0.1534 -1.6999 -0.2319
   12SOL    HW2   36   1.508   0.814   0.299 -0.7066  1.3722 -0.7760
   13SOL     OW   37   2.499   0.682   1.788  0.5048  0.5010  0.1917
   13SOL    HW1   38   2.398   0.665   1.823 -0.9264  0.4403  1.1992
   13SOL    HW2   39   2.514   0.643   1.693 -1.8161 -0.6310  0.1709
   14SOL     OW   40   1.875   0.063   0.722  0.0696  0.8315 -0.4932
   14SOL    HW1   41   1.816   0.100   0.646  1.7954  0.8874  0.8600
   14SOL    HW2   42   1.823  -0.009   0.778  2.8068 -1.7654 -1.8551
   15SOL     OW   43   1.980   2.074   2.730 -0.0565 -0.2649 -0.3450
   15SOL    HW1   44   1.912   2.148   2.758  1.3605 -0.3210  1.0789
   15SOL    HW2   45   1.934   1.992   2.692 -0.1631  1.2499 -1.2549
   16SOL     OW   46   1.589   1.742   2.970  0.1034  0.0584  0.2488
   16SOL    HW1   47   1.587   1.641   2.995 -2.7491  2.1643  0.5529
   16SOL    HW2   48   1.676   1.784   3.007 -0.1348 -1.9567  3.8111
   17SOL     OW   49   0.121   0.510   0.206 -0.2681 -0.0346  0.0032
   17SOL    HW1   50   0.219   0.536   0.191 -1.0105  0.2009  0.1610
   17SOL    HW2   51   0.068   0.508   0.111  2.4308 -0.6326 -1.4439
   18SOL     OW   52   0.942   2.896   2.137 -0.0582 -0.4723  0.1242
   18SOL    HW1   53   0.856   2.839   2.130 -3.1584  0.5173  2.0597
   18SOL    HW2   54   1.014   2.866   2.070 -2.6115  0.0348  1.7641
   19SOL     OW   55   0.524   0.826   1.893 -0.4262 -0.1344 -0.1542
   19SOL    HW1   56   0.550   0.750   1.953 -0.5569  4.3940 -1.3748
   19SOL    HW2   57   0.603   0.877   1.857 -0.1861 -3.5242 -1.3898
   20SOL     OW   58   0.176   2.720   0.832 -0.2407  0.0463 -0.0963
   20SOL    HW1   59   0.138   2.812   0.796 -1.3763  0.7519  2.2509
   20SOL    HW2   60   0.219   2.658   0.761  1.0945  0.0140 -0.7551
   21SOL     OW   61   2.709   0.231   2.092 -0.7404  0.5852 -0.4058
   21SOL    HW1   62   2.675   0.179   2.010  0.1348  0.1315  0.1295
   21SOL    HW2   63   2.794   0.187   2.132 -4.4189  1.0818  0.9421
   22SOL     OW   64   2.383   0.228   0.155  0.0158  0.3671  0.2799
   22SOL    HW1   65   2.378   0.126   0.156 -0.9885 -1.7022  0.0799
   22SOL    HW2   66   2.292   0.269   0.118 -0.4734  0.6159  0.7173
   23SOL     OW   67   2.786   0.655   0.654  0.1673 -0.4749 -0.2347
   23SOL    HW1   68   2.799   0.548   0.656  1.6113  0.2581 -0.3911
   23SOL    HW2   69   2.756   0.695   0.562 -1.7104 -0.4150  2.4332
   24SOL     OW   70   0.200   1.905   0.364  0.2677  0.7777  0.1325
   24SOL    HW1   71   0.138   1.949   0.290 -0.1169  0.7438 -1.7539
   24SOL    HW2   72   0.303   1.920   0.334 -0.9949  1.9289 -1.2176
   25SOL     OW   73   2.200   0.581   0.254 -0.3306  0.6727 -0.7934
   25SOL    HW1   74   2.175   0.530   0.166  2.2886 -0.8301 -0.6501
   25SOL    HW2   75   2.270   0.520   0.309  2.3006 -0.4983  0.2328
   26SOL     OW   76   2.512   2.092   2.077  0.0949  0.1253 -0.1358
   26SOL    HW1   77   2.575   2.160   2.116 -0.7306 -0.8194 -2.7520
   26SOL    HW2   78   2.557   2.054   1.989 -0.1698  2.2545 -0.7831
   27SOL     OW   79   0.597   2.961   0.203  0.3086 -0.0743  0.0243
   27SOL    HW1   80   0.698   2.975   0.185 -0.3472 -1.3867 -3.3746
   27SOL    HW2   81   0.540   2.954   0.114  0.3970  0.0343 -0.2971
   28SOL     OW   82   1.577   0.169   0.271  0.7265  0.3127 -0.0594
   28SOL    HW1   83   1.637   0.152   0.187  0.3830  1.7511  1.5262
   28SOL    HW2   84   1.588   0.271   0.304  0.0840  1.0286  1.6193
   29SOL     OW   85   1.958   0.631   0.414  0.3400  0.2412 -0.3162
   29SOL    HW1   86   1.941   0.734   0.424  2.6646  2.4518 -1.3233
   29SOL    HW2   87   2.060   0.614   0.414 -0.5508  1.9227  0.2617
   30SOL     OW   88   0.170   1.971   0.884 -0.5203  0.1256 -0.2488
   30SOL    HW1   89   0.134   1.966   0.791  1.3861 -0.5083  2.3994
   30SOL    HW2   90   0.119   2.039   0.944 -0.3135 -1.4206  0.1626
   31SOL     OW   91   2.093   3.075   2.347 -0.1407  0.5981  0.1886
   31SOL    HW1   92   2.088   3.094   2.449  2.9525  0.8973  0.0879
   31SOL    HW2   93   2.033   2.995   2.332  3.0022 -0.1118  2.2334
   32SOL     OW   94   2.960   0.063   0.175  0.5041 -0.8056 -0.4912
   32SOL    HW1   95   2.965  -0.033   0.142  1.6225  2.9070  1.2411
   32SOL    HW2   96   3.049   0.112   0.203  0.9629 -2.1764 -0.2827
   33SOL     OW   97   0.941   0.301   0.601 -0.1463 -0.1592 -0.5131
   33SOL    HW1   98   0.920   0.220   0.542  2.1493  0.6326 -1.5220
   33SOL    HW2   99   1.036   0.336   0.594 -1.0786  1.9398 -0.1316
   34SOL     OW  100   0.262   2.754   1.085  0.4212 -0.4235 -0.1287
   34SOL    HW1  101   0.271   2.671   1.031  0.0389  0.4938  2.0650
   34SOL    HW2  102   0.347   2.788   1.131 -0.5584 -2.2633 -1.1541
   35SOL     OW  103   0.026   0.077   1.889  0.0611 -0.5869  0.4976
   35SOL    HW1  104   0.063  -0.011   1.926 -0.5634 -1.0416  0.2588
   35SOL    HW2  105  -0.004   0.070   1.792 -2.4375  2.0805 -0.0968
   36SOL     OW  106   1.910   1.182   1.730  0.1362  0.3778 -0.2354
   36SOL    HW1  107   1.974   1.124   1.678  0.7043 -0.6556 -2.4663
   36SOL    HW2  108   1.940   1.280   1.757 -2.6184  1.6146 -0.2380
   37SOL     OW  109   1.183   0.178   0.938 -0.2161  0.5015  0.7112
   37SOL    HW1  110   1.228   0.239   1.009 -0.5029  0.5282 -0.1509
   37SOL    HW2  111   1.253   0.112   0.892  2.1868  1.5077 -1.5324
   38SOL     OW  112   1.059   2.809   2.490  0.3787  0.3395  0.3603
   38SOL    HW1  113   0.993   2.737   2.459  4.3105  0.3351 -0.9479
   38SOL    HW2  114   1.026   2.906   2.462 -1.1819  1.5894 -1.8071
   39SOL     OW  115   2.318   1.403   3.027  0.5158 -0.2830  0.3000
   39SOL    HW1  116   2.406   1.349   3.041  1.8182  2.8372 -0.4249
   39SOL    HW2  117   2.280   1.433   3.120  1.8428  1.4841 -2.0906
   40SOL     OW  118   2.040   2.437   2.527  0.2370 -0.4196  0.2432
   40SOL    HW1  119   2.007   2.535   2.524  2.7768  0.7539 -0.3878
   40SOL    HW2  120   1.966   2.363   2.505 -0.7836 -1.9099  1.4756
   41SOL     OW  121   3.039   0.701   2.843 -0.2962 -0.1318 -0.1705
   41SOL    HW1  122   2.961   0.764   2.820 -0.0941  0.1658  2.4807
   41SOL    HW2  123   3.028   0.607   2.796  5.0704 -1.8146 -1.3867
   42SOL     OW  124   1.790   1.737   0.489  0.0535  0.5980 -0.0111
   42SOL    HW1  125   1.742   1.648   0.489 -1.7080  0.3370  0.2421
   42SOL    HW2  126   1.812   1.773   0.393  2.7777 -2.8077 -3.8896
   43SOL     OW  127   0.455   1.642   1.139 -0.0649 -0.2022  0.1211
   43SOL    HW1  128   0.446   1.541   1.148 -1.4388  2.0577 -2.7362
   43SOL    HW2  129   0.363   1.694   1.144 -1.9392  2.7635 -0.2636
   44SOL     OW  130   1.770   2.508   3.015 -0.5077 -0.4577 -0.3003
   44SOL    HW1  131   1.806   2.592   2.962 -1.7006  0.9557  0.3804
   44SOL    HW2  132   1.817   2.426   2.974  0.6959  2.0370 -0.6214
   45SOL     OW  133   0.415   1.941   2.596 -0.5917  0.1175  0.0829
   45SOL    HW1  134   0.342   1.912   2.524 -0.6893 -0.7079  0.3740
   45SOL    HW2  135   0.461   1.856   2.636  2.1478 -1.6293  0.1533
   46SOL     OW  136   1.250   0.682   0.192 -0.2487 -0.0938 -0.1918
   46SOL    HW1  137   1.273   0.753   0.121  0.9938 -1.3848  2.4148
   46SOL    HW2  138   1.165   0.699   0.242 -0.3634 -1.5664 -1.3776
   47SOL     OW  139   0.222   2.515   1.553  0.0616  0.3568 -0.4953
   47SOL    HW1  140   0.224   2.419   1.599 -4.8075 -0.8863  3.3656
   47SOL    HW2  141   0.212   2.518   1.449  4.0778 -1.1813  0.9497
   48SOL     OW  142   2.641   0.642   0.133  0.6572  0.2261 -0.2432
   48SOL    HW1  143   2.617   0.625   0.235 -1.5397  1.0948 -1.9389
   48SOL    HW2  144   2.740   0.648   0.115  2.3563 -0.9357  1.1594
   49SOL     OW  145   0.292   0.811   1.756  0.0290 -0.3402  0.2253
   49SOL    HW1  146   0.362   0.840   1.826 -2.1635  0.6033  0.1691
   49SOL    HW2  147   0.326   0.725   1.707  0.3759 -1.2374  0.7526
   50SOL     OW  148   1.675   1.142   0.336 -0.0893 -0.2701  0.6322
   50SOL    HW1  149   1.660   1.049   0.294  2.1984 -0.1735 -0.1160
   50SOL    HW2  150   1.633   1.161   0.429  0.5981  2.9844  0.3591
   51SOL     OW  151   2.867   1.810   0.278 -0.3611 -0.6397 -0.2690
   51SOL    HW1  152   2.809   1.728   0.244  0.8713 -0.9937 -1.6126
   51SOL    HW2  153   2.948   1.779   0.330 -1.0700  3.7539 -3.2208
   52SOL     OW  154   0.765   2.011   0.510  0.0372 -0.1455  0.3135
   52SOL    HW1  155   0.690   2.070   0.554  2.6250  3.6782  0.7179
   52SOL    HW2  156   0.794   1.933   0.566  1.6617  3.6785 -2.1815
   53SOL     OW  157   0.193   0.418   1.582  0.0237  0.5234 -0.0937
   53SOL    HW1  158   0.271   0.488   1.592 -1.5144  3.1030  0.4718
   53SOL    HW2  159   0.125   0.460   1.517  0.0461 -0.4623 -1.4029
   54SOL     OW  160   1.801   0.491   3.070 -0.4370  0.2579  0.0881
   54SOL    HW1  161   1.843   0.467   3.162 -2.7963  4.0057  2.5304
   54SOL    HW2  162   1.696   0.486   3.063  2.5138  1.0745  1.4167
   55SOL     OW  163   0.756   2.891   0.680 -0.5614 -0.8406 -0.0369
   55SOL    HW1  164   0.694   2.978   0.666  0.8703  1.5497 -1.5805
   55SOL    HW2  165   0.856   2.922   0.685 -0.1023 -0.0833  1.0608
   56SOL     OW  166   0.553   1.589   0.025  0.7090 -0.2447  0.4759
   56SOL    HW1  167   0.458   1.629   0.031  2.6144 -1.0307 -0.6484
   56SOL    HW2  168   0.559   1.507  -0.044  0.9949  0.3831 -1.7086
   57SOL     OW  169   1.717   2.520   2.465  0.3474 -0.1518 -0.6638
   57SOL    HW1  170   1.763   2.442   2.426  1.2730  3.7360  1.3311
   57SOL    HW2  171   1.614   2.509   2.493 -2.1935  0.2037  1.2770
   58SOL     OW  172   0.666   0.246   1.055  0.0569  0.5162  0.3703
   58SOL    HW1  173   0.566   0.243   1.034  1.6573 -0.2902  1.3127
   58SOL    HW2  174   0.704   0.154   1.049 -0.4744  2.1335  3.7189
   59SOL     OW  175   0.463   2.436   2.719 -0.1194 -0.3146 -0.6073
   59SOL    HW1  176   0.499   2.344   2.693 -0.7956 -0.1600  2.0728
   59SOL    HW2  177   0.500   2.475   2.810  1.4131 -1.8357  1.1603
   60SOL     OW  178   2.288   2.052   2.222  0.1691  0.2774  0.4345
   60SOL    HW1  179   2.371   2.058   2.170 -2.6022 -0.4334  0.9308
   60SOL    HW2  180   2.310   2.096   2.311 -0.4375 -0.3813 -1.1882
   61SOL     OW  181   1.316   0.644   0.503 -0.2140  0.4910  0.3437
   61SOL    HW1  182   1.239   0.704   0.547 -2.6462  2.5265 -0.4621
   61SOL    HW2  183   1.340   0.674   0.405 -2.1351 -1.0835 -0.8700
   62SOL     OW  184   2.741   1.822   2.936  0.8269  0.1058 -0.3897
   62SOL    HW1  185   2.686   1.747   2.886  2.7588 -0.4482 -2.4031
   62SOL    HW2  186   2.826   1.840   2.883 -0.5998 -1.0014  1.2075
   63SOL     OW  187   0.564   0.870   0.202 -0.7218 -1.0517  0.2269
   63SOL    HW1  188   0.625   0.922   0.131 -0.9030 -0.4244 -3.1910
   63SOL    HW2  189   0.614   0.858   0.292  1.6671 -0.0262  1.4530
   64SOL     OW  190   0.096   0.473   2.465 -0.3968  0.0735 -0.6355
   64SOL    HW1  191   0.128   0.546   2.530  1.1239 -0.3919 -0.3135
   64SOL    HW2  192   0.069   0.503   2.374 -0.9447 -2.8627  3.2251
   65SOL     OW  193   0.146   1.515   0.530 -0.0313  0.6158 -0.1207
   65SOL    HW1  194   0.171   1.553   0.620  0.8837  0.4962 -0.3313
   65SOL    HW2  195   0.231   1.476   0.489 -2.5725  0.2545 -1.0946
   66SOL     OW  196   2.567   0.368   0.621 -0.4749 -0.5620 -0.1199
   66SOL    HW1  197   2.669   0.357   0.645  3.0331  1.0384  2.2346
   66SOL    HW2  198   2.500   0.294   0.655 -1.0264 -2.0234 -0.0352
   67SOL     OW  199   0.531   2.546   1.389  0.2225 -0.3301  0.3525
   67SOL    HW1  200   0.622   2.509   1.408 -1.5589 -1.8259  0.5958
   67SOL    HW2  201   0.460   2.474   1.374  2.4417 -0.2935  1.7402
   68SOL     OW  202   1.010   1.075   2.473 -0.4538 -0.2781 -0.1232
   68SOL    HW1  203   1.076   0.993   2.461 -0.1308  0.3522  0.2917
   68SOL    HW2  204   0.945   1.090   2.391  0.5695 -0.3044  0.5227
   69SOL     OW  205   0.737   2.742   2.165 -0.3258  0.0777 -0.4972
   69SOL    HW1  206   0.783   2.652   2.141  1.2655  1.0858  0.1575
   69SOL    HW2  207   0.639   2.729   2.178  1.1059 -1.1658  3.2109
   70SOL     OW  208   0.536   0.288   2.690  0.4218 -0.3555 -0.4094
   70SOL    HW1  209   0.467   0.315   2.758 -0.0286  1.1382 -1.7674
   70SOL    HW2  210   0.547   0.187   2.670 -0.8134 -2.8029  1.2769
   71SOL     OW  211   1.121   1.751   0.468 -0.2799  0.0896  0.2283
   71SOL    HW1  212   1.056   1.684   0.507  1.9699  2.8590 -1.9874
   71SOL    HW2  213   1.091   1.798   0.379 -1.5685  2.1204 -0.1765
   72SOL     OW  214   1.817   0.209   2.168  0.4982 -0.0724 -0.2886
   72SOL    HW1  215   1.895   0.274   2.208  1.9584 -0.2998  0.0685
   72SOL    HW2  216   1.839   0.109   2.183 -0.2697  0.6347  0.6764
   73SOL     OW  217   2.805   2.178   2.406 -0.2544 -0.3414 -0.2409
   73SOL    HW1  218   2.793   2.081   2.374 -0.7273 -4.6959 -1.1703
   73SOL    HW2  219   2.855   2.176   2.499  1.1326 -1.3538 -1.4943
   74SOL     OW  220   2.663   2.905   2.138  0.3679 -0.6597 -0.0927
   74SOL    HW1  221   2.616   2.887   2.233  1.1545 -0.1896 -0.8548
   74SOL    HW2  222   2.754   2.948   2.140 -1.6100  1.7876 -2.5525
   75SOL     OW  223   0.899   0.798   1.103 -0.3589  0.4733 -0.6119
   75SOL    HW1  224   0.821   0.849   1.051 -2.1027  0.0071  0.7397
   75SOL    HW2  225   0.933   0.867   1.179 -1.9729 -0.1669  1.3237
   76SOL     OW  226   1.684   1.163   2.503  0.1611 -0.0273  0.1196
   76SOL    HW1  227   1.582   1.143   2.531 -0.8628 -1.3389  0.4496
   76SOL    HW2  228   1.716   1.253   2.543  4.5321  1.1826 -0.3834
   77SOL     OW  229   2.965   0.910   0.950 -0.2701  0.0892  0.2646
   77SOL    HW1  230   2.960   0.810   0.929  1.0307 -0.4506 -0.6497
   77SOL    HW2  231   2.965   0.919   1.052 -1.2452 -2.2994  0.3057
   78SOL     OW  232   2.048   1.487   1.495 -0.5170 -0.0643 -0.7361
   78SOL    HW1  233   2.137   1.522   1.455  0.1686 -1.3512  1.1203
   78SOL    HW2  234   1.966   1.492   1.434 -0.2411  2.2728 -1.9631
   79SOL     OW  235   0.585   1.383   0.835  0.2597  0.2819 -0.7256
   79SOL    HW1  236   0.485   1.394   0.859  0.5921 -0.0665  1.5717
   79SOL    HW2  237   0.607   1.292   0.781 -0.4857 -0.2110 -3.1568
   80SOL     OW  238   0.622   0.506   1.598 -0.6334 -0.3138  0.0150
   80SOL    HW1  239   0.660   0.572   1.527 -2.3348  1.0186 -1.7648
   80SOL    HW2  240   0.675   0.417   1.595  0.3415  1.6956 -0.0943
   81SOL     OW  241   1.034   1.396   2.642  0.2728 -0.0549  0.5728
   81SOL    HW1  242   1.115   1.329   2.635  1.1808 -1.6903  0.1844
   81SOL    HW2  243   0.955   1.386   2.575  0.9666  0.9072 -1.8459
   82SOL     OW  244   1.007   2.966   1.525 -0.2962  0.2991 -0.0528
   82SOL    HW1  245   1.002   3.001   1.428 -0.6288  0.9655  0.1226
   82SOL    HW2  246   0.954   2.881   1.538  2.9954 -0.7378 -0.2617
   83SOL     OW  247   2.736   2.451   0.863 -0.1174 -0.3693  0.1658
   83SOL    HW1  248   2.658   2.402   0.807 -1.1827 -1.1035 -2.2194
   83SOL    HW2  249   2.730   2.551   0.847 -0.0016  0.0482 -1.2269
   84SOL     OW  250   0.652   3.021   2.349  0.3007 -0.0750  0.0125
   84SOL    HW1  251   0.612   3.086   2.424 -0.7228  2.4772  1.1382
   84SOL    HW2  252   0.694   2.940   2.398 -0.1442  1.3789  0.9081
   85SOL     OW  253   0.260   1.559   1.488  0.3968 -0.3741  0.1241
   85SOL    HW1  254   0.265   1.659   1.467 -1.4733 -3.3003 -4.0043
   85SOL    HW2  255   0.338   1.528   1.547  0.1245 -0.2304 -3.3273
   86SOL     OW  256   0.392   0.995   1.532 -0.0425 -0.0693  0.0254
   86SOL    HW1  257   0.364   0.972   1.434  1.2384  0.4231 -1.5896
   86SOL    HW2  258   0.360   0.921   1.599  0.1079 -0.0380  0.9040
   87SOL     OW  259   1.570   0.669   0.209 -0.3876 -0.6317  0.3111
   87SOL    HW1  260   1.673   0.700   0.204 -0.0221  1.0556 -1.0316
   87SOL    HW2  261   1.541   0.613   0.127 -1.6559 -1.0412 -2.9886
   88SOL     OW  262   1.582   1.381   0.233 -0.8920  0.3209  0.1604
   88SOL    HW1  263   1.612   1.289   0.269 -0.1843 -0.3990  0.2657
   88SOL    HW2  264   1.477   1.381   0.216 -0.8018  0.7729 -0.5942
   89SOL     OW  265   0.003   0.461   0.586  0.0088  0.0476 -0.0005
   89SOL    HW1  266   0.043   0.421   0.502 -1.1648 -0.0226  0.2497
   89SOL    HW2  267  -0.074   0.405   0.621  0.0137 -0.4604 -0.9601
   90SOL     OW  268   0.905   1.580   0.059  0.5681 -0.3772  0.1026
   90SOL    HW1  269   0.851   1.517   0.120  2.3211 -2.9337  0.0289
   90SOL    HW2  270   0.858   1.607  -0.030 -2.5123  0.2225  2.9502
   91SOL     OW  271   1.216   1.442   1.824  0.4194 -0.3766  0.5323
   91SOL    HW1  272   1.185   1.511   1.895  1.5373 -1.4548 -0.7488
   91SOL    HW2  273   1.315   1.429   1.824 -2.4362 -0.6419  2.5096
   92SOL     OW  274   3.088   0.977   1.216 -0.1744 -0.4605  0.2359
   92SOL    HW1  275   3.154   1.045   1.173 -0.2876  0.0984  1.3640
   92SOL    HW2  276   3.104   0.965   1.319 -0.4234 -2.0012  1.1225
   93SOL     OW  277   0.025   2.710   3.044  0.3265  0.0481 -0.0538
   93SOL    HW1  278  -0.059   2.717   2.983  0.3890  0.8068  0.2158
   93SOL    HW2  279   0.029   2.629   3.109  1.7214 -1.1880 -1.4156
   94SOL     OW  280   1.519   1.490   1.748  0.2640 -0.2157  0.2711
   94SOL    HW1  281   1.578   1.407   1.771 -0.2730 -0.6173 -2.4066
   94SOL    HW2  282   1.522   1.571   1.818  1.5345  0.3709  1.9013
   95SOL     OW  283   1.365   2.534   2.978  0.7168 -0.3217 -0.1036
   95SOL    HW1  284   1.275   2.556   3.021 -0.8803 -0.3627 -1.7957
   95SOL    HW2  285   1.395   2.433   2.993 -0.3911 -1.2405  1.6315
   96SOL     OW  286   0.551   2.107   1.242 -0.1374 -0.3428 -0.3762
   96SOL    HW1  287   0.522   2.055   1.159  1.9625  0.9937  1.6406
   96SOL    HW2  288   0.616   2.060   1.306  1.2812  2.1581 -1.4515
   97SOL     OW  289   0.430   1.606   2.473  0.5667  0.1299  0.1775
   97SOL    HW1  290   0.347   1.566   2.523 -1.7152 -1.7762  0.1353
   97SOL    HW2  291   0.500   1.637   2.540 -0.8374  1.5427  0.1861
   98SOL     OW  292   2.025   1.602   1.205  0.1218 -0.0723 -0.2537
   98SOL    HW1  293   1.955   1.566   1.273 -0.5276 -0.5426 -0.5868
   98SOL    HW2  294   2.058   1.532   1.138  0.8246 -2.0668 -0.2292
   99SOL     OW  295   2.476   2.050   1.361  0.6474  0.2572 -1.0919
   99SOL    HW1  296   2.506   2.025   1.458  0.6905  1.6146 -0.8994
   99SOL    HW2  297   2.421   1.973   1.320  2.2080 -1.6926 -0.1195
  100SOL     OW  298   2.383   0.309   2.110  0.1683 -0.0986 -0.0011
  100SOL    HW1  299   2.304   0.294   2.181 -1.2164  0.7824 -0.4741
  100SOL    HW2  300   2.460   0.370   2.156  2.2131 -0.0004 -0.1577
  101SOL     OW  301   0.401   1.490   0.421 -0.2374 -0.3941  0.7232
  101SOL    HW1  302   0.487   1.482   0.482  0.8138 -1.4728  2.0700
  101SOL    HW2  303   0.397   1.579   0.372  1.5264 -0.3190 -1.2876
  102SOL     OW  304   2.248   1.029   0.856 -0.0812 -0.1794  0.3890
  102SOL    HW1  305   2.230   0.930   0.837 -0.3118  2.6200 -1.8144
  102SOL    HW2  306   2.313   1.068   0.790 -0.6848  0.8208 -2.5011
  103SOL     OW  307   2.263   0.070   0.404 -0.5164 -0.1242 -0.0032
  103SOL    HW1  308   2.285   0.168   0.420  2.5547  0.5570  0.7098
  103SOL    HW2  309   2.349   0.014   0.415 -1.4494  1.7434 -0.7804
  104SOL     OW  310   0.072   1.756   2.209 -0.2097  0.3819 -0.2094
  104SOL    HW1  311   0.152   1.731   2.143  0.3754 -0.4258 -1.6114
  104SOL    HW2  312  -0.014   1.787   2.163 -2.6234  0.1651  1.9718
  105SOL     OW  313   1.223   2.093   0.792  0.1379 -0.2907  0.0116
  105SOL    HW1  314   1.195   2.106   0.694  1.0561  1.3441 -0.8096
  105SOL    HW2  315   1.277   2.008   0.811  2.1325  1.2301 -1.0971
  106SOL     OW  316   2.095   0.429   1.400 -0.2350  0.0934  0.0382
  106SOL    HW1  317   2.081   0.325   1.406  0.8324 -1.8038 -0.3752
  106SOL    HW2  318   2.086   0.468   1.496 -3.0547 -0.7621  1.1955
  107SOL     OW  319   1.819   3.019   1.164 -0.1103 -0.2752 -0.1821
  107SOL    HW1  320   1.843   3.094   1.232 -0.4931 -0.8198 -0.6015
  107SOL    HW2  321   1.748   2.948   1.206 -1.3727 -1.8612 -0.2793
  108SOL     OW  322   0.757   2.787   1.257 -0.1780 -0.7950  0.5250
  108SOL    HW1  323   0.765   2.778   1.359  0.7077 -0.3250 -0.1575
  108SOL    HW2  324   0.846   2.806   1.211 -1.6408  0.3733  1.8139
  109SOL     OW  325   2.133   0.101   0.789 -0.3645 -0.1359  0.7892
  109SOL    HW1  326   2.033   0.091   0.761  0.1016  1.3603 -2.3549
  109SOL    HW2  327   2.153   0.068   0.887 -1.2780 -1.6204  1.0994
  110SOL     OW  328   0.465   2.824   2.799 -0.2306  0.0957 -0.1838
  110SOL    HW1  329   0.441   2.831   2.699 -1.0848 -2.1324  1.3877
  110SOL    HW2  330   0.538   2.752   2.818 -3.1595  2.4746  0.1953
  111SOL     OW  331   1.313   0.553   2.319  0.2029 -0.3068 -0.3703
  111SOL    HW1  332   1.248   0.591   2.393 -1.3231 -0.3513 -2.8031
  111SOL    HW2  333   1.368   0.473   2.356 -0.2036 -1.7262  2.3326
  112SOL     OW  334   1.691   0.533   1.441 -0.9648 -0.8902  0.2142
  112SOL    HW1  335   1.732   0.504   1.350 -0.7290  1.5299  0.5200
  112SOL    HW2  336   1.665   0.452   1.498 -3.3765  2.7863 -1.1963
  113SOL     OW  337   2.299   1.666   1.760  0.4556 -0.1167 -0.1834
  113SOL    HW1  338   2.362   1.589   1.733 -0.3816 -2.4024  0.5906
  113SOL    HW2  339   2.315   1.692   1.858  0.0661 -1.6700  0.2519
  114SOL     OW  340   0.401   0.541   1.254  0.2607  0.7296 -0.2583
  114SOL    HW1  341   0.426   0.566   1.160  1.4804  0.3372  1.2027
  114SOL    HW2  342   0.305   0.561   1.284  1.9332 -1.1301  0.0645
  115SOL     OW  343   2.732   1.595   1.247 -0.0695  0.3230 -1.0671
  115SOL    HW1  344   2.745   1.487   1.251 -0.2836 -1.7140 -0.6836
  115SOL    HW2  345   2.748   1.634   1.155 -0.6521 -1.4142 -0.0756
  116SOL     OW  346   1.813   1.054   0.690 -0.4938  0.2719 -0.8030
  116SOL    HW1  347   1.733   1.008   0.638 -3.1353  0.2945 -1.0625
  116SOL    HW2  348   1.777   1.141   0.732 -0.7262 -0.5541  3.7769
  117SOL     OW  349   1.229   0.373   0.553 -0.2652 -0.2957  0.3653
  117SOL    HW1  350   1.249   0.431   0.633 -0.0072 -1.1474 -2.9704
  117SOL    HW2  351   1.282   0.419   0.471  1.8979  0.4053 -0.5536
  118SOL     OW  352   1.146   1.108   1.112  0.5800  0.0205  0.0264
  118SOL    HW1  353   1.151   1.036   1.190  0.4566 -3.6772  3.4817
  118SOL    HW2  354   1.160   1.200   1.152 -0.9568 -0.1999  0.2736
  119SOL     OW  355   1.816   1.593   2.160  0.0215 -0.2144  0.5437
  119SOL    HW1  356   1.788   1.696   2.154  1.1844  1.4612 -1.5031
  119SOL    HW2  357   1.918   1.585   2.180 -2.1828 -0.3223 -0.2018
  120SOL     OW  358   2.956   2.882   0.113 -0.2742  0.1269 -0.1125
  120SOL    HW1  359   3.027   2.817   0.075  2.1577  0.1424 -1.0125
  120SOL    HW2  360   2.864   2.844   0.088  1.4711  1.2538  2.4523
  121SOL     OW  361   2.000   0.751   2.202  0.3426  0.1281 -0.4372
  121SOL    HW1  362   2.000   0.798   2.112 -2.6972 -0.8995  0.1000
  121SOL    HW2  363   2.007   0.646   2.201 -0.9896 -0.6173 -0.8073
  122SOL     OW  364   2.588   2.648   1.252  0.3119 -0.2148  0.5720
  122SOL    HW1  365   2.627   2.576   1.187 -2.2019  0.3905  2.4007
  122SOL    HW2  366   2.488   2.640   1.269  0.6130 -0.9001  1.2528
  123SOL     OW  367   1.732   0.073   1.703 -0.0508 -0.3315 -0.5724
  123SOL    HW1  368   1.779  -0.005   1.654  0.2413  3.2484 -1.0987
  123SOL    HW2  369   1.797   0.139   1.754  1.5067  1.9646  0.2572
  124SOL     OW  370   0.085   0.479   1.100 -0.2496  0.0657 -0.7224
  124SOL    HW1  371   0.088   0.568   1.162  1.7718 -0.1013  2.1126
  124SOL    HW2  372   0.091   0.502   1.000 -1.3744 -1.1682  3.7842
  125SOL     OW  373   0.863   1.822   0.692  0.0031 -0.0228  0.0184
  125SOL    HW1  374   0.957   1.788   0.725  1.0493  0.9144 -0.8425
  125SOL    HW2  375   0.814   1.877   0.761  0.6148 -0.9020 -1.4923
  126SOL     OW  376   1.858   2.262   2.425 -0.0435  0.1141 -1.0203
  126SOL    HW1  377   1.913   2.221   2.345  0.6565 -0.7493 -0.7660
  126SOL    HW2  378   1.794   2.192   2.461  0.5297  0.6011 -2.1820
  127SOL     OW  379   1.015   0.891   0.270  0.6031 -0.1384 -0.1606
  127SOL    HW1  380   1.018   0.965   0.345  0.1273  0.2726  0.8686
  127SOL    HW2  381   0.958   0.811   0.297 -1.0006  2.3900  0.0231
  128SOL     OW  382   0.920   0.215   1.407  0.3960 -0.2581 -0.1843
  128SOL    HW1  383   0.890   0.285   1.341  1.3386  3.6086  0.3738
  128SOL    HW2  384   0.890   0.122   1.367 -1.9317  0.2049  1.5596
  129SOL     OW  385   1.832   0.691   1.876  0.1561 -0.0485 -0.0755
  129SOL    HW1  386   1.844   0.692   1.775  0.9428 -2.2643  4.3260
  129SOL    HW2  387   1.876   0.775   1.919  1.1862  0.4769 -0.2084
  130SOL     OW  388   1.370   2.193   1.018  0.2529 -0.4002 -0.1791
  130SOL    HW1  389   1.305   2.169   0.940  2.3520 -3.7955 -1.4495
  130SOL    HW2  390   1.432   2.270   1.000  1.9626 -3.1514  0.4888
  131SOL     OW  391   3.056   1.456   1.409 -0.4601 -0.1896 -0.0256
  131SOL    HW1  392   2.999   1.371   1.401 -0.0828  0.8504 -0.8431
  131SOL    HW2  393   3.159   1.449   1.408 -0.5821  1.4861  0.1054
  132SOL     OW  394   2.063   2.442   0.523 -0.2505 -0.2478  0.1974
  132SOL    HW1  395   1.962   2.454   0.528  2.2491 -1.1959 -1.5680
  132SOL    HW2  396   2.096   2.356   0.579  0.2595 -0.8486  2.3325
  133SOL     OW  397   1.866   2.325   2.828 -0.2309  0.1818 -0.7889
  133SOL    HW1  398   1.824   2.401   2.775 -1.8860 -1.0499  0.8269
  133SOL    HW2  399   1.970   2.323   2.844  0.2292  2.0953  1.5720
  134SOL     OW  400   2.657   2.359   1.612 -0.2257 -0.0477 -0.6414
  134SOL    HW1  401   2.601   2.340   1.698 -0.0423 -1.4790 -0.6077
  134SOL    HW2  402   2.704   2.451   1.609  0.6020 -0.6511 -0.9408
  135SOL     OW  403   0.645   1.461   2.653 -0.0330 -0.2430 -0.3136
  135SOL    HW1  404   0.646   1.361   2.690  0.7809  0.8652 -1.0888
  135SOL    HW2  405   0.682   1.463   2.553  1.7880  1.1669 -3.6876
  136SOL     OW  406   1.204   2.027   0.417  0.6358  0.1181  0.0709
  136SOL    HW1  407   1.129   2.092   0.434  1.1054 -0.5134 -2.5207
  136SOL    HW2  408   1.186   1.937   0.461  0.9562  0.5490  0.3669
  137SOL     OW  409   0.409   1.190   2.155 -0.1627  0.4130 -0.5637
  137SOL    HW1  410   0.318   1.152   2.198 -4.4268 -1.5958 -1.8783
  137SOL    HW2  411   0.484   1.119   2.170  1.3049  1.8213  1.4983
  138SOL     OW  412   2.486   1.508   0.220  0.4568 -0.9469  0.5202
  138SOL    HW1  413   2.391   1.464   0.213  0.8027  3.2468 -2.2185
  138SOL    HW2  414   2.545   1.456   0.287 -0.4267 -2.3347 -0.0578
  139SOL     OW  415   1.838   2.602   1.298 -0.3288 -0.0991  0.5452
  139SOL    HW1  416   1.735   2.604   1.278  0.0080 -1.2525 -0.4624
  139SOL    HW2  417   1.880   2.511   1.308 -1.5882  1.3363 -1.8068
  140SOL     OW  418   3.030   3.000   2.546  0.8436  0.1385  0.2389
  140SOL    HW1  419   3.071   2.905   2.553  1.1824 -0.1818 -1.2944
  140SOL    HW2  420   3.104   3.074   2.550  0.4273  3.1176 -1.3551
  141SOL     OW  421   1.341   1.659   1.596  0.1690 -0.0126  0.0052
  141SOL    HW1  422   1.251   1.696   1.633 -1.5323 -1.3061 -0.2791
  141SOL    HW2  423   1.385   1.587   1.658  0.4311 -1.4702 -1.4249
  142SOL     OW  424   1.585   0.598   2.252 -0.4108  0.3614  0.0536
  142SOL    HW1  425   1.610   0.590   2.154  1.1315  4.1949  2.1923
  142SOL    HW2  426   1.482   0.607   2.276 -0.1557  0.3538  0.8881
  143SOL     OW  427   2.696   0.898   0.492 -0.4592 -0.2078 -0.2323
  143SOL    HW1  428   2.754   0.940   0.416  0.7851 -1.9354 -2.0528
  143SOL    HW2  429   2.734   0.926   0.587  0.9158  1.6347  2.5668
  144SOL     OW  430   2.906   1.164   1.453 -0.0377  0.1839  0.6081
  144SOL    HW1  431   2.878   1.147   1.551  4.3544 -0.9471 -0.2269
  144SOL    HW2  432   2.976   1.090   1.431 -0.9896  1.0781 -0.7456
  145SOL     OW  433   0.971   1.816   0.189 -0.0607  0.0413  0.4595
  145SOL    HW1  434   1.063   1.836   0.149 -0.4270  1.6643  0.2489
  145SOL    HW2  435   0.928   1.727   0.162 -1.5438  0.9591 -0.1678
  146SOL     OW  436   2.518   0.654   1.494  0.2819 -0.5678 -0.3773
  146SOL    HW1  437   2.475   0.567   1.460 -2.0028  1.5327  1.9239
  146SOL    HW2  438   2.473   0.745   1.469  0.0399 -1.4668  3.4454
  147SOL     OW  439   1.100   2.481   0.645  0.4678  0.4616  0.0365
  147SOL    HW1  440   1.063   2.553   0.574 -1.4570  4.3405 -0.7289
  147SOL    HW2  441   1.188   2.433   0.622  3.1548 -0.7165  1.0381
  148SOL     OW  442   1.620   1.472   3.053  0.0204 -0.5385  0.6806
  148SOL    HW1  443   1.623   1.394   2.989 -0.3435 -0.2867  0.6667
  148SOL    HW2  444   1.602   1.453   3.152 -0.3225  4.0409  0.0110
  149SOL     OW  445   0.706   1.382   1.984  0.2643 -0.1285 -0.0102
  149SOL    HW1  446   0.604   1.398   2.005  0.4327  0.9524 -0.6836
  149SOL    HW2  447   0.724   1.366   1.883 -0.0940  1.5860  1.3870
  150SOL     OW  448   3.014   1.218   0.944 -0.1625  0.3870 -0.0908
  150SOL    HW1  449   3.070   1.201   1.030  0.3424 -3.3638  1.2661
  150SOL    HW2  450   2.948   1.139   0.922  0.9726 -2.4725 -1.6415
  151SOL     OW  451   0.161   0.731   2.114 -0.6485 -0.5101 -0.2105
  151SOL    HW1  452   0.176   0.829   2.077  1.8166 -0.6495 -0.7768
  151SOL    HW2  453   0.183   0.660   2.042  0.6751 -0.4774 -1.7067
  152SOL     OW  454   1.443   1.768   1.296  0.7000  0.3028 -0.0355
  152SOL    HW1  455   1.471   1.862   1.280  1.4721 -1.8297 -1.4844
  152SOL    HW2  456   1.342   1.752   1.267 -0.5949  1.1453  1.2913
  153SOL     OW  457   0.060   1.540   0.155  0.5371  0.4891 -0.4687
  153SOL    HW1  458   0.028   1.445   0.186  0.9293  0.8779  0.6877
  153SOL    HW2  459   0.033   1.613   0.224 -0.9897 -2.1500  0.1647
  154SOL     OW  460   2.385   1.832   2.818 -0.0251 -0.6517  0.4839
  154SOL    HW1  461   2.401   1.732   2.829 -0.3990  1.7101 -0.9824
  154SOL    HW2  462   2.442   1.867   2.741 -1.5412 -0.3782  0.7764
  155SOL     OW  463   2.463   1.195   0.381  0.0557 -0.1442  0.3861
  155SOL    HW1  464   2.525   1.211   0.300 -0.1127 -1.9546 -1.8863
  155SOL    HW2  465   2.370   1.155   0.365 -1.5739  2.8389  1.2020
  156SOL     OW  466   2.546   0.993   0.833  0.3762 -0.4161 -0.1831
  156SOL    HW1  467   2.467   0.988   0.899  1.5560  1.4707 -0.1780
  156SOL    HW2  468   2.534   1.066   0.758  0.6757  0.9333 -1.9177
  157SOL     OW  469   1.267   2.939   3.022 -0.5489 -0.1249 -0.4382
  157SOL    HW1  470   1.337   2.889   2.958  0.9189  0.3688  1.4660
  157SOL    HW2  471   1.281   3.043   3.026  0.9165  0.0237  0.4508
  158SOL     OW  472   0.988   1.830   1.906 -0.3667 -0.0628  0.3392
  158SOL    HW1  473   1.025   1.924   1.882 -2.3140  0.7577 -1.7167
  158SOL    HW2  474   0.894   1.839   1.955 -2.9364  0.5504  3.0065
  159SOL     OW  475   0.845   0.406   1.217  0.3727 -0.3555  0.1448
  159SOL    HW1  476   0.819   0.486   1.274  0.5388 -2.7332 -1.5412
  159SOL    HW2  477   0.768   0.363   1.160  0.6816 -2.4723 -0.2889
  160SOL     OW  478   1.415   2.356   1.567  0.1227  0.2632  0.2525
  160SOL    HW1  479   1.378   2.281   1.631 -0.3513 -0.9763  2.8021
  160SOL    HW2  480   1.520   2.360   1.560 -0.5540  2.3834  0.4871
  161SOL     OW  481   0.069   2.952   0.356  0.0660 -0.2226  0.5187
  161SOL    HW1  482   0.036   2.860   0.322 -1.1008  1.9999  3.8633
  161SOL    HW2  483   0.065   3.026   0.284  0.1271  2.2328  2.6159
  162SOL     OW  484   2.585   1.881   0.489  0.1614  0.1032 -0.1865
  162SOL    HW1  485   2.570   1.843   0.394 -1.2077 -2.3486 -1.4974
  162SOL    HW2  486   2.595   1.816   0.565  3.2521  0.4253 -1.4243
  163SOL     OW  487   1.913   2.831   0.722  0.3976 -0.5830 -0.2478
  163SOL    HW1  488   1.920   2.846   0.619 -1.4089 -0.4356 -0.1255
  163SOL    HW2  489   1.978   2.757   0.751 -1.1201  1.8353 -0.4733
  164SOL     OW  490   3.062   0.253   1.237 -0.3058 -0.3768  0.1109
  164SOL    HW1  491   3.125   0.327   1.192  0.4043  0.3968  1.3330
  164SOL    HW2  492   3.116   0.190   1.307 -1.2349 -0.2844  1.2607
  165SOL     OW  493   0.984   1.425   0.748  0.1284 -1.0312 -0.5493
  165SOL    HW1  494   0.918   1.466   0.816 -0.3853  1.8120  2.2764
  165SOL    HW2  495   0.970   1.449   0.650  2.8665 -2.8988  0.4076
  166SOL     OW  496   1.528   1.051   1.739  0.3981  0.2617  0.0796
  166SOL    HW1  497   1.440   1.040   1.791  2.9507  0.1602  0.2423
  166SOL    HW2  498   1.571   1.139   1.767  1.0473 -1.6946 -1.3319
  167SOL     OW  499   0.723   1.995   1.421 -0.1246  0.5741 -0.3348
  167SOL    HW1  500   0.736   2.052   1.508  3.3110  0.0896 -0.4047
  167SOL    HW2  501   0.700   1.896   1.445  1.0935  2.2413 -0.6701
  168SOL     OW  502   1.669   2.358   0.158  0.3637 -0.1106  0.0973
  168SOL    HW1  503   1.742   2.416   0.114 -2.8188 -1.6737  2.0934
  168SOL    HW2  504   1.692   2.347   0.257 -0.7457 -3.0475 -2.4047
  169SOL     OW  505   0.225   2.560   2.255 -0.1768  0.2177 -0.2399
  169SOL    HW1  506   0.205   2.497   2.173 -0.2575  1.4421  0.0745
  169SOL    HW2  507   0.249   2.501   2.337  0.2733 -0.1852 -1.8815
  170SOL     OW  508   1.130   0.208   2.033  0.2877 -0.1827  0.4399
  170SOL    HW1  509   1.212   0.199   2.098 -2.0778 -0.6767  1.4259
  170SOL    HW2  510   1.146   0.192   1.932 -0.0859 -1.7316  3.8163
  171SOL     OW  511   0.188   0.780   2.377  0.1588  0.0074 -0.6320
  171SOL    HW1  512   0.111   0.833   2.430 -2.4838  0.3031  0.6363
  171SOL    HW2  513   0.167   0.742   2.280  0.7613 -1.7866 -0.5401
  172SOL     OW  514   0.936   1.003   2.879  0.1157  0.1504 -0.4469
  172SOL    HW1  515   0.962   1.101   2.895  0.6850 -0.5932  0.1533
  172SOL    HW2  516   0.875   0.991   2.795  2.0500 -0.2894 -2.6497
  173SOL     OW  517   0.669   2.690   0.131  0.1464 -0.1199 -0.1356
  173SOL    HW1  518   0.643   2.785   0.131 -1.1788  0.6990 -1.3592
  173SOL    HW2  519   0.589   2.632   0.108  1.5493 -0.7949 -3.2792
  174SOL     OW  520   1.501   2.825   1.044  0.5147 -0.2219 -0.1221
  174SOL    HW1  521   1.438   2.888   0.994 -0.0012  2.6031 -0.4253
  174SOL    HW2  522   1.489   2.730   1.008 -2.0097  2.2066  3.4334
  175SOL     OW  523   0.428   3.084   1.656  0.3430 -0.1219  0.5396
  175SOL    HW1  524   0.478   3.091   1.746  1.2206 -0.0432  0.7786
  175SOL    HW2  525   0.394   3.175   1.616  2.5165 -1.1550  1.0929
  176SOL     OW  526   2.612   0.388   0.006 -0.3811 -0.3019 -0.0944
  176SOL    HW1  527   2.642   0.480   0.046 -1.5267  0.3163  0.3255
  176SOL    HW2  528   2.546   0.335   0.060  3.6393 -0.3756  0.6899
  177SOL     OW  529   0.341   0.311   0.965 -0.5193 -0.0923 -0.8868
  177SOL    HW1  530   0.280   0.237   0.933  0.4332  1.2491  1.4565
  177SOL    HW2  531   0.325   0.344   1.058  2.3732  0.0148 -2.4295
  178SOL     OW  532   0.015   2.748   2.586  0.3545  0.2742  0.0263
  178SOL    HW1  533  -0.020   2.649   2.587  0.9873 -0.2682  1.3043
  178SOL    HW2  534   0.091   2.767   2.655  0.5006  0.2059 -0.0265
  179SOL     OW  535   3.068   1.590   1.137 -0.3374 -0.9028 -0.0926
  179SOL    HW1  536   2.998   1.658   1.097  2.3654  0.3945  0.2012
  179SOL    HW2  537   3.050   1.544   1.225 -0.9884 -1.4127 -2.3602
  180SOL     OW  538   0.181   1.203   1.861  0.3144  0.5356 -0.4004
  180SOL    HW1  539   0.280   1.170   1.872 -2.2474 -0.9063  2.9956
  180SOL    HW2  540   0.156   1.281   1.920 -2.1505  0.5039  0.8946
  181SOL     OW  541   3.046   1.850   2.486  0.0290 -0.5173 -0.1553
  181SOL    HW1  542   3.102   1.937   2.500 -0.9432 -0.3843  0.8517
  181SOL    HW2  543   2.968   1.854   2.414 -2.1530 -0.1451 -1.6329
  182SOL     OW  544   2.293   1.314   1.173  0.8590 -0.4480  0.0779
  182SOL    HW1  545   2.227   1.260   1.113  0.3478 -2.0010 -0.0198
  182SOL    HW2  546   2.305   1.416   1.137  0.8218  0.8663 -2.9142
  183SOL     OW  547   1.474   2.253   2.602 -0.1531 -0.1588 -0.2606
  183SOL    HW1  548   1.372   2.224   2.579 -3.5577  1.8939  1.6079
  183SOL    HW2  549   1.542   2.188   2.570 -2.1059 -0.4368  3.3660
  184SOL     OW  550   1.996   0.854   0.754 -0.6728  0.3042 -0.4276
  184SOL    HW1  551   1.935   0.935   0.741 -0.2171 -0.8284 -0.0353
  184SOL    HW2  552   1.953   0.787   0.817  0.1547  0.6502 -0.1873
  185SOL     OW  553   1.632   2.765   2.045  0.0166  0.0463 -0.4338
  185SOL    HW1  554   1.563   2.841   2.027 -1.4771  0.4509  0.5696
  185SOL    HW2  555   1.662   2.762   2.144  1.1251  3.2890 -0.2253
  186SOL     OW  556   0.103   2.228   1.658  0.2510  0.7543  0.4079
  186SOL    HW1  557   0.058   2.277   1.734  0.0128  0.1891 -0.7289
  186SOL    HW2  558   0.186   2.164   1.678 -0.4073 -0.4570  1.7119
  187SOL     OW  559   1.291   0.746   1.682 -0.1473 -0.9856  0.0851
  187SOL    HW1  560   1.361   0.795   1.619  2.4931  0.5503 -0.5948
  187SOL    HW2  561   1.342   0.706   1.763  0.6521 -0.7447 -0.0614
  188SOL     OW  562   2.765   2.765   1.421  0.0459 -0.5545 -0.1597
  188SOL    HW1  563   2.746   2.862   1.449 -3.4482 -0.8235  0.6389
  188SOL    HW2  564   2.682   2.718   1.371 -0.9357 -1.5874  1.3757
  189SOL     OW  565   0.942   1.207   1.428  0.1486  0.0588  0.4952
  189SOL    HW1  566   1.012   1.251   1.493 -1.8311 -1.7506 -1.9667
  189SOL    HW2  567   0.908   1.275   1.356 -0.7970 -0.9263  0.6608
  190SOL     OW  568   1.465   1.913   1.598 -0.3063  0.1059  0.5720
  190SOL    HW1  569   1.443   1.815   1.591  1.5869 -0.0395 -1.3488
  190SOL    HW2  570   1.475   1.937   1.699  0.9110  1.7392  0.1480
  191SOL     OW  571   0.961   0.722   1.584 -0.5008 -0.0994 -0.1515
  191SOL    HW1  572   1.030   0.645   1.600  0.3409 -0.3789 -1.1054
  191SOL    HW2  573   0.924   0.776   1.666 -0.4763 -0.1595  1.4519
  192SOL     OW  574   1.866   2.245   1.106 -0.2449  0.1470 -0.3228
  192SOL    HW1  575   1.773   2.284   1.086  1.8714  1.6108  0.4987
  192SOL    HW2  576   1.937   2.277   1.036 -0.5761 -0.5833 -0.2389
  193SOL     OW  577   0.595   0.580   0.470 -0.3078 -0.0931 -0.1185
  193SOL    HW1  578   0.540   0.497   0.494  1.5180  2.7088  1.9197
  193SOL    HW2  579   0.643   0.565   0.377  1.6731  0.7259 -2.5249
  194SOL     OW  580   0.327   0.904   1.287 -0.1333  0.5759 -0.2327
  194SOL    HW1  581   0.271   0.822   1.254 -2.0115  0.2182 -0.7938
  194SOL    HW2  582   0.328   0.976   1.216 -0.7734  1.4383  1.5199
  195SOL     OW  583   1.002   2.897   0.545 -0.1468  0.7937 -0.2443
  195SOL    HW1  584   0.976   2.811   0.504  3.0883  0.0558 -0.9401
  195SOL    HW2  585   1.102   2.908   0.539 -1.2487  0.4012  2.9532
  196SOL     OW  586   0.212   1.326   1.381  0.3549  0.3315  0.1501
  196SOL    HW1  587   0.240   1.423   1.411 -2.5945 -0.2040  1.4253
  196SOL    HW2  588   0.211   1.260   1.463  0.1099 -1.0900 -0.2873
  197SOL     OW  589   0.815   2.079   0.245  0.0497  0.2525  0.3286
  197SOL    HW1  590   0.802   2.051   0.346 -0.3577 -0.6452  0.9254
  197SOL    HW2  591   0.863   1.999   0.195  0.7815  0.4303  0.3721
  198SOL     OW  592   0.293   1.258   0.254  0.0148  0.2034  0.0972
  198SOL    HW1  593   0.198   1.252   0.225 -0.0996 -0.4688  1.6836
  198SOL    HW2  594   0.314   1.347   0.307  0.0682  0.6031  4.4258
  199SOL     OW  595   2.276   0.362   2.521  0.4521 -0.0614 -0.4071
  199SOL    HW1  596   2.186   0.347   2.571  3.1455  1.1656 -3.0973
  199SOL    HW2  597   2.361   0.363   2.586  2.3800  2.0238  0.5809
  200SOL     OW  598   0.032   2.915   0.761 -0.2238 -0.0565 -0.1684
  200SOL    HW1  599  -0.050   2.893   0.703  2.1314  0.5739  0.0221
  200SOL    HW2  600   0.095   2.986   0.716 -1.6338 -1.5012 -2.2702
  201SOL     OW  601   1.078   0.741   0.599  0.7154  0.1981 -0.0932
  201SOL    HW1  602   1.085   0.776   0.695  0.8913 -3.9493  0.1875
  201SOL    HW2  603   1.018   0.660   0.604  1.8348  1.5153  0.3416
  202SOL     OW  604   0.425   1.109   1.881 -0.2711 -0.5314  0.4876
  202SOL    HW1  605   0.505   1.074   1.822  1.0207 -3.2218 -0.9372
  202SOL    HW2  606   0.454   1.135   1.982 -0.7822 -0.9341  3.0178
  203SOL     OW  607   0.656   0.210   1.522  0.0681  0.3584 -0.1366
  203SOL    HW1  608   0.723   0.160   1.460  0.6575 -0.9050 -1.9605
  203SOL    HW2  609   0.680   0.195   1.624 -2.4411 -0.5867  1.0380
  204SOL     OW  610   2.077   1.830   2.890  0.3582 -0.5896 -0.6112
  204SOL    HW1  611   2.089   1.731   2.927 -1.5822 -3.8971 -1.1271
  204SOL    HW2  612   2.146   1.863   2.822 -1.3127  0.9278  2.0973
  205SOL     OW  613   1.831   1.866   3.052 -0.0912  0.6064 -0.6926
  205SOL    HW1  614   1.908   1.837   2.992  0.1668 -2.5768 -0.8252
  205SOL    HW2  615   1.779   1.952   3.027  2.0754  2.1006 -0.8511
  206SOL     OW  616   2.500   2.807   0.327 -0.1530  0.3350  0.0899
  206SOL    HW1  617   2.557   2.723   0.362  0.4816  1.9965  1.8800
  206SOL    HW2  618   2.559   2.876   0.277 -0.5927  0.3180 -0.8487
  207SOL     OW  619   0.649   1.809   3.007  0.3028  0.4729  0.3862
  207SOL    HW1  620   0.723   1.767   2.943 -0.3328 -1.6933  0.1445
  207SOL    HW2  621   0.611   1.736   3.073  1.1770 -0.0223 -0.0432
  208SOL     OW  622   1.099   1.556   1.372 -0.4805  0.2328  0.5626
  208SOL    HW1  623   1.110   1.625   1.293 -0.8850  2.4632 -0.5903
  208SOL    HW2  624   1.129   1.595   1.463 -1.0893  0.9009 -0.6329
  209SOL     OW  625   0.211   0.934   3.048  0.0505 -0.4404 -0.4558
  209SOL    HW1  626   0.208   0.850   2.990 -1.7907  0.8127 -2.7431
  209SOL    HW2  627   0.245   0.917   3.143 -0.3412 -1.2216  0.0342
  210SOL     OW  628   1.797   0.497   1.185 -0.3153 -0.5828  0.0647
  210SOL    HW1  629   1.745   0.582   1.166  0.0560 -2.1639  1.8847
  210SOL    HW2  630   1.900   0.507   1.157 -1.3883  0.5432 -0.3449
  211SOL     OW  631   2.125   1.062   1.555 -0.0055  1.1002  0.1767
  211SOL    HW1  632   2.179   1.035   1.637 -2.1824  1.0505  1.7858
  211SOL    HW2  633   2.188   1.112   1.487 -0.3738 -1.6393 -0.3943
  212SOL     OW  634   0.032   0.959   1.476  0.2525  0.1743  0.3380
  212SOL    HW1  635   0.098   1.023   1.525  1.2371 -1.1685  1.0869
  212SOL    HW2  636   0.015   0.870   1.531  0.1316  1.8473  2.1131
  213SOL     OW  637   2.834   0.254   0.385 -0.2298 -0.2494 -0.2098
  213SOL    HW1  638   2.849   0.176   0.313 -1.4894 -0.9638 -3.6001
  213SOL    HW2  639   2.779   0.339   0.353 -0.5856 -2.7952 -0.8757
  214SOL     OW  640   2.153   0.246   2.289  0.3107 -0.1558 -0.0399
  214SOL    HW1  641   2.182   0.291   2.377 -1.5407 -2.2086  0.3518
  214SOL    HW2  642   2.116   0.152   2.317 -1.8814  0.0232 -3.6756
  215SOL     OW  643   1.628   2.260   2.124 -0.3514 -0.0890 -0.1623
  215SOL    HW1  644   1.720   2.299   2.093 -0.1741 -2.5532 -0.7135
  215SOL    HW2  645   1.562   2.337   2.135 -0.8664  1.0891 -1.2251
  216SOL     OW  646   2.201   0.634   0.657  0.1657 -0.7983  0.4288
  216SOL    HW1  647   2.174   0.533   0.651 -1.6879  0.5994  2.5363
  216SOL    HW2  648   2.117   0.694   0.659 -1.8519 -1.2280  1.0480
  217SOL     OW  649   0.761   2.786   2.436 -0.1754 -0.5504 -0.1492
  217SOL    HW1  650   0.746   2.703   2.499  1.1514 -0.4077  0.4289
  217SOL    HW2  651   0.751   2.770   2.332  1.4057 -4.0069 -0.8478
  218SOL     OW  652   1.911   1.432   0.025 -0.3090 -0.3847  0.1252
  218SOL    HW1  653   1.828   1.434  -0.042 -1.4840 -0.1038 -1.3650
  218SOL    HW2  654   1.910   1.351   0.094  1.1818  0.4218 -1.4662
  219SOL     OW  655   2.404   1.291   2.543  0.4154 -0.7589  0.2391
  219SOL    HW1  656   2.469   1.239   2.483  0.3270 -0.7729 -1.3332
  219SOL    HW2  657   2.392   1.244   2.635  3.0758  0.2327 -0.5372
  220SOL     OW  658   1.499   1.050   1.260 -0.4939 -0.1727  0.2674
  220SOL    HW1  659   1.599   1.058   1.291 -1.5068  2.9776 -1.3310
  220SOL    HW2  660   1.476   1.070   1.163  0.4892 -1.9800  0.5741
  221SOL     OW  661   1.351   0.998   2.202 -0.4182  0.4208 -0.0392
  221SOL    HW1  662   1.300   1.019   2.112  0.7951  0.9910 -2.2680
  221SOL    HW2  663   1.440   0.951   2.177 -0.6546 -1.6800  0.3743
  222SOL     OW  664   1.106   0.009   1.166 -0.2874  0.0041 -0.0888
  222SOL    HW1  665   1.155   0.030   1.259  0.2132 -0.6655  2.2810
  222SOL    HW2  666   1.126   0.074   1.085 -1.7403 -1.4293 -0.8965
  223SOL     OW  667   2.746   0.919   2.042  0.0296  0.4200  0.5147
  223SOL    HW1  668   2.714   0.984   2.113  0.8663  0.0466 -0.9819
  223SOL    HW2  669   2.846   0.923   2.026  0.4924  0.9414  1.1859
  224SOL     OW  670   1.521   1.037   2.782 -0.3836  0.6319 -0.2184
  224SOL    HW1  671   1.589   0.973   2.731  1.5243  0.2793 -1.2984
  224SOL    HW2  672   1.470   1.099   2.720  1.2339 -1.7776  1.8495
  225SOL     OW  673   2.927   2.768   2.871  0.2533  0.0289  0.1140
  225SOL    HW1  674   2.939   2.686   2.807 -2.5940 -1.4124 -1.6332
  225SOL    HW2  675   2.968   2.861   2.844  0.8107 -2.2137 -1.3100
  226SOL     OW  676   2.473   1.567   2.859  1.1815 -0.0863  0.7812
  226SOL    HW1  677   2.494   1.515   2.771 -0.0820  1.5398  0.0359
  226SOL    HW2  678   2.400   1.521   2.910 -0.9886  0.9959  0.7834
  227SOL     OW  679   0.845   0.151   0.016  0.4082 -0.2733  0.1715
  227SOL    HW1  680   0.903   0.099   0.085 -2.3101  1.9740  4.1557
  227SOL    HW2  681   0.859   0.122  -0.086  0.5437 -0.9535 -0.1254
  228SOL     OW  682   2.394   0.636   2.857 -0.0250 -0.1046  0.1368
  228SOL    HW1  683   2.338   0.636   2.765  0.8927  1.1913 -3.5352
  228SOL    HW2  684   2.482   0.584   2.852  1.5020  0.5157  1.8534
  229SOL     OW  685   0.596   0.451   1.856 -1.0538  0.7857  0.8748
  229SOL    HW1  686   0.617   0.355   1.854  0.5973  0.8345 -1.7872
  229SOL    HW2  687   0.616   0.488   1.765 -0.6103 -1.9823 -0.3491
  230SOL     OW  688   1.878   1.135   2.081  0.5751 -0.5725 -0.8056
  230SOL    HW1  689   1.960   1.201   2.053  3.6786 -0.0768  0.8838
  230SOL    HW2  690   1.800   1.198   2.112  0.0443  0.5330  0.6776
  231SOL     OW  691   0.655   1.021   3.075 -0.4076  0.1428  0.8374
  231SOL    HW1  692   0.710   1.108   3.054  0.6366  1.2971  0.5395
  231SOL    HW2  693   0.553   1.041   3.075 -0.9722 -0.2812 -0.5437
  232SOL     OW  694   2.354   3.086   2.866 -0.2178  0.0504  0.8380
  232SOL    HW1  695   2.406   2.994   2.873 -0.6398 -0.1852 -0.0178
  232SOL    HW2  696   2.382   3.137   2.777 -0.8645  1.3549  0.5925
  233SOL     OW  697   1.704   1.295   1.150  0.0820 -0.0617  0.1676
  233SOL    HW1  698   1.752   1.277   1.057 -2.1993 -0.5169  0.2028
  233SOL    HW2  699   1.714   1.217   1.217 -0.4371  2.1594 -0.6741
  234SOL     OW  700   1.571   2.567   1.860 -0.4900 -0.3025  0.3517
  234SOL    HW1  701   1.608   2.636   1.931  3.0149 -1.1762 -1.1032
  234SOL    HW2  702   1.499   2.503   1.900 -1.1813 -3.3665  1.0707
  235SOL     OW  703   0.006   2.988   2.839 -0.1377  0.5560 -0.5570
  235SOL    HW1  704   0.027   3.001   2.738 -0.1091  0.8675  0.0385
  235SOL    HW2  705  -0.006   3.072   2.895  0.8536 -0.9066 -3.9869
  236SOL     OW  706   2.911   0.723   0.076 -0.7174  0.0195 -0.0190
  236SOL    HW1  707   2.969   0.785   0.139 -2.5680  3.1729 -0.0575
  236SOL    HW2  708   2.959   0.636   0.053  0.2105  0.8522 -0.1282
  237SOL     OW  709   1.519   1.688   1.005 -0.3376 -0.5148 -0.1344
  237SOL    HW1  710   1.620   1.677   0.992  2.0587  2.2861 -1.7235
  237SOL    HW2  711   1.491   1.723   1.097 -0.0591  0.0381 -2.3632
  238SOL     OW  712   1.768   1.273   0.847  0.6191  0.1110 -0.2993
  238SOL    HW1  713   1.844   1.327   0.890 -1.0102 -3.1997 -1.9266
  238SOL    HW2  714   1.680   1.329   0.826  0.9445  1.0177  1.8430
  239SOL     OW  715   2.054   0.265   2.679  0.1406  0.0676 -0.4141
  239SOL    HW1  716   2.127   0.257   2.756 -1.0901  0.5098  0.0100
  239SOL    HW2  717   1.970   0.314   2.710  0.7054 -1.7683 -1.5066
  240SOL     OW  718   0.903   0.657   0.313  0.4103  0.2085 -0.1786
  240SOL    HW1  719   0.975   0.591   0.274  3.0190 -0.7174 -2.7317
  240SOL    HW2  720   0.863   0.635   0.407 -1.6866  0.9866 -0.4815
  241SOL     OW  721   0.559   0.076   0.369 -0.5385 -0.3685  0.0349
  241SOL    HW1  722   0.599   0.160   0.321 -1.7747 -1.3767  0.1622
  241SOL    HW2  723   0.564  -0.018   0.311  0.3860 -2.8123 -2.6083
  242SOL     OW  724   0.668   2.520   1.139 -0.0632  0.5942  0.1632
  242SOL    HW1  725   0.605   2.554   1.219 -1.5535  1.9133 -0.3395
  242SOL    HW2  726   0.732   2.596   1.102  0.3953  1.5948  2.2415
  243SOL     OW  727   1.081   0.591   2.501 -0.1955 -0.0575  0.1280
  243SOL    HW1  728   1.004   0.621   2.441 -1.1427  3.5437 -1.3949
  243SOL    HW2  729   1.054   0.533   2.583  2.6806  1.8531  1.1553
  244SOL     OW  730   2.808   1.886   2.294  0.8531  0.1785 -0.1642
  244SOL    HW1  731   2.855   1.840   2.212  1.3983 -2.0907 -0.0125
  244SOL    HW2  732   2.742   1.831   2.345 -3.0629  1.6986  1.4386
  245SOL     OW  733   2.337   0.688   2.192 -0.5266  0.3747 -0.0771
  245SOL    HW1  734   2.430   0.740   2.210  1.3230 -1.7350 -1.0216
  245SOL    HW2  735   2.274   0.676   2.271 -1.5881  3.4372 -3.3903
  246SOL     OW  736   0.208   2.914   1.707  0.5063 -0.1575  0.7621
  246SOL    HW1  737   0.137   2.898   1.634 -2.5345  3.0373 -0.4627
  246SOL    HW2  738   0.290   2.960   1.663  0.4943 -2.3987 -1.9959
  247SOL     OW  739   2.190   0.588   3.054  0.5800 -0.2163  0.5855
  247SOL    HW1  740   2.284   0.578   3.000  3.8103 -2.4046 -1.6380
  247SOL    HW2  741   2.147   0.686   3.049  1.5101  2.3575 -0.3265
  248SOL     OW  742   2.138   1.833   1.586 -0.2638 -0.2259 -0.0770
  248SOL    HW1  743   2.211   1.775   1.637  1.7193 -0.7422 -1.7338
  248SOL    HW2  744   2.050   1.840   1.646 -2.4800 -1.7075  2.3523
  249SOL     OW  745   1.858   1.912   1.901 -0.0140  0.1074 -0.0703
  249SOL    HW1  746   1.876   1.852   1.820  0.1034  1.9650 -1.5261
  249SOL    HW2  747   1.941   1.967   1.935  0.4194  2.3520 -0.8910
  250SOL     OW  748   1.133   0.725   1.953  0.1352  0.2122 -0.6794
  250SOL    HW1  749   1.149   0.627   1.976 -0.6809  1.9322  0.7571
  250SOL    HW2  750   1.118   0.740   1.852  2.2831 -0.5070 -0.8041
  251SOL     OW  751   0.030   1.582   2.481  0.8847  0.2635 -0.5832
  251SOL    HW1  752   0.035   1.683   2.452 -1.8367  1.5783 -2.2178
  251SOL    HW2  753  -0.068   1.554   2.496 -1.7635  0.3320 -0.1354
  252SOL     OW  754   1.522   0.856   1.554  0.0895 -0.1127  0.3217
  252SOL    HW1  755   1.615   0.847   1.509  3.1781 -1.2549 -3.2737
  252SOL    HW2  756   1.524   0.932   1.626 -1.3954  1.7895  0.3444
  253SOL     OW  757   0.941   1.506   0.487  0.8452 -0.2607 -0.1170
  253SOL    HW1  758   0.990   1.426   0.437  0.6549  2.1172  0.8062
  253SOL    HW2  759   0.843   1.517   0.448 -1.7640  1.3937 -5.3650
  254SOL     OW  760   2.029   2.141   1.607  0.1106 -0.2513 -0.2111
  254SOL    HW1  761   1.997   2.055   1.557 -0.9884 -1.0316 -0.3749
  254SOL    HW2  762   1.963   2.181   1.678  0.2709 -1.8309  0.7832
  255SOL     OW  763   0.153   1.155   2.871 -0.0473 -0.4713  0.0144
  255SOL    HW1  764   0.213   1.243   2.885 -1.8381  0.8444 -0.3954
  255SOL    HW2  765   0.200   1.069   2.920  0.0512  0.1815  1.3303
  256SOL     OW  766   2.808   1.376   1.766  0.1245  0.0404  0.3401
  256SOL    HW1  767   2.713   1.419   1.761 -1.0610  0.8503 -1.3488
  256SOL    HW2  768   2.806   1.274   1.744 -1.9945 -1.4168  1.7255
  257SOL     OW  769   0.806   0.207   1.771 -0.5519  0.2615 -0.7165
  257SOL    HW1  770   0.857   0.287   1.725 -2.7494  0.5649  0.7237
  257SOL    HW2  771   0.855   0.112   1.763  0.4609 -1.2811  2.4588
  258SOL     OW  772   2.959   1.291   0.443  0.4317  0.1514 -0.2762
  258SOL    HW1  773   2.874   1.344   0.457  0.6396 -2.1006 -2.0330
  258SOL    HW2  774   3.007   1.267   0.531  4.4550 -2.1442  0.1469
  259SOL     OW  775   0.456   2.953   3.066 -0.2284 -0.0540  0.0846
  259SOL    HW1  776   0.371   2.901   3.107  2.6833 -0.1215  0.4995
  259SOL    HW2  777   0.490   2.907   2.983  0.6129  0.1546 -0.0812
  260SOL     OW  778   2.710   0.841   2.805 -0.6469 -0.2359  0.1093
  260SOL    HW1  779   2.618   0.804   2.796 -1.1427 -3.0213  0.0699
  260SOL    HW2  780   2.725   0.871   2.904  0.4641  0.7580  2.0432
  261SOL     OW  781   2.754   1.322   1.262 -0.3966  0.4779 -1.0194
  261SOL    HW1  782   2.690   1.265   1.199  0.3441  3.3038 -0.1894
  261SOL    HW2  783   2.815   1.270   1.328 -0.5374  0.5273 -1.0400
  262SOL     OW  784   1.398   2.969   2.022  0.3953 -0.1057  0.4402
  262SOL    HW1  785   1.438   3.045   1.964 -0.1227  2.3554  1.9635
  262SOL    HW2  786   1.314   2.918   1.987 -0.5722 -0.2366 -0.0884
  263SOL     OW  787   0.854   0.743   2.327 -0.3813 -0.0861  0.6206
  263SOL    HW1  788   0.817   0.654   2.287 -3.0942  0.1881 -1.1749
  263SOL    HW2  789   0.912   0.810   2.267 -1.3714  1.3389 -0.3760
  264SOL     OW  790   2.205   0.843   0.376 -0.2558 -0.1806  0.5146
  264SOL    HW1  791   2.210   0.797   0.291  3.1987  0.6955  2.7992
  264SOL    HW2  792   2.291   0.826   0.424 -0.1003 -0.3167 -0.1548
  265SOL     OW  793   0.926   2.387   2.659 -0.0762  0.3184 -0.5158
  265SOL    HW1  794   0.995   2.417   2.731  2.8405 -1.8495  0.9138
  265SOL    HW2  795   0.889   2.289   2.681  1.0435 -2.1295 -1.1968
  266SOL     OW  796   1.353   1.681   3.091 -0.0743  0.3016  0.1343
  266SOL    HW1  797   1.344   1.754   3.161 -0.0765 -0.4842  0.1722
  266SOL    HW2  798   1.446   1.683   3.056 -1.3949 -2.9528  0.8866
  267SOL     OW  799   0.981   3.030   2.371  0.4779  0.6181 -0.0351
  267SOL    HW1  800   0.985   2.979   2.278  0.4973 -0.0325  0.6946
  267SOL    HW2  801   0.922   3.115   2.364 -1.1220 -2.1953  0.5094
  268SOL     OW  802   0.650   1.188   1.057 -0.6684 -0.0159 -0.2091
  268SOL    HW1  803   0.665   1.225   1.154  0.2587 -1.9708  3.9758
  268SOL    HW2  804   0.621   1.255   0.984  0.8990 -1.8324  0.5054
  269SOL     OW  805   2.355   2.529   1.583 -0.4327 -0.2908  0.5801
  269SOL    HW1  806   2.421   2.463   1.622 -0.1685  2.3216  2.7289
  269SOL    HW2  807   2.310   2.589   1.652  0.3537  0.0558 -0.3536
  270SOL     OW  808   0.182   2.964   1.988  0.1594 -0.6073  0.4779
  270SOL    HW1  809   0.210   2.942   1.892 -2.5044 -0.1587 -0.9395
  270SOL    HW2  810   0.177   2.882   2.048  2.4691 -0.8546  0.4518
  271SOL     OW  811   0.411   1.380   1.170 -0.1753 -0.2861  0.2985
  271SOL    HW1  812   0.368   1.366   1.079 -1.3024 -1.3293  2.2896
  271SOL    HW2  813   0.349   1.352   1.244  0.4978  0.7953  1.4786
  272SOL     OW  814   1.989   2.877   1.961  0.0756  0.3537  0.6352
  272SOL    HW1  815   1.951   2.817   1.887  0.3080 -0.5232  0.3538
  272SOL    HW2  816   2.068   2.929   1.923 -3.9285 -2.4312  3.6006
  273SOL     OW  817   1.465   1.434   2.756  0.2143 -0.1133 -0.1323
  273SOL    HW1  818   1.372   1.478   2.776  1.4840  0.8258 -3.5606
  273SOL    HW2  819   1.509   1.384   2.835 -1.5066  0.9930 -0.1583
  274SOL     OW  820   1.229   0.475   2.029 -0.0247 -0.3864  0.1923
  274SOL    HW1  821   1.193   0.377   2.030 -0.2749  0.2152  3.3218
  274SOL    HW2  822   1.271   0.494   2.120 -2.0617 -0.4920  3.7026
  275SOL     OW  823   0.594   2.086   1.893  0.4392  0.1145  0.0638
  275SOL    HW1  824   0.598   2.183   1.922 -3.6652 -0.6630 -2.3210
  275SOL    HW2  825   0.503   2.050   1.922 -1.7041  0.7874  2.2556
  276SOL     OW  826   2.183   0.902   2.748  0.5947  0.7600  0.1822
  276SOL    HW1  827   2.131   0.887   2.659 -0.9856  1.9017 -2.1190
  276SOL    HW2  828   2.137   0.866   2.831 -0.6467  0.5310 -2.9028
  277SOL     OW  829   3.069   0.900   0.225  0.2907  0.0015  0.1534
  277SOL    HW1  830   3.154   0.928   0.176 -0.0664 -1.4504  0.5009
  277SOL    HW2  831   3.081   0.844   0.309 -1.1833  0.8840  0.2705
  278SOL     OW  832   0.229   0.283   3.055  0.2015  0.0302 -0.6086
  278SOL    HW1  833   0.302   0.214   3.041  1.2700 -0.1848  2.2200
  278SOL    HW2  834   0.262   0.379   3.081 -2.2383  1.8565 -0.4779
  279SOL     OW  835   0.159   0.092   0.874  0.9017 -0.0507 -0.2393
  279SOL    HW1  836   0.169   0.016   0.941  1.4818 -0.6782 -1.1890
  279SOL    HW2  837   0.217   0.078   0.788 -0.2311 -0.9075 -1.2653
  280SOL     OW  838   1.563   2.962   2.428  0.3938 -0.2044 -0.4096
  280SOL    HW1  839   1.628   3.015   2.489  0.6921  0.6809  0.7216
  280SOL    HW2  840   1.490   3.015   2.375  0.4494 -0.0713 -0.7250
  281SOL     OW  841   0.568   0.966   2.207  0.1839  0.3745  0.6563
  281SOL    HW1  842   0.604   0.878   2.170  1.2315  2.0677 -2.2722
  281SOL    HW2  843   0.506   0.953   2.289  0.2561  0.3946 -0.2072
  282SOL     OW  844   1.791   2.486   0.541 -0.0892  0.4261 -0.4313
  282SOL    HW1  845   1.758   2.410   0.479  0.6896 -1.8707 -0.0637
  282SOL    HW2  846   1.728   2.569   0.539 -2.6984 -0.0166  2.2982
  283SOL     OW  847   1.131   0.895   0.851  0.4118 -0.6505 -1.1761
  283SOL    HW1  848   1.161   0.839   0.932 -2.3196  0.1232 -1.3696
  283SOL    HW2  849   1.082   0.986   0.865 -1.6473 -2.0042  2.1521
  284SOL     OW  850   2.305   2.700   2.501 -1.0377  0.6836  0.8747
  284SOL    HW1  851   2.368   2.770   2.455  4.6290  2.1210 -0.1651
  284SOL    HW2  852   2.333   2.673   2.598 -2.4544 -0.2779  0.7979
  285SOL     OW  853   1.307   3.039   2.603  0.0924  0.2102  0.5069
  285SOL    HW1  854   1.320   3.072   2.510 -0.9063  1.4010 -1.4191
  285SOL    HW2  855   1.205   3.046   2.626  0.2017 -2.5529 -0.0728
  286SOL     OW  856   0.449   0.460   0.751 -0.3747 -0.3871 -0.4017
  286SOL    HW1  857   0.414   0.412   0.837 -1.3671  0.1425 -2.2571
  286SOL    HW2  858   0.440   0.400   0.666  0.6796 -0.6222  0.7272
  287SOL     OW  859   0.100   1.294   2.522 -0.2072  0.4803 -0.0403
  287SOL    HW1  860   0.033   1.226   2.565 -2.1437  0.2603 -1.8817
  287SOL    HW2  861   0.086   1.399   2.529  1.4819 -2.5784  0.7127
  288SOL     OW  862   1.585   2.632   1.577 -0.2184 -0.0863  0.1612
  288SOL    HW1  863   1.589   2.562   1.651 -2.3502 -0.7919 -1.2081
  288SOL    HW2  864   1.682   2.632   1.527  0.2677 -0.9989 -3.3536
  289SOL     OW  865   0.660   2.710   0.879  0.4233 -0.2370 -0.0551
  289SOL    HW1  866   0.710   2.766   0.806  1.0727 -2.1954 -0.1650
  289SOL    HW2  867   0.613   2.766   0.950  0.0997  0.6060 -0.7832
  290SOL     OW  868   2.799   1.086   1.705  0.0448 -0.2133  0.1038
  290SOL    HW1  869   2.718   1.020   1.714 -0.1681 -0.7986  1.9599
  290SOL    HW2  870   2.879   1.050   1.763  3.2445  0.3955  0.2024
  291SOL     OW  871   1.974   0.046   0.054 -0.4609 -0.3497 -1.1829
  291SOL    HW1  872   1.989   0.025   0.156  1.3718  0.4045  1.6794
  291SOL    HW2  873   2.010   0.137   0.032 -0.1096  0.7953  3.1032
  292SOL     OW  874   2.983   1.148   3.011  0.0160 -0.2315 -0.5027
  292SOL    HW1  875   2.909   1.213   2.986  1.6991 -0.1219  0.7582
  292SOL    HW2  876   3.074   1.169   2.972 -0.3894 -1.3545  1.1066
  293SOL     OW  877   0.569   2.148   0.168  0.3536 -0.3051  0.4626
  293SOL    HW1  878   0.525   2.223   0.232 -0.8139  3.6888  2.3987
  293SOL    HW2  879   0.668   2.135   0.191 -0.6002 -0.0340  0.2510
  294SOL     OW  880   1.811   2.259   1.777 -0.0806  0.2828  0.3240
  294SOL    HW1  881   1.798   2.320   1.856  0.5371  0.3065  1.2936
  294SOL    HW2  882   1.766   2.300   1.693  0.1317  4.7293  1.5417
  295SOL     OW  883   0.994   1.069   0.475  0.4747  0.3988 -0.7607
  295SOL    HW1  884   1.088   1.050   0.515 -0.3883  2.4406  1.9452
  295SOL    HW2  885   0.917   1.044   0.547 -3.5424 -1.3404  1.9031
  296SOL     OW  886   1.202   2.154   2.527 -0.3110  0.2660  0.7975
  296SOL    HW1  887   1.165   2.200   2.440 -2.3011 -1.4610 -3.7495
  296SOL    HW2  888   1.207   2.051   2.511  2.1424  1.6196  1.3886
  297SOL     OW  889   1.431   0.618   1.349 -0.0180 -0.1095 -0.0953
  297SOL    HW1  890   1.389   0.534   1.316  0.7450  0.8121  1.0395
  297SOL    HW2  891   1.527   0.599   1.386  0.0595 -2.5232 -0.2964
  298SOL     OW  892   0.559   1.355   2.955 -0.0876 -0.6000 -0.2238
  298SOL    HW1  893   0.506   1.290   3.021  0.6590 -1.3538 -0.1178
  298SOL    HW2  894   0.599   1.304   2.881  0.0285 -3.4486  0.3770
  299SOL     OW  895   0.474   0.270   1.312  0.1601 -0.1540 -0.2367
  299SOL    HW1  896   0.463   0.376   1.314 -0.5788  1.1757  0.2168
  299SOL    HW2  897   0.529   0.231   1.392  0.9242 -2.5655  2.9212
  300SOL     OW  898   1.230   1.807   2.738  0.4337  0.1895  0.0108
  300SOL    HW1  899   1.205   1.713   2.773  0.7218 -1.5886 -1.3899
  300SOL    HW2  900   1.334   1.822   2.719  1.9830 -2.1000 -1.4721
  301SOL     OW  901   0.431   0.345   0.517 -0.2248 -0.5068  0.0064
  301SOL    HW1  902   0.342   0.297   0.488  0.0825  1.4763  2.3837
  301SOL    HW2  903   0.514   0.290   0.483  0.3618 -0.2045  1.6395
  302SOL     OW  904   1.271   2.481   2.343  0.2684 -0.5279 -0.1602
  302SOL    HW1  905   1.196   2.507   2.415 -0.9995  1.3821  0.0922
  302SOL    HW2  906   1.275   2.382   2.333 -0.3610  1.2112  1.2036
  303SOL     OW  907   0.928   2.397   0.834  0.0445 -0.3498  0.1736
  303SOL    HW1  908   0.995   2.412   0.754  0.8548 -0.4956 -0.1679
  303SOL    HW2  909   0.932   2.468   0.912 -0.4866  0.5825 -0.9685
  304SOL     OW  910   0.083   1.987   0.603  0.0691 -0.7301 -0.6531
  304SOL    HW1  911   0.149   1.944   0.537  0.1873  1.7629 -0.6259
  304SOL    HW2  912   0.032   2.071   0.571  1.9648  0.5171 -0.3627
  305SOL     OW  913   1.636   0.894   0.570 -0.2934 -0.2704  0.1156
  305SOL    HW1  914   1.577   0.896   0.479  0.8288  0.6890 -2.2187
  305SOL    HW2  915   1.686   0.805   0.586 -0.3222  0.1347 -0.4543
  306SOL     OW  916   0.422   1.848   1.915 -0.0982 -0.6549 -0.0578
  306SOL    HW1  917   0.488   1.767   1.917 -0.7872 -0.7825 -0.9623
  306SOL    HW2  918   0.420   1.895   2.010 -1.7909  3.2623  1.9010
  307SOL     OW  919   3.076   0.912   2.503 -0.5240 -0.2484 -0.4756
  307SOL    HW1  920   3.077   0.992   2.566  0.7439 -1.8314 -0.7449
  307SOL    HW2  921   3.007   0.843   2.535  0.5910 -0.4903 -1.6957
  308SOL     OW  922   1.562   2.684   2.791 -0.3301  0.1956  0.0555
  308SOL    HW1  923   1.548   2.621   2.711 -2.8334  0.9657 -3.5550
  308SOL    HW2  924   1.542   2.645   2.884 -0.4264 -1.7626 -1.6632
  309SOL     OW  925   1.247   0.167   1.765  0.3248  0.3664 -0.9226
  309SOL    HW1  926   1.340   0.126   1.776  0.3111 -0.0410 -0.0209
  309SOL    HW2  927   1.212   0.166   1.668  1.0986 -0.3905 -0.2608
  310SOL     OW  928   1.510   2.548   0.683  0.1884  0.8948  0.0656
  310SOL    HW1  929   1.480   2.583   0.774  1.4246  0.2673  0.4667
  310SOL    HW2  930   1.524   2.630   0.618  0.7278  1.1382 -0.2831
  311SOL     OW  931   1.190   1.001   1.628 -0.0548 -0.1719  0.3283
  311SOL    HW1  932   1.216   0.898   1.622 -0.8799 -3.0746 -0.1433
  311SOL    HW2  933   1.238   1.061   1.556 -0.5971 -0.2652 -0.9114
  312SOL     OW  934   1.642   0.720   1.073  0.1421  0.2873  0.8473
  312SOL    HW1  935   1.608   0.798   1.014 -1.0263  1.0778 -0.9430
  312SOL    HW2  936   1.569   0.649   1.076  1.7869 -1.2229 -0.2341
  313SOL     OW  937   1.540   1.372   0.733  0.1574 -0.3962 -0.2886
  313SOL    HW1  938   1.467   1.426   0.780 -0.8255  2.4733  0.5614
  313SOL    HW2  939   1.510   1.292   0.670  2.3240 -0.1206 -2.1938
  314SOL     OW  940   2.952   0.059   3.020 -0.2577 -0.0136  0.3398
  314SOL    HW1  941   2.957   0.089   3.118  0.6050 -1.1990  0.8923
  314SOL    HW2  942   2.863   0.012   2.995  0.8834 -1.4422 -1.7849
  315SOL     OW  943   1.221   0.200   2.759  0.1425  0.1082 -0.2371
  315SOL    HW1  944   1.189   0.130   2.687 -3.4169 -4.0900 -1.1226
  315SOL    HW2  945   1.232   0.161   2.855  0.6849 -0.3492 -1.0860
  316SOL     OW  946   1.734   2.050   0.858  0.5682  0.3167  0.3565
  316SOL    HW1  947   1.674   2.034   0.940  0.5242 -1.9371 -0.8946
  316SOL    HW2  948   1.732   2.149   0.820 -1.3738  0.0878  1.2126
  317SOL     OW  949   1.132   0.636   2.887 -0.0219 -0.9305 -0.3943
  317SOL    HW1  950   1.093   0.710   2.956 -1.5760 -0.8512  1.5251
  317SOL    HW2  951   1.059   0.580   2.850 -0.9689  3.7781 -1.7042
  318SOL     OW  952   1.359   3.087   2.317 -0.0485 -0.1631 -0.3290
  318SOL    HW1  953   1.363   3.186   2.291 -2.4968 -0.0281 -1.8082
  318SOL    HW2  954   1.368   3.032   2.227 -0.9151 -3.7138  0.5178
  319SOL     OW  955   0.683   2.391   2.923 -0.7844 -0.0178  0.1429
  319SOL    HW1  956   0.613   2.365   2.994  0.3178  1.1268 -0.0082
  319SOL    HW2  957   0.781   2.378   2.947  0.0790 -0.8858 -0.4029
  320SOL     OW  958   1.693   2.269   0.409 -0.5172  0.2250  0.2607
  320SOL    HW1  959   1.764   2.189   0.387  1.2495 -1.5064  0.0280
  320SOL    HW2  960   1.603   2.228   0.425  1.1687  0.2126  0.3010
  321SOL     OW  961   1.614   2.746   0.514 -0.0419 -0.1545  0.1249
  321SOL    HW1  962   1.558   2.766   0.431 -2.1477  0.4150  2.3565
  321SOL    HW2  963   1.711   2.785   0.524 -0.9149  0.6140  1.7522
  322SOL     OW  964   2.587   1.145   2.368  0.0423 -0.5317 -0.0012
  322SOL    HW1  965   2.675   1.178   2.416  2.2606 -1.8794  0.3662
  322SOL    HW2  966   2.550   1.052   2.401  0.0751 -0.0734  1.7645
  323SOL     OW  967   1.171   2.649   0.840  0.0384 -0.0889 -0.8610
  323SOL    HW1  968   1.132   2.591   0.763  0.6344 -0.0043 -1.2569
  323SOL    HW2  969   1.143   2.749   0.845  2.0179 -1.8312 -0.0316
  324SOL     OW  970   0.260   2.470   2.529 -0.0741 -0.4360  0.6904
  324SOL    HW1  971   0.327   2.441   2.600 -1.3247  1.3036  0.3060
  324SOL    HW2  972   0.202   2.542   2.570  2.0194 -0.8176 -0.9686
  325SOL     OW  973   1.291   3.061   0.494  0.3336  0.2385  0.1387
  325SOL    HW1  974   1.283   3.098   0.399 -1.1940 -1.7143  0.1381
  325SOL    HW2  975   1.295   3.132   0.566  0.5259 -0.1842 -2.2957
  326SOL     OW  976   2.470   0.797   3.058  0.0999 -0.1930  0.3705
  326SOL    HW1  977   2.445   0.747   2.968  2.2979  0.6180 -0.1108
  326SOL    HW2  978   2.531   0.741   3.119 -2.0103  1.7517  0.3237
  327SOL     OW  979   2.845   0.347   0.648 -0.0213  0.1362  0.7428
  327SOL    HW1  980   2.838   0.288   0.560 -0.6776 -3.4598 -0.1727
  327SOL    HW2  981   2.872   0.288   0.726  0.9302 -1.4315  0.8454
  328SOL     OW  982   2.576   0.581   0.399  0.2047  0.3166  0.3312
  328SOL    HW1  983   2.538   0.678   0.414 -1.3742 -1.7647  1.2448
  328SOL    HW2  984   2.564   0.519   0.481  0.7293  2.4563 -1.2516
  329SOL     OW  985   2.961   2.938   2.137 -0.4099  0.7644  0.2930
  329SOL    HW1  986   3.021   2.855   2.159 -1.5894  0.7734  1.4304
  329SOL    HW2  987   2.944   2.997   2.222  1.0197 -0.3890 -0.8856
  330SOL     OW  988   0.544   0.141   1.870 -0.6210  0.4313 -0.8529
  330SOL    HW1  989   0.642   0.151   1.828 -0.3321  1.9554 -1.1311
  330SOL    HW2  990   0.543   0.093   1.966  0.0921 -0.7747  1.2985
  331SOL     OW  991   3.000   1.906   1.168  0.0934  0.3519  0.1067
  331SOL    HW1  992   3.029   1.992   1.121 -0.1100 -1.1574 -0.9964
  331SOL    HW2  993   2.907   1.900   1.213 -1.0520  0.1675  0.5521
  332SOL     OW  994   0.411   1.170   0.009 -0.5672 -0.0547  0.4872
  332SOL    HW1  995   0.349   1.127  -0.056 -1.2358 -0.1108  0.7107
  332SOL    HW2  996   0.372   1.194   0.104  1.0836  1.4713  2.3029
  333SOL     OW  997   2.847   1.023   0.328 -0.3997 -0.1121 -0.4525
  333SOL    HW1  998   2.871   1.106   0.384  1.4602 -0.5085 -0.2879
  333SOL    HW2  999   2.928   0.994   0.273  2.3898 -1.5818  0.2066
  334SOL     OW 1000   1.670   1.291   1.837 -0.2379 -0.0187 -0.0759
  334SOL    HW1 1001   1.751   1.242   1.790 -0.4461  0.9982 -1.0237
  334SOL    HW2 1002   1.690   1.327   1.936 -2.0881  2.2859  0.8076
  335SOL     OW 1003   1.993   2.731   2.606 -0.3033  0.1351  0.0902
  335SOL    HW1 1004   1.941   2.712   2.694 -1.3171 -1.2644  1.0366
  335SOL    HW2 1005   2.089   2.765   2.632  1.3026 -0.0508  2.0531
  336SOL     OW 1006   0.241   0.177   2.803 -0.3847 -0.4807 -0.3746
  336SOL    HW1 1007   0.329   0.160   2.855 -1.5600 -1.5861  2.1020
  336SOL    HW2 1008   0.185   0.257   2.840 -0.3078  1.4465  0.7748
  337SOL     OW 1009   0.918   2.833   2.843 -0.2818  0.5627  0.0667
  337SOL    HW1 1010   0.906   2.757   2.912 -0.9716  1.3884 -1.0762
  337SOL    HW2 1011   1.017   2.853   2.821 -0.8581  1.9217 -0.2905
  338SOL     OW 1012   0.012   1.015   0.606  0.1371 -0.3406 -0.1680
  338SOL    HW1 1013  -0.086   0.990   0.638  2.3780 -0.9286 -0.0472
  338SOL    HW2 1014   0.038   1.115   0.625 -1.0763 -1.1229 -0.6231
  339SOL     OW 1015   1.700   1.352   2.127  0.0909  0.2349 -0.0540
  339SOL    HW1 1016   1.596   1.351   2.136 -1.0828  0.8936  1.6654
  339SOL    HW2 1017   1.741   1.444   2.159 -2.6745  3.9167  2.1609
  340SOL     OW 1018   2.347   0.794   1.118 -0.3088 -0.0351  0.1384
  340SOL    HW1 1019   2.246   0.795   1.121 -0.3632 -0.8411 -1.7938
  340SOL    HW2 1020   2.395   0.708   1.077  0.3818  0.1280  1.0807
  341SOL     OW 1021   1.906   2.104   0.330  0.3810 -0.0800 -0.0287
  341SOL    HW1 1022   1.926   2.188   0.270  0.5118  1.3772 -2.1547
  341SOL    HW2 1023   1.988   2.072   0.384  1.1802  1.7581 -0.5677
  342SOL     OW 1024   2.264   2.124   2.713 -0.0619  0.1993  0.3999
  342SOL    HW1 1025   2.312   2.052   2.767 -0.2326  1.3693 -0.7335
  342SOL    HW2 1026   2.164   2.097   2.715  0.7246 -1.2978  0.6391
  343SOL     OW 1027   0.335   0.876   2.727 -0.5161 -0.1758  0.0861
  343SOL    HW1 1028   0.345   0.928   2.637  0.4430  0.4339 -2.4684
  343SOL    HW2 1029   0.419   0.880   2.783  2.0590 -3.2115  0.0619
  344SOL     OW 1030   1.901   1.426   0.404  0.1339 -0.3133  0.3327
  344SOL    HW1 1031   1.901   1.363   0.323 -1.6718 -2.4489  1.1720
  344SOL    HW2 1032   1.805   1.447   0.437  0.3043 -1.3347 -0.9323
  345SOL     OW 1033   1.433   2.240   2.918 -0.0369  0.1289 -0.2412
  345SOL    HW1 1034   1.345   2.204   2.878  2.1632  1.6012 -0.6127
  345SOL    HW2 1035   1.512   2.209   2.862 -1.1721  2.0414 -0.8306
  346SOL     OW 1036   2.375   0.864   1.381  0.4021 -0.0566 -0.7186
  346SOL    HW1 1037   2.322   0.955   1.371 -0.1474  0.1954 -2.2389
  346SOL    HW2 1038   2.364   0.811   1.292 -1.1004  0.0492 -1.9813
  347SOL     OW 1039   0.758   2.806   1.534 -0.1469 -0.6817  0.5667
  347SOL    HW1 1040   0.697   2.751   1.597 -0.0075 -0.8630  2.3109
  347SOL    HW2 1041   0.699   2.859   1.469  1.2325 -3.5199  0.0668
  348SOL     OW 1042   0.226   0.677   2.874  0.2685  0.5298  0.4821
  348SOL    HW1 1043   0.125   0.684   2.856 -0.3998  1.8253 -0.5605
  348SOL    HW2 1044   0.272   0.748   2.818 -3.1314 -3.1313 -0.0198
  349SOL     OW 1045   1.888   0.443   2.798  0.1053  0.2788 -0.0132
  349SOL    HW1 1046   1.875   0.537   2.751  1.3302  0.2322 -0.8445
  349SOL    HW2 1047   1.879   0.438   2.900  0.5208 -1.9202  0.0433
  350SOL     OW 1048   1.645   0.409   0.356 -0.1045  0.5046  0.2381
  350SOL    HW1 1049   1.687   0.412   0.454 -0.1654  2.1135  0.2744
  350SOL    HW2 1050   1.606   0.502   0.329  2.6004 -0.1490 -0.0490
  351SOL     OW 1051   0.990   0.867   2.147 -0.1036 -0.0031  0.4277
  351SOL    HW1 1052   0.995   0.970   2.143 -0.8870 -0.0780 -1.9698
  351SOL    HW2 1053   1.020   0.816   2.059  2.5017 -0.8388  0.8268
  352SOL     OW 1054   2.037   1.311   0.662 -0.7619  0.2170  0.0168
  352SOL    HW1 1055   2.033   1.405   0.626 -0.0422  0.5722  3.2185
  352SOL    HW2 1056   1.937   1.274   0.683  1.2332 -1.7957  1.8312
  353SOL     OW 1057   2.163   2.809   1.050 -0.1041 -0.4857  0.6485
  353SOL    HW1 1058   2.205   2.758   1.127 -0.0184  2.0097 -0.0391
  353SOL    HW2 1059   2.068   2.777   1.031  1.4638  3.0762 -0.6995
  354SOL     OW 1060   0.278   1.392   2.888 -0.2870 -0.2758  0.7147
  354SOL    HW1 1061   0.251   1.461   2.814  1.4822 -0.7370 -0.2701
  354SOL    HW2 1062   0.380   1.398   2.915  0.8726  1.7192 -0.0803
  355SOL     OW 1063   0.609   1.532   0.603  0.7101  0.4201  0.1004
  355SOL    HW1 1064   0.622   1.544   0.704  2.2131 -0.2560  0.3382
  355SOL    HW2 1065   0.641   1.436   0.572  0.4405  1.3846  0.2195
  356SOL     OW 1066   0.868   0.303   2.088 -0.6750  0.5275 -0.0674
  356SOL    HW1 1067   0.964   0.267   2.080  0.2223 -1.6601 -1.8581
  356SOL    HW2 1068   0.817   0.302   1.993 -1.5665  2.0362 -3.5957
  357SOL     OW 1069   0.992   1.301   0.339 -0.0645  1.0258  0.5937
  357SOL    HW1 1070   0.980   1.264   0.243  1.7438  0.5921  0.1388
  357SOL    HW2 1071   0.972   1.222   0.405  0.2427 -2.1321  1.0124
  358SOL     OW 1072   1.637   1.491   0.494 -0.0252  0.2548  0.4503
  358SOL    HW1 1073   1.593   1.477   0.584  1.0418 -1.4650  0.8414
  358SOL    HW2 1074   1.584   1.467   0.407  0.1233  0.2083 -1.7774
  359SOL     OW 1075   1.567   2.640   0.186 -0.1760  0.1457  0.1998
  359SOL    HW1 1076   1.571   2.542   0.157  0.3919 -1.7624  0.1960
  359SOL    HW2 1077   1.500   2.693   0.132  0.6470 -1.6095  3.1845
  360SOL     OW 1078   0.876   0.569   0.591 -0.3296 -0.3357 -0.1259
  360SOL    HW1 1079   0.780   0.598   0.618  0.3238 -1.1221 -0.6942
  360SOL    HW2 1080   0.891   0.470   0.600  0.1847  2.1718  0.8933
  361SOL     OW 1081   1.217   1.310   0.736  0.2580 -0.1997 -0.3608
  361SOL    HW1 1082   1.276   1.370   0.790 -1.4266  0.4126  0.4444
  361SOL    HW2 1083   1.119   1.347   0.743 -1.1939  0.4506 -0.8419
  362SOL     OW 1084   1.383   1.839   0.789  0.2502 -0.1690  0.5588
  362SOL    HW1 1085   1.419   1.803   0.881 -1.5650 -1.7035  0.0660
  362SOL    HW2 1086   1.462   1.857   0.724 -0.2352  0.1121  1.5118
  363SOL     OW 1087   1.215   1.250   2.053 -0.1689 -0.1229  0.3993
  363SOL    HW1 1088   1.300   1.287   2.104 -1.7971  1.7996 -1.0317
  363SOL    HW2 1089   1.174   1.329   1.996 -0.5900 -3.0907 -2.0615
  364SOL     OW 1090   0.499   2.339   1.981 -0.1190  0.5150 -0.4428
  364SOL    HW1 1091   0.407   2.386   1.983 -0.9157 -0.9095 -1.5521
  364SOL    HW2 1092   0.563   2.383   1.908 -1.6686  1.4770  1.5155
  365SOL     OW 1093   1.013   1.881   1.421 -0.0880  0.3127  0.1463
  365SOL    HW1 1094   0.925   1.933   1.443 -0.5596 -2.4773  3.0555
  365SOL    HW2 1095   1.031   1.860   1.323 -0.1997  0.6173 -0.1091
  366SOL     OW 1096   2.785   2.046   0.452  0.3475 -0.3513 -0.3963
  366SOL    HW1 1097   2.711   1.973   0.454  2.0597 -3.8386  0.1224
  366SOL    HW2 1098   2.869   2.005   0.400 -0.0974 -0.1432 -0.4536
  367SOL     OW 1099   0.946   1.135   0.125 -0.3692 -0.5097  0.2928
  367SOL    HW1 1100   0.981   1.042   0.148 -1.8073 -0.8883  0.4991
  367SOL    HW2 1101   0.988   1.173   0.038 -0.9003 -1.0733  0.7076
  368SOL     OW 1102   1.448   0.534   0.745 -0.4898 -0.2686 -0.2032
  368SOL    HW1 1103   1.384   0.567   0.668  0.7841  2.0060 -3.1805
  368SOL    HW2 1104   1.547   0.569   0.748 -1.4130 -0.8863 -0.2511
  369SOL     OW 1105   0.324   1.732   0.076  0.4209 -0.3965 -0.0244
  369SOL    HW1 1106   0.370   1.796   0.149  0.2817  2.1093  0.2899
  369SOL    HW2 1107   0.262   1.662   0.119 -0.7294 -0.2271  1.0176
  370SOL     OW 1108   0.467   2.082   0.965  0.2604  0.0427  0.0743
  370SOL    HW1 1109   0.483   2.188   0.982 -0.9325  1.3593  0.3578
  370SOL    HW2 1110   0.372   2.063   0.931  0.6626  1.1005  1.0228
  371SOL     OW 1111   2.937   2.177   2.661  0.1384  0.2292 -0.1011
  371SOL    HW1 1112   2.871   2.152   2.733 -0.3759  0.6921  1.8833
  371SOL    HW2 1113   3.022   2.214   2.707 -0.3471 -2.1643  0.2875
  372SOL     OW 1114   1.124   2.000   1.091  0.2486 -0.1026 -0.1324
  372SOL    HW1 1115   1.062   2.024   1.010 -0.4788  2.7153  0.8944
  372SOL    HW2 1116   1.150   2.082   1.148  0.2539  0.4350 -1.1915
  373SOL     OW 1117   2.014   1.999   0.856  0.0248  0.1134 -0.4858
  373SOL    HW1 1118   2.069   2.022   0.942 -1.1228 -0.0382  1.8064
  373SOL    HW2 1119   1.911   2.017   0.877 -1.5032  2.1318 -0.7150
  374SOL     OW 1120   1.830   0.418   0.585  0.2886 -0.0190 -0.1864
  374SOL    HW1 1121   1.849   0.384   0.681  3.2619 -1.8192  0.9661
  374SOL    HW2 1122   1.916   0.455   0.542 -1.3521 -4.7004  3.7987
  375SOL     OW 1123   2.437   2.188   1.122 -0.0169 -0.3304 -0.0362
  375SOL    HW1 1124   2.512   2.183   1.050 -3.4184 -1.2177 -2.1004
  375SOL    HW2 1125   2.470   2.153   1.213  0.8179  0.0952 -1.1902
  376SOL     OW 1126   3.077   0.551   1.479  0.1006  0.3861  0.0420
  376SOL    HW1 1127   3.097   0.600   1.567 -0.1832 -1.6122 -0.4291
  376SOL    HW2 1128   2.978   0.519   1.475  0.5376 -2.7228 -0.3627
  377SOL     OW 1129   2.238   2.850   0.327  0.0890  0.0991 -0.2790
  377SOL    HW1 1130   2.227   2.927   0.395 -0.3905  1.4775  1.9706
  377SOL    HW2 1131   2.334   2.829   0.298 -1.4095  0.1702 -2.1986
  378SOL     OW 1132   1.882   1.865   2.586 -0.2606  0.0718  0.0435
  378SOL    HW1 1133   1.911   1.817   2.669  2.1450 -1.7365 -0.4995
  378SOL    HW2 1134   1.873   1.794   2.514 -0.3665 -0.9079 -0.2887
  379SOL     OW 1135   0.758   0.153   2.827 -0.2756  0.1914  0.6977
  379SOL    HW1 1136   0.670   0.113   2.792 -0.9955 -0.4661  2.9442
  379SOL    HW2 1137   0.798   0.234   2.766 -1.5117  1.0041  0.3180
  380SOL     OW 1138   1.501   1.134   0.547 -0.3866 -0.1234 -0.1355
  380SOL    HW1 1139   1.404   1.148   0.559  3.1118  0.0906 -0.1465
  380SOL    HW2 1140   1.533   1.038   0.567  1.7394  0.2272  1.8510
  381SOL     OW 1141   1.391   1.168   1.468  0.4486 -0.2065  0.3973
  381SOL    HW1 1142   1.434   1.144   1.376  0.2620  1.0185 -0.2114
  381SOL    HW2 1143   1.444   1.136   1.548 -1.0032  2.6093 -0.8022
  382SOL     OW 1144   1.782   0.825   0.164 -0.2754  0.0345  0.1824
  382SOL    HW1 1145   1.840   0.822   0.076  1.7662  0.1489  0.2149
  382SOL    HW2 1146   1.844   0.829   0.252  0.0968  0.8607 -0.8795
  383SOL     OW 1147   2.613   0.984   1.442 -0.8072 -0.1858 -0.0866
  383SOL    HW1 1148   2.526   0.947   1.396  1.6193  0.4602 -1.2761
  383SOL    HW2 1149   2.703   0.977   1.392  1.4975  0.7945 -1.2548
  384SOL     OW 1150   0.883   2.323   0.135  0.3521 -0.2936 -0.4441
  384SOL    HW1 1151   0.847   2.408   0.181 -3.9614 -0.9109 -1.7231
  384SOL    HW2 1152   0.836   2.235   0.167  1.5353 -1.0204  0.9104
  385SOL     OW 1153   3.029   1.998   1.698  0.2038 -0.1745 -0.5800
  385SOL    HW1 1154   3.108   2.065   1.679  0.6024  2.7208  0.1671
  385SOL    HW2 1155   3.071   1.903   1.702  0.0167  1.5225 -0.4842
  386SOL     OW 1156   0.465   1.096   0.418  0.8388  0.3531 -0.1150
  386SOL    HW1 1157   0.468   0.997   0.443 -0.0853  3.2802 -1.5037
  386SOL    HW2 1158   0.381   1.125   0.366 -1.8191  0.3569  1.2296
  387SOL     OW 1159   0.911   0.393   1.603  0.0216 -0.4705 -0.2668
  387SOL    HW1 1160   1.006   0.434   1.609  1.8320 -2.4833  0.7978
  387SOL    HW2 1161   0.893   0.342   1.517  0.7384  0.3628  1.6164
  388SOL     OW 1162   1.188   2.617   1.763  0.2522 -0.7690 -0.2058
  388SOL    HW1 1163   1.208   2.624   1.662  0.3863 -0.9949  1.0674
  388SOL    HW2 1164   1.234   2.541   1.811  2.2052  0.6686 -3.7829
  389SOL     OW 1165   0.168   3.019   1.094 -0.2653  0.0854 -0.0828
  389SOL    HW1 1166   0.079   3.003   1.142 -1.0987 -1.7823 -0.1755
  389SOL    HW2 1167   0.220   2.931   1.073 -3.0970 -0.2550 -2.4512
  390SOL     OW 1168   1.000   0.949   1.304  0.5054 -0.0871  0.6392
  390SOL    HW1 1169   0.992   0.890   1.389  0.9076 -1.5134  1.7328
  390SOL    HW2 1170   1.009   1.047   1.332  0.8262  0.0591 -1.8368
  391SOL     OW 1171   2.089   1.193   1.006  0.0584  0.3104  0.3326
  391SOL    HW1 1172   2.009   1.125   1.016 -3.8337  0.4774 -0.1864
  391SOL    HW2 1173   2.171   1.148   0.965 -2.9087  1.9847 -1.2189
  392SOL     OW 1174   0.894   2.662   3.045 -0.6278  0.1493 -0.1574
  392SOL    HW1 1175   0.817   2.670   3.109 -0.3800  1.0288 -1.7342
  392SOL    HW2 1176   0.985   2.694   3.079  1.0036 -0.5034 -0.5308
  393SOL     OW 1177   0.375   0.486   1.990 -0.3788  0.3435 -0.3569
  393SOL    HW1 1178   0.311   0.406   1.976 -0.8816 -1.3731 -2.0314
  393SOL    HW2 1179   0.462   0.477   1.936 -2.0928 -2.6142 -0.0782
  394SOL     OW 1180   2.960   1.847   2.781 -0.7365  0.5718  0.3614
  394SOL    HW1 1181   3.044   1.839   2.836 -0.6719 -1.9748  0.9113
  394SOL    HW2 1182   2.980   1.855   2.678 -0.2571  0.4642  0.3426
  395SOL     OW 1183   1.618   1.892   0.619  0.3072  0.1474 -0.1757
  395SOL    HW1 1184   1.680   1.822   0.569 -1.5309 -1.7022 -1.0577
  395SOL    HW2 1185   1.666   1.936   0.701 -2.6253  3.2555 -1.0139
  396SOL     OW 1186   2.754   1.967   1.303 -0.3872  0.0994  0.7450
  396SOL    HW1 1187   2.651   1.982   1.290 -0.8853 -1.5172 -1.8019
  396SOL    HW2 1188   2.785   1.950   1.400 -0.9286  1.3572 -2.7920
  397SOL     OW 1189   0.993   2.187   0.525 -0.3786  0.4174 -0.1895
  397SOL    HW1 1190   0.922   2.116   0.493 -3.7942 -0.8657 -0.2187
  397SOL    HW2 1191   0.954   2.240   0.604 -0.4822  0.2278 -3.3314
  398SOL     OW 1192   2.167   0.019   1.040 -1.4325 -0.4486  0.9878
  398SOL    HW1 1193   2.132  -0.082   1.034 -0.4745 -0.7088  2.2966
  398SOL    HW2 1194   2.118   0.079   1.103  0.3495  0.6186 -2.6582
  399SOL     OW 1195   2.933   2.517   2.740  0.5896 -0.4562 -0.6285
  399SOL    HW1 1196   2.916   2.476   2.648 -0.5556  1.9119 -2.3691
  399SOL    HW2 1197   2.888   2.462   2.821  2.3684 -2.6494  1.6319
  400SOL     OW 1198   0.773   1.596   1.312  0.4770 -0.0317 -0.0250
  400SOL    HW1 1199   0.752   1.644   1.401  0.0782  1.6928  1.3090
  400SOL    HW2 1200   0.759   1.653   1.224  1.6174 -3.1483 -0.8752
  401SOL     OW 1201   1.843   0.098   1.364 -0.4549 -0.0718  0.5488
  401SOL    HW1 1202   1.898   0.145   1.435  1.9763 -1.1316 -2.6387
  401SOL    HW2 1203   1.740   0.095   1.386  0.1463  1.3772  0.4618
  402SOL     OW 1204   1.326   0.098   3.055  0.1554  0.1264 -0.4465
  402SOL    HW1 1205   1.422   0.092   3.021  0.3902 -1.1091  0.2819
  402SOL    HW2 1206   1.303   0.191   3.101 -2.0895  3.0820  0.6276
  403SOL     OW 1207   2.297   1.827   0.898  0.1548 -0.2998 -0.0264
  403SOL    HW1 1208   2.404   1.833   0.891  2.6437  1.2793  0.1416
  403SOL    HW2 1209   2.266   1.894   0.972  3.3112 -0.6618  0.2911
  404SOL     OW 1210   0.177   2.486   2.815 -0.2581  0.1557 -0.2993
  404SOL    HW1 1211   0.278   2.470   2.783  0.1741  1.3611 -1.9971
  404SOL    HW2 1212   0.148   2.585   2.820  1.6674 -0.6746 -2.3347
  405SOL     OW 1213   0.165   2.419   0.592 -0.6576 -0.0628  0.3070
  405SOL    HW1 1214   0.159   2.355   0.509 -1.6100 -2.8414 -0.0657
  405SOL    HW2 1215   0.215   2.506   0.574 -1.2023  2.2485  1.5189
  406SOL     OW 1216   0.034   1.471   2.985  0.0926  0.4343  0.5962
  406SOL    HW1 1217   0.123   1.424   2.945  1.9439 -2.8432 -0.1079
  406SOL    HW2 1218   0.045   1.488   3.084  0.7145  0.0212  2.9102
  407SOL     OW 1219   1.565   0.921   0.904 -0.3580  0.4876  0.0556
  407SOL    HW1 1220   1.602   0.945   0.808 -0.2071  1.7659  1.6301
  407SOL    HW2 1221   1.504   0.995   0.940 -1.9376 -1.5609 -0.2287
  408SOL     OW 1222   1.614   2.381   0.927  0.1622 -0.1936 -0.4160
  408SOL    HW1 1223   1.685   2.362   0.858  1.7025 -1.5543 -1.3598
  408SOL    HW2 1224   1.565   2.475   0.913 -0.3914 -2.9581 -0.7447
  409SOL     OW 1225   0.606   0.880   0.732  0.7994 -0.2289 -0.0938
  409SOL    HW1 1226   0.542   0.870   0.653 -1.1399 -0.9895 -0.8153
  409SOL    HW2 1227   0.652   0.787   0.756  2.2193  0.2239 -1.8896
  410SOL     OW 1228   1.272   2.011   1.413  0.2170  0.2141  0.4081
  410SOL    HW1 1229   1.355   1.973   1.456  0.2672 -1.5254 -0.9610
  410SOL    HW2 1230   1.183   1.953   1.434 -4.7874 -4.3058  0.9462
  411SOL     OW 1231   2.527   1.879   3.056 -0.1387 -0.2214  0.5684
  411SOL    HW1 1232   2.464   1.880   2.975  0.5762 -0.3492  1.0123
  411SOL    HW2 1233   2.629   1.878   3.028 -0.3492  0.6371  1.7295
  412SOL     OW 1234   1.491   2.536   2.192  0.2791  0.8876 -0.2022
  412SOL    HW1 1235   1.561   2.603   2.233  1.8612 -0.9905 -0.2445
  412SOL    HW2 1236   1.404   2.526   2.251  1.1327  0.6995 -0.9489
  413SOL     OW 1237   0.002   0.272   2.935  0.2432 -0.3328 -0.1798
  413SOL    HW1 1238  -0.063   0.192   2.960  1.1318 -2.5592 -0.7897
  413SOL    HW2 1239   0.099   0.258   2.969 -0.6808  0.8651  1.5442
  414SOL     OW 1240   1.780   1.490   1.337  0.1873  0.1624 -0.6671
  414SOL    HW1 1241   1.709   1.498   1.414 -0.4262 -1.0635 -0.6707
  414SOL    HW2 1242   1.750   1.420   1.265 -3.1052 -2.0890 -0.0705
  415SOL     OW 1243   0.293   2.208   0.706  0.4699 -0.5831  0.1265
  415SOL    HW1 1244   0.237   2.291   0.690  3.1356 -1.5479  2.3049
  415SOL    HW2 1245   0.239   2.116   0.699 -2.9918  0.3409  2.2335
  416SOL     OW 1246   0.357   1.060   1.062  0.3299 -0.3348 -0.2233
  416SOL    HW1 1247   0.307   1.031   0.974 -3.8654  2.3898  2.9500
  416SOL    HW2 1248   0.447   1.113   1.051  1.1925  1.0650  0.5036
  417SOL     OW 1249   2.117   2.314   1.893  0.0851 -0.3602  0.6161
  417SOL    HW1 1250   2.143   2.216   1.907  1.1539  0.1666 -0.6088
  417SOL    HW2 1251   2.013   2.320   1.889  1.5109 -1.6574 -3.1925
  418SOL     OW 1252   1.137   0.499   1.281  0.3952 -0.1999  1.0164
  418SOL    HW1 1253   1.049   0.445   1.271 -2.2239 -1.3651 -0.3009
  418SOL    HW2 1254   1.140   0.575   1.206 -1.5189 -1.1738 -0.6163
  419SOL     OW 1255   1.000   0.365   3.036 -0.3094  0.2013 -0.0336
  419SOL    HW1 1256   1.025   0.371   2.932 -0.7080 -1.1121 -1.5767
  419SOL    HW2 1257   0.922   0.298   3.066 -0.0733 -2.0777  0.2309
  420SOL     OW 1258   0.153   2.257   0.363  0.0239  0.3281  0.1382
  420SOL    HW1 1259   0.140   2.197   0.283 -2.6226  0.9658  1.4044
  420SOL    HW2 1260   0.065   2.261   0.418  1.2568  2.9202  1.6695
  421SOL     OW 1261   0.326   3.034   0.686  0.5041 -0.3819 -0.0088
  421SOL    HW1 1262   0.323   2.940   0.733  1.2555 -1.5594  0.4580
  421SOL    HW2 1263   0.426   3.062   0.688 -1.6148  1.4690  1.7123
  422SOL     OW 1264   0.985   2.596   1.033  0.1578  0.4372 -0.0840
  422SOL    HW1 1265   1.067   2.620   0.980  0.6370  0.8363  0.6426
  422SOL    HW2 1266   0.999   2.596   1.135 -0.1406 -1.9835  1.2752
  423SOL     OW 1267   0.102   0.705   1.274 -0.0306  0.4329 -0.0578
  423SOL    HW1 1268   0.040   0.674   1.356 -4.0230 -1.4446  1.5802
  423SOL    HW2 1269   0.070   0.798   1.232  0.9594  0.6538  2.9389
  424SOL     OW 1270   1.018   2.232   2.051 -0.0410  0.4828  0.2247
  424SOL    HW1 1271   1.015   2.323   1.998  2.1175  0.6267  1.0419
  424SOL    HW2 1272   1.053   2.242   2.147 -1.6021  0.9645  0.2659
  425SOL     OW 1273   1.986   1.444   0.945  0.1173 -0.9368  0.5425
  425SOL    HW1 1274   2.030   1.349   0.963 -1.0902 -1.9176  0.6506
  425SOL    HW2 1275   2.043   1.506   0.876 -1.1772  1.1170 -2.9062
  426SOL     OW 1276   1.500   1.525   1.401  0.4780 -0.0847 -0.3176
  426SOL    HW1 1277   1.475   1.618   1.357  1.3803 -1.2998  0.0161
  426SOL    HW2 1278   1.474   1.512   1.504 -0.2268 -1.1193  0.9230
  427SOL     OW 1279   1.866   2.350   2.029  0.2500 -0.3173  0.4057
  427SOL    HW1 1280   1.915   2.288   2.101  1.8234 -1.3585  0.5445
  427SOL    HW2 1281   1.872   2.453   2.051 -2.6898  1.8221  0.4961
  428SOL     OW 1282   0.882   2.960   0.200  0.2857  0.2219  0.1520
  428SOL    HW1 1283   0.932   3.047   0.237 -2.0530  1.9805 -1.3160
  428SOL    HW2 1284   0.943   2.900   0.143 -3.0118  0.5341 -0.5490
  429SOL     OW 1285   1.319   0.088   0.247  0.2061 -0.2128 -0.6445
  429SOL    HW1 1286   1.405   0.129   0.288  0.7005 -3.3922  0.1819
  429SOL    HW2 1287   1.335   0.066   0.146  1.7427  1.9469  0.2946
  430SOL     OW 1288   2.711   1.455   0.391  0.3113 -0.1772 -0.1568
  430SOL    HW1 1289   2.770   1.482   0.312  0.8412 -1.2467  0.3920
  430SOL    HW2 1290   2.735   1.517   0.473  0.3665  1.1319 -0.6403
  431SOL     OW 1291   2.144   1.621   0.817  0.5500 -0.4460 -0.1281
  431SOL    HW1 1292   2.215   1.689   0.851  1.1146 -0.9142 -0.2297
  431SOL    HW2 1293   2.063   1.670   0.770 -1.3079 -0.1680  0.6592
  432SOL     OW 1294   2.859   2.220   1.273 -0.0456 -0.6543  0.6271
  432SOL    HW1 1295   2.826   2.128   1.289  1.5175  2.3376 -0.6494
  432SOL    HW2 1296   2.912   2.263   1.349 -1.6002 -3.3112  0.6772
  433SOL     OW 1297   1.925   0.364   0.847 -0.0695  0.1357  0.3297
  433SOL    HW1 1298   1.855   0.317   0.909 -0.2824 -0.1413 -0.9141
  433SOL    HW2 1299   2.016   0.317   0.858  0.6981  0.7596  1.1936
  434SOL     OW 1300   1.559   0.269   0.798 -0.5906  0.5668  0.0750
  434SOL    HW1 1301   1.523   0.359   0.783 -1.6142 -1.0161  0.0573
  434SOL    HW2 1302   1.629   0.269   0.877  4.3735  2.1879  1.0325
  435SOL     OW 1303   1.416   1.419   2.129 -0.1934  0.3329 -0.2818
  435SOL    HW1 1304   1.360   1.471   2.205 -2.7056 -0.4669 -1.1121
  435SOL    HW2 1305   1.434   1.469   2.043 -2.1126 -2.9442  2.1390
  436SOL     OW 1306   1.677   2.725   2.303 -0.0669  0.0975 -1.1427
  436SOL    HW1 1307   1.644   2.810   2.355 -1.1061 -1.4426  0.6496
  436SOL    HW2 1308   1.709   2.646   2.371  0.8759 -4.3526 -1.7681
  437SOL     OW 1309   1.108   2.891   0.917 -0.6237  0.1713  0.0983
  437SOL    HW1 1310   1.051   2.971   0.876 -0.3196  0.5022  0.0419
  437SOL    HW2 1311   1.085   2.860   1.016  0.3077 -1.0133  1.4478
  438SOL     OW 1312   1.066   2.576   1.317  0.2799 -0.0643  0.2685
  438SOL    HW1 1313   1.148   2.567   1.384  1.0214 -0.3898 -0.6793
  438SOL    HW2 1314   1.014   2.487   1.311 -2.8087  1.3815 -2.8595
  439SOL     OW 1315   0.724   1.764   1.085 -0.1542 -0.2316 -0.3885
  439SOL    HW1 1316   0.718   1.827   1.003 -1.1611 -0.3228 -0.2975
  439SOL    HW2 1317   0.629   1.742   1.118 -0.1929  0.0249  1.9214
  440SOL     OW 1318   0.967   2.485   1.918 -0.1147 -0.2459 -0.3396
  440SOL    HW1 1319   0.953   2.545   1.835  0.1047 -0.9341  1.2810
  440SOL    HW2 1320   1.052   2.509   1.965 -0.1286  1.9454 -0.6843
  441SOL     OW 1321   0.408   2.782   1.375 -0.2113 -0.1489  0.0101
  441SOL    HW1 1322   0.466   2.701   1.409 -0.8477 -0.8985  0.8663
  441SOL    HW2 1323   0.312   2.759   1.370 -0.3001  0.2671  3.1626
  442SOL     OW 1324   2.275   0.638   2.572  0.1385 -0.2527 -1.0424
  442SOL    HW1 1325   2.268   0.543   2.532  2.3041  0.5326 -1.1658
  442SOL    HW2 1326   2.187   0.695   2.555 -2.1229 -0.9067 -3.5571
  443SOL     OW 1327   1.217   2.729   2.195  0.1825  0.1931 -0.3898
  443SOL    HW1 1328   1.211   2.642   2.243 -0.6058  2.4868  1.6052
  443SOL    HW2 1329   1.188   2.808   2.258 -1.9277 -3.0754 -0.7197
  444SOL     OW 1330   1.148   1.299   1.602  0.0158 -0.2394  0.2745
  444SOL    HW1 1331   1.226   1.276   1.542 -0.4538  2.9254  0.9764
  444SOL    HW2 1332   1.166   1.376   1.671  0.5141  2.4522 -1.2338
  445SOL     OW 1333   0.015   2.374   1.862  0.1048 -0.1551 -0.1058
  445SOL    HW1 1334  -0.007   2.465   1.823 -0.1623  1.1560 -0.7026
  445SOL    HW2 1335  -0.062   2.346   1.929  0.4593 -1.1526 -0.8490
  446SOL     OW 1336   0.246   1.901   2.374  0.1221  0.5793 -0.2597
  446SOL    HW1 1337   0.191   1.978   2.410  1.9242 -2.1746 -0.5951
  446SOL    HW2 1338   0.178   1.840   2.325 -3.7838 -2.1406  2.2441
  447SOL     OW 1339   1.231   1.710   1.942 -0.4520  0.5977 -0.5826
  447SOL    HW1 1340   1.142   1.761   1.952  0.1856 -1.4528 -0.9153
  447SOL    HW2 1341   1.303   1.754   2.001 -0.4842 -0.2285 -2.0777
  448SOL     OW 1342   0.115   1.449   1.973  0.2397 -0.0065  0.4684
  448SOL    HW1 1343   0.133   1.545   1.947  1.0489 -1.5932  1.0154
  448SOL    HW2 1344   0.097   1.436   2.075  0.4340  1.1152  0.4246
  449SOL     OW 1345   1.761   2.983   0.915  0.4798  0.3520 -0.2652
  449SOL    HW1 1346   1.785   2.987   1.018 -1.2596 -2.0534 -0.8958
  449SOL    HW2 1347   1.842   2.944   0.859  2.0320 -0.0526 -0.6653
  450SOL     OW 1348   2.346   1.427   0.728  0.8078 -0.3163 -0.7225
  450SOL    HW1 1349   2.261   1.456   0.774 -0.2172  0.7371 -1.4274
  450SOL    HW2 1350   2.351   1.474   0.636  0.4548 -0.3984  1.6097
  451SOL     OW 1351   1.326   3.022   1.429  0.6282  0.0940  0.1586
  451SOL    HW1 1352   1.285   3.115   1.457  0.1695  0.8247 -0.7705
  451SOL    HW2 1353   1.347   2.962   1.509 -3.7334  0.3735  0.8737
  452SOL     OW 1354   2.681   2.295   2.187  0.5313  0.0175 -0.2632
  452SOL    HW1 1355   2.655   2.395   2.205 -0.2248  1.0942 -1.6726
  452SOL    HW2 1356   2.730   2.252   2.264 -0.0393  0.7903 -2.5565
  453SOL     OW 1357   2.469   2.643   0.010  0.2392 -0.3526 -0.1191
  453SOL    HW1 1358   2.399   2.707   0.053  1.0900 -3.3303 -1.9016
  453SOL    HW2 1359   2.434   2.599  -0.072  1.2144  0.3370  0.9836
  454SOL     OW 1360   0.982   1.110   2.066  0.3390  0.2575  0.6480
  454SOL    HW1 1361   0.950   1.127   1.967 -2.9126  0.8802  1.8980
  454SOL    HW2 1362   1.069   1.165   2.082 -0.5583 -0.9690 -0.2663
  455SOL     OW 1363   0.677   2.680   2.815 -0.2096  0.2449  0.7432
  455SOL    HW1 1364   0.747   2.749   2.832  1.7083  0.0874 -0.5928
  455SOL    HW2 1365   0.717   2.583   2.833  1.8904 -3.2361  1.7321
  456SOL     OW 1366   0.459   1.901   0.244 -0.1820 -0.0045  0.6303
  456SOL    HW1 1367   0.520   1.833   0.297 -1.6380 -1.3188 -0.6976
  456SOL    HW2 1368   0.499   1.994   0.227  1.2723 -2.1574  0.5756
  457SOL     OW 1369   0.330   2.629   0.603 -0.1244  0.0174 -0.0077
  457SOL    HW1 1370   0.362   2.716   0.554 -1.0640 -0.4119 -0.3549
  457SOL    HW2 1371   0.402   2.572   0.651  3.0881 -0.1335 -1.0014
  458SOL     OW 1372   2.912   3.086   1.246 -0.4162  0.2135  0.5450
  458SOL    HW1 1373   2.957   3.177   1.223  2.8801 -1.4252  2.4276
  458SOL    HW2 1374   2.920   3.016   1.175  1.8046  1.2833  2.0480
  459SOL     OW 1375   2.087   2.623   0.735  0.6104 -0.1744 -0.0014
  459SOL    HW1 1376   2.189   2.623   0.753 -0.2953 -0.3088 -2.0134
  459SOL    HW2 1377   2.064   2.571   0.653  0.7246  0.4758  1.2201
  460SOL     OW 1378   1.220   2.088   2.824 -0.0576 -0.3196 -0.0702
  460SOL    HW1 1379   1.167   2.123   2.739 -1.7792 -1.4620  1.1059
  460SOL    HW2 1380   1.200   1.985   2.837  0.3289 -0.6523  0.7964
  461SOL     OW 1381   0.539   2.187   2.658  0.0898 -0.2474  0.1773
  461SOL    HW1 1382   0.492   2.118   2.594  0.1960 -1.6991 -1.1772
  461SOL    HW2 1383   0.567   2.144   2.752  0.7169 -2.7414 -0.5563
  462SOL     OW 1384   0.961   1.150   1.788  0.2382  0.2987 -0.0345
  462SOL    HW1 1385   1.042   1.155   1.724  1.5738 -3.0427  2.5003
  462SOL    HW2 1386   0.878   1.206   1.757  0.1637 -0.3710  2.6255
  463SOL     OW 1387   0.453   0.815   0.515 -0.1405  0.3045  0.0895
  463SOL    HW1 1388   0.491   0.725   0.486  0.4322  0.0289 -1.1046
  463SOL    HW2 1389   0.349   0.823   0.512  2.0073 -3.3043  0.3342
  464SOL     OW 1390   0.598   2.289   2.239 -0.1239 -0.4068  0.1833
  464SOL    HW1 1391   0.570   2.363   2.308  0.5093 -1.2964 -0.3693
  464SOL    HW2 1392   0.553   2.289   2.148  1.0720  1.0837  2.8201
  465SOL     OW 1393   0.230   0.961   0.835 -0.0171 -0.0785  0.2793
  465SOL    HW1 1394   0.167   1.000   0.762  1.2980 -0.2157  0.2881
  465SOL    HW2 1395   0.254   0.868   0.812  0.6180 -0.6134  1.5359
  466SOL     OW 1396   1.405   1.125   0.972  0.1949  0.2761 -0.3106
  466SOL    HW1 1397   1.413   1.225   0.979 -0.5875 -1.1773  1.7288
  466SOL    HW2 1398   1.306   1.100   0.986  2.1395 -0.3274  1.3379
  467SOL     OW 1399   0.533   0.393   2.419 -0.6108 -0.3978 -0.4624
  467SOL    HW1 1400   0.482   0.482   2.412  1.1917  0.9036  2.7914
  467SOL    HW2 1401   0.511   0.357   2.509  1.2736 -0.8936 -2.0857
  468SOL     OW 1402   0.465   2.269   1.633  0.1051  0.0232  0.6421
  468SOL    HW1 1403   0.511   2.351   1.667  0.8017 -1.8121 -0.8129
  468SOL    HW2 1404   0.419   2.285   1.540  1.2929  2.2695  0.2312
  469SOL     OW 1405   1.439   1.362   1.189  0.1723  0.1607 -0.6230
  469SOL    HW1 1406   1.517   1.313   1.143 -2.4400 -0.8595  2.7325
  469SOL    HW2 1407   1.475   1.416   1.272  0.6626  4.6600 -0.2990
  470SOL     OW 1408   3.001   1.805   0.747  0.1260 -0.9363 -0.0403
  470SOL    HW1 1409   3.055   1.863   0.680 -0.3987 -0.1624  0.4070
  470SOL    HW2 1410   3.043   1.707   0.765 -0.8571 -2.6087 -3.2154
  471SOL     OW 1411   2.672   1.256   2.128  0.7257  0.0330 -0.3354
  471SOL    HW1 1412   2.646   1.199   2.214 -2.2871 -0.2679  0.8066
  471SOL    HW2 1413   2.699   1.354   2.151 -0.3107 -1.9934 -1.1149
  472SOL     OW 1414   1.119   2.459   0.057 -0.2253 -0.1098 -0.0490
  472SOL    HW1 1415   1.186   2.447   0.136  0.3402 -2.4142 -2.6972
  472SOL    HW2 1416   1.028   2.412   0.071  0.4999 -0.2293  1.2603
  473SOL     OW 1417   1.102   1.546   0.995  0.2112  0.0737  0.0165
  473SOL    HW1 1418   1.003   1.549   0.961  2.0263  1.8012  0.8983
  473SOL    HW2 1419   1.109   1.471   1.067  0.7699 -0.8124  1.5007
  474SOL     OW 1420   0.659   1.265   0.528 -0.6213 -0.0908 -0.3454
  474SOL    HW1 1421   0.599   1.198   0.476 -1.4921  1.9764 -0.9172
  474SOL    HW2 1422   0.719   1.215   0.598 -2.3342 -1.6260 -1.4787
  475SOL     OW 1423   2.871   0.025   0.822 -0.3453  0.7216 -0.7030
  475SOL    HW1 1424   2.937   0.100   0.849 -1.3159 -3.2908  1.4562
  475SOL    HW2 1425   2.771   0.052   0.830  1.5739 -2.2928 -0.2648
  476SOL     OW 1426   0.980   3.080   1.760  0.3956 -0.1782  0.3846
  476SOL    HW1 1427   1.067   3.049   1.811 -0.1539 -1.8325  1.8196
  476SOL    HW2 1428   0.987   3.058   1.658  1.4639 -0.2482  0.0680
  477SOL     OW 1429   1.409   0.316   2.426  0.4193 -0.2125  0.6733
  477SOL    HW1 1430   1.416   0.337   2.528 -0.1945 -1.7126 -1.8962
  477SOL    HW2 1431   1.490   0.252   2.408  0.2457 -1.0480  2.3287
  478SOL     OW 1432   2.231   1.829   0.158  0.1886  0.1283  0.1477
  478SOL    HW1 1433   2.191   1.750   0.217 -0.1085  1.4743  1.4716
  478SOL    HW2 1434   2.316   1.807   0.103  1.5481  0.4923 -1.7835
  479SOL     OW 1435   1.237   0.985   2.885  0.8023  0.2341  0.6303
  479SOL    HW1 1436   1.313   0.935   2.829  1.7844 -1.2219 -0.6003
  479SOL    HW2 1437   1.139   0.967   2.851  1.4584 -0.0993  2.4836
  480SOL     OW 1438   2.672   2.333   0.355  0.1122  0.1398  0.2576
  480SOL    HW1 1439   2.672   2.256   0.426 -0.7933  0.8898  0.9513
  480SOL    HW2 1440   2.608   2.309   0.277  1.4209 -0.6328 -0.4902
  481SOL     OW 1441   0.969   1.144   0.908  0.0300  0.1878  0.2605
  481SOL    HW1 1442   0.972   1.240   0.866 -2.4050  0.2002  0.0267
  481SOL    HW2 1443   1.018   1.137   1.002  0.7367  0.9049 -0.5736
  482SOL     OW 1444   1.582   0.288   2.052 -0.0374  0.3434 -0.0114
  482SOL    HW1 1445   1.576   0.379   2.000  0.4609  1.4703 -0.4504
  482SOL    HW2 1446   1.673   0.274   2.094 -5.0065  1.6436 -1.1825
  483SOL     OW 1447   0.102   2.313   1.251 -0.0576  0.0816  0.8443
  483SOL    HW1 1448   0.025   2.343   1.315  0.5188  0.5598  2.6611
  483SOL    HW2 1449   0.147   2.401   1.222  1.2835 -0.4877  0.2423
  484SOL     OW 1450   1.764   1.105   1.347  0.0744 -0.0571 -0.3620
  484SOL    HW1 1451   1.826   1.022   1.364 -1.0062 -1.3798 -0.2649
  484SOL    HW2 1452   1.794   1.188   1.408 -0.7736  0.6029  1.0144
  485SOL     OW 1453   0.726   0.970   1.779  0.3036  1.0668  0.3528
  485SOL    HW1 1454   0.709   0.957   1.676 -3.0162  0.9637  2.5899
  485SOL    HW2 1455   0.798   1.040   1.800 -1.2980  3.9262  0.8740
  486SOL     OW 1456   0.811   1.887   2.430  0.0939  0.1213 -0.2526
  486SOL    HW1 1457   0.875   1.855   2.501 -3.2263  3.0704  0.5028
  486SOL    HW2 1458   0.778   1.985   2.455  1.8448  1.4704  0.4760
  487SOL     OW 1459   1.798   1.649   0.973  0.0300 -0.1876  0.0084
  487SOL    HW1 1460   1.866   1.569   0.990 -0.2021  0.4869 -1.0887
  487SOL    HW2 1461   1.814   1.677   0.874  1.6341  1.9620 -1.8682
  488SOL     OW 1462   3.007   0.871   2.209  0.0862 -0.1549  0.0915
  488SOL    HW1 1463   3.012   0.767   2.207  2.9110  0.1742 -2.2820
  488SOL    HW2 1464   3.028   0.906   2.304 -3.1387  0.7165  0.0007
  489SOL     OW 1465   2.771   0.293   1.269  0.0019  0.1338  0.0541
  489SOL    HW1 1466   2.782   0.314   1.374 -0.6708 -0.8806  0.4229
  489SOL    HW2 1467   2.868   0.273   1.231  0.0452 -0.0754  4.0469
  490SOL     OW 1468   1.502   2.946   2.761  0.4499 -0.1053 -0.1580
  490SOL    HW1 1469   1.532   2.845   2.766 -0.9708 -0.0769 -0.3630
  490SOL    HW2 1470   1.430   2.959   2.684 -0.0660  0.4307 -3.2119
  491SOL     OW 1471   1.738   1.441   2.607  0.3118 -0.4175  0.2771
  491SOL    HW1 1472   1.663   1.413   2.673  1.5749  1.1064 -1.6228
  491SOL    HW2 1473   1.821   1.482   2.656  0.2259 -1.6011  0.0961
  492SOL     OW 1474   0.558   2.138   0.658 -0.5211 -0.1617  0.3633
  492SOL    HW1 1475   0.620   2.111   0.739 -1.1592  0.0193 -0.9118
  492SOL    HW2 1476   0.465   2.166   0.687 -1.4477  0.2607 -0.1496
  493SOL     OW 1477   0.422   1.432   2.023 -0.6139  0.2415  0.1274
  493SOL    HW1 1478   0.341   1.454   1.960  1.0976 -1.0143 -2.0207
  493SOL    HW2 1479   0.411   1.349   2.080 -0.0010  0.8203 -0.1422
  494SOL     OW 1480   2.713   2.725   0.138 -0.0045 -0.5609  0.6081
  494SOL    HW1 1481   2.709   2.695   0.236 -0.3799  2.5905  1.2526
  494SOL    HW2 1482   2.636   2.700   0.074 -0.2370  0.4307 -1.6512
  495SOL     OW 1483   2.631   2.722   2.698  0.7945  0.5137  1.2106
  495SOL    HW1 1484   2.614   2.621   2.687  0.7889 -0.8640 -0.3730
  495SOL    HW2 1485   2.707   2.764   2.630  3.6150  0.0758 -0.8133
  496SOL     OW 1486   2.071   2.235   0.729  0.1804 -0.5855  0.2407
  496SOL    HW1 1487   2.078   2.280   0.823  0.0982 -1.1151 -0.6940
  496SOL    HW2 1488   2.085   2.136   0.734  0.4649  1.7979 -1.5057
  497SOL     OW 1489   0.199   2.993   2.374 -0.0168 -0.0397  0.6231
  497SOL    HW1 1490   0.174   3.064   2.443 -1.5186 -0.7779 -0.5444
  497SOL    HW2 1491   0.242   3.040   2.289  0.6878 -1.5842  2.5628
  498SOL     OW 1492   1.161   1.374   1.183 -0.1583 -0.3797 -0.8149
  498SOL    HW1 1493   1.268   1.364   1.173  0.8091 -3.6313  0.8939
  498SOL    HW2 1494   1.134   1.436   1.265  2.3311  0.6424  0.0178
  499SOL     OW 1495   0.647   1.754   0.366  0.3838 -0.1189  0.2152
  499SOL    HW1 1496   0.668   1.654   0.339  2.3171 -2.2307 -0.5726
  499SOL    HW2 1497   0.724   1.805   0.411 -1.6857 -0.3466 -1.1735
  500SOL     OW 1498   1.412   2.861   1.634  0.0141 -0.1813  0.0081
  500SOL    HW1 1499   1.411   2.909   1.723  3.4736 -5.2667 -2.1604
  500SOL    HW2 1500   1.468   2.770   1.626 -0.1114  0.6637  0.5981
  501SOL     OW 1501   0.808   1.104   2.272 -0.2760 -0.0391  0.1108
  501SOL    HW1 1502   0.720   1.045   2.260  1.4254 -0.3272  0.0819
  501SOL    HW2 1503   0.866   1.104   2.191 -1.4815 -1.3721  2.0102
  502SOL     OW 1504   2.558   0.938   1.715  0.6076  0.8356  0.0696
  502SOL    HW1 1505   2.600   0.947   1.621  1.1693 -0.2027  0.8055
  502SOL    HW2 1506   2.538   0.835   1.738 -3.0465 -2.2296 -2.1632
  503SOL     OW 1507   1.332   0.147   0.699  0.2783 -0.7706  0.1035
  503SOL    HW1 1508   1.270   0.227   0.667 -0.2477  0.9160  0.2995
  503SOL    HW2 1509   1.416   0.180   0.750 -0.3727  0.6415  0.1253
  504SOL     OW 1510   3.029   2.345   1.459 -0.1231 -0.0427 -0.3948
  504SOL    HW1 1511   2.957   2.405   1.499  2.0217 -0.1364 -4.5750
  504SOL    HW2 1512   3.090   2.305   1.531 -1.7214  2.3351 -1.7405
  505SOL     OW 1513   2.333   1.184   1.412 -0.6057  0.1879 -0.0600
  505SOL    HW1 1514   2.310   1.246   1.329  0.8368  0.9745  1.4205
  505SOL    HW2 1515   2.420   1.222   1.468  2.2362  1.2088  1.3536
  506SOL     OW 1516   1.964   0.221   1.826 -0.1194 -0.3279  0.0565
  506SOL    HW1 1517   2.003   0.134   1.869 -0.3446 -1.8787  1.3892
  506SOL    HW2 1518   1.995   0.311   1.871 -0.6376  3.7852 -0.5820
  507SOL     OW 1519   0.546   0.650   2.140 -0.3653 -0.1137  0.1766
  507SOL    HW1 1520   0.488   0.585   2.083  0.0608  4.2031  3.0253
  507SOL    HW2 1521   0.631   0.599   2.186 -0.3667 -0.3961  0.8245
  508SOL     OW 1522   0.286   1.615   0.753  0.2482 -0.4240 -0.1342
  508SOL    HW1 1523   0.339   1.681   0.696 -0.1201 -2.3574 -3.7493
  508SOL    HW2 1524   0.255   1.655   0.841  0.4220 -0.6408 -2.2198
  509SOL     OW 1525   1.220   1.233   2.370 -0.6382  0.3705 -0.6417
  509SOL    HW1 1526   1.247   1.177   2.296 -2.9785 -1.3555 -3.2162
  509SOL    HW2 1527   1.133   1.194   2.418  0.4191 -1.8001  0.7755
  510SOL     OW 1528   1.255   2.110   2.207 -0.1962 -0.3226 -0.0849
  510SOL    HW1 1529   1.290   2.144   2.115 -3.1934  1.0204 -0.1972
  510SOL    HW2 1530   1.155   2.074   2.195  0.3089  1.9403  0.2283
  511SOL     OW 1531   3.017   2.701   1.337  0.7685  0.2894  0.0000
  511SOL    HW1 1532   3.038   2.682   1.239 -0.4843  0.4367 -0.9231
  511SOL    HW2 1533   2.915   2.730   1.354 -4.7212 -1.7355  3.1891
  512SOL     OW 1534   2.365   0.434   1.369  0.0578  0.0983 -0.0205
  512SOL    HW1 1535   2.263   0.446   1.366 -2.2566  0.4705  1.9593
  512SOL    HW2 1536   2.398   0.408   1.272  1.1829 -3.2374 -0.6174
  513SOL     OW 1537   2.627   2.094   0.890 -0.2956 -0.0433  0.0811
  513SOL    HW1 1538   2.576   2.168   0.845  0.5734 -0.2760  2.9971
  513SOL    HW2 1539   2.682   2.029   0.826  0.1484  0.2284  1.1720
  514SOL     OW 1540   0.614   2.738   0.471 -0.2937  0.0361  0.0484
  514SOL    HW1 1541   0.657   2.759   0.380  0.2262 -1.2935  2.6690
  514SOL    HW2 1542   0.661   2.788   0.549 -0.0908 -3.6423  2.6182
  515SOL     OW 1543   1.951   1.271   2.367 -0.0716 -0.2329  0.3097
  515SOL    HW1 1544   2.019   1.236   2.299  1.2013 -2.4265 -1.3846
  515SOL    HW2 1545   1.868   1.213   2.384 -0.7369 -2.4592 -1.3787
  516SOL     OW 1546   0.268   0.227   1.922  0.3018 -0.1443 -0.0443
  516SOL    HW1 1547   0.338   0.195   1.856 -0.4953  0.2746  3.1311
  516SOL    HW2 1548   0.174   0.187   1.900 -1.7077 -1.1597  1.3901
  517SOL     OW 1549   0.462   0.026   1.163 -0.8390  0.0515 -0.6036
  517SOL    HW1 1550   0.474   0.120   1.212  0.9422  3.0944  0.8673
  517SOL    HW2 1551   0.375   0.014   1.108 -1.6806 -3.2079 -1.2996
  518SOL     OW 1552   2.166   3.032   1.809  0.1338 -0.1819 -0.4051
  518SOL    HW1 1553   2.207   3.122   1.837  1.0374  2.9875 -1.4047
  518SOL    HW2 1554   2.188   3.008   1.708  0.6369  1.8921 -1.6123
  519SOL     OW 1555   2.380   2.160   2.461  0.3325 -0.2320  0.1854
  519SOL    HW1 1556   2.346   2.145   2.559 -1.5513 -0.8932 -0.1282
  519SOL    HW2 1557   2.393   2.259   2.438  2.1767  0.1859  1.3890
  520SOL     OW 1558   1.861   2.730   1.751  0.0351  0.0976  0.3172
  520SOL    HW1 1559   1.779   2.683   1.797  1.3326 -1.1379 -0.4473
  520SOL    HW2 1560   1.916   2.669   1.686  2.8198  2.0583  2.6357
  521SOL     OW 1561   0.568   3.055   2.092 -0.3998 -0.1640 -0.5617
  521SOL    HW1 1562   0.471   3.071   2.128 -0.3401  0.2430 -0.8812
  521SOL    HW2 1563   0.623   3.020   2.171 -1.4795 -2.5177  0.7233
  522SOL     OW 1564   0.242   1.854   1.507  0.0960  0.4994 -0.6219
  522SOL    HW1 1565   0.293   1.897   1.587  0.4683 -0.7686 -0.3025
  522SOL    HW2 1566   0.189   1.925   1.453  2.8317 -0.6537 -0.1487
  523SOL     OW 1567   2.226   2.950   1.548  0.6289 -0.8669 -0.2250
  523SOL    HW1 1568   2.307   2.885   1.546 -1.5405  2.0601  1.7384
  523SOL    HW2 1569   2.139   2.911   1.505  2.2309  1.9007 -0.1792
  524SOL     OW 1570   0.188   2.784   2.774  0.1006  0.0772  0.1919
  524SOL    HW1 1571   0.107   2.829   2.830 -0.3682  0.5651 -0.0889
  524SOL    HW2 1572   0.279   2.793   2.824 -1.6651 -2.0146  0.4215
  525SOL     OW 1573   2.167   1.981   0.387 -0.9210  0.6781  0.0118
  525SOL    HW1 1574   2.193   1.913   0.458  0.9375  3.3681 -1.9297
  525SOL    HW2 1575   2.211   1.951   0.294  0.0435  3.0228 -1.0959
  526SOL     OW 1576   0.473   1.504   1.643 -0.2430 -0.4064  0.0502
  526SOL    HW1 1577   0.512   1.549   1.725  0.2525  1.0912  1.3044
  526SOL    HW2 1578   0.474   1.400   1.640 -0.8724 -0.0197 -1.2674
  527SOL     OW 1579   1.019   2.849   1.173  0.0077  0.0864  0.8227
  527SOL    HW1 1580   1.086   2.785   1.215  1.0437  2.6296  0.3156
  527SOL    HW2 1581   1.043   2.950   1.178  0.2628 -1.4860 -0.6849
  528SOL     OW 1582   1.358   2.370   0.552  0.3371 -0.5145 -0.4302
  528SOL    HW1 1583   1.392   2.274   0.535 -2.2094  0.7931  2.2552
  528SOL    HW2 1584   1.415   2.422   0.621 -2.1286  0.1260  1.8719
  529SOL     OW 1585   1.961   1.755   0.690 -0.1408  0.1725  0.2323
  529SOL    HW1 1586   1.882   1.760   0.622  0.1360 -1.0827 -0.0908
  529SOL    HW2 1587   1.994   1.842   0.734  2.1431  0.2531  2.8547
  530SOL     OW 1588   0.348   2.604   0.220 -0.2975  0.0787  0.8429
  530SOL    HW1 1589   0.363   2.677   0.295  0.6154  1.5691 -1.3397
  530SOL    HW2 1590   0.362   2.509   0.250 -1.2057  1.4693 -2.7649
  531SOL     OW 1591   1.852   1.017   1.030 -0.5080  0.0601  0.1525
  531SOL    HW1 1592   1.804   1.078   0.964 -0.1480 -2.5155 -0.0954
  531SOL    HW2 1593   1.800   0.930   1.057 -2.6751  2.3127 -1.3362
  532SOL     OW 1594   0.373   1.187   0.700  0.2859  0.7751 -0.0675
  532SOL    HW1 1595   0.384   1.186   0.597 -1.6199  0.0367  2.4880
  532SOL    HW2 1596   0.334   1.099   0.732 -0.1623  2.7674 -3.1162
  533SOL     OW 1597   1.762   0.050   2.564  0.1055  0.1189 -0.4754
  533SOL    HW1 1598   1.843  -0.010   2.561  1.8757 -0.5882 -0.7049
  533SOL    HW2 1599   1.754   0.111   2.646  1.7724  0.8256 -0.7416
  534SOL     OW 1600   0.326   0.197   1.514  0.4123 -0.5425  0.8429
  534SOL    HW1 1601   0.364   0.212   1.415 -2.9364 -2.6254  0.5049
  534SOL    HW2 1602   0.276   0.283   1.553  0.4797 -0.9355  2.0197
  535SOL     OW 1603   1.921   0.430   0.231  0.4275  0.1446  0.6199
  535SOL    HW1 1604   1.939   0.509   0.292 -1.1111 -1.1975 -1.6232
  535SOL    HW2 1605   1.832   0.387   0.265 -0.0190 -0.7391 -1.1144
  536SOL     OW 1606   1.419   2.580   0.948 -0.2188 -0.1880  0.1842
  536SOL    HW1 1607   1.408   2.558   1.047 -2.1323  0.9146 -0.3253
  536SOL    HW2 1608   1.326   2.598   0.909 -1.7508  0.0221 -0.5566
  537SOL     OW 1609   0.813   0.172   2.338  0.1819  0.1770 -0.1173
  537SOL    HW1 1610   0.823   0.221   2.246  1.7387  0.7001 -0.9480
  537SOL    HW2 1611   0.731   0.109   2.334 -1.3517  1.2037 -1.9403
  538SOL     OW 1612   1.694   2.314   1.535  0.4249 -0.0404 -0.2081
  538SOL    HW1 1613   1.637   2.236   1.497  2.3582  0.5165  0.0445
  538SOL    HW2 1614   1.777   2.349   1.481 -2.3942  1.8297 -0.7753
  539SOL     OW 1615   0.185   1.586   2.729  0.3483 -0.6869 -0.0739
  539SOL    HW1 1616   0.125   1.591   2.639  1.3537  0.2700 -1.4295
  539SOL    HW2 1617   0.156   1.660   2.798 -2.4505 -1.2899 -0.8661
  540SOL     OW 1618   2.727   1.714   1.988  0.1428 -0.0619  0.0189
  540SOL    HW1 1619   2.675   1.651   2.049  1.0153  0.6111 -0.8802
  540SOL    HW2 1620   2.680   1.808   1.978 -1.5672 -2.3284 -0.1816
  541SOL     OW 1621   0.482   2.286   3.074 -0.5682  0.0809  0.0921
  541SOL    HW1 1622   0.534   2.223   3.144  0.6323  2.2355  2.4334
  541SOL    HW2 1623   0.374   2.273   3.072 -5.5300 -1.2652  0.0030
  542SOL     OW 1624   2.259   2.578   0.386  0.1302  0.3044 -0.4002
  542SOL    HW1 1625   2.236   2.676   0.358  1.4399  1.6545  2.5456
  542SOL    HW2 1626   2.175   2.530   0.427 -0.5687  1.2137  1.0066
  543SOL     OW 1627   1.077   1.756   1.650  0.1671  0.6028  0.2184
  543SOL    HW1 1628   1.039   1.806   1.730  0.3918  1.3576 -2.2997
  543SOL    HW2 1629   1.060   1.807   1.559  1.6576 -0.1898 -0.9878
  544SOL     OW 1630   1.008   0.408   0.205  0.5510  0.3568  0.4542
  544SOL    HW1 1631   0.980   0.319   0.241 -0.3854 -1.0929  0.0483
  544SOL    HW2 1632   1.019   0.419   0.105 -1.7602  2.0640 -1.3599
  545SOL     OW 1633   1.096   1.770   0.847 -0.0251  0.4118  0.2906
  545SOL    HW1 1634   1.191   1.809   0.860 -0.7394 -0.9036 -0.0722
  545SOL    HW2 1635   1.095   1.670   0.872  2.5556  1.3846  1.6121
  546SOL     OW 1636   2.630   1.575   3.099  0.0676 -0.7224 -0.8883
  546SOL    HW1 1637   2.574   1.636   3.029  0.9806  0.2615  1.3954
  546SOL    HW2 1638   2.578   1.539   3.181 -0.2036  1.0918 -1.3452
  547SOL     OW 1639   0.562   0.023   2.667  0.0377 -0.1394  0.1676
  547SOL    HW1 1640   0.649  -0.035   2.656 -2.0395  1.0058  2.9705
  547SOL    HW2 1641   0.482  -0.034   2.710  1.2639  0.4055  0.6809
  548SOL     OW 1642   2.081   0.850   3.044  0.3605 -0.3432 -0.5828
  548SOL    HW1 1643   1.982   0.825   3.012 -3.4779  1.7026  2.2756
  548SOL    HW2 1644   2.100   0.948   3.056  1.2955 -1.2620 -0.1439
  549SOL     OW 1645   0.684   0.524   0.188 -0.1674  0.1261 -0.0322
  549SOL    HW1 1646   0.626   0.554   0.104 -1.5981 -2.1120 -0.7808
  549SOL    HW2 1647   0.758   0.586   0.215 -1.8349 -2.8396 -0.4519
  550SOL     OW 1648   2.478   2.850   2.866 -0.3934 -0.5788  0.0808
  550SOL    HW1 1649   2.447   2.801   2.948  0.9219  0.4047 -1.9889
  550SOL    HW2 1650   2.547   2.797   2.808  1.8034  0.3810 -0.1768
  551SOL     OW 1651   0.290   0.878   0.233  0.1549  0.5168 -0.3062
  551SOL    HW1 1652   0.391   0.903   0.220  0.5125  3.3051  0.0360
  551SOL    HW2 1653   0.251   0.875   0.334 -2.2685  1.1287  0.3944
  552SOL     OW 1654   0.711   2.988   1.835  0.3797  0.0840  0.1910
  552SOL    HW1 1655   0.661   3.017   1.926 -0.3977  0.0390 -0.3023
  552SOL    HW2 1656   0.815   3.002   1.832  3.4689  0.7992 -2.5790
  553SOL     OW 1657   3.016   2.564   0.344 -0.1919 -0.2687 -0.3020
  553SOL    HW1 1658   2.986   2.461   0.333 -0.5637 -0.9692 -2.5234
  553SOL    HW2 1659   2.970   2.608   0.426 -2.1863  1.2129 -0.3962
  554SOL     OW 1660   2.107   0.370   0.593 -0.0148  0.2408  0.2616
  554SOL    HW1 1661   2.195   0.352   0.545  0.9285 -0.0858  2.2575
  554SOL    HW2 1662   2.078   0.285   0.642 -2.8950  0.1440  0.0525
  555SOL     OW 1663   0.410   2.847   2.505 -0.0546 -1.1720  0.2697
  555SOL    HW1 1664   0.321   2.880   2.473  2.1773 -1.0115  1.4088
  555SOL    HW2 1665   0.470   2.829   2.421  2.3024 -1.2333 -0.7646
  556SOL     OW 1666   0.785   2.398   1.539 -0.1449  0.3600 -0.3236
  556SOL    HW1 1667   0.803   2.484   1.593 -0.4075 -0.3883 -1.3853
  556SOL    HW2 1668   0.860   2.367   1.472  0.2844 -0.4191 -0.7196
  557SOL     OW 1669   0.098   2.043   0.163  0.4948 -0.2992  0.5149
  557SOL    HW1 1670   0.042   1.966   0.114 -0.4863 -1.3591 -0.9206
  557SOL    HW2 1671   0.171   2.091   0.106  1.8786  0.3487  2.1276
  558SOL     OW 1672   2.932   2.309   0.284 -0.4168 -0.2966  0.3754
  558SOL    HW1 1673   2.833   2.344   0.282  0.6175  1.0591 -1.4851
  558SOL    HW2 1674   2.971   2.296   0.187  2.4980  0.4022  0.5125
  559SOL     OW 1675   0.381   2.310   1.355  0.4335  0.2948  0.0218
  559SOL    HW1 1676   0.277   2.299   1.329  2.1732 -1.1267  0.6368
  559SOL    HW2 1677   0.443   2.233   1.323 -0.6090 -0.6201  1.3067
  560SOL     OW 1678   2.102   1.131   3.074 -0.1927  0.5563 -0.0967
  560SOL    HW1 1679   2.027   1.144   3.143  0.0555 -1.3963 -1.3193
  560SOL    HW2 1680   2.194   1.171   3.099 -0.1146 -1.5409  1.0824
  561SOL     OW 1681   3.016   1.875   0.018 -0.2578 -0.1199 -0.1932
  561SOL    HW1 1682   2.982   1.790   0.064 -2.7363 -1.0414  0.6735
  561SOL    HW2 1683   2.942   1.950   0.014 -0.8669  3.4103 -0.2641
  562SOL     OW 1684   1.037   2.279   2.368  0.3861  0.1644 -0.4953
  562SOL    HW1 1685   0.959   2.216   2.393  5.0041  0.6835  1.9219
  562SOL    HW2 1686   1.005   2.371   2.391 -0.0954  0.3232  2.0564
  563SOL     OW 1687   0.725   2.569   2.585 -0.3235  0.1141  0.3139
  563SOL    HW1 1688   0.785   2.498   2.626 -1.9657  1.8696 -2.0523
  563SOL    HW2 1689   0.682   2.633   2.659  1.9278  0.1247  0.4091
  564SOL     OW 1690   2.758   1.318   2.955 -0.1356  0.1401 -0.2045
  564SOL    HW1 1691   2.672   1.349   3.002 -1.7361 -0.3009  0.4661
  564SOL    HW2 1692   2.813   1.396   2.908  0.2981  1.6382  3.7016
  565SOL     OW 1693   2.583   1.944   2.605  0.0225  0.5754  0.0947
  565SOL    HW1 1694   2.533   2.011   2.547 -1.4101 -0.5149  1.2170
  565SOL    HW2 1695   2.621   1.985   2.694 -1.5376  1.0216  0.7509
  566SOL     OW 1696   1.965   2.832   1.383  0.7551 -0.4453  0.6040
  566SOL    HW1 1697   1.927   2.737   1.355  0.3091  1.8107  0.2056
  566SOL    HW2 1698   1.946   2.897   1.309  0.3986  0.0687  1.6886
  567SOL     OW 1699   2.506   0.068   2.268 -0.2794  0.4969 -0.6084
  567SOL    HW1 1700   2.506   0.137   2.193 -0.6975  1.0171  0.7270
  567SOL    HW2 1701   2.411   0.055   2.315  1.2240  0.0234  2.9850
  568SOL     OW 1702   1.554   1.788   0.310 -0.2930  0.0244  0.2262
  568SOL    HW1 1703   1.485   1.846   0.254 -1.2166 -0.5897  0.0461
  568SOL    HW2 1704   1.652   1.817   0.298 -0.0067  1.0062  1.6296
  569SOL     OW 1705   0.274   0.690   0.767  0.3199 -0.2512  0.0106
  569SOL    HW1 1706   0.345   0.612   0.755  0.0699 -1.1068 -0.6792
  569SOL    HW2 1707   0.175   0.664   0.786 -1.4338 -0.3053 -0.2558
  570SOL     OW 1708   0.605   0.831   2.849 -0.0761  0.5280 -0.0745
  570SOL    HW1 1709   0.659   0.810   2.759  2.1120 -1.5328  0.4705
  570SOL    HW2 1710   0.644   0.911   2.902 -2.5489  0.6782  4.0976
  571SOL     OW 1711   0.785   0.014   1.027 -0.3166 -0.1947 -0.4045
  571SOL    HW1 1712   0.866   0.014   0.961 -1.7733 -1.0879  1.4590
  571SOL    HW2 1713   0.740  -0.079   1.025  1.3630 -2.4765  1.5879
  572SOL     OW 1714   1.577   2.611   1.270  0.0843  0.0574  0.1674
  572SOL    HW1 1715   1.501   2.547   1.260  0.2062 -0.5922  1.4623
  572SOL    HW2 1716   1.557   2.695   1.325  1.3399 -1.3601  1.7487
  573SOL     OW 1717   2.876   0.467   2.056  0.2001 -0.1979  0.2075
  573SOL    HW1 1718   2.847   0.371   2.043  0.8842 -0.6025  0.4128
  573SOL    HW2 1719   2.799   0.535   2.042 -0.8389 -2.5406 -0.6077
  574SOL     OW 1720   0.210   1.700   1.005 -0.1187 -0.0954  0.7873
  574SOL    HW1 1721   0.193   1.796   0.970  1.0433 -2.1530  0.2667
  574SOL    HW2 1722   0.133   1.667   1.068  0.0018  1.0403 -0.1751
  575SOL     OW 1723   0.935   2.161   0.983 -0.2010  0.2447 -0.1178
  575SOL    HW1 1724   0.882   2.196   1.064 -0.3052 -0.2672 -0.5970
  575SOL    HW2 1725   0.969   2.236   0.922  0.9617 -0.7688 -0.9143
  576SOL     OW 1726   2.905   3.006   1.681 -0.4623 -0.2169  0.3120
  576SOL    HW1 1727   2.801   3.000   1.702 -1.7942 -1.5265  2.1148
  576SOL    HW2 1728   2.934   3.104   1.656 -1.0766  0.2972 -0.8884
  577SOL     OW 1729   2.508   1.237   0.026 -0.1782  0.2563 -0.1862
  577SOL    HW1 1730   2.535   1.173  -0.051  0.8379  2.2349  0.2966
  577SOL    HW2 1731   2.593   1.256   0.084  3.8227 -1.7190 -0.8255
  578SOL     OW 1732   1.334   2.761   2.480 -0.2373  0.3308 -0.3397
  578SOL    HW1 1733   1.239   2.795   2.470  1.7553  1.5680 -0.8585
  578SOL    HW2 1734   1.408   2.823   2.447 -0.5100  0.4159  0.4779
  579SOL     OW 1735   0.081   2.503   0.129  0.2394  0.1012 -0.1067
  579SOL    HW1 1736   0.033   2.524   0.219 -1.6571 -3.4247 -1.5194
  579SOL    HW2 1737   0.178   2.530   0.126 -2.9848  1.9900  0.9307
  580SOL     OW 1738   1.024   2.630   0.428  0.2574  0.2619  0.1035
  580SOL    HW1 1739   1.102   2.659   0.367 -0.5463 -1.0320  2.8227
  580SOL    HW2 1740   0.945   2.596   0.372 -0.7335 -1.2388 -4.1172
  581SOL     OW 1741   1.265   2.581   1.510 -0.2364  0.5320 -0.2217
  581SOL    HW1 1742   1.307   2.490   1.528 -0.7365  2.0841 -3.6412
  581SOL    HW2 1743   1.340   2.649   1.488 -3.2632  2.5343  2.7008
  582SOL     OW 1744   1.500   0.088   1.863 -0.0123  0.1482 -0.1471
  582SOL    HW1 1745   1.501   0.158   1.941 -1.1636 -1.5287 -0.0704
  582SOL    HW2 1746   1.595   0.078   1.817  2.1177  2.6041  0.4513
  583SOL     OW 1747   2.509   3.069   0.500  0.1656  0.5521  0.0805
  583SOL    HW1 1748   2.591   3.018   0.462 -3.2253 -0.4906  1.3155
  583SOL    HW2 1749   2.448   3.009   0.559 -0.1558 -1.7660 -0.1113
  584SOL     OW 1750   1.591   0.913   2.097 -0.5353 -0.1998 -0.3281
  584SOL    HW1 1751   1.642   0.882   2.016 -0.1766  1.3564  2.1532
  584SOL    HW2 1752   1.645   0.931   2.185 -2.4326 -1.4887  1.0128
  585SOL     OW 1753   2.091   2.664   2.899  0.1766  0.0858 -0.2041
  585SOL    HW1 1754   2.113   2.558   2.880 -0.6446 -2.6114  0.0373
  585SOL    HW2 1755   1.995   2.692   2.882  1.8977  1.0205  0.1196
  586SOL     OW 1756   2.808   0.360   1.536 -0.1051  0.8833  0.2148
  586SOL    HW1 1757   2.822   0.432   1.606  1.1749 -0.3017 -3.9731
  586SOL    HW2 1758   2.720   0.305   1.552  0.9114  1.3296 -1.0794
  587SOL     OW 1759   1.968   1.548   2.710 -0.0013  0.3908 -0.5188
  587SOL    HW1 1760   2.024   1.489   2.639  0.6490  1.1771  1.4951
  587SOL    HW2 1761   2.022   1.570   2.797  1.2734 -0.5584  0.0073
  588SOL     OW 1762   0.462   2.692   2.256  0.1375 -0.0347 -0.0792
  588SOL    HW1 1763   0.366   2.662   2.241  1.8269 -0.6475  2.3914
  588SOL    HW2 1764   0.506   2.630   2.328  3.4737  1.9295  0.2920
  589SOL     OW 1765   2.133   1.426   2.514  0.3590  0.4628 -0.3575
  589SOL    HW1 1766   2.057   1.370   2.465 -0.5490 -0.3806 -0.9567
  589SOL    HW2 1767   2.230   1.387   2.505 -1.8277 -0.0013  0.4497
  590SOL     OW 1768   2.340   1.657   2.051 -0.0332  0.3075  0.2907
  590SOL    HW1 1769   2.394   1.569   2.031 -3.0561 -1.8809 -1.8388
  590SOL    HW2 1770   2.357   1.700   2.144 -0.8151  1.1324  0.6821
  591SOL     OW 1771   1.328   2.378   0.262 -0.1643 -0.3015  0.1673
  591SOL    HW1 1772   1.364   2.292   0.216  0.8878  0.3541  1.0760
  591SOL    HW2 1773   1.346   2.379   0.366 -0.0761 -0.6909  1.0102
  592SOL     OW 1774   1.800   2.299   0.752 -0.3113 -0.6198  0.0126
  592SOL    HW1 1775   1.777   2.384   0.700  0.8764 -0.9381  2.7259
  592SOL    HW2 1776   1.890   2.257   0.719  0.5977 -0.0922 -0.0797
  593SOL     OW 1777   0.706   0.253   0.237  0.2315 -0.5633  0.2485
  593SOL    HW1 1778   0.764   0.222   0.160 -0.6625  1.3353  1.5164
  593SOL    HW2 1779   0.683   0.354   0.230 -0.3447  0.0187  0.0269
  594SOL     OW 1780   0.948   1.877   2.699  0.2127  0.0548  0.0596
  594SOL    HW1 1781   1.050   1.862   2.707 -0.1061  0.0931 -0.3344
  594SOL    HW2 1782   0.918   1.969   2.725 -0.4576 -0.0722 -2.3745
  595SOL     OW 1783   1.592   0.048   1.087 -0.3907  0.0096 -0.1138
  595SOL    HW1 1784   1.661  -0.027   1.073  2.8731  1.0956 -1.4801
  595SOL    HW2 1785   1.513   0.047   1.020  0.2535  0.4069  0.0260
  596SOL     OW 1786   0.004   1.410   2.244 -0.1271 -0.2887  0.5399
  596SOL    HW1 1787   0.009   1.316   2.281 -0.7745  0.2782 -1.4005
  596SOL    HW2 1788   0.038   1.485   2.305  2.3791  1.9769 -0.0647
  597SOL     OW 1789   1.998   2.538   1.615 -0.1561  0.2472  0.3097
  597SOL    HW1 1790   2.023   2.460   1.542 -2.5869 -3.3654 -2.0674
  597SOL    HW2 1791   2.071   2.538   1.693  0.6216  0.5096  2.4603
  598SOL     OW 1792   2.509   2.965   1.273  0.0488 -0.3990 -0.3070
  598SOL    HW1 1793   2.594   2.997   1.324 -0.1378 -1.4385  0.5190
  598SOL    HW2 1794   2.538   2.928   1.177  0.5328  0.1656 -2.4200
  599SOL     OW 1795   2.956   0.340   2.506 -0.1327 -0.4756 -0.3140
  599SOL    HW1 1796   3.052   0.372   2.488 -0.6128  1.8827  1.0070
  599SOL    HW2 1797   2.885   0.391   2.455  0.5181 -0.9705 -3.1282
  600SOL     OW 1798   2.791   1.130   2.754  0.3888  0.5100  0.8248
  600SOL    HW1 1799   2.751   1.037   2.767  2.1553 -2.7048  0.0868
  600SOL    HW2 1800   2.773   1.200   2.828 -0.3285  1.5244  1.6169
  601SOL     OW 1801   2.982   1.271   1.960  0.0345  0.5063  0.3071
  601SOL    HW1 1802   2.893   1.321   1.934 -3.0530  1.1452 -0.9444
  601SOL    HW2 1803   3.062   1.338   1.939  0.3317  0.7675  0.9658
  602SOL     OW 1804   1.428   1.741   2.376 -0.1094  0.4704  0.0254
  602SOL    HW1 1805   1.374   1.654   2.363  2.3078  1.7201  3.0823
  602SOL    HW2 1806   1.532   1.725   2.389  0.3722  0.2629 -0.4733
  603SOL     OW 1807   0.592   1.192   2.738  0.1846  0.2257  0.0630
  603SOL    HW1 1808   0.500   1.190   2.688 -1.3596  0.7655 -0.9960
  603SOL    HW2 1809   0.661   1.121   2.697  2.0293 -1.6680 -0.3065
  604SOL     OW 1810   2.388   1.001   0.149 -0.0165  0.0582  0.5107
  604SOL    HW1 1811   2.396   1.093   0.099 -0.2563  1.0500 -0.4739
  604SOL    HW2 1812   2.406   0.924   0.089 -0.0411  0.5578 -1.6306
  605SOL     OW 1813   2.519   1.152   1.921  0.2174 -0.1202  0.2819
  605SOL    HW1 1814   2.547   1.061   1.875 -5.6221  0.3852  4.2718
  605SOL    HW2 1815   2.582   1.181   1.999  1.8405 -1.2817 -1.5521
  606SOL     OW 1816   1.483   2.517   2.578  0.4657  0.2073  0.0470
  606SOL    HW1 1817   1.398   2.555   2.539  0.4881 -0.0979  2.1418
  606SOL    HW2 1818   1.476   2.414   2.604 -3.6899 -0.0932  1.6284
  607SOL     OW 1819   1.338   1.605   0.360  0.1545 -0.5128 -0.9098
  607SOL    HW1 1820   1.279   1.649   0.435  0.8839  2.0470  1.7683
  607SOL    HW2 1821   1.417   1.667   0.335  0.0858 -0.8408  0.0497
  608SOL     OW 1822   1.435   2.895   0.320 -0.4113  0.2705 -0.0448
  608SOL    HW1 1823   1.535   2.909   0.290  1.3161 -0.0272  0.5438
  608SOL    HW2 1824   1.397   2.970   0.383 -1.1597 -0.2534  0.2479
  609SOL     OW 1825   1.319   1.384   0.184  0.3798 -0.4409 -0.2558
  609SOL    HW1 1826   1.290   1.452   0.258 -3.1234  0.4717 -1.2631
  609SOL    HW2 1827   1.272   1.409   0.089 -0.8901  0.5907  0.0109
  610SOL     OW 1828   3.010   1.143   2.214 -0.0682  0.7077 -0.0253
  610SOL    HW1 1829   3.026   1.041   2.191  1.2468 -0.3635  0.0384
  610SOL    HW2 1830   2.977   1.197   2.128 -1.2863 -0.6722 -1.0558
  611SOL     OW 1831   2.545   0.295   1.112 -0.4498  0.0958  0.0890
  611SOL    HW1 1832   2.459   0.246   1.137 -0.1522 -0.8340 -1.7722
  611SOL    HW2 1833   2.619   0.290   1.187 -1.1237 -0.1533  1.7777
  612SOL     OW 1834   0.755   2.276   1.141 -0.0241  0.2617  0.2112
  612SOL    HW1 1835   0.677   2.219   1.179  0.3031 -0.4832  1.4270
  612SOL    HW2 1836   0.733   2.375   1.131  1.5270 -0.8504  0.6753
  613SOL     OW 1837   0.830   1.366   2.443 -0.0765 -0.0943 -0.6017
  613SOL    HW1 1838   0.843   1.421   2.352 -2.7668  0.9945 -0.9253
  613SOL    HW2 1839   0.791   1.271   2.423 -0.2332  0.7033  0.3739
  614SOL     OW 1840   1.573   1.630   1.965 -0.7487 -0.5408 -0.3582
  614SOL    HW1 1841   1.525   1.717   1.994  1.9365  1.3252  2.4960
  614SOL    HW2 1842   1.666   1.611   2.009 -0.5061 -2.1887 -0.7306
  615SOL     OW 1843   0.761   1.322   1.708 -0.2001  0.5768 -0.0463
  615SOL    HW1 1844   0.700   1.282   1.638  1.0867  2.4282  1.1325
  615SOL    HW2 1845   0.823   1.401   1.674 -1.8740 -1.8295 -0.6275
  616SOL     OW 1846   1.036   1.653   2.205 -0.7299 -0.3365 -0.3535
  616SOL    HW1 1847   0.943   1.615   2.222 -1.8789  0.8184 -0.3705
  616SOL    HW2 1848   1.040   1.754   2.187 -0.2408 -0.1283 -4.1832
  617SOL     OW 1849   2.943   1.571   1.624 -0.3006 -0.2718  0.5246
  617SOL    HW1 1850   2.951   1.500   1.699  0.5854  0.9841 -0.1179
  617SOL    HW2 1851   2.996   1.541   1.541 -0.2170 -1.4668 -1.9130
  618SOL     OW 1852   1.887   1.984   1.425 -0.0014  0.1899  0.7951
  618SOL    HW1 1853   1.951   2.021   1.354  1.2676  2.1970  1.3284
  618SOL    HW2 1854   1.882   1.883   1.425  1.3046  2.3495  2.8109
  619SOL     OW 1855   1.763   0.438   2.383  0.2222  0.1065  0.4524
  619SOL    HW1 1856   1.697   0.506   2.342 -2.5727 -0.4108 -0.2193
  619SOL    HW2 1857   1.711   0.350   2.396 -2.0544  0.3608  2.4905
  620SOL     OW 1858   2.271   2.951   0.627 -0.6647  0.7461 -0.0040
  620SOL    HW1 1859   2.208   3.023   0.657  4.2518 -1.1712 -1.2560
  620SOL    HW2 1860   2.243   2.859   0.661 -2.0862 -0.2979  1.0750
  621SOL     OW 1861   2.156   1.829   1.313  0.3847  0.2592  0.4725
  621SOL    HW1 1862   2.149   1.820   1.416 -0.5018  1.8182 -1.1103
  621SOL    HW2 1863   2.111   1.746   1.256  0.1206 -3.5037  0.6656
  622SOL     OW 1864   2.264   0.937   1.804 -0.5338  0.2857  0.4339
  622SOL    HW1 1865   2.357   0.977   1.771  1.1588  0.5262  2.4935
  622SOL    HW2 1866   2.269   0.837   1.826  1.6675  1.2108  1.9013
  623SOL     OW 1867   1.320   0.829   2.647 -0.0998  0.2829 -0.0883
  623SOL    HW1 1868   1.285   0.754   2.710  0.1377 -0.0059 -0.6518
  623SOL    HW2 1869   1.258   0.849   2.563  1.6543  0.9442 -2.1278
  624SOL     OW 1870   0.576   0.663   3.089  0.3902  0.1439  0.1305
  624SOL    HW1 1871   0.602   0.717   3.006  0.3366 -0.0959 -1.5292
  624SOL    HW2 1872   0.561   0.719   3.174  0.8366  0.0268 -2.1002
  625SOL     OW 1873   2.805   1.697   0.969  0.1103 -0.2201 -0.0344
  625SOL    HW1 1874   2.706   1.727   0.967  0.1267  0.8098 -2.2079
  625SOL    HW2 1875   2.874   1.777   0.958  1.4451 -0.9418 -3.1990
  626SOL     OW 1876   0.598   2.722   1.754  0.1775 -0.2236  0.8988
  626SOL    HW1 1877   0.614   2.818   1.781 -0.5059 -1.6080 -0.2986
  626SOL    HW2 1878   0.498   2.697   1.763  0.5496  0.6980 -0.4534
  627SOL     OW 1879   0.790   0.979   1.496 -0.0985  0.5640  0.2750
  627SOL    HW1 1880   0.710   0.971   1.437 -0.3759  0.9387 -1.2369
  627SOL    HW2 1881   0.850   1.059   1.462  1.3624  1.5068  0.5600
  628SOL     OW 1882   2.399   0.164   0.703 -0.3860  0.4137  0.4688
  628SOL    HW1 1883   2.414   0.094   0.628 -0.6691 -0.4203  0.4913
  628SOL    HW2 1884   2.312   0.157   0.761  1.0562 -1.1868 -3.9079
  629SOL     OW 1885   1.958   0.907   1.978 -0.4968 -0.2506  0.3713
  629SOL    HW1 1886   2.050   0.928   1.940 -0.5493 -0.9970  0.5995
  629SOL    HW2 1887   1.911   0.991   2.016  2.1106 -0.0741 -3.2084
  630SOL     OW 1888   2.900   2.216   0.837  0.0988  0.4683 -0.0104
  630SOL    HW1 1889   2.837   2.297   0.844  2.0044  1.3188  1.0645
  630SOL    HW2 1890   2.850   2.129   0.857  3.7275 -0.1047  0.9740
  631SOL     OW 1891   2.982   0.162   2.122 -0.3435 -0.2574 -0.3442
  631SOL    HW1 1892   3.048   0.188   2.196  0.2259 -2.0755  0.1644
  631SOL    HW2 1893   3.027   0.137   2.029  0.4159 -0.3370  0.6232
  632SOL     OW 1894   2.374   2.526   0.648 -0.2630 -0.0075  0.2604
  632SOL    HW1 1895   2.354   2.610   0.709 -0.9932  0.4987 -1.7132
  632SOL    HW2 1896   2.367   2.547   0.543 -0.5971  1.4223 -1.9203
  633SOL     OW 1897   1.424   1.217   2.589  0.3646 -0.0740 -0.3128
  633SOL    HW1 1898   1.434   1.312   2.636 -3.3311  0.2973 -2.2104
  633SOL    HW2 1899   1.348   1.220   2.521  0.0225 -0.1233  0.2430
  634SOL     OW 1900   0.702   2.019   0.877 -0.3866 -0.5826 -0.1403
  634SOL    HW1 1901   0.606   2.030   0.917  0.8020 -0.6248  1.6605
  634SOL    HW2 1902   0.769   2.082   0.921  1.1613 -1.2812 -0.9488
  635SOL     OW 1903   3.004   2.339   3.095  0.3066 -0.3102 -0.1220
  635SOL    HW1 1904   2.922   2.390   3.052  1.5157 -1.5236  0.7878
  635SOL    HW2 1905   3.074   2.406   3.133 -1.8212  1.1727 -0.6702
  636SOL     OW 1906   2.309   2.731   2.054 -0.4050  0.0536  0.2549
  636SOL    HW1 1907   2.283   2.831   2.050  3.3322 -1.7322 -0.2263
  636SOL    HW2 1908   2.277   2.682   2.143 -0.2355 -1.8249  3.3606
  637SOL     OW 1909   2.645   0.658   2.010 -0.5624  0.9014  0.2728
  637SOL    HW1 1910   2.575   0.667   1.939  1.2792 -0.8756  2.3664
  637SOL    HW2 1911   2.698   0.748   2.023 -0.4848  0.5521  0.7766
  638SOL     OW 1912   2.445   1.794   1.248 -0.4672 -0.6190 -0.0963
  638SOL    HW1 1913   2.342   1.801   1.258  0.9387  0.3943  0.3173
  638SOL    HW2 1914   2.486   1.722   1.313 -0.7552 -0.2483  0.0576
  639SOL     OW 1915   1.277   2.148   1.731 -0.3751  0.5623 -0.0452
  639SOL    HW1 1916   1.307   2.070   1.671  2.3545  1.1118  2.5776
  639SOL    HW2 1917   1.174   2.145   1.753 -1.9945  0.1778 -2.2653
  640SOL     OW 1918   0.185   1.153   1.587  0.1778 -0.1191 -0.3291
  640SOL    HW1 1919   0.164   1.170   1.689 -5.0539 -1.7677 -1.4629
  640SOL    HW2 1920   0.279   1.103   1.575  1.6348  0.5976 -1.3276
  641SOL     OW 1921   2.049   0.169   1.542 -0.1731  0.3806 -0.3450
  641SOL    HW1 1922   2.025   0.170   1.640  0.1388 -0.5728  0.1647
  641SOL    HW2 1923   2.139   0.118   1.528 -0.8804  0.9101  0.2972
  642SOL     OW 1924   2.004   0.035   0.319  0.4114  0.7948  0.3677
  642SOL    HW1 1925   2.103   0.056   0.339 -1.2273  0.3762  0.8717
  642SOL    HW2 1926   1.951   0.037   0.405 -1.7503  2.0142 -1.9538
  643SOL     OW 1927   2.954   1.854   2.059  0.1036 -0.2986  0.3560
  643SOL    HW1 1928   2.896   1.788   2.006  1.2803  0.0548 -0.2646
  643SOL    HW2 1929   2.940   1.954   2.030 -0.8632  2.3852  0.8556
  644SOL     OW 1930   2.227   2.352   1.187  0.2889 -0.1631  0.2064
  644SOL    HW1 1931   2.310   2.310   1.142 -1.9794 -0.4427  2.5221
  644SOL    HW2 1932   2.229   2.340   1.286  1.9725  3.2402 -2.0140
  645SOL     OW 1933   0.610   0.796   1.283  0.3528 -0.2272 -0.1296
  645SOL    HW1 1934   0.507   0.811   1.259 -2.1455  2.2526 -0.4808
  645SOL    HW2 1935   0.681   0.826   1.212 -0.0413 -1.8046 -0.5447
  646SOL     OW 1936   1.435   1.861   2.053  0.1617  0.3693 -0.0510
  646SOL    HW1 1937   1.478   1.927   1.984  1.4856 -0.2236 -1.7029
  646SOL    HW2 1938   1.441   1.896   2.152  0.6544  2.2603 -0.6781
  647SOL     OW 1939   0.794   1.083   0.701  0.2589 -0.1930  0.2704
  647SOL    HW1 1940   0.852   1.087   0.792 -0.8195 -2.8047 -0.1987
  647SOL    HW2 1941   0.714   1.019   0.714  2.4460  2.5041  1.2006
  648SOL     OW 1942   0.075   0.232   0.219 -0.1842 -0.4680 -0.5655
  648SOL    HW1 1943   0.143   0.185   0.154 -1.5964  2.3949  1.1527
  648SOL    HW2 1944   0.081   0.333   0.209  0.5604 -1.5724 -1.0738
  649SOL     OW 1945   3.038   0.229   0.865 -0.3611  0.1427  0.4362
  649SOL    HW1 1946   3.133   0.184   0.879  1.8101  1.5813  1.2145
  649SOL    HW2 1947   3.044   0.330   0.892 -1.4019  1.8143  1.9049
  650SOL     OW 1948   2.790   0.726   1.481 -0.0012 -0.6390 -0.2671
  650SOL    HW1 1949   2.692   0.692   1.479 -1.8437  0.3845 -1.3759
  650SOL    HW2 1950   2.804   0.810   1.419 -0.3547  0.4015 -0.9481
  651SOL     OW 1951   0.911   1.523   1.592 -0.0759  0.5446  0.4486
  651SOL    HW1 1952   0.954   1.591   1.654 -0.3724 -2.1115 -1.4600
  651SOL    HW2 1953   0.961   1.527   1.497  1.7120 -1.0102 -0.0243
  652SOL     OW 1954   2.315   2.424   2.493 -0.5861 -0.3951  0.1442
  652SOL    HW1 1955   2.225   2.388   2.520  0.8832 -0.5981 -0.7414
  652SOL    HW2 1956   2.294   2.505   2.432 -1.1028  1.5573  1.9190
  653SOL     OW 1957   2.715   1.233   0.209 -0.3386  0.0657 -0.9102
  653SOL    HW1 1958   2.715   1.279   0.305  2.5141  1.5787  0.3853
  653SOL    HW2 1959   2.755   1.135   0.212 -1.4062 -0.7280  0.0762
  654SOL     OW 1960   1.239   2.255   1.256 -0.3964 -0.0699  0.0833
  654SOL    HW1 1961   1.255   2.193   1.335 -0.3261 -0.7033 -1.7531
  654SOL    HW2 1962   1.285   2.222   1.169  0.2653  1.7296  0.5900
  655SOL     OW 1963   0.167   0.962   1.977 -0.6695 -0.3160  0.0677
  655SOL    HW1 1964   0.199   0.898   1.902  1.9220  0.1375  1.6922
  655SOL    HW2 1965   0.160   1.064   1.952 -0.4044  0.3050  0.0524
  656SOL     OW 1966   2.566   2.422   2.652 -0.0383  0.2834  0.4549
  656SOL    HW1 1967   2.660   2.425   2.615 -1.2257 -0.0222  1.2142
  656SOL    HW2 1968   2.485   2.411   2.585 -0.8992 -2.3308 -1.8405
  657SOL     OW 1969   3.000   1.012   1.890  0.0706 -0.3580  0.1295
  657SOL    HW1 1970   2.998   1.112   1.915  0.6471 -0.7133 -0.1590
  657SOL    HW2 1971   3.099   0.978   1.913  0.2654 -0.7454 -0.7193
  658SOL     OW 1972   1.633   0.189   2.376  0.0682  0.1443  0.6289
  658SOL    HW1 1973   1.674   0.122   2.441 -1.9331  0.3433 -0.1236
  658SOL    HW2 1974   1.687   0.204   2.288 -0.6899  2.6559  3.1388
  659SOL     OW 1975   1.395   0.623   2.835  0.8633 -0.1954  0.2729
  659SOL    HW1 1976   1.447   0.700   2.874  1.0679  0.1414 -2.3679
  659SOL    HW2 1977   1.297   0.608   2.874  0.2192 -0.2452 -0.5984
  660SOL     OW 1978   1.413   0.351   1.392 -0.6031 -0.3239  0.1610
  660SOL    HW1 1979   1.416   0.417   1.476 -0.3239  2.5148  0.1358
  660SOL    HW2 1980   1.467   0.267   1.414  1.4439  1.1476  2.5670
  661SOL     OW 1981   2.455   1.184   0.670  0.6930  0.4919  0.1001
  661SOL    HW1 1982   2.461   1.159   0.564  2.3644 -0.5188 -1.7705
  661SOL    HW2 1983   2.400   1.268   0.690  0.8814 -0.1276 -0.6668
  662SOL     OW 1984   1.414   0.400   1.742 -0.0101  0.5034  0.0741
  662SOL    HW1 1985   1.345   0.323   1.739  1.1114  0.0762 -0.0071
  662SOL    HW2 1986   1.390   0.472   1.809  2.1514 -0.0492  1.2109
  663SOL     OW 1987   0.775   1.547   2.224 -0.3906 -0.0001 -0.1198
  663SOL    HW1 1988   0.702   1.625   2.245  0.7651  1.2988  3.5277
  663SOL    HW2 1989   0.779   1.507   2.129  3.4427 -1.6197  4.2073
  664SOL     OW 1990   1.607   2.075   1.435  0.4526  0.6037  0.4825
  664SOL    HW1 1991   1.548   2.014   1.493  2.0601  1.0849 -2.5251
  664SOL    HW2 1992   1.706   2.039   1.434  1.1147  0.6597  0.9212
  665SOL     OW 1993   2.257   0.680   1.939  0.0802 -0.5139 -0.0436
  665SOL    HW1 1994   2.160   0.650   1.941  2.2761  0.4867  0.2952
  665SOL    HW2 1995   2.297   0.677   2.033  1.1855 -0.4160  0.2412
  666SOL     OW 1996   0.439   2.296   0.357 -0.0847  0.2127  0.5049
  666SOL    HW1 1997   0.493   2.347   0.428 -2.1922  1.4643 -1.2930
  666SOL    HW2 1998   0.342   2.283   0.384 -1.6604  0.8752 -0.8333
  667SOL     OW 1999   2.044   0.199   1.200 -0.5306  0.0890 -0.2727
  667SOL    HW1 2000   2.020   0.288   1.154  1.9367 -0.2435 -0.5767
  667SOL    HW2 2001   1.961   0.159   1.245  0.5573 -1.3265 -1.8767
  668SOL     OW 2002   2.064   0.471   1.131 -0.0993 -0.2380  0.2974
  668SOL    HW1 2003   2.134   0.505   1.062  3.7141  0.2271 -1.6091
  668SOL    HW2 2004   2.104   0.448   1.226  0.4792 -1.8602  0.7170
  669SOL     OW 2005   0.006   2.147   1.048  0.0656  0.5624 -0.4971
  669SOL    HW1 2006  -0.070   2.183   0.983 -0.3701 -1.0148  0.0720
  669SOL    HW2 2007   0.025   2.211   1.135  2.7512  1.3419  0.6096
  670SOL     OW 2008   2.857   2.351   1.987 -0.3257  0.0027 -0.3996
  670SOL    HW1 2009   2.796   2.308   2.067  2.3963 -2.0134  3.1799
  670SOL    HW2 2010   2.842   2.454   1.981  0.8259 -0.8432  0.1065
  671SOL     OW 2011   1.721   1.719   1.487  0.4217 -0.9369 -0.2929
  671SOL    HW1 2012   1.745   1.706   1.385  0.9477  1.0757  0.9075
  671SOL    HW2 2013   1.622   1.728   1.503  2.8889 -1.3089 -0.5137
  672SOL     OW 2014   0.414   0.628   2.394 -0.0676 -0.1329  0.0926
  672SOL    HW1 2015   0.456   0.668   2.309  0.5156 -1.1027 -1.2341
  672SOL    HW2 2016   0.322   0.670   2.414  1.4299 -0.0938 -2.2058
  673SOL     OW 2017   0.121   1.198   1.145  0.2236 -0.3090  0.4296
  673SOL    HW1 2018   0.142   1.274   1.215  2.5058 -1.0015 -0.8887
  673SOL    HW2 2019   0.211   1.161   1.108  1.2789 -0.8467 -1.8307
  674SOL     OW 2020   1.695   2.931   0.241 -0.2201 -0.2432 -0.2141
  674SOL    HW1 2021   1.711   3.020   0.192 -1.5190  1.4531 -1.0000
  674SOL    HW2 2022   1.726   2.843   0.195 -2.4135 -1.5435  0.6193
  675SOL     OW 2023   1.732   0.806   2.331  0.3482  0.0475  0.3188
  675SOL    HW1 2024   1.816   0.811   2.267 -2.4931  0.7881 -0.6780
  675SOL    HW2 2025   1.667   0.728   2.319  0.1181 -0.1415  0.7794
  676SOL     OW 2026   2.520   1.479   1.956 -0.0706 -0.4219  0.3217
  676SOL    HW1 2027   2.475   1.462   1.861 -2.9585 -0.1772 -0.5329
  676SOL    HW2 2028   2.550   1.388   1.996 -0.2937  2.6847  0.0193
  677SOL     OW 2029   1.846   0.657   0.907  0.8073 -0.0143 -0.5634
  677SOL    HW1 2030   1.760   0.666   0.965  1.4766  3.6502  2.3517
  677SOL    HW2 2031   1.895   0.563   0.919  0.7300 -3.9229  0.4970
  678SOL     OW 2032   0.035   0.753   1.666 -0.0665  0.2117  0.2834
  678SOL    HW1 2033   0.130   0.793   1.692  1.4155  2.0018  1.1565
  678SOL    HW2 2034  -0.022   0.719   1.746 -0.2781 -1.2056 -1.9184
  679SOL     OW 2035   2.552   1.193   1.099  0.4158 -0.2151 -0.1956
  679SOL    HW1 2036   2.454   1.217   1.126  3.7872  0.3524  0.1272
  679SOL    HW2 2037   2.572   1.097   1.126  1.8289  2.5916  1.6258
  680SOL     OW 2038   2.840   0.575   1.699 -0.3164  0.3155 -0.1546
  680SOL    HW1 2039   2.840   0.641   1.621  2.2768  0.2281 -0.3828
  680SOL    HW2 2040   2.881   0.618   1.787  0.9431  2.3578 -1.6138
  681SOL     OW 2041   3.009   0.151   1.638  0.5070  0.4393  0.1811
  681SOL    HW1 2042   3.042   0.114   1.550 -1.8024  1.8946  0.4811
  681SOL    HW2 2043   2.958   0.236   1.625 -1.9324  3.0281 -1.7887
  682SOL     OW 2044   0.820   3.096   1.305  0.5742 -0.0575 -0.1659
  682SOL    HW1 2045   0.747   3.041   1.347  0.9726  4.0404 -1.2559
  682SOL    HW2 2046   0.811   3.117   1.206 -0.4009  2.5429  1.3629
  683SOL     OW 2047   1.359   0.237   2.185  0.1917  0.0988  0.3716
  683SOL    HW1 2048   1.354   0.284   2.278 -4.6935 -1.3990  0.4228
  683SOL    HW2 2049   1.449   0.250   2.141 -2.2499  2.8439  0.8958
  684SOL     OW 2050   1.473   2.122   0.471 -0.8162 -0.0472  0.4607
  684SOL    HW1 2051   1.525   2.048   0.521  0.3825 -0.2620  1.1009
  684SOL    HW2 2052   1.379   2.092   0.439  0.2808 -0.4099 -1.2766
  685SOL     OW 2053   2.136   2.044   1.949 -0.4345 -0.0847  0.1033
  685SOL    HW1 2054   2.201   2.037   1.868 -2.9803  0.1269  2.5424
  685SOL    HW2 2055   2.171   1.991   2.034 -1.9820 -0.4921  2.3881
  686SOL     OW 2056   1.540   1.809   2.710  0.0023  0.0433 -0.3066
  686SOL    HW1 2057   1.563   1.779   2.806 -2.2331  0.9686 -0.9874
  686SOL    HW2 2058   1.539   1.730   2.643  0.3884  1.7069 -1.2605
  687SOL     OW 2059   1.294   2.478   1.982 -0.4541 -0.0825 -0.2665
  687SOL    HW1 2060   1.314   2.383   2.016  3.3246  0.7662  0.5896
  687SOL    HW2 2061   1.341   2.547   2.037  0.9710  1.8905 -0.9856
  688SOL     OW 2062   2.077   1.493   1.784  0.4744  0.1945 -0.1987
  688SOL    HW1 2063   2.143   1.572   1.808  1.1694  0.0859  0.1708
  688SOL    HW2 2064   2.080   1.461   1.684 -2.2941 -1.5522 -3.0710
  689SOL     OW 2065   2.390   1.084   2.733  0.2964 -0.2539 -0.9029
  689SOL    HW1 2066   2.302   1.027   2.743  1.7948  1.7841  1.7999
  689SOL    HW2 2067   2.452   1.060   2.812 -0.4500  1.8606 -0.4554
  690SOL     OW 2068   2.220   2.811   0.047  0.1012  0.3944 -1.0299
  690SOL    HW1 2069   2.163   2.755  -0.019 -1.7427  0.8977 -0.0372
  690SOL    HW2 2070   2.200   2.806   0.152  1.3331 -0.9907  1.1799
  691SOL     OW 2071   2.613   0.464   2.216 -0.0213 -0.2992 -0.1396
  691SOL    HW1 2072   2.657   0.379   2.188 -1.8613  3.0087  0.1349
  691SOL    HW2 2073   2.621   0.546   2.150 -1.3125 -1.0348  2.4598
  692SOL     OW 2074   2.722   1.229   0.752 -0.4002 -0.4573  0.0576
  692SOL    HW1 2075   2.630   1.222   0.711  2.5458 -0.5656  1.2731
  692SOL    HW2 2076   2.743   1.325   0.791 -0.0760  1.2633 -2.0493
  693SOL     OW 2077   2.875   2.943   0.620  0.1609  0.0400  0.2722
  693SOL    HW1 2078   2.885   3.021   0.691 -3.4326  0.6625 -1.7523
  693SOL    HW2 2079   2.823   2.960   0.532 -0.3500 -0.4645  0.7186
  694SOL     OW 2080   2.363   2.163   0.082 -0.1955  0.4226  0.1097
  694SOL    HW1 2081   2.358   2.256   0.129  1.0722  0.8527 -1.5410
  694SOL    HW2 2082   2.275   2.127   0.043  2.7042  1.7284 -2.2584
  695SOL     OW 2083   0.589   3.001   1.420 -0.3170  0.0115  0.0172
  695SOL    HW1 2084   0.523   2.937   1.375 -0.5762 -0.4449  2.4951
  695SOL    HW2 2085   0.552   3.037   1.507  2.0009 -0.8637 -2.2496
  696SOL     OW 2086   2.768   1.956   0.714 -0.3544 -0.4018  0.5556
  696SOL    HW1 2087   2.840   1.888   0.744  0.8396  0.1520 -0.5037
  696SOL    HW2 2088   2.787   1.995   0.618 -1.2622  0.5278  0.6844
  697SOL     OW 2089   1.596   2.028   1.831 -0.2258 -0.1763 -0.0846
  697SOL    HW1 2090   1.693   1.992   1.840 -0.3143  0.3682 -1.0993
  697SOL    HW2 2091   1.597   2.123   1.786  1.8014  3.4069 -2.2986
  698SOL     OW 2092   2.942   0.429   2.779  0.0267  0.0762  0.1324
  698SOL    HW1 2093   2.942   0.371   2.689 -1.3837  2.5113  1.6971
  698SOL    HW2 2094   2.971   0.370   2.861 -0.5190  2.4212  1.4943
  699SOL     OW 2095   1.563   0.075   2.920  0.4684  0.1399  0.2057
  699SOL    HW1 2096   1.535  -0.009   2.860 -0.8731 -0.4842  0.9456
  699SOL    HW2 2097   1.611   0.148   2.870 -2.1401 -1.8270 -0.5580
  700SOL     OW 2098   0.958   2.325   1.339 -0.0987 -0.2855 -0.3587
  700SOL    HW1 2099   1.040   2.263   1.319  1.7258 -0.6745 -1.2421
  700SOL    HW2 2100   0.882   2.309   1.272  1.6105 -1.9384 -0.2165
  701SOL     OW 2101   1.899   2.906   3.060  0.5444 -0.7864  0.1499
  701SOL    HW1 2102   1.863   2.853   3.142  1.6991 -0.0578  0.7185
  701SOL    HW2 2103   1.932   3.002   3.087 -3.8296  2.0495  2.2459
  702SOL     OW 2104   2.070   1.333   1.995 -0.2208 -0.1178  0.1349
  702SOL    HW1 2105   2.160   1.286   1.962 -0.2365 -0.5971  0.9189
  702SOL    HW2 2106   2.042   1.397   1.921 -0.7927 -1.7382  0.4622
  703SOL     OW 2107   1.935   0.887   1.445 -0.2144 -0.3628 -0.3574
  703SOL    HW1 2108   1.895   0.818   1.513 -2.5057 -0.4331 -1.6734
  703SOL    HW2 2109   2.014   0.946   1.486  0.8812 -1.1136 -1.2492
  704SOL     OW 2110   0.311   2.052   1.725 -0.1834  0.2177 -0.6517
  704SOL    HW1 2111   0.361   1.975   1.779 -1.6867  0.5376 -1.6522
  704SOL    HW2 2112   0.382   2.128   1.705  1.1933  1.1821 -1.8587
  705SOL     OW 2113   2.529   1.508   0.951  0.1721 -0.2207  0.7898
  705SOL    HW1 2114   2.472   1.480   0.867 -0.3598 -0.0061 -0.4801
  705SOL    HW2 2115   2.626   1.472   0.945 -0.5087  0.8211  1.6405
  706SOL     OW 2116   0.644   1.624   1.857  0.0473 -0.3152 -0.6609
  706SOL    HW1 2117   0.668   1.538   1.909 -1.3517  1.0521  0.9326
  706SOL    HW2 2118   0.686   1.708   1.893 -3.2103 -0.7379 -1.3149
  707SOL     OW 2119   2.265   1.206   1.869  0.1060  0.0646  0.4422
  707SOL    HW1 2120   2.363   1.201   1.905 -1.1798 -1.5041 -0.5624
  707SOL    HW2 2121   2.234   1.108   1.850 -1.1363 -1.4896 -2.1508
  708SOL     OW 2122   3.091   0.499   3.081  0.2405  0.4140 -0.0090
  708SOL    HW1 2123   3.061   0.562   3.005 -1.7832  2.1741  1.8788
  708SOL    HW2 2124   3.097   0.407   3.037 -4.5425 -0.2169 -2.8116
  709SOL     OW 2125   1.834   1.847   0.239 -0.5003 -0.1813  0.2681
  709SOL    HW1 2126   1.871   1.944   0.267 -0.2540 -0.3980  2.1120
  709SOL    HW2 2127   1.839   1.833   0.135  0.4316 -2.1378  0.3614
  710SOL     OW 2128   1.747   1.651   2.435  0.6923  0.4687 -0.0156
  710SOL    HW1 2129   1.791   1.636   2.339 -0.1148 -1.9304 -0.3185
  710SOL    HW2 2130   1.735   1.558   2.484 -0.9161 -1.2218  2.3046
  711SOL     OW 2131   2.620   2.966   1.029  0.1754  0.4868 -0.7435
  711SOL    HW1 2132   2.606   3.061   0.996  0.7342 -0.7905 -0.9570
  711SOL    HW2 2133   2.716   2.937   1.018 -0.6879  0.7526 -0.3185
  712SOL     OW 2134   1.386   2.211   1.982 -0.3668  0.1380  0.5736
  712SOL    HW1 2135   1.483   2.184   2.016  1.3804 -1.2706  0.3775
  712SOL    HW2 2136   1.360   2.172   1.885 -0.0419 -0.3571 -1.3661
  713SOL     OW 2137   2.893   1.480   2.537  0.2023 -0.1741 -0.1852
  713SOL    HW1 2138   2.856   1.389   2.505  1.5699 -2.5758  1.7061
  713SOL    HW2 2139   2.859   1.497   2.634  0.7737  1.2520  1.1325
  714SOL     OW 2140   2.721   0.512   2.452  0.2219 -0.3788  0.2829
  714SOL    HW1 2141   2.640   0.498   2.517 -1.2673  1.3220  0.0076
  714SOL    HW2 2142   2.693   0.490   2.352  1.1509 -0.8826 -1.6193
  715SOL     OW 2143   1.575   2.023   1.110 -0.1592 -0.1360 -0.4776
  715SOL    HW1 2144   1.511   2.078   1.051 -0.5581  0.4219  1.0218
  715SOL    HW2 2145   1.597   2.070   1.203  0.3812  0.7212  0.7833
  716SOL     OW 2146   1.181   0.168   1.471  0.9537 -0.1056 -0.1972
  716SOL    HW1 2147   1.080   0.197   1.477 -3.5545  0.1773  0.3424
  716SOL    HW2 2148   1.243   0.236   1.423  3.1683 -0.4153 -0.5352
  717SOL     OW 2149   1.166   0.504   1.562 -0.1191 -0.0809 -0.1413
  717SOL    HW1 2150   1.211   0.586   1.610  1.9590 -1.9955  4.1422
  717SOL    HW2 2151   1.151   0.513   1.458 -0.9927 -1.2349  1.1684
  718SOL     OW 2152   0.688   0.935   1.001  0.3334  0.7905 -0.2171
  718SOL    HW1 2153   0.645   0.924   0.906 -1.0832  2.2608 -0.8122
  718SOL    HW2 2154   0.689   1.032   1.036 -2.0604  2.4140 -0.9689
  719SOL     OW 2155   0.607   1.784   2.281  0.3485  0.1377  0.1152
  719SOL    HW1 2156   0.688   1.822   2.337  2.4244  0.7240 -2.6278
  719SOL    HW2 2157   0.525   1.761   2.332  0.2461 -1.0720 -1.3467
  720SOL     OW 2158   2.192   1.163   0.321  0.1839  0.3406 -0.5826
  720SOL    HW1 2159   2.218   1.083   0.258 -1.6182 -2.5648 -3.2184
  720SOL    HW2 2160   2.164   1.129   0.419 -0.7103 -1.1699  2.2348
  721SOL     OW 2161   2.266   3.010   2.120 -0.2546 -0.0235  0.2257
  721SOL    HW1 2162   2.255   3.084   2.049 -0.8789 -1.8649  0.8376
  721SOL    HW2 2163   2.228   3.043   2.208  2.1216  1.8829 -0.3032
  722SOL     OW 2164   2.369   1.577   0.506  0.3531 -0.4950 -0.3965
  722SOL    HW1 2165   2.440   1.607   0.437  0.7854 -1.3603  0.3733
  722SOL    HW2 2166   2.284   1.634   0.518  0.9986  1.9627  0.6759
  723SOL     OW 2167   2.552   2.727   1.943 -0.0345 -0.2142  0.8535
  723SOL    HW1 2168   2.567   2.800   2.015 -1.4480  0.2793 -2.1926
  723SOL    HW2 2169   2.449   2.717   1.925 -1.5260 -0.5427  0.3958
  724SOL     OW 2170   0.513   2.495   2.417  0.2640  0.3621  0.4831
  724SOL    HW1 2171   0.434   2.464   2.476  0.8230  0.3015 -1.8240
  724SOL    HW2 2172   0.608   2.497   2.464  0.1634 -2.3924 -0.7839
  725SOL     OW 2173   2.467   2.837   1.521 -0.1099  0.3979 -0.1208
  725SOL    HW1 2174   2.488   2.883   1.433  0.5319  1.0938  0.7622
  725SOL    HW2 2175   2.498   2.738   1.513 -0.9638 -1.9644 -1.5311
  726SOL     OW 2176   2.514   2.300   0.714  0.0251 -0.5199  0.0612
  726SOL    HW1 2177   2.469   2.395   0.711  1.0643 -1.5895  0.9942
  726SOL    HW2 2178   2.479   2.239   0.640  0.0700 -3.5746 -2.7542
  727SOL     OW 2179   0.146   3.101   0.049  0.3027 -0.4070 -0.1985
  727SOL    HW1 2180   0.206   3.018   0.046  1.8526  0.0682 -0.2739
  727SOL    HW2 2181   0.060   3.084  -0.009  0.7887  2.4603 -0.4647
  728SOL     OW 2182   2.902   0.654   0.963 -0.4064  0.1258  0.3007
  728SOL    HW1 2183   2.820   0.691   0.918  0.9653  0.5381  3.2538
  728SOL    HW2 2184   2.881   0.639   1.065 -0.5672  0.3998 -1.2429
  729SOL     OW 2185   3.052   2.498   0.779 -0.0488 -0.4063 -0.1597
  729SOL    HW1 2186   3.033   2.419   0.834  0.8672 -1.2189  1.0046
  729SOL    HW2 2187   3.142   2.478   0.726 -0.7584 -5.2451  0.1251
  730SOL     OW 2188   2.628   0.728   0.854 -0.1610 -0.3200 -0.4122
  730SOL    HW1 2189   2.591   0.826   0.833 -0.4823  2.1041 -2.6111
  730SOL    HW2 2190   2.675   0.692   0.765 -1.7064  0.6808 -0.0345
  731SOL     OW 2191   0.097   2.070   2.509  0.6041 -0.3387 -0.0552
  731SOL    HW1 2192   0.096   2.127   2.594  0.0250  2.1453 -1.5693
  731SOL    HW2 2193   0.036   2.113   2.436  1.4927  2.5887 -1.4736
  732SOL     OW 2194   1.178   2.825   1.946 -0.5545 -0.4983  0.2680
  732SOL    HW1 2195   1.195   2.779   2.036 -2.3910  0.3641 -0.7720
  732SOL    HW2 2196   1.181   2.758   1.869  1.9101 -0.5148  0.6984
  733SOL     OW 2197   3.045   0.588   2.222  0.6586  0.1432  0.5616
  733SOL    HW1 2198   3.132   0.607   2.171 -3.9624 -0.3326  0.7302
  733SOL    HW2 2199   2.971   0.550   2.160 -0.8598 -0.9619 -0.0908
  734SOL     OW 2200   1.426   0.383   2.701 -0.3433 -0.1494  0.3770
  734SOL    HW1 2201   1.427   0.478   2.745  0.7836 -0.9046  2.3393
  734SOL    HW2 2202   1.349   0.325   2.740  0.3699  0.1428  0.0273
  735SOL     OW 2203   2.892   2.663   2.275  0.5430 -0.3999 -0.0378
  735SOL    HW1 2204   2.865   2.638   2.179 -0.1739  2.1767  0.1195
  735SOL    HW2 2205   2.992   2.692   2.289 -1.9590 -0.6001  1.0233
  736SOL     OW 2206   0.808   0.309   2.590 -0.5274  0.1747  0.8340
  736SOL    HW1 2207   0.726   0.365   2.561 -1.5937  1.6617  0.3064
  736SOL    HW2 2208   0.825   0.229   2.527 -0.7427 -5.1372  0.5664
  737SOL     OW 2209   2.676   0.486   2.851  0.7746  0.5722  0.5722
  737SOL    HW1 2210   2.658   0.454   2.950 -0.2616 -0.7018  0.3557
  737SOL    HW2 2211   2.769   0.459   2.809  0.3880 -1.0290  1.1412
  738SOL     OW 2212   1.640   1.264   2.892 -0.0029 -0.0532 -0.1098
  738SOL    HW1 2213   1.744   1.252   2.888  2.7132  0.2840 -1.3209
  738SOL    HW2 2214   1.590   1.176   2.874  0.2607 -0.1285  0.3298
  739SOL     OW 2215   1.743   0.651   0.659  0.1318 -0.4981 -0.4164
  739SOL    HW1 2216   1.786   0.663   0.755 -0.8245 -0.9954 -0.4280
  739SOL    HW2 2217   1.769   0.559   0.621  0.1141  2.2777  0.4402
  740SOL     OW 2218   1.986   1.904   2.291 -0.3221  0.2352 -1.0282
  740SOL    HW1 2219   2.014   1.839   2.361  2.5997  0.9312 -1.5919
  740SOL    HW2 2220   1.884   1.887   2.269 -1.1380  0.6994  0.7859
  741SOL     OW 2221   2.559   0.050   2.548  0.3738 -0.3789  0.6461
  741SOL    HW1 2222   2.655   0.046   2.592  0.6386 -1.6964  2.4367
  741SOL    HW2 2223   2.564   0.091   2.454 -2.0765  0.3385  2.0419
  742SOL     OW 2224   2.217   1.422   0.205  0.2108  0.4019  0.5455
  742SOL    HW1 2225   2.160   1.505   0.241 -1.4509  0.4180 -0.6994
  742SOL    HW2 2226   2.203   1.327   0.257 -0.6053  1.4776  1.5039
  743SOL     OW 2227   1.843   0.677   2.640  0.3946  0.0035 -0.3412
  743SOL    HW1 2228   1.803   0.627   2.555  1.1063 -2.7763  1.7435
  743SOL    HW2 2229   1.773   0.747   2.665 -0.7649  0.3214  1.4547
  744SOL     OW 2230   2.621   2.119   0.166 -0.3687 -0.0773 -0.1337
  744SOL    HW1 2231   2.529   2.098   0.128  2.6866 -0.1370 -3.3373
  744SOL    HW2 2232   2.628   2.125   0.273  2.0117  4.3341  1.5471
  745SOL     OW 2233   2.149   2.623   2.290  0.3207 -0.2622  0.5154
  745SOL    HW1 2234   2.046   2.633   2.285  0.6670 -1.5726 -1.5221
  745SOL    HW2 2235   2.185   2.698   2.353 -0.4417 -1.2445  1.2247
  746SOL     OW 2236   3.076   2.616   1.746  0.7378 -0.0313 -0.2841
  746SOL    HW1 2237   3.162   2.616   1.688  1.8143 -0.3767 -1.6581
  746SOL    HW2 2238   3.063   2.704   1.801 -2.6773 -0.3261  1.0814
  747SOL     OW 2239   0.051   1.754   1.688  0.2718  0.2770 -0.4104
  747SOL    HW1 2240  -0.035   1.693   1.671 -1.6104 -1.2771  1.3547
  747SOL    HW2 2241   0.108   1.771   1.607 -0.0062  0.6558 -3.3481
  748SOL     OW 2242   1.831   2.731   2.851  0.6129  0.3083 -0.8900
  748SOL    HW1 2243   1.859   2.806   2.920 -5.0854 -1.3211 -0.2822
  748SOL    HW2 2244   1.728   2.733   2.838  1.4453 -0.2827  1.7743
  749SOL     OW 2245   1.337   3.045   0.936 -0.2261  0.8504  1.0306
  749SOL    HW1 2246   1.245   2.983   0.938  0.0250 -2.9846  1.0428
  749SOL    HW2 2247   1.383   3.040   0.847 -0.9461 -1.4531  0.3816
  750SOL     OW 2248   2.275   0.178   1.897  0.3991  0.1940  0.6662
  750SOL    HW1 2249   2.288   0.234   1.810 -1.6133 -1.6140 -0.2164
  750SOL    HW2 2250   2.314   0.226   1.977  1.0692 -1.4427 -1.5855
  751SOL     OW 2251   0.875   2.144   2.805  0.0660  0.7281 -0.1041
  751SOL    HW1 2252   0.946   2.164   2.880  1.0779 -0.7077  0.0937
  751SOL    HW2 2253   0.781   2.122   2.842  0.2728  0.5499 -1.2867
  752SOL     OW 2254   1.322   0.859   1.307 -0.2149 -0.1937  0.8167
  752SOL    HW1 2255   1.390   0.935   1.311 -0.0013 -1.1617 -1.1504
  752SOL    HW2 2256   1.374   0.777   1.339  2.7612  2.4003  1.0555
  753SOL     OW 2257   0.925   2.605   1.651 -0.0121 -0.0662  0.1365
  753SOL    HW1 2258   1.024   2.633   1.665  2.2490  1.3680  1.6657
  753SOL    HW2 2259   0.867   2.683   1.608 -0.1089 -0.3492 -2.4567
  754SOL     OW 2260   1.097   1.233   2.989 -0.1215 -0.1769 -0.3428
  754SOL    HW1 2261   1.181   1.176   2.955 -2.3691 -3.6803  1.4246
  754SOL    HW2 2262   1.120   1.332   3.016 -1.3126  0.7446  0.0831
  755SOL     OW 2263   2.005   0.459   2.235 -0.0869 -0.2156  0.2915
  755SOL    HW1 2264   2.071   0.377   2.234  0.0490  0.4842 -0.3996
  755SOL    HW2 2265   1.934   0.462   2.315 -0.1692  2.2014  0.3571
  756SOL     OW 2266   2.557   1.046   2.965 -0.0363  0.5959 -0.1591
  756SOL    HW1 2267   2.657   1.036   2.995 -0.8148  0.7002 -2.4456
  756SOL    HW2 2268   2.490   0.969   2.989 -1.1286 -1.4734 -1.4799
  757SOL     OW 2269   0.042   0.534   1.902 -0.3442 -0.3511 -0.5036
  757SOL    HW1 2270   0.104   0.507   1.818  2.8583  1.8850 -1.5528
  757SOL    HW2 2271   0.008   0.449   1.951 -2.8004  0.9655 -2.3576
  758SOL     OW 2272   2.336   0.088   1.490  0.8496 -0.4526 -0.1008
  758SOL    HW1 2273   2.290  -0.006   1.516  0.4010  1.0434  0.1700
  758SOL    HW2 2274   2.343   0.108   1.383  0.4276  0.3534 -1.9564
  759SOL     OW 2275   1.709   0.120   0.051 -0.0839 -0.5015  0.2138
  759SOL    HW1 2276   1.663   0.120  -0.042  0.8414  3.7954  0.6471
  759SOL    HW2 2277   1.813   0.099   0.044  2.5900 -0.1379  1.4606
  760SOL     OW 2278   2.694   2.078   2.825 -0.1063  0.6750 -0.1434
  760SOL    HW1 2279   2.722   2.004   2.893  0.3960 -0.6695  0.1824
  760SOL    HW2 2280   2.637   2.153   2.868  1.2636 -0.8435 -0.1966
  761SOL     OW 2281   1.892   1.736   1.706 -0.0999  0.7091  0.0932
  761SOL    HW1 2282   1.942   1.654   1.734 -1.2480  2.2715 -2.7893
  761SOL    HW2 2283   1.827   1.712   1.629  1.6134  2.2650  2.3672
  762SOL     OW 2284   0.506   2.352   0.958 -0.0695  0.1068 -0.1316
  762SOL    HW1 2285   0.539   2.390   0.870 -2.7734  4.2239 -1.3807
  762SOL    HW2 2286   0.560   2.391   1.038 -1.0575 -1.4080  1.2093
  763SOL     OW 2287   2.108   1.567   2.969  0.2468 -0.2243 -0.2580
  763SOL    HW1 2288   2.185   1.505   2.983 -1.8463 -0.0316  0.0627
  763SOL    HW2 2289   2.018   1.533   3.003 -0.5275 -1.5685 -3.0424
  764SOL     OW 2290   0.665   0.625   0.820 -0.2874 -0.1467 -0.0048
  764SOL    HW1 2291   0.590   0.553   0.803  1.6365  0.0933 -1.1430
  764SOL    HW2 2292   0.745   0.594   0.876  1.0811  4.5873 -0.9128
  765SOL     OW 2293   0.703   0.235   0.745 -0.1766  0.5713 -0.4701
  765SOL    HW1 2294   0.787   0.274   0.689  2.8925  2.0123  1.4449
  765SOL    HW2 2295   0.719   0.254   0.844  1.4756 -1.0586  2.4136
  766SOL     OW 2296   2.846   2.120   0.021 -0.0222 -0.1683  0.3617
  766SOL    HW1 2297   2.771   2.132   0.090  2.1919  0.3890 -2.1110
  766SOL    HW2 2298   2.898   2.211   0.010  0.0201  0.9340  3.4913
  767SOL     OW 2299   2.790   1.596   0.628  0.6960 -0.2199  0.0781
  767SOL    HW1 2300   2.709   1.639   0.675 -0.7348 -2.6394  0.3613
  767SOL    HW2 2301   2.837   1.675   0.578  1.3670 -0.5279  2.4444
  768SOL     OW 2302   1.025   0.056   0.270 -0.2493  0.3672  0.1954
  768SOL    HW1 2303   0.983   0.084   0.361 -1.2076 -0.2768 -2.6185
  768SOL    HW2 2304   1.131   0.064   0.275  2.0644  4.2473 -2.0727
  769SOL     OW 2305   1.047   1.930   2.258 -0.1512 -0.7094 -0.2476
  769SOL    HW1 2306   0.950   1.926   2.303 -0.4835  1.0637  2.0203
  769SOL    HW2 2307   1.116   1.923   2.334 -0.9267 -0.1077 -2.7966
  770SOL     OW 2308   0.189   1.121   2.305  0.2567 -0.7687  0.1297
  770SOL    HW1 2309   0.166   1.143   2.404 -1.7775  2.3277  1.4027
  770SOL    HW2 2310   0.103   1.126   2.248  2.7304  1.5746 -1.8487
  771SOL     OW 2311   2.972   2.833   1.875  0.4068  0.2664 -0.1568
  771SOL    HW1 2312   2.952   2.895   1.797 -0.6089 -1.0766 -1.2903
  771SOL    HW2 2313   2.948   2.868   1.972 -0.0491 -0.9827  0.5884
  772SOL     OW 2314   2.190   0.222   2.895  0.2011 -0.1635 -0.5556
  772SOL    HW1 2315   2.238   0.128   2.903  1.9009  0.9340 -3.5011
  772SOL    HW2 2316   2.188   0.279   2.987 -0.1612  2.5084  1.5441
  773SOL     OW 2317   0.724   2.142   2.428  0.2442  0.1914  0.3079
  773SOL    HW1 2318   0.669   2.196   2.352 -1.4864  0.1196 -1.1134
  773SOL    HW2 2319   0.699   2.181   2.523  0.3952 -0.7815 -0.7486
  774SOL     OW 2320   2.048  -0.001   2.628 -0.2326  0.0259  0.1960
  774SOL    HW1 2321   2.058   0.097   2.658 -0.9120 -0.2116 -2.1706
  774SOL    HW2 2322   2.081  -0.073   2.703  1.7084 -2.3375  3.7266
  775SOL     OW 2323   2.519   2.860   2.378  0.1372 -0.0530  0.3747
  775SOL    HW1 2324   2.504   2.963   2.359 -2.6724 -1.8896 -1.5372
  775SOL    HW2 2325   2.606   2.840   2.430  0.3349 -1.7100 -1.6255
  776SOL     OW 2326   3.098   1.269   0.199 -0.2870  0.6223  0.5565
  776SOL    HW1 2327   3.051   1.219   0.119 -0.8114  2.8373 -2.8151
  776SOL    HW2 2328   3.039   1.284   0.286  1.4929  1.4540 -0.3048
  777SOL     OW 2329   0.353   2.857   0.416 -0.2859  0.0491  0.2668
  777SOL    HW1 2330   0.258   2.898   0.416 -3.1899  0.4659 -2.0803
  777SOL    HW2 2331   0.424   2.917   0.380 -1.3246 -0.4755 -1.7062
  778SOL     OW 2332   1.344   1.948   0.182 -0.5398  0.5033  0.0531
  778SOL    HW1 2333   1.287   1.969   0.265  2.3861 -2.3267  1.2910
  778SOL    HW2 2334   1.386   2.036   0.134 -0.3809  1.7915 -1.4271
  779SOL     OW 2335   0.174   0.843   0.491  0.3309  0.1601  0.1733
  779SOL    HW1 2336   0.114   0.765   0.459  2.0996  1.6844 -1.2863
  779SOL    HW2 2337   0.115   0.913   0.543 -0.4092  0.4185  0.7019
  780SOL     OW 2338   0.116   0.208   2.288  0.5889 -0.1102 -0.4173
  780SOL    HW1 2339   0.194   0.273   2.308  0.7754 -1.9080 -0.1413
  780SOL    HW2 2340   0.149   0.128   2.238 -0.6958  1.6434  0.9393
  781SOL     OW 2341   0.657   1.719   1.535  0.1166  0.6380  0.5427
  781SOL    HW1 2342   0.711   1.700   1.623 -1.6598  0.4884  3.1562
  781SOL    HW2 2343   0.572   1.658   1.540  0.8511  0.7838  0.2172
  782SOL     OW 2344   2.586   0.102   0.891  0.2107  0.7866 -0.6234
  782SOL    HW1 2345   2.533   0.132   0.812 -0.0807 -0.9364  1.9874
  782SOL    HW2 2346   2.602   0.183   0.958  0.3323 -0.0530  0.2215
  783SOL     OW 2347   2.861   0.760   2.567  0.0064  0.3041  0.6648
  783SOL    HW1 2348   2.798   0.775   2.648  2.4355  1.4335 -0.5996
  783SOL    HW2 2349   2.838   0.671   2.512 -1.8897  0.6861  0.9522
  784SOL     OW 2350   1.470   2.189   0.092  0.2469 -0.7130  0.5644
  784SOL    HW1 2351   1.547   2.256   0.116 -0.6924  1.4994 -2.4775
  784SOL    HW2 2352   1.445   2.193  -0.010 -2.1479 -3.1041 -2.1837
  785SOL     OW 2353   2.132   0.336   0.071 -0.0016  0.6527 -0.1115
  785SOL    HW1 2354   2.059   0.337   0.141 -1.5313  3.4342 -1.3942
  785SOL    HW2 2355   2.138   0.428   0.023  1.0843 -1.0020  2.2414
  786SOL     OW 2356   1.999   2.171   2.199 -0.6289 -0.1234 -0.8478
  786SOL    HW1 2357   2.004   2.070   2.245  2.0119 -2.3895  0.5802
  786SOL    HW2 2358   2.071   2.183   2.124  3.4211  0.3509 -0.1269
  787SOL     OW 2359   1.410   0.586   1.009  0.3369  0.5942 -0.1503
  787SOL    HW1 2360   1.319   0.632   1.039 -1.7606  2.9747  0.7011
  787SOL    HW2 2361   1.413   0.553   0.909  0.8481  1.3359 -1.0397
  788SOL     OW 2362   1.265   0.407   0.045  0.1464  0.3852 -0.4876
  788SOL    HW1 2363   1.174   0.371   0.014  2.5683  1.4216 -0.2349
  788SOL    HW2 2364   1.246   0.495   0.100  1.0138 -0.0338 -4.1508
  789SOL     OW 2365   2.555   0.107   1.851 -0.0873  0.2117  0.2819
  789SOL    HW1 2366   2.458   0.145   1.864 -3.2472  1.3772  0.7140
  789SOL    HW2 2367   2.563   0.004   1.824 -0.4700  2.7646  0.1367
  790SOL     OW 2368   2.663   2.775   0.791 -0.4100 -0.3838 -0.0941
  790SOL    HW1 2369   2.732   2.819   0.734 -2.1045  0.1338  2.7499
  790SOL    HW2 2370   2.664   2.795   0.893  0.6212  2.3860  1.5268
  791SOL     OW 2371   1.913   1.205   0.207 -0.2664  0.7399  0.1411
  791SOL    HW1 2372   1.820   1.177   0.238  0.0391  0.2286 -1.7768
  791SOL    HW2 2373   1.994   1.176   0.266  0.9737 -1.9415 -3.7625
  792SOL     OW 2374   0.438   1.999   2.158  0.3611  0.7021 -0.5129
  792SOL    HW1 2375   0.508   1.937   2.193 -0.9195  1.7731 -0.3445
  792SOL    HW2 2376   0.369   2.019   2.232 -0.6766 -1.4769  0.7582
  793SOL     OW 2377   2.101   1.569   2.151  0.5632 -0.2472  0.0343
  793SOL    HW1 2378   2.183   1.617   2.103  0.2455 -0.9374 -1.8923
  793SOL    HW2 2379   2.082   1.475   2.104  2.8151  0.7608  3.3355
  794SOL     OW 2380   0.457   1.340   2.415 -0.2968 -0.0254  0.1975
  794SOL    HW1 2381   0.443   1.309   2.318  0.3658 -0.0853  0.5899
  794SOL    HW2 2382   0.462   1.444   2.424  1.7304 -0.4710  3.3021
  795SOL     OW 2383   2.444   2.286   1.790 -0.8449  0.3072 -1.0470
  795SOL    HW1 2384   2.389   2.318   1.871 -1.1476 -1.9388 -0.6702
  795SOL    HW2 2385   2.419   2.193   1.755  0.7245  0.2743  0.6449
  796SOL     OW 2386   3.055   1.118   2.681  0.3518  0.1156  0.2490
  796SOL    HW1 2387   2.958   1.131   2.717  2.4464 -1.4124 -2.8953
  796SOL    HW2 2388   3.130   1.124   2.752 -0.9532  1.9429 -2.2901
  797SOL     OW 2389   0.792   0.612   1.394  0.4402 -0.0046 -0.4211
  797SOL    HW1 2390   0.862   0.664   1.448 -0.0900 -1.4152 -0.2941
  797SOL    HW2 2391   0.716   0.667   1.353  1.9290 -0.6777 -1.0346
  798SOL     OW 2392   1.348   0.320   1.122  0.5528  0.5994  0.3481
  798SOL    HW1 2393   1.373   0.309   1.218 -0.6000  1.3745 -3.0381
  798SOL    HW2 2394   1.365   0.422   1.089 -0.0667  0.8400 -0.4625
  799SOL     OW 2395   1.910   2.705   1.042 -0.3738 -0.6246  0.0858
  799SOL    HW1 2396   1.875   2.662   1.128  0.0895 -3.6697 -2.5348
  799SOL    HW2 2397   1.831   2.739   0.978  2.1613 -0.0817 -1.6642
  800SOL     OW 2398   2.950   0.742   1.893  0.0143  0.3017  0.1904
  800SOL    HW1 2399   2.971   0.845   1.899 -1.7146  2.3168 -0.1864
  800SOL    HW2 2400   3.010   0.684   1.955  1.5557 -0.8680  1.8418
  801SOL     OW 2401   1.938   2.247   0.100 -0.3468  0.1819  0.0932
  801SOL    HW1 2402   1.844   2.240   0.061  2.1897 -1.1278  3.7152
  801SOL    HW2 2403   2.007   2.173   0.071 -0.2148  0.7177 -2.4308
  802SOL     OW 2404   0.699   0.810   2.537  0.2275  0.0358  0.0914
  802SOL    HW1 2405   0.776   0.784   2.470 -1.5167 -2.0408 -0.0896
  802SOL    HW2 2406   0.608   0.785   2.496 -0.9579  1.2543 -1.6380
  803SOL     OW 2407   0.970   0.030   0.816 -0.0863 -0.1341 -0.7978
  803SOL    HW1 2408   1.046   0.098   0.842  0.9915 -1.8459 -1.6536
  803SOL    HW2 2409   0.896   0.068   0.751  1.7513  2.0763 -0.6195
  804SOL     OW 2410   0.321   0.045   2.153  0.2749  0.2808 -0.2669
  804SOL    HW1 2411   0.341   0.145   2.132  0.4997  0.4782 -1.9621
  804SOL    HW2 2412   0.271   0.002   2.071 -1.1682  1.3173 -0.4368
  805SOL     OW 2413   2.363   0.336   0.422  0.0974  0.1798  0.3870
  805SOL    HW1 2414   2.439   0.352   0.487 -1.5755  0.7745 -0.7141
  805SOL    HW2 2415   2.395   0.325   0.324 -2.2320 -0.6147  0.5082
  806SOL     OW 2416   0.633   2.467   1.794 -0.1825  0.1468  0.1575
  806SOL    HW1 2417   0.631   2.571   1.793  1.4555  1.0326 -5.2003
  806SOL    HW2 2418   0.730   2.432   1.776 -0.0130  0.8539  0.8462
  807SOL     OW 2419   2.488   0.834   0.351 -0.3532 -0.4728  0.0350
  807SOL    HW1 2420   2.570   0.872   0.411  0.0526  0.1148  1.5982
  807SOL    HW2 2421   2.443   0.901   0.287 -1.4928 -0.8946 -1.5240
  808SOL     OW 2422   0.623   2.058   2.888  0.9723  0.0121 -0.5882
  808SOL    HW1 2423   0.570   2.111   2.957 -1.5753 -1.4064 -1.7081
  808SOL    HW2 2424   0.665   1.972   2.927 -1.0673  0.0447 -0.8811
  809SOL     OW 2425   2.644   1.959   1.878 -0.6264  0.1374  0.1958
  809SOL    HW1 2426   2.723   2.028   1.863  1.6176  0.1026 -1.2418
  809SOL    HW2 2427   2.628   1.903   1.793  2.0457 -1.3663 -0.9828
  810SOL     OW 2428   2.111   1.065   0.561  0.0140 -0.0632  0.1358
  810SOL    HW1 2429   2.069   0.980   0.601  1.9758  0.3789  2.0896
  810SOL    HW2 2430   2.101   1.152   0.615  0.9984  0.5776  2.1584
  811SOL     OW 2431   1.329   2.510   1.215  0.1324  0.0927  0.4752
  811SOL    HW1 2432   1.279   2.422   1.231  1.7297  1.7192  1.5790
  811SOL    HW2 2433   1.268   2.595   1.231 -0.7580  0.8794  1.5478
  812SOL     OW 2434   1.411   0.745   1.930 -0.2428 -0.0227 -0.3963
  812SOL    HW1 2435   1.446   0.837   1.957 -2.5514 -2.5545 -0.1794
  812SOL    HW2 2436   1.310   0.735   1.955  1.2055  3.1319 -1.8241
  813SOL     OW 2437   1.700   2.075   2.524 -0.6741 -0.1125  0.3379
  813SOL    HW1 2438   1.747   1.983   2.546  0.1609 -2.7548 -0.0395
  813SOL    HW2 2439   1.635   2.067   2.445 -0.6748 -0.2951 -1.6599
  814SOL     OW 2440   2.904   1.497   2.835 -0.1100 -0.2727 -0.0106
  814SOL    HW1 2441   2.992   1.466   2.881 -0.6394 -0.4409 -0.2432
  814SOL    HW2 2442   2.892   1.596   2.837  0.6812 -2.2816 -1.0694
  815SOL     OW 2443   2.172   2.899   2.775  0.2789 -0.2397 -0.1700
  815SOL    HW1 2444   2.148   2.811   2.818 -0.0910 -0.0250 -1.5470
  815SOL    HW2 2445   2.242   2.962   2.824  0.0035  1.8404  0.9276
  816SOL     OW 2446   1.645   0.322   1.601 -0.1579 -0.0889  0.4142
  816SOL    HW1 2447   1.672   0.225   1.635 -0.1419  0.5727 -0.8617
  816SOL    HW2 2448   1.573   0.359   1.666  0.0187  0.1671  0.9664
  817SOL     OW 2449   0.374   1.146   2.585 -0.7603  0.0506  0.2329
  817SOL    HW1 2450   0.277   1.167   2.622 -0.5140  2.0705  4.3419
  817SOL    HW2 2451   0.419   1.215   2.515 -0.6832 -1.2746 -0.9132
  818SOL     OW 2452   1.929   0.914   0.382  1.3119  0.0991 -0.5921
  818SOL    HW1 2453   2.030   0.898   0.379  0.9803 -0.1820 -2.1096
  818SOL    HW2 2454   1.901   0.975   0.465  0.5668  2.9727  1.5127
  819SOL     OW 2455   2.753   2.977   2.959 -0.1112  0.6923  0.2543
  819SOL    HW1 2456   2.807   2.887   2.929 -0.8345 -2.7128 -1.8785
  819SOL    HW2 2457   2.657   2.976   2.917 -2.4165  0.2333  0.2809
  820SOL     OW 2458   1.225   1.069   0.616 -0.2938  0.4074 -0.6694
  820SOL    HW1 2459   1.204   1.163   0.658 -1.6147 -0.7234 -1.3589
  820SOL    HW2 2460   1.184   0.991   0.673 -1.5786 -1.8492  2.4338
  821SOL     OW 2461   0.020   1.281   0.687  0.3150  0.0717  0.2367
  821SOL    HW1 2462  -0.019   1.277   0.785 -0.6119 -1.7342 -1.4300
  821SOL    HW2 2463   0.096   1.352   0.678  1.5193  0.9636 -4.0891
  822SOL     OW 2464   2.578   1.731   2.425  0.3107  0.2164 -0.1763
  822SOL    HW1 2465   2.572   1.812   2.489 -0.6491  2.4442 -0.9555
  822SOL    HW2 2466   2.489   1.719   2.375  1.1897  0.1629  0.0806
  823SOL     OW 2467   2.055   0.901   1.184  0.0093 -0.4570 -0.3481
  823SOL    HW1 2468   2.028   0.903   1.286 -1.8391  2.1159  1.4171
  823SOL    HW2 2469   1.981   0.947   1.123  0.7218 -0.9550  0.8470
  824SOL     OW 2470   0.272   2.029   2.838  0.3378 -0.2256  0.7600
  824SOL    HW1 2471   0.226   1.939   2.866 -2.5730 -0.7560  0.1220
  824SOL    HW2 2472   0.326   2.012   2.751  0.4732 -0.0238  0.8349
  825SOL     OW 2473   1.294   1.088   0.282  0.0559 -0.1986 -0.2284
  825SOL    HW1 2474   1.310   1.183   0.244 -2.6647 -2.1554  1.0580
  825SOL    HW2 2475   1.242   1.088   0.369  0.4879 -1.9535  0.3945
  826SOL     OW 2476   1.883   0.672   1.619  0.3858 -0.2344 -0.3886
  826SOL    HW1 2477   1.963   0.605   1.631 -0.6002 -0.5444 -0.3682
  826SOL    HW2 2478   1.815   0.626   1.552 -0.2967  0.9626 -1.0767
  827SOL     OW 2479   0.679   1.238   0.201  0.1481  0.8999  0.1201
  827SOL    HW1 2480   0.781   1.230   0.177  3.4790  2.5329 -2.2857
  827SOL    HW2 2481   0.652   1.169   0.275 -1.1758  0.1216  2.6519
  828SOL     OW 2482   2.609   0.186   1.588  0.6493  0.4852 -0.7902
  828SOL    HW1 2483   2.520   0.167   1.538  2.8178  1.9045 -1.0103
  828SOL    HW2 2484   2.604   0.135   1.679 -1.1848  0.5349  0.3029
  829SOL     OW 2485   2.779   2.477   3.004  0.3688 -0.1172 -0.6291
  829SOL    HW1 2486   2.701   2.405   3.006  1.8700 -0.8122 -1.9128
  829SOL    HW2 2487   2.749   2.572   2.998  0.9182 -1.0884  1.9974
  830SOL     OW 2488   2.800   0.975   3.066 -0.1485 -0.1923  0.3964
  830SOL    HW1 2489   2.886   1.033   3.044  2.2357 -0.2488 -1.0027
  830SOL    HW2 2490   2.827   0.880   3.104  0.3720 -2.6953  1.7965
  831SOL     OW 2491   3.080   0.670   0.400 -0.5562 -0.0450 -0.4741
  831SOL    HW1 2492   3.063   0.596   0.474 -0.9098 -1.3688 -1.1773
  831SOL    HW2 2493   3.113   0.623   0.314  0.8378  1.1416 -2.3403
  832SOL     OW 2494   1.826   0.757   2.975  0.4040  0.3145 -0.1225
  832SOL    HW1 2495   1.727   0.777   2.976  0.1747 -1.5186  2.4339
  832SOL    HW2 2496   1.841   0.655   2.998 -0.9980  0.5984  0.6720
  833SOL     OW 2497   2.419   2.138   0.508 -0.7012 -0.6545 -0.5421
  833SOL    HW1 2498   2.328   2.125   0.464 -0.3564 -1.2636 -0.3272
  833SOL    HW2 2499   2.487   2.062   0.481  0.0946  0.8004  0.8160
  834SOL     OW 2500   0.198   0.222   0.479 -0.3779  0.0347 -0.0654
  834SOL    HW1 2501   0.143   0.163   0.549 -4.1798 -0.4321  1.8167
  834SOL    HW2 2502   0.163   0.225   0.382  0.9273  2.9808  1.5916
  835SOL     OW 2503   2.299   1.566   1.083 -0.0389 -0.1278 -0.1807
  835SOL    HW1 2504   2.231   1.612   1.016 -2.6129  0.7146  2.2823
  835SOL    HW2 2505   2.393   1.545   1.048 -3.0600 -1.0361  0.9556
  836SOL     OW 2506   1.614   0.833   2.600 -0.4227  0.5364  0.2289
  836SOL    HW1 2507   1.514   0.831   2.598 -0.9427 -0.9990  0.3972
  836SOL    HW2 2508   1.653   0.851   2.510 -1.6754  0.7159  0.1615
  837SOL     OW 2509   1.689   0.123   0.528 -0.5043 -0.3571 -0.0121
  837SOL    HW1 2510   1.624   0.177   0.589 -0.8847 -0.4902 -0.3620
  837SOL    HW2 2511   1.667   0.133   0.425 -0.6720  0.7062 -2.5118
  838SOL     OW 2512   1.176   1.539   2.815  0.1812 -0.6738  0.2391
  838SOL    HW1 2513   1.165   1.520   2.916 -0.6519 -0.3214 -0.2016
  838SOL    HW2 2514   1.101   1.501   2.749  0.8244 -1.2248 -1.5760
  839SOL     OW 2515   1.713   0.294   1.017  0.7175 -0.5847 -0.2819
  839SOL    HW1 2516   1.726   0.355   1.099  1.0614 -1.6564  0.3631
  839SOL    HW2 2517   1.652   0.212   1.048 -0.8329 -0.9631 -1.3572
  840SOL     OW 2518   2.598   2.954   1.756  1.4751 -0.1722 -0.5929
  840SOL    HW1 2519   2.558   2.941   1.663 -0.4256  0.9494 -2.1716
  840SOL    HW2 2520   2.598   2.870   1.809 -1.3290  2.0438  0.4715
  841SOL     OW 2521   1.514   0.824   2.988  0.2546 -0.0552 -0.0867
  841SOL    HW1 2522   1.463   0.841   3.074 -1.3212 -0.2404  1.5575
  841SOL    HW2 2523   1.505   0.904   2.927 -0.8138 -0.0617 -0.2085
  842SOL     OW 2524   0.838   1.544   0.946 -0.1917 -0.3805 -0.0317
  842SOL    HW1 2525   0.826   1.628   1.006  2.0659  0.1522 -2.3158
  842SOL    HW2 2526   0.771   1.466   0.957  1.9568  1.2814  0.3166
  843SOL     OW 2527   0.081   0.062   1.445  0.4783  0.1884  0.2701
  843SOL    HW1 2528   0.174   0.100   1.481  0.4486 -0.2648  1.1654
  843SOL    HW2 2529   0.075  -0.039   1.429  0.4445 -0.2054 -1.1447
  844SOL     OW 2530   0.790   2.501   0.309  0.1152 -0.5488  0.1367
  844SOL    HW1 2531   0.733   2.458   0.387  0.1290 -1.5177 -0.9365
  844SOL    HW2 2532   0.749   2.580   0.253 -2.6573 -1.0746  2.7380
  845SOL     OW 2533   1.618   2.901   1.363 -0.1781  0.1462 -0.0083
  845SOL    HW1 2534   1.679   2.937   1.440 -0.5247  0.2149  0.6276
  845SOL    HW2 2535   1.519   2.931   1.368 -0.4329  0.9086 -1.9075
  846SOL     OW 2536   1.542   2.928   0.746  0.2159  0.2341  0.4132
  846SOL    HW1 2537   1.567   2.925   0.650  0.9659  0.2410  3.3004
  846SOL    HW2 2538   1.619   2.957   0.809  0.2287 -2.4817 -0.7894
  847SOL     OW 2539   2.048   1.657   0.297 -0.3288 -0.5540 -0.2743
  847SOL    HW1 2540   1.992   1.573   0.329  1.4990  1.5701  1.5345
  847SOL    HW2 2541   1.996   1.730   0.249  0.6271  0.8158 -0.6974
  848SOL     OW 2542   2.480   0.852   2.593  0.2755 -0.1283  0.4177
  848SOL    HW1 2543   2.444   0.944   2.617  2.5450  1.7453  1.3868
  848SOL    HW2 2544   2.412   0.776   2.614  2.3703 -3.1764 -0.6501
  849SOL     OW 2545   2.591   0.820   2.346 -0.1226  0.6149  0.0029
  849SOL    HW1 2546   2.668   0.758   2.323 -0.9627 -0.8997 -0.2264
  849SOL    HW2 2547   2.559   0.813   2.446 -0.9728 -1.2715 -1.5332
  850SOL     OW 2548   1.529   0.109   1.354 -0.2311 -0.2737 -0.1560
  850SOL    HW1 2549   1.544   0.098   1.255  3.1049  2.1428  1.5310
  850SOL    HW2 2550   1.474   0.036   1.400 -0.1941  1.0351  3.3355
  851SOL     OW 2551   0.446   1.804   0.608 -0.0265 -0.1792  0.3372
  851SOL    HW1 2552   0.459   1.904   0.586 -0.3153  0.2178 -1.9578
  851SOL    HW2 2553   0.518   1.741   0.573 -1.2402  0.5458  0.2731
  852SOL     OW 2554   0.763   2.130   1.684 -0.1966 -0.1175  0.6343
  852SOL    HW1 2555   0.735   2.212   1.626  0.5903  0.8940  1.8155
  852SOL    HW2 2556   0.692   2.127   1.760  2.1914  0.7077 -1.6217
  853SOL     OW 2557   2.555   1.515   2.595 -0.4879  0.4954  0.6190
  853SOL    HW1 2558   2.497   1.436   2.569 -1.9351  1.1948  0.8447
  853SOL    HW2 2559   2.568   1.590   2.522  2.0604  4.3395 -0.1766
  854SOL     OW 2560   2.417   1.431   1.693  0.3960  0.5786 -0.4233
  854SOL    HW1 2561   2.414   1.427   1.591  1.3466  0.5445  1.4345
  854SOL    HW2 2562   2.348   1.362   1.736 -1.8761  2.4877  2.6769
  855SOL     OW 2563   2.068   2.396   0.937  0.6501 -0.6490 -0.1035
  855SOL    HW1 2564   2.050   2.482   0.889 -0.9312 -0.7277  1.6075
  855SOL    HW2 2565   2.112   2.403   1.027  1.8106  0.8186 -0.7971
  856SOL     OW 2566   1.349   1.511   0.902 -0.0144  0.4652 -0.2162
  856SOL    HW1 2567   1.420   1.580   0.936 -0.7458 -2.5645 -0.1334
  856SOL    HW2 2568   1.256   1.532   0.936 -0.7040  2.3952 -0.3689
  857SOL     OW 2569   3.081   2.666   1.024  0.4725 -0.6989  0.0819
  857SOL    HW1 2570   3.034   2.584   0.979  1.4533 -0.5608  1.4665
  857SOL    HW2 2571   3.160   2.705   0.970  2.1748 -0.0124 -0.7507
  858SOL     OW 2572   2.322   2.009   1.745 -0.2345  0.1150  0.6147
  858SOL    HW1 2573   2.240   1.988   1.683  2.3194  1.3132 -0.7846
  858SOL    HW2 2574   2.415   1.965   1.715  0.6443 -3.2025  2.3233
  859SOL     OW 2575   2.490   0.559   1.040 -0.1805  0.0600  0.2980
  859SOL    HW1 2576   2.540   0.619   0.974 -2.1140  1.3006 -0.0954
  859SOL    HW2 2577   2.524   0.463   1.055 -0.4478 -0.1836  0.5737
  860SOL     OW 2578   1.952   2.814   0.433  0.1783 -0.1537  0.6915
  860SOL    HW1 2579   1.889   2.809   0.345 -3.6731 -0.2163 -3.0789
  860SOL    HW2 2580   2.051   2.813   0.405 -0.7410  1.8585  2.7898
  861SOL     OW 2581   1.098   2.475   2.833  0.0132  0.5282 -0.1890
  861SOL    HW1 2582   1.154   2.556   2.801 -2.1438 -0.3180  0.2917
  861SOL    HW2 2583   1.117   2.448   2.929  0.1870  0.8952 -3.0158
  862SOL     OW 2584   2.825   2.573   1.603 -0.0100  0.1090 -0.2338
  862SOL    HW1 2585   2.910   2.593   1.661 -0.4443 -1.6006  1.1901
  862SOL    HW2 2586   2.818   2.643   1.524  2.4996 -1.8048 -0.4224
  863SOL     OW 2587   1.853   2.711   0.168 -0.2743 -0.0845 -0.1256
  863SOL    HW1 2588   1.921   2.633   0.180 -0.8297 -0.3376 -0.3852
  863SOL    HW2 2589   1.761   2.683   0.204  0.9792  1.5250 -1.5732
  864SOL     OW 2590   1.906   1.195   2.861 -0.1048  0.0374  0.3953
  864SOL    HW1 2591   1.906   1.152   2.766 -1.6636 -0.6577  1.5911
  864SOL    HW2 2592   1.986   1.160   2.919  0.8558  1.2168 -2.0498
  865SOL     OW 2593   2.233   1.835   0.605  0.5121  0.8839 -0.3293
  865SOL    HW1 2594   2.288   1.868   0.686 -0.5105 -1.5058 -0.1551
  865SOL    HW2 2595   2.137   1.797   0.623  0.3757 -1.0845 -1.7152
  866SOL     OW 2596   2.931   2.924   1.022  0.5360  0.3705 -0.0990
  866SOL    HW1 2597   2.941   2.978   0.932 -0.9063  1.3768  1.2185
  866SOL    HW2 2598   2.976   2.830   1.013  1.9239 -1.9936 -0.3978
  867SOL     OW 2599   0.323   1.342   0.903 -0.0991 -0.0132 -0.0991
  867SOL    HW1 2600   0.344   1.281   0.816  2.3600  0.5161 -0.8909
  867SOL    HW2 2601   0.291   1.432   0.876  2.0330 -0.4738  0.5296
  868SOL     OW 2602   0.727   1.869   1.996  0.3808 -0.2332  0.8038
  868SOL    HW1 2603   0.727   1.871   2.097 -0.7909 -0.5126 -0.0749
  868SOL    HW2 2604   0.666   1.947   1.955 -1.8127  0.3301  1.7290
  869SOL     OW 2605   2.575   1.944   1.601  0.1734  0.2667 -0.1132
  869SOL    HW1 2606   2.645   2.012   1.620 -1.7000 -0.4086  2.0311
  869SOL    HW2 2607   2.611   1.848   1.581  0.2759  0.5436 -0.4378
  870SOL     OW 2608   2.247   2.657   1.266  0.9011  0.6648  0.3333
  870SOL    HW1 2609   2.231   2.564   1.224 -0.8070 -1.5135 -2.1541
  870SOL    HW2 2610   2.187   2.664   1.344 -0.7183 -1.5984 -2.5041
  871SOL     OW 2611   3.031   2.201   0.542  0.0009 -0.0932  0.1846
  871SOL    HW1 2612   2.985   2.254   0.618  0.5162  0.4427 -0.0695
  871SOL    HW2 2613   2.977   2.209   0.455 -0.9927 -1.9198  2.1604
  872SOL     OW 2614   2.118   0.492   1.667 -0.1691 -0.2862 -0.6517
  872SOL    HW1 2615   2.086   0.483   1.767 -1.1618 -0.4947 -0.3094
  872SOL    HW2 2616   2.210   0.448   1.649  0.6503 -0.9928  2.3743
  873SOL     OW 2617   1.713   2.134   3.037  0.2063 -0.0058  0.5984
  873SOL    HW1 2618   1.627   2.144   3.095  0.2171 -0.1776  0.7724
  873SOL    HW2 2619   1.691   2.118   2.936 -2.5699  0.5643  2.2035
  874SOL     OW 2620   0.669   2.443   0.749 -0.9751  0.2149  0.4900
  874SOL    HW1 2621   0.662   2.538   0.794 -3.1165 -1.6468 -2.2111
  874SOL    HW2 2622   0.768   2.411   0.747  0.7921 -0.1565 -1.1172
  875SOL     OW 2623   2.334   1.525   1.418 -0.2582  0.7714  0.4878
  875SOL    HW1 2624   2.432   1.547   1.441  0.7382  1.0071  1.2898
  875SOL    HW2 2625   2.313   1.540   1.313 -0.6278  1.4560 -3.3119
  876SOL     OW 2626   0.092   2.233   2.768  0.3948  0.0519  0.2159
  876SOL    HW1 2627   0.169   2.168   2.779  0.2768  0.5130  3.6603
  876SOL    HW2 2628   0.120   2.324   2.800 -1.3712 -2.7509 -1.5310
  877SOL     OW 2629   2.914   2.660   0.579  0.0487 -0.1769  0.1410
  877SOL    HW1 2630   2.919   2.763   0.604 -0.9854  2.2729  0.9290
  877SOL    HW2 2631   2.957   2.600   0.651 -0.4498 -0.5463 -0.3388
  878SOL     OW 2632   2.770   1.497   2.232  0.2669  0.2963 -0.2208
  878SOL    HW1 2633   2.868   1.471   2.251  0.6405  0.3515 -0.2744
  878SOL    HW2 2634   2.722   1.529   2.316  0.0576 -0.3826 -2.7074
  879SOL     OW 2635   2.372   0.098   1.232 -0.0874  0.1335 -0.5340
  879SOL    HW1 2636   2.440   0.018   1.232 -0.4026  0.2448 -0.2470
  879SOL    HW2 2637   2.282   0.074   1.184 -1.2205 -1.2900 -0.3028
  880SOL     OW 2638   0.730   0.495   2.251 -0.3901 -0.2314  0.9654
  880SOL    HW1 2639   0.675   0.445   2.324  2.0485 -0.4556 -0.2805
  880SOL    HW2 2640   0.791   0.431   2.193 -0.1961 -0.1786  0.7124
  881SOL     OW 2641   0.853   0.054   0.478 -0.4092  0.0460  0.0244
  881SOL    HW1 2642   0.908  -0.035   0.495  4.5134  0.0156  0.1479
  881SOL    HW2 2643   0.761   0.051   0.431 -2.0042  1.3895 -4.0229
  882SOL     OW 2644   2.711   1.698   1.709  0.0795  0.2897  0.0847
  882SOL    HW1 2645   2.799   1.645   1.674 -0.4655 -0.5309 -0.0522
  882SOL    HW2 2646   2.707   1.684   1.811  1.4738 -0.1643 -2.2493
  883SOL     OW 2647   0.922   0.567   0.967 -0.0969  0.0976  0.5876
  883SOL    HW1 2648   0.908   0.658   1.018 -0.6380  1.1228  0.0508
  883SOL    HW2 2649   0.929   0.483   1.031  3.4498 -0.8467  2.5389
  884SOL     OW 2650   1.199   1.756   1.161 -0.2800  0.4612 -0.6993
  884SOL    HW1 2651   1.167   1.688   1.093 -0.3794 -1.4332 -0.1858
  884SOL    HW2 2652   1.193   1.861   1.127  2.1834  4.5360 -1.6862
  885SOL     OW 2653   2.326   1.774   2.294  0.5990  0.1302 -0.2275
  885SOL    HW1 2654   2.249   1.740   2.358  0.4211  2.9609  1.1078
  885SOL    HW2 2655   2.317   1.870   2.256  1.9314 -2.4302  1.6534
  886SOL     OW 2656   2.606   0.401   1.789  0.1611  0.1878  0.0157
  886SOL    HW1 2657   2.648   0.319   1.829  0.7780  1.3889 -0.5316
  886SOL    HW2 2658   2.670   0.484   1.786 -0.4247  2.5525 -0.2961
  887SOL     OW 2659   0.093   2.018   1.331 -0.2346  0.7316 -0.4412
  887SOL    HW1 2660   0.009   1.961   1.303 -0.2443  0.7421 -1.8173
  887SOL    HW2 2661   0.095   2.114   1.290 -2.5829  0.2782 -0.3360
  888SOL     OW 2662   0.579   1.228   1.540  0.0380  0.5907  0.3054
  888SOL    HW1 2663   0.620   1.264   1.454 -1.0141  0.2798  1.7580
  888SOL    HW2 2664   0.522   1.145   1.519  2.4804 -2.7703 -0.5354
  889SOL     OW 2665   0.830   2.474   2.177  0.1839  0.3313  0.0127
  889SOL    HW1 2666   0.775   2.390   2.197  0.4950 -1.3509 -0.3915
  889SOL    HW2 2667   0.892   2.476   2.091  0.9500 -0.7455 -2.3794
  890SOL     OW 2668   2.420   2.423   0.206  0.0817 -0.1703 -0.5315
  890SOL    HW1 2669   2.479   2.503   0.180  0.6734  0.8649 -0.2567
  890SOL    HW2 2670   2.346   2.447   0.274 -1.2960 -2.9863  0.2453
  891SOL     OW 2671   2.553   1.711   0.731 -0.6191 -0.3800  0.1285
  891SOL    HW1 2672   2.546   1.730   0.833  1.6260  1.9055 -1.9424
  891SOL    HW2 2673   2.468   1.665   0.694  3.6035 -0.6018 -0.0964
  892SOL     OW 2674   0.363   0.324   2.226  0.4852  0.0932 -0.4578
  892SOL    HW1 2675   0.366   0.381   2.140 -1.8820  1.5565 -1.0574
  892SOL    HW2 2676   0.437   0.344   2.292 -0.3404  0.2176 -2.1865
  893SOL     OW 2677   1.697   0.268   2.747 -0.4638  0.2567  0.3980
  893SOL    HW1 2678   1.764   0.342   2.772 -1.7236  1.3975  1.0447
  893SOL    HW2 2679   1.604   0.310   2.723 -2.0266  1.4956  0.2731
  894SOL     OW 2680   2.117   2.027   0.011  0.3136 -0.4540  0.1381
  894SOL    HW1 2681   2.070   1.992  -0.072 -0.1769  1.0689 -1.5297
  894SOL    HW2 2682   2.147   1.947   0.066 -2.0483  0.6623 -2.4022
  895SOL     OW 2683   2.792   1.423   0.924 -0.6063  0.0906 -0.4775
  895SOL    HW1 2684   2.861   1.365   0.970 -2.3643 -2.9856  0.8561
  895SOL    HW2 2685   2.812   1.529   0.926 -0.3028 -0.0674  1.7050
  896SOL     OW 2686   1.781   1.815   1.214 -0.0617  0.2694  0.5313
  896SOL    HW1 2687   1.802   1.747   1.137 -0.3998 -0.1398 -1.1260
  896SOL    HW2 2688   1.694   1.868   1.202  0.6621 -0.6171  0.8633
  897SOL     OW 2689   0.349   0.525   3.097 -0.1466 -0.3224  0.6778
  897SOL    HW1 2690   0.299   0.582   3.023  3.2210 -2.8626  0.2513
  897SOL    HW2 2691   0.447   0.549   3.112 -0.7489 -2.9817  1.0013
  898SOL     OW 2692   0.551   2.864   1.078 -0.0045  0.1195 -0.1511
  898SOL    HW1 2693   0.521   2.958   1.108 -1.8139  0.0613  0.8572
  898SOL    HW2 2694   0.617   2.829   1.151 -1.9956 -1.3478  0.1955
  899SOL     OW 2695   2.827   0.920   1.283 -0.3227 -0.4162  0.0825
  899SOL    HW1 2696   2.759   0.893   1.209  1.3558  0.7795 -2.4588
  899SOL    HW2 2697   2.916   0.958   1.245 -1.4761  1.4550 -1.6715
  900SOL     OW 2698   0.956   2.525   2.417  0.0377 -0.0349 -0.0520
  900SOL    HW1 2699   0.868   2.525   2.363 -0.9026  0.8283 -1.0012
  900SOL    HW2 2700   0.949   2.489   2.519 -0.7861 -1.7930 -0.0782
  901SOL     OW 2701   1.919   2.343   1.373  0.1252 -0.1129 -0.3658
  901SOL    HW1 2702   1.893   2.296   1.282  0.9931  0.3656  0.2125
  901SOL    HW2 2703   2.007   2.307   1.409 -3.0059 -0.6466  0.8175
  902SOL     OW 2704   2.581   1.649   1.458 -0.2583 -0.0844  0.3981
  902SOL    HW1 2705   2.629   1.635   1.547  0.1873  1.9512  0.6045
  902SOL    HW2 2706   2.649   1.643   1.377  2.3194  0.8845 -1.0405
  903SOL     OW 2707   0.251   2.470   1.966  0.8296  0.1421  0.4860
  903SOL    HW1 2708   0.166   2.417   1.939 -0.7711 -0.5511 -2.3085
  903SOL    HW2 2709   0.292   2.529   1.889 -0.4945  0.7469 -0.9853
  904SOL     OW 2710   2.038   0.820   2.503  0.0771  0.0615 -0.5526
  904SOL    HW1 2711   1.966   0.773   2.566  0.5365 -0.9124 -0.1394
  904SOL    HW2 2712   2.019   0.789   2.408  0.4496 -1.0768 -0.5314
  905SOL     OW 2713   2.833   0.088   2.557 -0.7683 -0.3339 -0.0518
  905SOL    HW1 2714   2.904   0.012   2.564 -0.2589 -0.7084 -0.6238
  905SOL    HW2 2715   2.881   0.181   2.537 -3.0379  2.3535 -0.9458
  906SOL     OW 2716   0.193   1.705   1.934 -0.2223  0.1575  0.1641
  906SOL    HW1 2717   0.121   1.717   1.856 -2.7861  0.8584 -0.1137
  906SOL    HW2 2718   0.284   1.761   1.926 -1.2860  4.4445  1.7531
  907SOL     OW 2719   0.249   2.462   1.028 -0.2834  0.3647 -0.3638
  907SOL    HW1 2720   0.349   2.461   1.005 -0.3156 -0.6387 -0.1195
  907SOL    HW2 2721   0.206   2.380   0.981 -0.4607 -1.7099  2.0515
  908SOL     OW 2722   2.753   2.982   0.369 -0.8641 -0.1235  0.2235
  908SOL    HW1 2723   2.712   3.041   0.288  1.0496  1.3107 -1.6312
  908SOL    HW2 2724   2.831   2.926   0.333  0.4990  1.1868  1.2032
  909SOL     OW 2725   0.775   1.033   2.648 -0.0179 -0.2265 -0.1326
  909SOL    HW1 2726   0.720   0.956   2.607  0.4176  0.4529  2.4104
  909SOL    HW2 2727   0.859   1.050   2.594 -0.3595 -2.8237  1.3438
  910SOL     OW 2728   1.744   1.884   2.175 -0.5221 -0.1371 -0.0795
  910SOL    HW1 2729   1.786   1.921   2.089 -0.3639  0.6623 -0.6438
  910SOL    HW2 2730   1.676   1.948   2.210 -0.1335  0.7319  1.1273
  911SOL     OW 2731   1.810   2.938   1.584 -0.0586  0.1203 -0.7921
  911SOL    HW1 2732   1.895   2.932   1.521  1.4854 -0.0681  1.6824
  911SOL    HW2 2733   1.806   2.856   1.649 -0.9346 -1.0082 -0.1858
  912SOL     OW 2734   2.845   1.003   0.701 -0.3615  0.1337 -0.3439
  912SOL    HW1 2735   2.853   0.963   0.797 -0.1420 -0.9570 -2.2366
  912SOL    HW2 2736   2.795   1.097   0.715  0.7924  1.8233  2.5756
  913SOL     OW 2737   2.585   1.268   1.495  0.6690 -0.3159 -0.3095
  913SOL    HW1 2738   2.607   1.164   1.503 -3.5199 -2.8694 -1.7228
  913SOL    HW2 2739   2.654   1.318   1.437  0.4823 -1.5020  0.3637
  914SOL     OW 2740   2.818   0.616   1.228  0.6426 -0.3260  0.3497
  914SOL    HW1 2741   2.785   0.517   1.224 -0.0229 -0.9674 -2.6560
  914SOL    HW2 2742   2.826   0.665   1.320  0.1769  0.2375  0.3690
  915SOL     OW 2743   1.185   0.767   1.092  0.6835  0.6488 -0.0462
  915SOL    HW1 2744   1.252   0.780   1.175  2.3673 -2.0333  2.1789
  915SOL    HW2 2745   1.091   0.804   1.109 -2.1394 -0.5573  0.8773
  916SOL     OW 2746   0.596   0.009   0.665 -0.7051 -0.4334  0.7347
  916SOL    HW1 2747   0.624   0.098   0.717 -0.2935 -0.5415 -1.0489
  916SOL    HW2 2748   0.575   0.029   0.566 -0.9084  0.4391  1.5684
  917SOL     OW 2749   2.818   2.620   1.979 -0.6254  0.2665 -0.0390
  917SOL    HW1 2750   2.715   2.627   1.962 -0.5763 -2.0128 -1.4370
  917SOL    HW2 2751   2.876   2.687   1.918  0.6016  1.9499 -0.7864
  918SOL     OW 2752   1.029   2.149   3.056  0.2508  0.8518 -0.0721
  918SOL    HW1 2753   0.975   2.200   3.131 -0.6159  0.1648  0.2404
  918SOL    HW2 2754   1.134   2.153   3.049  1.0259 -2.4059  1.1799
  919SOL     OW 2755   0.849   1.649   2.885 -0.2051  0.2368 -0.2889
  919SOL    HW1 2756   0.885   1.701   2.800  0.7942  2.4071 -0.6387
  919SOL    HW2 2757   0.813   1.555   2.855  0.8991 -0.5215  0.0404
  920SOL     OW 2758   1.197   1.847   2.473 -0.0726  0.0668 -1.3508
  920SOL    HW1 2759   1.282   1.804   2.430  1.3161  0.9447 -2.0740
  920SOL    HW2 2760   1.162   1.809   2.562 -0.1958  0.5672 -0.9196
  921SOL     OW 2761   1.039   0.027   2.622 -0.2263  0.2286  0.2008
  921SOL    HW1 2762   1.011  -0.001   2.529  1.4235 -0.3219  1.4130
  921SOL    HW2 2763   0.961   0.018   2.690 -2.4922 -3.8121  2.4590
  922SOL     OW 2764   2.125   2.392   2.781 -0.1129  0.3945 -0.0978
  922SOL    HW1 2765   2.203   2.320   2.788 -0.3991 -3.4453  0.3975
  922SOL    HW2 2766   2.097   2.414   2.681 -2.2578  0.5582 -0.2646
  923SOL     OW 2767   1.266   2.684   0.271 -0.2183  0.3397  0.0844
  923SOL    HW1 2768   1.329   2.766   0.301 -0.5438  1.3528 -0.2931
  923SOL    HW2 2769   1.313   2.589   0.280  1.2498  0.2593  1.0080
  924SOL     OW 2770   2.857   1.538   0.154 -0.1408 -0.3526 -0.1554
  924SOL    HW1 2771   2.796   1.557   0.069 -0.9697 -2.2694  0.2180
  924SOL    HW2 2772   2.958   1.539   0.132  0.4024 -0.8572 -0.3623
  925SOL     OW 2773   3.089   2.890   1.523  0.3416  0.4324 -0.0420
  925SOL    HW1 2774   3.014   2.948   1.570 -1.1789  3.0150  1.6961
  925SOL    HW2 2775   3.045   2.803   1.490 -1.0920 -1.2834  4.9094
  926SOL     OW 2776   1.303   2.801   1.255 -0.0757 -0.1639 -0.4045
  926SOL    HW1 2777   1.388   2.799   1.195 -0.0048  2.4696  0.2758
  926SOL    HW2 2778   1.308   2.880   1.323  1.2253  1.6713 -0.3956
  927SOL     OW 2779   0.328   2.658   1.761 -0.2374 -0.2173 -0.5392
  927SOL    HW1 2780   0.284   2.599   1.683 -1.5128 -0.6134 -1.6379
  927SOL    HW2 2781   0.291   2.753   1.760 -1.7272 -0.2024  0.3983
  928SOL     OW 2782   1.529   2.052   2.283 -0.2215  0.4205 -0.0675
  928SOL    HW1 2783   1.572   2.132   2.234  1.4470 -1.3509  1.0334
  928SOL    HW2 2784   1.427   2.053   2.293 -2.4819 -2.1472 -0.7020
  929SOL     OW 2785   2.418   2.484   2.863 -0.0415 -0.0607 -0.2403
  929SOL    HW1 2786   2.319   2.493   2.827 -0.8476  1.3013 -2.7594
  929SOL    HW2 2787   2.493   2.462   2.793  0.9838 -1.0109 -0.5394
  930SOL     OW 2788   2.218   2.023   1.079 -0.1306  0.1060  0.0757
  930SOL    HW1 2789   2.204   1.967   1.164  1.3492  0.1524 -3.1817
  930SOL    HW2 2790   2.289   2.099   1.084  2.2885  0.0765 -1.2344
  931SOL     OW 2791   0.546   1.714   2.735  0.0519  0.4352 -0.3354
  931SOL    HW1 2792   0.552   1.750   2.830 -1.2531 -3.6229  2.2165
  931SOL    HW2 2793   0.589   1.620   2.721  2.1584 -1.5916  1.6176
  932SOL     OW 2794   0.462   0.147   2.979 -0.6502  0.0423 -0.5012
  932SOL    HW1 2795   0.543   0.196   3.005 -2.0438 -2.9084 -2.8422
  932SOL    HW2 2796   0.481   0.045   3.001  0.3390  0.1969 -2.4285
  933SOL     OW 2797   1.000   0.813   3.053 -0.2695  0.6344  0.0150
  933SOL    HW1 2798   0.995   0.835   3.155 -1.2974 -0.3107 -1.6501
  933SOL    HW2 2799   0.966   0.886   2.987  0.4948  0.8334 -0.7668
  934SOL     OW 2800   0.782   2.970   2.637  0.1646 -0.0581 -0.2334
  934SOL    HW1 2801   0.787   2.899   2.562 -1.7501 -0.8661 -1.8862
  934SOL    HW2 2802   0.843   2.942   2.720  0.5778  1.6424  2.0158
  935SOL     OW 2803   0.022   0.571   0.836  0.2979 -0.1420  0.5753
  935SOL    HW1 2804   0.002   0.547   0.738 -3.1066  0.3014 -3.1084
  935SOL    HW2 2805  -0.060   0.612   0.888  1.7996  1.8823  2.3106
  936SOL     OW 2806   1.095   2.804   0.081 -0.6229  1.0000  0.1502
  936SOL    HW1 2807   1.164   2.856   0.022 -1.9407  0.8705  0.0134
  936SOL    HW2 2808   1.148   2.743   0.149 -0.9098 -2.2426  1.0045
  937SOL     OW 2809   1.905   2.627   2.100  0.0959 -0.0688 -0.2363
  937SOL    HW1 2810   1.850   2.696   2.050  2.7504 -4.1604 -2.1063
  937SOL    HW2 2811   2.006   2.638   2.069  1.8102 -0.9631  1.5412
  938SOL     OW 2812   2.787   2.117   1.611  0.1389 -0.1185 -0.2438
  938SOL    HW1 2813   2.776   2.218   1.604  0.3828 -0.7940  0.9107
  938SOL    HW2 2814   2.884   2.087   1.638 -0.5891  1.6169  0.4481
  939SOL     OW 2815   2.875   1.205   2.427 -0.5899 -0.1538  0.3851
  939SOL    HW1 2816   2.916   1.195   2.330 -0.7938  1.5062 -0.1174
  939SOL    HW2 2817   2.930   1.155   2.501 -3.0273  2.0330  3.4735
  940SOL     OW 2818   1.033   0.398   2.721  0.0061 -0.1539  0.0892
  940SOL    HW1 2819   1.103   0.324   2.731 -0.2334  3.2669  0.0153
  940SOL    HW2 2820   0.953   0.366   2.666  1.7443  1.4747 -1.5074
  941SOL     OW 2821   0.052   2.774   2.256 -0.1973 -0.7553 -0.3279
  941SOL    HW1 2822   0.111   2.687   2.246 -0.8577 -0.0470 -3.3461
  941SOL    HW2 2823   0.100   2.849   2.319  1.3978  2.1974  1.7412
  942SOL     OW 2824   0.133   0.095   2.558 -0.4312  0.5815 -0.1283
  942SOL    HW1 2825   0.170   0.128   2.648 -0.9323 -0.8546  1.8046
  942SOL    HW2 2826   0.135   0.169   2.491  0.3913  0.6718  1.2977
  943SOL     OW 2827   2.089   1.673   2.418 -0.2450 -0.3588  0.1266
  943SOL    HW1 2828   2.086   1.628   2.329 -1.8421 -1.0058  1.5822
  943SOL    HW2 2829   2.104   1.596   2.486 -0.9466  0.3265 -0.7125
  944SOL     OW 2830   2.182   2.335   1.473  0.3805  0.4220  0.3044
  944SOL    HW1 2831   2.245   2.399   1.522  0.8799  1.8603 -0.3668
  944SOL    HW2 2832   2.151   2.260   1.534 -1.8668 -0.3076 -0.9504
  945SOL     OW 2833   0.667   1.497   0.243 -0.1153  0.2691  0.2734
  945SOL    HW1 2834   0.616   1.548   0.168  0.8582  1.4893  0.8370
  945SOL    HW2 2835   0.666   1.394   0.233  0.9779 -0.8812 -0.2248
  946SOL     OW 2836   0.408   0.924   2.443  0.0313  0.0363 -0.7491
  946SOL    HW1 2837   0.321   0.884   2.398 -1.5860 -1.4661 -0.0074
  946SOL    HW2 2838   0.396   1.019   2.484 -0.8451  2.6383  1.2693
  947SOL     OW 2839   1.523   0.509   3.075 -0.8646 -0.7250 -0.0532
  947SOL    HW1 2840   1.496   0.545   2.988  0.7022 -2.2934  2.3858
  947SOL    HW2 2841   1.442   0.456   3.118  1.4649 -0.8339  0.7310
  948SOL     OW 2842   1.859   3.040   2.147  0.7125 -0.6743  0.0737
  948SOL    HW1 2843   1.875   2.974   2.071  1.8926  0.7409 -0.7940
  948SOL    HW2 2844   1.845   2.995   2.241  1.2350  2.9968  1.3324
  949SOL     OW 2845   0.603   2.475   0.501 -0.5104  0.4667  0.2728
  949SOL    HW1 2846   0.623   2.575   0.482  0.9535 -2.0236 -1.2085
  949SOL    HW2 2847   0.639   2.454   0.597  0.1020 -4.1335 -1.8062
  950SOL     OW 2848   0.211   2.213   3.049  0.5028 -0.1153 -0.6515
  950SOL    HW1 2849   0.117   2.255   3.036 -2.3208 -2.2979  0.0784
  950SOL    HW2 2850   0.235   2.158   2.964  0.0040  0.1844  0.1805
  951SOL     OW 2851   1.252   2.696   2.737  0.4213 -0.0897 -0.3140
  951SOL    HW1 2852   1.340   2.659   2.773  0.8925  3.5858 -0.7572
  951SOL    HW2 2853   1.256   2.722   2.637 -1.9598  0.5553 -2.7614
  952SOL     OW 2854   0.014   1.704   0.380  0.0792 -1.1076  0.1868
  952SOL    HW1 2855   0.084   1.779   0.366 -1.0927 -1.9668  1.3336
  952SOL    HW2 2856   0.042   1.636   0.444 -3.5148  5.8022 -0.7178
  953SOL     OW 2857   2.536   1.783   0.225 -0.0537  0.1071  0.4204
  953SOL    HW1 2858   2.525   1.675   0.219 -0.8539 -0.5701  4.2189
  953SOL    HW2 2859   2.543   1.831   0.134  1.0167  0.4417  1.2447
  954SOL     OW 2860   2.238   0.550   0.927  0.3203  0.2412  0.2417
  954SOL    HW1 2861   2.225   0.596   0.834 -1.7665  2.9049  0.7109
  954SOL    HW2 2862   2.338   0.548   0.954  0.9069  1.2201 -0.7289
  955SOL     OW 2863   0.159   2.594   1.291 -0.6480  0.1813 -0.0344
  955SOL    HW1 2864   0.069   2.619   1.329  0.4609 -2.4408  0.2009
  955SOL    HW2 2865   0.174   2.625   1.191  0.8374  1.2895 -2.6372
  956SOL     OW 2866   2.818   2.449   2.489 -0.5039  0.2811 -0.8193
  956SOL    HW1 2867   2.813   2.353   2.456  2.0615 -0.4311  1.1543
  956SOL    HW2 2868   2.836   2.524   2.413 -3.5623  2.3335  0.2103
  957SOL     OW 2869   1.631   2.059   2.788 -0.8681 -0.0279  0.0636
  957SOL    HW1 2870   1.595   1.963   2.777 -1.6087 -1.3609  2.9193
  957SOL    HW2 2871   1.654   2.098   2.696 -0.9924 -1.0967 -1.1748
  958SOL     OW 2872   2.564   2.308   2.994  0.4550 -0.6186  0.0292
  958SOL    HW1 2873   2.485   2.357   2.946 -1.1761 -1.2263  4.4626
  958SOL    HW2 2874   2.528   2.267   3.083  3.0994  1.3319  1.3062
  959SOL     OW 2875   0.251   2.818   0.054 -0.1981  0.2254  0.2264
  959SOL    HW1 2876   0.187   2.777  -0.016  0.4435  1.4820 -1.6963
  959SOL    HW2 2877   0.281   2.754   0.127 -0.0383  0.9003  0.6977
  960SOL     OW 2878   2.039   0.487   1.947  0.5873  0.0493  0.1561
  960SOL    HW1 2879   1.958   0.550   1.913 -1.4809 -0.9379  0.9911
  960SOL    HW2 2880   2.065   0.509   2.045  0.1957  1.3450  1.6507
  961SOL     OW 2881   2.567   1.841   1.000 -0.2018 -0.6523 -0.0144
  961SOL    HW1 2882   2.613   1.934   1.008 -0.5553 -1.9884  2.0918
  961SOL    HW2 2883   2.521   1.807   1.089  1.2769  0.1489  3.3832
  962SOL     OW 2884   1.314   0.959   0.044 -0.1980  0.1116  0.4161
  962SOL    HW1 2885   1.257   0.946  -0.044 -0.4660  0.9625  0.0514
  962SOL    HW2 2886   1.276   1.005   0.127  1.4718 -1.3622 -1.2312
  963SOL     OW 2887   2.223   2.572   1.830  0.0947  0.0706 -0.1348
  963SOL    HW1 2888   2.203   2.472   1.862  0.5158  1.4003  0.2439
  963SOL    HW2 2889   2.246   2.632   1.910  0.8866 -2.4564 -1.9607
  964SOL     OW 2890   2.359   0.371   1.682  0.3819 -0.4256  0.2119
  964SOL    HW1 2891   2.453   0.395   1.724  0.0582 -0.3202 -1.7565
  964SOL    HW2 2892   2.372   0.331   1.583  0.6371 -1.3730 -0.4662
  965SOL     OW 2893   2.626   3.076   0.128 -0.0965 -0.0213 -0.2171
  965SOL    HW1 2894   2.693   3.059   0.050  1.3918  1.2101  0.5464
  965SOL    HW2 2895   2.519   3.071   0.106 -2.6949  0.9224 -0.9032
  966SOL     OW 2896   2.628   2.568   2.192 -0.5381 -0.3671  0.2075
  966SOL    HW1 2897   2.646   2.649   2.250 -1.1858 -1.5334  0.4315
  966SOL    HW2 2898   2.553   2.588   2.124  1.5433 -0.1081 -2.1768
  967SOL     OW 2899   2.810   2.820   2.499 -0.0705 -0.5430  0.1403
  967SOL    HW1 2900   2.844   2.776   2.412  0.0898  0.1645 -1.0380
  967SOL    HW2 2901   2.862   2.908   2.525  0.1108  0.2895  0.4607
  968SOL     OW 2902   1.901   1.024   2.625 -0.4030 -0.2619 -0.1891
  968SOL    HW1 2903   1.823   1.068   2.580  2.6234  0.2512  2.0828
  968SOL    HW2 2904   1.964   0.970   2.564  2.4428 -0.8870 -0.1673
  969SOL     OW 2905   2.846   2.440   1.125 -0.3360  0.0130 -0.4776
  969SOL    HW1 2906   2.800   2.433   1.033 -2.1118  2.1661 -0.1002
  969SOL    HW2 2907   2.839   2.354   1.186 -1.0919 -1.0896  0.5986
  970SOL     OW 2908   1.025   2.101   1.825  0.0572  0.2011 -0.1419
  970SOL    HW1 2909   0.945   2.095   1.756 -0.3239  1.7072  0.2966
  970SOL    HW2 2910   1.007   2.157   1.913  1.0193  1.0673  0.1220
  971SOL     OW 2911   2.914   2.085   1.923 -0.5267 -0.1429 -0.6842
  971SOL    HW1 2912   2.906   2.187   1.920 -2.3075  2.1199  0.2242
  971SOL    HW2 2913   2.966   2.041   1.839 -0.5753 -3.8964 -1.7743
  972SOL     OW 2914   1.983   2.480   0.220  0.2273 -0.2669 -0.2484
  972SOL    HW1 2915   1.958   2.398   0.162  2.4864  1.6470 -0.1268
  972SOL    HW2 2916   2.019   2.444   0.314 -0.5027  0.9102 -1.5351
  973SOL     OW 2917   1.282   1.012   1.907  0.0976 -0.4296 -0.1040
  973SOL    HW1 2918   1.214   1.008   1.829  0.9411 -0.1884 -1.0846
  973SOL    HW2 2919   1.270   1.094   1.973  0.5625 -0.4262  1.1842
  974SOL     OW 2920   1.601   0.568   1.986 -0.4223 -0.2876 -0.4259
  974SOL    HW1 2921   1.695   0.595   1.950  0.6788  1.4694 -1.6009
  974SOL    HW2 2922   1.528   0.639   1.960  2.2932  4.0193 -0.2671
  975SOL     OW 2923   2.371   3.051   0.063  0.2959 -0.0580 -0.3858
  975SOL    HW1 2924   2.302   2.976   0.084 -0.3221  2.7567  2.8094
  975SOL    HW2 2925   2.378   3.080  -0.038 -0.6151  0.2072 -0.2838
  976SOL     OW 2926   1.920   2.861   2.377 -0.2045  0.0335 -0.1027
  976SOL    HW1 2927   1.841   2.809   2.333  0.4477  0.5675 -0.0500
  976SOL    HW2 2928   1.947   2.819   2.470 -0.5039 -2.4131  2.0693
  977SOL     OW 2929   0.428   0.646   1.005 -0.6818  0.0751  0.5907
  977SOL    HW1 2930   0.355   0.668   0.936 -0.3932 -1.5485 -2.5650
  977SOL    HW2 2931   0.525   0.651   0.976 -1.3177 -0.4693 -1.9241
   3.10000   3.10000   3.10000
