1000 SPC/Fw water molecules t=   0.13000 step= 130
 2931
    1SOL     OW    1   2.532   0.346   2.585  0.3763 -0.7696 -0.1303
    1SOL    HW1    2   2.528   0.249   2.551  0.2146  1.1643 -3.1080
    1SOL    HW2    3   2.586   0.358   2.675 -0.9929 -2.0740 -1.6456
    2SOL     OW    4   2.728   3.010   1.425 -0.2968 -0.1600  0.0719
    2SOL    HW1    5   2.804   3.047   1.360  1.6275  0.3550  1.2969
    2SOL    HW2    6   2.673   3.088   1.458 -1.6688 -1.5045 -1.2239
    3SOL     OW    7   2.711   2.587   0.435  0.4535 -0.3559 -0.3035
    3SOL    HW1    8   2.665   2.493   0.426  5.0806 -2.6206 -2.3148
    3SOL    HW2    9   2.777   2.586   0.515 -1.5423 -3.4410  0.7448
    4SOL     OW   10   1.323   1.456   2.324  0.1672  0.2883  0.0244
    4SOL    HW1   11   1.241   1.487   2.381 -0.3688  0.3523  1.1853
    4SOL    HW2   12   1.349   1.357   2.343  2.2604 -1.6215  1.4071
    5SOL     OW   13   1.196   1.489   3.063 -0.1453 -0.0066  0.2410
    5SOL    HW1   14   1.243   1.577   3.100 -1.0631  3.1941  0.6993
    5SOL    HW2   15   1.094   1.506   3.040 -0.1583 -1.4628 -2.3188
    6SOL     OW   16   0.129   1.873   2.947 -0.2672 -0.0555 -0.2181
    6SOL    HW1   17   0.111   1.935   3.025  0.2604  2.1582 -1.5698
    6SOL    HW2   18   0.087   1.780   2.969 -1.5465 -2.6753  2.2611
    7SOL     OW   19   2.609   0.803   1.168 -0.0572 -0.0918 -0.2940
    7SOL    HW1   20   2.514   0.764   1.184 -1.1345  0.5313  0.9219
    7SOL    HW2   21   2.631   0.790   1.071  1.9827  0.8587  0.5107
    8SOL     OW   22   0.460   0.685   1.547  0.1139  0.2119 -0.1886
    8SOL    HW1   23   0.500   0.595   1.586  2.6743 -1.2588  3.4677
    8SOL    HW2   24   0.395   0.666   1.467  0.4206  0.5436 -0.6228
    9SOL     OW   25   1.169   0.910   2.271  0.7546  0.1447 -0.0198
    9SOL    HW1   26   1.199   0.996   2.219 -1.2119  1.6933  3.5503
    9SOL    HW2   27   1.081   0.874   2.232 -1.8006 -0.8996 -3.1496
   10SOL     OW   28   0.636   1.346   1.299  0.6739 -0.2732 -0.6005
   10SOL    HW1   29   0.556   1.382   1.237 -1.4760  4.0288 -1.1967
   10SOL    HW2   30   0.715   1.408   1.304  0.1706 -1.2497 -2.1863
   11SOL     OW   31   2.294   2.566   0.921 -0.4289  0.2133  0.4559
   11SOL    HW1   32   2.314   2.605   1.013  0.9286  0.4584 -1.8265
   11SOL    HW2   33   2.375   2.504   0.893  2.1484 -0.0073 -1.7667
   12SOL     OW   34   1.432   0.898   0.478  0.4521 -0.0131 -0.1473
   12SOL    HW1   35   1.345   0.946   0.459  2.2547  1.1051  2.1706
   12SOL    HW2   36   1.432   0.799   0.446  1.6153  1.9543 -0.6676
   13SOL     OW   37   2.467   0.660   1.792  0.3239 -0.1038  0.3169
   13SOL    HW1   38   2.383   0.634   1.848 -0.1159  1.2245  1.2474
   13SOL    HW2   39   2.466   0.617   1.697 -0.0573  1.4700  1.3034
   14SOL     OW   40   1.830   3.085   0.545  0.9124 -0.4903  0.2906
   14SOL    HW1   41   1.737   3.118   0.513 -0.3183 -3.5215 -2.8873
   14SOL    HW2   42   1.841   3.094   0.649 -1.6416  0.5389  2.5112
   15SOL     OW   43   1.963   2.067   2.826 -0.0864  0.0705  0.0148
   15SOL    HW1   44   1.883   2.131   2.855  1.0348 -0.4386  3.7383
   15SOL    HW2   45   1.934   2.002   2.752 -1.1177  0.1375  1.6303
   16SOL     OW   46   1.558   1.714   0.043  0.2449  0.3270  0.3452
   16SOL    HW1   47   1.607   1.642  -0.017  0.5991 -0.1365 -0.1665
   16SOL    HW2   48   1.588   1.710   0.143 -0.9628  0.2985  1.6434
   17SOL     OW   49   0.120   0.408   0.178  0.3099  0.0461 -0.1510
   17SOL    HW1   50   0.209   0.457   0.171  0.2726 -1.6834  2.0802
   17SOL    HW2   51   0.066   0.410   0.092  0.7689 -4.6094  1.2394
   18SOL     OW   52   1.102   2.885   2.150  0.0058 -0.3475 -0.3566
   18SOL    HW1   53   1.013   2.909   2.114  1.6776  1.6431  0.2644
   18SOL    HW2   54   1.171   2.855   2.078  0.0363 -1.0176  0.6792
   19SOL     OW   55   0.550   1.000   1.954 -0.8461  0.2144 -0.2328
   19SOL    HW1   56   0.491   1.011   2.042  0.7045 -1.7891  0.6709
   19SOL    HW2   57   0.631   0.937   1.971 -1.3966  1.9065 -0.0679
   20SOL     OW   58   0.267   2.762   0.853  0.0277 -0.0904  0.3622
   20SOL    HW1   59   0.176   2.810   0.819  0.6999  0.4441 -1.2302
   20SOL    HW2   60   0.336   2.747   0.777 -0.0410  0.3872 -0.7366
   21SOL     OW   61   2.797   0.233   2.161 -0.6306  0.6582 -0.1244
   21SOL    HW1   62   2.831   0.180   2.076 -0.3260 -2.2174 -0.9166
   21SOL    HW2   63   2.781   0.163   2.240  0.1345 -0.0517  1.4388
   22SOL     OW   64   2.373   0.213   0.051  0.3012 -0.1793 -0.9383
   22SOL    HW1   65   2.379   0.111   0.046 -0.7141  1.1078  1.2883
   22SOL    HW2   66   2.273   0.236   0.056  4.4138  0.1865  0.9039
   23SOL     OW   67   2.771   0.660   0.709  0.1227  0.0380  0.3234
   23SOL    HW1   68   2.764   0.574   0.656  1.2995  0.3880 -1.4538
   23SOL    HW2   69   2.782   0.739   0.644  0.3472 -1.5179 -0.9386
   24SOL     OW   70   0.162   1.895   0.445  0.1149 -0.1751  0.4113
   24SOL    HW1   71   0.060   1.893   0.412 -2.4186  1.4437  0.1149
   24SOL    HW2   72   0.239   1.897   0.373 -0.7034  1.9149 -1.5040
   25SOL     OW   73   2.261   0.507   0.174 -0.4994  0.2519  0.0232
   25SOL    HW1   74   2.329   0.446   0.234  3.9464 -0.7436  2.5570
   25SOL    HW2   75   2.289   0.502   0.071  2.0408  1.6328 -3.5305
   26SOL     OW   76   2.568   2.189   2.082 -0.2184  0.0549  0.0762
   26SOL    HW1   77   2.632   2.229   2.152 -0.5524  0.3580 -0.9626
   26SOL    HW2   78   2.609   2.099   2.045 -0.4352 -0.6334  3.3654
   27SOL     OW   79   0.675   2.979   0.098 -0.3631 -0.3227 -0.2762
   27SOL    HW1   80   0.765   3.023   0.071 -0.2105 -0.8883 -1.7466
   27SOL    HW2   81   0.612   2.958   0.020  2.7233  0.0204 -0.0642
   28SOL     OW   82   1.468   0.228   0.194  0.4355 -0.2370  0.2099
   28SOL    HW1   83   1.535   0.208   0.120  2.1352  0.4198 -2.8291
   28SOL    HW2   84   1.506   0.298   0.260  0.4199  0.2964 -1.9530
   29SOL     OW   85   2.005   0.615   0.283 -0.0312  0.0085 -0.6360
   29SOL    HW1   86   2.011   0.714   0.311 -1.8610  1.1032 -4.7058
   29SOL    HW2   87   2.093   0.578   0.241 -2.3267 -0.0866  0.7607
   30SOL     OW   88   0.212   2.046   0.922 -0.1626 -0.7584  0.5424
   30SOL    HW1   89   0.164   2.054   0.827 -1.2224  3.7423 -1.9101
   30SOL    HW2   90   0.177   2.125   0.986 -0.4143  1.5394  1.7762
   31SOL     OW   91   2.044   0.039   2.330 -0.3822  0.0939 -0.0279
   31SOL    HW1   92   2.064   0.015   2.430 -3.5517 -0.3208  1.6498
   31SOL    HW2   93   1.986  -0.033   2.281 -2.9671 -0.7260  2.6101
   32SOL     OW   94   2.980   0.109   0.237 -0.4600 -0.6799 -0.1673
   32SOL    HW1   95   2.935   0.039   0.303  1.1203  2.4575  3.7979
   32SOL    HW2   96   3.077   0.084   0.209  0.4964  1.9481 -2.3267
   33SOL     OW   97   0.966   0.324   0.433  0.4704  0.4533 -0.3052
   33SOL    HW1   98   0.927   0.223   0.419 -2.8424 -0.5134 -1.0473
   33SOL    HW2   99   1.042   0.338   0.497  1.0170 -0.0394  0.0726
   34SOL     OW  100   0.412   2.893   1.065  0.3829  0.4615  0.1788
   34SOL    HW1  101   0.359   2.827   1.002 -2.4236  0.2663 -1.5945
   34SOL    HW2  102   0.514   2.873   1.068  1.1292  2.1796 -1.0204
   35SOL     OW  103   0.046   3.101   1.803  0.3168 -0.2631 -0.3087
   35SOL    HW1  104   0.079   3.011   1.832  0.8328  3.9570 -2.3357
   35SOL    HW2  105  -0.015   3.092   1.721  1.6886 -1.4552  1.7420
   36SOL     OW  106   1.903   1.153   1.801  0.0285 -0.0237  0.4883
   36SOL    HW1  107   1.966   1.102   1.740 -2.2559  0.3658  3.4769
   36SOL    HW2  108   1.932   1.248   1.812 -1.7639  0.0393  0.8345
   37SOL     OW  109   1.127   0.323   1.006  0.4505  0.1736 -0.2489
   37SOL    HW1  110   1.154   0.422   1.014 -1.5359 -0.0794 -2.1639
   37SOL    HW2  111   1.198   0.256   1.051  0.1539 -0.2261  3.4986
   38SOL     OW  112   1.149   2.708   2.395  0.0736 -0.6266  0.4137
   38SOL    HW1  113   1.077   2.636   2.428  0.9767 -0.1281  2.2117
   38SOL    HW2  114   1.103   2.781   2.340 -1.3611  1.3628 -1.3471
   39SOL     OW  115   2.377   1.483   3.064 -0.7950 -0.5257 -0.0784
   39SOL    HW1  116   2.421   1.392   3.036 -2.2562  1.5358 -1.2404
   39SOL    HW2  117   2.321   1.474   3.155 -0.5590 -0.2083 -0.8035
   40SOL     OW  118   2.064   2.531   2.566  0.1430  0.9072 -0.4886
   40SOL    HW1  119   2.030   2.624   2.597  3.5289 -1.7915 -1.6852
   40SOL    HW2  120   1.993   2.470   2.526  3.1447  2.6129  0.9618
   41SOL     OW  121   2.908   0.691   2.759 -0.1616 -0.4510  0.0704
   41SOL    HW1  122   2.818   0.745   2.741 -1.9516 -0.4615  2.2386
   41SOL    HW2  123   2.896   0.584   2.758 -0.9366 -1.5706 -2.4305
   42SOL     OW  124   1.714   1.753   0.584  1.0667 -0.0819 -0.1666
   42SOL    HW1  125   1.673   1.661   0.556 -2.2637 -0.8210 -0.2913
   42SOL    HW2  126   1.762   1.802   0.503 -1.0302  0.6256  0.1785
   43SOL     OW  127   0.467   1.738   1.213 -0.4683 -0.3153  0.1075
   43SOL    HW1  128   0.441   1.707   1.309 -2.5460 -0.0749  0.3082
   43SOL    HW2  129   0.391   1.739   1.145 -1.1496  2.0492  0.6886
   44SOL     OW  130   1.736   2.504   0.005 -0.1334  1.1473 -0.3092
   44SOL    HW1  131   1.762   2.582  -0.057 -1.7208 -0.5557 -2.3446
   44SOL    HW2  132   1.809   2.497   0.077 -2.4545 -1.3530 -1.8829
   45SOL     OW  133   0.387   1.885   2.513  0.0818  0.1855 -0.6903
   45SOL    HW1  134   0.312   1.898   2.448  0.0422 -0.3001  2.9892
   45SOL    HW2  135   0.425   1.788   2.516 -0.1408  2.1114 -1.4766
   46SOL     OW  136   1.158   0.656   0.184 -0.3036  0.0724 -0.3226
   46SOL    HW1  137   1.175   0.736   0.124 -0.6735 -1.5991 -0.4123
   46SOL    HW2  138   1.071   0.669   0.235 -0.6059 -2.5039  0.4459
   47SOL     OW  139   0.248   2.451   1.607  0.1701 -0.0502  0.1892
   47SOL    HW1  140   0.326   2.390   1.584  1.1231 -1.0669 -1.4247
   47SOL    HW2  141   0.223   2.520   1.526  2.4406  1.1178  1.7082
   48SOL     OW  142   2.616   0.559   0.113 -0.0931  0.3527  0.5584
   48SOL    HW1  143   2.568   0.610   0.193 -0.9250  2.5664  1.9170
   48SOL    HW2  144   2.692   0.619   0.086  0.7558  0.8659  2.1399
   49SOL     OW  145   0.368   0.826   1.764  0.2322 -0.2251 -0.2656
   49SOL    HW1  146   0.457   0.855   1.807 -1.7072  2.2799  0.1812
   49SOL    HW2  147   0.383   0.755   1.689  0.5645  1.5893  1.3882
   50SOL     OW  148   1.764   1.071   0.323 -0.0770 -0.1706  0.7347
   50SOL    HW1  149   1.756   0.963   0.306 -0.4299 -0.5508  1.5241
   50SOL    HW2  150   1.726   1.098   0.415  2.8162 -2.8414  1.2100
   51SOL     OW  151   3.010   1.885   0.371  0.3421  0.0836  0.1504
   51SOL    HW1  152   3.021   1.929   0.279  4.0237 -2.0610  0.8282
   51SOL    HW2  153   2.992   1.783   0.365 -0.0029  1.0072  2.8207
   52SOL     OW  154   0.836   1.938   0.476  0.2263  0.3445 -0.6630
   52SOL    HW1  155   0.748   1.990   0.510  0.3731  0.1811 -0.8987
   52SOL    HW2  156   0.861   1.860   0.535  0.2896  2.4137 -0.9747
   53SOL     OW  157   3.087   0.373   1.516  0.2252 -0.5936 -0.2477
   53SOL    HW1  158   3.104   0.378   1.616 -1.6301 -0.2629 -0.0080
   53SOL    HW2  159   3.085   0.473   1.474 -1.5492  1.0032  1.1649
   54SOL     OW  160   1.767   0.488   3.003 -0.3807 -0.3886  0.0714
   54SOL    HW1  161   1.801   0.446   3.090 -2.4654 -0.0004  0.3890
   54SOL    HW2  162   1.668   0.477   2.997  2.9459  2.8285  0.8447
   55SOL     OW  163   0.713   2.932   0.656  0.2115 -0.4459 -0.5403
   55SOL    HW1  164   0.673   3.029   0.679 -0.3497  4.1841  0.1404
   55SOL    HW2  165   0.795   2.938   0.593  0.4602  3.5321  1.8526
   56SOL     OW  166   0.508   1.529   3.079 -0.3575 -0.0027 -0.4844
   56SOL    HW1  167   0.425   1.586   3.111  0.2675 -2.7160 -0.7932
   56SOL    HW2  168   0.486   1.430   3.084 -0.3772 -2.5924  0.0669
   57SOL     OW  169   1.768   2.381   2.657 -0.1140 -0.1590 -0.2144
   57SOL    HW1  170   1.802   2.391   2.559  0.1350 -1.5135 -2.1899
   57SOL    HW2  171   1.667   2.361   2.656  0.6101  2.5418 -3.7532
   58SOL     OW  172   0.625   0.497   1.098 -0.1981 -0.2539  0.4719
   58SOL    HW1  173   0.560   0.579   1.056 -4.6874  0.2178 -1.3694
   58SOL    HW2  174   0.561   0.410   1.105 -2.4426 -1.4933 -0.4649
   59SOL     OW  175   0.478   2.382   2.649  0.2309  0.3581 -0.2242
   59SOL    HW1  176   0.445   2.292   2.690  1.6345  3.6229 -1.2826
   59SOL    HW2  177   0.533   2.431   2.717 -1.8670 -2.0638 -2.0364
   60SOL     OW  178   2.330   2.186   2.249  0.3211  0.2626  0.1577
   60SOL    HW1  179   2.420   2.202   2.196 -1.0235  0.0687 -0.6018
   60SOL    HW2  180   2.331   2.239   2.339 -2.6533  0.2180 -2.1728
   61SOL     OW  181   1.363   0.608   0.422  0.5702 -0.9243  0.5048
   61SOL    HW1  182   1.276   0.637   0.472  2.2283 -1.2792 -0.4369
   61SOL    HW2  183   1.345   0.596   0.322 -0.5620 -2.0055  1.4589
   62SOL     OW  184   2.680   1.901   0.015 -0.8514 -0.0495  0.1801
   62SOL    HW1  185   2.684   1.799   0.032 -0.9472 -0.2859 -1.1005
   62SOL    HW2  186   2.682   1.935  -0.083 -1.4641 -2.1747  0.5695
   63SOL     OW  187   0.523   0.797   0.129 -0.2061 -0.1448  0.1394
   63SOL    HW1  188   0.497   0.897   0.101 -0.5400 -0.6646 -1.0258
   63SOL    HW2  189   0.579   0.796   0.217 -0.5565 -0.2605  1.4680
   64SOL     OW  190   0.072   0.559   2.515 -0.1158 -0.2452  0.1492
   64SOL    HW1  191   0.049   0.617   2.598  4.1368 -2.7759  0.7320
   64SOL    HW2  192   0.040   0.595   2.425  1.0664 -0.9942 -1.4740
   65SOL     OW  193   0.184   1.457   0.621 -0.0031 -0.7193  0.3528
   65SOL    HW1  194   0.190   1.547   0.677  0.3862 -0.7706  2.7927
   65SOL    HW2  195   0.270   1.443   0.569  1.2829 -0.5395  2.4916
   66SOL     OW  196   2.461   0.338   0.677  0.3896  0.5482  0.3305
   66SOL    HW1  197   2.388   0.411   0.683 -1.0346  3.2268  1.8436
   66SOL    HW2  198   2.426   0.241   0.707  0.6027 -0.4663 -1.4108
   67SOL     OW  199   0.476   2.580   1.322  0.0690 -0.3271  0.4312
   67SOL    HW1  200   0.580   2.595   1.307  1.8810 -0.1853 -0.7608
   67SOL    HW2  201   0.443   2.484   1.315 -0.1745 -2.7140  0.9623
   68SOL     OW  202   1.021   1.104   2.420  0.2498  0.0945  0.9491
   68SOL    HW1  203   1.081   1.037   2.375  0.0065  2.2829 -1.3962
   68SOL    HW2  204   0.944   1.141   2.365  0.4611 -1.6444  1.1263
   69SOL     OW  205   0.770   2.698   2.157  0.4111 -0.1850  0.2733
   69SOL    HW1  206   0.825   2.614   2.194 -0.6524 -0.7436 -0.7550
   69SOL    HW2  207   0.671   2.689   2.176  1.0912 -1.4997 -2.9759
   70SOL     OW  208   0.604   0.227   2.712  0.2384  0.3736  0.0943
   70SOL    HW1  209   0.579   0.257   2.807  1.8268 -1.2320  0.8326
   70SOL    HW2  210   0.579   0.129   2.685 -0.8366  1.4565 -1.3110
   71SOL     OW  211   1.103   1.823   0.366 -0.3971 -0.1238  0.3910
   71SOL    HW1  212   1.072   1.723   0.378 -1.0483 -0.5276  0.8929
   71SOL    HW2  213   1.079   1.861   0.273 -0.7128  1.6430 -1.0935
   72SOL     OW  214   1.772   0.066   2.090  0.0671 -0.0109 -0.0373
   72SOL    HW1  215   1.851   0.099   2.024  1.4885  0.2221 -1.7974
   72SOL    HW2  216   1.780  -0.034   2.110  0.7675  1.5481  1.0009
   73SOL     OW  217   2.846   2.230   2.525 -0.1718 -0.4993  0.1236
   73SOL    HW1  218   2.856   2.147   2.465 -2.0006 -0.6459 -2.2210
   73SOL    HW2  219   2.872   2.212   2.624 -0.3083  0.3099 -1.6535
   74SOL     OW  220   2.710   3.014   2.063 -0.2213  0.5358 -0.2233
   74SOL    HW1  221   2.648   2.965   2.132  0.0095  0.2826 -3.4362
   74SOL    HW2  222   2.806   2.993   2.088 -1.5611  2.2658 -0.2839
   75SOL     OW  223   0.919   0.739   0.971 -0.0018  0.0470  0.5206
   75SOL    HW1  224   0.829   0.796   0.942 -1.9150  0.6453 -1.4378
   75SOL    HW2  225   0.968   0.783   1.049 -0.8014 -0.6381  3.7723
   76SOL     OW  226   1.744   1.228   2.578  0.5146 -0.3172 -0.3305
   76SOL    HW1  227   1.638   1.216   2.589 -0.8700 -1.2044 -0.7269
   76SOL    HW2  228   1.778   1.318   2.619 -0.3712 -0.0442  0.4526
   77SOL     OW  229   3.003   1.004   0.984  0.3089 -0.6240  0.1495
   77SOL    HW1  230   2.992   0.900   0.983 -0.3091 -1.7981 -0.7126
   77SOL    HW2  231   3.063   1.033   1.065 -1.7721  1.3326 -0.2837
   78SOL     OW  232   1.979   1.403   1.471 -0.1752  0.0667  0.2431
   78SOL    HW1  233   2.037   1.423   1.390  2.2271 -0.6525  3.6795
   78SOL    HW2  234   1.884   1.384   1.438 -0.0814 -1.0021 -1.9546
   79SOL     OW  235   0.652   1.304   0.859  0.4734  0.8184  0.0707
   79SOL    HW1  236   0.565   1.342   0.910 -1.4537  2.5365  0.0400
   79SOL    HW2  237   0.626   1.252   0.774 -0.1158  0.7377 -1.7638
   80SOL     OW  238   0.641   0.482   1.603  0.2393  0.1949 -0.2537
   80SOL    HW1  239   0.722   0.527   1.554  0.2762  0.5868  0.3948
   80SOL    HW2  240   0.637   0.378   1.584 -1.4179  1.4919  1.4322
   81SOL     OW  241   1.094   1.431   2.593  0.1055 -0.4717  0.7624
   81SOL    HW1  242   1.067   1.356   2.657 -0.8156 -0.2347  1.6655
   81SOL    HW2  243   1.037   1.441   2.502 -0.6468  2.2224  1.7869
   82SOL     OW  244   0.904   3.025   1.527  0.1476  0.0485 -0.2902
   82SOL    HW1  245   0.967   2.946   1.495 -0.6316  0.1840 -1.2154
   82SOL    HW2  246   0.811   3.021   1.476  0.0932 -0.2471  1.6193
   83SOL     OW  247   2.760   2.417   0.814  0.1863  0.1964 -0.3865
   83SOL    HW1  248   2.670   2.370   0.784  0.8606  0.0599  0.2227
   83SOL    HW2  249   2.794   2.501   0.764 -0.4351 -0.1785 -1.2960
   84SOL     OW  250   0.663   0.015   2.417  0.0984 -0.0083 -0.1435
   84SOL    HW1  251   0.569  -0.017   2.406 -0.0630 -0.5321  1.2326
   84SOL    HW2  252   0.726  -0.054   2.465  2.3538  0.1227  2.0617
   85SOL     OW  253   0.393   1.652   1.469  1.1719 -0.2125 -0.0605
   85SOL    HW1  254   0.330   1.736   1.478  1.1126 -0.5183  1.6129
   85SOL    HW2  255   0.394   1.590   1.550  0.0112 -0.7645  1.6800
   86SOL     OW  256   0.358   1.043   1.481  0.1047 -0.2377 -0.1003
   86SOL    HW1  257   0.381   0.970   1.412  0.0801  0.9846 -0.5077
   86SOL    HW2  258   0.377   1.014   1.578 -0.3739  1.0691 -0.4559
   87SOL     OW  259   1.569   0.586   0.192  0.2753 -0.0096  0.3664
   87SOL    HW1  260   1.606   0.683   0.202 -0.2213  1.1890 -0.1741
   87SOL    HW2  261   1.537   0.556   0.098  2.7009 -0.7957 -0.6630
   88SOL     OW  262   1.597   1.290   0.170 -0.3370 -0.6438  0.4550
   88SOL    HW1  263   1.638   1.197   0.194 -2.4960 -2.1588 -1.3254
   88SOL    HW2  264   1.491   1.296   0.186 -2.1982 -1.5054 -2.4771
   89SOL     OW  265   2.974   0.427   0.576  0.4940  0.5778 -0.1821
   89SOL    HW1  266   3.017   0.336   0.606  0.5760 -1.2104 -2.5994
   89SOL    HW2  267   2.874   0.419   0.585 -0.8210  1.6120  3.3224
   90SOL     OW  268   0.926   1.641   3.052  1.0778  0.2799  0.1264
   90SOL    HW1  269   0.853   1.649   3.124  0.2349  1.3697 -1.0824
   90SOL    HW2  270   0.883   1.647   2.956 -0.5252  0.2791  0.5673
   91SOL     OW  271   1.257   1.410   1.784  0.5456  0.9188 -0.1835
   91SOL    HW1  272   1.289   1.492   1.842 -0.3999 -0.1476 -0.4573
   91SOL    HW2  273   1.329   1.348   1.747 -0.7078  1.1398 -3.4016
   92SOL     OW  274   0.062   1.063   1.181  0.0509 -0.3887 -0.1288
   92SOL    HW1  275   0.155   1.085   1.147 -1.1053 -0.9092 -2.2102
   92SOL    HW2  276   0.064   1.022   1.272 -0.1051  0.6281 -0.7141
   93SOL     OW  277   0.095   2.831   0.006 -0.5458 -0.6005  0.6902
   93SOL    HW1  278   0.012   2.827  -0.058  1.0360  0.6956  0.3896
   93SOL    HW2  279   0.129   2.737   0.040 -1.1398  1.1795  1.3346
   94SOL     OW  280   1.507   1.299   1.663 -0.4489  0.0990 -0.1529
   94SOL    HW1  281   1.517   1.211   1.718  0.0397  1.1730 -0.8298
   94SOL    HW2  282   1.552   1.387   1.702 -2.1770  0.1476  0.7766
   95SOL     OW  283   1.394   2.480   2.900 -0.1155  0.6483 -0.4704
   95SOL    HW1  284   1.339   2.482   2.988  2.5313  2.3589 -2.9847
   95SOL    HW2  285   1.397   2.386   2.860 -0.4834  2.2997  1.0486
   96SOL     OW  286   0.503   2.023   1.223 -0.0914  0.1539 -0.0770
   96SOL    HW1  287   0.488   2.058   1.126  0.3507 -0.6104  1.2372
   96SOL    HW2  288   0.506   1.921   1.239  0.3800  1.1820 -0.5076
   97SOL     OW  289   0.295   1.450   2.469  0.1638  0.2244 -0.0847
   97SOL    HW1  290   0.213   1.413   2.511  1.9048  1.5667  1.5618
   97SOL    HW2  291   0.336   1.521   2.530  0.6097 -0.5745  1.0002
   98SOL     OW  292   2.081   1.657   1.264 -0.2043  1.0411  0.7219
   98SOL    HW1  293   2.058   1.572   1.202 -0.7548 -0.5846 -1.1164
   98SOL    HW2  294   2.128   1.633   1.352 -0.0288 -2.0726 -1.7813
   99SOL     OW  295   2.479   2.165   1.341 -0.1233 -0.1386 -0.2722
   99SOL    HW1  296   2.475   2.172   1.445 -3.0510  1.7103  0.1736
   99SOL    HW2  297   2.470   2.070   1.306 -2.2990  0.1642  0.4627
  100SOL     OW  298   2.303   0.408   2.062 -0.0891  0.0482 -0.4260
  100SOL    HW1  299   2.254   0.367   2.143  2.9668 -1.1375 -2.5122
  100SOL    HW2  300   2.404   0.412   2.078  1.1180  2.2594  1.5106
  101SOL     OW  301   0.428   1.423   0.278  0.1189  0.2195  0.2174
  101SOL    HW1  302   0.435   1.424   0.381  0.0396 -0.8831 -0.5968
  101SOL    HW2  303   0.491   1.495   0.238  0.6282  1.3386 -0.9399
  102SOL     OW  304   2.259   1.078   0.833  0.4955 -0.1932 -0.7971
  102SOL    HW1  305   2.208   0.995   0.797  1.4476  0.3464  0.5486
  102SOL    HW2  306   2.313   1.128   0.763  1.3159 -0.0319 -1.4949
  103SOL     OW  307   2.290   0.070   0.398 -0.1630 -0.1653  0.1926
  103SOL    HW1  308   2.339   0.160   0.391  1.9313  0.3838  0.3254
  103SOL    HW2  309   2.322  -0.000   0.466 -0.6945 -0.6298 -0.8572
  104SOL     OW  310   0.078   1.865   2.159 -0.2181  0.1055  0.1873
  104SOL    HW1  311   0.118   1.796   2.089  0.6909 -1.1501  2.6515
  104SOL    HW2  312  -0.017   1.892   2.124 -0.2346  3.3492 -0.9794
  105SOL     OW  313   1.107   1.961   0.824  0.4527  0.1018  0.4995
  105SOL    HW1  314   1.076   2.053   0.787  3.0123  0.8586 -1.1678
  105SOL    HW2  315   1.079   1.883   0.762 -2.4782  0.4804  1.9073
  106SOL     OW  316   2.050   0.478   1.345  0.0082 -0.3494  0.2141
  106SOL    HW1  317   2.003   0.398   1.391 -0.1629  0.8554  0.1410
  106SOL    HW2  318   2.025   0.568   1.393 -1.8179 -2.3807  1.7474
  107SOL     OW  319   1.809   3.008   1.124 -0.6758  0.5619 -0.4977
  107SOL    HW1  320   1.837   3.087   1.187  1.0206 -0.2893 -0.1780
  107SOL    HW2  321   1.765   2.926   1.176  0.7762 -3.1107 -0.1429
  108SOL     OW  322   0.743   2.627   1.302  0.0881  0.2230 -0.0649
  108SOL    HW1  323   0.721   2.688   1.385  0.2685  1.8222 -2.0588
  108SOL    HW2  324   0.834   2.579   1.311  0.8137  0.2351  1.6330
  109SOL     OW  325   2.066   0.119   0.684  0.8592 -0.5493  0.3323
  109SOL    HW1  326   2.038   0.042   0.621 -1.6379 -0.1758 -2.7501
  109SOL    HW2  327   1.990   0.171   0.731  2.2792  0.2120  0.4323
  110SOL     OW  328   0.487   2.730   2.745 -0.4014  0.6851 -0.2269
  110SOL    HW1  329   0.497   2.784   2.654  0.6694  2.8382 -3.4769
  110SOL    HW2  330   0.576   2.686   2.774 -1.8614  0.2924  1.4489
  111SOL     OW  331   1.286   0.532   2.331 -0.2971 -0.0769 -0.2410
  111SOL    HW1  332   1.204   0.580   2.378  1.5485  2.2879 -0.6002
  111SOL    HW2  333   1.348   0.471   2.397 -0.1430 -0.4944 -0.9059
  112SOL     OW  334   1.690   0.502   1.462  0.1097 -0.0947 -0.0948
  112SOL    HW1  335   1.680   0.444   1.377  1.1065 -1.5123  0.7099
  112SOL    HW2  336   1.707   0.436   1.541  0.5646  3.7319  2.1857
  113SOL     OW  337   2.291   1.663   1.731  0.2874  0.2483  0.0842
  113SOL    HW1  338   2.344   1.583   1.707 -0.8505  1.9914 -1.2456
  113SOL    HW2  339   2.323   1.700   1.826  0.9732  1.1445  1.8921
  114SOL     OW  340   0.391   0.566   1.292 -0.0736 -0.0264 -0.4297
  114SOL    HW1  341   0.361   0.655   1.245 -0.2186 -1.1995 -1.5024
  114SOL    HW2  342   0.446   0.507   1.226 -2.3399 -1.0459  0.8292
  115SOL     OW  343   2.677   1.569   1.262 -0.2404  0.3912 -0.4566
  115SOL    HW1  344   2.693   1.466   1.261 -0.1868  2.4804 -1.1254
  115SOL    HW2  345   2.683   1.616   1.172 -0.1468  0.2486 -0.5192
  116SOL     OW  346   1.825   1.073   0.759 -0.1132  0.1765 -0.1180
  116SOL    HW1  347   1.742   1.016   0.741 -0.5316  0.3688  1.6832
  116SOL    HW2  348   1.814   1.177   0.763  1.5488  2.4166 -0.6813
  117SOL     OW  349   1.111   0.402   0.657  0.6436 -0.7209 -0.2797
  117SOL    HW1  350   1.089   0.421   0.758 -1.4208  0.8711  0.1646
  117SOL    HW2  351   1.142   0.485   0.605  1.2864 -1.3737 -1.0976
  118SOL     OW  352   1.058   1.104   1.020 -0.5262 -0.1825  0.1902
  118SOL    HW1  353   1.057   1.011   1.076 -1.2911 -1.7534  1.7033
  118SOL    HW2  354   1.118   1.175   1.072 -0.0534 -0.5857  1.9280
  119SOL     OW  355   1.831   1.611   2.004  0.1667 -0.6994  0.1868
  119SOL    HW1  356   1.803   1.708   2.033 -0.0630  1.9849  2.6003
  119SOL    HW2  357   1.935   1.591   2.019 -1.7823 -1.8688 -1.7108
  120SOL     OW  358   2.940   2.771   0.269  0.2114  0.1541  0.6003
  120SOL    HW1  359   2.858   2.738   0.215 -0.4029  1.3933  4.0387
  120SOL    HW2  360   2.994   2.694   0.323 -2.1032 -0.6412  1.0191
  121SOL     OW  361   2.056   0.732   2.221 -0.3779  0.5057 -0.7949
  121SOL    HW1  362   2.114   0.772   2.143 -2.5855 -0.2489 -0.1565
  121SOL    HW2  363   2.041   0.628   2.209 -0.9762 -1.6417 -0.7689
  122SOL     OW  364   2.706   2.537   1.343  0.0665 -0.1143  0.3706
  122SOL    HW1  365   2.726   2.521   1.242  1.0619 -1.6776 -1.4337
  122SOL    HW2  366   2.656   2.461   1.385  1.3699  3.7968 -2.4806
  123SOL     OW  367   1.738   0.033   1.680  0.2072 -0.6045 -0.4114
  123SOL    HW1  368   1.742  -0.052   1.622  0.5849  3.0563 -1.5885
  123SOL    HW2  369   1.820   0.093   1.666  0.4642  1.4735 -0.2333
  124SOL     OW  370   0.189   0.500   1.003 -0.7598  0.4538  0.8844
  124SOL    HW1  371   0.161   0.565   1.076  1.1847  0.0279 -2.6009
  124SOL    HW2  372   0.119   0.510   0.929  4.7627  0.9595  2.8787
  125SOL     OW  373   0.879   1.749   0.666  0.1216  0.2244  0.2133
  125SOL    HW1  374   0.985   1.750   0.658  2.7826  0.1407 -0.2300
  125SOL    HW2  375   0.849   1.665   0.721  1.3651  0.9472  0.6647
  126SOL     OW  376   1.864   2.382   2.379 -0.4791 -0.3194 -0.5761
  126SOL    HW1  377   1.924   2.311   2.331 -0.9015  1.1094 -0.8601
  126SOL    HW2  378   1.793   2.419   2.314  0.3161  1.1222  0.3892
  127SOL     OW  379   0.939   0.971   0.184 -0.6965 -0.3410  0.0696
  127SOL    HW1  380   1.035   0.990   0.217 -1.8126  0.0457  1.3852
  127SOL    HW2  381   0.912   0.873   0.212  0.2763 -2.1105  0.7451
  128SOL     OW  382   1.010   0.191   1.477 -0.2173 -0.2849  0.1604
  128SOL    HW1  383   0.948   0.250   1.423  1.2950 -0.2537  2.2880
  128SOL    HW2  384   0.973   0.099   1.506  2.7943 -0.3251 -0.1580
  129SOL     OW  385   1.779   0.727   1.825  0.6198 -0.1742  0.1653
  129SOL    HW1  386   1.751   0.757   1.729 -1.0271  1.5724  1.9767
  129SOL    HW2  387   1.784   0.800   1.898 -0.3809  4.0016  0.9748
  130SOL     OW  388   1.288   2.095   0.987  0.5303  0.1803 -0.2088
  130SOL    HW1  389   1.216   2.045   0.930 -1.1249 -0.1840  0.9205
  130SOL    HW2  390   1.345   2.159   0.930 -0.7734 -1.4214  2.0838
  131SOL     OW  391   3.061   1.517   1.326  0.3587  0.2729 -0.0336
  131SOL    HW1  392   3.019   1.424   1.315  0.1685 -1.0118  1.3788
  131SOL    HW2  393   3.164   1.516   1.318  1.2609  1.2193  0.2807
  132SOL     OW  394   1.929   2.494   0.522 -0.1154  0.0576  0.3024
  132SOL    HW1  395   1.824   2.497   0.538 -0.6340  0.9680 -0.1552
  132SOL    HW2  396   1.979   2.508   0.614 -0.4224  3.2302 -0.6019
  133SOL     OW  397   1.803   2.291   2.902  0.5529  0.2130 -0.2460
  133SOL    HW1  398   1.781   2.350   2.989 -0.2028 -0.2230  1.8260
  133SOL    HW2  399   1.787   2.338   2.810 -2.2934 -2.0918 -0.7031
  134SOL     OW  400   2.623   2.382   1.621  0.3686 -0.4582 -0.0822
  134SOL    HW1  401   2.556   2.347   1.696  0.1307  0.6597  0.5482
  134SOL    HW2  402   2.686   2.458   1.656  0.3466  3.1912 -0.2033
  135SOL     OW  403   0.753   1.513   2.554 -0.7229  0.1392  0.3665
  135SOL    HW1  404   0.712   1.423   2.584  0.8984  3.2728 -3.3763
  135SOL    HW2  405   0.821   1.503   2.475  2.4106  0.1400 -2.7332
  136SOL     OW  406   1.154   2.075   0.453  0.3130 -0.1147 -0.0965
  136SOL    HW1  407   1.091   2.125   0.519 -1.4481 -0.3680 -0.5172
  136SOL    HW2  408   1.124   1.974   0.441 -0.5691 -1.3029  1.3541
  137SOL     OW  409   0.383   1.024   2.155  0.2101  0.0707  0.4839
  137SOL    HW1  410   0.290   1.063   2.194  0.7959  0.7420  1.2086
  137SOL    HW2  411   0.403   0.928   2.185  1.2592 -0.1737  2.5166
  138SOL     OW  412   2.446   1.474   0.317  0.1954  0.2480 -0.6849
  138SOL    HW1  413   2.350   1.466   0.273  0.1558  1.8084 -0.6383
  138SOL    HW2  414   2.487   1.388   0.364  3.3915  1.8040  0.3974
  139SOL     OW  415   1.770   2.534   1.227  0.1692  0.5768  0.1644
  139SOL    HW1  416   1.668   2.514   1.211  1.0350  0.6118 -2.0733
  139SOL    HW2  417   1.809   2.473   1.301 -1.9674  1.0643  2.0026
  140SOL     OW  418   2.985   3.012   2.525  0.2951  0.0413  0.4623
  140SOL    HW1  419   3.040   2.940   2.577  1.2884 -1.3856  1.2574
  140SOL    HW2  420   3.051   3.052   2.455 -0.3616 -0.2507  0.1826
  141SOL     OW  421   1.147   1.572   1.607 -0.4156  0.4933 -0.0134
  141SOL    HW1  422   1.156   1.661   1.667  2.7792  2.9826  0.9451
  141SOL    HW2  423   1.187   1.489   1.663  1.3773 -1.1734  0.5274
  142SOL     OW  424   1.543   0.597   2.245  0.2731  0.2553 -0.1471
  142SOL    HW1  425   1.575   0.583   2.145  2.5125 -0.5584 -0.8548
  142SOL    HW2  426   1.437   0.594   2.267  0.2020  0.9652  0.1749
  143SOL     OW  427   2.778   0.866   0.498  0.2399  0.6655  0.7058
  143SOL    HW1  428   2.805   0.905   0.403  0.4641 -0.3242  1.2522
  143SOL    HW2  429   2.814   0.927   0.573  0.5595 -0.5239  2.7361
  144SOL     OW  430   2.977   1.251   1.366  0.6240  0.4545 -0.1560
  144SOL    HW1  431   2.999   1.250   1.469 -1.3242  1.1245  1.8816
  144SOL    HW2  432   3.050   1.193   1.317  4.1252 -0.4072 -0.0252
  145SOL     OW  433   1.034   1.868   0.104  0.7695 -0.1549 -0.4016
  145SOL    HW1  434   1.059   1.957   0.057 -0.0112  0.7581 -1.0516
  145SOL    HW2  435   1.014   1.786   0.041  2.0106 -1.3473 -1.1663
  146SOL     OW  436   2.525   0.643   1.481  0.8752  0.3861 -0.2716
  146SOL    HW1  437   2.457   0.573   1.442 -1.7405  2.1887 -0.4549
  146SOL    HW2  438   2.496   0.742   1.452  0.6088  0.8105 -2.1875
  147SOL     OW  439   1.049   2.598   0.620 -0.0890 -0.1527 -0.1549
  147SOL    HW1  440   1.006   2.640   0.532 -0.6004  0.2809  0.6170
  147SOL    HW2  441   1.144   2.559   0.607  1.7699 -0.6966  0.6254
  148SOL     OW  442   1.640   1.421   3.052 -0.6077  0.6113 -0.1788
  148SOL    HW1  443   1.683   1.340   3.001  2.2243 -0.5706 -2.2288
  148SOL    HW2  444   1.624   1.394   3.152  1.0933 -0.5307 -1.1417
  149SOL     OW  445   0.642   1.400   1.947  0.0561 -0.3265  0.4167
  149SOL    HW1  446   0.565   1.348   1.992 -1.5589  1.8756  1.6848
  149SOL    HW2  447   0.689   1.349   1.869 -0.4645 -0.3965 -0.1477
  150SOL     OW  448   2.961   1.283   0.946  0.2784  0.5680  0.1560
  150SOL    HW1  449   3.047   1.307   1.001 -0.2442 -2.1615  0.5235
  150SOL    HW2  450   2.937   1.183   0.949 -1.6296 -0.4307 -1.2877
  151SOL     OW  451   0.181   0.760   2.082  0.1122 -0.5183 -0.0241
  151SOL    HW1  452   0.184   0.842   2.023 -1.3871  1.2201 -1.5780
  151SOL    HW2  453   0.240   0.685   2.041 -0.3204 -0.1149  0.5148
  152SOL     OW  454   1.415   1.767   1.279  0.1536 -0.3012  0.3446
  152SOL    HW1  455   1.397   1.848   1.341 -1.2990 -1.2640 -1.5627
  152SOL    HW2  456   1.333   1.751   1.214 -0.4395 -0.1313  1.0063
  153SOL     OW  457   0.046   1.501   0.156  0.2022 -0.1371 -0.5364
  153SOL    HW1  458   0.033   1.399   0.163 -1.3150  3.2616  1.6871
  153SOL    HW2  459   0.071   1.539   0.249 -0.5917 -0.8319  2.6032
  154SOL     OW  460   2.402   1.956   2.836 -0.1690 -0.0484 -0.1214
  154SOL    HW1  461   2.427   1.856   2.852 -0.0138  1.0044 -4.1718
  154SOL    HW2  462   2.430   1.979   2.739 -0.4667 -0.9909  1.7376
  155SOL     OW  463   2.520   1.232   0.412 -0.2020  0.4200 -0.2370
  155SOL    HW1  464   2.552   1.244   0.315 -2.0440  0.6922 -0.0247
  155SOL    HW2  465   2.507   1.132   0.429  0.3599 -0.4160  1.7761
  156SOL     OW  466   2.524   1.000   0.883  0.6348  0.1833 -0.3306
  156SOL    HW1  467   2.434   1.050   0.896  0.7243  0.5805  1.4962
  156SOL    HW2  468   2.593   1.055   0.832 -1.8696 -2.6636  1.6388
  157SOL     OW  469   1.373   2.993   0.008 -0.3262  0.2691 -0.0084
  157SOL    HW1  470   1.443   2.943  -0.048 -2.0264  0.9614 -0.6308
  157SOL    HW2  471   1.350   3.078  -0.044  0.9295 -0.9072 -3.1208
  158SOL     OW  472   1.060   1.848   2.027 -0.2457  0.0836  0.1355
  158SOL    HW1  473   1.115   1.850   2.113  2.9634 -0.7221 -1.2051
  158SOL    HW2  474   0.964   1.875   2.043  0.9668 -0.4017  1.3921
  159SOL     OW  475   0.875   0.393   1.323  0.2998 -1.1124 -0.0218
  159SOL    HW1  476   0.856   0.485   1.369 -0.4387 -3.3101  1.5925
  159SOL    HW2  477   0.828   0.391   1.229 -1.1062  0.7251  0.9549
  160SOL     OW  478   1.472   2.375   1.632 -0.9564  0.6905 -0.0239
  160SOL    HW1  479   1.489   2.463   1.579 -1.5140  0.2035  0.4535
  160SOL    HW2  480   1.557   2.339   1.679  2.2698  1.0261 -0.7392
  161SOL     OW  481   0.120   2.955   0.357 -0.3116  0.1710 -0.6937
  161SOL    HW1  482   0.064   2.862   0.368 -3.3989 -1.5991  0.1904
  161SOL    HW2  483   0.125   2.996   0.260 -0.7883  0.7585 -1.9595
  162SOL     OW  484   2.594   1.883   0.501 -0.3721 -0.2610 -0.2141
  162SOL    HW1  485   2.586   1.827   0.416  1.1718 -2.9275  1.3445
  162SOL    HW2  486   2.599   1.824   0.585  0.1118  1.4920  0.4607
  163SOL     OW  487   1.976   2.759   0.762  0.1686 -0.1646  0.1338
  163SOL    HW1  488   1.958   2.782   0.661 -0.8586  0.5969 -0.6005
  163SOL    HW2  489   2.004   2.661   0.773  0.6924 -0.3471  0.3059
  164SOL     OW  490   0.001   0.242   1.236 -0.6878 -0.3102  0.3487
  164SOL    HW1  491   0.084   0.181   1.220  1.1286  0.8103  0.6265
  164SOL    HW2  492   0.011   0.307   1.318 -1.5805 -0.1790  2.6718
  165SOL     OW  493   0.991   1.367   0.640 -0.1775  0.5397 -0.3180
  165SOL    HW1  494   0.950   1.434   0.707  0.4293 -2.8693  0.5171
  165SOL    HW2  495   0.970   1.389   0.537  1.3987 -0.2745 -1.6960
  166SOL     OW  496   1.383   1.036   1.782  0.2740  0.3245  0.0088
  166SOL    HW1  497   1.298   1.009   1.833 -0.0364 -1.2057 -2.5849
  166SOL    HW2  498   1.457   1.076   1.845  3.8605  2.7053  1.1651
  167SOL     OW  499   0.885   1.849   1.574  0.0026  0.2036 -0.6484
  167SOL    HW1  500   0.849   1.946   1.584 -0.5483  1.0951  0.7005
  167SOL    HW2  501   0.807   1.778   1.568 -0.3643  1.2574  0.6221
  168SOL     OW  502   1.526   2.372   0.168 -0.3921  0.0859 -0.4023
  168SOL    HW1  503   1.599   2.414   0.106 -0.3795 -0.5074  0.4806
  168SOL    HW2  504   1.570   2.319   0.247 -0.9362 -0.4203 -1.3381
  169SOL     OW  505   0.166   2.550   2.169  0.0187 -0.1010 -0.3420
  169SOL    HW1  506   0.234   2.488   2.118 -0.7187 -0.9153  1.8383
  169SOL    HW2  507   0.145   2.515   2.264  0.7434  1.5304  0.6227
  170SOL     OW  508   1.276   0.294   1.920  0.0603 -0.6884 -0.2970
  170SOL    HW1  509   1.299   0.277   2.021 -0.4258  0.2496  0.4371
  170SOL    HW2  510   1.282   0.212   1.861 -0.3522 -0.1331 -1.5111
  171SOL     OW  511   0.253   0.831   2.410  0.5019  0.0030 -0.1198
  171SOL    HW1  512   0.165   0.836   2.465  0.0448  1.2996  4.4606
  171SOL    HW2  513   0.240   0.776   2.318 -0.6690  0.6621 -2.2983
  172SOL     OW  514   0.899   1.122   2.924  0.3482  0.0093 -0.0317
  172SOL    HW1  515   0.988   1.151   2.977 -1.2059  0.5262  2.5043
  172SOL    HW2  516   0.913   1.082   2.827 -0.2731 -0.4234 -0.4650
  173SOL     OW  517   0.673   2.702   0.172 -0.5715  0.3369 -0.1458
  173SOL    HW1  518   0.701   2.798   0.142  0.4006 -1.7864 -1.6350
  173SOL    HW2  519   0.578   2.678   0.136  0.3692 -0.0696  0.0232
  174SOL     OW  520   1.312   2.749   1.045  0.3996 -0.2444 -0.0335
  174SOL    HW1  521   1.285   2.822   0.979 -2.5197 -0.7138  1.4047
  174SOL    HW2  522   1.304   2.659   0.997  0.1589  0.9000  0.9835
  175SOL     OW  523   0.388   0.014   1.694  0.0155 -0.2506 -0.0462
  175SOL    HW1  524   0.433   0.079   1.766  2.5255 -1.1150  2.1594
  175SOL    HW2  525   0.307   0.061   1.649  0.5841  0.5389  2.2741
  176SOL     OW  526   2.624   0.360   3.017 -0.5314 -0.1788  0.0510
  176SOL    HW1  527   2.606   0.441   3.086 -0.5857  2.7661 -2.6075
  176SOL    HW2  528   2.562   0.280   3.037  2.1701 -1.2259  1.0889
  177SOL     OW  529   0.375   0.339   0.860  0.2965  0.4181  0.1147
  177SOL    HW1  530   0.437   0.318   0.939 -0.9655  0.5848  1.2216
  177SOL    HW2  531   0.282   0.370   0.897  0.3840  1.9186  0.4764
  178SOL     OW  532   3.094   2.698   2.617  0.5783  0.1659  0.2512
  178SOL    HW1  533   3.031   2.662   2.691  3.2478 -1.1489  0.4223
  178SOL    HW2  534   3.178   2.746   2.645 -2.4614 -1.6153  1.7032
  179SOL     OW  535   3.098   1.749   1.184  0.5069 -1.0598  0.1900
  179SOL    HW1  536   3.021   1.816   1.150 -0.1973  0.8582 -0.6399
  179SOL    HW2  537   3.073   1.680   1.259  1.0677 -1.0917 -3.5834
  180SOL     OW  538   0.181   1.256   1.833  0.1717 -0.0827  0.1604
  180SOL    HW1  539   0.284   1.245   1.834 -5.3003 -1.9100 -0.1850
  180SOL    HW2  540   0.158   1.340   1.889  0.9934  0.8196 -0.2820
  181SOL     OW  541   2.998   1.815   2.524 -0.4080  0.1394 -0.6712
  181SOL    HW1  542   3.093   1.854   2.528  4.4091 -2.8110  2.7928
  181SOL    HW2  543   2.935   1.858   2.458  4.3013 -0.9514  2.9557
  182SOL     OW  544   2.291   1.217   1.243 -0.2102 -0.2161 -0.2808
  182SOL    HW1  545   2.222   1.172   1.179 -1.0574  0.1127  1.3328
  182SOL    HW2  546   2.333   1.302   1.210 -2.9709 -1.9079 -0.1606
  183SOL     OW  547   1.524   2.248   2.513  0.5631 -0.0691  0.0622
  183SOL    HW1  548   1.429   2.205   2.533 -0.2063 -1.8750  0.2350
  183SOL    HW2  549   1.601   2.178   2.511 -0.0106  0.4464 -1.2591
  184SOL     OW  550   2.048   0.919   0.731 -0.4042 -0.6305  0.3140
  184SOL    HW1  551   1.956   0.957   0.754 -1.4833  0.3341 -0.3139
  184SOL    HW2  552   2.053   0.820   0.731  1.7455 -0.0174  0.5222
  185SOL     OW  553   1.657   2.750   2.148  0.4343 -0.1381 -0.4714
  185SOL    HW1  554   1.618   2.842   2.120 -2.4030  0.3531 -0.4344
  185SOL    HW2  555   1.655   2.737   2.251 -0.5567  0.3585 -2.1251
  186SOL     OW  556   0.109   2.234   1.711 -0.2141  0.1629  0.3779
  186SOL    HW1  557   0.163   2.320   1.687 -1.8305  0.2518 -1.4794
  186SOL    HW2  558   0.173   2.154   1.731  3.7737  0.4878  2.3082
  187SOL     OW  559   1.421   0.647   1.733 -0.0607  0.0475 -0.7701
  187SOL    HW1  560   1.461   0.719   1.674  0.0724  1.4306  1.1671
  187SOL    HW2  561   1.400   0.685   1.828  0.3202 -0.6278  0.7681
  188SOL     OW  562   2.753   2.743   1.522  0.0480  0.2400 -0.0672
  188SOL    HW1  563   2.709   2.836   1.497 -1.4469  0.8141 -0.4300
  188SOL    HW2  564   2.745   2.672   1.444  0.7602  0.0504 -0.4580
  189SOL     OW  565   0.717   1.011   1.483  0.5644 -0.3051 -0.0698
  189SOL    HW1  566   0.807   1.065   1.463  1.3935  1.3312 -1.1336
  189SOL    HW2  567   0.710   0.928   1.425 -1.7797  1.7538 -0.9251
  190SOL     OW  568   1.476   1.772   1.667  0.3089 -0.0759  0.2431
  190SOL    HW1  569   1.430   1.845   1.605  0.5529 -1.2583  1.2540
  190SOL    HW2  570   1.556   1.807   1.724  1.0128 -2.3614 -0.1149
  191SOL     OW  571   1.035   0.801   1.539 -0.2210 -0.3435  0.1200
  191SOL    HW1  572   1.077   0.713   1.573 -0.2644 -1.4699 -1.0058
  191SOL    HW2  573   1.098   0.875   1.507  1.1636 -0.3672 -0.1592
  192SOL     OW  574   1.901   2.217   1.209  0.2868  0.9082 -0.0596
  192SOL    HW1  575   1.802   2.219   1.169  0.3069  0.7318 -1.5050
  192SOL    HW2  576   1.963   2.282   1.154 -1.3706 -0.9174  1.9763
  193SOL     OW  577   0.505   0.538   0.351 -0.0633 -0.5927 -0.2497
  193SOL    HW1  578   0.501   0.437   0.379  1.5276 -0.9090  1.4690
  193SOL    HW2  579   0.518   0.553   0.253 -1.6129 -0.8471  3.8031
  194SOL     OW  580   0.302   0.827   1.248  0.4942  0.6747  0.1799
  194SOL    HW1  581   0.209   0.786   1.220  0.5056 -1.9112 -2.8417
  194SOL    HW2  582   0.325   0.905   1.182 -2.8642  2.2439 -0.0221
  195SOL     OW  583   0.936   2.940   0.498  0.4442  0.1163 -0.2440
  195SOL    HW1  584   0.924   2.849   0.445  2.4985  0.9567 -0.5175
  195SOL    HW2  585   1.034   2.980   0.490 -1.8396 -0.1110  2.3770
  196SOL     OW  586   0.238   1.452   1.341  0.4965 -0.5502 -0.1003
  196SOL    HW1  587   0.309   1.526   1.359  1.0258  2.6269  2.5224
  196SOL    HW2  588   0.232   1.392   1.425 -0.1722  0.4976 -0.2011
  197SOL     OW  589   0.814   2.001   0.209  0.3142  0.0630  0.2071
  197SOL    HW1  590   0.819   1.987   0.315 -0.0588 -1.0068  1.5170
  197SOL    HW2  591   0.874   1.935   0.162  0.1410 -0.3624  1.5956
  198SOL     OW  592   0.298   1.181   0.232  0.3453 -0.3678  0.4461
  198SOL    HW1  593   0.198   1.184   0.210  1.9739  0.1869  0.2198
  198SOL    HW2  594   0.339   1.279   0.235  2.2320 -0.5502 -1.7862
  199SOL     OW  595   2.270   0.414   2.487 -0.0496 -0.6580  0.4676
  199SOL    HW1  596   2.213   0.381   2.571  3.6257  1.8875  2.1179
  199SOL    HW2  597   2.369   0.393   2.507 -0.9714  0.1546  1.6590
  200SOL     OW  598   0.022   2.887   0.807 -0.6371 -0.3721 -0.2389
  200SOL    HW1  599  -0.065   2.902   0.752 -0.8880  4.1373 -0.9991
  200SOL    HW2  600   0.053   2.983   0.843 -2.3072 -1.2290 -0.7266
  201SOL     OW  601   1.131   0.684   0.551  0.7835  0.1932  0.1019
  201SOL    HW1  602   1.105   0.770   0.597 -0.3717  1.6460 -2.6919
  201SOL    HW2  603   1.054   0.646   0.489 -0.9863 -1.1634 -1.3292
  202SOL     OW  604   0.435   1.215   1.772  0.4861 -0.1150 -0.3642
  202SOL    HW1  605   0.478   1.219   1.677 -1.0186 -2.9228 -1.1973
  202SOL    HW2  606   0.486   1.145   1.831  2.4864 -1.1568  4.0886
  203SOL     OW  607   0.594   0.219   1.531  0.2726 -0.3673 -0.2949
  203SOL    HW1  608   0.597   0.186   1.430 -1.6201  0.6547 -1.7871
  203SOL    HW2  609   0.626   0.156   1.609  0.3023 -3.0316  1.1457
  204SOL     OW  610   2.070   1.882   3.023 -0.2996 -0.3053  0.3536
  204SOL    HW1  611   2.095   1.785   2.986  2.0861 -1.4208  1.6436
  204SOL    HW2  612   2.051   1.943   2.941 -0.1634  0.1304 -1.3739
  205SOL     OW  613   1.887   1.866   0.126 -0.1281  0.3255 -0.1081
  205SOL    HW1  614   1.969   1.857   0.063 -0.7439 -3.7121 -1.0499
  205SOL    HW2  615   1.803   1.904   0.076 -3.1902  1.4194 -3.3459
  206SOL     OW  616   2.504   2.801   0.391 -0.0467  0.0470 -0.0105
  206SOL    HW1  617   2.558   2.718   0.430 -0.8601  0.0931  1.2568
  206SOL    HW2  618   2.554   2.859   0.320 -0.7798  2.0506 -0.8959
  207SOL     OW  619   0.544   1.737   2.851  0.3776  0.0713 -0.4135
  207SOL    HW1  620   0.632   1.681   2.844  0.3281 -0.9708 -2.0744
  207SOL    HW2  621   0.476   1.705   2.926  0.6015 -0.9277  0.0077
  208SOL     OW  622   1.045   1.443   1.362 -0.5470  0.6791  0.2094
  208SOL    HW1  623   0.969   1.501   1.325  1.5901  1.6301  1.3414
  208SOL    HW2  624   1.088   1.477   1.449  0.3008 -0.1890  1.0587
  209SOL     OW  625   0.151   0.917   3.088  0.0670  0.8600 -0.1181
  209SOL    HW1  626   0.205   0.880   3.012 -2.4925 -2.0287 -0.1636
  209SOL    HW2  627   0.188   0.878   3.179 -0.7088 -0.7087 -1.5587
  210SOL     OW  628   1.716   0.452   1.159  0.0298  0.5431  0.0066
  210SOL    HW1  629   1.676   0.538   1.117 -1.1053 -0.7087 -2.5432
  210SOL    HW2  630   1.819   0.446   1.138 -3.5592  0.4419  0.5223
  211SOL     OW  631   2.107   1.056   1.661 -0.0304 -0.1837  0.6007
  211SOL    HW1  632   2.149   0.995   1.736  0.6042  1.7463 -0.7157
  211SOL    HW2  633   2.190   1.104   1.609  1.4262  2.0469 -2.7264
  212SOL     OW  634   0.037   1.007   1.439 -0.2511 -0.4160 -0.2163
  212SOL    HW1  635   0.080   1.097   1.474 -0.9314  0.7401 -0.5146
  212SOL    HW2  636   0.040   0.928   1.507  0.3152  2.2877 -0.7472
  213SOL     OW  637   2.739   0.285   0.280 -0.4057 -0.0106 -0.3239
  213SOL    HW1  638   2.831   0.236   0.280 -3.4639  1.9658 -0.8094
  213SOL    HW2  639   2.723   0.337   0.192  1.3042  1.9566 -0.7088
  214SOL     OW  640   2.160   0.302   2.255  0.5369  0.0047  0.2049
  214SOL    HW1  641   2.193   0.357   2.338 -0.3223  2.6292  1.4641
  214SOL    HW2  642   2.118   0.208   2.283  0.2757 -0.0730  1.1366
  215SOL     OW  643   1.696   2.297   2.050 -0.5690  0.5135  0.2803
  215SOL    HW1  644   1.798   2.315   2.036 -3.5163 -0.4047  1.8015
  215SOL    HW2  645   1.658   2.342   2.137  3.9374 -2.1455  2.2463
  216SOL     OW  646   2.249   0.538   0.654 -0.2539 -0.1996 -0.0263
  216SOL    HW1  647   2.185   0.469   0.598 -0.3258 -0.1734  0.3850
  216SOL    HW2  648   2.272   0.625   0.603  1.0690 -1.3458  1.4125
  217SOL     OW  649   0.781   2.781   2.435 -0.5301  0.0049 -0.3177
  217SOL    HW1  650   0.756   2.685   2.477 -1.7701 -0.4754 -0.1125
  217SOL    HW2  651   0.797   2.774   2.330 -0.8152 -3.5216  0.4608
  218SOL     OW  652   1.932   1.442   0.001 -0.1158  0.3867  0.4228
  218SOL    HW1  653   1.836   1.465  -0.022  0.8186 -2.0294  1.5099
  218SOL    HW2  654   1.951   1.345   0.024 -0.5657  1.9275  0.1202
  219SOL     OW  655   2.377   1.303   2.582  0.4035  0.4282 -0.5295
  219SOL    HW1  656   2.412   1.249   2.505 -3.7023 -0.0762  2.2274
  219SOL    HW2  657   2.371   1.245   2.669  1.8571 -1.1437  2.2355
  220SOL     OW  658   1.436   1.041   1.248 -0.3129  1.1589 -0.0466
  220SOL    HW1  659   1.514   1.006   1.303 -4.1226  0.9301  0.3898
  220SOL    HW2  660   1.447   1.137   1.220  0.4355 -1.5635 -2.7273
  221SOL     OW  661   1.298   1.108   2.154  0.0181  0.2915 -0.2703
  221SOL    HW1  662   1.272   1.197   2.110  0.9633  0.9240 -1.2387
  221SOL    HW2  663   1.387   1.069   2.120  0.5208 -0.7723  0.7665
  222SOL     OW  664   1.315   0.150   1.135 -0.5447 -0.4552 -0.0036
  222SOL    HW1  665   1.411   0.142   1.094 -0.8909  0.8503  1.2127
  222SOL    HW2  666   1.317   0.217   1.215  0.0376 -1.0938  1.8732
  223SOL     OW  667   2.873   0.805   1.975  0.2855  0.6237 -0.4680
  223SOL    HW1  668   2.891   0.791   2.077 -0.6138 -0.6732  0.3347
  223SOL    HW2  669   2.915   0.898   1.949  1.1449  1.5241 -0.2984
  224SOL     OW  670   1.567   1.031   2.784  0.2410 -0.4548 -0.0853
  224SOL    HW1  671   1.594   0.957   2.718 -0.8491  2.0575  0.6662
  224SOL    HW2  672   1.521   1.108   2.738 -0.9849  1.7455  0.9081
  225SOL     OW  673   2.959   2.804   2.932 -0.1647 -0.5168 -0.1803
  225SOL    HW1  674   2.938   2.714   2.884  1.7036 -3.1047 -1.7842
  225SOL    HW2  675   3.027   2.859   2.880  1.3910 -2.5991  1.4395
  226SOL     OW  676   2.452   1.698   2.843 -0.1617  0.5007 -0.0394
  226SOL    HW1  677   2.486   1.657   2.753 -0.3850  0.5112  2.3966
  226SOL    HW2  678   2.455   1.624   2.915  1.6345  0.0635 -1.9499
  227SOL     OW  679   0.768   0.139   2.974 -0.0250  0.1380  0.3598
  227SOL    HW1  680   0.830   0.086   3.042  0.5265  0.0697  0.1023
  227SOL    HW2  681   0.796   0.125   2.877  1.0201 -0.3929  1.6339
  228SOL     OW  682   2.365   0.549   2.785  0.1948  0.2742  0.1243
  228SOL    HW1  683   2.323   0.607   2.709  0.1365  0.8942 -1.8714
  228SOL    HW2  684   2.417   0.469   2.751 -1.1715  0.3148  0.5671
  229SOL     OW  685   0.598   0.501   1.880  0.0711 -0.1437  0.2763
  229SOL    HW1  686   0.629   0.513   1.779  2.2986  3.5706  3.1504
  229SOL    HW2  687   0.673   0.525   1.941 -4.5440  0.5778 -2.7730
  230SOL     OW  688   1.927   1.222   2.147  0.0127  0.0373  0.4132
  230SOL    HW1  689   2.001   1.247   2.076  0.4821  0.4471 -1.1466
  230SOL    HW2  690   1.836   1.238   2.104  2.3608 -1.8409 -1.4243
  231SOL     OW  691   0.633   1.075   2.940 -0.0865 -0.8171 -0.5446
  231SOL    HW1  692   0.736   1.071   2.940  0.0007 -1.7282  2.8982
  231SOL    HW2  693   0.597   1.099   3.033 -1.0022  1.0843  1.8786
  232SOL     OW  694   2.538   0.029   2.736  0.2193  0.2395  0.0312
  232SOL    HW1  695   2.545  -0.071   2.759  0.7621 -0.5658  0.2434
  232SOL    HW2  696   2.537   0.054   2.634  2.4380  0.7431  0.3724
  233SOL     OW  697   1.733   1.290   1.047  0.1546 -0.0895 -0.2677
  233SOL    HW1  698   1.750   1.324   0.949  0.3509 -2.6056 -1.7167
  233SOL    HW2  699   1.799   1.217   1.082 -1.3828  1.1109 -1.2053
  234SOL     OW  700   1.623   2.599   1.908  0.2926  0.6239 -0.6000
  234SOL    HW1  701   1.657   2.656   1.992 -0.3690  0.2440  1.0574
  234SOL    HW2  702   1.562   2.521   1.942 -0.9411  1.6790 -0.4039
  235SOL     OW  703   0.008   3.008   2.821  0.5602 -0.1057 -0.2033
  235SOL    HW1  704   0.083   3.064   2.773 -1.1580 -0.5817  0.1495
  235SOL    HW2  705  -0.043   3.067   2.888 -1.4899  0.4547 -1.0576
  236SOL     OW  706   2.844   0.705   0.041 -0.8250 -0.5362 -0.1818
  236SOL    HW1  707   2.888   0.743   0.127 -1.5047  0.5031 -0.7599
  236SOL    HW2  708   2.891   0.622   0.001  0.5201 -2.2899  1.0247
  237SOL     OW  709   1.488   1.653   1.010  0.3954  0.2168  0.3771
  237SOL    HW1  710   1.587   1.636   1.029 -0.9383  0.7974 -0.6130
  237SOL    HW2  711   1.443   1.704   1.091  0.8229  0.9968  0.2263
  238SOL     OW  712   1.775   1.339   0.766 -0.1445 -0.4920  0.5946
  238SOL    HW1  713   1.857   1.340   0.699 -0.6903 -0.1266  1.2415
  238SOL    HW2  714   1.696   1.405   0.736  0.0629  0.8763 -1.8574
  239SOL     OW  715   2.138   0.283   2.691 -0.0458  0.0672  0.2341
  239SOL    HW1  716   2.223   0.276   2.753 -2.1656 -1.8920 -0.2472
  239SOL    HW2  717   2.065   0.351   2.731 -0.3701  1.7969 -0.4028
  240SOL     OW  718   0.871   0.717   0.227 -0.0860 -0.1610 -0.0219
  240SOL    HW1  719   0.873   0.636   0.160 -0.8485 -1.8974  0.6979
  240SOL    HW2  720   0.859   0.688   0.324  0.9187 -1.6684 -4.5415
  241SOL     OW  721   0.557   0.030   0.348 -0.2598  0.1094 -0.5321
  241SOL    HW1  722   0.561  -0.020   0.258 -1.1496  3.8558  1.8728
  241SOL    HW2  723   0.489  -0.016   0.415 -2.2685 -0.3368  2.0990
  242SOL     OW  724   0.700   2.406   1.139  0.1466 -0.8986 -0.3817
  242SOL    HW1  725   0.693   2.474   1.216  0.1152 -0.1435 -1.2063
  242SOL    HW2  726   0.785   2.426   1.075  3.6202 -0.6633 -0.0305
  243SOL     OW  727   1.076   0.622   2.489  0.2008 -0.2581 -0.4214
  243SOL    HW1  728   1.015   0.693   2.444 -0.9059  0.5957 -1.2006
  243SOL    HW2  729   1.028   0.533   2.507  0.8771  0.1691  1.2638
  244SOL     OW  730   2.819   2.001   2.372 -0.3013 -0.1417  0.9143
  244SOL    HW1  731   2.869   1.996   2.277  0.9425 -0.0609 -1.5274
  244SOL    HW2  732   2.720   1.976   2.366 -1.8086  1.4668 -1.0449
  245SOL     OW  733   2.473   0.707   2.171 -0.4924 -0.1203 -0.3939
  245SOL    HW1  734   2.454   0.785   2.237  1.4540  0.7062 -1.2205
  245SOL    HW2  735   2.546   0.642   2.208  0.2365  2.0025 -1.0322
  246SOL     OW  736   0.244   2.859   1.758 -1.2351 -0.0941 -0.1944
  246SOL    HW1  737   0.172   2.847   1.686  2.2139  2.3453 -2.3943
  246SOL    HW2  738   0.296   2.947   1.743 -1.9413  1.5655 -0.3823
  247SOL     OW  739   2.201   0.524   3.007 -0.1331  0.2075  0.2292
  247SOL    HW1  740   2.268   0.539   2.930 -0.4717 -0.0324  0.4090
  247SOL    HW2  741   2.119   0.591   3.009  0.5933  1.4427  3.1839
  248SOL     OW  742   2.183   1.873   1.614 -0.4380 -0.1853  0.1523
  248SOL    HW1  743   2.243   1.798   1.654  0.3755  0.7671  0.3041
  248SOL    HW2  744   2.089   1.877   1.657  1.5360  3.0733  1.8404
  249SOL     OW  745   2.009   1.936   1.937  0.1437 -0.2761  0.3659
  249SOL    HW1  746   1.992   1.895   1.845  1.0091 -1.4700  0.1267
  249SOL    HW2  747   2.066   2.022   1.943 -0.8884  0.1240  0.4779
  250SOL     OW  748   1.010   0.652   1.882  0.1946  0.2734  0.0176
  250SOL    HW1  749   1.014   0.594   1.972 -3.5127 -2.2065 -1.3476
  250SOL    HW2  750   1.062   0.617   1.801  0.3553  0.7819 -1.1657
  251SOL     OW  751   3.044   1.555   2.590 -0.1499 -0.0378 -0.4692
  251SOL    HW1  752   3.025   1.655   2.578 -0.8701 -1.6485  0.2074
  251SOL    HW2  753   2.958   1.500   2.568  1.7800 -0.9029 -0.7028
  252SOL     OW  754   1.548   0.870   1.600  0.0974 -0.7113 -0.3945
  252SOL    HW1  755   1.626   0.931   1.568 -0.0448  0.2485  0.0961
  252SOL    HW2  756   1.466   0.924   1.641 -1.7616  0.7272 -1.6699
  253SOL     OW  757   1.005   1.527   0.382 -0.3233  0.0647  0.4198
  253SOL    HW1  758   1.076   1.495   0.313  5.1075 -0.9720 -1.4392
  253SOL    HW2  759   0.907   1.504   0.345  0.2109  1.5278 -0.0915
  254SOL     OW  760   1.993   2.138   1.610 -0.2415  0.2220 -0.1617
  254SOL    HW1  761   1.991   2.076   1.527  0.1943  1.9884  1.1806
  254SOL    HW2  762   1.902   2.142   1.657 -1.4730  1.5603 -1.6845
  255SOL     OW  763   0.114   1.141   2.935  0.0659 -0.6220 -0.4807
  255SOL    HW1  764   0.173   1.225   2.945  2.4808 -2.0454  0.9597
  255SOL    HW2  765   0.160   1.053   2.973 -0.1052  0.6754  0.3373
  256SOL     OW  766   2.732   1.315   1.835  0.3796  0.4795 -0.0437
  256SOL    HW1  767   2.667   1.343   1.756  1.5450 -1.2681 -1.1995
  256SOL    HW2  768   2.687   1.252   1.907  2.9625  0.3625  0.1773
  257SOL     OW  769   0.848   0.243   1.863  0.0274  0.1182 -0.2003
  257SOL    HW1  770   0.902   0.308   1.800 -0.1043  1.4418  0.9291
  257SOL    HW2  771   0.882   0.145   1.863  1.7189  0.5595  1.2010
  258SOL     OW  772   2.937   1.283   0.405 -0.1243 -0.1078  0.2594
  258SOL    HW1  773   2.872   1.363   0.373  1.9212 -0.5989 -0.7949
  258SOL    HW2  774   2.972   1.297   0.504 -0.0692  0.4352  2.0287
  259SOL     OW  775   0.518   2.869   3.002  0.3400  0.3683  0.1277
  259SOL    HW1  776   0.459   2.839   3.083 -2.8959 -2.5292 -2.0015
  259SOL    HW2  777   0.524   2.804   2.923  1.1597 -1.6522  1.7368
  260SOL     OW  778   2.648   0.749   2.682 -0.2790  0.3366 -0.1583
  260SOL    HW1  779   2.566   0.818   2.692 -0.9997  0.0830 -2.2942
  260SOL    HW2  780   2.625   0.649   2.710 -2.8056  1.0097 -2.2276
  261SOL     OW  781   2.714   1.298   1.314 -0.1101  0.2728 -0.0897
  261SOL    HW1  782   2.651   1.228   1.265 -0.2484  1.9798 -0.7790
  261SOL    HW2  783   2.814   1.269   1.315 -1.1490 -1.5973 -0.4202
  262SOL     OW  784   1.502   2.948   2.043  0.3622 -0.1495 -0.0892
  262SOL    HW1  785   1.516   3.029   1.977  0.1834 -0.8055  2.0874
  262SOL    HW2  786   1.435   2.879   2.000 -3.4299  1.8856 -1.1970
  263SOL     OW  787   0.892   0.748   2.346  0.1982  0.2381  0.3384
  263SOL    HW1  788   0.858   0.665   2.293 -1.9519 -1.5269 -0.4240
  263SOL    HW2  789   0.903   0.835   2.286  0.3854  0.7770 -2.1333
  264SOL     OW  790   2.283   0.764   0.502 -0.3450  0.5059  0.1406
  264SOL    HW1  791   2.192   0.778   0.455 -1.0243  0.4340  1.7983
  264SOL    HW2  792   2.345   0.851   0.501 -0.1130 -2.4848  1.7474
  265SOL     OW  793   0.903   2.320   2.694 -0.6686  0.1847 -0.3354
  265SOL    HW1  794   0.937   2.400   2.750  0.2757 -1.2383  2.5289
  265SOL    HW2  795   0.854   2.255   2.762  1.7938 -0.5459 -0.8059
  266SOL     OW  796   1.287   1.744   0.025  0.2876  0.1345 -0.1141
  266SOL    HW1  797   1.233   1.791   0.097 -1.1423  0.8270 -0.5164
  266SOL    HW2  798   1.391   1.739   0.041  1.9489 -0.0113  1.7066
  267SOL     OW  799   1.100   0.018   2.310 -0.0281  0.1886  0.0943
  267SOL    HW1  800   1.118  -0.074   2.264  1.1389 -0.7270  0.9144
  267SOL    HW2  801   1.151   0.102   2.270 -2.4767  0.9370 -2.7192
  268SOL     OW  802   0.618   1.142   1.088 -0.4812 -0.3517  0.0116
  268SOL    HW1  803   0.638   1.179   1.184 -1.8656 -2.5660  2.6231
  268SOL    HW2  804   0.634   1.211   1.005 -2.4831 -0.5054 -0.2474
  269SOL     OW  805   2.445   2.588   1.560  0.4325  0.9516 -0.6067
  269SOL    HW1  806   2.528   2.527   1.563 -0.5668  2.6167  1.0519
  269SOL    HW2  807   2.393   2.584   1.651  1.0900  0.1082 -0.9848
  270SOL     OW  808   0.316   2.766   2.034  0.3140  0.1008 -0.4722
  270SOL    HW1  809   0.290   2.776   1.935 -0.1514  1.7758  0.0165
  270SOL    HW2  810   0.249   2.708   2.089  2.0549 -0.8035 -1.0714
  271SOL     OW  811   0.399   1.371   1.134 -0.4451  0.1608 -0.8439
  271SOL    HW1  812   0.351   1.356   1.040 -2.6360 -1.6313  1.7649
  271SOL    HW2  813   0.339   1.401   1.215 -1.9096 -0.7723  0.9776
  272SOL     OW  814   1.981   2.822   1.888  0.1862  0.3355  0.3265
  272SOL    HW1  815   1.897   2.819   1.829 -1.3197 -0.1037 -0.5038
  272SOL    HW2  816   2.052   2.898   1.859  1.6747  0.4251  0.3602
  273SOL     OW  817   1.398   1.435   2.894  0.0214  0.4490  0.2680
  273SOL    HW1  818   1.487   1.415   2.945 -0.5208 -2.0226  0.7362
  273SOL    HW2  819   1.311   1.437   2.958 -0.2827 -1.9015  1.4275
  274SOL     OW  820   1.126   0.489   2.078  0.4477  0.0614 -0.6372
  274SOL    HW1  821   1.181   0.428   2.017 -2.1507  2.6297  1.3234
  274SOL    HW2  822   1.178   0.527   2.158  1.0084  0.4591  0.4142
  275SOL     OW  823   0.645   2.080   1.918  0.3058 -0.8016  0.2353
  275SOL    HW1  824   0.636   2.175   1.962 -0.8703  0.4232 -0.5846
  275SOL    HW2  825   0.555   2.032   1.899 -2.9516 -1.0388  2.3348
  276SOL     OW  826   2.156   0.932   2.767 -0.4384  0.9131  0.0192
  276SOL    HW1  827   2.072   0.952   2.711  1.0194 -2.9533  1.3214
  276SOL    HW2  828   2.140   0.854   2.837 -2.2086  2.8473  3.8344
  277SOL     OW  829   3.009   0.815   0.214  0.1279 -0.7038  0.2721
  277SOL    HW1  830   3.094   0.866   0.180 -4.4340  0.1002  0.6314
  277SOL    HW2  831   3.038   0.739   0.280 -4.5244  1.0102 -1.0063
  278SOL     OW  832   0.218   0.294   2.930 -0.3907  0.2648  0.0829
  278SOL    HW1  833   0.301   0.239   2.951  0.3895 -2.6730  1.6008
  278SOL    HW2  834   0.221   0.397   2.955  3.2802  0.0854 -0.8216
  279SOL     OW  835   0.135   0.024   0.878  0.2928 -0.3687 -0.0226
  279SOL    HW1  836   0.168   0.046   0.976 -0.7273  0.8871 -0.7620
  279SOL    HW2  837   0.209   0.033   0.805 -0.7936  0.4242 -1.2217
  280SOL     OW  838   1.663   2.938   2.492  0.1474  0.1157  0.2828
  280SOL    HW1  839   1.746   2.977   2.547  2.5823  0.2496 -0.8744
  280SOL    HW2  840   1.576   2.987   2.519 -3.5393 -0.5881 -1.0083
  281SOL     OW  841   0.651   0.998   2.330 -0.1661 -0.2460 -0.2477
  281SOL    HW1  842   0.642   0.987   2.227 -1.7258 -1.7355 -0.8049
  281SOL    HW2  843   0.603   0.923   2.384  0.3432  0.0213  0.3584
  282SOL     OW  844   1.645   2.494   0.577  0.0952  0.1512 -0.3432
  282SOL    HW1  845   1.626   2.427   0.499 -0.9153 -1.4939  0.6375
  282SOL    HW2  846   1.640   2.594   0.546 -1.3691  1.2537  0.0403
  283SOL     OW  847   1.085   0.913   0.695 -0.0628  0.8461 -0.1650
  283SOL    HW1  848   1.146   0.862   0.761  0.6947  0.3254 -1.8320
  283SOL    HW2  849   1.037   1.001   0.740 -1.6579  0.3158  2.0091
  284SOL     OW  850   2.224   2.839   2.413  0.4583  0.0149 -0.3198
  284SOL    HW1  851   2.209   2.868   2.510 -0.3705 -2.6525 -0.6570
  284SOL    HW2  852   2.256   2.916   2.347  1.1182  5.1419 -2.4197
  285SOL     OW  853   1.382   3.058   2.534  0.3218 -0.0461  0.5305
  285SOL    HW1  854   1.384   3.071   2.430  0.6515 -1.2451 -0.9214
  285SOL    HW2  855   1.295   3.106   2.574  0.8403 -2.7281 -1.9655
  286SOL     OW  856   0.414   0.479   0.633 -0.1934  0.1582 -0.3477
  286SOL    HW1  857   0.414   0.424   0.717  2.2774  1.2676  1.3075
  286SOL    HW2  858   0.417   0.425   0.548 -0.4527  1.2851 -1.6506
  287SOL     OW  859   0.054   1.290   2.535 -0.4657  0.3046  0.0900
  287SOL    HW1  860   0.021   1.222   2.603 -0.7634 -1.4226  1.6198
  287SOL    HW2  861   0.021   1.387   2.558 -0.5617  1.9964  1.5898
  288SOL     OW  862   1.576   2.566   1.497  0.1376 -0.0667 -0.2659
  288SOL    HW1  863   1.655   2.600   1.559  1.2263  3.4901 -0.5462
  288SOL    HW2  864   1.600   2.570   1.404 -1.9417 -0.7155  1.8644
  289SOL     OW  865   0.629   2.732   0.820  0.0942 -0.5010 -0.4471
  289SOL    HW1  866   0.665   2.806   0.753  2.9837 -1.3836  0.9215
  289SOL    HW2  867   0.639   2.755   0.921 -1.6618  1.3553  1.2463
  290SOL     OW  868   2.952   1.254   1.685 -0.1883 -0.3124  0.5823
  290SOL    HW1  869   2.872   1.300   1.732 -1.1963 -0.7076 -2.3529
  290SOL    HW2  870   3.002   1.186   1.749 -2.0939 -1.1577  0.5935
  291SOL     OW  871   1.992   0.028   0.092 -0.2403  0.0757 -0.4402
  291SOL    HW1  872   2.005   0.017   0.193  0.7939 -0.7168 -1.0773
  291SOL    HW2  873   2.060   0.097   0.053  0.2157  0.0268  1.7315
  292SOL     OW  874   2.983   1.175   3.063  0.2169 -0.2521  0.0885
  292SOL    HW1  875   2.910   1.194   2.994  0.3101  1.0500  0.6092
  292SOL    HW2  876   3.079   1.173   3.020 -1.1322 -1.6267 -0.5283
  293SOL     OW  877   0.539   2.065   0.160 -0.2732 -0.2386  0.1838
  293SOL    HW1  878   0.515   2.127   0.240  1.6422  0.9900  0.0149
  293SOL    HW2  879   0.633   2.027   0.163 -0.8872 -0.1781  0.8389
  294SOL     OW  880   1.641   2.109   1.855  0.6628 -0.1307 -0.4974
  294SOL    HW1  881   1.647   2.158   1.946  2.4097  1.0080  0.5699
  294SOL    HW2  882   1.674   2.164   1.775 -0.0386 -0.4945  1.8626
  295SOL     OW  883   0.964   1.196   0.407 -0.1947  0.0623  1.0815
  295SOL    HW1  884   1.055   1.188   0.468  1.9515 -0.2582 -2.4057
  295SOL    HW2  885   0.888   1.131   0.436  0.0063 -0.0381 -1.3228
  296SOL     OW  886   1.283   2.094   2.536 -0.4514 -0.2171 -0.6421
  296SOL    HW1  887   1.249   2.149   2.455  2.0444 -0.9314  3.3275
  296SOL    HW2  888   1.316   1.997   2.515  1.0754 -0.8651  4.0723
  297SOL     OW  889   1.530   0.707   1.367  0.1852  0.2013 -0.2143
  297SOL    HW1  890   1.594   0.632   1.397  0.7377 -1.4238 -3.5165
  297SOL    HW2  891   1.534   0.786   1.434  0.0746 -3.9112  2.6842
  298SOL     OW  892   0.552   1.308   2.820 -0.4247 -0.6277 -0.1590
  298SOL    HW1  893   0.585   1.227   2.874  1.6776  1.5451  2.0651
  298SOL    HW2  894   0.608   1.313   2.732  1.5441  0.6827  3.0991
  299SOL     OW  895   0.362   0.379   1.486  0.3339 -0.1217 -0.2772
  299SOL    HW1  896   0.373   0.459   1.418 -0.7485  0.4903 -0.3140
  299SOL    HW2  897   0.450   0.332   1.517  0.5412 -0.5402 -2.1500
  300SOL     OW  898   1.255   1.804   2.847 -0.5574 -0.2455  0.3222
  300SOL    HW1  899   1.260   1.717   2.790 -1.7217  0.3096  2.2964
  300SOL    HW2  900   1.267   1.782   2.950 -0.3566  0.5611  2.2451
  301SOL     OW  901   0.435   0.295   0.414  0.6062  0.2690 -0.2159
  301SOL    HW1  902   0.337   0.251   0.417  0.7122  0.0624  0.1824
  301SOL    HW2  903   0.501   0.233   0.364 -1.7945 -0.3935 -0.3164
  302SOL     OW  904   1.174   2.290   2.357 -0.1027 -0.4087 -0.1803
  302SOL    HW1  905   1.125   2.376   2.389 -2.2712  3.2256  0.1183
  302SOL    HW2  906   1.115   2.232   2.290  1.2446 -1.1608  0.7326
  303SOL     OW  907   0.944   2.405   0.767 -0.0916 -0.1396  0.5987
  303SOL    HW1  908   0.975   2.482   0.703 -0.2708  1.1942  1.6405
  303SOL    HW2  909   0.960   2.431   0.868  1.4805 -1.3579  1.3107
  304SOL     OW  910   0.071   2.015   0.684 -0.0363  0.2864 -0.4587
  304SOL    HW1  911   0.094   1.953   0.606 -1.5513  3.0889  3.1416
  304SOL    HW2  912   0.007   2.092   0.646 -1.0542  1.9326  2.1960
  305SOL     OW  913   1.626   0.879   0.692  0.2821  0.0778  0.2397
  305SOL    HW1  914   1.538   0.872   0.632 -0.8395 -2.0193 -0.4226
  305SOL    HW2  915   1.697   0.820   0.643  1.1415 -0.9565  0.0037
  306SOL     OW  916   0.433   1.908   1.931  0.0522 -0.1050 -0.6342
  306SOL    HW1  917   0.479   1.835   1.869 -1.8339 -2.6085  0.9813
  306SOL    HW2  918   0.430   1.882   2.033 -1.3513 -0.3331  1.1493
  307SOL     OW  919   3.093   0.858   2.528 -0.2301  0.0953 -0.0822
  307SOL    HW1  920   3.088   0.932   2.598  1.3852 -2.0680  0.6222
  307SOL    HW2  921   3.006   0.813   2.503  1.3288 -2.4518 -1.7981
  308SOL     OW  922   1.578   2.669   2.823  0.1534 -0.1805 -0.0039
  308SOL    HW1  923   1.573   2.693   2.726 -2.5255  0.4991  3.9313
  308SOL    HW2  924   1.516   2.587   2.846 -1.9563  0.2386  0.7254
  309SOL     OW  925   1.241   0.021   1.800  0.1277  0.2338  0.3735
  309SOL    HW1  926   1.340   0.019   1.838 -0.3654  1.0559 -1.1858
  309SOL    HW2  927   1.249   0.044   1.692  3.2278  1.1155 -1.8037
  310SOL     OW  928   1.377   2.667   0.707 -1.5664  0.0568  0.4162
  310SOL    HW1  929   1.308   2.740   0.718  0.2681 -1.2351  1.1280
  310SOL    HW2  930   1.467   2.711   0.686 -4.1629  0.1482  1.0883
  311SOL     OW  931   1.219   0.976   1.453  0.5071 -0.2811 -0.3729
  311SOL    HW1  932   1.276   0.959   1.372 -3.7364  0.2204  1.2792
  311SOL    HW2  933   1.227   1.073   1.496 -0.3570  1.3601 -3.6379
  312SOL     OW  934   1.604   0.658   1.027 -1.1934  0.8265  0.4919
  312SOL    HW1  935   1.577   0.759   1.037 -0.7104 -0.0324 -0.4861
  312SOL    HW2  936   1.535   0.602   0.968 -0.4477  0.1682  1.2883
  313SOL     OW  937   1.596   1.452   0.491  0.4583  0.2500  0.2334
  313SOL    HW1  938   1.501   1.418   0.521  2.0421  1.4537  2.0269
  313SOL    HW2  939   1.654   1.370   0.466 -2.1063 -1.5786  2.6224
  314SOL     OW  940   2.925   0.095   3.022  0.4288  0.2976 -0.6841
  314SOL    HW1  941   2.943   0.132   3.116 -0.8570  0.0380 -2.5469
  314SOL    HW2  942   2.857   0.018   3.024  0.2482  0.8296 -1.5658
  315SOL     OW  943   1.262   0.242   2.777 -0.4960  0.3300 -0.0332
  315SOL    HW1  944   1.214   0.184   2.705 -1.3519 -1.5362 -0.4145
  315SOL    HW2  945   1.285   0.188   2.864 -1.3686  0.6103 -0.0223
  316SOL     OW  946   1.699   2.073   0.917 -0.3721 -0.0851  0.0518
  316SOL    HW1  947   1.647   2.109   0.999 -0.6216 -0.2003  1.9905
  316SOL    HW2  948   1.724   2.151   0.848 -1.9651 -4.8779 -0.8669
  317SOL     OW  949   1.163   0.716   2.816  0.0565  0.3490 -0.1337
  317SOL    HW1  950   1.108   0.750   2.900  0.3133  1.1267 -0.2343
  317SOL    HW2  951   1.106   0.643   2.768 -0.8905 -1.4054  0.2834
  318SOL     OW  952   1.399   3.081   2.266 -0.4144 -0.0327  0.0036
  318SOL    HW1  953   1.407   3.182   2.240  3.0177 -1.6161 -1.7339
  318SOL    HW2  954   1.431   3.014   2.194  0.3547 -1.1895 -1.4742
  319SOL     OW  955   0.639   2.381   2.938  0.0862  0.4030 -0.2380
  319SOL    HW1  956   0.547   2.352   2.987 -0.8464 -1.2464  1.5483
  319SOL    HW2  957   0.703   2.296   2.929 -1.5849 -2.3163 -3.0471
  320SOL     OW  958   1.614   2.269   0.393 -0.6012 -0.2379 -0.3241
  320SOL    HW1  959   1.709   2.241   0.421  0.8459  2.2629  0.2275
  320SOL    HW2  960   1.544   2.221   0.451  1.1355  1.2699 -0.5667
  321SOL     OW  961   1.609   2.766   0.542 -0.0241  0.4648 -0.2348
  321SOL    HW1  962   1.532   2.803   0.480  1.1325 -1.2358 -0.9717
  321SOL    HW2  963   1.696   2.819   0.546 -0.2656 -4.1346 -1.9979
  322SOL     OW  964   2.679   1.076   2.237  0.0679 -0.2663 -0.2097
  322SOL    HW1  965   2.740   1.069   2.322 -3.6739 -2.6254  1.1153
  322SOL    HW2  966   2.591   1.031   2.261  2.0695  1.7612 -1.4364
  323SOL     OW  967   1.018   2.705   0.860  0.3086 -0.3599 -0.3842
  323SOL    HW1  968   1.035   2.668   0.762  0.8430 -1.1403  2.1665
  323SOL    HW2  969   0.986   2.804   0.859 -1.4760 -0.0900  1.5930
  324SOL     OW  970   0.100   2.503   2.435 -0.2562  0.3947  0.4145
  324SOL    HW1  971   0.074   2.407   2.457 -0.8400  0.8133  2.0739
  324SOL    HW2  972   0.064   2.564   2.511  0.5293 -2.0444  0.3702
  325SOL     OW  973   1.176   3.065   0.481 -0.4215 -0.2316 -0.0618
  325SOL    HW1  974   1.181   3.113   0.386  0.2318  1.2814 -1.2925
  325SOL    HW2  975   1.176   3.122   0.568  1.3933  1.8664  2.6917
  326SOL     OW  976   2.312   0.784   0.049  0.7255 -0.1885 -0.2935
  326SOL    HW1  977   2.223   0.755   0.004 -0.7874  1.6510  0.4555
  326SOL    HW2  978   2.350   0.714   0.112 -0.8475  0.2245  0.7478
  327SOL     OW  979   2.708   0.417   0.530 -0.4227 -0.5663 -0.0116
  327SOL    HW1  980   2.719   0.383   0.433 -0.9835  0.5723 -0.1418
  327SOL    HW2  981   2.623   0.378   0.579 -0.1483 -1.0720 -1.2228
  328SOL     OW  982   2.522   0.632   0.353 -0.1836  0.4287 -0.0218
  328SOL    HW1  983   2.435   0.674   0.381  0.0711  0.3585  0.7603
  328SOL    HW2  984   2.579   0.583   0.419 -1.6977 -2.5137 -0.2056
  329SOL     OW  985   2.970   2.938   2.139 -0.1585  0.0512  0.6040
  329SOL    HW1  986   3.021   2.897   2.215  0.2995  1.0447  0.8606
  329SOL    HW2  987   3.003   3.036   2.131 -0.9119  0.0101 -2.0381
  330SOL     OW  988   0.526   0.218   1.831  0.3916 -0.3318  0.0556
  330SOL    HW1  989   0.535   0.314   1.791  0.2863 -0.7604 -0.6646
  330SOL    HW2  990   0.601   0.206   1.904  2.4865 -0.3892 -0.6931
  331SOL     OW  991   2.908   1.917   1.091  0.4158 -0.1916 -0.0960
  331SOL    HW1  992   2.965   1.997   1.060  0.7513  1.8675 -1.3596
  331SOL    HW2  993   2.855   1.939   1.181  0.8341 -1.1788  1.0469
  332SOL     OW  994   0.437   1.044   0.052  0.1804  0.3882  0.8043
  332SOL    HW1  995   0.378   1.006  -0.028 -1.3417 -0.3766 -2.0270
  332SOL    HW2  996   0.382   1.088   0.129 -3.1526 -0.4196 -0.6378
  333SOL     OW  997   2.849   1.045   0.274 -0.0085  0.3153 -0.6718
  333SOL    HW1  998   2.895   1.105   0.347  0.6029 -0.2008 -1.1426
  333SOL    HW2  999   2.906   0.961   0.252  0.9786  3.5451 -1.3344
  334SOL     OW 1000   1.648   1.169   1.913  0.0898 -0.0993 -0.0318
  334SOL    HW1 1001   1.719   1.134   1.855 -1.5788  2.6607  3.2287
  334SOL    HW2 1002   1.676   1.258   1.956  1.0794  0.4486 -2.2203
  335SOL     OW 1003   1.988   2.781   2.604  0.3444 -0.2581 -0.2380
  335SOL    HW1 1004   2.024   2.760   2.701 -2.3070  1.3870 -0.0939
  335SOL    HW2 1005   1.989   2.885   2.589  2.3498 -1.7741  1.7609
  336SOL     OW 1006   0.224   0.069   2.704  0.1934  0.0128  0.2211
  336SOL    HW1 1007   0.322   0.033   2.702 -1.4228  0.8101  3.8442
  336SOL    HW2 1008   0.205   0.141   2.777  0.8372  1.0225  1.0035
  337SOL     OW 1009   0.981   2.800   2.856 -0.6469 -0.0002  0.7019
  337SOL    HW1 1010   0.943   2.754   2.937  1.6267 -1.0190  1.5130
  337SOL    HW2 1011   1.077   2.773   2.836 -0.1440  0.6901 -0.8735
  338SOL     OW 1012   3.099   1.005   0.603  0.1829  0.1211  0.0736
  338SOL    HW1 1013   3.030   0.986   0.680  0.7319  3.3493  0.9161
  338SOL    HW2 1014   3.122   1.105   0.607 -2.2848 -1.7314  0.1899
  339SOL     OW 1015   1.693   1.388   2.069 -0.7117 -0.2756  0.1670
  339SOL    HW1 1016   1.591   1.408   2.078  0.0732  0.6939 -1.5179
  339SOL    HW2 1017   1.752   1.477   2.054 -0.9076  0.6665  0.3837
  340SOL     OW 1018   2.289   0.756   1.251  0.3287 -0.9049 -0.6582
  340SOL    HW1 1019   2.212   0.810   1.208  0.7315 -1.9751 -3.3776
  340SOL    HW2 1020   2.310   0.671   1.201  0.9611  1.5164  0.0224
  341SOL     OW 1021   1.875   2.206   0.447  0.4429 -0.0230 -0.5262
  341SOL    HW1 1022   1.901   2.174   0.349  1.4859 -2.8485 -3.7771
  341SOL    HW2 1023   1.954   2.232   0.504 -0.5341 -0.7369 -0.4331
  342SOL     OW 1024   2.219   2.168   2.821  0.1498 -0.9505  0.0617
  342SOL    HW1 1025   2.291   2.096   2.852 -3.4139 -0.4685 -0.0793
  342SOL    HW2 1026   2.124   2.127   2.821 -2.0302 -2.0800  1.4182
  343SOL     OW 1027   0.319   0.897   2.870  0.5051 -0.2360  0.2913
  343SOL    HW1 1028   0.303   0.949   2.781 -1.8531  1.0941  1.4382
  343SOL    HW2 1029   0.417   0.880   2.891 -3.1264  0.1687 -0.0589
  344SOL     OW 1030   1.845   1.477   0.338 -0.6481  0.2037  0.7369
  344SOL    HW1 1031   1.841   1.406   0.262  1.4771  1.1007 -2.3575
  344SOL    HW2 1032   1.781   1.559   0.326  0.7894  1.3388 -0.2960
  345SOL     OW 1033   1.416   2.209   2.859 -0.3597 -0.3562  0.0643
  345SOL    HW1 1034   1.326   2.173   2.818 -0.9598 -0.6788  1.3351
  345SOL    HW2 1035   1.502   2.171   2.814  0.2870  0.6743 -0.0906
  346SOL     OW 1036   2.440   0.903   1.445 -0.0030  0.5772 -0.8520
  346SOL    HW1 1037   2.405   0.991   1.487 -0.2835 -1.3999 -1.3344
  346SOL    HW2 1038   2.369   0.857   1.384  1.0216 -0.1942 -2.5067
  347SOL     OW 1039   0.677   2.792   1.513 -0.0228  0.4916 -0.3776
  347SOL    HW1 1040   0.667   2.765   1.611 -1.0856  3.0675  1.0742
  347SOL    HW2 1041   0.608   2.867   1.491 -0.5873  1.5387 -0.8940
  348SOL     OW 1042   0.079   0.687   2.803 -0.0693  0.0029  0.3765
  348SOL    HW1 1043  -0.024   0.695   2.777  0.4670 -0.4258 -0.5102
  348SOL    HW2 1044   0.131   0.773   2.777 -2.6319  0.1714 -0.1681
  349SOL     OW 1045   1.921   0.461   2.776 -0.1129 -0.3030  0.6470
  349SOL    HW1 1046   1.889   0.523   2.697  1.7833  1.4140 -0.9620
  349SOL    HW2 1047   1.860   0.473   2.859 -0.8953  1.8132 -0.8763
  350SOL     OW 1048   1.654   0.368   0.370 -0.1103  0.2016  0.3096
  350SOL    HW1 1049   1.734   0.363   0.436 -1.5058  2.8228  0.4665
  350SOL    HW2 1050   1.625   0.457   0.326 -2.6343 -0.2867 -2.1435
  351SOL     OW 1051   0.932   0.918   2.138  0.0026  0.8208  0.6354
  351SOL    HW1 1052   0.939   1.019   2.107 -0.2251  0.2720 -0.4024
  351SOL    HW2 1053   0.872   0.856   2.079 -1.3226 -0.3374 -0.7041
  352SOL     OW 1054   1.981   1.394   0.567  0.2671  0.0784  0.1569
  352SOL    HW1 1055   1.947   1.443   0.486 -0.3823  1.5446 -2.6369
  352SOL    HW2 1056   2.075   1.429   0.600  1.1317  1.9674 -0.1318
  353SOL     OW 1057   2.132   2.818   1.183 -0.2574  0.0359 -0.3104
  353SOL    HW1 1058   2.231   2.809   1.149 -2.1927  0.7984  0.1727
  353SOL    HW2 1059   2.060   2.781   1.116 -0.8342 -1.0582 -0.4018
  354SOL     OW 1060   0.287   1.363   2.925 -0.2397  0.2355 -0.3203
  354SOL    HW1 1061   0.252   1.441   2.867  0.4142 -1.1923  1.9425
  354SOL    HW2 1062   0.378   1.323   2.887 -0.3731  0.6310  0.7656
  355SOL     OW 1063   0.447   1.477   0.552  0.1146  0.1525  0.6030
  355SOL    HW1 1064   0.468   1.545   0.626 -0.9506  0.8889  0.2113
  355SOL    HW2 1065   0.525   1.411   0.547  0.9266  1.4341  1.5681
  356SOL     OW 1066   0.839   0.420   2.072  0.7293  0.8191  0.2350
  356SOL    HW1 1067   0.941   0.440   2.090  0.7387 -0.0461  2.1684
  356SOL    HW2 1068   0.824   0.345   1.997  1.3583 -1.1168 -1.9858
  357SOL     OW 1069   1.054   1.280   0.159 -0.2097 -0.3050 -0.4438
  357SOL    HW1 1070   0.980   1.262   0.089  1.9886 -0.0053 -1.4603
  357SOL    HW2 1071   1.021   1.254   0.254  0.9880  0.4897  1.7066
  358SOL     OW 1072   1.619   1.663   0.323  0.0110  0.1991  0.3368
  358SOL    HW1 1073   1.593   1.573   0.363  2.0854  0.8976  0.2052
  358SOL    HW2 1074   1.583   1.743   0.378  2.1371 -0.5551  2.3724
  359SOL     OW 1075   1.566   2.706   0.134  0.0941  0.0313 -0.0391
  359SOL    HW1 1076   1.583   2.621   0.073  0.3051 -0.5521  1.7328
  359SOL    HW2 1077   1.483   2.688   0.195 -2.2587 -1.0746  2.8736
  360SOL     OW 1078   0.875   0.575   0.459  0.1659  0.1954 -0.3829
  360SOL    HW1 1079   0.787   0.577   0.523 -0.7346  1.8841  1.6509
  360SOL    HW2 1080   0.912   0.479   0.454  1.9410 -1.9033  0.1733
  361SOL     OW 1081   1.277   1.362   0.647 -0.2966 -0.2711 -0.2817
  361SOL    HW1 1082   1.320   1.398   0.734 -2.4054  1.4555 -1.7020
  361SOL    HW2 1083   1.173   1.366   0.648 -1.7945  0.4242  0.8160
  362SOL     OW 1084   1.384   1.727   0.777  0.1429  0.4850 -0.2472
  362SOL    HW1 1085   1.412   1.695   0.873  0.8424  0.5452 -2.3692
  362SOL    HW2 1086   1.415   1.825   0.762 -2.2546 -0.3827 -0.5978
  363SOL     OW 1087   1.125   1.322   2.036  0.0396  0.6648 -0.2087
  363SOL    HW1 1088   1.114   1.403   2.099  0.4965 -0.6845  0.2914
  363SOL    HW2 1089   1.168   1.344   1.947  3.5583 -1.2600  2.0338
  364SOL     OW 1090   0.590   2.324   2.008 -0.1064  0.0460 -0.0341
  364SOL    HW1 1091   0.487   2.334   1.988 -1.4278  1.0034 -1.8373
  364SOL    HW2 1092   0.639   2.403   1.959  0.0222 -0.1669 -3.0755
  365SOL     OW 1093   1.151   1.826   1.446 -0.2481  1.1398 -0.2028
  365SOL    HW1 1094   1.059   1.846   1.494  2.2455  0.7235  1.2475
  365SOL    HW2 1095   1.171   1.726   1.439 -0.4513  2.1170  0.7640
  366SOL     OW 1096   2.819   2.072   0.466 -0.2958  0.0861 -0.0422
  366SOL    HW1 1097   2.731   2.021   0.462 -1.7614  0.6731 -0.6699
  366SOL    HW2 1098   2.903   2.009   0.444 -1.1121 -2.0417 -1.4502
  367SOL     OW 1099   0.802   1.202   0.069 -0.4323 -0.0027 -0.7388
  367SOL    HW1 1100   0.835   1.119   0.116  1.8080  4.7535 -0.0205
  367SOL    HW2 1101   0.815   1.198  -0.034 -2.5869  2.7511  1.4388
  368SOL     OW 1102   1.515   0.504   0.622  0.1922  0.8007 -0.0404
  368SOL    HW1 1103   1.455   0.547   0.547  1.5546  2.8619 -1.8107
  368SOL    HW2 1104   1.610   0.484   0.591 -0.5734  0.4044  0.8761
  369SOL     OW 1105   0.299   1.681   0.096 -0.1204  0.2951  0.0739
  369SOL    HW1 1106   0.295   1.780   0.125  0.6724  1.7855 -2.6281
  369SOL    HW2 1107   0.221   1.617   0.124  3.9701 -0.8126 -0.8009
  370SOL     OW 1108   0.470   2.139   0.982  0.2122  0.2635 -0.0908
  370SOL    HW1 1109   0.471   2.242   0.968  0.1486 -0.3172  2.4886
  370SOL    HW2 1110   0.376   2.099   0.958  0.7986 -0.8724 -0.9903
  371SOL     OW 1111   2.931   2.215   2.767 -0.5213  0.4629 -0.0209
  371SOL    HW1 1112   2.937   2.204   2.869  0.6609 -0.6699  2.3786
  371SOL    HW2 1113   3.027   2.233   2.723 -0.6799 -0.1867  0.0986
  372SOL     OW 1114   0.880   1.885   1.016  0.3708  0.0393 -0.4727
  372SOL    HW1 1115   0.854   1.983   0.998 -0.2194 -0.6915  1.6805
  372SOL    HW2 1116   0.954   1.857   0.952  2.0167  0.2970 -0.0720
  373SOL     OW 1117   1.942   1.946   0.936 -0.3988  0.1683  0.0285
  373SOL    HW1 1118   2.020   1.984   0.995  1.9644 -1.2422 -0.5304
  373SOL    HW2 1119   1.850   1.996   0.947  0.0881  0.4317 -1.2650
  374SOL     OW 1120   1.850   0.421   0.571  0.3745 -0.9056  0.2694
  374SOL    HW1 1121   1.849   0.379   0.663 -1.5172  0.3903 -3.2946
  374SOL    HW2 1122   1.948   0.400   0.530 -0.4558 -0.7092 -0.2269
  375SOL     OW 1123   2.474   2.287   1.096 -0.1043  0.1284 -0.6684
  375SOL    HW1 1124   2.503   2.215   1.023  1.5815 -2.6192 -0.3857
  375SOL    HW2 1125   2.496   2.250   1.192 -1.3289 -1.5924 -1.6099
  376SOL     OW 1126   3.069   0.644   1.459  0.0429 -0.0811 -0.5777
  376SOL    HW1 1127   3.114   0.711   1.524 -1.7141 -1.0801  2.8849
  376SOL    HW2 1128   2.969   0.665   1.442  2.4852 -1.8093 -0.2146
  377SOL     OW 1129   2.207   2.830   0.332  0.4507  0.6268  0.3193
  377SOL    HW1 1130   2.139   2.897   0.367  0.5877 -3.1087  1.3430
  377SOL    HW2 1131   2.298   2.827   0.384  2.1181 -1.1731 -1.2198
  378SOL     OW 1132   1.875   1.848   2.655  0.2912 -0.0376 -0.2139
  378SOL    HW1 1133   1.920   1.754   2.678  0.7313  1.1791 -0.3413
  378SOL    HW2 1134   1.787   1.840   2.601 -0.5010  2.7188  0.6385
  379SOL     OW 1135   0.879   0.128   2.702  0.3716 -0.1333 -0.0007
  379SOL    HW1 1136   0.867   0.025   2.692 -3.6788  0.1488  1.5895
  379SOL    HW2 1137   0.820   0.181   2.634 -0.6879  0.3729 -0.6882
  380SOL     OW 1138   1.568   1.168   0.545 -0.4428  0.1990  0.0102
  380SOL    HW1 1139   1.523   1.076   0.518  1.1477 -2.0060 -1.9652
  380SOL    HW2 1140   1.523   1.215   0.624  0.9030  0.1851 -0.7972
  381SOL     OW 1141   1.286   1.239   1.505  0.0580 -0.2573 -0.1227
  381SOL    HW1 1142   1.319   1.252   1.409 -0.1301 -0.2323  2.3120
  381SOL    HW2 1143   1.362   1.250   1.578 -0.9024 -2.5088  2.1420
  382SOL     OW 1144   1.747   0.795   0.254  0.6878  0.4143  0.1166
  382SOL    HW1 1145   1.775   0.781   0.152  0.7950  0.2826 -2.3433
  382SOL    HW2 1146   1.824   0.782   0.320  1.1985 -1.9204 -3.4854
  383SOL     OW 1147   2.684   1.006   1.550  0.6295 -0.3608  0.2189
  383SOL    HW1 1148   2.602   0.957   1.503 -1.3614 -2.2714  1.0923
  383SOL    HW2 1149   2.776   0.974   1.513 -2.4047  3.1719  2.5781
  384SOL     OW 1150   1.019   2.301   0.148  0.1026  0.2262  0.4085
  384SOL    HW1 1151   0.936   2.352   0.164  1.7567 -1.3493  1.4744
  384SOL    HW2 1152   1.009   2.201   0.184  0.9525 -2.7695 -0.6264
  385SOL     OW 1153   3.002   2.060   1.703  0.9783  0.2061  0.1641
  385SOL    HW1 1154   3.058   2.148   1.700 -1.1660 -0.1959  2.8917
  385SOL    HW2 1155   3.044   1.969   1.686  1.2977 -1.7707  0.9901
  386SOL     OW 1156   0.436   1.059   0.456  0.1858  0.7415 -0.1458
  386SOL    HW1 1157   0.448   0.957   0.450 -2.0874  0.4194 -1.1169
  386SOL    HW2 1158   0.396   1.097   0.368 -1.1225  1.9315 -3.3326
  387SOL     OW 1159   0.996   0.363   1.675 -0.1075  0.0358 -0.2853
  387SOL    HW1 1160   1.068   0.444   1.674 -0.1042  3.4740 -0.0230
  387SOL    HW2 1161   1.014   0.295   1.602 -2.0599  1.3291  1.9402
  388SOL     OW 1162   1.255   2.564   1.738 -0.2990  0.2264  0.3126
  388SOL    HW1 1163   1.285   2.550   1.639  0.1026  0.2422 -0.0164
  388SOL    HW2 1164   1.312   2.503   1.798 -1.1367 -0.2538 -2.0459
  389SOL     OW 1165   0.245   0.022   1.129  0.3256  0.4311 -0.4586
  389SOL    HW1 1166   0.218   0.001   1.226 -1.9198  0.0315  1.4277
  389SOL    HW2 1167   0.303  -0.057   1.091  1.5651 -0.7487  1.6183
  390SOL     OW 1168   1.084   0.842   1.174 -0.1271 -0.1809  0.5808
  390SOL    HW1 1169   1.184   0.820   1.154  1.9757  1.5510 -1.6559
  390SOL    HW2 1170   1.046   0.799   1.258  1.4771 -0.1110 -2.9405
  391SOL     OW 1171   2.102   1.160   1.054  0.7615  0.2803 -0.4575
  391SOL    HW1 1172   2.066   1.076   1.103  0.1246  1.0377  0.6214
  391SOL    HW2 1173   2.168   1.136   0.973  2.7427 -0.6597 -1.1831
  392SOL     OW 1174   0.912   2.703  -0.001  0.1883  0.1514  0.1747
  392SOL    HW1 1175   0.844   2.684   0.073  0.8069  0.1527 -0.9007
  392SOL    HW2 1176   0.979   2.774   0.031 -0.0994 -2.8541  0.3054
  393SOL     OW 1177   0.356   0.575   1.976 -0.4111  0.1469 -0.2330
  393SOL    HW1 1178   0.286   0.503   1.950  0.3122 -0.9104  0.3828
  393SOL    HW2 1179   0.450   0.556   1.931 -0.1569  0.8342  0.7535
  394SOL     OW 1180   2.827   1.789   2.752  0.1354 -0.2669  0.1165
  394SOL    HW1 1181   2.880   1.815   2.665  0.7082  1.8246 -2.1314
  394SOL    HW2 1182   2.778   1.875   2.796 -3.0680  3.0221 -1.1486
  395SOL     OW 1183   1.568   1.956   0.703  0.1590  0.1537  0.2023
  395SOL    HW1 1184   1.623   1.872   0.662 -3.6157  0.4884 -3.1338
  395SOL    HW2 1185   1.626   2.014   0.769  0.5684 -3.9941 -0.6630
  396SOL     OW 1186   2.750   1.988   1.302  0.5386  0.8653  0.0516
  396SOL    HW1 1187   2.757   2.032   1.393  0.4555  0.3002  0.5009
  396SOL    HW2 1188   2.687   1.905   1.304 -0.1201  0.5296 -1.1376
  397SOL     OW 1189   0.975   2.159   0.664 -0.0909 -0.1709  0.5296
  397SOL    HW1 1190   0.886   2.115   0.677  1.8789 -0.8651 -1.0115
  397SOL    HW2 1191   0.973   2.262   0.690  0.6373 -1.6694 -0.8563
  398SOL     OW 1192   2.205   3.083   1.076 -0.1491  0.2712 -0.2632
  398SOL    HW1 1193   2.154   3.000   1.118  2.5858  0.5687  0.3759
  398SOL    HW2 1194   2.144   3.157   1.042 -2.1737 -0.5741 -2.2313
  399SOL     OW 1195   2.873   2.591   2.788 -0.3393  0.3867  0.0516
  399SOL    HW1 1196   2.818   2.531   2.721  1.8239 -1.5376 -1.5811
  399SOL    HW2 1197   2.858   2.559   2.889 -0.5951  2.0743  3.0708
  400SOL     OW 1198   0.801   1.581   1.289  0.2698  0.1141 -0.0649
  400SOL    HW1 1199   0.790   1.649   1.368  0.2557  1.0252  2.0629
  400SOL    HW2 1200   0.752   1.612   1.200  0.0636 -2.2630 -1.2112
  401SOL     OW 1201   1.850   0.139   1.302  0.1976 -0.2750  0.5412
  401SOL    HW1 1202   1.888   0.173   1.392 -0.0668 -2.5859 -0.4875
  401SOL    HW2 1203   1.747   0.115   1.304 -0.6376  0.6678 -3.6423
  402SOL     OW 1204   1.336   0.157   3.020 -0.0301  0.6972  0.6789
  402SOL    HW1 1205   1.437   0.140   3.017 -0.4321  0.8714 -1.7332
  402SOL    HW2 1206   1.288   0.210   3.088  0.4804 -2.3082 -0.8115
  403SOL     OW 1207   2.251   1.855   0.971  0.3747 -0.4725  0.6444
  403SOL    HW1 1208   2.326   1.828   1.036  1.2992 -3.7462 -0.0769
  403SOL    HW2 1209   2.215   1.953   0.989  2.2843 -0.8812  1.5807
  404SOL     OW 1210   0.222   2.475   2.772 -0.3811 -0.0798 -0.2702
  404SOL    HW1 1211   0.291   2.450   2.696  0.4338  0.9895 -0.8203
  404SOL    HW2 1212   0.205   2.578   2.784 -0.1912 -0.7942  0.6636
  405SOL     OW 1213   0.189   2.528   0.559 -0.0206  0.0929 -0.2262
  405SOL    HW1 1214   0.196   2.428   0.570 -0.6156  2.2620  0.5461
  405SOL    HW2 1215   0.276   2.573   0.591 -1.9492 -0.1636  3.0946
  406SOL     OW 1216   0.024   1.607   3.009 -0.2489 -0.5393 -0.3037
  406SOL    HW1 1217   0.079   1.569   2.928  0.3359 -0.4478  1.5328
  406SOL    HW2 1218   0.048   1.558   3.100  1.2658 -2.6465  2.1262
  407SOL     OW 1219   1.569   0.969   0.971 -0.3045  0.4530 -0.0846
  407SOL    HW1 1220   1.595   0.932   0.879  2.7521 -0.2180  1.0965
  407SOL    HW2 1221   1.474   1.005   0.970 -0.0693 -0.4540 -0.6390
  408SOL     OW 1222   1.458   2.301   0.933  0.1067 -0.4567  0.2588
  408SOL    HW1 1223   1.539   2.307   0.871 -0.0126  1.0515  0.5206
  408SOL    HW2 1224   1.457   2.371   1.009  0.2009  0.1747  0.8064
  409SOL     OW 1225   0.614   0.856   0.678 -0.0124 -0.1929 -0.3158
  409SOL    HW1 1226   0.528   0.866   0.622  2.2421  1.1435  0.0735
  409SOL    HW2 1227   0.641   0.757   0.679 -3.1064  2.3486 -0.9765
  410SOL     OW 1228   1.370   1.965   1.494 -0.2615  0.5612  0.1486
  410SOL    HW1 1229   1.337   2.062   1.518  2.8922 -1.0566 -0.6415
  410SOL    HW2 1230   1.285   1.900   1.482  0.9111 -1.6733  1.7052
  411SOL     OW 1231   2.402   1.845   0.072  0.4186 -0.0706  0.0124
  411SOL    HW1 1232   2.317   1.809   0.023 -0.8664 -1.2146 -2.1783
  411SOL    HW2 1233   2.474   1.878   0.010 -0.7609  0.1873  0.8632
  412SOL     OW 1234   1.630   2.428   2.277 -0.0233 -0.3732  0.1531
  412SOL    HW1 1235   1.636   2.528   2.303 -3.1101 -2.6379  2.9678
  412SOL    HW2 1236   1.578   2.377   2.350  1.3861  1.0845 -0.2194
  413SOL     OW 1237   3.049   0.280   2.873 -0.8438 -0.2394 -0.3039
  413SOL    HW1 1238   2.988   0.212   2.929 -0.0895 -1.9277  0.5027
  413SOL    HW2 1239   3.153   0.258   2.887 -1.7940 -1.7959  0.2489
  414SOL     OW 1240   1.720   1.339   1.341  0.3950 -0.3764 -0.0755
  414SOL    HW1 1241   1.649   1.412   1.341  3.2917 -1.4119 -0.0207
  414SOL    HW2 1242   1.738   1.294   1.246 -0.0336 -0.4518 -5.4799
  415SOL     OW 1243   0.236   2.260   0.694  0.7806  0.1090  0.3275
  415SOL    HW1 1244   0.306   2.233   0.765  0.1547  0.2211  3.3217
  415SOL    HW2 1245   0.158   2.190   0.672 -2.2413 -4.2988  0.2772
  416SOL     OW 1246   0.336   1.034   1.067  0.3673 -0.6917  0.0780
  416SOL    HW1 1247   0.306   1.022   0.968 -2.2346  0.6565  0.6401
  416SOL    HW2 1248   0.418   1.090   1.074 -0.1743 -1.6525 -0.3405
  417SOL     OW 1249   2.185   2.344   1.874 -0.5804 -0.0139  0.3260
  417SOL    HW1 1250   2.238   2.254   1.889 -0.2015  0.0692 -2.1155
  417SOL    HW2 1251   2.095   2.337   1.925  1.3463  1.3531 -1.5177
  418SOL     OW 1252   1.134   0.531   1.358 -0.2314 -0.7042  0.4224
  418SOL    HW1 1253   1.061   0.465   1.339  3.0131  4.1937  2.1991
  418SOL    HW2 1254   1.219   0.515   1.299 -2.8014  0.0747 -2.0595
  419SOL     OW 1255   0.954   0.370   2.985 -0.3020 -0.1870  0.0403
  419SOL    HW1 1256   1.006   0.416   2.907  1.6919  0.2647  1.6093
  419SOL    HW2 1257   0.912   0.279   2.960  0.7234 -0.0488 -2.4447
  420SOL     OW 1258   0.173   2.268   0.373  0.2944  0.5487 -0.3106
  420SOL    HW1 1259   0.152   2.254   0.271  1.7057 -1.5940 -1.2349
  420SOL    HW2 1260   0.085   2.278   0.424 -1.7014 -2.9076  3.5681
  421SOL     OW 1261   0.325   0.067   0.705  0.2355 -0.5699 -0.4483
  421SOL    HW1 1262   0.364  -0.010   0.649 -0.7578  2.1269 -0.0425
  421SOL    HW2 1263   0.396   0.117   0.761 -1.0507  0.2218 -0.7702
  422SOL     OW 1264   0.927   2.516   1.029  0.2652  0.1909 -0.0155
  422SOL    HW1 1265   0.925   2.607   0.976 -0.7294 -0.1136  1.3894
  422SOL    HW2 1266   0.963   2.524   1.129  1.1333  0.2899 -2.7765
  423SOL     OW 1267   0.045   0.701   1.176 -0.0108  0.2503 -0.7721
  423SOL    HW1 1268   0.029   0.660   1.269  2.4243  1.6748 -3.5660
  423SOL    HW2 1269  -0.046   0.722   1.126 -1.6697 -2.7865 -1.0307
  424SOL     OW 1270   0.988   2.145   2.235  0.0660 -0.0820  0.1907
  424SOL    HW1 1271   0.929   2.171   2.153 -1.3393  0.2024 -1.4522
  424SOL    HW2 1272   0.948   2.169   2.329 -0.0012  0.3355 -0.0807
  425SOL     OW 1273   2.034   1.432   1.125 -0.6051  0.5810 -0.4175
  425SOL    HW1 1274   2.050   1.339   1.081 -1.3545 -1.1577 -2.8192
  425SOL    HW2 1275   2.043   1.501   1.052 -0.1769 -2.5705 -0.8511
  426SOL     OW 1276   1.519   1.539   1.399  0.5590  0.0564 -0.3834
  426SOL    HW1 1277   1.482   1.621   1.339 -1.2445  2.3194 -1.3625
  426SOL    HW2 1278   1.489   1.549   1.497  0.7742  0.7788 -0.2697
  427SOL     OW 1279   1.956   2.323   2.054  0.0668  0.3268  0.3126
  427SOL    HW1 1280   1.989   2.275   2.137 -2.1574 -0.1271 -2.2091
  427SOL    HW2 1281   1.954   2.428   2.065  1.5732 -1.8234  0.6663
  428SOL     OW 1282   0.925   3.086   0.045  0.5458 -0.2491  0.0628
  428SOL    HW1 1283   0.954   3.166   0.110  1.1933  1.1137  2.5059
  428SOL    HW2 1284   0.996   3.010   0.049 -1.3600 -1.5957  1.8972
  429SOL     OW 1285   1.263   0.057   0.213  0.4676  0.1320  0.2309
  429SOL    HW1 1286   1.353   0.106   0.221 -0.2183 -1.6301 -0.1651
  429SOL    HW2 1287   1.282  -0.028   0.152 -1.6227 -1.6105 -2.4400
  430SOL     OW 1288   2.770   1.482   0.323  0.0774  0.3433  0.2763
  430SOL    HW1 1289   2.773   1.542   0.243 -0.9889 -4.3908  1.2861
  430SOL    HW2 1290   2.770   1.535   0.415 -0.7858 -0.1260  1.3830
  431SOL     OW 1291   2.077   1.623   0.931  0.0378 -0.3612 -0.2419
  431SOL    HW1 1292   2.138   1.706   0.955 -2.5993  1.6351  2.1367
  431SOL    HW2 1293   1.998   1.654   0.873  0.7124  0.0609  0.2955
  432SOL     OW 1294   2.917   2.236   1.252 -0.2730  0.5757 -0.3869
  432SOL    HW1 1295   2.874   2.146   1.257  0.0438  2.8682  0.6715
  432SOL    HW2 1296   2.925   2.291   1.339  0.0020 -0.0951 -0.8375
  433SOL     OW 1297   1.837   0.267   0.819 -0.3510 -0.0953 -0.1888
  433SOL    HW1 1298   1.743   0.259   0.854  2.8115  0.9775 -1.5405
  433SOL    HW2 1299   1.901   0.266   0.900  0.7099 -2.1825 -0.9231
  434SOL     OW 1300   1.490   0.238   0.734  0.3105 -0.3858 -0.0965
  434SOL    HW1 1301   1.490   0.334   0.691 -1.6798 -2.4749  1.6396
  434SOL    HW2 1302   1.531   0.235   0.831  0.2572  1.6862  3.5036
  435SOL     OW 1303   1.432   1.444   2.068  0.2426  0.8626  0.2911
  435SOL    HW1 1304   1.391   1.438   2.162 -3.2789 -1.4305 -1.7516
  435SOL    HW2 1305   1.381   1.508   2.010  0.9103 -1.3743 -0.5116
  436SOL     OW 1306   1.662   2.674   2.420 -0.1082 -0.0211 -0.6987
  436SOL    HW1 1307   1.672   2.776   2.451  0.4241  1.7926 -0.9262
  436SOL    HW2 1308   1.631   2.610   2.499 -1.4217 -2.3056 -2.6676
  437SOL     OW 1309   0.986   2.977   0.881  0.0248 -0.5857  0.2008
  437SOL    HW1 1310   0.938   3.067   0.871 -1.8321 -0.1196  1.9622
  437SOL    HW2 1311   1.052   2.987   0.959 -1.1177 -2.2408 -0.6892
  438SOL     OW 1312   0.992   2.519   1.319  0.0985 -0.4940  0.2229
  438SOL    HW1 1313   1.077   2.574   1.347 -2.5086  2.3979 -1.0437
  438SOL    HW2 1314   1.004   2.416   1.331 -1.2503 -1.2526  0.3413
  439SOL     OW 1315   0.705   1.686   1.054 -0.0913 -0.2721 -0.3094
  439SOL    HW1 1316   0.765   1.772   1.046 -0.1645  0.3281  0.8896
  439SOL    HW2 1317   0.609   1.707   1.090  1.6470 -0.5212  0.7571
  440SOL     OW 1318   0.962   2.347   1.975  0.0858  0.4861  0.2503
  440SOL    HW1 1319   0.952   2.427   1.912 -0.7474  1.9051  0.6049
  440SOL    HW2 1320   1.011   2.267   1.931 -2.6684  0.4796 -1.0935
  441SOL     OW 1321   0.350   2.811   1.325 -0.2823 -0.9761  0.1841
  441SOL    HW1 1322   0.401   2.722   1.331  0.7118  0.9150 -1.9075
  441SOL    HW2 1323   0.346   2.846   1.224 -4.0146  1.8482  0.8729
  442SOL     OW 1324   2.232   0.689   2.560 -0.1020  0.0999 -0.0680
  442SOL    HW1 1325   2.249   0.596   2.513  1.4285  0.0936 -2.4038
  442SOL    HW2 1326   2.147   0.739   2.529  1.7998  2.3823  0.6458
  443SOL     OW 1327   1.294   2.534   2.210 -0.7577  0.7447 -0.1137
  443SOL    HW1 1328   1.294   2.440   2.254  0.1447  2.8418 -0.1456
  443SOL    HW2 1329   1.256   2.611   2.270  0.6441  1.3868 -0.8155
  444SOL     OW 1330   0.958   1.195   1.456 -0.3040 -0.1608  0.6612
  444SOL    HW1 1331   1.032   1.167   1.525  0.0882 -0.3945 -0.9974
  444SOL    HW2 1332   0.992   1.281   1.401  1.3987 -0.8540  0.8473
  445SOL     OW 1333   0.152   2.176   2.064 -0.0543  0.8336  0.2971
  445SOL    HW1 1334   0.167   2.073   2.068 -1.3994  1.0048  3.6511
  445SOL    HW2 1335   0.112   2.209   2.154 -0.5621  1.4512  2.9106
  446SOL     OW 1336   0.107   1.970   2.414 -0.2914 -0.6576  0.1838
  446SOL    HW1 1337   0.064   2.066   2.403 -0.7899 -0.2945  1.0693
  446SOL    HW2 1338   0.095   1.912   2.326 -2.1999 -0.1779 -3.6934
  447SOL     OW 1339   1.301   1.643   1.939 -0.0593 -0.1645  0.0346
  447SOL    HW1 1340   1.238   1.704   1.885  2.0077  0.1913 -1.4685
  447SOL    HW2 1341   1.388   1.694   1.969  0.5607  0.4238 -1.5145
  448SOL     OW 1342   0.154   1.483   1.999 -0.0913 -0.0236  0.1171
  448SOL    HW1 1343   0.159   1.574   1.950 -0.1400  0.0746 -1.6098
  448SOL    HW2 1344   0.089   1.482   2.080  1.8111  1.7207 -2.6879
  449SOL     OW 1345   1.878   3.011   0.846 -0.4582 -0.7763  0.3803
  449SOL    HW1 1346   1.859   3.027   0.947  2.7026 -0.5169 -3.7186
  449SOL    HW2 1347   1.935   2.921   0.834  0.8020 -0.9776 -2.0423
  450SOL     OW 1348   2.208   1.490   0.682  0.3441 -0.0759  0.1691
  450SOL    HW1 1349   2.183   1.517   0.780  3.1642 -0.8262 -0.1208
  450SOL    HW2 1350   2.260   1.566   0.631 -1.9395 -1.9170 -0.9234
  451SOL     OW 1351   1.390   2.976   1.477  0.3653  0.2487  0.0373
  451SOL    HW1 1352   1.326   3.059   1.501  0.3258 -0.8275  4.3223
  451SOL    HW2 1353   1.439   2.938   1.559 -0.7287 -0.2915  1.2650
  452SOL     OW 1354   2.704   2.295   2.298  0.5249  0.0033  0.0241
  452SOL    HW1 1355   2.624   2.364   2.298 -0.0245  2.7275 -0.6728
  452SOL    HW2 1356   2.728   2.264   2.394  1.7308 -0.0909  0.2070
  453SOL     OW 1357   2.474   2.676   3.094 -0.6789 -0.5517  0.0660
  453SOL    HW1 1358   2.373   2.696   3.097 -1.0011 -1.2295  1.1413
  453SOL    HW2 1359   2.500   2.593   3.045  0.7379 -0.7399  2.8262
  454SOL     OW 1360   0.894   1.170   2.031  0.0642  0.0136 -0.1538
  454SOL    HW1 1361   0.883   1.177   1.929 -0.1424  0.5210  0.0903
  454SOL    HW2 1362   0.981   1.224   2.057  1.4528  0.6632 -0.1627
  455SOL     OW 1363   0.730   2.616   2.811 -0.7752 -0.3531  0.3744
  455SOL    HW1 1364   0.836   2.635   2.819  0.7082  1.6920 -0.2071
  455SOL    HW2 1365   0.707   2.540   2.884  0.9784 -1.0593  1.5828
  456SOL     OW 1366   0.315   1.938   0.227  0.3009 -0.1875 -0.0626
  456SOL    HW1 1367   0.413   1.966   0.207 -0.8281  1.4384  1.4716
  456SOL    HW2 1368   0.253   2.020   0.209  1.4037  0.1750 -1.5597
  457SOL     OW 1369   0.429   2.639   0.648  0.3854 -0.1272 -0.0207
  457SOL    HW1 1370   0.461   2.680   0.559 -2.3495  0.6632  1.3105
  457SOL    HW2 1371   0.503   2.652   0.721  0.3758  0.8679  1.8495
  458SOL     OW 1372   2.936   0.030   1.277  0.3985  0.2085 -0.6167
  458SOL    HW1 1373   2.997   0.115   1.276  1.3946  1.7289 -3.5966
  458SOL    HW2 1374   2.923  -0.015   1.184 -0.7977  0.3396 -0.3492
  459SOL     OW 1375   2.112   2.503   0.736  0.9718  0.3783  0.2820
  459SOL    HW1 1376   2.181   2.519   0.815 -1.1278 -0.6847 -1.2235
  459SOL    HW2 1377   2.154   2.528   0.644 -1.5063 -2.7409 -1.3503
  460SOL     OW 1378   1.200   2.056   2.796 -0.9433 -0.5703  0.1441
  460SOL    HW1 1379   1.206   2.107   2.706 -0.5765  1.6814  0.5464
  460SOL    HW2 1380   1.239   1.958   2.796 -2.3647 -0.5832 -0.3391
  461SOL     OW 1381   0.470   2.146   2.763 -0.1265  0.3203 -0.4930
  461SOL    HW1 1382   0.475   2.080   2.680 -0.7274 -0.8746 -0.5354
  461SOL    HW2 1383   0.492   2.092   2.850 -1.2031  2.0240 -2.7935
  462SOL     OW 1384   0.948   1.023   1.723 -0.3719  0.2684  0.0376
  462SOL    HW1 1385   0.944   0.957   1.643  0.2715  1.0295  1.6693
  462SOL    HW2 1386   0.874   1.096   1.720  0.3944 -1.4758 -1.0191
  463SOL     OW 1387   0.428   0.782   0.478  0.1837  0.3320  0.2814
  463SOL    HW1 1388   0.462   0.687   0.450  1.1899  0.1220  1.0357
  463SOL    HW2 1389   0.329   0.772   0.500  1.1357  0.5372 -0.1372
  464SOL     OW 1390   0.545   2.332   2.277  0.1045  0.4253  0.3453
  464SOL    HW1 1391   0.479   2.406   2.313  0.1123  1.4328 -0.1092
  464SOL    HW2 1392   0.548   2.327   2.171  2.5283 -1.4156 -1.1768
  465SOL     OW 1393   0.246   1.005   0.797  0.0380 -0.1797 -0.4832
  465SOL    HW1 1394   0.163   1.044   0.751 -1.2577 -1.3319  1.4776
  465SOL    HW2 1395   0.279   0.912   0.764  0.2030 -1.4761  0.3699
  466SOL     OW 1396   1.323   1.144   0.896 -0.2497 -0.2016  0.8529
  466SOL    HW1 1397   1.354   1.243   0.907  2.8105 -1.5027  0.0256
  466SOL    HW2 1398   1.236   1.126   0.946  1.1656  1.5865  2.9303
  467SOL     OW 1399   0.642   0.480   2.572  0.1131  0.3695 -0.0059
  467SOL    HW1 1400   0.553   0.536   2.570  0.3769 -2.5570 -1.0772
  467SOL    HW2 1401   0.635   0.382   2.602  1.6752  1.5083 -2.4987
  468SOL     OW 1402   0.458   2.284   1.575 -0.7999  0.1607 -0.5406
  468SOL    HW1 1403   0.556   2.310   1.604 -0.9301  0.2935 -0.8027
  468SOL    HW2 1404   0.449   2.254   1.476 -2.5106 -0.9477  0.3771
  469SOL     OW 1405   1.429   1.309   1.264 -0.1491 -0.5525  0.0263
  469SOL    HW1 1406   1.496   1.310   1.182  1.7015 -0.2170  2.4433
  469SOL    HW2 1407   1.436   1.394   1.321  0.2904  0.9394 -1.9612
  470SOL     OW 1408   2.983   1.833   0.810  0.1801 -0.5875  0.2437
  470SOL    HW1 1409   3.060   1.900   0.790  0.3711 -0.3842  0.6975
  470SOL    HW2 1410   3.002   1.779   0.891  0.3800  0.8277 -0.0831
  471SOL     OW 1411   2.685   1.393   2.190 -0.0097 -0.4366  0.2187
  471SOL    HW1 1412   2.686   1.291   2.194 -0.6275  1.0266 -0.0744
  471SOL    HW2 1413   2.720   1.430   2.278 -0.7786 -0.2545  1.6704
  472SOL     OW 1414   1.265   2.416   0.032 -0.9312  0.2373  0.3762
  472SOL    HW1 1415   1.356   2.397   0.081  0.1754  1.7663  1.0762
  472SOL    HW2 1416   1.185   2.391   0.093 -2.2839 -1.2400 -0.2553
  473SOL     OW 1417   1.070   1.499   1.003 -0.0830  0.5056  0.1225
  473SOL    HW1 1418   0.987   1.486   0.943  0.1613 -0.7355  0.1504
  473SOL    HW2 1419   1.087   1.418   1.070 -0.1266  0.6425  2.1632
  474SOL     OW 1420   0.625   1.290   0.465  0.2420 -0.7076  0.7254
  474SOL    HW1 1421   0.539   1.229   0.475 -0.3002 -1.2989 -1.8646
  474SOL    HW2 1422   0.705   1.241   0.506  0.9745  2.8287  0.5958
  475SOL     OW 1423   2.874   0.030   0.814 -0.7051 -0.0098 -0.1664
  475SOL    HW1 1424   2.930   0.117   0.806 -1.2164  0.5449  1.8027
  475SOL    HW2 1425   2.786   0.042   0.865  0.0499  0.9354 -0.9578
  476SOL     OW 1426   0.971   3.041   1.810 -0.8850 -0.2558  0.1817
  476SOL    HW1 1427   1.078   3.058   1.818 -0.1975  0.8826 -2.0222
  476SOL    HW2 1428   0.940   3.050   1.709 -1.0382  2.9282  1.3041
  477SOL     OW 1429   1.431   0.324   2.447  0.0799 -0.0999  0.2970
  477SOL    HW1 1430   1.420   0.337   2.548 -0.8791  2.9299 -0.9801
  477SOL    HW2 1431   1.494   0.247   2.418  0.4204 -0.1591  0.8174
  478SOL     OW 1432   2.260   1.943   0.304 -0.1534 -0.3505 -0.3088
  478SOL    HW1 1433   2.202   1.861   0.332  1.4340 -4.5901  0.0039
  478SOL    HW2 1434   2.339   1.914   0.244 -1.3277  0.8615  2.6260
  479SOL     OW 1435   1.280   0.966   2.856  0.1639 -0.8833  0.0276
  479SOL    HW1 1436   1.360   0.987   2.796  0.7020  1.4965 -2.5644
  479SOL    HW2 1437   1.232   0.883   2.822  0.6895 -1.2726 -0.1970
  480SOL     OW 1438   2.673   2.300   0.431  0.6695  0.4927  0.1057
  480SOL    HW1 1439   2.724   2.210   0.441  1.9145 -0.0539 -1.9405
  480SOL    HW2 1440   2.572   2.293   0.445 -2.1096  1.3645 -1.7479
  481SOL     OW 1441   0.958   1.147   0.783 -0.1559 -0.2231  0.5504
  481SOL    HW1 1442   0.971   1.240   0.743 -1.2051 -1.1526  0.3935
  481SOL    HW2 1443   0.995   1.138   0.881 -0.4107 -0.0607 -2.4751
  482SOL     OW 1444   1.603   0.286   2.036  0.5473  0.0592  0.0975
  482SOL    HW1 1445   1.630   0.379   2.003 -0.2160 -1.0571 -1.1839
  482SOL    HW2 1446   1.685   0.238   2.082  0.8136  1.4796  1.1154
  483SOL     OW 1447   0.121   2.387   1.219 -0.8721 -0.2289 -0.4862
  483SOL    HW1 1448   0.136   2.460   1.290 -0.4162  1.6443 -0.7177
  483SOL    HW2 1449   0.121   2.421   1.123  0.1499 -0.4514  3.7997
  484SOL     OW 1450   1.721   1.058   1.479 -0.0068  0.2019  0.1436
  484SOL    HW1 1451   1.822   1.029   1.469 -1.3429  1.9694 -0.1184
  484SOL    HW2 1452   1.710   1.162   1.465 -0.8010  1.2216  0.6426
  485SOL     OW 1453   0.763   0.742   1.975 -0.5464 -0.4641 -0.2987
  485SOL    HW1 1454   0.690   0.737   1.902 -0.3071  1.1148  2.5857
  485SOL    HW2 1455   0.856   0.724   1.937 -2.2950  0.9572 -1.0593
  486SOL     OW 1456   0.903   1.871   2.439 -0.3947  0.2748 -0.1098
  486SOL    HW1 1457   0.895   1.850   2.541 -1.4412  0.1896 -1.0859
  486SOL    HW2 1458   0.877   1.966   2.412  0.4803  1.7692 -2.2980
  487SOL     OW 1459   1.745   1.581   1.054  0.1501 -0.0751  0.4632
  487SOL    HW1 1460   1.800   1.512   1.109  0.6139  0.1999  2.4383
  487SOL    HW2 1461   1.795   1.619   0.970 -1.5922  3.4149  0.2619
  488SOL     OW 1462   2.933   0.820   2.270 -0.4204 -0.8275  0.4434
  488SOL    HW1 1463   3.005   0.745   2.271  0.1093 -1.1958  0.3896
  488SOL    HW2 1464   2.852   0.803   2.337 -0.0683 -2.0733 -1.0763
  489SOL     OW 1465   2.835   0.343   1.296 -0.4583  0.4564  0.2736
  489SOL    HW1 1466   2.823   0.306   1.391 -1.3943 -1.2109 -2.1331
  489SOL    HW2 1467   2.892   0.279   1.240  0.1908  0.3970 -0.8558
  490SOL     OW 1468   1.480   2.990   2.809 -0.0962 -0.4498  0.2926
  490SOL    HW1 1469   1.492   2.887   2.800  0.1523 -1.2938  1.5614
  490SOL    HW2 1470   1.433   3.029   2.726  0.0911 -1.0727 -1.1122
  491SOL     OW 1471   1.794   1.455   2.714  0.1762 -0.5410 -0.4081
  491SOL    HW1 1472   1.737   1.419   2.794 -1.1800 -0.6075  2.4207
  491SOL    HW2 1473   1.870   1.525   2.732  3.5865 -1.5349  0.5762
  492SOL     OW 1474   0.639   2.091   0.597 -0.6638 -0.0570  0.2639
  492SOL    HW1 1475   0.667   2.115   0.698  1.7098  0.8236  0.1008
  492SOL    HW2 1476   0.554   2.137   0.568 -4.3345  1.4083 -1.1769
  493SOL     OW 1477   0.401   1.330   2.085  0.2412  0.1123 -0.2687
  493SOL    HW1 1478   0.315   1.378   2.048  0.7586 -0.8477  0.5605
  493SOL    HW2 1479   0.391   1.231   2.112  3.1774 -1.0854 -2.4382
  494SOL     OW 1480   2.717   2.640   0.131 -0.2724 -0.0440 -0.2875
  494SOL    HW1 1481   2.710   2.621   0.234  0.4890 -1.7940  2.4612
  494SOL    HW2 1482   2.626   2.659   0.089 -1.4177 -2.4444 -1.9218
  495SOL     OW 1483   2.522   2.802   2.642 -0.1947  0.1005 -0.2187
  495SOL    HW1 1484   2.536   2.702   2.658  0.6520  1.5147  0.5271
  495SOL    HW2 1485   2.588   2.847   2.579 -1.7090 -1.5742  2.6476
  496SOL     OW 1486   1.952   2.302   0.803  0.3337  0.2956 -0.3562
  496SOL    HW1 1487   1.984   2.257   0.889 -1.8833  2.2904 -0.0819
  496SOL    HW2 1488   2.012   2.389   0.774 -0.4860  0.0975 -1.1681
  497SOL     OW 1489   0.303   2.991   2.362 -0.9250  0.4802  0.3675
  497SOL    HW1 1490   0.246   3.067   2.391  0.3876  0.7096 -2.0483
  497SOL    HW2 1491   0.357   3.011   2.281 -2.4548 -1.7037  1.0401
  498SOL     OW 1492   1.169   1.303   1.160  0.2887  0.7985  1.1544
  498SOL    HW1 1493   1.275   1.310   1.171  2.2071 -0.8788 -0.0572
  498SOL    HW2 1494   1.117   1.335   1.245 -2.4350 -1.1921 -1.0171
  499SOL     OW 1495   0.606   1.765   0.418 -0.0938  0.7521 -0.4800
  499SOL    HW1 1496   0.593   1.697   0.342 -2.0938  1.5320  0.1976
  499SOL    HW2 1497   0.678   1.834   0.389  1.6517  1.1846 -2.6148
  500SOL     OW 1498   1.487   2.768   1.653  0.4512  0.3759 -0.2515
  500SOL    HW1 1499   1.519   2.732   1.744 -0.9085 -0.1274  0.3536
  500SOL    HW2 1500   1.461   2.697   1.586  2.3645  3.5056  2.9512
  501SOL     OW 1501   0.781   1.240   2.267  0.0592 -0.6068  0.0164
  501SOL    HW1 1502   0.702   1.184   2.306  0.1466 -0.3469 -1.5932
  501SOL    HW2 1503   0.799   1.214   2.171 -3.6091 -0.0043  1.2354
  502SOL     OW 1504   2.553   0.914   1.800  0.1461  0.1879 -0.0450
  502SOL    HW1 1505   2.633   0.926   1.736  2.0169 -1.3290 -0.0571
  502SOL    HW2 1506   2.517   0.810   1.805 -0.1045  0.2941  1.6645
  503SOL     OW 1507   1.241   0.130   0.706  0.0454  0.0841 -0.3821
  503SOL    HW1 1508   1.185   0.215   0.719  0.8252 -0.6810  2.0320
  503SOL    HW2 1509   1.343   0.157   0.725  1.0644  1.4434 -1.4688
  504SOL     OW 1510   2.965   2.358   1.484  0.5562 -0.1344 -0.3724
  504SOL    HW1 1511   2.914   2.412   1.555  1.2557  1.1229  0.8827
  504SOL    HW2 1512   3.064   2.365   1.499 -2.4073 -0.7038 -0.1557
  505SOL     OW 1513   2.330   1.145   1.523 -0.3181 -0.3338 -0.2184
  505SOL    HW1 1514   2.322   1.208   1.439 -0.9500  0.6658  0.9678
  505SOL    HW2 1515   2.413   1.184   1.576  0.4820 -1.9981  0.9953
  506SOL     OW 1516   1.943   0.231   1.864  0.2156 -0.4207  0.0990
  506SOL    HW1 1517   2.048   0.208   1.870 -1.5924 -2.3009 -2.7657
  506SOL    HW2 1518   1.921   0.330   1.887  0.8756 -2.0464  1.3231
  507SOL     OW 1519   0.488   0.760   2.163  0.1228 -0.3728  0.3382
  507SOL    HW1 1520   0.422   0.710   2.098  3.3205 -1.5773  0.8731
  507SOL    HW2 1521   0.550   0.694   2.205  0.4860  1.6575  1.1714
  508SOL     OW 1522   0.320   1.647   0.790 -0.6601  0.3010  0.5607
  508SOL    HW1 1523   0.406   1.702   0.764  1.6021  2.2800 -3.0113
  508SOL    HW2 1524   0.284   1.683   0.880  1.4087  0.0826  0.3207
  509SOL     OW 1525   1.279   1.204   2.476  0.2558  0.1895  0.1093
  509SOL    HW1 1526   1.290   1.102   2.471 -2.5941  1.0267 -0.0031
  509SOL    HW2 1527   1.186   1.242   2.501  1.7302  0.3276 -1.2252
  510SOL     OW 1528   1.372   2.051   2.210 -0.3970  0.0294  0.3026
  510SOL    HW1 1529   1.394   2.059   2.109 -1.7159  2.3290  2.6906
  510SOL    HW2 1530   1.296   1.982   2.236 -2.7786 -1.8937 -0.5511
  511SOL     OW 1531   3.026   2.642   1.364 -0.1401 -0.1115  0.1815
  511SOL    HW1 1532   3.021   2.687   1.269  2.2135 -1.1439 -0.3844
  511SOL    HW2 1533   2.962   2.561   1.373 -1.1523  1.7043 -3.1099
  512SOL     OW 1534   2.346   0.432   1.399 -0.7454 -0.0135  0.1170
  512SOL    HW1 1535   2.250   0.452   1.362 -1.1040  0.2789  0.5776
  512SOL    HW2 1536   2.409   0.368   1.346 -0.3959  1.3699 -0.3817
  513SOL     OW 1537   2.537   2.118   0.884 -0.2670 -0.3697 -0.1434
  513SOL    HW1 1538   2.519   2.195   0.820 -0.0838  0.3096  0.4700
  513SOL    HW2 1539   2.619   2.059   0.861 -3.6776 -1.5666  0.4975
  514SOL     OW 1540   0.577   2.757   0.438  0.7003 -0.1485  0.5213
  514SOL    HW1 1541   0.600   2.781   0.338 -2.4054 -2.4444 -1.0515
  514SOL    HW2 1542   0.614   2.827   0.500 -1.3980  0.9392 -1.8353
  515SOL     OW 1543   1.956   1.332   2.389 -0.0146 -0.1136  0.1545
  515SOL    HW1 1544   1.964   1.289   2.298 -2.4516  2.2045  1.0761
  515SOL    HW2 1545   1.888   1.279   2.445 -1.4427 -0.4711 -1.8850
  516SOL     OW 1546   0.258   0.172   1.970  0.3747  0.0069  0.1461
  516SOL    HW1 1547   0.349   0.207   1.930 -0.4418 -0.7724 -1.5892
  516SOL    HW2 1548   0.201   0.126   1.899  0.4888  2.5626 -1.2260
  517SOL     OW 1549   0.486   0.250   1.094 -0.3841 -0.2676  0.2091
  517SOL    HW1 1550   0.557   0.183   1.128 -1.2022  2.2685 -1.5706
  517SOL    HW2 1551   0.392   0.234   1.128  2.1925 -1.0162  0.0390
  518SOL     OW 1552   2.193   3.026   1.831 -0.5901  0.1992  0.0907
  518SOL    HW1 1553   2.213   3.128   1.835  0.1518 -0.4908 -1.3712
  518SOL    HW2 1554   2.234   2.987   1.748 -0.2214  0.3446  0.2434
  519SOL     OW 1555   2.332   2.244   2.539 -0.3741  0.1944 -0.0284
  519SOL    HW1 1556   2.273   2.211   2.618 -0.6637 -0.9416  0.3252
  519SOL    HW2 1557   2.354   2.346   2.544 -2.6884  1.0475  0.1365
  520SOL     OW 1558   1.777   2.647   1.662 -0.0612  0.3029 -0.3556
  520SOL    HW1 1559   1.736   2.607   1.751 -1.6083 -0.2722 -0.9328
  520SOL    HW2 1560   1.869   2.617   1.634  1.3486  1.2434  0.7732
  521SOL     OW 1561   0.653   0.072   2.129  0.0271  0.1440 -0.2423
  521SOL    HW1 1562   0.595  -0.015   2.120  0.5004 -1.3257 -0.7686
  521SOL    HW2 1563   0.692   0.072   2.221 -2.2442 -2.1809 -1.5275
  522SOL     OW 1564   0.243   1.902   1.506 -0.4337  0.7748 -0.6371
  522SOL    HW1 1565   0.275   1.970   1.574  1.0503 -0.2900  0.3850
  522SOL    HW2 1566   0.212   1.947   1.419  1.6725 -0.9212 -0.0875
  523SOL     OW 1567   2.253   2.926   1.568  0.2389 -0.6988 -0.5999
  523SOL    HW1 1568   2.344   2.883   1.534 -0.6034  2.3270  0.3422
  523SOL    HW2 1569   2.177   2.869   1.524 -3.0083 -2.5168 -0.2106
  524SOL     OW 1570   0.224   2.747   2.764  0.3251 -0.3672 -0.7751
  524SOL    HW1 1571   0.207   2.837   2.819 -3.7098  1.1095  1.3227
  524SOL    HW2 1572   0.324   2.726   2.753 -2.2188 -0.4079 -0.0195
  525SOL     OW 1573   2.164   2.104   0.518  0.6672 -0.2278  0.1341
  525SOL    HW1 1574   2.149   2.056   0.606 -0.0845 -1.2177  1.1375
  525SOL    HW2 1575   2.206   2.040   0.446  0.3883  0.1523  0.6226
  526SOL     OW 1576   0.386   1.524   1.713 -0.0735  0.7153  0.4825
  526SOL    HW1 1577   0.445   1.580   1.774 -1.2281 -1.3110 -3.1275
  526SOL    HW2 1578   0.368   1.429   1.745 -0.4966 -1.6065 -1.4385
  527SOL     OW 1579   1.156   3.009   1.103 -0.0332 -0.5551  0.3286
  527SOL    HW1 1580   1.187   2.923   1.147  0.8645  1.5398 -2.4140
  527SOL    HW2 1581   1.221   3.088   1.095 -0.0905 -1.2592 -0.2402
  528SOL     OW 1582   1.283   2.432   0.614  0.1926  0.2340  0.5502
  528SOL    HW1 1583   1.336   2.344   0.648 -0.9138  1.0450 -0.0360
  528SOL    HW2 1584   1.330   2.519   0.644 -0.9741  1.7609  2.7184
  529SOL     OW 1585   1.853   1.717   0.821  0.1663  0.4967  0.5058
  529SOL    HW1 1586   1.786   1.713   0.742 -1.0123 -1.0176  2.8264
  529SOL    HW2 1587   1.884   1.811   0.848  0.2596  1.9015 -2.2641
  530SOL     OW 1588   0.413   2.517   0.166 -0.9473 -0.3317  0.2911
  530SOL    HW1 1589   0.423   2.480   0.263  2.0281 -0.2598  1.8412
  530SOL    HW2 1590   0.422   2.443   0.093 -1.4188  1.3357  0.7415
  531SOL     OW 1591   1.834   1.013   1.048  0.4008  0.4490  0.3419
  531SOL    HW1 1592   1.848   1.052   0.954  1.9117 -2.2036 -0.3762
  531SOL    HW2 1593   1.732   1.009   1.068  0.9157  0.6203  0.6130
  532SOL     OW 1594   0.401   1.198   0.680 -0.0200 -0.1271 -0.2486
  532SOL    HW1 1595   0.414   1.149   0.588  0.2949 -0.3161  2.2964
  532SOL    HW2 1596   0.337   1.151   0.743 -1.1543 -1.2097 -1.6415
  533SOL     OW 1597   1.829   0.017   2.623 -0.2092  0.4022 -0.4823
  533SOL    HW1 1598   1.929   0.029   2.638 -0.4682 -0.1792 -0.7820
  533SOL    HW2 1599   1.776   0.102   2.660 -1.5355 -0.1534 -1.8945
  534SOL     OW 1600   0.193   0.180   1.550 -0.1397  0.2915 -0.0767
  534SOL    HW1 1601   0.263   0.257   1.528 -1.2761 -3.2112 -2.1427
  534SOL    HW2 1602   0.096   0.210   1.532  0.9365 -1.2528  1.5614
  535SOL     OW 1603   1.881   0.393   0.144 -0.2670  0.2185 -0.6368
  535SOL    HW1 1604   1.915   0.463   0.216  1.1348  3.7441  1.3878
  535SOL    HW2 1605   1.792   0.347   0.185  1.4480  0.8661  1.4100
  536SOL     OW 1606   1.226   2.495   0.955 -0.3415  0.2317  0.7720
  536SOL    HW1 1607   1.251   2.439   0.873 -1.8141 -0.7860 -0.8035
  536SOL    HW2 1608   1.125   2.501   0.970  1.4553 -0.5707  1.4537
  537SOL     OW 1609   0.874   0.252   2.305  0.1851  0.1405 -0.3466
  537SOL    HW1 1610   0.846   0.321   2.235 -0.5487  2.0177 -2.0426
  537SOL    HW2 1611   0.866   0.156   2.267 -2.5067 -0.5029 -2.1628
  538SOL     OW 1612   1.721   2.251   1.633  0.2716 -0.2745 -0.4179
  538SOL    HW1 1613   1.679   2.206   1.550 -2.4135  0.9170  0.9817
  538SOL    HW2 1614   1.783   2.326   1.593 -1.3980 -2.4502  0.2789
  539SOL     OW 1615   0.143   1.549   2.775  0.3402 -0.1206 -0.2761
  539SOL    HW1 1616   0.070   1.561   2.700  1.7756  2.8133  0.8264
  539SOL    HW2 1617   0.210   1.629   2.776 -2.1728 -1.0926 -1.8986
  540SOL     OW 1618   2.642   1.791   2.140  0.0214 -0.1819  0.2551
  540SOL    HW1 1619   2.598   1.703   2.110  1.9798  3.1914 -1.4997
  540SOL    HW2 1620   2.667   1.842   2.052  1.6320 -0.2268  1.5291
  541SOL     OW 1621   0.418   2.306   3.072 -0.2511 -0.6391 -0.0725
  541SOL    HW1 1622   0.469   2.228   3.116  1.7660  0.1640 -2.4298
  541SOL    HW2 1623   0.332   2.280   3.018 -1.0131  3.2075 -2.0504
  542SOL     OW 1624   2.190   2.572   0.457  0.3003  0.4304 -0.1060
  542SOL    HW1 1625   2.184   2.666   0.404 -1.0479 -0.4312  0.0944
  542SOL    HW2 1626   2.113   2.510   0.427  1.3528  0.6061  0.1418
  543SOL     OW 1627   1.111   1.799   1.755 -0.3860  0.5641 -0.7111
  543SOL    HW1 1628   1.078   1.806   1.857  1.7858 -0.8781  0.0730
  543SOL    HW2 1629   1.051   1.843   1.688 -0.2254 -0.5322  0.8730
  544SOL     OW 1630   0.844   0.462   0.130  0.0153 -0.2285 -0.2145
  544SOL    HW1 1631   0.871   0.383   0.189 -2.4708 -0.5683 -1.0802
  544SOL    HW2 1632   0.877   0.450   0.030  1.1085 -2.0086  0.3094
  545SOL     OW 1633   1.145   1.747   0.664 -0.0095  0.4544 -0.1214
  545SOL    HW1 1634   1.239   1.745   0.712 -1.3756  0.6663 -1.9367
  545SOL    HW2 1635   1.153   1.766   0.563 -1.0038 -0.8064 -0.1148
  546SOL     OW 1636   2.731   1.583   0.036 -0.1213 -0.3284 -0.4422
  546SOL    HW1 1637   2.788   1.590  -0.053  3.0443  3.1328 -1.3500
  546SOL    HW2 1638   2.644   1.523   0.032 -0.6131  1.9153  2.5991
  547SOL     OW 1639   0.479   3.045   2.713  0.1317  0.1457  0.3366
  547SOL    HW1 1640   0.509   2.981   2.632 -0.6469 -0.9633  1.2939
  547SOL    HW2 1641   0.489   3.009   2.807  0.7698 -1.3331 -1.9882
  548SOL     OW 1642   2.070   0.772   3.031  0.1167 -0.4144  0.5545
  548SOL    HW1 1643   1.970   0.748   3.065 -2.0549  0.4686  1.2730
  548SOL    HW2 1644   2.079   0.873   3.046  0.6693  2.2583 -0.3319
  549SOL     OW 1645   0.560   0.455   0.074  0.2970  0.0915 -0.3701
  549SOL    HW1 1646   0.546   0.532   0.004 -0.4099 -3.3749  0.1143
  549SOL    HW2 1647   0.662   0.451   0.098 -0.9685  0.3801 -1.9474
  550SOL     OW 1648   2.526   2.866   2.912  0.0381 -0.0832 -0.4351
  550SOL    HW1 1649   2.504   2.786   2.975 -0.6063  1.2895 -0.9179
  550SOL    HW2 1650   2.516   2.834   2.815 -0.4832 -0.3714 -0.0203
  551SOL     OW 1651   0.255   0.830   0.207 -0.1053 -0.1751 -0.6525
  551SOL    HW1 1652   0.352   0.804   0.220 -1.1880  0.8029 -1.5770
  551SOL    HW2 1653   0.205   0.828   0.300 -0.6193  1.2228  1.1475
  552SOL     OW 1654   0.860   2.796   1.908 -0.3887  0.0342 -0.2887
  552SOL    HW1 1655   0.820   2.782   2.002  1.1880 -0.8526 -0.4219
  552SOL    HW2 1656   0.904   2.886   1.888  3.2297  0.1833  1.1174
  553SOL     OW 1657   3.093   2.559   0.367 -0.2244 -0.0869  0.3308
  553SOL    HW1 1658   3.033   2.475   0.368  1.0873 -0.5820 -0.1800
  553SOL    HW2 1659   3.157   2.558   0.450  2.8481 -2.1016 -0.0298
  554SOL     OW 1660   2.082   0.324   0.503  0.0195  0.0727 -0.0221
  554SOL    HW1 1661   2.100   0.304   0.404  2.1128 -1.0084  3.1110
  554SOL    HW2 1662   2.083   0.242   0.564 -1.5271 -1.2150 -0.2914
  555SOL     OW 1663   0.511   2.864   2.524 -0.2993  0.2336 -0.5806
  555SOL    HW1 1664   0.433   2.868   2.456 -2.8648 -0.8897 -1.5359
  555SOL    HW2 1665   0.603   2.825   2.487 -0.2185 -0.0835  1.2375
  556SOL     OW 1666   0.981   2.359   1.642  0.2697  0.1477 -0.0180
  556SOL    HW1 1667   0.999   2.453   1.682  0.5149  0.9837 -1.0594
  556SOL    HW2 1668   1.018   2.354   1.546  0.8907 -0.5065 -1.1484
  557SOL     OW 1669   0.145   2.121   0.108  0.2825  0.3736 -0.2269
  557SOL    HW1 1670   0.057   2.069   0.133 -1.8849  0.8071  3.5211
  557SOL    HW2 1671   0.137   2.172   0.020  2.7970 -0.4734 -0.9018
  558SOL     OW 1672   2.961   2.315   0.253 -0.8084  0.4654 -0.5588
  558SOL    HW1 1673   2.859   2.304   0.264 -1.7640 -0.4067  1.5137
  558SOL    HW2 1674   2.991   2.343   0.162 -1.6954 -0.6443  0.5666
  559SOL     OW 1675   0.407   2.287   1.300  0.5389 -0.0244 -0.1006
  559SOL    HW1 1676   0.307   2.301   1.276 -0.1087 -1.5417 -1.9966
  559SOL    HW2 1677   0.437   2.189   1.284  3.1676  1.1818  1.4637
  560SOL     OW 1678   2.039   1.045   3.017 -0.2225 -0.2391 -0.0713
  560SOL    HW1 1679   2.056   1.114   2.944  0.1305 -0.3201  1.4484
  560SOL    HW2 1680   1.961   1.071   3.077  0.4966  1.1045 -2.4522
  561SOL     OW 1681   3.028   1.976   0.102  0.4145  0.1886  0.2597
  561SOL    HW1 1682   2.992   1.880   0.111  1.2182  1.2872  2.6395
  561SOL    HW2 1683   2.969   2.034   0.035 -1.3652 -1.5570  0.1493
  562SOL     OW 1684   0.833   2.171   2.465 -0.5921  0.5674  0.0225
  562SOL    HW1 1685   0.738   2.159   2.428  0.7217 -1.8822 -0.3565
  562SOL    HW2 1686   0.844   2.223   2.547  2.0597 -1.1605  1.2371
  563SOL     OW 1687   0.675   2.566   2.541  0.7291 -0.0259 -0.5417
  563SOL    HW1 1688   0.627   2.473   2.526  2.8876 -0.8966  0.2367
  563SOL    HW2 1689   0.693   2.573   2.645  1.8092 -2.7279  0.1983
  564SOL     OW 1690   2.756   1.300   2.902 -0.0338 -0.2095 -0.5386
  564SOL    HW1 1691   2.665   1.295   2.955 -1.8145  0.0670  0.1323
  564SOL    HW2 1692   2.790   1.397   2.890 -0.5143  1.2146 -1.0714
  565SOL     OW 1693   2.543   2.025   2.583 -0.1725 -0.0440  0.4764
  565SOL    HW1 1694   2.490   2.110   2.555 -0.6251 -0.9711  1.3786
  565SOL    HW2 1695   2.622   2.049   2.650  1.4328 -0.8311  1.0295
  566SOL     OW 1696   2.009   2.822   1.441 -0.1768 -0.0322  0.1695
  566SOL    HW1 1697   2.034   2.727   1.478 -1.5287  1.9559 -3.5794
  566SOL    HW2 1698   2.052   2.837   1.347 -1.3985  1.1760 -0.4652
  567SOL     OW 1699   2.410   0.124   2.219  0.3993  0.0751 -0.0339
  567SOL    HW1 1700   2.463   0.113   2.130  0.1142 -0.4804  0.6943
  567SOL    HW2 1701   2.309   0.114   2.200  1.8655  3.9076 -1.8210
  568SOL     OW 1702   1.453   1.808   0.471 -0.1045 -0.2229 -0.0951
  568SOL    HW1 1703   1.407   1.872   0.403 -0.0062  2.5548  0.0083
  568SOL    HW2 1704   1.471   1.856   0.565  0.1834  0.2224 -3.3300
  569SOL     OW 1705   0.292   0.698   0.764 -0.2694  0.7137  0.4915
  569SOL    HW1 1706   0.331   0.621   0.714  0.2378 -0.0830  1.1444
  569SOL    HW2 1707   0.197   0.696   0.784  2.2663 -1.4563 -0.5846
  570SOL     OW 1708   0.599   0.831   2.839  0.1843 -0.1398  0.4506
  570SOL    HW1 1709   0.664   0.819   2.761  1.2034 -2.4785  0.6796
  570SOL    HW2 1710   0.605   0.929   2.874  0.4165 -1.7398 -0.4969
  571SOL     OW 1711   0.843   3.072   1.150  0.6584 -0.7532 -0.5731
  571SOL    HW1 1712   0.854   3.128   1.061  0.0966 -0.1469 -1.6384
  571SOL    HW2 1713   0.933   3.053   1.198 -0.3488 -1.3430  0.6560
  572SOL     OW 1714   1.475   2.571   1.187  0.5220  0.0565  0.0375
  572SOL    HW1 1715   1.410   2.492   1.210 -3.4488 -1.8264  2.4530
  572SOL    HW2 1716   1.418   2.642   1.141 -0.3575  1.6104  0.3398
  573SOL     OW 1717   2.942   0.474   2.077 -0.0056 -0.8577  0.4041
  573SOL    HW1 1718   2.883   0.391   2.098 -1.4354  1.8120 -0.9274
  573SOL    HW2 1719   2.886   0.546   2.037  0.6906  1.2792  0.6031
  574SOL     OW 1720   0.225   1.775   1.024 -0.1501  0.4622 -0.0371
  574SOL    HW1 1721   0.232   1.875   0.990  0.3671  3.3791  1.6614
  574SOL    HW2 1722   0.142   1.759   1.085 -1.6283 -0.1880  2.0308
  575SOL     OW 1723   0.923   2.217   1.020 -0.6604 -0.1195  0.2058
  575SOL    HW1 1724   0.855   2.243   1.094  0.1006  0.0220  0.0649
  575SOL    HW2 1725   1.018   2.219   1.053  0.2106 -1.5130 -0.7236
  576SOL     OW 1726   2.892   2.920   1.733  0.0893 -0.0977 -0.4560
  576SOL    HW1 1727   2.836   2.877   1.658  0.0023 -0.8147  0.5907
  576SOL    HW2 1728   2.872   3.020   1.744  1.8914 -2.5778 -1.7486
  577SOL     OW 1729   2.517   1.238   3.078  0.3188 -0.1279  0.1466
  577SOL    HW1 1730   2.513   1.145   3.032 -2.2257 -2.0350 -0.7843
  577SOL    HW2 1731   2.593   1.231   3.156  0.4090 -2.2553  0.5545
  578SOL     OW 1732   1.327   2.788   2.569 -0.0643  0.2007  0.4062
  578SOL    HW1 1733   1.257   2.765   2.494 -1.5979  1.8982  1.0839
  578SOL    HW2 1734   1.367   2.887   2.555 -0.3282 -1.2628  1.1816
  579SOL     OW 1735   0.137   2.596   0.128  0.6907  0.3573 -0.1312
  579SOL    HW1 1736   0.087   2.585   0.219 -0.1643  1.0774  0.6542
  579SOL    HW2 1737   0.234   2.565   0.131 -2.6695  0.3212 -0.1281
  580SOL     OW 1738   0.951   2.687   0.385 -0.1713 -0.2373 -0.5661
  580SOL    HW1 1739   1.041   2.695   0.334  1.8955 -1.0865 -2.1441
  580SOL    HW2 1740   0.881   2.621   0.343  1.7929 -0.9675  0.0406
  581SOL     OW 1741   1.269   2.539   1.476  1.1126  0.7660  0.2559
  581SOL    HW1 1742   1.305   2.467   1.414  0.1710 -1.4696  3.0281
  581SOL    HW2 1743   1.284   2.634   1.438 -1.4005 -1.4318  0.5997
  582SOL     OW 1744   1.522   0.071   1.872 -0.3282 -0.0010  0.2375
  582SOL    HW1 1745   1.529   0.158   1.930  0.0119  1.1599 -0.3002
  582SOL    HW2 1746   1.614   0.064   1.810  0.8655  1.1111  0.0476
  583SOL     OW 1747   2.379   2.980   0.578 -0.0832  0.5578  0.3444
  583SOL    HW1 1748   2.441   2.916   0.521  0.7113  1.4829 -0.3164
  583SOL    HW2 1749   2.333   2.928   0.658  0.9166  2.3555  2.5326
  584SOL     OW 1750   1.527   0.970   2.079  0.0711  0.2238 -0.0041
  584SOL    HW1 1751   1.583   1.046   2.037  1.3052  1.9212  0.6740
  584SOL    HW2 1752   1.557   0.949   2.176  0.4108 -0.8360  1.7684
  585SOL     OW 1753   2.093   2.700   2.871  0.1693 -0.0571  0.6956
  585SOL    HW1 1754   2.145   2.606   2.861  3.4371 -3.0519 -1.5960
  585SOL    HW2 1755   2.000   2.690   2.920 -0.9114 -2.5103 -0.7321
  586SOL     OW 1756   2.776   0.250   1.564 -0.0143 -0.6114 -0.1969
  586SOL    HW1 1757   2.768   0.331   1.624 -1.3085 -1.8977 -1.2302
  586SOL    HW2 1758   2.687   0.195   1.579  1.0648 -0.7745  1.2245
  587SOL     OW 1759   2.026   1.619   2.746  0.1533  0.1383  0.3866
  587SOL    HW1 1760   2.096   1.573   2.684 -2.0753 -0.8113  1.1916
  587SOL    HW2 1761   2.065   1.626   2.839 -3.8315  1.3624 -3.0897
  588SOL     OW 1762   0.513   2.695   2.237 -0.7530  0.0897 -0.0164
  588SOL    HW1 1763   0.451   2.735   2.163  0.3863  1.8864 -2.3021
  588SOL    HW2 1764   0.469   2.628   2.300 -2.1152 -0.3784 -1.7627
  589SOL     OW 1765   2.170   1.470   2.527 -0.4668 -0.4049  0.2148
  589SOL    HW1 1766   2.101   1.420   2.466  0.4708 -0.3296 -0.2402
  589SOL    HW2 1767   2.246   1.404   2.557 -0.0510  3.1489  0.7069
  590SOL     OW 1768   2.363   1.768   2.009  0.0419 -0.2156 -0.6633
  590SOL    HW1 1769   2.439   1.698   1.998  0.0930 -2.2746 -0.8103
  590SOL    HW2 1770   2.352   1.800   2.112  0.6236  0.3077  0.1124
  591SOL     OW 1771   1.317   2.463   0.338  0.0582  0.0780 -0.5814
  591SOL    HW1 1772   1.391   2.410   0.284  1.2309 -0.6792 -1.4479
  591SOL    HW2 1773   1.292   2.430   0.434 -1.1600 -1.3769 -1.3868
  592SOL     OW 1774   1.685   2.320   0.779 -0.9980  0.0487  0.4731
  592SOL    HW1 1775   1.661   2.392   0.705 -2.1945 -2.3264 -1.8199
  592SOL    HW2 1776   1.789   2.312   0.783  3.1047  0.2894 -1.4201
  593SOL     OW 1777   0.527   0.245   3.000 -0.2158 -0.3049  0.0287
  593SOL    HW1 1778   0.620   0.202   2.970  0.9036  0.3341  3.7684
  593SOL    HW2 1779   0.538   0.312   3.078  2.6967  0.2349 -1.6419
  594SOL     OW 1780   0.920   1.878   2.761 -0.3659 -0.0142  0.0441
  594SOL    HW1 1781   1.023   1.891   2.781  0.8813  0.9189 -1.7105
  594SOL    HW2 1782   0.858   1.953   2.791  0.8937  1.2510  2.8993
  595SOL     OW 1783   1.559   3.083   1.024  0.0153  0.2774 -0.1906
  595SOL    HW1 1784   1.652   3.045   1.060  2.6484 -0.5026  0.9192
  595SOL    HW2 1785   1.530   3.030   0.939  1.8096 -1.3532  0.6403
  596SOL     OW 1786   3.080   1.468   2.219 -0.0175 -0.3638  0.0703
  596SOL    HW1 1787   3.035   1.544   2.264 -0.8818 -0.8904 -0.0584
  596SOL    HW2 1788   3.130   1.411   2.282  1.2653  0.8934 -5.6661
  597SOL     OW 1789   2.057   2.579   1.596  0.5223  0.1603  0.0817
  597SOL    HW1 1790   2.112   2.490   1.595 -2.4974  1.2922  2.5126
  597SOL    HW2 1791   2.069   2.627   1.689  2.6090 -2.3152 -1.8030
  598SOL     OW 1792   2.602   2.874   1.222 -0.1867  0.1258 -0.2363
  598SOL    HW1 1793   2.670   2.935   1.271 -1.5501  3.4377 -0.6022
  598SOL    HW2 1794   2.624   2.865   1.121  2.2293  1.2648 -1.0398
  599SOL     OW 1795   2.928   0.335   2.406  0.1615 -0.2525 -0.4209
  599SOL    HW1 1796   3.027   0.361   2.388 -0.7077 -0.3397 -2.2575
  599SOL    HW2 1797   2.855   0.400   2.363 -3.3067 -1.9913  1.2920
  600SOL     OW 1798   2.811   1.072   2.750  0.4638 -0.6168  0.1443
  600SOL    HW1 1799   2.814   0.986   2.810  0.4709  2.0212  1.0547
  600SOL    HW2 1800   2.798   1.159   2.802  1.4215 -0.0170 -1.4465
  601SOL     OW 1801   2.940   1.288   2.036 -0.2154 -0.2958  0.0712
  601SOL    HW1 1802   2.871   1.330   1.965 -1.8240  0.3737 -2.5003
  601SOL    HW2 1803   2.986   1.357   2.099  1.3396  0.5125  1.2856
  602SOL     OW 1804   1.540   1.681   2.318 -0.0199 -0.0070  1.0144
  602SOL    HW1 1805   1.481   1.614   2.279  0.9069  1.1836  2.0262
  602SOL    HW2 1806   1.624   1.647   2.364 -1.4377 -0.7546  0.4286
  603SOL     OW 1807   0.713   1.248   2.621  0.0683 -0.0812 -0.1098
  603SOL    HW1 1808   0.634   1.239   2.555  1.4124  0.8550  3.4232
  603SOL    HW2 1809   0.769   1.162   2.631  0.1604 -0.2563 -0.8707
  604SOL     OW 1810   2.401   1.019   0.167 -0.6488 -0.6736 -0.3542
  604SOL    HW1 1811   2.428   1.078   0.087  2.4868 -0.6577 -2.3453
  604SOL    HW2 1812   2.340   0.942   0.132 -1.5707  0.2349 -1.3937
  605SOL     OW 1813   2.592   1.108   1.989 -0.1923 -0.0926  0.3430
  605SOL    HW1 1814   2.575   1.026   1.925 -0.3950 -2.3997  1.2132
  605SOL    HW2 1815   2.626   1.085   2.086 -1.0758  0.8742 -1.3197
  606SOL     OW 1816   1.501   2.520   2.576  0.3464 -0.2822  0.5464
  606SOL    HW1 1817   1.408   2.559   2.592  2.5288 -0.4424  0.5521
  606SOL    HW2 1818   1.492   2.418   2.542 -0.1056 -1.4862 -0.2666
  607SOL     OW 1819   1.324   1.543   0.425  0.4487 -0.1792 -0.5310
  607SOL    HW1 1820   1.286   1.508   0.517 -1.5497  1.5356  0.1831
  607SOL    HW2 1821   1.355   1.645   0.438 -0.3341 -0.9612  0.0452
  608SOL     OW 1822   1.388   2.886   0.401  0.2198  0.2361  0.5947
  608SOL    HW1 1823   1.438   2.940   0.325  0.5232 -1.3477  1.4168
  608SOL    HW2 1824   1.325   2.947   0.460  0.1311  0.1167  2.2428
  609SOL     OW 1825   1.336   1.325   0.215  0.3052  0.0026  0.7777
  609SOL    HW1 1826   1.343   1.390   0.295 -0.4564 -0.1461 -1.7949
  609SOL    HW2 1827   1.241   1.340   0.170 -1.1566 -0.2563  2.2598
  610SOL     OW 1828   3.019   1.079   2.282 -0.1405 -0.1047 -0.0507
  610SOL    HW1 1829   2.991   0.977   2.287  0.7472 -0.8232  1.3274
  610SOL    HW2 1830   2.984   1.122   2.194  1.5399  0.2401 -0.0442
  611SOL     OW 1831   2.531   0.304   1.238 -0.4863 -0.1387  0.1861
  611SOL    HW1 1832   2.513   0.218   1.185  0.8307 -0.1507 -0.1219
  611SOL    HW2 1833   2.631   0.313   1.269 -0.4422 -0.2654 -2.9334
  612SOL     OW 1834   0.765   2.171   1.247  0.1173 -0.2875 -0.0690
  612SOL    HW1 1835   0.709   2.084   1.245  2.9872  1.7526 -2.8945
  612SOL    HW2 1836   0.707   2.255   1.226 -2.6502 -0.9539 -0.4917
  613SOL     OW 1837   0.983   1.422   2.354 -0.8620 -0.8750 -0.0398
  613SOL    HW1 1838   1.015   1.481   2.275 -1.9784 -0.6391 -1.8537
  613SOL    HW2 1839   0.924   1.350   2.315  2.6087 -0.0128 -1.4410
  614SOL     OW 1840   1.653   1.533   1.749  0.4283  0.4005  0.5044
  614SOL    HW1 1841   1.598   1.615   1.722  1.4166  0.8434 -0.4797
  614SOL    HW2 1842   1.707   1.545   1.835  0.9184  1.5086 -1.3255
  615SOL     OW 1843   0.784   1.269   1.733 -0.2510  0.0526 -0.5105
  615SOL    HW1 1844   0.702   1.255   1.673  0.9546 -0.3151  0.4797
  615SOL    HW2 1845   0.843   1.348   1.699 -1.5904 -5.2417 -0.0161
  616SOL     OW 1846   1.036   1.570   2.152 -0.6248  0.6400  0.4128
  616SOL    HW1 1847   0.965   1.576   2.077  1.4501 -2.1257  1.8658
  616SOL    HW2 1848   1.086   1.657   2.174 -0.9045  0.8257 -1.5083
  617SOL     OW 1849   2.959   1.538   1.595  0.0395 -0.6389 -0.1602
  617SOL    HW1 1850   2.967   1.437   1.617 -0.2082  0.8563 -1.1342
  617SOL    HW2 1851   2.995   1.552   1.499  1.7354  0.8421  1.8696
  618SOL     OW 1852   1.876   2.003   1.378  0.0065  0.2612  0.2012
  618SOL    HW1 1853   1.901   2.077   1.312  0.6424 -0.6260 -1.1684
  618SOL    HW2 1854   1.851   1.912   1.333  2.1857  0.4588  0.8703
  619SOL     OW 1855   1.740   0.453   2.381 -0.0743  0.2101  0.3071
  619SOL    HW1 1856   1.661   0.505   2.333 -0.1601 -1.0140  2.6935
  619SOL    HW2 1857   1.722   0.348   2.400 -1.6108 -1.9264 -1.1434
  620SOL     OW 1858   2.252   2.818   0.758  0.2316 -0.1640 -0.2002
  620SOL    HW1 1859   2.153   2.822   0.791 -1.9354 -0.8496  0.1518
  620SOL    HW2 1860   2.301   2.737   0.799 -0.4481  0.5580 -2.5215
  621SOL     OW 1861   2.181   1.938   1.342 -0.0361  0.1270  0.4030
  621SOL    HW1 1862   2.178   1.919   1.444 -0.6209 -0.9710 -0.8226
  621SOL    HW2 1863   2.148   1.856   1.287 -1.2691  0.5737 -0.0108
  622SOL     OW 1864   2.260   0.925   1.876  0.5351 -0.0422 -0.1823
  622SOL    HW1 1865   2.364   0.922   1.866  2.3569 -0.5854  0.4200
  622SOL    HW2 1866   2.210   0.833   1.877  1.8310  1.9673  0.6820
  623SOL     OW 1867   1.257   0.842   2.512 -0.3160 -0.3594 -0.0178
  623SOL    HW1 1868   1.194   0.767   2.546 -0.8650  1.7394 -0.8221
  623SOL    HW2 1869   1.236   0.864   2.413  2.1021  2.2173  4.8387
  624SOL     OW 1870   0.499   0.660   3.008  0.0191 -0.1395  0.0843
  624SOL    HW1 1871   0.541   0.722   2.936  1.4643 -0.1273  0.2341
  624SOL    HW2 1872   0.498   0.708   3.104  1.8913  1.0000 -0.2313
  625SOL     OW 1873   2.727   1.711   1.000 -0.2634 -0.3639 -0.0537
  625SOL    HW1 1874   2.635   1.761   1.000 -2.1015 -0.4258  0.2825
  625SOL    HW2 1875   2.800   1.780   1.023  0.7448  0.9508 -1.1287
  626SOL     OW 1876   0.628   2.689   1.766 -0.3498 -0.0087  0.3312
  626SOL    HW1 1877   0.709   2.714   1.827  2.2261  2.2600  1.5014
  626SOL    HW2 1878   0.535   2.673   1.814 -1.5286  0.0856  2.4442
  627SOL     OW 1879   0.643   0.821   1.699 -0.2470 -0.3869 -0.6878
  627SOL    HW1 1880   0.585   0.780   1.627  1.9403  0.6974 -0.0552
  627SOL    HW2 1881   0.673   0.914   1.672 -0.3909  0.0853 -0.6528
  628SOL     OW 1882   2.359   0.099   0.755 -0.2413  0.0976  0.4763
  628SOL    HW1 1883   2.387   0.016   0.700 -1.0248 -0.2824 -0.5582
  628SOL    HW2 1884   2.260   0.100   0.769  2.2096  0.8019 -3.0135
  629SOL     OW 1885   1.883   0.929   1.979  0.5724  0.3354 -0.1414
  629SOL    HW1 1886   1.889   1.016   1.925 -0.6331  0.4131  1.6098
  629SOL    HW2 1887   1.950   0.935   2.058 -1.5869 -3.0241  1.5614
  630SOL     OW 1888   2.927   2.205   0.788  0.1166  0.2361 -0.5361
  630SOL    HW1 1889   2.874   2.296   0.800  1.0558 -1.3822  0.7607
  630SOL    HW2 1890   2.868   2.127   0.753 -0.9121 -1.1441  0.7997
  631SOL     OW 1891   3.036   0.111   2.042  0.1992  0.4374  0.6891
  631SOL    HW1 1892   3.115   0.127   2.104 -1.2779 -0.8406 -0.1881
  631SOL    HW2 1893   3.061   0.057   1.960 -0.2380 -1.4619  1.7236
  632SOL     OW 1894   2.476   2.584   0.605 -0.6768  0.2235  0.5346
  632SOL    HW1 1895   2.528   2.661   0.652 -0.5972 -2.8160  1.8631
  632SOL    HW2 1896   2.378   2.603   0.580 -3.4032 -1.2861 -1.9082
  633SOL     OW 1897   1.470   1.263   2.656  0.2996 -0.1533 -0.3625
  633SOL    HW1 1898   1.440   1.322   2.737 -0.1910 -1.6220 -2.7027
  633SOL    HW2 1899   1.403   1.255   2.576  1.6982  0.6669 -1.3128
  634SOL     OW 1900   0.716   2.131   0.859 -0.2753 -0.8237 -0.4215
  634SOL    HW1 1901   0.630   2.126   0.919  0.0490  0.9018 -0.1763
  634SOL    HW2 1902   0.792   2.182   0.912  0.8635 -3.4644  1.6579
  635SOL     OW 1903   3.046   2.413   0.005  0.3191 -0.7060  0.5864
  635SOL    HW1 1904   2.966   2.473  -0.023  2.9173  0.1798 -2.5382
  635SOL    HW2 1905   3.134   2.465   0.028  1.1380 -1.8563 -0.3181
  636SOL     OW 1906   2.375   2.722   2.063 -0.0943  0.0256  0.1122
  636SOL    HW1 1907   2.338   2.813   2.097  2.0378  0.1941  1.6652
  636SOL    HW2 1908   2.335   2.639   2.105 -0.5105  2.1214  0.8526
  637SOL     OW 1909   2.676   0.592   1.956 -0.1059 -0.7855  0.3148
  637SOL    HW1 1910   2.601   0.610   1.890  1.6074 -2.9532 -2.0299
  637SOL    HW2 1911   2.735   0.678   1.954 -0.1564  0.6244  1.8928
  638SOL     OW 1912   2.479   1.878   1.343 -0.2588 -0.3824 -0.1350
  638SOL    HW1 1913   2.395   1.921   1.386 -1.5857 -0.0040 -1.0129
  638SOL    HW2 1914   2.492   1.785   1.389  1.1731 -0.0767  0.4564
  639SOL     OW 1915   1.261   2.212   1.593 -0.1420 -0.0404  0.7021
  639SOL    HW1 1916   1.310   2.306   1.588  1.3117  1.3297  1.3334
  639SOL    HW2 1917   1.236   2.185   1.686 -0.9080  1.5303  1.8609
  640SOL     OW 1918   0.182   1.236   1.552  0.1669  0.1827  0.5305
  640SOL    HW1 1919   0.155   1.229   1.652 -1.3251  0.5600  0.0941
  640SOL    HW2 1920   0.254   1.167   1.521 -1.9007  1.2561 -0.9520
  641SOL     OW 1921   1.978   0.260   1.515 -0.1652 -0.2374 -0.0860
  641SOL    HW1 1922   1.930   0.297   1.599  1.0135 -2.0586 -0.8625
  641SOL    HW2 1923   2.081   0.268   1.514  2.3063 -0.1414  0.5082
  642SOL     OW 1924   2.030   3.068   0.343  0.3037  0.3957 -0.5453
  642SOL    HW1 1925   2.121   3.112   0.371  3.5081 -0.9955  1.0273
  642SOL    HW2 1926   1.952   3.086   0.410 -0.8831 -1.1754  2.3091
  643SOL     OW 1927   2.915   1.938   2.079 -0.2893  0.1247  0.0860
  643SOL    HW1 1928   2.858   1.861   2.042  0.5671  0.7049  2.3273
  643SOL    HW2 1929   2.904   2.025   2.023 -3.1664 -2.1477 -0.2982
  644SOL     OW 1930   2.288   2.404   1.272  0.1869 -0.3481 -0.3672
  644SOL    HW1 1931   2.368   2.359   1.225 -0.9164 -2.8325 -2.6955
  644SOL    HW2 1932   2.292   2.388   1.372  0.8008  0.4465  1.4805
  645SOL     OW 1933   0.687   0.821   1.266  0.1749  0.5555 -0.0738
  645SOL    HW1 1934   0.593   0.779   1.277  2.2560  0.1777  2.7638
  645SOL    HW2 1935   0.698   0.865   1.173  1.9390  0.1786 -1.5699
  646SOL     OW 1936   1.515   1.758   2.025 -0.1335  0.3444 -0.0341
  646SOL    HW1 1937   1.572   1.812   1.956  1.6308 -0.1487 -1.4715
  646SOL    HW2 1938   1.559   1.762   2.117  1.0530  3.0990  0.2561
  647SOL     OW 1939   0.767   1.089   0.611  0.1469  0.5818  0.3454
  647SOL    HW1 1940   0.845   1.086   0.683  1.5705  0.6173  0.1149
  647SOL    HW2 1941   0.704   1.005   0.615  0.9640  0.6384  0.3881
  648SOL     OW 1942   0.181   0.241   0.376  0.0914  0.0100 -0.1656
  648SOL    HW1 1943   0.123   0.157   0.366  2.1205  1.1503  1.1611
  648SOL    HW2 1944   0.161   0.304   0.298  2.0458 -2.5636  1.2902
  649SOL     OW 1945   3.000   0.275   0.929 -0.0313  0.1541 -0.3800
  649SOL    HW1 1946   3.078   0.282   0.859  1.6845  1.9927  1.2651
  649SOL    HW2 1947   3.033   0.279   1.027 -1.7291  0.8881 -0.5735
  650SOL     OW 1948   2.807   0.708   1.449  0.0377  0.1718  0.5718
  650SOL    HW1 1949   2.707   0.686   1.466 -1.1208  0.2157  1.6655
  650SOL    HW2 1950   2.829   0.799   1.406  1.5548  1.9806  1.4323
  651SOL     OW 1951   0.880   1.536   1.690  0.3239  0.2823 -0.3668
  651SOL    HW1 1952   0.863   1.557   1.792  0.5066 -3.5526  0.9591
  651SOL    HW2 1953   0.980   1.545   1.663  1.0498  2.5176 -1.1274
  652SOL     OW 1954   2.331   2.543   2.506  0.0834 -0.3189 -0.2027
  652SOL    HW1 1955   2.229   2.528   2.532  1.2429 -1.3550  1.0644
  652SOL    HW2 1956   2.339   2.633   2.452 -1.3011 -2.0543 -0.3918
  653SOL     OW 1957   2.702   1.249   0.182  0.0850  0.5052 -0.0299
  653SOL    HW1 1958   2.722   1.346   0.218  3.0154  2.8857  0.0370
  653SOL    HW2 1959   2.777   1.181   0.212 -0.2673  0.0147  0.0037
  654SOL     OW 1960   1.199   2.096   1.253  0.4618  0.4983 -0.2046
  654SOL    HW1 1961   1.155   2.007   1.279 -0.4947 -1.4835 -0.3956
  654SOL    HW2 1962   1.250   2.094   1.158 -0.4130  0.6878 -2.0249
  655SOL     OW 1963   0.190   0.989   1.918  0.2400  0.1541  0.4904
  655SOL    HW1 1964   0.253   0.941   1.850  0.8218  0.3693 -0.4225
  655SOL    HW2 1965   0.184   1.093   1.906  2.8215  1.2336 -1.4146
  656SOL     OW 1966   2.569   2.531   2.636  0.8500 -0.2244 -0.1429
  656SOL    HW1 1967   2.658   2.503   2.587  0.7016  1.4187 -0.1649
  656SOL    HW2 1968   2.489   2.530   2.567  0.9629 -0.1438 -1.1162
  657SOL     OW 1969   3.013   1.055   1.947  0.1924  0.4946 -0.4866
  657SOL    HW1 1970   2.988   1.146   1.991 -1.8855  1.2763  1.9528
  657SOL    HW2 1971   3.115   1.032   1.957 -0.8024 -1.0869  1.7678
  658SOL     OW 1972   1.661   0.158   2.334 -0.2650  0.2427  0.5691
  658SOL    HW1 1973   1.713   0.114   2.409  0.0392  0.4995 -4.4512
  658SOL    HW2 1974   1.698   0.124   2.241 -2.6404 -0.2881  1.2964
  659SOL     OW 1975   1.435   0.686   2.815  0.4065 -0.0571 -0.1172
  659SOL    HW1 1976   1.486   0.745   2.745 -2.0160 -1.3135  2.1898
  659SOL    HW2 1977   1.333   0.689   2.808  1.3552  0.3235  1.6753
  660SOL     OW 1978   1.432   0.293   1.406 -0.2143  0.5999  0.4081
  660SOL    HW1 1979   1.438   0.352   1.492  0.2644  2.0100 -1.4546
  660SOL    HW2 1980   1.502   0.220   1.393 -0.1666 -1.6422  0.1283
  661SOL     OW 1981   2.389   1.269   0.669  0.1813 -0.5651  0.0504
  661SOL    HW1 1982   2.434   1.294   0.576  2.5428  0.6046 -0.3529
  661SOL    HW2 1983   2.315   1.337   0.691 -2.7975  2.2003 -3.2107
  662SOL     OW 1984   1.467   0.386   1.679 -0.2138 -0.0412  0.1603
  662SOL    HW1 1985   1.416   0.338   1.757  0.4555 -1.7585  1.8529
  662SOL    HW2 1986   1.478   0.490   1.694  0.6916 -3.1534  0.7323
  663SOL     OW 1987   0.808   1.615   1.936  0.7767 -0.5436 -0.0873
  663SOL    HW1 1988   0.804   1.705   1.989  2.2470  3.8364  2.1328
  663SOL    HW2 1989   0.740   1.543   1.972 -2.7933  1.8282 -0.8922
  664SOL     OW 1990   1.613   2.096   1.428  0.2738  0.5642 -0.1209
  664SOL    HW1 1991   1.525   2.049   1.463 -1.3268  2.8676 -1.0103
  664SOL    HW2 1992   1.691   2.035   1.410 -0.9468  1.0282  2.9756
  665SOL     OW 1993   2.251   0.682   2.002  0.0991  0.2886 -0.1202
  665SOL    HW1 1994   2.225   0.581   2.019  0.3224 -1.3850 -0.9668
  665SOL    HW2 1995   2.335   0.711   2.051  1.3096 -0.9033 -1.1484
  666SOL     OW 1996   0.464   2.232   0.368  0.1610 -0.5840 -0.6852
  666SOL    HW1 1997   0.499   2.329   0.390 -0.6303 -1.3845  0.2777
  666SOL    HW2 1998   0.363   2.219   0.376 -0.2279  0.4933  3.5243
  667SOL     OW 1999   2.033   0.211   1.093 -0.3922  0.3148  0.2965
  667SOL    HW1 2000   2.051   0.314   1.087 -1.5179 -0.3544 -1.6828
  667SOL    HW2 2001   1.972   0.190   1.177  4.2143  0.8052  0.6612
  668SOL     OW 2002   1.982   0.497   1.064 -0.2549  0.1119 -0.1000
  668SOL    HW1 2003   2.064   0.520   1.003  3.2732 -0.9338 -0.3805
  668SOL    HW2 2004   2.007   0.519   1.165  2.2549  0.1267 -1.5296
  669SOL     OW 2005   3.043   2.139   1.021 -0.0769  0.0760  0.1141
  669SOL    HW1 2006   2.985   2.160   0.938  1.3351  0.0199  1.9735
  669SOL    HW2 2007   3.034   2.210   1.096  1.4251  1.9051 -0.0095
  670SOL     OW 2008   2.938   2.365   2.146 -0.3417 -0.9294 -0.5607
  670SOL    HW1 2009   2.853   2.338   2.196  1.0763  1.8533 -2.1120
  670SOL    HW2 2010   2.941   2.466   2.128 -1.7584 -3.3226  1.2881
  671SOL     OW 2011   1.768   1.650   1.518 -0.7151  0.4146 -0.6204
  671SOL    HW1 2012   1.737   1.653   1.423  0.7134 -0.8103  0.6861
  671SOL    HW2 2013   1.713   1.592   1.580  3.2088 -0.2652  1.5776
  672SOL     OW 2014   0.467   0.696   2.593 -0.6024 -0.6663 -0.0329
  672SOL    HW1 2015   0.390   0.742   2.543  0.0313  0.7363  1.3784
  672SOL    HW2 2016   0.449   0.690   2.700 -0.9407 -2.4443  4.1308
  673SOL     OW 2017   0.077   1.399   1.062 -0.1369 -0.2537  0.1774
  673SOL    HW1 2018   0.053   1.487   1.110  1.0252 -1.2275  2.5294
  673SOL    HW2 2019   0.151   1.406   0.996  3.1532 -1.4360  2.9813
  674SOL     OW 2020   1.566   3.013   0.229  0.4544  0.2386 -0.1420
  674SOL    HW1 2021   1.591   3.102   0.178 -2.1880 -2.6858 -2.3819
  674SOL    HW2 2022   1.569   2.926   0.173  1.5830 -0.4136  2.0322
  675SOL     OW 2023   1.638   0.854   2.318  0.0438 -0.0743  0.6442
  675SOL    HW1 2024   1.742   0.864   2.328 -1.8232 -0.1433 -1.3481
  675SOL    HW2 2025   1.608   0.758   2.296  1.1478  1.3180 -1.4903
  676SOL     OW 2026   2.560   1.555   2.004  0.1119 -0.0323  0.0763
  676SOL    HW1 2027   2.527   1.513   1.916 -3.8674  0.4852 -2.6567
  676SOL    HW2 2028   2.595   1.485   2.072 -0.6802  1.7367 -0.5870
  677SOL     OW 2029   1.846   0.719   0.883  0.3284  0.2277  0.0129
  677SOL    HW1 2030   1.758   0.681   0.927 -1.2507  0.5916 -2.2286
  677SOL    HW2 2031   1.925   0.718   0.949 -0.9480  1.3260  0.0507
  678SOL     OW 2032   0.073   0.829   1.648 -0.1549  0.3028 -0.0503
  678SOL    HW1 2033   0.161   0.857   1.698  0.8461  0.1268 -0.2588
  678SOL    HW2 2034   0.024   0.755   1.704 -2.3282  1.6836 -0.6676
  679SOL     OW 2035   2.563   1.098   1.220 -0.4019 -0.8561 -0.2140
  679SOL    HW1 2036   2.462   1.127   1.206 -1.3456 -0.8172 -1.5166
  679SOL    HW2 2037   2.578   0.999   1.211  0.4556 -1.0072  1.8074
  680SOL     OW 2038   2.814   0.544   1.692 -0.0476  0.1461  0.1136
  680SOL    HW1 2039   2.778   0.587   1.606  1.3621  0.1100  1.0008
  680SOL    HW2 2040   2.902   0.591   1.724  0.1300  1.5758  0.6613
  681SOL     OW 2041   2.999   0.023   1.561 -0.1060 -0.3992  0.0739
  681SOL    HW1 2042   2.981  -0.007   1.462 -1.8725  2.5756 -0.5095
  681SOL    HW2 2043   2.985   0.126   1.568 -0.4201 -3.4495 -1.0555
  682SOL     OW 2044   0.619   0.075   1.285 -0.1855  0.2556  0.1035
  682SOL    HW1 2045   0.564   0.001   1.335  0.5512 -0.9735  1.2102
  682SOL    HW2 2046   0.708   0.045   1.242  0.5422  0.1105 -1.2151
  683SOL     OW 2047   1.351   0.276   2.176  0.0503 -0.1485 -0.9038
  683SOL    HW1 2048   1.339   0.343   2.253 -1.4757  0.8500  1.3530
  683SOL    HW2 2049   1.443   0.292   2.123  2.9138 -0.4281 -2.1480
  684SOL     OW 2050   1.399   2.156   0.582  0.4998  0.1040  0.1180
  684SOL    HW1 2051   1.440   2.078   0.636  1.9927 -1.7039 -3.0697
  684SOL    HW2 2052   1.307   2.139   0.538  1.1603  2.0458  0.2091
  685SOL     OW 2053   2.246   2.076   1.975  0.0920 -0.2561  0.3247
  685SOL    HW1 2054   2.252   1.972   1.979 -1.2163 -0.0149 -1.2846
  685SOL    HW2 2055   2.281   2.122   2.062  0.3325  0.6370 -1.0423
  686SOL     OW 2056   1.563   1.873   2.916  0.3335  0.2098  0.8648
  686SOL    HW1 2057   1.571   1.831   3.010 -0.0865  0.6990 -0.1991
  686SOL    HW2 2058   1.467   1.890   2.885 -1.0126 -0.9702  0.5437
  687SOL     OW 2059   1.390   2.434   1.965 -0.4178 -0.4824 -0.2534
  687SOL    HW1 2060   1.396   2.331   1.989 -0.1627 -3.0149  1.3103
  687SOL    HW2 2061   1.358   2.485   2.051 -0.3422 -1.4628 -1.4396
  688SOL     OW 2062   2.055   1.490   1.717  0.0975 -0.2825 -0.1449
  688SOL    HW1 2063   2.143   1.546   1.700  2.0256 -1.2888 -0.1151
  688SOL    HW2 2064   2.013   1.448   1.631  0.8937 -2.5567  0.7230
  689SOL     OW 2065   2.358   1.121   2.796  0.2440  0.0290 -0.3021
  689SOL    HW1 2066   2.263   1.079   2.796  2.3085 -0.2090  0.8564
  689SOL    HW2 2067   2.425   1.076   2.860 -0.9857  2.3675 -2.2165
  690SOL     OW 2068   2.210   2.745   0.036 -0.0305 -0.1989  0.4588
  690SOL    HW1 2069   2.128   2.725  -0.020 -1.8990  0.4907  1.7941
  690SOL    HW2 2070   2.196   2.803   0.113 -0.2838 -2.5731 -2.8506
  691SOL     OW 2071   2.568   0.392   2.102  0.0673 -0.0374  0.6857
  691SOL    HW1 2072   2.609   0.298   2.080 -0.5863 -1.0012  1.3416
  691SOL    HW2 2073   2.611   0.467   2.048  1.1060 -0.5922 -1.8494
  692SOL     OW 2074   2.677   1.190   0.748 -0.2696 -0.3450  0.3621
  692SOL    HW1 2075   2.592   1.181   0.692 -1.1528  0.6090 -0.5086
  692SOL    HW2 2076   2.696   1.289   0.781  0.6570  1.8771  0.7912
  693SOL     OW 2077   2.884   2.930   0.649 -0.1024  0.2781 -0.4952
  693SOL    HW1 2078   2.886   3.010   0.718  0.7168  0.9367 -2.1255
  693SOL    HW2 2079   2.902   2.968   0.551  1.1261 -0.6948 -1.3526
  694SOL     OW 2080   2.372   2.236   0.124 -0.3976 -0.7630  0.0435
  694SOL    HW1 2081   2.374   2.336   0.159 -0.5309  2.6517  0.5195
  694SOL    HW2 2082   2.277   2.196   0.097  1.3686 -2.8934  2.3250
  695SOL     OW 2083   0.498   3.014   1.470  0.2511 -0.5220  0.3662
  695SOL    HW1 2084   0.412   2.973   1.433 -1.6396  1.9004  1.4620
  695SOL    HW2 2085   0.483   3.073   1.550  0.5625 -0.4440  1.4570
  696SOL     OW 2086   2.746   1.979   0.778 -0.1635  0.0549  0.0350
  696SOL    HW1 2087   2.839   1.928   0.787  2.1375 -0.4247  0.3311
  696SOL    HW2 2088   2.708   1.964   0.679  0.2047 -1.0885 -1.2171
  697SOL     OW 2089   1.687   1.847   1.816 -0.5602  0.2019 -0.7599
  697SOL    HW1 2090   1.787   1.826   1.802 -2.9120  1.8392  1.3167
  697SOL    HW2 2091   1.670   1.949   1.827 -1.5549  0.1613  0.0960
  698SOL     OW 2092   2.903   0.411   2.674 -0.0842  0.5803  0.1857
  698SOL    HW1 2093   2.923   0.393   2.573 -1.4321 -0.8690 -1.7284
  698SOL    HW2 2094   2.972   0.368   2.742  0.2571  0.3024 -0.3768
  699SOL     OW 2095   1.646   0.095   2.921 -0.6193 -0.2602 -0.0707
  699SOL    HW1 2096   1.585   0.019   2.882 -1.2160 -1.3598 -0.6144
  699SOL    HW2 2097   1.679   0.153   2.842 -0.1682 -2.5237 -1.3750
  700SOL     OW 2098   1.017   2.257   1.337 -0.5811 -0.7221 -0.2677
  700SOL    HW1 2099   1.094   2.187   1.312  4.9674 -0.6831  0.1616
  700SOL    HW2 2100   0.916   2.229   1.323 -0.0443  2.4883  0.3904
  701SOL     OW 2101   1.903   2.884   0.017  0.4681 -0.3997  0.1075
  701SOL    HW1 2102   1.859   2.839   0.094  1.9395  3.1943 -0.0518
  701SOL    HW2 2103   1.927   2.982   0.037 -2.9247 -0.2509  2.8544
  702SOL     OW 2104   2.104   1.367   1.951 -0.4067 -0.4370  0.1311
  702SOL    HW1 2105   2.189   1.304   1.963  2.6105  0.4748  1.2801
  702SOL    HW2 2106   2.101   1.417   1.858  0.2804  0.4672 -1.5741
  703SOL     OW 2107   1.977   0.902   1.454 -0.6666 -0.7449  0.2396
  703SOL    HW1 2108   1.957   0.806   1.492  1.0818 -0.5717  1.9459
  703SOL    HW2 2109   2.016   0.968   1.525 -0.4202  0.7582  0.1387
  704SOL     OW 2110   0.329   2.075   1.742 -0.0830 -0.2283  0.1151
  704SOL    HW1 2111   0.358   2.014   1.818 -1.0325 -0.8102 -1.9720
  704SOL    HW2 2112   0.402   2.146   1.715  1.0507  1.4835  2.1600
  705SOL     OW 2113   2.479   1.411   0.896 -0.1859  0.0815 -0.0566
  705SOL    HW1 2114   2.436   1.342   0.832  0.1755 -0.2664 -1.1011
  705SOL    HW2 2115   2.576   1.437   0.871 -2.3844  2.8753 -1.4929
  706SOL     OW 2116   0.572   1.723   1.794  0.8540 -0.3014  0.4959
  706SOL    HW1 2117   0.574   1.737   1.692  1.3088  0.9176 -2.2199
  706SOL    HW2 2118   0.653   1.677   1.828 -0.8728  1.0374 -0.2336
  707SOL     OW 2119   2.334   1.214   1.943  0.0509  0.0458  1.0728
  707SOL    HW1 2120   2.423   1.197   1.994  2.5096 -0.9269  0.0836
  707SOL    HW2 2121   2.302   1.125   1.897  0.3240  0.6990  0.3418
  708SOL     OW 2122   3.026   0.512   3.034 -0.6103 -0.0329  1.0860
  708SOL    HW1 2123   3.068   0.594   2.983  1.1575  4.1889  0.5943
  708SOL    HW2 2124   3.037   0.426   2.978 -0.3104 -0.8612 -0.2446
  709SOL     OW 2125   1.861   1.899   0.398  0.1068 -0.2881 -0.7761
  709SOL    HW1 2126   1.873   2.003   0.410  0.3095  0.2267 -0.3508
  709SOL    HW2 2127   1.849   1.872   0.298  0.5565 -0.0047  0.9751
  710SOL     OW 2128   1.760   1.539   2.470  0.1341  0.3410  0.3030
  710SOL    HW1 2129   1.827   1.492   2.403 -0.5818 -0.9527 -2.4840
  710SOL    HW2 2130   1.772   1.512   2.569 -1.6183  1.1353 -2.1315
  711SOL     OW 2131   2.710   2.865   0.969 -0.0713 -0.1643  0.1359
  711SOL    HW1 2132   2.644   2.937   0.933 -1.7470  0.8204 -1.1932
  711SOL    HW2 2133   2.800   2.913   0.998  2.8247  1.6893 -1.1866
  712SOL     OW 2134   1.379   2.116   1.952  0.4417 -0.5152  0.3898
  712SOL    HW1 2135   1.465   2.123   1.888 -1.0780 -0.0740 -0.8562
  712SOL    HW2 2136   1.287   2.135   1.901 -2.0231 -0.9479 -0.8437
  713SOL     OW 2137   2.783   1.430   2.523  0.2991 -0.3549 -0.1740
  713SOL    HW1 2138   2.787   1.326   2.514 -2.3712  1.3295 -0.6599
  713SOL    HW2 2139   2.689   1.463   2.558 -1.4201 -1.9328 -2.1826
  714SOL     OW 2140   2.671   0.462   2.358 -0.0257  0.1695 -0.0279
  714SOL    HW1 2141   2.657   0.401   2.439 -1.6049  2.9027 -3.3717
  714SOL    HW2 2142   2.641   0.412   2.269  0.5881 -3.3705  1.6109
  715SOL     OW 2143   1.609   2.158   1.157 -0.8594  0.0405 -0.6584
  715SOL    HW1 2144   1.521   2.200   1.127  0.9231 -2.0228  0.8500
  715SOL    HW2 2145   1.609   2.126   1.255 -2.3545  0.6554 -0.1265
  716SOL     OW 2146   1.248   0.106   1.550  0.1076  0.0013 -0.4693
  716SOL    HW1 2147   1.150   0.142   1.518 -1.4610  2.0473 -3.1842
  716SOL    HW2 2148   1.331   0.171   1.530  2.6060  0.6313  0.2545
  717SOL     OW 2149   1.162   0.577   1.628 -0.3220 -0.3260 -0.0126
  717SOL    HW1 2150   1.260   0.600   1.655  0.9460 -0.8040  0.0916
  717SOL    HW2 2151   1.161   0.553   1.528  1.8777  0.5897  2.5173
  718SOL     OW 2152   0.648   0.904   0.953 -0.0247 -0.1565  0.1121
  718SOL    HW1 2153   0.630   0.917   0.850  1.1445  0.2260  0.2959
  718SOL    HW2 2154   0.652   0.998   1.001  0.0229  2.9837 -1.6173
  719SOL     OW 2155   0.723   1.713   2.275 -0.3672  0.1107 -0.3858
  719SOL    HW1 2156   0.770   1.731   2.368  1.0629 -2.1561  2.4958
  719SOL    HW2 2157   0.642   1.651   2.281  1.9385  1.0008 -0.9783
  720SOL     OW 2158   2.146   1.161   0.275  0.4900 -0.3129 -0.5084
  720SOL    HW1 2159   2.229   1.113   0.238 -0.8330 -1.4241  0.0788
  720SOL    HW2 2160   2.126   1.148   0.377 -1.7924 -1.9216  0.8856
  721SOL     OW 2161   2.256   2.953   2.151  0.1264  0.7747  0.3342
  721SOL    HW1 2162   2.278   2.968   2.052  0.4378  0.8279 -2.8065
  721SOL    HW2 2163   2.156   2.964   2.176  0.2195  2.4042 -1.1772
  722SOL     OW 2164   2.350   1.696   0.532  0.5241  0.0286 -0.1515
  722SOL    HW1 2165   2.397   1.733   0.444 -0.1961  0.9834  0.6131
  722SOL    HW2 2166   2.249   1.724   0.537  1.3549 -2.0435 -1.2355
  723SOL     OW 2167   2.646   2.761   1.941  0.1797  0.2870  0.1262
  723SOL    HW1 2168   2.677   2.849   1.986 -0.7552 -0.2046  0.6887
  723SOL    HW2 2169   2.547   2.741   1.968  1.6165 -0.6845 -1.8495
  724SOL     OW 2170   0.364   2.518   2.417 -0.0426 -0.2277  0.2846
  724SOL    HW1 2171   0.259   2.518   2.402  1.2955 -0.5272 -0.5326
  724SOL    HW2 2172   0.391   2.471   2.505  2.2458 -2.8279  0.3640
  725SOL     OW 2173   2.454   2.816   1.449  0.1407 -0.4871  0.1273
  725SOL    HW1 2174   2.496   2.834   1.357  1.5586  0.6117 -2.4646
  725SOL    HW2 2175   2.457   2.719   1.484 -0.8668  1.3728 -1.2981
  726SOL     OW 2176   2.501   2.336   0.717  0.1822  0.1794 -0.4853
  726SOL    HW1 2177   2.497   2.426   0.668 -0.1466  0.8328 -0.3863
  726SOL    HW2 2178   2.504   2.249   0.652  3.4716 -1.6850 -1.4078
  727SOL     OW 2179   0.114   3.080   0.121  0.2328  0.2254 -0.1587
  727SOL    HW1 2180   0.203   3.122   0.089 -3.7164  1.3059  1.5705
  727SOL    HW2 2181   0.101   2.978   0.089  1.2872 -1.2394  3.3878
  728SOL     OW 2182   2.906   0.740   0.964 -0.4465 -0.1359  0.1277
  728SOL    HW1 2183   2.844   0.719   0.885 -0.2251  1.3003 -1.2323
  728SOL    HW2 2184   2.869   0.690   1.049 -2.3553  0.8286  1.4627
  729SOL     OW 2185   0.015   2.564   0.778  0.1820  0.3627  0.0302
  729SOL    HW1 2186   0.072   2.504   0.842 -0.8319  0.9530 -2.5565
  729SOL    HW2 2187   0.072   2.593   0.694 -2.4248  0.0541  0.1771
  730SOL     OW 2188   2.563   0.720   0.889  0.1945 -0.2073 -0.3650
  730SOL    HW1 2189   2.521   0.814   0.865 -1.7582 -1.6651 -3.6004
  730SOL    HW2 2190   2.639   0.691   0.822  2.5818  1.8081  1.5143
  731SOL     OW 2191   3.079   2.231   2.340 -0.0402 -0.3922 -0.6840
  731SOL    HW1 2192   3.042   2.249   2.433  2.1873  0.2872  1.1647
  731SOL    HW2 2193   3.016   2.253   2.261 -0.8844 -0.1281  2.3517
  732SOL     OW 2194   1.308   2.753   1.974 -0.7371 -0.0823 -0.1134
  732SOL    HW1 2195   1.333   2.681   2.046  1.3361 -0.6334  0.9995
  732SOL    HW2 2196   1.296   2.709   1.881 -0.2254  1.4885 -0.2715
  733SOL     OW 2197   0.027   0.611   2.249  0.2632 -0.3654  0.1980
  733SOL    HW1 2198   0.077   0.670   2.180 -2.0295  0.2851 -0.0724
  733SOL    HW2 2199  -0.037   0.542   2.205  1.0820 -0.6447  0.5721
  734SOL     OW 2200   1.485   0.390   2.707 -0.2159  0.3517  0.2666
  734SOL    HW1 2201   1.477   0.492   2.721 -2.8970 -0.8319 -2.5946
  734SOL    HW2 2202   1.408   0.343   2.760  1.8847 -1.8143 -0.3335
  735SOL     OW 2203   2.936   2.638   2.304  0.5558 -0.2380 -0.3632
  735SOL    HW1 2204   2.916   2.643   2.201  2.0673 -0.5290  1.9179
  735SOL    HW2 2205   3.037   2.627   2.324  2.1450  1.5529 -3.1948
  736SOL     OW 2206   0.900   0.396   2.540 -0.1328  0.0605  0.1521
  736SOL    HW1 2207   0.806   0.441   2.564 -0.4515  1.1102  1.9500
  736SOL    HW2 2208   0.899   0.319   2.467 -0.0813 -2.9023  3.1514
  737SOL     OW 2209   2.672   0.475   2.781  0.3169 -0.8470 -0.1822
  737SOL    HW1 2210   2.648   0.450   2.880 -2.8568  1.5298  1.5899
  737SOL    HW2 2211   2.768   0.447   2.755 -2.0641  2.7462 -0.3582
  738SOL     OW 2212   1.764   1.215   2.909 -0.4122 -0.2082  0.8730
  738SOL    HW1 2213   1.862   1.231   2.879 -1.7217  4.4885  1.6056
  738SOL    HW2 2214   1.715   1.140   2.857 -0.8223 -1.3576  0.5351
  739SOL     OW 2215   1.838   0.719   0.605 -0.2965  0.3848 -0.0496
  739SOL    HW1 2216   1.827   0.729   0.709  3.8443 -0.2162 -2.3379
  739SOL    HW2 2217   1.855   0.621   0.575 -0.1040 -2.9731 -1.4302
  740SOL     OW 2218   1.959   1.944   2.346  0.2951 -0.1512  0.4351
  740SOL    HW1 2219   2.010   1.864   2.382 -2.1030  0.1715 -1.6632
  740SOL    HW2 2220   1.901   1.921   2.262 -0.9592 -1.3881 -4.4885
  741SOL     OW 2221   2.539   0.102   2.460  0.0389 -0.6803  0.1372
  741SOL    HW1 2222   2.641   0.093   2.441  0.8608  1.4751  0.4689
  741SOL    HW2 2223   2.484   0.126   2.375  0.7107  1.4054  1.3740
  742SOL     OW 2224   2.215   1.456   0.183 -0.1839 -0.3032  0.0597
  742SOL    HW1 2225   2.130   1.515   0.170  1.9813 -1.5093 -1.7579
  742SOL    HW2 2226   2.185   1.356   0.208 -1.3123 -1.7650  0.8454
  743SOL     OW 2227   1.817   0.626   2.559  0.5353 -0.0518  0.6136
  743SOL    HW1 2228   1.782   0.542   2.507  0.5995 -0.0739 -0.0707
  743SOL    HW2 2229   1.748   0.694   2.587  1.8696 -0.2609  1.6747
  744SOL     OW 2230   2.654   2.134   0.140 -0.4704 -0.1171 -0.2577
  744SOL    HW1 2231   2.559   2.137   0.183 -0.5230  2.8732 -2.0613
  744SOL    HW2 2232   2.689   2.042   0.120  1.0371  2.2998  1.5051
  745SOL     OW 2233   2.175   2.501   2.215 -0.4255  0.3598  0.1772
  745SOL    HW1 2234   2.112   2.525   2.139  0.2093 -1.1260 -1.6270
  745SOL    HW2 2235   2.123   2.502   2.305  0.3738 -0.3248 -0.8818
  746SOL     OW 2236   3.089   2.559   1.774  0.0420  0.4248 -0.3276
  746SOL    HW1 2237   3.183   2.523   1.751  0.8884 -1.6913 -0.0347
  746SOL    HW2 2238   3.092   2.646   1.832 -0.6245  1.2899 -1.3065
  747SOL     OW 2239   3.095   1.785   1.670 -0.0767  0.2246 -0.1092
  747SOL    HW1 2240   3.055   1.689   1.668  4.3912 -0.5943 -4.4238
  747SOL    HW2 2241   3.179   1.787   1.606 -1.5666 -0.0963  0.3104
  748SOL     OW 2242   1.813   2.700   2.945 -0.0200  0.0712 -0.0008
  748SOL    HW1 2243   1.846   2.784   2.993 -2.7397 -1.7843  0.0957
  748SOL    HW2 2244   1.716   2.701   2.926  2.6471 -0.3439 -0.1116
  749SOL     OW 2245   1.290   2.919   0.819  0.4123  0.0016  0.3144
  749SOL    HW1 2246   1.204   2.976   0.794 -2.4930  4.9651 -2.4057
  749SOL    HW2 2247   1.375   2.968   0.790 -0.7775 -2.6103  0.7740
  750SOL     OW 2248   2.265   0.211   1.870 -0.6071 -0.5801 -0.0270
  750SOL    HW1 2249   2.322   0.232   1.780  1.4335 -0.7037 -0.4809
  750SOL    HW2 2250   2.297   0.270   1.952  2.5423  0.5522  0.7832
  751SOL     OW 2251   0.803   2.160   2.911 -0.1966  0.2787 -0.0218
  751SOL    HW1 2252   0.887   2.119   2.956 -1.0418  2.1365 -1.0029
  751SOL    HW2 2253   0.714   2.110   2.935 -0.9228 -1.4353 -0.3720
  752SOL     OW 2254   1.355   0.806   1.142 -0.2485 -0.1194  0.2648
  752SOL    HW1 2255   1.392   0.902   1.144  0.3309 -2.0106 -0.6368
  752SOL    HW2 2256   1.403   0.752   1.218  0.2261 -1.0488  1.6045
  753SOL     OW 2257   0.997   2.598   1.800 -0.2884 -0.7720 -0.7369
  753SOL    HW1 2258   1.103   2.600   1.789  4.6888  0.9391 -0.7793
  753SOL    HW2 2259   0.954   2.680   1.852 -2.0849  1.4110  2.4491
  754SOL     OW 2260   1.153   1.174   2.996  0.4750 -0.4183  0.0453
  754SOL    HW1 2261   1.221   1.120   2.941 -0.5386 -0.1583  0.1853
  754SOL    HW2 2262   1.192   1.235   3.068 -0.1443 -0.1720 -1.7928
  755SOL     OW 2263   1.961   0.481   2.206  0.7437 -0.5175  0.2489
  755SOL    HW1 2264   2.030   0.405   2.195 -1.4668  4.2853  1.5101
  755SOL    HW2 2265   1.890   0.470   2.280 -1.0297  0.8985 -0.0308
  756SOL     OW 2266   2.512   0.983   2.984  0.0322  0.1412  0.3361
  756SOL    HW1 2267   2.611   0.959   2.995 -2.3094 -0.0668  0.6090
  756SOL    HW2 2268   2.450   0.903   3.007  2.6719 -2.1882  2.5344
  757SOL     OW 2269   0.112   0.425   1.968 -0.3482  0.2610  0.2170
  757SOL    HW1 2270   0.151   0.327   1.976 -0.0281 -4.7853 -0.4775
  757SOL    HW2 2271   0.036   0.445   2.034  0.1025  3.3198 -2.5269
  758SOL     OW 2272   2.314   0.074   1.452  0.1140  0.0962  0.6694
  758SOL    HW1 2273   2.278  -0.010   1.507  0.1644 -2.0968  2.5938
  758SOL    HW2 2274   2.279   0.070   1.355 -0.5347  0.2959  1.4003
  759SOL     OW 2275   1.706   0.114   0.094 -0.3172 -0.3993  0.1743
  759SOL    HW1 2276   1.702   0.126  -0.013 -0.1584  0.8988  1.1785
  759SOL    HW2 2277   1.806   0.105   0.120 -1.0457  1.4217 -1.1738
  760SOL     OW 2278   2.712   2.028   2.841 -0.1237 -0.6115  0.1944
  760SOL    HW1 2279   2.647   2.105   2.859  0.4182 -3.0148 -2.1382
  760SOL    HW2 2280   2.808   2.055   2.817  0.7756 -2.2407  0.8454
  761SOL     OW 2281   1.933   1.787   1.712 -0.6312 -0.2708 -0.0072
  761SOL    HW1 2282   1.986   1.703   1.739  2.8223  0.5792 -1.5313
  761SOL    HW2 2283   1.862   1.755   1.645  0.0465  1.6873 -1.4554
  762SOL     OW 2284   0.502   2.395   0.936 -0.2895  0.3932 -0.1208
  762SOL    HW1 2285   0.545   2.411   0.844 -0.5984  1.2640 -1.4839
  762SOL    HW2 2286   0.566   2.408   1.019  1.8645 -0.6322  1.2602
  763SOL     OW 2287   2.125   1.600   3.005  0.4462 -0.1256 -0.2822
  763SOL    HW1 2288   2.227   1.575   3.025 -1.6035  1.1975  0.3385
  763SOL    HW2 2289   2.057   1.532   3.045 -1.3131  0.4134 -0.3487
  764SOL     OW 2290   0.679   0.589   0.648 -0.1546  0.1914  1.0988
  764SOL    HW1 2291   0.592   0.553   0.608  0.2079  0.0613  1.1395
  764SOL    HW2 2292   0.704   0.549   0.739  1.8776  1.6546 -3.6602
  765SOL     OW 2293   0.807   0.288   0.712 -0.2159  0.7642  0.6583
  765SOL    HW1 2294   0.869   0.292   0.627  0.7345  2.0173 -4.0811
  765SOL    HW2 2295   0.797   0.377   0.761  2.2135 -3.1903 -0.1619
  766SOL     OW 2296   2.912   2.169   3.061 -0.0714  0.0117 -0.2263
  766SOL    HW1 2297   2.812   2.170   3.079  2.2802 -1.2225  2.9656
  766SOL    HW2 2298   2.964   2.258   3.087  3.5741 -0.6752 -1.2084
  767SOL     OW 2299   2.835   1.616   0.555  0.1205 -0.2041  0.2405
  767SOL    HW1 2300   2.742   1.644   0.593 -0.2140 -2.3507 -0.1648
  767SOL    HW2 2301   2.903   1.599   0.632 -0.8147 -0.7232 -0.4978
  768SOL     OW 2302   1.020   0.216   0.177 -0.0199 -0.4002 -0.0466
  768SOL    HW1 2303   0.992   0.272   0.260  1.6953 -1.4092  0.9978
  768SOL    HW2 2304   1.119   0.193   0.179 -1.3088  0.0831 -0.3889
  769SOL     OW 2305   1.125   1.809   2.294 -0.0481  0.0131 -0.1568
  769SOL    HW1 2306   1.037   1.835   2.334 -2.3195 -2.1676  0.6973
  769SOL    HW2 2307   1.201   1.817   2.364  0.8248  1.2233 -2.1617
  770SOL     OW 2308   0.171   1.153   2.311  0.0184 -0.0472  0.5854
  770SOL    HW1 2309   0.191   1.211   2.395 -3.5491  1.0314 -1.4445
  770SOL    HW2 2310   0.072   1.124   2.302  0.1823 -0.2094 -2.5892
  771SOL     OW 2311   3.063   2.800   1.906  0.1028  0.0684 -0.1886
  771SOL    HW1 2312   2.970   2.819   1.859 -0.1899 -0.3514  1.3198
  771SOL    HW2 2313   3.058   2.820   2.009 -2.0507  0.0070 -1.9215
  772SOL     OW 2314   2.368   0.206   2.834  0.1445  0.1459  0.3524
  772SOL    HW1 2315   2.433   0.137   2.793 -3.0760  0.3726  0.7054
  772SOL    HW2 2316   2.364   0.210   2.940 -1.3650  2.0084  1.6224
  773SOL     OW 2317   0.571   2.100   2.402  0.0927 -0.4548 -0.1402
  773SOL    HW1 2318   0.520   2.189   2.384  0.3330  0.6664  1.8968
  773SOL    HW2 2319   0.510   2.028   2.450 -1.5800 -2.5463  2.8211
  774SOL     OW 2320   2.094   0.011   2.607  0.6454  0.2072 -0.6260
  774SOL    HW1 2321   2.135   0.107   2.617 -1.0102 -0.8646  0.7330
  774SOL    HW2 2322   2.157  -0.054   2.660  1.7700 -2.1528 -2.7161
  775SOL     OW 2323   2.563   2.882   2.259  0.7216  0.3437 -0.8196
  775SOL    HW1 2324   2.461   2.912   2.277 -2.6460  1.9026  1.4214
  775SOL    HW2 2325   2.622   2.891   2.345 -0.0702 -0.6600 -1.9950
  776SOL     OW 2326   0.013   1.226   0.203  0.0524  0.4598 -0.2022
  776SOL    HW1 2327  -0.043   1.178   0.130 -0.7193 -1.5818  2.2611
  776SOL    HW2 2328  -0.050   1.234   0.290 -1.1403 -1.3204  0.7930
  777SOL     OW 2329   0.371   2.991   0.492  1.0417 -0.1760  0.2293
  777SOL    HW1 2330   0.274   2.972   0.449  2.5224 -0.0834  1.1452
  777SOL    HW2 2331   0.401   2.907   0.545 -1.7489  2.5092  1.3148
  778SOL     OW 2332   1.384   1.983   0.296  0.4501  0.1821 -0.1317
  778SOL    HW1 2333   1.326   2.046   0.361 -0.3304  0.9809 -0.5500
  778SOL    HW2 2334   1.419   2.024   0.206 -0.1103 -2.5177 -0.8926
  779SOL     OW 2335   0.154   0.813   0.461 -0.0867 -0.6022 -0.2822
  779SOL    HW1 2336   0.099   0.733   0.423 -0.7186  0.9425 -0.5756
  779SOL    HW2 2337   0.093   0.888   0.504 -2.3846  2.4655  0.4918
  780SOL     OW 2338   0.103   0.327   2.341  0.3786 -0.3216  0.0102
  780SOL    HW1 2339   0.116   0.404   2.409  0.2091  1.0031 -1.7236
  780SOL    HW2 2340   0.191   0.309   2.290 -1.4317 -0.7108  1.0241
  781SOL     OW 2341   0.672   1.651   1.547 -0.2888 -0.4100 -0.1792
  781SOL    HW1 2342   0.730   1.590   1.609  0.4533 -0.2664 -1.2560
  781SOL    HW2 2343   0.590   1.604   1.502 -1.6293  1.2585 -0.3773
  782SOL     OW 2344   2.589   0.012   0.907 -0.3239  0.3874  0.1695
  782SOL    HW1 2345   2.532   0.059   0.831  0.0584  4.3130 -0.2803
  782SOL    HW2 2346   2.554   0.038   1.002 -0.8638  1.8661  0.4004
  783SOL     OW 2347   2.728   0.729   2.430  0.9282  0.9834  0.1954
  783SOL    HW1 2348   2.704   0.744   2.532 -2.0246 -0.5255  0.9033
  783SOL    HW2 2349   2.705   0.629   2.405  1.7079 -1.3882  1.8128
  784SOL     OW 2350   1.424   2.102   0.022 -0.1821 -0.0657 -0.0805
  784SOL    HW1 2351   1.476   2.179   0.070  0.0999 -0.0786 -0.5136
  784SOL    HW2 2352   1.405   2.131  -0.074  0.2637  1.7349 -2.2575
  785SOL     OW 2353   2.092   0.273   3.100 -0.1544  0.1011 -0.5468
  785SOL    HW1 2354   1.998   0.286   3.144 -1.8954 -1.3517  3.3116
  785SOL    HW2 2355   2.121   0.361   3.048 -1.8734 -0.1914 -1.2738
  786SOL     OW 2356   2.047   2.201   2.266  0.5724  0.6712 -0.2196
  786SOL    HW1 2357   2.016   2.103   2.298  0.1133 -3.6739  0.8074
  786SOL    HW2 2358   2.149   2.210   2.249 -2.7696 -1.8226 -1.7216
  787SOL     OW 2359   1.402   0.531   0.883 -0.5107  0.1016 -0.4525
  787SOL    HW1 2360   1.338   0.616   0.874 -0.5571  1.2795  0.8900
  787SOL    HW2 2361   1.450   0.511   0.791 -1.9700  1.2542  1.3056
  788SOL     OW 2362   1.202   0.444   0.020  0.0138 -0.0604  0.0907
  788SOL    HW1 2363   1.122   0.396  -0.028 -0.4844  0.7574  0.2542
  788SOL    HW2 2364   1.169   0.518   0.083 -1.6708 -2.2277 -1.0088
  789SOL     OW 2365   2.570   0.123   1.961 -0.2157 -0.3339  0.2246
  789SOL    HW1 2366   2.499   0.084   1.892  1.2641 -0.1464  1.1537
  789SOL    HW2 2367   2.626   0.045   2.011  0.5905 -1.2776  1.2179
  790SOL     OW 2368   2.632   2.780   0.709 -0.0231 -0.5918  0.0649
  790SOL    HW1 2369   2.703   2.830   0.651  2.5651 -1.2588 -1.6492
  790SOL    HW2 2370   2.657   2.779   0.807 -2.5016 -1.0008 -2.9204
  791SOL     OW 2371   1.928   1.188   0.137 -0.0082 -0.2565  1.2610
  791SOL    HW1 2372   1.851   1.152   0.193  1.1283  0.4001 -2.6888
  791SOL    HW2 2373   2.013   1.184   0.189 -0.7746  0.8969 -1.1002
  792SOL     OW 2374   0.432   1.818   2.201 -0.1050 -0.9804  0.2527
  792SOL    HW1 2375   0.513   1.823   2.268  0.5681 -2.0272 -0.0731
  792SOL    HW2 2376   0.407   1.718   2.193 -0.1502  0.8316 -1.7337
  793SOL     OW 2377   2.094   1.617   2.074  0.1287 -0.0356 -0.2656
  793SOL    HW1 2378   2.165   1.684   2.038  1.7709 -1.0799 -1.2272
  793SOL    HW2 2379   2.112   1.523   2.039  0.9712  1.6448  2.7645
  794SOL     OW 2380   0.481   1.551   2.269  0.4023 -0.7974  0.4858
  794SOL    HW1 2381   0.491   1.487   2.187 -0.4450  0.5727 -1.7307
  794SOL    HW2 2382   0.411   1.511   2.339 -2.3278  1.9334  2.4899
  795SOL     OW 2383   2.480   2.237   1.800  0.2424 -0.1077  0.2113
  795SOL    HW1 2384   2.492   2.236   1.899  0.8139  0.5231 -2.6549
  795SOL    HW2 2385   2.452   2.148   1.760 -1.5290 -0.1711  0.0550
  796SOL     OW 2386   3.082   1.103   2.713 -0.1902  0.6576 -0.5186
  796SOL    HW1 2387   2.988   1.127   2.744 -0.2433 -2.8959 -1.0390
  796SOL    HW2 2388   3.151   1.103   2.790 -0.0248 -0.6879  1.0195
  797SOL     OW 2389   0.802   0.642   1.454 -0.1160 -0.1241 -0.5295
  797SOL    HW1 2390   0.886   0.691   1.496  0.3069 -0.5353  3.6799
  797SOL    HW2 2391   0.752   0.698   1.380  0.6555  2.5786 -1.7146
  798SOL     OW 2392   1.330   0.448   1.190 -0.3037 -0.4961  0.0681
  798SOL    HW1 2393   1.393   0.404   1.259 -2.6763 -1.7636 -2.5865
  798SOL    HW2 2394   1.381   0.477   1.104 -1.0503 -0.6666  0.4734
  799SOL     OW 2395   1.959   2.651   1.048  0.3332 -0.0569  0.0076
  799SOL    HW1 2396   1.906   2.619   1.133 -0.2161  3.3521  0.5705
  799SOL    HW2 2397   1.902   2.693   0.974  0.2320  2.1851 -0.9865
  800SOL     OW 2398   3.072   0.631   1.796 -0.1792 -0.1368  0.1833
  800SOL    HW1 2399   3.000   0.642   1.871 -1.6753 -0.3614  1.8332
  800SOL    HW2 2400   3.150   0.574   1.834 -0.3881 -1.4634 -1.2584
  801SOL     OW 2401   1.895   2.160   0.179  0.2664  0.1634  0.1197
  801SOL    HW1 2402   1.817   2.122   0.121 -0.1639  0.5792 -1.3037
  801SOL    HW2 2403   1.984   2.120   0.141 -2.4735 -1.7846  0.9270
  802SOL     OW 2404   0.749   0.808   2.581  0.6040 -0.2851  0.1996
  802SOL    HW1 2405   0.807   0.787   2.496 -2.4940 -0.8109  0.0159
  802SOL    HW2 2406   0.664   0.756   2.588 -0.1634  1.6286 -0.2485
  803SOL     OW 2407   0.897   0.157   0.966 -0.4085  0.3208 -0.7938
  803SOL    HW1 2408   0.983   0.215   0.984  0.9101  1.2063  0.1352
  803SOL    HW2 2409   0.835   0.196   0.889 -1.2179  1.5320 -1.3194
  804SOL     OW 2410   0.418   3.014   2.082  0.2564 -0.6185  0.3712
  804SOL    HW1 2411   0.371   3.088   2.026 -0.0790  0.5696 -1.3490
  804SOL    HW2 2412   0.389   2.916   2.057 -1.3476 -1.6512  1.1608
  805SOL     OW 2413   2.449   0.308   0.295 -0.2593 -0.5032 -0.1786
  805SOL    HW1 2414   2.546   0.294   0.308 -1.8391  0.0966 -1.8331
  805SOL    HW2 2415   2.433   0.280   0.197 -2.1216  0.7987  0.4209
  806SOL     OW 2416   0.689   2.389   1.670 -0.3061 -0.0260  0.1685
  806SOL    HW1 2417   0.671   2.491   1.682  0.2160 -1.2870  0.2702
  806SOL    HW2 2418   0.789   2.360   1.679 -1.0101  0.2573 -1.8830
  807SOL     OW 2419   2.524   0.925   0.436 -0.3623 -0.5177 -0.1659
  807SOL    HW1 2420   2.613   0.879   0.462 -0.6741 -3.1422 -1.7453
  807SOL    HW2 2421   2.499   0.934   0.339 -0.3935  0.1667  1.2119
  808SOL     OW 2422   0.558   1.991   2.988  0.0762  0.0860  0.3300
  808SOL    HW1 2423   0.564   2.001   3.089  0.3209 -1.0437  0.0786
  808SOL    HW2 2424   0.567   1.892   2.956  2.2911  2.4125  1.3033
  809SOL     OW 2425   2.689   1.984   1.907 -0.2235 -0.1958  0.0776
  809SOL    HW1 2426   2.768   2.053   1.909  0.9294 -0.3768  1.3378
  809SOL    HW2 2427   2.651   1.961   1.811 -1.6246  2.5294 -0.2717
  810SOL     OW 2428   2.096   1.126   0.544 -0.3054  0.1530 -0.4084
  810SOL    HW1 2429   2.104   1.070   0.631 -0.1523 -0.4897  3.9962
  810SOL    HW2 2430   2.047   1.216   0.559  1.1120  1.8668 -1.0934
  811SOL     OW 2431   1.290   2.372   1.217 -0.5175  0.8268 -0.0908
  811SOL    HW1 2432   1.255   2.284   1.263 -1.1114  0.4757  1.5291
  811SOL    HW2 2433   1.268   2.385   1.115 -1.2062  2.1970 -0.7449
  812SOL     OW 2434   1.368   0.774   1.973 -0.0799  0.2394 -0.1916
  812SOL    HW1 2435   1.425   0.840   2.033 -0.0072  3.0649  0.4905
  812SOL    HW2 2436   1.278   0.821   1.950 -0.7966  0.6502  2.0981
  813SOL     OW 2437   1.727   2.027   2.489  0.2218  0.5312  0.1068
  813SOL    HW1 2438   1.821   1.999   2.488  1.9256  0.8846 -0.9963
  813SOL    HW2 2439   1.697   2.050   2.390  0.1179 -1.7110 -1.1872
  814SOL     OW 2440   2.882   1.568   2.899 -0.3818 -0.5501  0.3348
  814SOL    HW1 2441   2.970   1.600   2.942 -1.3423 -1.1986  1.2540
  814SOL    HW2 2442   2.846   1.642   2.833 -0.3805 -1.5217  0.3038
  815SOL     OW 2443   2.248   2.884   2.719 -0.3230  0.0977  0.3550
  815SOL    HW1 2444   2.190   2.826   2.787 -2.0785  0.7777  2.0402
  815SOL    HW2 2445   2.336   2.842   2.689 -0.3257 -0.8735  2.4748
  816SOL     OW 2446   1.755   0.349   1.681 -0.1003  0.2626  0.4285
  816SOL    HW1 2447   1.652   0.349   1.694  1.8170  0.1711 -1.4068
  816SOL    HW2 2448   1.811   0.322   1.764  0.7525  1.1529  2.4349
  817SOL     OW 2449   0.471   1.229   2.470 -0.1659 -0.4320  0.0111
  817SOL    HW1 2450   0.405   1.310   2.481  0.2972 -1.4354 -0.4187
  817SOL    HW2 2451   0.475   1.185   2.377 -0.6194  1.0413 -2.3486
  818SOL     OW 2452   2.017   0.858   0.426 -0.0064  0.3274 -0.1351
  818SOL    HW1 2453   2.044   0.954   0.419  1.7774 -2.3697 -0.7330
  818SOL    HW2 2454   1.954   0.836   0.506 -1.6928 -0.6884 -1.6052
  819SOL     OW 2455   2.747   2.936   3.042  0.1171 -0.1497 -0.1302
  819SOL    HW1 2456   2.829   2.884   3.008  2.3658  1.1616 -1.6378
  819SOL    HW2 2457   2.663   2.908   2.985  2.6769 -1.8840 -2.0042
  820SOL     OW 2458   1.202   1.118   0.530 -0.2206  0.6538 -0.0417
  820SOL    HW1 2459   1.249   1.191   0.589  0.3657  0.1532 -0.6058
  820SOL    HW2 2460   1.182   1.034   0.590 -1.1122 -1.2387  2.1246
  821SOL     OW 2461   3.079   1.277   0.663 -0.1105 -0.1317 -0.0548
  821SOL    HW1 2462   3.027   1.296   0.751  0.5982 -1.4377 -0.3535
  821SOL    HW2 2463   3.159   1.349   0.651  3.2976  1.6298 -0.5135
  822SOL     OW 2464   2.552   1.757   2.446 -0.4240 -0.2080 -0.3340
  822SOL    HW1 2465   2.523   1.837   2.505 -2.1140  1.6443 -1.1186
  822SOL    HW2 2466   2.525   1.772   2.345  1.1832  1.5352 -1.1042
  823SOL     OW 2467   2.051   0.888   1.197 -0.1849  0.1474  0.3027
  823SOL    HW1 2468   2.032   0.895   1.299 -1.0637 -1.6042 -0.3944
  823SOL    HW2 2469   1.970   0.911   1.138  1.1484  2.3150 -1.5549
  824SOL     OW 2470   0.185   2.026   2.712 -0.2465 -0.1903  0.1526
  824SOL    HW1 2471   0.168   1.953   2.786 -0.7314 -1.4418 -1.2124
  824SOL    HW2 2472   0.241   1.993   2.629 -0.8529 -2.5646  1.7892
  825SOL     OW 2473   1.240   1.046   0.273 -0.0464 -0.0844 -0.3725
  825SOL    HW1 2474   1.195   1.065   0.365  1.9935  3.2866  2.2393
  825SOL    HW2 2475   1.299   1.127   0.240 -1.7150  1.0311  0.1234
  826SOL     OW 2476   1.922   0.646   1.549  0.1004 -0.8047 -0.0942
  826SOL    HW1 2477   1.978   0.599   1.620 -0.8166  0.3724 -0.0066
  826SOL    HW2 2478   1.840   0.594   1.519  1.3175  1.0028 -0.7212
  827SOL     OW 2479   0.765   1.388   0.246 -0.1831  0.0744  0.9351
  827SOL    HW1 2480   0.773   1.315   0.172 -3.3768  0.3462 -1.7081
  827SOL    HW2 2481   0.705   1.359   0.327 -0.6951 -0.0025 -0.3676
  828SOL     OW 2482   2.556   0.086   1.586 -0.9978  0.3577 -0.2549
  828SOL    HW1 2483   2.467   0.092   1.534  1.6894 -0.0615  1.1728
  828SOL    HW2 2484   2.552   0.005   1.649  2.5839  1.3990 -1.3320
  829SOL     OW 2485   2.803   2.501   3.029  0.2515 -0.3044 -0.0473
  829SOL    HW1 2486   2.734   2.425   3.013  0.4159  1.2461  0.1183
  829SOL    HW2 2487   2.777   2.549   3.115  1.6981  1.0826 -1.5694
  830SOL     OW 2488   2.771   0.931   3.018 -0.1569  0.4421  0.4100
  830SOL    HW1 2489   2.809   0.991   3.093 -0.4448 -0.2268  0.7761
  830SOL    HW2 2490   2.789   0.833   3.043  2.5888  2.9187  0.0569
  831SOL     OW 2491   3.082   0.604   0.369  0.4223  0.4862 -0.3843
  831SOL    HW1 2492   3.027   0.548   0.439 -1.8010 -1.6833  1.3457
  831SOL    HW2 2493   3.112   0.543   0.291  0.2830  1.6140  0.3114
  832SOL     OW 2494   1.804   0.756   3.078  0.0927 -0.0640  1.0697
  832SOL    HW1 2495   1.730   0.825   3.061 -0.0155 -1.3628 -2.7979
  832SOL    HW2 2496   1.775   0.661   3.051  0.3354  0.2389 -1.3212
  833SOL     OW 2497   2.463   2.133   0.510  0.1513  0.2692 -0.2971
  833SOL    HW1 2498   2.362   2.147   0.533  1.0665  0.3429 -1.0615
  833SOL    HW2 2499   2.496   2.032   0.506 -1.3828  2.1530 -0.7030
  834SOL     OW 2500   0.077   0.240   0.644  0.0507  0.3179 -0.0730
  834SOL    HW1 2501   0.106   0.149   0.683  2.0305 -0.8945 -2.4562
  834SOL    HW2 2502   0.145   0.263   0.567 -3.3224 -2.3434  0.0837
  835SOL     OW 2503   2.422   1.509   1.195 -0.5347  0.3436 -0.3023
  835SOL    HW1 2504   2.513   1.525   1.240  0.4544  0.0934 -0.0657
  835SOL    HW2 2505   2.440   1.491   1.095 -2.0968 -0.1092  1.9163
  836SOL     OW 2506   1.520   0.850   2.588 -0.2381 -0.5303 -0.6586
  836SOL    HW1 2507   1.420   0.839   2.559 -0.0116 -1.4598 -2.5966
  836SOL    HW2 2508   1.578   0.871   2.506  0.6114 -0.7923 -0.1920
  837SOL     OW 2509   1.536   0.026   0.508  0.4066  0.1362  0.3192
  837SOL    HW1 2510   1.508   0.126   0.531 -1.5076  1.4985  0.7055
  837SOL    HW2 2511   1.522  -0.002   0.409 -0.3225 -3.7990  0.8883
  838SOL     OW 2512   1.297   1.589   2.669 -0.1979 -0.3551 -0.3671
  838SOL    HW1 2513   1.352   1.537   2.735  0.9608  0.9821 -0.3402
  838SOL    HW2 2514   1.211   1.537   2.642 -2.2548  1.3372 -1.3977
  839SOL     OW 2515   1.611   0.236   0.973  0.4863 -0.1640 -0.0380
  839SOL    HW1 2516   1.633   0.281   1.066  0.6006  1.2668  0.4072
  839SOL    HW2 2517   1.599   0.131   0.982 -0.8115  1.5632 -1.8304
  840SOL     OW 2518   2.544   2.951   1.733 -0.2002  0.6818  0.1930
  840SOL    HW1 2519   2.519   2.908   1.641  0.7603 -0.9970 -2.2128
  840SOL    HW2 2520   2.588   2.889   1.804  0.3549 -1.9108 -2.9742
  841SOL     OW 2521   1.585   0.920   3.052 -0.4362 -0.1652  0.2036
  841SOL    HW1 2522   1.502   0.874   3.090 -0.4994  3.1504  0.1608
  841SOL    HW2 2523   1.567   0.978   2.961 -1.3917  1.5373  1.1809
  842SOL     OW 2524   0.814   1.525   0.855 -0.2350 -0.1896 -0.3769
  842SOL    HW1 2525   0.773   1.587   0.927  0.8142  3.0002  0.3991
  842SOL    HW2 2526   0.761   1.435   0.851 -1.0385 -1.5499  0.3805
  843SOL     OW 2527   0.192   3.054   1.399  0.0817  0.0944  0.6086
  843SOL    HW1 2528   0.194   3.134   1.464 -0.1841 -2.5034 -1.3275
  843SOL    HW2 2529   0.148   2.973   1.445  1.7427 -0.3066 -0.1758
  844SOL     OW 2530   0.814   2.486   0.255  0.7025  0.1182 -0.0145
  844SOL    HW1 2531   0.744   2.422   0.297  0.7624  0.6886  2.1660
  844SOL    HW2 2532   0.772   2.566   0.203  1.0152  1.4527  2.2741
  845SOL     OW 2533   1.652   2.830   1.245 -0.0128  0.2299 -0.1913
  845SOL    HW1 2534   1.594   2.747   1.216 -1.3012 -3.1759 -0.5732
  845SOL    HW2 2535   1.695   2.833   1.339 -0.7218 -0.3542  0.0153
  846SOL     OW 2536   1.543   2.999   0.740  0.8627 -0.1778  0.3558
  846SOL    HW1 2537   1.525   3.059   0.655 -2.1961  0.6446  1.7923
  846SOL    HW2 2538   1.645   2.987   0.751 -0.7737 -0.3603 -2.2608
  847SOL     OW 2539   2.085   1.745   0.470 -0.0516 -0.0228 -0.1404
  847SOL    HW1 2540   2.039   1.656   0.484 -3.0760  0.5422 -0.2630
  847SOL    HW2 2541   2.017   1.815   0.449  3.9528 -4.1709  0.8820
  848SOL     OW 2542   2.423   0.878   2.653  0.2844 -0.1500 -0.3736
  848SOL    HW1 2543   2.384   0.967   2.691  0.0668 -2.3902  2.1132
  848SOL    HW2 2544   2.345   0.810   2.643  0.9896 -1.6776  2.0949
  849SOL     OW 2545   2.528   0.905   2.391  0.0018  0.2208  0.1933
  849SOL    HW1 2546   2.613   0.840   2.398  3.7265 -0.5590 -0.0292
  849SOL    HW2 2547   2.474   0.914   2.481 -0.2545  1.2256 -1.9080
  850SOL     OW 2548   1.591   0.060   1.279 -0.0596 -0.8021 -0.8273
  850SOL    HW1 2549   1.573   0.038   1.181  0.6548  0.7457 -1.1167
  850SOL    HW2 2550   1.538  -0.011   1.335  2.9559 -0.2076  2.1691
  851SOL     OW 2551   0.559   1.725   0.682 -0.5730  0.0918 -0.1443
  851SOL    HW1 2552   0.633   1.770   0.739  1.1262  2.3390 -0.1981
  851SOL    HW2 2553   0.562   1.762   0.580 -1.7031  1.8006 -4.3129
  852SOL     OW 2554   0.865   2.103   1.691 -0.4374  0.1946  0.5937
  852SOL    HW1 2555   0.905   2.197   1.674 -2.4025  0.8289  1.5418
  852SOL    HW2 2556   0.771   2.103   1.729  2.3549  0.0955  0.9199
  853SOL     OW 2557   2.539   1.540   2.615 -0.0513  0.1657 -0.0828
  853SOL    HW1 2558   2.488   1.451   2.603  0.0939  0.9164 -1.2769
  853SOL    HW2 2559   2.517   1.616   2.547  0.3073  1.4149 -0.5348
  854SOL     OW 2560   2.446   1.422   1.783  1.1318 -0.0608 -0.6545
  854SOL    HW1 2561   2.469   1.404   1.686 -1.7003 -3.1876  0.5848
  854SOL    HW2 2562   2.416   1.336   1.834 -0.0209  0.3699  3.0402
  855SOL     OW 2563   2.076   2.392   1.103  0.4123  0.0204 -0.3187
  855SOL    HW1 2564   2.045   2.482   1.059 -0.9503  0.7483 -1.4808
  855SOL    HW2 2565   2.159   2.404   1.167 -0.2028  1.0508  0.5027
  856SOL     OW 2566   1.341   1.439   0.902  0.0460  0.0057  0.3301
  856SOL    HW1 2567   1.407   1.515   0.919 -0.6940  0.6960 -0.9161
  856SOL    HW2 2568   1.247   1.466   0.938  2.5908 -0.1405 -0.4842
  857SOL     OW 2569  -0.001   2.734   1.096 -0.0889  0.1437  0.0884
  857SOL    HW1 2570   0.010   2.737   0.993 -0.7483 -0.2392 -1.6512
  857SOL    HW2 2571   0.069   2.673   1.141 -0.8257  1.6463 -3.0128
  858SOL     OW 2572   2.391   2.052   1.573  0.3104  0.5249 -0.1108
  858SOL    HW1 2573   2.297   2.014   1.610 -1.9392  2.3287  1.9745
  858SOL    HW2 2574   2.470   1.986   1.589  4.1428  0.7713  1.6216
  859SOL     OW 2575   2.449   0.538   1.083 -0.2014 -0.2927 -0.1241
  859SOL    HW1 2576   2.517   0.582   1.015 -3.2235 -0.3702  0.6536
  859SOL    HW2 2577   2.489   0.468   1.149 -1.1791  0.7657 -0.2601
  860SOL     OW 2578   1.906   2.827   0.506 -0.1591 -0.0951  0.1469
  860SOL    HW1 2579   1.883   2.777   0.416  0.8757 -1.2137 -1.0412
  860SOL    HW2 2580   1.871   2.925   0.517 -0.1682 -2.4163 -0.6446
  861SOL     OW 2581   1.010   2.501   2.859 -0.5024  0.0720  0.1280
  861SOL    HW1 2582   1.097   2.551   2.828 -0.5570  1.8821 -1.2527
  861SOL    HW2 2583   1.001   2.504   2.963 -1.5173 -0.2711  1.5495
  862SOL     OW 2584   2.829   2.536   1.698  0.7273 -0.0029  0.2456
  862SOL    HW1 2585   2.928   2.549   1.724 -3.1103 -1.5658  3.4499
  862SOL    HW2 2586   2.795   2.618   1.645 -0.1319 -1.2153 -1.4761
  863SOL     OW 2587   1.823   2.715   0.256 -0.1444  0.0280  0.4240
  863SOL    HW1 2588   1.877   2.625   0.242  1.4421 -1.9082 -0.1667
  863SOL    HW2 2589   1.729   2.710   0.219 -1.7089  0.1627  3.8400
  864SOL     OW 2590   2.027   1.241   2.797  0.2194  0.1793 -0.1020
  864SOL    HW1 2591   2.007   1.173   2.719 -2.5304 -0.7387  1.5327
  864SOL    HW2 2592   2.055   1.337   2.774 -0.6129  2.6303 -1.1366
  865SOL     OW 2593   2.135   1.949   0.740  0.1743  0.0583 -0.1868
  865SOL    HW1 2594   2.201   1.908   0.807 -1.5481 -1.0746 -0.1024
  865SOL    HW2 2595   2.044   1.951   0.791  1.5996 -1.5412  0.9823
  866SOL     OW 2596   2.935   2.970   1.049 -0.2569  0.8653 -0.3473
  866SOL    HW1 2597   2.946   3.003   0.950  0.1748 -0.4207  1.7122
  866SOL    HW2 2598   3.009   2.901   1.072  1.3308 -0.8327  0.8343
  867SOL     OW 2599   0.317   1.395   0.880  0.3833  0.3379  0.4450
  867SOL    HW1 2600   0.307   1.335   0.798 -1.2145  0.9087  0.4930
  867SOL    HW2 2601   0.318   1.493   0.851 -1.9499 -0.6304  2.3098
  868SOL     OW 2602   0.795   1.865   2.039 -0.8200 -0.0827  0.0677
  868SOL    HW1 2603   0.751   1.834   2.124  1.3625  2.0576  1.8781
  868SOL    HW2 2604   0.762   1.956   1.995 -1.5005  1.4168 -2.9785
  869SOL     OW 2605   2.621   1.906   1.659  0.5228  0.0794 -0.0314
  869SOL    HW1 2606   2.691   1.963   1.611 -1.8939 -2.0731  2.2510
  869SOL    HW2 2607   2.654   1.812   1.686 -1.5259 -1.8932  1.2882
  870SOL     OW 2608   2.394   2.699   1.148 -0.2192 -0.5693  0.4257
  870SOL    HW1 2609   2.408   2.606   1.194 -0.7100 -0.4575 -0.4805
  870SOL    HW2 2610   2.449   2.786   1.183  2.3867  3.2998  0.3595
  871SOL     OW 2611   3.037   2.255   0.543 -0.7841 -0.4626  0.3395
  871SOL    HW1 2612   3.006   2.261   0.642  2.1023 -1.7108 -0.2884
  871SOL    HW2 2613   2.965   2.253   0.474  0.4989  1.8516  1.8394
  872SOL     OW 2614   2.096   0.473   1.698  0.2864  0.3981 -0.1021
  872SOL    HW1 2615   2.060   0.468   1.795 -0.8077  0.1640 -2.1728
  872SOL    HW2 2616   2.198   0.475   1.701  0.8523  0.4222 -2.1877
  873SOL     OW 2617   1.721   2.080   3.100  0.3906 -0.4956  0.4657
  873SOL    HW1 2618   1.639   2.026   3.072 -1.2048  0.3378  1.3354
  873SOL    HW2 2619   1.755   2.137   3.020 -0.5497 -0.2475  1.2207
  874SOL     OW 2620   0.673   2.483   0.716 -0.2374  0.0793  0.1474
  874SOL    HW1 2621   0.681   2.579   0.753 -2.3190 -2.3406  0.5469
  874SOL    HW2 2622   0.761   2.430   0.734  2.9807 -0.8167  0.0574
  875SOL     OW 2623   2.285   1.581   1.429  0.0048 -0.8998  0.6761
  875SOL    HW1 2624   2.378   1.604   1.467 -2.3463  0.8730 -0.0576
  875SOL    HW2 2625   2.292   1.540   1.337 -0.9700 -0.5704  0.1811
  876SOL     OW 2626   0.078   2.272   2.629  0.1075  0.0573  0.4524
  876SOL    HW1 2627   0.121   2.177   2.638  2.2041 -0.6913  0.9969
  876SOL    HW2 2628   0.119   2.336   2.691 -0.1880 -2.8957 -1.5559
  877SOL     OW 2629   2.879   2.626   0.670  0.4871 -0.1328 -0.1529
  877SOL    HW1 2630   2.866   2.730   0.648 -3.1409  0.4220 -0.3117
  877SOL    HW2 2631   2.968   2.597   0.719  0.0863 -1.2618 -2.7983
  878SOL     OW 2632   2.838   1.622   2.314  0.0245  0.1827 -0.0408
  878SOL    HW1 2633   2.763   1.682   2.280  0.5758 -0.0925  2.2151
  878SOL    HW2 2634   2.833   1.592   2.412 -0.0848  0.9679 -0.2584
  879SOL     OW 2635   2.483   0.047   1.171 -0.2465  0.6080  0.1932
  879SOL    HW1 2636   2.494  -0.018   1.251  1.5202 -1.5123  0.8103
  879SOL    HW2 2637   2.390   0.041   1.121 -2.4245  1.8725  0.3968
  880SOL     OW 2638   0.645   0.544   2.265  0.4334  0.2083  0.1255
  880SOL    HW1 2639   0.668   0.503   2.359  1.7999  0.1224  0.8221
  880SOL    HW2 2640   0.700   0.500   2.186 -1.0496 -2.9946 -1.1170
  881SOL     OW 2641   0.855   0.090   0.401  0.1461 -0.2211 -0.6553
  881SOL    HW1 2642   0.879  -0.004   0.437 -1.6214 -2.9634 -1.6229
  881SOL    HW2 2643   0.764   0.100   0.355  0.0156  0.3288  0.4614
  882SOL     OW 2644   2.719   1.594   1.721 -0.9053 -0.2672  0.2329
  882SOL    HW1 2645   2.812   1.591   1.681 -0.8037  1.2191 -0.5567
  882SOL    HW2 2646   2.708   1.533   1.807  0.0401  1.3927  0.1339
  883SOL     OW 2647   0.787   0.507   0.882 -0.2833 -0.0176 -0.0533
  883SOL    HW1 2648   0.834   0.599   0.903 -0.4474 -0.1940 -1.5231
  883SOL    HW2 2649   0.733   0.478   0.969 -0.6194 -0.2271  1.4476
  884SOL     OW 2650   1.202   1.716   1.105 -0.0112 -0.0860  0.1477
  884SOL    HW1 2651   1.155   1.626   1.074  0.9645  2.7814  0.1053
  884SOL    HW2 2652   1.159   1.798   1.050 -1.3472  3.3469 -0.2733
  885SOL     OW 2653   2.317   1.903   2.274  0.3146  0.3990 -0.4088
  885SOL    HW1 2654   2.232   1.855   2.312  1.9202 -1.4298  1.2064
  885SOL    HW2 2655   2.313   2.003   2.285  1.6209 -0.5521 -0.0889
  886SOL     OW 2656   2.607   0.338   1.790  0.2861  0.4430 -0.3340
  886SOL    HW1 2657   2.616   0.252   1.851 -1.5780 -1.5268  0.8365
  886SOL    HW2 2658   2.649   0.426   1.825 -0.9084 -0.6633 -2.0919
  887SOL     OW 2659   0.148   2.071   1.281  0.2775  0.1140 -0.7504
  887SOL    HW1 2660   0.098   2.022   1.205  0.5201 -1.2998  2.8914
  887SOL    HW2 2661   0.107   2.164   1.307  1.3261 -0.1750  0.3046
  888SOL     OW 2662   0.589   1.235   1.543 -0.0038  0.5699  0.2395
  888SOL    HW1 2663   0.569   1.289   1.457 -0.9559 -1.1463  4.5299
  888SOL    HW2 2664   0.627   1.143   1.517  2.0145  0.6931  0.8751
  889SOL     OW 2665   0.828   2.448   2.244  0.2554 -0.0051  0.3327
  889SOL    HW1 2666   0.756   2.379   2.273 -0.9657  1.1744 -2.3436
  889SOL    HW2 2667   0.887   2.414   2.163 -0.0301 -1.7421 -1.9277
  890SOL     OW 2668   2.377   2.505   0.278 -0.4202  0.5903 -0.4234
  890SOL    HW1 2669   2.405   2.583   0.218  1.2533  0.6946 -2.4530
  890SOL    HW2 2670   2.307   2.532   0.352 -0.2914 -2.3259 -0.1356
  891SOL     OW 2671   2.618   1.685   0.703 -0.1458 -0.4207 -0.0918
  891SOL    HW1 2672   2.654   1.678   0.801 -0.8471  2.2692  1.8421
  891SOL    HW2 2673   2.518   1.667   0.685 -3.4066  2.9831  0.1646
  892SOL     OW 2674   0.370   0.326   2.211 -0.2358  0.3373 -0.4109
  892SOL    HW1 2675   0.404   0.420   2.205 -2.2907 -0.1320 -1.5145
  892SOL    HW2 2676   0.431   0.258   2.161  1.1373  1.3851  2.5436
  893SOL     OW 2677   1.729   0.255   2.701 -0.3719 -0.2928  0.3805
  893SOL    HW1 2678   1.817   0.296   2.748 -1.6502  0.4247  2.4063
  893SOL    HW2 2679   1.646   0.323   2.687 -0.3373  1.5991  1.6197
  894SOL     OW 2680   2.133   2.076   0.098 -0.0743  0.8091 -0.1412
  894SOL    HW1 2681   2.119   2.004   0.023 -0.7109  2.8610  1.2881
  894SOL    HW2 2682   2.180   2.038   0.184 -0.3799  0.1671 -0.8736
  895SOL     OW 2683   2.745   1.451   0.891 -0.2655  0.5176  0.7456
  895SOL    HW1 2684   2.830   1.393   0.910 -0.4271 -2.1912  2.4972
  895SOL    HW2 2685   2.755   1.546   0.936 -0.4305 -0.6385 -1.0344
  896SOL     OW 2686   1.819   1.769   1.240 -0.9802  0.5797 -0.2597
  896SOL    HW1 2687   1.920   1.757   1.242 -1.8648  1.7515  1.6882
  896SOL    HW2 2688   1.769   1.709   1.171 -1.8516  1.2947 -2.0749
  897SOL     OW 2689   0.231   0.555   3.017  0.1446 -0.1221  0.0542
  897SOL    HW1 2690   0.188   0.623   2.944  3.4227  3.5370  0.9344
  897SOL    HW2 2691   0.334   0.573   3.026  1.0107  0.5522  1.3581
  898SOL     OW 2692   0.675   2.822   1.098  0.6708 -0.2568  0.0140
  898SOL    HW1 2693   0.730   2.907   1.112 -2.0181  0.6247  2.5523
  898SOL    HW2 2694   0.690   2.752   1.172 -1.3813 -1.3892 -1.9192
  899SOL     OW 2695   2.880   0.952   1.334 -0.1607 -0.1674 -0.0274
  899SOL    HW1 2696   2.806   1.014   1.293 -2.0945  0.1572  0.2981
  899SOL    HW2 2697   2.977   0.996   1.356  0.2180 -1.2639  0.0580
  900SOL     OW 2698   0.997   2.479   2.472  0.5564 -0.4824 -0.0201
  900SOL    HW1 2699   0.929   2.462   2.398  0.7516 -1.2402 -0.5894
  900SOL    HW2 2700   0.970   2.425   2.555 -0.1802 -0.4223 -1.1803
  901SOL     OW 2701   1.875   2.385   1.441 -0.2189  0.3452  0.3401
  901SOL    HW1 2702   1.899   2.296   1.385  1.5196 -2.4617 -0.0664
  901SOL    HW2 2703   1.958   2.431   1.479  0.7963 -0.5945  2.0572
  902SOL     OW 2704   2.542   1.629   1.497 -0.4318  0.0393 -0.0950
  902SOL    HW1 2705   2.595   1.609   1.584  0.4452  0.8123  2.5988
  902SOL    HW2 2706   2.606   1.634   1.414 -0.8817 -0.6601 -0.5383
  903SOL     OW 2707   0.318   2.386   1.978  0.4348  0.6552  0.0174
  903SOL    HW1 2708   0.244   2.313   1.985  0.8705  3.2474  1.4652
  903SOL    HW2 2709   0.299   2.454   1.903 -0.4780 -2.4742 -2.0898
  904SOL     OW 2710   1.974   0.813   2.463  0.0683  0.1494  0.4311
  904SOL    HW1 2711   1.912   0.738   2.504 -2.0182 -1.2309  1.7757
  904SOL    HW2 2712   2.011   0.791   2.366  1.1850 -1.2142 -0.1200
  905SOL     OW 2713   2.816   0.079   2.414 -0.3204 -0.3965  0.0674
  905SOL    HW1 2714   2.885   0.014   2.455 -1.8567 -0.5475 -0.0861
  905SOL    HW2 2715   2.863   0.171   2.409 -1.3256  1.0211  2.5325
  906SOL     OW 2716   0.159   1.735   1.884  0.6496 -0.1063  0.2584
  906SOL    HW1 2717   0.090   1.735   1.808  0.0705  0.4093 -1.8037
  906SOL    HW2 2718   0.216   1.821   1.883  1.6301  0.5280 -1.1587
  907SOL     OW 2719   0.222   2.482   0.958  0.0194  0.0539  0.2367
  907SOL    HW1 2720   0.319   2.447   0.963  0.1081  0.1258 -1.2065
  907SOL    HW2 2721   0.227   2.580   0.916  0.4715 -0.7469  0.0565
  908SOL     OW 2722   2.847   3.008   0.376 -0.5589  0.6757 -0.7345
  908SOL    HW1 2723   2.759   3.044   0.331  0.0728  0.9837 -1.4749
  908SOL    HW2 2724   2.877   2.914   0.345  0.3439 -2.3750  1.9025
  909SOL     OW 2725   0.880   1.028   2.672 -0.2318  0.1565  0.0910
  909SOL    HW1 2726   0.821   0.941   2.657  0.2102  1.9581 -0.3537
  909SOL    HW2 2727   0.952   1.033   2.598 -2.2596 -1.2950 -1.2277
  910SOL     OW 2728   1.816   1.884   2.121 -0.2913  0.3579 -0.0439
  910SOL    HW1 2729   1.893   1.897   2.056 -2.6808  0.9053  1.1027
  910SOL    HW2 2730   1.741   1.955   2.122  2.7868  1.1736 -2.6356
  911SOL     OW 2731   1.765   2.911   1.522  0.3072  0.4662 -0.2437
  911SOL    HW1 2732   1.860   2.881   1.482  0.3701 -1.7001 -1.9420
  911SOL    HW2 2733   1.714   2.835   1.573 -0.4262 -0.6182 -1.4978
  912SOL     OW 2734   2.871   1.016   0.751  0.2353 -0.1288 -0.3692
  912SOL    HW1 2735   2.900   1.012   0.852  0.8597 -0.5480 -0.3238
  912SOL    HW2 2736   2.792   1.080   0.738 -0.3490 -1.4288 -2.6321
  913SOL     OW 2737   2.581   1.262   1.566  0.5336  0.3087 -0.0263
  913SOL    HW1 2738   2.622   1.166   1.573  1.4845  2.1122 -0.6816
  913SOL    HW2 2739   2.616   1.303   1.475  1.0634  0.7137  0.8591
  914SOL     OW 2740   2.855   0.614   1.196 -0.2732 -0.1492  0.1819
  914SOL    HW1 2741   2.853   0.511   1.213 -2.8697  2.2068 -0.0942
  914SOL    HW2 2742   2.838   0.673   1.278  1.0003  1.5996 -2.6283
  915SOL     OW 2743   1.214   0.733   0.914  0.1224  0.2614 -0.2515
  915SOL    HW1 2744   1.279   0.744   0.997  0.2194  0.4071  1.0118
  915SOL    HW2 2745   1.114   0.719   0.934  1.8709 -2.1498 -3.6351
  916SOL     OW 2746   0.634   0.093   0.679  0.0268  0.2074 -0.1974
  916SOL    HW1 2747   0.716   0.151   0.712  2.7767  2.6213  0.6505
  916SOL    HW2 2748   0.597   0.128   0.588  0.5327 -0.2377 -1.9877
  917SOL     OW 2749   2.867   2.613   2.042  0.4297 -0.3533 -0.2184
  917SOL    HW1 2750   2.782   2.664   2.008  3.0974 -0.8554  1.0453
  917SOL    HW2 2751   2.932   2.612   1.962 -1.0381  2.3448  0.6471
  918SOL     OW 2752   1.053   2.091   3.041 -0.4819 -0.0852 -0.4900
  918SOL    HW1 2753   1.071   2.188   3.076 -1.7801  0.0340  0.0376
  918SOL    HW2 2754   1.103   2.071   2.954  1.1704  0.5159  1.7593
  919SOL     OW 2755   0.798   1.637   2.804  0.6306  0.2627  0.0862
  919SOL    HW1 2756   0.857   1.715   2.777 -1.1357 -1.2359  0.0795
  919SOL    HW2 2757   0.792   1.562   2.737  0.3247  0.7440  3.2948
  920SOL     OW 2758   1.341   1.821   2.457  0.2059 -0.1406  0.0521
  920SOL    HW1 2759   1.409   1.779   2.385  2.4821 -0.3104 -0.7332
  920SOL    HW2 2760   1.345   1.762   2.544  0.8770 -0.1630  1.4137
  921SOL     OW 2761   1.135   0.065   2.594 -0.0612 -0.5597  0.0584
  921SOL    HW1 2762   1.132   0.028   2.498 -0.3601  0.3765  2.2020
  921SOL    HW2 2763   1.038   0.074   2.636 -3.3094 -1.6759  1.9758
  922SOL     OW 2764   2.196   2.450   2.799  0.2161 -0.1779 -0.2824
  922SOL    HW1 2765   2.187   2.359   2.843 -1.3786 -3.1965 -0.7922
  922SOL    HW2 2766   2.137   2.462   2.713  1.6029  2.4032 -0.0738
  923SOL     OW 2767   1.185   2.738   0.283 -0.0793  0.1303  0.0430
  923SOL    HW1 2768   1.255   2.778   0.348 -0.3398  0.9503 -1.7518
  923SOL    HW2 2769   1.207   2.641   0.266  3.0549  2.2208  0.2539
  924SOL     OW 2770   2.944   1.695   0.157 -0.0889  0.1449  0.2004
  924SOL    HW1 2771   2.856   1.667   0.111 -0.9151 -1.5951  0.7833
  924SOL    HW2 2772   3.015   1.616   0.169  0.8329 -2.4303  1.1397
  925SOL     OW 2773   0.038   2.852   1.541  0.2365 -0.5249 -0.3385
  925SOL    HW1 2774  -0.024   2.927   1.573  1.5726  0.0718 -2.4139
  925SOL    HW2 2775  -0.012   2.768   1.498 -1.7312 -4.6215 -0.7035
  926SOL     OW 2776   1.272   2.774   1.336  0.0844  0.2281 -0.6324
  926SOL    HW1 2777   1.289   2.779   1.235 -0.1931  0.7669  0.9080
  926SOL    HW2 2778   1.318   2.849   1.391 -1.1018 -2.9078  0.9076
  927SOL     OW 2779   0.366   2.602   1.797  0.3301  0.6561  0.6121
  927SOL    HW1 2780   0.328   2.539   1.720  2.3733 -1.0845  0.3801
  927SOL    HW2 2781   0.344   2.700   1.771  0.2591  0.8933 -1.6046
  928SOL     OW 2782   1.645   2.096   2.234 -0.8503  0.0737  0.0477
  928SOL    HW1 2783   1.668   2.179   2.177 -3.0296  1.0021  1.2591
  928SOL    HW2 2784   1.541   2.079   2.234  0.3620  1.4438  1.3593
  929SOL     OW 2785   2.472   2.500   2.889  0.4579 -0.2389  0.3108
  929SOL    HW1 2786   2.375   2.476   2.869 -2.5644  1.6375  1.9392
  929SOL    HW2 2787   2.533   2.523   2.803 -1.6521 -1.9249 -1.2244
  930SOL     OW 2788   2.144   2.079   1.086  0.4874 -0.2593  0.5757
  930SOL    HW1 2789   2.165   2.041   1.181  1.4352  2.7984  0.6778
  930SOL    HW2 2790   2.161   2.178   1.080  1.9184 -0.5012 -1.5423
  931SOL     OW 2791   0.463   1.620   2.613 -0.2216  0.5503 -0.2389
  931SOL    HW1 2792   0.494   1.671   2.699  2.3055 -0.6518 -2.1745
  931SOL    HW2 2793   0.547   1.577   2.571  0.2365  2.2088  0.9413
  932SOL     OW 2794   0.360   0.060   0.011 -0.0251 -0.1901  0.3700
  932SOL    HW1 2795   0.401   0.140  -0.037 -0.3192 -2.3432  2.1942
  932SOL    HW2 2796   0.428  -0.016   0.007  1.9590  0.6829  2.1830
  933SOL     OW 2797   1.022   0.823   3.034 -0.1406 -0.0820  0.6304
  933SOL    HW1 2798   1.086   0.881   3.089  0.2323  0.2353  2.2814
  933SOL    HW2 2799   0.928   0.859   3.046  1.2216  1.4052 -0.3498
  934SOL     OW 2800   0.893   2.968   2.627 -0.0930  0.6345  0.1152
  934SOL    HW1 2801   0.862   2.902   2.552  0.3232 -1.8270 -1.3545
  934SOL    HW2 2802   0.928   2.911   2.713 -1.5862 -0.8566  1.1020
  935SOL     OW 2803   0.034   0.571   0.785  0.5583 -0.3872  0.5847
  935SOL    HW1 2804  -0.003   0.507   0.711 -3.2884 -3.4890 -1.3239
  935SOL    HW2 2805  -0.030   0.645   0.811  1.3779 -1.1726  0.6667
  936SOL     OW 2806   1.114   2.891   0.076 -0.1283  0.2030 -0.6233
  936SOL    HW1 2807   1.191   2.921   0.013  0.8363 -1.1561 -0.3646
  936SOL    HW2 2808   1.152   2.842   0.162  0.4731  1.2975 -0.2078
  937SOL     OW 2809   1.949   2.599   2.081 -0.4366  0.4504 -0.1595
  937SOL    HW1 2810   1.935   2.632   2.179  1.0332  1.0178  1.9527
  937SOL    HW2 2811   1.961   2.676   2.013 -0.3050 -1.5762  0.6965
  938SOL     OW 2812   2.756   2.117   1.558 -0.2851 -0.0241  0.0113
  938SOL    HW1 2813   2.716   2.210   1.566  0.0345  1.1943  1.0488
  938SOL    HW2 2814   2.852   2.112   1.590 -1.1982  1.9133 -0.5630
  939SOL     OW 2815   2.821   1.139   2.489 -0.0409 -0.4418 -0.3614
  939SOL    HW1 2816   2.917   1.134   2.452 -0.0832 -1.8290 -0.4666
  939SOL    HW2 2817   2.824   1.101   2.587 -1.1058  1.7672 -0.4380
  940SOL     OW 2818   1.080   0.456   2.747  0.6787 -0.0776  0.5299
  940SOL    HW1 2819   1.162   0.398   2.726 -2.7350 -0.6450  2.4531
  940SOL    HW2 2820   1.005   0.440   2.677  1.8131 -0.3420 -2.1368
  941SOL     OW 2821   0.083   2.817   2.282  0.3373  0.0537 -0.0966
  941SOL    HW1 2822   0.112   2.727   2.243  0.0106  0.8458 -1.4228
  941SOL    HW2 2823   0.156   2.883   2.313 -2.4177 -0.1149  0.4561
  942SOL     OW 2824   0.102   0.074   2.441 -0.2264  0.1905  0.0797
  942SOL    HW1 2825   0.136   0.074   2.540  2.2448 -1.5623  1.9859
  942SOL    HW2 2826   0.102   0.172   2.402 -0.6958  0.7117 -0.2260
  943SOL     OW 2827   2.142   1.703   2.340 -0.5274  0.0094  0.1352
  943SOL    HW1 2828   2.101   1.642   2.265  0.6585  2.4580  2.3592
  943SOL    HW2 2829   2.155   1.648   2.426  0.9044  1.4392  0.3721
  944SOL     OW 2830   2.178   2.341   1.573 -0.3675  0.8535  0.0262
  944SOL    HW1 2831   2.235   2.340   1.659  2.5747  0.2920 -1.0827
  944SOL    HW2 2832   2.103   2.264   1.578 -1.6293  0.6676 -1.6441
  945SOL     OW 2833   0.695   1.637   0.149  0.9094 -0.1081 -0.4728
  945SOL    HW1 2834   0.627   1.621   0.068 -0.3524  0.8096  0.1197
  945SOL    HW2 2835   0.726   1.549   0.192 -0.4275  0.3026 -0.3233
  946SOL     OW 2836   0.337   1.009   2.616 -0.3257  0.4419 -0.2776
  946SOL    HW1 2837   0.326   0.935   2.545  0.5048 -0.3827  0.1964
  946SOL    HW2 2838   0.393   1.084   2.571 -1.2247  1.4310 -1.3699
  947SOL     OW 2839   1.475   0.524   3.038 -0.0401 -0.1763  0.0614
  947SOL    HW1 2840   1.470   0.596   2.963  1.2320 -1.0563  0.9105
  947SOL    HW2 2841   1.382   0.492   3.072  1.3857 -1.9243 -1.2158
  948SOL     OW 2842   1.945   2.924   2.170 -0.3180 -0.8866  0.1091
  948SOL    HW1 2843   1.917   2.912   2.074 -0.1706 -1.0220 -0.6141
  948SOL    HW2 2844   1.950   2.834   2.220  0.9636  1.4602 -0.0360
  949SOL     OW 2845   0.577   2.480   0.431 -0.0788 -0.3359  0.7059
  949SOL    HW1 2846   0.607   2.571   0.390  2.0261  0.4726 -3.4001
  949SOL    HW2 2847   0.596   2.466   0.532  0.2897  1.9563 -0.7250
  950SOL     OW 2848   0.174   2.245   2.924 -0.4348 -0.3065 -0.0739
  950SOL    HW1 2849   0.174   2.343   2.880  1.3056 -1.6050  1.8810
  950SOL    HW2 2850   0.153   2.169   2.859 -0.1756 -2.6426  1.1132
  951SOL     OW 2851   1.225   2.670   2.801  0.1700  0.3382 -0.6151
  951SOL    HW1 2852   1.293   2.603   2.844  0.9121 -2.6802  0.4492
  951SOL    HW2 2853   1.262   2.713   2.716 -0.2535 -1.6598  1.2092
  952SOL     OW 2854   0.036   1.625   0.431  0.1991 -0.0833 -0.4077
  952SOL    HW1 2855   0.068   1.709   0.484 -0.1473 -0.9735  2.8615
  952SOL    HW2 2856   0.060   1.534   0.476 -0.8394  3.0999  1.6632
  953SOL     OW 2857   2.509   1.737   0.291  0.4090  0.1436 -0.2301
  953SOL    HW1 2858   2.485   1.634   0.301 -0.5950 -0.7028 -0.4777
  953SOL    HW2 2859   2.465   1.779   0.209  3.6056 -0.9584  2.1965
  954SOL     OW 2860   2.215   0.530   0.932  0.3565  0.2940 -0.4124
  954SOL    HW1 2861   2.220   0.531   0.827 -0.9790  1.1078  0.4692
  954SOL    HW2 2862   2.310   0.524   0.978 -0.4279  0.0507  4.8744
  955SOL     OW 2863   0.180   2.600   1.388  0.1020  0.2769  0.1330
  955SOL    HW1 2864   0.073   2.598   1.393 -1.2175  2.5716  0.7136
  955SOL    HW2 2865   0.223   2.695   1.376 -0.1099 -0.8586 -0.0696
  956SOL     OW 2866   2.806   2.490   2.502 -0.1464  0.2947 -0.0746
  956SOL    HW1 2867   2.826   2.387   2.500 -0.5428 -1.4461 -1.2317
  956SOL    HW2 2868   2.833   2.543   2.419  0.7018 -1.7195 -0.3533
  957SOL     OW 2869   1.621   2.073   2.751  0.3825  0.2797 -0.2380
  957SOL    HW1 2870   1.600   1.989   2.806 -0.6755  1.9411  0.3309
  957SOL    HW2 2871   1.685   2.044   2.671  1.4104  0.3286  0.0828
  958SOL     OW 2872   2.619   2.289   3.006  0.3065  0.5944 -1.2638
  958SOL    HW1 2873   2.543   2.352   2.985  3.5108  0.1914 -0.4603
  958SOL    HW2 2874   2.599   2.238   3.096  0.6819  0.8787  1.2303
  959SOL     OW 2875   0.399   2.808   0.145 -0.0562 -0.1391  0.2794
  959SOL    HW1 2876   0.315   2.862   0.167  1.6113 -1.0155 -0.8626
  959SOL    HW2 2877   0.390   2.708   0.163 -1.8083 -1.7803  1.8938
  960SOL     OW 2878   1.912   0.495   1.926  0.1933 -0.3920 -0.3968
  960SOL    HW1 2879   1.875   0.585   1.885  3.3636 -0.6098 -1.0333
  960SOL    HW2 2880   1.927   0.503   2.031  1.6578 -0.9061  1.1354
  961SOL     OW 2881   2.525   1.886   1.058  0.1645 -0.2776 -0.1862
  961SOL    HW1 2882   2.514   1.978   1.009  0.7273 -0.7927 -1.4020
  961SOL    HW2 2883   2.509   1.887   1.160  0.4855 -0.2375 -1.7833
  962SOL     OW 2884   1.306   0.879   0.041 -0.3199 -0.6155  0.1197
  962SOL    HW1 2885   1.300   0.921  -0.057  1.8080 -1.0463  0.8165
  962SOL    HW2 2886   1.286   0.948   0.113 -0.1844 -2.2505 -2.7341
  963SOL     OW 2887   2.320   2.579   1.810 -0.1828 -0.0190 -0.2615
  963SOL    HW1 2888   2.282   2.482   1.833 -0.3966 -0.6773  0.2267
  963SOL    HW2 2889   2.341   2.632   1.896 -1.9525  0.0305 -2.1933
  964SOL     OW 2890   2.377   0.403   1.666 -0.4097 -0.9856  0.4745
  964SOL    HW1 2891   2.473   0.384   1.710 -0.7990  0.3724  1.3235
  964SOL    HW2 2892   2.381   0.399   1.557  1.6078  1.0467 -1.9508
  965SOL     OW 2893   2.604   3.013   0.191 -0.7395 -0.1293  0.2994
  965SOL    HW1 2894   2.676   3.012   0.115  1.2180 -0.6192  0.9558
  965SOL    HW2 2895   2.508   3.031   0.155 -1.4011 -0.0460  0.0016
  966SOL     OW 2896   2.470   2.494   2.256  0.2021 -0.4362  0.2072
  966SOL    HW1 2897   2.492   2.575   2.196  2.0113  1.8226 -0.1802
  966SOL    HW2 2898   2.367   2.483   2.273  0.1358  1.1366  0.7384
  967SOL     OW 2899   2.743   2.865   2.454  0.1915  0.6808  0.0961
  967SOL    HW1 2900   2.758   2.770   2.426 -2.5729  0.9441 -1.9161
  967SOL    HW2 2901   2.830   2.911   2.489  2.8604 -0.4561 -1.4912
  968SOL     OW 2902   1.973   1.068   2.600 -0.1070  0.1278  0.2595
  968SOL    HW1 2903   1.884   1.120   2.590 -0.2227 -2.6998  0.3497
  968SOL    HW2 2904   1.971   0.977   2.554 -2.7159  1.9728  3.3540
  969SOL     OW 2905   2.791   2.561   1.081  0.9150  0.1413  0.7799
  969SOL    HW1 2906   2.754   2.655   1.054 -1.3542  0.4898 -0.2132
  969SOL    HW2 2907   2.774   2.492   1.008 -1.7664  0.4112  2.7791
  970SOL     OW 2908   1.095   2.099   1.841  1.1717 -0.3764  0.0676
  970SOL    HW1 2909   1.122   2.005   1.873 -0.5101  2.0607  0.8867
  970SOL    HW2 2910   1.014   2.093   1.775  2.0403 -1.3654 -1.3692
  971SOL     OW 2911   2.891   2.171   1.940 -0.3655 -0.1504 -0.1062
  971SOL    HW1 2912   2.921   2.264   1.978  1.4121  0.3504 -0.0958
  971SOL    HW2 2913   2.956   2.130   1.868 -0.1188 -0.1863 -0.7800
  972SOL     OW 2914   1.919   2.448   0.240  0.5218  0.0869  0.0562
  972SOL    HW1 2915   1.971   2.369   0.202  3.0794 -0.8731 -0.4133
  972SOL    HW2 2916   1.913   2.430   0.345 -1.0845 -3.3401 -1.8463
  973SOL     OW 2917   1.134   0.904   1.886 -0.5579 -0.5254 -0.1225
  973SOL    HW1 2918   1.090   0.811   1.883  1.2481  0.0430  0.6479
  973SOL    HW2 2919   1.075   0.967   1.828 -0.4830  1.4463 -0.2052
  974SOL     OW 2920   1.595   0.562   1.982 -0.0830 -0.0709  0.5916
  974SOL    HW1 2921   1.675   0.608   1.937 -1.4739  0.1933 -0.0973
  974SOL    HW2 2922   1.510   0.621   1.979  1.6109 -0.3701 -0.0454
  975SOL     OW 2923   2.379   3.032   0.023  0.5047  0.0915 -0.5466
  975SOL    HW1 2924   2.312   2.956   0.042 -0.5308  0.8444  2.2002
  975SOL    HW2 2925   2.456   2.995  -0.040  0.7650 -0.5854 -0.4879
  976SOL     OW 2926   1.934   2.704   2.345  0.2880 -0.1548  0.0332
  976SOL    HW1 2927   1.853   2.653   2.383  0.9302 -0.3792 -0.5038
  976SOL    HW2 2928   1.990   2.741   2.422  2.6592 -1.2156 -2.8389
  977SOL     OW 2929   0.456   0.676   1.009 -0.5722  0.1407  0.1465
  977SOL    HW1 2930   0.378   0.668   0.946  1.5876  0.5529  2.5406
  977SOL    HW2 2931   0.498   0.769   1.002 -0.2372 -0.3277 -0.8877
   3.10000   3.10000   3.10000
