1000 SPC/Fw water molecules t=   0.39000 step= 390
 2931
    1SOL     OW    1   2.534   0.305   2.581 -0.1977 -0.2220  1.4549
    1SOL    HW1    2   2.550   0.205   2.560  3.1043  0.0232 -0.4657
    1SOL    HW2    3   2.571   0.338   2.670 -1.2632  2.0435 -1.0098
    2SOL     OW    4   2.702   3.044   1.431  0.2287  0.9123  0.7614
    2SOL    HW1    5   2.767   3.115   1.388 -0.5347  3.9564  0.8625
    2SOL    HW2    6   2.629   3.094   1.483 -1.7528  0.8148  3.0443
    3SOL     OW    7   2.732   2.590   0.400  0.5256  0.4984 -0.4851
    3SOL    HW1    8   2.693   2.493   0.396  1.5671 -0.9557 -0.2265
    3SOL    HW2    9   2.782   2.601   0.491  1.8162 -2.7298  1.3064
    4SOL     OW   10   1.342   1.474   2.371 -0.2620  0.1552 -0.4342
    4SOL    HW1   11   1.255   1.498   2.328  1.9150  1.0854 -2.1277
    4SOL    HW2   12   1.342   1.384   2.422 -0.8135 -0.2002  0.5368
    5SOL     OW   13   1.201   1.494   3.025 -0.4300  0.2588  0.4661
    5SOL    HW1   14   1.256   1.546   3.100  1.2950 -1.1855 -0.4722
    5SOL    HW2   15   1.104   1.528   3.016  0.7586  0.1234  0.3031
    6SOL     OW   16   0.020   1.778   2.885  0.5110 -0.0774 -0.2265
    6SOL    HW1   17   0.007   1.822   2.978  1.2904 -1.1316  1.5625
    6SOL    HW2   18   0.023   1.671   2.886 -0.6270 -2.1668  2.7211
    7SOL     OW   19   2.553   0.886   1.143  0.1044  0.0490  0.5650
    7SOL    HW1   20   2.446   0.887   1.153  0.4344  0.3358 -0.5888
    7SOL    HW2   21   2.587   0.923   1.052 -1.3918 -0.1870 -3.5394
    8SOL     OW   22   0.405   0.637   1.547 -0.3947  0.0888 -0.1964
    8SOL    HW1   23   0.498   0.587   1.562  0.8158  0.3193  0.1596
    8SOL    HW2   24   0.357   0.600   1.460 -0.3196  1.3239  0.5837
    9SOL     OW   25   1.162   0.969   2.258 -0.2121 -0.0458 -0.2515
    9SOL    HW1   26   1.209   1.052   2.222 -2.6943 -0.3315 -0.0723
    9SOL    HW2   27   1.094   0.931   2.184 -2.4899 -0.9973 -3.6252
   10SOL     OW   28   0.735   1.346   1.249 -0.7125  0.3516  0.4228
   10SOL    HW1   29   0.643   1.378   1.202  0.7995  3.6572 -0.7631
   10SOL    HW2   30   0.808   1.415   1.256 -0.7125  0.1842  0.1387
   11SOL     OW   31   2.345   2.650   0.959  0.2918  0.4070  0.2456
   11SOL    HW1   32   2.327   2.673   1.056 -0.7899  1.5504  1.1837
   11SOL    HW2   33   2.443   2.647   0.927 -0.8668  1.9662  2.0331
   12SOL     OW   34   1.444   0.923   0.409 -0.1121  0.3377 -0.3514
   12SOL    HW1   35   1.368   0.973   0.358 -1.3940  0.7452  0.4939
   12SOL    HW2   36   1.406   0.836   0.450 -0.2581 -0.8804 -2.7877
   13SOL     OW   37   2.522   0.668   1.842  0.2722  0.3404 -0.3330
   13SOL    HW1   38   2.437   0.645   1.899  0.5028 -1.3829  0.6202
   13SOL    HW2   39   2.505   0.638   1.746 -0.8848  0.4471 -0.6823
   14SOL     OW   40   1.956   0.028   0.661  1.0316  0.2524  0.6645
   14SOL    HW1   41   1.869   0.071   0.619  1.0344  2.5707  0.4155
   14SOL    HW2   42   1.932  -0.056   0.722  1.8187 -1.9846  1.7234
   15SOL     OW   43   1.946   2.017   2.853 -0.2396  0.2780  0.0452
   15SOL    HW1   44   1.909   2.114   2.870 -0.5693 -0.2327  1.9263
   15SOL    HW2   45   1.914   1.977   2.763 -0.1672  0.1882 -1.6172
   16SOL     OW   46   1.616   1.743  -0.001  0.1117 -0.2242 -0.1174
   16SOL    HW1   47   1.627   1.641  -0.021  1.0497 -1.1078  3.2295
   16SOL    HW2   48   1.695   1.781   0.053 -1.0816  2.7884  1.2417
   17SOL     OW   49   0.099   0.480   0.169 -0.5569  0.3340 -0.8879
   17SOL    HW1   50   0.154   0.477   0.082 -0.6288  1.1124 -0.8360
   17SOL    HW2   51   0.000   0.498   0.144  0.0435  1.9010  1.1708
   18SOL     OW   52   0.976   2.901   2.183  0.3439 -0.3199 -0.5017
   18SOL    HW1   53   0.889   2.849   2.169 -1.2251 -0.9722  0.9525
   18SOL    HW2   54   1.056   2.860   2.132 -2.6149  1.7314  0.0792
   19SOL     OW   55   0.508   0.873   1.964  0.3562 -0.3297 -0.3927
   19SOL    HW1   56   0.502   0.972   1.991  2.5302 -2.0941 -1.9840
   19SOL    HW2   57   0.601   0.835   1.948 -1.5337 -3.7301  0.8883
   20SOL     OW   58   0.202   2.802   0.814 -0.9254 -0.0937  0.1778
   20SOL    HW1   59   0.128   2.875   0.784  0.6107 -0.3074 -2.2687
   20SOL    HW2   60   0.262   2.776   0.731  2.6102  2.4134  0.7495
   21SOL     OW   61   2.771   0.192   2.152  0.5638 -0.7143  0.3059
   21SOL    HW1   62   2.721   0.135   2.082  2.2674 -0.3361  0.2530
   21SOL    HW2   63   2.810   0.136   2.228  0.2272 -0.2847 -1.3895
   22SOL     OW   64   2.308   0.223   0.004  0.0934  0.6519  0.1167
   22SOL    HW1   65   2.322   0.121  -0.013  0.6214 -1.1752 -1.5431
   22SOL    HW2   66   2.209   0.249  -0.006  1.7419 -0.9792  1.3056
   23SOL     OW   67   2.812   0.652   0.665  0.0277 -0.3139  0.0781
   23SOL    HW1   68   2.791   0.556   0.629 -0.3790 -1.2007 -4.0286
   23SOL    HW2   69   2.773   0.728   0.607  0.2751 -1.4709 -0.3873
   24SOL     OW   70   0.152   1.904   0.449 -0.5894  0.6321  0.1429
   24SOL    HW1   71   0.058   1.881   0.413  0.7087  1.2870 -1.6630
   24SOL    HW2   72   0.224   1.949   0.388 -1.2486 -1.7420 -1.3920
   25SOL     OW   73   2.254   0.476   0.197  0.2358  0.3614  0.5699
   25SOL    HW1   74   2.326   0.406   0.223 -2.0555  0.6869 -2.4401
   25SOL    HW2   75   2.229   0.477   0.097  2.0424 -3.1395 -1.8983
   26SOL     OW   76   2.484   2.186   2.099 -0.5347 -0.2523  0.0361
   26SOL    HW1   77   2.556   2.255   2.124  0.6225  1.5445 -0.3109
   26SOL    HW2   78   2.529   2.110   2.042 -0.5930  0.4361  2.0568
   27SOL     OW   79   0.668   2.960   0.102 -0.4364  0.6967  0.0267
   27SOL    HW1   80   0.763   2.982   0.138 -1.2349  1.3702  0.2814
   27SOL    HW2   81   0.631   3.024   0.032  1.1529 -0.1447  0.5459
   28SOL     OW   82   1.560   0.164   0.279 -0.2245  0.4096  0.1902
   28SOL    HW1   83   1.599   0.131   0.189  1.3497  0.6236 -0.6603
   28SOL    HW2   84   1.580   0.265   0.300 -0.8178 -0.3738 -2.1799
   29SOL     OW   85   2.048   0.569   0.334 -0.1868 -1.1700  0.5000
   29SOL    HW1   86   2.019   0.669   0.355 -1.5498  2.0952  1.2191
   29SOL    HW2   87   2.143   0.551   0.307 -1.8314 -1.3438  0.0637
   30SOL     OW   88   0.126   2.017   0.941  0.2144  0.0477 -0.2914
   30SOL    HW1   89   0.120   2.018   0.836 -4.4622  0.5133  1.2731
   30SOL    HW2   90   0.052   2.088   0.972 -0.8288  0.3715 -0.3234
   31SOL     OW   91   2.104   0.006   2.309 -0.1455  0.1506 -0.1432
   31SOL    HW1   92   2.108  -0.001   2.414 -1.8573 -0.1276  1.3546
   31SOL    HW2   93   2.016  -0.038   2.277 -1.5361  0.4200  0.5936
   32SOL     OW   94   2.903   0.184   0.149  0.5185  0.0994  0.2962
   32SOL    HW1   95   2.880   0.091   0.187 -1.2345  3.0515 -0.1414
   32SOL    HW2   96   2.989   0.224   0.191  1.1325  1.5585  0.6682
   33SOL     OW   97   0.947   0.326   0.486 -0.4282  0.2548  0.2980
   33SOL    HW1   98   0.905   0.231   0.463 -0.8262 -0.5098  1.0190
   33SOL    HW2   99   1.008   0.334   0.565  0.5834  1.8219  1.2314
   34SOL     OW  100   0.400   2.842   1.078 -0.2359 -0.2490 -0.8883
   34SOL    HW1  101   0.354   2.877   0.992 -3.0623  0.2782 -0.8536
   34SOL    HW2  102   0.501   2.820   1.062  1.2805  0.2399 -0.1886
   35SOL     OW  103   0.039   0.065   1.844 -0.3087  0.7070  0.1191
   35SOL    HW1  104   0.096  -0.018   1.858  2.0735  1.3842 -0.8895
   35SOL    HW2  105  -0.019   0.055   1.760  1.0775  1.0015 -1.9207
   36SOL     OW  106   1.933   1.125   1.803  0.1144 -0.2977  0.1286
   36SOL    HW1  107   1.999   1.099   1.733 -0.4565  0.6639  0.1600
   36SOL    HW2  108   1.981   1.196   1.859  0.2759 -0.9392  0.1838
   37SOL     OW  109   1.203   0.245   0.947 -0.0380 -0.3029 -0.2947
   37SOL    HW1  110   1.220   0.322   1.017 -0.7496 -0.3026  0.4777
   37SOL    HW2  111   1.224   0.152   0.993 -0.4317  0.7326 -0.2881
   38SOL     OW  112   1.065   2.688   2.415 -0.2109 -0.0844  0.1256
   38SOL    HW1  113   1.005   2.606   2.432 -1.1631  2.0250 -1.2643
   38SOL    HW2  114   1.006   2.777   2.403 -2.8293  2.0824  1.5288
   39SOL     OW  115   2.306   1.393   3.010  0.2645 -0.2927 -0.0961
   39SOL    HW1  116   2.391   1.338   3.003 -1.5489 -0.1723  1.2984
   39SOL    HW2  117   2.258   1.381   3.104 -0.9322 -1.0170 -2.3242
   40SOL     OW  118   2.095   2.532   2.515 -0.4736 -0.0975  0.1391
   40SOL    HW1  119   2.073   2.631   2.526 -0.2443 -3.6408  1.1792
   40SOL    HW2  120   2.022   2.492   2.453  1.7806  1.7412  2.3628
   41SOL     OW  121   2.922   0.696   2.750 -0.0207  0.0028 -0.0684
   41SOL    HW1  122   2.825   0.738   2.751  1.2448 -1.2037 -1.1923
   41SOL    HW2  123   2.917   0.590   2.761  2.6826  0.1472  1.5622
   42SOL     OW  124   1.770   1.760   0.571 -0.3997  0.3927 -0.2273
   42SOL    HW1  125   1.707   1.680   0.541 -0.1748  0.2627  0.5351
   42SOL    HW2  126   1.829   1.780   0.489 -2.1652 -2.6615 -1.7802
   43SOL     OW  127   0.448   1.756   1.214  0.4020 -0.3305 -0.5759
   43SOL    HW1  128   0.429   1.732   1.314  1.3635 -0.7776 -0.9204
   43SOL    HW2  129   0.366   1.784   1.158 -1.6873 -1.3139 -0.2670
   44SOL     OW  130   1.778   2.549   0.014  0.2281 -0.3405 -0.0719
   44SOL    HW1  131   1.782   2.597  -0.079  0.1217 -1.3662  0.2406
   44SOL    HW2  132   1.867   2.556   0.064 -2.5301 -1.7146 -2.0547
   45SOL     OW  133   0.286   1.919   2.601 -0.1074 -0.3969  0.2921
   45SOL    HW1  134   0.253   1.947   2.505 -0.5970 -2.5071 -1.1107
   45SOL    HW2  135   0.363   1.847   2.594  1.2817 -0.5015  0.0306
   46SOL     OW  136   1.153   0.645   0.238  0.3513  0.5164 -0.0808
   46SOL    HW1  137   1.219   0.679   0.164  1.8972 -0.2374  0.0050
   46SOL    HW2  138   1.055   0.677   0.223 -1.0601 -2.2397  1.7605
   47SOL     OW  139   0.222   2.442   1.596 -0.7537 -0.2098  0.0887
   47SOL    HW1  140   0.304   2.381   1.577  3.7862  0.0986  2.4871
   47SOL    HW2  141   0.181   2.488   1.506  1.6657 -0.9475  0.0247
   48SOL     OW  142   2.584   0.597   0.156  0.3244  0.3697 -0.4627
   48SOL    HW1  143   2.551   0.588   0.255  2.1012  1.3582 -0.3519
   48SOL    HW2  144   2.684   0.604   0.162  3.3756 -1.7279 -3.1075
   49SOL     OW  145   0.357   0.806   1.746  0.1827 -0.1774 -0.1496
   49SOL    HW1  146   0.407   0.800   1.839  1.1663 -1.2487  0.7353
   49SOL    HW2  147   0.387   0.739   1.672  0.8051  1.0243 -0.7139
   50SOL     OW  148   1.704   1.085   0.380 -0.5468 -0.1079 -0.1458
   50SOL    HW1  149   1.682   0.994   0.335  1.5224  2.8176  2.4398
   50SOL    HW2  150   1.646   1.102   0.464 -1.2654  0.0250 -1.9012
   51SOL     OW  151   3.000   1.886   0.341 -0.3523  0.1525 -0.2399
   51SOL    HW1  152   2.977   1.922   0.248 -0.6460 -0.0411 -1.8463
   51SOL    HW2  153   3.001   1.785   0.346  0.9908 -0.3633 -1.7055
   52SOL     OW  154   0.792   1.975   0.490 -0.1324 -0.2092  0.0696
   52SOL    HW1  155   0.713   2.030   0.536 -0.2854 -0.4014  1.4788
   52SOL    HW2  156   0.818   1.888   0.536 -0.5092 -0.3177 -1.9634
   53SOL     OW  157   3.101   0.357   1.560 -0.6967  0.2325 -0.0413
   53SOL    HW1  158   3.039   0.333   1.639  0.9788  0.3511  2.7648
   53SOL    HW2  159   3.081   0.446   1.511 -0.0355 -3.7909 -0.8255
   54SOL     OW  160   1.752   0.481   3.051 -0.5295  0.3157  0.1765
   54SOL    HW1  161   1.773   0.424   3.132  0.6339 -1.9956  0.2624
   54SOL    HW2  162   1.654   0.497   3.044  1.4227  0.0876  0.8385
   55SOL     OW  163   0.720   2.960   0.572  0.2859 -0.9268 -0.2299
   55SOL    HW1  164   0.712   3.059   0.606 -0.0968  1.0683 -1.5059
   55SOL    HW2  165   0.812   2.938   0.536  3.1040  2.9369  3.0852
   56SOL     OW  166   0.457   1.569   3.014 -0.1794  0.1371  0.2862
   56SOL    HW1  167   0.374   1.607   3.060  1.3658 -2.0317 -0.8053
   56SOL    HW2  168   0.443   1.467   2.979 -1.6567 -1.4320 -0.8183
   57SOL     OW  169   1.809   2.426   2.683  0.4661  0.3200  0.2606
   57SOL    HW1  170   1.859   2.411   2.593 -1.4086  1.4907 -1.1762
   57SOL    HW2  171   1.715   2.467   2.665 -0.6113 -0.3809 -0.0385
   58SOL     OW  172   0.637   0.424   1.124  0.3359  0.0095 -0.2288
   58SOL    HW1  173   0.567   0.505   1.101 -0.4703  0.4421 -0.4567
   58SOL    HW2  174   0.581   0.335   1.114  2.2978 -2.0618 -2.0675
   59SOL     OW  175   0.438   2.405   2.725  0.0214 -0.5333  0.3355
   59SOL    HW1  176   0.439   2.304   2.707  0.6583  2.8366 -1.5982
   59SOL    HW2  177   0.527   2.444   2.762  1.2441 -0.6198  0.1939
   60SOL     OW  178   2.295   2.111   2.275  0.3954 -0.0662 -0.3926
   60SOL    HW1  179   2.360   2.156   2.205 -0.0353 -0.3536 -2.3507
   60SOL    HW2  180   2.325   2.126   2.374 -2.0709  0.3973 -0.4305
   61SOL     OW  181   1.380   0.642   0.510 -0.7390  0.1305 -0.0652
   61SOL    HW1  182   1.286   0.678   0.533  1.4306  4.1776  0.8927
   61SOL    HW2  183   1.395   0.616   0.413 -2.4039  0.4151 -1.0489
   62SOL     OW  184   2.647   1.824   3.027  0.4573  0.0914 -0.9809
   62SOL    HW1  185   2.630   1.730   3.073 -0.7881 -0.7422 -1.1690
   62SOL    HW2  186   2.701   1.823   2.940 -0.9123 -2.9095  2.0146
   63SOL     OW  187   0.504   0.865   0.169 -0.6089  0.4090  0.1425
   63SOL    HW1  188   0.477   0.955   0.122  0.3293  1.6280  0.8664
   63SOL    HW2  189   0.583   0.888   0.235  1.6900  0.6220 -1.5413
   64SOL     OW  190   0.091   0.507   2.524 -0.7013  0.8337  0.0824
   64SOL    HW1  191   0.039   0.521   2.610 -0.1774 -0.1166 -2.3984
   64SOL    HW2  192   0.072   0.586   2.453 -0.4602  1.1646  3.5328
   65SOL     OW  193   0.185   1.475   0.629 -0.5426 -0.2222 -0.0817
   65SOL    HW1  194   0.161   1.556   0.691  1.0231  0.4208  0.8471
   65SOL    HW2  195   0.283   1.462   0.607  1.2509  2.2224 -2.0982
   66SOL     OW  196   2.522   0.422   0.658  0.1590  0.0877 -0.5396
   66SOL    HW1  197   2.441   0.477   0.694 -0.7155  1.2800  0.8272
   66SOL    HW2  198   2.503   0.320   0.655  1.9513  2.8180  3.8542
   67SOL     OW  199   0.496   2.504   1.402  0.3181 -0.4789  0.7796
   67SOL    HW1  200   0.576   2.464   1.457 -1.0855 -0.3596  2.3939
   67SOL    HW2  201   0.451   2.433   1.340 -1.8828 -1.1670 -0.6437
   68SOL     OW  202   1.032   1.098   2.481 -0.7017  0.0649 -0.1814
   68SOL    HW1  203   1.082   1.033   2.418  1.2648 -1.3193  1.9135
   68SOL    HW2  204   0.937   1.106   2.443 -2.0871 -1.5363  2.4802
   69SOL     OW  205   0.757   2.739   2.143 -0.1084  0.5054  0.3212
   69SOL    HW1  206   0.765   2.641   2.175  1.5427  2.0324  1.7693
   69SOL    HW2  207   0.665   2.779   2.153 -4.1398  1.0555  2.4053
   70SOL     OW  208   0.654   0.274   2.749 -0.1412  0.2564 -0.0508
   70SOL    HW1  209   0.665   0.323   2.836  1.0122 -0.1937  0.0096
   70SOL    HW2  210   0.609   0.184   2.766  0.0828 -0.7057 -0.2426
   71SOL     OW  211   1.129   1.796   0.339 -0.0860 -0.1489 -0.0896
   71SOL    HW1  212   1.070   1.713   0.359 -1.4066  2.1516  1.5954
   71SOL    HW2  213   1.141   1.806   0.236 -0.1356  1.3010 -2.2465
   72SOL     OW  214   1.814   0.164   2.068 -0.3284  0.1221 -0.7867
   72SOL    HW1  215   1.872   0.170   1.979 -0.0148 -0.6082  0.7959
   72SOL    HW2  216   1.840   0.079   2.117  1.2538  2.2342 -1.9185
   73SOL     OW  217   2.744   2.218   2.522  0.1369 -0.1119  0.4019
   73SOL    HW1  218   2.746   2.123   2.479 -2.9984 -6.1250 -0.1118
   73SOL    HW2  219   2.795   2.216   2.613 -3.2927  0.6360  1.8251
   74SOL     OW  220   2.740   2.966   2.020 -0.1621  0.2117 -0.2441
   74SOL    HW1  221   2.667   2.984   2.096  1.8382  1.4556 -1.5518
   74SOL    HW2  222   2.837   2.987   2.055  0.3393  1.0228 -0.2332
   75SOL     OW  223   0.911   0.750   1.033 -0.0626  0.3679 -0.0019
   75SOL    HW1  224   0.823   0.799   0.994  1.0032 -0.5428  0.4416
   75SOL    HW2  225   0.940   0.795   1.125  1.6878  1.3630  1.6464
   76SOL     OW  226   1.745   1.240   2.586 -0.1070 -0.1827 -0.5380
   76SOL    HW1  227   1.649   1.210   2.559  2.0734  1.3070  0.1006
   76SOL    HW2  228   1.740   1.325   2.640  0.5484 -2.3318  2.7150
   77SOL     OW  229   2.930   0.983   0.997  0.0101 -0.2727  0.1755
   77SOL    HW1  230   2.940   0.883   0.972 -3.1847 -1.6115 -2.7978
   77SOL    HW2  231   2.984   1.020   1.076 -1.5299  0.0650  0.0581
   78SOL     OW  232   1.978   1.415   1.509  0.6327  0.3217 -0.3179
   78SOL    HW1  233   2.077   1.441   1.491  2.3278 -0.3340  0.5945
   78SOL    HW2  234   1.929   1.363   1.432  1.1293 -0.7445 -3.9276
   79SOL     OW  235   0.600   1.355   0.826 -0.3811 -0.2459  0.2921
   79SOL    HW1  236   0.515   1.394   0.868  0.9681 -1.3551 -1.1852
   79SOL    HW2  237   0.578   1.301   0.740  0.2836  0.1849 -0.4039
   80SOL     OW  238   0.650   0.492   1.583  0.0950 -0.2910 -0.0829
   80SOL    HW1  239   0.716   0.556   1.529  1.0166 -0.3154 -0.2472
   80SOL    HW2  240   0.686   0.394   1.592 -0.6094 -0.0343 -1.0154
   81SOL     OW  241   0.992   1.363   2.613  0.2400  0.2813 -0.3402
   81SOL    HW1  242   1.063   1.291   2.595  1.5578 -2.7766  0.4216
   81SOL    HW2  243   0.949   1.401   2.530  0.7806 -1.1300  2.0836
   82SOL     OW  244   0.968   2.962   1.536  0.1997 -0.0926 -0.4970
   82SOL    HW1  245   1.037   2.928   1.470  0.3078 -0.8782  0.6579
   82SOL    HW2  246   0.884   2.907   1.536  2.2374  0.4386 -0.4082
   83SOL     OW  247   2.701   2.464   0.781 -0.5217 -0.6622  0.1292
   83SOL    HW1  248   2.648   2.384   0.737  1.0765 -2.2536  2.2119
   83SOL    HW2  249   2.668   2.560   0.750 -2.1799  2.1765 -1.9677
   84SOL     OW  250   0.697   3.091   2.389  0.5984 -0.2930 -0.7117
   84SOL    HW1  251   0.625   3.019   2.418  2.1857 -2.2847  1.9753
   84SOL    HW2  252   0.794   3.076   2.429 -1.2115  3.5539  0.8037
   85SOL     OW  253   0.423   1.680   1.526 -0.4832 -0.2269  0.1988
   85SOL    HW1  254   0.340   1.740   1.504 -1.5591  1.0519  1.9068
   85SOL    HW2  255   0.417   1.641   1.620 -1.5104  0.3549  1.9817
   86SOL     OW  256   0.364   0.988   1.508  0.0441 -0.0634  0.4820
   86SOL    HW1  257   0.350   0.931   1.421  0.5989 -1.0519 -0.4994
   86SOL    HW2  258   0.376   0.927   1.593  0.3286 -1.7932  0.3305
   87SOL     OW  259   1.526   0.640   0.242  0.2846  0.4793  0.5295
   87SOL    HW1  260   1.601   0.708   0.273  0.0129 -0.7235  1.6880
   87SOL    HW2  261   1.518   0.627   0.138 -1.3479 -1.5024 -0.8731
   88SOL     OW  262   1.569   1.312   0.190  0.1470  0.3313 -0.0991
   88SOL    HW1  263   1.612   1.232   0.239 -0.5384  2.3098  1.2119
   88SOL    HW2  264   1.469   1.340   0.217 -0.0687  0.3935  3.0333
   89SOL     OW  265   0.006   0.447   0.551  1.2586  0.4430  0.0395
   89SOL    HW1  266   0.066   0.364   0.565  0.5446  1.5719 -1.1458
   89SOL    HW2  267  -0.096   0.423   0.544 -1.4861 -2.6560 -1.1252
   90SOL     OW  268   0.952   1.627   3.013 -0.0454 -0.4857 -0.0600
   90SOL    HW1  269   0.867   1.596   3.062  0.1450  0.1228 -0.7466
   90SOL    HW2  270   0.928   1.653   2.915 -1.4864 -2.3148  0.9981
   91SOL     OW  271   1.265   1.486   1.787  0.0780 -0.0607 -0.0742
   91SOL    HW1  272   1.278   1.556   1.865 -1.3386 -1.7890 -1.1425
   91SOL    HW2  273   1.354   1.447   1.746  1.0398 -1.5445  0.2457
   92SOL     OW  274   3.057   1.037   1.207 -0.2382 -0.2308  0.2895
   92SOL    HW1  275   3.140   1.096   1.184 -0.7684  0.4807  0.7459
   92SOL    HW2  276   3.083   0.981   1.291  0.6174 -0.2073  1.6455
   93SOL     OW  277   3.096   2.743   0.062 -0.2937  0.1987  0.0454
   93SOL    HW1  278   3.076   2.764  -0.039  0.1514 -0.1650  1.2012
   93SOL    HW2  279   3.153   2.657   0.064 -3.2409  2.1896  1.2239
   94SOL     OW  280   1.534   1.399   1.696  0.0441  0.6617  0.2726
   94SOL    HW1  281   1.593   1.317   1.692 -1.2868  0.2552  0.1753
   94SOL    HW2  282   1.582   1.488   1.729 -0.7226  1.2825  0.4282
   95SOL     OW  283   1.300   2.491   2.973 -0.3002  0.6272  0.6495
   95SOL    HW1  284   1.239   2.478   3.051  2.0130 -1.1415  0.1914
   95SOL    HW2  285   1.324   2.402   2.931  0.2048  0.8500 -0.5995
   96SOL     OW  286   0.576   2.007   1.189  0.2510  0.8616 -0.5439
   96SOL    HW1  287   0.535   2.043   1.102  3.0768 -2.9234 -0.7346
   96SOL    HW2  288   0.557   1.909   1.208  1.5714  2.5324 -0.0453
   97SOL     OW  289   0.376   1.513   2.532  0.0578  0.8231  0.1677
   97SOL    HW1  290   0.272   1.514   2.537 -1.2289  1.3545 -1.3021
   97SOL    HW2  291   0.428   1.593   2.573 -0.7168 -0.2921 -0.9029
   98SOL     OW  292   1.980   1.627   1.277 -0.3102 -0.7635 -0.2167
   98SOL    HW1  293   1.926   1.602   1.192  1.5637  3.0163  2.0931
   98SOL    HW2  294   2.022   1.544   1.323  1.1730 -1.7569 -1.4534
   99SOL     OW  295   2.496   2.133   1.366 -0.5147 -0.1563 -0.0257
   99SOL    HW1  296   2.446   2.188   1.438  0.1703 -0.4302  2.1413
   99SOL    HW2  297   2.485   2.029   1.377  1.2212 -2.6198 -2.3756
  100SOL     OW  298   2.315   0.380   2.035 -0.5725  0.3638  0.3767
  100SOL    HW1  299   2.266   0.357   2.120  0.1350 -2.0494  1.0976
  100SOL    HW2  300   2.419   0.377   2.046  3.4359 -1.5254  1.2033
  101SOL     OW  301   0.373   1.497   0.269  0.2656 -0.8946 -0.2398
  101SOL    HW1  302   0.426   1.497   0.356 -1.3703  1.5551  1.8399
  101SOL    HW2  303   0.403   1.570   0.205  1.9064 -0.3948  1.3420
  102SOL     OW  304   2.307   1.060   0.809 -0.0722 -0.8658  0.2462
  102SOL    HW1  305   2.218   1.004   0.809  1.2438  0.1003  0.6273
  102SOL    HW2  306   2.317   1.122   0.726  0.4444  1.2501 -2.4479
  103SOL     OW  307   2.294   0.044   0.402  0.0638 -0.0588  0.0838
  103SOL    HW1  308   2.322   0.128   0.345 -1.0680  2.5858 -0.9615
  103SOL    HW2  309   2.358   0.010   0.476 -0.4780  0.3483 -1.4141
  104SOL     OW  310   0.064   1.843   2.117  0.2879 -0.8494 -0.0555
  104SOL    HW1  311   0.079   1.803   2.021 -0.6686 -0.3033  1.0725
  104SOL    HW2  312  -0.036   1.827   2.139 -1.3328  0.1969  3.4590
  105SOL     OW  313   1.230   1.983   0.795  0.3751  0.0750 -0.5476
  105SOL    HW1  314   1.154   1.994   0.725  1.0817 -0.7702 -1.4521
  105SOL    HW2  315   1.287   1.897   0.782 -0.4381  0.6202 -1.1931
  106SOL     OW  316   2.089   0.480   1.387  0.3544  0.7241  0.3806
  106SOL    HW1  317   2.051   0.391   1.428  1.4594  0.8678  0.3244
  106SOL    HW2  318   2.106   0.560   1.450  1.2559  0.0796 -1.8090
  107SOL     OW  319   1.804   3.008   1.078  0.2422  0.0013  0.5164
  107SOL    HW1  320   1.854   3.080   1.132 -0.6592 -0.4688  0.8295
  107SOL    HW2  321   1.742   2.945   1.136 -1.4427 -2.8211  0.2115
  108SOL     OW  322   0.796   2.720   1.292  0.5347  0.6394 -0.1537
  108SOL    HW1  323   0.787   2.785   1.371  0.5086  1.3042  1.0440
  108SOL    HW2  324   0.867   2.648   1.307  2.6824  1.2012  0.3344
  109SOL     OW  325   2.185   0.107   0.821  0.1570 -0.0146 -0.0776
  109SOL    HW1  326   2.097   0.071   0.777 -0.2806 -2.0404 -1.4673
  109SOL    HW2  327   2.185   0.097   0.924  0.7567  2.6990  0.6961
  110SOL     OW  328   0.457   2.815   2.686 -0.2358 -0.2774 -0.2583
  110SOL    HW1  329   0.476   2.856   2.588 -2.7322 -1.0961 -3.3893
  110SOL    HW2  330   0.547   2.789   2.738  2.1207  0.5219 -0.9482
  111SOL     OW  331   1.303   0.537   2.266  0.2075 -0.4499 -0.2411
  111SOL    HW1  332   1.246   0.584   2.339  0.5779  0.7443 -3.3945
  111SOL    HW2  333   1.337   0.441   2.290  0.3681 -0.3620 -1.3289
  112SOL     OW  334   1.751   0.512   1.420  0.0308 -0.0344  0.4232
  112SOL    HW1  335   1.715   0.482   1.326 -0.2923 -0.7036 -0.0121
  112SOL    HW2  336   1.718   0.449   1.494 -1.9142  1.0027  1.4953
  113SOL     OW  337   2.313   1.633   1.731 -0.5012  0.5800  0.2503
  113SOL    HW1  338   2.361   1.541   1.729 -0.9195 -1.6262 -1.4440
  113SOL    HW2  339   2.342   1.689   1.816 -1.5075  2.0246 -1.8408
  114SOL     OW  340   0.306   0.540   1.312  0.0674 -0.2916 -0.3619
  114SOL    HW1  341   0.322   0.634   1.266 -2.8264  1.3005 -1.4899
  114SOL    HW2  342   0.230   0.489   1.262  0.1632  0.2635 -0.0373
  115SOL     OW  343   2.626   1.567   1.212  0.1441 -0.5092 -0.0050
  115SOL    HW1  344   2.677   1.489   1.259  0.3062  1.6175  0.7970
  115SOL    HW2  345   2.682   1.619   1.145  0.7595 -1.3982 -1.6719
  116SOL     OW  346   1.804   1.036   0.803  0.2174  0.0220 -0.2435
  116SOL    HW1  347   1.735   0.985   0.747 -2.0006 -1.9913 -0.1762
  116SOL    HW2  348   1.797   1.141   0.808  0.0063  1.2005  0.5452
  117SOL     OW  349   1.109   0.339   0.716  0.0074 -0.2636  0.5361
  117SOL    HW1  350   1.132   0.309   0.815 -0.4374 -0.3004  0.0438
  117SOL    HW2  351   1.116   0.440   0.702  0.4999  0.6495 -1.6341
  118SOL     OW  352   1.117   1.116   1.139 -0.2954  0.2864 -0.4395
  118SOL    HW1  353   1.082   1.028   1.188 -0.8965  2.8389  1.6850
  118SOL    HW2  354   1.103   1.200   1.193  3.3775  0.0261  1.6904
  119SOL     OW  355   1.819   1.616   2.104  0.1429 -0.3195  0.3992
  119SOL    HW1  356   1.784   1.716   2.131 -0.1093 -0.4217  1.8158
  119SOL    HW2  357   1.919   1.603   2.101 -3.4406  0.6850  0.2108
  120SOL     OW  358   2.974   2.806   0.307 -0.2187  0.0351  0.0175
  120SOL    HW1  359   2.986   2.780   0.206  0.2202 -1.6946 -1.7467
  120SOL    HW2  360   2.947   2.724   0.366  2.1351  0.4046 -1.3195
  121SOL     OW  361   1.989   0.716   2.223 -0.1926  0.0123  0.1863
  121SOL    HW1  362   2.055   0.746   2.154 -0.7483 -0.1004  0.2513
  121SOL    HW2  363   1.956   0.617   2.209 -1.4189 -0.2101  0.4528
  122SOL     OW  364   2.721   2.612   1.305 -0.0814  0.8335 -0.2020
  122SOL    HW1  365   2.739   2.582   1.199 -0.1861 -0.4926 -1.9816
  122SOL    HW2  366   2.643   2.564   1.345 -1.5770  2.0593  1.3530
  123SOL     OW  367   1.739   0.063   1.721  0.1561  0.6219 -0.0881
  123SOL    HW1  368   1.746  -0.000   1.637 -0.5926 -2.3175  1.7691
  123SOL    HW2  369   1.830   0.073   1.778  1.5413  0.3626 -0.9079
  124SOL     OW  370   0.109   0.490   1.076 -0.1251  0.4015  0.1741
  124SOL    HW1  371   0.079   0.576   1.128  1.2606 -0.2386 -0.6186
  124SOL    HW2  372   0.069   0.493   0.981  3.6739 -0.6868  4.0740
  125SOL     OW  373   0.912   1.768   0.661  0.6178 -0.9196 -0.5536
  125SOL    HW1  374   1.001   1.715   0.633  0.5993 -1.3896  0.5210
  125SOL    HW2  375   0.889   1.754   0.759  0.1087  0.3087 -2.4113
  126SOL     OW  376   1.924   2.363   2.402  0.1111 -0.4898  0.2704
  126SOL    HW1  377   1.983   2.311   2.333  0.1683 -2.3598  2.3647
  126SOL    HW2  378   1.837   2.309   2.420 -1.5366  2.2423 -2.2933
  127SOL     OW  379   0.777   0.967   0.235  0.1809  0.2217  0.6722
  127SOL    HW1  380   0.868   0.987   0.284 -0.0177 -0.4222  0.0980
  127SOL    HW2  381   0.778   0.866   0.200  2.1936  0.1708 -2.3485
  128SOL     OW  382   0.942   0.168   1.419  0.1191  0.0480 -0.6412
  128SOL    HW1  383   0.883   0.241   1.377 -0.3426  2.6076 -1.2657
  128SOL    HW2  384   0.896   0.077   1.417 -2.1897  1.1860  3.0630
  129SOL     OW  385   1.895   0.669   1.850  0.0397 -0.4957 -0.1131
  129SOL    HW1  386   1.908   0.662   1.751  1.0529  1.6972  1.8438
  129SOL    HW2  387   1.917   0.766   1.893  1.5551  2.4076 -2.3122
  130SOL     OW  388   1.312   2.151   1.025 -0.1308  0.9989 -0.0644
  130SOL    HW1  389   1.271   2.090   0.949  1.4486 -2.2101  0.9237
  130SOL    HW2  390   1.363   2.227   0.983 -1.2112  1.6362 -0.4376
  131SOL     OW  391   0.014   1.509   1.378 -0.0870 -0.6341  0.5536
  131SOL    HW1  392  -0.037   1.420   1.362 -1.0154 -1.3248 -0.2335
  131SOL    HW2  393   0.119   1.502   1.384  1.0801  1.9415  0.2155
  132SOL     OW  394   2.009   2.424   0.541  0.1299 -0.3718  0.0722
  132SOL    HW1  395   1.906   2.421   0.543  1.9262  0.2978 -1.2072
  132SOL    HW2  396   2.044   2.377   0.626  0.7605  0.7047 -2.6333
  133SOL     OW  397   1.863   2.267   2.892  0.2382  0.0993 -0.7638
  133SOL    HW1  398   1.910   2.313   2.970  0.2626 -3.3212 -1.4036
  133SOL    HW2  399   1.828   2.332   2.819  1.3128  1.5080 -2.9503
  134SOL     OW  400   2.731   2.354   1.628  0.4415 -0.2177  0.1235
  134SOL    HW1  401   2.673   2.334   1.712 -1.4672  0.6812 -1.8106
  134SOL    HW2  402   2.809   2.418   1.648  0.1455  0.3228 -1.8437
  135SOL     OW  403   0.729   1.527   2.597  0.0358  0.1366 -0.0481
  135SOL    HW1  404   0.723   1.446   2.659 -1.9767  4.3006 -2.2314
  135SOL    HW2  405   0.785   1.512   2.501 -0.4040  0.5185 -1.7951
  136SOL     OW  406   1.193   2.026   0.455 -0.3085  0.1739 -0.5126
  136SOL    HW1  407   1.115   2.061   0.513 -0.5035 -2.0638 -0.0507
  136SOL    HW2  408   1.163   1.930   0.416 -0.5756 -0.4328  0.4594
  137SOL     OW  409   0.408   1.103   2.139 -0.1327  0.4494 -0.7313
  137SOL    HW1  410   0.310   1.069   2.147  2.3490  0.6686 -1.0062
  137SOL    HW2  411   0.476   1.052   2.196  1.4156  2.1685 -1.6289
  138SOL     OW  412   2.446   1.496   0.183 -0.5419 -0.4304  0.4467
  138SOL    HW1  413   2.345   1.476   0.167  0.9460 -1.4306 -0.3981
  138SOL    HW2  414   2.488   1.427   0.248  0.4574  1.8349 -0.4586
  139SOL     OW  415   1.805   2.654   1.205  0.2590  0.3766  0.1075
  139SOL    HW1  416   1.709   2.622   1.182 -0.1244 -0.3619  0.5136
  139SOL    HW2  417   1.853   2.583   1.257 -0.5202 -0.0643  2.9125
  140SOL     OW  418   2.986   2.970   2.500 -0.2678  0.0878  0.7573
  140SOL    HW1  419   3.064   2.898   2.507  2.2159 -0.3998 -0.3404
  140SOL    HW2  420   3.026   3.058   2.536 -1.7170  0.8164  2.4822
  141SOL     OW  421   1.232   1.667   1.597 -0.3173  0.0758  0.7829
  141SOL    HW1  422   1.160   1.720   1.649  1.8285 -0.8906  0.0424
  141SOL    HW2  423   1.259   1.580   1.650 -0.9612  1.7836  0.1972
  142SOL     OW  424   1.601   0.627   2.228  0.3016  0.2207 -0.0734
  142SOL    HW1  425   1.629   0.617   2.126  2.3739  0.6413 -2.4694
  142SOL    HW2  426   1.495   0.608   2.245  0.0664  1.8586  0.3092
  143SOL     OW  427   2.720   0.876   0.500  0.2199 -0.2020 -0.1762
  143SOL    HW1  428   2.738   0.932   0.413 -2.5274 -1.1104 -0.3847
  143SOL    HW2  429   2.777   0.926   0.575 -0.0522  2.6305 -0.0036
  144SOL     OW  430   2.978   1.284   1.355  0.3568  0.3318  0.7621
  144SOL    HW1  431   2.943   1.245   1.446 -1.4955 -2.2952 -0.5504
  144SOL    HW2  432   2.990   1.207   1.286 -0.2920 -0.3021  0.5424
  145SOL     OW  433   1.039   1.850   0.063 -0.5348 -0.2121  0.4169
  145SOL    HW1  434   1.028   1.939   0.012 -1.5154  0.0271 -2.2601
  145SOL    HW2  435   1.000   1.767   0.010  0.7733 -2.4761  1.9827
  146SOL     OW  436   2.469   0.629   1.532 -0.7268  0.1842  0.6130
  146SOL    HW1  437   2.419   0.564   1.472 -2.0281  0.2893  1.2393
  146SOL    HW2  438   2.417   0.720   1.521 -1.4832 -2.8092 -0.4674
  147SOL     OW  439   1.066   2.497   0.594  0.7275 -0.4699 -0.3568
  147SOL    HW1  440   1.044   2.568   0.516 -1.1795 -0.1153  1.5532
  147SOL    HW2  441   1.150   2.437   0.567  2.7107 -0.9331 -1.6129
  148SOL     OW  442   1.636   1.461   3.073 -0.1825  0.5690 -0.6010
  148SOL    HW1  443   1.653   1.397   2.989  2.8057  0.4448 -2.6880
  148SOL    HW2  444   1.602   1.396   3.150  1.2027  0.6743 -0.4509
  149SOL     OW  445   0.689   1.418   1.935 -0.7077 -0.3954 -0.5437
  149SOL    HW1  446   0.614   1.373   1.989  0.9337  1.3546  1.2392
  149SOL    HW2  447   0.744   1.354   1.876 -0.3437  0.4537  2.1367
  150SOL     OW  448   2.964   1.257   0.913  0.3879 -0.1472  0.0544
  150SOL    HW1  449   3.049   1.283   0.968  1.5293 -2.6156 -2.0275
  150SOL    HW2  450   2.936   1.159   0.935  0.5982 -1.8108 -1.2542
  151SOL     OW  451   0.193   0.766   2.149 -0.2581 -0.1086 -0.3638
  151SOL    HW1  452   0.157   0.845   2.086 -1.8297  3.1693 -2.2012
  151SOL    HW2  453   0.273   0.714   2.101 -0.6027 -2.1444 -1.9776
  152SOL     OW  454   1.374   1.728   1.258 -0.3360 -0.2592 -0.1389
  152SOL    HW1  455   1.402   1.793   1.330 -2.8972 -1.8759 -0.2469
  152SOL    HW2  456   1.284   1.759   1.213 -1.6546  0.5838  1.5784
  153SOL     OW  457   0.036   1.539   0.164  0.1096  0.0871  0.2534
  153SOL    HW1  458   0.028   1.438   0.165 -2.7656  1.1547  3.0458
  153SOL    HW2  459   0.080   1.568   0.256 -0.5103  2.0571  2.9039
  154SOL     OW  460   2.371   1.854   2.825 -0.1129 -0.5273  0.1235
  154SOL    HW1  461   2.409   1.776   2.880 -2.4846 -0.1596 -1.8165
  154SOL    HW2  462   2.406   1.845   2.727  1.1094 -0.3246  2.2532
  155SOL     OW  463   2.502   1.269   0.326 -0.2370  0.6145  0.2060
  155SOL    HW1  464   2.588   1.235   0.278  2.2004  0.0961 -0.2744
  155SOL    HW2  465   2.417   1.205   0.309 -3.3455 -0.6966 -0.1849
  156SOL     OW  466   2.547   0.945   0.876 -0.2025 -0.1320 -0.1873
  156SOL    HW1  467   2.450   0.981   0.853 -0.3008 -0.9060 -1.3960
  156SOL    HW2  468   2.606   1.027   0.872 -2.2474  2.1494  0.4026
  157SOL     OW  469   1.196   2.984   2.978 -0.6275 -0.4680  0.1049
  157SOL    HW1  470   1.267   2.925   2.927 -0.8773  1.8618  0.1306
  157SOL    HW2  471   1.228   3.084   2.974  1.3569 -1.3000 -3.0278
  158SOL     OW  472   1.034   1.843   2.003 -0.1532 -0.2190 -0.5743
  158SOL    HW1  473   1.052   1.914   2.077 -0.4723  1.1363 -1.8860
  158SOL    HW2  474   0.935   1.814   2.016 -2.1921 -2.2816  1.2244
  159SOL     OW  475   0.859   0.420   1.285  0.2137  0.4197  0.2895
  159SOL    HW1  476   0.848   0.502   1.346 -1.2744 -1.5267  1.7448
  159SOL    HW2  477   0.776   0.422   1.220 -0.5194  1.7784  0.6971
  160SOL     OW  478   1.476   2.484   1.640 -0.3312 -0.0641 -0.2133
  160SOL    HW1  479   1.474   2.579   1.599  0.5790  1.7675  1.4607
  160SOL    HW2  480   1.556   2.421   1.601  1.4906 -3.2331 -0.5437
  161SOL     OW  481   0.187   2.899   0.352 -0.1156 -0.1054 -0.0196
  161SOL    HW1  482   0.100   2.853   0.397  4.0804 -1.7358  0.1895
  161SOL    HW2  483   0.162   2.984   0.296  2.9263  0.2137 -1.5923
  162SOL     OW  484   2.601   1.905   0.522  0.0886  0.0054 -0.0624
  162SOL    HW1  485   2.589   1.843   0.438 -2.3638  0.3413 -1.4876
  162SOL    HW2  486   2.599   1.842   0.604  1.7617  2.0141 -0.7656
  163SOL     OW  487   1.958   2.659   0.713  0.1403 -0.1002 -0.2995
  163SOL    HW1  488   1.890   2.669   0.633 -1.9632  1.7039  0.5554
  163SOL    HW2  489   2.054   2.634   0.679 -0.3406  1.1248 -1.6269
  164SOL     OW  490   3.043   0.291   1.228  0.1747 -0.2910  0.6915
  164SOL    HW1  491   3.102   0.335   1.153 -1.5222 -1.0895  1.0202
  164SOL    HW2  492   3.071   0.319   1.326  0.4920  0.0624  0.5866
  165SOL     OW  493   0.988   1.452   0.682 -0.6016 -0.2460 -0.0606
  165SOL    HW1  494   0.934   1.447   0.767  0.7609 -2.4771 -0.3670
  165SOL    HW2  495   0.936   1.502   0.610 -0.3248 -1.1153  1.9053
  166SOL     OW  496   1.459   1.069   1.760  0.3847 -0.0961  0.2722
  166SOL    HW1  497   1.362   1.057   1.793  1.0153 -0.3871 -1.0358
  166SOL    HW2  498   1.524   1.116   1.833  1.1131 -0.5621 -1.3019
  167SOL     OW  499   0.838   1.927   1.528 -0.5078 -0.5686  0.0644
  167SOL    HW1  500   0.808   1.984   1.610 -0.6176 -0.0335  0.5821
  167SOL    HW2  501   0.763   1.866   1.494  0.3088  2.6089 -1.4425
  168SOL     OW  502   1.597   2.389   0.167  0.7723  0.2975 -0.1518
  168SOL    HW1  503   1.677   2.449   0.146  1.0608 -1.3597 -0.6692
  168SOL    HW2  504   1.617   2.310   0.227  0.7029  1.9641  2.7526
  169SOL     OW  505   0.195   2.608   2.219  0.8654 -0.3289 -0.2345
  169SOL    HW1  506   0.234   2.552   2.140  1.2496  0.2262  3.2611
  169SOL    HW2  507   0.208   2.560   2.309  0.0850  0.6489 -1.4426
  170SOL     OW  508   1.254   0.283   1.917 -0.4447 -0.2530 -0.1211
  170SOL    HW1  509   1.283   0.234   2.005  2.7023  1.7768 -0.0101
  170SOL    HW2  510   1.215   0.216   1.848 -0.4602 -1.8898 -1.2620
  171SOL     OW  511   0.227   0.756   2.425 -0.4954 -0.2573 -0.3933
  171SOL    HW1  512   0.151   0.791   2.491 -1.8009 -0.3989  1.4225
  171SOL    HW2  513   0.202   0.778   2.321  1.9936  0.6927 -0.7545
  172SOL     OW  514   0.863   1.146   2.933  0.0992 -0.3333  0.6098
  172SOL    HW1  515   0.950   1.194   2.966 -2.3633 -1.2478  1.6487
  172SOL    HW2  516   0.867   1.108   2.834 -0.4962  2.5129  0.3420
  173SOL     OW  517   0.643   2.669   0.144 -0.2702 -0.0500 -0.3332
  173SOL    HW1  518   0.615   2.766   0.147  0.6512 -0.5663  0.1226
  173SOL    HW2  519   0.568   2.600   0.124  1.4214  0.2253  0.6325
  174SOL     OW  520   1.397   2.808   1.049 -0.1540  0.0919 -0.0897
  174SOL    HW1  521   1.395   2.887   0.984  0.4779  0.0888 -2.3544
  174SOL    HW2  522   1.321   2.742   1.038  1.1026  1.4281 -2.2460
  175SOL     OW  523   0.428   0.007   1.667  1.1362  0.5658  0.0950
  175SOL    HW1  524   0.494   0.031   1.748 -0.0148  2.6054  0.1975
  175SOL    HW2  525   0.372   0.092   1.645  2.6293  0.3089 -0.5026
  176SOL     OW  526   2.503   0.423   3.059 -0.2367  0.4675  0.3189
  176SOL    HW1  527   2.523   0.492   3.137  3.6544  0.3671 -1.6850
  176SOL    HW2  528   2.421   0.368   3.083  2.2912 -0.8137 -4.1908
  177SOL     OW  529   0.384   0.336   0.942 -0.5274 -0.6256  0.0553
  177SOL    HW1  530   0.406   0.295   1.032 -0.4714  2.0932 -1.6058
  177SOL    HW2  531   0.313   0.405   0.959  1.1077 -2.6667  0.8260
  178SOL     OW  532   0.050   2.702   2.580  0.2837  0.4487 -0.2052
  178SOL    HW1  533  -0.027   2.647   2.627  1.0278 -0.7632  0.0707
  178SOL    HW2  534   0.115   2.734   2.655 -0.7560  2.3905  1.3841
  179SOL     OW  535   0.022   1.713   1.167  0.0244  0.2870 -0.0357
  179SOL    HW1  536  -0.052   1.789   1.166 -0.5078  0.9116 -2.0118
  179SOL    HW2  537   0.015   1.635   1.231 -0.4892  4.2855 -1.7835
  180SOL     OW  538   0.214   1.240   1.825  0.2742 -0.9275 -0.3112
  180SOL    HW1  539   0.308   1.258   1.790 -3.5533 -1.3165  2.0616
  180SOL    HW2  540   0.175   1.328   1.863 -1.2644  0.4252 -0.8695
  181SOL     OW  541   3.042   1.835   2.569 -0.0336  0.3247 -0.1374
  181SOL    HW1  542   3.121   1.886   2.517  3.6018  1.7134  0.4882
  181SOL    HW2  543   2.953   1.859   2.538 -1.3557 -3.1820  1.9251
  182SOL     OW  544   2.330   1.252   1.167 -0.0336  0.6704 -0.6626
  182SOL    HW1  545   2.253   1.195   1.132 -0.4359  2.2491 -1.6690
  182SOL    HW2  546   2.320   1.353   1.154 -0.3586  3.0840 -0.6555
  183SOL     OW  547   1.503   2.277   2.527  0.2230  0.3910 -0.3698
  183SOL    HW1  548   1.442   2.197   2.566 -2.8901 -0.3222 -0.7150
  183SOL    HW2  549   1.596   2.244   2.488  4.2618  0.2064 -1.5114
  184SOL     OW  550   2.073   0.931   0.812  0.2645  0.2465 -0.0469
  184SOL    HW1  551   1.979   0.979   0.808 -0.0365  0.2473  1.4920
  184SOL    HW2  552   2.056   0.831   0.833  1.0011 -2.1675 -0.9994
  185SOL     OW  553   1.641   2.666   2.105  0.0307  0.0989  0.0303
  185SOL    HW1  554   1.586   2.752   2.069 -5.1737 -1.0327 -1.4645
  185SOL    HW2  555   1.641   2.661   2.209 -1.5266  0.9417 -0.4871
  186SOL     OW  556   0.107   2.198   1.730 -0.7381  0.1735 -0.5331
  186SOL    HW1  557   0.135   2.293   1.714 -2.6694 -1.7553  1.3393
  186SOL    HW2  558   0.190   2.133   1.736 -0.8337  0.1299 -1.3005
  187SOL     OW  559   1.379   0.697   1.674 -0.4687  0.6508  0.2856
  187SOL    HW1  560   1.434   0.766   1.615  1.9789  1.5244 -1.1079
  187SOL    HW2  561   1.389   0.712   1.779 -1.2079  0.7857  1.1362
  188SOL     OW  562   2.774   2.795   1.525  0.4840 -0.5279 -0.5605
  188SOL    HW1  563   2.751   2.892   1.500 -2.0924 -1.9924  1.1199
  188SOL    HW2  564   2.738   2.728   1.457  0.4412  2.1191  0.0239
  189SOL     OW  565   0.840   0.995   1.405  0.3537  0.4834 -0.7932
  189SOL    HW1  566   0.892   1.080   1.436  0.9741 -3.4602  2.6450
  189SOL    HW2  567   0.777   1.014   1.331  1.7399  0.3558  0.6293
  190SOL     OW  568   1.509   1.756   1.573 -0.0438  1.3904 -0.0068
  190SOL    HW1  569   1.417   1.762   1.530  1.7367  3.8603  0.6726
  190SOL    HW2  570   1.509   1.811   1.661  1.8016  2.7333  1.0091
  191SOL     OW  571   0.999   0.769   1.556 -0.2304 -0.4360  0.0141
  191SOL    HW1  572   1.045   0.674   1.551  0.5841 -0.3066  0.4172
  191SOL    HW2  573   1.062   0.851   1.553  0.7183  0.0274 -0.7378
  192SOL     OW  574   1.837   2.300   1.177 -0.2215  0.0995  0.0494
  192SOL    HW1  575   1.744   2.270   1.144  2.3502 -1.2234 -4.0269
  192SOL    HW2  576   1.888   2.362   1.114 -0.3636  2.5189  0.5306
  193SOL     OW  577   0.512   0.556   0.395 -0.1815  0.2982  0.3464
  193SOL    HW1  578   0.481   0.461   0.427 -0.5252  0.5614  0.2674
  193SOL    HW2  579   0.497   0.571   0.297 -1.6547 -0.5974 -0.5792
  194SOL     OW  580   0.311   0.826   1.230  0.1501  0.2284  0.0499
  194SOL    HW1  581   0.207   0.807   1.233 -0.5230  2.1505 -1.2770
  194SOL    HW2  582   0.334   0.906   1.167  0.1118 -2.4767  0.6873
  195SOL     OW  583   0.959   2.919   0.439 -0.0751  0.2054 -0.1925
  195SOL    HW1  584   0.968   2.822   0.421 -0.5492  0.4705  1.2500
  195SOL    HW2  585   1.045   2.973   0.428 -1.9092  0.7514 -2.7019
  196SOL     OW  586   0.281   1.453   1.423  0.2525  0.0186 -0.0609
  196SOL    HW1  587   0.336   1.517   1.486  0.5737  1.2267  1.2775
  196SOL    HW2  588   0.261   1.359   1.464 -0.2744  0.2933  2.0737
  197SOL     OW  589   0.896   2.026   0.242  1.0152  0.0608 -0.9015
  197SOL    HW1  590   0.857   1.995   0.334  2.1651 -2.2179 -0.4359
  197SOL    HW2  591   0.954   1.954   0.197  2.0986  0.0784 -2.5512
  198SOL     OW  592   0.259   1.258   0.256 -0.1455  0.4245  0.1975
  198SOL    HW1  593   0.167   1.266   0.215 -0.6621 -1.0042 -1.5749
  198SOL    HW2  594   0.305   1.353   0.265 -0.0086  1.4820  0.4279
  199SOL     OW  595   2.265   0.368   2.516 -0.3583  0.0617 -0.6599
  199SOL    HW1  596   2.202   0.346   2.590  1.3731  2.6166 -4.6628
  199SOL    HW2  597   2.361   0.334   2.535 -0.3099 -0.6427  2.7587
  200SOL     OW  598   3.100   2.959   0.730  0.0073  1.2560 -0.2396
  200SOL    HW1  599   3.016   2.980   0.670  0.3150 -1.9400 -0.9215
  200SOL    HW2  600   3.126   3.047   0.781 -1.5261 -0.4468 -1.2809
  201SOL     OW  601   1.145   0.732   0.589  0.2489  0.6430  0.9245
  201SOL    HW1  602   1.168   0.810   0.654 -0.9998  0.4084  2.4751
  201SOL    HW2  603   1.040   0.712   0.572  0.5816  1.2180 -0.9056
  202SOL     OW  604   0.488   1.258   1.728  0.2132  0.1971  0.0685
  202SOL    HW1  605   0.501   1.256   1.625  0.3007 -1.5191  1.4295
  202SOL    HW2  606   0.570   1.208   1.776  2.2907 -2.9184 -1.0688
  203SOL     OW  607   0.679   0.203   1.589 -0.0480 -0.4556  0.5023
  203SOL    HW1  608   0.644   0.144   1.508 -0.2174 -2.2765 -2.5916
  203SOL    HW2  609   0.755   0.162   1.651  0.2511  0.3014  2.8492
  204SOL     OW  610   2.084   1.835   3.031  0.2613  0.2934  0.1627
  204SOL    HW1  611   2.117   1.748   2.979  1.4017 -2.0627 -0.5185
  204SOL    HW2  612   2.032   1.892   2.954 -3.0290 -0.6129 -1.8941
  205SOL     OW  613   1.855   1.877   0.084  0.0737 -0.5450  0.3101
  205SOL    HW1  614   1.926   1.838   0.020  0.4562  0.7070  1.1345
  205SOL    HW2  615   1.792   1.953   0.038 -1.3552 -0.3521  0.6627
  206SOL     OW  616   2.548   2.829   0.418 -0.3644 -0.2713 -0.1433
  206SOL    HW1  617   2.600   2.736   0.426 -1.7447  0.2120 -0.4393
  206SOL    HW2  618   2.561   2.879   0.326 -0.7950 -0.2175 -0.8846
  207SOL     OW  619   0.626   1.745   2.891 -0.2556  0.3134 -0.2772
  207SOL    HW1  620   0.719   1.709   2.860 -1.1984  1.3063 -0.0014
  207SOL    HW2  621   0.567   1.672   2.938  1.5121  3.4797  0.5253
  208SOL     OW  622   1.023   1.521   1.446  0.1525  0.2278  0.0337
  208SOL    HW1  623   0.966   1.563   1.368  0.7035  2.1547 -2.6049
  208SOL    HW2  624   1.095   1.588   1.490  0.1111  2.8693  0.4569
  209SOL     OW  625   0.270   0.946   3.027  1.0454  0.2641 -0.1261
  209SOL    HW1  626   0.288   0.896   2.939 -0.6797  1.0452 -2.3178
  209SOL    HW2  627   0.237   0.885   3.104 -1.2854  0.0842 -1.8045
  210SOL     OW  628   1.723   0.507   1.143  0.1965 -0.2419  0.6456
  210SOL    HW1  629   1.683   0.573   1.074 -0.1428  3.4446  2.3698
  210SOL    HW2  630   1.827   0.505   1.139 -0.7285 -1.6995  0.6702
  211SOL     OW  631   2.162   1.055   1.651 -0.7480 -0.0706 -0.2033
  211SOL    HW1  632   2.227   1.020   1.720  0.5577 -1.7205 -3.7886
  211SOL    HW2  633   2.222   1.113   1.579  0.4319  3.5079  0.9816
  212SOL     OW  634   0.017   0.958   1.462 -0.3493 -0.2647  0.0972
  212SOL    HW1  635   0.034   1.060   1.482 -1.2930 -0.3299  0.1489
  212SOL    HW2  636   0.069   0.893   1.526 -0.1634  3.5229 -1.3205
  213SOL     OW  637   2.721   0.345   0.265 -0.2824 -0.2145 -0.0983
  213SOL    HW1  638   2.780   0.277   0.221 -2.4153  1.5417  2.6095
  213SOL    HW2  639   2.683   0.424   0.207 -0.7066 -0.4426  1.0775
  214SOL     OW  640   2.195   0.268   2.279 -0.8403  0.0398 -0.0017
  214SOL    HW1  641   2.220   0.313   2.373 -2.0267  0.1502  1.3228
  214SOL    HW2  642   2.157   0.169   2.284  0.6570  0.4990  1.1541
  215SOL     OW  643   1.662   2.271   2.057 -0.3468 -0.4361 -0.9696
  215SOL    HW1  644   1.762   2.305   2.046 -2.2305  0.2623  1.3034
  215SOL    HW2  645   1.607   2.331   2.125  1.5297  0.9381  0.0871
  216SOL     OW  646   2.208   0.526   0.669 -0.2359 -0.2255  0.1689
  216SOL    HW1  647   2.146   0.445   0.637 -0.4623  0.3698  0.6133
  216SOL    HW2  648   2.224   0.592   0.591 -1.1719  1.7087  0.0125
  217SOL     OW  649   0.765   2.785   2.452 -0.3924 -0.1147  0.7939
  217SOL    HW1  650   0.743   2.689   2.492 -2.0224  3.1400  2.7886
  217SOL    HW2  651   0.722   2.802   2.358 -0.1387 -2.4518  3.5114
  218SOL     OW  652   1.934   1.407   0.077  0.0895 -0.6426 -0.2267
  218SOL    HW1  653   1.835   1.427   0.051 -1.9421 -1.4899  3.7788
  218SOL    HW2  654   1.950   1.327   0.139 -0.9977  0.6052  0.2924
  219SOL     OW  655   2.381   1.296   2.527 -0.2479 -0.9052  0.0578
  219SOL    HW1  656   2.329   1.266   2.447 -0.6241 -1.0511 -0.3055
  219SOL    HW2  657   2.400   1.214   2.595  0.1453 -2.5070 -2.1013
  220SOL     OW  658   1.486   1.040   1.263  0.4239 -0.2086  0.0214
  220SOL    HW1  659   1.588   1.051   1.268  0.6914  0.5133  2.6017
  220SOL    HW2  660   1.454   1.066   1.169 -0.9845 -1.6938  0.1220
  221SOL     OW  661   1.333   1.182   2.195  0.7935 -0.9512  0.1690
  221SOL    HW1  662   1.288   1.253   2.134 -1.4683 -0.4505  1.1497
  221SOL    HW2  663   1.418   1.142   2.152  1.2237 -0.1054 -0.5313
  222SOL     OW  664   1.224   0.072   1.154  0.3803 -0.5122  0.6569
  222SOL    HW1  665   1.316   0.073   1.192 -0.5646  3.1137  2.2571
  222SOL    HW2  666   1.174   0.155   1.186 -0.5007  0.1266 -0.7929
  223SOL     OW  667   2.957   0.816   1.998  0.3985 -0.4541 -0.3663
  223SOL    HW1  668   2.974   0.823   2.099  0.6875 -1.8639 -0.6164
  223SOL    HW2  669   2.961   0.905   1.945 -0.9773 -0.8391 -1.9811
  224SOL     OW  670   1.518   0.960   2.815 -0.6735  0.0306 -0.3656
  224SOL    HW1  671   1.555   0.895   2.745  0.8957 -0.7905  2.4132
  224SOL    HW2  672   1.491   1.054   2.770 -1.0532  4.6188 -2.6364
  225SOL     OW  673   3.029   2.776   2.905 -0.7918  0.0059  0.1491
  225SOL    HW1  674   3.023   2.694   2.836 -1.7873 -2.7812 -2.0463
  225SOL    HW2  675   3.055   2.864   2.857 -0.1907 -0.5330 -2.1164
  226SOL     OW  676   2.464   1.609   2.886 -0.3387 -0.3668  0.3775
  226SOL    HW1  677   2.497   1.587   2.787 -1.7445  0.7844  1.3416
  226SOL    HW2  678   2.400   1.540   2.929  1.8025  0.0661  0.4380
  227SOL     OW  679   0.877   0.122   2.987  0.6556  0.0631  0.1672
  227SOL    HW1  680   0.893   0.044   3.059 -2.0273 -1.2183  0.7523
  227SOL    HW2  681   0.845   0.090   2.893 -2.5549 -1.6805 -0.5088
  228SOL     OW  682   2.360   0.590   2.852  0.1666  0.3213  0.0787
  228SOL    HW1  683   2.318   0.589   2.753  0.2796 -1.2381 -0.8727
  228SOL    HW2  684   2.458   0.557   2.849  1.3335  0.3361  1.1485
  229SOL     OW  685   0.568   0.515   1.850 -0.0029  0.5067 -0.1763
  229SOL    HW1  686   0.595   0.512   1.748 -4.5915  0.1013  1.4418
  229SOL    HW2  687   0.602   0.595   1.904 -2.6357 -3.3270  2.7660
  230SOL     OW  688   1.884   1.242   2.170 -0.1151  0.1401  0.5080
  230SOL    HW1  689   1.949   1.239   2.085 -0.2554 -1.6727 -3.9637
  230SOL    HW2  690   1.794   1.283   2.140  0.3595  1.5932 -0.5709
  231SOL     OW  691   0.649   1.008   3.000  0.4380  0.2313 -0.0097
  231SOL    HW1  692   0.724   1.073   2.965 -1.6326  2.1405  0.8616
  231SOL    HW2  693   0.638   1.005   3.106  0.9685  1.5100  1.5550
  232SOL     OW  694   2.489   0.030   2.726 -0.3713 -0.3077  0.6284
  232SOL    HW1  695   2.522  -0.047   2.786 -2.4735 -0.2707 -0.2331
  232SOL    HW2  696   2.529   0.034   2.628 -0.3487  1.6058  0.4052
  233SOL     OW  697   1.692   1.250   1.069  0.1302 -0.5296 -0.1202
  233SOL    HW1  698   1.717   1.311   0.985 -0.9427  1.5838 -1.6876
  233SOL    HW2  699   1.744   1.161   1.073  0.4986 -0.1204  0.2125
  234SOL     OW  700   1.673   2.589   1.823  0.5703 -0.2207 -0.1278
  234SOL    HW1  701   1.663   2.614   1.923  0.5352 -1.0410 -1.1747
  234SOL    HW2  702   1.610   2.512   1.799 -1.9512  1.5447 -0.4485
  235SOL     OW  703   0.130   3.014   2.904 -0.3878  0.0115 -0.1291
  235SOL    HW1  704   0.182   3.080   2.849 -0.4674 -3.0167  1.8493
  235SOL    HW2  705   0.049   3.060   2.945 -0.2039 -0.7192  1.3953
  236SOL     OW  706   2.842   0.669   0.123 -0.1293  0.0912  0.3550
  236SOL    HW1  707   2.900   0.740   0.175  1.4899  0.4038  1.0292
  236SOL    HW2  708   2.894   0.623   0.045 -0.5123 -2.4144 -3.3785
  237SOL     OW  709   1.491   1.626   1.017 -0.3837  0.1740 -0.4490
  237SOL    HW1  710   1.581   1.596   1.051 -1.0423 -1.1861 -2.2391
  237SOL    HW2  711   1.421   1.642   1.095  0.4070  1.6850 -1.7131
  238SOL     OW  712   1.803   1.330   0.822 -0.2638 -0.3117  0.1398
  238SOL    HW1  713   1.896   1.344   0.777 -1.4740 -1.3534  0.8166
  238SOL    HW2  714   1.722   1.384   0.782  1.2078 -1.9502  0.6025
  239SOL     OW  715   2.074   0.247   2.739  0.3276 -0.1496  0.0378
  239SOL    HW1  716   2.168   0.246   2.787 -1.0429 -1.3380 -0.9897
  239SOL    HW2  717   2.011   0.323   2.781  2.1724  1.1422  0.5844
  240SOL     OW  718   0.874   0.695   0.222  0.1143  0.1402  0.1873
  240SOL    HW1  719   0.877   0.601   0.171  0.4196 -1.7134  0.2746
  240SOL    HW2  720   0.871   0.681   0.320  0.6348 -4.7838 -2.4144
  241SOL     OW  721   0.560   0.039   0.328  0.3515  0.1816 -0.5360
  241SOL    HW1  722   0.570   0.037   0.229  1.7914  0.4257  2.1970
  241SOL    HW2  723   0.518  -0.050   0.372  1.3521 -2.5548  2.5626
  242SOL     OW  724   0.691   2.448   1.148  0.0316  0.0833 -0.1398
  242SOL    HW1  725   0.688   2.535   1.201 -2.9508 -0.4351  3.4540
  242SOL    HW2  726   0.769   2.451   1.078  0.6286  0.2759  2.5926
  243SOL     OW  727   1.094   0.641   2.410  0.2875  0.3463  0.3476
  243SOL    HW1  728   1.015   0.706   2.376 -2.9907  1.1481 -0.7603
  243SOL    HW2  729   1.051   0.552   2.456 -0.0027 -1.4448  2.1847
  244SOL     OW  730   2.789   1.894   2.435  0.1040 -0.2617  0.3368
  244SOL    HW1  731   2.856   1.888   2.353 -0.9353  0.0631  1.9714
  244SOL    HW2  732   2.701   1.843   2.416  0.6432  0.1322 -2.6615
  245SOL     OW  733   2.456   0.734   2.128 -0.0188 -0.0967  0.0830
  245SOL    HW1  734   2.472   0.751   2.229 -1.0142  2.0164  2.2267
  245SOL    HW2  735   2.537   0.747   2.069 -1.5441 -1.3579  1.0174
  246SOL     OW  736   0.258   2.892   1.689  0.5555 -0.4226 -0.2134
  246SOL    HW1  737   0.185   2.892   1.617  2.5032 -2.2286 -0.7229
  246SOL    HW2  738   0.329   2.969   1.670  1.5309  0.1106 -0.7862
  247SOL     OW  739   2.173   0.556   3.036 -0.1049  0.0419  0.2121
  247SOL    HW1  740   2.254   0.549   2.972  2.6542  0.1648 -0.1854
  247SOL    HW2  741   2.109   0.639   3.018 -0.0526 -0.2037  1.0835
  248SOL     OW  742   2.198   1.846   1.618  0.3481  0.0077 -0.1390
  248SOL    HW1  743   2.245   1.757   1.646  0.7495 -0.1429  1.6381
  248SOL    HW2  744   2.122   1.868   1.684 -0.1115  0.8937  1.5223
  249SOL     OW  745   1.938   1.987   1.976 -0.8521  0.2912  0.2713
  249SOL    HW1  746   1.945   1.922   1.897 -0.3488 -0.2219 -1.3427
  249SOL    HW2  747   2.028   2.031   1.999 -2.1433  1.4248  1.0108
  250SOL     OW  748   1.017   0.659   1.847  0.0433  0.3739  0.2143
  250SOL    HW1  749   1.044   0.593   1.923  1.7851  1.0955 -2.0085
  250SOL    HW2  750   1.057   0.632   1.757 -2.3415 -0.8582  1.1287
  251SOL     OW  751   3.059   1.555   2.569 -0.0343 -0.1113 -0.3641
  251SOL    HW1  752   3.061   1.658   2.556  1.8756 -0.2012 -1.6326
  251SOL    HW2  753   2.965   1.511   2.564 -0.4093  1.4458  2.7213
  252SOL     OW  754   1.503   0.907   1.522  0.1603 -0.4279 -0.3730
  252SOL    HW1  755   1.512   0.968   1.439 -0.4108  2.8115 -0.5621
  252SOL    HW2  756   1.503   0.954   1.618  1.9599 -0.8103 -0.8378
  253SOL     OW  757   0.960   1.601   0.370  0.3704  0.9069 -0.3051
  253SOL    HW1  758   1.013   1.505   0.351 -1.3953 -4.5784 -1.2287
  253SOL    HW2  759   0.863   1.592   0.337 -2.4644 -0.4659  2.2010
  254SOL     OW  760   2.006   2.181   1.588  0.4537  0.0541  0.1628
  254SOL    HW1  761   1.961   2.137   1.505  2.1146 -0.3258 -0.4091
  254SOL    HW2  762   1.948   2.176   1.675 -2.7910  2.2407  1.3971
  255SOL     OW  763   0.110   1.160   2.922  0.2734 -0.5089  0.1057
  255SOL    HW1  764   0.154   1.253   2.904  2.1092  0.2707 -0.6184
  255SOL    HW2  765   0.174   1.105   2.979 -0.2659  3.0985 -2.7954
  256SOL     OW  766   2.796   1.384   1.835  0.0932  0.2267  0.1980
  256SOL    HW1  767   2.726   1.459   1.827  2.0600  0.1537 -1.5764
  256SOL    HW2  768   2.759   1.293   1.866  0.2439 -0.0749 -2.2638
  257SOL     OW  769   0.907   0.200   1.928  0.1766 -0.0560 -0.3531
  257SOL    HW1  770   0.914   0.255   1.838 -0.8623 -0.3650 -1.2630
  257SOL    HW2  771   0.894   0.095   1.915 -0.1301 -1.2233  0.0347
  258SOL     OW  772   2.955   1.269   0.427 -0.1611  0.6749  0.3618
  258SOL    HW1  773   2.888   1.347   0.412  2.9014 -1.5543 -0.3527
  258SOL    HW2  774   2.995   1.270   0.525 -1.9106  3.1180  3.0435
  259SOL     OW  775   0.428   2.938   2.977  0.1278 -0.0942  0.0209
  259SOL    HW1  776   0.400   2.862   3.043 -0.1834 -2.6455 -3.8394
  259SOL    HW2  777   0.460   2.904   2.884  3.1995 -0.1695 -1.2678
  260SOL     OW  778   2.656   0.804   2.775  0.2126  0.3730 -0.0840
  260SOL    HW1  779   2.572   0.825   2.716  0.4379  0.3944 -1.5177
  260SOL    HW2  780   2.633   0.799   2.876  0.2742  4.3278  0.2447
  261SOL     OW  781   2.736   1.361   1.324 -0.2687  0.6322 -0.6397
  261SOL    HW1  782   2.703   1.296   1.250  0.2670  3.2041  0.9497
  261SOL    HW2  783   2.839   1.366   1.324 -0.8643  1.0819 -1.1279
  262SOL     OW  784   1.475   2.901   2.024  0.6780 -0.0051 -0.3267
  262SOL    HW1  785   1.467   2.998   1.991 -1.5300 -0.8590  2.2150
  262SOL    HW2  786   1.386   2.845   2.011 -0.5554  1.0622 -0.6691
  263SOL     OW  787   0.885   0.774   2.320 -0.5720  0.3506  0.0925
  263SOL    HW1  788   0.828   0.692   2.287 -0.7876 -1.8121  0.2275
  263SOL    HW2  789   0.903   0.843   2.242  1.9105  1.4004 -0.4115
  264SOL     OW  790   2.261   0.743   0.479  0.1658  0.1847 -0.1985
  264SOL    HW1  791   2.166   0.759   0.445  2.3225 -2.2505 -1.3069
  264SOL    HW2  792   2.302   0.828   0.516 -2.0011 -2.7934 -1.8740
  265SOL     OW  793   0.887   2.292   2.689  0.4016 -0.2104 -0.3131
  265SOL    HW1  794   0.925   2.361   2.754 -1.2668 -1.0492  1.2534
  265SOL    HW2  795   0.831   2.224   2.747  2.2453 -1.7401 -2.8500
  266SOL     OW  796   1.348   1.702   0.057  0.1078  0.0692  0.1628
  266SOL    HW1  797   1.331   1.794   0.101 -1.6672  0.1593  2.1678
  266SOL    HW2  798   1.451   1.690   0.058  0.3829 -2.1511 -0.4053
  267SOL     OW  799   1.077   0.000   2.388 -0.4200 -0.1177  0.1083
  267SOL    HW1  800   1.071  -0.081   2.321  1.8014 -2.8791  0.7874
  267SOL    HW2  801   1.044   0.092   2.353 -0.6816 -0.4049 -1.7448
  268SOL     OW  802   0.661   1.165   1.000  0.2180  0.0219 -0.5391
  268SOL    HW1  803   0.701   1.219   1.081  0.1841  0.9389  0.4256
  268SOL    HW2  804   0.631   1.227   0.923  0.7801 -2.5276  1.7594
  269SOL     OW  805   2.419   2.480   1.599 -0.3174 -0.4026 -0.1404
  269SOL    HW1  806   2.518   2.461   1.601 -1.0265 -1.6739  0.6657
  269SOL    HW2  807   2.379   2.496   1.693 -0.5532  0.6974 -1.4801
  270SOL     OW  808   0.209   2.964   1.949 -0.6559  0.4816 -0.0517
  270SOL    HW1  809   0.237   2.950   1.851  0.3541  0.8282  0.2872
  270SOL    HW2  810   0.139   2.893   1.976  0.0100  1.4193  0.7191
  271SOL     OW  811   0.459   1.396   1.197  0.5055 -0.2339 -0.2084
  271SOL    HW1  812   0.435   1.449   1.113 -0.6570  0.2659  2.6877
  271SOL    HW2  813   0.421   1.439   1.282  2.6785  3.3028  0.3222
  272SOL     OW  814   1.907   2.918   1.896  0.1115  0.1197  0.1580
  272SOL    HW1  815   1.874   2.861   1.817 -1.8341  0.3310  1.2797
  272SOL    HW2  816   1.984   2.979   1.868 -4.8664  0.7586  0.7566
  273SOL     OW  817   1.428   1.424   2.830 -0.5497 -0.1264 -0.3999
  273SOL    HW1  818   1.436   1.503   2.762 -2.8753  0.6672 -1.6820
  273SOL    HW2  819   1.362   1.446   2.910 -1.4769  1.0961 -1.8306
  274SOL     OW  820   1.144   0.503   2.031 -0.5403  0.2090  0.1042
  274SOL    HW1  821   1.192   0.427   1.979 -1.6972  0.0330  2.1432
  274SOL    HW2  822   1.189   0.525   2.123  1.2823 -0.2079  3.6652
  275SOL     OW  823   0.624   2.071   1.997 -0.1974  0.5013 -0.6053
  275SOL    HW1  824   0.581   2.164   1.987  0.2023 -1.2905 -1.0924
  275SOL    HW2  825   0.563   1.990   1.967 -1.6278 -1.5306  0.3892
  276SOL     OW  826   2.157   0.965   2.805 -0.1374 -0.7297 -0.2955
  276SOL    HW1  827   2.089   0.970   2.733  4.0844 -3.9845 -0.5381
  276SOL    HW2  828   2.124   0.903   2.886 -0.2285  1.9463 -0.2222
  277SOL     OW  829   3.051   0.840   0.204  0.3110  0.4658  0.0741
  277SOL    HW1  830   3.146   0.868   0.171 -1.1054 -1.0446  0.8530
  277SOL    HW2  831   3.063   0.760   0.275  0.1866  2.2935  2.2017
  278SOL     OW  832   0.180   0.263   2.974  0.1753  0.9312 -0.6104
  278SOL    HW1  833   0.250   0.200   3.019  3.3232 -1.4633  1.3662
  278SOL    HW2  834   0.211   0.362   2.988 -3.6058  1.2338 -1.0780
  279SOL     OW  835   0.158   0.046   0.873  0.0280  0.1353  0.3759
  279SOL    HW1  836   0.183   0.049   0.974  1.3360  0.7718 -0.9057
  279SOL    HW2  837   0.232   0.015   0.804  1.2879  1.4627 -1.0783
  280SOL     OW  838   1.626   2.944   2.540 -1.0819  0.1902  0.3295
  280SOL    HW1  839   1.706   3.016   2.551  0.2529 -0.7118  2.4842
  280SOL    HW2  840   1.533   2.994   2.541 -3.1684 -1.3311 -0.8275
  281SOL     OW  841   0.578   0.957   2.331 -0.3383 -0.4153 -0.2112
  281SOL    HW1  842   0.562   0.873   2.266  0.1827  0.0006  0.4401
  281SOL    HW2  843   0.521   0.956   2.417  1.4620  1.9901 -0.1635
  282SOL     OW  844   1.711   2.437   0.503  0.6628 -0.3841  0.2040
  282SOL    HW1  845   1.688   2.378   0.419 -1.8317 -0.3840  0.6397
  282SOL    HW2  846   1.656   2.528   0.495 -0.4929  1.9126 -2.1812
  283SOL     OW  847   1.192   0.971   0.738  0.2166  0.0760  0.1300
  283SOL    HW1  848   1.207   0.899   0.808 -1.9286  0.5752  2.2121
  283SOL    HW2  849   1.144   1.053   0.782 -0.2567 -0.8013 -1.3379
  284SOL     OW  850   2.361   2.801   2.383  0.4325 -0.1357 -0.4042
  284SOL    HW1  851   2.336   2.888   2.337 -0.5664 -0.3558 -1.3857
  284SOL    HW2  852   2.374   2.812   2.486  1.7728  2.6374 -3.4716
  285SOL     OW  853   1.342   2.978   2.542 -0.1334  0.1796  0.6606
  285SOL    HW1  854   1.358   2.986   2.438  0.9610 -1.7834 -3.0800
  285SOL    HW2  855   1.254   3.020   2.580  0.5841  0.6239  0.2947
  286SOL     OW  856   0.470   0.432   0.686 -0.1529 -0.1214  0.2141
  286SOL    HW1  857   0.471   0.397   0.783  0.0484 -0.6907  0.2031
  286SOL    HW2  858   0.458   0.359   0.617 -0.6771  1.0295 -0.7073
  287SOL     OW  859   0.109   1.334   2.511  0.1806 -0.3252  0.9517
  287SOL    HW1  860   0.074   1.273   2.586 -0.5433 -2.2669  0.1334
  287SOL    HW2  861   0.062   1.429   2.513  2.1454 -0.6697  2.7000
  288SOL     OW  862   1.609   2.694   1.475  0.2537  0.4734  0.5247
  288SOL    HW1  863   1.678   2.618   1.445 -2.1223  0.4156 -0.5337
  288SOL    HW2  864   1.576   2.769   1.413 -0.1930  4.0531 -0.5160
  289SOL     OW  865   0.651   2.741   0.772  0.0515 -0.1437 -0.1110
  289SOL    HW1  866   0.682   2.819   0.715  0.7513 -1.2386  1.1059
  289SOL    HW2  867   0.683   2.744   0.874 -1.9393  1.5496  2.4261
  290SOL     OW  868   2.884   1.192   1.580 -0.2287 -0.3740 -0.0394
  290SOL    HW1  869   2.782   1.188   1.577 -1.4178 -1.4483 -3.0509
  290SOL    HW2  870   2.924   1.157   1.666 -1.2889 -2.0689 -1.9332
  291SOL     OW  871   1.999   0.058   0.106 -0.2537 -0.1390  0.4843
  291SOL    HW1  872   1.997   0.064   0.211  1.1459 -0.3502  0.6999
  291SOL    HW2  873   2.037   0.143   0.059  1.1605 -0.9570  2.6704
  292SOL     OW  874   2.970   1.147   3.034 -0.1562 -0.6276 -0.0557
  292SOL    HW1  875   2.907   1.216   2.987  1.4737  0.5468 -0.3113
  292SOL    HW2  876   3.064   1.144   2.991 -1.5463  3.1503  2.7919
  293SOL     OW  877   0.633   2.094   0.122 -0.3727  0.6043 -0.3751
  293SOL    HW1  878   0.599   2.167   0.190 -1.4297  1.3815  0.3107
  293SOL    HW2  879   0.730   2.065   0.133  0.7356  3.6815 -0.5345
  294SOL     OW  880   1.674   2.151   1.748  0.0716  0.0188 -0.0142
  294SOL    HW1  881   1.729   2.183   1.830 -0.9202  1.3250  0.3505
  294SOL    HW2  882   1.663   2.219   1.669  1.0579  0.3155  2.4921
  295SOL     OW  883   0.997   1.010   0.402  0.5473 -0.4819  0.5060
  295SOL    HW1  884   1.087   0.960   0.395 -2.9760  0.4565  0.7562
  295SOL    HW2  885   0.983   1.047   0.493  1.4311 -0.3501  0.2863
  296SOL     OW  886   1.314   2.031   2.508  0.4297 -0.0485 -0.6211
  296SOL    HW1  887   1.309   2.078   2.420  4.9334 -0.7744  2.5907
  296SOL    HW2  888   1.324   1.926   2.499 -0.7823  2.4203  1.4125
  297SOL     OW  889   1.471   0.632   1.345 -0.0656 -0.6036  0.3555
  297SOL    HW1  890   1.497   0.534   1.333 -1.7164 -0.4711 -1.1134
  297SOL    HW2  891   1.544   0.699   1.370  2.7346 -2.7965 -0.9226
  298SOL     OW  892   0.448   1.213   2.864 -0.8077  0.0537  0.4077
  298SOL    HW1  893   0.472   1.150   2.944 -1.4057 -0.5599 -1.3263
  298SOL    HW2  894   0.525   1.235   2.799 -1.8559  0.8185  2.0865
  299SOL     OW  895   0.455   0.331   1.467  0.8836 -0.4066  0.2783
  299SOL    HW1  896   0.475   0.372   1.373 -1.4835 -0.7783 -2.0080
  299SOL    HW2  897   0.535   0.309   1.528  0.4604 -0.5205  3.9808
  300SOL     OW  898   1.185   1.819   2.881 -0.6657 -0.2640  0.0098
  300SOL    HW1  899   1.181   1.732   2.834  0.4583 -0.6854  2.3983
  300SOL    HW2  900   1.191   1.804   2.984  1.5480  1.3656  0.3444
  301SOL     OW  901   0.433   0.287   0.436  0.0084 -0.0236  0.3670
  301SOL    HW1  902   0.355   0.309   0.375  3.0387  0.8281 -0.9884
  301SOL    HW2  903   0.488   0.213   0.399 -1.9270 -0.0023  0.5933
  302SOL     OW  904   1.239   2.327   2.330  0.2235 -0.3310 -0.1928
  302SOL    HW1  905   1.156   2.353   2.394 -1.6483 -1.9965  3.1860
  302SOL    HW2  906   1.221   2.241   2.282 -0.1017  3.1011  0.8094
  303SOL     OW  907   0.940   2.352   0.797  0.3034 -0.5340 -0.2063
  303SOL    HW1  908   0.978   2.386   0.706  0.3582 -0.6945 -0.5051
  303SOL    HW2  909   0.958   2.425   0.873 -2.1686  0.5279 -0.2926
  304SOL     OW  910   0.140   2.056   0.672 -0.1536 -0.4071 -0.7841
  304SOL    HW1  911   0.176   1.991   0.605  1.8036 -0.3725  1.5626
  304SOL    HW2  912   0.074   2.123   0.627 -0.5392 -0.7054 -1.1847
  305SOL     OW  913   1.615   0.891   0.632 -0.3379  0.4120  0.2204
  305SOL    HW1  914   1.570   0.905   0.536 -1.0904  0.4507  0.5319
  305SOL    HW2  915   1.668   0.801   0.621  4.0734  2.0448 -2.2907
  306SOL     OW  916   0.448   1.875   1.885  0.5970  0.2780  0.2480
  306SOL    HW1  917   0.529   1.825   1.844  0.3505 -0.9420  1.9242
  306SOL    HW2  918   0.398   1.821   1.959  1.1323 -2.4670  1.9934
  307SOL     OW  919   0.027   0.837   2.599 -0.3257  0.3213  0.3405
  307SOL    HW1  920   0.024   0.936   2.628  4.0072 -0.2221  0.8955
  307SOL    HW2  921  -0.066   0.793   2.605 -0.2343 -0.7254  1.4177
  308SOL     OW  922   1.560   2.631   2.882 -0.4980  0.2910  0.5242
  308SOL    HW1  923   1.553   2.609   2.783  3.0309 -2.4197 -1.6735
  308SOL    HW2  924   1.493   2.577   2.941 -1.3948  3.7172 -1.8874
  309SOL     OW  925   1.215   0.073   1.741 -0.0067  0.7364 -0.3466
  309SOL    HW1  926   1.310   0.036   1.737 -2.5871  3.7358 -0.3305
  309SOL    HW2  927   1.189   0.121   1.648 -0.5847 -0.6813 -0.1646
  310SOL     OW  928   1.394   2.612   0.721  0.3918 -0.7877  0.6530
  310SOL    HW1  929   1.402   2.699   0.776  0.8720 -0.7244 -0.9261
  310SOL    HW2  930   1.452   2.602   0.637 -1.9572 -1.8349  3.0672
  311SOL     OW  931   1.202   0.949   1.538 -0.9326  1.0245  0.3960
  311SOL    HW1  932   1.248   0.882   1.482 -0.5012  1.2907  0.9242
  311SOL    HW2  933   1.245   1.044   1.539  0.4099  0.4495  2.2902
  312SOL     OW  934   1.617   0.683   0.979 -0.0985  0.1726  0.7297
  312SOL    HW1  935   1.608   0.787   0.966  1.8075 -1.0672  1.2159
  312SOL    HW2  936   1.547   0.628   0.925  3.1651  1.0631 -0.2357
  313SOL     OW  937   1.541   1.407   0.629 -0.4327  0.0227  0.4663
  313SOL    HW1  938   1.441   1.420   0.624  1.0445 -1.6333  0.8980
  313SOL    HW2  939   1.566   1.307   0.627  0.6790 -0.4543  2.2800
  314SOL     OW  940   2.974   0.019   3.023  0.3670 -0.2248  0.9433
  314SOL    HW1  941   2.951   0.101   3.082 -1.3267  0.0438 -1.3861
  314SOL    HW2  942   2.906  -0.061   3.035  0.3701  1.4504  2.1733
  315SOL     OW  943   1.229   0.248   2.785 -0.3848  0.0538  0.0134
  315SOL    HW1  944   1.225   0.165   2.721  2.7348 -1.0419 -0.4045
  315SOL    HW2  945   1.262   0.214   2.879 -4.6726  0.2883 -0.1820
  316SOL     OW  946   1.699   2.086   0.918  0.1046  0.4650  0.3028
  316SOL    HW1  947   1.650   2.088   1.013 -0.4684  1.9669  1.7408
  316SOL    HW2  948   1.701   2.181   0.876  1.0920 -2.9661 -0.5243
  317SOL     OW  949   1.133   0.695   2.840 -0.0103  0.3003 -0.0893
  317SOL    HW1  950   1.072   0.718   2.921  2.5100  1.0138 -1.2937
  317SOL    HW2  951   1.101   0.608   2.793  1.8372 -0.1238 -1.4472
  318SOL     OW  952   1.469   3.052   2.282  0.0874 -0.3789 -0.1233
  318SOL    HW1  953   1.421   3.131   2.237  1.2644 -2.5198 -3.1557
  318SOL    HW2  954   1.517   2.981   2.220 -1.6556 -0.3645 -2.9262
  319SOL     OW  955   0.651   2.409   2.921 -0.0353  0.0602 -0.1332
  319SOL    HW1  956   0.571   2.392   2.989  0.9688 -2.1746 -0.1125
  319SOL    HW2  957   0.696   2.321   2.890 -2.3848 -0.6017  0.5575
  320SOL     OW  958   1.640   2.180   0.345 -0.1703 -0.4931 -0.0930
  320SOL    HW1  959   1.746   2.175   0.363  2.9245  0.4643  0.2971
  320SOL    HW2  960   1.589   2.153   0.428 -1.8071 -1.5512 -0.6194
  321SOL     OW  961   1.574   2.682   0.521  0.5133 -0.1283 -0.8290
  321SOL    HW1  962   1.486   2.739   0.504 -0.0701 -2.2986  0.4757
  321SOL    HW2  963   1.656   2.740   0.535  1.0998  0.0159  1.6996
  322SOL     OW  964   2.561   1.114   2.262 -0.6143 -0.3403 -0.2041
  322SOL    HW1  965   2.645   1.149   2.312 -1.4032 -0.5181 -1.6676
  322SOL    HW2  966   2.541   1.017   2.275 -0.3564  2.4881  0.6197
  323SOL     OW  967   0.976   2.673   0.801  0.4562  0.0555 -0.3470
  323SOL    HW1  968   1.005   2.606   0.726 -2.2080  1.0545  1.2399
  323SOL    HW2  969   1.030   2.763   0.799 -0.1167  1.6096 -1.9372
  324SOL     OW  970   0.165   2.476   2.464  0.9751 -0.3932 -0.0730
  324SOL    HW1  971   0.122   2.399   2.517 -0.1570  0.1602 -0.8035
  324SOL    HW2  972   0.120   2.567   2.486  2.0834 -1.4496 -1.1290
  325SOL     OW  973   1.185   3.067   0.463  0.1531 -0.7761 -0.0636
  325SOL    HW1  974   1.236   3.118   0.385  1.0420 -0.9222 -2.8264
  325SOL    HW2  975   1.205   3.110   0.556 -0.3833  0.9005  1.7780
  326SOL     OW  976   2.444   0.751   3.072  0.5951  0.2721 -0.4196
  326SOL    HW1  977   2.393   0.704   2.994  1.3353  1.6016 -1.0881
  326SOL    HW2  978   2.501   0.689   3.135  0.0703 -2.5216 -0.1363
  327SOL     OW  979   2.831   0.398   0.528  0.5593  0.1185 -0.1357
  327SOL    HW1  980   2.788   0.398   0.434 -0.4470 -1.6699 -0.4760
  327SOL    HW2  981   2.771   0.354   0.599  1.6612 -0.9569 -2.2283
  328SOL     OW  982   2.471   0.547   0.400 -0.3263 -0.1392 -0.2380
  328SOL    HW1  983   2.395   0.609   0.431 -0.3064  3.1592 -0.9784
  328SOL    HW2  984   2.524   0.504   0.475  1.7076 -0.4424 -0.1124
  329SOL     OW  985   2.975   2.998   2.158 -0.4568  0.1073  0.4298
  329SOL    HW1  986   3.010   2.924   2.221 -0.6321 -0.2945  0.9142
  329SOL    HW2  987   3.029   3.087   2.171 -1.3671 -0.0230 -1.0080
  330SOL     OW  988   0.525   0.167   1.887 -0.1279  0.1000 -0.3587
  330SOL    HW1  989   0.566   0.260   1.871  2.2361 -0.2078  0.9384
  330SOL    HW2  990   0.559   0.126   1.978  1.7270  1.0573  0.8725
  331SOL     OW  991   2.955   1.926   1.132  0.2363  0.1887 -0.2784
  331SOL    HW1  992   2.984   2.001   1.067  0.5428  2.0965  0.0082
  331SOL    HW2  993   2.872   1.956   1.188  0.5394 -3.5458 -0.2956
  332SOL     OW  994   0.420   1.134   0.086 -0.1133  0.1904  0.1060
  332SOL    HW1  995   0.371   1.084   0.006 -0.9308 -0.3870 -1.2849
  332SOL    HW2  996   0.353   1.173   0.155  0.7610 -1.2128  1.0516
  333SOL     OW  997   2.869   1.030   0.307  0.1593  0.2686  0.2748
  333SOL    HW1  998   2.930   1.078   0.376  0.8629 -0.3658  0.0692
  333SOL    HW2  999   2.922   0.968   0.242  0.0790  1.8408 -2.7090
  334SOL     OW 1000   1.659   1.179   1.913  0.3983  0.4973 -0.2508
  334SOL    HW1 1001   1.752   1.171   1.875  1.4195  0.6910  1.0917
  334SOL    HW2 1002   1.631   1.273   1.956  0.1211  1.8727  0.0221
  335SOL     OW 1003   2.020   2.762   2.637 -0.0292 -0.5214 -0.0330
  335SOL    HW1 1004   1.942   2.782   2.705 -1.7367  2.4826 -4.4965
  335SOL    HW2 1005   2.113   2.809   2.644 -1.2685 -2.0188 -3.0640
  336SOL     OW 1006   0.255   0.114   2.750 -0.0363  0.0827 -0.0051
  336SOL    HW1 1007   0.355   0.098   2.742 -1.7145  0.1974  3.4503
  336SOL    HW2 1008   0.224   0.200   2.797  1.1092  0.2643  0.3255
  337SOL     OW 1009   0.893   2.763   2.811  0.3587  0.2877 -0.2781
  337SOL    HW1 1010   0.906   2.753   2.912 -0.0860 -2.6387  0.8420
  337SOL    HW2 1011   0.986   2.756   2.763  1.3537 -0.5145 -1.7498
  338SOL     OW 1012   0.034   0.998   0.632  0.0725 -0.4351  0.5186
  338SOL    HW1 1013  -0.063   0.970   0.653  0.9304  0.0485  0.4309
  338SOL    HW2 1014   0.050   1.095   0.606  2.7647 -1.0302  2.6318
  339SOL     OW 1015   1.653   1.399   2.079  0.0721  0.0607  0.0024
  339SOL    HW1 1016   1.561   1.439   2.101  3.1862 -0.1982  0.2947
  339SOL    HW2 1017   1.726   1.465   2.112 -2.8047 -1.8442  1.8302
  340SOL     OW 1018   2.285   0.808   1.177 -0.3131 -0.0890  0.3176
  340SOL    HW1 1019   2.185   0.833   1.171 -0.9040 -0.0356  0.8235
  340SOL    HW2 1020   2.302   0.714   1.137 -1.0004  0.8269 -0.6688
  341SOL     OW 1021   1.896   2.153   0.368  0.2500  0.4111 -0.2676
  341SOL    HW1 1022   1.925   2.165   0.266 -2.0886 -1.8084 -0.5189
  341SOL    HW2 1023   1.974   2.135   0.432 -1.5040  0.1933  1.3345
  342SOL     OW 1024   2.208   2.087   2.764  0.2551  0.6127 -0.1238
  342SOL    HW1 1025   2.258   1.998   2.773 -1.7933  1.5985  1.7269
  342SOL    HW2 1026   2.110   2.074   2.804 -2.1981 -0.2116  2.0170
  343SOL     OW 1027   0.338   0.802   2.773  0.4917 -0.3208  0.0814
  343SOL    HW1 1028   0.335   0.875   2.699  0.6430 -0.3519 -0.9986
  343SOL    HW2 1029   0.430   0.786   2.809 -2.9306 -4.6419 -2.0714
  344SOL     OW 1030   1.904   1.456   0.403  0.0781 -0.3460  0.3426
  344SOL    HW1 1031   1.910   1.366   0.351 -0.8382 -0.5285 -1.0478
  344SOL    HW2 1032   1.808   1.490   0.415 -0.8377 -1.8684  1.7108
  345SOL     OW 1033   1.387   2.237   2.846  0.2004  0.5748  0.4478
  345SOL    HW1 1034   1.303   2.198   2.801  2.3259  0.7822 -0.8276
  345SOL    HW2 1035   1.474   2.205   2.799 -0.3539  1.2545 -0.1763
  346SOL     OW 1036   2.322   0.856   1.454 -0.3246  0.1591  0.1958
  346SOL    HW1 1037   2.249   0.911   1.505  0.7446 -0.3706  1.2769
  346SOL    HW2 1038   2.305   0.844   1.352 -2.0678 -0.5987  1.6034
  347SOL     OW 1039   0.721   2.849   1.512 -0.3336  0.5026 -0.2457
  347SOL    HW1 1040   0.687   2.801   1.597 -0.3679  2.1153  1.9736
  347SOL    HW2 1041   0.641   2.887   1.458 -1.2029 -1.9565 -0.4059
  348SOL     OW 1042   0.089   0.682   2.863 -0.6157 -0.6700  0.3998
  348SOL    HW1 1043   0.005   0.668   2.801 -0.8113 -3.0133  0.6024
  348SOL    HW2 1044   0.165   0.741   2.819 -2.4238 -3.0574 -1.1019
  349SOL     OW 1045   1.881   0.430   2.816 -0.4181 -0.2817 -0.1754
  349SOL    HW1 1046   1.840   0.502   2.747 -2.7945  1.2729 -0.6397
  349SOL    HW2 1047   1.838   0.448   2.910  0.0905  2.0151  1.0685
  350SOL     OW 1048   1.655   0.386   0.383 -0.4528 -0.0048  0.0605
  350SOL    HW1 1049   1.738   0.395   0.446  0.8089 -1.1094 -2.1314
  350SOL    HW2 1050   1.587   0.466   0.371 -1.8122  2.8770 -0.2194
  351SOL     OW 1051   0.939   0.916   2.065  0.6235  0.0220 -0.0354
  351SOL    HW1 1052   0.936   1.009   2.018  0.1023  1.4324  1.2450
  351SOL    HW2 1053   0.940   0.832   2.003  0.6570 -3.5348 -0.9043
  352SOL     OW 1054   2.000   1.327   0.626  0.2331 -0.8223  0.9072
  352SOL    HW1 1055   1.941   1.386   0.564 -1.2772  1.4239 -2.1806
  352SOL    HW2 1056   2.100   1.370   0.639  2.8878 -0.5347 -4.5127
  353SOL     OW 1057   2.124   2.895   1.119  0.1621  0.5882  0.1345
  353SOL    HW1 1058   2.192   2.836   1.165 -1.4073  1.8859 -0.1198
  353SOL    HW2 1059   2.065   2.839   1.052  1.4747  0.5344 -1.3584
  354SOL     OW 1060   0.249   1.396   2.846  0.4354 -0.1446 -0.3485
  354SOL    HW1 1061   0.269   1.455   2.765 -1.4048 -0.0973  1.1258
  354SOL    HW2 1062   0.324   1.322   2.866  1.1121  1.2636  1.6300
  355SOL     OW 1063   0.508   1.528   0.551  0.6555  0.2681 -0.5745
  355SOL    HW1 1064   0.507   1.616   0.608 -2.3726  0.1475  1.7278
  355SOL    HW2 1065   0.578   1.457   0.584  2.4827 -1.6813  1.8169
  356SOL     OW 1066   0.917   0.392   2.117  0.2227 -0.2774  0.0905
  356SOL    HW1 1067   0.989   0.456   2.086 -0.9185 -0.3129  1.4605
  356SOL    HW2 1068   0.920   0.301   2.059  4.3217  0.5239 -2.9610
  357SOL     OW 1069   1.011   1.268   0.290 -0.6430  0.0168  0.7994
  357SOL    HW1 1070   0.932   1.263   0.222  2.9275  2.7656 -1.0685
  357SOL    HW2 1071   1.005   1.195   0.365  1.3918  0.9562  2.6003
  358SOL     OW 1072   1.648   1.565   0.435  0.1059 -0.3998  0.3053
  358SOL    HW1 1073   1.628   1.486   0.504 -0.8240 -1.3887  1.8346
  358SOL    HW2 1074   1.560   1.611   0.397 -1.0987 -1.1867 -2.2128
  359SOL     OW 1075   1.556   2.683   0.135  0.3664 -0.2836 -0.8539
  359SOL    HW1 1076   1.619   2.633   0.075 -1.3405 -0.4612 -1.0240
  359SOL    HW2 1077   1.453   2.665   0.112 -1.3120 -1.5454 -0.8719
  360SOL     OW 1078   0.909   0.595   0.510 -0.1108 -0.1537 -0.1970
  360SOL    HW1 1079   0.819   0.606   0.569 -1.0478 -0.4469 -1.4225
  360SOL    HW2 1080   0.918   0.501   0.465  0.1643 -2.0375 -0.0022
  361SOL     OW 1081   1.254   1.382   0.670  0.4823  0.2029  0.5313
  361SOL    HW1 1082   1.295   1.402   0.764  0.3452  0.0695  0.0614
  361SOL    HW2 1083   1.152   1.420   0.660 -2.3171  1.3081  0.5904
  362SOL     OW 1084   1.385   1.751   0.776 -0.1955 -0.4083  0.3112
  362SOL    HW1 1085   1.412   1.690   0.855  0.1035  1.4767 -0.8769
  362SOL    HW2 1086   1.467   1.805   0.744 -1.5493 -0.3359 -0.2496
  363SOL     OW 1087   1.172   1.341   2.009  0.4680 -0.5284  0.3483
  363SOL    HW1 1088   1.146   1.404   2.085  3.9183 -1.1828  0.4881
  363SOL    HW2 1089   1.211   1.389   1.927  1.0699 -1.7603 -0.9051
  364SOL     OW 1090   0.548   2.336   1.933 -0.0638  0.0589 -0.5586
  364SOL    HW1 1091   0.466   2.395   1.963 -1.9307  0.5459  1.1612
  364SOL    HW2 1092   0.584   2.373   1.841 -2.8890 -0.1994 -1.2093
  365SOL     OW 1093   1.081   1.948   1.379  0.0388  0.2977  0.2127
  365SOL    HW1 1094   0.989   1.980   1.422  0.5810 -0.5766  1.3525
  365SOL    HW2 1095   1.071   1.869   1.312 -0.3379 -0.1649  0.4678
  366SOL     OW 1096   2.828   2.079   0.469 -0.1364 -0.3292  0.2158
  366SOL    HW1 1097   2.738   2.033   0.479 -1.5726  0.0034 -0.9755
  366SOL    HW2 1098   2.898   2.012   0.424 -0.4285  0.8151 -1.2100
  367SOL     OW 1099   0.813   1.214   0.117  0.0718 -0.3186  0.4750
  367SOL    HW1 1100   0.812   1.116   0.144 -2.1451  3.0659  2.3656
  367SOL    HW2 1101   0.807   1.225   0.017  0.5502  0.3942  4.8715
  368SOL     OW 1102   1.543   0.552   0.706 -0.2986  0.1459  0.3192
  368SOL    HW1 1103   1.482   0.591   0.627 -2.0325  2.1912 -0.7800
  368SOL    HW2 1104   1.641   0.593   0.712 -0.0831 -0.2374  3.0644
  369SOL     OW 1105   0.291   1.722   0.086 -0.3347  0.6148 -0.6342
  369SOL    HW1 1106   0.337   1.806   0.135  0.7245  2.0864 -0.4703
  369SOL    HW2 1107   0.198   1.694   0.113  3.2645 -2.5093 -1.6532
  370SOL     OW 1108   0.392   2.109   1.004 -0.2257  0.1053  1.1240
  370SOL    HW1 1109   0.394   2.211   0.977  2.0750 -0.8109 -1.6972
  370SOL    HW2 1110   0.295   2.074   1.001  0.5133 -0.7509  1.3745
  371SOL     OW 1111   2.909   2.203   2.744 -0.1256  0.1578 -0.3929
  371SOL    HW1 1112   2.918   2.193   2.846  0.9054  1.1026  2.5855
  371SOL    HW2 1113   3.000   2.227   2.702 -1.6945  0.0108  0.9756
  372SOL     OW 1114   0.933   1.864   0.913  0.5865  0.5429  0.2010
  372SOL    HW1 1115   0.879   1.952   0.918  1.1280  1.6369  0.4260
  372SOL    HW2 1116   1.024   1.867   0.861  1.4640  3.3041  0.2044
  373SOL     OW 1117   1.994   2.004   0.936 -0.0690  0.0025 -0.2871
  373SOL    HW1 1118   2.045   2.006   1.025 -1.2897  1.4926 -1.2936
  373SOL    HW2 1119   1.893   2.005   0.948  0.8386 -0.4935 -1.6582
  374SOL     OW 1120   1.876   0.446   0.555 -0.3445  0.4176 -0.2290
  374SOL    HW1 1121   1.884   0.412   0.649 -3.1733  3.2094  0.2300
  374SOL    HW2 1122   1.964   0.441   0.503 -5.3222  2.2247  2.7499
  375SOL     OW 1123   2.388   2.158   1.125 -0.0453 -0.6241  0.7325
  375SOL    HW1 1124   2.459   2.156   1.049  1.0998  0.5418  3.7622
  375SOL    HW2 1125   2.426   2.137   1.216 -2.8239  0.2424  0.5016
  376SOL     OW 1126   3.047   0.614   1.446 -0.2570 -0.1362 -0.4861
  376SOL    HW1 1127   3.119   0.681   1.478  0.2930  0.9967 -0.7869
  376SOL    HW2 1128   2.957   0.634   1.493 -0.0651 -2.3653 -1.0399
  377SOL     OW 1129   2.269   2.849   0.326  0.4565 -0.8953 -0.5209
  377SOL    HW1 1130   2.264   2.950   0.344 -0.3034 -2.1192 -2.1461
  377SOL    HW2 1131   2.364   2.816   0.356 -1.7645  0.6644 -2.1618
  378SOL     OW 1132   1.849   1.899   2.637 -0.6834  0.2686  0.2001
  378SOL    HW1 1133   1.823   1.798   2.649 -2.3637  0.9747 -0.8680
  378SOL    HW2 1134   1.903   1.903   2.544  1.5484 -3.5338 -0.0688
  379SOL     OW 1135   0.839   0.057   2.719  0.6532  0.0670  0.3817
  379SOL    HW1 1136   0.788  -0.029   2.690  1.8048  0.7622 -0.5603
  379SOL    HW2 1137   0.784   0.148   2.709 -1.6499  0.1511 -0.2320
  380SOL     OW 1138   1.516   1.148   0.592  0.0614 -0.4012 -0.0624
  380SOL    HW1 1139   1.416   1.147   0.548 -0.0386 -0.5179  2.4991
  380SOL    HW2 1140   1.524   1.075   0.664 -1.0258 -1.6146 -0.3836
  381SOL     OW 1141   1.316   1.205   1.497  0.3079 -0.4695 -0.0977
  381SOL    HW1 1142   1.346   1.235   1.405  0.1466  2.3124  0.6131
  381SOL    HW2 1143   1.385   1.230   1.570 -1.2530 -1.3110 -0.3153
  382SOL     OW 1144   1.746   0.802   0.280  0.1579 -0.3323  0.1107
  382SOL    HW1 1145   1.772   0.764   0.184 -1.5227 -2.0569  0.5369
  382SOL    HW2 1146   1.833   0.825   0.335 -0.4706  0.5776 -0.4316
  383SOL     OW 1147   2.588   0.996   1.511 -0.1448 -0.7517 -0.0846
  383SOL    HW1 1148   2.505   0.964   1.448 -0.7205  1.1645 -1.0080
  383SOL    HW2 1149   2.675   0.947   1.488 -3.3165 -1.3685 -2.8203
  384SOL     OW 1150   0.931   2.279   0.112 -0.5690  0.0182 -0.3817
  384SOL    HW1 1151   0.869   2.353   0.149 -3.0323  1.5336 -1.5636
  384SOL    HW2 1152   0.933   2.198   0.182 -0.5945  2.2316 -0.5964
  385SOL     OW 1153   3.016   2.011   1.747 -0.2996 -0.1109  0.3300
  385SOL    HW1 1154   3.065   2.103   1.749 -2.7206  1.0237  0.6914
  385SOL    HW2 1155   3.064   1.920   1.715  1.1598 -0.3135 -1.5634
  386SOL     OW 1156   0.439   1.135   0.439  0.4672  0.3034  0.4540
  386SOL    HW1 1157   0.460   1.035   0.432 -2.4634  1.4234 -0.0778
  386SOL    HW2 1158   0.374   1.167   0.360 -2.2790  2.3594 -1.4072
  387SOL     OW 1159   0.972   0.308   1.674  0.0648 -1.0148 -0.3719
  387SOL    HW1 1160   1.046   0.385   1.664 -0.7636  1.5629  0.7584
  387SOL    HW2 1161   0.964   0.245   1.598  0.4158  0.2282  3.4209
  388SOL     OW 1162   1.163   2.616   1.779 -0.6497  0.1956 -0.0354
  388SOL    HW1 1163   1.170   2.623   1.672  0.6784  0.2402 -3.5485
  388SOL    HW2 1164   1.245   2.561   1.813  0.3514 -1.8454  1.4362
  389SOL     OW 1165   0.261   3.105   1.136  0.4385  0.8687 -0.4715
  389SOL    HW1 1166   0.193   3.098   1.217 -0.7600 -0.0322  3.4414
  389SOL    HW2 1167   0.290   3.010   1.104 -0.6326  1.2486 -0.7780
  390SOL     OW 1168   1.027   0.875   1.245 -0.4514  0.1938 -0.0500
  390SOL    HW1 1169   1.114   0.823   1.269  0.7408  1.3557 -1.9540
  390SOL    HW2 1170   0.976   0.898   1.327 -1.5154 -0.0256 -2.8858
  391SOL     OW 1171   2.104   1.137   1.041 -0.4768 -0.0146  0.5242
  391SOL    HW1 1172   2.024   1.075   1.047  0.9154  0.0206  0.7106
  391SOL    HW2 1173   2.172   1.106   0.973 -0.7980  1.9018  4.6749
  392SOL     OW 1174   0.867   2.716   3.079  0.0135 -0.0422 -0.6268
  392SOL    HW1 1175   0.790   2.721   3.144 -0.3948  0.4534 -1.3393
  392SOL    HW2 1176   0.949   2.768   3.113 -0.5878 -0.8553 -0.0985
  393SOL     OW 1177   0.347   0.587   2.008  0.5598 -0.0874  0.9666
  393SOL    HW1 1178   0.252   0.552   1.985  0.3039  0.8281 -2.0399
  393SOL    HW2 1179   0.414   0.553   1.935  0.8630  1.0167  3.0577
  394SOL     OW 1180   2.843   1.813   2.785  0.0736  0.3811  0.0540
  394SOL    HW1 1181   2.926   1.831   2.726  1.0485  2.6996  2.5091
  394SOL    HW2 1182   2.788   1.903   2.801  2.8462  0.1355  0.7416
  395SOL     OW 1183   1.598   1.925   0.704  0.2555  0.1113  0.5061
  395SOL    HW1 1184   1.676   1.863   0.663  0.3117  1.7854  2.2902
  395SOL    HW2 1185   1.637   1.983   0.783 -2.1538 -1.4001  0.6831
  396SOL     OW 1186   2.753   2.063   1.290  0.0214 -0.0204  0.6647
  396SOL    HW1 1187   2.801   2.049   1.380  1.2860 -1.3334  1.3682
  396SOL    HW2 1188   2.651   2.082   1.302  0.0927  0.0017  1.3492
  397SOL     OW 1189   1.006   2.077   0.646  0.3886  0.1657  0.1599
  397SOL    HW1 1190   0.927   2.030   0.601 -0.7265 -2.2679 -1.4954
  397SOL    HW2 1191   0.972   2.159   0.703 -1.1478 -3.2369  1.1989
  398SOL     OW 1192   2.169   0.049   1.067  0.9190 -0.2515  0.0495
  398SOL    HW1 1193   2.149  -0.053   1.083  2.3159  1.9152 -1.4141
  398SOL    HW2 1194   2.093   0.111   1.100 -1.7773  1.3831  0.7605
  399SOL     OW 1195   2.951   2.558   2.743 -0.0074 -1.0057  0.0297
  399SOL    HW1 1196   2.899   2.539   2.657  0.8532  0.9906  1.4302
  399SOL    HW2 1197   2.889   2.538   2.828 -0.4354  2.3009 -0.2518
  400SOL     OW 1198   0.844   1.603   1.267  0.1239  0.3314 -0.1118
  400SOL    HW1 1199   0.779   1.641   1.339  0.2886 -1.4710  0.4080
  400SOL    HW2 1200   0.817   1.633   1.172  0.6597 -1.3569  1.0835
  401SOL     OW 1201   1.837   0.112   1.276 -0.1241  0.5194 -0.2763
  401SOL    HW1 1202   1.892   0.150   1.351  0.8499 -2.0755 -2.1569
  401SOL    HW2 1203   1.736   0.119   1.303 -0.5770 -1.9092 -0.6529
  402SOL     OW 1204   1.309   0.147   3.042  0.4118 -0.2974 -0.0534
  402SOL    HW1 1205   1.404   0.144   3.015 -3.3967 -0.9551 -0.0590
  402SOL    HW2 1206   1.285   0.234   3.083  2.3100  0.4391  0.7998
  403SOL     OW 1207   2.283   1.811   0.951  0.4461  0.3190 -0.1681
  403SOL    HW1 1208   2.384   1.794   0.971  1.2949  0.7604 -0.4011
  403SOL    HW2 1209   2.241   1.878   1.015  0.3869 -0.6292 -3.2840
  404SOL     OW 1210   0.186   2.455   2.821 -0.3998  0.6747  0.6717
  404SOL    HW1 1211   0.285   2.438   2.785 -1.3831  0.6915  2.4639
  404SOL    HW2 1212   0.156   2.554   2.828 -1.2184  0.0666 -3.6768
  405SOL     OW 1213   0.269   2.551   0.587 -0.0598  1.1812 -0.1126
  405SOL    HW1 1214   0.243   2.535   0.487  0.2937  2.2460 -3.1028
  405SOL    HW2 1215   0.314   2.647   0.605 -0.2684  3.9986  1.2652
  406SOL     OW 1216   0.020   1.521   2.958  0.1037  0.1606 -0.0718
  406SOL    HW1 1217   0.107   1.483   2.912 -0.3546  0.5724  1.9831
  406SOL    HW2 1218   0.037   1.539   3.058 -0.1623  1.0558  0.3725
  407SOL     OW 1219   1.541   0.943   0.900 -0.3108 -0.2379 -0.5343
  407SOL    HW1 1220   1.539   0.921   0.796 -0.0309 -2.5739 -2.6818
  407SOL    HW2 1221   1.464   1.008   0.930  0.2359  2.4378 -2.6067
  408SOL     OW 1222   1.475   2.375   0.968  0.5858  0.5829  0.1157
  408SOL    HW1 1223   1.537   2.357   0.887  1.9061 -0.8573 -0.8577
  408SOL    HW2 1224   1.509   2.444   1.042  1.0817  1.3153 -1.0378
  409SOL     OW 1225   0.655   0.892   0.677  0.6678 -0.3225  0.4494
  409SOL    HW1 1226   0.570   0.895   0.620 -0.1089  1.1529  0.8800
  409SOL    HW2 1227   0.685   0.796   0.690 -2.3235 -0.0205 -1.6209
  410SOL     OW 1228   1.322   2.003   1.503 -0.1028  0.2107  0.1509
  410SOL    HW1 1229   1.312   2.068   1.586  0.2926  0.6454 -2.8582
  410SOL    HW2 1230   1.233   1.961   1.459 -1.6340 -0.1366 -1.6269
  411SOL     OW 1231   2.367   1.840   0.037 -0.1991 -0.0827  0.4435
  411SOL    HW1 1232   2.281   1.843  -0.028 -0.8077  1.4619 -1.1178
  411SOL    HW2 1233   2.455   1.822  -0.015  1.7073 -1.4433  1.4240
  412SOL     OW 1234   1.513   2.400   2.232 -0.4299 -0.0502 -0.0194
  412SOL    HW1 1235   1.511   2.503   2.246  2.4507  0.3350 -1.9379
  412SOL    HW2 1236   1.437   2.348   2.281  2.5055  0.0431 -1.2750
  413SOL     OW 1237   3.017   0.272   2.914 -0.3830  0.6273  0.3470
  413SOL    HW1 1238   2.981   0.173   2.925 -3.0057 -0.6227 -2.7693
  413SOL    HW2 1239   3.113   0.284   2.951 -1.3953 -1.3711  3.5975
  414SOL     OW 1240   1.785   1.333   1.315 -0.1736  0.7374  0.4901
  414SOL    HW1 1241   1.734   1.417   1.346  2.2113  0.4443 -0.9281
  414SOL    HW2 1242   1.749   1.302   1.217  0.6872  0.4668 -0.4973
  415SOL     OW 1243   0.364   2.269   0.667  0.2363 -0.0148  0.2346
  415SOL    HW1 1244   0.349   2.371   0.659  2.8703  1.8836 -1.4760
  415SOL    HW2 1245   0.275   2.211   0.677 -0.9638 -2.3193 -1.4438
  416SOL     OW 1246   0.360   1.017   1.061  0.0578 -0.4016  0.2774
  416SOL    HW1 1247   0.299   1.000   0.979 -0.3601 -0.7137  2.7788
  416SOL    HW2 1248   0.453   1.043   1.030  1.6851  0.6513  0.8984
  417SOL     OW 1249   2.150   2.331   1.872  0.2188 -0.2002  0.2042
  417SOL    HW1 1250   2.177   2.232   1.848  1.3882  1.1476  0.1630
  417SOL    HW2 1251   2.050   2.337   1.909  1.2788 -1.4875 -2.0639
  418SOL     OW 1252   1.137   0.423   1.353  0.0597  0.3937 -0.9486
  418SOL    HW1 1253   1.043   0.419   1.326  3.6956  2.6115 -0.2239
  418SOL    HW2 1254   1.209   0.418   1.276 -0.3212 -0.3938  0.8137
  419SOL     OW 1255   0.974   0.374   3.011 -0.1576  0.5436  0.6414
  419SOL    HW1 1256   0.998   0.422   2.919  0.7171  2.7888  1.9448
  419SOL    HW2 1257   0.933   0.278   2.997  2.3201 -1.7106  0.5011
  420SOL     OW 1258   0.200   2.282   0.367 -0.0115 -0.3562 -0.2052
  420SOL    HW1 1259   0.156   2.216   0.300  1.1973  0.9640 -0.8676
  420SOL    HW2 1260   0.129   2.300   0.443 -0.7325  1.7523  1.2575
  421SOL     OW 1261   0.329   3.076   0.645 -0.2967 -0.6805 -0.2371
  421SOL    HW1 1262   0.372   3.021   0.570  0.9535  1.3183 -0.8630
  421SOL    HW2 1263   0.403   3.140   0.682 -0.6059  0.0935 -0.6876
  422SOL     OW 1264   0.932   2.510   1.018 -0.1947 -0.2165  0.4160
  422SOL    HW1 1265   0.937   2.598   0.958  2.2007  0.5509 -0.2590
  422SOL    HW2 1266   0.985   2.510   1.110 -0.8578 -2.1057 -1.3660
  423SOL     OW 1267   0.022   0.739   1.196  0.2591  0.0900 -0.2523
  423SOL    HW1 1268  -0.015   0.699   1.280  0.5337  1.3946 -0.5931
  423SOL    HW2 1269  -0.046   0.731   1.115  1.2169 -2.4629  1.4129
  424SOL     OW 1270   1.024   2.141   2.183  0.3482 -0.0524 -0.6866
  424SOL    HW1 1271   1.060   2.229   2.136 -1.1091  0.2557  0.0638
  424SOL    HW2 1272   0.962   2.161   2.262  1.0371 -1.1018 -2.2961
  425SOL     OW 1273   2.026   1.411   1.084 -0.4590  0.1295  0.0088
  425SOL    HW1 1274   2.068   1.323   1.055 -0.7369  1.4307  0.3951
  425SOL    HW2 1275   2.050   1.484   1.021  0.4673 -2.7981 -3.0714
  426SOL     OW 1276   1.559   1.516   1.392 -0.1351  0.2620 -0.5453
  426SOL    HW1 1277   1.509   1.602   1.354  0.7929 -0.6805  1.2399
  426SOL    HW2 1278   1.568   1.512   1.497 -1.9559 -1.7872 -0.8064
  427SOL     OW 1279   1.921   2.362   2.025  0.0911  0.3009  0.3869
  427SOL    HW1 1280   1.958   2.303   2.099  2.1226  1.3032  0.1409
  427SOL    HW2 1281   1.905   2.461   2.060 -1.9730  0.1488 -1.1202
  428SOL     OW 1282   0.935   3.045   0.122 -0.2440 -0.5583  0.2474
  428SOL    HW1 1283   0.979   3.134   0.166 -0.4339 -0.1766  0.8801
  428SOL    HW2 1284   1.001   2.964   0.123 -0.1964  1.4097 -0.8696
  429SOL     OW 1285   1.332   0.050   0.233 -0.1923  0.8587  0.2661
  429SOL    HW1 1286   1.426   0.079   0.261  1.6572 -0.3101  0.6273
  429SOL    HW2 1287   1.335   0.019   0.132 -1.5078 -1.8058  0.3650
  430SOL     OW 1288   2.815   1.505   0.365 -0.0163 -0.2009 -0.0340
  430SOL    HW1 1289   2.857   1.577   0.307  1.9410 -0.9427 -2.5190
  430SOL    HW2 1290   2.784   1.540   0.459 -0.6056 -0.7199 -0.0972
  431SOL     OW 1291   2.096   1.598   0.888  0.1833  0.2835  0.7450
  431SOL    HW1 1292   2.178   1.658   0.909 -0.4783 -1.0579  1.6378
  431SOL    HW2 1293   2.013   1.656   0.865  1.2587  0.1987 -0.0484
  432SOL     OW 1294   2.892   2.294   1.242  0.1332  0.2825  0.1807
  432SOL    HW1 1295   2.844   2.206   1.249  0.8625  1.2235  2.4436
  432SOL    HW2 1296   2.922   2.345   1.326  2.6223  0.3268 -2.2866
  433SOL     OW 1297   1.835   0.325   0.786 -0.1574  0.3902  0.3392
  433SOL    HW1 1298   1.740   0.289   0.801 -0.2167 -0.1996 -0.7561
  433SOL    HW2 1299   1.891   0.301   0.873 -0.4006 -1.0563  2.4838
  434SOL     OW 1300   1.543   0.271   0.712  0.1127  0.1963 -0.5331
  434SOL    HW1 1301   1.553   0.361   0.665 -1.1975 -1.7464  0.5249
  434SOL    HW2 1302   1.531   0.279   0.820 -0.3365  0.4566  3.0835
  435SOL     OW 1303   1.432   1.540   2.117  0.4618  0.2659 -0.4727
  435SOL    HW1 1304   1.382   1.510   2.206 -0.1113 -1.9634  1.3436
  435SOL    HW2 1305   1.399   1.629   2.073 -1.6533  2.3793  1.7948
  436SOL     OW 1306   1.637   2.696   2.368  0.6445 -0.9656  0.0636
  436SOL    HW1 1307   1.600   2.787   2.406 -0.9205  1.4139 -2.6809
  436SOL    HW2 1308   1.613   2.611   2.427 -0.3824 -2.3285  2.4991
  437SOL     OW 1309   1.084   2.928   0.837  0.3831 -0.7021  0.6882
  437SOL    HW1 1310   1.037   3.023   0.832  0.6857 -0.7188  0.1359
  437SOL    HW2 1311   1.117   2.893   0.927  0.8402 -0.2285  0.4466
  438SOL     OW 1312   1.019   2.500   1.289  0.6769  0.1034 -0.0846
  438SOL    HW1 1313   1.069   2.542   1.371 -2.3838  3.9797 -3.1381
  438SOL    HW2 1314   1.002   2.399   1.308  0.6885  0.1356 -1.2014
  439SOL     OW 1315   0.707   1.685   1.034  0.0132 -0.0238  0.6340
  439SOL    HW1 1316   0.756   1.758   0.981  1.4615 -0.3391 -0.4842
  439SOL    HW2 1317   0.636   1.713   1.101 -1.6662  0.5094 -1.7308
  440SOL     OW 1318   1.036   2.443   2.037  0.2687 -0.0028  0.1226
  440SOL    HW1 1319   0.978   2.486   1.960 -2.2759  0.4715 -1.3193
  440SOL    HW2 1320   1.138   2.447   2.022 -0.5329  1.4923  0.5801
  441SOL     OW 1321   0.352   2.721   1.297 -0.0900  0.1286  0.6612
  441SOL    HW1 1322   0.412   2.649   1.337  1.3827  0.3003  3.1013
  441SOL    HW2 1323   0.380   2.753   1.204  0.7662 -2.3680  0.7508
  442SOL     OW 1324   2.251   0.667   2.590  0.1910  0.4285  0.3694
  442SOL    HW1 1325   2.258   0.597   2.511  1.1635 -0.1064  0.0949
  442SOL    HW2 1326   2.169   0.730   2.587 -2.4278 -0.5878  2.5051
  443SOL     OW 1327   1.279   2.589   2.221  0.5299  1.0327 -0.1116
  443SOL    HW1 1328   1.251   2.492   2.234  1.4908  1.7812 -0.1463
  443SOL    HW2 1329   1.216   2.656   2.274 -2.6620  1.7717  1.5470
  444SOL     OW 1330   1.031   1.214   1.457  0.1877 -0.1615  0.2011
  444SOL    HW1 1331   1.129   1.203   1.479 -3.2907  2.1388 -3.1244
  444SOL    HW2 1332   0.992   1.308   1.474 -0.9046 -1.7270  0.2612
  445SOL     OW 1333   0.179   2.268   2.077 -0.3698 -0.0051 -0.6159
  445SOL    HW1 1334   0.082   2.252   2.061  2.1072  1.4890 -2.2705
  445SOL    HW2 1335   0.223   2.197   2.141 -1.5630  1.1038 -0.2568
  446SOL     OW 1336   0.135   1.951   2.349  0.0207 -0.0535  0.0929
  446SOL    HW1 1337   0.101   2.047   2.339  3.3331 -0.7605 -3.8734
  446SOL    HW2 1338   0.121   1.911   2.253  2.8306 -0.4671 -2.1846
  447SOL     OW 1339   1.278   1.706   1.942 -0.1876 -0.2377  0.8887
  447SOL    HW1 1340   1.184   1.746   1.959  1.3658  0.6985  0.8173
  447SOL    HW2 1341   1.356   1.761   1.983 -2.5215  1.2616  0.1613
  448SOL     OW 1342   0.194   1.452   2.053  0.1351 -0.5756  0.5052
  448SOL    HW1 1343   0.171   1.534   1.998  0.8598  0.1244  1.2711
  448SOL    HW2 1344   0.134   1.431   2.132  4.3026  1.5632 -1.8748
  449SOL     OW 1345   1.870   2.932   0.811  0.4747 -0.3746 -0.1656
  449SOL    HW1 1346   1.847   2.948   0.908  1.7785 -2.6469 -2.7334
  449SOL    HW2 1347   1.878   2.828   0.790  0.8721 -0.7764 -2.0861
  450SOL     OW 1348   2.233   1.440   0.672  0.1279  0.1502 -0.0270
  450SOL    HW1 1349   2.207   1.485   0.761 -1.6338 -1.1671 -0.4763
  450SOL    HW2 1350   2.260   1.502   0.593  0.1397 -1.4154  1.8737
  451SOL     OW 1351   1.398   3.029   1.493 -0.1859  0.4811  0.1659
  451SOL    HW1 1352   1.338   3.108   1.529  2.6404 -2.1863  0.7314
  451SOL    HW2 1353   1.423   2.968   1.578 -1.8799  0.2773  2.7740
  452SOL     OW 1354   2.692   2.313   2.256 -0.2232 -0.6032  0.1854
  452SOL    HW1 1355   2.615   2.384   2.235 -0.8319 -0.0195 -0.4328
  452SOL    HW2 1356   2.682   2.268   2.349  2.5933  0.9333 -0.7518
  453SOL     OW 1357   2.455   2.654   3.073  0.2346  0.2043  0.0163
  453SOL    HW1 1358   2.369   2.703   3.106 -0.1440  0.0571  1.5745
  453SOL    HW2 1359   2.450   2.614   2.981  1.1477  1.5973 -3.5008
  454SOL     OW 1360   0.936   1.195   1.995 -0.1854 -0.3427 -0.1624
  454SOL    HW1 1361   0.920   1.180   1.894 -1.2416 -0.0500  0.7364
  454SOL    HW2 1362   1.034   1.234   2.007 -0.0490 -2.1423 -2.2973
  455SOL     OW 1363   0.656   2.656   2.820  0.0011  0.4549 -0.3029
  455SOL    HW1 1364   0.751   2.703   2.829 -0.6588  2.0485 -1.6683
  455SOL    HW2 1365   0.669   2.561   2.870  0.5149 -2.1025  1.7326
  456SOL     OW 1366   0.376   1.942   0.215  0.4459 -0.1904  0.1902
  456SOL    HW1 1367   0.478   1.940   0.232  0.8535  0.5865 -1.6620
  456SOL    HW2 1368   0.343   2.030   0.172 -3.5485 -1.8822 -0.1204
  457SOL     OW 1369   0.413   2.768   0.656 -0.3346 -0.3646 -0.3034
  457SOL    HW1 1370   0.422   2.842   0.584  0.2289 -2.7179  0.4364
  457SOL    HW2 1371   0.504   2.741   0.706  2.7424 -1.4034 -1.3948
  458SOL     OW 1372   2.903   0.039   1.243 -0.9067 -0.4409 -0.4262
  458SOL    HW1 1373   2.990   0.099   1.232 -0.4123  1.4369  2.9607
  458SOL    HW2 1374   2.900  -0.052   1.192  1.2766  0.6728 -2.1126
  459SOL     OW 1375   2.206   2.486   0.772  0.2750  0.1957  0.4102
  459SOL    HW1 1376   2.255   2.548   0.842  0.0452 -1.0875 -0.3874
  459SOL    HW2 1377   2.259   2.396   0.765  1.9737  1.6140  0.2353
  460SOL     OW 1378   1.194   2.045   2.758  0.0675  0.1781  0.3338
  460SOL    HW1 1379   1.235   2.046   2.661 -1.6208  0.2769  0.2123
  460SOL    HW2 1380   1.194   1.947   2.801  0.3915 -0.1689  0.2166
  461SOL     OW 1381   0.437   2.117   2.706 -0.5590 -0.3782 -0.1238
  461SOL    HW1 1382   0.368   2.049   2.670  0.5209  0.3590  1.8493
  461SOL    HW2 1383   0.474   2.079   2.790 -2.5493 -0.0081 -3.1161
  462SOL     OW 1384   0.944   1.019   1.756 -0.0736  0.2622 -0.1127
  462SOL    HW1 1385   0.930   0.930   1.710 -1.5290 -0.2341  2.0331
  462SOL    HW2 1386   0.904   1.097   1.707 -0.2493 -1.1306  0.1599
  463SOL     OW 1387   0.439   0.853   0.476  0.2758 -0.0773  0.0538
  463SOL    HW1 1388   0.455   0.751   0.467  0.5248 -1.5023 -1.0404
  463SOL    HW2 1389   0.341   0.868   0.459  2.1067  1.1364  0.4106
  464SOL     OW 1390   0.617   2.359   2.220 -0.3042  0.0226 -0.7632
  464SOL    HW1 1391   0.532   2.403   2.263  1.6802 -0.3674 -1.9817
  464SOL    HW2 1392   0.609   2.341   2.117  1.5913  0.1617  0.0677
  465SOL     OW 1393   0.239   0.923   0.818 -0.2375 -0.8793  0.0806
  465SOL    HW1 1394   0.164   0.954   0.754  1.5041  0.5655  1.7078
  465SOL    HW2 1395   0.269   0.825   0.818 -2.6938 -0.7004  1.7443
  466SOL     OW 1396   1.365   1.135   1.021  0.1839  0.2634 -0.3941
  466SOL    HW1 1397   1.347   1.218   0.962 -0.2888 -0.1148  0.3650
  466SOL    HW2 1398   1.274   1.094   1.051  1.1207 -2.6638 -1.7946
  467SOL     OW 1399   0.591   0.421   2.480 -0.7733 -0.1650  0.3348
  467SOL    HW1 1400   0.530   0.505   2.504  1.0406  1.4914  1.1084
  467SOL    HW2 1401   0.606   0.356   2.556  1.5690 -0.4389  0.7311
  468SOL     OW 1402   0.432   2.248   1.623  0.1975  0.4239 -0.2649
  468SOL    HW1 1403   0.509   2.309   1.655 -1.5060 -0.7065 -0.0724
  468SOL    HW2 1404   0.447   2.212   1.527 -1.9343  0.8773  0.1071
  469SOL     OW 1405   1.396   1.330   1.263  0.3559 -0.4649  0.4938
  469SOL    HW1 1406   1.436   1.279   1.184 -1.9335 -0.0923  5.0296
  469SOL    HW2 1407   1.465   1.390   1.320  1.8736  0.8787  0.4857
  470SOL     OW 1408   3.034   1.775   0.743 -0.1163 -0.2655 -0.5616
  470SOL    HW1 1409   3.104   1.832   0.699 -2.4676 -0.1833  2.8444
  470SOL    HW2 1410   3.042   1.760   0.843  0.1293  0.5797  0.5752
  471SOL     OW 1411   2.564   1.392   2.169 -0.4268 -0.2753 -0.3839
  471SOL    HW1 1412   2.524   1.317   2.225 -0.4594  1.0458  0.8794
  471SOL    HW2 1413   2.649   1.440   2.209  0.2805  0.3168 -0.7441
  472SOL     OW 1414   1.125   2.460   0.084 -0.1779 -0.5639 -0.6335
  472SOL    HW1 1415   1.186   2.454   0.168 -1.8559 -0.9273 -0.1751
  472SOL    HW2 1416   1.062   2.377   0.074  0.8684 -2.5075 -1.3244
  473SOL     OW 1417   1.063   1.504   1.011 -0.0208 -0.1383 -0.0565
  473SOL    HW1 1418   0.969   1.503   0.968  1.1862  1.8116 -2.6925
  473SOL    HW2 1419   1.075   1.445   1.100 -1.0520 -2.4439 -1.8638
  474SOL     OW 1420   0.650   1.284   0.545 -0.1711 -0.1229 -0.1904
  474SOL    HW1 1421   0.582   1.227   0.493  0.0043  1.0778  1.2714
  474SOL    HW2 1422   0.719   1.221   0.590  1.0062  1.3979 -0.4532
  475SOL     OW 1423   2.800   0.050   0.820 -0.1573 -0.2955 -0.4585
  475SOL    HW1 1424   2.892   0.099   0.806 -0.2412  0.9751  2.0093
  475SOL    HW2 1425   2.740   0.091   0.893  2.4309  0.5468  1.8008
  476SOL     OW 1426   0.977   3.049   1.796  0.5885 -0.0220 -0.2775
  476SOL    HW1 1427   1.056   3.109   1.831 -0.8056 -0.1133 -1.0304
  476SOL    HW2 1428   0.991   3.026   1.698  2.0681 -0.8401  2.3711
  477SOL     OW 1429   1.464   0.295   2.408  0.3725  0.0344 -0.1799
  477SOL    HW1 1430   1.467   0.323   2.508 -0.8183 -1.0538 -0.3384
  477SOL    HW2 1431   1.548   0.240   2.375 -0.7368 -1.1039 -1.1154
  478SOL     OW 1432   2.247   1.894   0.295 -0.3185 -0.0716 -0.1649
  478SOL    HW1 1433   2.206   1.797   0.314 -2.1940 -0.2034 -0.5995
  478SOL    HW2 1434   2.296   1.889   0.209  2.5300 -2.3955  4.4220
  479SOL     OW 1435   1.233   0.971   2.905 -0.3404 -0.1071  0.1865
  479SOL    HW1 1436   1.333   0.963   2.879  0.8735 -0.0958  1.6431
  479SOL    HW2 1437   1.175   0.895   2.863  1.1459 -0.5790 -1.5580
  480SOL     OW 1438   2.682   2.298   0.391  0.3954  0.0636 -0.0250
  480SOL    HW1 1439   2.741   2.214   0.398  3.5541  1.3660  2.5795
  480SOL    HW2 1440   2.591   2.283   0.343 -0.0986 -0.6600 -2.4886
  481SOL     OW 1441   1.053   1.184   0.878  0.2580  0.0807 -0.2110
  481SOL    HW1 1442   1.066   1.288   0.860 -1.5405  3.1197 -1.4765
  481SOL    HW2 1443   1.064   1.156   0.979  2.1854 -0.2644 -1.0509
  482SOL     OW 1444   1.563   0.302   1.989  0.1468 -0.4226  0.3722
  482SOL    HW1 1445   1.594   0.404   1.975 -1.9074  2.8711 -3.0270
  482SOL    HW2 1446   1.644   0.236   1.991  1.8799  1.5808  1.5556
  483SOL     OW 1447   0.226   2.331   1.208  0.2753  0.1488  0.3481
  483SOL    HW1 1448   0.156   2.369   1.272 -2.7826  2.3389 -1.8576
  483SOL    HW2 1449   0.225   2.379   1.119 -1.4643 -1.8483  1.3778
  484SOL     OW 1450   1.759   1.055   1.325  0.1939 -0.3902  0.1538
  484SOL    HW1 1451   1.798   1.013   1.409  1.3505  2.3931 -0.4106
  484SOL    HW2 1452   1.771   1.160   1.324 -1.6695  0.1820  1.1134
  485SOL     OW 1453   0.743   0.733   1.829  0.3715 -0.3179 -0.3073
  485SOL    HW1 1454   0.710   0.776   1.742  0.2337  2.4991  3.1304
  485SOL    HW2 1455   0.840   0.711   1.829 -1.0136  0.7226 -0.9357
  486SOL     OW 1456   0.827   1.886   2.414 -0.0856 -0.3562  0.0146
  486SOL    HW1 1457   0.878   1.897   2.501 -1.5159  1.3891 -1.8068
  486SOL    HW2 1458   0.811   1.982   2.374 -0.1581  1.2575 -2.5662
  487SOL     OW 1459   1.783   1.589   1.043  0.3691 -0.8292 -0.0002
  487SOL    HW1 1460   1.836   1.502   1.060 -2.3009 -0.2609  1.0330
  487SOL    HW2 1461   1.826   1.660   0.980  0.2031  0.0478 -0.6913
  488SOL     OW 1462   2.945   0.818   2.290  0.5114  0.7591  0.2846
  488SOL    HW1 1463   3.025   0.754   2.294  0.2987  0.5634 -1.4046
  488SOL    HW2 1464   2.863   0.781   2.341  2.1891 -0.4187 -1.0795
  489SOL     OW 1465   2.768   0.327   1.291 -0.2747  0.1803 -0.9022
  489SOL    HW1 1466   2.759   0.295   1.389  2.8517  1.1546 -0.3872
  489SOL    HW2 1467   2.850   0.275   1.251  0.4840  0.8725  0.4616
  490SOL     OW 1468   1.435   2.909   2.819 -0.0280 -0.1308  0.1299
  490SOL    HW1 1469   1.477   2.821   2.856 -2.4521 -1.7172 -1.8287
  490SOL    HW2 1470   1.418   2.913   2.717  2.6395 -0.1787 -0.2065
  491SOL     OW 1471   1.743   1.496   2.718 -0.3154 -0.1250 -0.0909
  491SOL    HW1 1472   1.739   1.435   2.807  1.0360 -1.2967 -0.0828
  491SOL    HW2 1473   1.828   1.562   2.719  0.0199  1.1385 -1.5336
  492SOL     OW 1474   0.534   2.054   0.653  0.3551  0.0676  0.3689
  492SOL    HW1 1475   0.593   2.036   0.737  0.0737 -0.4814 -3.0995
  492SOL    HW2 1476   0.473   2.140   0.662 -2.0522  3.4055  0.3347
  493SOL     OW 1477   0.460   1.357   2.101  0.5611  0.5907  0.2128
  493SOL    HW1 1478   0.378   1.417   2.077  2.1594  2.0543  0.0130
  493SOL    HW2 1479   0.436   1.255   2.102  1.7159 -0.7135 -1.5041
  494SOL     OW 1480   2.701   2.597   0.096 -0.1876 -0.8202 -0.1369
  494SOL    HW1 1481   2.705   2.601   0.200  1.3916  0.2378 -0.8758
  494SOL    HW2 1482   2.608   2.619   0.057  0.1401  1.0030 -1.8613
  495SOL     OW 1483   2.533   2.824   2.610  0.3993 -0.5014 -0.5270
  495SOL    HW1 1484   2.548   2.724   2.641 -0.6904 -3.4969 -0.9089
  495SOL    HW2 1485   2.594   2.846   2.528 -0.7986  0.2159 -2.3205
  496SOL     OW 1486   1.985   2.310   0.812  0.1344  0.1997 -0.1199
  496SOL    HW1 1487   2.031   2.375   0.879  2.9702  0.8903  1.1127
  496SOL    HW2 1488   2.038   2.224   0.800 -2.5001  0.9411 -0.1655
  497SOL     OW 1489   0.190   2.996   2.385 -0.4165 -0.2799  0.1874
  497SOL    HW1 1490   0.153   3.055   2.463 -3.0240  2.4402  2.4017
  497SOL    HW2 1491   0.226   3.050   2.305 -1.5648  1.7662 -1.1528
  498SOL     OW 1492   1.116   1.371   1.224 -0.2002 -0.0559  0.6482
  498SOL    HW1 1493   1.218   1.341   1.237  0.7509 -0.7385 -1.5810
  498SOL    HW2 1494   1.081   1.426   1.304 -0.5676 -0.6867  0.5292
  499SOL     OW 1495   0.625   1.815   0.340  0.2277 -0.3877 -0.3288
  499SOL    HW1 1496   0.659   1.754   0.268 -0.4043 -0.1575 -0.4493
  499SOL    HW2 1497   0.692   1.876   0.391  0.5751 -3.0342 -1.2868
  500SOL     OW 1498   1.526   2.876   1.672 -0.5392  0.1222 -0.0320
  500SOL    HW1 1499   1.551   2.922   1.763  0.1505  0.8870  0.6076
  500SOL    HW2 1500   1.596   2.817   1.627  0.2629  0.6244 -2.3240
  501SOL     OW 1501   0.787   1.167   2.292 -0.2883 -0.7592 -0.0837
  501SOL    HW1 1502   0.726   1.084   2.311  1.6114  2.1380 -1.0154
  501SOL    HW2 1503   0.815   1.182   2.198 -1.6898  0.2135  1.7038
  502SOL     OW 1504   2.587   0.931   1.790  0.4092 -0.4875 -0.0586
  502SOL    HW1 1505   2.585   0.945   1.686 -0.7935 -1.0891 -0.8858
  502SOL    HW2 1506   2.596   0.829   1.816  1.0468  2.3746  0.8655
  503SOL     OW 1507   1.297   0.132   0.658 -0.0486  0.0191 -0.4576
  503SOL    HW1 1508   1.224   0.197   0.683 -0.3032  1.0293  0.2851
  503SOL    HW2 1509   1.390   0.175   0.664  0.1315  1.1878  0.3734
  504SOL     OW 1510   3.039   2.306   1.525 -0.1164 -0.1817  0.2671
  504SOL    HW1 1511   3.011   2.400   1.564 -0.8138 -0.5635  2.0418
  504SOL    HW2 1512   3.123   2.271   1.565  1.4179  0.6153  0.5375
  505SOL     OW 1513   2.314   1.175   1.464  0.1965  0.1743 -0.3649
  505SOL    HW1 1514   2.288   1.194   1.365 -1.7432 -0.1421 -1.3402
  505SOL    HW2 1515   2.398   1.240   1.488  3.4802  1.8431 -3.1171
  506SOL     OW 1516   1.974   0.155   1.854  0.3001  0.0566  0.4558
  506SOL    HW1 1517   2.068   0.124   1.827 -2.1846 -0.3613 -0.2659
  506SOL    HW2 1518   1.967   0.257   1.865 -0.8550 -0.4294  1.4107
  507SOL     OW 1519   0.534   0.722   2.199  0.6839  0.3098  0.3211
  507SOL    HW1 1520   0.456   0.694   2.137  3.2491  1.5855  0.3050
  507SOL    HW2 1521   0.597   0.640   2.231  3.9571 -2.2862 -2.3266
  508SOL     OW 1522   0.324   1.690   0.785  0.0632 -0.5347  0.3659
  508SOL    HW1 1523   0.347   1.738   0.693  0.5904  0.7294 -3.0073
  508SOL    HW2 1524   0.311   1.758   0.862  0.9209  1.7135  1.0441
  509SOL     OW 1525   1.274   1.232   2.477 -0.1098 -0.1190  0.6022
  509SOL    HW1 1526   1.308   1.224   2.381  0.8071  1.3683 -0.6275
  509SOL    HW2 1527   1.198   1.164   2.505  0.9426 -2.5174  0.9130
  510SOL     OW 1528   1.298   2.025   2.224  0.4045  0.7325  0.1981
  510SOL    HW1 1529   1.321   2.036   2.123  1.2623 -1.4713  0.1519
  510SOL    HW2 1530   1.214   1.957   2.239 -1.1307 -0.0812 -0.4523
  511SOL     OW 1531   3.009   2.762   1.301  0.2465 -0.1341 -0.1705
  511SOL    HW1 1532   3.035   2.758   1.199  0.8971  0.5473 -0.9667
  511SOL    HW2 1533   2.912   2.734   1.322 -1.4371 -2.1594  2.9301
  512SOL     OW 1534   2.365   0.422   1.372  0.1094 -0.5155  0.3360
  512SOL    HW1 1535   2.262   0.418   1.348 -1.1220  3.5952 -1.1787
  512SOL    HW2 1536   2.431   0.402   1.292  3.8320  0.9241 -0.9022
  513SOL     OW 1537   2.590   2.135   0.917  0.2351  0.4002  0.5208
  513SOL    HW1 1538   2.544   2.202   0.852  1.0227  3.1845 -0.6605
  513SOL    HW2 1539   2.672   2.084   0.877 -0.6899 -1.0920  0.5914
  514SOL     OW 1540   0.639   2.720   0.429  0.8041 -0.3097 -0.2076
  514SOL    HW1 1541   0.678   2.676   0.341 -0.9287 -0.3312  0.0628
  514SOL    HW2 1542   0.689   2.804   0.459  2.1328 -0.0825 -0.2878
  515SOL     OW 1543   1.932   1.347   2.420 -0.1478  0.3312  0.1608
  515SOL    HW1 1544   1.918   1.298   2.330 -1.3274 -2.2500 -0.2392
  515SOL    HW2 1545   1.854   1.314   2.485  0.6451 -2.8990  0.2932
  516SOL     OW 1546   0.249   0.264   1.874  0.3958  0.6578  0.0967
  516SOL    HW1 1547   0.345   0.228   1.867 -3.2097  1.7511  1.3929
  516SOL    HW2 1548   0.178   0.189   1.867  0.2410 -0.1163  0.0706
  517SOL     OW 1549   0.475   0.188   1.161 -0.2397 -0.8047  0.0487
  517SOL    HW1 1550   0.543   0.162   1.235  1.2295 -1.3590  4.1452
  517SOL    HW2 1551   0.404   0.116   1.145 -0.9433 -3.0411 -0.6823
  518SOL     OW 1552   2.137   3.035   1.813  0.2215  0.7526 -0.3342
  518SOL    HW1 1553   2.198   3.118   1.812 -0.6121  4.8081 -1.1817
  518SOL    HW2 1554   2.138   2.989   1.718 -1.0106  0.6671 -3.2915
  519SOL     OW 1555   2.353   2.187   2.526 -0.3297 -0.7768 -0.6002
  519SOL    HW1 1556   2.310   2.168   2.621  2.6267  2.6292  1.7644
  519SOL    HW2 1557   2.362   2.288   2.503 -1.4220  0.6837  1.5764
  520SOL     OW 1558   1.856   2.754   1.680 -0.4657  0.1597  0.1267
  520SOL    HW1 1559   1.787   2.689   1.733  0.7349  0.6286 -0.0751
  520SOL    HW2 1560   1.945   2.704   1.660  2.3609  1.9306 -3.8149
  521SOL     OW 1561   0.576   0.046   2.149 -0.6387 -0.2550 -0.4374
  521SOL    HW1 1562   0.476   0.052   2.181 -0.5630  0.2352  2.2228
  521SOL    HW2 1563   0.638   0.049   2.228  0.3696  1.1850 -0.3191
  522SOL     OW 1564   0.238   1.876   1.468 -0.2060 -0.4896 -0.3841
  522SOL    HW1 1565   0.266   1.951   1.537  2.5967 -0.4895  0.8959
  522SOL    HW2 1566   0.218   1.909   1.372 -1.7294 -2.3831  0.5652
  523SOL     OW 1567   2.133   2.920   1.574 -0.0436 -0.3384 -0.1773
  523SOL    HW1 1568   2.210   2.853   1.585 -3.0084  0.6660  0.7638
  523SOL    HW2 1569   2.082   2.896   1.483 -2.7747 -0.2431 -1.6820
  524SOL     OW 1570   0.207   2.752   2.792  0.4558  0.2151 -0.0688
  524SOL    HW1 1571   0.169   2.832   2.853 -0.0106 -0.7408 -0.3239
  524SOL    HW2 1572   0.300   2.769   2.755 -0.8218 -2.9493  0.7660
  525SOL     OW 1573   2.144   2.043   0.495 -0.1512 -0.1922 -0.3944
  525SOL    HW1 1574   2.165   1.996   0.585 -1.3743 -2.4968 -0.6274
  525SOL    HW2 1575   2.186   1.992   0.410  2.0152  0.5052  0.6479
  526SOL     OW 1576   0.430   1.536   1.767  0.3274 -0.1422  0.9094
  526SOL    HW1 1577   0.437   1.574   1.855 -1.3499 -1.5507  0.1759
  526SOL    HW2 1578   0.478   1.444   1.763  1.6295 -0.6811 -2.3841
  527SOL     OW 1579   1.051   2.945   1.209  0.0298 -0.2956  0.6251
  527SOL    HW1 1580   1.100   2.868   1.254  0.6402 -1.2120 -1.1100
  527SOL    HW2 1581   1.105   3.032   1.184 -0.7657  1.4619  0.5513
  528SOL     OW 1582   1.311   2.376   0.571  0.2994 -0.7092 -0.2907
  528SOL    HW1 1583   1.362   2.287   0.576 -3.1592  2.1616 -0.1322
  528SOL    HW2 1584   1.331   2.441   0.652  0.1393  0.1857  1.9822
  529SOL     OW 1585   1.893   1.752   0.823 -0.1097 -0.2671 -0.5665
  529SOL    HW1 1586   1.862   1.757   0.723 -0.3470 -0.2065 -1.3832
  529SOL    HW2 1587   1.945   1.839   0.848  1.9137  0.9396  1.6356
  530SOL     OW 1588   0.444   2.493   0.177  0.2037 -0.2800  0.4759
  530SOL    HW1 1589   0.440   2.457   0.275  0.5305 -0.5319  1.0642
  530SOL    HW2 1590   0.453   2.415   0.114 -1.4421  2.5582  1.0731
  531SOL     OW 1591   1.850   1.010   1.079  0.4042  0.3893 -0.1338
  531SOL    HW1 1592   1.820   1.005   0.982 -1.5468 -1.0819 -0.4335
  531SOL    HW2 1593   1.777   0.992   1.152 -1.2714  4.5556  0.1710
  532SOL     OW 1594   0.371   1.171   0.724 -0.0122  1.0448 -0.1190
  532SOL    HW1 1595   0.381   1.174   0.622 -2.4842 -1.1181  0.7131
  532SOL    HW2 1596   0.349   1.079   0.762 -0.9703 -0.0553 -2.0548
  533SOL     OW 1597   1.831   0.062   2.526  0.0355 -0.2288  0.0835
  533SOL    HW1 1598   1.932   0.042   2.533  2.5556 -0.6160 -1.3272
  533SOL    HW2 1599   1.802   0.136   2.596  0.8145 -2.4708  2.1410
  534SOL     OW 1600   0.228   0.184   1.552  0.4154  0.0314 -0.8174
  534SOL    HW1 1601   0.315   0.239   1.538 -1.7684 -1.0096  1.6671
  534SOL    HW2 1602   0.150   0.250   1.570  1.1362 -3.2283  0.8507
  535SOL     OW 1603   1.907   0.392   0.188  0.0715 -0.6225  0.3475
  535SOL    HW1 1604   1.959   0.480   0.229  0.7186  0.8569  2.2876
  535SOL    HW2 1605   1.857   0.357   0.268  2.1848  1.9104 -0.5682
  536SOL     OW 1606   1.238   2.584   0.991 -0.0702  1.0024 -0.8558
  536SOL    HW1 1607   1.295   2.502   1.027  2.4580  1.6425 -0.0254
  536SOL    HW2 1608   1.260   2.601   0.894  0.1984  1.8281 -0.3765
  537SOL     OW 1609   0.894   0.205   2.342  0.6127 -0.3945  0.6260
  537SOL    HW1 1610   0.882   0.285   2.276 -0.5408 -1.3106 -3.1832
  537SOL    HW2 1611   0.817   0.133   2.336 -1.8148  1.6713  0.2956
  538SOL     OW 1612   1.697   2.342   1.547 -0.1415  0.1578 -0.4686
  538SOL    HW1 1613   1.677   2.254   1.492 -0.0567 -0.7555 -1.4059
  538SOL    HW2 1614   1.782   2.381   1.506 -1.2872 -0.7053  0.5825
  539SOL     OW 1615   0.182   1.631   2.700 -0.0139  0.5174  0.3508
  539SOL    HW1 1616   0.085   1.601   2.657  2.4886 -1.5349 -2.4723
  539SOL    HW2 1617   0.186   1.730   2.735  1.1907 -1.3645 -0.6335
  540SOL     OW 1618   2.701   1.725   2.042  0.1124 -0.0422 -0.6591
  540SOL    HW1 1619   2.634   1.660   2.005  1.6345 -0.6169  3.5474
  540SOL    HW2 1620   2.659   1.818   2.025 -0.4438 -2.6380  0.3310
  541SOL     OW 1621   0.450   2.300   3.067  0.5453 -0.5506 -0.2957
  541SOL    HW1 1622   0.486   2.207   3.092 -0.0951  0.5487  0.8051
  541SOL    HW2 1623   0.363   2.298   3.005 -1.7674  4.0095 -1.5917
  542SOL     OW 1624   2.189   2.613   0.486  0.1658 -0.3270  0.3170
  542SOL    HW1 1625   2.162   2.703   0.436 -1.2056 -1.6471  1.7607
  542SOL    HW2 1626   2.116   2.540   0.479 -1.4564 -0.2259  2.4873
  543SOL     OW 1627   1.015   1.789   1.728 -0.5280 -0.2549 -0.4395
  543SOL    HW1 1628   1.019   1.829   1.825  1.0950 -0.5151 -0.4419
  543SOL    HW2 1629   0.945   1.835   1.672 -2.5733  0.8169 -0.8296
  544SOL     OW 1630   0.877   0.434   0.155  0.1025 -0.2797  0.0523
  544SOL    HW1 1631   0.920   0.367   0.223  3.0114  2.0381  0.8116
  544SOL    HW2 1632   0.891   0.406   0.054  0.2459  0.1082  1.0666
  545SOL     OW 1633   1.158   1.699   0.620 -0.3630 -0.1089 -0.0913
  545SOL    HW1 1634   1.243   1.725   0.674 -0.5658  0.3369 -1.2614
  545SOL    HW2 1635   1.154   1.740   0.524 -2.7669 -0.1508 -1.5517
  546SOL     OW 1636   2.662   1.554   0.022  0.1785 -0.4918  0.0036
  546SOL    HW1 1637   2.674   1.535  -0.084 -0.5231  1.5906 -1.1348
  546SOL    HW2 1638   2.574   1.515   0.056  3.6948  1.3930 -3.7718
  547SOL     OW 1639   0.544   0.021   2.802  0.4013  0.2126  0.1612
  547SOL    HW1 1640   0.577  -0.047   2.724 -2.4920  1.0546 -2.4291
  547SOL    HW2 1641   0.509  -0.025   2.893  0.7037 -1.2234  4.1374
  548SOL     OW 1642   2.065   0.831   3.009 -0.3833  0.0699  0.1708
  548SOL    HW1 1643   1.974   0.782   3.036 -0.8409  0.7480 -0.7084
  548SOL    HW2 1644   2.062   0.927   3.049 -0.3933  2.9032  1.3140
  549SOL     OW 1645   0.594   0.395   0.124  0.9449 -0.0777  0.4497
  549SOL    HW1 1646   0.576   0.483   0.072  1.7400 -2.6644 -1.8026
  549SOL    HW2 1647   0.682   0.404   0.177 -2.5042 -3.9980  0.8771
  550SOL     OW 1648   2.519   2.882   2.875  0.1127 -0.5734  0.3707
  550SOL    HW1 1649   2.501   2.810   2.944  1.6773 -0.6247 -4.8588
  550SOL    HW2 1650   2.535   2.836   2.783  1.3967  0.9531  0.5088
  551SOL     OW 1651   0.237   0.798   0.184  0.0537  0.5741 -0.3365
  551SOL    HW1 1652   0.339   0.792   0.163  1.9020 -0.4502  0.3400
  551SOL    HW2 1653   0.225   0.832   0.285  1.1736  1.3960  0.4342
  552SOL     OW 1654   0.821   2.817   1.850 -0.7747 -0.8787 -0.3201
  552SOL    HW1 1655   0.816   2.813   1.955 -0.6220 -0.3389  2.7631
  552SOL    HW2 1656   0.861   2.906   1.814  0.8645  2.0731 -2.4408
  553SOL     OW 1657   3.054   2.553   0.403 -0.4682 -0.3392 -0.4431
  553SOL    HW1 1658   3.024   2.459   0.371  0.7587  0.7173 -1.7908
  553SOL    HW2 1659   3.022   2.573   0.500  0.5870  1.0649 -1.8426
  554SOL     OW 1660   2.144   0.265   0.565  0.7340  0.4384 -0.1580
  554SOL    HW1 1661   2.193   0.204   0.503  0.3693  1.6584  1.3379
  554SOL    HW2 1662   2.122   0.224   0.660 -0.2425  0.6272  1.5215
  555SOL     OW 1663   0.454   2.925   2.436 -0.8392 -0.8562 -0.0691
  555SOL    HW1 1664   0.356   2.951   2.424 -0.2621 -0.1578 -0.4194
  555SOL    HW2 1665   0.480   2.848   2.373  1.8622  4.2461 -2.1193
  556SOL     OW 1666   0.912   2.287   1.684  0.0863  0.6280  0.3889
  556SOL    HW1 1667   0.939   2.363   1.747 -0.7332  1.5529 -1.6426
  556SOL    HW2 1668   0.977   2.274   1.604  1.0034  0.7371 -0.0767
  557SOL     OW 1669   0.172   2.137   0.116 -0.0131  0.2086 -0.2434
  557SOL    HW1 1670   0.113   2.051   0.098 -0.1397 -1.6463  1.3807
  557SOL    HW2 1671   0.173   2.198   0.031  0.7296  1.0175 -0.6064
  558SOL     OW 1672   2.970   2.327   0.292 -0.3890 -0.3711  0.7464
  558SOL    HW1 1673   2.869   2.336   0.327 -1.4021  1.7341  1.5481
  558SOL    HW2 1674   2.986   2.343   0.191  1.1271 -0.8613 -0.1194
  559SOL     OW 1675   0.442   2.215   1.347 -0.3716  0.0215  0.4519
  559SOL    HW1 1676   0.369   2.262   1.288 -0.3762  0.3355  0.8689
  559SOL    HW2 1677   0.495   2.144   1.297  1.3435  1.3088 -1.0677
  560SOL     OW 1678   2.064   1.132   0.005  0.4904  0.2002 -0.0221
  560SOL    HW1 1679   2.073   1.168  -0.092 -1.0718  2.5176 -0.3827
  560SOL    HW2 1680   1.984   1.174   0.051 -0.4694 -1.2054 -2.0221
  561SOL     OW 1681   3.049   1.915   0.035  0.1255  0.1538 -0.5638
  561SOL    HW1 1682   2.983   1.840   0.039  1.6161 -1.6816 -3.2747
  561SOL    HW2 1683   3.002   2.000  -0.000  1.9280  2.0999 -1.2560
  562SOL     OW 1684   0.864   2.174   2.436 -0.2946 -0.3023 -0.7409
  562SOL    HW1 1685   0.763   2.170   2.406  2.1428  0.7894 -2.0546
  562SOL    HW2 1686   0.886   2.200   2.533  1.0111  0.0476  1.8941
  563SOL     OW 1687   0.716   2.546   2.544 -0.6365  0.0795  0.0984
  563SOL    HW1 1688   0.796   2.487   2.540 -1.8598  0.2415  1.8055
  563SOL    HW2 1689   0.680   2.562   2.641  0.5784  1.4167  2.7898
  564SOL     OW 1690   2.732   1.308   2.836 -0.0156  0.2160 -0.0436
  564SOL    HW1 1691   2.665   1.298   2.914  0.5231  2.1175  1.9374
  564SOL    HW2 1692   2.787   1.396   2.846 -1.3415  0.9421 -0.6259
  565SOL     OW 1693   2.517   1.976   2.589  0.5915 -0.2627  0.1349
  565SOL    HW1 1694   2.489   2.069   2.551  0.5980 -0.7261 -0.6653
  565SOL    HW2 1695   2.599   1.978   2.655 -0.3791  0.7175 -0.2972
  566SOL     OW 1696   1.970   2.869   1.363 -0.5672 -0.1304  0.2429
  566SOL    HW1 1697   1.951   2.772   1.385  1.0561  2.5698  0.2585
  566SOL    HW2 1698   2.018   2.881   1.272  0.4283  1.0085  1.8204
  567SOL     OW 1699   2.464   0.148   2.235  0.5200 -0.4572 -0.5014
  567SOL    HW1 1700   2.493   0.132   2.134 -1.7066 -1.8111 -0.1308
  567SOL    HW2 1701   2.368   0.188   2.243 -0.8604 -1.2074 -0.4723
  568SOL     OW 1702   1.489   1.829   0.405  0.2873  0.2954 -0.2440
  568SOL    HW1 1703   1.446   1.886   0.324  1.6998  1.0319 -5.1489
  568SOL    HW2 1704   1.524   1.886   0.484  0.3741 -1.9062 -2.6975
  569SOL     OW 1705   0.321   0.640   0.801  0.3399  0.0455  0.3343
  569SOL    HW1 1706   0.391   0.578   0.749  3.6786 -1.9648 -2.3079
  569SOL    HW2 1707   0.225   0.636   0.760 -3.2865 -0.9662 -3.2589
  570SOL     OW 1708   0.592   0.774   2.835 -0.1295 -0.2865 -0.1360
  570SOL    HW1 1709   0.654   0.751   2.752  2.7662 -1.2219 -1.6504
  570SOL    HW2 1710   0.621   0.858   2.889 -3.0297  2.4856 -1.3137
  571SOL     OW 1711   0.808   3.035   1.102  0.2922  0.1112 -0.3814
  571SOL    HW1 1712   0.847   3.103   1.036 -1.1713  1.1333  1.3903
  571SOL    HW2 1713   0.878   2.981   1.153 -2.6917 -0.7087  0.7845
  572SOL     OW 1714   1.544   2.567   1.157 -0.0168  0.0231 -0.0132
  572SOL    HW1 1715   1.483   2.534   1.236 -0.9416 -0.1754  1.5477
  572SOL    HW2 1716   1.524   2.664   1.134  1.9402  1.3072 -0.0041
  573SOL     OW 1717   2.947   0.419   2.086  0.0995 -0.3803 -0.1932
  573SOL    HW1 1718   2.900   0.334   2.108 -0.3119  1.6246 -0.8978
  573SOL    HW2 1719   2.884   0.488   2.038 -3.6822  1.0068  2.0287
  574SOL     OW 1720   0.240   1.799   1.039 -0.5168 -0.2783 -0.6380
  574SOL    HW1 1721   0.214   1.892   0.997 -0.1899  0.3072 -1.3319
  574SOL    HW2 1722   0.159   1.759   1.094 -2.4025 -3.2089  0.4240
  575SOL     OW 1723   0.891   2.142   1.011 -0.2444  0.0509 -0.2954
  575SOL    HW1 1724   0.873   2.151   1.112  2.0685 -1.5026 -0.8417
  575SOL    HW2 1725   0.923   2.230   0.960  0.2394  0.5882  0.2020
  576SOL     OW 1726   2.914   2.939   1.741 -0.2236  0.2684 -0.1264
  576SOL    HW1 1727   2.846   2.886   1.676 -1.2148  0.9186 -3.8058
  576SOL    HW2 1728   2.944   3.029   1.696  0.3266  0.2805 -0.3123
  577SOL     OW 1729   2.568   1.264   3.050 -0.0504 -0.2906  0.3535
  577SOL    HW1 1730   2.537   1.167   3.016 -1.1219 -2.1316 -2.1976
  577SOL    HW2 1731   2.631   1.255   3.138  0.1707 -0.4172  0.4806
  578SOL     OW 1732   1.320   2.686   2.551 -0.1934 -0.7082 -0.1348
  578SOL    HW1 1733   1.243   2.651   2.494  1.0931 -0.4408 -0.7482
  578SOL    HW2 1734   1.339   2.790   2.542  1.3437 -2.4958  1.6913
  579SOL     OW 1735   0.123   2.513   0.183  0.4980 -1.1132  0.3264
  579SOL    HW1 1736   0.055   2.540   0.259 -0.7939 -1.0861 -0.0351
  579SOL    HW2 1737   0.203   2.460   0.220 -0.2176 -0.3949 -0.7461
  580SOL     OW 1738   1.008   2.645   0.358 -0.1056 -0.0459  0.1668
  580SOL    HW1 1739   1.084   2.646   0.286 -0.1060  1.3045  0.7260
  580SOL    HW2 1740   0.928   2.581   0.331 -0.6382  1.8097 -0.4067
  581SOL     OW 1741   1.187   2.618   1.504  0.5101  0.0057 -0.1002
  581SOL    HW1 1742   1.253   2.538   1.516 -1.6776 -1.2222  0.8884
  581SOL    HW2 1743   1.239   2.697   1.465 -1.5196 -0.9651  0.9216
  582SOL     OW 1744   1.480   0.043   1.852  0.0584  0.0618  0.0816
  582SOL    HW1 1745   1.468   0.131   1.903  0.2320 -0.4426 -0.5698
  582SOL    HW2 1746   1.574   0.035   1.807 -2.9358  1.0729  0.0241
  583SOL     OW 1747   2.448   3.003   0.606  0.0674  0.4505  0.0198
  583SOL    HW1 1748   2.513   2.951   0.544  0.9645  3.2436  1.6395
  583SOL    HW2 1749   2.385   2.948   0.669 -1.4732  0.2159  0.5839
  584SOL     OW 1750   1.573   0.998   2.130 -0.2480  0.0675  0.2486
  584SOL    HW1 1751   1.611   1.048   2.046  1.8690 -1.6031  0.6078
  584SOL    HW2 1752   1.647   0.969   2.199  0.9563  2.0045  2.0452
  585SOL     OW 1753   2.114   2.649   2.923 -0.5946 -0.0857 -0.3351
  585SOL    HW1 1754   2.141   2.559   2.871  0.9907  1.2911 -1.5853
  585SOL    HW2 1755   2.025   2.682   2.894  2.4647 -2.3699 -0.7198
  586SOL     OW 1756   2.756   0.233   1.545 -0.4075  0.1234  0.1003
  586SOL    HW1 1757   2.766   0.306   1.614 -1.7015  0.9573  0.4724
  586SOL    HW2 1758   2.666   0.182   1.557  1.5630  3.1520  2.3021
  587SOL     OW 1759   1.974   1.646   2.735 -0.1904  0.3187  0.0970
  587SOL    HW1 1760   2.041   1.607   2.660 -1.1053 -0.1790  1.0198
  587SOL    HW2 1761   2.002   1.609   2.826 -1.5583  0.8456 -0.7274
  588SOL     OW 1762   0.475   2.729   2.250  0.2001  0.3517 -0.1037
  588SOL    HW1 1763   0.381   2.736   2.202  0.2196  0.0670 -0.0314
  588SOL    HW2 1764   0.486   2.638   2.298  2.3847  0.7689  2.0890
  589SOL     OW 1765   2.147   1.448   2.549 -0.0305 -0.6640  0.4414
  589SOL    HW1 1766   2.056   1.405   2.519  0.0616  0.8309  0.5387
  589SOL    HW2 1767   2.221   1.382   2.563 -1.8054  2.4129  0.7140
  590SOL     OW 1768   2.349   1.687   1.983  0.7080  0.0318  0.3933
  590SOL    HW1 1769   2.441   1.643   1.977  0.2155 -0.2052  0.0962
  590SOL    HW2 1770   2.334   1.737   2.074  0.2370 -1.4577 -1.6354
  591SOL     OW 1771   1.362   2.460   0.289  0.4824  0.0765  0.1985
  591SOL    HW1 1772   1.439   2.423   0.228 -1.1620  1.0352 -0.3040
  591SOL    HW2 1773   1.340   2.407   0.378  1.1220  0.1202 -0.1202
  592SOL     OW 1774   1.686   2.335   0.785 -0.0724 -0.1139 -0.3243
  592SOL    HW1 1775   1.684   2.386   0.693 -0.6943 -1.9131  1.0746
  592SOL    HW2 1776   1.787   2.331   0.818  3.1434 -0.9101  1.6468
  593SOL     OW 1777   0.617   0.162   3.093  0.2540 -0.3123  1.3686
  593SOL    HW1 1778   0.720   0.155   3.075 -3.3078  2.6762 -2.0382
  593SOL    HW2 1779   0.595   0.245   3.154  1.1309  0.5124 -0.6968
  594SOL     OW 1780   0.927   1.997   2.675  0.2150 -0.2148  0.1588
  594SOL    HW1 1781   1.007   2.057   2.706  0.9783 -0.4152 -2.5692
  594SOL    HW2 1782   0.839   2.019   2.725 -1.1347 -0.8035  1.2862
  595SOL     OW 1783   1.555   0.042   1.095 -0.4321 -0.4110 -0.2951
  595SOL    HW1 1784   1.649  -0.006   1.080  1.6559 -2.3581 -4.0536
  595SOL    HW2 1785   1.485   0.000   1.027 -1.7511 -1.0182 -0.7593
  596SOL     OW 1786   3.103   1.388   2.243 -0.0342  0.0752 -0.1943
  596SOL    HW1 1787   3.008   1.428   2.235  0.5278 -1.6409 -0.3488
  596SOL    HW2 1788   3.123   1.364   2.335  4.5711 -1.0193 -2.2979
  597SOL     OW 1789   2.096   2.618   1.655  0.1471 -0.1720  0.4755
  597SOL    HW1 1790   2.094   2.535   1.596 -2.7284  1.0481  0.1653
  597SOL    HW2 1791   2.167   2.613   1.724 -3.2368 -3.1395 -2.6204
  598SOL     OW 1792   2.525   2.899   1.259 -0.8724 -0.4388  0.6332
  598SOL    HW1 1793   2.608   2.941   1.304 -1.0831  1.0354  2.0326
  598SOL    HW2 1794   2.527   2.907   1.158  1.2635  2.0613 -0.4350
  599SOL     OW 1795   2.912   0.363   2.473 -0.1070  0.4257  0.0571
  599SOL    HW1 1796   2.975   0.438   2.439  0.2097 -1.2223 -3.6573
  599SOL    HW2 1797   2.820   0.370   2.430  2.3049 -1.2070  0.8532
  600SOL     OW 1798   2.819   1.084   2.724 -0.0416  0.1305  0.5591
  600SOL    HW1 1799   2.776   0.996   2.753  0.5730  1.6798 -0.7478
  600SOL    HW2 1800   2.777   1.171   2.761 -2.2787  1.5768 -1.7815
  601SOL     OW 1801   3.010   1.240   2.023 -0.0615 -0.0688 -0.1224
  601SOL    HW1 1802   2.935   1.312   1.994 -0.1954  1.0958  1.6513
  601SOL    HW2 1803   3.064   1.272   2.105 -0.7898 -1.1121 -0.9700
  602SOL     OW 1804   1.529   1.727   2.376 -0.4215  0.4584 -0.6678
  602SOL    HW1 1805   1.504   1.630   2.351 -3.2904 -3.7471  0.0813
  602SOL    HW2 1806   1.626   1.730   2.423  1.7828  0.2913  1.7362
  603SOL     OW 1807   0.646   1.265   2.683 -0.4819 -0.3704  0.2287
  603SOL    HW1 1808   0.571   1.234   2.625  0.0586  0.7359  1.8096
  603SOL    HW2 1809   0.731   1.207   2.683  1.3391  0.7947  0.3781
  604SOL     OW 1810   2.412   0.967   0.179 -0.1994  0.1558 -0.4796
  604SOL    HW1 1811   2.498   1.019   0.150  2.0083  0.0886 -1.5468
  604SOL    HW2 1812   2.395   0.885   0.122  1.2934 -0.0974 -0.2929
  605SOL     OW 1813   2.687   1.127   1.945  0.3253  0.3794  0.4786
  605SOL    HW1 1814   2.659   1.035   1.892 -2.1101 -0.0396 -0.1254
  605SOL    HW2 1815   2.685   1.121   2.049  0.7802 -1.0601  0.1125
  606SOL     OW 1816   1.533   2.539   2.611 -0.9553 -0.1633  0.1566
  606SOL    HW1 1817   1.448   2.590   2.587  2.5533  0.1879 -0.8728
  606SOL    HW2 1818   1.512   2.435   2.589 -1.0852 -0.3405 -1.5185
  607SOL     OW 1819   1.359   1.577   0.440 -0.0764  0.2361 -0.2136
  607SOL    HW1 1820   1.269   1.573   0.493  0.4249  2.6942  2.3697
  607SOL    HW2 1821   1.404   1.672   0.451 -1.1194 -1.9170 -0.2720
  608SOL     OW 1822   1.422   2.893   0.452 -0.1092  0.0111  0.1525
  608SOL    HW1 1823   1.503   2.932   0.402 -2.7647 -1.5953  0.3505
  608SOL    HW2 1824   1.344   2.959   0.462  0.6466 -0.1720  0.5952
  609SOL     OW 1825   1.295   1.371   0.275 -0.3869  0.3570  0.1809
  609SOL    HW1 1826   1.315   1.460   0.323  0.6036  0.5158  0.1268
  609SOL    HW2 1827   1.190   1.349   0.264 -1.7064  1.9501  0.5172
  610SOL     OW 1828   2.959   1.110   2.293  0.0101  0.5228 -0.3506
  610SOL    HW1 1829   2.961   1.005   2.288 -1.0791  0.0560  0.1854
  610SOL    HW2 1830   2.971   1.152   2.198  0.4725  0.2586  1.2040
  611SOL     OW 1831   2.517   0.311   1.157  0.0417 -0.5185 -0.4607
  611SOL    HW1 1832   2.459   0.234   1.195 -0.1672 -2.0434 -0.4139
  611SOL    HW2 1833   2.611   0.311   1.201 -1.9022 -0.0552  0.4527
  612SOL     OW 1834   0.748   2.192   1.263  0.0204  0.0975  0.0038
  612SOL    HW1 1835   0.690   2.113   1.232  3.2755  0.3010 -1.3244
  612SOL    HW2 1836   0.723   2.285   1.222  0.9765  2.0196  0.8345
  613SOL     OW 1837   0.899   1.457   2.370 -0.3304  0.5196  0.1510
  613SOL    HW1 1838   0.969   1.489   2.302 -0.2050  1.0553  0.7816
  613SOL    HW2 1839   0.820   1.420   2.321  3.0089 -1.5916 -1.0612
  614SOL     OW 1840   1.664   1.590   1.818 -0.2175  0.2343  0.2294
  614SOL    HW1 1841   1.670   1.695   1.807 -0.0848  1.0902  0.0801
  614SOL    HW2 1842   1.715   1.554   1.899  1.3758  0.6479 -1.2187
  615SOL     OW 1843   0.805   1.271   1.725  1.0681  1.0499 -0.1939
  615SOL    HW1 1844   0.767   1.236   1.639  2.2664 -2.6002  0.3768
  615SOL    HW2 1845   0.835   1.365   1.722 -0.2605 -0.8411 -2.1909
  616SOL     OW 1846   1.111   1.539   2.199  0.1494  0.5607  0.1359
  616SOL    HW1 1847   1.033   1.537   2.135 -0.3348 -1.6279  1.3132
  616SOL    HW2 1848   1.140   1.633   2.224  0.9102  1.4601 -1.9264
  617SOL     OW 1849   2.977   1.555   1.630 -0.5302 -0.6421 -0.2818
  617SOL    HW1 1850   2.921   1.476   1.666  0.6865 -0.9214 -0.1254
  617SOL    HW2 1851   3.005   1.539   1.533 -0.0590 -2.8168 -1.2673
  618SOL     OW 1852   1.876   2.101   1.369 -0.0214 -0.3930 -0.2541
  618SOL    HW1 1853   1.870   2.174   1.297 -2.1761 -0.3729  1.2175
  618SOL    HW2 1854   1.864   2.002   1.333 -0.5059  3.0937 -0.9984
  619SOL     OW 1855   1.757   0.464   2.383  0.0437 -0.1613 -0.2027
  619SOL    HW1 1856   1.700   0.540   2.334 -0.0801  0.2080  0.7808
  619SOL    HW2 1857   1.737   0.363   2.352  0.6939 -0.9082 -1.3447
  620SOL     OW 1858   2.294   2.853   0.780  0.1685  0.4125 -0.3477
  620SOL    HW1 1859   2.212   2.906   0.821  2.2142  1.1423 -0.2899
  620SOL    HW2 1860   2.316   2.773   0.837  0.9311  1.5545  1.3006
  621SOL     OW 1861   2.137   1.862   1.353 -0.5504 -0.6691 -0.1821
  621SOL    HW1 1862   2.144   1.881   1.453 -0.0072  0.3034 -1.2219
  621SOL    HW2 1863   2.086   1.773   1.330 -1.7544 -0.8787  0.3818
  622SOL     OW 1864   2.335   0.952   1.857 -0.8035 -0.1648 -0.1548
  622SOL    HW1 1865   2.440   0.955   1.830  1.8403 -1.7886 -1.0408
  622SOL    HW2 1866   2.302   0.868   1.906 -1.1515 -0.2581 -0.7248
  623SOL     OW 1867   1.329   0.792   2.447  0.5994 -0.2135 -0.3821
  623SOL    HW1 1868   1.241   0.734   2.465 -0.2091  3.2825 -2.6091
  623SOL    HW2 1869   1.302   0.853   2.367  1.6198 -0.4205  1.2618
  624SOL     OW 1870   0.536   0.635   3.085  0.0802  0.2080 -0.0942
  624SOL    HW1 1871   0.583   0.667   2.996 -0.3962 -0.5828 -1.0676
  624SOL    HW2 1872   0.500   0.716   3.145  1.1853 -1.5732  1.1224
  625SOL     OW 1873   2.785   1.712   1.017  0.1596 -0.3047 -0.3756
  625SOL    HW1 1874   2.697   1.752   0.979 -0.5892  0.2445 -0.8333
  625SOL    HW2 1875   2.853   1.789   1.045  1.1435  1.4927 -1.8654
  626SOL     OW 1876   0.626   2.696   1.712 -0.3844 -0.5078  0.1339
  626SOL    HW1 1877   0.686   2.739   1.787  0.5158 -0.2264 -0.9596
  626SOL    HW2 1878   0.521   2.704   1.724  1.5703  0.7219 -0.0592
  627SOL     OW 1879   0.647   0.881   1.582 -0.4841  0.0808 -0.1378
  627SOL    HW1 1880   0.586   0.823   1.529 -0.8579  1.4497 -2.0202
  627SOL    HW2 1881   0.726   0.925   1.526  2.7569  0.5142 -1.0421
  628SOL     OW 1882   2.429   0.148   0.700 -0.0594 -0.2762 -0.3865
  628SOL    HW1 1883   2.455   0.055   0.655  0.7387 -2.2615 -2.2070
  628SOL    HW2 1884   2.337   0.142   0.749 -1.1792 -2.3129  0.0043
  629SOL     OW 1885   1.899   0.918   1.981 -0.0271 -0.4947  0.3255
  629SOL    HW1 1886   1.902   1.006   1.922 -0.3376 -1.0584 -2.5892
  629SOL    HW2 1887   1.895   0.945   2.081 -0.4411  0.9471 -0.8331
  630SOL     OW 1888   2.908   2.301   0.778 -0.4813  0.8748 -0.0296
  630SOL    HW1 1889   2.822   2.365   0.771  1.2445  1.8342 -0.4243
  630SOL    HW2 1890   2.897   2.199   0.749  0.5300  0.5528 -2.9366
  631SOL     OW 1891  -0.004   0.130   2.163 -1.1176  0.1281  0.5372
  631SOL    HW1 1892   0.059   0.176   2.228  0.0459  0.6300  0.1195
  631SOL    HW2 1893   0.015   0.146   2.059 -2.0381 -1.5556 -1.3598
  632SOL     OW 1894   2.431   2.568   0.579  0.1199  0.1886  0.4288
  632SOL    HW1 1895   2.459   2.656   0.621  2.4264 -0.3608 -0.1500
  632SOL    HW2 1896   2.326   2.571   0.552 -2.9125 -0.4458 -0.9056
  633SOL     OW 1897   1.464   1.196   2.682  0.4216 -0.1084  0.3084
  633SOL    HW1 1898   1.459   1.275   2.749  0.2797 -1.9585 -2.6279
  633SOL    HW2 1899   1.392   1.187   2.606  2.0523 -1.9966 -0.2542
  634SOL     OW 1900   0.642   2.041   0.914 -0.2970 -0.5267  0.5578
  634SOL    HW1 1901   0.553   2.094   0.920 -2.1108  0.9485 -1.2106
  634SOL    HW2 1902   0.717   2.097   0.960 -0.1931  1.1688  1.3195
  635SOL     OW 1903   3.020   2.391   0.027 -0.5517 -0.1414  0.1970
  635SOL    HW1 1904   2.960   2.445  -0.036  0.5288  0.1689  1.4124
  635SOL    HW2 1905   3.109   2.439   0.040 -1.7728  0.5207 -0.4795
  636SOL     OW 1906   2.396   2.744   2.000  0.8046  0.5983 -0.7522
  636SOL    HW1 1907   2.393   2.847   2.006  0.5136 -0.3959  0.4596
  636SOL    HW2 1908   2.340   2.691   2.073 -1.1926 -1.6671  0.7129
  637SOL     OW 1909   2.764   0.602   1.984  0.3020  0.2855 -0.3700
  637SOL    HW1 1910   2.679   0.625   1.937  1.3424 -1.9178 -3.5178
  637SOL    HW2 1911   2.822   0.689   1.987 -0.3734  1.0132 -0.1422
  638SOL     OW 1912   2.434   1.852   1.294  0.5636 -0.2425 -0.1113
  638SOL    HW1 1913   2.332   1.856   1.289  0.2435  0.1520  0.0932
  638SOL    HW2 1914   2.467   1.784   1.369 -0.5059 -0.3124  0.0538
  639SOL     OW 1915   1.319   2.213   1.680  0.1496 -0.1575  0.0454
  639SOL    HW1 1916   1.369   2.305   1.669 -1.0160  0.9481  0.9743
  639SOL    HW2 1917   1.249   2.212   1.759 -1.2109 -1.2622  3.1743
  640SOL     OW 1918   0.184   1.191   1.547 -0.0683  0.2022 -0.0861
  640SOL    HW1 1919   0.182   1.215   1.653  3.7845 -2.1700  1.1643
  640SOL    HW2 1920   0.260   1.117   1.536 -1.2107 -0.8529 -0.5268
  641SOL     OW 1921   1.960   0.267   1.490  0.2575  0.5080 -0.1868
  641SOL    HW1 1922   1.879   0.290   1.551  0.0249  1.0082 -1.2620
  641SOL    HW2 1923   2.042   0.220   1.542  0.3224 -1.9736  0.0219
  642SOL     OW 1924   2.035   0.081   0.370  0.0028 -0.0140  0.3812
  642SOL    HW1 1925   2.128   0.043   0.397  1.2819  1.6268 -0.4779
  642SOL    HW2 1926   1.978   0.101   0.453 -0.6841  2.8340 -1.1273
  643SOL     OW 1927   2.895   1.853   2.168  0.4724 -0.4753 -0.6262
  643SOL    HW1 1928   2.815   1.794   2.145  0.7920 -0.6132  0.2692
  643SOL    HW2 1929   2.893   1.941   2.111 -0.8155 -0.6221 -2.2394
  644SOL     OW 1930   2.290   2.424   1.246  0.0438  0.5189 -0.5387
  644SOL    HW1 1931   2.339   2.348   1.195  0.7821 -1.5785  1.8276
  644SOL    HW2 1932   2.267   2.404   1.347 -0.9939 -1.4411  2.8942
  645SOL     OW 1933   0.611   0.820   1.231 -0.3760  0.2105  0.7262
  645SOL    HW1 1934   0.510   0.792   1.250 -1.7571 -1.7296 -0.6380
  645SOL    HW2 1935   0.625   0.860   1.130 -1.4226  0.0004 -1.4733
  646SOL     OW 1936   1.496   1.825   2.051  0.1997 -0.6079 -0.3002
  646SOL    HW1 1937   1.568   1.857   1.982  0.9620  0.6277  1.5846
  646SOL    HW2 1938   1.535   1.816   2.145 -0.0010  0.2198 -0.4126
  647SOL     OW 1939   0.833   1.102   0.669  0.3871 -0.2660 -0.5889
  647SOL    HW1 1940   0.860   1.114   0.769  0.2847 -0.1792 -2.9184
  647SOL    HW2 1941   0.769   1.021   0.656 -1.8351  2.6592  2.4175
  648SOL     OW 1942   0.155   0.248   0.305 -0.2346  0.6350 -0.4732
  648SOL    HW1 1943   0.124   0.162   0.251  1.5435  0.5139 -1.6195
  648SOL    HW2 1944   0.118   0.331   0.259  0.2978  1.3473 -0.8494
  649SOL     OW 1945   3.031   0.208   0.772 -0.0517 -0.9595  0.1609
  649SOL    HW1 1946   3.125   0.182   0.742 -2.4835 -3.3473  1.8326
  649SOL    HW2 1947   3.022   0.305   0.805  0.6064 -1.1731  1.0553
  650SOL     OW 1948   2.734   0.662   1.531 -0.5917 -0.2126  0.6312
  650SOL    HW1 1949   2.626   0.650   1.539 -0.9614 -2.7889 -1.4465
  650SOL    HW2 1950   2.772   0.737   1.468 -2.6393  2.9940 -1.5185
  651SOL     OW 1951   0.873   1.541   1.673 -0.0476  0.2399  0.2952
  651SOL    HW1 1952   0.905   1.632   1.707 -0.3801 -0.7628  0.0718
  651SOL    HW2 1953   0.926   1.518   1.584  2.8121  0.1693  0.0813
  652SOL     OW 1954   2.395   2.481   2.462  0.4920 -0.5701  0.2648
  652SOL    HW1 1955   2.295   2.515   2.476  1.3331 -0.7218  0.1704
  652SOL    HW2 1956   2.430   2.508   2.367 -0.1354 -0.8778 -0.2092
  653SOL     OW 1957   2.736   1.252   0.189  0.3416 -0.3882 -0.3898
  653SOL    HW1 1958   2.759   1.344   0.234 -2.1315  0.4050  1.0918
  653SOL    HW2 1959   2.791   1.175   0.233 -1.1859 -0.9605 -0.1567
  654SOL     OW 1960   1.272   2.177   1.282 -0.0915  0.1401  0.2939
  654SOL    HW1 1961   1.310   2.101   1.346 -1.1099 -3.6542  0.5599
  654SOL    HW2 1962   1.280   2.145   1.179 -0.2611 -0.8332  0.3064
  655SOL     OW 1963   0.163   0.966   1.892  0.5128 -0.4692 -0.2315
  655SOL    HW1 1964   0.232   0.895   1.870  3.1107  1.5425 -1.9781
  655SOL    HW2 1965   0.194   1.058   1.854  1.1766 -0.2706  0.0452
  656SOL     OW 1966   2.578   2.563   2.648 -0.2780  0.6160  0.2442
  656SOL    HW1 1967   2.675   2.534   2.623 -2.9774 -0.9989  1.8236
  656SOL    HW2 1968   2.515   2.530   2.572  0.3264 -1.3933  1.3412
  657SOL     OW 1969   3.016   1.066   1.825 -0.1664 -0.6746 -0.5136
  657SOL    HW1 1970   3.004   1.142   1.901 -1.9005  2.7603  1.2662
  657SOL    HW2 1971   3.104   1.009   1.831 -1.0337  0.2827  0.0984
  658SOL     OW 1972   1.703   0.187   2.328  0.0749  0.4135 -1.0202
  658SOL    HW1 1973   1.766   0.149   2.398  2.4835  0.9176  0.2225
  658SOL    HW2 1974   1.737   0.177   2.230 -0.2764 -0.8155  0.3528
  659SOL     OW 1975   1.415   0.639   2.750 -0.2632 -0.0351 -0.1502
  659SOL    HW1 1976   1.466   0.706   2.696 -2.1046 -0.2749  4.0624
  659SOL    HW2 1977   1.319   0.675   2.767 -0.5224  0.7609  2.5139
  660SOL     OW 1978   1.448   0.334   1.400 -0.0532  0.5169  0.5193
  660SOL    HW1 1979   1.466   0.368   1.492 -2.2741  1.1047  0.3078
  660SOL    HW2 1980   1.497   0.244   1.373 -1.2248 -2.8027 -3.5850
  661SOL     OW 1981   2.437   1.248   0.641  0.3939 -0.6459  0.4859
  661SOL    HW1 1982   2.485   1.235   0.546  0.6345  2.8057 -0.3974
  661SOL    HW2 1983   2.365   1.323   0.637  0.7185  2.6246 -0.2130
  662SOL     OW 1984   1.452   0.433   1.703 -0.3141  0.2985  0.3261
  662SOL    HW1 1985   1.401   0.407   1.789 -3.7055 -0.8752 -0.5000
  662SOL    HW2 1986   1.451   0.530   1.681 -1.7938 -2.5060  2.0244
  663SOL     OW 1987   0.857   1.579   2.079  0.0361 -0.4540  1.0252
  663SOL    HW1 1988   0.833   1.685   2.075 -2.5847  2.1399  0.9589
  663SOL    HW2 1989   0.783   1.524   2.031  2.3066 -1.4960  0.6688
  664SOL     OW 1990   1.584   2.124   1.416  0.9401  0.2012  0.0644
  664SOL    HW1 1991   1.500   2.087   1.466  0.8954  1.6867 -1.4222
  664SOL    HW2 1992   1.662   2.061   1.417  1.9965 -0.5832  1.1442
  665SOL     OW 1993   2.272   0.672   1.958  0.4507 -0.5680  0.0058
  665SOL    HW1 1994   2.229   0.576   1.955  0.5931  0.2350 -0.1721
  665SOL    HW2 1995   2.330   0.691   2.044  2.5633  1.3654  1.8271
  666SOL     OW 1996   0.484   2.230   0.317  0.0429  0.4854 -0.2493
  666SOL    HW1 1997   0.537   2.289   0.383 -0.8382 -2.9830  1.4266
  666SOL    HW2 1998   0.381   2.231   0.328 -1.0689  0.4100  0.4085
  667SOL     OW 1999   1.925   0.222   1.039 -0.9424 -0.1239 -0.2481
  667SOL    HW1 2000   1.976   0.310   1.059  2.7111 -1.0970 -2.5114
  667SOL    HW2 2001   1.882   0.187   1.124  0.9548  2.6733 -0.8070
  668SOL     OW 2002   1.998   0.509   1.121 -0.2562  0.4602  0.3112
  668SOL    HW1 2003   2.078   0.551   1.061  3.9586  1.8956 -1.4907
  668SOL    HW2 2004   2.022   0.527   1.225 -1.5869  2.4373 -0.3057
  669SOL     OW 2005   3.020   2.184   1.000  0.4746 -0.4022 -0.0823
  669SOL    HW1 2006   2.989   2.243   0.921  0.1837  1.4631  1.4643
  669SOL    HW2 2007   2.991   2.216   1.095 -2.3564 -0.4916  2.1173
  670SOL     OW 2008   2.906   2.297   2.084 -0.3078  0.2369  0.3208
  670SOL    HW1 2009   2.825   2.294   2.150  1.4154 -0.3632 -2.5443
  670SOL    HW2 2010   2.905   2.377   2.021 -3.2976 -0.8038  0.9936
  671SOL     OW 2011   1.780   1.777   1.542 -0.7378 -0.0653  0.0363
  671SOL    HW1 2012   1.816   1.705   1.477  1.4811  1.2070  0.2025
  671SOL    HW2 2013   1.675   1.778   1.533  0.1832  0.4274 -0.6846
  672SOL     OW 2014   0.472   0.653   2.547  0.2593  0.4084 -0.3869
  672SOL    HW1 2015   0.406   0.687   2.477 -1.2848  0.1777  2.3089
  672SOL    HW2 2016   0.426   0.650   2.642  1.1964 -3.2294 -1.4524
  673SOL     OW 2017   0.073   1.317   1.111 -0.5699 -0.3914  0.2673
  673SOL    HW1 2018   0.093   1.385   1.186  2.1196 -1.1759 -0.0671
  673SOL    HW2 2019   0.159   1.268   1.077  2.1221 -2.7189 -0.2962
  674SOL     OW 2020   1.631   2.961   0.309  0.1095  0.3104  0.1507
  674SOL    HW1 2021   1.658   3.019   0.227 -1.6408 -2.8826  1.2188
  674SOL    HW2 2022   1.709   2.899   0.344  1.1764 -0.0543  0.0135
  675SOL     OW 2023   1.733   0.843   2.342  0.2733 -0.1822 -0.4140
  675SOL    HW1 2024   1.831   0.816   2.341 -1.2418  1.0302  0.8191
  675SOL    HW2 2025   1.665   0.770   2.309 -1.8176 -1.8656 -0.1772
  676SOL     OW 2026   2.564   1.521   1.935  0.0009 -0.3518 -0.0984
  676SOL    HW1 2027   2.509   1.469   1.858 -3.3931  0.4174 -3.1783
  676SOL    HW2 2028   2.561   1.482   2.030  0.1306 -0.5285 -3.0417
  677SOL     OW 2029   1.906   0.724   0.908  0.5672  0.7358 -0.4262
  677SOL    HW1 2030   1.823   0.740   0.971  0.0259 -0.7895  0.2868
  677SOL    HW2 2031   1.946   0.631   0.934  1.7156 -1.8158 -1.2377
  678SOL     OW 2032   0.110   0.737   1.614  0.2559  0.0754  0.0309
  678SOL    HW1 2033   0.208   0.769   1.636  0.3021 -0.2445 -0.5788
  678SOL    HW2 2034   0.059   0.699   1.697 -1.4235  2.2909 -0.6643
  679SOL     OW 2035   2.607   1.170   1.160 -0.6888  0.5813  0.0464
  679SOL    HW1 2036   2.505   1.178   1.140  0.9980 -0.4607  0.2082
  679SOL    HW2 2037   2.638   1.075   1.179  0.8656 -0.0803 -0.2168
  680SOL     OW 2038   2.849   0.474   1.708 -0.0560 -0.1441  0.0704
  680SOL    HW1 2039   2.790   0.519   1.639  1.1309  0.0130  1.2207
  680SOL    HW2 2040   2.913   0.540   1.758 -0.6406  0.1220  0.1250
  681SOL     OW 2041   2.991   0.070   1.617 -0.2000 -0.2441 -0.1105
  681SOL    HW1 2042   3.059   0.073   1.540 -3.4354 -1.0593  1.2168
  681SOL    HW2 2043   2.917   0.137   1.605  1.2476 -1.7596 -1.1854
  682SOL     OW 2044   0.662   0.042   1.348 -0.1775  0.2966 -0.0265
  682SOL    HW1 2045   0.582  -0.016   1.383 -0.6674  3.2098  1.8555
  682SOL    HW2 2046   0.703   0.002   1.261 -0.9821 -2.5755 -1.3579
  683SOL     OW 2047   1.364   0.211   2.156  0.1566 -0.0987 -0.1166
  683SOL    HW1 2048   1.377   0.229   2.257  0.2951 -0.5456  1.3196
  683SOL    HW2 2049   1.434   0.271   2.105 -1.2971  2.0752 -0.0447
  684SOL     OW 2050   1.446   2.115   0.543  0.4490  0.0628  0.0347
  684SOL    HW1 2051   1.469   2.054   0.623 -0.1733 -0.0204  2.0705
  684SOL    HW2 2052   1.356   2.085   0.499  2.2190  1.5217 -0.8671
  685SOL     OW 2053   2.216   2.046   1.958 -0.0612  0.3355  0.2837
  685SOL    HW1 2054   2.283   2.052   1.880 -0.0179  2.1500  0.5633
  685SOL    HW2 2055   2.254   2.083   2.050  4.8637  0.3800  2.0123
  686SOL     OW 2056   1.510   1.829   2.867 -0.2113 -0.1385 -0.5988
  686SOL    HW1 2057   1.570   1.810   2.949 -0.7224 -0.6956 -1.1660
  686SOL    HW2 2058   1.408   1.827   2.892 -1.9200 -0.3753 -1.5990
  687SOL     OW 2059   1.316   2.394   1.976  0.3895 -0.2062  0.2412
  687SOL    HW1 2060   1.350   2.294   1.970  1.1897 -0.3047  0.3519
  687SOL    HW2 2061   1.391   2.459   1.996  0.7053 -1.5272 -3.1004
  688SOL     OW 2062   2.054   1.521   1.769 -0.4607  0.1880  0.8639
  688SOL    HW1 2063   2.155   1.533   1.755 -2.1948 -0.1205  0.2982
  688SOL    HW2 2064   2.003   1.503   1.684 -0.0447 -0.6165 -0.1158
  689SOL     OW 2065   2.384   1.108   2.733  0.2947 -0.4354 -0.2792
  689SOL    HW1 2066   2.291   1.075   2.769  0.0848  0.6589 -1.8403
  689SOL    HW2 2067   2.465   1.102   2.796 -1.0121  1.9456  0.8115
  690SOL     OW 2068   2.242   2.765   0.059  0.4050  0.2111  0.2302
  690SOL    HW1 2069   2.173   2.745  -0.018  1.6166  1.5956  2.7185
  690SOL    HW2 2070   2.214   2.788   0.154  0.7493  1.6022 -0.0262
  691SOL     OW 2071   2.599   0.400   2.108 -0.1808  0.0673 -0.0367
  691SOL    HW1 2072   2.652   0.313   2.123 -0.3069  1.1978 -3.0400
  691SOL    HW2 2073   2.658   0.475   2.066  0.9007  1.4681  1.6852
  692SOL     OW 2074   2.638   1.207   0.820 -0.3479  0.0452 -0.0276
  692SOL    HW1 2075   2.558   1.206   0.750  0.7300  1.2907 -1.8622
  692SOL    HW2 2076   2.644   1.298   0.873 -0.7119  1.9152 -0.8672
  693SOL     OW 2077   2.852   2.982   0.584  0.2146  0.6790 -0.3550
  693SOL    HW1 2078   2.784   3.043   0.633  1.1862 -0.4744 -0.4155
  693SOL    HW2 2079   2.831   2.978   0.482  0.1957  0.9146  1.2043
  694SOL     OW 2080   2.446   2.222   0.151  0.1093 -0.9194 -0.6526
  694SOL    HW1 2081   2.408   2.315   0.189  1.9790 -2.1106  2.9092
  694SOL    HW2 2082   2.373   2.156   0.124  2.2645 -0.1805  0.1578
  695SOL     OW 2083   0.488   2.957   1.434  0.5371 -0.1762 -0.0945
  695SOL    HW1 2084   0.429   2.878   1.402  0.4553 -2.2195 -0.3582
  695SOL    HW2 2085   0.438   3.016   1.507  0.3032  0.0615  2.4087
  696SOL     OW 2086   2.837   2.038   0.748  0.5778  0.8916 -0.4019
  696SOL    HW1 2087   2.889   1.949   0.755  0.4186  0.2701  0.3901
  696SOL    HW2 2088   2.809   2.055   0.650 -0.9425 -0.6357  2.2915
  697SOL     OW 2089   1.665   1.876   1.829 -0.3000 -0.3177 -0.0217
  697SOL    HW1 2090   1.766   1.866   1.817 -1.4203  1.5756 -0.4182
  697SOL    HW2 2091   1.637   1.966   1.786 -0.6314  0.8318 -1.9603
  698SOL     OW 2092   2.904   0.425   2.746 -0.0046 -0.0789  1.0458
  698SOL    HW1 2093   2.892   0.405   2.639  3.2276  0.6599  0.3044
  698SOL    HW2 2094   2.945   0.342   2.803 -2.3747 -0.3941  2.6036
  699SOL     OW 2095   1.558   0.061   2.910 -0.1197 -0.0642  0.4716
  699SOL    HW1 2096   1.521  -0.036   2.887 -0.1708 -0.1577 -1.1378
  699SOL    HW2 2097   1.603   0.110   2.830 -0.3636 -0.8508  0.8809
  700SOL     OW 2098   0.987   2.239   1.368 -0.0287  0.0971  0.6572
  700SOL    HW1 2099   1.075   2.187   1.332  3.6893 -0.4370  0.6310
  700SOL    HW2 2100   0.893   2.201   1.343 -1.7287  0.5933  0.7727
  701SOL     OW 2101   1.910   2.857   0.011  0.2639  0.0855 -0.5018
  701SOL    HW1 2102   1.878   2.830   0.103  2.0813  3.7439  0.2047
  701SOL    HW2 2103   1.926   2.958   0.015 -0.9023 -0.5818  2.0094
  702SOL     OW 2104   2.087   1.318   1.962 -0.3631 -0.0024 -0.1649
  702SOL    HW1 2105   2.181   1.272   1.962 -1.0038 -0.5617 -1.0220
  702SOL    HW2 2106   2.071   1.383   1.882  0.3522 -2.7698 -2.0930
  703SOL     OW 2107   1.932   0.908   1.483  0.1690 -0.1003 -0.1841
  703SOL    HW1 2108   1.941   0.810   1.522  0.7112  2.9125  2.4309
  703SOL    HW2 2109   1.964   0.978   1.553  2.9303  1.2666 -2.7698
  704SOL     OW 2110   0.307   2.023   1.702 -0.7325  0.0288 -0.4482
  704SOL    HW1 2111   0.357   1.955   1.759 -2.2415  2.1646  1.8229
  704SOL    HW2 2112   0.370   2.105   1.673 -0.1459 -0.1410 -2.4965
  705SOL     OW 2113   2.478   1.496   0.882 -0.5065  0.2545 -0.7078
  705SOL    HW1 2114   2.470   1.416   0.815  1.0578  0.3089 -1.1590
  705SOL    HW2 2115   2.565   1.496   0.936 -1.6560  1.3309 -0.3287
  706SOL     OW 2116   0.673   1.718   1.842  0.8101 -0.6316 -0.3236
  706SOL    HW1 2117   0.656   1.611   1.831 -3.7619  0.2138  0.1662
  706SOL    HW2 2118   0.715   1.742   1.935  0.6312 -0.3999  3.9955
  707SOL     OW 2119   2.340   1.196   1.970 -0.1891  0.0738  0.4446
  707SOL    HW1 2120   2.426   1.221   2.024  2.3295  0.1912 -1.5791
  707SOL    HW2 2121   2.338   1.096   1.948 -0.1154 -0.5626  2.3447
  708SOL     OW 2122   3.015   0.521   3.043  0.4396 -0.0266 -0.9739
  708SOL    HW1 2123   3.066   0.591   2.981 -0.5855  1.6683  1.3328
  708SOL    HW2 2124   2.993   0.436   2.989 -2.8711  0.4568  1.4510
  709SOL     OW 2125   1.879   1.852   0.355  0.1045 -0.1066 -0.9042
  709SOL    HW1 2126   1.899   1.951   0.386  0.7355  1.2839 -1.7843
  709SOL    HW2 2127   1.857   1.843   0.253 -1.6674 -0.2264 -0.8609
  710SOL     OW 2128   1.771   1.628   2.474 -0.1980  0.0353 -0.0761
  710SOL    HW1 2129   1.859   1.582   2.449 -0.6410 -1.9020  1.5603
  710SOL    HW2 2130   1.735   1.586   2.556  1.2474  0.5321 -1.0135
  711SOL     OW 2131   2.618   2.943   0.968 -0.5786 -0.0901 -0.1058
  711SOL    HW1 2132   2.587   3.043   0.950 -2.3250  1.3984  0.5627
  711SOL    HW2 2133   2.723   2.937   0.985  0.5478  0.6251 -2.1813
  712SOL     OW 2134   1.401   2.137   1.963  0.4504  0.5550 -0.3105
  712SOL    HW1 2135   1.498   2.141   1.988 -4.3310 -0.6392  0.3819
  712SOL    HW2 2136   1.381   2.078   1.882  1.4130  1.0106  1.7905
  713SOL     OW 2137   2.789   1.498   2.533  0.7023  0.4151 -0.1454
  713SOL    HW1 2138   2.768   1.400   2.513 -0.8912  3.7497 -0.1437
  713SOL    HW2 2139   2.708   1.542   2.579  0.2404 -0.1041 -3.2409
  714SOL     OW 2140   2.633   0.460   2.372 -0.8738 -0.4440 -0.0706
  714SOL    HW1 2141   2.595   0.422   2.454 -0.3433 -2.0712 -2.4648
  714SOL    HW2 2142   2.581   0.433   2.286 -0.9965  1.4874  0.7059
  715SOL     OW 2143   1.575   2.162   1.158  0.0466 -0.5428 -0.4159
  715SOL    HW1 2144   1.492   2.198   1.114 -0.3480 -1.1557  1.7893
  715SOL    HW2 2145   1.563   2.150   1.265 -0.8142 -2.5520 -1.8040
  716SOL     OW 2146   1.234   0.155   1.480  0.2766 -0.1690  0.2532
  716SOL    HW1 2147   1.142   0.153   1.425 -4.6773 -1.7133 -2.1665
  716SOL    HW2 2148   1.292   0.239   1.460  2.3001  1.5958  2.0730
  717SOL     OW 2149   1.164   0.554   1.598  0.0802 -0.3246 -0.4802
  717SOL    HW1 2150   1.261   0.587   1.613  0.4637  0.8092 -0.1607
  717SOL    HW2 2151   1.159   0.516   1.501  2.8699  0.9768  1.3101
  718SOL     OW 2152   0.644   0.895   0.964  0.1351  0.0798 -0.5657
  718SOL    HW1 2153   0.640   0.876   0.861  0.6055  0.3835  1.1525
  718SOL    HW2 2154   0.651   1.001   0.975 -0.5186  1.3302 -0.9828
  719SOL     OW 2155   0.609   1.735   2.293 -0.3906  0.0840 -0.3457
  719SOL    HW1 2156   0.659   1.802   2.361  0.9314  0.4030 -0.2115
  719SOL    HW2 2157   0.604   1.637   2.318  0.1735 -0.6817 -2.6821
  720SOL     OW 2158   2.217   1.139   0.300  0.2473 -0.5570 -0.3866
  720SOL    HW1 2159   2.240   1.071   0.228 -2.8437 -1.4038 -0.2247
  720SOL    HW2 2160   2.194   1.096   0.393  2.7060 -1.2181  2.6818
  721SOL     OW 2161   2.249   3.001   2.060 -0.1210  0.0830 -0.3517
  721SOL    HW1 2162   2.201   3.005   1.964 -2.0544 -3.0621 -4.4584
  721SOL    HW2 2163   2.193   3.018   2.143  1.1140 -0.9446  0.6522
  722SOL     OW 2164   2.357   1.640   0.483 -0.1232  0.0507 -0.3371
  722SOL    HW1 2165   2.420   1.659   0.402 -2.2506  0.6167  0.8707
  722SOL    HW2 2166   2.258   1.661   0.466  2.0409 -0.9890  2.1314
  723SOL     OW 2167   2.656   2.717   1.927 -0.7065 -0.1860  0.1072
  723SOL    HW1 2168   2.676   2.812   1.961 -2.7166 -1.9148 -0.1704
  723SOL    HW2 2169   2.556   2.705   1.924  0.6265 -1.1162 -1.6909
  724SOL     OW 2170   0.464   2.504   2.402  0.1373 -0.2422  0.5254
  724SOL    HW1 2171   0.379   2.471   2.446  1.0349  3.2809 -2.2557
  724SOL    HW2 2172   0.537   2.526   2.474  1.1017 -1.2573  0.5286
  725SOL     OW 2173   2.371   2.770   1.565 -0.1768 -0.8857  0.4010
  725SOL    HW1 2174   2.403   2.799   1.469  2.5865 -1.5992 -0.4717
  725SOL    HW2 2175   2.385   2.675   1.600 -2.6141 -2.1259 -0.7262
  726SOL     OW 2176   2.497   2.307   0.694 -0.6924  0.0826 -0.4119
  726SOL    HW1 2177   2.473   2.395   0.646  0.7214 -1.5772  0.3489
  726SOL    HW2 2178   2.478   2.218   0.632 -1.9046 -1.9901  1.2243
  727SOL     OW 2179   0.093   0.015   0.163  0.0050 -0.6339 -0.4976
  727SOL    HW1 2180   0.159   0.055   0.096 -0.5748 -1.2282  2.6632
  727SOL    HW2 2181   0.036  -0.061   0.116 -1.3518 -0.0725 -0.7368
  728SOL     OW 2182   2.911   0.706   0.900 -0.0857 -0.2418 -0.1086
  728SOL    HW1 2183   2.859   0.694   0.808 -0.6085  2.0525  1.1115
  728SOL    HW2 2184   2.853   0.663   0.978 -0.7793 -0.9677 -0.0511
  729SOL     OW 2185   0.036   2.524   0.749 -0.1560  0.4735 -0.3870
  729SOL    HW1 2186   0.061   2.485   0.839  0.2494 -1.4824 -1.9312
  729SOL    HW2 2187   0.121   2.511   0.686  0.3514 -0.1675  3.1609
  730SOL     OW 2188   2.558   0.653   0.865 -0.4747  0.1194 -0.4702
  730SOL    HW1 2189   2.549   0.758   0.860  0.8187  0.1132 -3.2359
  730SOL    HW2 2190   2.630   0.622   0.800 -1.1265  2.6205  0.2654
  731SOL     OW 2191   3.077   2.177   2.382 -0.0781  0.1567  0.5958
  731SOL    HW1 2192   3.098   2.233   2.469  1.1546  2.3264  0.8749
  731SOL    HW2 2193   2.993   2.212   2.336 -0.2684  0.3852  1.2625
  732SOL     OW 2194   1.215   2.772   2.029 -0.9939  0.4317  0.3175
  732SOL    HW1 2195   1.241   2.696   2.094 -0.3433  2.2305  0.9592
  732SOL    HW2 2196   1.193   2.740   1.934  0.0324 -1.3106  2.9314
  733SOL     OW 2197   0.018   0.570   2.247  0.2136  0.0262  0.2126
  733SOL    HW1 2198   0.089   0.609   2.184 -1.6127 -0.2439 -0.4394
  733SOL    HW2 2199  -0.051   0.514   2.196 -0.7645 -0.4230  0.3262
  734SOL     OW 2200   1.455   0.371   2.669  0.1582  0.2716  0.0045
  734SOL    HW1 2201   1.466   0.466   2.715 -0.2767  1.5347  1.4063
  734SOL    HW2 2202   1.359   0.334   2.687 -1.2882 -1.4549  0.4959
  735SOL     OW 2203   2.862   2.610   2.286  0.3286 -0.3045 -0.3461
  735SOL    HW1 2204   2.839   2.565   2.198 -1.4912 -0.3289  4.0048
  735SOL    HW2 2205   2.943   2.680   2.282 -0.3889 -0.0575 -0.1301
  736SOL     OW 2206   0.913   0.438   2.508  0.0519 -0.0591  0.0782
  736SOL    HW1 2207   0.821   0.479   2.481 -1.5039  1.3372  1.2052
  736SOL    HW2 2208   0.933   0.347   2.465  2.2940  0.1794  0.2574
  737SOL     OW 2209   2.605   0.441   2.815  0.0945  0.5527  0.2280
  737SOL    HW1 2210   2.560   0.432   2.912 -2.0073 -2.4406  0.8167
  737SOL    HW2 2211   2.706   0.426   2.819 -0.3069 -1.5120 -2.3107
  738SOL     OW 2212   1.716   1.275   2.876 -0.2509  0.2454  0.0877
  738SOL    HW1 2213   1.803   1.223   2.872 -0.5768  3.2997  1.2020
  738SOL    HW2 2214   1.641   1.223   2.831  0.3464  2.4009  0.5516
  739SOL     OW 2215   1.784   0.687   0.646 -0.4657  0.0421  0.2267
  739SOL    HW1 2216   1.833   0.716   0.736 -0.0226 -0.5973 -1.9433
  739SOL    HW2 2217   1.830   0.603   0.601 -0.8675 -1.7117 -1.2883
  740SOL     OW 2218   1.939   1.918   2.376  0.2712  0.3568  0.2014
  740SOL    HW1 2219   2.013   1.852   2.353 -2.2465 -1.1541  0.2841
  740SOL    HW2 2220   1.845   1.905   2.321 -0.6278 -0.5074 -2.3883
  741SOL     OW 2221   2.550   0.042   2.473 -0.0953  0.8840 -0.6308
  741SOL    HW1 2222   2.648   0.012   2.450  1.3544  1.1560 -1.8131
  741SOL    HW2 2223   2.502   0.078   2.389  1.0158  2.3840  0.4293
  742SOL     OW 2224   2.198   1.368   0.157 -0.2198 -0.1327 -0.5850
  742SOL    HW1 2225   2.097   1.400   0.148  1.2220  0.6919  0.6792
  742SOL    HW2 2226   2.200   1.271   0.208 -2.3658  0.0413  2.3736
  743SOL     OW 2227   1.782   0.610   2.610 -0.3724  0.4790  0.3707
  743SOL    HW1 2228   1.782   0.559   2.515  1.9552  1.2684 -2.2953
  743SOL    HW2 2229   1.697   0.666   2.616 -1.9369  3.6422  0.8590
  744SOL     OW 2230   2.663   2.104   0.046 -0.0347 -0.3174 -0.3181
  744SOL    HW1 2231   2.600   2.164   0.108 -0.1007 -0.1279 -1.6826
  744SOL    HW2 2232   2.669   2.001   0.066 -0.6099 -4.1698  1.0920
  745SOL     OW 2233   2.231   2.620   2.195 -0.3397  0.4768 -0.3148
  745SOL    HW1 2234   2.129   2.628   2.167 -3.4684  0.9427 -0.3681
  745SOL    HW2 2235   2.248   2.671   2.285 -1.6263  1.4481  1.1990
  746SOL     OW 2236   0.051   2.640   1.743  0.1147  0.1947  0.0087
  746SOL    HW1 2237   0.126   2.573   1.717  0.7065  0.4750 -1.9365
  746SOL    HW2 2238   0.078   2.697   1.826 -2.0057  1.1035 -1.6199
  747SOL     OW 2239   0.043   1.789   1.653  0.4106  0.8335  0.1112
  747SOL    HW1 2240   0.005   1.698   1.618 -0.7088  3.1405  0.7665
  747SOL    HW2 2241   0.113   1.831   1.599 -0.1472 -1.5443  4.6910
  748SOL     OW 2242   1.813   2.734   2.875 -0.2411 -0.2022 -0.2014
  748SOL    HW1 2243   1.839   2.773   2.964 -3.3861 -0.4328 -0.8905
  748SOL    HW2 2244   1.712   2.720   2.859 -1.8345  2.2700 -2.6704
  749SOL     OW 2245   1.386   3.027   0.878 -0.4469  0.1151 -0.2698
  749SOL    HW1 2246   1.322   3.110   0.849 -1.1463  1.0769 -0.8895
  749SOL    HW2 2247   1.463   3.023   0.815 -0.3104  4.4127  1.2658
  750SOL     OW 2248   2.259   0.177   1.834  0.1284  0.0014 -0.3889
  750SOL    HW1 2249   2.288   0.217   1.737  1.4684 -1.2565  1.7199
  750SOL    HW2 2250   2.251   0.250   1.911  2.5582 -0.0917  2.1689
  751SOL     OW 2251   0.750   2.145   2.883 -0.1676 -0.2791  0.6958
  751SOL    HW1 2252   0.816   2.127   2.957  0.0975 -2.8029 -2.4156
  751SOL    HW2 2253   0.661   2.097   2.905 -0.0757 -1.0028  0.7150
  752SOL     OW 2254   1.294   0.822   1.267  0.8150  0.0138  0.4718
  752SOL    HW1 2255   1.351   0.906   1.264 -1.0393  0.5240  0.7481
  752SOL    HW2 2256   1.350   0.743   1.306  3.7464  0.9144 -1.5179
  753SOL     OW 2257   0.918   2.531   1.802 -0.0044  0.0490 -0.2185
  753SOL    HW1 2258   1.018   2.567   1.801  0.3083  0.1620  0.5385
  753SOL    HW2 2259   0.847   2.608   1.816 -0.2098 -0.8207  0.9436
  754SOL     OW 2260   1.130   1.222   3.042 -0.4350  0.3862  0.2518
  754SOL    HW1 2261   1.188   1.164   2.976 -1.5886 -0.5745 -2.3096
  754SOL    HW2 2262   1.158   1.322   3.044  1.7789  2.0384  0.5224
  755SOL     OW 2263   1.980   0.431   2.210  0.3831  0.0224  0.2970
  755SOL    HW1 2264   2.045   0.362   2.240 -1.6792  1.1266 -0.7660
  755SOL    HW2 2265   1.890   0.427   2.268 -3.5239 -0.7029 -1.4316
  756SOL     OW 2266   2.537   1.013   2.994  0.3475  0.1478  0.1274
  756SOL    HW1 2267   2.633   1.003   3.020 -1.8935 -1.4031  0.9267
  756SOL    HW2 2268   2.483   0.927   3.020  1.2672 -0.4430  0.9913
  757SOL     OW 2269   0.103   0.440   2.002  0.0454  0.6506  0.1090
  757SOL    HW1 2270   0.167   0.359   1.963  0.5214 -1.1252 -0.9769
  757SOL    HW2 2271   0.023   0.412   2.055  2.5080 -0.0872 -1.0464
  758SOL     OW 2272   2.201   0.099   1.493  0.1779  0.2766 -0.0551
  758SOL    HW1 2273   2.180  -0.002   1.516  1.3214  0.6215  0.6371
  758SOL    HW2 2274   2.256   0.110   1.408 -0.6194 -1.9461 -1.5442
  759SOL     OW 2275   1.694   0.044   0.069 -0.0027  0.5599 -0.3168
  759SOL    HW1 2276   1.645   0.046  -0.020  1.1379  1.0429  1.1486
  759SOL    HW2 2277   1.795   0.058   0.065 -0.1922  0.4162 -0.8110
  760SOL     OW 2278   2.661   2.015   2.838 -0.8906 -0.2217 -0.2947
  760SOL    HW1 2279   2.591   1.973   2.899 -0.3061 -0.7606  0.1641
  760SOL    HW2 2280   2.653   2.118   2.848 -1.5934 -0.2108 -0.8722
  761SOL     OW 2281   1.927   1.788   1.782 -0.1486  0.0866  0.1147
  761SOL    HW1 2282   1.959   1.691   1.796  2.9238  1.1152  0.9080
  761SOL    HW2 2283   1.885   1.793   1.685 -1.2534 -1.1884  1.5006
  762SOL     OW 2284   0.480   2.382   0.971 -0.2330 -0.5471 -0.0994
  762SOL    HW1 2285   0.517   2.414   0.879 -0.6386 -0.4352 -2.9187
  762SOL    HW2 2286   0.549   2.396   1.051  0.2951 -0.3299  1.2448
  763SOL     OW 2287   2.061   1.539   2.966  0.3080  0.2333 -0.4776
  763SOL    HW1 2288   2.158   1.510   2.958 -3.5830  0.6222 -1.1256
  763SOL    HW2 2289   2.022   1.491   3.051  3.3858 -0.8658  0.3269
  764SOL     OW 2290   0.697   0.614   0.707  0.0354 -0.2866  0.5393
  764SOL    HW1 2291   0.624   0.554   0.666 -0.8492  2.0201  2.1031
  764SOL    HW2 2292   0.742   0.571   0.786 -1.0446 -0.9409  2.1612
  765SOL     OW 2293   0.804   0.301   0.743  0.3550 -0.4491  0.2076
  765SOL    HW1 2294   0.814   0.354   0.646 -0.6571  0.7525 -2.7578
  765SOL    HW2 2295   0.818   0.366   0.817 -0.5049  0.5889  1.6024
  766SOL     OW 2296   2.931   2.148   3.033 -0.2853  0.2812 -0.2537
  766SOL    HW1 2297   2.831   2.145   3.056  1.6992 -0.9706 -0.6374
  766SOL    HW2 2298   2.983   2.233   3.068 -0.4315  1.2322 -2.1015
  767SOL     OW 2299   2.786   1.655   0.607  0.2386  0.4789 -0.1545
  767SOL    HW1 2300   2.701   1.695   0.647  1.6990  1.9353  0.6650
  767SOL    HW2 2301   2.869   1.683   0.662 -0.8158 -3.6679  1.0401
  768SOL     OW 2302   1.085   0.156   0.232  0.1136 -0.3303  0.3546
  768SOL    HW1 2303   1.057   0.143   0.329  1.1830 -1.3842 -2.2344
  768SOL    HW2 2304   1.183   0.146   0.214 -1.0321 -0.5983  1.6044
  769SOL     OW 2305   1.120   1.821   2.305  0.4378  0.2262  0.2898
  769SOL    HW1 2306   1.025   1.853   2.330 -1.8391  2.0273  0.3583
  769SOL    HW2 2307   1.180   1.810   2.391 -0.5410 -2.1194 -0.0240
  770SOL     OW 2308   0.167   1.124   2.300 -0.1287  0.0337  0.0904
  770SOL    HW1 2309   0.196   1.206   2.352  0.7787  0.9251 -0.5078
  770SOL    HW2 2310   0.074   1.088   2.332 -2.2545  0.9914 -0.1777
  771SOL     OW 2311   3.053   2.832   1.954  0.5525 -0.3125 -0.1175
  771SOL    HW1 2312   3.002   2.867   1.869 -0.4376  0.5676  1.7485
  771SOL    HW2 2313   2.997   2.865   2.035 -0.3548 -0.3786 -4.1363
  772SOL     OW 2314   2.334   0.219   2.832 -0.8176 -0.3238  0.2104
  772SOL    HW1 2315   2.391   0.146   2.789 -1.0140  1.1682  1.8027
  772SOL    HW2 2316   2.346   0.232   2.936  0.7069  1.7439 -1.3345
  773SOL     OW 2317   0.606   2.111   2.382  0.2949 -0.0655  0.5088
  773SOL    HW1 2318   0.577   2.192   2.330 -2.2169 -1.5843  1.5435
  773SOL    HW2 2319   0.534   2.076   2.447 -0.1373  0.5510 -2.8890
  774SOL     OW 2320   2.098   0.007   2.579  0.1758  0.3373  0.4087
  774SOL    HW1 2321   2.110   0.096   2.631  2.9955  0.7298 -2.1164
  774SOL    HW2 2322   2.158  -0.068   2.621 -0.4862 -3.8355  0.3190
  775SOL     OW 2323   2.584   2.951   2.238  0.0476  0.2305 -0.4738
  775SOL    HW1 2324   2.570   3.048   2.269  1.9303 -2.1056  0.7716
  775SOL    HW2 2325   2.606   2.891   2.314 -0.6448  0.9051  0.0946
  776SOL     OW 2326   3.103   1.256   0.164  0.0589 -0.4953 -0.3167
  776SOL    HW1 2327   3.049   1.219   0.084 -1.0988 -0.1227 -0.4539
  776SOL    HW2 2328   3.038   1.252   0.249 -0.1307  1.1696 -1.0589
  777SOL     OW 2329   0.444   2.920   0.428 -0.0693  1.0046 -0.1965
  777SOL    HW1 2330   0.348   2.915   0.391  1.9912  2.1133 -2.3350
  777SOL    HW2 2331   0.500   2.840   0.398 -1.1776  0.1403  0.7659
  778SOL     OW 2332   1.319   1.972   0.188  0.0165 -0.5761 -0.3189
  778SOL    HW1 2333   1.272   2.003   0.274 -0.5529 -2.0820  0.2040
  778SOL    HW2 2334   1.352   2.051   0.128  2.7702 -0.3459 -0.5508
  779SOL     OW 2335   0.162   0.833   0.436 -0.1602  0.2421 -0.2946
  779SOL    HW1 2336   0.101   0.757   0.406  1.2374  1.2246  1.4148
  779SOL    HW2 2337   0.114   0.896   0.508 -4.1342  0.6955 -0.4927
  780SOL     OW 2338   0.184   0.282   2.364  0.7142  0.0770  0.3516
  780SOL    HW1 2339   0.175   0.365   2.427  0.7142  0.4199  2.0907
  780SOL    HW2 2340   0.262   0.298   2.300 -0.3197  0.0784  0.4712
  781SOL     OW 2341   0.701   1.691   1.489  0.5994 -0.4215  0.0010
  781SOL    HW1 2342   0.739   1.668   1.582 -0.9479  0.1476  0.5795
  781SOL    HW2 2343   0.596   1.698   1.494  0.8683 -0.4168 -3.0373
  782SOL     OW 2344   2.541   0.102   0.956  0.7220 -0.0307 -0.1020
  782SOL    HW1 2345   2.502   0.130   0.867  1.6044 -2.0617  0.5407
  782SOL    HW2 2346   2.549   0.178   1.027 -0.0793  2.2046 -2.7059
  783SOL     OW 2347   2.758   0.688   2.470  0.2680  0.0635 -0.0258
  783SOL    HW1 2348   2.743   0.690   2.575 -3.9057 -4.2234  3.5030
  783SOL    HW2 2349   2.710   0.603   2.428  1.3651 -3.3674 -0.3408
  784SOL     OW 2350   1.400   2.207   0.041 -0.1095 -0.1591  0.9531
  784SOL    HW1 2351   1.466   2.283   0.061 -2.1807 -1.3446 -0.8243
  784SOL    HW2 2352   1.397   2.186  -0.064  0.3927 -2.6870 -2.3111
  785SOL     OW 2353   2.061   0.313   3.065 -0.4594  0.3524 -0.5454
  785SOL    HW1 2354   1.993   0.333   3.141 -0.2380  3.6776 -1.3166
  785SOL    HW2 2355   2.101   0.402   3.028 -2.0644 -0.4384  2.5794
  786SOL     OW 2356   2.025   2.176   2.249  0.0552  0.3570  0.0977
  786SOL    HW1 2357   1.963   2.094   2.289  0.8478 -3.0033  0.3614
  786SOL    HW2 2358   2.127   2.160   2.261 -3.1395 -0.0486 -0.1795
  787SOL     OW 2359   1.364   0.521   0.920 -0.1785 -0.1981 -0.0012
  787SOL    HW1 2360   1.328   0.620   0.932  1.4546 -1.1756 -0.0440
  787SOL    HW2 2361   1.429   0.512   0.843 -2.8464 -1.2310  3.9212
  788SOL     OW 2362   1.207   0.439   0.051 -0.2592 -0.4868  0.2045
  788SOL    HW1 2363   1.119   0.417   0.002  2.9104  0.1880  1.6155
  788SOL    HW2 2364   1.194   0.483   0.144 -1.9208 -0.8928 -3.1896
  789SOL     OW 2365   2.525   0.107   1.977  0.2728 -0.4928  0.1582
  789SOL    HW1 2366   2.431   0.108   1.999  2.4711  2.4435  0.7833
  789SOL    HW2 2367   2.552   0.023   1.921  1.3374 -1.0026  2.5310
  790SOL     OW 2368   2.658   2.741   0.749  0.2565 -0.0238  0.4327
  790SOL    HW1 2369   2.718   2.777   0.669 -0.3137  1.2890  1.1127
  790SOL    HW2 2370   2.659   2.814   0.820 -0.1914 -0.2813  2.1621
  791SOL     OW 2371   1.924   1.217   0.291  0.1295  0.5694  0.2862
  791SOL    HW1 2372   1.841   1.176   0.329  2.1451  0.8035 -2.4151
  791SOL    HW2 2373   2.006   1.171   0.332 -1.0146 -0.3905  0.6535
  792SOL     OW 2374   0.374   1.737   2.105  0.0273 -0.0666  0.3487
  792SOL    HW1 2375   0.443   1.737   2.183 -1.2393  4.1176  2.7492
  792SOL    HW2 2376   0.277   1.741   2.139 -2.5011 -0.8580 -0.2524
  793SOL     OW 2377   2.105   1.580   2.111  0.0406 -0.4936  0.2135
  793SOL    HW1 2378   2.146   1.621   2.023 -1.4094 -0.2956 -2.2151
  793SOL    HW2 2379   2.088   1.478   2.108 -0.8298 -0.1534 -0.2755
  794SOL     OW 2380   0.561   1.463   2.329  0.0669 -0.5580  0.2234
  794SOL    HW1 2381   0.528   1.427   2.235 -1.0848 -0.3249  1.0943
  794SOL    HW2 2382   0.482   1.482   2.397 -0.0054 -2.2616 -1.7147
  795SOL     OW 2383   2.544   2.290   1.817  0.2008 -0.5859  0.4416
  795SOL    HW1 2384   2.494   2.332   1.897 -2.4879 -0.9237  2.0663
  795SOL    HW2 2385   2.485   2.216   1.766 -0.6519 -1.7715 -2.0713
  796SOL     OW 2386   0.020   1.104   2.669 -0.0954 -0.0717  0.2205
  796SOL    HW1 2387  -0.082   1.104   2.674  0.1475  1.0773  1.5269
  796SOL    HW2 2388   0.072   1.129   2.755 -1.5184  1.0722  1.5152
  797SOL     OW 2389   0.790   0.662   1.419 -0.0295  0.4614  0.1042
  797SOL    HW1 2390   0.869   0.720   1.455 -0.7614 -0.6303 -0.5623
  797SOL    HW2 2391   0.729   0.719   1.354  0.2965 -0.5802  0.7651
  798SOL     OW 2392   1.310   0.379   1.147  0.0622  0.4009 -0.0237
  798SOL    HW1 2393   1.386   0.372   1.212 -2.5303 -1.3902 -1.0004
  798SOL    HW2 2394   1.343   0.433   1.060  0.7944 -1.8577  0.5847
  799SOL     OW 2395   1.995   2.705   0.975 -0.0270  0.0786 -0.2377
  799SOL    HW1 2396   1.909   2.698   1.028  1.2157 -1.5219  3.3583
  799SOL    HW2 2397   1.985   2.673   0.874  0.0523 -0.4587 -3.3237
  800SOL     OW 2398   3.042   0.651   1.825 -0.6065  0.5361  0.2442
  800SOL    HW1 2399   3.005   0.721   1.898  0.1075  1.2982  0.9051
  800SOL    HW2 2400   3.109   0.579   1.863 -2.4280 -1.3789  3.5560
  801SOL     OW 2401   1.935   2.260   0.086  0.5931 -0.3383 -0.1111
  801SOL    HW1 2402   1.858   2.214   0.034 -0.0262  2.7336 -2.4352
  801SOL    HW2 2403   2.024   2.230   0.046 -0.8610 -0.8669 -0.5197
  802SOL     OW 2404   0.734   0.810   2.572  0.0855  0.4148 -0.5269
  802SOL    HW1 2405   0.787   0.832   2.485 -1.0705 -3.0327  1.1025
  802SOL    HW2 2406   0.652   0.747   2.556 -1.4016 -1.2236 -1.4786
  803SOL     OW 2407   0.943   0.098   0.907  0.1237  0.0804 -0.4851
  803SOL    HW1 2408   1.016   0.163   0.942 -0.4037 -1.4891  0.0576
  803SOL    HW2 2409   0.880   0.144   0.836 -0.1530 -0.7767  1.6274
  804SOL     OW 2410   0.286   0.055   2.157 -0.2511 -0.0512  0.1995
  804SOL    HW1 2411   0.287   0.155   2.139  3.0544 -1.9747  0.2258
  804SOL    HW2 2412   0.250  -0.002   2.079  4.4640 -0.3853  0.4457
  805SOL     OW 2413   2.422   0.244   0.243  0.5288  0.1209  0.6476
  805SOL    HW1 2414   2.519   0.264   0.250  1.3166  0.5578  1.8656
  805SOL    HW2 2415   2.389   0.218   0.151  1.3487  2.4275 -0.1127
  806SOL     OW 2416   0.657   2.401   1.683  0.2936  0.0051  0.2045
  806SOL    HW1 2417   0.666   2.504   1.674 -0.0222 -0.3135 -2.3099
  806SOL    HW2 2418   0.745   2.348   1.695  1.1574  2.2608 -0.7423
  807SOL     OW 2419   2.410   0.986   0.462 -0.8704 -0.4020 -0.2139
  807SOL    HW1 2420   2.500   1.016   0.502 -1.5490 -0.5603  1.4125
  807SOL    HW2 2421   2.420   0.961   0.367 -2.7828 -1.2223  2.1034
  808SOL     OW 2422   0.535   1.990   2.965  0.7041  0.5782  0.5460
  808SOL    HW1 2423   0.527   2.015   3.067  1.7227  0.1919  2.1056
  808SOL    HW2 2424   0.561   1.890   2.953 -2.7495  2.0013  0.9698
  809SOL     OW 2425   2.596   1.978   1.979  0.1150  0.3146 -0.6180
  809SOL    HW1 2426   2.696   2.004   1.970 -0.7103  0.0956 -0.9213
  809SOL    HW2 2427   2.558   1.929   1.897 -1.1341  0.4085  2.7873
  810SOL     OW 2428   2.078   1.077   0.531  0.3627 -0.2858  0.6821
  810SOL    HW1 2429   2.131   1.021   0.605  3.8727 -1.0811  3.0018
  810SOL    HW2 2430   2.042   1.167   0.570 -0.2978 -0.6369  4.7803
  811SOL     OW 2431   1.350   2.451   1.305  0.4884  0.4898  0.3944
  811SOL    HW1 2432   1.338   2.346   1.298 -0.4218  0.2021  1.5426
  811SOL    HW2 2433   1.276   2.507   1.263 -2.4256  0.8607  1.4497
  812SOL     OW 2434   1.460   0.788   1.950  0.3331  0.4418  0.1766
  812SOL    HW1 2435   1.523   0.855   1.998  2.4359  0.0483 -1.6561
  812SOL    HW2 2436   1.365   0.823   1.931 -0.6324 -1.5822  1.8188
  813SOL     OW 2437   1.732   2.182   2.441 -0.3658  0.1536 -0.0139
  813SOL    HW1 2438   1.781   2.116   2.505  2.4354 -1.3202  1.9861
  813SOL    HW2 2439   1.708   2.138   2.348 -0.1351  2.2767 -1.7212
  814SOL     OW 2440   2.858   1.521   2.902 -0.1645 -0.3362 -0.6375
  814SOL    HW1 2441   2.952   1.509   2.947  2.1454 -1.9236 -0.0469
  814SOL    HW2 2442   2.847   1.621   2.865 -1.1234  1.7419 -0.7982
  815SOL     OW 2443   2.267   2.847   2.688  0.0290 -0.5396  0.7887
  815SOL    HW1 2444   2.248   2.803   2.778 -1.2315 -0.6714 -0.3200
  815SOL    HW2 2445   2.368   2.868   2.672  3.1028 -0.1907 -3.2138
  816SOL     OW 2446   1.689   0.313   1.601 -0.2916 -0.7757 -0.8478
  816SOL    HW1 2447   1.699   0.220   1.640 -0.4801 -0.2238 -1.9099
  816SOL    HW2 2448   1.617   0.368   1.653  0.4879  1.2127 -0.0753
  817SOL     OW 2449   0.448   1.249   2.481  0.0051  0.5103  0.3882
  817SOL    HW1 2450   0.409   1.333   2.527 -2.1162 -0.3596  0.7084
  817SOL    HW2 2451   0.521   1.270   2.407  0.5131  0.3369 -0.3921
  818SOL     OW 2452   1.967   0.834   0.431 -0.4646  0.2821  0.3861
  818SOL    HW1 2453   1.997   0.927   0.458  0.8606 -0.5593  1.1004
  818SOL    HW2 2454   1.897   0.794   0.498 -0.2143 -3.1864 -1.2401
  819SOL     OW 2455   2.776   2.895   3.030  0.2692 -0.4765 -0.2928
  819SOL    HW1 2456   2.853   2.829   3.008  2.3644 -1.0476 -1.8237
  819SOL    HW2 2457   2.699   2.887   2.964  1.5337  0.7314 -0.6034
  820SOL     OW 2458   1.251   1.132   0.530 -0.2237 -0.6714 -0.2631
  820SOL    HW1 2459   1.255   1.226   0.576  0.5399 -1.3763  1.2208
  820SOL    HW2 2460   1.233   1.050   0.598 -2.1799 -3.3531  3.7183
  821SOL     OW 2461   3.082   1.268   0.670  0.5113 -0.1225 -0.0328
  821SOL    HW1 2462   3.039   1.256   0.765  0.7042 -0.6871 -1.7642
  821SOL    HW2 2463   3.151   1.352   0.666  1.8481  1.5856  0.7408
  822SOL     OW 2464   2.524   1.755   2.419  0.2404 -0.1989 -0.3524
  822SOL    HW1 2465   2.517   1.821   2.502 -2.1760  0.2695  1.0525
  822SOL    HW2 2466   2.448   1.775   2.348  0.1620 -1.8126  1.0003
  823SOL     OW 2467   2.020   0.883   1.226  0.3001 -0.3631 -0.2850
  823SOL    HW1 2468   1.983   0.870   1.322 -2.9284 -0.0515 -0.7210
  823SOL    HW2 2469   1.967   0.958   1.174  1.2862  0.0119 -2.7600
  824SOL     OW 2470   0.109   2.024   2.791 -0.0448  0.0711  0.5635
  824SOL    HW1 2471   0.054   1.941   2.816 -0.7206 -2.1667 -1.6861
  824SOL    HW2 2472   0.192   1.998   2.737 -0.3696 -1.5649  2.4365
  825SOL     OW 2473   1.275   1.070   0.225  0.3014 -0.2782  0.6032
  825SOL    HW1 2474   1.314   1.152   0.275  0.4717  3.3694 -3.9609
  825SOL    HW2 2475   1.198   1.098   0.166  1.8027  3.6109  2.2685
  826SOL     OW 2476   1.947   0.646   1.579 -0.2266  0.0342  1.0523
  826SOL    HW1 2477   1.997   0.562   1.610 -0.2067 -0.8763  0.2530
  826SOL    HW2 2478   1.866   0.615   1.522  0.4785 -1.2267  0.3803
  827SOL     OW 2479   0.733   1.434   0.300  0.2255 -0.3243 -0.3058
  827SOL    HW1 2480   0.760   1.341   0.259 -1.8095 -2.1728 -0.9932
  827SOL    HW2 2481   0.707   1.432   0.402 -0.5429 -1.3419 -1.0507
  828SOL     OW 2482   2.515   0.081   1.578 -0.3628  0.4236  0.1377
  828SOL    HW1 2483   2.457   0.156   1.605  0.2853 -3.1809 -0.7315
  828SOL    HW2 2484   2.503   0.005   1.647  1.0806  0.9874 -2.7853
  829SOL     OW 2485   2.820   2.500   2.969 -0.0248  0.0991 -0.0408
  829SOL    HW1 2486   2.745   2.436   2.942  0.6381  1.4193 -4.3518
  829SOL    HW2 2487   2.797   2.546   3.057  0.7021  0.0764  0.9761
  830SOL     OW 2488   2.795   0.941   3.018  0.7387 -0.0001  0.1841
  830SOL    HW1 2489   2.865   1.017   3.015  1.6304 -1.5797 -1.3181
  830SOL    HW2 2490   2.818   0.868   3.082  2.0450 -1.0867  0.6921
  831SOL     OW 2491   0.013   0.640   0.359  0.2166  0.5677  0.4692
  831SOL    HW1 2492  -0.012   0.584   0.447  0.1439 -4.0612  3.5821
  831SOL    HW2 2493   0.046   0.573   0.288  0.7674  0.2389 -0.9185
  832SOL     OW 2494   1.855   0.721   0.022  0.2197  0.5537 -0.5883
  832SOL    HW1 2495   1.762   0.743  -0.019 -1.8722 -1.6844 -1.1130
  832SOL    HW2 2496   1.878   0.620   0.011  1.3534 -1.0006 -3.5896
  833SOL     OW 2497   2.402   2.126   0.526  0.7962 -0.0873  0.6250
  833SOL    HW1 2498   2.301   2.111   0.522 -0.6025  0.5867 -4.4741
  833SOL    HW2 2499   2.456   2.043   0.541 -0.7070  0.0196 -0.8897
  834SOL     OW 2500   0.155   0.206   0.583  0.3881 -0.3492 -0.3610
  834SOL    HW1 2501   0.213   0.129   0.623  0.0435  0.4225  0.2368
  834SOL    HW2 2502   0.147   0.212   0.481 -0.6907 -1.5013  4.9838
  835SOL     OW 2503   2.348   1.526   1.138  0.3918 -0.4155  0.2832
  835SOL    HW1 2504   2.447   1.526   1.170  1.3982 -1.1281 -0.8251
  835SOL    HW2 2505   2.353   1.528   1.036  2.2568 -0.7281  4.1395
  836SOL     OW 2506   1.571   0.809   2.582  0.1640  0.2644 -0.3299
  836SOL    HW1 2507   1.473   0.816   2.543  0.3055 -2.0188  1.5013
  836SOL    HW2 2508   1.642   0.830   2.509 -1.6729  2.3000 -0.7917
  837SOL     OW 2509   1.736   0.128   0.536  0.2670  0.5885  0.2935
  837SOL    HW1 2510   1.707   0.190   0.614 -0.6888 -1.7564 -1.1004
  837SOL    HW2 2511   1.670   0.146   0.456 -2.1715 -1.0016  0.9734
  838SOL     OW 2512   1.210   1.575   2.725 -0.3226 -0.3918  0.2293
  838SOL    HW1 2513   1.247   1.508   2.792 -0.7218  0.6694  1.6317
  838SOL    HW2 2514   1.135   1.527   2.670 -0.8603  1.1461 -1.9593
  839SOL     OW 2515   1.591   0.301   0.980  0.0611  0.2226 -0.1181
  839SOL    HW1 2516   1.650   0.381   1.013  1.2657 -0.9605 -1.4563
  839SOL    HW2 2517   1.579   0.232   1.056 -4.5453  2.4347 -0.8466
  840SOL     OW 2518   2.532   2.931   1.730 -0.5149 -0.0655 -0.0677
  840SOL    HW1 2519   2.465   2.866   1.676 -0.5851 -2.4466 -1.3239
  840SOL    HW2 2520   2.598   2.888   1.797 -2.4519  0.3837 -1.1094
  841SOL     OW 2521   1.602   0.823   3.054  0.1577 -0.2950 -0.0002
  841SOL    HW1 2522   1.536   0.819   3.132 -0.6559  0.4402  0.5192
  841SOL    HW2 2523   1.583   0.893   2.979  0.1928 -4.8008  1.9765
  842SOL     OW 2524   0.819   1.468   0.898  0.2279 -0.0479  0.0073
  842SOL    HW1 2525   0.779   1.535   0.970  1.2718  1.6610  3.2592
  842SOL    HW2 2526   0.740   1.417   0.847 -0.2951 -0.1595 -0.4742
  843SOL     OW 2527   0.101   0.021   1.385 -0.0637 -0.1313  0.4359
  843SOL    HW1 2528   0.164   0.082   1.442 -1.6724  0.4411 -3.4339
  843SOL    HW2 2529   0.088  -0.072   1.424 -1.0648 -0.1249 -1.9666
  844SOL     OW 2530   0.807   2.495   0.272  0.1516  0.1258 -0.0577
  844SOL    HW1 2531   0.740   2.466   0.344  2.8788 -1.0464  1.5176
  844SOL    HW2 2532   0.756   2.544   0.197  0.0059 -0.6996  1.5919
  845SOL     OW 2533   1.667   2.883   1.271 -0.5363  0.2522  0.8717
  845SOL    HW1 2534   1.746   2.813   1.257  1.8590 -0.9108 -0.0239
  845SOL    HW2 2535   1.668   2.927   1.363  0.0637 -1.5672  1.3607
  846SOL     OW 2536   1.583   2.955   0.705  0.2717 -0.3100  0.4399
  846SOL    HW1 2537   1.537   2.912   0.620  0.8463 -0.7593 -0.1028
  846SOL    HW2 2538   1.687   2.940   0.707  1.4447  0.3941 -0.4742
  847SOL     OW 2539   2.090   1.667   0.414 -0.3295 -0.1588 -0.3747
  847SOL    HW1 2540   2.055   1.566   0.398 -1.0474  0.9992 -3.4668
  847SOL    HW2 2541   2.025   1.728   0.371  0.6591  0.7508 -1.4379
  848SOL     OW 2542   2.447   0.860   2.612 -0.0061  0.1273  0.1829
  848SOL    HW1 2543   2.399   0.939   2.661 -1.4996 -0.9914  0.1119
  848SOL    HW2 2544   2.394   0.770   2.617  0.2538 -2.1969  0.5455
  849SOL     OW 2545   2.572   0.854   2.363 -0.4213  0.2562  0.3610
  849SOL    HW1 2546   2.654   0.793   2.386  0.6657 -0.1159 -1.5161
  849SOL    HW2 2547   2.516   0.872   2.448 -0.7722 -1.4464 -4.8098
  850SOL     OW 2548   1.566   0.102   1.358 -0.3359  0.0010  0.7271
  850SOL    HW1 2549   1.566   0.079   1.254 -0.0800  0.0773 -0.8950
  850SOL    HW2 2550   1.512   0.026   1.408 -0.1066  0.9809 -0.1943
  851SOL     OW 2551   0.443   1.824   0.568 -0.4628 -0.3954 -0.3696
  851SOL    HW1 2552   0.479   1.902   0.623  1.7133 -2.4721  1.1227
  851SOL    HW2 2553   0.491   1.819   0.477  2.3888  1.5743  2.7877
  852SOL     OW 2554   0.826   2.046   1.801 -0.6242 -0.1723 -0.0762
  852SOL    HW1 2555   0.849   2.128   1.740  0.5723  3.6103  2.4656
  852SOL    HW2 2556   0.769   2.069   1.883  1.4747 -0.2287  0.2434
  853SOL     OW 2557   2.515   1.540   2.600 -0.3480 -0.0228 -0.0441
  853SOL    HW1 2558   2.486   1.443   2.573 -0.8758 -0.6592  0.4778
  853SOL    HW2 2559   2.517   1.611   2.520  2.0043  3.1945 -2.4280
  854SOL     OW 2560   2.430   1.377   1.754 -0.2791 -0.2576 -0.4842
  854SOL    HW1 2561   2.467   1.343   1.662  0.6114 -0.9265  0.6832
  854SOL    HW2 2562   2.414   1.299   1.823 -1.1763 -1.0302  1.3076
  855SOL     OW 2563   2.081   2.453   1.055  0.3090  0.9234 -0.7454
  855SOL    HW1 2564   2.071   2.547   1.012 -1.0756  0.7585  0.3769
  855SOL    HW2 2565   2.163   2.443   1.117 -0.2462 -0.3526 -0.7148
  856SOL     OW 2566   1.311   1.414   0.938  0.6427 -0.2614 -0.5720
  856SOL    HW1 2567   1.380   1.478   0.978  0.2501  0.1274  3.5130
  856SOL    HW2 2568   1.217   1.436   0.967  0.3926 -1.5799 -0.3069
  857SOL     OW 2569   3.067   2.759   1.000 -0.1217 -0.3256 -0.3971
  857SOL    HW1 2570   2.999   2.694   0.948 -1.0476  0.6061 -1.5875
  857SOL    HW2 2571   3.150   2.786   0.948 -0.0075  0.1045  0.9590
  858SOL     OW 2572   2.372   2.094   1.718 -0.5657 -0.0052 -0.3794
  858SOL    HW1 2573   2.292   2.056   1.665 -1.0667  4.0403  3.5914
  858SOL    HW2 2574   2.456   2.032   1.718  1.1357  0.9614  0.2985
  859SOL     OW 2575   2.381   0.568   1.073  0.5926  0.2775  0.5782
  859SOL    HW1 2576   2.441   0.608   1.000 -2.0303  1.6978  2.5583
  859SOL    HW2 2577   2.430   0.494   1.125  1.5614  1.9488  1.9613
  860SOL     OW 2578   1.812   2.817   0.508  0.2998 -0.2227  0.1741
  860SOL    HW1 2579   1.813   2.774   0.411 -0.9011 -2.0974 -3.2985
  860SOL    HW2 2580   1.870   2.899   0.511 -0.2480 -1.4254 -0.1226
  861SOL     OW 2581   0.980   2.460   2.867  0.1718 -0.6224  0.0836
  861SOL    HW1 2582   1.042   2.522   2.812  0.5611 -1.3260  2.9402
  861SOL    HW2 2583   0.978   2.480   2.969  1.4184 -0.4657 -1.2108
  862SOL     OW 2584   2.929   2.553   1.618  0.4679  0.2238 -0.1566
  862SOL    HW1 2585   2.992   2.554   1.700 -0.3063 -1.1006 -0.2207
  862SOL    HW2 2586   2.870   2.640   1.606 -0.7801  0.7234 -3.9912
  863SOL     OW 2587   1.809   2.741   0.249 -0.1813  0.3446 -0.4578
  863SOL    HW1 2588   1.862   2.648   0.262 -1.1734 -0.4936  0.7814
  863SOL    HW2 2589   1.715   2.733   0.201  1.1546  1.3389 -0.9385
  864SOL     OW 2590   2.031   1.251   2.851  0.1720 -0.6304  0.2135
  864SOL    HW1 2591   1.999   1.175   2.797  0.4279 -0.8567 -0.8099
  864SOL    HW2 2592   2.094   1.310   2.798 -0.9765  1.6061  0.8620
  865SOL     OW 2593   2.177   1.935   0.725 -0.3683 -0.0587  0.3646
  865SOL    HW1 2594   2.237   1.873   0.780 -0.5992  1.8668  1.2755
  865SOL    HW2 2595   2.112   1.983   0.787  1.4080 -0.0601  0.1468
  866SOL     OW 2596   2.881   2.964   1.008 -0.3575 -0.0948  0.2729
  866SOL    HW1 2597   2.881   3.038   0.942 -1.3174 -1.9223 -0.4381
  866SOL    HW2 2598   2.959   2.893   1.007  1.1285 -2.3073 -0.7305
  867SOL     OW 2599   0.357   1.451   0.930  0.3047  0.1037  0.3337
  867SOL    HW1 2600   0.295   1.378   0.887 -2.1502  0.2873 -0.8718
  867SOL    HW2 2601   0.361   1.540   0.883  0.0650  2.4658 -0.5688
  868SOL     OW 2602   0.761   1.831   2.077  0.4128  0.1222  0.6947
  868SOL    HW1 2603   0.707   1.819   2.164 -2.0759  0.4496  2.1835
  868SOL    HW2 2604   0.754   1.931   2.039  2.0942  2.4782  0.1448
  869SOL     OW 2605   2.578   1.932   1.645  0.0347  0.1339 -0.6398
  869SOL    HW1 2606   2.631   2.000   1.596 -0.1063  1.2854  1.8586
  869SOL    HW2 2607   2.580   1.840   1.594  2.2226 -0.6895 -0.3231
  870SOL     OW 2608   2.323   2.723   1.243 -0.1901 -0.5289 -0.4461
  870SOL    HW1 2609   2.319   2.631   1.278  0.1282 -1.6757  1.0529
  870SOL    HW2 2610   2.416   2.765   1.250 -1.7141  0.4284  2.5165
  871SOL     OW 2611   3.085   2.268   0.564  1.0971  0.2865 -0.0240
  871SOL    HW1 2612   3.071   2.330   0.643  1.3020 -1.6776 -2.0309
  871SOL    HW2 2613   3.013   2.286   0.495  1.9153 -0.0901 -1.0745
  872SOL     OW 2614   2.087   0.433   1.704 -0.2240 -0.2840 -0.0874
  872SOL    HW1 2615   2.059   0.440   1.805 -0.7340  1.1103 -0.8043
  872SOL    HW2 2616   2.186   0.402   1.689  2.1764  0.2082 -1.1540
  873SOL     OW 2617   1.697   2.097   0.004  0.3645 -0.2222 -0.1480
  873SOL    HW1 2618   1.626   2.134   0.073 -0.3411  3.6068  0.5304
  873SOL    HW2 2619   1.669   2.098  -0.095 -0.8710  1.3840 -0.6873
  874SOL     OW 2620   0.669   2.460   0.753  0.2264  0.6328  0.0538
  874SOL    HW1 2621   0.683   2.562   0.761  0.6540 -0.9510 -1.2481
  874SOL    HW2 2622   0.760   2.413   0.773  2.1150 -1.4754 -0.0160
  875SOL     OW 2623   2.256   1.504   1.434  0.3533  0.4080  0.0311
  875SOL    HW1 2624   2.324   1.557   1.484 -3.0229 -1.4490 -0.1574
  875SOL    HW2 2625   2.280   1.499   1.335  0.4415  0.9710  0.0865
  876SOL     OW 2626   0.066   2.275   2.656  0.0486  0.3268  0.1490
  876SOL    HW1 2627   0.107   2.183   2.698  3.6977 -0.1936  1.3120
  876SOL    HW2 2628   0.071   2.356   2.716 -0.7326 -0.3349 -1.4563
  877SOL     OW 2629   2.923   2.652   0.625  0.0943 -0.4547 -0.0870
  877SOL    HW1 2630   2.936   2.755   0.623 -3.5239 -1.8574 -0.1268
  877SOL    HW2 2631   2.989   2.602   0.687  0.7374 -1.4567 -0.1471
  878SOL     OW 2632   2.821   1.505   2.241 -0.0691 -0.2176  0.7323
  878SOL    HW1 2633   2.797   1.588   2.185 -1.4024 -0.9012 -1.2818
  878SOL    HW2 2634   2.814   1.517   2.344 -0.5417  0.1351  0.0096
  879SOL     OW 2635   2.400   0.068   1.228 -0.2690  0.4469  0.5601
  879SOL    HW1 2636   2.436  -0.025   1.262 -0.4723 -0.1153 -0.3750
  879SOL    HW2 2637   2.334   0.060   1.144 -1.0373  4.0965 -1.8038
  880SOL     OW 2638   0.733   0.529   2.259  0.0403 -0.0996 -0.4060
  880SOL    HW1 2639   0.690   0.461   2.324 -0.2143 -1.9231 -3.3258
  880SOL    HW2 2640   0.800   0.484   2.191  0.6036 -1.5999 -0.3150
  881SOL     OW 2641   0.818   0.087   0.416 -0.0685 -0.0170 -0.1270
  881SOL    HW1 2642   0.874  -0.002   0.414  3.4733 -2.6366  1.2059
  881SOL    HW2 2643   0.717   0.078   0.393 -0.8355  0.0519 -0.6752
  882SOL     OW 2644   2.728   1.663   1.700 -0.4839 -0.0167  0.3286
  882SOL    HW1 2645   2.827   1.639   1.671  0.8860  1.5266 -2.4294
  882SOL    HW2 2646   2.724   1.692   1.795  1.3191  1.3141 -3.7571
  883SOL     OW 2647   0.811   0.505   0.924  0.0405  0.1804  0.1024
  883SOL    HW1 2648   0.877   0.578   0.955 -1.3487  0.0114 -0.9964
  883SOL    HW2 2649   0.762   0.462   1.007  0.0433  1.2386  3.1982
  884SOL     OW 2650   1.105   1.759   1.141 -0.0004 -0.2949  0.8001
  884SOL    HW1 2651   1.088   1.664   1.112 -1.9412  0.8583 -0.8991
  884SOL    HW2 2652   1.053   1.824   1.071  0.4661 -0.4111  0.6272
  885SOL     OW 2653   2.332   1.850   2.219  0.1031 -0.5670 -0.0734
  885SOL    HW1 2654   2.252   1.808   2.275 -1.4686  0.7136  1.9992
  885SOL    HW2 2655   2.328   1.954   2.237 -3.0878  2.1075 -1.3188
  886SOL     OW 2656   2.606   0.351   1.810 -0.3907 -0.3448 -0.0958
  886SOL    HW1 2657   2.579   0.350   1.910 -0.7571 -0.6579 -0.5513
  886SOL    HW2 2658   2.695   0.402   1.799 -1.3017  0.7922 -0.4045
  887SOL     OW 2659   0.152   2.053   1.254  0.0804  0.3696  0.4276
  887SOL    HW1 2660   0.054   2.052   1.276  1.6714 -0.9394 -0.5342
  887SOL    HW2 2661   0.181   2.142   1.214 -1.9885 -1.2178 -0.4529
  888SOL     OW 2662   0.657   1.214   1.498  0.2026  0.2185 -0.1360
  888SOL    HW1 2663   0.683   1.248   1.407 -2.7259  0.3148  1.5498
  888SOL    HW2 2664   0.602   1.124   1.489 -3.1304 -0.8003 -0.2136
  889SOL     OW 2665   0.860   2.459   2.251 -0.1176  0.7290  0.3744
  889SOL    HW1 2666   0.779   2.397   2.256  1.1776 -0.3278  0.1211
  889SOL    HW2 2667   0.916   2.446   2.165 -1.1832  1.6386 -1.7782
  890SOL     OW 2668   2.349   2.471   0.230 -0.0341  1.0598  0.4929
  890SOL    HW1 2669   2.330   2.555   0.168  1.2566 -0.3353  0.6164
  890SOL    HW2 2670   2.285   2.467   0.310  1.0122 -1.6707 -2.5258
  891SOL     OW 2671   2.532   1.717   0.708 -0.2809  0.3305 -0.3706
  891SOL    HW1 2672   2.497   1.658   0.786  0.1993  0.2454  1.0964
  891SOL    HW2 2673   2.475   1.702   0.619 -1.4827  1.9658 -1.8883
  892SOL     OW 2674   0.393   0.374   2.220  0.5343 -0.4511  0.2797
  892SOL    HW1 2675   0.389   0.464   2.166  0.9401  2.0296  0.8050
  892SOL    HW2 2676   0.457   0.377   2.301 -1.0910 -2.0791 -0.8631
  893SOL     OW 2677   1.710   0.224   2.709  0.2587 -0.3765 -0.2114
  893SOL    HW1 2678   1.775   0.290   2.760 -1.2449 -1.9252  2.7375
  893SOL    HW2 2679   1.617   0.267   2.672 -0.8544  1.8890  0.0932
  894SOL     OW 2680   2.172   2.089   0.071 -0.2287  0.0105 -0.2585
  894SOL    HW1 2681   2.140   2.018   0.003  1.9686 -1.0514  1.9706
  894SOL    HW2 2682   2.171   2.047   0.164 -0.9711  1.2290 -0.8876
  895SOL     OW 2683   2.737   1.441   0.936  0.7622  0.7736 -0.0954
  895SOL    HW1 2684   2.814   1.376   0.920  0.9345 -0.4992 -1.0373
  895SOL    HW2 2685   2.774   1.536   0.956  0.1165 -2.9702  2.1663
  896SOL     OW 2686   1.842   1.869   1.221  0.2482 -0.0280  0.0989
  896SOL    HW1 2687   1.905   1.797   1.254  3.2521  0.5677 -1.5655
  896SOL    HW2 2688   1.765   1.825   1.168  1.0399  0.3037 -1.2074
  897SOL     OW 2689   0.262   0.506   3.026  0.4871  0.1264  0.2481
  897SOL    HW1 2690   0.219   0.578   2.963  1.7602 -3.1563 -0.3246
  897SOL    HW2 2691   0.352   0.543   3.061  0.1420  1.7493  0.3205
  898SOL     OW 2692   0.685   2.799   1.022  0.0883  0.0521 -0.5255
  898SOL    HW1 2693   0.721   2.896   1.022 -0.9544  0.6307  1.3940
  898SOL    HW2 2694   0.707   2.763   1.116 -1.8335 -1.0554 -1.4398
  899SOL     OW 2695   2.851   0.887   1.428  0.0138  0.0664 -0.0356
  899SOL    HW1 2696   2.819   0.930   1.341  0.1479 -3.5625 -0.8732
  899SOL    HW2 2697   2.944   0.916   1.452 -1.4591 -0.7676 -1.2016
  900SOL     OW 2698   0.990   2.427   2.466 -0.1324  0.8211  0.3235
  900SOL    HW1 2699   0.925   2.437   2.386 -0.9484  0.0327 -1.6978
  900SOL    HW2 2700   0.943   2.367   2.543 -0.6459  0.0243  2.7363
  901SOL     OW 2701   1.919   2.453   1.406 -0.3040 -0.2206 -0.4224
  901SOL    HW1 2702   1.890   2.382   1.332  1.3615 -1.6882  1.2688
  901SOL    HW2 2703   2.003   2.421   1.460  1.5092 -2.4394 -2.0624
  902SOL     OW 2704   2.515   1.667   1.476 -0.5258  0.5962  0.5791
  902SOL    HW1 2705   2.573   1.660   1.563  0.9671 -0.2902  1.2936
  902SOL    HW2 2706   2.565   1.621   1.397 -2.3147  0.4217  0.3899
  903SOL     OW 2707   0.340   2.493   1.994 -0.1468  0.4695 -0.1918
  903SOL    HW1 2708   0.272   2.424   2.032  0.4390  0.5990 -1.3935
  903SOL    HW2 2709   0.304   2.574   1.937 -0.8722  1.9802 -0.4475
  904SOL     OW 2710   1.993   0.788   2.488 -0.0830  0.4463  1.0937
  904SOL    HW1 2711   1.935   0.705   2.523 -1.5810  0.4175  0.4620
  904SOL    HW2 2712   2.022   0.785   2.388  2.4460 -0.9357  1.1385
  905SOL     OW 2713   2.845   0.088   2.383  0.4319  0.0560 -0.3598
  905SOL    HW1 2714   2.891  -0.008   2.379 -0.7593 -1.2515  0.7121
  905SOL    HW2 2715   2.901   0.161   2.437  2.3122 -0.2630  0.7314
  906SOL     OW 2716   0.161   1.694   1.881 -0.7065  0.0585  0.1095
  906SOL    HW1 2717   0.119   1.748   1.797  1.5619  0.7139 -0.5912
  906SOL    HW2 2718   0.266   1.700   1.891  0.7587 -0.1282 -3.0066
  907SOL     OW 2719   0.226   2.481   0.954 -0.7463 -0.3909  0.0879
  907SOL    HW1 2720   0.322   2.444   0.962 -1.0417 -2.5424  1.7939
  907SOL    HW2 2721   0.224   2.576   0.911  1.9967 -1.6042  0.7194
  908SOL     OW 2722   2.830   3.045   0.269 -0.0328  0.2862 -0.2348
  908SOL    HW1 2723   2.726   3.034   0.245 -0.5836 -0.8985 -0.4507
  908SOL    HW2 2724   2.888   2.957   0.286  0.7312 -1.7676  1.0900
  909SOL     OW 2725   0.841   1.042   2.688  0.4972  0.1739 -0.4208
  909SOL    HW1 2726   0.791   0.959   2.650  1.2710  1.6756  3.7516
  909SOL    HW2 2727   0.935   1.051   2.651  0.7484 -0.3894  0.5029
  910SOL     OW 2728   1.785   1.874   2.153 -0.2338 -0.0330 -0.1201
  910SOL    HW1 2729   1.860   1.913   2.095  0.5811  0.3119  1.8107
  910SOL    HW2 2730   1.713   1.943   2.172  2.5912  2.5297 -3.3021
  911SOL     OW 2731   1.782   2.966   1.533  0.5476 -0.4234  0.5333
  911SOL    HW1 2732   1.851   2.958   1.453 -0.5067  0.3167  1.0339
  911SOL    HW2 2733   1.796   2.892   1.605  0.3222 -1.7830 -1.3210
  912SOL     OW 2734   2.847   1.018   0.716  0.4883  0.2462  0.2607
  912SOL    HW1 2735   2.897   1.005   0.807 -1.9769 -1.9997  0.8535
  912SOL    HW2 2736   2.762   1.074   0.734 -1.6243  0.4800 -1.6679
  913SOL     OW 2737   2.554   1.285   1.529 -0.4517 -0.2936 -0.3207
  913SOL    HW1 2738   2.565   1.179   1.526  2.9126 -0.7958 -2.9804
  913SOL    HW2 2739   2.625   1.321   1.463 -1.8128  0.7858  1.2075
  914SOL     OW 2740   2.774   0.593   1.146 -0.0623  0.2411 -0.4026
  914SOL    HW1 2741   2.785   0.508   1.195  0.4949  0.4376 -1.9210
  914SOL    HW2 2742   2.692   0.650   1.169  0.5907  3.1851 -0.1189
  915SOL     OW 2743   1.187   0.787   0.979  0.2004 -0.2462  0.4720
  915SOL    HW1 2744   1.228   0.837   1.066  0.1106 -1.5009  1.9517
  915SOL    HW2 2745   1.090   0.757   0.996  1.0724 -1.9808  0.8383
  916SOL     OW 2746   0.574   0.133   0.677 -0.4331 -0.1168 -0.3305
  916SOL    HW1 2747   0.659   0.182   0.723  2.6214 -3.6185  1.3386
  916SOL    HW2 2748   0.560   0.165   0.582 -0.6388 -3.3218  1.2520
  917SOL     OW 2749   2.858   2.569   2.001  0.0940 -0.3478 -0.1505
  917SOL    HW1 2750   2.770   2.611   1.969  2.3188 -4.0633 -0.5773
  917SOL    HW2 2751   2.944   2.619   1.974  0.9797  2.1316  1.8916
  918SOL     OW 2752   1.007   2.079   3.008 -0.0106 -0.4424  0.2682
  918SOL    HW1 2753   1.017   2.146   3.088  0.7832  0.2530  0.8740
  918SOL    HW2 2754   1.084   2.079   2.942  0.6139 -1.4526 -0.6702
  919SOL     OW 2755   0.871   1.712   2.755 -0.0870  0.1705  0.1535
  919SOL    HW1 2756   0.904   1.797   2.710 -0.5480 -0.0817 -0.1811
  919SOL    HW2 2757   0.830   1.648   2.685 -1.0872 -0.9300  1.4944
  920SOL     OW 2758   1.297   1.754   2.520 -0.5133 -0.1332  0.4514
  920SOL    HW1 2759   1.388   1.733   2.469  0.0237 -0.2261 -0.2390
  920SOL    HW2 2760   1.268   1.667   2.565  0.1074 -0.2880 -1.0176
  921SOL     OW 2761   1.139   0.014   2.651  0.0753 -0.3927 -0.2565
  921SOL    HW1 2762   1.115   0.008   2.552 -0.6484 -2.6224  1.7234
  921SOL    HW2 2763   1.052   0.010   2.716 -1.2034  0.1027  0.7511
  922SOL     OW 2764   2.185   2.373   2.742 -0.1672 -0.0082 -0.3586
  922SOL    HW1 2765   2.180   2.265   2.759 -0.3656 -2.2188  1.4153
  922SOL    HW2 2766   2.109   2.405   2.679  2.3256  0.0150  2.2097
  923SOL     OW 2767   1.272   2.739   0.267 -0.1496 -0.5823 -0.2246
  923SOL    HW1 2768   1.340   2.790   0.327  0.2578 -1.2602  1.5635
  923SOL    HW2 2769   1.292   2.637   0.261 -0.4400 -2.7741  2.6688
  924SOL     OW 2770   2.888   1.710   0.148 -0.1329 -0.4461  0.2289
  924SOL    HW1 2771   2.804   1.674   0.095 -2.6723  1.5993  0.1100
  924SOL    HW2 2772   2.978   1.657   0.124 -0.0795  0.4491 -1.2580
  925SOL     OW 2773   0.045   2.866   1.518  0.2003  0.1424  0.2905
  925SOL    HW1 2774   0.031   2.794   1.590 -0.5923 -0.2623  0.7490
  925SOL    HW2 2775  -0.017   2.853   1.431  0.0665  0.5448 -1.4382
  926SOL     OW 2776   1.313   2.828   1.313 -0.1025  0.6549  0.4264
  926SOL    HW1 2777   1.354   2.826   1.215 -0.5483 -2.3219  0.1784
  926SOL    HW2 2778   1.351   2.894   1.384 -0.4759 -0.7341 -1.5797
  927SOL     OW 2779   0.363   2.661   1.748 -0.2549  0.3000  0.3240
  927SOL    HW1 2780   0.340   2.573   1.694  0.5540 -2.3607  1.2724
  927SOL    HW2 2781   0.311   2.744   1.709 -2.5256  0.3905 -1.1060
  928SOL     OW 2782   1.593   2.073   2.221  0.1162  0.0598  0.4786
  928SOL    HW1 2783   1.615   2.150   2.153  0.0541  0.7307  0.7777
  928SOL    HW2 2784   1.502   2.071   2.266  0.3064 -1.3056  1.2812
  929SOL     OW 2785   2.402   2.503   2.860 -0.0180 -0.0878  0.0359
  929SOL    HW1 2786   2.323   2.435   2.841 -1.0751 -2.3851 -1.9311
  929SOL    HW2 2787   2.464   2.516   2.779 -0.8594 -3.5025  2.1487
  930SOL     OW 2788   2.168   2.002   1.133 -0.6814 -0.8762 -0.2616
  930SOL    HW1 2789   2.148   1.942   1.218 -0.4456  1.8892 -0.6905
  930SOL    HW2 2790   2.257   2.059   1.141  1.8164 -1.9740  1.5237
  931SOL     OW 2791   0.512   1.728   2.642  0.3569 -0.2152  0.3364
  931SOL    HW1 2792   0.505   1.748   2.740  0.3296  1.3005 -2.9457
  931SOL    HW2 2793   0.600   1.680   2.617 -1.9842  0.0065 -1.1442
  932SOL     OW 2794   0.355   0.087   3.074  0.5086  0.7702  0.5749
  932SOL    HW1 2795   0.443   0.125   3.111  2.4017 -0.5817 -0.9957
  932SOL    HW2 2796   0.375  -0.006   3.029  0.4254 -1.7374 -1.8208
  933SOL     OW 2797   0.964   0.848   3.035 -0.3953  0.0139 -0.0776
  933SOL    HW1 2798   0.869   0.808   3.044  1.3894 -0.2472 -2.0192
  933SOL    HW2 2799   0.970   0.947   3.015 -0.4702 -0.0614  0.9469
  934SOL     OW 2800   0.725   2.926   2.672 -0.6317 -0.2840 -0.0856
  934SOL    HW1 2801   0.756   2.880   2.582  0.2765 -1.3868 -2.6739
  934SOL    HW2 2802   0.789   2.891   2.752  1.2502 -1.4302 -0.8627
  935SOL     OW 2803   0.004   0.539   0.828 -0.3223  0.1501 -0.3391
  935SOL    HW1 2804  -0.007   0.515   0.726 -0.8517  1.4896 -3.0175
  935SOL    HW2 2805  -0.053   0.619   0.852  0.4620 -0.1574 -1.6527
  936SOL     OW 2806   1.098   2.839   0.078  0.0097  0.4254  0.1079
  936SOL    HW1 2807   1.124   2.898  -0.003  0.9573 -0.7593  1.8203
  936SOL    HW2 2808   1.181   2.821   0.143  0.1439  2.4863 -0.8192
  937SOL     OW 2809   1.918   2.643   2.062 -0.6813  0.1861  0.5784
  937SOL    HW1 2810   1.830   2.668   2.114 -2.0345  0.1205 -1.2301
  937SOL    HW2 2811   1.962   2.723   2.018 -3.1550 -1.2072 -1.9855
  938SOL     OW 2812   2.789   2.090   1.559  0.3750 -0.1558 -0.2045
  938SOL    HW1 2813   2.782   2.193   1.554 -0.5224  0.0120 -0.6174
  938SOL    HW2 2814   2.864   2.056   1.621  0.3810  1.8734  1.8356
  939SOL     OW 2815   2.788   1.227   2.481 -0.0245  0.2636 -0.5132
  939SOL    HW1 2816   2.866   1.187   2.420 -0.3760 -1.1063 -1.2182
  939SOL    HW2 2817   2.778   1.174   2.569  0.8681  1.6429 -0.5463
  940SOL     OW 2818   1.037   0.429   2.769 -0.0708 -0.2622  0.5383
  940SOL    HW1 2819   1.107   0.355   2.750 -2.8261  0.3205 -2.8837
  940SOL    HW2 2820   0.988   0.455   2.680  0.0302  1.7396 -2.0262
  941SOL     OW 2821  -0.004   2.787   2.256 -0.1004 -0.2704  0.1743
  941SOL    HW1 2822   0.042   2.707   2.211 -0.3577  2.4682 -2.2867
  941SOL    HW2 2823   0.059   2.846   2.314 -2.4792 -0.3795 -1.5091
  942SOL     OW 2824   0.054   0.080   2.549  0.2295 -0.2198  0.2239
  942SOL    HW1 2825   0.124   0.089   2.626  1.9809  0.7445 -1.1761
  942SOL    HW2 2826   0.079   0.147   2.475  0.4791 -0.0853  0.6137
  943SOL     OW 2827   2.109   1.712   2.338 -0.4989  0.1459 -0.7115
  943SOL    HW1 2828   2.113   1.663   2.250  0.2944  1.5192  0.8651
  943SOL    HW2 2829   2.141   1.643   2.407  0.1692  0.0506 -0.8747
  944SOL     OW 2830   2.196   2.362   1.498  0.2566  0.4506 -0.2889
  944SOL    HW1 2831   2.279   2.405   1.549  2.5098 -2.0512  1.4675
  944SOL    HW2 2832   2.145   2.288   1.557  1.9443  2.0269  1.5298
  945SOL     OW 2833   0.709   1.585   0.070 -0.3335 -0.4915 -0.0473
  945SOL    HW1 2834   0.616   1.578   0.020 -0.7053  4.7500  2.3678
  945SOL    HW2 2835   0.713   1.534   0.159  0.3911 -0.6209 -0.4681
  946SOL     OW 2836   0.371   0.985   2.549  1.1036 -0.3250 -0.5249
  946SOL    HW1 2837   0.311   0.920   2.496 -0.1577  0.2701 -1.4362
  946SOL    HW2 2838   0.368   1.082   2.520 -1.5863 -0.3219  0.5324
  947SOL     OW 2839   1.483   0.549   3.079  0.1283 -0.6361 -0.3137
  947SOL    HW1 2840   1.482   0.612   3.001  3.1110 -0.7730  1.4186
  947SOL    HW2 2841   1.393   0.506   3.107  1.7137  0.9349 -0.7186
  948SOL     OW 2842   1.898   2.994   2.157  0.1855  0.2177  0.4417
  948SOL    HW1 2843   1.877   2.964   2.059 -2.6135  1.4589 -2.8766
  948SOL    HW2 2844   1.871   2.921   2.231 -1.5396  0.1393  0.6747
  949SOL     OW 2845   0.606   2.439   0.480 -0.2763  0.0968 -0.1698
  949SOL    HW1 2846   0.616   2.543   0.477  0.6569  1.9935 -1.9965
  949SOL    HW2 2847   0.585   2.399   0.568 -1.2140 -0.1723 -2.0037
  950SOL     OW 2848   0.201   2.231   2.970 -0.5662  0.3244  0.3031
  950SOL    HW1 2849   0.205   2.320   2.911  1.8463  0.4355  2.4300
  950SOL    HW2 2850   0.197   2.141   2.909 -0.3616  0.6810 -0.9963
  951SOL     OW 2851   1.167   2.655   2.768 -0.0340  0.1266 -0.1297
  951SOL    HW1 2852   1.220   2.612   2.849  0.6005  0.1144  0.3921
  951SOL    HW2 2853   1.226   2.654   2.684 -0.0853 -1.7819  0.7060
  952SOL     OW 2854   0.118   1.639   0.407 -0.9086  0.3441 -0.2914
  952SOL    HW1 2855   0.162   1.736   0.423 -0.0281  1.8763  0.7374
  952SOL    HW2 2856   0.122   1.574   0.485 -0.8078 -0.6179 -4.1613
  953SOL     OW 2857   2.531   1.768   0.259  0.2848  0.4407 -0.6138
  953SOL    HW1 2858   2.539   1.663   0.246  1.2558  0.5749 -0.0485
  953SOL    HW2 2859   2.479   1.803   0.179 -0.1915 -1.2493  1.0008
  954SOL     OW 2860   2.161   0.582   0.936  0.5669  0.1196 -0.2687
  954SOL    HW1 2861   2.187   0.551   0.835  0.1140 -0.0313 -0.6692
  954SOL    HW2 2862   2.238   0.566   1.011  1.1184 -0.2741  2.2017
  955SOL     OW 2863   0.118   2.555   1.370 -0.9487 -0.0748  0.0032
  955SOL    HW1 2864   0.019   2.585   1.346 -1.7379 -3.8135 -0.9484
  955SOL    HW2 2865   0.191   2.624   1.345  1.3453  0.9597  1.2316
  956SOL     OW 2866   2.817   2.477   2.518 -0.2265 -0.0865 -0.5463
  956SOL    HW1 2867   2.783   2.376   2.516 -0.3193 -1.0810 -3.2026
  956SOL    HW2 2868   2.821   2.523   2.423  0.0176 -0.2096 -1.7779
  957SOL     OW 2869   1.568   2.052   2.728 -0.0922  0.2433 -0.1838
  957SOL    HW1 2870   1.532   1.969   2.778 -2.1710  0.2919 -0.3311
  957SOL    HW2 2871   1.653   2.021   2.676 -2.6436  0.6274 -0.7793
  958SOL     OW 2872   2.596   2.281   2.952 -0.4611  0.4670  0.3993
  958SOL    HW1 2873   2.524   2.349   2.937 -0.5849 -0.0777  1.0027
  958SOL    HW2 2874   2.588   2.230   3.045  0.3958  2.1471  3.5731
  959SOL     OW 2875   0.345   2.766   0.099 -0.6467  0.6002 -0.2283
  959SOL    HW1 2876   0.267   2.816   0.140  1.4484  0.5346  0.2637
  959SOL    HW2 2877   0.365   2.673   0.146 -0.4155 -0.6686  3.7051
  960SOL     OW 2878   1.956   0.425   1.935  0.0171  0.4236 -0.7565
  960SOL    HW1 2879   1.937   0.521   1.899  1.3123 -1.4712 -1.4242
  960SOL    HW2 2880   1.969   0.421   2.039  1.7366 -0.9592  0.4445
  961SOL     OW 2881   2.545   1.845   1.022 -0.1754  0.3346  0.7951
  961SOL    HW1 2882   2.540   1.946   1.006 -1.1996 -1.1771  1.4523
  961SOL    HW2 2883   2.522   1.826   1.119  0.5426  1.6554  0.9408
  962SOL     OW 2884   1.328   0.859   0.057  0.4775  0.4692  0.0995
  962SOL    HW1 2885   1.303   0.894  -0.037 -0.4986  0.8036  0.3109
  962SOL    HW2 2886   1.311   0.928   0.128  1.1340 -1.1160 -1.6199
  963SOL     OW 2887   2.284   2.561   1.827 -0.3355 -0.5031 -0.2494
  963SOL    HW1 2888   2.236   2.487   1.887 -2.2792  2.8358  0.4778
  963SOL    HW2 2889   2.349   2.622   1.875  0.3865  0.1099 -4.8982
  964SOL     OW 2890   2.360   0.365   1.645  0.7467  0.0302  0.2813
  964SOL    HW1 2891   2.447   0.344   1.691 -1.8775 -0.2660  0.3304
  964SOL    HW2 2892   2.370   0.389   1.541 -0.7520  2.9938  1.2789
  965SOL     OW 2893   2.588   2.980   0.154 -0.4294  0.5240  0.4202
  965SOL    HW1 2894   2.666   2.962   0.083  0.4035  0.7344 -0.1351
  965SOL    HW2 2895   2.494   2.972   0.107 -0.8069  0.4769  0.1520
  966SOL     OW 2896   2.515   2.514   2.191  0.3217  0.5148 -0.2255
  966SOL    HW1 2897   2.552   2.611   2.172 -1.0977  3.0363  0.3728
  966SOL    HW2 2898   2.415   2.504   2.169  0.7090  0.7594 -1.4983
  967SOL     OW 2899   2.736   2.859   2.444  1.1082  0.2093  0.6039
  967SOL    HW1 2900   2.745   2.802   2.358 -0.2538 -1.8301  1.5316
  967SOL    HW2 2901   2.824   2.914   2.466 -0.0747  1.2717  1.4825
  968SOL     OW 2902   1.951   1.041   2.627 -0.4488  0.3752 -0.3078
  968SOL    HW1 2903   1.879   1.110   2.600 -0.1308 -2.6792 -1.3865
  968SOL    HW2 2904   1.955   0.961   2.565  0.6811  1.1708 -1.2235
  969SOL     OW 2905   2.763   2.491   1.075 -0.3398 -0.7743  0.2795
  969SOL    HW1 2906   2.725   2.466   0.981 -0.5089  1.0800 -0.4237
  969SOL    HW2 2907   2.811   2.413   1.123  2.4223 -0.5869 -1.6072
  970SOL     OW 2908   1.092   2.124   1.855 -0.5672 -0.2690 -0.2964
  970SOL    HW1 2909   1.019   2.058   1.835 -0.8070  0.2233 -2.1387
  970SOL    HW2 2910   1.061   2.218   1.890 -1.3907  1.1281  0.5901
  971SOL     OW 2911   2.856   2.048   1.972  0.9049  0.1928  0.7385
  971SOL    HW1 2912   2.863   2.151   2.000 -0.4411 -1.5052  2.5896
  971SOL    HW2 2913   2.927   2.021   1.897  1.0226  0.6467  1.5775
  972SOL     OW 2914   1.942   2.490   0.264  0.6512 -0.0687  0.3935
  972SOL    HW1 2915   1.960   2.413   0.196 -1.3038 -0.3138 -3.0325
  972SOL    HW2 2916   1.957   2.445   0.357  1.0133 -1.9916 -2.7010
  973SOL     OW 2917   1.212   0.910   1.867  0.3595  0.2710 -0.2244
  973SOL    HW1 2918   1.158   0.828   1.899  3.9592  0.1258 -0.7289
  973SOL    HW2 2919   1.148   0.974   1.813 -0.1016  0.1983 -0.5683
  974SOL     OW 2920   1.642   0.569   1.959  0.0011 -0.1166 -0.7791
  974SOL    HW1 2921   1.732   0.585   1.910  1.2479  1.4757 -3.4169
  974SOL    HW2 2922   1.575   0.644   1.941 -1.1277 -0.8323 -0.4017
  975SOL     OW 2923   2.355   3.049   3.071 -0.4143 -0.0900  0.6830
  975SOL    HW1 2924   2.289   2.981   3.113 -0.1850  0.2089 -1.7048
  975SOL    HW2 2925   2.396   3.018   2.982 -0.2073  0.2831  2.8120
  976SOL     OW 2926   1.902   2.818   2.355 -0.2627  0.7590  0.1094
  976SOL    HW1 2927   1.807   2.775   2.358 -0.4822 -0.4472 -1.4534
  976SOL    HW2 2928   1.941   2.823   2.448 -0.6666  0.5864  1.0277
  977SOL     OW 2929   0.509   0.636   1.008  0.1354 -1.3357 -0.5710
  977SOL    HW1 2930   0.429   0.634   0.945 -1.7033  0.5787 -1.1427
  977SOL    HW2 2931   0.570   0.717   0.989  3.8353  0.1858 -1.9820
   3.10000   3.10000   3.10000
