1000 SPC/Fw water molecules t=   1.29000 step= 1290
 2931
    1SOL     OW    1   2.547   0.350   2.603 -0.1436 -0.0027 -0.1618
    1SOL    HW1    2   2.535   0.250   2.609 -1.7347  0.9913  2.2278
    1SOL    HW2    3   2.592   0.382   2.692 -1.7492  1.9734  0.8795
    2SOL     OW    4   2.757   2.989   1.368 -0.0502  0.2283 -0.0858
    2SOL    HW1    5   2.820   3.043   1.302 -1.1706 -0.0703  1.2838
    2SOL    HW2    6   2.721   3.051   1.442 -0.0191 -1.9732 -1.3481
    3SOL     OW    7   2.614   2.571   0.424  0.3173  0.0464 -0.1354
    3SOL    HW1    8   2.586   2.469   0.412 -0.2202  0.3597 -1.8510
    3SOL    HW2    9   2.667   2.584   0.512 -1.2494 -0.5050  2.8902
    4SOL     OW   10   1.242   1.521   2.406 -0.4316 -0.2678  0.5486
    4SOL    HW1   11   1.181   1.538   2.324  0.7990 -0.5258  0.2207
    4SOL    HW2   12   1.268   1.420   2.412 -1.1989  2.0570 -0.6285
    5SOL     OW   13   1.184   1.577   2.933 -0.0623 -0.2114 -0.8108
    5SOL    HW1   14   1.223   1.660   2.983 -1.2042 -0.6033 -0.3652
    5SOL    HW2   15   1.100   1.597   2.880  1.0517  1.0213 -2.5345
    6SOL     OW   16   0.277   1.837   3.032 -0.3863  0.5699 -0.4288
    6SOL    HW1   17   0.179   1.830   3.046  2.9677 -0.6219  1.0929
    6SOL    HW2   18   0.321   1.793   3.112 -0.2343  1.0335  1.3026
    7SOL     OW   19   2.526   0.837   1.058  0.1397  0.3226 -0.2510
    7SOL    HW1   20   2.451   0.791   1.114 -0.0837  1.8995  1.0215
    7SOL    HW2   21   2.500   0.856   0.959 -1.0283  1.9987 -1.4711
    8SOL     OW   22   0.397   0.604   1.485 -0.7857 -0.1399  0.6349
    8SOL    HW1   23   0.499   0.578   1.501  1.8535 -0.0923  1.7865
    8SOL    HW2   24   0.381   0.626   1.386  0.8919  0.9731 -0.0160
    9SOL     OW   25   1.190   0.847   2.429  0.5104  0.0029  0.1524
    9SOL    HW1   26   1.232   0.878   2.338  0.6975  1.9782  0.9954
    9SOL    HW2   27   1.137   0.761   2.420  1.9746  1.9904 -0.5658
   10SOL     OW   28   0.668   1.384   1.307  0.5708  0.7298  0.0617
   10SOL    HW1   29   0.564   1.384   1.274 -3.1048 -1.0697 -0.0610
   10SOL    HW2   30   0.713   1.477   1.295  2.1743 -0.3053 -2.1710
   11SOL     OW   31   2.312   2.824   0.819 -0.0900 -0.1371  0.1305
   11SOL    HW1   32   2.263   2.838   0.908  2.8226 -1.2539 -0.7877
   11SOL    HW2   33   2.419   2.816   0.833  2.0223  2.1151  1.1490
   12SOL     OW   34   1.480   0.815   0.429 -0.2444  0.4891 -0.2250
   12SOL    HW1   35   1.423   0.887   0.385 -1.6022  0.5600 -0.1478
   12SOL    HW2   36   1.547   0.767   0.367 -0.3726  0.6081  0.2327
   13SOL     OW   37   2.414   0.741   1.756 -0.1207 -0.1103  0.0522
   13SOL    HW1   38   2.379   0.658   1.808 -1.1677  1.2020  1.7705
   13SOL    HW2   39   2.436   0.713   1.658  1.4901  0.4628 -2.8804
   14SOL     OW   40   1.909   0.054   0.655  0.2873 -0.5914 -0.3907
   14SOL    HW1   41   1.815   0.067   0.611  1.3357  1.8411 -0.9688
   14SOL    HW2   42   1.916  -0.025   0.721 -0.2568 -1.2462  0.3444
   15SOL     OW   43   1.899   2.100   2.670  0.1193 -0.0262 -0.3343
   15SOL    HW1   44   1.833   2.174   2.704  0.8796 -1.0026  0.1556
   15SOL    HW2   45   1.854   2.009   2.650 -2.0212  0.9580 -2.6983
   16SOL     OW   46   1.598   1.698   2.999  0.1244 -0.1961 -0.0566
   16SOL    HW1   47   1.603   1.598   3.028  1.8471  1.4780 -0.6134
   16SOL    HW2   48   1.689   1.752   3.017  0.1208 -0.9566 -0.6426
   17SOL     OW   49   0.126   0.446   0.180  0.1550 -0.6955  0.3031
   17SOL    HW1   50   0.210   0.470   0.119  1.7011  2.2971 -0.2968
   17SOL    HW2   51   0.035   0.482   0.136  0.6970  0.3784 -0.6131
   18SOL     OW   52   0.931   2.952   2.158  0.2792  0.6582  0.0178
   18SOL    HW1   53   0.852   2.889   2.196 -2.9340 -0.3823 -2.0075
   18SOL    HW2   54   0.986   2.913   2.081 -0.2707 -1.3744  2.3488
   19SOL     OW   55   0.502   0.834   1.891  0.0957 -0.3131  0.0252
   19SOL    HW1   56   0.529   0.776   1.972  1.2858 -0.6613 -0.3734
   19SOL    HW2   57   0.568   0.916   1.869  0.2845  1.6329 -3.3152
   20SOL     OW   58   0.215   2.820   0.847  0.2459 -0.2634  0.0645
   20SOL    HW1   59   0.123   2.845   0.803  0.5551 -0.6183 -1.5683
   20SOL    HW2   60   0.258   2.733   0.803 -0.3661 -0.4967  0.0596
   21SOL     OW   61   2.736   0.254   1.946  0.2653  0.0200  0.0335
   21SOL    HW1   62   2.702   0.181   1.876  1.4950 -0.5373 -1.0741
   21SOL    HW2   63   2.789   0.209   2.021 -0.2397  0.4171 -0.8890
   22SOL     OW   64   2.337   0.191   0.126  0.1477  0.3248 -0.1926
   22SOL    HW1   65   2.364   0.088   0.097  3.0121 -1.9697 -1.8887
   22SOL    HW2   66   2.302   0.255   0.047 -0.4206 -0.5400 -0.6885
   23SOL     OW   67   2.812   0.556   0.668 -0.2710 -0.1738 -0.1724
   23SOL    HW1   68   2.826   0.458   0.629 -2.1328 -2.0993  0.4658
   23SOL    HW2   69   2.832   0.637   0.603  1.4330 -0.8921 -1.9705
   24SOL     OW   70   0.255   1.902   0.478  0.1927 -0.6596  0.2492
   24SOL    HW1   71   0.194   1.953   0.405 -3.0190  1.0917 -0.6188
   24SOL    HW2   72   0.355   1.903   0.445  0.2087  1.0098  2.2394
   25SOL     OW   73   2.220   0.635   0.176  0.3057 -0.1260 -0.2406
   25SOL    HW1   74   2.196   0.636   0.076 -2.4373  0.0896 -1.1696
   25SOL    HW2   75   2.275   0.552   0.206 -1.6443 -0.2978  0.8691
   26SOL     OW   76   2.450   2.153   2.082 -0.1042  0.2147  0.8024
   26SOL    HW1   77   2.543   2.201   2.103  1.5885  0.5020 -0.0903
   26SOL    HW2   78   2.454   2.082   2.003 -2.5394  0.3932 -0.1396
   27SOL     OW   79   0.649   2.919   0.281 -0.4603  0.5173 -0.4626
   27SOL    HW1   80   0.723   2.988   0.248  1.8130  0.8550 -0.1828
   27SOL    HW2   81   0.599   2.869   0.208  0.2470 -1.0031  0.0287
   28SOL     OW   82   1.565   0.124   0.323  0.0846 -0.3251  0.1961
   28SOL    HW1   83   1.607   0.088   0.238  1.5583  0.3726  2.1709
   28SOL    HW2   84   1.577   0.226   0.337 -0.7035  0.3013  1.4989
   29SOL     OW   85   1.941   0.559   0.284 -0.3311 -0.3838 -0.1954
   29SOL    HW1   86   1.904   0.637   0.342  0.0459  1.3832  0.4463
   29SOL    HW2   87   2.040   0.564   0.256  0.8642  2.4366 -1.9585
   30SOL     OW   88   0.191   2.083   0.885  0.0339  0.1619 -0.4112
   30SOL    HW1   89   0.174   2.007   0.820 -1.5279 -0.4824  2.6868
   30SOL    HW2   90   0.105   2.126   0.920 -0.6879 -0.8632 -1.0256
   31SOL     OW   91   2.140   0.111   2.414  0.6180  0.5832  0.7210
   31SOL    HW1   92   2.099   0.072   2.498  0.8731  0.1056 -1.7715
   31SOL    HW2   93   2.121   0.058   2.328  2.0870  1.0291 -0.5285
   32SOL     OW   94   2.943   0.044   0.254  0.5910 -0.2198  0.1497
   32SOL    HW1   95   2.966  -0.051   0.284  0.9345 -0.2412  0.9353
   32SOL    HW2   96   3.033   0.106   0.261  1.5069 -0.3513 -1.1808
   33SOL     OW   97   0.888   0.299   0.606  0.5718 -0.2182 -0.0022
   33SOL    HW1   98   0.867   0.202   0.572 -2.6979 -2.2977 -1.4558
   33SOL    HW2   99   0.991   0.316   0.609  0.3618 -2.1228  0.1458
   34SOL     OW  100   0.330   2.727   1.101 -0.2834  0.3413 -0.5390
   34SOL    HW1  101   0.289   2.767   1.013  0.2910  1.8907 -1.5078
   34SOL    HW2  102   0.424   2.767   1.124 -1.1689  0.7355  0.2098
   35SOL     OW  103   0.023   0.117   1.860  0.9586 -0.2129  0.0913
   35SOL    HW1  104   0.057   0.020   1.882  0.3276 -0.8774 -0.1965
   35SOL    HW2  105  -0.011   0.119   1.760  1.4085 -0.0117  1.9475
   36SOL     OW  106   1.842   1.241   1.577 -0.8258  0.2551  0.5129
   36SOL    HW1  107   1.915   1.169   1.572 -0.5258  0.1763 -2.5447
   36SOL    HW2  108   1.859   1.306   1.498 -1.9209 -1.8416 -0.4033
   37SOL     OW  109   1.201   0.222   0.949  0.1225 -0.4946 -0.1514
   37SOL    HW1  110   1.251   0.308   0.979  0.0631  2.8389  0.6271
   37SOL    HW2  111   1.268   0.151   0.915  0.0408 -0.7791 -1.0019
   38SOL     OW  112   1.155   2.862   2.343  0.0726  0.8032  0.0339
   38SOL    HW1  113   1.086   2.810   2.398 -3.6145 -1.4140 -1.7984
   38SOL    HW2  114   1.123   2.954   2.299 -1.9528 -0.5172 -2.1504
   39SOL     OW  115   2.347   1.358   3.027  0.4808 -0.1107  0.0500
   39SOL    HW1  116   2.428   1.289   3.032 -0.1398 -0.9623  0.9363
   39SOL    HW2  117   2.302   1.378   3.120  0.5169  0.8013 -1.4514
   40SOL     OW  118   1.988   2.458   2.603  0.3700 -0.0152 -0.1200
   40SOL    HW1  119   1.962   2.556   2.600 -0.3206 -2.6786  0.4787
   40SOL    HW2  120   1.989   2.409   2.508  1.6418 -0.0835 -1.9054
   41SOL     OW  121   3.036   0.649   2.803  0.3692  0.1295 -0.5375
   41SOL    HW1  122   2.944   0.693   2.832 -1.4911  0.6656  1.9517
   41SOL    HW2  123   3.017   0.561   2.747  1.0441 -1.2737 -0.0140
   42SOL     OW  124   1.751   1.794   0.526  0.6092 -0.0091  0.7719
   42SOL    HW1  125   1.719   1.697   0.530  1.2675 -1.1799  0.3212
   42SOL    HW2  126   1.757   1.830   0.429 -0.2615 -0.9574  2.4941
   43SOL     OW  127   0.466   1.654   1.220  0.3905 -0.0839  0.8940
   43SOL    HW1  128   0.464   1.569   1.165 -0.3741  2.1055  0.1222
   43SOL    HW2  129   0.380   1.665   1.280  0.5328 -0.4483 -0.9863
   44SOL     OW  130   1.689   2.384   3.013 -0.1867  0.6626  0.3225
   44SOL    HW1  131   1.603   2.448   3.010 -0.6959  2.2667 -0.5379
   44SOL    HW2  132   1.723   2.354   2.917 -1.6548  2.3127 -1.4869
   45SOL     OW  133   0.363   1.903   2.571  0.4379  0.0774 -0.1690
   45SOL    HW1  134   0.333   1.895   2.472  1.2601 -1.8418  0.4437
   45SOL    HW2  135   0.413   1.816   2.605  1.1860  1.0145 -1.7625
   46SOL     OW  136   1.290   0.653   0.138  0.5201  0.0388  0.2143
   46SOL    HW1  137   1.257   0.747   0.114 -0.2172 -1.7416 -2.1207
   46SOL    HW2  138   1.213   0.580   0.147  0.8024 -0.6221  0.3349
   47SOL     OW  139   0.188   2.489   1.587 -0.0941 -0.0295  0.2984
   47SOL    HW1  140   0.190   2.393   1.551  0.1254  0.9415 -1.1819
   47SOL    HW2  141   0.223   2.556   1.516 -0.5898 -0.9841 -3.4693
   48SOL     OW  142   2.635   0.611   0.142 -0.6449 -0.2000  0.0770
   48SOL    HW1  143   2.627   0.592   0.247  0.5353  0.4761  0.5830
   48SOL    HW2  144   2.724   0.670   0.125  2.8110  0.4542 -1.5001
   49SOL     OW  145   0.321   0.770   1.692  0.3005 -0.0390  0.7012
   49SOL    HW1  146   0.402   0.777   1.758  1.2263 -0.0754  0.4372
   49SOL    HW2  147   0.346   0.694   1.622  0.5859 -1.1949  1.3188
   50SOL     OW  148   1.700   1.122   0.319  0.2152  0.2148  0.0491
   50SOL    HW1  149   1.740   1.043   0.261  0.5001  2.4507  0.5678
   50SOL    HW2  150   1.680   1.097   0.419 -0.6700 -0.2497 -1.2398
   51SOL     OW  151   3.007   1.733   0.253  0.2646  0.1009  0.0904
   51SOL    HW1  152   2.964   1.673   0.178  0.4102  1.3284  0.2328
   51SOL    HW2  153   3.048   1.679   0.332  0.4203 -2.6534  0.0604
   52SOL     OW  154   0.811   2.153   0.628  0.2661  0.3095  0.2652
   52SOL    HW1  155   0.747   2.213   0.688 -1.9112 -3.5108 -0.2783
   52SOL    HW2  156   0.849   2.072   0.679  0.8135 -1.4328 -0.0005
   53SOL     OW  157   0.180   0.473   1.562  0.1862  0.3878 -0.5601
   53SOL    HW1  158   0.259   0.535   1.538 -2.0494  1.5825  1.0232
   53SOL    HW2  159   0.104   0.486   1.491 -0.0974  0.8649  2.5731
   54SOL     OW  160   1.814   0.495   3.055 -0.1859  0.2116 -0.0109
   54SOL    HW1  161   1.885   0.431   3.104  1.6186 -1.6885  0.7887
   54SOL    HW2  162   1.733   0.506   3.120 -1.7219 -0.3920 -0.4855
   55SOL     OW  163   0.754   2.885   0.719 -0.6255  0.3583 -0.0233
   55SOL    HW1  164   0.709   2.979   0.720 -1.5622  2.7057  0.8234
   55SOL    HW2  165   0.834   2.878   0.656  1.2284 -2.0477  0.6739
   56SOL     OW  166   0.570   1.629   0.030  0.2499  0.4257 -0.3847
   56SOL    HW1  167   0.502   1.665   0.100  0.0232  0.2202  0.7487
   56SOL    HW2  168   0.548   1.529   0.001 -1.6695 -1.7139  1.6069
   57SOL     OW  169   1.747   2.512   2.396 -0.0742 -0.2596  0.8556
   57SOL    HW1  170   1.802   2.427   2.381 -0.8888  1.0023 -1.0147
   57SOL    HW2  171   1.679   2.507   2.478  1.0336 -1.2265 -2.1700
   58SOL     OW  172   0.658   0.235   1.120 -0.3791  0.5469  0.2783
   58SOL    HW1  173   0.582   0.261   1.181  0.4495  0.3887 -1.1033
   58SOL    HW2  174   0.678   0.134   1.104 -0.7841  0.0070 -3.1548
   59SOL     OW  175   0.412   2.385   2.745  0.0727  0.8489  0.0528
   59SOL    HW1  176   0.427   2.301   2.682  1.8571 -0.9153 -0.9084
   59SOL    HW2  177   0.505   2.411   2.780 -2.0073 -1.1507 -1.4078
   60SOL     OW  178   2.333   2.117   2.332 -0.3653  0.6862  0.5903
   60SOL    HW1  179   2.376   2.156   2.242  0.5708 -0.8963 -1.3682
   60SOL    HW2  180   2.374   2.159   2.423  2.5469 -0.4903 -0.0828
   61SOL     OW  181   1.223   0.610   0.427 -0.3765  0.4624  0.3436
   61SOL    HW1  182   1.136   0.666   0.463 -2.5627  2.1307 -0.8570
   61SOL    HW2  183   1.267   0.643   0.339  0.5719  1.3917 -1.6052
   62SOL     OW  184   2.710   1.705   2.850 -0.1736  0.1174 -0.9728
   62SOL    HW1  185   2.729   1.786   2.790  0.6349 -2.0800 -1.7415
   62SOL    HW2  186   2.789   1.635   2.839  0.3564 -0.8392 -2.3411
   63SOL     OW  187   0.575   0.887   0.212 -0.2836  0.1178 -0.3646
   63SOL    HW1  188   0.600   0.956   0.137 -1.6425  2.8069  1.4064
   63SOL    HW2  189   0.643   0.884   0.291  0.5309  1.2830  0.0887
   64SOL     OW  190   3.035   0.548   2.406  0.0932 -0.1080 -1.4980
   64SOL    HW1  191   2.966   0.595   2.474 -1.8019 -0.8926  0.1826
   64SOL    HW2  192   3.057   0.597   2.313  3.0504 -0.7878 -3.8391
   65SOL     OW  193   0.221   1.450   0.683  0.1660 -0.0399 -0.0061
   65SOL    HW1  194   0.215   1.521   0.763 -2.2101 -1.2811  3.0411
   65SOL    HW2  195   0.293   1.454   0.612 -1.1896 -2.1110  0.2860
   66SOL     OW  196   2.505   0.385   0.530  0.0063 -0.1018  0.0561
   66SOL    HW1  197   2.602   0.369   0.506  2.5495 -0.8969  1.7983
   66SOL    HW2  198   2.467   0.313   0.595  0.4796  0.2719 -1.1265
   67SOL     OW  199   0.623   2.482   1.416 -0.1749  0.5409  0.2822
   67SOL    HW1  200   0.709   2.428   1.448  2.0624  1.0772  0.6680
   67SOL    HW2  201   0.537   2.425   1.420  3.0850 -3.8950 -2.3547
   68SOL     OW  202   1.002   1.018   2.520  0.4602  0.5234 -0.2937
   68SOL    HW1  203   1.064   0.932   2.508 -2.3169  1.1243 -0.8211
   68SOL    HW2  204   0.947   1.047   2.432  1.6895 -0.1231 -0.9883
   69SOL     OW  205   0.750   2.757   2.217  0.1349 -0.8299 -0.0946
   69SOL    HW1  206   0.778   2.660   2.193  2.1820  0.8667  2.1862
   69SOL    HW2  207   0.656   2.766   2.253 -0.2997  1.0968  0.1322
   70SOL     OW  208   0.459   0.120   2.541 -0.2101 -0.3083 -0.5557
   70SOL    HW1  209   0.369   0.130   2.585 -0.6550  2.0672  0.9599
   70SOL    HW2  210   0.520   0.048   2.590  3.4460  0.6226  0.9855
   71SOL     OW  211   1.157   1.784   0.348  0.4994  0.1294 -0.2344
   71SOL    HW1  212   1.081   1.727   0.386 -0.4584 -0.1461  1.1883
   71SOL    HW2  213   1.123   1.841   0.265  0.8952 -2.8177 -1.4466
   72SOL     OW  214   1.813   0.179   2.171  0.1423  0.5392  0.1116
   72SOL    HW1  215   1.876   0.263   2.162 -1.9613  1.3235  1.7924
   72SOL    HW2  216   1.869   0.096   2.199  0.7112 -4.6992 -0.0612
   73SOL     OW  217   2.804   2.152   2.361 -0.3146  0.6112  0.1578
   73SOL    HW1  218   2.806   2.052   2.328  3.5283 -1.3836  0.3891
   73SOL    HW2  219   2.828   2.163   2.465  2.3708  3.4060 -0.6282
   74SOL     OW  220   2.646   2.865   2.188  0.3894  0.0091 -0.0391
   74SOL    HW1  221   2.639   2.880   2.288  0.3860  0.1662 -2.4718
   74SOL    HW2  222   2.742   2.891   2.144  2.4270  1.1516 -3.2724
   75SOL     OW  223   0.957   0.859   1.073  0.0456 -0.0404 -0.0955
   75SOL    HW1  224   0.874   0.904   1.033  0.3097  0.6411  2.9711
   75SOL    HW2  225   0.968   0.888   1.171 -3.5721 -1.3052 -1.4684
   76SOL     OW  226   1.809   1.220   2.455  0.2541 -0.0631 -0.3600
   76SOL    HW1  227   1.703   1.218   2.459 -0.6167  1.9744 -0.4125
   76SOL    HW2  228   1.856   1.304   2.499 -0.4051  1.4696  0.6858
   77SOL     OW  229   2.942   0.908   1.040 -0.1845 -0.0163  0.2338
   77SOL    HW1  230   2.931   0.808   1.015  1.0587  0.5516  1.3298
   77SOL    HW2  231   3.024   0.921   1.105  0.2448  0.3353 -1.6577
   78SOL     OW  232   2.004   1.416   1.443  0.2668 -0.3734 -0.1791
   78SOL    HW1  233   2.107   1.423   1.434 -0.0421  0.3903  2.9324
   78SOL    HW2  234   1.947   1.453   1.364  1.7938  0.7236 -0.7141
   79SOL     OW  235   0.633   1.431   0.803  0.9187  0.1216  0.1325
   79SOL    HW1  236   0.550   1.408   0.861 -1.7031 -3.7921 -0.8807
   79SOL    HW2  237   0.654   1.359   0.736 -0.9743  1.4116 -0.0086
   80SOL     OW  238   0.657   0.478   1.520 -0.4216  0.4316 -0.5250
   80SOL    HW1  239   0.724   0.541   1.473  0.3091  0.2142 -2.6424
   80SOL    HW2  240   0.680   0.381   1.513  0.4891  0.7132  0.7671
   81SOL     OW  241   0.998   1.311   2.612  0.1474  0.2755  0.0738
   81SOL    HW1  242   0.999   1.213   2.583 -0.8914 -0.9342 -0.0748
   81SOL    HW2  243   0.942   1.368   2.549 -0.7970 -0.9755 -0.1725
   82SOL     OW  244   0.965   2.896   1.509  0.5932 -0.9743  0.3927
   82SOL    HW1  245   0.898   2.858   1.442  1.7640 -2.3512 -0.5702
   82SOL    HW2  246   1.049   2.929   1.463  1.3983  0.4420  1.0916
   83SOL     OW  247   2.580   2.372   0.863 -0.5650  0.1405  0.5119
   83SOL    HW1  248   2.529   2.318   0.928 -0.6145 -1.2536 -2.7966
   83SOL    HW2  249   2.523   2.407   0.782 -0.2941  0.9619 -2.6739
   84SOL     OW  250   0.718   0.011   2.377 -0.3762  0.4936 -0.2980
   84SOL    HW1  251   0.668  -0.004   2.467 -0.6882  2.3225 -1.2049
   84SOL    HW2  252   0.789  -0.063   2.358  1.2278 -1.4559 -1.9159
   85SOL     OW  253   0.261   1.616   1.448  0.2970  0.1579 -0.4423
   85SOL    HW1  254   0.232   1.720   1.436  1.8672  2.2240 -0.0570
   85SOL    HW2  255   0.297   1.584   1.542  1.1792  1.1469  1.0853
   86SOL     OW  256   0.448   1.061   1.495 -0.0289 -0.5821  0.0173
   86SOL    HW1  257   0.397   0.998   1.433  0.2646 -0.3092  3.5220
   86SOL    HW2  258   0.531   1.016   1.531 -1.1423 -0.5599 -0.5878
   87SOL     OW  259   1.665   0.685   0.284  0.3415  0.1416 -0.3540
   87SOL    HW1  260   1.738   0.747   0.260 -1.4217 -3.0642  1.5141
   87SOL    HW2  261   1.628   0.640   0.201  0.3412 -1.2367  0.7886
   88SOL     OW  262   1.530   1.348   0.263 -0.4650  0.3444 -0.2417
   88SOL    HW1  263   1.595   1.270   0.291  1.4521  0.4123 -0.3423
   88SOL    HW2  264   1.431   1.317   0.271 -1.7927 -0.6624  0.7896
   89SOL     OW  265   3.077   0.325   0.609 -0.2695 -1.3386 -0.0036
   89SOL    HW1  266   3.141   0.242   0.599 -1.8993 -0.6583  1.0228
   89SOL    HW2  267   2.984   0.310   0.578  2.8449  0.5456  0.1466
   90SOL     OW  268   0.837   1.571   0.106 -0.2258  0.5121  0.3269
   90SOL    HW1  269   0.887   1.481   0.086 -1.8944 -1.2855  0.8738
   90SOL    HW2  270   0.748   1.578   0.056 -2.0315 -1.1221  0.6091
   91SOL     OW  271   1.206   1.454   1.756 -0.3488 -0.0291 -0.4630
   91SOL    HW1  272   1.169   1.521   1.829  2.5446  0.0478  2.0818
   91SOL    HW2  273   1.298   1.413   1.779  2.2096  0.7414 -0.1414
   92SOL     OW  274   0.013   0.952   1.243 -0.1377  0.2300 -0.3387
   92SOL    HW1  275   0.085   1.018   1.208 -0.6068  0.5040  2.4823
   92SOL    HW2  276   0.003   0.969   1.345 -0.6212 -2.2053 -1.9479
   93SOL     OW  277   3.075   2.703   0.046  0.4168  0.3516 -0.3733
   93SOL    HW1  278   3.045   2.706  -0.053 -0.0120 -0.7331  0.9033
   93SOL    HW2  279   3.115   2.608   0.069 -0.8159  0.3864 -3.5279
   94SOL     OW  280   1.492   1.447   1.779 -0.1045 -0.1366 -0.2039
   94SOL    HW1  281   1.578   1.389   1.785  0.3825  0.2111  0.3524
   94SOL    HW2  282   1.519   1.542   1.816  0.7867 -0.2507  0.3597
   95SOL     OW  283   1.423   2.508   2.965 -0.3278 -0.0297 -0.2250
   95SOL    HW1  284   1.336   2.541   3.017 -3.5473 -1.7327  2.9194
   95SOL    HW2  285   1.411   2.408   2.930  1.7429  1.5537 -1.4065
   96SOL     OW  286   0.569   2.094   1.318  0.0920  0.0351  0.1652
   96SOL    HW1  287   0.525   2.078   1.227  0.4824  1.8497 -1.4550
   96SOL    HW2  288   0.638   2.019   1.340  0.8230 -0.9906 -0.8017
   97SOL     OW  289   0.300   1.607   2.458 -0.0825  0.2040 -0.3985
   97SOL    HW1  290   0.249   1.676   2.403  1.2712 -0.5670  0.4565
   97SOL    HW2  291   0.269   1.614   2.558 -1.3939  1.4572  0.6737
   98SOL     OW  292   2.154   1.592   1.208  0.5979  0.1101 -0.0403
   98SOL    HW1  293   2.071   1.557   1.157 -0.1596  0.6394  0.0702
   98SOL    HW2  294   2.239   1.567   1.156  0.7790  0.3678 -2.2009
   99SOL     OW  295   2.572   2.094   1.281 -0.0367  0.1670  0.2519
   99SOL    HW1  296   2.637   2.115   1.363  1.8910  0.2592  2.4855
   99SOL    HW2  297   2.520   2.007   1.298 -1.0706  0.7886  1.1442
  100SOL     OW  298   2.302   0.409   2.097  0.2006 -0.0392  0.0840
  100SOL    HW1  299   2.251   0.388   2.184 -1.6399  0.7883  1.2404
  100SOL    HW2  300   2.404   0.414   2.111  0.5345  1.2187  0.0529
  101SOL     OW  301   0.396   1.523   0.485 -0.5074  0.6705  0.7698
  101SOL    HW1  302   0.403   1.598   0.555  1.3368 -2.1741 -0.9741
  101SOL    HW2  303   0.479   1.524   0.423  0.0022 -2.8382  2.0537
  102SOL     OW  304   2.290   1.064   0.836  0.2260 -0.2187 -0.3986
  102SOL    HW1  305   2.235   0.982   0.798  0.3119 -0.2551  2.4331
  102SOL    HW2  306   2.390   1.067   0.794  0.8813  0.6793  0.2464
  103SOL     OW  307   2.220   0.127   0.377  0.3568 -0.2762 -0.2798
  103SOL    HW1  308   2.268   0.175   0.296  1.0610 -2.5950 -1.3483
  103SOL    HW2  309   2.292   0.078   0.432  0.0990  0.2266 -1.2187
  104SOL     OW  310   0.050   1.906   2.094  0.0550  0.0419 -0.1754
  104SOL    HW1  311   0.083   1.866   2.002 -2.6835  0.4664 -0.4895
  104SOL    HW2  312  -0.053   1.908   2.104 -1.0730 -1.8426  0.8213
  105SOL     OW  313   1.245   2.110   0.826  0.3744 -0.2109 -0.2529
  105SOL    HW1  314   1.197   2.164   0.752 -0.7138  0.0174 -0.8421
  105SOL    HW2  315   1.306   2.037   0.793 -0.0188 -0.6778 -0.6566
  106SOL     OW  316   2.079   0.364   1.439 -0.3563  0.3085 -0.3631
  106SOL    HW1  317   2.015   0.290   1.405 -0.4973  1.5371  1.7009
  106SOL    HW2  318   2.082   0.369   1.541 -0.0029 -0.1207 -2.8475
  107SOL     OW  319   1.960   2.944   1.178  0.6681 -0.3891 -0.2345
  107SOL    HW1  320   1.887   3.015   1.210  0.0965  2.4636 -0.5991
  107SOL    HW2  321   1.922   2.877   1.109  0.9252 -0.0829 -1.6270
  108SOL     OW  322   0.855   2.831   1.186  0.1106  0.3826 -0.6702
  108SOL    HW1  323   0.883   2.731   1.205 -1.6984  1.0217  0.3451
  108SOL    HW2  324   0.914   2.895   1.243  0.4015 -0.8830  0.0947
  109SOL     OW  325   2.147   0.147   0.773  0.6051  0.1930  0.4491
  109SOL    HW1  326   2.058   0.120   0.724  1.4079 -0.6294 -2.3083
  109SOL    HW2  327   2.169   0.084   0.854  0.0360  0.1433  1.0895
  110SOL     OW  328   0.475   2.793   2.758  0.4484 -0.2808  0.2899
  110SOL    HW1  329   0.449   2.770   2.659 -0.0448  0.2668 -3.8472
  110SOL    HW2  330   0.535   2.726   2.805 -0.0177  2.1591 -1.1236
  111SOL     OW  331   1.282   0.489   2.344  0.2340  0.4791  0.1177
  111SOL    HW1  332   1.191   0.520   2.381  1.2436 -0.8477 -0.4415
  111SOL    HW2  333   1.340   0.443   2.417  1.4862 -0.9731  2.3805
  112SOL     OW  334   1.769   0.444   1.482  0.1167 -0.3298  0.4281
  112SOL    HW1  335   1.744   0.464   1.379 -0.5298 -0.6899 -2.1934
  112SOL    HW2  336   1.689   0.412   1.539 -1.0570 -0.7662 -2.2995
  113SOL     OW  337   2.369   1.699   1.729  0.3613  0.1589 -0.1401
  113SOL    HW1  338   2.412   1.612   1.758 -0.3360  1.5318  1.4423
  113SOL    HW2  339   2.427   1.781   1.746 -0.9940  0.9061 -0.7944
  114SOL     OW  340   0.318   0.521   1.205 -0.2406 -0.2343 -0.2818
  114SOL    HW1  341   0.377   0.568   1.128  0.8227  0.5638 -0.8134
  114SOL    HW2  342   0.228   0.571   1.227  2.0753 -2.1080 -0.5918
  115SOL     OW  343   2.797   1.564   1.290 -0.6062 -0.2394  0.0220
  115SOL    HW1  344   2.783   1.460   1.309 -1.1021 -3.6621  0.5238
  115SOL    HW2  345   2.885   1.575   1.244  0.9789  0.2152  2.6909
  116SOL     OW  346   1.869   0.984   0.659  0.3938 -0.0767  0.7271
  116SOL    HW1  347   1.778   0.939   0.657  3.7514 -1.4239 -3.4981
  116SOL    HW2  348   1.874   1.074   0.706  2.2517 -0.5582 -1.6760
  117SOL     OW  349   1.172   0.370   0.562 -0.4829 -0.0130  0.2798
  117SOL    HW1  350   1.192   0.468   0.534 -1.7411  4.2048  1.4835
  117SOL    HW2  351   1.151   0.308   0.481  1.2181  1.2273  1.5642
  118SOL     OW  352   1.073   1.214   1.101  0.4222  0.2684  0.5320
  118SOL    HW1  353   1.035   1.144   1.164  0.0385 -1.7971 -0.7245
  118SOL    HW2  354   1.108   1.300   1.142  3.0100 -0.4693  1.2148
  119SOL     OW  355   1.860   1.602   2.187  0.3597  0.2185 -0.4663
  119SOL    HW1  356   1.815   1.686   2.150 -0.7349  1.1059 -1.2366
  119SOL    HW2  357   1.956   1.584   2.145  0.2530  0.0936 -1.7505
  120SOL     OW  358   2.897   2.809   0.242  0.2647 -0.0967  0.2815
  120SOL    HW1  359   2.964   2.772   0.169 -1.0513 -2.3791 -3.0973
  120SOL    HW2  360   2.802   2.768   0.231 -1.4195 -1.2382  1.5717
  121SOL     OW  361   1.868   0.708   2.156 -0.2138  0.0636 -0.2838
  121SOL    HW1  362   1.865   0.788   2.088  2.1263 -0.8444 -1.8374
  121SOL    HW2  363   1.892   0.615   2.114 -1.0956 -0.8549 -0.6576
  122SOL     OW  364   2.621   2.531   1.343 -0.8514 -0.8230  0.0711
  122SOL    HW1  365   2.672   2.468   1.278 -0.9113 -0.2123 -1.6143
  122SOL    HW2  366   2.586   2.473   1.426  0.3324 -3.2300 -1.2919
  123SOL     OW  367   1.737   0.124   1.708  0.1982 -0.4372 -0.1950
  123SOL    HW1  368   1.736   0.030   1.677 -0.8950 -1.5236  0.5727
  123SOL    HW2  369   1.832   0.155   1.741  2.1162  0.3454 -0.9906
  124SOL     OW  370   3.067   0.470   1.084 -0.5679  0.1495  0.2461
  124SOL    HW1  371   2.981   0.522   1.113 -0.6524  2.9834  0.9841
  124SOL    HW2  372   3.097   0.496   0.989 -1.1457  1.9989 -1.0932
  125SOL     OW  373   0.899   1.921   0.771 -0.4900  0.1246  0.0080
  125SOL    HW1  374   0.980   1.850   0.759  0.0727 -0.7958 -2.4976
  125SOL    HW2  375   0.826   1.888   0.831  1.7650 -0.7981  1.7968
  126SOL     OW  376   1.932   2.290   2.405  0.8753 -0.3796 -0.1573
  126SOL    HW1  377   1.955   2.242   2.313 -0.9979  0.8370 -0.0862
  126SOL    HW2  378   1.886   2.231   2.479  2.2349  1.3581  2.7496
  127SOL     OW  379   0.898   0.967   0.196 -0.2723  0.2678 -0.0676
  127SOL    HW1  380   0.912   0.998   0.295  1.1002  0.3559 -3.1281
  127SOL    HW2  381   0.923   0.867   0.185  0.9306  0.5916 -0.9384
  128SOL     OW  382   0.972   0.268   1.427  0.2169  0.3037  0.1731
  128SOL    HW1  383   0.947   0.353   1.364 -3.3902  0.0957 -2.5046
  128SOL    HW2  384   0.904   0.186   1.420 -1.5721  1.4895 -2.8824
  129SOL     OW  385   1.860   0.672   1.858  0.1747 -0.4084  0.2522
  129SOL    HW1  386   1.877   0.667   1.759 -2.7926 -3.1381  3.0452
  129SOL    HW2  387   1.883   0.766   1.900  1.1899 -1.2160 -2.4896
  130SOL     OW  388   1.422   2.224   1.018 -0.2930  0.8446 -0.0653
  130SOL    HW1  389   1.362   2.195   0.936 -0.5501 -1.4847  1.8682
  130SOL    HW2  390   1.483   2.308   0.996  0.3147  1.9080 -1.6316
  131SOL     OW  391   3.029   1.346   1.352  0.4873  0.3656 -0.1782
  131SOL    HW1  392   2.976   1.262   1.385  0.6625 -1.5898  1.2099
  131SOL    HW2  393   3.132   1.341   1.351  2.9553 -2.2323  0.2621
  132SOL     OW  394   2.033   2.378   0.493  0.0418 -0.1640  0.4727
  132SOL    HW1  395   1.939   2.421   0.494  0.9798  3.2107  1.8999
  132SOL    HW2  396   2.046   2.311   0.575 -1.5062 -0.1098 -1.7087
  133SOL     OW  397   1.762   2.337   2.755  0.5291 -0.1095 -0.4273
  133SOL    HW1  398   1.673   2.383   2.723 -1.1451 -3.1061  2.8931
  133SOL    HW2  399   1.844   2.395   2.720  0.4462  0.4582  0.5961
  134SOL     OW  400   2.675   2.345   1.588  0.0982  0.4738 -0.2320
  134SOL    HW1  401   2.618   2.333   1.672  0.0929  4.2142  0.2331
  134SOL    HW2  402   2.749   2.413   1.609  0.1583  1.1710 -0.5161
  135SOL     OW  403   0.695   1.466   2.639 -0.2692  0.0755 -0.0121
  135SOL    HW1  404   0.700   1.383   2.700  1.7304  0.3647  0.3751
  135SOL    HW2  405   0.712   1.430   2.540 -2.3504 -1.1165  0.9819
  136SOL     OW  406   1.213   2.021   0.483 -0.9683 -0.1771 -0.5583
  136SOL    HW1  407   1.144   2.098   0.472 -0.1626 -0.2960 -1.4175
  136SOL    HW2  408   1.186   1.927   0.442 -1.8137 -0.1501 -0.9672
  137SOL     OW  409   0.424   1.223   2.265 -0.5691 -0.2317 -0.1842
  137SOL    HW1  410   0.317   1.218   2.264  0.2389  0.4233  1.3757
  137SOL    HW2  411   0.476   1.137   2.259 -0.5634  2.1143  2.1073
  138SOL     OW  412   2.474   1.520   0.288 -0.6784  0.3465  0.2437
  138SOL    HW1  413   2.389   1.494   0.235 -1.4081  2.2531 -2.1937
  138SOL    HW2  414   2.528   1.441   0.322  0.3024 -1.3690 -0.6616
  139SOL     OW  415   1.879   2.624   1.501 -0.3330 -0.2812  0.1251
  139SOL    HW1  416   1.795   2.667   1.453  0.3482 -0.0475 -0.4830
  139SOL    HW2  417   1.915   2.538   1.448 -1.4448 -0.6018 -0.6661
  140SOL     OW  418   3.024   2.998   2.584 -0.2855  0.1396  0.2155
  140SOL    HW1  419   3.068   2.907   2.565 -0.8153  2.3890 -1.8810
  140SOL    HW2  420   3.080   3.079   2.548 -1.8486 -1.1856  3.1203
  141SOL     OW  421   1.313   1.642   1.583  0.2418 -0.8844 -0.0121
  141SOL    HW1  422   1.239   1.716   1.583  1.2180  0.4503  0.9497
  141SOL    HW2  423   1.293   1.566   1.652  1.4151  1.6271  2.4176
  142SOL     OW  424   1.536   0.603   2.272 -0.1159  0.2448 -0.2065
  142SOL    HW1  425   1.551   0.599   2.171 -2.9695  1.7549 -1.2845
  142SOL    HW2  426   1.437   0.582   2.294 -0.1583  2.2887 -0.2336
  143SOL     OW  427   2.775   0.850   0.545 -0.2565 -0.9003  0.1849
  143SOL    HW1  428   2.817   0.889   0.464 -2.9837 -3.3861  2.1415
  143SOL    HW2  429   2.806   0.903   0.630  0.4679 -0.7485  0.7463
  144SOL     OW  430   2.893   1.156   1.499  0.6136  0.1294 -0.5908
  144SOL    HW1  431   2.863   1.168   1.598  0.8385 -1.3512  0.8193
  144SOL    HW2  432   2.975   1.089   1.493 -0.3631 -0.1314  1.6665
  145SOL     OW  433   0.956   1.832   0.128 -0.6229 -0.1308  0.2104
  145SOL    HW1  434   1.020   1.844   0.050 -2.2992  2.5248  2.2044
  145SOL    HW2  435   0.913   1.736   0.133  0.3362 -0.9110 -2.6761
  146SOL     OW  436   2.442   0.676   1.474 -0.1148 -0.3174  0.1266
  146SOL    HW1  437   2.393   0.591   1.442 -0.2909  2.5164  0.8369
  146SOL    HW2  438   2.402   0.761   1.434  0.1397 -2.2175 -0.1499
  147SOL     OW  439   1.084   2.488   0.583  0.0195  0.2364 -0.2434
  147SOL    HW1  440   1.056   2.573   0.534  1.3550 -1.3845  1.8934
  147SOL    HW2  441   1.183   2.462   0.562  0.6667  2.1938 -0.7416
  148SOL     OW  442   1.633   1.444   0.000 -0.6040  0.4808  0.3169
  148SOL    HW1  443   1.621   1.372  -0.072 -0.2612  2.0983 -1.1748
  148SOL    HW2  444   1.587   1.417   0.088  0.9368 -1.0546  0.2812
  149SOL     OW  445   0.653   1.517   1.958  0.1411  0.1578 -0.2911
  149SOL    HW1  446   0.577   1.473   2.016 -0.7227 -2.2899 -1.2714
  149SOL    HW2  447   0.709   1.453   1.897  2.1121  0.7150  0.0047
  150SOL     OW  448   3.015   1.225   0.971  0.5421 -0.1153 -0.2146
  150SOL    HW1  449   3.096   1.215   1.031 -2.0302  0.5733 -0.9625
  150SOL    HW2  450   2.949   1.151   0.989 -0.3217  1.3933 -1.4784
  151SOL     OW  451   0.201   0.793   2.080  0.3167  0.1445 -0.1623
  151SOL    HW1  452   0.167   0.864   2.011  1.1271  1.9106  2.5208
  151SOL    HW2  453   0.293   0.755   2.043  1.3688  1.6760  0.7150
  152SOL     OW  454   1.426   1.785   1.190 -0.0206 -0.4844  0.1429
  152SOL    HW1  455   1.471   1.878   1.199 -1.6443  1.3372  2.2452
  152SOL    HW2  456   1.334   1.791   1.144  2.3685 -1.2961  1.9910
  153SOL     OW  457   0.190   1.509   0.201  0.3886  0.2583 -0.2116
  153SOL    HW1  458   0.176   1.406   0.211  1.9062 -1.1112  2.2002
  153SOL    HW2  459   0.149   1.561   0.286 -3.5790  2.8757 -0.4063
  154SOL     OW  460   2.319   1.905   2.799 -0.5132 -0.0533 -0.3544
  154SOL    HW1  461   2.337   1.807   2.811 -1.6766  1.9971 -0.1193
  154SOL    HW2  462   2.402   1.963   2.764  0.1920 -1.4029 -1.7715
  155SOL     OW  463   2.513   1.249   0.372 -0.6579  0.2209 -0.4059
  155SOL    HW1  464   2.593   1.207   0.324 -0.4718  1.3768  3.2352
  155SOL    HW2  465   2.422   1.203   0.350 -1.6475 -1.5647  1.5759
  156SOL     OW  466   2.463   0.830   0.747 -0.2668  0.1548 -0.3984
  156SOL    HW1  467   2.373   0.797   0.708 -1.0227 -1.1217  0.4620
  156SOL    HW2  468   2.526   0.880   0.685 -1.0806  1.0977  2.4449
  157SOL     OW  469   1.237   3.004   2.981  0.1361 -0.6333 -0.0164
  157SOL    HW1  470   1.314   2.969   2.920 -0.3733  1.3627  3.9064
  157SOL    HW2  471   1.264   3.090   3.039  1.1093  0.3336  2.0563
  158SOL     OW  472   0.999   1.871   1.834  0.3857 -0.2698  0.5148
  158SOL    HW1  473   1.034   1.967   1.831  0.7944 -0.8712 -2.8992
  158SOL    HW2  474   0.916   1.867   1.897 -0.2737 -0.4551 -0.4114
  159SOL     OW  475   0.852   0.436   1.221  0.4006  0.1422  0.2276
  159SOL    HW1  476   0.799   0.522   1.245 -1.2408 -1.9016 -1.9205
  159SOL    HW2  477   0.794   0.363   1.169 -1.7689 -1.0620 -0.7208
  160SOL     OW  478   1.375   2.455   1.531 -0.6382  0.0378 -0.3119
  160SOL    HW1  479   1.336   2.367   1.573  2.3059 -0.2603 -1.3083
  160SOL    HW2  480   1.478   2.454   1.525 -0.1140 -1.8452  2.7250
  161SOL     OW  481   3.058   2.757   0.458  0.0382 -0.5158  0.5750
  161SOL    HW1  482   3.062   2.654   0.461  1.4866 -4.2650 -0.9988
  161SOL    HW2  483   3.003   2.800   0.381  0.6493  2.0896 -2.7109
  162SOL     OW  484   2.567   1.813   0.471 -0.1630 -0.2901 -0.1696
  162SOL    HW1  485   2.594   1.784   0.377  1.5572  1.3311  2.5065
  162SOL    HW2  486   2.501   1.744   0.509  1.6238 -0.2426 -0.0982
  163SOL     OW  487   1.966   2.676   0.751 -0.1156 -0.6461  0.4079
  163SOL    HW1  488   1.889   2.687   0.682 -1.2841  2.2429  0.4173
  163SOL    HW2  489   2.024   2.591   0.743 -0.3827  0.8254 -1.9302
  164SOL     OW  490   3.052   0.245   1.269 -0.1073 -0.3880 -0.1562
  164SOL    HW1  491   3.074   0.338   1.229 -1.2146  0.6356 -0.1156
  164SOL    HW2  492   3.130   0.220   1.336 -0.1391 -2.0849  1.6695
  165SOL     OW  493   1.071   1.434   0.669  0.2747 -0.0421 -0.0830
  165SOL    HW1  494   1.090   1.459   0.767  1.2525  1.5099 -2.7250
  165SOL    HW2  495   1.064   1.510   0.602  1.4083  0.2172 -0.1569
  166SOL     OW  496   1.583   1.014   1.777 -0.4493 -0.1209 -0.0231
  166SOL    HW1  497   1.482   1.024   1.796  1.7093  0.4405 -3.3654
  166SOL    HW2  498   1.635   1.103   1.769 -2.5142 -0.9393 -1.3397
  167SOL     OW  499   0.782   1.951   1.443  0.3899 -0.5736 -0.2730
  167SOL    HW1  500   0.794   2.033   1.512 -1.8213  2.3598  2.3460
  167SOL    HW2  501   0.736   1.869   1.491 -3.3382  0.0605  0.0613
  168SOL     OW  502   1.592   2.355   0.167 -0.0691  0.1018  0.3326
  168SOL    HW1  503   1.658   2.370   0.083 -1.0581  0.0666 -2.3643
  168SOL    HW2  504   1.629   2.289   0.241  0.8806  1.3538  2.5779
  169SOL     OW  505   0.112   2.576   2.219 -0.8673 -0.1156 -0.0219
  169SOL    HW1  506   0.156   2.543   2.129 -1.1800  2.5294  1.3894
  169SOL    HW2  507   0.168   2.558   2.306 -0.0339 -0.2208  0.0296
  170SOL     OW  508   1.108   0.227   2.024  0.3602 -0.3201  0.6133
  170SOL    HW1  509   1.191   0.236   2.086 -0.4689 -0.3684 -2.6954
  170SOL    HW2  510   1.141   0.189   1.937 -0.0830  0.7497  0.2465
  171SOL     OW  511   0.204   0.830   2.378  0.0423  0.4191  0.2212
  171SOL    HW1  512   0.105   0.836   2.406  1.4994  0.1700 -2.2426
  171SOL    HW2  513   0.215   0.816   2.278 -0.1048 -2.7444 -0.5349
  172SOL     OW  514   0.970   0.989   2.929 -0.0988 -0.1935  0.3136
  172SOL    HW1  515   0.957   1.072   2.994 -1.7424  1.7953  0.6803
  172SOL    HW2  516   0.911   0.994   2.842  1.4179 -0.3642 -1.6771
  173SOL     OW  517   0.513   2.444   0.157  0.2458  0.0137  0.5738
  173SOL    HW1  518   0.487   2.347   0.114 -1.4500 -0.8914  0.4445
  173SOL    HW2  519   0.429   2.490   0.204 -0.4386 -0.7082  0.1568
  174SOL     OW  520   1.476   2.838   1.067 -0.0695  0.3256  0.6533
  174SOL    HW1  521   1.549   2.908   1.025  1.1295 -0.1144 -1.0875
  174SOL    HW2  522   1.464   2.752   1.014 -0.3967 -0.0285  0.9257
  175SOL     OW  523   0.469   3.057   1.680 -0.4144  0.1388 -0.0938
  175SOL    HW1  524   0.535   3.037   1.762 -0.9296  0.7704  2.6990
  175SOL    HW2  525   0.414   3.146   1.688 -0.1314  1.6825 -1.7295
  176SOL     OW  526   2.586   0.369   0.010  0.5875 -0.1307 -0.2445
  176SOL    HW1  527   2.605   0.462   0.052 -2.4729  0.0843  0.7244
  176SOL    HW2  528   2.553   0.309   0.082 -0.1394 -0.1391  0.8433
  177SOL     OW  529   0.308   0.281   0.967  0.4189  0.2045  0.6965
  177SOL    HW1  530   0.289   0.180   0.938 -2.4950  1.1739  1.3226
  177SOL    HW2  531   0.283   0.312   1.064 -1.8355  1.9185  0.6197
  178SOL     OW  532  -0.001   2.726   2.592 -0.2501  0.1715 -0.5987
  178SOL    HW1  533  -0.016   2.625   2.567  2.4005 -0.0758 -1.0356
  178SOL    HW2  534   0.061   2.744   2.671  2.0571  1.6613 -0.7174
  179SOL     OW  535   3.034   1.554   1.134  0.2084 -0.0159 -0.4447
  179SOL    HW1  536   3.101   1.631   1.123 -1.2002 -0.0988 -6.0355
  179SOL    HW2  537   3.078   1.461   1.161  3.0755  1.1615  2.1836
  180SOL     OW  538   0.188   1.358   1.787  0.4365  0.3670 -0.2981
  180SOL    HW1  539   0.274   1.305   1.811 -2.2516  3.8994 -2.5193
  180SOL    HW2  540   0.125   1.359   1.870  0.5387 -0.9605  0.0137
  181SOL     OW  541   3.004   1.935   2.501 -0.4334 -0.8764  0.4990
  181SOL    HW1  542   3.062   2.017   2.475  1.2604  1.1010 -2.2104
  181SOL    HW2  543   2.924   1.923   2.429  0.9639  0.7942 -0.7632
  182SOL     OW  544   2.338   1.268   1.262  0.0929  0.8723  0.0904
  182SOL    HW1  545   2.265   1.217   1.210 -2.3313  0.1545  0.7564
  182SOL    HW2  546   2.347   1.360   1.224  0.4400 -0.5277  2.5074
  183SOL     OW  547   1.405   2.238   2.512 -0.8266 -0.0547 -0.3452
  183SOL    HW1  548   1.332   2.177   2.551 -1.4632 -0.0154 -3.2026
  183SOL    HW2  549   1.476   2.181   2.464 -0.1543 -1.7290  0.4255
  184SOL     OW  550   2.121   0.890   0.714  0.0878 -0.8026 -0.1142
  184SOL    HW1  551   2.025   0.933   0.706  2.7355 -0.8120  0.7371
  184SOL    HW2  552   2.117   0.786   0.746  3.5820 -0.6901  0.0916
  185SOL     OW  553   1.538   2.741   2.007 -0.4198  0.3508  0.2953
  185SOL    HW1  554   1.470   2.815   1.986 -0.6170 -0.6808  1.2615
  185SOL    HW2  555   1.588   2.755   2.095 -0.5705 -0.2608  0.8015
  186SOL     OW  556   0.056   2.204   1.637 -0.5208 -0.2208 -0.2307
  186SOL    HW1  557   0.036   2.264   1.722 -0.6741  0.2139  2.2766
  186SOL    HW2  558   0.146   2.148   1.656 -1.9401 -0.3275  2.4139
  187SOL     OW  559   1.376   0.618   1.638 -0.0488 -0.0569  0.3539
  187SOL    HW1  560   1.465   0.671   1.634  0.0755 -1.3326 -0.2590
  187SOL    HW2  561   1.356   0.561   1.723 -0.3870  0.7650 -4.1649
  188SOL     OW  562   2.836   2.708   1.424  0.0292  0.2926 -0.4653
  188SOL    HW1  563   2.818   2.807   1.414  1.9068  0.5597  0.5777
  188SOL    HW2  564   2.760   2.648   1.382  2.7446 -0.4608 -1.4786
  189SOL     OW  565   0.884   1.167   1.420 -0.2667 -0.0772 -0.4245
  189SOL    HW1  566   0.936   1.218   1.496 -1.1729 -0.2188  0.2920
  189SOL    HW2  567   0.838   1.223   1.344  0.3694 -2.1553 -0.2611
  190SOL     OW  568   1.499   1.876   1.571 -0.2002 -0.6671 -0.3090
  190SOL    HW1  569   1.464   1.781   1.546 -1.1047  0.4894  1.6799
  190SOL    HW2  570   1.480   1.903   1.669  0.0108  0.5629 -4.8554
  191SOL     OW  571   0.934   0.814   1.516 -0.1233  0.4986  0.4979
  191SOL    HW1  572   0.999   0.733   1.534 -0.0968  0.6189  1.5654
  191SOL    HW2  573   0.972   0.869   1.437 -1.7400  1.1750  0.4522
  192SOL     OW  574   1.849   2.445   1.102  0.1087  1.2136 -0.2831
  192SOL    HW1  575   1.752   2.434   1.063 -1.9873 -0.5695 -0.8188
  192SOL    HW2  576   1.916   2.392   1.050 -2.5891 -0.1658 -1.0591
  193SOL     OW  577   0.518   0.531   0.410  0.1196  0.0543 -0.0631
  193SOL    HW1  578   0.499   0.439   0.454  0.5035 -3.3894  1.7408
  193SOL    HW2  579   0.538   0.522   0.308 -0.7009 -0.4696  0.6102
  194SOL     OW  580   0.305   0.916   1.308  0.2437  0.2407  0.5456
  194SOL    HW1  581   0.238   0.840   1.320 -0.7081  0.3551  0.0336
  194SOL    HW2  582   0.337   0.929   1.209  0.3816 -1.1219 -0.4450
  195SOL     OW  583   0.986   2.882   0.511  0.2596 -0.2411  0.1513
  195SOL    HW1  584   0.975   2.798   0.446 -4.3068 -1.1382 -0.6442
  195SOL    HW2  585   1.083   2.916   0.519  0.4076  2.1174 -0.1713
  196SOL     OW  586   0.202   1.370   1.339  0.1749 -0.2504 -0.0581
  196SOL    HW1  587   0.233   1.468   1.355 -0.5906 -1.0657  1.4845
  196SOL    HW2  588   0.201   1.314   1.428 -2.0811  0.7494  0.2409
  197SOL     OW  589   0.820   1.990   0.293  0.0569 -0.1338  0.4457
  197SOL    HW1  590   0.794   1.940   0.380  0.6513  0.7212  2.0724
  197SOL    HW2  591   0.847   1.928   0.217  2.0990 -0.2936 -0.5452
  198SOL     OW  592   0.320   1.244   0.342 -0.3314 -0.3371  0.2542
  198SOL    HW1  593   0.217   1.232   0.339 -3.0020 -1.0930 -1.9364
  198SOL    HW2  594   0.352   1.332   0.386  0.4561  0.6304 -0.2194
  199SOL     OW  595   2.280   0.434   2.582 -0.1796  0.2747 -0.0741
  199SOL    HW1  596   2.204   0.376   2.624  2.2213 -2.7897 -1.2976
  199SOL    HW2  597   2.381   0.401   2.607  0.3770  0.1900 -0.8062
  200SOL     OW  598   3.097   2.998   0.774  0.2728 -0.7736  0.9368
  200SOL    HW1  599   3.098   3.090   0.829  0.6825  2.4892  1.5994
  200SOL    HW2  600   3.022   3.002   0.697 -1.3729  1.0296 -1.5119
  201SOL     OW  601   0.979   0.714   0.508  0.1525  0.6900  0.4154
  201SOL    HW1  602   0.963   0.801   0.563 -1.2829  0.5917 -1.6817
  201SOL    HW2  603   0.910   0.633   0.530 -0.8122 -3.6045  0.1778
  202SOL     OW  604   0.414   1.204   1.872 -0.6855  0.0905 -0.3745
  202SOL    HW1  605   0.486   1.144   1.826 -0.6512 -0.4642 -1.0710
  202SOL    HW2  606   0.439   1.275   1.944 -0.7837  0.0082 -0.6335
  203SOL     OW  607   0.562   0.191   1.548  0.0685  0.6047  0.5448
  203SOL    HW1  608   0.555   0.126   1.467  0.1478  0.8153 -2.0526
  203SOL    HW2  609   0.648   0.173   1.603  2.2737  2.8731  1.2036
  204SOL     OW  610   2.117   1.811   2.988 -0.2479  0.4777  0.5171
  204SOL    HW1  611   2.123   1.706   3.018  1.5231 -1.5093 -0.8143
  204SOL    HW2  612   2.167   1.825   2.897  1.7896 -0.7623 -0.8085
  205SOL     OW  613   1.841   1.821   3.057  0.0533  0.4909  0.5568
  205SOL    HW1  614   1.931   1.794   3.009  0.5185 -1.6473 -0.1742
  205SOL    HW2  615   1.808   1.910   3.017 -0.1842  1.4942  0.8173
  206SOL     OW  616   2.417   2.811   0.379 -0.3724 -0.1942  0.5369
  206SOL    HW1  617   2.407   2.728   0.436  0.7411  1.7569 -1.7459
  206SOL    HW2  618   2.506   2.814   0.326 -2.4661 -1.5405 -0.9209
  207SOL     OW  619   0.684   1.757   2.926  0.1389 -0.4433 -0.5240
  207SOL    HW1  620   0.776   1.704   2.917  0.2959  0.0064 -2.1723
  207SOL    HW2  621   0.616   1.711   2.991  1.0811  0.0847 -0.4108
  208SOL     OW  622   1.145   1.670   1.315 -0.7634  0.2183 -0.9695
  208SOL    HW1  623   1.156   1.745   1.244 -0.3217  0.3164 -0.0833
  208SOL    HW2  624   1.115   1.705   1.407  0.6931  0.5332 -1.1203
  209SOL     OW  625   0.228   0.974   3.094 -0.7003 -0.2464  0.1163
  209SOL    HW1  626   0.216   0.910   3.018 -0.2032  2.1770  1.4182
  209SOL    HW2  627   0.253   0.929   3.183 -0.0729  0.0823 -0.3939
  210SOL     OW  628   1.717   0.496   1.210  0.4684 -0.2274 -0.3526
  210SOL    HW1  629   1.649   0.566   1.173 -1.4577 -0.0878  0.6706
  210SOL    HW2  630   1.822   0.509   1.184  0.9088 -0.9047  0.3159
  211SOL     OW  631   2.032   1.044   1.572 -0.1182 -0.5975 -0.0502
  211SOL    HW1  632   2.036   0.966   1.639  1.9858  1.0263 -2.0583
  211SOL    HW2  633   2.123   1.076   1.546 -0.5073  0.3319  0.7740
  212SOL     OW  634  -0.000   0.997   1.512 -0.3722  0.4318 -0.3312
  212SOL    HW1  635   0.085   1.058   1.533  1.4385 -0.6423 -1.3128
  212SOL    HW2  636   0.009   0.901   1.553 -1.6518 -0.5827 -1.5740
  213SOL     OW  637   2.733   0.195   0.315  0.3469  1.3143 -0.3253
  213SOL    HW1  638   2.827   0.150   0.307  0.6620 -0.0860  0.0918
  213SOL    HW2  639   2.663   0.129   0.287 -1.3411 -1.9829 -0.6049
  214SOL     OW  640   2.174   0.391   2.342 -0.5157 -0.6372  0.2850
  214SOL    HW1  641   2.218   0.434   2.426  2.1902  0.4980  0.3358
  214SOL    HW2  642   2.150   0.293   2.353  1.2148  1.0500 -0.1111
  215SOL     OW  643   1.659   2.268   2.105  0.7996 -0.6343 -0.1985
  215SOL    HW1  644   1.749   2.304   2.070  0.5543 -0.7962  1.1816
  215SOL    HW2  645   1.588   2.343   2.124 -0.0113 -0.7019  1.3392
  216SOL     OW  646   2.203   0.594   0.699 -0.7064  0.1957 -0.7950
  216SOL    HW1  647   2.172   0.501   0.666 -1.4590 -1.9607  0.5994
  216SOL    HW2  648   2.213   0.661   0.617  2.0010  1.4520  0.5397
  217SOL     OW  649   0.836   2.792   2.495  1.1393  0.0103  0.2927
  217SOL    HW1  650   0.778   2.723   2.545  1.7105 -0.6009 -1.0642
  217SOL    HW2  651   0.874   2.749   2.408 -1.5395  0.7315  2.3453
  218SOL     OW  652   1.892   1.484   0.049  0.0318  0.0123  0.0906
  218SOL    HW1  653   1.785   1.488   0.039 -1.9735 -1.1126  1.3698
  218SOL    HW2  654   1.921   1.413   0.121  0.0761  0.5591  2.1315
  219SOL     OW  655   2.465   1.281   2.533  0.6716  0.0761  0.3881
  219SOL    HW1  656   2.497   1.228   2.453 -2.3914  0.9564 -0.3886
  219SOL    HW2  657   2.470   1.224   2.618  2.5529  0.6396 -1.3647
  220SOL     OW  658   1.431   1.004   1.363 -0.2969  0.2216  0.9064
  220SOL    HW1  659   1.537   1.004   1.371  0.4455  3.8049  0.6049
  220SOL    HW2  660   1.399   1.033   1.265 -1.3077 -0.8917 -0.9042
  221SOL     OW  661   1.282   0.962   2.199  0.5041 -0.7250  0.1221
  221SOL    HW1  662   1.258   0.913   2.113 -1.8698  0.4281  2.5492
  221SOL    HW2  663   1.372   1.015   2.196  1.4179  1.6600  1.2973
  222SOL     OW  664   1.113   0.138   1.200 -0.3524 -0.2955  0.7233
  222SOL    HW1  665   1.086   0.217   1.261 -1.4562  1.2706 -2.7057
  222SOL    HW2  666   1.147   0.167   1.107 -0.6743  0.7607 -0.7996
  223SOL     OW  667   2.695   0.929   2.137 -0.3197  0.2369 -0.2070
  223SOL    HW1  668   2.659   1.013   2.182  0.9314 -0.6340 -1.7342
  223SOL    HW2  669   2.787   0.903   2.178  2.0086  1.2385 -3.0334
  224SOL     OW  670   1.461   1.079   2.720 -0.0655 -0.5969 -0.0433
  224SOL    HW1  671   1.447   0.996   2.656  0.1133  1.0808  0.0884
  224SOL    HW2  672   1.471   1.159   2.662  2.1965 -3.3158 -0.8624
  225SOL     OW  673   2.979   2.722   2.878  0.1584 -0.2590  0.2690
  225SOL    HW1  674   2.894   2.703   2.823 -0.8622 -0.6583  1.3435
  225SOL    HW2  675   3.046   2.774   2.825  0.1289  0.0926 -2.0641
  226SOL     OW  676   2.356   1.612   2.837  0.4815  0.2062 -0.9470
  226SOL    HW1  677   2.389   1.591   2.743 -1.8335  0.2301 -0.5229
  226SOL    HW2  678   2.331   1.532   2.903 -0.1862 -3.9857 -0.7594
  227SOL     OW  679   0.850   0.207   3.081  0.3382  0.0859 -0.3299
  227SOL    HW1  680   0.899   0.300   3.083  0.0169  2.4292  0.4027
  227SOL    HW2  681   0.778   0.194   3.004 -0.1375 -0.4533 -2.0143
  228SOL     OW  682   2.426   0.586   2.829 -0.2520  0.0729 -0.5474
  228SOL    HW1  683   2.452   0.660   2.761 -1.3170  1.7169 -0.4725
  228SOL    HW2  684   2.498   0.531   2.876  1.0168 -1.7926  1.6215
  229SOL     OW  685   0.566   0.452   1.805  0.2663  0.2666 -0.6657
  229SOL    HW1  686   0.569   0.355   1.841  0.4056 -1.8833 -0.4768
  229SOL    HW2  687   0.632   0.476   1.730 -1.4717  2.0149  1.1873
  230SOL     OW  688   1.878   1.174   2.025 -0.1240  0.3719 -0.4182
  230SOL    HW1  689   1.954   1.240   1.993 -0.4298 -0.0011  0.8159
  230SOL    HW2  690   1.820   1.220   2.100 -0.3763  0.7182  0.2421
  231SOL     OW  691   0.653   1.069   0.013  0.4529  0.2074 -0.3181
  231SOL    HW1  692   0.743   1.130   0.010  2.8080 -1.2042 -1.0297
  231SOL    HW2  693   0.569   1.120   0.024  1.8256 -2.0701  0.9505
  232SOL     OW  694   2.437   3.018   2.827  0.0929 -0.7105 -0.2803
  232SOL    HW1  695   2.520   2.955   2.853  0.6873 -2.3535 -1.2340
  232SOL    HW2  696   2.460   3.094   2.756  0.9492 -0.5214 -0.4249
  233SOL     OW  697   1.774   1.244   1.228 -0.0611 -0.2557  0.3576
  233SOL    HW1  698   1.831   1.224   1.146 -1.7164  1.2468  0.8403
  233SOL    HW2  699   1.747   1.160   1.282  0.7638 -0.0703 -0.8610
  234SOL     OW  700   1.594   2.529   1.845  0.2046  0.3711 -0.1070
  234SOL    HW1  701   1.586   2.609   1.905  0.5011 -2.3516 -1.3012
  234SOL    HW2  702   1.561   2.439   1.884  0.1748 -0.3326 -2.3153
  235SOL     OW  703   0.026   3.029   2.840  0.1594 -0.7376  0.6730
  235SOL    HW1  704  -0.040   3.024   2.752  0.8305 -0.2522 -0.6751
  235SOL    HW2  705  -0.029   3.046   2.928 -1.7870  1.0941  0.8990
  236SOL     OW  706   2.870   0.730   0.087  0.5518 -0.0481  0.6397
  236SOL    HW1  707   2.958   0.774   0.132  0.2183  0.1968  0.5087
  236SOL    HW2  708   2.898   0.649   0.030 -0.7631  0.2843  0.4934
  237SOL     OW  709   1.519   1.633   0.959 -0.5541  0.0899  0.2074
  237SOL    HW1  710   1.617   1.603   0.927  0.9064 -1.3701 -0.2495
  237SOL    HW2  711   1.522   1.662   1.058 -0.0193 -0.1128 -2.4095
  238SOL     OW  712   1.878   1.248   0.757  0.5487 -0.8658 -0.1807
  238SOL    HW1  713   1.931   1.278   0.840 -0.0766  0.5172  1.0374
  238SOL    HW2  714   1.784   1.301   0.757 -2.6513 -0.0596  0.8065
  239SOL     OW  715   2.099   0.306   2.749 -0.1113  0.1437  0.6015
  239SOL    HW1  716   2.104   0.293   2.853 -1.2761 -1.3496 -0.8510
  239SOL    HW2  717   2.003   0.336   2.726 -1.2844 -0.4991 -0.9600
  240SOL     OW  718   0.923   0.669   0.238 -0.1778 -0.0469 -0.3591
  240SOL    HW1  719   0.990   0.593   0.199  0.7141  0.2287 -1.4788
  240SOL    HW2  720   0.936   0.675   0.345 -0.0400  2.5593  1.3728
  241SOL     OW  721   0.607   0.101   0.390  0.0316  0.3067 -0.3210
  241SOL    HW1  722   0.635   0.169   0.319 -0.6171 -1.7158  1.7774
  241SOL    HW2  723   0.586   0.007   0.353  2.5012 -2.4662 -0.2066
  242SOL     OW  724   0.624   2.541   1.158  0.2333  0.6008  0.4987
  242SOL    HW1  725   0.615   2.523   1.259  1.5158 -0.1781 -0.9432
  242SOL    HW2  726   0.639   2.640   1.131  1.1619 -0.5511  2.5309
  243SOL     OW  727   1.051   0.577   2.441  0.0906 -0.6871 -0.8372
  243SOL    HW1  728   0.966   0.603   2.382 -1.8052 -1.6313 -1.5121
  243SOL    HW2  729   1.017   0.521   2.526 -1.2286 -2.2029 -0.1978
  244SOL     OW  730   2.787   1.880   2.326 -0.7829 -0.6270 -0.3088
  244SOL    HW1  731   2.794   1.886   2.222  0.1051  0.1186  2.2011
  244SOL    HW2  732   2.703   1.833   2.356 -0.7864  0.8294 -2.7028
  245SOL     OW  733   2.201   0.909   2.189 -0.1998  0.0498  0.1940
  245SOL    HW1  734   2.291   0.881   2.229 -1.4079 -1.4429 -1.0910
  245SOL    HW2  735   2.147   0.984   2.241 -3.5519  1.3724 -1.7964
  246SOL     OW  736   0.201   2.887   1.706  0.1278 -0.2334  0.1300
  246SOL    HW1  737   0.123   2.900   1.638  1.4895 -2.8800  0.3940
  246SOL    HW2  738   0.288   2.925   1.675 -0.2436 -3.9853  1.5417
  247SOL     OW  739   2.221   0.650   3.013 -0.2088  0.2596  0.4768
  247SOL    HW1  740   2.278   0.626   2.934 -0.8932 -1.2221  3.5425
  247SOL    HW2  741   2.163   0.732   2.991  1.0312  1.2306  1.4605
  248SOL     OW  742   2.196   1.825   1.547  0.7334 -0.1386 -0.0597
  248SOL    HW1  743   2.261   1.791   1.615  1.9794  3.1308 -0.1819
  248SOL    HW2  744   2.095   1.809   1.582 -1.4706 -0.1025 -0.8972
  249SOL     OW  745   1.949   1.895   1.900  0.2116  0.2381  0.0700
  249SOL    HW1  746   1.949   1.841   1.809  0.8615 -3.3313  0.2812
  249SOL    HW2  747   2.041   1.949   1.905  1.4448 -1.0516  1.3880
  250SOL     OW  748   1.089   0.709   1.876  0.4647 -0.3594 -0.1779
  250SOL    HW1  749   1.090   0.637   1.948 -3.1980 -1.4944 -2.0435
  250SOL    HW2  750   1.052   0.672   1.786  0.7860  1.7863  0.4884
  251SOL     OW  751   3.059   1.683   2.521 -0.9265  0.4246  0.0920
  251SOL    HW1  752   3.056   1.785   2.496 -1.5488 -0.6501  1.8004
  251SOL    HW2  753   2.974   1.644   2.565 -0.2794  0.3156  1.2932
  252SOL     OW  754   1.620   0.744   1.690 -0.3995 -0.1430  0.3570
  252SOL    HW1  755   1.673   0.700   1.767  0.1898 -1.0356  0.0099
  252SOL    HW2  756   1.602   0.844   1.696  0.4392 -0.0852  0.6554
  253SOL     OW  757   0.982   1.599   0.463 -0.2778  0.4703 -0.0500
  253SOL    HW1  758   0.988   1.517   0.403  2.1294  3.4153 -0.9237
  253SOL    HW2  759   0.890   1.600   0.520 -0.0514 -0.5450 -0.0807
  254SOL     OW  760   2.029   2.175   1.634 -0.5427 -0.2988 -0.2648
  254SOL    HW1  761   1.986   2.099   1.576  0.3321 -1.0554 -1.3012
  254SOL    HW2  762   1.962   2.221   1.697  0.3231 -0.2921 -0.4030
  255SOL     OW  763   0.142   1.189   2.909  0.0092  0.1845 -0.1616
  255SOL    HW1  764   0.188   1.276   2.889  0.9135 -1.8334 -0.7208
  255SOL    HW2  765   0.190   1.127   2.980  0.3345  0.4373  0.0831
  256SOL     OW  766   2.869   1.412   1.821 -0.3356  0.1788  0.6565
  256SOL    HW1  767   2.790   1.468   1.855  0.5372 -3.5895  0.1877
  256SOL    HW2  768   2.838   1.316   1.798  0.6528 -0.5287  2.3142
  257SOL     OW  769   0.797   0.180   1.735  0.1314 -0.2510 -0.0033
  257SOL    HW1  770   0.858   0.256   1.755  0.7073 -0.4857 -0.3165
  257SOL    HW2  771   0.845   0.089   1.744 -0.6635  0.7496  1.0263
  258SOL     OW  772   2.995   1.231   0.473 -0.1428 -0.1485 -0.2506
  258SOL    HW1  773   2.896   1.223   0.498  0.7076  0.5109  3.0118
  258SOL    HW2  774   3.042   1.272   0.559  0.1801 -0.9154  0.3255
  259SOL     OW  775   0.420   2.899   3.051 -0.5106 -0.4151  0.1188
  259SOL    HW1  776   0.359   2.835   3.109  0.1622  0.5494 -0.4193
  259SOL    HW2  777   0.467   2.845   2.972  0.0747 -1.9817 -2.8712
  260SOL     OW  778   2.726   0.671   2.773 -0.5561  0.5197  0.3837
  260SOL    HW1  779   2.650   0.740   2.759  0.7097  0.3087  0.0916
  260SOL    HW2  780   2.690   0.584   2.817  1.3094  4.2673  3.2422
  261SOL     OW  781   2.726   1.282   1.337 -0.3152 -0.3473 -0.1002
  261SOL    HW1  782   2.702   1.225   1.256  1.4560 -0.9129 -1.8020
  261SOL    HW2  783   2.789   1.225   1.402  0.0965 -3.3791 -1.6570
  262SOL     OW  784   1.390   2.952   1.917 -0.2457  0.1672  0.0821
  262SOL    HW1  785   1.407   3.054   1.894 -3.8276  0.5338 -2.8849
  262SOL    HW2  786   1.287   2.938   1.931 -1.9155  0.0796 -0.9196
  263SOL     OW  787   0.855   0.670   2.283 -0.2704  0.3938 -0.0470
  263SOL    HW1  788   0.807   0.598   2.227  0.3889  1.8247  3.5984
  263SOL    HW2  789   0.888   0.749   2.222  1.5331 -0.4724  0.9914
  264SOL     OW  790   2.240   0.802   0.393 -0.0074  0.1088  0.0599
  264SOL    HW1  791   2.262   0.744   0.307 -0.4387  1.9128 -2.4062
  264SOL    HW2  792   2.325   0.833   0.445 -1.8232 -0.4762  2.2390
  265SOL     OW  793   0.928   2.438   2.641  0.2105 -0.3592 -0.6469
  265SOL    HW1  794   0.999   2.493   2.694  1.6059  2.6594  3.2045
  265SOL    HW2  795   0.937   2.335   2.659  1.3240 -0.4624 -1.0686
  266SOL     OW  796   1.328   1.792   3.039 -0.2869 -0.2499  0.0610
  266SOL    HW1  797   1.327   1.844   3.131  1.1734 -1.2963  0.6242
  266SOL    HW2  798   1.423   1.760   3.006  0.0219 -0.8037 -0.0183
  267SOL     OW  799   1.036   0.080   2.323  0.3656  0.2244 -0.1010
  267SOL    HW1  800   0.996   0.011   2.251  0.3509 -1.1494  2.3647
  267SOL    HW2  801   1.002   0.176   2.308  1.5698  1.7733 -0.5380
  268SOL     OW  802   0.695   1.225   1.080  1.2401  0.4845 -0.1569
  268SOL    HW1  803   0.702   1.264   1.178 -0.3125 -2.0535 -1.3584
  268SOL    HW2  804   0.693   1.295   1.006 -1.2196  1.5982 -1.6891
  269SOL     OW  805   2.338   2.514   1.612  0.3154 -0.5665 -0.6665
  269SOL    HW1  806   2.421   2.455   1.640  2.5125  1.0626 -0.0526
  269SOL    HW2  807   2.290   2.531   1.706  1.6205  0.6231  0.6872
  270SOL     OW  808   0.152   2.977   1.960 -0.4744  0.4904  0.2920
  270SOL    HW1  809   0.166   2.933   1.867  0.3909  1.6259 -0.2625
  270SOL    HW2  810   0.110   2.917   2.032  2.1607 -0.6587  0.4450
  271SOL     OW  811   0.421   1.404   1.157 -0.2171  0.2664  0.1224
  271SOL    HW1  812   0.416   1.377   1.057 -1.8385  0.5493  1.0400
  271SOL    HW2  813   0.338   1.379   1.206  1.8905 -1.6799  0.5270
  272SOL     OW  814   2.023   2.966   1.933 -0.3666  0.2032 -0.1226
  272SOL    HW1  815   1.940   2.933   1.877  2.9878 -0.2657 -2.5476
  272SOL    HW2  816   2.102   3.001   1.885 -2.4129  0.2702  1.5991
  273SOL     OW  817   1.500   1.438   2.756  0.1499 -0.1812  0.1925
  273SOL    HW1  818   1.397   1.421   2.750 -0.8228 -0.1341  1.0798
  273SOL    HW2  819   1.545   1.373   2.825 -2.4696  1.6150  3.0136
  274SOL     OW  820   1.181   0.507   2.057  0.0950  0.1126 -0.1310
  274SOL    HW1  821   1.151   0.406   2.036 -2.6629  1.1281  0.2104
  274SOL    HW2  822   1.227   0.522   2.150 -1.3939  0.6773  0.9887
  275SOL     OW  823   0.656   2.129   1.888  0.1468 -0.3979  0.4622
  275SOL    HW1  824   0.649   2.234   1.907 -0.6252  1.1483 -2.4388
  275SOL    HW2  825   0.563   2.081   1.893  0.2706  1.3241  1.4713
  276SOL     OW  826   2.194   1.122   2.777 -0.3342 -0.0675 -0.0531
  276SOL    HW1  827   2.109   1.157   2.727  1.0983  2.7880  2.7495
  276SOL    HW2  828   2.173   1.039   2.833 -0.2976 -0.6018  1.0277
  277SOL     OW  829  -0.003   0.771   0.241  0.0704  0.6187 -0.0964
  277SOL    HW1  830   0.079   0.812   0.199 -0.1055 -0.4583  0.8901
  277SOL    HW2  831   0.018   0.697   0.310 -1.6976  1.1612  0.4109
  278SOL     OW  832   0.209   0.273   2.924 -0.5117 -0.3348  0.1685
  278SOL    HW1  833   0.289   0.209   2.925  0.2192 -2.3031 -0.7119
  278SOL    HW2  834   0.237   0.368   2.898  1.3205 -2.6333 -0.4975
  279SOL     OW  835   0.231   0.022   0.899  0.2687 -0.2378 -0.1649
  279SOL    HW1  836   0.227  -0.051   0.976  1.1673 -1.0552  1.9884
  279SOL    HW2  837   0.251  -0.020   0.808 -0.7214 -0.7300  1.9102
  280SOL     OW  838   1.615   2.945   2.394  0.1097 -0.2416  0.1306
  280SOL    HW1  839   1.654   3.019   2.457 -2.2728  2.3337 -0.2541
  280SOL    HW2  840   1.565   2.991   2.313  0.0718  0.1707  3.1057
  281SOL     OW  841   0.584   0.984   2.267 -0.2869  0.1443  0.3128
  281SOL    HW1  842   0.586   0.888   2.230 -2.0998 -0.3553 -0.9688
  281SOL    HW2  843   0.576   0.987   2.369  2.0960 -1.1657 -1.6725
  282SOL     OW  844   1.788   2.484   0.500  0.0587 -0.3478 -0.0659
  282SOL    HW1  845   1.761   2.389   0.461 -1.7863 -1.6872  0.7604
  282SOL    HW2  846   1.732   2.561   0.460 -0.2000  1.1407  1.3828
  283SOL     OW  847   1.208   0.943   0.773 -0.4442  0.1061  0.0594
  283SOL    HW1  848   1.219   0.874   0.850  1.0666  0.8783 -0.5877
  283SOL    HW2  849   1.135   1.012   0.798 -1.3195 -2.0221 -1.6999
  284SOL     OW  850   2.256   2.811   2.501  0.2947 -0.5337 -0.4771
  284SOL    HW1  851   2.362   2.798   2.503 -0.3686  0.5959 -0.4682
  284SOL    HW2  852   2.229   2.858   2.585  3.2675  2.0662 -4.7831
  285SOL     OW  853   1.386   3.069   2.574  0.3084  0.1957  0.0234
  285SOL    HW1  854   1.437   3.063   2.481  1.0306  0.3309  0.4239
  285SOL    HW2  855   1.300   3.116   2.560  3.1821  0.6451 -2.3254
  286SOL     OW  856   0.423   0.419   0.752 -0.0840 -0.1945 -0.3846
  286SOL    HW1  857   0.363   0.390   0.835 -0.4120  0.3098 -1.1740
  286SOL    HW2  858   0.420   0.343   0.677  1.8830 -2.6546 -1.8999
  287SOL     OW  859   0.073   1.279   2.526  0.0824  0.4846  0.7847
  287SOL    HW1  860   0.039   1.195   2.587  0.3741 -1.0314  0.2076
  287SOL    HW2  861   0.015   1.360   2.546 -2.4753 -0.8849  1.9109
  288SOL     OW  862   1.601   2.706   1.645 -0.0370  0.5476  0.2673
  288SOL    HW1  863   1.590   2.634   1.721 -0.0216 -2.0323  1.6572
  288SOL    HW2  864   1.612   2.662   1.559  1.7446  1.7585  2.1956
  289SOL     OW  865   0.568   2.721   0.848 -0.1613  0.2726 -0.1389
  289SOL    HW1  866   0.655   2.764   0.806  0.0513  1.4790  1.2249
  289SOL    HW2  867   0.555   2.758   0.942 -1.3657  2.3555  0.3734
  290SOL     OW  868   2.848   1.144   1.776 -0.2423 -0.9164 -0.6241
  290SOL    HW1  869   2.786   1.064   1.787 -0.9259  1.0867  2.3383
  290SOL    HW2  870   2.951   1.129   1.799  0.6338  2.5151 -1.2480
  291SOL     OW  871   1.985   3.093   0.047  0.1290  0.4512  0.5928
  291SOL    HW1  872   1.995   3.145   0.134 -0.3437 -4.0345 -1.2759
  291SOL    HW2  873   2.050   3.126  -0.025 -2.6587  0.2797 -1.0226
  292SOL     OW  874   3.024   1.232   3.093  0.1389  0.1135  0.2916
  292SOL    HW1  875   2.949   1.266   3.035  1.8035  0.5563  0.0793
  292SOL    HW2  876   3.103   1.202   3.039 -1.8138  2.7313  2.9965
  293SOL     OW  877   0.535   2.182   0.290  0.3145 -0.3018 -0.1938
  293SOL    HW1  878   0.493   2.265   0.337 -2.3317 -2.4346  0.0045
  293SOL    HW2  879   0.632   2.159   0.318  2.8656  0.3512  2.5278
  294SOL     OW  880   1.826   2.310   1.779 -0.2945  0.4276  0.4540
  294SOL    HW1  881   1.861   2.378   1.854  0.8268  4.8267  0.7078
  294SOL    HW2  882   1.765   2.364   1.711  0.8654 -0.2097  0.3901
  295SOL     OW  883   0.977   1.054   0.438  0.2532 -0.3727  0.5045
  295SOL    HW1  884   1.072   1.027   0.456 -2.3174 -1.7893  0.6564
  295SOL    HW2  885   0.911   1.024   0.513 -3.5247 -0.8391  0.6741
  296SOL     OW  886   1.197   2.130   2.700 -0.6850  0.4380  0.3039
  296SOL    HW1  887   1.094   2.156   2.710 -1.4698  1.8381  2.5058
  296SOL    HW2  888   1.228   2.055   2.636 -3.0041  0.6027 -1.0033
  297SOL     OW  889   1.370   0.582   1.307 -0.1644 -0.0106 -0.4883
  297SOL    HW1  890   1.406   0.500   1.362  1.1175 -1.4565 -2.5783
  297SOL    HW2  891   1.450   0.629   1.266 -2.3382 -2.2838 -0.8508
  298SOL     OW  892   0.526   1.356   2.999 -0.4203  0.1468  0.0926
  298SOL    HW1  893   0.465   1.301   3.068  1.8440 -0.4662 -1.2382
  298SOL    HW2  894   0.572   1.289   2.934  2.9257  0.9518 -0.1328
  299SOL     OW  895   0.442   0.301   1.283 -0.5420  0.0108  0.1146
  299SOL    HW1  896   0.392   0.383   1.242  0.6866 -2.2195 -0.0337
  299SOL    HW2  897   0.475   0.312   1.383 -1.9172  0.3344  2.4196
  300SOL     OW  898   1.258   1.718   2.580  0.2644  0.5524 -0.5215
  300SOL    HW1  899   1.247   1.642   2.508 -0.0009 -0.6324 -2.3430
  300SOL    HW2  900   1.361   1.733   2.605 -0.1918 -1.8518  1.3325
  301SOL     OW  901   0.426   0.274   0.517  0.6816  0.5887  0.1884
  301SOL    HW1  902   0.331   0.236   0.521 -0.5365 -0.0353  4.4326
  301SOL    HW2  903   0.485   0.207   0.472  0.1812  0.5054  1.8242
  302SOL     OW  904   1.235   2.434   2.314 -0.7246  0.3848 -0.1079
  302SOL    HW1  905   1.153   2.498   2.326  0.9887  0.3420  1.8702
  302SOL    HW2  906   1.259   2.372   2.396 -0.6752 -3.3596  0.0475
  303SOL     OW  907   0.912   2.425   0.818 -0.1932  0.1257  0.1568
  303SOL    HW1  908   0.981   2.419   0.737  0.9391 -0.8416 -1.8246
  303SOL    HW2  909   0.951   2.450   0.915 -1.0001  0.9833 -1.3733
  304SOL     OW  910   0.081   1.909   0.690  0.0074 -0.3934 -0.6051
  304SOL    HW1  911   0.162   1.911   0.629 -1.3731 -0.1838  2.0302
  304SOL    HW2  912   0.007   1.966   0.644 -1.6314  1.9105 -0.6355
  305SOL     OW  913   1.602   0.891   0.678  0.1298  0.3174  0.6910
  305SOL    HW1  914   1.551   0.876   0.582 -1.8458 -0.8779  0.9253
  305SOL    HW2  915   1.651   0.808   0.721  2.2572 -1.1587  0.4032
  306SOL     OW  916   0.437   1.940   1.876 -0.4497  0.6460 -0.6905
  306SOL    HW1  917   0.512   1.872   1.857  0.6729 -0.2886 -2.7005
  306SOL    HW2  918   0.430   1.963   1.978  1.3962  1.8731  1.4620
  307SOL     OW  919   3.003   0.859   2.517 -0.0331 -0.0118 -0.0639
  307SOL    HW1  920   3.040   0.912   2.599  0.0299 -0.5126 -0.8934
  307SOL    HW2  921   2.939   0.779   2.543 -1.6789  0.5235  0.7648
  308SOL     OW  922   1.596   2.664   2.797 -0.2704  0.2630  0.7510
  308SOL    HW1  923   1.564   2.618   2.708  2.0462 -1.3318  2.1438
  308SOL    HW2  924   1.550   2.628   2.882 -0.4683  0.6552  1.4862
  309SOL     OW  925   1.220   0.165   1.783  0.2474 -0.3858 -0.0493
  309SOL    HW1  926   1.322   0.133   1.785  0.3949 -0.2890 -1.9617
  309SOL    HW2  927   1.187   0.190   1.686 -0.0480 -0.8031  0.7401
  310SOL     OW  928   1.518   2.547   0.680 -0.0806  0.1907 -0.1529
  310SOL    HW1  929   1.490   2.580   0.772 -0.9830  0.1171  3.4668
  310SOL    HW2  930   1.584   2.612   0.629 -0.9969  2.1266  3.4974
  311SOL     OW  931   1.140   0.947   1.755  0.2268  0.8226  0.0125
  311SOL    HW1  932   1.111   0.858   1.806 -3.9059  1.0809 -0.4063
  311SOL    HW2  933   1.175   0.926   1.657  0.9298 -0.5954 -1.5059
  312SOL     OW  934   1.547   0.674   1.121  0.0620  0.0554  0.1391
  312SOL    HW1  935   1.566   0.773   1.100 -1.2580  1.0165  2.0741
  312SOL    HW2  936   1.498   0.623   1.050  0.6678  0.1417 -1.0705
  313SOL     OW  937   1.601   1.358   0.726 -0.4123 -0.0338  0.2635
  313SOL    HW1  938   1.526   1.341   0.803 -2.2732 -2.6773  0.2382
  313SOL    HW2  939   1.590   1.289   0.648  1.8107  2.3301 -0.2185
  314SOL     OW  940   2.995   3.085   3.075  0.3829 -0.0459  0.5022
  314SOL    HW1  941   2.992   3.126   3.170 -2.6962 -0.9131  1.1067
  314SOL    HW2  942   2.905   3.036   3.058 -2.2834  0.1990  0.1590
  315SOL     OW  943   1.185   0.257   2.767  0.3356 -0.1675 -0.2982
  315SOL    HW1  944   1.170   0.174   2.705 -1.5604 -1.1177 -0.4811
  315SOL    HW2  945   1.218   0.230   2.860 -2.3714  0.2730 -0.7621
  316SOL     OW  946   1.739   2.089   0.891  0.5137  0.0571 -0.4949
  316SOL    HW1  947   1.695   2.100   0.988 -0.4584  0.2117  3.1043
  316SOL    HW2  948   1.752   2.178   0.842  1.1152 -1.0228  0.4901
  317SOL     OW  949   1.173   0.647   2.777 -0.2250 -0.0279 -0.1900
  317SOL    HW1  950   1.124   0.667   2.870  0.0170 -0.2714 -1.4337
  317SOL    HW2  951   1.110   0.585   2.720 -1.1011 -0.7920 -4.9050
  318SOL     OW  952   1.426   3.096   2.231 -0.3536  0.3000 -0.0522
  318SOL    HW1  953   1.406   3.197   2.218  2.4338  2.1653  0.7369
  318SOL    HW2  954   1.405   3.039   2.147  0.0758 -0.8634 -1.1616
  319SOL     OW  955   0.625   2.324   2.903  0.7841  0.0722 -0.1442
  319SOL    HW1  956   0.564   2.290   2.976  1.0059  0.7050 -0.1737
  319SOL    HW2  957   0.683   2.244   2.875  0.1141 -1.8369  2.6310
  320SOL     OW  958   1.692   2.238   0.403 -0.3557  0.3072 -0.3871
  320SOL    HW1  959   1.764   2.169   0.410 -1.4409  1.6672 -0.6081
  320SOL    HW2  960   1.600   2.203   0.428 -4.7427  1.1617 -0.5072
  321SOL     OW  961   1.676   2.762   0.579  0.3967  0.1634  0.1281
  321SOL    HW1  962   1.600   2.798   0.514 -0.3421 -0.7182 -1.5109
  321SOL    HW2  963   1.771   2.794   0.559 -2.9121  0.7782  2.2808
  322SOL     OW  964   2.596   1.124   2.324 -0.0230 -0.0070 -0.3171
  322SOL    HW1  965   2.680   1.146   2.382  0.4899  0.5957 -0.0880
  322SOL    HW2  966   2.548   1.038   2.341  0.5296 -0.7410 -1.9559
  323SOL     OW  967   1.165   2.659   0.822  0.3322 -0.2453  0.0122
  323SOL    HW1  968   1.114   2.613   0.738  1.3658 -1.0835  2.1073
  323SOL    HW2  969   1.113   2.740   0.860 -1.3915 -2.0751 -4.1037
  324SOL     OW  970   0.258   2.519   2.456 -0.3462  0.5666 -0.1817
  324SOL    HW1  971   0.184   2.469   2.504 -1.1359  3.2542 -0.0670
  324SOL    HW2  972   0.286   2.604   2.507  0.4806 -1.3162 -0.5294
  325SOL     OW  973   1.261   2.991   0.479 -0.7426  0.3151 -0.8280
  325SOL    HW1  974   1.251   3.042   0.390  0.6516 -1.7730  1.0841
  325SOL    HW2  975   1.251   3.057   0.560 -0.5642 -0.9207 -0.5423
  326SOL     OW  976   2.455   0.788   0.009  0.5230  0.0410  0.2288
  326SOL    HW1  977   2.374   0.748  -0.045  1.8691 -2.7343  3.1148
  326SOL    HW2  978   2.519   0.719   0.049 -1.8060  2.8929  0.3857
  327SOL     OW  979   2.801   0.308   0.537 -0.0450  0.3353 -0.4579
  327SOL    HW1  980   2.773   0.276   0.438 -1.5956  1.2124 -0.6123
  327SOL    HW2  981   2.799   0.240   0.615 -2.9178 -0.7019 -0.1692
  328SOL     OW  982   2.615   0.617   0.411  0.5715  0.6995 -0.3973
  328SOL    HW1  983   2.669   0.679   0.474 -1.0839 -1.4536  1.7650
  328SOL    HW2  984   2.548   0.555   0.463  0.2785 -2.3700 -1.9533
  329SOL     OW  985   2.902   2.936   2.121 -0.5487 -0.3513 -0.2728
  329SOL    HW1  986   3.000   2.899   2.138  2.1687  0.1394 -2.1457
  329SOL    HW2  987   2.899   3.040   2.130 -0.9934 -0.1083 -0.0581
  330SOL     OW  988   0.591   0.177   1.927  0.1785 -0.1108  0.2301
  330SOL    HW1  989   0.659   0.127   1.870 -0.1310 -1.8454  0.1849
  330SOL    HW2  990   0.585   0.128   2.017 -0.6661  1.0556  0.7723
  331SOL     OW  991   3.012   1.930   1.081  0.0941 -0.2853  0.3228
  331SOL    HW1  992   2.965   1.934   0.992  0.0758 -0.1854 -0.4400
  331SOL    HW2  993   2.946   1.885   1.150 -2.2678 -1.1890  0.5074
  332SOL     OW  994   0.389   1.190   0.068  0.1631 -0.0989  0.0746
  332SOL    HW1  995   0.319   1.111   0.041 -0.3671 -0.2175 -2.3188
  332SOL    HW2  996   0.373   1.241   0.158  0.8134  1.8398 -0.4885
  333SOL     OW  997   2.938   0.997   0.317  0.7576 -0.0408  0.7613
  333SOL    HW1  998   2.977   1.066   0.380 -1.6456  0.0585 -0.1070
  333SOL    HW2  999   2.998   0.916   0.307 -1.9726  4.0229  0.0953
  334SOL     OW 1000   1.716   1.278   1.798  0.5011  0.1194  0.1406
  334SOL    HW1 1001   1.779   1.272   1.711 -0.1425 -2.0788 -2.7231
  334SOL    HW2 1002   1.764   1.249   1.890  2.2527 -1.9534 -0.0538
  335SOL     OW 1003   1.980   2.752   2.588 -0.4632  0.2955  0.2196
  335SOL    HW1 1004   1.959   2.784   2.683  2.4191 -0.7530  0.5910
  335SOL    HW2 1005   2.075   2.765   2.553 -2.1608 -2.1209 -1.4710
  336SOL     OW 1006   0.258   0.026   2.725 -0.6160 -0.3478 -0.6395
  336SOL    HW1 1007   0.334   0.028   2.798  0.4859 -0.5795  1.0099
  336SOL    HW2 1008   0.171  -0.021   2.757  0.6772  1.7182  2.1109
  337SOL     OW 1009   0.975   2.933   2.950 -0.5857 -0.0868  0.2026
  337SOL    HW1 1010   0.954   2.844   3.001  0.3362  2.0540 -1.6636
  337SOL    HW2 1011   1.066   2.975   2.971 -4.2604  1.6792  1.7729
  338SOL     OW 1012   0.063   0.992   0.696 -0.0161 -0.0107 -0.1960
  338SOL    HW1 1013  -0.038   0.962   0.703 -2.0616  0.4684 -0.8369
  338SOL    HW2 1014   0.067   1.097   0.692  0.0190 -0.7952 -2.2069
  339SOL     OW 1015   1.716   1.360   2.163 -0.2442  0.4419  0.5163
  339SOL    HW1 1016   1.625   1.381   2.128  0.7653  0.4145 -3.8757
  339SOL    HW2 1017   1.774   1.441   2.146  2.1394  0.9309  4.3031
  340SOL     OW 1018   2.270   0.758   1.170 -1.0179  0.1892  0.1735
  340SOL    HW1 1019   2.179   0.796   1.135 -1.3960 -0.9557 -0.3080
  340SOL    HW2 1020   2.289   0.663   1.147 -0.1803  2.0941  1.4073
  341SOL     OW 1021   1.934   2.120   0.330 -0.4974 -0.1374  0.4890
  341SOL    HW1 1022   1.963   2.120   0.229 -1.2662  0.8451 -0.6742
  341SOL    HW2 1023   2.011   2.105   0.395  2.0652  1.7970 -0.5015
  342SOL     OW 1024   2.156   2.135   2.773  0.3290  0.1712 -0.1793
  342SOL    HW1 1025   2.203   2.043   2.774  0.0038 -0.6200 -1.4539
  342SOL    HW2 1026   2.061   2.133   2.732  2.2000  1.8723 -0.8116
  343SOL     OW 1027   0.409   0.788   2.771  0.2292 -0.0104 -0.3070
  343SOL    HW1 1028   0.409   0.831   2.677  3.2112 -2.6088  1.0803
  343SOL    HW2 1029   0.498   0.809   2.826  1.4697 -0.9390  0.5900
  344SOL     OW 1030   1.891   1.496   0.406 -0.5469  0.0910 -0.4247
  344SOL    HW1 1031   1.908   1.409   0.350  4.3368  1.7367 -1.8874
  344SOL    HW2 1032   1.789   1.508   0.429 -1.5080 -2.0757 -0.8347
  345SOL     OW 1033   1.396   2.253   2.867  0.4092 -0.0032  0.3915
  345SOL    HW1 1034   1.305   2.225   2.824  1.8622 -2.4245 -0.7934
  345SOL    HW2 1035   1.467   2.185   2.827  0.9270 -0.4851 -0.0015
  346SOL     OW 1036   2.332   0.924   1.399 -0.1071 -0.0492 -0.0684
  346SOL    HW1 1037   2.294   1.013   1.440 -0.0595 -1.3542  2.9477
  346SOL    HW2 1038   2.282   0.887   1.312  0.0006 -0.2597 -0.7872
  347SOL     OW 1039   0.737   2.728   1.631 -0.5645 -0.0415 -0.5433
  347SOL    HW1 1040   0.671   2.733   1.715  1.4157  2.5717  0.9413
  347SOL    HW2 1041   0.702   2.776   1.547 -1.6685 -1.2177 -1.8698
  348SOL     OW 1042   0.176   0.780   2.915 -0.0476  0.4337 -0.3993
  348SOL    HW1 1043   0.095   0.748   2.855  1.5146 -0.9684 -0.6681
  348SOL    HW2 1044   0.257   0.796   2.855 -3.0563 -1.7476 -0.0258
  349SOL     OW 1045   1.834   0.429   2.779 -0.7330  0.2508  0.1006
  349SOL    HW1 1046   1.828   0.511   2.716  0.7920  0.1376  1.4603
  349SOL    HW2 1047   1.839   0.461   2.880  1.5649  3.2685  1.3567
  350SOL     OW 1048   1.657   0.389   0.365  0.1497 -0.5302 -0.2974
  350SOL    HW1 1049   1.740   0.368   0.423  0.7115 -0.0377  0.8904
  350SOL    HW2 1050   1.642   0.487   0.349  1.7547 -0.4498 -2.8263
  351SOL     OW 1051   0.948   0.846   2.087 -0.6823 -0.6013  0.1175
  351SOL    HW1 1052   0.992   0.944   2.096  1.2267  1.5761  0.9041
  351SOL    HW2 1053   0.973   0.809   1.994 -0.2633  1.9701 -0.0148
  352SOL     OW 1054   2.084   1.374   0.578  0.4540  0.0102 -0.3382
  352SOL    HW1 1055   2.048   1.433   0.502 -2.2434  1.2931  0.6530
  352SOL    HW2 1056   2.004   1.333   0.629 -1.2825  3.2412 -2.9766
  353SOL     OW 1057   2.196   2.826   1.057  0.5580  0.5288 -0.5256
  353SOL    HW1 1058   2.252   2.776   1.127 -0.0433 -2.2479 -0.2814
  353SOL    HW2 1059   2.098   2.800   1.060 -0.4350 -0.9237  0.3595
  354SOL     OW 1060   0.282   1.430   2.856  0.0291  0.8881  0.4198
  354SOL    HW1 1061   0.243   1.487   2.781  0.6926 -1.2821 -0.7235
  354SOL    HW2 1062   0.380   1.457   2.876 -0.9912 -0.4086  0.0810
  355SOL     OW 1063   0.744   1.589   0.582 -0.0606  0.0670 -0.4330
  355SOL    HW1 1064   0.725   1.519   0.656 -1.3415  0.1005  0.8194
  355SOL    HW2 1065   0.690   1.572   0.496 -0.0559 -3.5688  0.6867
  356SOL     OW 1066   0.860   0.315   2.038 -0.1014 -0.3350 -0.3599
  356SOL    HW1 1067   0.959   0.275   2.024  3.5345 -2.4083 -0.6435
  356SOL    HW2 1068   0.792   0.278   1.966 -0.6506  0.7631 -1.4299
  357SOL     OW 1069   1.027   1.322   0.361  0.8120  0.0556 -0.3194
  357SOL    HW1 1070   1.127   1.327   0.342  0.7581 -1.8324  2.7726
  357SOL    HW2 1071   1.008   1.230   0.402 -0.7455  1.6412 -1.7060
  358SOL     OW 1072   1.643   1.537   0.489 -0.1395 -0.4496  0.1516
  358SOL    HW1 1073   1.624   1.501   0.580  2.6135  2.4810 -1.9028
  358SOL    HW2 1074   1.583   1.500   0.416  0.3576  0.5983  1.3735
  359SOL     OW 1075   1.600   2.612   0.255 -0.6948 -0.6201  0.4872
  359SOL    HW1 1076   1.543   2.526   0.239 -0.5320  0.4126  0.4402
  359SOL    HW2 1077   1.546   2.686   0.296  0.9329  0.2806  2.0832
  360SOL     OW 1078   0.762   0.544   0.547 -0.3023 -0.1644  0.2263
  360SOL    HW1 1079   0.703   0.541   0.458  3.8026 -1.6100  0.1581
  360SOL    HW2 1080   0.810   0.454   0.564 -0.5542 -0.2124 -1.2136
  361SOL     OW 1081   1.308   1.272   0.649  0.2865  0.2170  0.0305
  361SOL    HW1 1082   1.317   1.263   0.754 -3.0196 -1.4447 -1.5874
  361SOL    HW2 1083   1.230   1.337   0.620  0.7349 -0.2853 -1.6200
  362SOL     OW 1084   1.378   1.752   0.734 -0.0038 -0.1345 -0.4740
  362SOL    HW1 1085   1.416   1.731   0.828 -1.1714  1.2096 -0.0391
  362SOL    HW2 1086   1.452   1.762   0.662  0.5315  0.8535  0.8762
  363SOL     OW 1087   1.232   1.316   2.075 -0.5813 -0.7633 -0.2123
  363SOL    HW1 1088   1.330   1.357   2.090  2.7143 -0.6217  1.4991
  363SOL    HW2 1089   1.162   1.390   2.054 -0.9178  1.3997  1.1058
  364SOL     OW 1090   0.510   2.362   2.027 -0.0155  0.0296  0.2201
  364SOL    HW1 1091   0.409   2.365   1.999 -1.3525 -0.8850  0.5310
  364SOL    HW2 1092   0.564   2.431   1.973 -1.5466  0.4835  0.0454
  365SOL     OW 1093   1.035   1.967   1.340  0.1963  0.0037  0.0695
  365SOL    HW1 1094   0.939   1.938   1.365  1.0785 -0.7695 -0.6788
  365SOL    HW2 1095   1.043   2.018   1.250  1.0570  2.3115  0.6598
  366SOL     OW 1096   2.850   1.943   0.368  0.3450  0.0573 -0.0213
  366SOL    HW1 1097   2.748   1.920   0.354 -1.9547  0.7379 -1.8624
  366SOL    HW2 1098   2.913   1.870   0.323 -0.4667 -0.5480  2.5546
  367SOL     OW 1099   0.971   1.192   0.030 -0.0307 -0.2581  0.3981
  367SOL    HW1 1100   0.972   1.100   0.080 -3.1993  0.3171  1.0850
  367SOL    HW2 1101   1.056   1.251   0.033 -1.4668 -0.4094 -2.3220
  368SOL     OW 1102   1.430   0.526   0.617  0.9412 -0.2044 -0.5533
  368SOL    HW1 1103   1.387   0.580   0.536 -1.5186 -2.8708  1.9514
  368SOL    HW2 1104   1.524   0.561   0.640 -1.4855 -0.9255 -0.7465
  369SOL     OW 1105   0.377   1.751   0.180  0.1195 -0.3368  0.2063
  369SOL    HW1 1106   0.435   1.803   0.245 -1.0878 -1.4766  0.8977
  369SOL    HW2 1107   0.302   1.692   0.224 -0.5254 -0.4118  1.6380
  370SOL     OW 1108   0.438   2.080   1.038 -0.1424  0.7663 -0.1158
  370SOL    HW1 1109   0.467   2.184   1.027  3.2363  0.2506 -1.7393
  370SOL    HW2 1110   0.336   2.069   1.027 -2.9253  0.0412 -2.1529
  371SOL     OW 1111   2.866   2.211   2.616 -0.1897  0.0568  0.4778
  371SOL    HW1 1112   2.827   2.143   2.688 -0.5653  0.0368 -0.7320
  371SOL    HW2 1113   2.935   2.278   2.655 -2.4639  1.9241 -0.8070
  372SOL     OW 1114   1.071   2.061   1.008  0.2986  0.4676  0.5243
  372SOL    HW1 1115   0.976   2.103   0.996 -0.2407  0.9120  1.6448
  372SOL    HW2 1116   1.138   2.088   0.930  0.8040  2.6655 -0.5971
  373SOL     OW 1117   1.929   1.919   0.960 -0.6109 -0.2180  1.4699
  373SOL    HW1 1118   2.009   1.966   1.006 -0.7900  0.7003 -1.8249
  373SOL    HW2 1119   1.856   1.981   0.921  3.2849  1.6096  1.0296
  374SOL     OW 1120   1.864   0.394   0.561 -0.1804  0.2247  0.3186
  374SOL    HW1 1121   1.857   0.363   0.663 -0.0460  0.2559  0.3940
  374SOL    HW2 1122   1.965   0.397   0.535  2.0089  1.8187 -1.5696
  375SOL     OW 1123   2.403   2.163   1.085 -0.1177  0.3068 -0.3843
  375SOL    HW1 1124   2.441   2.128   0.993  2.1933 -0.0810 -1.1812
  375SOL    HW2 1125   2.462   2.133   1.165  1.0064  0.9011  0.2381
  376SOL     OW 1126   3.035   0.516   1.470  0.3838 -0.1868 -1.0935
  376SOL    HW1 1127   3.028   0.586   1.546  2.4637  2.6269  0.4256
  376SOL    HW2 1128   2.979   0.435   1.497  1.0130  2.0506  0.9180
  377SOL     OW 1129   2.176   2.916   0.312  0.1449  0.2220 -0.1543
  377SOL    HW1 1130   2.150   3.016   0.325 -1.4367  0.2522  0.9038
  377SOL    HW2 1131   2.268   2.895   0.351 -1.0789  1.6572 -0.4298
  378SOL     OW 1132   1.747   1.842   2.530  0.3541 -0.9515 -0.0823
  378SOL    HW1 1133   1.834   1.857   2.468 -2.8876  0.9870 -2.0160
  378SOL    HW2 1134   1.687   1.776   2.475 -1.1269  1.6556 -1.8912
  379SOL     OW 1135   0.695   0.148   2.840  0.3577 -0.1834  0.0100
  379SOL    HW1 1136   0.767   0.082   2.804  0.7480  2.3504 -1.8788
  379SOL    HW2 1137   0.700   0.234   2.790 -0.4704 -0.4055  0.3743
  380SOL     OW 1138   1.572   1.139   0.568  0.6520  0.1489 -0.8088
  380SOL    HW1 1139   1.474   1.172   0.570 -0.3528  0.4930 -1.4674
  380SOL    HW2 1140   1.585   1.064   0.638 -0.2722  0.5221 -1.0880
  381SOL     OW 1141   1.350   1.198   1.576  0.2008 -0.0071 -0.2326
  381SOL    HW1 1142   1.401   1.152   1.500 -0.3559  1.0687  1.2231
  381SOL    HW2 1143   1.400   1.268   1.635 -0.3280  0.9646  0.5480
  382SOL     OW 1144   1.828   0.885   0.207  0.1783 -0.2553  0.4756
  382SOL    HW1 1145   1.859   0.862   0.110  0.9772  1.0382 -0.3328
  382SOL    HW2 1146   1.899   0.857   0.277  1.3409  1.9876  2.1804
  383SOL     OW 1147   2.586   1.003   1.473  0.1296  0.0266  0.2985
  383SOL    HW1 1148   2.503   0.951   1.460  1.6775 -0.0777 -0.7665
  383SOL    HW2 1149   2.644   1.004   1.388  1.3832 -0.1625 -0.2358
  384SOL     OW 1150   0.918   2.231   0.171 -0.7184  0.2464  0.5716
  384SOL    HW1 1151   0.875   2.303   0.234 -3.6956 -0.4814 -0.6572
  384SOL    HW2 1152   0.893   2.135   0.203 -1.9332 -1.4827 -0.3367
  385SOL     OW 1153   2.965   2.005   1.663  0.1227 -0.3591 -0.2640
  385SOL    HW1 1154   3.041   2.079   1.633  0.1508  1.3853  1.1744
  385SOL    HW2 1155   2.998   1.905   1.668  0.0103  1.1793  3.3540
  386SOL     OW 1156   0.515   1.063   0.465 -0.5541  0.3111  0.1717
  386SOL    HW1 1157   0.488   0.962   0.481 -1.8264  4.2603  1.0240
  386SOL    HW2 1158   0.432   1.125   0.456 -1.3400  1.8093 -1.3517
  387SOL     OW 1159   0.915   0.408   1.679 -0.3864 -0.1042 -0.3040
  387SOL    HW1 1160   0.994   0.481   1.676  0.1243  1.6275 -1.0752
  387SOL    HW2 1161   0.905   0.368   1.584 -0.1768  1.7473 -0.1644
  388SOL     OW 1162   1.198   2.712   1.729 -0.0794  0.0667 -0.2682
  388SOL    HW1 1163   1.196   2.715   1.623 -1.9485 -1.5644 -0.1241
  388SOL    HW2 1164   1.267   2.642   1.766 -0.3801  2.7611 -0.7750
  389SOL     OW 1165   0.160   3.009   1.228 -0.2754 -0.7478  0.6987
  389SOL    HW1 1166   0.056   3.024   1.228 -3.3262 -1.5163 -0.3457
  389SOL    HW2 1167   0.181   2.911   1.243 -1.6641 -1.8133  0.3885
  390SOL     OW 1168   1.038   0.969   1.306  0.2221 -0.0692 -0.5361
  390SOL    HW1 1169   1.132   0.950   1.353  1.8589 -1.8583 -1.3414
  390SOL    HW2 1170   0.994   1.049   1.353  1.4941 -0.5588  2.1014
  391SOL     OW 1171   2.194   1.124   1.080  0.1763 -0.2952  0.1112
  391SOL    HW1 1172   2.139   1.037   1.105 -0.5311  0.4828 -3.0832
  391SOL    HW2 1173   2.247   1.104   0.997 -0.3616  1.0578  1.5609
  392SOL     OW 1174   0.860   2.664   3.068  0.3339 -0.2924 -0.4379
  392SOL    HW1 1175   0.949   2.623   3.066  1.1549  0.1872 -0.1830
  392SOL    HW2 1176   0.828   2.690   3.161 -1.1973 -1.1184 -2.2874
  393SOL     OW 1177   0.397   0.578   1.974 -0.5817 -0.3759  0.0658
  393SOL    HW1 1178   0.313   0.513   1.971 -2.5594  0.8445  1.0764
  393SOL    HW2 1179   0.469   0.557   1.905  0.5909  0.2947 -0.5617
  394SOL     OW 1180   2.955   1.900   2.788  0.2470  0.4994  0.1696
  394SOL    HW1 1181   3.031   1.930   2.857  1.4663 -0.1409  0.0983
  394SOL    HW2 1182   2.976   1.920   2.688 -0.8461  0.0217  0.9999
  395SOL     OW 1183   1.604   1.986   0.665 -0.3326  0.1026 -0.0442
  395SOL    HW1 1184   1.647   1.899   0.625 -1.7036 -1.5394 -0.4525
  395SOL    HW2 1185   1.640   2.010   0.761  1.3751  2.2205 -0.5216
  396SOL     OW 1186   2.811   1.857   1.280  0.0935 -0.0117 -0.2030
  396SOL    HW1 1187   2.787   1.758   1.249  0.2706 -0.1012 -0.1002
  396SOL    HW2 1188   2.759   1.888   1.363 -1.6730 -2.0532  1.0804
  397SOL     OW 1189   1.046   2.232   0.492  0.1910 -0.6296 -0.2287
  397SOL    HW1 1190   0.966   2.190   0.551 -0.7538 -1.3163  0.0022
  397SOL    HW2 1191   1.048   2.335   0.498  0.5402 -0.7221  2.2803
  398SOL     OW 1192   2.167   3.093   1.023  0.5161 -0.2678  0.0187
  398SOL    HW1 1193   2.150   3.000   1.073 -1.5559 -0.4631 -0.7812
  398SOL    HW2 1194   2.096   3.163   1.052 -2.3797 -0.0494 -3.6215
  399SOL     OW 1195   3.058   2.464   2.534  0.5895 -0.5233  0.8649
  399SOL    HW1 1196   2.954   2.449   2.506 -2.1243  0.2870  2.1763
  399SOL    HW2 1197   3.092   2.391   2.597  0.8124 -0.3185  0.2496
  400SOL     OW 1198   0.781   1.622   1.331  0.1638 -0.0352 -0.1600
  400SOL    HW1 1199   0.719   1.661   1.409  0.6892  0.2540  1.5946
  400SOL    HW2 1200   0.816   1.691   1.267  1.2935  0.8550  2.8195
  401SOL     OW 1201   1.859   0.083   1.312  0.3090  0.3666 -0.2968
  401SOL    HW1 1202   1.905   0.048   1.401  1.0628  0.9636  3.4457
  401SOL    HW2 1203   1.755   0.093   1.321 -0.5553 -0.7705 -1.6435
  402SOL     OW 1204   1.305   0.148   3.085 -0.2266 -0.2801  0.1154
  402SOL    HW1 1205   1.393   0.127   3.039  0.2715  2.0447  0.4488
  402SOL    HW2 1206   1.278   0.247   3.081  0.8135 -0.2956  1.8763
  403SOL     OW 1207   2.293   1.756   0.969  0.2144  0.5869  0.5672
  403SOL    HW1 1208   2.393   1.775   0.986 -1.0751 -1.0735 -1.3599
  403SOL    HW2 1209   2.236   1.831   1.004  0.8110 -0.8555  1.9613
  404SOL     OW 1210   0.163   2.509   2.792 -0.1795 -0.7815 -0.0821
  404SOL    HW1 1211   0.263   2.476   2.790  0.9504 -0.4498  1.5696
  404SOL    HW2 1212   0.151   2.611   2.813  0.4938  2.4166  0.1445
  405SOL     OW 1213   0.138   2.433   0.727  0.0627  0.4619 -0.7581
  405SOL    HW1 1214   0.107   2.370   0.647 -0.5100  1.0286  3.1152
  405SOL    HW2 1215   0.188   2.519   0.689 -0.2682  0.6294 -2.9612
  406SOL     OW 1216   0.096   1.521   3.050  0.1959  0.0588 -0.6170
  406SOL    HW1 1217   0.162   1.491   2.980 -4.1682 -0.2053  0.4067
  406SOL    HW2 1218   0.144   1.523   3.147  2.2968 -0.5610  0.9996
  407SOL     OW 1219   1.523   0.934   1.009  0.2406 -0.9866  0.0952
  407SOL    HW1 1220   1.513   0.922   0.910  0.2334  0.5395  2.2952
  407SOL    HW2 1221   1.489   1.032   1.036  0.1377  0.7641 -1.2444
  408SOL     OW 1222   1.620   2.422   0.948 -0.1363  0.5592 -0.1656
  408SOL    HW1 1223   1.680   2.389   0.867  1.2325 -0.8302 -0.7848
  408SOL    HW2 1224   1.547   2.492   0.921  2.5279  2.3057  0.6403
  409SOL     OW 1225   0.608   0.828   0.740  0.4459 -0.5761  0.2798
  409SOL    HW1 1226   0.544   0.808   0.661 -3.1537 -0.8560  0.7682
  409SOL    HW2 1227   0.627   0.752   0.809  0.0364  1.8351  1.8424
  410SOL     OW 1228   1.317   2.060   1.406 -0.1766 -0.5822 -0.5713
  410SOL    HW1 1229   1.400   2.005   1.448  3.7591 -4.0712  0.1111
  410SOL    HW2 1230   1.240   1.998   1.376 -0.4943 -0.0249  1.9752
  411SOL     OW 1231   2.602   1.900   3.050  0.2735 -0.0906  0.4905
  411SOL    HW1 1232   2.502   1.919   3.032 -0.3488  0.3138 -0.1941
  411SOL    HW2 1233   2.648   1.842   2.980  0.4037  1.4324 -0.9672
  412SOL     OW 1234   1.468   2.466   2.167  0.2679  0.2999 -0.0256
  412SOL    HW1 1235   1.529   2.544   2.204  0.5933 -0.6183 -0.0213
  412SOL    HW2 1236   1.384   2.443   2.225  0.4343  3.0952  0.3830
  413SOL     OW 1237   3.038   0.216   2.935 -0.0631 -0.1753 -0.3586
  413SOL    HW1 1238   3.018   0.137   3.002 -0.5811 -2.0686 -1.5194
  413SOL    HW2 1239   3.137   0.251   2.932  1.6543  0.5389 -2.1465
  414SOL     OW 1240   1.876   1.522   1.192  0.8414  0.5239  0.2280
  414SOL    HW1 1241   1.834   1.611   1.211  4.8683  0.5635 -3.0931
  414SOL    HW2 1242   1.805   1.444   1.188  0.1810 -0.4511  1.2855
  415SOL     OW 1243   0.341   2.245   0.683 -0.4296 -0.0519  0.3701
  415SOL    HW1 1244   0.275   2.324   0.689  1.0371  1.5653 -0.3472
  415SOL    HW2 1245   0.335   2.174   0.756 -0.4970  2.0880 -2.2303
  416SOL     OW 1246   0.380   1.055   1.062  0.1070  0.9714 -0.1386
  416SOL    HW1 1247   0.352   1.014   0.971  0.2670  1.1110  3.5289
  416SOL    HW2 1248   0.478   1.092   1.064 -1.5238 -1.2987 -1.7265
  417SOL     OW 1249   2.232   2.319   2.020  0.0172 -0.4029  0.2060
  417SOL    HW1 1250   2.318   2.281   2.066  2.8400  0.8413 -1.1262
  417SOL    HW2 1251   2.159   2.250   2.017 -0.7066 -1.3426  1.0313
  418SOL     OW 1252   1.085   0.546   1.357 -0.1137  0.3079 -0.0492
  418SOL    HW1 1253   1.018   0.522   1.277  0.7015 -0.6619 -1.7308
  418SOL    HW2 1254   1.180   0.572   1.318  2.0930  1.0598  0.4761
  419SOL     OW 1255   0.935   0.490   3.004  0.2535  0.2529 -0.0975
  419SOL    HW1 1256   0.867   0.504   2.933  0.5572  0.4583 -0.6135
  419SOL    HW2 1257   0.986   0.574   3.029  3.7422 -0.5327 -2.2117
  420SOL     OW 1258   0.104   2.258   0.485  0.3035 -0.0642  0.7745
  420SOL    HW1 1259   0.121   2.258   0.385  0.7620  2.2323  0.3638
  420SOL    HW2 1260   0.044   2.178   0.512 -0.7063  1.0067 -0.5250
  421SOL     OW 1261   0.334   3.010   0.650 -0.4942 -0.1321 -0.1216
  421SOL    HW1 1262   0.359   2.919   0.691 -3.3534  0.9987 -1.2249
  421SOL    HW2 1263   0.406   3.079   0.669  0.1513 -0.8084 -0.8222
  422SOL     OW 1264   1.051   2.514   1.051 -0.4556  0.6107  0.4087
  422SOL    HW1 1265   1.109   2.564   0.980 -0.0404  1.3462  0.8073
  422SOL    HW2 1266   1.064   2.548   1.147  2.8619 -0.0761 -0.9025
  423SOL     OW 1267   0.113   0.692   1.298  0.6993  0.3081 -0.0361
  423SOL    HW1 1268   0.043   0.629   1.352 -2.6929 -1.8844  0.2395
  423SOL    HW2 1269   0.057   0.759   1.241  0.6352  1.5379 -1.4464
  424SOL     OW 1270   0.994   2.248   2.043  0.2870  0.8668  0.0588
  424SOL    HW1 1271   1.000   2.348   2.012  0.5561  0.9511  2.1641
  424SOL    HW2 1272   1.008   2.239   2.149  0.9819  0.2040  2.0364
  425SOL     OW 1273   2.004   1.322   1.002 -0.5425 -0.3701  0.3444
  425SOL    HW1 1274   2.064   1.246   1.043  2.1939 -0.8329  0.6853
  425SOL    HW2 1275   2.054   1.407   0.965 -0.9396 -0.7835  1.3863
  426SOL     OW 1276   1.486   1.584   1.369  0.3108 -0.1381 -0.6692
  426SOL    HW1 1277   1.463   1.652   1.297  0.8105  0.7993 -0.9318
  426SOL    HW2 1278   1.419   1.589   1.452  1.4821  3.6596 -2.1948
  427SOL     OW 1279   1.914   2.363   2.061  0.1602 -0.1071  0.0972
  427SOL    HW1 1280   1.967   2.284   2.097  1.8879 -0.9590  1.0481
  427SOL    HW2 1281   1.930   2.451   2.115  0.3534 -0.3412  0.0232
  428SOL     OW 1282   0.842   0.007   0.159  0.1867 -0.2824 -0.1259
  428SOL    HW1 1283   0.863   0.075   0.082  1.4590  0.7002  2.4708
  428SOL    HW2 1284   0.901  -0.074   0.161 -1.5655  2.6640 -0.3376
  429SOL     OW 1285   1.300   0.069   0.256 -0.2415  0.3484  0.1393
  429SOL    HW1 1286   1.396   0.089   0.290 -1.0998  1.8448 -0.3606
  429SOL    HW2 1287   1.293   0.065   0.152 -2.4096 -0.3248  0.7830
  430SOL     OW 1288   2.774   1.431   0.314  0.3605 -0.0686  0.3318
  430SOL    HW1 1289   2.800   1.480   0.231  2.9433  0.0975  1.0252
  430SOL    HW2 1290   2.790   1.486   0.404  1.9338 -0.4149  0.1001
  431SOL     OW 1291   2.112   1.561   0.869  0.2947  0.1850 -0.3195
  431SOL    HW1 1292   2.196   1.617   0.886  2.0478 -1.1374  0.0862
  431SOL    HW2 1293   2.061   1.597   0.786  0.7619 -0.8183  0.6883
  432SOL     OW 1294   2.861   2.240   1.231  0.1806  0.2451 -1.1153
  432SOL    HW1 1295   2.823   2.148   1.258  4.6815 -3.6296  0.8911
  432SOL    HW2 1296   2.914   2.291   1.305  2.6209 -1.4097 -0.4088
  433SOL     OW 1297   1.843   0.369   0.846 -0.4850 -0.0004 -0.3461
  433SOL    HW1 1298   1.747   0.354   0.868  0.3405  1.1385 -0.2635
  433SOL    HW2 1299   1.904   0.283   0.855  2.0622 -2.4956  1.8079
  434SOL     OW 1300   1.507   0.254   0.725 -0.2201  0.3952 -0.9242
  434SOL    HW1 1301   1.498   0.344   0.683  0.8120  0.1436 -0.6681
  434SOL    HW2 1302   1.530   0.262   0.826  0.8373  2.7148 -2.0833
  435SOL     OW 1303   1.461   1.492   2.081 -0.6378 -0.0535 -0.3666
  435SOL    HW1 1304   1.472   1.557   2.166 -0.2056  1.1180  0.4120
  435SOL    HW2 1305   1.498   1.535   1.993  2.7175  2.9437 -1.8324
  436SOL     OW 1306   1.710   2.730   2.245 -0.0082  0.1288  0.4324
  436SOL    HW1 1307   1.681   2.809   2.304  0.1586 -0.3766 -0.1632
  436SOL    HW2 1308   1.713   2.638   2.299 -2.4762 -0.3545  2.0283
  437SOL     OW 1309   1.111   2.953   0.960 -0.0201 -0.0499 -0.1012
  437SOL    HW1 1310   1.037   3.010   0.916  0.4361  1.6203  0.4543
  437SOL    HW2 1311   1.104   2.957   1.063 -2.3417  0.4861 -1.3163
  438SOL     OW 1312   0.996   2.591   1.307 -0.1298 -0.2071 -0.0709
  438SOL    HW1 1313   1.074   2.633   1.369  1.8658  1.2393 -0.9954
  438SOL    HW2 1314   0.993   2.488   1.307 -0.2450 -0.7177 -1.2231
  439SOL     OW 1315   0.676   1.771   1.086 -0.0691  0.0071  0.3673
  439SOL    HW1 1316   0.661   1.847   1.019  0.7828 -0.3357 -0.6764
  439SOL    HW2 1317   0.595   1.740   1.143  0.0493  1.7264  0.6417
  440SOL     OW 1318   1.009   2.497   1.949  0.0784 -0.6585 -0.0934
  440SOL    HW1 1319   0.984   2.521   1.849  1.6487  3.0148  0.0708
  440SOL    HW2 1320   1.114   2.521   1.958  1.8604  0.9507 -0.1252
  441SOL     OW 1321   0.510   2.733   1.434  0.4051  0.3073 -0.1019
  441SOL    HW1 1322   0.548   2.638   1.428 -0.4193  2.1128 -1.6601
  441SOL    HW2 1323   0.401   2.733   1.435 -2.0720 -1.7727  3.5698
  442SOL     OW 1324   2.273   0.704   2.503 -0.1696  0.2939  0.1883
  442SOL    HW1 1325   2.272   0.609   2.545  0.2303 -0.8720  1.4080
  442SOL    HW2 1326   2.196   0.720   2.432 -0.9574  1.8475  0.6515
  443SOL     OW 1327   1.240   2.712   2.144 -0.3564  0.4340 -0.3796
  443SOL    HW1 1328   1.205   2.778   2.221 -0.5764 -1.9455  1.3935
  443SOL    HW2 1329   1.287   2.629   2.173 -1.8684 -0.4413  0.7895
  444SOL     OW 1330   1.068   1.261   1.586  0.3121  0.1164  0.0281
  444SOL    HW1 1331   1.164   1.241   1.547  2.1372 -1.4687 -0.0034
  444SOL    HW2 1332   1.066   1.336   1.663  0.1363  1.2307  0.6804
  445SOL     OW 1333   0.014   2.356   1.865 -0.1616 -0.3334  0.2334
  445SOL    HW1 1334   0.021   2.456   1.845 -1.3403 -0.9122  2.2459
  445SOL    HW2 1335  -0.078   2.338   1.910  1.2610 -0.6750 -1.2681
  446SOL     OW 1336   0.225   1.919   2.313 -0.6958  0.5480  0.3631
  446SOL    HW1 1337   0.186   1.980   2.391  0.0335  0.5443  1.1399
  446SOL    HW2 1338   0.162   1.901   2.226  0.0116 -1.5232  0.0229
  447SOL     OW 1339   1.166   1.691   1.936 -0.0094  0.1798 -0.2369
  447SOL    HW1 1340   1.104   1.748   1.877 -0.7449  2.1729  2.5491
  447SOL    HW2 1341   1.235   1.752   1.986 -0.5789  0.8746  0.4128
  448SOL     OW 1342   0.170   1.548   2.035  0.0167  0.1902  0.1078
  448SOL    HW1 1343   0.145   1.630   1.973 -2.9833  1.3149  0.8062
  448SOL    HW2 1344   0.128   1.570   2.132 -1.2003 -0.2576 -1.6944
  449SOL     OW 1345   1.972   2.938   0.829  0.0831  0.5849 -0.2565
  449SOL    HW1 1346   2.047   2.970   0.896  0.6566 -2.0375  1.6866
  449SOL    HW2 1347   1.977   2.842   0.784  0.1399 -1.1808 -0.6373
  450SOL     OW 1348   2.346   1.347   0.749 -0.0040 -0.2286  0.5964
  450SOL    HW1 1349   2.276   1.272   0.778 -1.1632 -2.0883 -1.0205
  450SOL    HW2 1350   2.303   1.437   0.735 -1.1149 -0.7675 -0.8800
  451SOL     OW 1351   1.327   3.082   1.433  0.6096  0.7831 -0.0458
  451SOL    HW1 1352   1.264   3.162   1.453 -0.0470  1.5580 -0.4522
  451SOL    HW2 1353   1.366   3.043   1.518  0.0713  2.1002 -0.3828
  452SOL     OW 1354   2.679   2.289   2.173 -0.3927  0.1881  0.2987
  452SOL    HW1 1355   2.603   2.355   2.203 -0.1158  1.8648 -1.1151
  452SOL    HW2 1356   2.724   2.240   2.255 -1.1388 -2.2386  0.0581
  453SOL     OW 1357   2.451   2.664   3.057 -0.0878 -0.0053 -0.3965
  453SOL    HW1 1358   2.370   2.712   3.108 -0.4623 -0.5541 -1.0203
  453SOL    HW2 1359   2.419   2.597   2.979 -2.3850  0.8577 -1.1869
  454SOL     OW 1360   1.043   1.108   2.063  0.2152  0.1895  0.3277
  454SOL    HW1 1361   0.989   1.126   1.979  0.7414 -1.8769  0.2073
  454SOL    HW2 1362   1.115   1.180   2.068 -0.7170  0.2243 -2.1929
  455SOL     OW 1363   0.617   2.606   2.895 -0.2704  0.0793  0.1908
  455SOL    HW1 1364   0.687   2.650   2.959  3.7031 -0.2462 -0.3468
  455SOL    HW2 1365   0.599   2.507   2.917 -0.8624  1.2105 -0.6521
  456SOL     OW 1366   0.499   1.912   0.357  0.3945 -0.1519  0.9988
  456SOL    HW1 1367   0.578   1.886   0.417 -0.4238  1.5432 -0.8057
  456SOL    HW2 1368   0.507   2.010   0.333  1.0499  0.0436  0.4425
  457SOL     OW 1369   0.353   2.619   0.721  0.5102  0.3474  0.9112
  457SOL    HW1 1370   0.339   2.660   0.631 -2.6323  1.3970  0.9649
  457SOL    HW2 1371   0.433   2.659   0.773 -0.2718 -1.1475 -0.6979
  458SOL     OW 1372   2.954   0.006   1.207  0.0754 -0.1981 -0.1698
  458SOL    HW1 1373   3.011   0.093   1.197 -3.4751 -0.4111  0.8896
  458SOL    HW2 1374   2.944  -0.044   1.120  0.9855 -0.9285  1.5890
  459SOL     OW 1375   2.192   2.524   0.823  0.0421 -0.3889  0.0947
  459SOL    HW1 1376   2.232   2.618   0.854  0.3527 -1.5125  1.9009
  459SOL    HW2 1377   2.239   2.491   0.733  1.3557  1.2091 -1.8924
  460SOL     OW 1378   1.125   1.964   2.914  0.2916 -0.3793  0.5274
  460SOL    HW1 1379   1.179   2.009   2.836 -0.1553 -0.2222  1.2672
  460SOL    HW2 1380   1.189   1.899   2.973 -1.2915 -2.2211  0.9133
  461SOL     OW 1381   0.501   2.115   2.680 -0.1869  0.4451  0.2329
  461SOL    HW1 1382   0.440   2.036   2.649  0.1675 -0.9185  1.4844
  461SOL    HW2 1383   0.544   2.090   2.772 -1.4997  0.4090 -1.3661
  462SOL     OW 1384   0.920   1.123   1.827  0.0141  1.1094  0.1064
  462SOL    HW1 1385   1.006   1.079   1.779  0.8542  0.2694 -3.2072
  462SOL    HW2 1386   0.881   1.206   1.783 -1.1274 -2.0723 -0.4582
  463SOL     OW 1387   0.457   0.766   0.516 -0.2614 -0.2551  0.2382
  463SOL    HW1 1388   0.493   0.680   0.468  1.0413 -0.8254 -0.3399
  463SOL    HW2 1389   0.355   0.775   0.520  2.8144  2.4620  4.2489
  464SOL     OW 1390   0.580   2.235   2.273  0.2607 -0.5088  0.1734
  464SOL    HW1 1391   0.559   2.312   2.343 -3.9018 -1.3305  1.6093
  464SOL    HW2 1392   0.565   2.269   2.177  0.6981  0.2138 -1.2718
  465SOL     OW 1393   0.298   0.935   0.815 -0.4709  0.1453  0.0658
  465SOL    HW1 1394   0.205   0.958   0.775  0.5334 -1.4611  0.5027
  465SOL    HW2 1395   0.313   0.833   0.815 -0.8039 -2.6986  0.2235
  466SOL     OW 1396   1.359   1.161   1.136 -0.3746 -0.0521  1.1533
  466SOL    HW1 1397   1.407   1.243   1.184 -2.1753 -0.3466  2.2818
  466SOL    HW2 1398   1.267   1.189   1.104  2.8838  1.5689 -1.9940
  467SOL     OW 1399   0.492   0.306   2.354  0.1773  0.5256 -0.5235
  467SOL    HW1 1400   0.477   0.406   2.386  2.0603 -0.0688  0.9452
  467SOL    HW2 1401   0.482   0.232   2.429  0.6811  1.9156  0.8706
  468SOL     OW 1402   0.473   2.312   1.691 -0.2706 -0.0953  0.2551
  468SOL    HW1 1403   0.547   2.378   1.713  0.6679  0.0540  0.8826
  468SOL    HW2 1404   0.443   2.312   1.595 -0.4388  0.6626  1.2808
  469SOL     OW 1405   1.503   1.348   1.258 -0.1606  0.1927  0.7299
  469SOL    HW1 1406   1.598   1.316   1.236 -0.8253  2.0815 -1.5864
  469SOL    HW2 1407   1.494   1.442   1.313 -0.3070  1.8820  3.1991
  470SOL     OW 1408   3.039   1.681   0.785  0.2789  0.1961 -0.2751
  470SOL    HW1 1409   3.109   1.760   0.773 -2.1244  2.7061  0.0304
  470SOL    HW2 1410   2.950   1.707   0.830  0.7751 -0.7652 -3.3694
  471SOL     OW 1411   2.644   1.341   2.156 -0.1511  0.6392 -0.1741
  471SOL    HW1 1412   2.630   1.265   2.229  0.3966 -2.0110 -2.0569
  471SOL    HW2 1413   2.719   1.406   2.182 -1.0241  0.7455 -0.5835
  472SOL     OW 1414   1.139   2.495   3.060 -0.0462 -0.4869 -0.0901
  472SOL    HW1 1415   1.160   2.493   3.164  0.6492  0.4634  1.7998
  472SOL    HW2 1416   1.093   2.404   3.036 -2.2191 -0.3608 -0.1495
  473SOL     OW 1417   1.065   1.501   0.974 -0.2477  0.1050 -0.9224
  473SOL    HW1 1418   0.962   1.503   0.981  2.0574  0.6330 -1.2286
  473SOL    HW2 1419   1.108   1.490   1.069 -0.3450 -0.8539  3.0048
  474SOL     OW 1420   0.711   1.228   0.614  0.3901  0.0048  0.4834
  474SOL    HW1 1421   0.706   1.241   0.510  0.2606 -0.3488 -2.2562
  474SOL    HW2 1422   0.758   1.139   0.640 -0.6777 -1.7097  0.6654
  475SOL     OW 1423   2.825   0.163   0.774  0.0746  0.4144  0.4549
  475SOL    HW1 1424   2.908   0.169   0.837  2.3915  1.6564 -0.3305
  475SOL    HW2 1425   2.737   0.148   0.831 -1.7451 -0.6797  1.2213
  476SOL     OW 1426   0.863   2.965   1.771  0.4311  0.1832  0.1454
  476SOL    HW1 1427   0.940   2.945   1.834 -0.1720  0.6837  0.3018
  476SOL    HW2 1428   0.887   2.948   1.673  0.9808 -2.8574 -0.4307
  477SOL     OW 1429   1.438   0.340   2.493 -0.1605  0.1411  0.1529
  477SOL    HW1 1430   1.447   0.377   2.589 -1.2692  0.4238 -0.1060
  477SOL    HW2 1431   1.515   0.272   2.458  0.8558 -3.4520  0.9076
  478SOL     OW 1432   2.245   1.827   0.267 -0.0168  0.2551  0.1509
  478SOL    HW1 1433   2.172   1.754   0.258  2.2060 -0.2996 -0.2662
  478SOL    HW2 1434   2.337   1.810   0.214  2.7054  1.0532 -1.9274
  479SOL     OW 1435   1.298   1.090   2.941  0.1077 -0.4502  0.5013
  479SOL    HW1 1436   1.359   1.099   2.853  0.6679  2.8663 -2.5544
  479SOL    HW2 1437   1.204   1.095   2.904 -1.3057 -0.2589 -3.5624
  480SOL     OW 1438   2.509   2.326   0.386 -0.2356  0.0949  0.2198
  480SOL    HW1 1439   2.483   2.225   0.399  0.9067  1.1410 -1.6309
  480SOL    HW2 1440   2.470   2.375   0.303 -1.8226 -1.2752 -0.4804
  481SOL     OW 1441   1.024   1.148   0.836  0.3664  0.0582 -0.2761
  481SOL    HW1 1442   1.029   1.239   0.788  0.1671  1.4603  1.9862
  481SOL    HW2 1443   1.035   1.151   0.939 -2.3911 -0.7130 -0.6094
  482SOL     OW 1444   1.605   0.294   2.047 -0.2557  0.0930 -0.1817
  482SOL    HW1 1445   1.635   0.391   2.014  1.4613  0.5413 -0.7537
  482SOL    HW2 1446   1.681   0.246   2.088 -2.0910  0.8758 -1.2579
  483SOL     OW 1447   0.173   2.342   1.253  0.2303  0.7888  0.4129
  483SOL    HW1 1448   0.101   2.380   1.316 -0.0683  1.9569  0.0157
  483SOL    HW2 1449   0.159   2.375   1.158 -0.1672 -0.8662  0.6233
  484SOL     OW 1450   1.711   1.029   1.373 -0.6279 -1.1220 -0.1723
  484SOL    HW1 1451   1.780   0.950   1.377 -0.0138 -2.3115  0.1228
  484SOL    HW2 1452   1.731   1.098   1.448 -2.5375  1.2851 -0.3178
  485SOL     OW 1453   0.645   1.050   1.801  0.2898  0.3582 -0.3630
  485SOL    HW1 1454   0.652   1.019   1.707  2.1412  0.9133 -0.5151
  485SOL    HW2 1455   0.740   1.084   1.832  2.1495  1.7551 -1.7301
  486SOL     OW 1456   0.917   1.922   2.467  0.5839  0.0403 -0.5632
  486SOL    HW1 1457   0.950   1.860   2.541  2.3857 -0.4911  0.3540
  486SOL    HW2 1458   0.848   1.993   2.492  1.3121  1.8699 -1.9186
  487SOL     OW 1459   1.771   1.568   0.915 -1.1770 -0.1943 -0.2348
  487SOL    HW1 1460   1.818   1.538   1.001 -0.6466 -3.1003  1.0683
  487SOL    HW2 1461   1.836   1.610   0.842  0.8232 -0.2236  0.7540
  488SOL     OW 1462   2.940   0.873   2.250  0.4154  0.3023 -0.2000
  488SOL    HW1 1463   2.995   0.799   2.200  0.7515 -0.6090 -2.8811
  488SOL    HW2 1464   2.954   0.870   2.353  0.9986 -1.3655 -0.7758
  489SOL     OW 1465   2.788   0.252   1.309  0.2802 -0.1859  0.4004
  489SOL    HW1 1466   2.734   0.235   1.398 -0.8820 -1.1857  0.3921
  489SOL    HW2 1467   2.887   0.228   1.308  2.0873  1.1637  1.5454
  490SOL     OW 1468   1.444   2.906   2.795  0.0239  0.3129 -0.3478
  490SOL    HW1 1469   1.506   2.821   2.791 -2.6177 -1.2020  1.2380
  490SOL    HW2 1470   1.446   2.960   2.702 -0.8186  1.9639 -2.2833
  491SOL     OW 1471   1.799   1.473   2.626 -0.5170  0.0164  0.7735
  491SOL    HW1 1472   1.744   1.439   2.703 -0.3015 -1.5377  1.3083
  491SOL    HW2 1473   1.896   1.495   2.647 -1.9715 -1.2022 -1.7655
  492SOL     OW 1474   0.521   2.000   0.668  0.1694  0.1511  0.6776
  492SOL    HW1 1475   0.565   1.992   0.760 -1.0899  3.2424 -0.2292
  492SOL    HW2 1476   0.476   2.092   0.648  1.2696  0.7825  0.1475
  493SOL     OW 1477   0.405   1.403   2.064  0.5161  0.4669  0.1138
  493SOL    HW1 1478   0.315   1.454   2.067  2.7137 -1.6537 -0.9162
  493SOL    HW2 1479   0.418   1.338   2.144  1.0407 -2.0792 -1.7189
  494SOL     OW 1480   2.628   2.741   0.212 -0.1537 -0.6586 -0.3235
  494SOL    HW1 1481   2.638   2.661   0.276  0.8014  0.1557 -0.2589
  494SOL    HW2 1482   2.578   2.720   0.121  1.1363 -0.4861  0.4332
  495SOL     OW 1483   2.769   2.670   2.676 -0.4689  0.3258  0.2626
  495SOL    HW1 1484   2.701   2.598   2.648 -1.3089 -0.3289  1.0528
  495SOL    HW2 1485   2.794   2.735   2.600 -1.3682  1.4017  1.4365
  496SOL     OW 1486   2.031   2.209   0.711  0.3402 -0.4150  0.1978
  496SOL    HW1 1487   2.042   2.250   0.806 -2.3324 -1.6529  1.5629
  496SOL    HW2 1488   2.111   2.145   0.682  0.3215 -3.0682  0.0664
  497SOL     OW 1489   0.228   2.994   2.446 -0.5752 -0.0442 -0.7314
  497SOL    HW1 1490   0.213   3.059   2.526  2.1503  0.5751  1.3784
  497SOL    HW2 1491   0.250   3.034   2.354 -0.8230 -0.1905 -1.7985
  498SOL     OW 1492   1.231   1.429   1.212 -0.6086  0.1823 -0.3452
  498SOL    HW1 1493   1.325   1.400   1.247  0.1203  2.3301  0.1072
  498SOL    HW2 1494   1.184   1.496   1.272  2.7913  2.1847 -4.0331
  499SOL     OW 1495   0.716   1.861   0.509 -0.1707 -0.1283  0.1267
  499SOL    HW1 1496   0.740   1.768   0.550  0.2485  1.3704  0.8132
  499SOL    HW2 1497   0.674   1.925   0.575  0.4189 -1.2116  1.3376
  500SOL     OW 1498   1.473   2.957   1.637  0.2076  0.0269 -0.0075
  500SOL    HW1 1499   1.435   2.949   1.733  0.2793  3.2043  1.2500
  500SOL    HW2 1500   1.534   2.876   1.615 -0.0188  0.6747 -0.8342
  501SOL     OW 1501   0.850   1.112   2.285 -0.3478  0.2995  0.2362
  501SOL    HW1 1502   0.752   1.084   2.258 -0.3478 -0.8412 -0.1376
  501SOL    HW2 1503   0.926   1.059   2.236  3.0768 -0.9693  0.3915
  502SOL     OW 1504   2.637   0.956   1.760  0.0408  0.0774 -0.1253
  502SOL    HW1 1505   2.612   1.020   1.684  0.1768 -1.9817  1.6290
  502SOL    HW2 1506   2.576   0.869   1.758 -1.3432 -1.4119 -0.6512
  503SOL     OW 1507   1.269   0.128   0.662  0.6095  0.2964  0.4152
  503SOL    HW1 1508   1.198   0.207   0.652 -2.5572 -0.6769 -5.3720
  503SOL    HW2 1509   1.363   0.168   0.670  2.1253 -0.6356  2.6103
  504SOL     OW 1510   3.050   2.337   1.414  0.3551 -0.4474 -0.4566
  504SOL    HW1 1511   2.981   2.405   1.465 -1.9028 -0.0850  3.0890
  504SOL    HW2 1512   3.118   2.288   1.475 -1.5202 -2.2656 -2.4724
  505SOL     OW 1513   2.266   1.167   1.508  0.1330 -0.0897  0.5146
  505SOL    HW1 1514   2.287   1.222   1.422 -0.6078  1.1912 -1.5915
  505SOL    HW2 1515   2.313   1.211   1.594 -0.9380  1.6597  0.5402
  506SOL     OW 1516   1.989   0.173   1.777  0.1469  1.0820 -0.2242
  506SOL    HW1 1517   2.066   0.111   1.804  1.5136 -2.6960 -0.6589
  506SOL    HW2 1518   1.989   0.268   1.821  0.7859  1.2131  1.0727
  507SOL     OW 1519   0.536   0.688   2.164  0.0812 -0.4416  0.3648
  507SOL    HW1 1520   0.466   0.652   2.096 -4.2454 -1.3412  0.6669
  507SOL    HW2 1521   0.618   0.620   2.174  1.9186  1.6689  1.4579
  508SOL     OW 1522   0.263   1.650   0.882 -0.0372 -0.5788  0.4448
  508SOL    HW1 1523   0.328   1.715   0.832 -1.2225  0.2919 -3.0318
  508SOL    HW2 1524   0.208   1.689   0.963  0.3278 -1.6560 -0.0240
  509SOL     OW 1525   1.325   1.260   2.348  0.4625 -0.3466 -0.1875
  509SOL    HW1 1526   1.245   1.248   2.276 -2.4907 -0.8056  1.4574
  509SOL    HW2 1527   1.392   1.193   2.326 -0.2019  2.2006  0.5759
  510SOL     OW 1528   1.304   2.030   2.057  0.1013  0.0622  0.0605
  510SOL    HW1 1529   1.273   2.121   2.010 -2.5390  0.7351 -1.5966
  510SOL    HW2 1530   1.235   1.991   2.124  1.5247  0.1179 -2.5252
  511SOL     OW 1531   3.085   2.728   1.341 -0.0399 -0.3986  1.2634
  511SOL    HW1 1532   3.050   2.716   1.246  1.4947  3.0078  1.5733
  511SOL    HW2 1533   3.000   2.717   1.404 -2.4041  1.8199  1.1357
  512SOL     OW 1534   2.357   0.408   1.406  0.1119 -0.1242 -0.0131
  512SOL    HW1 1535   2.256   0.383   1.402  0.5012  0.6911  1.6174
  512SOL    HW2 1536   2.420   0.362   1.341 -1.0180  0.8984  0.6848
  513SOL     OW 1537   2.499   2.069   0.843 -0.6656  0.0561 -0.2502
  513SOL    HW1 1538   2.455   2.137   0.779  0.4555  0.3130 -0.2189
  513SOL    HW2 1539   2.580   2.024   0.788  0.1397  0.2366  2.4713
  514SOL     OW 1540   0.559   2.773   0.515  0.1877  0.2295  0.1996
  514SOL    HW1 1541   0.556   2.828   0.428  2.1254  0.6071  0.9593
  514SOL    HW2 1542   0.615   2.819   0.586  1.7728  0.3762 -0.5031
  515SOL     OW 1543   2.037   1.116   2.266  0.2858  0.3828 -0.3294
  515SOL    HW1 1544   1.986   1.104   2.176 -4.7073 -1.6448  2.3974
  515SOL    HW2 1545   1.967   1.100   2.340 -2.8570 -0.6437 -2.6678
  516SOL     OW 1546   0.282   0.267   1.912 -0.3091 -0.8344  0.2918
  516SOL    HW1 1547   0.334   0.272   1.827 -0.3088  1.3869 -0.8906
  516SOL    HW2 1548   0.188   0.233   1.895  0.9943  0.9203  0.4872
  517SOL     OW 1549   0.425   3.060   1.173  0.1389 -0.5331  0.2543
  517SOL    HW1 1550   0.458   3.153   1.176 -1.6960 -1.4139 -1.4413
  517SOL    HW2 1551   0.326   3.054   1.190 -0.0325  1.5135 -1.0520
  518SOL     OW 1552   2.211   0.012   1.794 -0.4365 -0.7827 -0.6749
  518SOL    HW1 1553   2.267   0.101   1.808 -0.3528  0.8114 -0.3762
  518SOL    HW2 1554   2.207  -0.022   1.697 -0.6643  0.2423 -2.6445
  519SOL     OW 1555   2.358   2.232   2.588 -0.2123  0.3421  0.0194
  519SOL    HW1 1556   2.275   2.225   2.655 -2.1743 -1.5948 -0.6260
  519SOL    HW2 1557   2.396   2.330   2.585  0.6176  1.8864 -0.9659
  520SOL     OW 1558   1.767   2.859   1.871 -0.3823  0.7358  0.3009
  520SOL    HW1 1559   1.671   2.827   1.907 -2.8504  1.3909 -1.1677
  520SOL    HW2 1560   1.833   2.779   1.852 -1.2107 -0.7981  0.3116
  521SOL     OW 1561   0.569   0.013   2.155 -0.1678 -0.5866  0.0771
  521SOL    HW1 1562   0.481  -0.021   2.192 -0.1980  1.0899  0.4083
  521SOL    HW2 1563   0.634   0.024   2.235 -0.4263 -1.1044  0.7525
  522SOL     OW 1564   0.209   1.910   1.438 -0.1123 -0.5593 -0.3640
  522SOL    HW1 1565   0.237   1.971   1.517 -1.7638  0.3797  0.1960
  522SOL    HW2 1566   0.175   1.966   1.357 -0.8911  0.6893  0.0820
  523SOL     OW 1567   2.268   2.981   1.539  0.2134 -0.4856  0.0921
  523SOL    HW1 1568   2.332   2.907   1.573 -1.4166  1.3068  0.9252
  523SOL    HW2 1569   2.188   2.938   1.479 -1.6295  0.2373  1.3175
  524SOL     OW 1570   0.168   2.777   2.807 -0.1695 -0.5090 -0.2931
  524SOL    HW1 1571   0.129   2.866   2.843  1.2625  1.8224  0.2468
  524SOL    HW2 1572   0.270   2.786   2.803  0.6361  3.3367  0.0602
  525SOL     OW 1573   2.145   1.992   0.465 -0.0169 -0.4404 -0.0703
  525SOL    HW1 1574   2.147   1.919   0.538 -1.3677 -2.1990 -1.9961
  525SOL    HW2 1575   2.143   1.953   0.369  1.4025 -1.9054 -1.1603
  526SOL     OW 1576   0.402   1.557   1.682 -0.2646 -0.0969 -0.1392
  526SOL    HW1 1577   0.330   1.498   1.731 -0.4476 -0.8843 -1.1421
  526SOL    HW2 1578   0.479   1.502   1.647 -1.9603 -1.6734  1.4680
  527SOL     OW 1579   1.102   2.963   1.232  0.1772  0.4931  0.3993
  527SOL    HW1 1580   1.189   2.909   1.227  1.3278  1.9590  0.8185
  527SOL    HW2 1581   1.119   3.066   1.241 -1.8699  0.5128  0.1305
  528SOL     OW 1582   1.339   2.427   0.503 -0.0161 -0.0639 -0.5135
  528SOL    HW1 1583   1.384   2.332   0.501 -1.4376  1.6270 -1.2375
  528SOL    HW2 1584   1.388   2.490   0.572  0.4196 -0.4548 -0.5453
  529SOL     OW 1585   1.934   1.748   0.734 -0.2652  0.0967 -0.2104
  529SOL    HW1 1586   1.875   1.776   0.654  0.3835 -1.6074  1.1137
  529SOL    HW2 1587   1.928   1.820   0.815  0.2031  0.7456  1.1132
  530SOL     OW 1588   0.297   2.556   0.310 -0.2413 -0.6161 -0.2211
  530SOL    HW1 1589   0.270   2.630   0.383  0.0039 -1.6462 -0.0726
  530SOL    HW2 1590   0.347   2.482   0.363 -0.7666  0.3462  2.8440
  531SOL     OW 1591   1.801   1.008   0.976  0.1537  0.0953  0.1235
  531SOL    HW1 1592   1.800   1.106   0.944 -0.5573  2.8709 -0.6382
  531SOL    HW2 1593   1.711   0.982   1.019  0.4572 -1.3187 -1.3437
  532SOL     OW 1594   0.493   1.120   0.752  0.6350 -0.4275  0.1775
  532SOL    HW1 1595   0.548   1.126   0.665  0.9025 -1.5582  2.0610
  532SOL    HW2 1596   0.422   1.039   0.757  0.0169 -2.5305 -1.5186
  533SOL     OW 1597   1.750   0.040   2.599 -0.1070  0.2515 -0.5374
  533SOL    HW1 1598   1.841   0.013   2.637 -2.3424 -0.9265 -1.3691
  533SOL    HW2 1599   1.690   0.095   2.661  0.9803  0.7154 -0.3119
  534SOL     OW 1600   0.311   0.235   1.633 -0.2783 -0.7221  0.1628
  534SOL    HW1 1601   0.401   0.229   1.573  0.5716  0.2274 -1.7728
  534SOL    HW2 1602   0.264   0.332   1.625  0.5586  1.5075  0.2741
  535SOL     OW 1603   1.952   0.342   0.122 -0.1280 -0.1097  0.4684
  535SOL    HW1 1604   1.925   0.420   0.182 -1.1856 -1.8072 -1.1380
  535SOL    HW2 1605   1.933   0.253   0.165  1.4484  3.8160 -1.4911
  536SOL     OW 1606   1.408   2.607   0.925  0.0137  0.1554  0.0404
  536SOL    HW1 1607   1.396   2.597   1.030 -0.3668  0.7311 -0.2713
  536SOL    HW2 1608   1.317   2.628   0.873 -1.7196  1.0050 -1.8502
  537SOL     OW 1609   0.834   0.262   2.412  0.0352  0.1772 -0.2022
  537SOL    HW1 1610   0.822   0.323   2.330  0.6353 -0.0501 -1.6669
  537SOL    HW2 1611   0.793   0.167   2.397  2.9857 -0.9010  2.7207
  538SOL     OW 1612   1.636   2.351   1.519  0.7249 -0.6015 -0.7310
  538SOL    HW1 1613   1.637   2.247   1.497  2.3313 -1.9727 -1.7710
  538SOL    HW2 1614   1.722   2.393   1.476  1.1067  1.8836 -1.3513
  539SOL     OW 1615   0.169   1.646   2.696 -0.0770 -0.2296 -0.0263
  539SOL    HW1 1616   0.077   1.640   2.648 -0.6606  1.0571  2.6621
  539SOL    HW2 1617   0.173   1.722   2.767 -2.4585 -0.2229 -1.9433
  540SOL     OW 1618   2.680   1.757   1.931  0.3384  0.3355 -0.4695
  540SOL    HW1 1619   2.618   1.687   1.981 -1.9272 -2.6163 -0.1045
  540SOL    HW2 1620   2.626   1.849   1.928  2.2851  2.4167 -0.6412
  541SOL     OW 1621   0.479   2.200   0.012  0.7476 -0.0919  0.0175
  541SOL    HW1 1622   0.508   2.171   0.106  0.2135  0.4629 -1.7795
  541SOL    HW2 1623   0.383   2.163  -0.013  1.8170  1.9539 -1.8771
  542SOL     OW 1624   2.231   2.572   0.426 -0.0383 -0.3133 -0.2222
  542SOL    HW1 1625   2.179   2.645   0.376 -0.5860 -0.1046 -0.2125
  542SOL    HW2 1626   2.167   2.496   0.451  1.2583 -0.0756  0.3188
  543SOL     OW 1627   1.116   1.833   1.572  0.3379 -0.0888 -0.5736
  543SOL    HW1 1628   1.064   1.863   1.658 -2.7627 -3.1297  0.6787
  543SOL    HW2 1629   1.108   1.900   1.496  0.5155  0.7335  3.0868
  544SOL     OW 1630   1.098   0.453   0.172 -0.1379  0.0114 -0.3215
  544SOL    HW1 1631   1.074   0.394   0.252  1.5911  0.0200 -4.1919
  544SOL    HW2 1632   1.117   0.399   0.088  0.3908  1.9147  0.4342
  545SOL     OW 1633   1.118   1.735   0.804 -0.0344 -0.2585  0.0891
  545SOL    HW1 1634   1.214   1.743   0.761  0.6966 -0.8762 -2.2198
  545SOL    HW2 1635   1.102   1.648   0.864  0.9010 -1.1948  1.3177
  546SOL     OW 1636   2.648   1.532   3.031  0.2551 -0.1168 -0.0553
  546SOL    HW1 1637   2.659   1.603   2.957 -0.9550  2.5427  1.6032
  546SOL    HW2 1638   2.549   1.522   3.067 -2.0225  1.2599  0.7583
  547SOL     OW 1639   0.612   3.005   2.622  0.2290 -0.1539 -0.3635
  547SOL    HW1 1640   0.709   3.007   2.659 -1.0345 -0.4254 -0.5613
  547SOL    HW2 1641   0.551   2.923   2.660  0.9112 -1.5198 -1.1907
  548SOL     OW 1642   2.083   0.891   2.981  0.2733 -0.6503  0.3153
  548SOL    HW1 1643   1.989   0.853   2.996  1.5755  1.3732 -0.6906
  548SOL    HW2 1644   2.088   0.982   3.023  0.1267 -1.7826  1.0436
  549SOL     OW 1645   0.691   0.532   0.167 -0.7774  0.0797  0.0004
  549SOL    HW1 1646   0.630   0.585   0.096  1.2399  1.6866  2.8838
  549SOL    HW2 1647   0.781   0.583   0.194  3.7725  1.6479 -3.9717
  550SOL     OW 1648   2.621   2.807   2.882  0.2841 -0.1138  0.0423
  550SOL    HW1 1649   2.567   2.745   2.942  0.8755 -1.7586 -0.5710
  550SOL    HW2 1650   2.655   2.766   2.793 -2.4175 -0.2293  2.1195
  551SOL     OW 1651   0.286   0.850   0.227  0.4030  0.0660  0.0572
  551SOL    HW1 1652   0.388   0.867   0.236 -0.5551  0.5579  0.7000
  551SOL    HW2 1653   0.251   0.827   0.321  1.3384  1.4214 -1.2089
  552SOL     OW 1654   0.613   2.967   1.892 -0.3541  0.1604  0.0690
  552SOL    HW1 1655   0.596   3.016   1.983 -0.9705  0.6670  0.1921
  552SOL    HW2 1656   0.717   2.969   1.869  2.9312 -1.8217 -1.3104
  553SOL     OW 1657   2.914   2.473   0.364 -0.4028 -0.6320 -0.1987
  553SOL    HW1 1658   2.876   2.379   0.371 -0.1854 -0.7599 -1.3226
  553SOL    HW2 1659   2.851   2.535   0.422 -0.8906  1.8908  2.3253
  554SOL     OW 1660   2.158   0.369   0.538  0.1201  0.0280 -0.2802
  554SOL    HW1 1661   2.232   0.392   0.466 -1.3200 -0.8783 -0.0121
  554SOL    HW2 1662   2.168   0.277   0.592 -1.6673 -1.9600  1.0026
  555SOL     OW 1663   0.381   2.784   2.506 -0.2139 -0.2151  0.5643
  555SOL    HW1 1664   0.312   2.861   2.502  0.0152  1.3959 -0.0947
  555SOL    HW2 1665   0.432   2.765   2.411  1.5799 -1.4210 -1.1676
  556SOL     OW 1666   0.866   2.361   1.549  0.0424 -0.0343  0.1006
  556SOL    HW1 1667   0.920   2.432   1.598 -1.3161 -0.7113  1.8819
  556SOL    HW2 1668   0.919   2.325   1.464 -0.1374 -0.1240  0.2799
  557SOL     OW 1669   0.151   2.070   0.219 -0.1293 -0.4482 -0.0277
  557SOL    HW1 1670   0.100   1.989   0.193  0.4165  0.0922 -0.2649
  557SOL    HW2 1671   0.213   2.104   0.147 -0.4579 -1.5002 -0.5459
  558SOL     OW 1672   2.779   2.240   0.408  0.2200 -0.4749  0.3280
  558SOL    HW1 1673   2.684   2.268   0.381 -1.3586 -0.5645 -1.9404
  558SOL    HW2 1674   2.805   2.148   0.374  0.7864 -1.6762  3.3789
  559SOL     OW 1675   0.398   2.316   1.416  0.4538  0.5116 -0.0847
  559SOL    HW1 1676   0.320   2.340   1.352 -0.3457 -0.3766  1.6201
  559SOL    HW2 1677   0.431   2.219   1.399  0.2170 -1.4645 -1.0094
  560SOL     OW 1678   2.112   1.162   3.069  0.4554 -0.8525  0.2840
  560SOL    HW1 1679   2.144   1.140   3.167 -1.5530  1.5553  1.7186
  560SOL    HW2 1680   2.189   1.174   3.000 -1.9953 -0.5115  0.7442
  561SOL     OW 1681   3.087   1.846   0.009  0.5011  0.0350 -0.3158
  561SOL    HW1 1682   3.060   1.793   0.093  1.6961  1.2102  1.0102
  561SOL    HW2 1683   3.052   1.942  -0.002  2.1444  0.6315 -0.9546
  562SOL     OW 1684   0.980   2.172   2.301  0.5383 -0.4731 -0.7706
  562SOL    HW1 1685   0.983   2.242   2.374 -0.1093 -0.8553  1.6466
  562SOL    HW2 1686   0.940   2.078   2.338 -0.8549 -0.1910  2.4483
  563SOL     OW 1687   0.698   2.596   2.607 -0.0318 -0.6091  0.3630
  563SOL    HW1 1688   0.787   2.546   2.621 -0.6582  0.0441  1.5140
  563SOL    HW2 1689   0.644   2.603   2.694  1.5617  0.4811 -0.7283
  564SOL     OW 1690   2.818   1.340   2.892  0.3618  0.3367  0.1371
  564SOL    HW1 1691   2.732   1.377   2.945 -1.4311  1.9809 -0.7228
  564SOL    HW2 1692   2.873   1.416   2.851 -1.0292  0.0880  0.8867
  565SOL     OW 1693   2.536   2.029   2.656 -0.3140 -0.5498 -0.0915
  565SOL    HW1 1694   2.496   2.123   2.635 -3.2800 -0.7636  0.8107
  565SOL    HW2 1695   2.621   2.041   2.720  1.5663 -1.3131  1.2010
  566SOL     OW 1696   2.037   2.840   1.442 -0.7959  0.3388  0.4220
  566SOL    HW1 1697   1.985   2.751   1.452 -0.6992  0.7403  0.6955
  566SOL    HW2 1698   2.012   2.887   1.353 -0.2656  1.1499 -2.3887
  567SOL     OW 1699   2.407   3.036   2.359 -0.2661 -0.0320 -0.4111
  567SOL    HW1 1700   2.326   3.086   2.404  0.5294  1.7779  2.2010
  567SOL    HW2 1701   2.395   3.023   2.259 -0.8434 -2.1592 -0.6867
  568SOL     OW 1702   1.533   1.764   0.219 -0.1944  0.1420  0.2322
  568SOL    HW1 1703   1.514   1.864   0.203  0.0219  1.2545  2.2425
  568SOL    HW2 1704   1.635   1.749   0.235  0.0909  0.9746  2.4808
  569SOL     OW 1705   0.257   0.634   0.790 -0.0885 -0.4672 -0.6134
  569SOL    HW1 1706   0.303   0.558   0.744 -3.5764  2.3222  0.3664
  569SOL    HW2 1707   0.156   0.615   0.791 -0.9963  2.9715 -3.3850
  570SOL     OW 1708   0.650   0.821   2.927 -0.0529  0.0215 -0.5876
  570SOL    HW1 1709   0.733   0.810   2.870  0.7046  0.2824  2.8188
  570SOL    HW2 1710   0.653   0.909   2.987 -0.8881  1.4745  0.9264
  571SOL     OW 1711   0.759   3.091   1.071  0.4143 -0.3555  0.0573
  571SOL    HW1 1712   0.807   3.125   0.982 -1.1901 -2.4030 -1.5108
  571SOL    HW2 1713   0.780   2.988   1.090  0.0717 -0.3425 -2.2473
  572SOL     OW 1714   1.630   2.662   1.330  0.0075  0.5981  0.1556
  572SOL    HW1 1715   1.567   2.629   1.254  0.4657 -0.0109 -1.8828
  572SOL    HW2 1716   1.646   2.762   1.320 -1.3520 -2.4045 -0.9966
  573SOL     OW 1717   2.927   0.486   2.035  0.4054  0.0033  0.2426
  573SOL    HW1 1718   2.851   0.412   2.054 -0.3060 -2.0891 -0.8346
  573SOL    HW2 1719   2.934   0.512   1.937  0.3446  0.6949 -0.9635
  574SOL     OW 1720   0.146   1.748   1.123  0.0500 -0.2854  0.1043
  574SOL    HW1 1721   0.226   1.804   1.162  0.2340 -0.5752  1.6072
  574SOL    HW2 1722   0.062   1.811   1.100 -1.4021 -0.5415 -0.5211
  575SOL     OW 1723   0.806   2.212   0.931 -0.1176 -0.6185  0.0330
  575SOL    HW1 1724   0.762   2.236   1.022 -2.3124  1.2113 -1.8002
  575SOL    HW2 1725   0.841   2.297   0.875 -0.0722 -0.3624  1.1382
  576SOL     OW 1726   2.855   2.985   1.667  0.2215 -0.1706  0.0246
  576SOL    HW1 1727   2.749   2.996   1.689 -1.7160  0.3236 -1.6749
  576SOL    HW2 1728   2.909   3.077   1.665  0.9327 -0.1772 -2.3552
  577SOL     OW 1729   2.543   1.166   0.001  0.9312  0.1065  0.0287
  577SOL    HW1 1730   2.576   1.092  -0.068 -2.6000 -1.3290  0.4622
  577SOL    HW2 1731   2.603   1.184   0.087  1.7579 -0.6370  0.3965
  578SOL     OW 1732   1.422   2.749   2.456 -0.5713  0.6599 -0.0696
  578SOL    HW1 1733   1.331   2.789   2.477  2.3373  0.7445  0.9434
  578SOL    HW2 1734   1.497   2.822   2.450 -1.0789  1.1750 -1.1688
  579SOL     OW 1735   0.047   2.481   0.189  0.0068 -0.2134  0.4788
  579SOL    HW1 1736  -0.038   2.475   0.251 -1.0126 -2.2733 -0.7950
  579SOL    HW2 1737   0.136   2.479   0.239 -0.5065  0.4073  2.4554
  580SOL     OW 1738   0.972   2.667   0.341 -0.0879 -0.0517  0.1725
  580SOL    HW1 1739   1.061   2.655   0.295 -3.9631 -1.7844  1.3414
  580SOL    HW2 1740   0.906   2.591   0.309 -1.7715 -1.2051  0.7503
  581SOL     OW 1741   1.214   2.668   1.469  0.1985  0.1088  0.2785
  581SOL    HW1 1742   1.272   2.587   1.505  3.0504  1.4982 -0.7368
  581SOL    HW2 1743   1.264   2.740   1.415 -0.7258 -0.6646  0.8804
  582SOL     OW 1744   1.490   0.102   1.870 -0.3240  0.0191  0.6146
  582SOL    HW1 1745   1.522   0.185   1.923  0.1664  1.7110 -2.2324
  582SOL    HW2 1746   1.556   0.077   1.796  1.8039  2.5209  1.1537
  583SOL     OW 1747   2.425   3.076   0.506  0.0229  0.0646  0.3870
  583SOL    HW1 1748   2.494   3.014   0.461  0.1714 -3.5443  1.0923
  583SOL    HW2 1749   2.342   3.013   0.530 -2.0729  0.0996 -0.6223
  584SOL     OW 1750   1.552   1.096   2.247 -0.1631 -0.2153  0.5036
  584SOL    HW1 1751   1.637   1.159   2.237  2.2516 -1.3499  0.2329
  584SOL    HW2 1752   1.590   0.998   2.249 -1.8340  1.2699  1.5069
  585SOL     OW 1753   2.117   2.677   2.901 -0.0024 -0.5779 -0.4516
  585SOL    HW1 1754   2.123   2.578   2.925 -2.1947  3.1665  0.8080
  585SOL    HW2 1755   2.024   2.718   2.919 -0.7069  0.4951 -0.2575
  586SOL     OW 1756   2.839   0.351   1.591  0.3950 -0.2848 -0.9394
  586SOL    HW1 1757   2.858   0.424   1.664 -1.3051  2.0374  1.5406
  586SOL    HW2 1758   2.737   0.336   1.571  0.8093  1.5644  1.0342
  587SOL     OW 1759   2.080   1.499   2.647  0.0549 -0.2437 -0.2703
  587SOL    HW1 1760   2.135   1.426   2.601 -1.2538 -0.4716 -1.3831
  587SOL    HW2 1761   2.112   1.526   2.741 -0.6926  1.2535 -0.5627
  588SOL     OW 1762   0.459   2.686   2.238  0.3096  0.1754  0.7080
  588SOL    HW1 1763   0.419   2.680   2.142  0.3952 -1.4644 -2.4095
  588SOL    HW2 1764   0.491   2.597   2.278 -0.2240  1.5498 -1.4121
  589SOL     OW 1765   2.182   1.322   2.476 -0.0983 -0.3449 -0.0915
  589SOL    HW1 1766   2.146   1.252   2.406 -0.1661  0.1239  1.5766
  589SOL    HW2 1767   2.287   1.315   2.487  1.0405  1.7269  0.7312
  590SOL     OW 1768   2.294   1.775   2.025  0.1509 -0.2405  0.0169
  590SOL    HW1 1769   2.373   1.712   2.013 -0.7822  0.6673  1.3189
  590SOL    HW2 1770   2.302   1.797   2.126 -1.4890 -1.2562 -0.6425
  591SOL     OW 1771   1.267   2.417   0.248 -0.0035 -0.1529  0.1099
  591SOL    HW1 1772   1.282   2.338   0.187  0.2965 -0.3154 -1.2328
  591SOL    HW2 1773   1.284   2.398   0.353  1.7350  0.1514  2.3347
  592SOL     OW 1774   1.767   2.327   0.756 -0.0453  0.3239  0.3169
  592SOL    HW1 1775   1.710   2.365   0.676 -2.0002 -0.1011 -1.2905
  592SOL    HW2 1776   1.859   2.294   0.725 -1.4428  2.2545  1.1679
  593SOL     OW 1777   0.704   0.266   0.219 -0.1104  0.9750  0.1874
  593SOL    HW1 1778   0.755   0.218   0.143 -2.1829 -0.1468 -0.1535
  593SOL    HW2 1779   0.693   0.367   0.193 -0.0836 -1.7229  3.1462
  594SOL     OW 1780   1.032   1.811   2.684  0.3976 -0.1721  0.4358
  594SOL    HW1 1781   1.108   1.759   2.634 -3.1819 -1.0819  0.4184
  594SOL    HW2 1782   1.058   1.865   2.767 -2.6786 -1.2025  0.9858
  595SOL     OW 1783   1.541   0.093   1.012  0.2512 -0.1244  0.4523
  595SOL    HW1 1784   1.621   0.038   0.972  1.0599 -0.1405 -0.8451
  595SOL    HW2 1785   1.448   0.057   0.983 -0.1514 -1.8744 -0.5148
  596SOL     OW 1786   0.047   1.570   2.283 -0.0184 -0.3746  0.4853
  596SOL    HW1 1787   0.093   1.492   2.331 -1.3911 -0.0384 -1.3619
  596SOL    HW2 1788   0.007   1.644   2.349 -1.4111  0.2854 -1.8773
  597SOL     OW 1789   1.923   2.644   1.801 -0.0354  0.2961 -0.2631
  597SOL    HW1 1790   1.873   2.648   1.714 -0.2474 -0.0442  1.6573
  597SOL    HW2 1791   1.998   2.574   1.794  0.2678  1.4684  2.0730
  598SOL     OW 1792   2.531   2.915   1.237  0.2467 -0.0667  0.0720
  598SOL    HW1 1793   2.620   2.922   1.293  1.4125  0.5738 -1.0155
  598SOL    HW2 1794   2.540   2.864   1.146 -0.5588 -1.4917  2.0987
  599SOL     OW 1795   2.898   0.309   2.455 -0.2957  0.1125  0.2258
  599SOL    HW1 1796   2.983   0.317   2.400  0.6769 -4.2279  1.8292
  599SOL    HW2 1797   2.822   0.365   2.417  1.7201  0.4637 -1.2262
  600SOL     OW 1798   2.806   1.109   2.730  0.0565  0.4829 -0.2264
  600SOL    HW1 1799   2.706   1.087   2.706  1.5765  0.2537  0.3015
  600SOL    HW2 1800   2.822   1.185   2.799 -0.3648  0.0330 -0.1552
  601SOL     OW 1801   3.066   1.328   2.000  0.3449  0.4593  0.2547
  601SOL    HW1 1802   3.015   1.381   1.923 -2.2943  2.3030  1.6093
  601SOL    HW2 1803   3.097   1.389   2.074 -1.0177 -1.1057  0.2538
  602SOL     OW 1804   1.448   1.696   2.318 -0.2661 -0.2203  0.2482
  602SOL    HW1 1805   1.365   1.653   2.364  1.5583  0.9543  1.5476
  602SOL    HW2 1806   1.542   1.653   2.346  1.9678  0.8003  0.3113
  603SOL     OW 1807   0.640   1.182   2.791  1.2498 -0.4740 -0.2233
  603SOL    HW1 1808   0.566   1.191   2.720  0.5086 -2.8530 -0.4163
  603SOL    HW2 1809   0.713   1.116   2.767 -2.0180 -1.4317 -2.4654
  604SOL     OW 1810   2.427   1.006   0.182  0.5285 -0.2080 -0.2356
  604SOL    HW1 1811   2.462   1.075   0.115 -0.6730 -1.0970  0.1334
  604SOL    HW2 1812   2.425   0.909   0.146 -0.2104 -1.5058  1.1717
  605SOL     OW 1813   2.513   1.157   1.940 -0.2496  0.2921  0.8280
  605SOL    HW1 1814   2.569   1.081   1.899  0.1017  2.6329  0.8812
  605SOL    HW2 1815   2.564   1.208   2.020  0.3125  1.3085  0.2620
  606SOL     OW 1816   1.534   2.489   2.586  0.2446  0.6658 -0.4707
  606SOL    HW1 1817   1.481   2.569   2.543 -0.1001  3.2941  0.5461
  606SOL    HW2 1818   1.501   2.392   2.560  2.0567  1.1904 -4.2260
  607SOL     OW 1819   1.330   1.593   0.313  0.3554  0.6269  0.2398
  607SOL    HW1 1820   1.258   1.666   0.335 -1.1913  0.9494 -1.5764
  607SOL    HW2 1821   1.413   1.635   0.276  0.1784  0.6496 -0.9301
  608SOL     OW 1822   1.461   2.824   0.397 -0.0733 -0.4522 -0.4853
  608SOL    HW1 1823   1.504   2.865   0.312 -0.6094 -1.1801 -1.8200
  608SOL    HW2 1824   1.397   2.896   0.440  1.8654  2.0941  1.4463
  609SOL     OW 1825   1.266   1.326   0.251 -0.1493 -0.3828 -0.6877
  609SOL    HW1 1826   1.278   1.428   0.261 -0.5547  2.0597  0.1003
  609SOL    HW2 1827   1.221   1.304   0.159  0.6522  0.5417  0.4308
  610SOL     OW 1828   2.959   1.145   2.215  0.1991 -0.0997 -0.1108
  610SOL    HW1 1829   2.974   1.042   2.212  0.4303  0.3532  0.1681
  610SOL    HW2 1830   2.944   1.185   2.121 -1.1171  0.3365 -0.7045
  611SOL     OW 1831   2.530   0.273   1.182 -0.3414 -0.0474 -0.2214
  611SOL    HW1 1832   2.485   0.178   1.178  0.7424  0.2775  1.5612
  611SOL    HW2 1833   2.636   0.270   1.181  0.8960 -0.5924  0.6816
  612SOL     OW 1834   0.718   2.290   1.180 -0.5107  0.2659  0.1377
  612SOL    HW1 1835   0.657   2.241   1.250  0.1138  3.3579 -2.9469
  612SOL    HW2 1836   0.684   2.385   1.154 -2.1881  0.0696 -0.2155
  613SOL     OW 1837   0.808   1.385   2.389  0.5759  0.1989 -0.1809
  613SOL    HW1 1838   0.810   1.457   2.316  2.0786 -0.8502 -0.5828
  613SOL    HW2 1839   0.817   1.289   2.359  1.0623  0.2012 -0.6721
  614SOL     OW 1840   1.582   1.677   1.917 -0.0171 -0.4397 -1.0904
  614SOL    HW1 1841   1.522   1.755   1.887  0.7472  1.5939 -1.4517
  614SOL    HW2 1842   1.658   1.712   1.975 -1.5794  0.4846 -0.0734
  615SOL     OW 1843   0.803   1.343   1.732  0.4456  0.4168  0.2573
  615SOL    HW1 1844   0.709   1.350   1.685 -2.8210  2.4909 -0.5220
  615SOL    HW2 1845   0.868   1.416   1.689  1.4022 -1.9275 -1.5840
  616SOL     OW 1846   1.096   1.585   2.180  0.2567 -0.1861 -0.1248
  616SOL    HW1 1847   0.991   1.576   2.188  2.4302 -0.9993  1.2994
  616SOL    HW2 1848   1.120   1.610   2.084 -1.2514  1.2368  2.4287
  617SOL     OW 1849   2.977   1.537   1.596  0.0995  0.0318  0.5204
  617SOL    HW1 1850   2.959   1.512   1.692 -0.5735  3.1400 -0.8961
  617SOL    HW2 1851   2.977   1.459   1.527  3.0222 -0.9085 -0.9882
  618SOL     OW 1852   1.929   2.022   1.439  0.5252  0.5224  0.5158
  618SOL    HW1 1853   2.020   2.026   1.389  2.1475 -0.4667  1.2694
  618SOL    HW2 1854   1.891   1.925   1.446  0.3541 -1.4807  1.6346
  619SOL     OW 1855   1.730   0.481   2.398 -0.6807 -0.5641  0.2955
  619SOL    HW1 1856   1.654   0.537   2.345 -0.8969  1.4506 -1.1242
  619SOL    HW2 1857   1.707   0.385   2.434 -1.2849  0.7907  0.7184
  620SOL     OW 1858   2.204   2.942   0.608  0.3753 -0.4075  0.1141
  620SOL    HW1 1859   2.106   2.935   0.627 -0.3385 -0.8690 -1.5402
  620SOL    HW2 1860   2.266   2.897   0.684 -0.5229  0.0600 -0.3381
  621SOL     OW 1861   2.150   1.862   1.291  0.5525 -0.1888  0.3400
  621SOL    HW1 1862   2.160   1.858   1.392 -0.6073 -1.3923 -1.8490
  621SOL    HW2 1863   2.138   1.764   1.256 -0.7632  0.7268 -1.0825
  622SOL     OW 1864   2.142   0.841   1.744 -0.2218 -0.5093 -0.5282
  622SOL    HW1 1865   2.237   0.803   1.729  0.4744  2.2194  0.9291
  622SOL    HW2 1866   2.087   0.780   1.802 -0.3008  1.6800 -2.2504
  623SOL     OW 1867   1.364   0.768   2.598  0.2058  0.0291 -0.5301
  623SOL    HW1 1868   1.305   0.724   2.672 -0.3145  0.0372 -1.2775
  623SOL    HW2 1869   1.303   0.818   2.526 -2.8335 -0.8133  1.1822
  624SOL     OW 1870   0.512   0.668   0.024 -0.3732  0.5111  0.3543
  624SOL    HW1 1871   0.561   0.711  -0.057  1.3646 -0.2712 -1.7787
  624SOL    HW2 1872   0.512   0.728   0.103  0.0755 -1.9756 -0.6023
  625SOL     OW 1873   2.793   1.745   0.940 -0.0462 -0.2025 -0.6285
  625SOL    HW1 1874   2.699   1.757   0.985  0.1137  0.5303  1.9647
  625SOL    HW2 1875   2.848   1.672   0.986  2.0538  2.3806  0.4211
  626SOL     OW 1876   0.552   2.721   1.832 -0.3841  0.1363 -0.1590
  626SOL    HW1 1877   0.581   2.818   1.858  0.5871 -0.5475 -0.7325
  626SOL    HW2 1878   0.451   2.703   1.846  0.0745 -0.2964  2.3437
  627SOL     OW 1879   0.699   0.996   1.557 -0.2595 -0.0836  0.0759
  627SOL    HW1 1880   0.761   0.916   1.584  0.5212 -0.8249 -3.0489
  627SOL    HW2 1881   0.749   1.069   1.505 -3.6239  2.6440 -0.7858
  628SOL     OW 1882   2.400   0.194   0.685 -0.2003  0.0929  0.1078
  628SOL    HW1 1883   2.418   0.115   0.615  1.6129 -1.9395 -0.0255
  628SOL    HW2 1884   2.313   0.188   0.736  1.4880  1.0896 -1.1152
  629SOL     OW 1885   1.958   0.918   1.979  0.4508  0.3782  0.1015
  629SOL    HW1 1886   2.047   0.910   2.029 -3.0367  0.0288 -0.1656
  629SOL    HW2 1887   1.937   1.019   1.961 -0.8741 -0.6311 -1.9257
  630SOL     OW 1888   2.785   2.212   0.777 -0.0054 -0.8451 -0.0397
  630SOL    HW1 1889   2.707   2.273   0.807 -0.6241  0.3999 -0.6270
  630SOL    HW2 1890   2.765   2.116   0.752  1.7504  1.9245  0.0722
  631SOL     OW 1891   2.964   0.115   2.100  0.1070  0.0299  0.3395
  631SOL    HW1 1892   3.026   0.156   2.178  2.3915  2.3611 -0.5768
  631SOL    HW2 1893   3.016   0.101   2.011  0.1996 -1.9848  3.3082
  632SOL     OW 1894   2.409   2.497   0.629 -0.5211  0.8665  0.2557
  632SOL    HW1 1895   2.468   2.562   0.681 -1.6271 -0.4218  0.3553
  632SOL    HW2 1896   2.366   2.545   0.546 -3.1561 -0.2646  0.7076
  633SOL     OW 1897   1.554   1.282   2.536  1.3060  0.2401  0.0188
  633SOL    HW1 1898   1.569   1.348   2.615  1.3315 -0.0659  2.1439
  633SOL    HW2 1899   1.469   1.307   2.482  0.7123 -1.3264 -1.7319
  634SOL     OW 1900   0.656   2.000   0.904  0.0016  0.1400 -0.3800
  634SOL    HW1 1901   0.565   2.026   0.948 -1.0076  0.6957 -0.9590
  634SOL    HW2 1902   0.726   2.081   0.904  0.7587  1.5222  1.1257
  635SOL     OW 1903   0.023   2.323   3.059 -0.2803 -0.1055 -0.1027
  635SOL    HW1 1904  -0.007   2.372   2.972  0.5185 -0.5466  0.0677
  635SOL    HW2 1905   0.012   2.385   3.146 -0.3361  1.4779  0.5239
  636SOL     OW 1906   2.289   2.763   2.039  0.2570  0.6849  0.0345
  636SOL    HW1 1907   2.304   2.861   2.072  1.8199  2.5645  0.9316
  636SOL    HW2 1908   2.213   2.713   2.099  0.5287  0.8584  1.7684
  637SOL     OW 1909   2.585   0.688   2.054 -0.2703 -0.9076 -0.0291
  637SOL    HW1 1910   2.550   0.728   1.966 -1.8139  1.1198 -0.7720
  637SOL    HW2 1911   2.649   0.753   2.108 -0.9958  0.7021  1.1002
  638SOL     OW 1912   2.438   1.841   1.295  0.5228  0.0215  0.0604
  638SOL    HW1 1913   2.341   1.845   1.318  2.3271  2.3171  1.0804
  638SOL    HW2 1914   2.494   1.773   1.350  0.9465  1.6364 -3.0250
  639SOL     OW 1915   1.282   2.202   1.650 -0.4660  0.3297  0.4900
  639SOL    HW1 1916   1.284   2.149   1.564 -1.1249 -0.4299  1.9212
  639SOL    HW2 1917   1.208   2.178   1.715 -0.3241  2.9589 -1.5198
  640SOL     OW 1918   0.215   1.185   1.567 -0.0959  0.4725 -0.0262
  640SOL    HW1 1919   0.205   1.229   1.660  2.0506 -0.6241  1.1837
  640SOL    HW2 1920   0.307   1.134   1.560 -2.2819 -2.7612  0.8778
  641SOL     OW 1921   2.032   0.072   1.510 -0.2417 -0.1615  0.5096
  641SOL    HW1 1922   1.998   0.131   1.588  0.2530  0.0650 -1.0383
  641SOL    HW2 1923   2.130   0.047   1.522 -0.4615 -0.0900  1.1562
  642SOL     OW 1924   1.953   0.103   0.287 -0.4031  0.1761 -0.0305
  642SOL    HW1 1925   2.032   0.137   0.340 -2.7089 -1.1220 -0.3251
  642SOL    HW2 1926   1.885   0.055   0.348 -0.8907 -0.3207 -0.9257
  643SOL     OW 1927   2.847   1.892   2.073 -0.2474  0.4076  0.0022
  643SOL    HW1 1928   2.781   1.830   2.019  1.1019 -0.9371  0.2732
  643SOL    HW2 1929   2.870   1.983   2.027  0.7150 -2.3124  0.8656
  644SOL     OW 1930   2.202   2.336   1.188 -0.9810  0.1627  0.0513
  644SOL    HW1 1931   2.295   2.289   1.166  2.1187 -1.2724 -0.3845
  644SOL    HW2 1932   2.195   2.334   1.293  0.0092 -1.6749  4.1852
  645SOL     OW 1933   0.626   0.840   1.193 -0.5017 -0.6239 -0.4833
  645SOL    HW1 1934   0.552   0.806   1.127  0.9835 -0.4783  0.2050
  645SOL    HW2 1935   0.695   0.906   1.154 -1.3921 -1.6630  0.2338
  646SOL     OW 1936   1.455   1.941   1.848  0.3961 -0.0369 -0.1433
  646SOL    HW1 1937   1.546   1.985   1.856  0.6758  0.5380  1.4732
  646SOL    HW2 1938   1.384   1.974   1.920 -0.4807 -0.6163 -0.8153
  647SOL     OW 1939   0.855   1.005   0.691  0.0417 -0.2904  0.0300
  647SOL    HW1 1940   0.918   1.048   0.765  1.2621  0.8146 -1.2959
  647SOL    HW2 1941   0.786   0.936   0.721  1.0306 -3.7875 -0.1324
  648SOL     OW 1942   0.097   0.172   0.257 -0.8064 -0.5948  0.5655
  648SOL    HW1 1943   0.134   0.109   0.184 -0.0838 -0.3802  0.7405
  648SOL    HW2 1944   0.114   0.276   0.233 -0.4085  2.1553 -2.0071
  649SOL     OW 1945   3.065   0.167   0.919  0.1750 -0.4925 -0.1124
  649SOL    HW1 1946   3.110   0.236   0.857 -1.2287  0.7840  0.7702
  649SOL    HW2 1947   3.092   0.185   1.017 -1.8163  0.3436  0.9211
  650SOL     OW 1948   2.720   0.715   1.416  0.0057  0.5531 -0.3535
  650SOL    HW1 1949   2.625   0.682   1.458 -1.2303 -1.5797 -0.7548
  650SOL    HW2 1950   2.715   0.810   1.376  2.0621 -1.4289 -3.0861
  651SOL     OW 1951   0.926   1.567   1.641 -0.6995 -0.2711  0.2344
  651SOL    HW1 1952   0.940   1.648   1.703  1.3195  2.2058  1.8884
  651SOL    HW2 1953   0.936   1.595   1.545 -1.1979 -1.1322  0.0156
  652SOL     OW 1954   2.264   2.521   2.485 -0.3784 -0.0463 -0.6470
  652SOL    HW1 1955   2.193   2.507   2.557 -0.3435  0.3956  0.7318
  652SOL    HW2 1956   2.226   2.585   2.412  0.8043 -0.7424  2.0101
  653SOL     OW 1957   2.730   1.170   0.228  0.0446 -0.0640  0.2608
  653SOL    HW1 1958   2.760   1.271   0.245 -2.3701  0.9794 -1.1092
  653SOL    HW2 1959   2.809   1.105   0.245 -0.4034 -1.4298  1.9982
  654SOL     OW 1960   1.246   2.260   1.218 -0.0580  0.3898 -0.1000
  654SOL    HW1 1961   1.285   2.214   1.304  0.3101 -1.4540 -2.0200
  654SOL    HW2 1962   1.300   2.235   1.131  1.5062 -0.8730  0.1159
  655SOL     OW 1963   0.219   0.957   1.840 -0.1848  1.2186  0.1059
  655SOL    HW1 1964   0.256   0.879   1.773 -0.1682 -0.1822  0.2352
  655SOL    HW2 1965   0.305   1.008   1.873  1.9866  1.1244 -1.5445
  656SOL     OW 1966   2.520   2.486   2.614  0.0638 -0.3723 -0.0865
  656SOL    HW1 1967   2.595   2.465   2.546 -2.0418 -1.2354  0.3345
  656SOL    HW2 1968   2.439   2.531   2.562  2.1054 -4.1596  0.4603
  657SOL     OW 1969   3.081   1.082   1.893 -0.3066 -0.0004 -0.1241
  657SOL    HW1 1970   3.092   1.173   1.940  0.6156 -1.5276 -0.3852
  657SOL    HW2 1971   3.172   1.044   1.851 -1.0429  1.7661 -0.7673
  658SOL     OW 1972   1.665   0.212   2.410 -0.2383 -0.8132  0.0232
  658SOL    HW1 1973   1.714   0.144   2.471  1.3372  2.1538  1.2413
  658SOL    HW2 1974   1.688   0.204   2.309 -2.4252  3.1623 -1.3209
  659SOL     OW 1975   1.434   0.627   2.913 -0.6506 -0.2825  0.0758
  659SOL    HW1 1976   1.486   0.716   2.917 -1.6493  0.7295 -0.6218
  659SOL    HW2 1977   1.343   0.645   2.868  0.6196  1.6707  0.5306
  660SOL     OW 1978   1.440   0.362   1.449  0.1687  0.0244  0.2623
  660SOL    HW1 1979   1.477   0.374   1.544 -0.6686 -0.7532 -1.8247
  660SOL    HW2 1980   1.487   0.281   1.408  1.2908 -1.9533  0.8129
  661SOL     OW 1981   2.510   1.162   0.645  0.2337  0.1472 -0.5978
  661SOL    HW1 1982   2.519   1.159   0.538 -0.3138 -0.6927 -1.9761
  661SOL    HW2 1983   2.446   1.240   0.678 -1.1562  0.4389  0.0797
  662SOL     OW 1984   1.337   0.436   1.837 -0.1154  0.1740 -0.1332
  662SOL    HW1 1985   1.313   0.338   1.810  1.0972  0.9150 -0.9375
  662SOL    HW2 1986   1.288   0.471   1.920 -0.2353  0.7008 -1.2558
  663SOL     OW 1987   0.830   1.584   2.169  0.6694 -0.4014  0.9388
  663SOL    HW1 1988   0.805   1.681   2.205  0.9723  0.0409 -2.6930
  663SOL    HW2 1989   0.770   1.555   2.089 -0.9061 -1.8841 -2.1283
  664SOL     OW 1990   1.658   2.086   1.440 -0.0360 -0.3848 -0.3669
  664SOL    HW1 1991   1.622   2.010   1.504  1.4555 -0.6221  0.7514
  664SOL    HW2 1992   1.763   2.080   1.427  1.0502 -1.7065 -1.0102
  665SOL     OW 1993   2.208   0.673   2.019 -0.4840  0.4049  0.4175
  665SOL    HW1 1994   2.257   0.588   2.042  1.7481  2.6638  0.8378
  665SOL    HW2 1995   2.202   0.739   2.097 -1.0747 -0.2927  0.5246
  666SOL     OW 1996   0.433   2.379   0.456  0.3063  0.0039  0.2635
  666SOL    HW1 1997   0.522   2.419   0.479 -0.0252 -1.2497  0.0761
  666SOL    HW2 1998   0.410   2.296   0.517  1.0003  0.7477  3.7276
  667SOL     OW 1999   1.967   0.189   1.066 -0.1777  0.1655 -1.0758
  667SOL    HW1 2000   1.976   0.290   1.073 -0.8829 -1.4140  2.6109
  667SOL    HW2 2001   1.933   0.145   1.158 -2.7043  1.6034 -0.9084
  668SOL     OW 2002   1.977   0.527   1.164 -0.4496  0.6446  0.2717
  668SOL    HW1 2003   2.053   0.531   1.095  1.2749  0.3693  0.0877
  668SOL    HW2 2004   2.014   0.492   1.254 -2.2180 -2.0945 -1.3520
  669SOL     OW 2005   3.021   2.260   0.973  0.2671 -0.7756 -0.1844
  669SOL    HW1 2006   2.939   2.257   0.910 -1.0669 -1.8607 -1.2047
  669SOL    HW2 2007   3.010   2.233   1.071 -1.8560  0.8221  1.2508
  670SOL     OW 2008   2.890   2.333   2.001 -0.0504  0.2297  0.4285
  670SOL    HW1 2009   2.832   2.297   2.084 -0.7121 -1.2388  0.4164
  670SOL    HW2 2010   2.867   2.431   1.979  0.1527  0.5134  0.3662
  671SOL     OW 2011   1.781   1.765   1.430 -0.4685 -0.5016 -0.4771
  671SOL    HW1 2012   1.817   1.750   1.333  0.1918  0.1492  1.1504
  671SOL    HW2 2013   1.675   1.755   1.443 -2.3029 -0.3864  0.2865
  672SOL     OW 2014   0.430   0.567   2.390  0.6636 -0.3742  0.2919
  672SOL    HW1 2015   0.470   0.620   2.305  1.4446  1.7476 -1.7477
  672SOL    HW2 2016   0.349   0.613   2.433 -0.1637  0.6911 -0.6485
  673SOL     OW 2017   0.145   1.180   1.139 -0.3472 -0.1535  0.1440
  673SOL    HW1 2018   0.150   1.244   1.219  1.9845  0.9676 -1.6466
  673SOL    HW2 2019   0.238   1.136   1.115  0.4407 -2.0633 -0.4392
  674SOL     OW 2020   1.583   2.896   0.159 -0.3496 -0.2424 -0.3225
  674SOL    HW1 2021   1.627   2.989   0.131 -2.1976 -2.1531 -0.6404
  674SOL    HW2 2022   1.595   2.821   0.096 -0.1110  1.6069  1.5849
  675SOL     OW 2023   1.642   0.845   2.294 -0.3121  0.0057  0.7843
  675SOL    HW1 2024   1.736   0.818   2.261  0.3661 -3.0662 -0.3315
  675SOL    HW2 2025   1.567   0.769   2.283 -1.9231 -2.8658 -3.0372
  676SOL     OW 2026   2.488   1.559   2.023 -0.1827 -0.1111  0.1629
  676SOL    HW1 2027   2.460   1.510   1.936  0.0900 -0.9914 -0.7542
  676SOL    HW2 2028   2.529   1.499   2.090 -0.6219  1.4439 -1.0924
  677SOL     OW 2029   1.877   0.635   0.899 -0.7509 -0.4931  0.3381
  677SOL    HW1 2030   1.894   0.633   1.002  0.5449 -0.4952 -0.5757
  677SOL    HW2 2031   1.859   0.536   0.871 -0.7301  0.5879 -1.7760
  678SOL     OW 2032   0.020   0.727   1.668 -0.2569  0.3409  0.1539
  678SOL    HW1 2033   0.122   0.731   1.657 -0.7739 -2.5679  1.0210
  678SOL    HW2 2034  -0.010   0.734   1.762  0.8271  0.6493 -0.6197
  679SOL     OW 2035   2.553   1.148   1.104 -0.0238  0.0124 -0.3879
  679SOL    HW1 2036   2.485   1.175   1.177  1.6001  1.5293 -1.5623
  679SOL    HW2 2037   2.564   1.047   1.080 -2.2678 -0.5288 -0.5039
  680SOL     OW 2038   2.833   0.626   1.653 -0.0456  0.3556 -0.3576
  680SOL    HW1 2039   2.812   0.655   1.555  1.5761 -0.3195 -0.7399
  680SOL    HW2 2040   2.903   0.683   1.707  1.1067 -0.3900 -0.7612
  681SOL     OW 2041   2.998   0.125   1.632 -0.2517 -0.0205 -0.3923
  681SOL    HW1 2042   3.060   0.095   1.558  0.3244 -0.0375  1.9133
  681SOL    HW2 2043   2.946   0.217   1.615 -0.3900 -1.1279  0.9190
  682SOL     OW 2044   0.780   0.057   1.351  0.0954 -0.1453  0.8570
  682SOL    HW1 2045   0.722  -0.021   1.391  1.4732 -2.3811 -0.5184
  682SOL    HW2 2046   0.796   0.039   1.247  0.0011 -0.5961  0.4855
  683SOL     OW 2047   1.357   0.272   2.157  0.1400  0.4632  0.2422
  683SOL    HW1 2048   1.326   0.343   2.227  1.1649 -0.4705  0.3208
  683SOL    HW2 2049   1.452   0.298   2.119  2.5267 -2.1164  1.7561
  684SOL     OW 2050   1.445   2.175   0.541 -0.3553 -0.2809 -0.4787
  684SOL    HW1 2051   1.515   2.101   0.574  0.5294 -0.9641 -1.0818
  684SOL    HW2 2052   1.352   2.128   0.517  0.0837 -2.1998 -0.3267
  685SOL     OW 2053   2.204   2.005   1.902 -0.2872 -0.0164  0.1178
  685SOL    HW1 2054   2.258   2.088   1.928 -2.9613  3.6872  1.9642
  685SOL    HW2 2055   2.248   1.917   1.936 -0.9062  0.7426 -1.4137
  686SOL     OW 2056   1.512   1.753   2.686  0.0325  0.0615 -1.0879
  686SOL    HW1 2057   1.493   1.670   2.751 -1.6647 -1.9824 -0.2010
  686SOL    HW2 2058   1.613   1.768   2.657  2.5552 -0.1987 -1.2694
  687SOL     OW 2059   1.294   2.519   1.911  0.1073  0.1927 -0.3016
  687SOL    HW1 2060   1.337   2.428   1.911  0.9624  4.0331 -4.1895
  687SOL    HW2 2061   1.349   2.585   1.972 -0.0833 -1.9831  1.5841
  688SOL     OW 2062   2.084   1.501   1.692 -0.1078 -0.7602 -0.7975
  688SOL    HW1 2063   2.163   1.564   1.682 -2.5257 -3.2943 -2.1344
  688SOL    HW2 2064   2.057   1.455   1.602  1.3833 -0.0475 -0.9459
  689SOL     OW 2065   2.473   1.087   2.729 -0.4975 -0.2326  0.2474
  689SOL    HW1 2066   2.374   1.124   2.737  0.8069 -2.0497  2.6005
  689SOL    HW2 2067   2.518   1.048   2.818  0.8523 -0.4872  3.3874
  690SOL     OW 2068   2.206   2.752   0.090  0.0710 -0.0084  0.1126
  690SOL    HW1 2069   2.113   2.737   0.041 -4.6313 -0.4730  2.7405
  690SOL    HW2 2070   2.188   2.810   0.175 -0.4885 -0.7409  1.2860
  691SOL     OW 2071   2.562   0.406   2.100  0.5336  0.3409  0.3459
  691SOL    HW1 2072   2.622   0.339   2.046 -1.3499 -0.0472 -3.0772
  691SOL    HW2 2073   2.586   0.507   2.082 -1.2179 -0.3744 -0.5281
  692SOL     OW 2074   2.769   1.214   0.712  0.3747 -0.0997  0.1569
  692SOL    HW1 2075   2.670   1.206   0.690  0.5553  1.6179  1.8840
  692SOL    HW2 2076   2.790   1.301   0.766  1.1157  0.4845  0.5413
  693SOL     OW 2077   2.845   2.980   0.674  0.5738  0.1169 -0.0596
  693SOL    HW1 2078   2.831   3.063   0.731 -1.8182 -0.3994 -0.5727
  693SOL    HW2 2079   2.797   2.985   0.584  1.3327 -0.0526 -0.4091
  694SOL     OW 2080   2.443   2.232   0.069  0.3241  0.0640 -0.0800
  694SOL    HW1 2081   2.408   2.327   0.090 -0.6672  0.2061 -3.0260
  694SOL    HW2 2082   2.371   2.164   0.063  2.1975  3.1272 -2.0183
  695SOL     OW 2083   0.627   2.970   1.467 -0.2810 -0.2411 -0.0247
  695SOL    HW1 2084   0.569   2.888   1.430 -0.7728 -1.0227  1.0374
  695SOL    HW2 2085   0.590   3.003   1.560 -2.4854 -2.1163  0.7523
  696SOL     OW 2086   2.685   1.925   0.722 -0.4501  0.1913 -0.2506
  696SOL    HW1 2087   2.725   1.863   0.796  0.1690 -2.9428 -1.1191
  696SOL    HW2 2088   2.650   1.871   0.641 -1.8457  2.6173  2.0830
  697SOL     OW 2089   1.701   2.075   1.853  0.9900 -0.1473 -0.1843
  697SOL    HW1 2090   1.767   1.999   1.856  0.9475 -2.0386 -1.1108
  697SOL    HW2 2091   1.753   2.166   1.835 -1.1972  0.8746 -2.9090
  698SOL     OW 2092   2.906   0.365   2.737 -1.0167 -0.0582 -0.2037
  698SOL    HW1 2093   2.917   0.336   2.640  0.6490  1.9645 -0.3979
  698SOL    HW2 2094   2.969   0.310   2.805  3.8335  0.8053  2.0619
  699SOL     OW 2095   1.511   0.055   2.930 -0.5124 -0.1708 -0.3586
  699SOL    HW1 2096   1.500  -0.041   2.891 -0.3503  0.6805  1.8127
  699SOL    HW2 2097   1.552   0.119   2.859 -2.4228  2.7313  1.6192
  700SOL     OW 2098   0.989   2.313   1.313 -0.1385 -0.1370  0.0629
  700SOL    HW1 2099   1.085   2.279   1.274  2.6263  2.6215  0.8268
  700SOL    HW2 2100   0.912   2.303   1.246 -1.3107 -2.3258  0.2312
  701SOL     OW 2101   1.928   2.823   0.003 -0.2666 -0.0265 -0.1889
  701SOL    HW1 2102   1.901   2.765   0.083 -0.4207 -2.3590 -1.0921
  701SOL    HW2 2103   1.935   2.925   0.023 -1.5739  0.3589 -0.2569
  702SOL     OW 2104   2.090   1.335   1.927 -0.3288 -0.6907  0.2505
  702SOL    HW1 2105   2.135   1.242   1.918  1.5628  1.4208  1.5532
  702SOL    HW2 2106   2.095   1.392   1.843  0.9251 -0.2475 -1.4612
  703SOL     OW 2107   1.920   0.832   1.399 -0.3225  0.0304  0.0008
  703SOL    HW1 2108   1.918   0.743   1.448  0.8100 -0.2189  0.6996
  703SOL    HW2 2109   1.981   0.897   1.449 -1.9356  0.4504 -0.5654
  704SOL     OW 2110   0.309   2.074   1.661  0.4887  0.3172  0.2929
  704SOL    HW1 2111   0.341   1.995   1.715  0.9032  4.1070  1.8153
  704SOL    HW2 2112   0.367   2.161   1.675 -0.5287  0.7339 -1.3194
  705SOL     OW 2113   2.534   1.394   0.941  0.4320 -0.1621  0.0655
  705SOL    HW1 2114   2.486   1.372   0.850 -1.3780  0.0774 -1.3931
  705SOL    HW2 2115   2.528   1.317   1.007 -1.4247  0.6430  1.4237
  706SOL     OW 2116   0.653   1.758   1.854  0.3213  0.2636  0.5290
  706SOL    HW1 2117   0.651   1.657   1.891  0.9320 -1.0265 -2.8533
  706SOL    HW2 2118   0.731   1.806   1.901 -1.5292  0.0629 -1.2454
  707SOL     OW 2119   2.237   1.105   1.889  0.2068  0.4436 -0.2181
  707SOL    HW1 2120   2.339   1.109   1.901  1.1702 -0.8244  1.6315
  707SOL    HW2 2121   2.209   1.011   1.847 -0.9182 -1.4728 -2.2992
  708SOL     OW 2122   2.977   0.514   3.053  0.4631 -0.5547  0.0851
  708SOL    HW1 2123   3.013   0.561   2.970 -1.1318  2.7694  3.9342
  708SOL    HW2 2124   2.941   0.418   3.043 -0.4513 -1.5611  0.9873
  709SOL     OW 2125   1.799   1.895   0.255  0.6317 -0.2988  0.1772
  709SOL    HW1 2126   1.846   1.980   0.283 -0.9633 -1.8154 -1.0280
  709SOL    HW2 2127   1.817   1.865   0.155  0.4286  0.6346 -1.2292
  710SOL     OW 2128   1.684   1.586   2.406  0.0838 -0.1826  0.1768
  710SOL    HW1 2129   1.750   1.568   2.329  2.3308  0.1063 -0.6091
  710SOL    HW2 2130   1.725   1.559   2.498  0.3047  3.7584  4.6945
  711SOL     OW 2131   2.670   2.932   0.976  0.3487 -0.1590  0.2254
  711SOL    HW1 2132   2.661   3.020   0.929  0.3234 -2.0383  0.0403
  711SOL    HW2 2133   2.771   2.903   0.966  0.0851 -2.0589 -2.4603
  712SOL     OW 2134   1.436   2.266   1.878  0.2740  0.0011 -1.0683
  712SOL    HW1 2135   1.510   2.195   1.898  1.3855 -0.5661 -1.6736
  712SOL    HW2 2136   1.383   2.256   1.789  1.9605 -0.0622 -0.5153
  713SOL     OW 2137   2.813   1.527   2.523 -0.9701  0.0912 -0.7090
  713SOL    HW1 2138   2.841   1.427   2.504  4.0120  1.3843 -1.3663
  713SOL    HW2 2139   2.712   1.546   2.548 -2.2522  0.1073  0.8847
  714SOL     OW 2140   2.675   0.449   2.393 -0.1469 -0.5469  0.2218
  714SOL    HW1 2141   2.624   0.422   2.483  0.3578  0.1790  2.5799
  714SOL    HW2 2142   2.611   0.451   2.309 -4.7709 -0.4801  0.5668
  715SOL     OW 2143   1.595   2.040   1.163  0.1502 -0.2689 -0.2821
  715SOL    HW1 2144   1.537   2.102   1.103 -2.5129  2.3274 -0.0134
  715SOL    HW2 2145   1.599   2.066   1.262 -2.1852 -0.5852 -0.6114
  716SOL     OW 2146   1.219   0.219   1.517  0.8036  0.0636 -0.0132
  716SOL    HW1 2147   1.120   0.245   1.491  0.5987  0.5384  0.5280
  716SOL    HW2 2148   1.291   0.292   1.491  0.1339  1.3992  1.4723
  717SOL     OW 2149   1.101   0.614   1.612 -0.3043  0.0096 -0.1366
  717SOL    HW1 2150   1.203   0.611   1.626 -2.8246  1.1164  1.1425
  717SOL    HW2 2151   1.087   0.578   1.515  0.1009  2.1822  2.1939
  718SOL     OW 2152   0.738   0.988   0.953 -0.2921  0.5325  0.2055
  718SOL    HW1 2153   0.674   0.964   0.876  1.5508 -0.5310  1.9508
  718SOL    HW2 2154   0.723   1.085   0.989  2.4328 -1.9488  0.4199
  719SOL     OW 2155   0.727   1.804   2.272  0.6317  0.4711  0.6735
  719SOL    HW1 2156   0.806   1.842   2.320 -2.2444 -1.3605 -1.4318
  719SOL    HW2 2157   0.643   1.791   2.331  0.1994  1.5996 -1.5081
  720SOL     OW 2158   2.183   1.133   0.224 -0.1578 -0.6937  0.1720
  720SOL    HW1 2159   2.271   1.083   0.198  0.3336  0.3731 -1.0436
  720SOL    HW2 2160   2.167   1.115   0.324  1.5406 -1.8859 -2.1526
  721SOL     OW 2161   2.301   3.038   2.096  0.1379  0.5771 -0.0807
  721SOL    HW1 2162   2.315   3.103   2.017 -1.9865  4.3362  0.7049
  721SOL    HW2 2163   2.198   3.032   2.119  1.3597  0.0120 -0.2792
  722SOL     OW 2164   2.368   1.619   0.577 -0.0228  0.2450 -0.3963
  722SOL    HW1 2165   2.384   1.581   0.484  0.4224  2.9977  0.7363
  722SOL    HW2 2166   2.312   1.708   0.576  1.4168  0.0484 -0.8571
  723SOL     OW 2167   2.558   2.718   1.977  0.1156  0.8349 -0.1536
  723SOL    HW1 2168   2.595   2.776   2.055  1.1216 -0.7027 -1.5152
  723SOL    HW2 2169   2.454   2.703   1.976 -2.2112  1.0453  0.1167
  724SOL     OW 2170   0.534   2.478   2.403  0.0331  0.2591 -0.3511
  724SOL    HW1 2171   0.432   2.496   2.430 -1.0248  1.9499 -0.8701
  724SOL    HW2 2172   0.605   2.519   2.475  0.1127 -1.0030  0.9767
  725SOL     OW 2173   2.465   2.755   1.549  0.4913  0.1306  0.4471
  725SOL    HW1 2174   2.514   2.734   1.463  1.0222 -1.1864  1.1389
  725SOL    HW2 2175   2.415   2.671   1.583 -1.1127  2.2042 -3.7703
  726SOL     OW 2176   2.367   2.234   0.663 -0.2637 -0.2292  0.4183
  726SOL    HW1 2177   2.362   2.328   0.622  1.3037 -2.9111  1.3276
  726SOL    HW2 2178   2.403   2.162   0.595 -1.2071 -3.5832 -2.0152
  727SOL     OW 2179   0.186   3.089   0.064  0.3363  0.2620  0.2925
  727SOL    HW1 2180   0.274   3.034   0.047  3.7058  0.4209 -0.1118
  727SOL    HW2 2181   0.135   3.110  -0.023  0.5627  0.7660  0.8802
  728SOL     OW 2182   2.858   0.670   0.972 -0.4317 -0.0974 -0.2622
  728SOL    HW1 2183   2.780   0.648   0.906 -1.6749  0.2791 -1.5975
  728SOL    HW2 2184   2.844   0.622   1.063  5.0901  3.7340  1.5390
  729SOL     OW 2185   2.938   2.447   0.720 -0.3621 -0.2892 -0.3645
  729SOL    HW1 2186   2.866   2.370   0.727 -3.1821  2.9811 -1.4386
  729SOL    HW2 2187   3.033   2.424   0.748 -3.9067  0.7592 -0.3709
  730SOL     OW 2188   2.610   0.604   0.863  0.2473 -0.8641 -0.2597
  730SOL    HW1 2189   2.541   0.682   0.847 -1.6913  2.2264 -1.2513
  730SOL    HW2 2190   2.670   0.581   0.782  1.6198  0.3485 -2.0828
  731SOL     OW 2191   0.111   2.126   2.448 -0.2304 -0.2038 -0.0600
  731SOL    HW1 2192   0.116   2.168   2.547  1.9451  1.7884  3.2524
  731SOL    HW2 2193   0.119   2.195   2.371  0.1224  1.2106  2.2857
  732SOL     OW 2194   1.104   2.891   1.935  0.2802 -0.1259  0.6338
  732SOL    HW1 2195   1.128   2.820   2.005  1.7529 -0.9682 -1.3058
  732SOL    HW2 2196   1.124   2.856   1.838 -0.4749 -3.5546 -0.1744
  733SOL     OW 2197   3.091   0.645   2.168  0.6265  0.8211 -0.1083
  733SOL    HW1 2198   3.164   0.702   2.123 -0.3789  0.1408  1.2405
  733SOL    HW2 2199   3.040   0.581   2.095 -0.4573  0.7000 -0.1970
  734SOL     OW 2200   1.426   0.394   2.778  0.6365 -0.3860 -0.2515
  734SOL    HW1 2201   1.447   0.488   2.822  0.1530  0.1048 -1.2251
  734SOL    HW2 2202   1.329   0.366   2.790  0.0939  0.5801 -0.8440
  735SOL     OW 2203   2.923   2.592   2.267 -0.0597  0.2780 -0.2406
  735SOL    HW1 2204   2.883   2.614   2.172  0.8896  1.3145  0.4090
  735SOL    HW2 2205   3.023   2.568   2.265 -1.1607 -0.6434 -1.3266
  736SOL     OW 2206   0.697   0.406   2.620  0.1445  1.1870 -0.2319
  736SOL    HW1 2207   0.622   0.453   2.572 -3.0840  1.1481 -1.3525
  736SOL    HW2 2208   0.740   0.330   2.556  3.0744 -2.1400 -0.9975
  737SOL     OW 2209   2.660   0.417   2.853  0.2684  0.1106  0.5647
  737SOL    HW1 2210   2.627   0.391   2.951  1.9727 -0.6476 -1.0217
  737SOL    HW2 2211   2.745   0.362   2.830 -0.5083  1.9779 -1.7510
  738SOL     OW 2212   1.605   1.248   2.909 -0.5221  0.1271 -0.0208
  738SOL    HW1 2213   1.710   1.228   2.922  2.4797  0.3786  2.1012
  738SOL    HW2 2214   1.566   1.170   2.856 -1.6989  0.7687 -1.9901
  739SOL     OW 2215   1.699   0.631   0.645  0.3077 -0.3678  0.5749
  739SOL    HW1 2216   1.771   0.641   0.721  0.2181  0.7526  0.7255
  739SOL    HW2 2217   1.728   0.558   0.578  2.7837  0.8690 -0.5491
  740SOL     OW 2218   1.939   1.909   2.350  0.1083 -0.4499 -0.0095
  740SOL    HW1 2219   2.019   1.849   2.383  2.4220 -1.7181 -1.9013
  740SOL    HW2 2220   1.892   1.872   2.266  0.5503  3.4443  1.6293
  741SOL     OW 2221   2.546   0.070   2.620  0.1438 -0.6357 -0.2857
  741SOL    HW1 2222   2.650   0.082   2.638 -0.2841 -0.6326 -0.4602
  741SOL    HW2 2223   2.535   0.030   2.528  3.3259  1.6588 -1.9656
  742SOL     OW 2224   2.248   1.404   0.175  0.7921  0.2768 -0.2088
  742SOL    HW1 2225   2.161   1.463   0.185 -1.9608  0.6343  1.2292
  742SOL    HW2 2226   2.231   1.306   0.200 -0.5822 -0.8366 -1.1748
  743SOL     OW 2227   1.809   0.655   2.592 -0.2777 -0.6080 -0.0369
  743SOL    HW1 2228   1.787   0.594   2.511  0.2161  0.0523  0.4723
  743SOL    HW2 2229   1.743   0.738   2.604 -0.2495  2.5634 -1.8468
  744SOL     OW 2230   2.695   2.145   0.068  0.0684  0.2487 -0.3329
  744SOL    HW1 2231   2.606   2.187   0.094 -2.9123 -1.6554 -0.5411
  744SOL    HW2 2232   2.687   2.050   0.030 -0.4779  0.7110 -0.4539
  745SOL     OW 2233   2.146   2.671   2.278 -0.3988  0.2830 -0.3161
  745SOL    HW1 2234   2.047   2.676   2.249  2.6136  0.8235 -0.5057
  745SOL    HW2 2235   2.167   2.746   2.345 -0.2076  0.1658 -2.5555
  746SOL     OW 2236   3.094   2.609   1.791  0.2089 -0.1421  0.7166
  746SOL    HW1 2237   3.172   2.617   1.726 -0.1858 -0.7985  1.9970
  746SOL    HW2 2238   3.052   2.703   1.809 -0.1644 -0.5434  0.3287
  747SOL     OW 2239   0.030   1.769   1.616 -0.0121 -0.0788  0.1076
  747SOL    HW1 2240  -0.023   1.693   1.569 -1.6231  1.8501  2.2323
  747SOL    HW2 2241   0.109   1.805   1.558  2.6954 -1.2930 -1.2637
  748SOL     OW 2242   1.857   2.770   2.832 -0.4576  0.1935 -0.0034
  748SOL    HW1 2243   1.863   2.821   2.925  1.7185  1.2659  0.7195
  748SOL    HW2 2244   1.765   2.731   2.798 -0.8107 -0.1836  0.4248
  749SOL     OW 2245   1.330   3.080   0.891 -0.0289  0.1572  0.0323
  749SOL    HW1 2246   1.264   3.015   0.933  0.8063  3.5327 -0.9740
  749SOL    HW2 2247   1.297   3.130   0.804  1.3824 -0.6507 -0.2432
  750SOL     OW 2248   2.361   0.233   1.870 -0.6857 -0.0255 -0.4972
  750SOL    HW1 2249   2.394   0.293   1.791 -0.3933  0.2944  1.0544
  750SOL    HW2 2250   2.314   0.284   1.943  3.4365 -0.4918  3.9321
  751SOL     OW 2251   0.939   2.180   2.719 -0.0330  0.4471 -0.1265
  751SOL    HW1 2252   0.947   2.208   2.819 -0.4240  0.4084  0.0308
  751SOL    HW2 2253   0.859   2.120   2.700 -0.6815  0.1780 -0.0265
  752SOL     OW 2254   1.258   0.860   1.512  0.8566 -0.0500  0.0157
  752SOL    HW1 2255   1.318   0.934   1.465 -2.1357  0.0981 -1.8214
  752SOL    HW2 2256   1.294   0.761   1.505 -0.8878 -0.9200  0.4708
  753SOL     OW 2257   0.959   2.589   1.706  0.0350  0.0510 -0.3558
  753SOL    HW1 2258   1.036   2.660   1.731  1.6144  0.5389 -1.5569
  753SOL    HW2 2259   0.873   2.644   1.688 -2.1041 -2.3740  2.1675
  754SOL     OW 2260   1.217   1.320   3.089  0.2852  0.2096 -0.2456
  754SOL    HW1 2261   1.279   1.248   3.050  1.4756  0.4555 -2.0810
  754SOL    HW2 2262   1.216   1.407   3.028  1.0212  1.4241 -2.4309
  755SOL     OW 2263   1.946   0.424   2.206 -0.1831  0.0172 -0.6992
  755SOL    HW1 2264   2.037   0.416   2.259 -0.3195 -0.2802  2.8367
  755SOL    HW2 2265   1.874   0.468   2.264  0.1654 -0.6767  0.3687
  756SOL     OW 2266   2.605   0.951   2.930  0.3027 -0.1690  0.1124
  756SOL    HW1 2267   2.708   0.957   2.929 -1.0586  1.7710 -2.0918
  756SOL    HW2 2268   2.565   0.857   2.969  0.4306 -1.6136 -1.5990
  757SOL     OW 2269   3.051   0.465   1.791  0.1832 -0.3180 -0.0060
  757SOL    HW1 2270   3.115   0.495   1.716 -1.1310  1.7714  0.2176
  757SOL    HW2 2271   3.088   0.380   1.838  4.6349 -1.1940  0.1584
  758SOL     OW 2272   2.383   0.094   1.430  0.1942 -0.2776  0.3364
  758SOL    HW1 2273   2.334   0.019   1.482  0.1300 -2.7280 -0.2524
  758SOL    HW2 2274   2.360   0.074   1.330  0.5372  0.2028 -1.3480
  759SOL     OW 2275   1.695   0.034   0.082 -0.0153  0.3510  0.6945
  759SOL    HW1 2276   1.650   0.034  -0.013  0.2640 -0.2932 -2.9569
  759SOL    HW2 2277   1.787   0.080   0.081 -0.8040 -0.7517 -0.6963
  760SOL     OW 2278   2.744   2.080   2.817 -0.3980  0.3169  0.2035
  760SOL    HW1 2279   2.826   2.013   2.839  2.8347  0.6256 -1.4159
  760SOL    HW2 2280   2.729   2.164   2.878 -1.3626 -0.6994  2.5724
  761SOL     OW 2281   1.957   1.738   1.657 -0.3668 -0.3805 -0.7040
  761SOL    HW1 2282   1.981   1.637   1.667 -0.9044 -0.3706 -2.4331
  761SOL    HW2 2283   1.882   1.755   1.585  0.2010  0.3692  1.2236
  762SOL     OW 2284   0.468   2.339   0.982  0.0435  0.2217  0.4002
  762SOL    HW1 2285   0.511   2.352   0.886 -0.4681 -0.0161  1.4534
  762SOL    HW2 2286   0.482   2.415   1.050 -0.0634 -1.9540  1.0045
  763SOL     OW 2287   2.099   1.530   2.977 -0.2751 -0.4410  0.5348
  763SOL    HW1 2288   2.147   1.443   2.997  0.2280 -0.0458  0.4152
  763SOL    HW2 2289   2.007   1.528   3.020 -0.3496 -1.2213 -0.0303
  764SOL     OW 2290   0.673   0.600   0.866  0.5216  0.0755  0.2629
  764SOL    HW1 2291   0.660   0.562   0.772  0.2984  0.2964  1.0542
  764SOL    HW2 2292   0.766   0.581   0.909  1.9174  0.5597 -0.0867
  765SOL     OW 2293   0.696   0.212   0.853 -0.1642  0.2809  0.1364
  765SOL    HW1 2294   0.711   0.283   0.779 -0.0586 -0.1188  2.0767
  765SOL    HW2 2295   0.669   0.260   0.943 -1.0233 -1.0732  0.9666
  766SOL     OW 2296   2.957   2.095   3.094 -0.3913  0.2315  0.1003
  766SOL    HW1 2297   2.862   2.113   3.120  2.0968  1.9143  2.1081
  766SOL    HW2 2298   3.009   2.177   3.052  1.0284 -1.0832 -1.9643
  767SOL     OW 2299   2.873   1.567   0.534  0.7986 -0.0560 -0.4287
  767SOL    HW1 2300   2.792   1.597   0.596  0.5204 -0.3908  0.1300
  767SOL    HW2 2301   2.965   1.591   0.567 -1.3095  3.4213 -2.6817
  768SOL     OW 2302   1.092   0.224   0.346  0.5205 -0.2636 -0.5450
  768SOL    HW1 2303   1.006   0.179   0.388 -3.4196 -1.2147  0.8186
  768SOL    HW2 2304   1.167   0.156   0.314 -0.1494 -1.5429  0.9696
  769SOL     OW 2305   1.112   1.884   2.258 -0.4418 -0.4595  0.1061
  769SOL    HW1 2306   1.035   1.903   2.323 -0.6719  2.0209 -1.1590
  769SOL    HW2 2307   1.136   1.786   2.234  3.2964 -3.0482 -1.8141
  770SOL     OW 2308   0.135   1.292   2.256  0.4286  0.7396  0.3148
  770SOL    HW1 2309   0.129   1.292   2.363  0.1841  1.8103  0.4060
  770SOL    HW2 2310   0.066   1.232   2.216  1.4745 -0.4995  0.0867
  771SOL     OW 2311   2.954   2.838   1.871  0.5267 -0.2687  0.1737
  771SOL    HW1 2312   2.922   2.888   1.789 -2.4064 -2.4941  0.0229
  771SOL    HW2 2313   2.944   2.899   1.956  3.7102  1.5610 -3.2393
  772SOL     OW 2314   2.176   0.115   2.976  0.2242  0.4102  0.0055
  772SOL    HW1 2315   2.238   0.058   2.919  0.8910 -0.9416 -0.2841
  772SOL    HW2 2316   2.212   0.213   2.986  0.1247 -0.3785 -1.1971
  773SOL     OW 2317   0.731   2.103   2.519 -0.3612 -0.8779  0.4497
  773SOL    HW1 2318   0.717   2.169   2.438 -1.7106 -1.3552 -1.7046
  773SOL    HW2 2319   0.645   2.097   2.576 -0.4439 -0.9072  1.3461
  774SOL     OW 2320   2.039   0.017   2.664  0.3401 -0.0820 -0.1946
  774SOL    HW1 2321   2.066   0.097   2.722 -2.2195  2.3226 -1.0587
  774SOL    HW2 2322   2.097  -0.069   2.686 -2.8357  1.1349 -1.2328
  775SOL     OW 2323   2.517   2.823   2.497 -0.0612  0.6398  0.0271
  775SOL    HW1 2324   2.484   2.883   2.420 -1.0208  1.4443 -0.3160
  775SOL    HW2 2325   2.617   2.818   2.493 -0.7626  0.3164 -0.4864
  776SOL     OW 2326   0.049   1.246   0.247 -0.1809 -0.2696  0.5521
  776SOL    HW1 2327  -0.001   1.249   0.152 -2.1192 -0.1161  1.8794
  776SOL    HW2 2328  -0.014   1.247   0.329 -2.9783  0.1640 -2.3973
  777SOL     OW 2329   0.237   2.747   0.484 -0.2886 -0.8764  0.1372
  777SOL    HW1 2330   0.146   2.763   0.438  1.2162 -2.6457 -2.7806
  777SOL    HW2 2331   0.305   2.823   0.477 -0.1513 -0.1121  1.0518
  778SOL     OW 2332   1.358   1.990   0.170 -0.2017  0.4442  0.2460
  778SOL    HW1 2333   1.329   1.995   0.268 -1.4711  0.8471  0.0809
  778SOL    HW2 2334   1.335   2.078   0.119  0.8663 -1.0696 -0.0139
  779SOL     OW 2335   0.189   0.790   0.508 -0.0666 -0.3145  0.0520
  779SOL    HW1 2336   0.133   0.703   0.483 -1.8201 -0.3517  0.9743
  779SOL    HW2 2337   0.142   0.847   0.581 -0.8309 -0.2714  2.0476
  780SOL     OW 2338   0.040   0.280   2.296 -0.0377  0.4847  0.2808
  780SOL    HW1 2339   0.025   0.383   2.294  0.4611 -0.4677 -0.3384
  780SOL    HW2 2340   0.130   0.255   2.247  0.9103  3.7181  1.8525
  781SOL     OW 2341   0.656   1.717   1.560 -0.3257 -0.0492 -0.1327
  781SOL    HW1 2342   0.668   1.714   1.665  2.0980  0.8272  1.9378
  781SOL    HW2 2343   0.558   1.718   1.536 -2.9264  0.9014 -0.7697
  782SOL     OW 2344   2.597   0.149   0.883  0.0049  0.1009 -0.1078
  782SOL    HW1 2345   2.517   0.149   0.815 -2.1171  0.0238 -1.0435
  782SOL    HW2 2346   2.586   0.213   0.963 -0.0264 -0.3076 -1.0063
  783SOL     OW 2347   2.821   0.664   2.536  0.1728  0.5799 -0.1112
  783SOL    HW1 2348   2.792   0.664   2.639 -0.9006 -3.3416  1.1751
  783SOL    HW2 2349   2.770   0.586   2.483 -2.3087 -0.1156 -0.9825
  784SOL     OW 2350   1.363   2.244   0.050 -0.4770  0.6952  0.1685
  784SOL    HW1 2351   1.446   2.296   0.087  1.2867 -1.3756  1.1845
  784SOL    HW2 2352   1.385   2.202  -0.041  0.8640 -2.4284 -0.9415
  785SOL     OW 2353   2.197   0.374   3.064 -0.1486  0.2042 -0.3755
  785SOL    HW1 2354   2.106   0.363   3.114  1.0602 -1.9996  1.1116
  785SOL    HW2 2355   2.216   0.470   3.036  1.3821 -1.7914  2.1780
  786SOL     OW 2356   2.049   2.130   2.198 -0.3261 -0.2452  0.3721
  786SOL    HW1 2357   2.003   2.041   2.222  0.1973 -2.1605 -1.1679
  786SOL    HW2 2358   2.135   2.141   2.263  2.5002 -1.3504  1.3581
  787SOL     OW 2359   1.400   0.608   0.876 -0.2233 -0.2642 -0.1057
  787SOL    HW1 2360   1.342   0.679   0.925 -0.2254 -0.9411  0.4411
  787SOL    HW2 2361   1.369   0.585   0.780  0.6171  0.4874 -0.6535
  788SOL     OW 2362   1.219   0.405   3.036  0.0953 -0.2802  0.1512
  788SOL    HW1 2363   1.130   0.436   2.986 -4.0080  1.3954  0.3672
  788SOL    HW2 2364   1.281   0.487   3.046  4.2966 -2.6617 -1.5525
  789SOL     OW 2365   2.601   0.080   1.789 -0.1365  0.0312 -0.3370
  789SOL    HW1 2366   2.511   0.138   1.810 -3.0919 -0.5158 -1.5322
  789SOL    HW2 2367   2.581  -0.018   1.808 -1.9676  3.4562 -1.4340
  790SOL     OW 2368   2.546   2.685   0.847 -0.9661 -0.4880 -0.4608
  790SOL    HW1 2369   2.622   2.754   0.872  2.6460  3.0181 -0.8285
  790SOL    HW2 2370   2.535   2.613   0.921  1.4894  1.2593  1.8858
  791SOL     OW 2371   1.934   1.269   0.254  0.1986  0.0563 -0.4569
  791SOL    HW1 2372   1.847   1.213   0.279  0.1777 -2.2764  1.5272
  791SOL    HW2 2373   2.016   1.212   0.219  0.4134 -0.9347  1.8873
  792SOL     OW 2374   0.449   2.018   2.149 -0.3080  0.2934  0.9406
  792SOL    HW1 2375   0.501   2.096   2.195  0.4425 -0.6936  2.4047
  792SOL    HW2 2376   0.390   1.969   2.220  1.4702 -0.9967 -1.6918
  793SOL     OW 2377   2.091   1.552   2.088  0.1680 -0.0602 -0.0636
  793SOL    HW1 2378   2.151   1.621   2.034  1.3971  1.3139  3.1844
  793SOL    HW2 2379   2.092   1.457   2.049  1.4087  3.5502  1.5418
  794SOL     OW 2380   0.470   1.374   2.472  0.0340  0.1138 -0.2236
  794SOL    HW1 2381   0.473   1.317   2.382 -1.1365  0.2107  1.3054
  794SOL    HW2 2382   0.415   1.462   2.462  0.1022 -2.1415  0.0357
  795SOL     OW 2383   2.477   2.363   1.799  0.3127 -0.5102  0.4076
  795SOL    HW1 2384   2.477   2.356   1.897 -2.0365  0.8596 -1.9043
  795SOL    HW2 2385   2.418   2.291   1.753  0.4261 -1.3414  0.5458
  796SOL     OW 2386   3.100   1.069   2.700 -0.0860 -0.3410  0.0828
  796SOL    HW1 2387   3.004   1.045   2.744 -2.1084 -0.8095  0.5692
  796SOL    HW2 2388   3.184   1.087   2.763  1.1541  0.0132  0.3930
  797SOL     OW 2389   0.773   0.665   1.333  0.1574 -0.3741  0.2832
  797SOL    HW1 2390   0.822   0.718   1.413  1.4733  0.9583  1.7561
  797SOL    HW2 2391   0.713   0.735   1.281 -0.4268  1.5827  0.3763
  798SOL     OW 2392   1.328   0.430   1.063 -0.5168  0.0706 -0.1088
  798SOL    HW1 2393   1.332   0.469   1.157 -1.8587 -1.2765  2.3074
  798SOL    HW2 2394   1.365   0.486   0.983  0.1532 -2.0789  1.4354
  799SOL     OW 2395   1.935   2.702   1.034 -0.6257  0.4143 -0.2862
  799SOL    HW1 2396   1.893   2.615   1.074 -1.2869 -1.0125  1.2492
  799SOL    HW2 2397   1.960   2.681   0.940  1.0931 -0.1990  0.6903
  800SOL     OW 2398   2.933   0.822   1.864  0.3473 -0.1985  0.1835
  800SOL    HW1 2399   2.985   0.906   1.895  1.0001 -0.2629 -2.8084
  800SOL    HW2 2400   2.832   0.833   1.887  0.6232  0.5002  1.6554
  801SOL     OW 2401   1.971   2.143   0.051  0.1822 -0.4920 -0.1520
  801SOL    HW1 2402   1.900   2.159  -0.021 -0.0994  0.5955 -0.6609
  801SOL    HW2 2403   2.065   2.124   0.007 -0.3513  0.5091  0.9862
  802SOL     OW 2404   0.702   0.738   2.515  0.4093 -0.9231 -0.4517
  802SOL    HW1 2405   0.768   0.702   2.444 -0.9414  3.3169 -0.1352
  802SOL    HW2 2406   0.602   0.729   2.484 -0.2703  1.8397 -0.4210
  803SOL     OW 2407   0.966   0.088   0.894  0.3207 -0.3594  0.1072
  803SOL    HW1 2408   1.048   0.149   0.913 -2.9337  1.9284  2.9492
  803SOL    HW2 2409   0.883   0.136   0.858  0.5865 -1.2611 -1.3127
  804SOL     OW 2410   0.290   3.051   2.190 -0.1043  0.1058 -0.4684
  804SOL    HW1 2411   0.290   3.158   2.187 -1.6660  0.7379  2.7178
  804SOL    HW2 2412   0.247   3.016   2.100  0.0547  2.9196 -2.5993
  805SOL     OW 2413   2.337   0.419   0.333 -0.0308 -0.0689 -0.1993
  805SOL    HW1 2414   2.413   0.424   0.401  0.2541 -2.4312 -0.2741
  805SOL    HW2 2415   2.362   0.358   0.253 -0.8601  3.6126  0.4117
  806SOL     OW 2416   0.673   2.477   1.795 -0.7551  0.4324 -0.1425
  806SOL    HW1 2417   0.625   2.567   1.819 -1.7286 -1.4234  1.0517
  806SOL    HW2 2418   0.739   2.491   1.716 -1.8883  1.7242 -0.4844
  807SOL     OW 2419   2.504   0.933   0.434 -0.1290  0.4372 -0.0487
  807SOL    HW1 2420   2.590   0.880   0.447 -3.4229 -1.7006  0.6607
  807SOL    HW2 2421   2.482   0.931   0.329 -0.7290  2.4072 -1.6116
  808SOL     OW 2422   0.645   2.045   2.894 -0.3948 -0.8862 -0.5494
  808SOL    HW1 2423   0.622   2.083   2.986 -1.0286 -0.6419 -1.2680
  808SOL    HW2 2424   0.676   1.947   2.894 -0.9670  1.4412 -1.7777
  809SOL     OW 2425   2.562   1.986   1.853 -0.0446  0.2778  0.5700
  809SOL    HW1 2426   2.643   2.046   1.851  0.1618 -1.1537  2.3647
  809SOL    HW2 2427   2.525   1.968   1.758  0.0889 -2.1051 -0.8513
  810SOL     OW 2428   2.176   1.107   0.500 -0.6480 -0.1803  0.2757
  810SOL    HW1 2429   2.180   1.041   0.577  1.6714 -0.9941  0.0707
  810SOL    HW2 2430   2.143   1.196   0.527  2.7462 -1.3608  0.7417
  811SOL     OW 2431   1.391   2.547   1.194 -0.1325  0.5922  0.0848
  811SOL    HW1 2432   1.399   2.444   1.212 -2.6518  0.2998 -0.1912
  811SOL    HW2 2433   1.336   2.597   1.266 -0.9579 -2.4772  0.6871
  812SOL     OW 2434   1.407   0.769   1.980 -0.1205  0.3208 -0.1878
  812SOL    HW1 2435   1.338   0.732   1.913  0.4328  1.0714 -2.0153
  812SOL    HW2 2436   1.433   0.865   1.969  0.4086  0.9016 -0.4496
  813SOL     OW 2437   1.607   2.067   2.435 -0.4315  0.1510 -0.0853
  813SOL    HW1 2438   1.648   1.980   2.477 -1.9070  1.9220  1.3770
  813SOL    HW2 2439   1.588   2.052   2.334  0.7578 -0.7312 -1.2307
  814SOL     OW 2440   3.000   1.604   2.855  0.2324  0.2678  0.6781
  814SOL    HW1 2441   3.086   1.562   2.902 -1.6726  0.3568 -2.3349
  814SOL    HW2 2442   2.995   1.706   2.867  1.0406 -0.3337  1.6805
  815SOL     OW 2443   2.195   2.897   2.755  0.4596 -0.3230  0.5013
  815SOL    HW1 2444   2.170   2.813   2.809  1.9478 -0.1962  0.9184
  815SOL    HW2 2445   2.291   2.928   2.779 -2.3745  0.4896  0.8289
  816SOL     OW 2446   1.590   0.346   1.672 -0.4684  0.1098 -0.2557
  816SOL    HW1 2447   1.656   0.271   1.692 -1.0032 -0.2490 -1.8640
  816SOL    HW2 2448   1.548   0.389   1.758 -2.4124  0.1923  1.9926
  817SOL     OW 2449   0.393   1.176   2.666 -0.2801 -0.4308  0.1234
  817SOL    HW1 2450   0.312   1.204   2.720  0.2412  0.1715 -2.3215
  817SOL    HW2 2451   0.418   1.248   2.596 -2.0354 -0.6228  0.4240
  818SOL     OW 2452   1.947   0.824   0.439  0.4334 -0.2758 -0.0648
  818SOL    HW1 2453   2.051   0.832   0.430  1.4341  1.5960  0.0184
  818SOL    HW2 2454   1.900   0.888   0.506  0.0599 -1.7894 -0.8161
  819SOL     OW 2455   2.754   2.960   3.083 -0.4811  0.4416 -0.7664
  819SOL    HW1 2456   2.756   2.876   3.147 -0.5699 -0.1440 -1.4233
  819SOL    HW2 2457   2.708   2.944   2.990  0.6613 -0.3671 -0.0692
  820SOL     OW 2458   1.245   1.044   0.516  0.3313 -0.4017 -0.3963
  820SOL    HW1 2459   1.238   1.142   0.551 -0.4440 -0.8903  0.0652
  820SOL    HW2 2460   1.255   0.982   0.603 -2.5599  1.2507 -0.4655
  821SOL     OW 2461   0.045   1.257   0.720 -0.4269 -0.4913  0.1804
  821SOL    HW1 2462   0.006   1.255   0.813  1.0752 -1.0874 -0.8966
  821SOL    HW2 2463   0.112   1.336   0.709  1.5049  2.3423  2.9024
  822SOL     OW 2464   2.533   1.805   2.464 -0.4631 -0.0133  0.3002
  822SOL    HW1 2465   2.538   1.884   2.529 -0.2245 -0.2877 -0.7971
  822SOL    HW2 2466   2.458   1.815   2.392  1.3277  0.0818 -0.4099
  823SOL     OW 2467   2.015   0.882   1.137 -0.4368  0.0351  0.0431
  823SOL    HW1 2468   1.986   0.860   1.237 -0.0848  1.6819  1.6506
  823SOL    HW2 2469   1.941   0.892   1.070  0.5437 -0.7201  2.1786
  824SOL     OW 2470   0.211   1.984   2.798  0.0398  0.4265 -0.0813
  824SOL    HW1 2471   0.246   1.924   2.880 -2.7105 -1.1254 -0.0265
  824SOL    HW2 2472   0.251   1.967   2.700  2.1213  0.3699 -0.8298
  825SOL     OW 2473   1.315   1.038   0.260 -0.0037  0.5195  0.1164
  825SOL    HW1 2474   1.332   1.135   0.237  1.6213 -2.3640 -0.1840
  825SOL    HW2 2475   1.273   1.026   0.359  0.3438 -0.9292  1.5914
  826SOL     OW 2476   1.922   0.632   1.591  0.1557 -0.3172  0.2258
  826SOL    HW1 2477   2.005   0.574   1.610  1.2503  0.6296  0.2901
  826SOL    HW2 2478   1.844   0.575   1.552  1.9610 -0.6950 -1.0614
  827SOL     OW 2479   0.644   1.226   0.299  0.1024  0.2349 -0.0226
  827SOL    HW1 2480   0.722   1.177   0.251  2.2541  0.0131  0.5835
  827SOL    HW2 2481   0.582   1.161   0.352  0.9382 -1.0525  3.1761
  828SOL     OW 2482   2.659   0.109   1.526  0.2304  0.1313  0.0282
  828SOL    HW1 2483   2.566   0.126   1.489 -0.7654  1.1718  0.0901
  828SOL    HW2 2484   2.664   0.109   1.631 -1.1078 -1.9246 -0.0965
  829SOL     OW 2485   2.952   2.370   2.826  0.1760 -0.1025  0.0105
  829SOL    HW1 2486   2.858   2.360   2.870 -1.7481  1.2079 -1.6745
  829SOL    HW2 2487   2.974   2.468   2.800 -0.2737  2.5172  0.6947
  830SOL     OW 2488   2.882   0.972   3.056  0.0894 -0.8365  0.2213
  830SOL    HW1 2489   2.940   1.055   3.084  3.1012  0.5102 -3.6353
  830SOL    HW2 2490   2.861   0.901   3.134  1.0547 -0.5055  2.4898
  831SOL     OW 2491   0.046   0.552   0.431 -0.6673 -0.1769 -0.0332
  831SOL    HW1 2492   0.024   0.468   0.490 -1.8603 -0.3984 -2.1793
  831SOL    HW2 2493   0.095   0.531   0.340  0.0760  0.3061 -0.7659
  832SOL     OW 2494   1.833   0.777   3.043  0.1976 -0.3301  0.3860
  832SOL    HW1 2495   1.758   0.807   2.978  0.6045 -1.5443 -1.5920
  832SOL    HW2 2496   1.834   0.673   3.038  0.6218  0.5261 -0.8351
  833SOL     OW 2497   2.419   2.059   0.465  0.6963 -0.1965 -0.2269
  833SOL    HW1 2498   2.312   2.054   0.464 -1.1074 -1.7142  2.8339
  833SOL    HW2 2499   2.465   1.967   0.465 -3.0114  2.0225 -1.4210
  834SOL     OW 2500   0.146   0.105   0.540  0.4034  0.0253  0.3009
  834SOL    HW1 2501   0.173   0.011   0.582  0.3343  0.5608  0.0812
  834SOL    HW2 2502   0.122   0.100   0.438  0.0508 -0.6964  0.5733
  835SOL     OW 2503   2.405   1.517   1.159  0.2520  0.0617  0.4377
  835SOL    HW1 2504   2.483   1.539   1.226 -0.1852  2.5995 -1.6724
  835SOL    HW2 2505   2.452   1.487   1.071  1.8036 -1.3819 -0.3350
  836SOL     OW 2506   1.623   0.851   2.570 -0.5381 -0.5565 -0.2691
  836SOL    HW1 2507   1.531   0.803   2.589  0.4100  0.6304  1.0886
  836SOL    HW2 2508   1.637   0.880   2.472 -0.0274 -0.6632 -0.1061
  837SOL     OW 2509   1.635   0.047   0.586  0.1416 -0.0587  0.5662
  837SOL    HW1 2510   1.586   0.108   0.651  1.9598  0.5648 -0.7044
  837SOL    HW2 2511   1.609   0.067   0.485 -0.1263 -0.6767 -0.3132
  838SOL     OW 2512   1.225   1.368   2.765  0.0787 -0.2584 -0.7029
  838SOL    HW1 2513   1.216   1.449   2.832  0.2152 -1.8012  0.1781
  838SOL    HW2 2514   1.143   1.367   2.697 -1.1331  1.0238 -0.9360
  839SOL     OW 2515   1.612   0.346   1.014 -0.1314  0.8542  0.3494
  839SOL    HW1 2516   1.628   0.390   1.107 -0.6385  1.5681  0.6065
  839SOL    HW2 2517   1.580   0.244   1.019 -0.1026  0.7291 -2.8008
  840SOL     OW 2518   2.563   2.915   1.781  0.5866  0.2207 -0.2140
  840SOL    HW1 2519   2.534   2.879   1.690  2.8499  1.5731 -1.0818
  840SOL    HW2 2520   2.546   2.853   1.859 -2.6428  1.2396 -0.8328
  841SOL     OW 2521   1.566   0.872   2.967 -0.0893  0.0340 -0.0974
  841SOL    HW1 2522   1.544   0.855   3.068 -3.2102 -0.4850  0.0178
  841SOL    HW2 2523   1.528   0.963   2.939 -0.7572 -1.3224  0.5875
  842SOL     OW 2524   0.804   1.535   1.003 -0.2908  0.0192 -0.3285
  842SOL    HW1 2525   0.766   1.625   1.045 -3.9782  0.7468  1.7278
  842SOL    HW2 2526   0.746   1.503   0.919 -2.3084 -1.2741  0.1092
  843SOL     OW 2527   0.127   0.120   1.462 -0.1694  0.6265 -0.4986
  843SOL    HW1 2528   0.193   0.168   1.522 -0.2162 -2.1447  2.0950
  843SOL    HW2 2529   0.161   0.029   1.428 -0.4263 -0.2587 -1.4226
  844SOL     OW 2530   0.784   2.480   0.268  0.1189 -0.0994 -0.6414
  844SOL    HW1 2531   0.749   2.504   0.363  0.1960  1.2801  0.4965
  844SOL    HW2 2532   0.703   2.482   0.202 -2.7007 -2.6501 -0.2423
  845SOL     OW 2533   1.681   2.937   1.365  0.3775 -0.4901 -0.0421
  845SOL    HW1 2534   1.734   2.938   1.454  1.1124  1.5360  1.6951
  845SOL    HW2 2535   1.649   3.033   1.344  0.5179 -0.7015  0.7545
  846SOL     OW 2536   1.696   2.959   0.911  0.4114  0.0301  0.2126
  846SOL    HW1 2537   1.641   2.922   0.830 -0.1278 -2.0901  0.3174
  846SOL    HW2 2538   1.795   2.957   0.888 -1.5344 -0.2897 -0.9323
  847SOL     OW 2539   2.054   1.632   0.230  0.4389 -0.5543 -0.0827
  847SOL    HW1 2540   1.990   1.603   0.303 -0.4838 -0.2994 -1.3576
  847SOL    HW2 2541   2.012   1.629   0.132  1.8009 -1.9666 -0.6084
  848SOL     OW 2542   2.466   0.822   2.671  0.0758  0.3722 -0.1000
  848SOL    HW1 2543   2.468   0.927   2.682 -0.8256  2.3803  1.5892
  848SOL    HW2 2544   2.394   0.788   2.611 -0.4408  3.2370  2.1745
  849SOL     OW 2545   2.445   0.848   2.298 -0.0726 -0.4450  0.0374
  849SOL    HW1 2546   2.516   0.824   2.225 -1.3876  0.7550  0.5317
  849SOL    HW2 2547   2.453   0.788   2.380 -0.2142 -1.1076 -0.9230
  850SOL     OW 2548   1.575   0.066   1.287 -0.3623  0.6195 -0.8898
  850SOL    HW1 2549   1.545   0.100   1.191 -1.6994 -1.1759 -0.9442
  850SOL    HW2 2550   1.499   0.018   1.343  1.6146  2.5419 -1.2238
  851SOL     OW 2551   0.458   1.721   0.688  0.3046  0.3201 -0.3594
  851SOL    HW1 2552   0.515   1.805   0.702  0.4704 -0.0540  0.4877
  851SOL    HW2 2553   0.495   1.636   0.728 -1.2884 -1.7484 -1.8125
  852SOL     OW 2554   0.806   2.124   1.653  0.1040 -0.2671  0.5284
  852SOL    HW1 2555   0.828   2.225   1.626  3.2350  1.2649 -2.5781
  852SOL    HW2 2556   0.744   2.112   1.731 -0.9262  1.5238 -1.1710
  853SOL     OW 2557   2.525   1.563   2.600  0.5687  0.0587 -0.2468
  853SOL    HW1 2558   2.488   1.481   2.555  2.9997 -1.3104 -2.7985
  853SOL    HW2 2559   2.513   1.650   2.542  0.4770 -0.6709 -0.2728
  854SOL     OW 2560   2.482   1.405   1.787 -0.6165  0.1011 -0.4371
  854SOL    HW1 2561   2.537   1.379   1.705  0.8159  1.3245  1.9051
  854SOL    HW2 2562   2.478   1.326   1.856 -1.9328  1.5557 -0.4488
  855SOL     OW 2563   2.067   2.334   0.946 -0.0605  0.0491 -0.5879
  855SOL    HW1 2564   2.116   2.414   0.901 -0.7589  2.6475 -0.0113
  855SOL    HW2 2565   2.117   2.315   1.035  1.0398 -0.0494 -1.6495
  856SOL     OW 2566   1.391   1.380   0.918  0.3198  0.0438 -0.0286
  856SOL    HW1 2567   1.442   1.471   0.928  2.2200 -2.3616 -2.6657
  856SOL    HW2 2568   1.311   1.364   0.987 -0.1313 -1.0338  3.1102
  857SOL     OW 2569   2.985   2.603   1.089 -0.4183  0.2951 -0.4235
  857SOL    HW1 2570   2.892   2.567   1.074  1.0649  1.8710  1.3454
  857SOL    HW2 2571   3.059   2.543   1.046 -1.1653  0.4363  1.8424
  858SOL     OW 2572   2.311   2.171   1.700  0.4085  0.0729  0.0577
  858SOL    HW1 2573   2.208   2.166   1.695 -0.8916 -0.5161 -3.3822
  858SOL    HW2 2574   2.350   2.085   1.656 -2.8826  0.7317 -0.7385
  859SOL     OW 2575   2.439   0.499   1.063  0.3616 -0.6726  0.2579
  859SOL    HW1 2576   2.498   0.557   0.997  1.0403  0.9412  1.0725
  859SOL    HW2 2577   2.494   0.423   1.100 -1.2434  3.1583 -3.3850
  860SOL     OW 2578   1.927   2.776   0.448  0.0771 -0.0950  0.3413
  860SOL    HW1 2579   1.920   2.710   0.367  0.8728 -1.5084  4.0056
  860SOL    HW2 2580   1.998   2.843   0.422  2.1893 -0.8047  0.5428
  861SOL     OW 2581   1.118   2.600   2.779 -0.1288  0.1162 -0.3906
  861SOL    HW1 2582   1.133   2.696   2.747  0.5805 -3.6093 -0.2977
  861SOL    HW2 2583   1.158   2.585   2.873 -1.9627 -0.3068 -0.7170
  862SOL     OW 2584   2.904   2.503   1.611  0.1139  0.4920 -0.2852
  862SOL    HW1 2585   2.984   2.527   1.675  3.2541 -1.8175  2.8187
  862SOL    HW2 2586   2.860   2.584   1.577  1.1282  0.8620 -0.3618
  863SOL     OW 2587   1.869   2.643   0.210  0.2033 -0.4940 -0.0008
  863SOL    HW1 2588   1.911   2.545   0.217 -0.4262 -3.6091  1.3237
  863SOL    HW2 2589   1.767   2.629   0.219  0.8780 -0.1357 -2.6036
  864SOL     OW 2590   1.844   1.169   2.923  0.1115  0.2034 -0.6092
  864SOL    HW1 2591   1.877   1.155   2.827 -1.5058 -3.8248  2.1170
  864SOL    HW2 2592   1.919   1.192   2.995 -0.9524  2.6142  1.6220
  865SOL     OW 2593   2.208   1.824   0.686 -0.2259 -0.9780  0.4044
  865SOL    HW1 2594   2.273   1.802   0.766  3.2413 -1.5715 -2.3820
  865SOL    HW2 2595   2.108   1.783   0.699 -0.5593  0.9249  0.4817
  866SOL     OW 2596   2.931   2.908   0.981  0.1761  0.0680  0.2709
  866SOL    HW1 2597   2.998   2.929   0.904 -1.6905 -0.0683 -0.3083
  866SOL    HW2 2598   2.939   2.808   1.017 -1.1400 -1.0673  0.7660
  867SOL     OW 2599   0.386   1.346   0.894  0.3510 -0.0943 -0.3492
  867SOL    HW1 2600   0.402   1.260   0.834  1.2040 -0.4073  0.3121
  867SOL    HW2 2601   0.318   1.410   0.848  0.5698  0.8993 -2.9746
  868SOL     OW 2602   0.788   1.924   2.026  0.3630 -0.1597 -0.4092
  868SOL    HW1 2603   0.748   1.894   2.116  0.7083  3.3941 -0.4538
  868SOL    HW2 2604   0.734   2.010   1.986  1.2550 -0.2474 -1.4288
  869SOL     OW 2605   2.482   1.932   1.591 -0.2180  0.4844 -0.4835
  869SOL    HW1 2606   2.565   1.991   1.570 -0.3426 -0.1928 -1.1552
  869SOL    HW2 2607   2.483   1.843   1.540 -1.8890  1.4481  0.3765
  870SOL     OW 2608   2.269   2.599   1.246 -0.1814  0.0554 -0.4807
  870SOL    HW1 2609   2.230   2.505   1.215 -1.3762  0.1709  0.4471
  870SOL    HW2 2610   2.243   2.621   1.345  0.9600  1.8295  3.1345
  871SOL     OW 2611   2.991   2.091   0.569 -0.1105 -0.1662 -0.1083
  871SOL    HW1 2612   2.932   2.168   0.611 -0.2422  0.2675 -1.0515
  871SOL    HW2 2613   2.941   2.062   0.481 -1.3487 -3.3557  0.3973
  872SOL     OW 2614   2.137   0.484   1.701  0.1300  0.3686  0.2144
  872SOL    HW1 2615   2.099   0.459   1.794 -0.5261 -2.1720 -1.3120
  872SOL    HW2 2616   2.240   0.463   1.693  0.1835 -1.9259 -3.3493
  873SOL     OW 2617   1.717   2.088   2.960 -0.3595 -0.0253 -0.2810
  873SOL    HW1 2618   1.682   2.168   3.016 -0.0274 -1.0341 -0.7272
  873SOL    HW2 2619   1.656   2.067   2.879  1.1911 -2.0521 -0.7475
  874SOL     OW 2620   0.636   2.457   0.782  0.7011 -0.2443 -0.4437
  874SOL    HW1 2621   0.598   2.545   0.821 -0.1945 -2.7318  0.1733
  874SOL    HW2 2622   0.740   2.446   0.803  2.7437  0.4806  1.6346
  875SOL     OW 2623   2.256   1.503   1.443 -0.5471  1.1887  0.0471
  875SOL    HW1 2624   2.353   1.520   1.480  0.8543  0.1392  0.6369
  875SOL    HW2 2625   2.230   1.545   1.351  2.4437 -0.5763  1.4859
  876SOL     OW 2626   0.125   2.235   2.691  0.6309 -0.1762 -0.5076
  876SOL    HW1 2627   0.149   2.147   2.745 -1.6830 -2.4088 -2.2796
  876SOL    HW2 2628   0.147   2.324   2.735 -0.4321 -1.7712 -1.6935
  877SOL     OW 2629   2.793   2.672   0.652 -0.4167 -0.3190  0.4471
  877SOL    HW1 2630   2.826   2.772   0.671  1.0213 -1.2155  0.9295
  877SOL    HW2 2631   2.859   2.603   0.680 -1.6601  1.4524 -2.5283
  878SOL     OW 2632   2.866   1.507   2.223  0.3021 -0.9945  0.6954
  878SOL    HW1 2633   2.970   1.521   2.213  1.6684 -2.2030 -1.6327
  878SOL    HW2 2634   2.832   1.543   2.314  0.1343 -1.9641  2.3924
  879SOL     OW 2635   2.390   0.040   1.165 -0.1365 -0.1650  0.4064
  879SOL    HW1 2636   2.439  -0.044   1.196  0.8391  0.8899  0.6913
  879SOL    HW2 2637   2.311   0.020   1.102 -0.1559  1.7793 -0.3105
  880SOL     OW 2638   0.703   0.472   2.211 -0.2221  0.2087  0.1040
  880SOL    HW1 2639   0.620   0.420   2.241 -1.4168 -0.2505  2.2079
  880SOL    HW2 2640   0.758   0.421   2.137  2.3049 -3.8559 -0.7192
  881SOL     OW 2641   0.900   0.050   0.466 -0.4227 -0.0249 -0.6030
  881SOL    HW1 2642   0.916  -0.048   0.485 -1.9918 -0.4776 -1.0537
  881SOL    HW2 2643   0.845   0.061   0.375 -1.4745 -1.5219 -1.7460
  882SOL     OW 2644   2.689   1.614   1.675  0.3357 -0.0336  0.2387
  882SOL    HW1 2645   2.781   1.596   1.637 -2.5096 -0.4193  2.0940
  882SOL    HW2 2646   2.690   1.670   1.766 -1.5360 -1.1538  3.1449
  883SOL     OW 2647   0.938   0.587   0.940  0.1032 -0.1055  0.2081
  883SOL    HW1 2648   0.947   0.682   0.984 -2.4258  2.7141  0.2560
  883SOL    HW2 2649   0.962   0.505   1.003  2.3008  0.4911  0.7915
  884SOL     OW 2650   1.189   1.826   1.081 -0.0087  0.4049  0.2160
  884SOL    HW1 2651   1.170   1.756   1.007  0.9064 -2.2060 -3.0432
  884SOL    HW2 2652   1.156   1.918   1.041 -1.9822 -0.2058 -0.6683
  885SOL     OW 2653   2.312   1.850   2.284  0.2647  0.1071 -0.3646
  885SOL    HW1 2654   2.247   1.782   2.336 -2.5947 -1.5132  1.5962
  885SOL    HW2 2655   2.312   1.947   2.326  1.9278  0.3387  0.6039
  886SOL     OW 2656   2.642   0.464   1.777  0.3056  0.0131 -0.1774
  886SOL    HW1 2657   2.694   0.394   1.830 -1.4412  0.5003 -0.1782
  886SOL    HW2 2658   2.704   0.535   1.737  0.1592  2.2518  0.3253
  887SOL     OW 2659   0.135   2.066   1.221 -0.2821 -0.3982  0.3498
  887SOL    HW1 2660   0.065   2.035   1.145 -0.8591  0.2035 -1.4967
  887SOL    HW2 2661   0.155   2.168   1.219  1.3002  0.2483  1.1679
  888SOL     OW 2662   0.555   1.343   1.547 -0.1564 -0.4698 -0.1551
  888SOL    HW1 2663   0.612   1.380   1.472 -0.0359  0.4349  0.6567
  888SOL    HW2 2664   0.533   1.242   1.539 -0.5978 -0.8880  0.9682
  889SOL     OW 2665   0.822   2.491   2.164  0.3204 -0.3841  0.0216
  889SOL    HW1 2666   0.766   2.401   2.146  0.0721 -1.8103 -2.9293
  889SOL    HW2 2667   0.890   2.499   2.081 -0.7784  0.0221 -1.8448
  890SOL     OW 2668   2.363   2.464   0.194  0.0605 -0.1668  0.2065
  890SOL    HW1 2669   2.338   2.515   0.105 -0.3828 -0.6785 -1.1884
  890SOL    HW2 2670   2.297   2.481   0.273  1.1764  0.5074  1.5897
  891SOL     OW 2671   2.648   1.534   0.684 -0.1658 -0.4542 -0.4497
  891SOL    HW1 2672   2.704   1.485   0.758  1.1790 -2.0604 -1.4559
  891SOL    HW2 2673   2.544   1.526   0.698 -3.7904  1.3212 -1.1827
  892SOL     OW 2674   0.282   0.219   2.188 -0.4471  0.0299  0.3167
  892SOL    HW1 2675   0.286   0.245   2.086 -1.4325 -1.5978  1.4143
  892SOL    HW2 2676   0.353   0.270   2.243 -0.7992  1.0095 -0.3552
  893SOL     OW 2677   1.639   0.234   2.776  0.4047 -0.0729 -0.2767
  893SOL    HW1 2678   1.726   0.294   2.777 -0.3963  2.7178  1.0574
  893SOL    HW2 2679   1.554   0.301   2.772  0.2222  1.4515  4.0489
  894SOL     OW 2680   2.267   2.022   0.030 -0.2573 -0.2419  0.3226
  894SOL    HW1 2681   2.212   1.985  -0.055 -1.9873  0.6590 -1.0959
  894SOL    HW2 2682   2.274   1.959   0.109 -1.0917  0.9902  1.2419
  895SOL     OW 2683   2.855   1.449   0.865 -0.3314 -0.2532 -0.0812
  895SOL    HW1 2684   2.895   1.393   0.945  1.0860 -2.3051  1.2426
  895SOL    HW2 2685   2.929   1.475   0.801 -0.6935 -0.4144  1.1785
  896SOL     OW 2686   1.788   1.791   1.152 -0.6175 -0.3050 -0.0754
  896SOL    HW1 2687   1.844   1.822   1.069  0.4495  0.1168  0.1992
  896SOL    HW2 2688   1.706   1.857   1.160 -0.2353  2.6490  1.4779
  897SOL     OW 2689   0.269   0.550   3.036  0.0675  0.4567 -0.1355
  897SOL    HW1 2690   0.238   0.642   2.997 -0.9347 -0.4999 -1.6673
  897SOL    HW2 2691   0.364   0.565   3.072  2.0149 -1.9841  0.7067
  898SOL     OW 2692   0.597   2.827   1.110 -0.3370 -0.2751  0.3379
  898SOL    HW1 2693   0.548   2.918   1.131  0.9572  2.1191 -2.7590
  898SOL    HW2 2694   0.701   2.831   1.134 -0.7644  1.7403 -0.4977
  899SOL     OW 2695   2.741   0.920   1.231  0.0991  0.6579 -0.0409
  899SOL    HW1 2696   2.665   0.876   1.178  1.1508  0.9062  3.2112
  899SOL    HW2 2697   2.819   0.944   1.170  0.2854 -0.4273  2.0570
  900SOL     OW 2698   0.978   2.579   2.363 -0.0987 -0.3652  0.3890
  900SOL    HW1 2699   0.909   2.548   2.294 -2.1980 -0.7363  0.2312
  900SOL    HW2 2700   0.962   2.538   2.456  2.3600 -2.2255 -0.6411
  901SOL     OW 2701   1.888   2.374   1.380  0.2472  0.6465  0.4699
  901SOL    HW1 2702   1.855   2.388   1.280  0.2220 -0.0093 -2.0315
  901SOL    HW2 2703   1.984   2.330   1.389  3.4176  0.8534 -1.9889
  902SOL     OW 2704   2.581   1.655   1.428  0.6298 -0.1811 -0.3719
  902SOL    HW1 2705   2.600   1.637   1.529  0.7959 -1.3273  1.1606
  902SOL    HW2 2706   2.660   1.628   1.366  0.1120 -1.5878  0.4415
  903SOL     OW 2707   0.242   2.468   1.995  0.3153  0.0887 -0.1769
  903SOL    HW1 2708   0.160   2.412   1.967 -0.8559 -0.6456  0.5288
  903SOL    HW2 2709   0.269   2.538   1.927  2.8845 -1.5392  1.1584
  904SOL     OW 2710   2.020   0.721   2.380 -0.7816  0.4603 -0.1500
  904SOL    HW1 2711   1.978   0.684   2.467  0.4975 -0.2812 -1.7344
  904SOL    HW2 2712   1.961   0.703   2.298 -0.7173  2.0897 -0.5082
  905SOL     OW 2713   2.814   0.076   2.592 -0.0238  0.0481 -0.2938
  905SOL    HW1 2714   2.878  -0.002   2.566  0.0956  0.3899  0.1545
  905SOL    HW2 2715   2.836   0.169   2.544  1.0556  0.9608  0.3561
  906SOL     OW 2716   0.151   1.757   1.877  0.3824 -0.2847 -0.4218
  906SOL    HW1 2717   0.097   1.755   1.785 -0.2346  1.2859 -0.7908
  906SOL    HW2 2718   0.247   1.791   1.862 -0.5812  0.7959  0.6951
  907SOL     OW 2719   0.140   2.483   1.007  0.7792 -0.0329 -0.2406
  907SOL    HW1 2720   0.221   2.531   1.040  0.0444 -0.9345  2.0312
  907SOL    HW2 2721   0.147   2.433   0.919 -2.0860  1.2188 -0.8257
  908SOL     OW 2722   2.707   2.959   0.446 -0.0019  0.2871  0.1085
  908SOL    HW1 2723   2.694   2.998   0.349 -0.0038  2.7554  2.8226
  908SOL    HW2 2724   2.727   2.857   0.450  0.8466 -0.2525  2.0342
  909SOL     OW 2725   0.786   0.954   2.696 -0.1778 -0.1737  0.1479
  909SOL    HW1 2726   0.715   0.901   2.643  2.3921 -2.8887 -1.0425
  909SOL    HW2 2727   0.865   0.983   2.634  1.2068 -0.1764  0.2655
  910SOL     OW 2728   1.757   1.840   2.102  0.2790 -0.3988 -0.5859
  910SOL    HW1 2729   1.825   1.874   2.029  0.9060 -1.5254  0.8125
  910SOL    HW2 2730   1.678   1.908   2.121  2.3610 -0.2994 -0.0024
  911SOL     OW 2731   1.801   2.955   1.620 -0.7338  0.6891 -0.0803
  911SOL    HW1 2732   1.886   2.912   1.585 -0.6359 -1.2472 -0.5709
  911SOL    HW2 2733   1.782   2.928   1.721  1.1895  0.1998  1.0503
  912SOL     OW 2734   2.892   0.968   0.766 -0.3907 -0.1256  0.5277
  912SOL    HW1 2735   2.917   0.950   0.865  0.0654  2.4606  0.7729
  912SOL    HW2 2736   2.840   1.058   0.749 -0.0219 -0.0043 -0.1860
  913SOL     OW 2737   2.573   1.272   1.563 -0.1502  0.0517 -0.0388
  913SOL    HW1 2738   2.571   1.167   1.554 -0.4122 -2.6141  0.2763
  913SOL    HW2 2739   2.610   1.314   1.478 -0.3287  0.0963  2.1512
  914SOL     OW 2740   2.800   0.524   1.189  0.0695  0.1991  0.1853
  914SOL    HW1 2741   2.806   0.425   1.224 -1.9433 -1.8199  2.8493
  914SOL    HW2 2742   2.739   0.578   1.249 -2.0441 -0.8293 -0.1766
  915SOL     OW 2743   1.255   0.796   1.002 -0.2148  0.5035 -0.1950
  915SOL    HW1 2744   1.312   0.839   1.073 -1.8711  0.6437 -1.2661
  915SOL    HW2 2745   1.157   0.793   1.034  0.5316 -2.1132 -1.1739
  916SOL     OW 2746   0.603   0.026   0.674  0.0040 -0.6520  0.2470
  916SOL    HW1 2747   0.626   0.099   0.744  0.5971  0.4227 -1.5475
  916SOL    HW2 2748   0.588   0.061   0.579 -0.6304  0.2035  0.0775
  917SOL     OW 2749   2.812   2.603   1.986  0.1648 -0.4227  0.3431
  917SOL    HW1 2750   2.710   2.630   1.993 -2.4104  2.4189 -0.0102
  917SOL    HW2 2751   2.861   2.656   1.908  0.7243 -1.2138 -0.9620
  918SOL     OW 2752   1.037   2.217   3.007 -0.2007  0.0825 -0.0907
  918SOL    HW1 2753   0.992   2.215   3.101  0.7569  0.2963  1.6448
  918SOL    HW2 2754   1.052   2.119   2.977  0.0192  0.1100  1.3477
  919SOL     OW 2755   0.899   1.607   2.815  0.5091 -0.0209 -0.1014
  919SOL    HW1 2756   0.943   1.687   2.765  0.6573 -0.3456 -3.1505
  919SOL    HW2 2757   0.859   1.536   2.754 -2.0139 -0.7179  2.1177
  920SOL     OW 2758   1.276   1.973   2.476  0.4974  0.2237  0.2910
  920SOL    HW1 2759   1.233   2.002   2.387 -1.2610  0.7195  2.4024
  920SOL    HW2 2760   1.285   1.874   2.488  0.8065  2.1802 -0.3100
  921SOL     OW 2761   1.106   0.063   2.600  0.0376  0.1722 -0.6345
  921SOL    HW1 2762   1.090   0.081   2.503 -1.7317  2.0811  1.8793
  921SOL    HW2 2763   1.017   0.033   2.647 -0.4800 -2.8238 -0.4154
  922SOL     OW 2764   2.142   2.402   2.894  0.1087 -0.4503 -0.5176
  922SOL    HW1 2765   2.122   2.299   2.895 -0.4053 -2.8829  1.2679
  922SOL    HW2 2766   2.104   2.446   2.809 -0.6158  0.9693 -3.1884
  923SOL     OW 2767   1.234   2.688   0.260  0.7062  0.0394 -0.1521
  923SOL    HW1 2768   1.297   2.739   0.327  1.8040  0.1259  1.4800
  923SOL    HW2 2769   1.270   2.593   0.241 -2.0255 -0.2624 -1.0491
  924SOL     OW 2770   2.865   1.559   0.089  0.5221  0.4449  0.2374
  924SOL    HW1 2771   2.773   1.567   0.044 -1.5190  0.0879  1.6419
  924SOL    HW2 2772   2.940   1.531   0.021  1.3198 -1.2416 -1.2629
  925SOL     OW 2773   3.098   2.919   1.520 -0.3908 -0.5333  0.2715
  925SOL    HW1 2774   3.013   2.932   1.576  2.8952 -0.3291  0.3556
  925SOL    HW2 2775   3.091   2.847   1.443 -0.9958 -0.2187 -0.7602
  926SOL     OW 2776   1.352   2.831   1.303 -0.0794 -0.1707  0.1226
  926SOL    HW1 2777   1.406   2.839   1.211 -1.1325  1.0780 -2.2266
  926SOL    HW2 2778   1.368   2.918   1.360 -0.2267  0.1068  0.7711
  927SOL     OW 2779   0.289   2.647   1.797 -0.3076 -0.3496  0.3214
  927SOL    HW1 2780   0.268   2.567   1.731 -0.9307  1.6780 -0.7276
  927SOL    HW2 2781   0.259   2.740   1.761 -1.3869 -0.2221 -1.3969
  928SOL     OW 2782   1.568   2.024   2.158  0.2847  0.4102 -0.6760
  928SOL    HW1 2783   1.600   2.125   2.146 -2.3767 -2.5808 -0.8352
  928SOL    HW2 2784   1.469   2.006   2.122 -0.0810  2.1579 -1.0405
  929SOL     OW 2785   2.425   2.478   2.864 -0.2740  0.3136 -0.0341
  929SOL    HW1 2786   2.330   2.438   2.856 -0.2529 -0.9008 -0.5392
  929SOL    HW2 2787   2.476   2.490   2.768  0.7598  2.9254 -2.2712
  930SOL     OW 2788   2.175   1.993   1.064 -0.2435  0.4342  0.0391
  930SOL    HW1 2789   2.174   1.940   1.152 -2.7104  0.2883 -2.6733
  930SOL    HW2 2790   2.257   2.057   1.058 -0.7825  0.4559 -0.0617
  931SOL     OW 2791   0.538   1.706   2.693  0.2544  0.0470 -0.3086
  931SOL    HW1 2792   0.586   1.761   2.763  0.3069 -2.5474 -2.3320
  931SOL    HW2 2793   0.596   1.627   2.669 -3.5912  1.2272  2.0020
  932SOL     OW 2794   0.442   0.036   2.914  0.5088 -0.0816  0.3013
  932SOL    HW1 2795   0.533   0.081   2.886  2.0335  3.2026 -0.7106
  932SOL    HW2 2796   0.444  -0.053   2.973 -0.2612  1.1107 -0.9115
  933SOL     OW 2797   1.068   0.739   3.001  0.0816  0.8052 -0.3178
  933SOL    HW1 2798   1.141   0.785   3.060 -0.7175  3.9673 -0.6988
  933SOL    HW2 2799   1.007   0.817   2.963 -2.9676 -0.7739 -1.6721
  934SOL     OW 2800   0.887   3.001   2.688  0.0721  0.8398  0.8669
  934SOL    HW1 2801   0.885   2.916   2.629  0.5020 -1.0556  0.1410
  934SOL    HW2 2802   0.915   2.979   2.784  1.3994 -2.2823 -0.3210
  935SOL     OW 2803   3.096   0.555   0.810  0.1421 -0.0679 -0.3248
  935SOL    HW1 2804   3.099   0.480   0.734  0.9395 -2.1763  1.1299
  935SOL    HW2 2805   3.006   0.599   0.809  2.5440 -1.6064  0.5016
  936SOL     OW 2806   1.114   2.915   0.142  0.1344  0.0601 -0.0390
  936SOL    HW1 2807   1.163   2.925   0.054  0.2147  0.5419  1.7961
  936SOL    HW2 2808   1.150   2.844   0.208  0.8260 -3.0645  1.0912
  937SOL     OW 2809   1.930   2.654   2.097 -0.1545 -0.6345  0.1898
  937SOL    HW1 2810   1.840   2.687   2.137 -1.6350 -0.1805  0.3726
  937SOL    HW2 2811   1.921   2.636   1.996 -5.1402  0.7161  2.7419
  938SOL     OW 2812   2.718   2.075   1.562  0.3862  0.2430  1.0302
  938SOL    HW1 2813   2.702   2.181   1.558 -3.4273  2.2430  0.4134
  938SOL    HW2 2814   2.814   2.051   1.599  1.0818  0.5431  1.0370
  939SOL     OW 2815   2.862   1.229   2.467 -0.1381  0.3095  0.0042
  939SOL    HW1 2816   2.910   1.209   2.376  2.7130  0.7947  0.8115
  939SOL    HW2 2817   2.882   1.167   2.545 -0.9855  0.2898  0.6603
  940SOL     OW 2818   0.992   0.450   2.695  0.2037  0.0224 -0.1076
  940SOL    HW1 2819   1.046   0.368   2.732 -3.0700  0.7578  1.2762
  940SOL    HW2 2820   0.888   0.447   2.691  1.9145 -1.1677  1.6305
  941SOL     OW 2821   0.054   2.845   2.204 -0.3495  0.7607 -0.0995
  941SOL    HW1 2822   0.080   2.748   2.206 -0.5332 -1.5569 -2.3969
  941SOL    HW2 2823   0.116   2.896   2.272 -0.3703  1.9260  1.7996
  942SOL     OW 2824   0.043   0.129   2.527 -0.1817  0.2245  0.3043
  942SOL    HW1 2825   0.102   0.149   2.608  0.0752 -2.9224  0.6313
  942SOL    HW2 2826   0.047   0.197   2.448  0.2908 -0.6133  1.8284
  943SOL     OW 2827   2.130   1.648   2.397 -0.5275  0.2715  1.3215
  943SOL    HW1 2828   2.134   1.595   2.310  1.7440 -0.9908  0.2071
  943SOL    HW2 2829   2.113   1.584   2.472  1.5972 -1.2715 -1.1184
  944SOL     OW 2830   2.168   2.320   1.457  0.4210 -0.0819  0.2029
  944SOL    HW1 2831   2.227   2.388   1.505 -0.7556 -1.4951  1.2596
  944SOL    HW2 2832   2.118   2.257   1.525  0.9876  1.0545  0.7708
  945SOL     OW 2833   0.650   1.507   0.345  0.0745 -0.3327  0.9004
  945SOL    HW1 2834   0.712   1.547   0.275 -1.9680  1.4174  2.8022
  945SOL    HW2 2835   0.630   1.408   0.333 -2.0883  2.1273 -0.8929
  946SOL     OW 2836   0.435   0.937   2.544  0.1430  0.1137  0.2241
  946SOL    HW1 2837   0.370   0.896   2.477  1.8839  1.1487  0.2787
  946SOL    HW2 2838   0.409   1.035   2.584 -0.0470  0.9176 -2.8002
  947SOL     OW 2839   1.541   0.564   0.063 -0.3434  0.4209 -0.1365
  947SOL    HW1 2840   1.503   0.556  -0.034  0.7972 -1.8091 -3.6150
  947SOL    HW2 2841   1.467   0.588   0.127  1.3735  2.4009 -3.9901
  948SOL     OW 2842   2.025   3.063   2.174  0.3088 -0.1257  0.3332
  948SOL    HW1 2843   1.996   3.018   2.083 -1.9393 -2.1059 -0.0971
  948SOL    HW2 2844   1.988   3.002   2.253  2.3184  0.8919  0.8086
  949SOL     OW 2845   0.657   2.512   0.507  0.5641  0.2810 -0.7354
  949SOL    HW1 2846   0.620   2.612   0.516  0.1464  2.8601  1.1377
  949SOL    HW2 2847   0.651   2.471   0.607  1.1539  0.8634  2.3637
  950SOL     OW 2848   0.220   2.146   3.053  0.1398 -0.5525 -0.0336
  950SOL    HW1 2849   0.139   2.211   3.053  1.0418  0.4570 -2.1102
  950SOL    HW2 2850   0.233   2.105   2.960 -1.0988  2.8694 -0.5150
  951SOL     OW 2851   1.195   2.852   2.677  0.2873  0.4772  0.6055
  951SOL    HW1 2852   1.180   2.940   2.619 -1.0301  1.7556  0.8783
  951SOL    HW2 2853   1.258   2.866   2.758 -0.0855 -1.8525 -0.7976
  952SOL     OW 2854   0.111   1.636   0.437  0.0563 -0.0189  0.0148
  952SOL    HW1 2855   0.155   1.732   0.462  0.4306  0.1689 -0.7635
  952SOL    HW2 2856   0.115   1.584   0.523 -2.8055 -0.6162 -0.7525
  953SOL     OW 2857   2.485   1.778   0.179  0.2876  0.2969 -0.7462
  953SOL    HW1 2858   2.486   1.695   0.244 -2.3142  1.0653 -1.4510
  953SOL    HW2 2859   2.552   1.780   0.104  1.6422 -0.6275  0.3254
  954SOL     OW 2860   2.181   0.530   0.985 -0.1422 -0.0303  0.3904
  954SOL    HW1 2861   2.174   0.554   0.881 -1.3587 -1.5226  0.6381
  954SOL    HW2 2862   2.277   0.502   1.008 -1.3589  0.6329 -1.5211
  955SOL     OW 2863   0.247   2.650   1.372  0.3111  0.5816  0.4423
  955SOL    HW1 2864   0.149   2.679   1.379  0.7632 -1.4694 -0.8291
  955SOL    HW2 2865   0.283   2.668   1.273  0.0604 -0.0197  0.4302
  956SOL     OW 2866   2.777   2.439   2.429 -0.1003  0.0081 -0.0044
  956SOL    HW1 2867   2.799   2.336   2.420  0.6671 -3.7116 -1.0578
  956SOL    HW2 2868   2.810   2.495   2.346 -2.6672 -3.5784  0.2724
  957SOL     OW 2869   1.536   2.034   2.750  0.1239  0.1908  0.6376
  957SOL    HW1 2870   1.514   1.937   2.745  0.2255 -0.0905 -1.0818
  957SOL    HW2 2871   1.552   2.073   2.656 -0.3052 -0.2825 -1.0168
  958SOL     OW 2872   2.717   2.318   2.951  0.6616 -0.3276 -0.1826
  958SOL    HW1 2873   2.636   2.375   2.929  1.4004 -0.7727 -1.3063
  958SOL    HW2 2874   2.710   2.275   3.044  1.0287 -3.8774 -0.5114
  959SOL     OW 2875   0.254   2.756   0.114 -0.3212 -0.0637  0.2645
  959SOL    HW1 2876   0.156   2.735   0.081 -0.7108  0.1365  1.0220
  959SOL    HW2 2877   0.289   2.695   0.191  1.6544 -1.7168  2.0879
  960SOL     OW 2878   1.993   0.421   1.926 -0.0906 -0.0782  0.2411
  960SOL    HW1 2879   1.943   0.509   1.898  1.7688 -0.7272 -0.8111
  960SOL    HW2 2880   2.001   0.416   2.027 -0.4560 -1.8216  0.5605
  961SOL     OW 2881   2.547   1.838   1.027 -0.1320 -0.4803  0.2931
  961SOL    HW1 2882   2.534   1.930   0.983 -0.9393  0.5297  1.0396
  961SOL    HW2 2883   2.518   1.827   1.125 -0.8842 -0.5828 -0.7736
  962SOL     OW 2884   1.252   0.903   0.047  0.0519  0.2702 -0.0469
  962SOL    HW1 2885   1.266   0.971  -0.028  1.1771 -0.4479 -0.1908
  962SOL    HW2 2886   1.270   0.947   0.140  0.2424  1.0358  0.2222
  963SOL     OW 2887   2.194   2.563   1.840  0.0115 -0.2014 -0.2392
  963SOL    HW1 2888   2.228   2.471   1.883 -0.6411 -1.5968 -0.6496
  963SOL    HW2 2889   2.217   2.647   1.898  0.1766  1.5999 -0.7823
  964SOL     OW 2890   2.405   0.402   1.666  0.1230  0.4101  0.5548
  964SOL    HW1 2891   2.496   0.437   1.706 -1.9467 -1.9029  0.6388
  964SOL    HW2 2892   2.417   0.376   1.563 -0.7249 -0.1997  0.8726
  965SOL     OW 2893   2.587   3.092   0.214  0.3035 -0.3357  0.4122
  965SOL    HW1 2894   2.643   3.087   0.135 -1.9101  0.6505  0.4494
  965SOL    HW2 2895   2.490   3.068   0.184  0.4892  1.9958  0.5150
  966SOL     OW 2896   2.464   2.465   2.248  0.0761 -0.3440  0.5617
  966SOL    HW1 2897   2.386   2.479   2.312 -0.2383 -2.1099  1.0407
  966SOL    HW2 2898   2.511   2.555   2.219  0.1451  2.2655  1.8066
  967SOL     OW 2899   2.803   2.809   2.428  0.0086 -0.6027  0.0193
  967SOL    HW1 2900   2.828   2.744   2.351  3.4327  1.1027 -2.8604
  967SOL    HW2 2901   2.885   2.868   2.449 -1.2748 -0.6346 -0.0217
  968SOL     OW 2902   1.928   1.093   2.665 -0.5533  0.0782  0.4117
  968SOL    HW1 2903   1.896   1.129   2.574  3.2186 -0.9704  0.4415
  968SOL    HW2 2904   1.905   0.993   2.676  1.3392  3.1412 -2.0171
  969SOL     OW 2905   2.754   2.454   1.073 -0.0092  0.4729  0.0749
  969SOL    HW1 2906   2.692   2.432   0.993 -3.0137 -0.2472  1.4026
  969SOL    HW2 2907   2.792   2.363   1.113 -1.7847 -0.6116 -0.1026
  970SOL     OW 2908   1.061   2.137   1.801 -0.1006  0.0423 -0.1701
  970SOL    HW1 2909   0.979   2.146   1.740  1.3411 -1.4091 -1.7819
  970SOL    HW2 2910   1.036   2.176   1.896 -2.7638  1.2643  0.6005
  971SOL     OW 2911   2.819   2.095   1.872 -0.3736 -0.0645 -0.4643
  971SOL    HW1 2912   2.848   2.191   1.892  2.1532 -1.7712 -0.5912
  971SOL    HW2 2913   2.876   2.048   1.801 -1.2704  0.8428  1.4583
  972SOL     OW 2914   1.964   2.402   0.208  0.7957 -0.6134 -0.1152
  972SOL    HW1 2915   1.966   2.330   0.130 -1.2929 -3.2711 -0.0081
  972SOL    HW2 2916   1.980   2.366   0.305  0.5993 -0.3880  0.9209
  973SOL     OW 2917   1.316   1.067   1.916  0.2002 -0.0282  0.8257
  973SOL    HW1 2918   1.254   1.039   1.837 -1.2130 -0.5445 -1.1604
  973SOL    HW2 2919   1.284   1.155   1.964 -0.2151  1.2441  1.8005
  974SOL     OW 2920   1.621   0.575   1.970  0.1038  0.1535  0.0370
  974SOL    HW1 2921   1.706   0.620   1.931 -0.1114  3.4330  0.8681
  974SOL    HW2 2922   1.532   0.632   1.962 -3.0088 -0.3022  1.1414
  975SOL     OW 2923   2.373   3.010   0.030 -0.1873 -0.2160  0.0836
  975SOL    HW1 2924   2.298   2.942   0.040 -1.1485  0.2773  1.0536
  975SOL    HW2 2925   2.404   3.018  -0.070 -0.6704  1.3038  1.5320
  976SOL     OW 2926   1.922   2.898   2.364  0.3750  0.3005 -0.0819
  976SOL    HW1 2927   1.848   2.845   2.312  2.4785 -0.8038  2.0599
  976SOL    HW2 2928   1.934   2.848   2.453 -0.3151  0.7900  1.8528
  977SOL     OW 2929   0.454   0.675   1.016 -0.1400 -0.4336  0.5078
  977SOL    HW1 2930   0.370   0.659   0.953 -1.4579 -1.4306 -1.5816
  977SOL    HW2 2931   0.544   0.654   0.975  0.2418 -0.1551  3.0819
   3.10000   3.10000   3.10000
