1000 SPC/Fw water molecules t=   1.96000 step= 1960
 2931
    1SOL     OW    1   2.530   0.271   2.715 -0.2721 -0.1223 -0.3538
    1SOL    HW1    2   2.543   0.176   2.687 -3.6948  1.6426  1.3331
    1SOL    HW2    3   2.594   0.312   2.787 -1.0352 -1.4071  0.1555
    2SOL     OW    4   2.802   2.777   1.265  0.2554 -0.5707 -0.3643
    2SOL    HW1    5   2.860   2.862   1.243  1.5411  1.8573  1.0359
    2SOL    HW2    6   2.778   2.772   1.367 -1.9093 -1.9097  1.7659
    3SOL     OW    7   2.773   2.434   0.466  0.5195  0.3972  0.1636
    3SOL    HW1    8   2.692   2.373   0.493 -2.2199 -0.1622  0.3303
    3SOL    HW2    9   2.791   2.521   0.523  3.6598  2.1909 -0.8937
    4SOL     OW   10   1.192   1.543   2.409 -0.1786 -0.2005 -1.0121
    4SOL    HW1   11   1.162   1.594   2.322  1.8300 -0.0447  0.9198
    4SOL    HW2   12   1.142   1.452   2.431 -2.2208  1.6005 -0.7337
    5SOL     OW   13   1.151   1.576   2.905 -0.0194  0.8178 -0.0807
    5SOL    HW1   14   1.197   1.661   2.944 -0.4390 -2.1238 -1.0427
    5SOL    HW2   15   1.050   1.588   2.882  1.6813  0.2702  3.6939
    6SOL     OW   16   0.180   1.869   0.018 -0.1375  0.3826 -0.1854
    6SOL    HW1   17   0.101   1.888   0.083 -3.0150  0.1085  2.0242
    6SOL    HW2   18   0.228   1.777   0.048 -1.8241 -5.2194  0.1989
    7SOL     OW   19   2.559   0.863   1.059  0.4994 -0.2918 -0.0871
    7SOL    HW1   20   2.474   0.827   1.100 -2.6502  3.2880 -0.3740
    7SOL    HW2   21   2.625   0.788   1.028  0.0079 -1.9354 -0.4368
    8SOL     OW   22   0.471   0.730   1.473  0.0174  0.1967  0.0141
    8SOL    HW1   23   0.565   0.731   1.515  0.2055 -1.1008  1.8084
    8SOL    HW2   24   0.472   0.717   1.369 -1.2837  0.5302  0.8808
    9SOL     OW   25   1.128   0.838   2.310 -0.3706 -0.4629 -0.0414
    9SOL    HW1   26   1.163   0.896   2.226  3.3409  4.6793 -0.3892
    9SOL    HW2   27   1.083   0.745   2.291  0.0505 -0.5703  1.7321
   10SOL     OW   28   0.597   1.513   1.245 -0.2531  0.5710 -0.2456
   10SOL    HW1   29   0.509   1.515   1.185 -0.2434  1.2287 -2.8736
   10SOL    HW2   30   0.627   1.601   1.287 -0.1304 -1.7508  1.3444
   11SOL     OW   31   2.337   2.819   0.935 -0.4504 -0.2224  0.3403
   11SOL    HW1   32   2.291   2.795   1.023  2.6275  1.7597 -1.3826
   11SOL    HW2   33   2.444   2.828   0.946  1.0899 -1.3600  0.9319
   12SOL     OW   34   1.427   0.829   0.538 -0.0472 -0.1096  0.6233
   12SOL    HW1   35   1.323   0.835   0.538 -0.5403  0.1914 -1.8162
   12SOL    HW2   36   1.448   0.748   0.473  1.3613 -0.2799  0.9276
   13SOL     OW   37   2.443   0.687   1.826 -0.1162  0.0023 -0.4472
   13SOL    HW1   38   2.349   0.662   1.859 -0.3918 -0.3023  1.2711
   13SOL    HW2   39   2.466   0.652   1.728 -0.0171 -0.6312 -5.2053
   14SOL     OW   40   1.955   3.033   0.678  1.1416  0.1530  0.9236
   14SOL    HW1   41   1.871   3.089   0.650 -1.6604  1.1015 -2.2873
   14SOL    HW2   42   1.952   3.004   0.775 -0.9665 -0.9481 -0.3904
   15SOL     OW   43   1.851   2.083   2.639 -0.0401 -0.3390  0.0602
   15SOL    HW1   44   1.807   2.063   2.732 -0.7293 -0.7418  1.6840
   15SOL    HW2   45   1.876   2.002   2.583  0.3564 -2.7866 -0.4857
   16SOL     OW   46   1.534   1.730   2.989 -0.3300 -0.2792 -0.4564
   16SOL    HW1   47   1.540   1.628   3.006  3.1408 -1.1717 -0.0806
   16SOL    HW2   48   1.621   1.785   3.009 -0.6271 -2.0600 -0.7880
   17SOL     OW   49   0.057   0.466   0.179 -0.1157  0.0307 -0.0129
   17SOL    HW1   50   0.156   0.450   0.146  0.7973 -0.7445 -3.2218
   17SOL    HW2   51  -0.004   0.517   0.108  1.4513 -0.5608 -2.3304
   18SOL     OW   52   0.876   2.834   2.233  0.3940 -0.0250  0.0248
   18SOL    HW1   53   0.834   2.756   2.286  0.8058  1.0393 -0.6574
   18SOL    HW2   54   0.905   2.804   2.140  1.2917  1.9497 -0.0730
   19SOL     OW   55   0.537   0.932   1.915  0.0257 -0.5006  0.0649
   19SOL    HW1   56   0.589   0.885   1.993  1.8821 -0.0311  0.0812
   19SOL    HW2   57   0.588   1.018   1.874  2.0108  0.4049 -1.2371
   20SOL     OW   58   0.237   2.747   0.772  0.5270 -0.5027 -0.1083
   20SOL    HW1   59   0.147   2.784   0.750  3.4246 -2.4376 -1.3267
   20SOL    HW2   60   0.265   2.673   0.699 -0.8146 -1.3741  0.4661
   21SOL     OW   61   2.829   0.292   1.975  0.1786  0.0684  0.2702
   21SOL    HW1   62   2.758   0.215   1.952 -1.4876 -0.8778  0.5977
   21SOL    HW2   63   2.894   0.263   2.052  1.1323  0.0226  0.3883
   22SOL     OW   64   2.421   0.224   0.058 -0.1421  0.9062  0.0632
   22SOL    HW1   65   2.451   0.122   0.045 -1.6912 -1.3652 -1.0916
   22SOL    HW2   66   2.326   0.245   0.016  2.1536 -1.4950  1.2138
   23SOL     OW   67   2.814   0.519   0.670  0.6447  0.0298 -0.1668
   23SOL    HW1   68   2.892   0.448   0.643 -0.7101 -2.0605  0.1125
   23SOL    HW2   69   2.838   0.618   0.634  2.1741 -0.4554 -2.5744
   24SOL     OW   70   0.261   1.888   0.425 -0.6449 -0.6619 -0.0922
   24SOL    HW1   71   0.248   1.989   0.396 -1.3589 -0.5155 -0.5126
   24SOL    HW2   72   0.332   1.839   0.370 -2.5617  0.2098 -1.7043
   25SOL     OW   73   2.289   0.575   0.269 -0.4676 -0.0301  0.3201
   25SOL    HW1   74   2.258   0.611   0.176  0.2170  0.1445 -0.8537
   25SOL    HW2   75   2.318   0.472   0.268  0.8225 -1.6292  3.0174
   26SOL     OW   76   2.444   2.157   2.148 -0.2289  0.3405  0.2937
   26SOL    HW1   77   2.515   2.231   2.179  1.0668  2.4198 -1.0005
   26SOL    HW2   78   2.471   2.112   2.057  0.2648  1.8347 -2.4015
   27SOL     OW   79   0.635   3.040   0.147  0.0590 -0.0823 -1.2784
   27SOL    HW1   80   0.720   3.082   0.100 -0.7889  0.4913 -1.0537
   27SOL    HW2   81   0.563   2.992   0.095 -2.2515  2.7040 -1.5252
   28SOL     OW   82   1.578   0.174   0.342  0.1985  0.0654 -0.1763
   28SOL    HW1   83   1.610   0.153   0.243  0.5214  1.1739  1.0915
   28SOL    HW2   84   1.648   0.235   0.382 -0.5941 -0.3861 -1.4524
   29SOL     OW   85   2.002   0.546   0.314  0.0099 -0.0250  0.0789
   29SOL    HW1   86   1.983   0.624   0.382  1.3621 -0.9961 -0.0686
   29SOL    HW2   87   2.100   0.537   0.289 -1.8550  0.7368  4.2674
   30SOL     OW   88   0.182   2.088   0.904 -0.0778 -0.6148  0.6001
   30SOL    HW1   89   0.153   2.001   0.854 -2.1247  0.3603 -1.0432
   30SOL    HW2   90   0.108   2.163   0.908  0.5392  2.5387 -0.3166
   31SOL     OW   91   2.091   0.099   2.374  0.2806 -0.0084  0.3515
   31SOL    HW1   92   2.053   0.050   2.454 -2.1764 -0.0507 -1.2808
   31SOL    HW2   93   2.082   0.049   2.284  1.8844 -1.6882 -0.2353
   32SOL     OW   94   3.091   3.076   0.226  0.3021  0.2246 -0.0714
   32SOL    HW1   95   3.059   2.985   0.267  0.2767 -2.5633  1.4034
   32SOL    HW2   96   3.194   3.074   0.196  2.0798  2.3246 -0.1726
   33SOL     OW   97   0.874   0.237   0.664 -0.1939 -0.6215  0.2853
   33SOL    HW1   98   0.888   0.165   0.588  0.5732 -2.7942 -1.5603
   33SOL    HW2   99   0.945   0.314   0.656 -0.6443 -0.3295 -0.2847
   34SOL     OW  100   0.357   2.660   0.984  0.5131  0.2402  0.0605
   34SOL    HW1  101   0.301   2.690   0.902 -2.2768 -0.7564  0.1557
   34SOL    HW2  102   0.443   2.712   0.999  1.3380 -1.2980 -1.4549
   35SOL     OW  103   0.117   0.215   1.926  0.4390  0.6231  0.1080
   35SOL    HW1  104   0.092   0.122   1.969  0.2613 -0.8667 -1.0573
   35SOL    HW2  105   0.106   0.208   1.825 -1.3719 -1.7905  1.5813
   36SOL     OW  106   1.820   1.253   1.488 -1.0901  0.8724  0.0974
   36SOL    HW1  107   1.917   1.232   1.518  0.0699  2.5600 -1.2507
   36SOL    HW2  108   1.814   1.300   1.395 -1.7794 -1.1520  0.7490
   37SOL     OW  109   1.166   0.236   0.985  0.2300 -0.3845 -0.0363
   37SOL    HW1  110   1.167   0.340   0.985 -1.0369 -1.6656 -0.1730
   37SOL    HW2  111   1.249   0.190   0.939  1.3272 -2.7307 -0.6874
   38SOL     OW  112   1.133   2.800   2.473  0.1578 -0.1061 -0.3326
   38SOL    HW1  113   1.036   2.763   2.495 -0.8784 -0.6049  4.6230
   38SOL    HW2  114   1.126   2.883   2.409 -1.0996  0.2121  0.3391
   39SOL     OW  115   2.496   1.418   3.045  0.4722  0.6663  0.7129
   39SOL    HW1  116   2.563   1.342   3.070  1.7781  1.2321  0.7681
   39SOL    HW2  117   2.407   1.412   3.101 -2.0555  1.4376  0.8173
   40SOL     OW  118   2.038   2.507   2.576  0.0634  0.5666  0.5802
   40SOL    HW1  119   1.998   2.600   2.593 -1.2653 -2.3100 -1.4396
   40SOL    HW2  120   1.960   2.441   2.564 -3.1477 -0.2879  1.3135
   41SOL     OW  121   3.023   0.707   2.807 -0.1318  0.0444  0.0856
   41SOL    HW1  122   3.026   0.803   2.852 -0.6543  0.4642  0.0989
   41SOL    HW2  123   2.930   0.668   2.815  1.4231  2.1890 -0.0519
   42SOL     OW  124   1.776   1.724   0.453  0.5743 -0.0616 -0.2844
   42SOL    HW1  125   1.733   1.633   0.479 -0.5060  0.1826  0.6490
   42SOL    HW2  126   1.755   1.758   0.358  1.0715 -0.4400 -0.5913
   43SOL     OW  127   0.430   1.814   1.138  0.2340  1.0805  0.0041
   43SOL    HW1  128   0.388   1.857   1.059  0.4609  2.0021  3.1729
   43SOL    HW2  129   0.353   1.797   1.207  1.4499 -1.5543  0.7177
   44SOL     OW  130   1.721   2.396   2.971  0.5878  0.2610  0.0745
   44SOL    HW1  131   1.626   2.434   2.993 -1.9785 -1.5693 -1.1111
   44SOL    HW2  132   1.747   2.406   2.873  1.0579  1.2779  0.6536
   45SOL     OW  133   0.355   1.942   2.633  0.0545  0.0930  0.9157
   45SOL    HW1  134   0.296   1.916   2.551 -1.1434  2.0008 -0.9792
   45SOL    HW2  135   0.418   1.865   2.663  0.2577  2.4603  1.5502
   46SOL     OW  136   1.291   0.746   0.223 -0.4003  0.4826  0.1394
   46SOL    HW1  137   1.263   0.845   0.198  0.3214  0.9890 -0.7037
   46SOL    HW2  138   1.228   0.672   0.174 -1.2839 -1.6926 -2.7981
   47SOL     OW  139   0.172   2.350   1.612  0.2445  0.3126 -0.0111
   47SOL    HW1  140   0.122   2.268   1.647  0.8511 -0.0033  0.9163
   47SOL    HW2  141   0.185   2.358   1.510  0.5155  1.1481  1.5811
   48SOL     OW  142   2.663   0.673   0.195  0.0108 -0.0558 -0.0193
   48SOL    HW1  143   2.667   0.640   0.295  0.0213 -1.0977 -0.1923
   48SOL    HW2  144   2.755   0.706   0.162  1.0570 -1.1170  1.3730
   49SOL     OW  145   0.339   0.837   1.717  0.3914 -0.0266  0.0299
   49SOL    HW1  146   0.413   0.874   1.780 -1.2014 -0.5296  0.0036
   49SOL    HW2  147   0.369   0.850   1.619  0.6324 -1.4931 -1.0276
   50SOL     OW  148   1.688   1.075   0.357  0.2859 -0.0158  0.6096
   50SOL    HW1  149   1.737   0.987   0.331 -1.2897  2.4064  1.0227
   50SOL    HW2  150   1.655   1.071   0.455  1.5208 -2.4637  0.4611
   51SOL     OW  151   2.912   1.717   0.352 -0.8683  0.3283  0.4384
   51SOL    HW1  152   2.948   1.692   0.259  0.6461  2.5688  0.0466
   51SOL    HW2  153   2.984   1.691   0.427  0.0402  1.7346  2.9967
   52SOL     OW  154   0.806   2.168   0.561 -0.0392 -0.7657  0.4951
   52SOL    HW1  155   0.727   2.171   0.495  1.7197 -0.6542  0.2412
   52SOL    HW2  156   0.820   2.077   0.609 -0.6523 -1.3740 -2.2875
   53SOL     OW  157   0.307   0.513   1.512  0.3375  0.2581  0.5970
   53SOL    HW1  158   0.370   0.599   1.520 -0.5963  2.0706 -1.7814
   53SOL    HW2  159   0.218   0.537   1.463 -1.1515  0.6934  4.3244
   54SOL     OW  160   1.783   0.437   3.082 -0.3907  0.0243 -0.0037
   54SOL    HW1  161   1.866   0.392   3.125 -0.1938 -0.1507  0.4822
   54SOL    HW2  162   1.693   0.424   3.135 -0.2822 -0.1550 -2.1309
   55SOL     OW  163   0.736   2.890   0.607 -1.3290 -0.4143 -0.3292
   55SOL    HW1  164   0.666   2.965   0.607 -1.1953  0.9954 -3.2426
   55SOL    HW2  165   0.833   2.921   0.593 -0.5607 -0.5258 -2.9439
   56SOL     OW  166   0.523   1.621   3.066  0.4665 -0.1470 -0.0112
   56SOL    HW1  167   0.434   1.629   3.123 -0.6765  2.6417  0.0041
   56SOL    HW2  168   0.550   1.530   3.028  3.1543  0.7876  2.0881
   57SOL     OW  169   1.694   2.466   2.381  0.0487 -0.1742 -0.2825
   57SOL    HW1  170   1.765   2.406   2.428  1.1624  2.8710  0.0055
   57SOL    HW2  171   1.612   2.478   2.444 -0.2818 -0.9032 -0.2842
   58SOL     OW  172   0.671   0.158   1.065  0.2294 -0.1909 -0.4217
   58SOL    HW1  173   0.581   0.179   1.110  0.6323  2.5148  0.0978
   58SOL    HW2  174   0.721   0.074   1.102  1.4993  2.6675 -1.8129
   59SOL     OW  175   0.451   2.389   2.574  0.0456  0.6360  0.3729
   59SOL    HW1  176   0.477   2.294   2.612  1.5987 -1.6797 -0.2375
   59SOL    HW2  177   0.535   2.450   2.572 -0.0557 -0.6927 -0.6553
   60SOL     OW  178   2.333   2.063   2.379  0.0180  0.1830  0.5021
   60SOL    HW1  179   2.365   2.109   2.289 -3.1195 -0.2542  0.0941
   60SOL    HW2  180   2.377   2.099   2.470  1.8551  1.6503  0.8294
   61SOL     OW  181   1.185   0.651   0.503 -0.4590  0.3527  0.0909
   61SOL    HW1  182   1.080   0.665   0.510 -0.9571  1.8061  0.9380
   61SOL    HW2  183   1.221   0.672   0.410 -2.2909  2.5655  1.9606
   62SOL     OW  184   2.755   1.716   2.687 -0.3248  0.1158  0.0488
   62SOL    HW1  185   2.707   1.649   2.628 -1.8776  0.9446  0.5249
   62SOL    HW2  186   2.824   1.672   2.757 -0.7779 -1.8019  2.2714
   63SOL     OW  187   0.508   0.799   0.168 -0.6542  0.3137 -0.4339
   63SOL    HW1  188   0.568   0.873   0.127  0.1802 -1.3404  1.2601
   63SOL    HW2  189   0.531   0.789   0.266 -0.1005 -1.0436  1.7880
   64SOL     OW  190   3.072   0.588   2.385 -0.0787  0.6580  0.2499
   64SOL    HW1  191   2.994   0.628   2.446 -0.7395  1.6088 -0.6300
   64SOL    HW2  192   3.070   0.627   2.287  1.1416  2.4719 -0.8209
   65SOL     OW  193   0.127   1.432   0.651 -0.0775  0.2173 -0.1798
   65SOL    HW1  194   0.092   1.518   0.692 -0.4582  1.0484 -1.3278
   65SOL    HW2  195   0.152   1.440   0.554  1.5486  1.0771  0.8032
   66SOL     OW  196   2.601   0.312   0.512  0.0863  0.1652  0.0329
   66SOL    HW1  197   2.701   0.288   0.525  3.9166 -2.4429 -0.3832
   66SOL    HW2  198   2.535   0.250   0.569 -0.9308 -3.4413  0.8249
   67SOL     OW  199   0.582   2.487   1.529  0.2644 -0.0231 -0.2567
   67SOL    HW1  200   0.670   2.456   1.582  0.5754 -1.9747  2.7349
   67SOL    HW2  201   0.533   2.405   1.493  1.5876  2.1288 -1.6846
   68SOL     OW  202   0.907   0.978   2.527  0.2626 -0.8195 -0.1234
   68SOL    HW1  203   0.989   0.922   2.499  0.3110  2.4008  0.0334
   68SOL    HW2  204   0.876   1.037   2.445 -2.9841 -0.8591  0.1074
   69SOL     OW  205   0.693   2.600   2.311 -0.3253  0.4395  0.2219
   69SOL    HW1  206   0.745   2.522   2.260  1.4308 -0.9346  2.5643
   69SOL    HW2  207   0.596   2.608   2.274  1.9583 -2.8607  2.6065
   70SOL     OW  208   0.534   0.140   2.583 -0.3815 -0.3126  0.0652
   70SOL    HW1  209   0.458   0.120   2.654  0.8781 -0.8935  1.9489
   70SOL    HW2  210   0.610   0.073   2.591 -1.5748 -1.1594  0.5688
   71SOL     OW  211   1.086   1.809   0.316 -0.4060 -0.1930 -0.5008
   71SOL    HW1  212   1.009   1.786   0.381 -0.0091  1.3360  1.0180
   71SOL    HW2  213   1.046   1.861   0.236 -0.8790  1.2456 -0.5535
   72SOL     OW  214   1.818   0.206   2.130 -0.2135  0.0355 -0.6284
   72SOL    HW1  215   1.847   0.300   2.110  0.7812 -2.4727  1.1649
   72SOL    HW2  216   1.849   0.134   2.061 -0.3291 -1.0726  1.3459
   73SOL     OW  217   2.798   2.185   2.436  0.7581 -0.3184 -0.2385
   73SOL    HW1  218   2.790   2.103   2.375 -1.9374  0.0303  0.4007
   73SOL    HW2  219   2.872   2.162   2.508 -0.3281 -1.5096  1.8186
   74SOL     OW  220   2.682   3.012   2.106 -0.3144  0.3083 -0.4819
   74SOL    HW1  221   2.631   3.003   2.197 -2.8724  2.2842 -0.2600
   74SOL    HW2  222   2.786   3.020   2.121  3.3466 -0.7886  2.0984
   75SOL     OW  223   0.909   0.805   1.097 -0.5033 -0.0848 -1.0158
   75SOL    HW1  224   0.817   0.843   1.072  1.3156  0.5071  0.1406
   75SOL    HW2  225   0.953   0.847   1.186 -1.5804  0.4003 -1.1172
   76SOL     OW  226   1.804   1.267   2.583 -0.6062  0.0513  0.4110
   76SOL    HW1  227   1.719   1.265   2.638 -0.7009  2.5014 -2.8621
   76SOL    HW2  228   1.842   1.360   2.584 -0.4115 -2.3593 -3.6066
   77SOL     OW  229   2.910   0.924   1.029 -0.1816  0.1014  0.5370
   77SOL    HW1  230   2.854   0.834   1.039 -0.7389  0.0567 -2.1557
   77SOL    HW2  231   3.011   0.908   1.044 -1.1102  0.2892 -1.2323
   78SOL     OW  232   1.949   1.461   1.294 -0.0310 -0.3796  0.3561
   78SOL    HW1  233   2.046   1.448   1.257  1.9530  0.9361  1.2971
   78SOL    HW2  234   1.873   1.473   1.224  2.1818 -0.2299  0.2390
   79SOL     OW  235   0.632   1.513   0.827 -0.1567 -0.0304 -0.2028
   79SOL    HW1  236   0.537   1.508   0.865 -0.3042  0.4943 -0.3455
   79SOL    HW2  237   0.667   1.420   0.800 -0.0356  2.6679  1.2414
   80SOL     OW  238   0.716   0.473   1.562  0.3495  0.4579 -0.2354
   80SOL    HW1  239   0.723   0.511   1.467 -1.4910  2.6923 -1.4772
   80SOL    HW2  240   0.660   0.385   1.582 -1.4121  1.0655  0.5642
   81SOL     OW  241   1.058   1.301   2.419  0.5773  0.1209 -0.3610
   81SOL    HW1  242   0.961   1.304   2.384 -0.4773  1.5734 -1.2876
   81SOL    HW2  243   1.118   1.236   2.368  0.8612 -1.2965 -2.2310
   82SOL     OW  244   0.953   2.949   1.679  0.1898 -0.0483  0.2238
   82SOL    HW1  245   1.022   2.875   1.656 -1.2656  2.4951 -0.1457
   82SOL    HW2  246   0.940   3.012   1.594  1.0915  2.1381 -1.2219
   83SOL     OW  247   2.614   2.356   0.945 -0.9326 -0.2039  0.8007
   83SOL    HW1  248   2.541   2.298   0.908  0.9283  0.9724  0.6440
   83SOL    HW2  249   2.611   2.457   0.912 -0.1954 -0.0911 -2.1428
   84SOL     OW  250   0.793   3.091   2.332 -0.2863 -0.7767  0.1348
   84SOL    HW1  251   0.769   3.093   2.435  3.5547  0.4756 -1.6652
   84SOL    HW2  252   0.830   2.997   2.301  0.2533 -0.3615 -0.1079
   85SOL     OW  253   0.248   1.694   1.360 -0.4072  0.4699 -0.4539
   85SOL    HW1  254   0.222   1.780   1.409 -3.5266 -1.6722  0.1686
   85SOL    HW2  255   0.315   1.644   1.418  2.5671  0.8769 -0.0284
   86SOL     OW  256   0.482   1.073   1.392  0.2102  0.3097  0.0330
   86SOL    HW1  257   0.474   1.006   1.310 -1.3208 -1.6269 -0.4760
   86SOL    HW2  258   0.566   1.051   1.449  3.0139  3.8292  0.8692
   87SOL     OW  259   1.579   0.680   0.346 -0.4959 -0.2461 -0.2303
   87SOL    HW1  260   1.642   0.753   0.311 -0.5463  1.1144 -1.3389
   87SOL    HW2  261   1.525   0.629   0.271 -4.1561  0.1079  0.5893
   88SOL     OW  262   1.524   1.343   0.294 -0.3188 -0.1636  0.2865
   88SOL    HW1  263   1.574   1.245   0.288  2.5930 -4.0800 -1.5435
   88SOL    HW2  264   1.423   1.334   0.285 -1.0461 -0.3432 -2.6834
   89SOL     OW  265   3.060   0.367   0.629 -0.1916 -0.0309  0.2932
   89SOL    HW1  266   3.162   0.350   0.617 -0.2715  1.8859  0.8452
   89SOL    HW2  267   3.006   0.281   0.632 -2.3933 -0.2538 -2.2053
   90SOL     OW  268   0.742   1.587   0.174 -0.5899  0.2584  0.7060
   90SOL    HW1  269   0.840   1.579   0.139 -0.5553  1.9357  0.6198
   90SOL    HW2  270   0.671   1.612   0.103 -0.1712  0.7673  0.3750
   91SOL     OW  271   1.283   1.516   1.676  0.3368 -0.2938 -0.0620
   91SOL    HW1  272   1.259   1.539   1.776  2.5440 -1.8723 -0.6651
   91SOL    HW2  273   1.386   1.511   1.659 -1.8761  3.9167 -0.1784
   92SOL     OW  274   0.074   0.933   1.153 -0.4332 -0.9202  0.4807
   92SOL    HW1  275   0.108   1.017   1.106 -1.5180 -3.8849 -0.7449
   92SOL    HW2  276   0.076   0.942   1.255  0.2586 -1.6203 -3.9506
   93SOL     OW  277   3.030   2.681   0.046  0.2025 -0.2017 -0.6096
   93SOL    HW1  278   2.981   2.665  -0.047  0.2355  1.7772  0.5708
   93SOL    HW2  279   3.102   2.608   0.067 -1.5288  1.1719 -0.1017
   94SOL     OW  280   1.543   1.460   1.607 -0.1773  0.3271 -0.3799
   94SOL    HW1  281   1.596   1.372   1.622 -0.9945  1.3601 -1.4545
   94SOL    HW2  282   1.574   1.519   1.525 -2.2280  1.0380  1.3215
   95SOL     OW  283   1.447   2.471   2.912  0.2483 -0.0051 -0.1498
   95SOL    HW1  284   1.361   2.480   2.971 -2.4575 -2.0365 -0.9344
   95SOL    HW2  285   1.434   2.394   2.848  3.6595  2.9899 -0.7512
   96SOL     OW  286   0.592   2.134   1.261  0.3718 -0.0067 -0.0927
   96SOL    HW1  287   0.540   2.079   1.192 -1.8760  1.0426  0.5070
   96SOL    HW2  288   0.615   2.082   1.349 -2.6660  0.1890  0.3534
   97SOL     OW  289   0.304   1.616   2.414  0.2182  0.1251  0.1277
   97SOL    HW1  290   0.292   1.717   2.415 -1.4753 -1.5015  1.8692
   97SOL    HW2  291   0.268   1.574   2.503  1.4136 -1.9356 -2.8720
   98SOL     OW  292   2.279   1.688   1.183  0.1600  0.1424 -0.3735
   98SOL    HW1  293   2.265   1.585   1.193  0.0521 -0.0484  0.8643
   98SOL    HW2  294   2.362   1.720   1.136  1.7228 -2.3550 -1.5588
   99SOL     OW  295   2.589   2.114   1.273 -0.5784 -0.0154 -0.4140
   99SOL    HW1  296   2.633   2.154   1.361 -1.2518  0.7570 -0.3682
   99SOL    HW2  297   2.529   2.032   1.301  2.9494  2.7354 -0.3719
  100SOL     OW  298   2.331   0.396   2.146  0.2599  0.4777  0.5491
  100SOL    HW1  299   2.289   0.383   2.243  0.5242 -0.7652  3.8563
  100SOL    HW2  300   2.427   0.438   2.145 -1.1498  2.4089 -0.9007
  101SOL     OW  301   0.379   1.467   0.462  0.4233 -0.2812  0.8124
  101SOL    HW1  302   0.376   1.560   0.509  4.3066  0.9753  5.2277
  101SOL    HW2  303   0.449   1.449   0.387  1.7598 -1.5072 -0.6267
  102SOL     OW  304   2.317   1.064   0.852 -0.0133 -0.0251 -0.6369
  102SOL    HW1  305   2.303   0.965   0.857  1.6022  4.0700 -0.4693
  102SOL    HW2  306   2.375   1.095   0.767  2.8498  0.4066 -2.4902
  103SOL     OW  307   2.265   0.064   0.333  0.5847  0.2351  0.4103
  103SOL    HW1  308   2.307   0.151   0.303 -1.0954 -1.2958 -0.2573
  103SOL    HW2  309   2.299   0.035   0.430 -0.4013  3.0750 -1.2396
  104SOL     OW  310   0.048   1.838   2.172 -0.1345  0.3691 -0.1879
  104SOL    HW1  311   0.104   1.837   2.084  1.1592  2.8968 -3.4147
  104SOL    HW2  312  -0.053   1.833   2.160  2.8295  0.9285 -1.8683
  105SOL     OW  313   1.229   2.108   0.798 -0.7739  0.3815  0.3576
  105SOL    HW1  314   1.139   2.131   0.844 -0.5203 -0.7844 -2.8144
  105SOL    HW2  315   1.230   2.019   0.743 -0.0232  2.0940 -2.3841
  106SOL     OW  316   2.134   0.408   1.477 -0.2487  0.2318  0.0250
  106SOL    HW1  317   2.047   0.350   1.476  1.0257 -0.3006  2.8625
  106SOL    HW2  318   2.163   0.429   1.572  1.9466 -1.0383 -2.6722
  107SOL     OW  319   1.924   2.946   1.211  0.1141 -0.0036  0.1764
  107SOL    HW1  320   1.860   3.020   1.253 -1.4067  1.4022  0.9052
  107SOL    HW2  321   1.870   2.866   1.187 -2.9167  1.2634  2.2519
  108SOL     OW  322   0.899   2.775   1.088 -0.1154 -0.2200  0.3329
  108SOL    HW1  323   0.890   2.684   1.039  0.8280  0.7466 -0.4052
  108SOL    HW2  324   0.990   2.820   1.086 -0.8298  1.2226  0.7218
  109SOL     OW  325   2.174   0.088   0.764 -0.6342 -0.4166  0.4133
  109SOL    HW1  326   2.113   0.021   0.709  0.0092 -0.7873 -0.8629
  109SOL    HW2  327   2.167   0.074   0.865  0.0656 -1.7855  0.1302
  110SOL     OW  328   0.488   2.809   2.815 -0.6433 -0.4484 -0.2867
  110SOL    HW1  329   0.485   2.827   2.713  1.9420  0.3771 -0.4304
  110SOL    HW2  330   0.542   2.722   2.836  1.4434 -1.1749 -1.5112
  111SOL     OW  331   1.338   0.592   2.345  0.2168 -1.0501 -0.7709
  111SOL    HW1  332   1.247   0.620   2.391 -0.2166  0.6649  2.7249
  111SOL    HW2  333   1.398   0.531   2.401  0.7287  1.0352 -0.8535
  112SOL     OW  334   1.761   0.558   1.497  0.0787 -0.2159 -0.2408
  112SOL    HW1  335   1.716   0.565   1.396  0.3982  1.1033 -1.8165
  112SOL    HW2  336   1.693   0.594   1.565  3.1143  1.3823 -1.4392
  113SOL     OW  337   2.297   1.709   1.775  0.2710  0.4127  0.1110
  113SOL    HW1  338   2.337   1.620   1.733  1.8429 -2.9455  0.6415
  113SOL    HW2  339   2.291   1.699   1.876  0.7861  0.3111 -2.0452
  114SOL     OW  340   0.338   0.444   1.177  0.2996 -0.0293 -0.1676
  114SOL    HW1  341   0.251   0.504   1.200 -0.1311  0.3716 -3.3876
  114SOL    HW2  342   0.389   0.477   1.097 -2.0446  0.1564  1.5885
  115SOL     OW  343   2.724   1.573   1.244 -0.1402 -0.4042 -0.4496
  115SOL    HW1  344   2.728   1.469   1.266  1.8044 -2.5048  0.6717
  115SOL    HW2  345   2.823   1.613   1.239 -0.0597  1.1332 -1.8015
  116SOL     OW  346   1.884   0.926   0.686  0.4568  0.0774  0.3518
  116SOL    HW1  347   1.784   0.887   0.673 -1.0377 -3.4842  0.1639
  116SOL    HW2  348   1.890   1.031   0.682  0.9447  0.2896  2.7850
  117SOL     OW  349   1.122   0.385   0.556  0.3403 -0.1848  0.2243
  117SOL    HW1  350   1.168   0.479   0.551  2.7455  1.5912  1.0116
  117SOL    HW2  351   1.074   0.345   0.472 -0.0554 -3.5265  0.7773
  118SOL     OW  352   1.116   1.228   1.130 -0.5331  0.0487 -0.1477
  118SOL    HW1  353   1.089   1.159   1.204 -1.4530 -0.9528  3.1651
  118SOL    HW2  354   1.166   1.312   1.167  0.9357 -1.5537 -0.8897
  119SOL     OW  355   1.903   1.623   2.216 -0.2673 -0.4218 -0.1614
  119SOL    HW1  356   1.815   1.663   2.176 -1.7527 -0.0718  3.0972
  119SOL    HW2  357   1.980   1.618   2.144 -2.6293  2.9092 -0.6712
  120SOL     OW  358   2.953   2.824   0.283  0.2972  0.1496 -0.0325
  120SOL    HW1  359   2.972   2.763   0.201 -0.1655 -1.2903 -3.7255
  120SOL    HW2  360   2.858   2.811   0.332 -0.8752 -0.6100  2.7554
  121SOL     OW  361   1.981   0.826   2.328  0.8251  0.7939 -0.5874
  121SOL    HW1  362   2.025   0.903   2.271 -3.1111 -1.0728  0.3148
  121SOL    HW2  363   2.025   0.732   2.316  0.0360  0.5409  0.4690
  122SOL     OW  364   2.570   2.475   1.396 -0.1533  0.4042  0.3355
  122SOL    HW1  365   2.644   2.430   1.334 -0.2756 -0.2205 -3.8397
  122SOL    HW2  366   2.583   2.463   1.496  0.5562 -1.8447 -0.7283
  123SOL     OW  367   1.657   0.176   1.664  0.1598 -0.3879  0.2991
  123SOL    HW1  368   1.694   0.081   1.649 -2.1931 -0.5169  0.0869
  123SOL    HW2  369   1.725   0.241   1.704  2.2807 -0.9137  2.1252
  124SOL     OW  370   3.015   0.434   1.163 -0.0466 -0.0249 -0.0568
  124SOL    HW1  371   2.930   0.476   1.193  0.1962 -0.2987 -0.9595
  124SOL    HW2  372   3.054   0.455   1.069  0.3878  0.2020 -0.1617
  125SOL     OW  373   0.912   1.945   0.737 -0.1261  0.1048 -0.3762
  125SOL    HW1  374   0.976   1.870   0.774 -1.7730  0.6868  1.1522
  125SOL    HW2  375   0.853   1.989   0.808 -1.5874 -2.8553 -1.8611
  126SOL     OW  376   1.889   2.303   2.457 -0.4511  0.6703  0.2908
  126SOL    HW1  377   1.949   2.292   2.372  0.3775  0.3679  0.8678
  126SOL    HW2  378   1.902   2.228   2.523 -0.9904 -1.8674 -0.9860
  127SOL     OW  379   0.979   0.965   0.180 -0.0393  0.1340 -0.0499
  127SOL    HW1  380   0.977   0.992   0.280  0.5936 -0.6434 -1.4570
  127SOL    HW2  381   0.927   0.874   0.167  0.0508 -1.5811  0.3878
  128SOL     OW  382   0.883   0.196   1.401 -0.1956  0.2485  0.3179
  128SOL    HW1  383   0.867   0.254   1.314 -0.1325 -0.8347  0.7121
  128SOL    HW2  384   0.833   0.102   1.391  0.4106  0.4076  1.0135
  129SOL     OW  385   1.902   0.679   1.916 -0.0751  0.2900  0.4883
  129SOL    HW1  386   1.916   0.672   1.816 -0.2439 -1.0218  2.3210
  129SOL    HW2  387   1.888   0.780   1.945  0.8551 -0.9739 -0.8058
  130SOL     OW  388   1.388   2.229   0.997 -0.0857  0.8626  0.1682
  130SOL    HW1  389   1.348   2.176   0.915 -2.0397  1.0955 -0.0572
  130SOL    HW2  390   1.439   2.311   0.966  2.0132  0.4636 -1.7471
  131SOL     OW  391   3.008   1.370   1.396 -0.5095  0.1826  0.0105
  131SOL    HW1  392   2.960   1.283   1.409  2.1638  1.0807 -1.7618
  131SOL    HW2  393   3.115   1.355   1.388 -2.0263 -3.5357  1.4229
  132SOL     OW  394   2.025   2.425   0.568 -0.5161  0.1989  0.4203
  132SOL    HW1  395   1.925   2.426   0.554  1.9275 -3.6482  3.1708
  132SOL    HW2  396   2.052   2.330   0.602  0.4324 -2.3220 -1.9403
  133SOL     OW  397   1.730   2.454   2.702 -0.7253  0.1110 -0.1083
  133SOL    HW1  398   1.645   2.434   2.651  0.8566 -2.3292  1.2355
  133SOL    HW2  399   1.739   2.554   2.729 -0.5663 -1.0822 -1.8418
  134SOL     OW  400   2.589   2.419   1.690  0.0709 -0.2420  0.5454
  134SOL    HW1  401   2.523   2.391   1.764 -2.6605  2.3269  1.3287
  134SOL    HW2  402   2.666   2.473   1.731  0.9298  0.6587 -0.5135
  135SOL     OW  403   0.788   1.358   2.678  0.0945  0.7123 -0.0158
  135SOL    HW1  404   0.722   1.311   2.745 -1.6232 -2.8136  1.7754
  135SOL    HW2  405   0.778   1.333   2.573 -0.4867  1.2279 -0.4436
  136SOL     OW  406   1.213   2.030   0.397  0.6105  0.4194 -0.2932
  136SOL    HW1  407   1.162   2.103   0.446 -0.9483 -1.1921 -1.8491
  136SOL    HW2  408   1.161   1.941   0.388  1.6790 -0.1988 -0.1587
  137SOL     OW  409   0.462   1.171   2.269  0.0996 -0.0921  0.5940
  137SOL    HW1  410   0.358   1.152   2.253  0.1591 -1.3297  0.5021
  137SOL    HW2  411   0.517   1.093   2.312  0.4355  2.5054 -0.1021
  138SOL     OW  412   2.416   1.523   0.298  0.0931  0.3038 -0.4439
  138SOL    HW1  413   2.341   1.499   0.237  0.0281 -0.3071  0.1663
  138SOL    HW2  414   2.465   1.434   0.325  0.5095 -3.4300 -2.7947
  139SOL     OW  415   1.890   2.677   1.538 -0.2633  0.9496 -0.3923
  139SOL    HW1  416   1.812   2.707   1.478 -0.9707 -1.7056  0.6750
  139SOL    HW2  417   1.950   2.608   1.485 -0.5090  2.7888 -0.2332
  140SOL     OW  418   3.079   2.992   2.652  0.9172 -0.4362 -0.0730
  140SOL    HW1  419   3.070   2.898   2.620  0.1764 -1.1853 -0.7677
  140SOL    HW2  420   3.146   3.047   2.602 -0.9020 -1.9071 -0.4506
  141SOL     OW  421   1.237   1.613   1.399 -0.4066  0.0172  0.4306
  141SOL    HW1  422   1.150   1.597   1.342 -2.4114 -1.3156 -1.9052
  141SOL    HW2  423   1.231   1.574   1.493 -0.1664  1.1121 -0.7107
  142SOL     OW  424   1.588   0.651   2.264 -0.1210 -0.5167  0.7368
  142SOL    HW1  425   1.603   0.603   2.173 -1.3931  1.4106  1.0816
  142SOL    HW2  426   1.485   0.659   2.290  0.2784 -2.0228  1.2035
  143SOL     OW  427   2.818   0.765   0.578 -0.0010 -0.2040  0.0392
  143SOL    HW1  428   2.852   0.808   0.491 -1.7921 -1.2995  0.0976
  143SOL    HW2  429   2.840   0.824   0.664  2.7881  0.6941  0.9701
  144SOL     OW  430   2.925   1.116   1.401  0.1978 -0.0318 -0.0487
  144SOL    HW1  431   2.883   1.104   1.496  0.1188  0.6769  0.6469
  144SOL    HW2  432   3.014   1.066   1.386 -2.8191 -1.5594 -1.3779
  145SOL     OW  433   0.951   1.894   0.063  0.2454  0.6513 -0.0603
  145SOL    HW1  434   1.020   1.939   0.004 -0.1053  0.4859 -0.1806
  145SOL    HW2  435   0.894   1.826   0.010  0.5548  1.3727  1.1031
  146SOL     OW  436   2.441   0.628   1.543  0.1520 -0.2416  0.5573
  146SOL    HW1  437   2.436   0.546   1.473  1.2725  2.6809 -2.2228
  146SOL    HW2  438   2.380   0.703   1.509 -0.4983  0.6103 -0.8998
  147SOL     OW  439   1.045   2.502   0.496  0.0617 -0.1797 -0.6028
  147SOL    HW1  440   1.015   2.589   0.448  0.4814  0.3683 -0.4106
  147SOL    HW2  441   1.150   2.494   0.502 -0.6504 -1.5274  1.4096
  148SOL     OW  442   1.542   1.375   0.015 -0.2049 -0.4792  0.2983
  148SOL    HW1  443   1.555   1.274   0.001  0.0265  0.4850 -1.2022
  148SOL    HW2  444   1.526   1.403   0.117  0.4569 -0.0362  2.2328
  149SOL     OW  445   0.735   1.502   1.966 -0.0283  0.5941 -0.6080
  149SOL    HW1  446   0.647   1.469   2.015 -0.6440 -0.1143  1.3369
  149SOL    HW2  447   0.732   1.474   1.867  1.3538 -0.3519  0.8354
  150SOL     OW  448   2.992   1.207   1.011  1.0535 -0.2553 -0.2433
  150SOL    HW1  449   3.079   1.236   1.056 -2.7861 -0.7461 -0.2820
  150SOL    HW2  450   2.951   1.117   1.044 -2.5347 -0.6648 -0.6632
  151SOL     OW  451   0.164   0.840   2.113  0.4021  0.5705  0.2476
  151SOL    HW1  452   0.173   0.926   2.054  0.4355  1.2038  0.3832
  151SOL    HW2  453   0.226   0.757   2.092 -0.2543 -0.1532  1.2454
  152SOL     OW  454   1.408   1.876   1.099 -0.0086  0.1841 -0.3335
  152SOL    HW1  455   1.457   1.969   1.090 -0.9214  2.7582 -2.3673
  152SOL    HW2  456   1.305   1.882   1.078 -0.4249 -0.5457 -2.6661
  153SOL     OW  457   0.092   1.523   0.243  0.0332  0.0196  0.1408
  153SOL    HW1  458   0.016   1.456   0.255  1.4796 -1.6669 -0.0102
  153SOL    HW2  459   0.078   1.594   0.317  0.3965  1.9180  0.9813
  154SOL     OW  460   2.264   1.876   2.786  0.4295 -0.5386 -0.0634
  154SOL    HW1  461   2.289   1.784   2.819 -0.6111  3.1547 -0.5762
  154SOL    HW2  462   2.333   1.918   2.721 -0.9097 -0.4496  0.9148
  155SOL     OW  463   2.610   1.328   0.369 -0.4470 -0.2185  0.4449
  155SOL    HW1  464   2.667   1.384   0.432 -0.7291  0.3118 -2.5566
  155SOL    HW2  465   2.672   1.273   0.307 -1.3403  0.8292 -1.9540
  156SOL     OW  466   2.502   0.799   0.761  0.0945  0.1189 -0.1140
  156SOL    HW1  467   2.393   0.802   0.763 -1.6175 -0.0093  0.3958
  156SOL    HW2  468   2.546   0.871   0.699 -0.8243  0.7583  0.8160
  157SOL     OW  469   1.206   0.013   3.018 -0.2637 -0.1905 -0.2886
  157SOL    HW1  470   1.253  -0.034   2.939  0.2166  0.3063 -1.2617
  157SOL    HW2  471   1.257   0.103   3.034  1.0170  1.5873  0.0611
  158SOL     OW  472   1.037   1.825   1.877  0.1928  0.2734  0.3836
  158SOL    HW1  473   1.102   1.895   1.842 -3.0336 -1.4677 -1.3183
  158SOL    HW2  474   0.955   1.865   1.920 -3.9983 -0.0864 -1.5950
  159SOL     OW  475   0.826   0.362   1.199  0.4513  0.1277  0.5909
  159SOL    HW1  476   0.787   0.457   1.212 -0.3368 -0.5755 -2.1774
  159SOL    HW2  477   0.767   0.306   1.131 -1.4059  1.9124 -1.8098
  160SOL     OW  478   1.371   2.460   1.456 -0.1713  0.2770  0.0428
  160SOL    HW1  479   1.333   2.397   1.528  2.2244 -0.1413  3.6377
  160SOL    HW2  480   1.468   2.432   1.430  0.7710  3.3217 -1.7448
  161SOL     OW  481   0.084   2.666   0.407  0.0796  0.2680 -0.1057
  161SOL    HW1  482   0.057   2.563   0.418 -1.2280  1.2094  0.5731
  161SOL    HW2  483   0.000   2.727   0.388  1.2160  1.8051  1.7906
  162SOL     OW  484   2.561   1.950   0.477  0.1193  0.2863  0.0186
  162SOL    HW1  485   2.614   1.947   0.391 -0.3886  0.5441  1.0582
  162SOL    HW2  486   2.500   1.869   0.476  3.1055 -1.7835 -1.0289
  163SOL     OW  487   1.897   2.691   0.790  0.0379 -0.0183 -0.2169
  163SOL    HW1  488   1.845   2.733   0.711 -0.8150 -0.9260 -1.5196
  163SOL    HW2  489   1.960   2.610   0.764 -0.1108 -1.9534 -1.1888
  164SOL     OW  490   3.017   0.160   1.271 -0.1860  0.6128  0.2405
  164SOL    HW1  491   3.013   0.257   1.234  2.1164  1.5438 -0.3826
  164SOL    HW2  492   3.104   0.156   1.324 -1.0555  0.6272 -1.1999
  165SOL     OW  493   1.073   1.357   0.654 -0.4287 -0.4959  0.2778
  165SOL    HW1  494   1.073   1.444   0.711  0.0872 -0.4598 -2.3644
  165SOL    HW2  495   1.038   1.375   0.558 -1.7357  1.6058  0.9789
  166SOL     OW  496   1.546   0.953   1.768 -0.0634  0.5890 -0.9231
  166SOL    HW1  497   1.456   0.988   1.807  0.3442  0.2448 -0.8833
  166SOL    HW2  498   1.607   1.038   1.746  2.2722  0.8403 -0.8767
  167SOL     OW  499   0.648   2.028   1.519 -0.0799 -0.3948  0.2068
  167SOL    HW1  500   0.687   2.089   1.596  1.5970 -0.7645  0.2046
  167SOL    HW2  501   0.584   1.955   1.553 -3.3856  0.3650 -0.5450
  168SOL     OW  502   1.665   2.327   0.156 -0.7166  0.6662  0.0029
  168SOL    HW1  503   1.741   2.341   0.081  2.7995  1.9207 -1.3629
  168SOL    HW2  504   1.700   2.281   0.245 -0.7639 -0.4677  0.9359
  169SOL     OW  505   3.047   2.622   2.158 -0.3423  0.8252 -0.5760
  169SOL    HW1  506   3.034   2.551   2.084  1.2202 -1.0132  0.5280
  169SOL    HW2  507   3.101   2.579   2.235  0.7076 -0.6702  1.2462
  170SOL     OW  508   1.159   0.138   2.120 -0.1236 -0.1996 -0.1039
  170SOL    HW1  509   1.240   0.174   2.174  0.3878  2.1659 -3.3130
  170SOL    HW2  510   1.168   0.160   2.022 -3.8686  0.7746  1.5004
  171SOL     OW  511   0.160   0.887   2.449  0.1196 -0.2116 -0.3903
  171SOL    HW1  512   0.068   0.877   2.495  1.6301 -2.3812  0.5699
  171SOL    HW2  513   0.160   0.883   2.344 -1.5539  0.6292 -0.4922
  172SOL     OW  514   1.027   1.016   2.829  0.5551  0.3503  0.5849
  172SOL    HW1  515   0.994   1.058   2.917  1.8444  0.6455 -1.5342
  172SOL    HW2  516   0.977   1.050   2.747 -1.3475  1.6616  2.3648
  173SOL     OW  517   0.320   2.550   3.050 -0.1121 -0.0062  0.7978
  173SOL    HW1  518   0.335   2.564   2.948 -1.6318  2.1830  1.6454
  173SOL    HW2  519   0.380   2.485   3.101 -0.5238  0.4424  1.4351
  174SOL     OW  520   1.479   2.902   0.979  0.4764  0.5889  0.2009
  174SOL    HW1  521   1.573   2.945   0.972 -1.3787  1.0251 -0.8678
  174SOL    HW2  522   1.479   2.799   0.957 -0.4320 -1.6910  0.2481
  175SOL     OW  523   0.408   0.029   1.724 -0.4766  0.3977  0.5145
  175SOL    HW1  524   0.465   0.018   1.813  0.1788  1.1719  2.3815
  175SOL    HW2  525   0.379   0.127   1.712  1.1504  1.4268  0.0271
  176SOL     OW  526   2.533   0.465   0.031 -0.2082  0.1051 -0.1390
  176SOL    HW1  527   2.585   0.510   0.112  2.1191  1.1652 -1.2221
  176SOL    HW2  528   2.466   0.389   0.066 -0.2585  1.1970  1.7748
  177SOL     OW  529   0.323   0.101   0.783  0.3365 -0.4518 -0.0767
  177SOL    HW1  530   0.302   0.019   0.841  0.3502  1.4961 -2.3301
  177SOL    HW2  531   0.413   0.148   0.812 -0.5826 -2.6365 -0.2414
  178SOL     OW  532   0.007   2.717   2.615  0.5299 -0.1970  0.0369
  178SOL    HW1  533  -0.009   2.614   2.617 -1.1402 -1.0316  1.3795
  178SOL    HW2  534   0.088   2.747   2.672 -2.0739  0.4783  0.2801
  179SOL     OW  535   2.992   1.610   1.225 -0.0902  0.2610 -0.1165
  179SOL    HW1  536   3.084   1.632   1.179  2.6915  2.1049  1.3399
  179SOL    HW2  537   2.994   1.512   1.268 -1.1584 -0.1687  1.7607
  180SOL     OW  538   0.233   1.348   1.728 -0.5776 -0.3539 -0.1351
  180SOL    HW1  539   0.312   1.307   1.784 -1.2011  1.7903  1.4555
  180SOL    HW2  540   0.190   1.422   1.781  0.1310  0.9053  1.7264
  181SOL     OW  541   3.054   1.737   2.441  0.3383 -0.2406 -0.3762
  181SOL    HW1  542   3.136   1.805   2.429  1.5345  3.9326  0.3033
  181SOL    HW2  543   2.967   1.782   2.402  1.4324  2.0808 -1.4908
  182SOL     OW  544   2.212   1.415   1.208 -0.1217 -0.0180 -0.2359
  182SOL    HW1  545   2.242   1.360   1.293  1.6958 -3.0792  1.9182
  182SOL    HW2  546   2.241   1.371   1.120  3.2868  3.2440  1.4558
  183SOL     OW  547   1.394   2.204   2.487  0.4017  0.1956  0.3965
  183SOL    HW1  548   1.328   2.126   2.502 -0.0662 -2.9647  0.0216
  183SOL    HW2  549   1.491   2.165   2.477  1.6110  0.5685 -0.6224
  184SOL     OW  550   2.237   0.805   0.796 -0.6493  0.4061 -0.4756
  184SOL    HW1  551   2.158   0.825   0.732 -0.0425  0.1442 -0.2882
  184SOL    HW2  552   2.259   0.706   0.809  2.7753  2.8383 -2.7957
  185SOL     OW  553   1.595   2.761   2.009 -0.0967  0.7009  0.4469
  185SOL    HW1  554   1.517   2.830   2.014 -0.0417 -0.7683 -1.4917
  185SOL    HW2  555   1.634   2.741   2.101 -0.1792  1.0255 -0.8906
  186SOL     OW  556   3.092   2.126   1.798 -0.0027 -0.2469 -0.3502
  186SOL    HW1  557   3.094   2.213   1.855 -2.1256 -1.7898 -2.0588
  186SOL    HW2  558   3.172   2.108   1.734 -0.9850 -0.3665  1.6453
  187SOL     OW  559   1.329   0.630   1.677  0.8937 -0.3521 -0.3537
  187SOL    HW1  560   1.424   0.655   1.633  3.6408  0.8938 -0.8870
  187SOL    HW2  561   1.341   0.566   1.758 -0.3095  1.1533 -0.9477
  188SOL     OW  562   2.705   2.682   1.559  0.0551  0.2445 -0.8149
  188SOL    HW1  563   2.678   2.784   1.580 -2.5934  2.7373 -1.0872
  188SOL    HW2  564   2.630   2.629   1.513  1.5055 -0.2030 -0.9978
  189SOL     OW  565   0.855   1.133   1.437 -0.0782 -0.2815  0.2585
  189SOL    HW1  566   0.939   1.182   1.470  1.3943 -0.4996 -0.2507
  189SOL    HW2  567   0.792   1.193   1.383 -1.3466 -2.1730  0.0143
  190SOL     OW  568   1.387   1.875   1.513 -0.5608  0.6946 -0.5449
  190SOL    HW1  569   1.335   1.797   1.475  0.9148  1.1427  2.2033
  190SOL    HW2  570   1.403   1.877   1.618 -1.9856 -1.5360  2.2856
  191SOL     OW  571   0.909   0.736   1.508  0.4059 -0.6562  0.0736
  191SOL    HW1  572   0.962   0.653   1.543 -2.5506 -0.0500  0.2490
  191SOL    HW2  573   0.961   0.827   1.490  2.5506 -1.0280 -1.2365
  192SOL     OW  574   1.836   2.414   1.120 -0.2438 -0.2874 -0.6132
  192SOL    HW1  575   1.743   2.403   1.079 -0.7883  3.0057  3.2536
  192SOL    HW2  576   1.909   2.391   1.052  3.2760 -1.5001  0.8186
  193SOL     OW  577   0.490   0.500   0.395  0.0564 -0.0344  0.5678
  193SOL    HW1  578   0.415   0.427   0.380 -0.2305  0.4648 -0.2424
  193SOL    HW2  579   0.562   0.509   0.318  1.1433 -0.0293 -1.9439
  194SOL     OW  580   0.439   0.724   1.202  0.0359 -0.2188 -0.4845
  194SOL    HW1  581   0.340   0.744   1.217  2.2367  1.2053 -0.5081
  194SOL    HW2  582   0.451   0.640   1.138 -1.7348 -0.2354 -0.1151
  195SOL     OW  583   1.012   2.929   0.498 -0.3443 -0.4990 -0.1266
  195SOL    HW1  584   0.992   2.844   0.438 -0.1188 -0.9691 -1.2819
  195SOL    HW2  585   1.115   2.949   0.503  0.6113 -3.3618  1.8739
  196SOL     OW  586   0.181   1.369   1.356 -0.8387 -0.1829  0.2409
  196SOL    HW1  587   0.240   1.453   1.375 -1.3809 -0.1768  3.1131
  196SOL    HW2  588   0.215   1.288   1.408  1.5701 -1.3368 -1.7610
  197SOL     OW  589   0.787   1.965   0.272 -0.0488 -0.2811  0.5988
  197SOL    HW1  590   0.824   1.914   0.360  1.4136  1.3691  1.1507
  197SOL    HW2  591   0.849   1.963   0.190 -1.5133 -0.5606  1.4680
  198SOL     OW  592   0.299   1.232   0.341  0.2475 -0.0669  0.3114
  198SOL    HW1  593   0.200   1.229   0.304 -0.3616  2.2127  1.1353
  198SOL    HW2  594   0.317   1.302   0.414  1.6005 -2.2942  1.6457
  199SOL     OW  595   2.291   0.420   2.628  1.2221  0.2926 -0.0354
  199SOL    HW1  596   2.225   0.391   2.703 -1.3151  2.1559  1.3750
  199SOL    HW2  597   2.386   0.380   2.644  0.8643 -1.7483  0.6011
  200SOL     OW  598   3.092   2.914   0.744  0.3819  0.5407 -0.9203
  200SOL    HW1  599   3.131   3.011   0.758  1.4927  1.8086 -0.8018
  200SOL    HW2  600   3.019   2.912   0.669  0.7146  0.8855  1.0161
  201SOL     OW  601   0.887   0.679   0.481 -0.6973 -0.0897 -0.2640
  201SOL    HW1  602   0.881   0.761   0.553  1.1116  1.4091 -1.7082
  201SOL    HW2  603   0.829   0.603   0.517 -0.5990  0.3761  2.5357
  202SOL     OW  604   0.441   1.260   1.895 -0.6453 -0.6889 -0.4761
  202SOL    HW1  605   0.527   1.213   1.861 -0.4463 -1.2433  1.4157
  202SOL    HW2  606   0.454   1.315   1.982  0.5818  2.1044 -1.6330
  203SOL     OW  607   0.624   0.213   1.600  0.1727  0.4333  0.4411
  203SOL    HW1  608   0.663   0.151   1.523  1.2131 -0.7362 -0.9979
  203SOL    HW2  609   0.666   0.192   1.693  1.1847 -0.5736  0.8498
  204SOL     OW  610   2.032   1.823   2.980 -0.3580 -0.8094 -0.4136
  204SOL    HW1  611   2.024   1.723   2.996 -2.3333  0.7309  0.5112
  204SOL    HW2  612   2.091   1.853   2.900 -0.4022  0.7903 -0.7463
  205SOL     OW  613   1.775   1.883   3.033 -0.2422 -0.0620  0.5242
  205SOL    HW1  614   1.872   1.842   3.023 -1.7481  0.1770 -1.7038
  205SOL    HW2  615   1.766   1.974   2.980 -1.1187  0.7955 -1.0857
  206SOL     OW  616   2.391   2.748   0.313  0.1979  0.2047  0.3119
  206SOL    HW1  617   2.315   2.699   0.366 -2.6945 -0.1148 -1.2836
  206SOL    HW2  618   2.464   2.684   0.275  1.6508 -0.5176 -2.2819
  207SOL     OW  619   0.699   1.768   2.910 -0.4783 -0.0897  0.1121
  207SOL    HW1  620   0.793   1.729   2.888  1.0165 -0.2438  1.2760
  207SOL    HW2  621   0.625   1.702   2.949 -0.5538 -0.3711 -1.9913
  208SOL     OW  622   1.020   1.591   1.231  0.1474 -0.1207  0.1933
  208SOL    HW1  623   0.949   1.612   1.158  0.9781  1.4352  1.5673
  208SOL    HW2  624   0.972   1.574   1.320  0.3250 -1.5235  1.2781
  209SOL     OW  625   0.255   0.984   3.093  0.2805 -0.5103  1.0226
  209SOL    HW1  626   0.296   0.913   3.035  1.0120  2.0727  0.8388
  209SOL    HW2  627   0.239   0.942   3.189 -2.4035 -1.8210 -1.5495
  210SOL     OW  628   1.777   0.664   1.246 -0.3567  0.7079  0.0506
  210SOL    HW1  629   1.795   0.763   1.264  1.5403  2.5968 -0.0664
  210SOL    HW2  630   1.866   0.608   1.247 -1.1598 -0.2855 -2.4107
  211SOL     OW  631   2.053   1.141   1.553 -0.5111  0.1665 -0.3951
  211SOL    HW1  632   2.092   1.128   1.649  1.2230  0.8180 -2.2359
  211SOL    HW2  633   2.131   1.187   1.502  1.7737  1.5000 -0.4057
  212SOL     OW  634   0.083   0.950   1.422  0.1309 -0.2428  0.3280
  212SOL    HW1  635   0.152   1.020   1.461  0.6046 -0.3732 -0.1060
  212SOL    HW2  636   0.059   0.875   1.487  0.1290  1.8444  0.1226
  213SOL     OW  637   2.842   0.060   0.338 -0.6326  0.0098  0.3604
  213SOL    HW1  638   2.933   0.024   0.317  1.5342  2.0181  1.8264
  213SOL    HW2  639   2.773   0.033   0.263 -2.0771 -0.2764  1.2552
  214SOL     OW  640   2.213   0.342   2.384 -0.3374 -0.6225  0.0366
  214SOL    HW1  641   2.248   0.359   2.478  0.0242  0.7367  0.4199
  214SOL    HW2  642   2.158   0.255   2.363 -2.8049  2.0217 -0.2600
  215SOL     OW  643   1.698   2.299   2.069  0.2924 -0.0173 -0.1124
  215SOL    HW1  644   1.789   2.353   2.066 -0.8720  0.6117  0.6147
  215SOL    HW2  645   1.619   2.359   2.101  1.3763 -0.3425  0.7177
  216SOL     OW  646   2.308   0.523   0.775  0.3797 -0.2240 -0.0580
  216SOL    HW1  647   2.297   0.461   0.692 -0.1755 -0.4244 -1.1277
  216SOL    HW2  648   2.392   0.510   0.826 -2.9026  1.1232 -2.3661
  217SOL     OW  649   0.882   2.686   2.546  0.0837 -0.2052 -0.7129
  217SOL    HW1  650   0.889   2.681   2.655 -1.5818  2.2631  4.8562
  217SOL    HW2  651   0.805   2.630   2.509 -0.0529  1.4112  1.6662
  218SOL     OW  652   1.851   1.398   0.015 -0.0748  0.0590  0.3100
  218SOL    HW1  653   1.750   1.426   0.004 -2.7572 -0.5529 -0.3208
  218SOL    HW2  654   1.867   1.306   0.060 -1.0057 -1.7785  1.3327
  219SOL     OW  655   2.419   1.260   2.532  0.1019  0.3912  0.0458
  219SOL    HW1  656   2.438   1.207   2.445 -0.9702 -3.1355 -1.0656
  219SOL    HW2  657   2.414   1.191   2.609 -1.2129  1.2061 -0.0879
  220SOL     OW  658   1.436   1.041   1.420 -0.2769 -0.6052 -0.4851
  220SOL    HW1  659   1.530   1.013   1.451 -1.7191 -0.9015  0.5307
  220SOL    HW2  660   1.434   1.065   1.320  2.6640  1.6034  2.2556
  221SOL     OW  661   1.235   1.002   2.114 -0.5783  0.4158 -0.4949
  221SOL    HW1  662   1.266   1.021   2.015 -0.3101  1.0169 -0.4213
  221SOL    HW2  663   1.315   0.992   2.177  1.4804 -1.5443  0.2536
  222SOL     OW  664   1.148   0.060   1.194 -0.0524  0.3910 -0.2884
  222SOL    HW1  665   1.153   0.089   1.295 -0.5690  1.0289  0.1559
  222SOL    HW2  666   1.157   0.131   1.121 -1.9319  0.8848 -0.6139
  223SOL     OW  667   2.692   0.947   2.154 -0.2428  0.0291  0.1515
  223SOL    HW1  668   2.651   0.987   2.240 -1.0943  2.4880 -1.0016
  223SOL    HW2  669   2.792   0.963   2.145  0.0389  0.3179 -0.4428
  224SOL     OW  670   1.547   0.977   2.810  0.7629 -0.0900 -0.1435
  224SOL    HW1  671   1.547   0.915   2.721  1.3442 -0.7037  2.2133
  224SOL    HW2  672   1.574   1.078   2.798  2.1431  2.3307 -1.3838
  225SOL     OW  673   2.951   2.670   2.874 -0.1844 -0.3798  0.4920
  225SOL    HW1  674   2.881   2.710   2.807  1.5554 -0.0229 -1.3384
  225SOL    HW2  675   3.050   2.688   2.840  3.7149  1.3675  1.2797
  226SOL     OW  676   2.400   1.582   2.846 -0.5391 -0.2877  0.3107
  226SOL    HW1  677   2.441   1.568   2.750  2.3670  0.1268 -1.4785
  226SOL    HW2  678   2.426   1.513   2.917  1.1909  1.7074  1.8041
  227SOL     OW  679   0.901   0.298   3.020 -0.5077  0.1139  0.3065
  227SOL    HW1  680   0.899   0.399   3.035  2.2379 -0.0605  3.1964
  227SOL    HW2  681   0.849   0.280   2.937  0.2252  1.5888  1.2913
  228SOL     OW  682   2.389   0.682   2.916  0.2115 -0.3646  0.1246
  228SOL    HW1  683   2.428   0.724   2.828 -1.9508 -1.1986 -0.8757
  228SOL    HW2  684   2.431   0.592   2.935 -0.3579  1.8856 -1.0439
  229SOL     OW  685   0.758   0.680   1.742  0.1634 -0.2367 -1.0574
  229SOL    HW1  686   0.838   0.661   1.805  1.9426 -0.0021  2.0622
  229SOL    HW2  687   0.729   0.600   1.687 -2.9429  1.4813 -0.4416
  230SOL     OW  688   1.923   1.208   1.938 -0.0967  0.0507 -0.0180
  230SOL    HW1  689   1.984   1.276   1.891  1.9753  0.0310 -0.2362
  230SOL    HW2  690   1.865   1.245   2.020  0.6268 -1.0437  2.1969
  231SOL     OW  691   0.664   0.980   0.036  0.2856  0.2025  0.5226
  231SOL    HW1  692   0.767   0.999   0.027  0.4986 -2.0311  2.4546
  231SOL    HW2  693   0.605   1.059   0.043  1.4612 -0.3719 -2.8012
  232SOL     OW  694   2.405   2.960   2.794  0.2142  0.2447 -0.1602
  232SOL    HW1  695   2.465   2.878   2.822 -0.1551 -0.3723  1.6034
  232SOL    HW2  696   2.447   3.014   2.716  0.1479  3.0095  1.3893
  233SOL     OW  697   1.817   1.104   1.166 -0.0306 -0.3735 -0.4526
  233SOL    HW1  698   1.851   1.170   1.094 -1.9834 -0.3756  0.6344
  233SOL    HW2  699   1.865   1.012   1.157 -0.4207  0.0657 -0.6800
  234SOL     OW  700   1.648   2.542   1.834 -0.0416  0.2127 -0.1282
  234SOL    HW1  701   1.636   2.598   1.916 -0.8295 -1.5739 -3.7169
  234SOL    HW2  702   1.592   2.457   1.828 -0.7601 -0.6902 -2.8968
  235SOL     OW  703   0.100   3.017   2.888 -0.1018 -0.1569  0.2911
  235SOL    HW1  704   0.026   3.032   2.819 -0.9818 -2.7584  2.1813
  235SOL    HW2  705   0.067   3.033   2.986 -2.4016 -1.5322 -0.6181
  236SOL     OW  706   2.895   0.767   0.048  0.3872 -0.4688  0.3251
  236SOL    HW1  707   2.974   0.794   0.112  0.3443  0.3200  0.0197
  236SOL    HW2  708   2.913   0.669   0.011 -2.9761  1.0438 -1.4049
  237SOL     OW  709   1.503   1.682   0.902 -0.2820  0.1042  0.2267
  237SOL    HW1  710   1.601   1.669   0.887  0.4972 -0.2419 -1.7834
  237SOL    HW2  711   1.481   1.748   0.982 -1.1829  1.3447  0.0802
  238SOL     OW  712   1.901   1.230   0.723  0.3602  0.0752  0.3651
  238SOL    HW1  713   1.944   1.222   0.817 -0.8631  1.4821 -1.8819
  238SOL    HW2  714   1.807   1.269   0.727  0.0264 -0.4712  0.3958
  239SOL     OW  715   2.095   0.353   2.806  0.2653  0.1212 -0.6426
  239SOL    HW1  716   2.128   0.352   2.906  0.4573  0.8362 -1.6031
  239SOL    HW2  717   1.992   0.371   2.792 -2.4154 -1.0505  0.4090
  240SOL     OW  718   0.893   0.679   0.216 -0.1373 -0.2842 -0.3806
  240SOL    HW1  719   0.968   0.623   0.173 -1.1392  2.5750 -1.6129
  240SOL    HW2  720   0.890   0.672   0.321 -0.5650  1.1318 -0.1320
  241SOL     OW  721   0.555   0.142   0.314  0.1714 -0.1687  0.9037
  241SOL    HW1  722   0.630   0.207   0.288 -1.7865 -1.7968  1.6382
  241SOL    HW2  723   0.562   0.056   0.257  0.6058 -0.5520  0.2302
  242SOL     OW  724   0.611   2.617   1.288  0.0110 -0.1743 -0.2410
  242SOL    HW1  725   0.615   2.585   1.385 -1.1857  0.1163  2.2629
  242SOL    HW2  726   0.643   2.715   1.284  2.0547 -2.4038  1.9595
  243SOL     OW  727   1.053   0.593   2.407  1.2219 -0.1311  0.1204
  243SOL    HW1  728   0.961   0.622   2.369 -1.2013  0.4842  1.9374
  243SOL    HW2  729   1.045   0.535   2.498  1.3185 -0.7252  1.1749
  244SOL     OW  730   2.807   1.878   2.361  0.0731 -0.6020  0.0975
  244SOL    HW1  731   2.827   1.872   2.257 -0.9516  0.7745 -2.2302
  244SOL    HW2  732   2.709   1.845   2.383  0.6744  1.2391  2.2195
  245SOL     OW  733   2.129   1.035   2.215  0.2990 -0.0167  0.5695
  245SOL    HW1  734   2.214   1.021   2.276  0.0090 -1.0318 -1.4184
  245SOL    HW2  735   2.070   1.114   2.242  0.7418 -1.7488  1.9334
  246SOL     OW  736   0.262   2.907   1.824 -0.1234 -0.6937  0.0672
  246SOL    HW1  737   0.176   2.878   1.770 -0.4610  3.2783  1.4783
  246SOL    HW2  738   0.317   2.974   1.772  1.1032 -0.7554  3.2209
  247SOL     OW  739   2.199   0.602   3.102 -0.4806  0.2957  0.6034
  247SOL    HW1  740   2.259   0.630   3.020  0.0196 -0.1773  3.5159
  247SOL    HW2  741   2.119   0.669   3.115 -1.5778  0.3551  1.4136
  248SOL     OW  742   2.157   1.898   1.601 -0.1624 -0.2835 -0.9815
  248SOL    HW1  743   2.214   1.823   1.650 -0.1568  2.5773 -1.8580
  248SOL    HW2  744   2.131   1.977   1.667 -0.7369  0.6486  1.3312
  249SOL     OW  745   1.874   1.852   1.912 -0.1183 -0.4438  0.1275
  249SOL    HW1  746   1.868   1.781   1.834  0.5691  0.2144  0.8064
  249SOL    HW2  747   1.972   1.869   1.945  0.3834  0.2002 -0.5254
  250SOL     OW  748   1.085   0.653   1.856 -0.2231 -0.4383  0.0176
  250SOL    HW1  749   1.113   0.594   1.934 -1.2907  2.1284  1.8915
  250SOL    HW2  750   1.083   0.613   1.763  0.3254  3.2269  1.2328
  251SOL     OW  751   3.032   1.507   2.557  0.2991  0.0393 -0.0312
  251SOL    HW1  752   3.030   1.603   2.511 -0.9171  0.7802 -2.1304
  251SOL    HW2  753   2.976   1.435   2.507  0.9663 -0.7985 -1.4796
  252SOL     OW  754   1.550   0.754   1.568 -0.7474  0.4481  0.0218
  252SOL    HW1  755   1.607   0.785   1.488 -0.2764 -1.9424  0.7519
  252SOL    HW2  756   1.552   0.833   1.638  0.4335  1.9407 -1.3927
  253SOL     OW  757   0.995   1.468   0.402  0.2698  0.1722 -0.3226
  253SOL    HW1  758   0.997   1.476   0.302 -1.4802  0.3195  0.4441
  253SOL    HW2  759   0.912   1.509   0.445 -0.1455 -1.0934  2.5860
  254SOL     OW  760   2.061   2.180   1.637  0.6596  0.5495 -0.4896
  254SOL    HW1  761   1.985   2.125   1.596  0.6505 -2.5323 -0.8221
  254SOL    HW2  762   2.026   2.252   1.702 -0.2336 -1.5864  1.4133
  255SOL     OW  763   0.088   1.168   2.976 -0.1277 -0.3812 -0.0375
  255SOL    HW1  764   0.144   1.252   2.954 -0.3508 -0.4301 -0.6432
  255SOL    HW2  765   0.152   1.084   3.013  4.1550 -1.5100  0.8694
  256SOL     OW  766   2.777   1.440   1.786 -0.3821  0.0973  0.0007
  256SOL    HW1  767   2.718   1.493   1.844  2.3411 -2.6623 -0.3484
  256SOL    HW2  768   2.756   1.338   1.785 -0.9932 -3.0050  0.2396
  257SOL     OW  769   0.816   0.179   1.868  0.5817 -0.0858 -0.4271
  257SOL    HW1  770   0.863   0.233   1.797  0.1172 -0.9782  1.0991
  257SOL    HW2  771   0.851   0.077   1.880  1.4376 -5.3245  0.8400
  258SOL     OW  772   2.989   1.165   0.541  0.2069 -0.2107  0.2025
  258SOL    HW1  773   2.897   1.179   0.579  0.8571 -1.5142 -1.1938
  258SOL    HW2  774   3.069   1.168   0.607  1.1763  0.0114  1.2359
  259SOL     OW  775   0.461   2.964   3.039  0.4228 -0.2627  0.6061
  259SOL    HW1  776   0.374   2.922   3.083  1.9200  1.1166 -0.0839
  259SOL    HW2  777   0.479   2.918   2.953  0.4230  1.7197  1.0980
  260SOL     OW  778   2.696   0.658   2.796 -0.0184 -0.4847 -0.1742
  260SOL    HW1  779   2.617   0.702   2.746  0.8739 -0.3086  0.6204
  260SOL    HW2  780   2.662   0.568   2.831  1.2344  0.1938  1.6186
  261SOL     OW  781   2.730   1.283   1.274 -0.1000  0.6540 -0.4532
  261SOL    HW1  782   2.658   1.217   1.233 -1.7856 -1.1514  0.5139
  261SOL    HW2  783   2.817   1.237   1.312 -0.8925 -0.3512  3.6332
  262SOL     OW  784   1.394   2.966   1.993 -0.4119 -0.0925 -0.3593
  262SOL    HW1  785   1.416   3.050   1.935  0.2306 -2.1235 -1.4704
  262SOL    HW2  786   1.312   2.913   1.967 -1.2532 -0.0181  0.7881
  263SOL     OW  787   0.846   0.684   2.262 -0.1870 -0.4748  0.5165
  263SOL    HW1  788   0.801   0.600   2.234  1.5097  0.7313 -1.2420
  263SOL    HW2  789   0.874   0.738   2.179  2.2539  2.2940 -0.6588
  264SOL     OW  790   2.281   0.809   0.461  0.3374 -0.6622  0.1294
  264SOL    HW1  791   2.292   0.743   0.381 -1.1643  0.9554  0.0244
  264SOL    HW2  792   2.374   0.840   0.492 -1.2403 -0.7556 -2.4399
  265SOL     OW  793   0.878   2.304   2.651 -0.0368 -0.1094  0.0307
  265SOL    HW1  794   0.867   2.296   2.756  2.3115 -2.6562  4.0854
  265SOL    HW2  795   0.814   2.241   2.597  1.0113  0.6782  0.3750
  266SOL     OW  796   1.277   1.819   3.015 -0.1408 -0.3072 -0.7103
  266SOL    HW1  797   1.274   1.882   3.098  0.0464 -0.1613  0.1126
  266SOL    HW2  798   1.371   1.796   2.978  2.5527 -1.0330 -3.2778
  267SOL     OW  799   1.118   3.019   2.291  0.2001 -0.3844  0.0809
  267SOL    HW1  800   1.070   2.942   2.245  2.8028 -0.1836  0.4177
  267SOL    HW2  801   1.126   3.113   2.248  1.9359  0.5480  3.5452
  268SOL     OW  802   0.770   1.292   1.237 -0.1194 -0.1105  0.7288
  268SOL    HW1  803   0.706   1.372   1.240  0.4090 -3.0753 -0.8257
  268SOL    HW2  804   0.854   1.310   1.185  0.6384 -0.6655 -0.8972
  269SOL     OW  805   2.281   2.517   1.612 -0.6786  0.0867 -0.1430
  269SOL    HW1  806   2.372   2.467   1.630  2.9282 -0.8192  1.0414
  269SOL    HW2  807   2.228   2.523   1.703 -2.3776  0.1469  0.4737
  270SOL     OW  808   0.117   3.050   2.009  0.3062 -0.5743 -0.0193
  270SOL    HW1  809   0.159   2.995   1.928  0.9453 -0.1668 -3.2100
  270SOL    HW2  810   0.071   2.985   2.073  5.3566 -1.5214 -0.1798
  271SOL     OW  811   0.361   1.432   1.123 -0.4879  0.3416  0.0665
  271SOL    HW1  812   0.363   1.399   1.024 -0.5961  1.7362  1.3835
  271SOL    HW2  813   0.267   1.439   1.155  0.9022  2.6888  1.1995
  272SOL     OW  814   1.871   0.007   1.906 -0.0830 -0.2847  0.2846
  272SOL    HW1  815   1.821  -0.075   1.872  0.7668  1.3533  1.6421
  272SOL    HW2  816   1.912   0.057   1.826  2.6122 -1.1779  1.7811
  273SOL     OW  817   1.460   1.447   2.868  0.3705  0.0056  0.2369
  273SOL    HW1  818   1.359   1.464   2.878  1.1520 -3.2308 -0.9766
  273SOL    HW2  819   1.499   1.404   2.956 -2.2227 -2.5735  1.5358
  274SOL     OW  820   1.182   0.547   2.112  0.3803 -0.1544  0.3358
  274SOL    HW1  821   1.099   0.481   2.131 -1.9989  0.8460  0.8985
  274SOL    HW2  822   1.233   0.557   2.200  0.6641 -0.2811  0.5439
  275SOL     OW  823   0.657   2.157   1.958  0.4379  0.0840 -0.1833
  275SOL    HW1  824   0.589   2.079   1.945  0.4818  1.8288 -1.1321
  275SOL    HW2  825   0.617   2.247   1.984  0.8346  0.0657 -0.4409
  276SOL     OW  826   2.228   0.920   2.849 -0.7471 -0.0923 -0.4068
  276SOL    HW1  827   2.148   0.943   2.787 -0.4148  1.2625 -2.0294
  276SOL    HW2  828   2.251   0.817   2.863 -0.3056  0.2319 -0.6950
  277SOL     OW  829   3.083   0.788   0.239 -0.0492  0.0018 -0.0790
  277SOL    HW1  830   3.174   0.825   0.199 -0.3513  1.7960  0.2018
  277SOL    HW2  831   3.092   0.709   0.309  0.1299 -2.9027 -1.1574
  278SOL     OW  832   0.330   0.237   0.021 -0.1812  0.2045 -0.2260
  278SOL    HW1  833   0.412   0.203  -0.032  1.3856  1.5841 -0.6000
  278SOL    HW2  834   0.318   0.342   0.007 -0.8998  1.1363  0.2580
  279SOL     OW  835   0.239   2.989   0.946 -0.4523  0.0834 -0.1039
  279SOL    HW1  836   0.304   2.997   1.031  1.1978  4.1586 -0.7803
  279SOL    HW2  837   0.263   2.910   0.884 -1.2550 -1.8813 -0.0921
  280SOL     OW  838   1.582   2.895   2.440 -0.6248  0.3795 -0.2832
  280SOL    HW1  839   1.646   2.959   2.495  3.6644 -2.2798  0.5971
  280SOL    HW2  840   1.532   2.944   2.356  0.6564  0.3518 -0.7118
  281SOL     OW  841   0.621   0.935   2.322  0.0005 -0.1453 -0.5939
  281SOL    HW1  842   0.578   0.863   2.261  3.1622  1.0628  1.1939
  281SOL    HW2  843   0.585   0.919   2.416  0.2410  1.8258 -0.4115
  282SOL     OW  844   1.727   2.451   0.548 -0.2621 -0.3620  0.3763
  282SOL    HW1  845   1.695   2.379   0.475 -3.0358 -2.4190 -0.0067
  282SOL    HW2  846   1.688   2.546   0.541  1.4262 -0.7895 -2.4932
  283SOL     OW  847   1.133   0.911   0.788 -0.3887 -0.2337  0.1410
  283SOL    HW1  848   1.180   0.867   0.872  0.0943  0.6975 -0.7013
  283SOL    HW2  849   1.102   1.006   0.813 -0.8021  0.7639 -1.4314
  284SOL     OW  850   2.208   2.853   2.470 -0.2749  0.3923 -0.1085
  284SOL    HW1  851   2.304   2.868   2.432  0.5457  0.2033  0.9727
  284SOL    HW2  852   2.209   2.830   2.570 -0.5389  2.2520 -0.2399
  285SOL     OW  853   1.331   3.072   2.533 -0.2813  0.2215 -0.5450
  285SOL    HW1  854   1.386   3.056   2.447  2.6554  0.8278  0.5368
  285SOL    HW2  855   1.244   3.138   2.515 -1.9769  2.0214 -3.3390
  286SOL     OW  856   0.226   0.319   0.663 -0.2363 -0.3176  0.0226
  286SOL    HW1  857   0.253   0.227   0.709 -1.0699  2.5180 -1.7136
  286SOL    HW2  858   0.304   0.345   0.592  1.6228  1.5954 -1.9420
  287SOL     OW  859   0.105   1.281   2.547  0.0642  0.2713  0.4933
  287SOL    HW1  860   0.060   1.222   2.620  0.3357 -0.8115 -0.4689
  287SOL    HW2  861   0.057   1.378   2.533  0.5638  3.6100 -0.6415
  288SOL     OW  862   1.525   2.711   1.654  0.5639 -0.2173 -0.0044
  288SOL    HW1  863   1.566   2.654   1.728  0.9701 -1.7791  0.3394
  288SOL    HW2  864   1.574   2.696   1.564 -1.0388  1.4745  1.1504
  289SOL     OW  865   0.584   2.731   0.782 -0.0615 -0.5217 -0.4780
  289SOL    HW1  866   0.637   2.791   0.713  0.1056  0.5939 -0.6886
  289SOL    HW2  867   0.550   2.781   0.863 -0.5919  2.9796 -1.9499
  290SOL     OW  868   2.814   1.075   1.649 -0.3823 -0.4012 -0.5753
  290SOL    HW1  869   2.723   1.033   1.668  0.5450 -1.4174 -1.6217
  290SOL    HW2  870   2.883   1.072   1.731  1.3646 -0.0937  0.7474
  291SOL     OW  871   1.918   0.009   0.032 -0.1580 -0.1100 -0.7589
  291SOL    HW1  872   1.939   0.030   0.133 -0.9650  2.6416 -0.4440
  291SOL    HW2  873   2.010   0.015  -0.020  1.5240 -2.0526  3.4823
  292SOL     OW  874   2.939   1.249   0.015 -0.3100 -1.1418 -0.0223
  292SOL    HW1  875   2.908   1.296  -0.074  0.8009 -1.2591 -2.5419
  292SOL    HW2  876   3.038   1.224   0.004  0.6133  3.2334  0.7802
  293SOL     OW  877   0.544   2.044   0.215  0.0005 -0.0173 -0.5063
  293SOL    HW1  878   0.537   2.115   0.288  3.2847  1.1171 -1.9449
  293SOL    HW2  879   0.638   2.007   0.220 -1.4076 -2.7857 -1.0201
  294SOL     OW  880   1.902   2.392   1.806  0.5240  0.1807 -0.4876
  294SOL    HW1  881   1.937   2.380   1.903  0.2296  0.8555  0.1268
  294SOL    HW2  882   1.819   2.456   1.802  0.5785 -1.3398 -1.5830
  295SOL     OW  883   0.938   1.040   0.441  0.3693 -0.3133  0.0203
  295SOL    HW1  884   1.032   1.070   0.467 -0.8039 -2.4978  0.5000
  295SOL    HW2  885   0.896   0.993   0.522  1.2263  0.4621  0.9062
  296SOL     OW  886   1.114   2.140   2.689 -0.8193  0.5237 -0.3692
  296SOL    HW1  887   1.021   2.179   2.666 -1.3983 -0.0861  2.3693
  296SOL    HW2  888   1.141   2.065   2.617 -0.9380  0.1636 -1.9956
  297SOL     OW  889   1.330   0.625   1.243 -0.1940  0.1794 -0.2097
  297SOL    HW1  890   1.341   0.546   1.309 -0.1247  0.9022 -0.4735
  297SOL    HW2  891   1.411   0.638   1.176  2.9590  1.3009  0.2292
  298SOL     OW  892   0.509   1.331   2.969  0.8405  0.3139 -0.1211
  298SOL    HW1  893   0.489   1.290   3.064 -3.3887 -0.6780  1.9692
  298SOL    HW2  894   0.544   1.259   2.901 -2.8768 -1.1395  2.5361
  299SOL     OW  895   0.431   0.183   1.210 -0.2045 -0.7184 -0.4195
  299SOL    HW1  896   0.389   0.262   1.157 -0.0182  1.0941  1.3329
  299SOL    HW2  897   0.425   0.205   1.314  1.3992 -0.4602  4.1431
  300SOL     OW  898   1.216   1.737   2.607 -1.3211 -0.6791  0.2743
  300SOL    HW1  899   1.210   1.656   2.546  2.1506  3.5693 -2.8380
  300SOL    HW2  900   1.315   1.757   2.638 -0.9661 -2.6255 -0.7073
  301SOL     OW  901   0.319   0.291   0.376  0.1497 -0.4581  0.0071
  301SOL    HW1  902   0.216   0.269   0.359 -1.4370  1.8302 -1.5300
  301SOL    HW2  903   0.383   0.210   0.352  1.3705 -0.0224  0.9490
  302SOL     OW  904   1.252   2.402   2.319 -0.1079 -0.0162  0.3168
  302SOL    HW1  905   1.152   2.398   2.358 -2.4220 -0.0368 -0.7754
  302SOL    HW2  906   1.311   2.327   2.362 -1.8397 -0.0131 -0.6511
  303SOL     OW  907   0.885   2.463   0.708  0.5052  0.6562 -0.4118
  303SOL    HW1  908   0.951   2.472   0.630  0.8485  2.8360 -1.3416
  303SOL    HW2  909   0.919   2.506   0.798 -3.3828 -0.7773  0.6654
  304SOL     OW  910   0.108   1.918   0.696  0.1205 -0.1714 -0.1670
  304SOL    HW1  911   0.187   1.898   0.639 -3.0715 -0.1897  0.5691
  304SOL    HW2  912   0.030   1.948   0.634 -0.7088  0.4294  0.1308
  305SOL     OW  913   1.643   0.785   0.704 -0.2372  0.2622  0.4617
  305SOL    HW1  914   1.557   0.781   0.645 -0.5451  2.5410 -2.0618
  305SOL    HW2  915   1.700   0.699   0.695 -1.5298 -1.2906 -2.0666
  306SOL     OW  916   0.447   1.943   1.964  0.7527  0.1390 -0.3358
  306SOL    HW1  917   0.517   1.866   1.945  3.8787 -1.2448  0.8305
  306SOL    HW2  918   0.424   1.959   2.068 -1.3678  0.6679 -0.6018
  307SOL     OW  919   3.030   0.896   2.581 -0.1728 -0.1077 -0.1216
  307SOL    HW1  920   3.047   0.990   2.624  0.0765  0.6743 -0.6193
  307SOL    HW2  921   3.042   0.815   2.652 -1.7767 -1.3356  0.1861
  308SOL     OW  922   1.494   2.742   2.812 -0.0765 -0.5062 -0.2700
  308SOL    HW1  923   1.471   2.755   2.710 -0.6114  1.1481  1.0514
  308SOL    HW2  924   1.454   2.658   2.852 -0.5587  0.6358 -2.1381
  309SOL     OW  925   1.171   0.206   1.833  0.4089  0.2577  0.6719
  309SOL    HW1  926   1.262   0.152   1.843 -0.2110 -0.6160  0.3165
  309SOL    HW2  927   1.127   0.185   1.739  2.6449  0.0663 -1.4006
  310SOL     OW  928   1.414   2.589   0.658  0.0851  0.1214  0.1147
  310SOL    HW1  929   1.440   2.579   0.756  0.6863 -0.5595 -0.0366
  310SOL    HW2  930   1.484   2.648   0.604  0.8568  2.2792  0.3874
  311SOL     OW  931   1.094   0.903   1.693 -0.5554 -0.8085 -0.3698
  311SOL    HW1  932   1.092   0.821   1.759  0.0986 -2.6419  0.1894
  311SOL    HW2  933   1.150   0.882   1.608  0.7951  0.1284 -1.0003
  312SOL     OW  934   1.485   0.614   0.992 -0.1264 -0.3655  0.4837
  312SOL    HW1  935   1.553   0.690   0.992  2.0403 -1.0769  0.2406
  312SOL    HW2  936   1.436   0.608   0.903  0.5296 -0.1445 -1.0984
  313SOL     OW  937   1.652   1.314   0.707 -0.3905 -0.6747  0.4472
  313SOL    HW1  938   1.578   1.365   0.767  0.4573 -1.3585  3.1182
  313SOL    HW2  939   1.615   1.225   0.660  0.9917  0.0007 -3.8201
  314SOL     OW  940   2.982   0.019   3.075  0.4845  0.7103 -0.1488
  314SOL    HW1  941   3.025   0.000   3.164  1.5225  2.4661 -0.5600
  314SOL    HW2  942   2.921  -0.061   3.034 -0.9900 -2.0252  0.7353
  315SOL     OW  943   1.106   0.221   2.748 -0.1444  0.2243 -0.0923
  315SOL    HW1  944   1.093   0.160   2.662 -0.0691 -1.1119 -1.8473
  315SOL    HW2  945   1.060   0.178   2.828  1.3001 -0.6139  0.6589
  316SOL     OW  946   1.772   2.084   0.871 -0.3064  0.2067  0.1197
  316SOL    HW1  947   1.751   2.074   0.975  0.4084  2.3691  0.5981
  316SOL    HW2  948   1.764   2.179   0.836 -0.1680 -1.1023  0.1096
  317SOL     OW  949   1.183   0.684   2.739  0.1650  0.3135  0.0396
  317SOL    HW1  950   1.140   0.733   2.824  0.3445  0.2817  2.3858
  317SOL    HW2  951   1.116   0.611   2.700  2.3032 -1.8921  0.5969
  318SOL     OW  952   1.450   3.028   2.253  0.4892  0.1422  0.0022
  318SOL    HW1  953   1.420   3.126   2.262  2.5500 -0.4498 -2.8462
  318SOL    HW2  954   1.433   2.991   2.161  0.2497  0.2552 -0.2060
  319SOL     OW  955   0.651   2.355   3.070  0.0932 -0.4201  0.4522
  319SOL    HW1  956   0.575   2.290   3.038 -2.1084  1.7987 -0.9810
  319SOL    HW2  957   0.743   2.316   3.044  0.1429  2.2258  0.0402
  320SOL     OW  958   1.702   2.211   0.396 -0.1411 -0.1205  0.1605
  320SOL    HW1  959   1.790   2.152   0.395  0.4994 -1.5217  1.3563
  320SOL    HW2  960   1.614   2.160   0.415  0.8852 -0.7204  1.0677
  321SOL     OW  961   1.622   2.712   0.517  0.3928  0.2952  0.1646
  321SOL    HW1  962   1.561   2.762   0.446  1.2944  0.6731 -2.6874
  321SOL    HW2  963   1.719   2.737   0.500  1.3995  0.3144  1.2125
  322SOL     OW  964   2.552   1.030   2.370  0.1473 -0.0580  0.3003
  322SOL    HW1  965   2.631   1.013   2.442 -0.0556 -1.2406  1.0588
  322SOL    HW2  966   2.493   0.948   2.365 -0.9460  1.8595  2.1025
  323SOL     OW  967   1.180   2.731   0.814  0.6710 -0.0736  0.1522
  323SOL    HW1  968   1.235   2.697   0.736 -2.6998 -1.4676  1.6662
  323SOL    HW2  969   1.173   2.832   0.834 -1.0157 -0.1823  0.7239
  324SOL     OW  970   0.084   2.525   2.387  0.4476  0.4565 -0.3740
  324SOL    HW1  971   0.054   2.451   2.458  0.5993  0.1461 -0.1423
  324SOL    HW2  972   0.066   2.619   2.420  3.9553  2.1435 -2.5165
  325SOL     OW  973   1.254   3.061   0.431  0.2679  0.6477 -0.2260
  325SOL    HW1  974   1.207   3.071   0.342  1.3050 -0.7326  1.4332
  325SOL    HW2  975   1.291   3.151   0.471  1.4707 -2.2122 -2.4308
  326SOL     OW  976   2.505   0.813   0.024  0.6623 -1.0895  0.2993
  326SOL    HW1  977   2.439   0.759  -0.037  2.4390  0.2401 -1.5887
  326SOL    HW2  978   2.551   0.754   0.093 -0.9792  1.7208  1.3695
  327SOL     OW  979   2.863   0.185   0.578 -0.2161 -0.1054  0.1182
  327SOL    HW1  980   2.858   0.152   0.482 -0.1899  0.3825  0.8839
  327SOL    HW2  981   2.855   0.111   0.645  1.8049  1.1368  1.2552
  328SOL     OW  982   2.662   0.579   0.442 -0.1340 -0.5034  0.8631
  328SOL    HW1  983   2.731   0.609   0.511 -0.8784 -2.2207  2.1603
  328SOL    HW2  984   2.642   0.478   0.457  0.0085  0.3454  2.0275
  329SOL     OW  985   2.944   3.065   2.197 -0.1829  0.2755 -0.8036
  329SOL    HW1  986   3.017   2.988   2.212  1.2529  0.7670 -0.2318
  329SOL    HW2  987   2.986   3.158   2.177 -1.4620 -0.1166  1.0380
  330SOL     OW  988   0.623   0.316   1.993 -0.2712 -0.2393  0.1125
  330SOL    HW1  989   0.703   0.293   1.933  1.3002  0.7193 -0.5237
  330SOL    HW2  990   0.604   0.234   2.054 -3.3557  0.4493  1.4010
  331SOL     OW  991   3.092   1.932   1.115 -0.2079  0.0276 -0.1726
  331SOL    HW1  992   3.097   1.999   1.038 -1.2411 -2.4031 -0.4439
  331SOL    HW2  993   3.000   1.927   1.166 -0.5709 -0.5323  0.2938
  332SOL     OW  994   0.437   1.180   0.078 -0.3266  0.1936 -0.3965
  332SOL    HW1  995   0.375   1.114   0.029  2.2723  0.1320  1.5746
  332SOL    HW2  996   0.397   1.206   0.174 -2.3722  2.1916 -0.1766
  333SOL     OW  997   2.899   0.951   0.370 -0.2893  0.0943 -0.2917
  333SOL    HW1  998   2.945   1.030   0.417  0.3313  4.4275  1.7653
  333SOL    HW2  999   2.966   0.901   0.309  0.6367  1.8161  0.5085
  334SOL     OW 1000   1.698   1.181   1.710 -0.0483  0.0208  0.0769
  334SOL    HW1 1001   1.739   1.228   1.629  0.4046 -0.6359  1.5159
  334SOL    HW2 1002   1.751   1.212   1.792 -0.5496  0.3789 -1.8185
  335SOL     OW 1003   1.927   2.766   2.605 -0.6430  0.2151  0.0605
  335SOL    HW1 1004   1.861   2.761   2.689  0.0344  0.2796 -0.6911
  335SOL    HW2 1005   1.996   2.841   2.608 -0.6370  1.7534 -0.3403
  336SOL     OW 1006   0.297   0.092   2.773  0.9082 -0.0877  0.3133
  336SOL    HW1 1007   0.373   0.110   2.843  2.2883  1.6494  0.7990
  336SOL    HW2 1008   0.234   0.021   2.803  2.1867  1.6786 -2.3591
  337SOL     OW 1009   0.787   2.798   3.048  0.1238 -0.1358 -0.0102
  337SOL    HW1 1010   0.869   2.738   3.080  1.8060  1.9026  0.3769
  337SOL    HW2 1011   0.753   2.836   3.135  1.4297  2.1933  2.8438
  338SOL     OW 1012   0.069   0.926   0.712  0.1644 -0.0932  0.0232
  338SOL    HW1 1013  -0.036   0.910   0.714  0.0986 -0.7021 -2.0677
  338SOL    HW2 1014   0.097   1.022   0.742 -1.0008 -2.5472 -0.4016
  339SOL     OW 1015   1.760   1.358   2.135  0.3964 -0.3874 -0.1666
  339SOL    HW1 1016   1.655   1.355   2.126 -1.1249 -1.2646 -1.0382
  339SOL    HW2 1017   1.793   1.452   2.171 -1.2053  2.8415 -1.2625
  340SOL     OW 1018   2.318   0.783   1.194 -0.0540 -0.1659  0.4225
  340SOL    HW1 1019   2.233   0.836   1.172  1.2581 -2.5332  0.7256
  340SOL    HW2 1020   2.298   0.679   1.178 -2.8062 -2.6186 -0.0914
  341SOL     OW 1021   1.933   2.070   0.309  0.1905  0.0247  0.3422
  341SOL    HW1 1022   1.987   2.115   0.231 -0.5542 -0.6816 -1.4643
  341SOL    HW2 1023   1.989   1.996   0.361  0.0972 -2.9483 -0.2753
  342SOL     OW 1024   2.101   2.145   2.766 -0.5412 -0.1133 -0.0991
  342SOL    HW1 1025   2.152   2.057   2.793 -2.9623 -0.8424 -0.4799
  342SOL    HW2 1026   2.011   2.127   2.722  1.5410  1.2575 -0.5718
  343SOL     OW 1027   0.368   0.839   2.890  0.3392  0.0864 -0.0387
  343SOL    HW1 1028   0.333   0.884   2.799 -2.1696 -0.2102  0.0718
  343SOL    HW2 1029   0.471   0.856   2.916 -1.5555  1.7632 -0.9178
  344SOL     OW 1030   1.912   1.409   0.401 -0.1128  0.1900  0.3134
  344SOL    HW1 1031   1.915   1.326   0.343 -0.1440  0.8559  2.1790
  344SOL    HW2 1032   1.812   1.432   0.425 -1.0871  2.8519 -0.4947
  345SOL     OW 1033   1.370   2.203   2.809  0.0950  0.3061 -0.2448
  345SOL    HW1 1034   1.283   2.219   2.751 -0.6221  0.1972 -2.1411
  345SOL    HW2 1035   1.426   2.117   2.792 -1.0876  2.3066 -0.9975
  346SOL     OW 1036   2.276   0.823   1.464 -0.2563  0.3847  0.6760
  346SOL    HW1 1037   2.179   0.864   1.475  1.2436  0.4817  0.2972
  346SOL    HW2 1038   2.299   0.802   1.362  2.8964 -2.6283  1.7462
  347SOL     OW 1039   0.722   2.801   1.736  0.2846 -0.0900  0.7861
  347SOL    HW1 1040   0.817   2.830   1.695  0.9400 -0.8651  0.3656
  347SOL    HW2 1041   0.648   2.839   1.672 -2.7448  1.2429 -0.5375
  348SOL     OW 1042   0.181   0.616   2.861 -0.2079  0.1853  0.3256
  348SOL    HW1 1043   0.084   0.641   2.832 -0.5258  1.6737  0.5753
  348SOL    HW2 1044   0.251   0.688   2.833  0.5572 -2.7750 -4.5947
  349SOL     OW 1045   1.833   0.452   2.819  0.5681  0.6482 -0.0109
  349SOL    HW1 1046   1.797   0.534   2.768  3.4318 -1.3119  0.3132
  349SOL    HW2 1047   1.813   0.460   2.921  1.7038  0.5753 -1.1457
  350SOL     OW 1048   1.759   0.357   0.424 -0.4999 -0.1374  0.0762
  350SOL    HW1 1049   1.843   0.313   0.462  1.4564  3.4481  0.2071
  350SOL    HW2 1050   1.798   0.450   0.397  3.6667  1.9724 -0.4404
  351SOL     OW 1051   0.933   0.807   2.041  0.6057  0.2967 -0.4764
  351SOL    HW1 1052   0.956   0.911   2.051  0.9291 -1.0101 -2.6405
  351SOL    HW2 1053   0.994   0.754   1.982  0.4787 -0.0627  2.2703
  352SOL     OW 1054   2.079   1.484   0.616 -0.1230  0.7028  0.6874
  352SOL    HW1 1055   2.027   1.438   0.535 -1.8868 -0.3025 -0.1649
  352SOL    HW2 1056   2.024   1.505   0.701 -0.3706  0.0683  0.3636
  353SOL     OW 1057   2.172   2.746   1.140 -0.0543  0.8033 -0.3149
  353SOL    HW1 1058   2.250   2.693   1.186  1.1619  0.0192 -2.3743
  353SOL    HW2 1059   2.089   2.768   1.197  0.6938  1.4307 -0.9658
  354SOL     OW 1060   0.239   1.402   2.883  0.0229 -0.1504  0.0824
  354SOL    HW1 1061   0.230   1.439   2.787  1.4794 -2.5946  0.5444
  354SOL    HW2 1062   0.335   1.372   2.904  1.0144 -0.6423 -2.3616
  355SOL     OW 1063   0.739   1.564   0.551  0.1045 -0.6312  0.4915
  355SOL    HW1 1064   0.751   1.525   0.641 -2.2334 -2.1419 -0.4771
  355SOL    HW2 1065   0.692   1.502   0.483 -2.4385 -0.4588  1.6781
  356SOL     OW 1066   0.967   0.336   2.084 -0.5931 -0.6891  0.0592
  356SOL    HW1 1067   1.038   0.264   2.104  0.6232 -0.6106  1.1664
  356SOL    HW2 1068   0.896   0.300   2.019 -2.9106 -1.0178  1.1543
  357SOL     OW 1069   1.017   1.530   0.118 -0.1453 -0.2520 -0.8674
  357SOL    HW1 1070   1.062   1.453   0.072  1.6586  1.2253 -0.7494
  357SOL    HW2 1071   1.078   1.602   0.161 -0.2257 -0.2704  0.3210
  358SOL     OW 1072   1.663   1.487   0.494 -0.0222  0.2978 -0.2859
  358SOL    HW1 1073   1.644   1.423   0.572 -0.5286  0.9222 -1.1618
  358SOL    HW2 1074   1.606   1.468   0.408  0.0143 -1.4424  0.0283
  359SOL     OW 1075   1.664   2.610   0.187  0.6532  0.2666 -0.0040
  359SOL    HW1 1076   1.658   2.509   0.160 -0.9342  0.0400 -2.5936
  359SOL    HW2 1077   1.575   2.661   0.165 -0.1519  1.3997  0.9019
  360SOL     OW 1078   0.712   0.474   0.562  0.4615 -0.9097 -0.1947
  360SOL    HW1 1079   0.620   0.479   0.508 -2.3212 -1.1620 -1.7929
  360SOL    HW2 1080   0.760   0.382   0.566  1.8763 -5.1228  1.4317
  361SOL     OW 1081   1.336   1.328   0.566 -0.3409 -0.0526  0.3170
  361SOL    HW1 1082   1.382   1.378   0.644 -3.8897 -0.1002 -1.9306
  361SOL    HW2 1083   1.236   1.340   0.572  1.9613 -0.4349 -1.1193
  362SOL     OW 1084   1.390   1.859   0.733 -0.0686 -0.2446 -0.0383
  362SOL    HW1 1085   1.417   1.774   0.789 -1.3133 -1.3543  0.6565
  362SOL    HW2 1086   1.469   1.918   0.697  1.0244  0.0575 -0.2213
  363SOL     OW 1087   1.290   1.298   1.965  0.7603 -0.6110  0.5255
  363SOL    HW1 1088   1.361   1.320   2.038  0.7613 -1.8634  0.6538
  363SOL    HW2 1089   1.266   1.383   1.911  0.0885  1.5864  1.2341
  364SOL     OW 1090   0.532   2.397   2.028 -0.5355  0.2556  0.1866
  364SOL    HW1 1091   0.438   2.428   2.001  0.2508 -0.0892  0.3970
  364SOL    HW2 1092   0.601   2.466   1.992  0.7893 -1.3303 -2.3168
  365SOL     OW 1093   0.915   1.999   1.380 -0.3146  0.7832 -0.4549
  365SOL    HW1 1094   0.818   1.998   1.413  1.0029  0.7324  1.3710
  365SOL    HW2 1095   0.923   2.021   1.277  1.5764  0.9698 -0.9622
  366SOL     OW 1096   2.707   1.860   0.231  0.4962  0.9711 -0.3425
  366SOL    HW1 1097   2.630   1.813   0.179  0.2880 -0.9987 -1.4383
  366SOL    HW2 1098   2.783   1.799   0.266 -0.5148  0.3354 -1.2458
  367SOL     OW 1099   0.955   1.131   3.075 -0.0531  0.5642  0.1394
  367SOL    HW1 1100   0.991   1.085   3.164  0.2837  1.8426  2.7562
  367SOL    HW2 1101   0.963   1.235   3.084 -2.5334 -0.1036  0.4980
  368SOL     OW 1102   1.478   0.462   0.532 -0.0928  0.1713  0.3512
  368SOL    HW1 1103   1.422   0.409   0.471  2.6664  1.4276  4.4227
  368SOL    HW2 1104   1.530   0.527   0.476  1.5988 -3.0896  1.1530
  369SOL     OW 1105   0.296   1.649   0.132 -0.0972  0.3923 -0.4868
  369SOL    HW1 1106   0.361   1.698   0.191  1.4592  0.1962 -1.2930
  369SOL    HW2 1107   0.218   1.603   0.187 -2.1672  3.4410 -0.2324
  370SOL     OW 1108   0.476   2.117   1.013 -0.3215 -0.0140 -0.5468
  370SOL    HW1 1109   0.486   2.221   1.022 -1.1268  0.5440  3.9710
  370SOL    HW2 1110   0.385   2.090   0.979 -0.3926 -0.4101  0.0862
  371SOL     OW 1111   2.931   2.176   2.685 -0.1044 -0.1938 -0.0160
  371SOL    HW1 1112   3.019   2.117   2.665 -0.9443 -0.6292 -0.5189
  371SOL    HW2 1113   2.934   2.222   2.780 -0.2457  0.1487  2.1829
  372SOL     OW 1114   0.980   2.131   1.116  0.5913 -0.4398  0.0186
  372SOL    HW1 1115   0.916   2.210   1.084 -2.5278 -0.2928 -0.3403
  372SOL    HW2 1116   1.061   2.166   1.164 -0.6421  0.6063 -1.1390
  373SOL     OW 1117   1.914   1.851   0.960 -0.6203 -0.6726 -0.2772
  373SOL    HW1 1118   1.995   1.915   0.992  0.8469  1.0597  0.1863
  373SOL    HW2 1119   1.862   1.876   0.876 -1.4556 -1.7581  0.2838
  374SOL     OW 1120   1.969   0.272   0.560  0.2869 -0.4811  0.3421
  374SOL    HW1 1121   1.938   0.247   0.657  1.0162  1.1001 -1.3172
  374SOL    HW2 1122   2.061   0.316   0.570 -0.0826  1.8702 -0.8329
  375SOL     OW 1123   2.393   2.075   1.077  0.2690 -0.6325  0.1032
  375SOL    HW1 1124   2.426   2.052   0.981  0.7169 -0.3326  1.5238
  375SOL    HW2 1125   2.464   2.115   1.137 -2.2060  0.1521 -0.2659
  376SOL     OW 1126   0.020   0.570   1.471  0.4338 -0.5517 -0.0276
  376SOL    HW1 1127   0.038   0.644   1.544  0.0711  1.0317  0.3225
  376SOL    HW2 1128  -0.064   0.508   1.480 -0.3109  0.8204 -0.0665
  377SOL     OW 1129   2.309   2.946   0.170  0.1152  0.2693 -0.0399
  377SOL    HW1 1130   2.306   3.024   0.243 -1.1692 -0.9720  2.8612
  377SOL    HW2 1131   2.329   2.856   0.219  1.2299 -0.0761 -0.8360
  378SOL     OW 1132   1.908   1.873   2.466 -0.0193 -0.2659 -0.2124
  378SOL    HW1 1133   1.995   1.833   2.429  0.4297 -1.2964  1.3773
  378SOL    HW2 1134   1.826   1.806   2.461 -2.0622  0.2727  0.4097
  379SOL     OW 1135   0.782   0.152   2.777 -0.2472 -0.2869  0.0001
  379SOL    HW1 1136   0.830   0.061   2.771 -1.5463  4.6615 -0.6117
  379SOL    HW2 1137   0.788   0.213   2.695 -2.2964 -1.6344  2.8247
  380SOL     OW 1138   1.507   1.103   0.574 -0.2214 -0.0444  0.0729
  380SOL    HW1 1139   1.428   1.166   0.544 -0.7510  1.6633  0.1417
  380SOL    HW2 1140   1.484   1.004   0.556  2.2440  1.8721 -1.0472
  381SOL     OW 1141   1.274   1.306   1.420  0.3281  0.0050 -0.0260
  381SOL    HW1 1142   1.337   1.228   1.415  1.1773  2.9012 -3.0240
  381SOL    HW2 1143   1.312   1.387   1.473 -3.2483  2.8119  0.0991
  382SOL     OW 1144   1.806   0.847   0.268 -0.0362 -0.0596 -0.1977
  382SOL    HW1 1145   1.796   0.803   0.175  0.1415  0.2748  1.7887
  382SOL    HW2 1146   1.880   0.807   0.329 -3.0532 -0.1212  3.9312
  383SOL     OW 1147   2.533   0.961   1.491 -0.2624 -0.1213  0.1999
  383SOL    HW1 1148   2.438   0.930   1.469  0.4186  2.3471 -1.7653
  383SOL    HW2 1149   2.593   0.962   1.406  1.3402 -1.2741 -1.7681
  384SOL     OW 1150   0.953   2.242   0.207 -0.1346 -0.3827  0.4876
  384SOL    HW1 1151   0.887   2.320   0.209  1.0145 -0.3945 -2.4475
  384SOL    HW2 1152   0.987   2.223   0.305  0.4827 -2.4862  2.2200
  385SOL     OW 1153   2.881   2.017   1.614 -0.3366 -0.3354 -0.4079
  385SOL    HW1 1154   2.946   2.065   1.680  1.3255  0.2647  0.1056
  385SOL    HW2 1155   2.855   1.927   1.649 -0.5236  2.0030  0.2709
  386SOL     OW 1156   0.501   1.041   0.407 -0.6045 -0.2589 -0.9521
  386SOL    HW1 1157   0.480   0.945   0.424  0.6764  0.6929  0.5083
  386SOL    HW2 1158   0.418   1.092   0.365 -1.6532  1.2410 -4.2242
  387SOL     OW 1159   0.942   0.291   1.664  0.3727  0.5162 -0.0629
  387SOL    HW1 1160   0.988   0.382   1.648 -2.0692  1.3532 -2.9056
  387SOL    HW2 1161   0.890   0.257   1.578  0.1382 -0.3212 -1.4336
  388SOL     OW 1162   1.276   2.724   1.823  0.5163  0.0397  0.5173
  388SOL    HW1 1163   1.341   2.754   1.748  0.7807  0.3582  0.8091
  388SOL    HW2 1164   1.300   2.630   1.863  1.2371 -1.1589 -0.9468
  389SOL     OW 1165   0.111   2.892   1.370  0.0349  0.2125 -0.0788
  389SOL    HW1 1166   0.021   2.918   1.321 -3.4457  0.8878  0.9711
  389SOL    HW2 1167   0.142   2.800   1.330 -2.1962 -3.9511  2.1762
  390SOL     OW 1168   1.033   0.917   1.324  0.0503 -0.3252 -0.5019
  390SOL    HW1 1169   1.128   0.902   1.367  1.5800  0.1651 -3.1092
  390SOL    HW2 1170   0.970   0.985   1.377 -0.7269  1.2148 -0.8571
  391SOL     OW 1171   2.181   1.111   1.096  0.5059 -0.1984 -0.2003
  391SOL    HW1 1172   2.114   1.038   1.126  0.8752 -0.3715  2.7547
  391SOL    HW2 1173   2.233   1.101   1.005  1.5537 -0.8833 -0.4080
  392SOL     OW 1174   0.948   2.575   0.023  0.2070  0.2434 -0.2540
  392SOL    HW1 1175   1.039   2.530   0.017  0.6304 -0.1676 -0.6255
  392SOL    HW2 1176   0.886   2.538   0.097  2.3043  1.1029 -0.1576
  393SOL     OW 1177   0.319   0.669   1.999 -0.4279 -0.7213  0.5961
  393SOL    HW1 1178   0.295   0.569   1.990  0.8977 -0.8525  0.2895
  393SOL    HW2 1179   0.349   0.711   1.908  1.3563 -0.3538 -1.5166
  394SOL     OW 1180   0.012   1.947   2.655 -0.0398  0.3797 -0.4589
  394SOL    HW1 1181   0.076   1.874   2.697  3.0093 -0.7411 -0.9695
  394SOL    HW2 1182  -0.082   1.910   2.647  0.1862  1.5758 -1.2473
  395SOL     OW 1183   1.623   1.959   0.617  0.0595 -0.0856 -0.0037
  395SOL    HW1 1184   1.676   1.900   0.553  1.0252 -0.1484 -2.1609
  395SOL    HW2 1185   1.678   2.017   0.684 -0.8543 -0.2153 -0.4308
  396SOL     OW 1186   2.916   1.926   1.362  0.2208  0.2273  0.3823
  396SOL    HW1 1187   2.932   1.827   1.346  2.3850  0.1852 -2.5838
  396SOL    HW2 1188   2.928   1.960   1.462 -1.0057 -0.1295  2.5449
  397SOL     OW 1189   1.050   2.211   0.492 -0.1189 -0.1943 -0.2714
  397SOL    HW1 1190   0.950   2.196   0.525 -1.4238 -0.1452  0.3756
  397SOL    HW2 1191   1.065   2.311   0.477 -0.0980 -0.3869  1.7120
  398SOL     OW 1192   2.156   3.096   1.167  0.0135  0.5785 -0.2162
  398SOL    HW1 1193   2.079   3.034   1.198 -2.6409  1.1399 -0.0790
  398SOL    HW2 1194   2.121   3.172   1.109 -1.8784 -2.1244 -0.4357
  399SOL     OW 1195   3.099   2.408   2.603  0.5084  0.1852  0.0127
  399SOL    HW1 1196   3.001   2.388   2.617  2.2650 -1.1728 -0.4123
  399SOL    HW2 1197   3.159   2.333   2.645 -0.0964 -1.0212  2.2975
  400SOL     OW 1198   0.717   1.710   1.380  0.9135 -0.5164  0.1869
  400SOL    HW1 1199   0.670   1.738   1.467  0.6660 -1.5638  2.4854
  400SOL    HW2 1200   0.717   1.784   1.307  2.2597  1.6845 -0.7258
  401SOL     OW 1201   1.859   0.338   1.148 -0.1528  0.5024  0.0048
  401SOL    HW1 1202   1.837   0.335   1.250  0.8719 -1.7492  0.1763
  401SOL    HW2 1203   1.778   0.345   1.077  0.3097  0.6981 -0.0438
  402SOL     OW 1204   1.353   0.267   3.074  0.2813  0.2983  0.4132
  402SOL    HW1 1205   1.425   0.224   3.016  0.6199  2.0725  1.6668
  402SOL    HW2 1206   1.297   0.340   3.028  1.5754 -0.0975 -0.3394
  403SOL     OW 1207   2.215   1.900   0.833  0.7092  0.4377  0.1399
  403SOL    HW1 1208   2.313   1.936   0.838 -0.6794 -2.0658  0.2767
  403SOL    HW2 1209   2.168   1.919   0.924  2.4992  1.6658 -0.7039
  404SOL     OW 1210   0.307   2.522   2.756 -0.0828 -0.1431 -0.4127
  404SOL    HW1 1211   0.357   2.478   2.677 -0.2697 -1.5817 -1.3371
  404SOL    HW2 1212   0.257   2.612   2.733 -0.5444  1.6665 -1.2936
  405SOL     OW 1213   0.166   2.408   0.651  0.7656  0.0461 -0.4465
  405SOL    HW1 1214   0.143   2.327   0.597 -0.7560  2.5021  2.1562
  405SOL    HW2 1215   0.245   2.464   0.616 -2.6469 -1.3767  1.2392
  406SOL     OW 1216   0.069   1.557   3.045  0.0509 -0.1447 -0.0425
  406SOL    HW1 1217   0.117   1.518   2.965 -1.0959  1.6793 -0.6249
  406SOL    HW2 1218   0.113   1.528   3.133 -0.8492  1.3906 -1.0317
  407SOL     OW 1219   1.619   0.869   0.950  0.2705  0.2245  0.0122
  407SOL    HW1 1220   1.620   0.846   0.847  0.2727  1.6907  0.6280
  407SOL    HW2 1221   1.567   0.960   0.969  0.2175  0.8743  0.2887
  408SOL     OW 1222   1.609   2.440   0.974  0.1184  0.4064 -0.1400
  408SOL    HW1 1223   1.684   2.443   0.905  1.3682 -0.9712 -0.6625
  408SOL    HW2 1224   1.547   2.526   0.966  0.5524  3.0967 -0.6715
  409SOL     OW 1225   0.594   0.807   0.682 -0.1271  0.3543  0.2634
  409SOL    HW1 1226   0.544   0.785   0.594 -1.4458  2.8534  0.2083
  409SOL    HW2 1227   0.626   0.726   0.741  0.7704 -3.0123 -0.2250
  410SOL     OW 1228   1.203   2.058   1.426  0.6933  0.1768  0.5857
  410SOL    HW1 1229   1.261   1.976   1.457 -1.1850 -0.6904 -2.0856
  410SOL    HW2 1230   1.099   2.041   1.426 -2.3903 -0.0812 -0.9831
  411SOL     OW 1231   2.552   1.806   2.959 -0.0676 -0.4428 -0.9759
  411SOL    HW1 1232   2.574   1.900   2.925  1.4688 -2.8671  0.8110
  411SOL    HW2 1233   2.519   1.746   2.883  0.3006 -0.3777 -1.5967
  412SOL     OW 1234   1.499   2.453   2.170  0.1385  0.3301  0.3479
  412SOL    HW1 1235   1.585   2.445   2.229  3.0068  0.7282 -0.2244
  412SOL    HW2 1236   1.411   2.435   2.220  0.7382  0.3376  0.9273
  413SOL     OW 1237   0.031   0.289   3.015 -0.6573  0.1833 -0.4466
  413SOL    HW1 1238  -0.024   0.196   3.022  0.8619 -1.9189  0.2201
  413SOL    HW2 1239   0.131   0.278   2.990 -1.4571  1.2997  0.9068
  414SOL     OW 1240   1.739   1.524   1.104  0.2263  0.2595  0.3725
  414SOL    HW1 1241   1.711   1.611   1.149 -0.8895  0.5189  0.4747
  414SOL    HW2 1242   1.756   1.539   1.000  0.8343  2.0376 -4.0948
  415SOL     OW 1243   0.367   2.188   0.647 -0.6216  0.2595 -0.2686
  415SOL    HW1 1244   0.390   2.250   0.723  1.1349  1.6028 -2.2957
  415SOL    HW2 1245   0.271   2.196   0.628  3.1070 -0.8209  1.9294
  416SOL     OW 1246   0.354   1.089   1.059 -0.3480 -0.2283 -0.1285
  416SOL    HW1 1247   0.335   1.005   1.004 -1.2834  1.1172 -0.4449
  416SOL    HW2 1248   0.440   1.135   1.026 -0.5580 -0.5635  1.2661
  417SOL     OW 1249   2.314   2.431   2.146 -0.5505 -0.2349  0.8325
  417SOL    HW1 1250   2.312   2.329   2.160 -1.9145  2.5237 -1.9373
  417SOL    HW2 1251   2.267   2.481   2.226  0.2967 -0.8168 -1.2895
  418SOL     OW 1252   1.047   0.513   1.335  0.1449 -0.6028 -0.5478
  418SOL    HW1 1253   0.971   0.501   1.269  1.1047  1.7138  1.6811
  418SOL    HW2 1254   1.140   0.522   1.292  2.0316 -0.2237  3.0755
  419SOL     OW 1255   0.893   0.560   2.974  0.2583 -0.0095  0.2918
  419SOL    HW1 1256   0.802   0.600   2.940 -0.7034  0.5398 -1.2864
  419SOL    HW2 1257   0.959   0.636   2.983  1.5629 -1.3553  1.8898
  420SOL     OW 1258   0.089   2.186   0.513  0.0190 -0.3677 -0.2114
  420SOL    HW1 1259   0.124   2.181   0.415 -3.2852  0.1057  2.7508
  420SOL    HW2 1260   0.021   2.112   0.531  0.2883  2.8918 -0.6607
  421SOL     OW 1261   0.355   2.970   0.554  0.6303 -0.2622  0.1358
  421SOL    HW1 1262   0.323   2.919   0.637  1.0493  1.1815  2.4280
  421SOL    HW2 1263   0.434   3.032   0.572 -0.5879 -0.8010 -0.9094
  422SOL     OW 1264   1.015   2.554   0.954  0.3354 -0.5400  0.2359
  422SOL    HW1 1265   1.086   2.616   0.908 -1.0443  0.0230  1.4904
  422SOL    HW2 1266   1.045   2.513   1.043 -1.9581  0.5385 -0.4637
  423SOL     OW 1267   0.159   0.656   1.237  0.4057 -0.5861 -0.2430
  423SOL    HW1 1268   0.111   0.621   1.324  0.8723 -0.5195 -0.0964
  423SOL    HW2 1269   0.121   0.744   1.205  2.9773 -1.8537 -2.0905
  424SOL     OW 1270   1.133   2.178   2.057 -0.0641 -0.2652  0.1203
  424SOL    HW1 1271   1.104   2.278   2.052 -2.5711 -0.5012  3.1892
  424SOL    HW2 1272   1.080   2.138   2.139  1.7159 -0.7498  1.1918
  425SOL     OW 1273   1.972   1.256   0.997  1.0287 -0.0065 -0.4257
  425SOL    HW1 1274   2.038   1.201   1.053  0.4005 -1.8801  0.9390
  425SOL    HW2 1275   2.004   1.352   0.991 -0.5374  0.5649 -1.6410
  426SOL     OW 1276   1.473   1.650   1.245  0.2376  0.1851  0.0693
  426SOL    HW1 1277   1.455   1.719   1.173 -0.9811 -0.5278 -1.3136
  426SOL    HW2 1278   1.389   1.626   1.298 -0.2480  0.7195 -0.6639
  427SOL     OW 1279   1.957   2.435   2.093  0.2671  0.1393  0.1506
  427SOL    HW1 1280   2.023   2.388   2.162  2.1239 -4.0742  1.4609
  427SOL    HW2 1281   1.958   2.541   2.105  1.8468  0.8014 -1.1217
  428SOL     OW 1282   0.874   0.008   0.031  0.0169 -0.2753  0.0656
  428SOL    HW1 1283   0.904   0.080  -0.035  1.3051 -3.4993  0.7432
  428SOL    HW2 1284   0.958  -0.035   0.073  0.4046 -4.1243 -0.6726
  429SOL     OW 1285   1.295   0.187   0.231  0.4298  0.3699  0.0503
  429SOL    HW1 1286   1.377   0.150   0.286 -1.0593 -0.7712  1.0240
  429SOL    HW2 1287   1.311   0.219   0.134  0.5698 -0.1306 -3.0492
  430SOL     OW 1288   2.939   1.440   0.294  0.5993  0.0913  0.1855
  430SOL    HW1 1289   2.892   1.498   0.224  1.4622  0.7956 -0.9971
  430SOL    HW2 1290   2.873   1.443   0.382  0.5100  1.9658  4.9194
  431SOL     OW 1291   2.078   1.546   0.898  0.2052 -0.1977  0.1273
  431SOL    HW1 1292   2.173   1.582   0.923  0.7628 -1.4626 -1.1571
  431SOL    HW2 1293   1.999   1.610   0.923  0.1799 -0.2112  1.5409
  432SOL     OW 1294   2.940   2.172   1.198 -0.2399  0.2776 -0.0596
  432SOL    HW1 1295   2.938   2.084   1.249  0.9104  0.9336  2.3241
  432SOL    HW2 1296   2.950   2.252   1.264  1.5758  0.0768 -0.9097
  433SOL     OW 1297   1.870   0.242   0.833  0.1806 -0.5027  0.4139
  433SOL    HW1 1298   1.788   0.305   0.838 -0.8538  1.8501 -2.5148
  433SOL    HW2 1299   1.940   0.241   0.916  1.5117 -0.1927  1.3671
  434SOL     OW 1300   1.568   0.271   0.721 -0.0979 -0.0565  0.3432
  434SOL    HW1 1301   1.566   0.334   0.642 -1.4328 -2.5599 -0.3229
  434SOL    HW2 1302   1.575   0.308   0.819 -0.7666  0.1961  0.0368
  435SOL     OW 1303   1.491   1.467   2.106  0.4931  0.5646 -0.0087
  435SOL    HW1 1304   1.476   1.515   2.197 -2.3934  0.8443  2.8186
  435SOL    HW2 1305   1.497   1.535   2.032 -2.3588  0.7295  1.1309
  436SOL     OW 1306   1.719   2.722   2.271  0.0906 -0.0624  0.0894
  436SOL    HW1 1307   1.680   2.787   2.347 -0.7668 -0.6956  0.3155
  436SOL    HW2 1308   1.702   2.623   2.292  1.4523 -1.0400  0.0233
  437SOL     OW 1309   1.142   2.972   0.896  0.3424  0.8240  0.2642
  437SOL    HW1 1310   1.087   3.061   0.901 -2.2366  0.7925  0.7521
  437SOL    HW2 1311   1.150   2.921   0.987 -0.8629  0.5888 -0.5344
  438SOL     OW 1312   1.017   2.695   1.527  0.6133  0.0961 -0.1239
  438SOL    HW1 1313   1.103   2.739   1.489 -0.4775  0.0904  1.8483
  438SOL    HW2 1314   0.978   2.629   1.462 -0.4970  3.0581  2.3396
  439SOL     OW 1315   0.705   1.874   1.116 -0.3067 -0.0507 -0.1006
  439SOL    HW1 1316   0.751   1.958   1.074  0.1619  2.6240  2.4182
  439SOL    HW2 1317   0.604   1.883   1.130 -0.2971 -2.0238  0.0354
  440SOL     OW 1318   1.024   2.452   1.976  0.0079 -0.2022  0.0083
  440SOL    HW1 1319   0.972   2.502   1.902 -3.1001 -2.5927  0.9532
  440SOL    HW2 1320   1.125   2.477   1.980 -0.9505 -2.3725 -2.9763
  441SOL     OW 1321   0.408   2.707   1.518  0.4200 -0.3334 -0.4654
  441SOL    HW1 1322   0.483   2.631   1.523  3.3356  0.4278  0.4995
  441SOL    HW2 1323   0.324   2.682   1.460 -1.2673 -2.1661 -1.5692
  442SOL     OW 1324   2.251   0.696   2.528 -0.5113  0.4593 -0.0673
  442SOL    HW1 1325   2.270   0.595   2.541 -1.6224  0.0932  2.2218
  442SOL    HW2 1326   2.158   0.715   2.563  2.0818 -2.4972  1.4145
  443SOL     OW 1327   1.208   2.670   2.226 -0.2542  0.1692  0.6622
  443SOL    HW1 1328   1.200   2.724   2.315  0.2818 -1.3141  0.8425
  443SOL    HW2 1329   1.232   2.568   2.247  2.0144 -1.0444  1.6581
  444SOL     OW 1330   1.023   1.316   1.549 -0.2966 -0.4883  0.0512
  444SOL    HW1 1331   1.125   1.334   1.533  0.0149  3.0369  2.6485
  444SOL    HW2 1332   0.967   1.394   1.512  0.9077  0.4717  0.0442
  445SOL     OW 1333   3.089   2.375   1.922 -0.2133 -0.0465 -0.6201
  445SOL    HW1 1334   3.099   2.467   1.869  1.4947  0.3816 -0.0509
  445SOL    HW2 1335   2.999   2.374   1.979 -1.0497 -0.6068  0.8148
  446SOL     OW 1336   0.178   1.909   2.411 -0.3928  0.5781  0.2172
  446SOL    HW1 1337   0.169   2.015   2.421 -0.5511  2.1972 -1.9559
  446SOL    HW2 1338   0.144   1.868   2.317  1.1005 -0.5278 -0.7999
  447SOL     OW 1339   1.226   1.609   1.941 -0.4246 -0.4822 -0.5292
  447SOL    HW1 1340   1.158   1.677   1.902  2.1210  0.1725 -1.1210
  447SOL    HW2 1341   1.311   1.652   1.984  0.0393  2.5652  0.5936
  448SOL     OW 1342   0.141   1.569   1.925  0.6167  0.0741  0.1329
  448SOL    HW1 1343   0.128   1.666   1.902 -0.3153  0.5531  2.2300
  448SOL    HW2 1344   0.224   1.546   1.987  5.5816  0.2055 -0.9568
  449SOL     OW 1345   2.002   2.906   0.912 -0.3904 -0.8940  0.2506
  449SOL    HW1 1346   2.068   2.903   0.988 -2.2482 -1.5394 -1.9217
  449SOL    HW2 1347   1.984   2.810   0.873  1.4787  0.1811 -2.9905
  450SOL     OW 1348   2.270   1.327   0.938  0.1744  0.1770 -0.0133
  450SOL    HW1 1349   2.288   1.240   0.883  4.4408  1.2118  1.1404
  450SOL    HW2 1350   2.177   1.367   0.926 -0.5113  2.0808  1.8549
  451SOL     OW 1351   1.425   0.013   1.432 -0.4350 -0.2082 -0.4628
  451SOL    HW1 1352   1.335   0.061   1.447 -1.9812 -2.4187 -2.6960
  451SOL    HW2 1353   1.448  -0.050   1.513 -0.5421  1.6265  2.2100
  452SOL     OW 1354   2.672   2.373   2.243  0.0166 -0.0586 -0.0695
  452SOL    HW1 1355   2.626   2.456   2.262  1.2065  0.3278 -0.5983
  452SOL    HW2 1356   2.698   2.317   2.327  0.2828  1.6959 -0.2663
  453SOL     OW 1357   2.465   2.630   3.060  0.9076  0.1815  0.0802
  453SOL    HW1 1358   2.375   2.689   3.060 -1.2400  0.6631  0.5313
  453SOL    HW2 1359   2.462   2.549   2.997  0.0176  0.9783  0.1753
  454SOL     OW 1360   0.987   1.122   2.048  0.1656  0.9224 -0.3212
  454SOL    HW1 1361   0.971   1.144   1.945  0.8285  1.9139  0.8241
  454SOL    HW2 1362   1.091   1.135   2.066  2.8072 -0.1329  0.9879
  455SOL     OW 1363   0.637   2.583   2.906  0.0075 -1.0840  0.1254
  455SOL    HW1 1364   0.690   2.665   2.941 -0.5680  0.4832 -0.7878
  455SOL    HW2 1365   0.641   2.510   2.976  2.9173  0.4218 -0.7248
  456SOL     OW 1366   0.469   1.778   0.271  0.3833  0.3749 -0.2726
  456SOL    HW1 1367   0.528   1.708   0.317 -2.9642  1.8636 -0.5569
  456SOL    HW2 1368   0.519   1.865   0.234  4.8559 -0.3756 -2.9130
  457SOL     OW 1369   0.376   2.586   0.578  0.3080  0.2405 -0.5065
  457SOL    HW1 1370   0.365   2.660   0.508  1.5494  1.4530 -0.0157
  457SOL    HW2 1371   0.467   2.537   0.572  0.0426  1.1898  1.9387
  458SOL     OW 1372   2.989   2.966   1.192 -0.1105 -0.2374 -0.4323
  458SOL    HW1 1373   3.001   3.070   1.191 -0.1218  0.9401  1.2746
  458SOL    HW2 1374   3.008   2.930   1.099  2.3757 -0.8620  0.3789
  459SOL     OW 1375   2.180   2.609   0.849 -0.2275  0.3082  0.2725
  459SOL    HW1 1376   2.198   2.702   0.884 -1.4810  1.9308  1.5731
  459SOL    HW2 1377   2.261   2.564   0.798 -0.3626 -0.6863 -0.6171
  460SOL     OW 1378   1.088   1.959   2.902  0.1210  0.0969 -0.1079
  460SOL    HW1 1379   1.109   2.039   2.838 -0.7098  0.9684 -0.2319
  460SOL    HW2 1380   1.174   1.900   2.920 -0.4169  2.7570  1.3024
  461SOL     OW 1381   0.542   2.132   2.670 -0.7834 -0.4106  0.0741
  461SOL    HW1 1382   0.465   2.058   2.654  2.0930 -3.6600 -1.7470
  461SOL    HW2 1383   0.584   2.118   2.763 -2.4397  1.3970  1.9858
  462SOL     OW 1384   0.940   1.157   1.767 -0.0455 -0.0385 -0.0982
  462SOL    HW1 1385   0.985   1.059   1.758  1.9003  1.4755  2.5785
  462SOL    HW2 1386   0.980   1.224   1.700  0.2397  0.2659  3.9167
  463SOL     OW 1387   0.461   0.754   0.451 -0.4341  0.2720  0.0242
  463SOL    HW1 1388   0.465   0.651   0.439 -0.6421  0.1529  2.3324
  463SOL    HW2 1389   0.370   0.783   0.492  0.6533  0.3125 -0.3742
  464SOL     OW 1390   0.531   2.239   2.251  0.1549 -0.0860 -0.2987
  464SOL    HW1 1391   0.450   2.262   2.311 -0.3016  0.4735 -1.4398
  464SOL    HW2 1392   0.522   2.291   2.162  2.4261  0.4641  0.6487
  465SOL     OW 1393   0.328   0.886   0.883  0.1030 -0.1013  0.1477
  465SOL    HW1 1394   0.240   0.885   0.831 -1.5695  0.0225 -0.3016
  465SOL    HW2 1395   0.367   0.791   0.887  1.9691  1.0697 -1.6469
  466SOL     OW 1396   1.389   1.105   1.146 -0.1237 -0.4464  0.5940
  466SOL    HW1 1397   1.454   1.185   1.123 -1.4266  0.2203 -0.4879
  466SOL    HW2 1398   1.290   1.119   1.120 -0.3571  0.1320 -1.3160
  467SOL     OW 1399   0.491   0.368   2.419  0.8775 -0.7475  0.4264
  467SOL    HW1 1400   0.481   0.438   2.496  1.5143  0.8702  2.0525
  467SOL    HW2 1401   0.520   0.278   2.463 -0.9958 -2.3484 -3.1535
  468SOL     OW 1402   0.484   2.265   1.738 -0.4420  0.0442 -0.1013
  468SOL    HW1 1403   0.490   2.342   1.806 -0.3203 -0.6008  0.5216
  468SOL    HW2 1404   0.475   2.295   1.641  0.9786  1.0736 -0.9069
  469SOL     OW 1405   1.580   1.297   1.118  0.6021 -0.3528  0.2836
  469SOL    HW1 1406   1.638   1.225   1.159 -1.6165 -0.4593 -0.1334
  469SOL    HW2 1407   1.624   1.391   1.125 -0.6992  1.1823 -0.2164
  470SOL     OW 1408   3.003   1.613   0.764  0.0961 -0.2037 -0.2635
  470SOL    HW1 1409   3.101   1.619   0.814  3.2240  2.4738 -0.2523
  470SOL    HW2 1410   2.938   1.688   0.796 -1.5617 -1.0916  0.9780
  471SOL     OW 1411   2.583   1.302   2.194 -0.3420 -0.1421 -0.0747
  471SOL    HW1 1412   2.583   1.209   2.233  1.1679  0.4018  1.9917
  471SOL    HW2 1413   2.598   1.368   2.270 -0.9686 -0.9272 -2.5302
  472SOL     OW 1414   1.199   2.454   3.056  0.9227 -0.5295 -0.3313
  472SOL    HW1 1415   1.220   2.451   3.158  0.2565  2.8623 -0.1825
  472SOL    HW2 1416   1.143   2.372   3.023  3.0247 -0.6014 -2.0401
  473SOL     OW 1417   1.068   1.505   0.887  0.6305 -0.3805 -0.2270
  473SOL    HW1 1418   0.976   1.546   0.920  1.5096  0.5198 -1.1918
  473SOL    HW2 1419   1.134   1.480   0.964  0.8509 -0.8845  2.1586
  474SOL     OW 1420   0.742   1.256   0.774 -0.2678 -0.4409 -0.5376
  474SOL    HW1 1421   0.707   1.227   0.677  1.7268 -0.2327  0.1596
  474SOL    HW2 1422   0.836   1.218   0.795 -1.1078  0.8038 -0.2794
  475SOL     OW 1423   2.860   0.024   0.834 -0.0042 -0.4434 -0.5060
  475SOL    HW1 1424   2.946   0.062   0.881  0.4553  1.6235  1.4274
  475SOL    HW2 1425   2.771   0.061   0.869 -1.5036  0.4194  0.2019
  476SOL     OW 1426   0.960   3.047   1.943 -0.5887  0.4341 -1.0512
  476SOL    HW1 1427   0.994   2.965   1.996 -1.3490  2.1060  1.3116
  476SOL    HW2 1428   0.969   3.034   1.842 -3.1807 -3.7030  0.7873
  477SOL     OW 1429   1.483   0.370   2.424 -0.6843 -0.6221 -0.0445
  477SOL    HW1 1430   1.453   0.372   2.522  3.3172 -0.7548  0.8315
  477SOL    HW2 1431   1.576   0.330   2.406 -0.0137 -1.4831 -2.2466
  478SOL     OW 1432   2.206   1.844   0.246 -1.0068 -0.1773  0.1539
  478SOL    HW1 1433   2.159   1.754   0.231 -1.4469  2.5501  1.3022
  478SOL    HW2 1434   2.312   1.841   0.233  0.1498 -2.5975  0.9887
  479SOL     OW 1435   1.287   1.138   2.913  0.6136 -0.3552  1.0964
  479SOL    HW1 1436   1.338   1.208   2.855 -1.7532 -1.8618  1.2143
  479SOL    HW2 1437   1.227   1.083   2.855  0.9762  0.3124  0.3591
  480SOL     OW 1438   2.499   2.350   0.438  0.1665  0.2209  0.7923
  480SOL    HW1 1439   2.457   2.254   0.442 -2.6417 -1.1318  0.5698
  480SOL    HW2 1440   2.454   2.404   0.365  2.9586 -2.2365  1.2237
  481SOL     OW 1441   1.060   1.161   0.853 -0.1202 -0.1850  0.5221
  481SOL    HW1 1442   1.079   1.221   0.768 -0.1890 -1.7070 -2.2597
  481SOL    HW2 1443   1.089   1.199   0.947  1.6676  0.3707  2.5495
  482SOL     OW 1444   1.590   0.286   2.012 -0.2927 -0.5936 -0.3910
  482SOL    HW1 1445   1.604   0.390   2.000 -2.0263 -1.6119  1.6951
  482SOL    HW2 1446   1.675   0.243   2.050 -3.4252  1.6052  1.6928
  483SOL     OW 1447   0.154   2.356   1.348  1.1942 -0.2400  0.5023
  483SOL    HW1 1448   0.059   2.381   1.378 -0.1718  0.3325 -0.9210
  483SOL    HW2 1449   0.172   2.395   1.250 -0.5744  0.2089 -3.3645
  484SOL     OW 1450   1.705   0.957   1.387  0.3458 -0.1446  0.2619
  484SOL    HW1 1451   1.803   0.962   1.421 -1.1289  0.4681 -1.1611
  484SOL    HW2 1452   1.697   1.030   1.316  1.5523 -0.9305  1.3021
  485SOL     OW 1453   0.669   1.114   1.798  0.3672 -0.1335 -0.7481
  485SOL    HW1 1454   0.651   1.045   1.724 -2.9507  0.9454 -1.9292
  485SOL    HW2 1455   0.769   1.145   1.799  0.9497 -2.4638  1.2760
  486SOL     OW 1456   0.864   1.927   2.456 -0.5925  0.8744 -0.2301
  486SOL    HW1 1457   0.887   1.881   2.549 -0.8095  0.1318 -1.9358
  486SOL    HW2 1458   0.796   2.008   2.465  1.3563 -0.2016 -1.3643
  487SOL     OW 1459   1.768   1.572   0.843 -0.2755  0.8509 -0.7607
  487SOL    HW1 1460   1.726   1.500   0.781 -0.5147  2.1223  0.6753
  487SOL    HW2 1461   1.825   1.642   0.785  0.5192 -1.6603 -0.8594
  488SOL     OW 1462   2.988   0.974   2.209 -0.3662  0.6309 -0.1306
  488SOL    HW1 1463   2.976   0.868   2.208 -0.4432 -0.3675  2.2476
  488SOL    HW2 1464   3.077   0.996   2.252  3.1286 -2.0520 -1.8556
  489SOL     OW 1465   2.772   0.219   1.368  0.4897  0.0314 -0.2112
  489SOL    HW1 1466   2.747   0.205   1.469 -1.3197  0.5628  0.6184
  489SOL    HW2 1467   2.864   0.179   1.342  1.8433  0.4588  0.9956
  490SOL     OW 1468   1.380   3.000   2.798 -0.6186  0.7399  0.3057
  490SOL    HW1 1469   1.410   2.897   2.816 -0.5717 -2.8843 -0.7858
  490SOL    HW2 1470   1.381   3.019   2.692  1.1776  0.0066 -2.9215
  491SOL     OW 1471   1.870   1.534   2.677 -0.4130 -0.5299  0.2012
  491SOL    HW1 1472   1.800   1.533   2.757  0.3489 -2.4674  1.0036
  491SOL    HW2 1473   1.963   1.532   2.722  0.9327 -0.3975 -0.4061
  492SOL     OW 1474   0.493   1.934   0.697 -0.2893  0.6451 -0.5943
  492SOL    HW1 1475   0.590   1.949   0.733  0.9811 -2.7030  0.0101
  492SOL    HW2 1476   0.438   2.019   0.696  3.8952 -1.6050  1.0588
  493SOL     OW 1477   0.504   1.418   2.130  0.3832  0.4396 -0.7313
  493SOL    HW1 1478   0.412   1.464   2.150  1.5798  1.7445  0.7928
  493SOL    HW2 1479   0.519   1.334   2.189  1.7715  1.0110  0.2562
  494SOL     OW 1480   2.598   2.555   0.198  0.5124 -0.2727  0.0175
  494SOL    HW1 1481   2.670   2.486   0.197 -1.3116  2.4658  0.8052
  494SOL    HW2 1482   2.565   2.583   0.104  1.0763 -0.3438 -1.4521
  495SOL     OW 1483   2.740   2.692   2.695 -0.3905  0.5518 -0.1847
  495SOL    HW1 1484   2.757   2.601   2.636 -2.1211 -1.1410 -1.0930
  495SOL    HW2 1485   2.718   2.770   2.633  1.5783  0.3793  0.9473
  496SOL     OW 1486   2.097   2.201   0.699 -0.4702 -0.4583 -0.3696
  496SOL    HW1 1487   2.141   2.253   0.780  2.0491  2.6213  3.0059
  496SOL    HW2 1488   2.089   2.105   0.721 -0.6030  2.5123  0.4689
  497SOL     OW 1489   0.247   2.959   2.388 -0.1354 -0.4111 -0.1303
  497SOL    HW1 1490   0.214   3.042   2.447  0.9001  1.5193 -0.9335
  497SOL    HW2 1491   0.300   3.007   2.309 -2.2171  1.2735 -3.1514
  498SOL     OW 1492   1.260   1.499   1.110  0.3814 -0.0349 -0.0682
  498SOL    HW1 1493   1.339   1.562   1.134 -1.4453  0.5929  1.3633
  498SOL    HW2 1494   1.175   1.527   1.157 -2.5746  0.4050  0.5142
  499SOL     OW 1495   0.841   1.815   0.477 -0.0489  0.4777 -0.2034
  499SOL    HW1 1496   0.792   1.723   0.496  0.5787 -0.3626 -1.4205
  499SOL    HW2 1497   0.857   1.866   0.571  0.1703 -0.0508  3.7096
  500SOL     OW 1498   1.441   2.961   1.656  0.0067  0.1015  0.3570
  500SOL    HW1 1499   1.362   2.965   1.717 -0.2565 -0.5128  0.4764
  500SOL    HW2 1500   1.489   2.865   1.667 -0.1462 -0.2374  0.0943
  501SOL     OW 1501   0.838   1.125   2.264  0.9760 -0.0022 -0.0598
  501SOL    HW1 1502   0.753   1.076   2.247 -0.8296 -0.3936 -3.3651
  501SOL    HW2 1503   0.906   1.116   2.182  1.8842 -0.7244  1.0560
  502SOL     OW 1504   2.570   0.948   1.750 -0.1111 -0.7065  0.5551
  502SOL    HW1 1505   2.557   0.950   1.642  1.6086 -0.1008 -0.8856
  502SOL    HW2 1506   2.533   0.864   1.797  0.6987 -1.2924  3.5533
  503SOL     OW 1507   1.314   0.176   0.576  0.1995  0.9395 -0.1737
  503SOL    HW1 1508   1.230   0.238   0.577  0.2296  0.8946  0.7304
  503SOL    HW2 1509   1.400   0.235   0.584 -0.4323  0.5546 -1.5797
  504SOL     OW 1510   2.959   2.313   1.424 -0.3974 -0.1519 -0.4112
  504SOL    HW1 1511   2.968   2.395   1.493  1.8095  0.8448  1.0710
  504SOL    HW2 1512   2.877   2.254   1.444  1.2954 -3.0289 -1.7033
  505SOL     OW 1513   2.284   1.283   1.450  0.3300 -0.3649 -0.5499
  505SOL    HW1 1514   2.269   1.376   1.497 -0.2163 -0.0725  0.6060
  505SOL    HW2 1515   2.383   1.252   1.458 -1.9721  0.4782 -0.4485
  506SOL     OW 1516   1.876   0.333   1.749 -0.1068  0.3036  0.1214
  506SOL    HW1 1517   1.958   0.266   1.737  1.7910 -0.9038 -0.0370
  506SOL    HW2 1518   1.900   0.410   1.809  1.1658 -0.1466  2.4285
  507SOL     OW 1519   0.520   0.742   2.164  0.0502  0.0169 -0.0783
  507SOL    HW1 1520   0.447   0.722   2.092  0.6383 -1.6348  1.4127
  507SOL    HW2 1521   0.577   0.655   2.172 -0.3367 -1.5085 -0.0250
  508SOL     OW 1522   0.149   1.628   0.849 -0.1216  0.4752 -0.4697
  508SOL    HW1 1523   0.229   1.654   0.790 -0.2827  2.5549 -0.6856
  508SOL    HW2 1524   0.158   1.637   0.949 -1.5336  2.4551 -3.5822
  509SOL     OW 1525   1.372   1.148   2.558  0.3132 -0.3809 -0.8162
  509SOL    HW1 1526   1.307   1.223   2.586  4.7482 -0.8841 -0.4452
  509SOL    HW2 1527   1.333   1.055   2.545 -2.5758 -1.4897  0.2239
  510SOL     OW 1528   1.343   1.998   2.039  0.3279 -0.6604 -0.6388
  510SOL    HW1 1529   1.268   2.073   2.051 -3.3120  2.2905 -2.4364
  510SOL    HW2 1530   1.322   1.914   2.096  1.1488  1.2204  0.9825
  511SOL     OW 1531   3.052   2.626   1.294  1.0132 -0.4858 -0.1252
  511SOL    HW1 1532   3.015   2.585   1.205 -0.1892 -2.0895 -2.2368
  511SOL    HW2 1533   2.976   2.660   1.358 -0.8724 -0.8105 -0.1674
  512SOL     OW 1534   2.416   0.363   1.453 -0.2329  0.1550 -0.5385
  512SOL    HW1 1535   2.316   0.379   1.438  2.0826  0.7684  2.5996
  512SOL    HW2 1536   2.440   0.262   1.435  0.8904 -2.1226  0.9123
  513SOL     OW 1537   2.475   2.041   0.814 -0.8707 -0.0870 -0.1950
  513SOL    HW1 1538   2.434   2.131   0.777  0.1013  0.1779 -0.5887
  513SOL    HW2 1539   2.567   2.019   0.771 -2.7008 -0.0717 -1.5641
  514SOL     OW 1540   0.719   2.804   0.335  0.7130 -0.3387 -0.0025
  514SOL    HW1 1541   0.701   2.894   0.280  0.3661  1.5399 -0.3051
  514SOL    HW2 1542   0.689   2.816   0.435 -0.2522 -2.2802 -0.4754
  515SOL     OW 1543   1.960   1.249   2.345  0.6645  0.2135 -0.0429
  515SOL    HW1 1544   1.919   1.269   2.251 -0.1101 -0.4870  1.9288
  515SOL    HW2 1545   1.874   1.236   2.410 -0.8445  1.4484  0.2522
  516SOL     OW 1546   0.326   0.383   1.992  0.8550 -0.1637 -0.6749
  516SOL    HW1 1547   0.422   0.354   1.968  1.9776 -0.1178 -0.1168
  516SOL    HW2 1548   0.253   0.339   1.939  1.1721  0.5399  3.1465
  517SOL     OW 1549   0.347   2.982   1.193  0.1089  0.5773  0.4701
  517SOL    HW1 1550   0.341   3.085   1.214 -2.6592  1.1412  0.8410
  517SOL    HW2 1551   0.269   2.933   1.242  2.2639  0.6913 -0.5650
  518SOL     OW 1552   2.112   0.156   1.723  0.1810 -0.3106  0.8813
  518SOL    HW1 1553   2.176   0.194   1.795 -0.2210 -1.3345 -0.3885
  518SOL    HW2 1554   2.156   0.082   1.666 -0.5722 -0.8419 -0.5025
  519SOL     OW 1555   2.372   2.227   2.638  0.4664  0.5198 -0.0143
  519SOL    HW1 1556   2.270   2.210   2.649 -1.9338 -0.2153  1.0289
  519SOL    HW2 1557   2.400   2.324   2.602  2.6041  0.7719 -1.5871
  520SOL     OW 1558   1.735   2.883   1.808  0.1655  0.0125 -0.2134
  520SOL    HW1 1559   1.671   2.834   1.874 -2.6003  0.6035 -1.4514
  520SOL    HW2 1560   1.817   2.823   1.793  0.8279  0.9725 -1.6647
  521SOL     OW 1561   0.607   0.072   2.149  0.0348 -0.7172 -0.0884
  521SOL    HW1 1562   0.512   0.040   2.173 -1.1005  1.7032  2.7115
  521SOL    HW2 1563   0.679   0.036   2.213  1.2645 -0.8115  0.3880
  522SOL     OW 1564   0.191   1.924   1.524 -0.5765  0.5635  0.1582
  522SOL    HW1 1565   0.246   1.964   1.601 -0.9320 -1.2231  1.0805
  522SOL    HW2 1566   0.190   1.992   1.444 -0.0227  1.9911  0.8354
  523SOL     OW 1567   2.267   3.021   1.650  0.4234  0.0474  0.9161
  523SOL    HW1 1568   2.314   2.974   1.573 -0.8380 -0.6329  1.7521
  523SOL    HW2 1569   2.204   2.952   1.701 -1.2080 -1.8463 -2.4667
  524SOL     OW 1570   0.202   2.780   2.796 -0.6716  0.6251 -0.3748
  524SOL    HW1 1571   0.164   2.869   2.824 -3.1331  0.0073 -1.4151
  524SOL    HW2 1572   0.299   2.781   2.828  1.1730 -2.1217  1.5974
  525SOL     OW 1573   2.090   1.917   0.468  0.5969 -0.2715  0.0613
  525SOL    HW1 1574   2.110   1.843   0.539 -2.3994 -0.7575 -1.7598
  525SOL    HW2 1575   2.129   1.895   0.373  3.1838  1.1653 -2.8122
  526SOL     OW 1576   0.381   1.528   1.534  0.0700  0.2564  0.7054
  526SOL    HW1 1577   0.328   1.476   1.609  0.1199 -1.5018 -0.1552
  526SOL    HW2 1578   0.462   1.465   1.502 -0.9976 -1.9390 -0.7038
  527SOL     OW 1579   1.148   2.892   1.156  0.0111 -0.0446 -0.6112
  527SOL    HW1 1580   1.236   2.854   1.187  1.5416  0.2929 -2.6359
  527SOL    HW2 1581   1.145   2.995   1.178  0.2301 -1.8281  1.3048
  528SOL     OW 1582   1.300   2.407   0.479  0.1069  0.0267  0.4681
  528SOL    HW1 1583   1.328   2.306   0.483 -2.3293 -0.3919 -0.6351
  528SOL    HW2 1584   1.344   2.462   0.557 -0.3701  1.7380  0.5941
  529SOL     OW 1585   1.908   1.749   0.693  0.1823 -0.0319 -0.5982
  529SOL    HW1 1586   1.869   1.744   0.596  1.1099 -0.7146 -1.7615
  529SOL    HW2 1587   2.014   1.737   0.698  0.9830  0.4693 -0.1872
  530SOL     OW 1588   0.338   2.498   0.230 -0.1097  0.4968  0.1992
  530SOL    HW1 1589   0.348   2.603   0.248 -0.6234 -3.1069  2.7911
  530SOL    HW2 1590   0.415   2.439   0.270  1.3280  1.8839  0.5808
  531SOL     OW 1591   1.900   0.805   0.945 -0.4189  0.1720  0.0053
  531SOL    HW1 1592   1.928   0.861   0.861  0.0669  0.6002 -2.1916
  531SOL    HW2 1593   1.801   0.788   0.955  1.8566 -1.0247  2.1431
  532SOL     OW 1594   0.453   1.092   0.736 -0.0404 -0.6538  0.0353
  532SOL    HW1 1595   0.529   1.065   0.675 -1.6532  0.7707 -1.1657
  532SOL    HW2 1596   0.396   1.018   0.781  0.2222  1.4106  2.5828
  533SOL     OW 1597   1.729   0.027   2.578  0.5065  0.4729  0.0824
  533SOL    HW1 1598   1.831   0.033   2.603 -0.7392 -1.3098 -0.4248
  533SOL    HW2 1599   1.667   0.071   2.646  1.2430  1.2418  0.8178
  534SOL     OW 1600   0.378   0.235   1.485  0.4563  0.6078 -0.3354
  534SOL    HW1 1601   0.470   0.212   1.519 -1.4141 -0.2867 -0.1661
  534SOL    HW2 1602   0.345   0.334   1.498 -1.1356 -0.9666 -0.1563
  535SOL     OW 1603   1.989   0.306   0.168  0.4436 -0.6501 -0.0648
  535SOL    HW1 1604   1.972   0.392   0.226 -0.9254  0.9595  2.7419
  535SOL    HW2 1605   1.979   0.223   0.228  0.1487  1.7054  2.4802
  536SOL     OW 1606   1.388   2.605   0.974  0.3708  0.2926 -0.0911
  536SOL    HW1 1607   1.345   2.559   1.064 -1.4347 -0.3648  4.5300
  536SOL    HW2 1608   1.321   2.681   0.944 -0.4316  0.5806  0.1039
  537SOL     OW 1609   0.899   0.238   2.328  0.4972  0.7420 -0.3378
  537SOL    HW1 1610   0.911   0.287   2.238 -0.7101 -0.4279 -0.5535
  537SOL    HW2 1611   0.847   0.153   2.312  3.1826  3.8042 -2.0991
  538SOL     OW 1612   1.631   2.353   1.408 -0.1083 -0.1594  0.0872
  538SOL    HW1 1613   1.620   2.251   1.404 -1.2581  0.2482  0.0743
  538SOL    HW2 1614   1.724   2.382   1.383  0.0133 -2.9984 -2.1443
  539SOL     OW 1615   0.177   1.577   2.658 -0.4407 -0.1310 -0.1492
  539SOL    HW1 1616   0.075   1.578   2.629 -2.8088  0.1870 -3.4251
  539SOL    HW2 1617   0.205   1.662   2.714 -0.8920 -0.9259  0.4584
  540SOL     OW 1618   2.678   1.763   1.955  0.2521  0.4523  0.0016
  540SOL    HW1 1619   2.616   1.684   1.971  0.9271  1.5065  0.4875
  540SOL    HW2 1620   2.636   1.849   1.930  0.7149 -2.5820  2.2879
  541SOL     OW 1621   0.466   2.132   3.049 -0.0788 -0.2080  0.1989
  541SOL    HW1 1622   0.488   2.089   3.141 -2.5949  0.3445 -1.5944
  541SOL    HW2 1623   0.364   2.133   3.027  1.9477  0.3179 -1.6607
  542SOL     OW 1624   2.254   2.599   0.490 -0.4612 -0.2623 -0.2080
  542SOL    HW1 1625   2.263   2.671   0.562  0.4366 -3.2006  0.5516
  542SOL    HW2 1626   2.184   2.532   0.527  0.0465  1.1926 -0.4241
  543SOL     OW 1627   0.991   1.783   1.586 -0.7353  0.0378 -0.2432
  543SOL    HW1 1628   1.006   1.824   1.679 -1.2906  2.6318  2.5103
  543SOL    HW2 1629   0.973   1.856   1.518  0.2895  0.8334 -0.3390
  544SOL     OW 1630   1.132   0.540   0.140  0.0970  0.1992 -0.3737
  544SOL    HW1 1631   1.118   0.461   0.200  0.9798  2.0733 -0.2644
  544SOL    HW2 1632   1.157   0.507   0.045  0.2936 -0.6443 -2.2316
  545SOL     OW 1633   1.143   1.776   0.815 -0.4010 -0.2383  0.1799
  545SOL    HW1 1634   1.233   1.806   0.767  0.1819  2.4777 -0.0268
  545SOL    HW2 1635   1.134   1.677   0.827 -0.5013 -0.3917 -0.6952
  546SOL     OW 1636   2.719   1.582   3.020 -0.2303 -0.5247  0.1259
  546SOL    HW1 1637   2.686   1.675   2.991 -1.1273  1.5470  4.1098
  546SOL    HW2 1638   2.635   1.524   3.045  1.2573  0.9604 -1.5467
  547SOL     OW 1639   0.739   3.020   2.601  0.7946  0.2815  0.1001
  547SOL    HW1 1640   0.810   3.002   2.666 -0.9338  0.0714 -2.6968
  547SOL    HW2 1641   0.670   2.938   2.594 -3.7747 -2.6679  0.3780
  548SOL     OW 1642   2.021   0.813   3.087 -0.4778  0.2116  0.8655
  548SOL    HW1 1643   1.924   0.774   3.103  0.8566 -0.4691  2.5298
  548SOL    HW2 1644   2.031   0.917   3.099 -0.9877 -1.2178 -1.8259
  549SOL     OW 1645   0.671   0.495   0.182  0.7751 -0.9576 -0.0669
  549SOL    HW1 1646   0.612   0.525   0.102 -0.9882 -1.0434  0.4656
  549SOL    HW2 1647   0.758   0.548   0.189  2.0422  1.3091 -0.8765
  550SOL     OW 1648   2.612   2.811   2.898 -0.2447  0.1812  0.4565
  550SOL    HW1 1649   2.580   2.750   2.980 -1.2237 -2.0702  1.5236
  550SOL    HW2 1650   2.664   2.759   2.824  1.7810  2.2652  1.1584
  551SOL     OW 1651   0.238   0.858   0.242 -0.1037 -0.0080  0.2407
  551SOL    HW1 1652   0.328   0.819   0.202  0.5788 -1.7785  2.7392
  551SOL    HW2 1653   0.228   0.841   0.345 -0.8736 -1.4598 -4.3458
  552SOL     OW 1654   0.613   3.052   1.907 -0.1701  0.3744 -0.2053
  552SOL    HW1 1655   0.621   3.114   1.989 -1.3862  1.1577 -2.5929
  552SOL    HW2 1656   0.704   3.005   1.876  0.8266  1.0992 -1.4799
  553SOL     OW 1657   3.067   2.400   0.380 -0.3348  0.0171  0.6338
  553SOL    HW1 1658   3.107   2.317   0.425  0.1244 -1.1307 -1.5398
  553SOL    HW2 1659   2.967   2.417   0.408  2.6544 -1.8822  1.6717
  554SOL     OW 1660   2.238   0.328   0.594  0.3681 -0.1190 -0.0249
  554SOL    HW1 1661   2.290   0.294   0.513  0.3831 -1.3737  2.3024
  554SOL    HW2 1662   2.234   0.259   0.671  0.4202  0.4145 -0.1447
  555SOL     OW 1663   0.471   2.811   2.515 -0.1070  0.0400  1.1064
  555SOL    HW1 1664   0.383   2.857   2.487  1.9434  0.7452  2.3911
  555SOL    HW2 1665   0.485   2.722   2.464 -0.4608 -3.9943  0.3452
  556SOL     OW 1666   0.829   2.358   1.595 -0.7178  0.1721  0.0871
  556SOL    HW1 1667   0.867   2.435   1.650  1.0877 -3.9743  1.0248
  556SOL    HW2 1668   0.874   2.353   1.498 -0.3774  0.4905 -1.1303
  557SOL     OW 1669   0.110   2.183   0.252 -0.7050 -0.1332 -0.7797
  557SOL    HW1 1670   0.054   2.117   0.197  0.5401  1.5117  0.1748
  557SOL    HW2 1671   0.177   2.233   0.192 -3.7169  0.1536  3.2917
  558SOL     OW 1672   2.824   2.163   0.387  0.0760 -1.5054 -0.3590
  558SOL    HW1 1673   2.858   2.265   0.406  2.1350  2.2065  1.6780
  558SOL    HW2 1674   2.763   2.150   0.302 -2.0820  0.4045 -2.9485
  559SOL     OW 1675   0.432   2.278   1.438 -0.4814  0.4416 -0.0245
  559SOL    HW1 1676   0.350   2.312   1.380  2.1909  1.6378 -2.0701
  559SOL    HW2 1677   0.503   2.232   1.381 -0.1846  0.3537 -1.8256
  560SOL     OW 1678   2.171   1.059   0.035  0.2246  0.3238  0.4799
  560SOL    HW1 1679   2.205   1.064   0.130 -1.1816 -1.0941 -0.1027
  560SOL    HW2 1680   2.232   1.020  -0.035 -2.9770  3.1617  0.0399
  561SOL     OW 1681   3.023   1.985   0.134 -0.1404 -0.2297 -0.3792
  561SOL    HW1 1682   2.945   1.968   0.203 -2.0997  1.6715  2.7139
  561SOL    HW2 1683   2.988   2.008   0.037  1.7932 -2.1997 -2.9672
  562SOL     OW 1684   1.017   2.107   2.293 -0.4666  0.6716  0.2269
  562SOL    HW1 1685   1.007   2.205   2.322  1.6899  1.7998  1.8597
  562SOL    HW2 1686   0.960   2.039   2.354 -1.8105 -1.8877 -0.5876
  563SOL     OW 1687   0.685   2.491   2.641  0.7153 -0.3561  0.1508
  563SOL    HW1 1688   0.769   2.426   2.643  2.2707 -3.3629 -0.1563
  563SOL    HW2 1689   0.654   2.528   2.732  0.6489 -0.5001  0.6696
  564SOL     OW 1690   2.872   1.388   2.891 -0.0711 -0.5931  0.0659
  564SOL    HW1 1691   2.820   1.468   2.943 -0.8586 -0.1021  0.9682
  564SOL    HW2 1692   2.970   1.411   2.869  1.8716 -1.6004 -0.6337
  565SOL     OW 1693   2.501   1.957   2.644 -0.0573  0.4686  0.0085
  565SOL    HW1 1694   2.480   2.057   2.637 -2.4836  1.0237  0.4660
  565SOL    HW2 1695   2.581   1.932   2.705  1.8496  2.1307  1.1197
  566SOL     OW 1696   2.023   2.923   1.532  0.3539 -0.1658  0.9494
  566SOL    HW1 1697   2.006   2.826   1.516 -1.5518  2.2016  0.7352
  566SOL    HW2 1698   2.085   2.961   1.464  0.1153 -1.3059  1.4859
  567SOL     OW 1699   2.379   0.042   2.303  0.3242 -0.2105  0.4112
  567SOL    HW1 1700   2.295   0.077   2.348  1.3787  0.6871 -0.3472
  567SOL    HW2 1701   2.359   0.019   2.200 -3.2593  1.3446 -1.4822
  568SOL     OW 1702   1.479   1.749   0.182  0.2301  0.0753 -0.5146
  568SOL    HW1 1703   1.416   1.835   0.185 -1.1309  2.0076  1.5103
  568SOL    HW2 1704   1.579   1.781   0.170  2.3777  0.5360  1.5469
  569SOL     OW 1705   0.203   0.535   0.837 -0.0979  0.0186 -0.0080
  569SOL    HW1 1706   0.222   0.446   0.784  0.6053  3.5626 -1.6566
  569SOL    HW2 1707   0.102   0.539   0.862 -0.7592  0.1450 -0.4134
  570SOL     OW 1708   0.650   0.808   2.911 -0.1121 -0.8895 -0.3903
  570SOL    HW1 1709   0.658   0.834   2.813 -2.2169 -1.2644  0.5419
  570SOL    HW2 1710   0.688   0.883   2.974  1.5653  0.7474 -0.0758
  571SOL     OW 1711   0.801   3.038   1.106 -0.3306 -0.1718  0.4486
  571SOL    HW1 1712   0.852   3.076   1.023  0.4966  2.5339  2.2116
  571SOL    HW2 1713   0.823   2.936   1.118 -2.3034 -0.5249  0.7089
  572SOL     OW 1714   1.670   2.730   1.396 -0.0777 -0.0758 -0.7712
  572SOL    HW1 1715   1.678   2.723   1.292  2.6575  0.9072  1.4382
  572SOL    HW2 1716   1.599   2.798   1.430 -2.6418 -0.5167 -0.1342
  573SOL     OW 1717   3.050   0.471   1.941  0.5211  0.2756 -0.1885
  573SOL    HW1 1718   2.968   0.420   1.906 -0.8923 -1.0623  0.3140
  573SOL    HW2 1719   3.132   0.445   1.891 -1.6758  1.5815 -0.4214
  574SOL     OW 1720   0.116   1.686   1.118  0.7318  0.1415  0.1281
  574SOL    HW1 1721   0.177   1.667   1.201 -0.6890 -1.2997  2.8334
  574SOL    HW2 1722   0.092   1.787   1.102  0.3399  0.0744  2.8108
  575SOL     OW 1723   0.839   2.308   0.930  0.1118 -0.1706 -0.0588
  575SOL    HW1 1724   0.795   2.380   0.994 -2.0207  2.0623  1.8707
  575SOL    HW2 1725   0.901   2.356   0.859 -0.6741  2.2976  2.0707
  576SOL     OW 1726   2.933   3.041   1.671  0.0468  0.5086  0.0893
  576SOL    HW1 1727   2.838   3.047   1.624 -2.5335  0.4234 -3.5419
  576SOL    HW2 1728   2.976   3.131   1.686 -2.1292  0.3073 -1.0970
  577SOL     OW 1729   2.639   1.202   3.055 -0.2785 -0.7320 -0.1090
  577SOL    HW1 1730   2.624   1.119   2.999  0.5781  2.2955 -1.9228
  577SOL    HW2 1731   2.675   1.182   3.150 -0.8009  2.2684  0.0821
  578SOL     OW 1732   1.372   2.738   2.562  0.7080  0.2818  0.2392
  578SOL    HW1 1733   1.275   2.761   2.527  0.8413  0.9471  2.1597
  578SOL    HW2 1734   1.443   2.785   2.502  1.3831  1.1575  0.4335
  579SOL     OW 1735   0.067   2.462   0.136 -0.1516  0.1785  0.0178
  579SOL    HW1 1736   0.023   2.417   0.220 -2.4613 -1.3601  1.2424
  579SOL    HW2 1737   0.150   2.511   0.168  1.2613 -1.2832  0.1408
  580SOL     OW 1738   0.981   2.712   0.341 -0.0010  0.9646 -0.2781
  580SOL    HW1 1739   1.046   2.710   0.260 -0.2806 -0.2654  0.7450
  580SOL    HW2 1740   0.882   2.735   0.314 -0.2562 -1.1677 -1.3163
  581SOL     OW 1741   1.274   2.716   1.395 -0.4825 -0.1779 -0.4544
  581SOL    HW1 1742   1.325   2.632   1.438  0.2869 -2.3408 -0.2179
  581SOL    HW2 1743   1.338   2.777   1.339 -0.3462  2.0636  1.0129
  582SOL     OW 1744   1.417   0.114   1.839  0.2325  0.5135  0.1005
  582SOL    HW1 1745   1.470   0.178   1.906 -0.5091  1.3922 -0.3457
  582SOL    HW2 1746   1.461   0.123   1.743 -0.3463  1.0016 -2.0497
  583SOL     OW 1747   2.500   2.988   0.506  0.1209 -0.0438  0.7714
  583SOL    HW1 1748   2.544   2.919   0.447 -0.6266  0.6042  0.1219
  583SOL    HW2 1749   2.421   2.943   0.555  0.8379  0.1521 -1.9787
  584SOL     OW 1750   1.469   1.032   2.267 -0.3769 -0.1042  0.0370
  584SOL    HW1 1751   1.438   1.087   2.348 -2.0380 -4.4234  0.7360
  584SOL    HW2 1752   1.563   0.991   2.265 -1.3858 -0.3535 -0.5174
  585SOL     OW 1753   2.057   2.657   2.866 -0.2049 -0.3880  0.0330
  585SOL    HW1 1754   2.081   2.566   2.830  2.0344  0.8460 -0.7413
  585SOL    HW2 1755   1.956   2.666   2.847  1.6472 -0.5923 -1.3812
  586SOL     OW 1756   2.871   0.387   1.613 -0.1222 -0.4588  0.4756
  586SOL    HW1 1757   2.864   0.492   1.633  2.7395  5.4430 -1.5181
  586SOL    HW2 1758   2.785   0.336   1.633  3.4221  0.5382  1.9846
  587SOL     OW 1759   2.138   1.474   2.732 -0.6744  0.0423 -0.5945
  587SOL    HW1 1760   2.154   1.458   2.630  0.0737  0.5390 -1.5056
  587SOL    HW2 1761   2.205   1.544   2.770  2.1158  2.2477  1.1648
  588SOL     OW 1762   0.428   2.659   2.205 -0.5487  0.2912 -0.9804
  588SOL    HW1 1763   0.428   2.722   2.122 -0.0071  1.2614 -2.8697
  588SOL    HW2 1764   0.354   2.589   2.195  2.1010  3.3505 -0.5274
  589SOL     OW 1765   2.162   1.378   2.474 -0.1906  0.3445 -0.2174
  589SOL    HW1 1766   2.082   1.330   2.433  1.5699 -1.0830 -0.6726
  589SOL    HW2 1767   2.247   1.316   2.483  1.0888 -2.1103 -1.5548
  590SOL     OW 1768   2.321   1.684   2.045 -0.3630  0.4742  0.4482
  590SOL    HW1 1769   2.396   1.615   2.036  0.1845  0.8575 -2.2286
  590SOL    HW2 1770   2.325   1.742   2.130 -3.1342 -0.2631 -1.3114
  591SOL     OW 1771   1.278   2.425   0.201  0.2698  0.3950 -0.2953
  591SOL    HW1 1772   1.347   2.356   0.175 -1.6903  0.4964 -0.2675
  591SOL    HW2 1773   1.277   2.435   0.309  0.8633  1.1293  1.2569
  592SOL     OW 1774   1.790   2.337   0.782 -0.2528 -0.0082 -0.1784
  592SOL    HW1 1775   1.751   2.373   0.696 -0.9404 -2.6572 -0.2671
  592SOL    HW2 1776   1.892   2.319   0.784  2.0200  2.1589  0.0347
  593SOL     OW 1777   0.794   0.242   0.221  0.0141 -1.2039  0.2117
  593SOL    HW1 1778   0.832   0.195   0.136 -0.4311 -1.0972  0.1282
  593SOL    HW2 1779   0.763   0.339   0.205 -1.0163 -0.6770  0.2653
  594SOL     OW 1780   0.958   1.810   2.699 -0.2309  0.2790  0.5269
  594SOL    HW1 1781   1.039   1.787   2.642 -2.0094  0.9510  1.3136
  594SOL    HW2 1782   0.982   1.866   2.778 -0.0331 -0.4235 -0.9363
  595SOL     OW 1783   1.567   0.096   1.026 -0.3701 -1.0038  0.4568
  595SOL    HW1 1784   1.642   0.045   0.976 -2.0154 -0.9789  0.4783
  595SOL    HW2 1785   1.471   0.095   0.984 -0.6822  2.1059  2.2782
  596SOL     OW 1786   0.241   1.495   2.187  0.5074  0.1618  0.4167
  596SOL    HW1 1787   0.139   1.474   2.178 -3.4779  1.5980 -0.6118
  596SOL    HW2 1788   0.266   1.536   2.283 -1.7369  2.8377 -0.5714
  597SOL     OW 1789   1.955   2.699   1.810 -0.0245  0.0138 -0.2750
  597SOL    HW1 1790   1.927   2.653   1.725 -1.4789  1.0906  1.7330
  597SOL    HW2 1791   2.042   2.654   1.853  0.4692  1.0377 -0.8120
  598SOL     OW 1792   2.520   2.770   1.254 -0.5979  0.0801  0.5107
  598SOL    HW1 1793   2.621   2.764   1.232 -0.4512 -0.3629  1.2921
  598SOL    HW2 1794   2.467   2.694   1.212  0.8573  0.9650 -0.0305
  599SOL     OW 1795   2.897   0.306   2.510  0.2512 -0.4380  0.3589
  599SOL    HW1 1796   2.983   0.341   2.460 -2.8655  1.0880  0.0660
  599SOL    HW2 1797   2.804   0.346   2.480  1.0374 -0.0872  0.0289
  600SOL     OW 1798   2.735   1.209   2.735 -0.3408  0.1507  0.0250
  600SOL    HW1 1799   2.640   1.170   2.755 -0.7072  0.0137 -2.8758
  600SOL    HW2 1800   2.766   1.275   2.811  1.5293 -1.2057  2.4219
  601SOL     OW 1801   3.031   1.378   1.879 -0.2142 -0.1945 -0.2284
  601SOL    HW1 1802   2.933   1.416   1.870  0.4553 -0.1572 -2.8984
  601SOL    HW2 1803   3.095   1.458   1.879 -0.9404  0.0923 -2.2482
  602SOL     OW 1804   1.479   1.581   2.359 -0.6241 -0.5090 -0.5211
  602SOL    HW1 1805   1.392   1.557   2.411  0.9519  0.7281  0.5610
  602SOL    HW2 1806   1.561   1.593   2.427 -0.2618  3.8679  1.1274
  603SOL     OW 1807   0.583   1.158   2.759  0.1893 -0.0934  0.0623
  603SOL    HW1 1808   0.510   1.189   2.690  1.5475  0.3956  0.9500
  603SOL    HW2 1809   0.607   1.059   2.739  1.6275 -0.7805  0.2358
  604SOL     OW 1810   2.534   0.995   0.249  0.2969 -0.5254 -0.5927
  604SOL    HW1 1811   2.616   1.063   0.232  1.1189  2.0505 -2.3122
  604SOL    HW2 1812   2.532   0.912   0.182 -0.5102 -1.8935 -1.1487
  605SOL     OW 1813   2.559   1.170   1.911 -0.2885 -0.0812  0.2021
  605SOL    HW1 1814   2.586   1.080   1.868  0.1717  1.9905 -2.0426
  605SOL    HW2 1815   2.589   1.177   2.007  0.5433 -0.9736 -0.9067
  606SOL     OW 1816   1.467   2.459   2.550 -0.0676 -0.0594  0.0663
  606SOL    HW1 1817   1.418   2.548   2.554  1.7119 -0.0884 -0.7340
  606SOL    HW2 1818   1.411   2.370   2.525 -1.9749  1.4767  0.6596
  607SOL     OW 1819   1.274   1.602   0.256 -0.2094  0.9401 -0.0023
  607SOL    HW1 1820   1.214   1.667   0.304  1.3942 -0.4756 -0.5375
  607SOL    HW2 1821   1.361   1.650   0.244 -2.0508 -2.0937 -0.8615
  608SOL     OW 1822   1.449   2.865   0.355 -0.0658  0.3954  0.2044
  608SOL    HW1 1823   1.527   2.910   0.301 -0.6775  2.4682 -0.2570
  608SOL    HW2 1824   1.375   2.929   0.384  0.1528 -0.1005  0.8769
  609SOL     OW 1825   1.248   1.310   0.203 -0.6641  0.4503  0.3491
  609SOL    HW1 1826   1.239   1.402   0.241  1.0738 -0.3227  1.5905
  609SOL    HW2 1827   1.197   1.300   0.113  0.0116  0.8411  0.4870
  610SOL     OW 1828   3.070   1.219   2.101 -0.9119 -0.5267 -0.3630
  610SOL    HW1 1829   3.013   1.132   2.115  2.3415 -0.1159  0.6959
  610SOL    HW2 1830   3.054   1.271   2.008  1.3255  3.2148  0.1673
  611SOL     OW 1831   2.589   0.190   1.177  0.2628  0.4308  0.0116
  611SOL    HW1 1832   2.532   0.107   1.184  1.9274  0.7510 -0.6246
  611SOL    HW2 1833   2.654   0.200   1.258 -2.4872  0.5279  3.0127
  612SOL     OW 1834   0.758   2.394   1.184  0.3854  0.4007 -0.4488
  612SOL    HW1 1835   0.701   2.305   1.192 -2.5717  2.2888 -0.0619
  612SOL    HW2 1836   0.697   2.475   1.215 -0.1613  1.2357 -2.7100
  613SOL     OW 1837   0.788   1.347   2.394 -0.3174 -0.1242  0.1883
  613SOL    HW1 1838   0.783   1.425   2.327 -1.3422 -0.4945  2.1521
  613SOL    HW2 1839   0.788   1.252   2.349 -0.8643  0.6865  0.2225
  614SOL     OW 1840   1.510   1.686   1.947  0.0717  0.3391 -1.0344
  614SOL    HW1 1841   1.503   1.754   1.868 -1.5890 -0.4785  1.8516
  614SOL    HW2 1842   1.587   1.716   2.017  2.9728  2.2941  0.9656
  615SOL     OW 1843   0.722   1.435   1.688  0.5938 -0.2761  0.2369
  615SOL    HW1 1844   0.681   1.397   1.596 -2.1572 -0.9662 -1.9755
  615SOL    HW2 1845   0.824   1.432   1.686 -1.5914  0.7905 -0.7559
  616SOL     OW 1846   1.098   1.648   2.170  0.0009  0.3323 -0.2653
  616SOL    HW1 1847   0.999   1.623   2.183  1.4009 -0.1574 -0.3272
  616SOL    HW2 1848   1.139   1.617   2.082 -0.9268 -1.8635  4.1457
  617SOL     OW 1849   2.924   1.566   1.598  0.5901  0.0235  0.0935
  617SOL    HW1 1850   2.866   1.507   1.664 -0.4314 -0.6676 -1.9237
  617SOL    HW2 1851   2.958   1.519   1.512  1.3276  0.8379 -0.2415
  618SOL     OW 1852   1.876   2.022   1.533 -0.4434  0.3227 -0.0150
  618SOL    HW1 1853   1.937   1.990   1.454  0.4436 -1.8010 -0.6797
  618SOL    HW2 1854   1.817   1.952   1.572  2.3693  2.1275  0.3819
  619SOL     OW 1855   1.794   0.512   2.414  0.4250  0.2367  0.6143
  619SOL    HW1 1856   1.722   0.566   2.361  0.4155  1.9855 -2.1739
  619SOL    HW2 1857   1.765   0.410   2.420 -2.9975 -1.1758  0.4947
  620SOL     OW 1858   2.235   2.837   0.692  0.2197  0.3371  0.3199
  620SOL    HW1 1859   2.133   2.859   0.691 -1.9268  1.3144 -1.2231
  620SOL    HW2 1860   2.274   2.836   0.793  0.3624 -0.6268  0.7489
  621SOL     OW 1861   2.127   1.930   1.339 -0.1114 -0.2406 -0.0738
  621SOL    HW1 1862   2.146   1.913   1.440 -1.6366 -1.0382 -3.4773
  621SOL    HW2 1863   2.108   1.845   1.292  2.5330  0.8588  1.9242
  622SOL     OW 1864   2.185   0.928   1.742 -0.2151 -0.1944  0.0936
  622SOL    HW1 1865   2.208   0.828   1.721 -4.2200  1.2192  0.0873
  622SOL    HW2 1866   2.133   0.943   1.830  2.2344 -2.6247  1.2434
  623SOL     OW 1867   1.279   0.880   2.542 -0.4388 -0.6810  0.1188
  623SOL    HW1 1868   1.253   0.819   2.622  3.2436 -3.6285  1.1274
  623SOL    HW2 1869   1.217   0.876   2.456 -2.4267 -0.3384 -0.6204
  624SOL     OW 1870   0.534   0.633   3.078 -0.4490 -0.8641 -0.5300
  624SOL    HW1 1871   0.559   0.690   2.991 -1.3301  1.6190 -4.1861
  624SOL    HW2 1872   0.513   0.693   3.164 -2.1218  2.2160  2.5252
  625SOL     OW 1873   2.827   1.795   0.817  0.1285  0.1359 -0.4806
  625SOL    HW1 1874   2.794   1.852   0.898 -2.3748 -1.7168  0.8731
  625SOL    HW2 1875   2.746   1.737   0.783 -0.6433  2.2847  0.2895
  626SOL     OW 1876   0.457   2.832   2.009 -0.4584 -0.0614 -0.6471
  626SOL    HW1 1877   0.529   2.907   1.997 -1.6477  0.7266 -0.6958
  626SOL    HW2 1878   0.368   2.861   1.961  1.7302  1.4346 -0.2746
  627SOL     OW 1879   0.703   0.948   1.577 -0.3430 -0.6721  0.9497
  627SOL    HW1 1880   0.750   0.860   1.612 -1.7524  1.0422  1.1954
  627SOL    HW2 1881   0.767   1.003   1.511  3.2162  0.6949 -1.3257
  628SOL     OW 1882   2.436   0.118   0.654 -0.2415 -0.2455 -0.3265
  628SOL    HW1 1883   2.489   0.055   0.589  1.2122 -1.9568 -0.7015
  628SOL    HW2 1884   2.343   0.085   0.689  0.0432  1.3404  2.0045
  629SOL     OW 1885   2.025   0.945   1.962  0.0318 -0.3146 -0.4021
  629SOL    HW1 1886   2.079   0.949   2.046  0.4443  0.3324 -1.5359
  629SOL    HW2 1887   1.963   1.029   1.949 -2.4000 -0.1326  1.0511
  630SOL     OW 1888   2.845   2.255   0.806  0.3710  0.0575  0.3194
  630SOL    HW1 1889   2.770   2.292   0.865 -3.0709  0.8183  2.8451
  630SOL    HW2 1890   2.820   2.170   0.756 -0.3633  0.7792  1.0815
  631SOL     OW 1891   3.052   0.213   2.150  0.2862  0.4717  0.6116
  631SOL    HW1 1892   3.067   0.242   2.248 -0.6688  0.1809  0.2843
  631SOL    HW2 1893   3.116   0.256   2.087 -2.1676  0.7609  1.8998
  632SOL     OW 1894   2.417   2.527   0.718  0.5250 -0.0174 -0.3903
  632SOL    HW1 1895   2.505   2.569   0.751 -3.6767  1.2457 -2.6193
  632SOL    HW2 1896   2.409   2.536   0.612 -0.3867  1.3931 -2.4816
  633SOL     OW 1897   1.567   1.239   2.719  0.8030  0.4048 -0.2119
  633SOL    HW1 1898   1.540   1.329   2.766  1.8182 -1.9016  1.0805
  633SOL    HW2 1899   1.492   1.198   2.657  0.4371  3.2891  1.4053
  634SOL     OW 1900   0.705   2.065   0.879  0.2312 -0.4530  0.2900
  634SOL    HW1 1901   0.615   2.077   0.925  3.8974 -1.4213 -1.1531
  634SOL    HW2 1902   0.753   2.161   0.873  0.1429  0.7555  1.1744
  635SOL     OW 1903   3.058   2.255   3.053 -0.5893  0.0744  0.2000
  635SOL    HW1 1904   2.985   2.307   3.009  0.8241  1.0312  1.4475
  635SOL    HW2 1905   3.091   2.303   3.137  0.2221 -1.4217  0.2037
  636SOL     OW 1906   2.322   2.821   1.963 -0.2217  0.1225  0.4515
  636SOL    HW1 1907   2.308   2.924   1.959 -0.0320  1.2614 -1.6168
  636SOL    HW2 1908   2.292   2.779   2.052  1.9391  0.5689 -1.5418
  637SOL     OW 1909   2.555   0.730   2.085 -0.3069 -0.2326  0.1167
  637SOL    HW1 1910   2.523   0.711   1.985 -1.2401 -3.8690 -0.4669
  637SOL    HW2 1911   2.608   0.818   2.101  0.7155 -0.0270  0.2969
  638SOL     OW 1912   2.418   1.906   1.361 -0.2538 -0.3810  0.3481
  638SOL    HW1 1913   2.316   1.917   1.348 -0.6856 -1.4679  1.3666
  638SOL    HW2 1914   2.461   1.822   1.306  2.0709 -0.8222 -1.7881
  639SOL     OW 1915   1.265   2.242   1.631 -0.4434 -0.3592 -0.1613
  639SOL    HW1 1916   1.253   2.196   1.541 -0.8785 -2.1045  0.2780
  639SOL    HW2 1917   1.216   2.186   1.704 -0.1750 -0.7430  0.1310
  640SOL     OW 1918   0.239   1.139   1.544 -0.5034 -0.3312 -0.2120
  640SOL    HW1 1919   0.221   1.197   1.626 -0.2379 -1.9283  0.5021
  640SOL    HW2 1920   0.339   1.125   1.522 -1.8311 -2.7528  1.0481
  641SOL     OW 1921   1.874   0.313   1.424  0.0965  0.0818 -0.4383
  641SOL    HW1 1922   1.840   0.397   1.473 -1.5609 -2.6949  0.2566
  641SOL    HW2 1923   1.812   0.228   1.441 -0.7264  0.3717 -0.9720
  642SOL     OW 1924   1.987   0.088   0.329  0.0899 -0.2700  0.1480
  642SOL    HW1 1925   2.091   0.077   0.329  1.6549 -0.3113 -0.1654
  642SOL    HW2 1926   1.945   0.114   0.423  0.7062  0.5459  0.1023
  643SOL     OW 1927   2.872   1.886   2.099  0.5121  0.2151 -0.6981
  643SOL    HW1 1928   2.807   1.821   2.049  1.4202 -1.4981  0.1298
  643SOL    HW2 1929   2.889   1.963   2.032  2.9767 -0.9260 -1.4405
  644SOL     OW 1930   2.203   2.271   1.143 -0.1503  0.5431 -0.2145
  644SOL    HW1 1931   2.279   2.203   1.130  0.0715 -1.5683 -1.8325
  644SOL    HW2 1932   2.187   2.289   1.243 -2.6928  3.1478  0.0020
  645SOL     OW 1933   0.639   0.896   1.139 -0.3384  0.4889  0.5607
  645SOL    HW1 1934   0.550   0.845   1.142 -1.4949  2.0451  3.5233
  645SOL    HW2 1935   0.621   0.993   1.105 -2.6702  0.6848 -3.3942
  646SOL     OW 1936   1.450   1.928   1.789 -0.0531  0.0379  0.5602
  646SOL    HW1 1937   1.539   1.978   1.779 -0.7893 -1.5706 -2.7238
  646SOL    HW2 1938   1.402   1.968   1.873 -3.3798 -1.6014  2.2298
  647SOL     OW 1939   0.873   0.860   0.666  0.2938  0.3135 -0.1558
  647SOL    HW1 1940   0.921   0.844   0.756 -0.1904  0.4421 -2.3997
  647SOL    HW2 1941   0.771   0.874   0.686 -1.0197  1.6692 -0.2144
  648SOL     OW 1942   0.061   0.215   0.346  0.3681 -0.0524 -0.3995
  648SOL    HW1 1943   0.045   0.130   0.294  2.7937  0.6494  1.2104
  648SOL    HW2 1944   0.041   0.301   0.284 -1.4622  1.0463 -0.8926
  649SOL     OW 1945   0.002   0.050   0.981 -1.1335 -0.0440 -0.5157
  649SOL    HW1 1946   0.080  -0.014   0.969 -2.6412 -1.8916 -0.7775
  649SOL    HW2 1947   0.008   0.123   1.053 -1.0244  2.4270 -1.1138
  650SOL     OW 1948   2.694   0.701   1.462 -0.7061  0.0228  0.0287
  650SOL    HW1 1949   2.598   0.686   1.496 -2.7733 -1.3599 -1.5123
  650SOL    HW2 1950   2.702   0.779   1.394 -2.0931  1.3095 -0.3301
  651SOL     OW 1951   0.914   1.541   1.468 -0.3802  0.0043  0.2099
  651SOL    HW1 1952   0.961   1.612   1.532 -1.1707 -1.9666  1.4985
  651SOL    HW2 1953   0.814   1.569   1.451 -4.6820 -4.7967 -0.2143
  652SOL     OW 1954   2.206   2.556   2.370 -0.3176  0.3858 -0.4465
  652SOL    HW1 1955   2.141   2.528   2.446 -3.2614 -1.9511  0.9488
  652SOL    HW2 1956   2.171   2.626   2.307 -0.8142 -0.9210  2.4878
  653SOL     OW 1957   2.757   1.127   0.211  0.5610  0.5837  0.2408
  653SOL    HW1 1958   2.833   1.164   0.146 -0.6227 -2.1617 -0.0604
  653SOL    HW2 1959   2.785   1.062   0.280 -1.3970 -0.2947 -0.1360
  654SOL     OW 1960   1.218   2.236   1.239  0.1795  0.1070 -0.3622
  654SOL    HW1 1961   1.210   2.160   1.312 -0.4226  0.4040  1.0476
  654SOL    HW2 1962   1.293   2.204   1.176  0.5803  0.0439  0.8869
  655SOL     OW 1963   0.215   1.038   1.918 -0.5116 -0.0264 -0.1783
  655SOL    HW1 1964   0.255   0.959   1.865  0.6889  0.2025  0.6106
  655SOL    HW2 1965   0.283   1.108   1.927  0.5120  0.4173 -1.8768
  656SOL     OW 1966   2.439   2.478   2.535  0.1374  0.2582 -0.0673
  656SOL    HW1 1967   2.533   2.474   2.497  0.9240 -1.8230  1.0681
  656SOL    HW2 1968   2.373   2.530   2.472 -2.7485  1.7643  0.9761
  657SOL     OW 1969   3.039   1.089   1.829  0.1572 -0.1733 -0.6952
  657SOL    HW1 1970   3.040   1.189   1.803 -0.9562 -1.8938 -0.3420
  657SOL    HW2 1971   3.131   1.062   1.865 -1.4365  0.7626  1.2414
  658SOL     OW 1972   1.736   0.249   2.392  0.0291 -0.7365 -0.2308
  658SOL    HW1 1973   1.729   0.160   2.453  0.9355  1.5995  0.9157
  658SOL    HW2 1974   1.774   0.219   2.303 -0.5498 -2.1396 -1.4565
  659SOL     OW 1975   1.436   0.619   2.808 -0.1848  0.0489  0.1383
  659SOL    HW1 1976   1.532   0.660   2.803  0.4076 -1.0647 -2.0139
  659SOL    HW2 1977   1.366   0.689   2.776  0.7464 -0.0521  2.4514
  660SOL     OW 1978   1.370   0.391   1.414  0.4159 -0.0783 -0.1065
  660SOL    HW1 1979   1.414   0.412   1.500  0.9882 -1.1650 -0.8327
  660SOL    HW2 1980   1.429   0.336   1.347  1.6474 -1.8523 -1.7237
  661SOL     OW 1981   2.424   1.123   0.625  0.2264 -0.3831 -0.3437
  661SOL    HW1 1982   2.484   1.051   0.578  1.1251 -0.8370  0.3465
  661SOL    HW2 1983   2.356   1.172   0.562  0.2456 -0.4097  0.0531
  662SOL     OW 1984   1.318   0.458   1.882  0.5863  0.1496  0.5100
  662SOL    HW1 1985   1.260   0.372   1.880  1.8642  2.3026  0.7489
  662SOL    HW2 1986   1.291   0.510   1.968 -1.3176 -2.7434 -2.8491
  663SOL     OW 1987   0.819   1.569   2.204 -0.1545  0.4232 -0.6676
  663SOL    HW1 1988   0.764   1.647   2.237 -4.5638  0.8911  0.7385
  663SOL    HW2 1989   0.807   1.542   2.104  1.1584 -0.3492  0.3108
  664SOL     OW 1990   1.599   2.088   1.428  0.0463 -0.4416  0.0341
  664SOL    HW1 1991   1.511   2.036   1.436  1.7318 -0.3129  0.7095
  664SOL    HW2 1992   1.675   2.051   1.493  0.6315 -0.3922  1.2949
  665SOL     OW 1993   2.184   0.634   2.002 -0.7177  0.3699  0.1396
  665SOL    HW1 1994   2.206   0.543   2.047  1.6697  1.5510 -0.5542
  665SOL    HW2 1995   2.085   0.656   2.010  0.5658 -0.3239 -0.2951
  666SOL     OW 1996   0.568   2.249   0.429 -0.0835  0.7544 -0.5118
  666SOL    HW1 1997   0.619   2.339   0.424 -1.7245 -0.0938 -0.8445
  666SOL    HW2 1998   0.523   2.227   0.523 -2.0938 -3.3694  0.0474
  667SOL     OW 1999   2.092   0.218   1.030  0.2604  0.0951  0.6841
  667SOL    HW1 2000   2.163   0.286   0.996  2.5366  2.1409  0.1119
  667SOL    HW2 2001   2.031   0.268   1.096  2.0247 -0.1868 -1.4756
  668SOL     OW 2002   2.030   0.573   1.254  0.4650 -0.5866  0.1618
  668SOL    HW1 2003   2.071   0.520   1.172  1.6701 -3.6357 -0.7735
  668SOL    HW2 2004   2.058   0.525   1.340 -0.1896  0.0804 -0.0278
  669SOL     OW 2005   3.051   2.277   0.971  1.5221  0.2312 -0.2726
  669SOL    HW1 2006   2.992   2.292   0.888 -0.2539  0.1668  0.3307
  669SOL    HW2 2007   2.995   2.251   1.056 -2.4869 -1.8073  0.9549
  670SOL     OW 2008   2.812   2.393   2.009  0.4249  0.6394 -0.7211
  670SOL    HW1 2009   2.762   2.369   2.098 -0.4737  0.5243  0.3075
  670SOL    HW2 2010   2.767   2.471   1.955 -0.8506 -1.9582 -1.1611
  671SOL     OW 2011   1.646   1.754   1.455 -0.7203 -0.1073 -0.0719
  671SOL    HW1 2012   1.678   1.760   1.358 -0.3696 -2.6113 -0.7345
  671SOL    HW2 2013   1.550   1.784   1.458  3.6282  0.3966  0.0385
  672SOL     OW 2014   0.423   0.698   2.448  0.0567  0.7098  0.1782
  672SOL    HW1 2015   0.419   0.692   2.345  0.2101 -0.5700 -0.6973
  672SOL    HW2 2016   0.338   0.740   2.486 -1.9986  1.8667  1.8975
  673SOL     OW 2017   0.131   1.222   1.138  0.4296 -0.4148 -0.0300
  673SOL    HW1 2018   0.140   1.259   1.239  1.4954 -1.4439  2.2410
  673SOL    HW2 2019   0.220   1.177   1.102 -0.6241 -0.9333 -1.8420
  674SOL     OW 2020   1.607   2.945   0.116  0.0458  0.1988 -0.2613
  674SOL    HW1 2021   1.606   3.049   0.114 -0.4857 -2.3767 -0.2135
  674SOL    HW2 2022   1.679   2.901   0.053  1.0422  0.9668 -1.9000
  675SOL     OW 2023   1.724   0.873   2.328 -0.5887  0.5644 -0.4350
  675SOL    HW1 2024   1.826   0.853   2.317 -1.1969  0.2729 -0.0742
  675SOL    HW2 2025   1.666   0.791   2.292 -0.7793  0.6931  1.7127
  676SOL     OW 2026   2.527   1.511   1.965 -0.0553  0.0171 -0.3784
  676SOL    HW1 2027   2.502   1.457   1.876 -0.7431 -1.1101 -1.8151
  676SOL    HW2 2028   2.561   1.454   2.043 -0.2876  1.5994  0.0847
  677SOL     OW 2029   1.924   0.532   0.952 -0.3632 -0.0012  0.2374
  677SOL    HW1 2030   1.937   0.635   0.956  3.1250 -3.5135 -2.3780
  677SOL    HW2 2031   1.917   0.483   1.049  1.6429 -1.2438  0.8048
  678SOL     OW 2032   0.086   0.722   1.718  0.0010  0.2170  0.3064
  678SOL    HW1 2033   0.171   0.782   1.728  2.2369 -0.0940 -0.2210
  678SOL    HW2 2034   0.005   0.751   1.776 -0.6689  4.6124  1.3892
  679SOL     OW 2035   2.511   1.119   1.136  0.1899  0.2115 -0.0902
  679SOL    HW1 2036   2.408   1.134   1.142  2.0077  1.2761 -0.4242
  679SOL    HW2 2037   2.537   1.030   1.092 -2.2113 -0.5161 -0.0742
  680SOL     OW 2038   2.827   0.648   1.704 -1.0404 -0.1553 -0.0153
  680SOL    HW1 2039   2.789   0.699   1.623  1.1136  1.9016  2.7751
  680SOL    HW2 2040   2.859   0.711   1.783 -0.5599  0.3612 -0.1542
  681SOL     OW 2041   3.087   0.191   1.670  0.4153 -0.4309  0.1978
  681SOL    HW1 2042   3.148   0.160   1.592  0.2446  1.1958  0.3190
  681SOL    HW2 2043   3.025   0.271   1.647 -1.0271  1.8797  0.8544
  682SOL     OW 2044   0.739   3.066   1.381  0.0811 -0.0080  0.3330
  682SOL    HW1 2045   0.664   3.013   1.438 -1.8078 -0.4878  3.6668
  682SOL    HW2 2046   0.738   3.047   1.275  2.2367  0.1601 -1.1820
  683SOL     OW 2047   1.387   0.230   2.207 -0.2814 -0.1853  0.2741
  683SOL    HW1 2048   1.393   0.303   2.286 -1.2188 -1.9213  3.8893
  683SOL    HW2 2049   1.471   0.232   2.144 -2.0819  2.2751  0.8941
  684SOL     OW 2050   1.460   2.123   0.479  0.3298 -0.0678  0.0408
  684SOL    HW1 2051   1.518   2.060   0.539  2.2261  0.0424 -1.1730
  684SOL    HW2 2052   1.374   2.078   0.439  0.4207  1.6489 -1.0374
  685SOL     OW 2053   2.130   1.945   1.994 -0.2272  0.2451 -0.6532
  685SOL    HW1 2054   2.185   2.004   1.929  0.7578 -0.5330 -0.8974
  685SOL    HW2 2055   2.189   1.877   2.043  0.1847  0.1501 -1.6741
  686SOL     OW 2056   1.502   1.738   2.714 -0.0087 -0.1888  0.7026
  686SOL    HW1 2057   1.499   1.642   2.679  3.4982  1.8111 -0.9094
  686SOL    HW2 2058   1.524   1.749   2.812  1.0126 -0.6495  0.2121
  687SOL     OW 2059   1.358   2.492   1.942  0.2531 -0.1485  0.1484
  687SOL    HW1 2060   1.391   2.410   1.891  1.1580  3.2546  0.1956
  687SOL    HW2 2061   1.403   2.517   2.034 -1.0461 -1.8904  1.9538
  688SOL     OW 2062   2.049   1.502   1.540 -0.7827  0.0062  0.2071
  688SOL    HW1 2063   2.138   1.551   1.517 -0.7857  0.6193 -1.7740
  688SOL    HW2 2064   1.994   1.495   1.450 -2.7053  2.0511  0.4036
  689SOL     OW 2065   2.455   1.077   2.782  0.0661 -0.4607  0.7130
  689SOL    HW1 2066   2.373   1.031   2.820  2.5650  0.0787 -0.9405
  689SOL    HW2 2067   2.533   1.040   2.832  0.2078  0.8064  0.1714
  690SOL     OW 2068   2.229   2.784   3.053  0.0595 -0.5890  0.1180
  690SOL    HW1 2069   2.144   2.725   3.021  0.8137 -1.4863  0.7580
  690SOL    HW2 2070   2.220   2.849   3.131  3.6283  0.1553 -1.3769
  691SOL     OW 2071   2.610   0.487   2.178 -0.1280  0.1589  0.2397
  691SOL    HW1 2072   2.679   0.437   2.116  0.1528  0.1021 -1.1008
  691SOL    HW2 2073   2.596   0.587   2.147  1.0349  1.9846  1.6101
  692SOL     OW 2074   2.712   1.154   0.697 -0.3848 -0.2099 -0.2190
  692SOL    HW1 2075   2.621   1.158   0.651  3.2301 -2.7025  1.1602
  692SOL    HW2 2076   2.710   1.188   0.794  1.1533 -2.8830  1.9698
  693SOL     OW 2077   2.828   2.925   0.614 -0.0860  0.1624 -0.4192
  693SOL    HW1 2078   2.836   2.986   0.700 -2.0871  2.0633  0.3945
  693SOL    HW2 2079   2.764   2.966   0.546  1.3478 -0.4879  0.9420
  694SOL     OW 2080   2.414   2.205   0.077 -0.1391 -0.3844  0.1784
  694SOL    HW1 2081   2.373   2.285   0.138 -2.4952  2.2643  0.7587
  694SOL    HW2 2082   2.337   2.144   0.047 -0.7891  4.3952 -0.0009
  695SOL     OW 2083   0.545   2.944   1.537  0.3698  0.5324  0.4252
  695SOL    HW1 2084   0.494   2.851   1.539 -0.1661  0.2972  1.0554
  695SOL    HW2 2085   0.498   3.017   1.588  2.2992 -0.8724  1.2570
  696SOL     OW 2086   2.725   2.012   0.698  0.6453 -0.5575 -0.0991
  696SOL    HW1 2087   2.796   1.936   0.718  0.8328 -0.8839  1.4298
  696SOL    HW2 2088   2.684   2.005   0.604 -0.8064  3.2526  1.4962
  697SOL     OW 2089   1.696   2.082   1.774  0.5138  0.5386  0.4888
  697SOL    HW1 2090   1.747   2.002   1.815  0.4987 -0.2221  2.0181
  697SOL    HW2 2091   1.738   2.172   1.804  0.7576 -1.3973  2.2836
  698SOL     OW 2092   2.905   0.364   2.822  0.1189 -0.1075 -0.2809
  698SOL    HW1 2093   2.891   0.362   2.722 -1.0802 -0.6844  1.9852
  698SOL    HW2 2094   2.994   0.328   2.866  1.4234  1.3374  0.4014
  699SOL     OW 2095   1.519   0.110   2.942 -0.7398 -0.5656 -0.0180
  699SOL    HW1 2096   1.475   0.025   2.908  1.1186  0.2219 -1.4557
  699SOL    HW2 2097   1.596   0.141   2.878 -0.9189 -2.7836 -0.1112
  700SOL     OW 2098   0.968   2.461   1.375 -0.2785  0.0273 -0.0279
  700SOL    HW1 2099   1.062   2.487   1.348 -2.9180 -0.2359 -2.2314
  700SOL    HW2 2100   0.905   2.449   1.293  0.6956 -2.3639 -2.2506
  701SOL     OW 2101   1.832   2.873   3.067 -0.0697  0.0162 -0.0690
  701SOL    HW1 2102   1.870   2.796   3.123 -0.0075  1.2559 -0.0174
  701SOL    HW2 2103   1.880   2.966   3.084  2.2115  0.6357 -4.0719
  702SOL     OW 2104   2.117   1.368   1.816  0.2047 -0.0218 -0.0957
  702SOL    HW1 2105   2.191   1.298   1.817 -3.4544  2.0928  0.5237
  702SOL    HW2 2106   2.082   1.401   1.721 -1.7999  1.2096 -0.6780
  703SOL     OW 2107   2.008   0.885   1.464 -0.0819 -0.4968 -0.2422
  703SOL    HW1 2108   1.966   0.817   1.530  0.3375  3.0585  0.0617
  703SOL    HW2 2109   2.021   0.983   1.502 -0.9738  0.5053 -0.7933
  704SOL     OW 2110   0.340   2.030   1.736  0.4520  0.1734 -0.1824
  704SOL    HW1 2111   0.378   1.970   1.810  1.1178 -2.2488 -0.6086
  704SOL    HW2 2112   0.393   2.124   1.731  0.3490  3.0756 -0.4861
  705SOL     OW 2113   2.513   1.462   0.873 -0.5919  0.1068  0.3238
  705SOL    HW1 2114   2.448   1.393   0.916  0.6497 -0.3390  1.4571
  705SOL    HW2 2115   2.614   1.429   0.872  0.9055 -3.9305  0.8819
  706SOL     OW 2116   0.651   1.742   1.871  0.0226 -0.4588 -0.0875
  706SOL    HW1 2117   0.664   1.642   1.904 -1.5552 -2.5951 -0.8879
  706SOL    HW2 2118   0.732   1.800   1.892 -0.8173 -1.0138  0.6727
  707SOL     OW 2119   2.346   1.194   1.750 -0.8712 -0.3096  0.5846
  707SOL    HW1 2120   2.428   1.190   1.812 -0.6038 -1.3485 -0.5531
  707SOL    HW2 2121   2.312   1.103   1.722  0.5325 -0.4807 -2.6970
  708SOL     OW 2122   3.011   0.531   3.049  0.2936  0.2734 -0.4271
  708SOL    HW1 2123   3.033   0.594   2.966 -1.7054  2.9038 -1.3432
  708SOL    HW2 2124   3.040   0.429   3.026  0.1691  0.3226  2.8020
  709SOL     OW 2125   1.749   1.873   0.196 -0.0052  0.5045  0.0336
  709SOL    HW1 2126   1.792   1.957   0.234 -1.7147  3.8619 -1.9773
  709SOL    HW2 2127   1.753   1.875   0.089 -0.2180 -3.6979 -0.9865
  710SOL     OW 2128   1.742   1.644   2.486  0.0213 -0.5172  0.0086
  710SOL    HW1 2129   1.795   1.626   2.399 -0.0158  0.4067  3.4619
  710SOL    HW2 2130   1.803   1.605   2.562 -1.4963 -3.8274 -1.8361
  711SOL     OW 2131   2.643   2.867   0.944  0.7249  0.3298 -0.1952
  711SOL    HW1 2132   2.654   2.967   0.959  2.2876 -1.2463 -0.8610
  711SOL    HW2 2133   2.729   2.816   0.970  0.2301  1.5128 -2.1266
  712SOL     OW 2134   1.487   2.282   1.820 -0.2127  0.2148  1.0685
  712SOL    HW1 2135   1.546   2.199   1.803  0.2893  0.1260 -0.4070
  712SOL    HW2 2136   1.421   2.293   1.743 -0.8372 -2.4157  3.3997
  713SOL     OW 2137   2.873   1.274   2.477  0.4086 -0.3360 -0.7367
  713SOL    HW1 2138   2.875   1.179   2.449 -1.3889  1.7005 -1.6592
  713SOL    HW2 2139   2.813   1.289   2.560  0.7208  0.1751 -1.8777
  714SOL     OW 2140   2.658   0.440   2.435  0.5514  0.1579  0.3162
  714SOL    HW1 2141   2.578   0.390   2.479  0.6244  0.0378 -0.3154
  714SOL    HW2 2142   2.639   0.472   2.336 -0.1546  1.5256  0.0004
  715SOL     OW 2143   1.613   2.104   1.145 -0.2794 -0.5434  0.8460
  715SOL    HW1 2144   1.544   2.160   1.092 -0.7330 -1.9298 -2.8187
  715SOL    HW2 2145   1.608   2.111   1.246  1.8028  0.3813 -0.1515
  716SOL     OW 2146   1.164   0.154   1.456  0.2310  0.3373  0.2651
  716SOL    HW1 2147   1.065   0.191   1.444  1.9412  0.6222 -2.7077
  716SOL    HW2 2148   1.239   0.227   1.432  0.7680  0.1185 -1.5485
  717SOL     OW 2149   1.094   0.533   1.598  0.1671  0.3172 -0.1368
  717SOL    HW1 2150   1.197   0.548   1.612  1.6040 -1.8652  0.4601
  717SOL    HW2 2151   1.069   0.525   1.499 -0.8656 -0.5307  1.0539
  718SOL     OW 2152   0.607   1.169   1.020 -0.0131  0.4287 -0.0962
  718SOL    HW1 2153   0.624   1.198   0.921 -0.5640  2.4709  0.1705
  718SOL    HW2 2154   0.658   1.226   1.093 -0.9713  0.7905  1.9364
  719SOL     OW 2155   0.703   1.819   2.237  0.4105 -0.5536  0.1986
  719SOL    HW1 2156   0.753   1.869   2.309  0.6408 -0.6272  0.5422
  719SOL    HW2 2157   0.600   1.844   2.245  0.2756 -2.0962  1.4098
  720SOL     OW 2158   2.305   1.149   0.262 -0.3399  0.5950  0.4182
  720SOL    HW1 2159   2.372   1.066   0.263  0.5198 -1.6348 -0.9884
  720SOL    HW2 2160   2.284   1.198   0.355  0.6008  4.0130  1.1995
  721SOL     OW 2161   2.311   3.075   2.052 -0.0611 -0.2343  0.0724
  721SOL    HW1 2162   2.318   3.170   2.010 -0.7892 -0.5902  2.2926
  721SOL    HW2 2163   2.208   3.053   2.070 -0.2529  1.8156  1.3442
  722SOL     OW 2164   2.446   1.711   0.508 -0.0949  0.1949  0.0747
  722SOL    HW1 2165   2.436   1.641   0.437 -1.5788  2.1269  1.6781
  722SOL    HW2 2166   2.356   1.735   0.554 -0.3277  2.1710 -1.8624
  723SOL     OW 2167   2.602   2.861   1.883 -0.2652 -0.3728 -0.3304
  723SOL    HW1 2168   2.638   2.918   1.964 -2.9373 -1.1510 -0.4440
  723SOL    HW2 2169   2.518   2.808   1.908  1.6704 -2.7893  1.4575
  724SOL     OW 2170   0.313   2.375   2.357 -0.2784  0.4577 -0.2359
  724SOL    HW1 2171   0.222   2.432   2.347 -1.3772 -0.8533 -1.0668
  724SOL    HW2 2172   0.362   2.403   2.445 -1.2416  2.2188 -3.8160
  725SOL     OW 2173   2.353   2.793   1.484  0.4422 -0.2703  0.4182
  725SOL    HW1 2174   2.422   2.791   1.410 -1.9707 -1.7158  0.3980
  725SOL    HW2 2175   2.304   2.710   1.480 -0.5556  2.7701 -2.2787
  726SOL     OW 2176   2.380   2.271   0.714  0.2769  0.7418 -0.7387
  726SOL    HW1 2177   2.382   2.378   0.704  0.2938  0.6284 -0.5618
  726SOL    HW2 2178   2.332   2.222   0.634 -0.5149  0.6454 -3.3018
  727SOL     OW 2179   0.236   0.003   0.116  0.0056 -0.4988 -0.1735
  727SOL    HW1 2180   0.321  -0.055   0.129 -0.1239 -0.8583 -0.2559
  727SOL    HW2 2181   0.262   0.095   0.071 -0.8305  1.2166  1.4341
  728SOL     OW 2182   2.801   0.663   1.053  0.1137  0.2461 -0.5325
  728SOL    HW1 2183   2.755   0.627   0.963 -1.0353  0.9039 -0.5458
  728SOL    HW2 2184   2.780   0.614   1.143  0.5400  1.0775  0.2438
  729SOL     OW 2185   2.986   2.456   0.727  0.0520  0.2956  0.4510
  729SOL    HW1 2186   2.923   2.372   0.719 -0.6712 -0.6370 -1.9677
  729SOL    HW2 2187   3.082   2.427   0.727 -3.8650 -0.0959  0.0571
  730SOL     OW 2188   2.628   0.589   0.847 -0.3431 -0.1423  0.6660
  730SOL    HW1 2189   2.578   0.676   0.813  0.9809 -1.5723 -0.4979
  730SOL    HW2 2190   2.677   0.547   0.768  0.3910  2.9794  0.9729
  731SOL     OW 2191   0.202   2.174   2.486  0.0708 -0.4387  0.1837
  731SOL    HW1 2192   0.229   2.178   2.591  0.0899 -1.4055 -0.2150
  731SOL    HW2 2193   0.255   2.233   2.423 -0.6506 -2.9983 -0.3701
  732SOL     OW 2194   1.117   2.844   2.029  0.4213 -0.8658 -0.6003
  732SOL    HW1 2195   1.160   2.781   2.103  1.8885 -1.8633 -0.4292
  732SOL    HW2 2196   1.132   2.810   1.931 -4.0172 -0.8131 -2.1144
  733SOL     OW 2197   3.024   0.709   2.115  0.2638  0.4558  0.1539
  733SOL    HW1 2198   3.119   0.752   2.127  0.5953  0.4845  1.5931
  733SOL    HW2 2199   3.022   0.627   2.053 -1.8897  0.4261 -1.5200
  734SOL     OW 2200   1.381   0.356   2.694 -0.2198 -0.5610  0.0814
  734SOL    HW1 2201   1.394   0.455   2.720  0.5451  1.2235 -0.9598
  734SOL    HW2 2202   1.298   0.306   2.725  1.2590  3.4378 -1.1145
  735SOL     OW 2203   2.811   2.673   2.306 -0.0178  0.3372  0.3238
  735SOL    HW1 2204   2.726   2.644   2.260  3.1987 -1.2893 -0.0676
  735SOL    HW2 2205   2.886   2.677   2.236  0.7055 -0.6704  0.3456
  736SOL     OW 2206   0.799   0.353   2.567 -0.1815 -0.1349  0.5079
  736SOL    HW1 2207   0.735   0.430   2.537 -3.0165 -0.0089 -2.7708
  736SOL    HW2 2208   0.851   0.320   2.482 -1.1078 -0.6306 -0.0934
  737SOL     OW 2209   2.650   0.408   2.907 -0.2494  0.2254 -0.5005
  737SOL    HW1 2210   2.610   0.424   3.002 -2.1301 -2.8293  1.4807
  737SOL    HW2 2211   2.751   0.388   2.908  1.2195 -0.7122 -1.1150
  738SOL     OW 2212   1.663   1.110   0.039  0.2321 -0.6515 -0.2024
  738SOL    HW1 2213   1.758   1.093   0.004 -1.8887  1.4389 -1.8138
  738SOL    HW2 2214   1.602   1.031   0.045  1.7360  1.0882  1.3821
  739SOL     OW 2215   1.823   0.558   0.695  0.2026  0.0778 -0.2891
  739SOL    HW1 2216   1.875   0.559   0.787 -1.8495  3.0112  1.2028
  739SOL    HW2 2217   1.871   0.505   0.619 -1.6022  0.6701  1.0371
  740SOL     OW 2218   1.920   2.065   2.163  0.3681 -0.2353  0.1678
  740SOL    HW1 2219   2.001   2.016   2.113  0.8207  2.1843 -0.0193
  740SOL    HW2 2220   1.830   2.049   2.114  0.5068  0.2497 -1.0964
  741SOL     OW 2221   2.561   0.020   2.562 -0.0678 -0.0602 -0.7113
  741SOL    HW1 2222   2.664   0.040   2.559  1.1077 -0.0427  1.0844
  741SOL    HW2 2223   2.521   0.004   2.469  1.7882 -2.0606  1.9577
  742SOL     OW 2224   2.259   1.406   0.100 -0.0602 -0.4332  0.9650
  742SOL    HW1 2225   2.174   1.465   0.123 -2.3316  2.4348 -2.4001
  742SOL    HW2 2226   2.244   1.311   0.138 -0.0227 -1.2303 -0.2514
  743SOL     OW 2227   1.733   0.648   2.657 -0.6060  0.0749 -0.3552
  743SOL    HW1 2228   1.740   0.590   2.575 -0.7596 -1.6423 -0.7816
  743SOL    HW2 2229   1.661   0.720   2.642  1.9540 -0.4501  0.9193
  744SOL     OW 2230   2.680   2.141   0.156 -0.1430  0.0943  0.7312
  744SOL    HW1 2231   2.586   2.152   0.130  2.2396 -1.3456  1.2164
  744SOL    HW2 2232   2.721   2.049   0.149  1.4292  0.9802  1.5639
  745SOL     OW 2233   2.194   2.754   2.196 -0.1861 -0.1651 -0.0155
  745SOL    HW1 2234   2.103   2.734   2.158  4.0644 -0.7783  0.5436
  745SOL    HW2 2235   2.187   2.799   2.290 -3.0223  2.2641  1.3743
  746SOL     OW 2236   3.095   2.632   1.805  0.6642  0.1130  0.1908
  746SOL    HW1 2237   3.186   2.620   1.754  0.8695  0.1589 -3.3948
  746SOL    HW2 2238   3.069   2.733   1.819 -0.3903  3.7700 -0.9753
  747SOL     OW 2239   3.079   1.770   1.676 -0.2370  0.1337 -0.6447
  747SOL    HW1 2240   3.039   1.677   1.651 -0.3812 -1.1445  1.7412
  747SOL    HW2 2241   3.157   1.806   1.614 -0.6939  0.7293 -0.6714
  748SOL     OW 2242   1.778   2.745   2.827  0.6284  0.3835 -0.3917
  748SOL    HW1 2243   1.813   2.793   2.914 -0.9176  2.6939  1.2139
  748SOL    HW2 2244   1.677   2.743   2.819  0.1078 -1.7058  0.1833
  749SOL     OW 2245   1.341   0.064   0.838 -0.0632  0.2051 -0.8604
  749SOL    HW1 2246   1.305  -0.032   0.844  0.1992 -0.7900 -0.1417
  749SOL    HW2 2247   1.338   0.102   0.744 -0.7838 -3.2743  0.3423
  750SOL     OW 2248   2.309   0.234   1.916  0.6378 -0.1358  0.0330
  750SOL    HW1 2249   2.369   0.274   1.837  1.8979  0.2496  3.1422
  750SOL    HW2 2250   2.312   0.294   1.999 -1.5501  1.2844 -0.2758
  751SOL     OW 2251   0.854   2.230   2.920  0.5049 -0.0413 -0.1417
  751SOL    HW1 2252   0.950   2.198   2.957  1.8347 -1.3647 -0.3001
  751SOL    HW2 2253   0.784   2.152   2.924  1.2447 -0.1996 -2.5369
  752SOL     OW 2254   1.258   0.841   1.473  0.1244  0.0787 -0.0010
  752SOL    HW1 2255   1.336   0.909   1.459  3.2227 -2.4530 -1.7669
  752SOL    HW2 2256   1.300   0.750   1.498 -1.7746 -1.6966 -0.7678
  753SOL     OW 2257   0.907   2.568   1.761  0.0834 -0.1504  0.2402
  753SOL    HW1 2258   0.963   2.602   1.680 -0.3378  0.1886  0.0176
  753SOL    HW2 2259   0.845   2.644   1.798  0.8374  0.0369  3.5240
  754SOL     OW 2260   1.134   1.342   3.047  0.0969 -0.5289  0.1899
  754SOL    HW1 2261   1.172   1.272   2.982  0.1900  1.1749  1.3138
  754SOL    HW2 2262   1.147   1.444   3.013  0.2809  0.9111 -0.0514
  755SOL     OW 2263   2.042   0.544   2.313 -0.1842  0.0292  0.5441
  755SOL    HW1 2264   2.100   0.462   2.335  0.5564  0.7670  0.3768
  755SOL    HW2 2265   1.947   0.540   2.355  2.0104  0.5846  0.8763
  756SOL     OW 2266   2.633   0.949   2.923  0.0460 -0.5126 -0.0994
  756SOL    HW1 2267   2.671   0.885   2.850 -0.0573 -1.1258 -2.2157
  756SOL    HW2 2268   2.604   0.897   3.011 -0.4961 -0.9523  1.5258
  757SOL     OW 2269   0.135   0.459   1.753 -0.2131  0.2657  0.5573
  757SOL    HW1 2270   0.130   0.559   1.744  0.4637 -3.6416  1.2848
  757SOL    HW2 2271   0.211   0.421   1.691  1.1272  0.6800 -1.4641
  758SOL     OW 2272   2.479   0.053   1.501  0.1984 -0.4185 -0.2995
  758SOL    HW1 2273   2.425  -0.003   1.569  1.6274 -1.1068  0.8910
  758SOL    HW2 2274   2.478   0.015   1.405 -1.3496  0.1216  1.6895
  759SOL     OW 2275   1.685   0.146   0.082  0.1710 -0.1716  0.5416
  759SOL    HW1 2276   1.621   0.159   0.002  0.6007 -0.4243  1.0966
  759SOL    HW2 2277   1.770   0.090   0.064 -1.1786  1.7646 -0.9259
  760SOL     OW 2278   2.744   1.975   2.763 -0.1701  0.2744 -0.2426
  760SOL    HW1 2279   2.769   1.876   2.729  1.7331  0.2133  0.6551
  760SOL    HW2 2280   2.789   2.057   2.716  0.3785  1.7495  0.1509
  761SOL     OW 2281   1.836   1.691   1.661 -0.3752 -0.3914  0.3140
  761SOL    HW1 2282   1.914   1.624   1.632  2.4812  0.1448 -2.1862
  761SOL    HW2 2283   1.760   1.696   1.587  2.3035 -0.8442 -0.1677
  762SOL     OW 2284   0.498   2.401   1.021 -0.1513 -0.0354 -0.1938
  762SOL    HW1 2285   0.523   2.424   0.926 -1.4513 -1.0391  2.3194
  762SOL    HW2 2286   0.483   2.483   1.086  0.8086  2.5507  0.1637
  763SOL     OW 2287   1.996   1.556   2.964  0.0441 -0.1558  0.2176
  763SOL    HW1 2288   2.060   1.505   2.898  0.2880  0.7211  0.1402
  763SOL    HW2 2289   1.927   1.493   3.017  2.1767  1.6743  2.5356
  764SOL     OW 2290   0.696   0.600   0.819  0.0609 -0.2976  0.1800
  764SOL    HW1 2291   0.719   0.569   0.725 -0.6774 -0.7331 -0.2000
  764SOL    HW2 2292   0.773   0.596   0.887 -2.1932  3.9454  2.4400
  765SOL     OW 2293   0.615   0.197   0.781  0.1859 -0.7688  0.4751
  765SOL    HW1 2294   0.709   0.223   0.738  0.2261  2.8982 -1.2276
  765SOL    HW2 2295   0.628   0.176   0.879  0.4366 -0.1666 -1.9385
  766SOL     OW 2296   2.921   2.005   2.959 -0.8777  0.7708  0.7201
  766SOL    HW1 2297   2.840   1.993   2.894 -0.8753 -2.6120  1.3922
  766SOL    HW2 2298   2.962   2.101   2.956 -1.8719 -0.0001 -1.1324
  767SOL     OW 2299   2.754   1.546   0.505  0.8609 -0.3483  0.2852
  767SOL    HW1 2300   2.695   1.577   0.590 -0.4178 -0.5436 -0.1445
  767SOL    HW2 2301   2.779   1.625   0.443  0.2783 -1.1122 -1.3994
  768SOL     OW 2302   1.040   0.305   0.280  0.6176  0.4475  0.3089
  768SOL    HW1 2303   0.940   0.266   0.267 -2.6690  1.0439  0.2782
  768SOL    HW2 2304   1.109   0.230   0.274  0.4959 -1.6512  0.1765
  769SOL     OW 2305   1.349   1.783   2.177 -0.5409 -0.2037 -0.3816
  769SOL    HW1 2306   1.414   1.740   2.242 -1.8865 -0.4810  2.2050
  769SOL    HW2 2307   1.249   1.745   2.185 -1.4341  0.5902 -1.9992
  770SOL     OW 2308   0.190   1.177   2.270  0.2629  0.4859  0.1237
  770SOL    HW1 2309   0.161   1.211   2.364 -0.2311  0.3908  0.5783
  770SOL    HW2 2310   0.116   1.177   2.202  0.0846 -0.7381  0.7599
  771SOL     OW 2311   2.962   2.867   1.871 -0.0797  0.0557  0.5601
  771SOL    HW1 2312   2.944   2.940   1.795  0.3460  0.5846 -0.1206
  771SOL    HW2 2313   2.944   2.900   1.966 -2.1237  0.1131 -3.7338
  772SOL     OW 2314   2.158   0.033   3.021 -0.0663 -0.2572 -0.2327
  772SOL    HW1 2315   2.248  -0.023   3.001  0.7614 -0.4721  2.7100
  772SOL    HW2 2316   2.179   0.136   3.013  0.2096 -3.8927 -2.6888
  773SOL     OW 2317   0.684   2.157   2.446  0.1684  0.1601  0.3812
  773SOL    HW1 2318   0.644   2.226   2.374 -1.6335  0.8590 -0.9244
  773SOL    HW2 2319   0.614   2.151   2.528  0.1584 -0.0574  0.4476
  774SOL     OW 2320   1.996   0.017   2.648  0.3265  0.4836 -0.4449
  774SOL    HW1 2321   2.040   0.102   2.682  3.8061  0.1108 -0.4029
  774SOL    HW2 2322   2.043  -0.067   2.699  0.0724 -0.8537  1.1040
  775SOL     OW 2323   2.476   2.892   2.327 -0.1949  0.2147  0.2057
  775SOL    HW1 2324   2.439   2.985   2.311 -0.0363  0.9345  1.7252
  775SOL    HW2 2325   2.548   2.879   2.398  0.1286 -2.8396 -0.5823
  776SOL     OW 2326   0.022   1.215   0.280 -0.2593  0.6592  0.6119
  776SOL    HW1 2327  -0.043   1.250   0.208 -1.8462  0.4215 -0.1800
  776SOL    HW2 2328  -0.017   1.220   0.378 -1.3041 -0.7034  0.7959
  777SOL     OW 2329   0.344   2.744   0.357  0.3741  0.6981 -0.4658
  777SOL    HW1 2330   0.245   2.714   0.370 -0.6476 -1.7738 -1.5223
  777SOL    HW2 2331   0.366   2.833   0.403  1.9392  3.0966  0.6511
  778SOL     OW 2332   1.285   1.996   0.135 -0.2612 -0.1274 -0.4308
  778SOL    HW1 2333   1.240   1.994   0.229  3.8739 -0.2888 -1.2475
  778SOL    HW2 2334   1.337   2.085   0.121  0.8695 -0.7095  0.6998
  779SOL     OW 2335   0.188   0.793   0.511 -0.4332 -0.1592  0.4675
  779SOL    HW1 2336   0.142   0.702   0.496  3.6099 -0.4549  0.7622
  779SOL    HW2 2337   0.156   0.837   0.599 -2.5871 -1.7932  0.7071
  780SOL     OW 2338   0.057   0.316   2.394 -0.5588 -0.5315  0.2106
  780SOL    HW1 2339   0.029   0.420   2.390  2.4940  1.4178 -1.5023
  780SOL    HW2 2340   0.158   0.304   2.363  3.4951 -1.4238  1.6043
  781SOL     OW 2341   0.518   1.789   1.618 -0.0807 -0.1787  0.5226
  781SOL    HW1 2342   0.565   1.758   1.707  1.7027  2.1547  0.1467
  781SOL    HW2 2343   0.454   1.714   1.582 -2.3866 -2.0568  0.4949
  782SOL     OW 2344   2.625   0.085   0.923  0.1565 -0.4191  0.0795
  782SOL    HW1 2345   2.544   0.096   0.866  2.1212  0.1791  4.3446
  782SOL    HW2 2346   2.619   0.148   1.006  0.3907 -2.6979 -0.4709
  783SOL     OW 2347   2.833   0.619   2.544 -0.2561 -0.4495 -0.7864
  783SOL    HW1 2348   2.810   0.665   2.634 -0.3439  0.5209  1.6499
  783SOL    HW2 2349   2.758   0.556   2.506 -0.1873  1.1656  0.4435
  784SOL     OW 2350   1.437   2.219   0.073  0.2249  0.0351  0.3888
  784SOL    HW1 2351   1.537   2.252   0.094  0.4582 -0.3289  0.1834
  784SOL    HW2 2352   1.411   2.241  -0.023  1.6577 -0.9581 -2.8156
  785SOL     OW 2353   2.182   0.329   3.065 -0.2124 -0.1484 -0.1627
  785SOL    HW1 2354   2.104   0.308   3.131  0.7981  1.7159  0.7305
  785SOL    HW2 2355   2.211   0.428   3.064 -0.3979 -2.6648 -0.7976
  786SOL     OW 2356   2.124   2.251   2.244 -0.0844  0.4533  0.4676
  786SOL    HW1 2357   2.053   2.175   2.222  0.0364  3.5038 -2.4635
  786SOL    HW2 2358   2.205   2.214   2.296  1.1207  1.0194 -1.0493
  787SOL     OW 2359   1.349   0.562   0.770 -0.1093 -1.0636  0.3224
  787SOL    HW1 2360   1.301   0.647   0.749 -0.6308 -1.0280 -1.3688
  787SOL    HW2 2361   1.409   0.546   0.684  1.7454 -0.9247 -1.5532
  788SOL     OW 2362   1.205   0.469   2.964 -0.8224  0.1972 -0.2149
  788SOL    HW1 2363   1.108   0.485   2.924 -1.9503  1.4451 -0.8607
  788SOL    HW2 2364   1.277   0.498   2.896 -0.4528  1.8333 -0.6230
  789SOL     OW 2365   2.619   0.133   1.944 -0.2009  0.6312  0.3591
  789SOL    HW1 2366   2.516   0.134   1.918  0.3565  0.1477  1.3263
  789SOL    HW2 2367   2.644   0.045   1.991  0.9888 -2.7998 -2.3628
  790SOL     OW 2368   2.634   2.628   0.846 -0.7186  0.0872  0.5241
  790SOL    HW1 2369   2.713   2.606   0.777 -1.4744 -1.2527  0.1847
  790SOL    HW2 2370   2.633   2.723   0.880 -3.1367 -1.3659 -1.8830
  791SOL     OW 2371   1.909   1.198   0.206 -0.3871  0.1363 -0.2376
  791SOL    HW1 2372   1.817   1.150   0.218 -0.4913 -1.6403 -0.5231
  791SOL    HW2 2373   1.986   1.135   0.180 -1.4686  2.5716 -0.5014
  792SOL     OW 2374   0.455   1.960   2.276 -0.4855  0.2273  0.2639
  792SOL    HW1 2375   0.507   2.048   2.287 -0.9474 -1.6253  1.6808
  792SOL    HW2 2376   0.381   1.949   2.346 -2.4857 -1.8178  0.1069
  793SOL     OW 2377   2.067   1.570   2.013 -0.0152 -0.0821 -0.3710
  793SOL    HW1 2378   2.156   1.610   2.046  1.3976 -0.1065 -1.4472
  793SOL    HW2 2379   2.074   1.499   1.945  0.6312 -0.7571  2.2925
  794SOL     OW 2380   0.559   1.542   2.489  0.2556 -0.5007  0.0537
  794SOL    HW1 2381   0.610   1.465   2.439 -2.7767  0.4107 -4.1017
  794SOL    HW2 2382   0.467   1.558   2.443  1.6580  1.2627  0.2407
  795SOL     OW 2383   2.375   2.332   1.853  0.1310 -0.3382 -0.1676
  795SOL    HW1 2384   2.362   2.351   1.951  1.3373 -0.0901  0.7465
  795SOL    HW2 2385   2.315   2.249   1.830  0.8518 -0.0416  0.9917
  796SOL     OW 2386   3.014   1.139   2.726 -0.1659 -0.1061  0.1211
  796SOL    HW1 2387   2.926   1.186   2.758 -0.1144 -1.7460  1.8180
  796SOL    HW2 2388   3.083   1.136   2.803  0.4616 -1.6078  1.1051
  797SOL     OW 2389   0.716   0.646   1.305  0.5743 -0.1052 -0.6990
  797SOL    HW1 2390   0.804   0.667   1.352  3.3080  3.5033 -0.7546
  797SOL    HW2 2391   0.662   0.724   1.270  1.0223 -0.4856  0.9858
  798SOL     OW 2392   1.195   0.497   0.970 -0.3449 -0.6557 -0.2961
  798SOL    HW1 2393   1.205   0.578   1.035  0.7397  0.5825  0.7441
  798SOL    HW2 2394   1.247   0.498   0.882  0.0393 -2.0853  0.9324
  799SOL     OW 2395   1.807   2.703   1.102  0.5962  0.0492  0.6568
  799SOL    HW1 2396   1.846   2.618   1.137  1.5184  0.4845 -0.9952
  799SOL    HW2 2397   1.816   2.719   1.004  0.8838  0.3301  0.7124
  800SOL     OW 2398   2.949   0.821   1.877  0.1075  0.0013  0.2299
  800SOL    HW1 2399   2.963   0.922   1.844 -0.8179  2.6134 -1.5303
  800SOL    HW2 2400   2.950   0.803   1.981 -0.1773  0.8155  2.4939
  801SOL     OW 2401   1.989   2.295   0.067  0.0255  0.5800 -0.6035
  801SOL    HW1 2402   1.977   2.356  -0.017 -0.7522 -0.7988 -0.9860
  801SOL    HW2 2403   2.067   2.232   0.055 -0.1728  0.9420  0.8375
  802SOL     OW 2404   0.681   0.627   2.488  0.0184  0.6348 -0.6067
  802SOL    HW1 2405   0.734   0.661   2.406  1.8517 -0.9919  0.1008
  802SOL    HW2 2406   0.581   0.658   2.480  0.7194  1.4459  1.5376
  803SOL     OW 2407   0.951   0.097   0.914  0.0432  0.3149 -0.2882
  803SOL    HW1 2408   1.022   0.148   0.966 -0.3708 -3.3617  1.1600
  803SOL    HW2 2409   0.904   0.143   0.837 -0.2794 -1.3888 -0.8623
  804SOL     OW 2410   0.333   0.025   2.157 -0.2786 -0.3507 -0.6271
  804SOL    HW1 2411   0.310   0.120   2.192  2.1558  2.3925 -1.6926
  804SOL    HW2 2412   0.263  -0.018   2.091 -1.9108 -1.0049 -0.7737
  805SOL     OW 2413   2.403   0.294   0.328  0.0233 -0.7733 -0.0142
  805SOL    HW1 2414   2.484   0.306   0.395  0.0437  3.3749  3.4503
  805SOL    HW2 2415   2.444   0.267   0.233  1.0732 -0.6444 -1.3864
  806SOL     OW 2416   0.685   2.644   1.987  0.4617 -0.4271 -0.0619
  806SOL    HW1 2417   0.634   2.677   2.071  1.0658  0.7266 -2.0291
  806SOL    HW2 2418   0.685   2.714   1.910  2.8371  1.4518 -1.7227
  807SOL     OW 2419   2.589   0.931   0.512 -0.3512  0.2956  0.3314
  807SOL    HW1 2420   2.664   0.870   0.537 -0.7345  0.0129  0.2444
  807SOL    HW2 2421   2.578   0.951   0.410  0.8406  0.7613 -0.1885
  808SOL     OW 2422   0.665   2.046   2.903 -0.7437 -0.0470  0.2717
  808SOL    HW1 2423   0.586   2.083   2.957 -1.8950  0.3379 -2.9638
  808SOL    HW2 2424   0.678   1.943   2.907  1.9682  0.7359 -1.1666
  809SOL     OW 2425   2.580   2.029   1.918  0.6070 -0.3600  0.1341
  809SOL    HW1 2426   2.672   2.078   1.924  1.4938  1.5487 -4.6733
  809SOL    HW2 2427   2.532   2.032   1.825 -1.3592 -0.7267 -0.8423
  810SOL     OW 2428   2.183   1.250   0.512  0.1612  0.1750  0.3251
  810SOL    HW1 2429   2.144   1.195   0.593 -1.6087  0.7652 -0.4728
  810SOL    HW2 2430   2.196   1.354   0.530  0.0074  0.8835  2.3722
  811SOL     OW 2431   1.223   2.497   1.187 -0.3612  0.5228  0.2748
  811SOL    HW1 2432   1.218   2.387   1.189  1.0330 -1.4379 -1.6832
  811SOL    HW2 2433   1.269   2.538   1.273 -2.1659 -1.7199  1.4234
  812SOL     OW 2434   1.428   0.761   1.990 -0.5097  0.0116 -0.1107
  812SOL    HW1 2435   1.335   0.802   2.009  0.1780  0.5415 -3.9379
  812SOL    HW2 2436   1.477   0.801   1.904  0.3620 -0.6455 -2.8366
  813SOL     OW 2437   1.641   2.077   2.425  0.2360  0.3424  0.3427
  813SOL    HW1 2438   1.707   2.147   2.460 -0.7645 -0.5101 -1.3585
  813SOL    HW2 2439   1.649   2.065   2.323  2.5676  1.4673  1.8850
  814SOL     OW 2440   2.991   1.716   2.866  0.3178  0.5202 -0.5749
  814SOL    HW1 2441   3.078   1.677   2.909  1.7169  1.8515 -2.0991
  814SOL    HW2 2442   2.974   1.813   2.896  2.0448  1.6655 -0.0024
  815SOL     OW 2443   2.125   2.910   2.776  0.0425  0.4768  0.0485
  815SOL    HW1 2444   2.085   2.830   2.828 -1.7525 -0.0751 -0.5404
  815SOL    HW2 2445   2.213   2.938   2.815 -1.3934 -0.2421  1.3137
  816SOL     OW 2446   1.552   0.455   1.683  0.3796  0.0884 -0.0497
  816SOL    HW1 2447   1.614   0.370   1.675  0.7642 -2.2956 -2.2704
  816SOL    HW2 2448   1.487   0.449   1.762  1.1523 -4.7010 -1.1433
  817SOL     OW 2449   0.402   1.218   2.546  0.0107 -0.3902 -0.3674
  817SOL    HW1 2450   0.310   1.249   2.517  0.1983 -0.2956 -1.4272
  817SOL    HW2 2451   0.459   1.215   2.462 -2.0838 -1.9496  0.5531
  818SOL     OW 2452   2.009   0.779   0.476  0.3694  0.2012  0.3258
  818SOL    HW1 2453   2.108   0.802   0.460 -0.8413  0.5389 -2.7500
  818SOL    HW2 2454   1.965   0.830   0.553  1.6078  1.0422 -2.5359
  819SOL     OW 2455   2.831   2.893   3.029 -0.5760 -0.0232 -0.0472
  819SOL    HW1 2456   2.897   2.813   2.992  0.0275 -0.6437  1.1963
  819SOL    HW2 2457   2.736   2.878   2.986  1.5313  2.8454 -2.8025
  820SOL     OW 2458   1.216   1.024   0.539 -0.1771 -0.3374  0.5989
  820SOL    HW1 2459   1.258   1.110   0.566 -3.5002 -2.4486 -2.2205
  820SOL    HW2 2460   1.177   0.976   0.616  0.2382  1.2802 -3.0158
  821SOL     OW 2461   0.049   1.204   0.760 -0.3362 -0.9986  0.5855
  821SOL    HW1 2462   0.001   1.214   0.852  0.1729 -1.5563 -1.9546
  821SOL    HW2 2463   0.083   1.298   0.726 -0.6735 -0.6216  0.2904
  822SOL     OW 2464   2.550   1.766   2.436  0.0042 -0.1540 -0.6238
  822SOL    HW1 2465   2.544   1.812   2.529  1.1295 -0.7107  0.7107
  822SOL    HW2 2466   2.466   1.775   2.381 -1.7903 -2.6356  2.1639
  823SOL     OW 2467   2.031   0.882   1.157  0.6148 -0.2631 -0.6944
  823SOL    HW1 2468   2.016   0.826   1.242  0.9069  0.7612  2.1629
  823SOL    HW2 2469   1.984   0.846   1.075  0.6097  1.0512  2.8241
  824SOL     OW 2470   0.198   1.810   2.820  0.0528  0.3662 -0.7495
  824SOL    HW1 2471   0.177   1.837   2.918 -1.2533 -0.4228 -0.1084
  824SOL    HW2 2472   0.276   1.866   2.780 -0.1371  0.9183 -1.5731
  825SOL     OW 2473   1.274   1.042   0.232  0.4127 -0.0559 -0.6377
  825SOL    HW1 2474   1.280   1.148   0.220  2.7837  0.7628 -0.2807
  825SOL    HW2 2475   1.247   1.008   0.324 -0.4328  0.6728 -2.2566
  826SOL     OW 2476   1.960   0.663   1.632 -0.5892  0.0642  0.5339
  826SOL    HW1 2477   2.047   0.610   1.632 -3.1601 -0.2054  0.0320
  826SOL    HW2 2478   1.876   0.616   1.591  1.9247  0.8080 -0.0490
  827SOL     OW 2479   0.706   1.200   0.482 -0.0151  0.3294  0.0139
  827SOL    HW1 2480   0.792   1.156   0.445 -1.7482  0.7957  3.6246
  827SOL    HW2 2481   0.624   1.138   0.480  1.3055  1.5817  1.0733
  828SOL     OW 2482   2.685   0.160   1.647 -0.9364  0.1498  0.1702
  828SOL    HW1 2483   2.589   0.146   1.606 -1.6133 -4.5825 -2.6395
  828SOL    HW2 2484   2.688   0.162   1.753 -2.4667  2.0514  1.3019
  829SOL     OW 2485   2.876   2.383   2.865  0.2933  0.1166 -0.6795
  829SOL    HW1 2486   2.781   2.360   2.905  1.1151  1.0092  1.5280
  829SOL    HW2 2487   2.892   2.483   2.864 -1.0009  0.7458  0.5803
  830SOL     OW 2488   3.005   0.937   2.942  0.0385 -0.1900 -0.6442
  830SOL    HW1 2489   3.064   1.016   2.968  0.7963  0.4189 -0.0362
  830SOL    HW2 2490   2.939   0.904   3.017  0.3626  1.1914  3.6399
  831SOL     OW 2491   3.083   0.573   0.454  0.4065  1.0069 -0.6442
  831SOL    HW1 2492   3.077   0.490   0.516  0.6256  1.3444 -0.4193
  831SOL    HW2 2493   3.109   0.541   0.357 -0.0946  0.7986 -1.2876
  832SOL     OW 2494   1.757   0.737   0.011  0.2182  0.5110 -0.3597
  832SOL    HW1 2495   1.665   0.785  -0.011 -1.2531  0.1585  1.8505
  832SOL    HW2 2496   1.757   0.631   0.000 -1.9134  2.8363 -0.4655
  833SOL     OW 2497   2.329   2.099   0.484 -0.5427  0.0354 -0.1183
  833SOL    HW1 2498   2.240   2.046   0.459 -0.3408 -3.3121 -1.7947
  833SOL    HW2 2499   2.415   2.042   0.467 -0.7349 -0.1960 -0.1782
  834SOL     OW 2500   0.033   0.041   0.581 -0.0929 -0.6843  0.4192
  834SOL    HW1 2501   0.129  -0.005   0.579  2.5842 -2.8168  0.8629
  834SOL    HW2 2502   0.017   0.095   0.493  0.5745 -0.5829  0.3803
  835SOL     OW 2503   2.552   1.751   1.118  0.0300  0.7713  0.7754
  835SOL    HW1 2504   2.617   1.679   1.153  1.7034  0.2130 -1.5159
  835SOL    HW2 2505   2.593   1.804   1.036  0.5845  0.1102 -2.6213
  836SOL     OW 2506   1.542   0.834   2.574  0.0983 -0.9926 -0.4220
  836SOL    HW1 2507   1.445   0.840   2.535  2.3897 -0.9284 -3.0547
  836SOL    HW2 2508   1.614   0.850   2.501  0.2913  0.9299 -1.2514
  837SOL     OW 2509   1.649  -0.004   0.663 -0.5307  0.0365  0.3079
  837SOL    HW1 2510   1.634   0.079   0.724  0.2688 -0.9956  0.4817
  837SOL    HW2 2511   1.604   0.011   0.569  0.0562 -1.9574  0.4781
  838SOL     OW 2512   1.162   1.378   2.683 -0.4135 -0.9800  0.1556
  838SOL    HW1 2513   1.133   1.465   2.737 -0.3582 -0.3215 -1.7414
  838SOL    HW2 2514   1.092   1.363   2.605 -3.0747 -1.2670 -0.4312
  839SOL     OW 2515   1.626   0.365   0.978  0.5938 -0.5237 -0.2349
  839SOL    HW1 2516   1.581   0.455   1.004 -2.1621  0.9673 -1.2684
  839SOL    HW2 2517   1.574   0.291   1.031  0.3594  0.8100 -1.6367
  840SOL     OW 2518   2.651   2.931   1.614 -0.1916  0.3420 -0.3140
  840SOL    HW1 2519   2.601   3.008   1.566 -1.1123 -1.4744 -0.1898
  840SOL    HW2 2520   2.623   2.922   1.714  0.1788  0.1177 -1.3026
  841SOL     OW 2521   1.529   0.853   3.057 -0.6426  0.3131  0.1625
  841SOL    HW1 2522   1.434   0.843   3.098  0.0733 -0.8538 -2.2078
  841SOL    HW2 2523   1.549   0.903   2.970  0.2060 -0.2586  0.7262
  842SOL     OW 2524   0.827   1.610   1.024 -0.0084  0.2579 -0.6391
  842SOL    HW1 2525   0.773   1.677   1.080 -2.6337 -0.4335  1.3836
  842SOL    HW2 2526   0.762   1.561   0.954 -0.6156 -1.0538 -1.0746
  843SOL     OW 2527   0.138   0.091   1.436  0.0578  0.3163  0.3220
  843SOL    HW1 2528   0.227   0.147   1.433  0.5513  0.8076 -0.1703
  843SOL    HW2 2529   0.154  -0.012   1.443 -1.1800  0.9679 -0.9785
  844SOL     OW 2530   0.787   2.453   0.204  0.0504 -0.0107 -0.0724
  844SOL    HW1 2531   0.754   2.482   0.297  2.2636 -0.1564  0.4115
  844SOL    HW2 2532   0.714   2.403   0.148  0.4981 -2.7314 -0.0996
  845SOL     OW 2533   1.745   0.009   1.303  0.1917 -0.2077 -0.0209
  845SOL    HW1 2534   1.756  -0.025   1.404  1.3813 -0.0087  1.4583
  845SOL    HW2 2535   1.677   0.082   1.290  2.9163  0.3684  1.8260
  846SOL     OW 2536   1.729   2.980   0.899  0.3625 -0.3688  0.5539
  846SOL    HW1 2537   1.697   3.013   0.810  2.3792 -1.5205  1.6404
  846SOL    HW2 2538   1.823   2.938   0.894  1.5173 -1.0651  0.7784
  847SOL     OW 2539   2.049   1.583   0.190 -0.4577  0.2217 -0.3081
  847SOL    HW1 2540   2.011   1.545   0.281 -0.9981 -0.6280  1.6151
  847SOL    HW2 2541   1.987   1.564   0.112  1.7249  0.7084  2.2845
  848SOL     OW 2542   2.450   0.791   2.683  0.1762  0.1089  0.3773
  848SOL    HW1 2543   2.429   0.896   2.677  1.1158  3.0730  1.1739
  848SOL    HW2 2544   2.396   0.734   2.608 -1.1953 -1.7292 -2.8600
  849SOL     OW 2545   2.355   0.856   2.325  0.4549  0.2057  0.1718
  849SOL    HW1 2546   2.407   0.802   2.256 -1.5411  1.2324  0.5059
  849SOL    HW2 2547   2.298   0.796   2.390 -1.7559 -1.7100  1.9676
  850SOL     OW 2548   1.538   0.200   1.277  0.3571 -0.5468  0.0956
  850SOL    HW1 2549   1.548   0.151   1.187 -3.8348  2.1821  0.8089
  850SOL    HW2 2550   1.508   0.129   1.352 -0.1089 -0.8168  0.3438
  851SOL     OW 2551   0.401   1.684   0.660 -0.6318 -0.2477  0.2064
  851SOL    HW1 2552   0.440   1.780   0.640  0.1784  1.8439 -0.0482
  851SOL    HW2 2553   0.472   1.619   0.693 -1.9039 -1.2347  2.5278
  852SOL     OW 2554   0.839   2.132   1.750 -0.5139 -0.7925 -0.3779
  852SOL    HW1 2555   0.853   2.222   1.699 -0.1639  3.3776 -2.1348
  852SOL    HW2 2556   0.768   2.140   1.820  2.4792 -1.0404 -1.1553
  853SOL     OW 2557   2.503   1.521   2.613 -0.3237  0.6208  0.2459
  853SOL    HW1 2558   2.484   1.422   2.581 -2.7956 -2.4252  0.9308
  853SOL    HW2 2559   2.554   1.572   2.535 -0.2887 -0.3086 -2.2092
  854SOL     OW 2560   2.428   1.451   1.708  0.4262 -0.4504 -0.0992
  854SOL    HW1 2561   2.519   1.453   1.653  1.7863  0.1108  1.0377
  854SOL    HW2 2562   2.375   1.364   1.692 -1.7466 -0.2561  1.5164
  855SOL     OW 2563   2.044   2.389   0.947 -0.4166  0.0766  0.1276
  855SOL    HW1 2564   2.100   2.458   0.902  1.4126 -1.0704  0.3753
  855SOL    HW2 2565   2.100   2.339   1.017  0.8097 -0.6780 -2.0629
  856SOL     OW 2566   1.441   1.424   0.826 -0.3351 -0.1865  0.3917
  856SOL    HW1 2567   1.447   1.525   0.834  2.4534 -1.7194 -1.7649
  856SOL    HW2 2568   1.459   1.374   0.916  2.0445  1.6503  0.7814
  857SOL     OW 2569   2.937   2.532   1.042  0.7026  0.3521 -0.3465
  857SOL    HW1 2570   2.879   2.466   1.101 -0.0710  0.3560 -1.9566
  857SOL    HW2 2571   2.951   2.496   0.948 -2.1993  1.2650  0.3541
  858SOL     OW 2572   2.264   2.093   1.780 -0.4011 -0.3132  0.6192
  858SOL    HW1 2573   2.195   2.150   1.723 -1.5259  0.9847  2.0685
  858SOL    HW2 2574   2.327   2.031   1.715 -1.4826 -3.3360 -0.8597
  859SOL     OW 2575   2.500   0.449   1.045  0.9423 -0.2760  0.5983
  859SOL    HW1 2576   2.554   0.499   0.968  0.9833  0.4915 -1.2750
  859SOL    HW2 2577   2.549   0.377   1.095 -1.4778 -2.0541  0.0419
  860SOL     OW 2578   1.904   2.791   0.508  0.1298 -0.2471 -0.2516
  860SOL    HW1 2579   1.945   2.784   0.415 -3.9304  0.5116 -1.3971
  860SOL    HW2 2580   1.936   2.875   0.559 -0.7055 -0.3490  2.7371
  861SOL     OW 2581   0.958   2.627   2.846 -0.6485  0.3893 -0.7288
  861SOL    HW1 2582   1.019   2.708   2.861 -0.7050  1.0899 -0.9622
  861SOL    HW2 2583   0.910   2.586   2.928 -0.3558  3.7407  0.6210
  862SOL     OW 2584   2.929   2.516   1.608 -0.0219  0.2110  0.7074
  862SOL    HW1 2585   3.000   2.540   1.680 -0.9029  1.6235  3.8168
  862SOL    HW2 2586   2.856   2.588   1.597 -1.7403 -1.1807  0.2075
  863SOL     OW 2587   1.915   2.682   0.183  0.3219  0.1689 -0.2075
  863SOL    HW1 2588   1.975   2.608   0.232 -1.0864 -1.5532  4.7643
  863SOL    HW2 2589   1.816   2.669   0.210  1.4803 -2.0682 -1.1985
  864SOL     OW 2590   1.922   1.086   3.010 -0.7739 -0.0443  0.5560
  864SOL    HW1 2591   1.928   1.054   2.912  1.7217  1.1340  1.0278
  864SOL    HW2 2592   2.009   1.134   3.040  0.5237 -0.4930 -1.0379
  865SOL     OW 2593   2.206   1.729   0.629 -0.1852  0.2665  0.1346
  865SOL    HW1 2594   2.215   1.799   0.709  0.6463  3.8657 -3.2735
  865SOL    HW2 2595   2.181   1.626   0.648 -0.8956 -4.6443  0.5042
  866SOL     OW 2596   2.976   2.814   0.968 -0.0257  0.2559 -0.1344
  866SOL    HW1 2597   3.027   2.857   0.890  0.6117  0.1416  2.4492
  866SOL    HW2 2598   3.001   2.715   0.976  1.2433  1.4186  0.4943
  867SOL     OW 2599   0.368   1.375   0.848  0.3867 -0.5507 -0.4045
  867SOL    HW1 2600   0.408   1.291   0.802  1.4656  2.5096  2.5889
  867SOL    HW2 2601   0.275   1.404   0.805 -1.3056 -1.9974 -1.2446
  868SOL     OW 2602   0.802   1.918   2.010  0.0877  0.6254 -0.5966
  868SOL    HW1 2603   0.771   1.886   2.100 -0.2540 -1.6313 -3.7141
  868SOL    HW2 2604   0.769   2.013   1.996 -1.3396  2.1619 -0.8578
  869SOL     OW 2605   2.484   1.985   1.650 -0.5704  0.1108  0.1585
  869SOL    HW1 2606   2.542   1.916   1.689 -2.3049  3.3428 -2.1237
  869SOL    HW2 2607   2.459   1.954   1.557  0.1752  1.6322  1.3605
  870SOL     OW 2608   2.336   2.554   1.262 -0.2324 -0.0950 -0.4147
  870SOL    HW1 2609   2.292   2.473   1.220 -0.1899  3.1560  0.8187
  870SOL    HW2 2610   2.410   2.523   1.324 -1.3038 -2.3700 -0.2126
  871SOL     OW 2611   2.999   1.977   0.529 -0.5092 -0.1335 -0.6210
  871SOL    HW1 2612   2.931   2.036   0.477  0.0812  1.5141  2.3532
  871SOL    HW2 2613   2.994   1.875   0.512  0.1335 -0.8939  1.1238
  872SOL     OW 2614   2.209   0.520   1.718  0.2501 -0.7338  0.3832
  872SOL    HW1 2615   2.175   0.544   1.814  0.4203  1.4223  3.6697
  872SOL    HW2 2616   2.298   0.471   1.731 -0.4093  1.1891 -1.3612
  873SOL     OW 2617   1.720   2.119   2.893  0.3701 -0.1515  0.0039
  873SOL    HW1 2618   1.735   2.209   2.950  1.6025  1.3384  3.1368
  873SOL    HW2 2619   1.623   2.099   2.852 -1.3775 -0.2331 -1.2286
  874SOL     OW 2620   0.621   2.462   0.719 -0.0457 -0.3685 -0.4519
  874SOL    HW1 2621   0.595   2.559   0.740  1.9576 -1.5451  0.4296
  874SOL    HW2 2622   0.724   2.446   0.721  1.0368  1.5632  3.0138
  875SOL     OW 2623   2.285   1.622   1.480 -0.1404  1.1135 -0.1713
  875SOL    HW1 2624   2.385   1.623   1.495 -0.4933  0.0757 -0.5491
  875SOL    HW2 2625   2.265   1.650   1.382 -1.7233  2.5543  1.2437
  876SOL     OW 2626   0.185   2.274   2.778  0.7116  0.5633  0.0694
  876SOL    HW1 2627   0.214   2.206   2.856 -5.1252 -2.1157 -0.0948
  876SOL    HW2 2628   0.220   2.372   2.791 -0.9771  1.6721 -1.3052
  877SOL     OW 2629   2.822   2.652   0.649  0.1348 -0.2194 -0.4300
  877SOL    HW1 2630   2.837   2.755   0.617  2.3830  1.4516 -0.5345
  877SOL    HW2 2631   2.906   2.604   0.688 -0.2469  2.8637  1.0900
  878SOL     OW 2632   2.674   1.482   2.383 -0.9424 -0.0855  0.2839
  878SOL    HW1 2633   2.654   1.578   2.345  0.0606 -0.4781  0.5046
  878SOL    HW2 2634   2.773   1.445   2.383 -0.7877  0.6239 -2.0056
  879SOL     OW 2635   2.440   3.039   1.213 -0.6314 -0.3823 -0.2165
  879SOL    HW1 2636   2.470   2.938   1.210 -0.6596  1.2974 -1.1908
  879SOL    HW2 2637   2.342   3.045   1.190  0.6620  0.7247 -0.2171
  880SOL     OW 2638   0.634   0.492   2.210  0.9396 -0.3532 -0.3281
  880SOL    HW1 2639   0.591   0.448   2.292 -0.8698  0.9820  0.0145
  880SOL    HW2 2640   0.628   0.430   2.120 -3.2353 -0.1168 -1.4211
  881SOL     OW 2641   0.917   0.088   0.446  0.0783  0.4676 -0.2726
  881SOL    HW1 2642   0.949  -0.006   0.474  0.4632 -0.8144 -0.0801
  881SOL    HW2 2643   0.846   0.087   0.373 -0.1305  1.2140  1.7032
  882SOL     OW 2644   2.756   1.770   1.691  0.0664 -0.4663  0.1766
  882SOL    HW1 2645   2.831   1.715   1.647 -0.6817 -1.4746  4.5018
  882SOL    HW2 2646   2.737   1.749   1.793 -1.9502  0.7562  0.6723
  883SOL     OW 2647   0.920   0.571   0.969 -0.1566  0.2632  0.1502
  883SOL    HW1 2648   0.926   0.666   1.014  1.8609 -0.6916  1.0198
  883SOL    HW2 2649   1.014   0.529   0.954 -1.2375 -0.6933  1.1706
  884SOL     OW 2650   1.126   1.905   1.059 -0.4840 -0.0595  0.0159
  884SOL    HW1 2651   1.108   1.841   0.980 -0.4980 -0.7319  2.2684
  884SOL    HW2 2652   1.054   1.982   1.071 -1.8633  1.4360  0.4537
  885SOL     OW 2653   2.317   1.805   2.292 -0.2187  0.2365 -0.0241
  885SOL    HW1 2654   2.249   1.739   2.329  0.4770  0.2055 -1.9553
  885SOL    HW2 2655   2.301   1.904   2.316 -0.5006 -1.0453 -3.3077
  886SOL     OW 2656   2.670   0.462   1.836 -0.4362  0.0981  0.1116
  886SOL    HW1 2657   2.732   0.399   1.895 -2.2666  1.1561 -0.2008
  886SOL    HW2 2658   2.721   0.549   1.793  0.8770  1.8836 -1.0918
  887SOL     OW 2659   0.221   2.046   1.273  0.3004 -0.1551  0.0311
  887SOL    HW1 2660   0.162   1.979   1.217  0.0197  0.9180 -2.4559
  887SOL    HW2 2661   0.211   2.143   1.236 -0.9456  1.5155 -0.3282
  888SOL     OW 2662   0.571   1.345   1.458 -0.0887 -0.2504 -0.2735
  888SOL    HW1 2663   0.581   1.393   1.366  0.3223  0.9273 -2.2264
  888SOL    HW2 2664   0.527   1.249   1.456  2.4823  0.3098 -0.0748
  889SOL     OW 2665   0.834   2.404   2.172 -0.3678 -0.3865  0.2174
  889SOL    HW1 2666   0.772   2.318   2.158 -0.7556 -2.1283  0.5859
  889SOL    HW2 2667   0.901   2.418   2.091  0.5095  3.2438 -1.0623
  890SOL     OW 2668   2.340   2.436   0.226 -0.1753  0.2583  0.2541
  890SOL    HW1 2669   2.420   2.497   0.204 -1.3903 -1.0840  1.1614
  890SOL    HW2 2670   2.254   2.483   0.260 -0.2203  2.4360 -0.8198
  891SOL     OW 2671   2.611   1.674   0.712  0.7182  0.6932  0.1363
  891SOL    HW1 2672   2.563   1.606   0.773 -0.5478  1.9859 -1.2639
  891SOL    HW2 2673   2.553   1.709   0.632  2.6586 -2.1713 -1.0552
  892SOL     OW 2674   0.299   0.286   2.245 -0.3803  0.2353  0.1017
  892SOL    HW1 2675   0.318   0.330   2.150 -0.7866 -2.3355  3.1035
  892SOL    HW2 2676   0.366   0.307   2.320 -1.8395 -0.9520 -2.4533
  893SOL     OW 2677   1.645   0.256   2.745  0.4310 -0.3101  0.2607
  893SOL    HW1 2678   1.722   0.325   2.773  2.9765  2.9570  0.4914
  893SOL    HW2 2679   1.553   0.304   2.747  0.9928  0.5239  1.3098
  894SOL     OW 2680   2.183   2.034   0.039  0.1984  0.2056 -0.1203
  894SOL    HW1 2681   2.143   1.995  -0.047 -0.1808 -0.3277 -0.3495
  894SOL    HW2 2682   2.169   1.975   0.123  2.0823  0.3145  1.3204
  895SOL     OW 2683   2.782   1.375   0.852 -0.4159  0.1056  0.3056
  895SOL    HW1 2684   2.847   1.333   0.917 -1.3826 -1.1607  0.8261
  895SOL    HW2 2685   2.835   1.417   0.768 -0.9729  2.1347  1.4789
  896SOL     OW 2686   1.735   1.837   1.169  0.7480  0.8948  0.0136
  896SOL    HW1 2687   1.816   1.842   1.103  0.4833 -1.1800  0.1199
  896SOL    HW2 2688   1.669   1.917   1.165  1.8761  1.9596 -1.5868
  897SOL     OW 2689   0.300   0.507   3.066 -0.2899 -0.2672  0.8907
  897SOL    HW1 2690   0.240   0.547   2.991 -0.8588 -1.6534 -2.4487
  897SOL    HW2 2691   0.389   0.553   3.075 -1.5682  1.0817 -0.2225
  898SOL     OW 2692   0.539   2.914   0.994 -0.3260 -0.4646  0.1817
  898SOL    HW1 2693   0.486   2.943   1.078  1.2071 -2.2923  0.7623
  898SOL    HW2 2694   0.635   2.950   1.001 -0.3766 -0.5589  1.7066
  899SOL     OW 2695   2.708   0.927   1.287  0.8252 -0.6727  0.2810
  899SOL    HW1 2696   2.650   0.906   1.203 -1.6273  2.2847  5.7203
  899SOL    HW2 2697   2.794   0.986   1.266 -1.1262  2.0740  1.9479
  900SOL     OW 2698   1.002   2.372   2.385  0.2215  0.0367  0.1967
  900SOL    HW1 2699   0.962   2.431   2.308  1.6941  3.0823 -0.5778
  900SOL    HW2 2700   0.959   2.378   2.480 -1.1967 -3.8180 -1.3747
  901SOL     OW 2701   1.986   2.489   1.336 -0.2847 -0.0652 -0.0793
  901SOL    HW1 2702   1.917   2.460   1.261  2.7515 -0.4665 -1.0797
  901SOL    HW2 2703   2.058   2.418   1.353  0.5222 -1.1943  1.1148
  902SOL     OW 2704   2.582   1.665   1.496  0.4975 -0.1556  0.4087
  902SOL    HW1 2705   2.635   1.712   1.568 -3.5284  4.0455 -0.5370
  902SOL    HW2 2706   2.622   1.668   1.402 -5.2245  0.2371  0.7463
  903SOL     OW 2707   0.283   2.480   1.952  0.3191  0.5392 -0.5458
  903SOL    HW1 2708   0.191   2.438   1.985 -0.5511 -2.7264  1.6841
  903SOL    HW2 2709   0.270   2.557   1.883 -0.8926 -1.6871  3.1808
  904SOL     OW 2710   1.985   0.809   2.605  0.1367 -0.2280  0.4209
  904SOL    HW1 2711   1.942   0.739   2.665 -0.3674 -0.3479 -2.7339
  904SOL    HW2 2712   1.961   0.805   2.506 -0.7293  3.2316 -3.4993
  905SOL     OW 2713   2.842   0.049   2.586 -0.0539 -0.0060  0.3848
  905SOL    HW1 2714   2.917  -0.004   2.633  0.7681  1.5061 -0.3268
  905SOL    HW2 2715   2.862   0.149   2.565  1.7868  2.5808 -1.2753
  906SOL     OW 2716   0.119   1.845   1.902 -0.2523 -0.1760 -0.2606
  906SOL    HW1 2717   0.066   1.827   1.812  0.1853 -3.0847 -2.9580
  906SOL    HW2 2718   0.130   1.944   1.923  2.0837 -0.7644  0.8462
  907SOL     OW 2719   0.181   2.411   1.070 -0.2336  0.3029  0.2040
  907SOL    HW1 2720   0.248   2.466   1.019 -2.7919  1.1368  2.2600
  907SOL    HW2 2721   0.122   2.353   1.008 -2.3984  1.0448 -0.1554
  908SOL     OW 2722   2.689   2.792   0.350 -0.1500 -0.0975 -0.7625
  908SOL    HW1 2723   2.667   2.852   0.271 -2.7848  0.2734  1.9607
  908SOL    HW2 2724   2.628   2.711   0.353  2.0326  2.3880  0.9868
  909SOL     OW 2725   0.659   0.896   2.642 -0.0910 -0.2655  0.1328
  909SOL    HW1 2726   0.641   0.801   2.616  0.7556  0.3176 -3.4653
  909SOL    HW2 2727   0.751   0.931   2.604  0.2130 -1.9617  1.9827
  910SOL     OW 2728   1.715   1.767   2.115 -0.4781  0.1154 -0.3240
  910SOL    HW1 2729   1.779   1.787   2.035 -1.4349  2.1266 -0.7508
  910SOL    HW2 2730   1.681   1.860   2.150 -2.3979  0.4729  2.2311
  911SOL     OW 2731   1.785   3.027   1.580  0.0544 -0.2200  0.1669
  911SOL    HW1 2732   1.884   2.989   1.560  2.8945  0.3372 -2.5979
  911SOL    HW2 2733   1.743   2.976   1.659  1.7706 -1.4605  2.8133
  912SOL     OW 2734   2.894   0.954   0.751  0.5549 -0.4348  0.0473
  912SOL    HW1 2735   2.884   0.933   0.854 -0.3556 -0.3376  0.2744
  912SOL    HW2 2736   2.827   1.029   0.724 -1.7608 -2.2376 -1.2411
  913SOL     OW 2737   2.588   1.285   1.538  0.5617  0.0747 -0.7620
  913SOL    HW1 2738   2.583   1.192   1.584 -0.4570 -0.6058 -1.4479
  913SOL    HW2 2739   2.662   1.278   1.466 -1.0278 -0.4334  1.1844
  914SOL     OW 2740   2.762   0.501   1.272 -0.7366  0.1742 -0.2005
  914SOL    HW1 2741   2.767   0.395   1.273  1.4770  1.2975  2.8021
  914SOL    HW2 2742   2.739   0.534   1.368  3.0361 -2.6186  1.8096
  915SOL     OW 2743   1.200   0.789   1.036  0.5473 -0.2222  0.2943
  915SOL    HW1 2744   1.256   0.787   1.119 -1.4054  0.9221 -1.8006
  915SOL    HW2 2745   1.096   0.793   1.059  0.6899  1.0114 -0.3446
  916SOL     OW 2746   0.590   0.016   0.572 -0.5763 -0.1889 -0.4672
  916SOL    HW1 2747   0.598   0.092   0.645 -2.3837  1.2509 -0.5878
  916SOL    HW2 2748   0.571   0.061   0.481 -1.4552 -1.9106 -0.7912
  917SOL     OW 2749   2.750   2.615   1.870  0.6250  0.2853  0.4165
  917SOL    HW1 2750   2.673   2.687   1.867 -2.7596  0.7947 -1.2042
  917SOL    HW2 2751   2.843   2.650   1.851 -1.8897 -4.3330  0.6610
  918SOL     OW 2752   1.086   2.188   3.070  0.3573  0.3040 -0.9900
  918SOL    HW1 2753   1.021   2.220   3.144  0.1033 -1.3630  0.4884
  918SOL    HW2 2754   1.139   2.103   3.091  1.6269 -1.0953  0.2838
  919SOL     OW 2755   0.908   1.558   2.785 -0.0256 -0.5120  0.7902
  919SOL    HW1 2756   0.900   1.638   2.720 -2.7110 -1.2011  0.6588
  919SOL    HW2 2757   0.861   1.474   2.743  1.5568 -1.4102 -0.3733
  920SOL     OW 2758   1.203   1.999   2.464 -0.0876 -0.4194  0.4374
  920SOL    HW1 2759   1.151   2.039   2.384 -0.7995 -2.7836  1.0065
  920SOL    HW2 2760   1.215   1.900   2.459 -1.8615  0.5674 -1.5724
  921SOL     OW 2761   1.067   0.102   2.507  0.5205 -0.1944 -0.6987
  921SOL    HW1 2762   1.054   0.001   2.497  2.1261 -2.0577 -0.4866
  921SOL    HW2 2763   1.039   0.155   2.419 -0.3235 -0.7763  2.4439
  922SOL     OW 2764   2.154   2.396   2.811  0.5902 -0.4547  0.3046
  922SOL    HW1 2765   2.142   2.294   2.816 -0.5214 -1.4635 -0.6945
  922SOL    HW2 2766   2.115   2.432   2.718 -3.2366  0.2509 -0.8760
  923SOL     OW 2767   1.239   2.705   0.198  0.4595 -0.1629 -0.1825
  923SOL    HW1 2768   1.303   2.751   0.269 -0.3468  1.6574  0.3604
  923SOL    HW2 2769   1.235   2.599   0.207 -0.8218  1.3380  2.7464
  924SOL     OW 2770   2.931   1.618   0.080  0.5520  0.1123  0.2381
  924SOL    HW1 2771   2.855   1.616   0.009 -0.3953  1.0693  0.2186
  924SOL    HW2 2772   3.027   1.628   0.039  0.9880  0.5880  1.9561
  925SOL     OW 2773   0.056   2.870   1.637 -0.0132 -0.5379 -0.1613
  925SOL    HW1 2774  -0.038   2.905   1.663 -0.3785  2.3787  4.2503
  925SOL    HW2 2775   0.079   2.872   1.540 -3.3928  0.1165  0.7236
  926SOL     OW 2776   1.423   2.887   1.260  0.6037 -0.3059  0.4595
  926SOL    HW1 2777   1.460   2.908   1.166  2.4087  0.3070 -1.6531
  926SOL    HW2 2778   1.426   2.971   1.322  0.4184  0.6700 -1.2976
  927SOL     OW 2779   0.244   2.592   1.701 -0.3420 -0.5751 -0.4421
  927SOL    HW1 2780   0.230   2.493   1.674 -0.9206  0.6504  1.3818
  927SOL    HW2 2781   0.313   2.643   1.641 -0.3956  0.9458 -0.8652
  928SOL     OW 2782   1.617   2.041   2.126  0.1411  0.0379  0.2030
  928SOL    HW1 2783   1.640   2.145   2.110  1.6811  2.3530 -2.8294
  928SOL    HW2 2784   1.519   2.027   2.097  0.7918 -1.6238  1.2299
  929SOL     OW 2785   2.447   2.402   2.876  0.4247  0.2183  0.4114
  929SOL    HW1 2786   2.346   2.409   2.901  0.4135 -0.9374 -0.5153
  929SOL    HW2 2787   2.461   2.365   2.779 -0.7884  0.0201 -0.4122
  930SOL     OW 2788   2.119   1.999   1.079 -0.7746  0.3086  0.6558
  930SOL    HW1 2789   2.086   1.977   1.176  0.1102  1.8415  3.4987
  930SOL    HW2 2790   2.196   2.070   1.077 -0.4385  1.1227  2.7607
  931SOL     OW 2791   0.549   1.757   2.673  0.3930  0.0687  0.5077
  931SOL    HW1 2792   0.618   1.753   2.755  2.0399  2.5116  2.9073
  931SOL    HW2 2793   0.567   1.685   2.602 -1.5489 -0.6256 -1.7949
  932SOL     OW 2794   0.532   0.123   2.938  0.5015  0.2888 -0.5486
  932SOL    HW1 2795   0.619   0.122   2.883  0.5046  0.8957  0.1512
  932SOL    HW2 2796   0.524   0.038   2.999  0.1259  0.2596  1.4330
  933SOL     OW 2797   1.052   0.803   2.983 -0.2513  0.5706 -0.6244
  933SOL    HW1 2798   1.121   0.851   3.042 -2.2665 -0.3475  0.6760
  933SOL    HW2 2799   1.012   0.864   2.911  0.4477 -1.2975 -1.9362
  934SOL     OW 2800   0.868   2.958   2.832 -0.1121 -0.3930  0.5224
  934SOL    HW1 2801   0.972   2.947   2.828  0.9892 -1.7675 -1.1432
  934SOL    HW2 2802   0.821   2.913   2.906  3.1936  1.7532 -0.8016
  935SOL     OW 2803   3.042   0.537   0.848 -0.1723  0.1119 -0.1685
  935SOL    HW1 2804   3.034   0.449   0.796 -1.0140 -1.8687  0.3699
  935SOL    HW2 2805   2.948   0.566   0.868  0.2345 -0.2962  1.1808
  936SOL     OW 2806   1.119   2.984   0.148 -0.3638 -0.5709 -0.1828
  936SOL    HW1 2807   1.174   3.037   0.074 -0.2167  0.7867 -0.6258
  936SOL    HW2 2808   1.166   2.896   0.166 -0.8541  0.7854 -0.8752
  937SOL     OW 2809   1.947   2.708   2.108 -0.2686  0.0088  0.4011
  937SOL    HW1 2810   1.869   2.737   2.170 -3.2288  0.9708 -2.1022
  937SOL    HW2 2811   1.932   2.732   2.004 -2.0482  1.2438 -0.2489
  938SOL     OW 2812   2.718   2.189   1.509 -0.1160 -0.4183  0.4010
  938SOL    HW1 2813   2.692   2.263   1.575  0.3931  1.7028  0.0332
  938SOL    HW2 2814   2.765   2.106   1.554  0.6808  0.8822 -0.9947
  939SOL     OW 2815   2.757   0.995   2.543 -0.1565  0.7436  0.7391
  939SOL    HW1 2816   2.849   0.957   2.514  1.4428 -2.1294 -0.5185
  939SOL    HW2 2817   2.757   1.051   2.629 -0.0426 -1.5207 -2.1171
  940SOL     OW 2818   1.026   0.468   2.646 -0.8376  0.4708 -0.1639
  940SOL    HW1 2819   1.072   0.378   2.675 -1.6574  1.6654 -0.5977
  940SOL    HW2 2820   0.925   0.450   2.630  2.7497 -1.9956 -0.7828
  941SOL     OW 2821   0.024   2.877   2.199 -0.3617 -0.6847  0.4443
  941SOL    HW1 2822   0.005   2.778   2.166 -0.5161 -0.2997  2.6145
  941SOL    HW2 2823   0.081   2.890   2.288  1.2131  2.0048 -0.2800
  942SOL     OW 2824   0.154   0.081   2.544  0.1993 -0.1891  0.6748
  942SOL    HW1 2825   0.214   0.097   2.625 -0.6797  1.1883  0.0552
  942SOL    HW2 2826   0.104   0.164   2.518  2.7124 -1.0529  2.8710
  943SOL     OW 2827   2.116   1.658   2.398  0.4348 -0.7068 -0.3287
  943SOL    HW1 2828   2.126   1.574   2.459  4.6987  1.3476  2.7917
  943SOL    HW2 2829   2.034   1.668   2.337 -2.6785  2.1832  0.4362
  944SOL     OW 2830   2.190   2.312   1.417  0.1173  0.7841  0.3366
  944SOL    HW1 2831   2.257   2.362   1.473 -1.0671 -0.5527 -1.3231
  944SOL    HW2 2832   2.136   2.241   1.477 -1.1256 -0.6650 -0.6438
  945SOL     OW 2833   0.608   1.414   0.338 -1.1523 -0.2229 -0.5535
  945SOL    HW1 2834   0.688   1.449   0.285 -0.5674 -2.9731  0.5039
  945SOL    HW2 2835   0.630   1.319   0.377 -1.5248  1.9792  1.5904
  946SOL     OW 2836   0.314   0.969   2.643 -0.0952  0.0050 -0.3893
  946SOL    HW1 2837   0.243   0.937   2.572 -0.2681 -1.2633  0.6941
  946SOL    HW2 2838   0.354   1.064   2.620  1.1993 -1.5425  1.0097
  947SOL     OW 2839   1.530   0.449   0.138  0.3581  0.3352 -0.6047
  947SOL    HW1 2840   1.522   0.386   0.221 -0.3772  0.4115 -1.0663
  947SOL    HW2 2841   1.468   0.429   0.062  2.2163  0.2326  0.4422
  948SOL     OW 2842   2.037   3.044   2.126  0.7719 -0.4538 -0.0855
  948SOL    HW1 2843   1.971   3.080   2.055  1.4882 -0.1481 -1.0546
  948SOL    HW2 2844   1.993   2.985   2.206 -0.0242 -1.7693  0.9675
  949SOL     OW 2845   0.688   2.543   0.429  0.3001 -0.1406 -0.4523
  949SOL    HW1 2846   0.685   2.640   0.390 -0.2410  1.5347  2.2070
  949SOL    HW2 2847   0.717   2.533   0.526 -0.5578  0.8046 -1.3359
  950SOL     OW 2848   0.205   2.122   3.000 -0.3175  0.4002  0.0352
  950SOL    HW1 2849   0.124   2.179   3.028  0.9244  0.7701 -4.2504
  950SOL    HW2 2850   0.206   2.021   3.030  0.1726 -0.3825  0.4733
  951SOL     OW 2851   1.123   2.861   2.807 -0.3702  0.6605 -0.3426
  951SOL    HW1 2852   1.127   2.819   2.714 -1.6772  4.4589  1.7304
  951SOL    HW2 2853   1.185   2.946   2.806 -1.2046  1.5444  0.4976
  952SOL     OW 2854   0.041   1.679   0.480 -0.0642 -0.1842  0.1446
  952SOL    HW1 2855   0.117   1.739   0.457 -1.9415 -0.8945  4.3791
  952SOL    HW2 2856   0.012   1.676   0.582 -1.8741  1.4952 -1.4355
  953SOL     OW 2857   2.446   1.774   0.146  0.4431 -0.0040 -0.4527
  953SOL    HW1 2858   2.452   1.689   0.202 -0.4503  0.9836 -3.0404
  953SOL    HW2 2859   2.449   1.768   0.044 -0.5822  0.0994 -0.9457
  954SOL     OW 2860   2.236   0.490   1.048  0.2570 -0.0564  0.2342
  954SOL    HW1 2861   2.217   0.515   0.946 -1.9785  1.4788  2.6010
  954SOL    HW2 2862   2.334   0.470   1.062 -0.1907  1.2195  0.7238
  955SOL     OW 2863   0.217   2.682   1.233 -0.0004 -0.4756 -0.4047
  955SOL    HW1 2864   0.119   2.652   1.211  1.7755  0.3206 -2.2900
  955SOL    HW2 2865   0.283   2.666   1.154  2.5864 -1.1344  0.1655
  956SOL     OW 2866   2.768   2.482   2.498  0.5761  0.0723  0.1270
  956SOL    HW1 2867   2.789   2.384   2.492  0.1045  0.4488  2.3037
  956SOL    HW2 2868   2.806   2.542   2.422  1.0040 -0.7549 -1.3293
  957SOL     OW 2869   1.551   1.998   2.684 -0.0695  0.7472  0.2475
  957SOL    HW1 2870   1.529   1.900   2.683 -0.6413  2.9848  0.4556
  957SOL    HW2 2871   1.599   2.036   2.600  0.1986  2.7269  2.8074
  958SOL     OW 2872   2.655   2.271   2.973 -0.4148 -0.5609 -0.1573
  958SOL    HW1 2873   2.569   2.314   2.935  1.3514 -0.6625  1.5635
  958SOL    HW2 2874   2.652   2.237   3.071  2.1295  3.1115  1.1799
  959SOL     OW 2875   0.261   2.807   0.037 -0.0308  0.7496  0.1346
  959SOL    HW1 2876   0.179   2.820   0.102  1.0568 -1.4710  1.8902
  959SOL    HW2 2877   0.274   2.705   0.011 -2.1069  0.0084 -0.2727
  960SOL     OW 2878   1.926   0.451   2.059  0.0606 -0.0174  0.7384
  960SOL    HW1 2879   1.915   0.540   2.005 -3.0718  0.9720  0.9988
  960SOL    HW2 2880   1.961   0.461   2.152 -1.6567  0.0601 -0.9601
  961SOL     OW 2881   2.755   1.993   1.041  0.7035  0.9903  0.6342
  961SOL    HW1 2882   2.820   2.068   1.019  2.1409 -2.4903 -0.0682
  961SOL    HW2 2883   2.698   2.009   1.126  0.7809 -0.2177  1.5676
  962SOL     OW 2884   1.252   0.944   3.087  0.3133 -0.1951 -0.1431
  962SOL    HW1 2885   1.288   1.015   3.017  0.2409 -0.5904  1.1360
  962SOL    HW2 2886   1.249   0.979   3.186 -0.2636  2.1971 -0.4227
  963SOL     OW 2887   2.169   2.585   1.915 -0.3850 -0.1518 -0.4532
  963SOL    HW1 2888   2.179   2.520   1.993  0.3709  2.0819 -2.0489
  963SOL    HW2 2889   2.245   2.654   1.906 -2.5314 -0.0337 -3.0352
  964SOL     OW 2890   2.430   0.361   1.722  0.1869 -0.3075  0.5442
  964SOL    HW1 2891   2.514   0.393   1.776  2.1489  1.6445 -2.2922
  964SOL    HW2 2892   2.433   0.385   1.620  1.7340 -0.3627 -0.4620
  965SOL     OW 2893   2.674   3.007   0.137  0.4921  0.3380 -0.0736
  965SOL    HW1 2894   2.743   2.962   0.072  2.6378 -5.1643 -0.9069
  965SOL    HW2 2895   2.589   3.037   0.093  0.6390  0.6258  1.8235
  966SOL     OW 2896   2.521   2.615   2.226 -0.0112 -0.6385  0.0533
  966SOL    HW1 2897   2.440   2.563   2.182 -2.0277  0.0560  1.1622
  966SOL    HW2 2898   2.501   2.716   2.227 -2.4025 -2.5627  3.4291
  967SOL     OW 2899   2.722   2.857   2.478  0.2535  0.4129  0.2481
  967SOL    HW1 2900   2.779   2.809   2.406  2.3591  0.3477  1.7183
  967SOL    HW2 2901   2.765   2.950   2.499 -1.4272 -0.1140  0.0600
  968SOL     OW 2902   1.962   1.052   2.723 -0.2814  0.7015  0.7290
  968SOL    HW1 2903   1.929   1.121   2.650 -1.0943 -0.3373 -3.8711
  968SOL    HW2 2904   1.962   0.958   2.678  2.7769 -1.0357 -0.1625
  969SOL     OW 2905   2.736   2.386   1.182 -0.3442  0.2194  0.2705
  969SOL    HW1 2906   2.691   2.379   1.087  1.1640 -0.2404 -0.1709
  969SOL    HW2 2907   2.777   2.294   1.208 -0.4645 -1.3972  2.0860
  970SOL     OW 2908   1.106   2.092   1.795 -0.4876 -0.7549  0.3598
  970SOL    HW1 2909   1.003   2.092   1.777 -3.8851 -2.3081  3.4151
  970SOL    HW2 2910   1.121   2.126   1.895  1.3115  0.4734  2.3215
  971SOL     OW 2911   2.836   2.141   1.917  0.3633  0.4717  0.0850
  971SOL    HW1 2912   2.840   2.233   1.958 -2.1827 -0.1148  1.5276
  971SOL    HW2 2913   2.924   2.129   1.867  0.3555  0.6401  1.4162
  972SOL     OW 2914   2.056   2.478   0.276 -0.3823  0.3642 -0.8751
  972SOL    HW1 2915   2.055   2.416   0.198 -1.3472  1.0224  2.2656
  972SOL    HW2 2916   2.041   2.432   0.367  2.4975  0.1133  0.3606
  973SOL     OW 2917   1.308   1.043   1.848 -0.2841  0.3107 -0.6306
  973SOL    HW1 2918   1.234   1.015   1.780  1.0981 -1.0519  0.8399
  973SOL    HW2 2919   1.296   1.142   1.884 -0.6057  3.9333  0.5823
  974SOL     OW 2920   1.636   0.561   2.013 -0.1732  0.7582  0.4258
  974SOL    HW1 2921   1.725   0.600   1.992  0.2167 -2.2686 -0.7898
  974SOL    HW2 2922   1.560   0.628   2.013 -1.4952  1.3349  2.0276
  975SOL     OW 2923   2.462   3.050   3.080  0.0918 -0.1939 -0.4378
  975SOL    HW1 2924   2.409   2.997   3.154 -1.2961  0.1791  0.6284
  975SOL    HW2 2925   2.473   3.001   2.986 -2.8468  1.2894  0.4231
  976SOL     OW 2926   1.973   2.921   2.364  0.2022 -0.0564  0.3323
  976SOL    HW1 2927   1.909   2.875   2.426  1.6653  2.8851 -3.7921
  976SOL    HW2 2928   2.069   2.918   2.403 -2.1819 -0.4013  4.6578
  977SOL     OW 2929   0.484   0.551   0.978 -0.2224 -0.6358 -0.4668
  977SOL    HW1 2930   0.399   0.540   0.918 -1.0273 -0.2554 -2.8409
  977SOL    HW2 2931   0.569   0.540   0.922 -5.1332 -1.2826 -0.6180
   3.10000   3.10000   3.10000
