1000 SPC/Fw water molecules t=   1.80000 step= 1800
 2931
    1SOL     OW    1   2.521   0.354   2.659  0.0922 -0.6873 -0.3697
    1SOL    HW1    2   2.529   0.254   2.632 -1.2154 -1.2082  1.1715
    1SOL    HW2    3   2.592   0.384   2.734  1.5608  2.2546 -0.2539
    2SOL     OW    4   2.715   2.892   1.376 -0.0899 -0.7156 -0.2486
    2SOL    HW1    5   2.809   2.915   1.338 -1.7851 -1.9385  2.4519
    2SOL    HW2    6   2.710   2.899   1.479 -0.5834 -3.0706 -2.2751
    3SOL     OW    7   2.725   2.447   0.401  0.3942 -0.4710  0.2351
    3SOL    HW1    8   2.631   2.400   0.401 -1.4527  0.4736  3.5534
    3SOL    HW2    9   2.735   2.504   0.485 -0.3096  1.6254 -0.3709
    4SOL     OW   10   1.278   1.533   2.449 -0.8536 -0.0711  0.3881
    4SOL    HW1   11   1.204   1.550   2.378  2.6738  2.4106 -2.6138
    4SOL    HW2   12   1.240   1.486   2.537 -1.8910 -2.1976 -1.2728
    5SOL     OW   13   1.127   1.578   2.959  0.4215 -0.2359 -1.1218
    5SOL    HW1   14   1.169   1.670   2.984  0.5501  1.2928  0.7079
    5SOL    HW2   15   1.030   1.584   2.927 -2.1184  0.9958 -1.0265
    6SOL     OW   16   0.211   1.847   0.014 -1.1922  0.2295  0.9298
    6SOL    HW1   17   0.126   1.875   0.062  0.2002  0.7309 -2.7160
    6SOL    HW2   18   0.265   1.765   0.048 -2.2945  0.3188  0.3137
    7SOL     OW   19   2.515   0.925   1.072  0.3351 -0.0985 -0.3514
    7SOL    HW1   20   2.423   0.878   1.073  1.3833  0.5251 -1.9824
    7SOL    HW2   21   2.554   0.926   0.975 -1.4924 -0.0868 -1.0137
    8SOL     OW   22   0.410   0.690   1.510  0.1119  0.8815 -0.6707
    8SOL    HW1   23   0.506   0.654   1.522  0.6345  1.4811  0.3263
    8SOL    HW2   24   0.408   0.760   1.432  2.4035 -0.0943 -1.7596
    9SOL     OW   25   1.112   0.899   2.344 -0.7557  0.2260  0.1008
    9SOL    HW1   26   1.191   0.908   2.272  3.3775 -1.1534 -3.7845
    9SOL    HW2   27   1.087   0.797   2.349 -4.1056  0.0057 -0.8927
   10SOL     OW   28   0.659   1.410   1.271 -0.3023  0.8865  0.3015
   10SOL    HW1   29   0.590   1.390   1.192 -0.9891  1.7577 -1.2710
   10SOL    HW2   30   0.654   1.507   1.298  0.6215 -2.1428 -1.1335
   11SOL     OW   31   2.314   2.847   0.919 -0.1916 -0.9814  0.3146
   11SOL    HW1   32   2.259   2.818   0.996 -0.8623  2.3960 -0.4179
   11SOL    HW2   33   2.410   2.883   0.944  2.8905  1.6675  1.3837
   12SOL     OW   34   1.478   0.845   0.485 -0.0205 -0.1240  0.0020
   12SOL    HW1   35   1.389   0.883   0.446 -0.2106 -0.5899  1.3071
   12SOL    HW2   36   1.541   0.793   0.418 -2.6052 -0.5717 -1.6664
   13SOL     OW   37   2.450   0.740   1.796 -0.5835  0.1488  0.3467
   13SOL    HW1   38   2.381   0.682   1.844  1.7241  1.7272  0.5099
   13SOL    HW2   39   2.484   0.699   1.703  1.7171 -0.6100 -0.2017
   14SOL     OW   40   1.942   3.057   0.592 -0.1820 -0.2470  0.2277
   14SOL    HW1   41   1.849   3.103   0.564  0.2812  0.3243  0.3264
   14SOL    HW2   42   1.952   3.067   0.693 -1.1665 -1.7430 -2.1877
   15SOL     OW   43   1.917   2.142   2.673 -0.5900 -0.6284  0.1241
   15SOL    HW1   44   1.844   2.128   2.750  0.2011  1.1540 -0.9566
   15SOL    HW2   45   1.933   2.053   2.625 -2.5601  1.2936  1.7010
   16SOL     OW   46   1.555   1.779   3.043 -0.0999  0.4355 -0.2342
   16SOL    HW1   47   1.531   1.747   3.136 -1.2550 -3.7307 -2.2650
   16SOL    HW2   48   1.656   1.789   3.029 -1.2792 -0.6461 -2.2019
   17SOL     OW   49   0.108   0.471   0.171 -0.4151 -0.1228  0.0814
   17SOL    HW1   50   0.205   0.500   0.171  0.2593  0.7547  1.0856
   17SOL    HW2   51   0.056   0.481   0.084  0.7209 -1.4698 -0.5626
   18SOL     OW   52   0.888   2.864   2.165 -0.6400 -0.3987  0.2883
   18SOL    HW1   53   0.875   2.771   2.215  0.7476 -1.6584  1.8146
   18SOL    HW2   54   0.984   2.873   2.127  0.1639 -1.6681 -0.8312
   19SOL     OW   55   0.522   0.957   1.909 -0.0690  0.2858  0.4633
   19SOL    HW1   56   0.567   0.903   1.982 -1.9233  1.6807 -0.2214
   19SOL    HW2   57   0.588   1.024   1.865 -0.5734 -0.5546 -0.0704
   20SOL     OW   58   0.247   2.795   0.738 -0.0867 -0.3287 -0.7689
   20SOL    HW1   59   0.147   2.806   0.750  0.4919 -0.9612 -0.7263
   20SOL    HW2   60   0.281   2.698   0.700  2.4520 -1.3885 -0.3956
   21SOL     OW   61   2.782   0.280   2.015  0.0730  0.3051 -0.1172
   21SOL    HW1   62   2.740   0.194   1.978 -0.8840  1.4279 -0.6793
   21SOL    HW2   63   2.873   0.264   2.061 -0.3817 -1.3310 -1.6750
   22SOL     OW   64   2.396   0.177   0.132  0.6025  0.1063 -0.5263
   22SOL    HW1   65   2.408   0.086   0.086  3.2963 -3.7076 -0.0595
   22SOL    HW2   66   2.327   0.236   0.082  0.0635  1.3264  0.8383
   23SOL     OW   67   2.823   0.521   0.675 -0.0954  0.0988 -0.5163
   23SOL    HW1   68   2.858   0.427   0.654  0.0255 -0.1399  2.6246
   23SOL    HW2   69   2.816   0.584   0.597  1.0381 -4.6857 -1.3339
   24SOL     OW   70   0.309   1.890   0.449 -0.2964  0.5922  0.0065
   24SOL    HW1   71   0.316   1.993   0.428 -2.3837  3.1110 -1.5598
   24SOL    HW2   72   0.391   1.836   0.417 -0.8107  0.8165 -3.4200
   25SOL     OW   73   2.304   0.599   0.227 -0.1598 -0.0057  0.3329
   25SOL    HW1   74   2.291   0.589   0.124  0.9699 -0.0053  0.5203
   25SOL    HW2   75   2.352   0.517   0.272 -0.1651  0.4798  1.6500
   26SOL     OW   76   2.443   2.162   2.081  0.0463 -0.4445  0.0093
   26SOL    HW1   77   2.532   2.195   2.124  0.3692  1.6682 -1.1561
   26SOL    HW2   78   2.460   2.089   2.011 -0.8901  0.3743 -0.2427
   27SOL     OW   79   0.638   3.020   0.122  0.0965 -0.3778  0.0706
   27SOL    HW1   80   0.735   3.069   0.112 -1.5782 -2.5592 -1.2625
   27SOL    HW2   81   0.588   3.010   0.032 -0.6028  1.2426  2.6419
   28SOL     OW   82   1.577   0.167   0.325 -0.1505  0.2414  0.6628
   28SOL    HW1   83   1.618   0.121   0.237 -0.9083  0.4719  0.4289
   28SOL    HW2   84   1.633   0.241   0.370  0.5627 -0.1209  2.2633
   29SOL     OW   85   2.012   0.548   0.316  0.3271 -0.1176  0.0702
   29SOL    HW1   86   1.982   0.616   0.390 -2.0815  3.0195 -0.9281
   29SOL    HW2   87   2.112   0.557   0.297 -0.8654 -0.8392 -1.2472
   30SOL     OW   88   0.191   2.112   0.911 -0.6801  0.4938 -0.8532
   30SOL    HW1   89   0.169   2.043   0.838  1.0661  2.8812 -0.5658
   30SOL    HW2   90   0.105   2.159   0.944 -0.3405 -1.5725 -0.3993
   31SOL     OW   91   2.087   0.090   2.406 -0.0081  0.2008 -0.6106
   31SOL    HW1   92   2.049   0.073   2.501  1.2740  1.6888 -0.7236
   31SOL    HW2   93   2.054   0.027   2.329  0.1346 -0.3871 -1.9983
   32SOL     OW   94   3.078   3.058   0.253 -0.1804  0.1976 -0.3018
   32SOL    HW1   95   3.044   2.962   0.265  0.5137  0.4095  1.5076
   32SOL    HW2   96   3.181   3.057   0.240 -0.6095 -0.8321  0.9239
   33SOL     OW   97   0.877   0.267   0.636 -0.5222  0.6581 -0.2970
   33SOL    HW1   98   0.874   0.198   0.560 -1.5413  1.8167  0.0109
   33SOL    HW2   99   0.965   0.318   0.629 -4.0335 -1.0774 -0.2808
   34SOL     OW  100   0.319   2.666   1.031 -0.2749 -0.3710  0.5108
   34SOL    HW1  101   0.309   2.716   0.941  1.6046 -0.0381 -0.1684
   34SOL    HW2  102   0.408   2.697   1.079 -0.8092  1.1449  0.0180
   35SOL     OW  103   0.075   0.177   1.897  0.5499  0.9388 -0.6348
   35SOL    HW1  104   0.099   0.089   1.951  0.3153 -0.1398  2.1217
   35SOL    HW2  105   0.039   0.164   1.801  0.5116  2.8346 -0.7076
   36SOL     OW  106   1.882   1.219   1.501 -0.4213 -0.2702  0.3040
   36SOL    HW1  107   1.952   1.158   1.543  0.0930  1.0818  0.4666
   36SOL    HW2  108   1.924   1.295   1.440 -1.3136 -1.5246 -1.4596
   37SOL     OW  109   1.147   0.266   1.009  0.2177  0.5929  0.1336
   37SOL    HW1  110   1.160   0.361   0.975  1.1106 -4.0359 -0.8101
   37SOL    HW2  111   1.208   0.200   0.957  1.0299  0.1634  0.8401
   38SOL     OW  112   1.148   2.825   2.457 -0.5925 -0.9329 -0.2919
   38SOL    HW1  113   1.071   2.787   2.512 -1.0590  0.3785  0.6109
   38SOL    HW2  114   1.131   2.920   2.418 -0.8001 -1.7514  2.2928
   39SOL     OW  115   2.471   1.406   2.983 -0.6000 -0.4691  0.1953
   39SOL    HW1  116   2.550   1.345   3.008  0.4896 -0.8843 -1.4214
   39SOL    HW2  117   2.384   1.373   3.030  0.8529 -2.8293  0.1480
   40SOL     OW  118   2.044   2.524   2.512  0.0669 -0.1840  0.0561
   40SOL    HW1  119   1.989   2.610   2.525  2.8470 -0.8896  0.4238
   40SOL    HW2  120   1.997   2.439   2.477  0.8522 -1.1197 -3.6246
   41SOL     OW  121   3.028   0.708   2.821  0.1309 -0.2595  0.2889
   41SOL    HW1  122   2.998   0.797   2.870 -2.6307  1.4858  1.6609
   41SOL    HW2  123   2.952   0.666   2.767 -0.3966  0.5781  2.0963
   42SOL     OW  124   1.712   1.765   0.486 -0.4134  0.3274 -0.1630
   42SOL    HW1  125   1.687   1.664   0.495 -0.1565  0.2690 -0.0553
   42SOL    HW2  126   1.722   1.788   0.384  1.7852  0.2897  0.8640
   43SOL     OW  127   0.490   1.686   1.122  0.0885  0.0545 -0.2177
   43SOL    HW1  128   0.489   1.589   1.097 -2.4899  1.5698  1.9450
   43SOL    HW2  129   0.423   1.703   1.199  0.6295 -1.3744 -0.9416
   44SOL     OW  130   1.677   2.345   2.931  0.1799  0.4172  0.3604
   44SOL    HW1  131   1.606   2.415   2.962  1.1688  1.6776 -0.5787
   44SOL    HW2  132   1.739   2.383   2.856 -0.9989 -0.4817 -0.4831
   45SOL     OW  133   0.360   1.904   2.645  0.0173  0.4001  0.1255
   45SOL    HW1  134   0.295   1.867   2.575 -1.2915 -0.2443 -0.5354
   45SOL    HW2  135   0.442   1.842   2.665 -3.0442 -4.7690  0.7077
   46SOL     OW  136   1.334   0.727   0.239  0.0556 -0.1060 -0.2766
   46SOL    HW1  137   1.300   0.793   0.173  1.2883 -0.7171  1.8861
   46SOL    HW2  138   1.304   0.635   0.208 -2.4738  1.0623  0.0226
   47SOL     OW  139   0.136   2.374   1.609  0.2407 -0.0820 -0.2416
   47SOL    HW1  140   0.056   2.318   1.650  0.4126 -1.4236  0.4417
   47SOL    HW2  141   0.139   2.374   1.505  1.9643  2.2415 -0.3122
   48SOL     OW  142   2.631   0.747   0.137 -0.0164 -0.1244  0.3934
   48SOL    HW1  143   2.620   0.692   0.228 -0.3579 -0.5856  0.4223
   48SOL    HW2  144   2.731   0.759   0.107  0.8481 -0.2709 -2.1050
   49SOL     OW  145   0.339   0.852   1.745 -0.4262 -0.0847 -0.2931
   49SOL    HW1  146   0.402   0.898   1.812 -3.8240 -0.2314  0.0003
   49SOL    HW2  147   0.387   0.791   1.677  2.0567 -0.3259  0.8365
   50SOL     OW  148   1.696   1.099   0.313 -0.5517  0.0971 -0.0202
   50SOL    HW1  149   1.733   1.003   0.291  3.3965  0.9267  0.6782
   50SOL    HW2  150   1.658   1.109   0.411 -0.4508  0.9777  1.8481
   51SOL     OW  151   2.990   1.748   0.305  0.4532  0.2621 -0.1016
   51SOL    HW1  152   2.929   1.668   0.287  3.8264 -0.2105 -1.0523
   51SOL    HW2  153   3.072   1.727   0.367  0.1558  1.5075  0.9985
   52SOL     OW  154   0.772   2.155   0.576  0.2382 -0.0220  0.4453
   52SOL    HW1  155   0.684   2.198   0.606  0.2891  0.0763 -1.7179
   52SOL    HW2  156   0.807   2.081   0.643  0.3585 -1.8009  0.8996
   53SOL     OW  157   0.303   0.446   1.438 -0.4703  0.5938  0.1700
   53SOL    HW1  158   0.338   0.540   1.465  1.4186 -0.1996 -1.4573
   53SOL    HW2  159   0.261   0.439   1.344 -0.4433  0.2885  0.9385
   54SOL     OW  160   1.738   0.420   0.001 -0.4401 -0.3995  0.1504
   54SOL    HW1  161   1.809   0.374   0.063  0.6011  0.0902  1.0937
   54SOL    HW2  162   1.642   0.413   0.041 -1.1442  1.1954 -1.3012
   55SOL     OW  163   0.794   2.957   0.622 -0.3285  0.0459 -0.2994
   55SOL    HW1  164   0.740   3.042   0.600  0.6097  0.9739  0.5439
   55SOL    HW2  165   0.890   2.950   0.586  0.1501 -2.4807  2.2653
   56SOL     OW  166   0.531   1.541   3.035 -0.1780  0.1551 -0.7101
   56SOL    HW1  167   0.442   1.566   3.089 -3.4790  1.2811  0.3358
   56SOL    HW2  168   0.510   1.463   2.969  0.2119 -0.6140 -0.6103
   57SOL     OW  169   1.680   2.472   2.349  0.9862 -0.0361 -0.1427
   57SOL    HW1  170   1.746   2.392   2.353  0.1685  0.1474  1.4825
   57SOL    HW2  171   1.630   2.491   2.440 -2.4005 -1.2035 -1.2761
   58SOL     OW  172   0.628   0.206   1.105 -0.5032  0.0227 -0.2077
   58SOL    HW1  173   0.538   0.186   1.152 -2.4242 -4.6287 -2.8813
   58SOL    HW2  174   0.681   0.118   1.078  1.6345 -0.0940  0.6446
   59SOL     OW  175   0.466   2.372   2.568 -0.0852  0.5113 -0.8286
   59SOL    HW1  176   0.493   2.272   2.588  0.4996 -1.9310 -0.3545
   59SOL    HW2  177   0.539   2.440   2.594 -3.1761 -0.2360  1.0537
   60SOL     OW  178   2.292   2.048   2.298  0.3499  0.0125  0.4195
   60SOL    HW1  179   2.355   2.086   2.226 -0.3612  1.5077  0.6280
   60SOL    HW2  180   2.299   2.106   2.386 -0.3440  1.9116  2.0121
   61SOL     OW  181   1.202   0.648   0.472  0.6755 -0.4769  0.4735
   61SOL    HW1  182   1.101   0.657   0.505 -1.9051 -0.8470 -1.8654
   61SOL    HW2  183   1.221   0.701   0.387 -0.9077 -1.5899 -0.4096
   62SOL     OW  184   2.799   1.687   2.705 -0.0564 -0.3936  0.1360
   62SOL    HW1  185   2.750   1.607   2.672  2.5832  0.3840  0.2791
   62SOL    HW2  186   2.856   1.670   2.791 -2.2878  1.1296  2.6803
   63SOL     OW  187   0.543   0.882   0.169  0.2853 -0.3668 -0.4523
   63SOL    HW1  188   0.573   0.960   0.105  1.2299 -1.9450  1.5202
   63SOL    HW2  189   0.618   0.862   0.236  1.0152 -0.6017 -0.6437
   64SOL     OW  190   3.004   0.545   2.368  0.3618 -0.4257  0.4733
   64SOL    HW1  191   2.950   0.591   2.441  0.3018 -2.0086  1.9853
   64SOL    HW2  192   3.022   0.606   2.288  1.0269  1.5394 -1.3513
   65SOL     OW  193   0.212   1.424   0.654 -0.5779 -0.1987 -1.0859
   65SOL    HW1  194   0.195   1.516   0.707  0.3736 -1.1779  0.8079
   65SOL    HW2  195   0.251   1.438   0.560 -1.3961 -0.9862  2.2690
   66SOL     OW  196   2.596   0.325   0.521  0.1216 -0.1506 -0.0999
   66SOL    HW1  197   2.693   0.298   0.519 -1.8249 -0.3039 -1.9906
   66SOL    HW2  198   2.537   0.265   0.581  0.9504  1.6820 -4.6686
   67SOL     OW  199   0.586   2.495   1.498 -0.3041 -0.1566  0.6771
   67SOL    HW1  200   0.678   2.463   1.543  2.3904 -2.3402 -1.7117
   67SOL    HW2  201   0.517   2.421   1.485  0.3323  1.6518  0.4864
   68SOL     OW  202   0.912   1.054   2.506 -0.2221 -0.5306  0.1629
   68SOL    HW1  203   0.982   0.998   2.456  0.1721  1.0233  0.6827
   68SOL    HW2  204   0.862   1.109   2.435  0.6703  0.4655  0.1332
   69SOL     OW  205   0.787   2.591   2.360 -0.4524  0.0626  0.3139
   69SOL    HW1  206   0.797   2.542   2.269 -1.6606 -0.9967 -2.2173
   69SOL    HW2  207   0.697   2.638   2.374 -0.2964  0.8655 -2.5632
   70SOL     OW  208   0.490   0.153   2.587  0.4825 -0.2725  0.2375
   70SOL    HW1  209   0.407   0.119   2.643 -0.5333 -0.4700  1.3165
   70SOL    HW2  210   0.571   0.088   2.574  1.0166 -0.1952 -0.6663
   71SOL     OW  211   1.062   1.758   0.296 -0.0792 -0.2488 -0.2723
   71SOL    HW1  212   0.994   1.794   0.362  0.6324  0.7600 -3.4150
   71SOL    HW2  213   1.025   1.764   0.199  1.1529  1.8605  1.1568
   72SOL     OW  214   1.865   0.261   2.140 -0.3925 -0.3670 -0.0243
   72SOL    HW1  215   1.936   0.336   2.116 -1.8963  1.0396 -0.2667
   72SOL    HW2  216   1.914   0.165   2.163  0.8324 -1.5985  0.7638
   73SOL     OW  217   2.743   2.205   2.487 -0.0026 -0.1443 -0.3511
   73SOL    HW1  218   2.706   2.119   2.447 -0.7357  0.4982  1.5590
   73SOL    HW2  219   2.815   2.190   2.561 -0.6086 -2.5104 -0.7641
   74SOL     OW  220   2.711   2.960   2.143 -0.7303  0.2921  0.6857
   74SOL    HW1  221   2.631   2.942   2.202  1.7467  0.9801 -1.4985
   74SOL    HW2  222   2.795   3.001   2.187 -0.4496  0.3720 -0.5347
   75SOL     OW  223   0.930   0.793   1.170 -0.1514 -0.3193 -0.1106
   75SOL    HW1  224   0.828   0.807   1.147 -1.1314 -0.9964  0.2371
   75SOL    HW2  225   0.955   0.861   1.249  1.5959 -0.8800  0.8100
   76SOL     OW  226   1.852   1.260   2.634 -0.4183  0.1290 -0.2080
   76SOL    HW1  227   1.761   1.229   2.682 -3.6590  1.5949 -0.0641
   76SOL    HW2  228   1.861   1.364   2.633  0.1123  0.8408  1.9002
   77SOL     OW  229   2.925   0.918   1.036  0.2239 -0.3398 -0.4029
   77SOL    HW1  230   2.873   0.827   1.047 -0.0757 -0.3788 -0.9833
   77SOL    HW2  231   3.019   0.919   1.081 -0.4448 -0.3442  0.8380
   78SOL     OW  232   1.942   1.425   1.339 -0.1320  0.3143  0.1102
   78SOL    HW1  233   2.031   1.426   1.286  1.5340  0.7912 -1.3770
   78SOL    HW2  234   1.863   1.451   1.277  1.2469  0.4245  1.5904
   79SOL     OW  235   0.696   1.464   0.843 -0.3688  0.1171 -0.0757
   79SOL    HW1  236   0.594   1.434   0.839 -3.1654 -1.3451 -4.4143
   79SOL    HW2  237   0.760   1.378   0.838  0.7010  0.0234  1.0317
   80SOL     OW  238   0.675   0.477   1.607  0.4246  0.3139  0.1448
   80SOL    HW1  239   0.685   0.512   1.511  0.3605 -0.6686 -0.9620
   80SOL    HW2  240   0.707   0.377   1.603 -0.7385  0.0643  0.4808
   81SOL     OW  241   1.076   1.284   2.501 -0.0951  0.5490 -0.0830
   81SOL    HW1  242   1.023   1.202   2.541 -0.9227  2.4336  1.4356
   81SOL    HW2  243   1.016   1.353   2.449  1.5953 -1.1271 -2.3366
   82SOL     OW  244   0.939   2.954   1.612  0.4279 -0.3398  0.5552
   82SOL    HW1  245   0.985   2.862   1.605 -1.5444 -0.9315 -1.4630
   82SOL    HW2  246   0.903   2.991   1.522 -0.1816  1.8663 -1.6069
   83SOL     OW  247   2.635   2.343   0.895 -0.6625 -0.4990  0.6094
   83SOL    HW1  248   2.560   2.281   0.878 -0.6169  2.2128  2.3587
   83SOL    HW2  249   2.617   2.436   0.848 -1.1784  0.7705  0.6143
   84SOL     OW  250   0.762   3.078   2.307 -0.2410 -0.2478  0.8451
   84SOL    HW1  251   0.743   3.051   2.406  1.4474  1.4600  0.3012
   84SOL    HW2  252   0.767   2.998   2.244  0.9173 -2.5611 -0.4674
   85SOL     OW  253   0.315   1.705   1.347 -0.3414 -0.2562  0.0015
   85SOL    HW1  254   0.268   1.781   1.404  3.2090 -0.3969 -0.1239
   85SOL    HW2  255   0.377   1.644   1.404 -2.4654 -1.6548 -0.5904
   86SOL     OW  256   0.450   1.044   1.407  0.4605  0.3617 -0.3075
   86SOL    HW1  257   0.428   0.968   1.337  0.1365 -0.1820 -1.2788
   86SOL    HW2  258   0.536   1.020   1.449  0.5475 -0.8232 -0.5048
   87SOL     OW  259   1.652   0.627   0.313  0.0945  0.1560  0.9149
   87SOL    HW1  260   1.706   0.715   0.303 -1.2305 -1.6258  0.0210
   87SOL    HW2  261   1.589   0.620   0.229  0.0716  0.0859  2.4183
   88SOL     OW  262   1.575   1.327   0.248 -0.4719 -0.2623 -0.4670
   88SOL    HW1  263   1.626   1.237   0.270 -0.6370  1.1514 -1.6256
   88SOL    HW2  264   1.479   1.309   0.236  3.7386 -0.9971  2.8651
   89SOL     OW  265   3.096   0.388   0.694 -0.3549 -0.1458  0.1400
   89SOL    HW1  266   3.199   0.371   0.688 -1.3839  0.0676  3.4203
   89SOL    HW2  267   3.048   0.298   0.703  1.7645 -1.3193 -1.1729
   90SOL     OW  268   0.751   1.537   0.121  0.2081  0.2135 -0.3245
   90SOL    HW1  269   0.842   1.490   0.104 -0.6108  0.5155 -1.1835
   90SOL    HW2  270   0.685   1.536   0.042  0.2066  2.9440  0.4331
   91SOL     OW  271   1.310   1.508   1.699  0.1415 -0.1908 -0.0600
   91SOL    HW1  272   1.268   1.566   1.774 -1.2103  2.2462  0.9256
   91SOL    HW2  273   1.387   1.443   1.729  3.0411 -1.1791  0.5011
   92SOL     OW  274   0.045   1.003   1.195  0.3510 -0.2332 -0.3905
   92SOL    HW1  275   0.089   1.089   1.150  4.4722  0.0812 -2.0620
   92SOL    HW2  276   0.068   0.998   1.302  1.8683 -0.1413  1.9267
   93SOL     OW  277   3.038   2.644   0.063  0.0800 -0.0377  0.0471
   93SOL    HW1  278   2.996   2.640  -0.031 -0.2697  1.8402 -2.6340
   93SOL    HW2  279   3.104   2.569   0.078 -1.4429 -2.2029 -0.1859
   94SOL     OW  280   1.524   1.339   1.676 -0.0442  1.1520 -0.1294
   94SOL    HW1  281   1.582   1.260   1.708 -2.8193 -1.4330 -1.1644
   94SOL    HW2  282   1.574   1.394   1.604 -0.0834  0.9864 -2.0971
   95SOL     OW  283   1.360   2.458   2.933  0.4754  0.2123  0.1794
   95SOL    HW1  284   1.277   2.479   2.995 -3.0275 -0.5424  0.6339
   95SOL    HW2  285   1.357   2.365   2.887 -0.8380  3.2760 -0.5072
   96SOL     OW  286   0.569   2.161   1.286  0.0562 -0.0843 -0.6001
   96SOL    HW1  287   0.533   2.123   1.198  0.0481  0.1808 -0.6409
   96SOL    HW2  288   0.597   2.086   1.353  0.6475 -1.0278 -2.3239
   97SOL     OW  289   0.249   1.589   2.389 -0.0143 -0.3264  0.0359
   97SOL    HW1  290   0.246   1.674   2.334  1.2662  1.6678  1.2171
   97SOL    HW2  291   0.268   1.602   2.492  2.7727  1.6336  0.5665
   98SOL     OW  292   2.218   1.673   1.183  0.2554 -0.3139  0.1765
   98SOL    HW1  293   2.190   1.574   1.171 -1.2966  2.9969  1.7342
   98SOL    HW2  294   2.316   1.687   1.157 -0.3316  0.1117  1.4158
   99SOL     OW  295   2.623   2.056   1.306 -0.0550  0.3056  0.0689
   99SOL    HW1  296   2.675   2.121   1.374  3.8741  0.6621  3.1075
   99SOL    HW2  297   2.552   1.995   1.350 -0.0845  0.4261 -0.2236
  100SOL     OW  298   2.330   0.352   2.126 -0.0831  0.0526 -0.2457
  100SOL    HW1  299   2.293   0.338   2.223 -0.0873  1.5269  0.6041
  100SOL    HW2  300   2.431   0.370   2.129 -2.1122  1.0113 -0.5838
  101SOL     OW  301   0.350   1.495   0.431 -0.4004  1.3155  0.2402
  101SOL    HW1  302   0.367   1.582   0.485  1.6633 -1.0118 -1.4406
  101SOL    HW2  303   0.446   1.461   0.409 -0.6764  1.0943  1.8601
  102SOL     OW  304   2.267   1.069   0.882  0.1389 -0.3836  0.1544
  102SOL    HW1  305   2.255   0.968   0.868  2.1348  1.6629  1.6385
  102SOL    HW2  306   2.333   1.109   0.806  4.3822  1.6327  0.6690
  103SOL     OW  307   2.265   0.083   0.379 -0.6558 -0.3907  0.1768
  103SOL    HW1  308   2.304   0.124   0.297 -2.2150  1.9529  0.8493
  103SOL    HW2  309   2.331   0.021   0.434  2.9197 -0.7667 -0.0891
  104SOL     OW  310   3.068   1.808   2.215 -0.0182  0.4272 -0.2829
  104SOL    HW1  311   3.122   1.792   2.128  2.2617 -2.1988 -1.5512
  104SOL    HW2  312   2.984   1.859   2.196  2.3889 -1.5581  1.7706
  105SOL     OW  313   1.297   2.094   0.762 -0.4849 -0.1311  0.2295
  105SOL    HW1  314   1.283   2.152   0.679 -0.4336  0.8177  1.9540
  105SOL    HW2  315   1.360   2.017   0.745  1.7337  0.9422  2.0303
  106SOL     OW  316   2.128   0.407   1.439  0.0451  0.0480 -0.1614
  106SOL    HW1  317   2.045   0.342   1.438 -1.6584 -1.8091  2.0551
  106SOL    HW2  318   2.158   0.422   1.537 -4.0405  1.4501  0.7832
  107SOL     OW  319   1.922   2.912   1.161 -0.3415  0.4839 -0.0056
  107SOL    HW1  320   1.863   2.996   1.189  1.4513  1.1729  2.2140
  107SOL    HW2  321   1.873   2.832   1.122  1.2584  1.1994  0.5770
  108SOL     OW  322   0.866   2.798   1.105  0.3250 -0.6029 -0.5533
  108SOL    HW1  323   0.849   2.720   1.036 -1.0741  0.6938 -1.2548
  108SOL    HW2  324   0.965   2.799   1.139 -0.0792  0.1545 -0.8014
  109SOL     OW  325   2.182   0.155   0.732  0.2028 -0.2649  0.1870
  109SOL    HW1  326   2.102   0.102   0.690  0.5831  0.3080 -0.2272
  109SOL    HW2  327   2.172   0.167   0.833  0.8039  1.6319 -1.2076
  110SOL     OW  328   0.502   2.823   2.749 -0.2789 -0.2939 -0.1492
  110SOL    HW1  329   0.502   2.797   2.651 -0.4724 -1.9467  1.2875
  110SOL    HW2  330   0.567   2.760   2.804 -0.7390  0.8494  0.0413
  111SOL     OW  331   1.327   0.598   2.308  0.1098  0.3384  0.8067
  111SOL    HW1  332   1.224   0.614   2.317 -0.5978  2.0218 -1.3944
  111SOL    HW2  333   1.359   0.510   2.350  0.4872  2.2399 -0.2619
  112SOL     OW  334   1.736   0.505   1.536 -0.1874  0.5432 -0.0167
  112SOL    HW1  335   1.718   0.547   1.440 -0.5623  2.9002 -0.8346
  112SOL    HW2  336   1.661   0.515   1.600  4.0924  4.0787 -1.5183
  113SOL     OW  337   2.273   1.689   1.799 -0.7145  0.1852  0.2332
  113SOL    HW1  338   2.332   1.610   1.760  0.7507 -0.6127 -3.0047
  113SOL    HW2  339   2.278   1.690   1.902 -1.4438 -0.2217 -0.6184
  114SOL     OW  340   0.257   0.392   1.157  1.4414 -0.0456  0.0809
  114SOL    HW1  341   0.153   0.384   1.168 -1.1708  1.1673  1.4322
  114SOL    HW2  342   0.287   0.435   1.073  2.0713  0.9791  0.9222
  115SOL     OW  343   2.670   1.546   1.251 -0.4924  0.1033 -0.3022
  115SOL    HW1  344   2.653   1.445   1.266 -0.4048 -1.3039 -1.3509
  115SOL    HW2  345   2.756   1.570   1.201  0.2856 -0.0022  3.8375
  116SOL     OW  346   1.918   0.914   0.705 -0.6277  0.1190 -0.8584
  116SOL    HW1  347   1.823   0.875   0.705 -0.9013  2.0381 -0.6384
  116SOL    HW2  348   1.912   1.012   0.727 -0.0694 -0.7587 -1.4932
  117SOL     OW  349   1.135   0.355   0.572  0.0483 -0.0964  0.4303
  117SOL    HW1  350   1.184   0.442   0.600  1.4096  3.5812  0.0258
  117SOL    HW2  351   1.113   0.366   0.470 -0.1813 -0.2893 -0.0653
  118SOL     OW  352   1.142   1.220   1.081 -0.1140  0.0338 -0.3305
  118SOL    HW1  353   1.056   1.231   1.135  0.0550  0.8818  1.6089
  118SOL    HW2  354   1.204   1.301   1.092 -0.8862 -3.1005 -2.0500
  119SOL     OW  355   1.880   1.602   2.184  0.2135  0.4056 -0.6429
  119SOL    HW1  356   1.838   1.671   2.121  1.3793  2.5590 -0.4034
  119SOL    HW2  357   1.970   1.568   2.140  0.1643  0.4873  2.0534
  120SOL     OW  358   2.963   2.817   0.272 -0.4517  0.0401  0.2543
  120SOL    HW1  359   2.979   2.745   0.201 -0.3106  1.6911 -0.3210
  120SOL    HW2  360   2.861   2.819   0.297  1.4831 -1.1311  0.1946
  121SOL     OW  361   1.988   0.781   2.332 -0.5822  0.3474  0.1938
  121SOL    HW1  362   2.016   0.864   2.276 -0.6491  0.0568  0.5762
  121SOL    HW2  363   2.003   0.693   2.278  0.7490 -1.4687 -0.9799
  122SOL     OW  364   2.632   2.489   1.362 -0.4094 -0.3330  0.1770
  122SOL    HW1  365   2.678   2.419   1.298  2.1343 -0.1233  1.2852
  122SOL    HW2  366   2.631   2.457   1.459 -1.3780  2.2191 -2.6256
  123SOL     OW  367   1.651   0.179   1.650 -0.0601  0.0257 -0.3764
  123SOL    HW1  368   1.676   0.084   1.619 -1.6806  0.3236  1.3052
  123SOL    HW2  369   1.722   0.223   1.711 -0.8074  1.5831 -1.3653
  124SOL     OW  370   3.063   0.397   1.170 -1.2045 -0.0374 -0.4163
  124SOL    HW1  371   2.993   0.454   1.218  2.0572 -0.4732  1.0275
  124SOL    HW2  372   3.078   0.435   1.072 -1.9943 -0.0099  1.9231
  125SOL     OW  373   0.888   1.990   0.756 -0.1012  0.1425 -0.3035
  125SOL    HW1  374   0.982   1.956   0.792  0.6503 -2.2975 -1.0082
  125SOL    HW2  375   0.823   2.012   0.830 -2.2252 -2.0551 -0.3919
  126SOL     OW  376   1.898   2.288   2.435 -0.0003  0.0699 -0.6211
  126SOL    HW1  377   1.948   2.231   2.362  0.8930  0.5079  0.6132
  126SOL    HW2  378   1.882   2.245   2.527 -0.1332  1.1884 -1.6977
  127SOL     OW  379   0.907   0.962   0.171  0.4189  0.1502  0.2241
  127SOL    HW1  380   0.931   1.016   0.257  0.1468 -3.8361  0.7850
  127SOL    HW2  381   0.937   0.864   0.178 -2.5233 -2.0196 -1.1332
  128SOL     OW  382   0.927   0.184   1.377  0.1242 -0.0411 -0.0643
  128SOL    HW1  383   0.902   0.265   1.312 -2.9083  2.8180  0.0092
  128SOL    HW2  384   0.875   0.095   1.357 -3.9143 -1.4111 -1.2212
  129SOL     OW  385   1.892   0.715   1.867  0.0043 -0.4195  0.4877
  129SOL    HW1  386   1.918   0.686   1.774  1.2899  1.2494  0.2778
  129SOL    HW2  387   1.907   0.818   1.886  0.4836 -1.1674  2.1063
  130SOL     OW  388   1.397   2.159   1.023 -0.0391 -0.1030 -0.2490
  130SOL    HW1  389   1.341   2.116   0.945 -1.1118 -0.4519  1.0866
  130SOL    HW2  390   1.451   2.243   0.994 -0.7982 -0.3564 -1.0222
  131SOL     OW  391   3.024   1.396   1.444  0.1649 -0.0675  0.3217
  131SOL    HW1  392   2.961   1.318   1.435 -1.6912  0.0688 -0.4108
  131SOL    HW2  393   3.121   1.375   1.410  4.2417  0.4185  0.1444
  132SOL     OW  394   2.063   2.427   0.543 -0.0036  0.2366  0.0461
  132SOL    HW1  395   1.969   2.466   0.556  1.9778 -0.6573  0.2300
  132SOL    HW2  396   2.075   2.332   0.589  1.3617 -1.4409  0.5949
  133SOL     OW  397   1.777   2.497   2.714  0.0113 -0.4221 -0.3246
  133SOL    HW1  398   1.685   2.500   2.668 -0.8367 -0.9410 -1.0831
  133SOL    HW2  399   1.795   2.586   2.771 -1.7638  2.6344 -0.4530
  134SOL     OW  400   2.614   2.417   1.644 -0.1406 -0.0306  0.5943
  134SOL    HW1  401   2.575   2.387   1.736  0.0435  2.2575 -1.2131
  134SOL    HW2  402   2.667   2.507   1.646 -2.7735 -0.3026  0.2463
  135SOL     OW  403   0.808   1.334   2.678  0.1500  0.0733  0.4297
  135SOL    HW1  404   0.731   1.282   2.717  0.2868 -0.7615 -0.1060
  135SOL    HW2  405   0.784   1.360   2.582  1.5708  0.2906  3.3801
  136SOL     OW  406   1.217   2.003   0.420  0.2324  0.1162  0.2973
  136SOL    HW1  407   1.141   2.072   0.452 -0.0169 -0.1700  0.2668
  136SOL    HW2  408   1.183   1.903   0.419  1.0752 -0.6544  0.8836
  137SOL     OW  409   0.464   1.166   2.301  0.6938 -0.3187 -0.2984
  137SOL    HW1  410   0.366   1.137   2.284 -1.0693 -1.4375  0.3666
  137SOL    HW2  411   0.522   1.086   2.323  0.7767  0.7021  0.9008
  138SOL     OW  412   2.435   1.483   0.275 -0.5427 -0.2593  0.4126
  138SOL    HW1  413   2.383   1.439   0.200  1.5066  3.8534 -0.5524
  138SOL    HW2  414   2.509   1.419   0.320  3.4709  1.8578 -0.9375
  139SOL     OW  415   1.899   2.649   1.563  0.2364  0.0904 -0.4984
  139SOL    HW1  416   1.799   2.673   1.537 -1.8480  1.1680  0.1057
  139SOL    HW2  417   1.950   2.581   1.497 -0.9334 -1.3137 -0.3660
  140SOL     OW  418   3.002   2.964   2.609  0.5949  0.2830  0.4403
  140SOL    HW1  419   3.043   2.867   2.625  1.6073  1.1489  1.8066
  140SOL    HW2  420   3.047   3.020   2.528 -0.9053  0.5272  0.6123
  141SOL     OW  421   1.295   1.641   1.432 -0.2868  0.1050 -0.7875
  141SOL    HW1  422   1.194   1.655   1.414 -2.0881 -0.3229 -0.8841
  141SOL    HW2  423   1.304   1.560   1.499 -3.0058  0.6415  0.7123
  142SOL     OW  424   1.593   0.669   2.238 -0.1108 -0.4919  0.2907
  142SOL    HW1  425   1.598   0.644   2.141 -1.8004  1.0453 -0.0281
  142SOL    HW2  426   1.494   0.660   2.269 -0.2498  0.1177  2.1674
  143SOL     OW  427   2.773   0.776   0.542  0.9934 -0.1443  0.3948
  143SOL    HW1  428   2.820   0.827   0.466  0.7372 -1.8994  3.2812
  143SOL    HW2  429   2.799   0.818   0.635 -0.2514  2.8060  1.5462
  144SOL     OW  430   2.912   1.138   1.431  0.2358 -0.4009 -0.0217
  144SOL    HW1  431   2.867   1.113   1.524 -1.4727 -1.2536  1.8574
  144SOL    HW2  432   3.000   1.081   1.422 -1.1089 -2.3733 -0.3519
  145SOL     OW  433   0.922   1.777   0.058  0.8507  0.4482  0.3523
  145SOL    HW1  434   0.955   1.817  -0.032  1.3595  0.2413 -0.4374
  145SOL    HW2  435   0.863   1.690   0.049 -1.2590  0.3478  0.8000
  146SOL     OW  436   2.471   0.664   1.516  0.5893 -0.5113 -0.0165
  146SOL    HW1  437   2.463   0.557   1.521  0.0718 -0.2887  3.3824
  146SOL    HW2  438   2.407   0.714   1.455 -0.6976 -1.2784 -0.5243
  147SOL     OW  439   1.116   2.521   0.544 -0.0059  0.2253 -0.1294
  147SOL    HW1  440   1.055   2.577   0.481  1.7542 -0.5358 -3.2710
  147SOL    HW2  441   1.196   2.477   0.490  0.4474 -0.4301  1.1790
  148SOL     OW  442   1.604   1.406   3.094 -0.6599 -0.3984 -0.1384
  148SOL    HW1  443   1.599   1.310   3.057  0.0748 -0.0839  1.3387
  148SOL    HW2  444   1.581   1.402   3.196  0.2533 -0.9903 -1.0066
  149SOL     OW  445   0.684   1.499   1.980  0.5937 -0.1746 -0.2724
  149SOL    HW1  446   0.603   1.461   2.035 -2.0555  0.2789 -1.3584
  149SOL    HW2  447   0.679   1.478   1.881  3.8101 -0.8628  0.6376
  150SOL     OW  448   2.973   1.209   1.003 -0.1987 -0.1134  0.5732
  150SOL    HW1  449   3.074   1.218   1.034 -1.0957  2.2968  1.4139
  150SOL    HW2  450   2.934   1.115   1.032 -0.8198 -4.2070  2.8296
  151SOL     OW  451   0.146   0.858   2.100  0.1905 -0.7263 -0.1397
  151SOL    HW1  452   0.184   0.947   2.063 -0.4025 -0.8700  0.1051
  151SOL    HW2  453   0.208   0.783   2.061  0.9937 -0.3680  0.8372
  152SOL     OW  454   1.444   1.871   1.102 -0.4637  0.1948 -0.4833
  152SOL    HW1  455   1.475   1.968   1.112  0.6192 -0.0544  2.2433
  152SOL    HW2  456   1.343   1.862   1.090  0.8942 -1.1955  1.9752
  153SOL     OW  457   0.064   1.487   0.257 -0.2859  0.1068  0.1474
  153SOL    HW1  458  -0.025   1.441   0.269  0.4860  3.3794 -0.9717
  153SOL    HW2  459   0.082   1.561   0.327 -3.4613  1.1180 -0.0650
  154SOL     OW  460   2.274   1.856   2.775 -0.3139 -0.0975  0.3929
  154SOL    HW1  461   2.310   1.760   2.784 -1.1645  0.4828 -0.8609
  154SOL    HW2  462   2.346   1.911   2.721 -0.2397  2.0952 -1.7945
  155SOL     OW  463   2.599   1.299   0.404  0.5212  0.1596 -1.3222
  155SOL    HW1  464   2.654   1.274   0.487 -2.0391  1.1918 -1.1473
  155SOL    HW2  465   2.602   1.225   0.330  2.8786 -1.5926  1.2060
  156SOL     OW  466   2.473   0.805   0.769  0.3473  0.1811 -0.1425
  156SOL    HW1  467   2.371   0.784   0.778 -0.2417  0.7256  0.6586
  156SOL    HW2  468   2.489   0.812   0.672 -0.6357  1.5061  1.4197
  157SOL     OW  469   1.237   3.087   3.028 -0.6588 -0.0514 -0.4899
  157SOL    HW1  470   1.288   3.034   2.956  0.7609  0.8707  3.0141
  157SOL    HW2  471   1.274   3.179   3.060  1.6484 -1.7192  1.0134
  158SOL     OW  472   1.097   1.882   1.867  0.1751  0.4909  0.3616
  158SOL    HW1  473   1.123   1.982   1.855 -0.2111 -3.3577 -2.1926
  158SOL    HW2  474   1.028   1.867   1.945 -1.6697  0.0527 -0.0571
  159SOL     OW  475   0.802   0.378   1.238  0.4718  0.1434  0.1395
  159SOL    HW1  476   0.749   0.447   1.291  1.6214 -0.1466  1.9031
  159SOL    HW2  477   0.754   0.336   1.154 -2.4045 -1.3780 -1.8421
  160SOL     OW  478   1.382   2.460   1.411 -0.1566  0.0029  0.3241
  160SOL    HW1  479   1.346   2.374   1.451  0.0511 -0.0314 -1.9737
  160SOL    HW2  480   1.486   2.459   1.410 -1.0542 -1.1188  0.6625
  161SOL     OW  481   0.061   2.638   0.427  0.2484  0.1414 -0.1893
  161SOL    HW1  482  -0.001   2.555   0.427 -1.5100 -2.8234 -1.0703
  161SOL    HW2  483   0.010   2.720   0.398  0.0925  0.6957  0.8597
  162SOL     OW  484   2.521   1.932   0.431 -0.0057  0.2475  0.0442
  162SOL    HW1  485   2.598   1.938   0.357  1.2632  2.8458  0.7978
  162SOL    HW2  486   2.482   1.835   0.457 -0.0089 -2.4079  0.6328
  163SOL     OW  487   1.956   2.741   0.784 -0.1634 -0.3944  0.2574
  163SOL    HW1  488   1.927   2.743   0.686 -1.8145 -0.9334  1.7976
  163SOL    HW2  489   2.026   2.671   0.810 -3.2665 -0.2190  1.0463
  164SOL     OW  490   3.055   0.138   1.237 -0.4073  0.2474  0.0965
  164SOL    HW1  491   3.048   0.242   1.217 -2.3154  0.1742 -0.8875
  164SOL    HW2  492   3.117   0.106   1.313 -1.3517 -2.0229 -0.5821
  165SOL     OW  493   1.101   1.408   0.651  0.1134  0.3742  0.1627
  165SOL    HW1  494   1.114   1.477   0.725  0.4805 -2.5054  0.1394
  165SOL    HW2  495   1.029   1.437   0.582 -0.9212 -2.7342 -1.1096
  166SOL     OW  496   1.555   0.995   1.819  0.3454  0.1371 -0.2350
  166SOL    HW1  497   1.487   1.042   1.876  1.6446 -0.1618 -0.0303
  166SOL    HW2  498   1.627   1.055   1.774 -0.2101  0.2777  1.2539
  167SOL     OW  499   0.673   2.025   1.513 -0.2517  0.1791 -0.0751
  167SOL    HW1  500   0.644   2.100   1.582  2.5734  0.7267  2.2008
  167SOL    HW2  501   0.639   1.933   1.548  1.2001 -0.7669  0.4999
  168SOL     OW  502   1.640   2.294   0.133  0.1947  0.0754 -0.3446
  168SOL    HW1  503   1.726   2.292   0.078  0.8527 -1.5702  0.0118
  168SOL    HW2  504   1.661   2.273   0.229 -1.8085  0.1556 -2.9844
  169SOL     OW  505   3.058   2.618   2.184 -0.2319 -0.1605 -0.1229
  169SOL    HW1  506   3.078   2.549   2.108  0.4044  3.4445 -0.5671
  169SOL    HW2  507   3.098   2.594   2.278  1.9386 -0.8033 -0.5913
  170SOL     OW  508   1.185   0.135   2.101  0.0629 -0.0616 -0.4867
  170SOL    HW1  509   1.281   0.159   2.144  0.5216  0.7634  1.6318
  170SOL    HW2  510   1.188   0.133   1.999 -0.4240 -0.1786  0.6514
  171SOL     OW  511   0.187   0.854   2.446 -0.1367  0.2677  0.4718
  171SOL    HW1  512   0.096   0.867   2.494  2.0664 -0.5523  1.9557
  171SOL    HW2  513   0.193   0.932   2.371 -0.8767 -1.0301 -2.9566
  172SOL     OW  514   0.950   0.951   2.772  0.0466  0.1037 -0.0436
  172SOL    HW1  515   0.901   1.000   2.851 -0.1672 -0.9312  0.1421
  172SOL    HW2  516   0.921   0.975   2.672  2.4052  0.9035 -3.1465
  173SOL     OW  517   0.355   2.573   3.064  0.2186 -0.1877 -0.8205
  173SOL    HW1  518   0.408   2.513   2.995  1.2797 -1.0205 -2.3426
  173SOL    HW2  519   0.340   2.517   3.152 -0.3510 -0.5592  2.5262
  174SOL     OW  520   1.472   2.863   1.023 -0.2041 -0.0373 -0.1344
  174SOL    HW1  521   1.546   2.918   0.976 -0.9207 -1.9757  0.0736
  174SOL    HW2  522   1.434   2.790   0.963  0.0843 -1.7309  0.5614
  175SOL     OW  523   0.494   3.035   1.719 -0.3990  0.5054  0.2057
  175SOL    HW1  524   0.547   3.033   1.811 -0.8868  1.8009 -1.0007
  175SOL    HW2  525   0.463   3.130   1.688 -0.5224 -0.5204  1.4408
  176SOL     OW  526   2.559   0.475   3.089 -0.9445  0.3299  0.4972
  176SOL    HW1  527   2.578   0.557   3.147 -1.6793 -1.0637  0.1380
  176SOL    HW2  528   2.495   0.405   3.128  0.9103  0.6470  2.8497
  177SOL     OW  529   0.376   0.174   0.810 -0.3027  0.0170 -0.6131
  177SOL    HW1  530   0.361   0.078   0.844  4.0251 -1.9062  0.4087
  177SOL    HW2  531   0.480   0.199   0.798  3.4740 -0.2675 -0.1236
  178SOL     OW  532   0.022   2.726   2.648  0.3218 -0.2633 -0.4058
  178SOL    HW1  533  -0.024   2.634   2.669  1.5399 -2.8984 -0.0370
  178SOL    HW2  534   0.112   2.731   2.698 -0.9694  1.6272 -0.3364
  179SOL     OW  535   2.963   1.594   1.246 -0.0428  0.7386 -0.2928
  179SOL    HW1  536   3.045   1.589   1.186  1.8352  0.8283  1.8473
  179SOL    HW2  537   2.971   1.534   1.330  1.8510  2.8343  0.4228
  180SOL     OW  538   0.286   1.413   1.740 -0.6442 -0.0616  0.1970
  180SOL    HW1  539   0.343   1.343   1.797 -0.0653 -0.2616 -0.3156
  180SOL    HW2  540   0.193   1.429   1.776 -1.1812  3.9869  0.7883
  181SOL     OW  541   3.010   1.743   2.485  0.0279 -0.0428  0.7048
  181SOL    HW1  542   3.014   1.759   2.382 -0.9443 -0.9884 -1.5291
  181SOL    HW2  543   2.924   1.766   2.536 -0.8133 -0.8232 -1.1807
  182SOL     OW  544   2.168   1.416   1.179  0.5634  0.7098 -0.3939
  182SOL    HW1  545   2.169   1.323   1.224  0.6991  0.0944  0.6535
  182SOL    HW2  546   2.185   1.412   1.077 -2.4562  2.5553  1.2265
  183SOL     OW  547   1.441   2.245   2.441 -0.1547  0.1599  0.1051
  183SOL    HW1  548   1.364   2.177   2.463  0.4869  0.5732  1.4150
  183SOL    HW2  549   1.529   2.198   2.414 -3.1203 -0.7789  0.9410
  184SOL     OW  550   2.195   0.776   0.770  0.5581 -0.1574  0.9696
  184SOL    HW1  551   2.109   0.803   0.714 -0.0850  2.0749  0.3999
  184SOL    HW2  552   2.224   0.673   0.752  2.3362 -1.1543  0.0791
  185SOL     OW  553   1.582   2.738   2.004 -0.1600 -0.5899 -0.4177
  185SOL    HW1  554   1.487   2.778   2.022 -0.4051 -1.0444  0.7978
  185SOL    HW2  555   1.628   2.702   2.089 -0.8889  0.2826  0.6066
  186SOL     OW  556   0.021   2.176   1.775  0.2349 -0.3826  0.2826
  186SOL    HW1  557   0.006   2.243   1.855  0.2484  0.1751  1.3461
  186SOL    HW2  558   0.115   2.127   1.796  0.6420 -2.2647 -0.7900
  187SOL     OW  559   1.316   0.660   1.635  0.0321 -0.0777  0.5102
  187SOL    HW1  560   1.412   0.700   1.639  0.2313 -1.2340  1.7680
  187SOL    HW2  561   1.308   0.567   1.672  0.6980  2.3689 -2.7099
  188SOL     OW  562   2.705   2.669   1.582 -0.0270 -0.3755 -0.4267
  188SOL    HW1  563   2.697   2.758   1.633 -0.6223  1.7739  1.1286
  188SOL    HW2  564   2.686   2.677   1.483  0.6966 -1.2233  1.7964
  189SOL     OW  565   0.855   1.204   1.375 -0.5301 -0.1172  0.6331
  189SOL    HW1  566   0.919   1.262   1.434 -1.3011  1.6884 -1.0748
  189SOL    HW2  567   0.847   1.247   1.280 -0.4393 -1.2241  0.3387
  190SOL     OW  568   1.444   1.872   1.525  0.0226 -0.5511 -0.3441
  190SOL    HW1  569   1.386   1.791   1.506 -0.1597  1.4777 -0.0714
  190SOL    HW2  570   1.460   1.881   1.627  0.0067  1.6766  0.6922
  191SOL     OW  571   0.865   0.787   1.505  0.5820 -0.5152  0.0015
  191SOL    HW1  572   0.924   0.712   1.545 -2.0927  0.3233 -0.0086
  191SOL    HW2  573   0.931   0.852   1.457  1.3663  2.6084  1.7475
  192SOL     OW  574   1.833   2.448   1.128  0.0809 -0.1368 -0.2265
  192SOL    HW1  575   1.733   2.431   1.122  2.6745 -0.2181 -0.9582
  192SOL    HW2  576   1.882   2.378   1.082 -3.6263 -0.8903 -2.2636
  193SOL     OW  577   0.507   0.500   0.388 -0.1176 -0.2381 -0.4698
  193SOL    HW1  578   0.433   0.433   0.381  1.2641  0.4891  2.0554
  193SOL    HW2  579   0.555   0.516   0.299 -0.0921 -1.2881 -0.0038
  194SOL     OW  580   0.399   0.814   1.269  0.1054 -0.7037 -0.3229
  194SOL    HW1  581   0.300   0.779   1.272 -1.4310 -2.0160  1.0857
  194SOL    HW2  582   0.442   0.784   1.177  0.0485 -1.5482 -0.9458
  195SOL     OW  583   1.064   2.921   0.522  0.0888 -0.5016 -0.2804
  195SOL    HW1  584   1.046   2.838   0.464 -1.6797  0.3516 -0.3891
  195SOL    HW2  585   1.155   2.968   0.506 -0.0601 -0.8898 -0.8507
  196SOL     OW  586   0.227   1.382   1.306 -0.2011 -0.4439  0.4938
  196SOL    HW1  587   0.219   1.479   1.344  1.4650  0.2263 -0.3663
  196SOL    HW2  588   0.248   1.310   1.379  1.8445  0.2481  1.9913
  197SOL     OW  589   0.790   1.949   0.234 -0.1922  0.6271 -0.1257
  197SOL    HW1  590   0.818   1.911   0.328 -0.4091 -1.0243 -0.0859
  197SOL    HW2  591   0.848   1.909   0.161 -3.7232 -1.4643 -0.1816
  198SOL     OW  592   0.269   1.215   0.345  0.1529  0.1416  0.0301
  198SOL    HW1  593   0.175   1.182   0.320  1.9409  0.1277 -3.0228
  198SOL    HW2  594   0.270   1.313   0.369 -0.5326 -1.2468 -0.6989
  199SOL     OW  595   2.215   0.405   2.637  0.3492 -0.2222  0.0747
  199SOL    HW1  596   2.133   0.377   2.692  2.7458 -0.2612 -0.3688
  199SOL    HW2  597   2.305   0.379   2.683 -1.5312  2.3655 -1.5981
  200SOL     OW  598   3.077   2.876   0.806  0.1201 -0.0095 -0.2215
  200SOL    HW1  599   3.105   2.969   0.846  2.5195  1.5758 -2.9381
  200SOL    HW2  600   3.016   2.886   0.722 -0.3653 -0.3647  1.4745
  201SOL     OW  601   0.939   0.684   0.536  0.0548 -0.1114 -0.2073
  201SOL    HW1  602   0.936   0.773   0.592 -0.5942  0.7237 -0.8416
  201SOL    HW2  603   0.857   0.624   0.545 -2.1764  0.0728 -1.3154
  202SOL     OW  604   0.448   1.242   1.898  0.6094 -0.0788  0.1572
  202SOL    HW1  605   0.543   1.227   1.855 -0.2090 -0.1639  1.1859
  202SOL    HW2  606   0.451   1.292   1.989 -0.9588 -0.9421  0.2083
  203SOL     OW  607   0.666   0.165   1.548 -0.1950 -0.2355  0.1107
  203SOL    HW1  608   0.678   0.117   1.456  1.6228  1.3064 -0.0924
  203SOL    HW2  609   0.704   0.116   1.629 -1.1197  0.6446 -1.9404
  204SOL     OW  610   2.080   1.842   2.966 -0.0374  0.2665  0.5097
  204SOL    HW1  611   2.071   1.735   2.969 -0.1642  0.4202 -2.3258
  204SOL    HW2  612   2.157   1.868   2.897  0.7222 -2.2477 -0.1678
  205SOL     OW  613   1.806   1.874   3.044 -0.0946 -0.1846 -0.3189
  205SOL    HW1  614   1.901   1.839   3.025 -0.2807  0.1876 -2.6646
  205SOL    HW2  615   1.785   1.961   2.995 -2.7116  1.7467  0.9867
  206SOL     OW  616   2.354   2.714   0.292 -0.3133  0.0491  0.6053
  206SOL    HW1  617   2.332   2.670   0.380  0.9981 -0.5893 -0.7186
  206SOL    HW2  618   2.423   2.656   0.242 -0.4375 -0.1077  2.8451
  207SOL     OW  619   0.723   1.737   2.911 -0.1722 -0.1501 -0.0952
  207SOL    HW1  620   0.809   1.690   2.882  0.1476  0.1802  0.4921
  207SOL    HW2  621   0.665   1.670   2.964  0.5001  0.3519 -1.0469
  208SOL     OW  622   1.007   1.560   1.216  0.4414 -0.0144 -0.0497
  208SOL    HW1  623   0.937   1.592   1.145  2.0196 -2.4337  0.7179
  208SOL    HW2  624   0.975   1.565   1.314  0.1724  1.7602 -0.1138
  209SOL     OW  625   0.227   0.991   3.059 -0.0308  0.3729 -0.0858
  209SOL    HW1  626   0.284   0.954   2.981 -1.1852  2.1611  0.2316
  209SOL    HW2  627   0.234   0.947   3.159  3.4612 -0.2170  0.4907
  210SOL     OW  628   1.709   0.592   1.278  0.5791  0.3344 -0.2525
  210SOL    HW1  629   1.634   0.609   1.212 -0.5262  1.4918  1.9604
  210SOL    HW2  630   1.766   0.677   1.302  0.1058 -0.1750 -0.2008
  211SOL     OW  631   2.144   1.082   1.572 -0.6514  0.7197 -0.1070
  211SOL    HW1  632   2.180   1.055   1.669 -2.0633 -0.6648 -0.8694
  211SOL    HW2  633   2.195   1.156   1.517 -1.2948  2.7024 -2.8319
  212SOL     OW  634   0.069   0.992   1.472  0.7407 -0.2819 -0.5659
  212SOL    HW1  635   0.138   1.060   1.516  1.1579  0.4752 -1.2286
  212SOL    HW2  636   0.088   0.894   1.505  1.0226  0.2419 -1.9847
  213SOL     OW  637   2.802   0.027   0.338  0.0766  0.2331 -0.3255
  213SOL    HW1  638   2.894  -0.003   0.321 -2.5114 -0.1546  1.1494
  213SOL    HW2  639   2.736  -0.025   0.279  2.7667 -0.4506 -2.3555
  214SOL     OW  640   2.199   0.344   2.366  0.4603  0.1879  0.1934
  214SOL    HW1  641   2.226   0.368   2.461  1.3293  1.1716 -0.7589
  214SOL    HW2  642   2.141   0.255   2.374  2.5060  0.9991  4.0271
  215SOL     OW  643   1.691   2.282   2.077  0.2225  0.2858 -0.1710
  215SOL    HW1  644   1.787   2.319   2.083  0.8879  1.8641 -0.5164
  215SOL    HW2  645   1.615   2.352   2.084 -0.8072  2.0032  0.8077
  216SOL     OW  646   2.303   0.518   0.761  0.5067  0.2613  0.2112
  216SOL    HW1  647   2.262   0.461   0.680 -3.4778 -2.1549 -0.3604
  216SOL    HW2  648   2.388   0.475   0.805 -1.0198  1.8403 -0.5548
  217SOL     OW  649   0.911   2.731   2.573  0.1681 -0.5968 -0.2587
  217SOL    HW1  650   0.923   2.680   2.664  0.7610 -0.5844  1.7721
  217SOL    HW2  651   0.902   2.667   2.497  2.3642  1.8760  3.7147
  218SOL     OW  652   1.868   1.427   0.031  0.0250  0.3878  0.2410
  218SOL    HW1  653   1.768   1.431  -0.000  1.3294  1.7163 -0.6657
  218SOL    HW2  654   1.897   1.345   0.087 -0.2433 -0.4662 -2.8214
  219SOL     OW  655   2.422   1.263   2.520 -0.1421  0.0903 -0.1087
  219SOL    HW1  656   2.441   1.231   2.425 -2.1538  0.6492 -0.5965
  219SOL    HW2  657   2.439   1.192   2.596  0.9846  0.1046 -1.7022
  220SOL     OW  658   1.455   1.027   1.355  0.2481  0.2210  0.6780
  220SOL    HW1  659   1.544   0.970   1.367  0.5450 -1.5143  0.8895
  220SOL    HW2  660   1.439   1.053   1.254  2.3817 -0.2400 -0.3591
  221SOL     OW  661   1.309   0.956   2.167 -0.5361 -0.0578 -0.0706
  221SOL    HW1  662   1.299   1.005   2.075  1.2665 -1.5088  2.2324
  221SOL    HW2  663   1.395   0.986   2.216 -0.1315 -1.2602  1.2073
  222SOL     OW  664   1.155   0.063   1.218  0.0786 -0.2261 -0.0085
  222SOL    HW1  665   1.161   0.104   1.314 -0.3986 -0.3755  0.1041
  222SOL    HW2  666   1.173   0.137   1.149 -0.0423  0.5686  1.3133
  223SOL     OW  667   2.712   0.980   2.110 -0.0874 -0.1990 -0.0561
  223SOL    HW1  668   2.647   1.020   2.181 -0.3471  1.4269 -2.2902
  223SOL    HW2  669   2.807   0.957   2.151 -0.1068  0.4472  0.7263
  224SOL     OW  670   1.500   0.993   2.864  0.1884 -0.1326  0.4728
  224SOL    HW1  671   1.513   0.928   2.784 -2.6547 -0.4253  2.7810
  224SOL    HW2  672   1.533   1.085   2.835  1.5338  0.5312 -0.9790
  225SOL     OW  673   2.944   2.683   2.890 -0.0180  0.0543  0.1659
  225SOL    HW1  674   2.874   2.689   2.813  1.2052 -1.6751  2.2141
  225SOL    HW2  675   3.031   2.739   2.878  0.8373  2.0119 -4.1047
  226SOL     OW  676   2.424   1.616   2.799  0.1582  0.6739 -0.6261
  226SOL    HW1  677   2.465   1.586   2.709  0.7655 -0.6767  1.2102
  226SOL    HW2  678   2.459   1.551   2.871 -1.2272  3.0106 -0.4592
  227SOL     OW  679   0.924   0.244   3.017  0.4791  0.7238 -0.2711
  227SOL    HW1  680   0.946   0.344   3.019 -2.7031 -0.8421  0.3958
  227SOL    HW2  681   0.856   0.225   2.942  2.2180  3.2885  0.1475
  228SOL     OW  682   2.445   0.653   2.891  0.1190  0.0134  0.4313
  228SOL    HW1  683   2.473   0.691   2.797 -0.7912 -0.7480 -3.9079
  228SOL    HW2  684   2.487   0.563   2.918 -0.6251 -0.8014  3.3357
  229SOL     OW  685   0.647   0.630   1.826  0.8854  0.1543 -0.1679
  229SOL    HW1  686   0.730   0.691   1.811  4.1624  0.8084 -0.9910
  229SOL    HW2  687   0.641   0.565   1.746  0.9126  3.2173 -0.0129
  230SOL     OW  688   1.867   1.226   1.910  0.2682  0.5352  0.2598
  230SOL    HW1  689   1.944   1.276   1.868 -0.1986  0.4821  0.7736
  230SOL    HW2  690   1.842   1.270   2.002 -0.7464  1.0617 -1.8149
  231SOL     OW  691   0.656   1.051  -0.004  0.0146 -0.3844  0.4130
  231SOL    HW1  692   0.758   1.078   0.023  1.8234 -1.7809 -0.0295
  231SOL    HW2  693   0.586   1.114   0.038  0.0758 -0.3195  0.1034
  232SOL     OW  694   2.413   2.961   2.797 -0.0404 -0.3555  0.0861
  232SOL    HW1  695   2.478   2.881   2.816  0.9620  0.2339  2.0821
  232SOL    HW2  696   2.457   3.043   2.760  0.5299 -1.6305 -1.5797
  233SOL     OW  697   1.811   1.123   1.140  0.0562 -0.8072  0.9185
  233SOL    HW1  698   1.873   1.176   1.075 -1.2489 -0.8156 -1.3160
  233SOL    HW2  699   1.867   1.045   1.182  1.9510 -0.0020  0.1579
  234SOL     OW  700   1.669   2.533   1.834 -0.0334  0.6310  0.1531
  234SOL    HW1  701   1.623   2.588   1.910 -0.6021 -2.9872 -0.0723
  234SOL    HW2  702   1.595   2.464   1.797 -2.4600 -0.6651  0.3481
  235SOL     OW  703   0.074   2.998   2.850 -0.2189 -0.2228  0.1166
  235SOL    HW1  704  -0.003   2.985   2.782 -1.1998 -2.2361  1.9739
  235SOL    HW2  705   0.048   3.050   2.935  2.3937 -1.0147  1.3713
  236SOL     OW  706   2.913   0.720   0.059  0.1173  0.3497 -0.0701
  236SOL    HW1  707   2.970   0.728   0.146  2.3523 -1.6144  1.4023
  236SOL    HW2  708   2.937   0.633   0.007  0.5660 -0.0618 -1.2445
  237SOL     OW  709   1.534   1.701   0.913 -0.0849  0.0493  0.2240
  237SOL    HW1  710   1.625   1.662   0.924 -0.8014 -0.4316  1.8066
  237SOL    HW2  711   1.503   1.759   0.997  0.4929 -1.4751  1.6646
  238SOL     OW  712   1.916   1.204   0.747  0.4112  0.0188 -0.3283
  238SOL    HW1  713   1.958   1.236   0.841  1.4357 -1.5538  0.3259
  238SOL    HW2  714   1.813   1.219   0.745 -2.6109 -0.5895  0.6593
  239SOL     OW  715   2.034   0.305   2.815  0.5106  0.4476  0.5923
  239SOL    HW1  716   2.046   0.246   2.901 -1.2052  2.2879 -0.3190
  239SOL    HW2  717   1.951   0.363   2.826  1.6694  2.4081 -0.7418
  240SOL     OW  718   0.950   0.694   0.259  0.2368 -0.0304  0.0054
  240SOL    HW1  719   1.019   0.629   0.216  1.1857 -0.9014  2.8458
  240SOL    HW2  720   0.937   0.685   0.361 -0.9013 -2.1138  0.2980
  241SOL     OW  721   0.571   0.124   0.312 -0.7166  0.7149 -0.1508
  241SOL    HW1  722   0.628   0.208   0.285  2.6471 -0.6202  2.5570
  241SOL    HW2  723   0.590   0.042   0.251 -0.4491 -0.7126 -2.2595
  242SOL     OW  724   0.599   2.610   1.214  0.1811 -0.2567  0.6584
  242SOL    HW1  725   0.594   2.579   1.315  2.0247  0.4161  1.2123
  242SOL    HW2  726   0.633   2.711   1.201  0.7557 -2.3446  1.6854
  243SOL     OW  727   1.067   0.618   2.402 -0.5225 -0.5124 -0.2962
  243SOL    HW1  728   0.973   0.610   2.370  1.6323  0.6021  1.8380
  243SOL    HW2  729   1.088   0.560   2.486  1.3042  0.0825 -1.2724
  244SOL     OW  730   2.745   1.944   2.375  0.7559 -0.0412  0.1314
  244SOL    HW1  731   2.753   1.914   2.277  0.1977 -2.2974 -0.3840
  244SOL    HW2  732   2.681   1.885   2.427  0.4970  1.7279 -0.0935
  245SOL     OW  733   2.097   1.018   2.202  0.2988  0.3191  0.4313
  245SOL    HW1  734   2.202   1.022   2.211  1.9063  0.5710  1.3965
  245SOL    HW2  735   2.050   1.088   2.262 -1.3452  1.0637  0.2094
  246SOL     OW  736   0.273   2.881   1.819 -0.0439  0.4054 -0.0215
  246SOL    HW1  737   0.203   2.891   1.740  2.2445  1.9367 -3.0590
  246SOL    HW2  738   0.364   2.912   1.793 -0.4034  1.0310  2.5777
  247SOL     OW  739   2.247   0.594   3.069  0.1100 -0.1253  0.1893
  247SOL    HW1  740   2.319   0.610   2.991 -0.2876 -0.5247  0.0809
  247SOL    HW2  741   2.162   0.658   3.052  0.0230  3.7033  0.1221
  248SOL     OW  742   2.141   1.859   1.634 -0.0931  0.6093 -0.0478
  248SOL    HW1  743   2.193   1.794   1.694 -0.9006  2.7925 -0.6752
  248SOL    HW2  744   2.036   1.843   1.633 -3.0023 -0.8684  1.2608
  249SOL     OW  745   1.902   1.903   1.847  0.1244  0.2452  0.6003
  249SOL    HW1  746   1.886   1.864   1.752  0.4845  0.0496  1.0246
  249SOL    HW2  747   2.004   1.902   1.870  1.4975 -1.0990  1.8699
  250SOL     OW  748   1.003   0.672   1.852  0.6059  0.2189 -0.3448
  250SOL    HW1  749   1.080   0.649   1.922  3.3702 -2.7319 -0.8290
  250SOL    HW2  750   1.026   0.629   1.755 -0.8836  0.1213 -1.3712
  251SOL     OW  751   3.033   1.503   2.613  0.2349  0.3308 -0.0643
  251SOL    HW1  752   3.020   1.600   2.576  1.4929 -1.6301 -1.2001
  251SOL    HW2  753   2.956   1.443   2.578  0.5174  0.2158  2.9337
  252SOL     OW  754   1.544   0.830   1.605  0.0211 -0.5278 -0.4815
  252SOL    HW1  755   1.601   0.863   1.525 -0.2014  1.0500  1.0235
  252SOL    HW2  756   1.546   0.894   1.689 -1.5431  0.5874 -1.0849
  253SOL     OW  757   0.937   1.481   0.453  0.0593 -0.3325 -0.1296
  253SOL    HW1  758   0.928   1.490   0.349 -0.2458  1.3315  1.9415
  253SOL    HW2  759   0.887   1.556   0.512  0.5044 -0.1018  0.4977
  254SOL     OW  760   2.025   2.170   1.663 -0.2164  0.0710 -0.3289
  254SOL    HW1  761   1.966   2.136   1.582  0.1306 -2.9839 -0.6060
  254SOL    HW2  762   1.968   2.231   1.728 -1.3099 -2.7066 -1.7828
  255SOL     OW  763   0.081   1.193   2.938 -0.1394 -0.0548  0.5905
  255SOL    HW1  764   0.124   1.280   2.918 -1.5573  0.2965  2.3799
  255SOL    HW2  765   0.144   1.118   2.979  0.3779  1.0434  0.6293
  256SOL     OW  766   2.750   1.417   1.749 -0.2166  0.5521  0.4662
  256SOL    HW1  767   2.653   1.454   1.758  0.7866 -1.2861 -1.9374
  256SOL    HW2  768   2.751   1.313   1.747  0.2503 -3.1445  0.5718
  257SOL     OW  769   0.805   0.237   1.868  0.0147 -0.2067 -0.4268
  257SOL    HW1  770   0.861   0.280   1.799 -1.7182 -2.8610  2.6186
  257SOL    HW2  771   0.838   0.136   1.879  2.0661 -1.8152  0.2517
  258SOL     OW  772   2.967   1.178   0.512 -0.2708  0.5152  0.8791
  258SOL    HW1  773   2.878   1.219   0.541  1.6148 -0.7060 -4.3713
  258SOL    HW2  774   3.046   1.209   0.576 -1.7676 -0.5403  0.4276
  259SOL     OW  775   0.478   2.934   3.009 -0.4650 -0.0861  0.5611
  259SOL    HW1  776   0.391   2.891   3.053 -0.7938  1.1188  0.4377
  259SOL    HW2  777   0.504   2.895   2.916  0.6014 -2.4743 -0.7947
  260SOL     OW  778   2.724   0.753   2.782 -0.3373 -0.4657 -0.0103
  260SOL    HW1  779   2.637   0.759   2.726  0.1658 -2.1413  0.7019
  260SOL    HW2  780   2.736   0.666   2.837 -0.3277  0.5916  1.6817
  261SOL     OW  781   2.669   1.254   1.297  0.1802  0.3719 -0.3638
  261SOL    HW1  782   2.597   1.216   1.235 -0.0394 -0.7744  0.8185
  261SOL    HW2  783   2.744   1.185   1.312 -0.7469  1.6741  2.0385
  262SOL     OW  784   1.394   2.961   2.052 -0.0896 -0.5543 -0.6640
  262SOL    HW1  785   1.419   3.054   2.007  0.9876 -1.0568 -1.2557
  262SOL    HW2  786   1.296   2.934   2.030 -1.1772  0.3246 -1.0590
  263SOL     OW  787   0.803   0.631   2.322 -0.5323  0.2835  0.0079
  263SOL    HW1  788   0.734   0.566   2.280  3.4646  1.7527 -1.4791
  263SOL    HW2  789   0.818   0.716   2.255  2.6014  0.8323 -0.4558
  264SOL     OW  790   2.284   0.797   0.418 -0.3442  0.1425  0.1526
  264SOL    HW1  791   2.293   0.743   0.329  0.2444 -1.4735  0.4428
  264SOL    HW2  792   2.368   0.849   0.452  0.1054 -1.8756  1.3711
  265SOL     OW  793   0.873   2.350   2.624 -0.4264  0.0660  0.3509
  265SOL    HW1  794   0.888   2.361   2.724 -0.3196 -1.9938  2.4393
  265SOL    HW2  795   0.802   2.277   2.607  0.8998  2.7147 -0.9206
  266SOL     OW  796   1.289   1.802   3.043  0.0840 -0.0667 -0.3095
  266SOL    HW1  797   1.288   1.864   3.130 -0.2488 -0.7112 -2.1003
  266SOL    HW2  798   1.389   1.778   3.018 -0.1707 -0.5926 -0.6096
  267SOL     OW  799   1.053   3.070   2.328 -0.8798 -0.3587 -0.2656
  267SOL    HW1  800   0.955   3.029   2.313  0.7523 -0.7402 -0.0628
  267SOL    HW2  801   1.087   3.135   2.245  1.4690  3.2795  0.3366
  268SOL     OW  802   0.852   1.324   1.112 -0.2893  0.2242  0.9292
  268SOL    HW1  803   0.776   1.359   1.179 -0.2254 -0.6843  0.1238
  268SOL    HW2  804   0.872   1.392   1.036  0.6419  0.7554 -1.2263
  269SOL     OW  805   2.332   2.537   1.592 -0.1245 -0.2885 -0.3358
  269SOL    HW1  806   2.434   2.537   1.606 -2.2580  0.6961 -1.0105
  269SOL    HW2  807   2.290   2.561   1.684  1.5561  0.7491 -2.4017
  270SOL     OW  808   0.137   3.027   2.009  0.2274  0.5374  1.0084
  270SOL    HW1  809   0.165   2.974   1.921 -2.0674 -0.1225 -1.3557
  270SOL    HW2  810   0.086   2.974   2.079 -1.3548  2.9628 -0.3368
  271SOL     OW  811   0.427   1.433   1.095 -0.3327  0.7253  0.2511
  271SOL    HW1  812   0.400   1.415   0.994 -0.9869  2.1755 -1.2353
  271SOL    HW2  813   0.352   1.415   1.163 -2.1744  1.2294 -0.7589
  272SOL     OW  814   1.875   0.008   1.929  0.2417  0.8150 -0.3623
  272SOL    HW1  815   1.838  -0.075   1.877 -2.2139  2.1429 -0.8038
  272SOL    HW2  816   1.869   0.095   1.874 -1.7006 -0.3721 -2.1849
  273SOL     OW  817   1.438   1.460   2.876 -0.2825 -0.4019  0.4885
  273SOL    HW1  818   1.340   1.495   2.873 -0.1825  0.2912 -0.3399
  273SOL    HW2  819   1.484   1.453   2.969  0.8222 -1.2343  0.9784
  274SOL     OW  820   1.184   0.606   2.058  0.4337 -0.1042  0.2009
  274SOL    HW1  821   1.112   0.550   2.110  1.1117  1.7594 -0.4029
  274SOL    HW2  822   1.261   0.639   2.114 -1.7114 -1.4256 -0.3154
  275SOL     OW  823   0.651   2.099   1.958 -0.5012  0.0613  0.3187
  275SOL    HW1  824   0.584   2.077   1.882  0.3451 -2.5151  2.4078
  275SOL    HW2  825   0.619   2.176   2.018  0.4279  2.0346 -1.3295
  276SOL     OW  826   2.235   0.957   2.846 -0.3192 -0.0818 -0.3497
  276SOL    HW1  827   2.148   0.999   2.810  1.9709  0.1966 -1.7398
  276SOL    HW2  828   2.240   0.856   2.822 -1.2393 -0.0697  1.7457
  277SOL     OW  829   0.006   0.778   0.248  0.2683  0.0446  0.1822
  277SOL    HW1  830   0.093   0.828   0.223  0.2669  2.1469  1.2806
  277SOL    HW2  831   0.020   0.719   0.332  0.5489 -0.1259 -0.3063
  278SOL     OW  832   0.288   0.250   3.079 -0.2461  0.2424  0.8294
  278SOL    HW1  833   0.364   0.227   3.016  1.5331  0.8665  1.2023
  278SOL    HW2  834   0.291   0.353   3.102 -0.8754 -0.2569  1.6046
  279SOL     OW  835   0.268   3.018   0.903  0.0165 -0.8367  0.4929
  279SOL    HW1  836   0.275   2.977   1.000  1.2979 -2.1517 -0.7204
  279SOL    HW2  837   0.289   2.948   0.833  1.5235  0.0117  2.0790
  280SOL     OW  838   1.572   2.897   2.446 -0.3217 -0.2162 -0.0756
  280SOL    HW1  839   1.636   2.964   2.490  2.8369 -1.0082  1.6181
  280SOL    HW2  840   1.508   2.952   2.383  2.3757  2.0854  0.9495
  281SOL     OW  841   0.550   0.930   2.364 -0.2576  0.1178  0.2098
  281SOL    HW1  842   0.504   0.865   2.292  0.3157 -0.4179  4.1533
  281SOL    HW2  843   0.534   0.903   2.462  0.0437 -0.2146 -1.2701
  282SOL     OW  844   1.788   2.483   0.562  0.0211  0.1097 -0.3823
  282SOL    HW1  845   1.769   2.405   0.496  0.3689  0.0696  0.3049
  282SOL    HW2  846   1.730   2.564   0.550  1.6833 -1.9833  0.7269
  283SOL     OW  847   1.183   0.957   0.812 -0.0627  0.2466  0.2201
  283SOL    HW1  848   1.189   0.906   0.904 -1.8307  0.1130 -1.2671
  283SOL    HW2  849   1.134   1.050   0.820 -1.7644 -1.5324 -0.3028
  284SOL     OW  850   2.255   2.814   2.449  0.4400  0.2646  0.3582
  284SOL    HW1  851   2.356   2.838   2.438 -1.0057 -0.8471 -0.3570
  284SOL    HW2  852   2.214   2.829   2.541  2.7600  0.2826 -0.6227
  285SOL     OW  853   1.290   3.073   2.611  0.1345  0.1056 -0.3066
  285SOL    HW1  854   1.343   3.043   2.532 -0.3186  3.2069  0.6528
  285SOL    HW2  855   1.195   3.111   2.589  0.5449  2.3716  0.2414
  286SOL     OW  856   0.265   0.358   0.650  0.1242 -0.3801  0.4888
  286SOL    HW1  857   0.290   0.283   0.717 -2.0426 -0.6903 -1.3375
  286SOL    HW2  858   0.286   0.339   0.545 -1.5122 -3.2174 -2.9809
  287SOL     OW  859   0.083   1.280   2.541  0.3178 -0.3721 -0.1134
  287SOL    HW1  860   0.039   1.211   2.601  0.1839  0.9187 -1.6033
  287SOL    HW2  861   0.036   1.371   2.563 -0.0697  1.6885 -1.1937
  288SOL     OW  862   1.511   2.698   1.657 -0.0692 -0.1799 -0.1373
  288SOL    HW1  863   1.575   2.659   1.729  0.0140 -1.4207  0.7865
  288SOL    HW2  864   1.552   2.693   1.561 -1.7954  0.3132  1.7772
  289SOL     OW  865   0.642   2.791   0.818 -0.3701  0.0180  0.4029
  289SOL    HW1  866   0.673   2.868   0.756  2.7403 -3.6958  0.0519
  289SOL    HW2  867   0.602   2.826   0.903 -0.5957 -0.2339 -0.7599
  290SOL     OW  868   2.843   1.116   1.693 -0.3004 -0.5888 -0.0412
  290SOL    HW1  869   2.773   1.062   1.744  0.6086  1.2951 -1.2851
  290SOL    HW2  870   2.935   1.115   1.747 -0.7733 -0.8941  3.0243
  291SOL     OW  871   1.928   0.005   0.083 -0.1496 -0.1470 -0.6821
  291SOL    HW1  872   1.953   0.023   0.186  0.0408  0.0826  1.3341
  291SOL    HW2  873   2.000   0.026   0.008  0.0028 -0.0401 -2.4221
  292SOL     OW  874   2.977   1.273   0.010  0.3799  0.5136  0.2848
  292SOL    HW1  875   2.908   1.352  -0.011 -2.4826  2.2441 -0.6071
  292SOL    HW2  876   3.059   1.262  -0.055  0.9038  2.0324  0.3816
  293SOL     OW  877   0.540   2.077   0.292 -0.4458 -0.3618 -0.1123
  293SOL    HW1  878   0.524   2.140   0.377  0.1162 -0.4551 -1.8398
  293SOL    HW2  879   0.641   2.046   0.278 -0.0658  1.1327 -0.2441
  294SOL     OW  880   1.874   2.339   1.815 -0.5610  0.2991  0.2063
  294SOL    HW1  881   1.902   2.343   1.912 -0.2379 -0.0722  0.3121
  294SOL    HW2  882   1.812   2.419   1.794  0.4580  0.4683  0.5162
  295SOL     OW  883   0.955   1.035   0.432  0.3749 -0.4481 -0.3497
  295SOL    HW1  884   1.047   1.082   0.460 -0.5441  0.5050  1.5506
  295SOL    HW2  885   0.924   0.961   0.501 -1.1629 -1.0306 -0.7200
  296SOL     OW  886   1.146   2.138   2.762  0.2966 -0.2658  0.1301
  296SOL    HW1  887   1.077   2.214   2.751  2.2319 -2.1747 -0.7846
  296SOL    HW2  888   1.174   2.096   2.671 -0.1105  0.6337 -0.6040
  297SOL     OW  889   1.276   0.580   1.215  0.3261 -0.4522  1.5149
  297SOL    HW1  890   1.298   0.546   1.309  0.3560  2.6255 -0.6626
  297SOL    HW2  891   1.359   0.577   1.156 -1.3730 -1.3737  0.9892
  298SOL     OW  892   0.469   1.290   2.936  0.0862 -0.0442  0.7987
  298SOL    HW1  893   0.455   1.231   3.020 -0.2724 -1.8674  1.1380
  298SOL    HW2  894   0.522   1.241   2.859 -2.7479  3.1979 -0.1080
  299SOL     OW  895   0.391   0.194   1.257 -0.2698 -0.4913 -0.5889
  299SOL    HW1  896   0.339   0.275   1.220  1.8942 -3.3107 -0.0256
  299SOL    HW2  897   0.405   0.195   1.362  0.0487  0.6446 -0.8664
  300SOL     OW  898   1.353   1.823   2.572 -0.1395 -0.4679  0.0973
  300SOL    HW1  899   1.339   1.768   2.488 -0.7420  2.1966 -0.3004
  300SOL    HW2  900   1.417   1.770   2.639 -1.0598  1.0872  0.0785
  301SOL     OW  901   0.317   0.282   0.386 -0.2142 -0.3058  0.1762
  301SOL    HW1  902   0.222   0.248   0.366 -1.1088 -0.0481  1.8320
  301SOL    HW2  903   0.388   0.214   0.361 -1.5520 -0.1409 -1.8411
  302SOL     OW  904   1.250   2.386   2.293  0.0178  0.0147  0.0855
  302SOL    HW1  905   1.154   2.353   2.316 -1.7802  0.4920 -0.3800
  302SOL    HW2  906   1.320   2.353   2.359 -1.5259 -0.4195  0.0862
  303SOL     OW  907   0.886   2.458   0.790 -1.0106  0.1957 -0.4004
  303SOL    HW1  908   0.948   2.434   0.714  0.2129  1.3029 -0.7027
  303SOL    HW2  909   0.918   2.543   0.841  1.0860 -0.2775 -0.5729
  304SOL     OW  910   0.132   1.931   0.721  0.1018  0.2369  0.4690
  304SOL    HW1  911   0.221   1.905   0.676 -1.7007  3.4490  1.5878
  304SOL    HW2  912   0.059   1.955   0.649  1.1354  1.6217 -2.9481
  305SOL     OW  913   1.661   0.800   0.707 -0.2360 -0.2172  0.1148
  305SOL    HW1  914   1.590   0.832   0.637  1.0574  2.1471  1.3574
  305SOL    HW2  915   1.681   0.697   0.699  0.7574 -0.7611 -0.2395
  306SOL     OW  916   0.396   1.888   1.973 -0.0770  0.7527 -0.3328
  306SOL    HW1  917   0.479   1.847   1.928  1.0037  2.0312  0.0701
  306SOL    HW2  918   0.417   1.903   2.073 -1.4910  0.0412 -0.9258
  307SOL     OW  919   3.061   0.892   2.562  0.4642  0.0948  0.1333
  307SOL    HW1  920   3.043   0.970   2.625 -1.0757 -1.0053 -0.4313
  307SOL    HW2  921   3.058   0.799   2.608  0.4460  0.3002  0.5358
  308SOL     OW  922   1.466   2.699   2.810  0.5530 -0.2525  0.1673
  308SOL    HW1  923   1.440   2.678   2.709 -1.9345  1.8910 -0.5648
  308SOL    HW2  924   1.447   2.618   2.872  0.1670 -2.3300  0.2843
  309SOL     OW  925   1.183   0.172   1.820 -0.4470  0.2782  0.2384
  309SOL    HW1  926   1.257   0.112   1.781 -2.6649 -1.5383  0.5850
  309SOL    HW2  927   1.113   0.202   1.749 -0.5041 -0.7757  0.7550
  310SOL     OW  928   1.467   2.524   0.648 -0.6334  0.7255 -0.3262
  310SOL    HW1  929   1.449   2.534   0.748 -2.2499  1.4562  0.2155
  310SOL    HW2  930   1.529   2.599   0.604 -1.9583  1.8921 -0.3006
  311SOL     OW  931   1.115   0.948   1.773  0.2312 -0.3474 -0.4925
  311SOL    HW1  932   1.088   0.854   1.807 -0.1912 -0.5896 -0.1461
  311SOL    HW2  933   1.172   0.943   1.688 -0.8407 -2.8819  0.3826
  312SOL     OW  934   1.495   0.637   1.025 -0.1873 -0.1988  0.0619
  312SOL    HW1  935   1.552   0.725   1.018 -0.4341 -2.4047 -0.0201
  312SOL    HW2  936   1.444   0.618   0.935 -1.2881  2.2575  0.4814
  313SOL     OW  937   1.656   1.279   0.726  0.0740  0.5166 -0.3485
  313SOL    HW1  938   1.595   1.276   0.809  0.4504 -1.0948  0.7343
  313SOL    HW2  939   1.614   1.223   0.650 -3.0350  0.1803  0.3362
  314SOL     OW  940   2.997   3.088   3.075  0.4720  0.3462  0.2755
  314SOL    HW1  941   3.008   3.065   3.173 -1.2732  3.2964  0.3782
  314SOL    HW2  942   2.918   3.034   3.030 -2.4811  0.2741  0.5493
  315SOL     OW  943   1.201   0.195   2.804  0.0436  0.1848  0.1439
  315SOL    HW1  944   1.178   0.136   2.720 -0.3599 -1.2650  0.7052
  315SOL    HW2  945   1.162   0.160   2.892  0.6436  1.1199 -1.8457
  316SOL     OW  946   1.770   2.062   0.864 -0.3969 -0.1043 -0.3423
  316SOL    HW1  947   1.711   2.058   0.951  0.4152 -3.2489  1.8307
  316SOL    HW2  948   1.792   2.152   0.831 -0.7300 -1.5014  1.3163
  317SOL     OW  949   1.167   0.710   2.719  0.0351 -0.1906  0.0947
  317SOL    HW1  950   1.110   0.762   2.790 -1.0351 -5.6542  3.0858
  317SOL    HW2  951   1.114   0.634   2.673 -0.2702  1.1033 -1.4279
  318SOL     OW  952   1.385   3.061   2.320  0.4355  0.1343 -0.1581
  318SOL    HW1  953   1.411   3.163   2.320  2.5889 -0.1644  2.1340
  318SOL    HW2  954   1.386   3.020   2.225 -0.7352 -3.0715 -0.9618
  319SOL     OW  955   0.616   2.383   3.027 -0.3123 -0.1171  0.1016
  319SOL    HW1  956   0.568   2.296   3.061 -0.7361 -1.9833 -1.9175
  319SOL    HW2  957   0.702   2.359   2.979  0.8321 -0.2034  3.3883
  320SOL     OW  958   1.691   2.258   0.394  0.1506 -0.2426  0.1541
  320SOL    HW1  959   1.749   2.182   0.429  2.8794  0.5580 -1.3306
  320SOL    HW2  960   1.598   2.263   0.434 -0.0338 -0.9602  1.0820
  321SOL     OW  961   1.613   2.701   0.507 -0.4005  0.1901 -0.3953
  321SOL    HW1  962   1.562   2.717   0.414 -1.5502  0.8518  1.1132
  321SOL    HW2  963   1.674   2.774   0.541  0.0540 -1.8138 -0.4734
  322SOL     OW  964   2.540   1.057   2.323  0.1603 -0.3981  0.3466
  322SOL    HW1  965   2.621   1.041   2.391 -0.3771 -1.2800  0.7458
  322SOL    HW2  966   2.474   0.982   2.307 -0.0877  1.6808  0.3719
  323SOL     OW  967   1.135   2.706   0.762  0.1798  0.0647 -0.0939
  323SOL    HW1  968   1.144   2.648   0.670  0.5479 -1.9263 -0.6456
  323SOL    HW2  969   1.095   2.801   0.749 -1.6719  2.1823  1.3121
  324SOL     OW  970   0.065   2.557   2.421 -0.0137 -0.2732 -0.3430
  324SOL    HW1  971   0.017   2.502   2.497  2.1875  0.0576  2.2506
  324SOL    HW2  972   0.117   2.634   2.465 -0.8620  0.3915 -2.2780
  325SOL     OW  973   1.302   3.031   0.448 -0.3557 -0.0967 -0.4498
  325SOL    HW1  974   1.275   3.059   0.354 -0.8159 -1.3065 -1.6994
  325SOL    HW2  975   1.330   3.111   0.510  1.6999 -0.4288  1.8351
  326SOL     OW  976   2.434   0.907   0.033  0.0419  0.1743 -0.3455
  326SOL    HW1  977   2.380   0.875  -0.051 -1.2950 -2.1040  0.0338
  326SOL    HW2  978   2.486   0.833   0.080 -1.8698 -0.7044 -0.3478
  327SOL     OW  979   2.832   0.207   0.564 -0.0536 -0.8258  0.4222
  327SOL    HW1  980   2.817   0.137   0.488  1.3643 -2.2943  1.1931
  327SOL    HW2  981   2.866   0.162   0.651 -0.5963 -0.8511 -0.2494
  328SOL     OW  982   2.644   0.607   0.373  0.2323  0.0608 -0.0682
  328SOL    HW1  983   2.700   0.660   0.443 -0.0643 -1.5329  2.5577
  328SOL    HW2  984   2.639   0.505   0.389 -0.7677  0.0512 -1.3389
  329SOL     OW  985   2.944   3.030   2.246 -0.3103  0.4182  0.1392
  329SOL    HW1  986   3.026   2.964   2.251 -1.1475 -0.5094  2.0364
  329SOL    HW2  987   2.970   3.115   2.195  0.7123  0.2372  0.2298
  330SOL     OW  988   0.548   0.294   1.946 -0.2268  0.2319  1.1935
  330SOL    HW1  989   0.634   0.295   1.892 -1.3766  0.4010  1.0341
  330SOL    HW2  990   0.567   0.255   2.038  1.4750 -0.0767 -1.7324
  331SOL     OW  991   0.031   1.924   1.109 -0.3980  0.2201 -0.1007
  331SOL    HW1  992   0.022   1.963   1.016  2.0033  0.5181  0.7603
  331SOL    HW2  993  -0.057   1.930   1.162  0.2864 -1.8622  1.7117
  332SOL     OW  994   0.413   1.164   0.081  0.7885 -0.3641 -0.6941
  332SOL    HW1  995   0.351   1.093   0.039  1.0230  1.6428 -0.0982
  332SOL    HW2  996   0.386   1.191   0.179  0.9468 -0.0204  0.6895
  333SOL     OW  997   2.921   0.932   0.380  0.3512  0.2098 -0.2419
  333SOL    HW1  998   2.936   1.022   0.431  1.3537 -0.2552 -0.7118
  333SOL    HW2  999   3.006   0.894   0.329 -4.9452  0.6528  1.4921
  334SOL     OW 1000   1.724   1.150   1.693 -0.1738 -0.1828 -0.2711
  334SOL    HW1 1001   1.769   1.177   1.600  1.3463  1.5595  0.4953
  334SOL    HW2 1002   1.781   1.182   1.779  0.1495  0.1818 -1.4357
  335SOL     OW 1003   1.936   2.761   2.580  0.1805 -0.3553  0.5781
  335SOL    HW1 1004   1.841   2.775   2.622  0.5749 -1.7065 -0.7612
  335SOL    HW2 1005   2.010   2.798   2.643 -0.5766  0.1051  2.0410
  336SOL     OW 1006   0.278   0.099   2.735  0.8402  0.6182 -0.6714
  336SOL    HW1 1007   0.359   0.093   2.805  0.2631  0.6279 -0.3512
  336SOL    HW2 1008   0.199   0.044   2.770  4.0619  1.6578  1.5206
  337SOL     OW 1009   0.803   2.855   3.042 -0.5815  0.0068  0.4081
  337SOL    HW1 1010   0.876   2.783   3.073  1.0009  0.8311 -1.6744
  337SOL    HW2 1011   0.738   2.896   3.105 -1.6115  0.5411 -0.4643
  338SOL     OW 1012   0.026   0.966   0.705  0.7324 -0.3890 -0.1005
  338SOL    HW1 1013  -0.074   0.935   0.720 -0.8079 -2.0902 -0.4697
  338SOL    HW2 1014   0.029   1.069   0.694  1.4377 -0.2104 -1.8679
  339SOL     OW 1015   1.770   1.336   2.147  0.0542  0.3047 -0.1643
  339SOL    HW1 1016   1.670   1.354   2.131  1.2151 -0.9000 -3.3955
  339SOL    HW2 1017   1.824   1.419   2.161 -2.1766  0.3938 -0.5724
  340SOL     OW 1018   2.258   0.776   1.102 -0.1620 -0.3007 -0.2050
  340SOL    HW1 1019   2.164   0.822   1.121  1.6274 -1.1713 -0.0557
  340SOL    HW2 1020   2.254   0.674   1.080 -3.2147 -2.2290 -1.0564
  341SOL     OW 1021   1.881   2.048   0.344 -0.4212 -0.0145 -0.5233
  341SOL    HW1 1022   1.895   2.097   0.256 -0.9447  0.4156  0.7876
  341SOL    HW2 1023   1.967   2.041   0.398 -0.7330 -0.5489 -1.0878
  342SOL     OW 1024   2.175   2.157   2.775  0.0827  0.0589 -0.0093
  342SOL    HW1 1025   2.201   2.076   2.834  0.8662 -3.2854  0.5787
  342SOL    HW2 1026   2.079   2.149   2.736 -0.2544  1.7374 -0.7905
  343SOL     OW 1027   0.351   0.866   2.855 -0.1170 -0.0464  0.4950
  343SOL    HW1 1028   0.341   0.914   2.762  0.6932  0.7872 -0.8968
  343SOL    HW2 1029   0.452   0.883   2.882  0.7850 -0.4848  1.1773
  344SOL     OW 1030   1.950   1.425   0.345 -0.2985 -0.3695 -0.3741
  344SOL    HW1 1031   1.940   1.332   0.303 -2.0745  1.1103  1.5753
  344SOL    HW2 1032   1.857   1.471   0.364 -0.6781 -1.1647  1.1852
  345SOL     OW 1033   1.396   2.193   2.846  0.0028 -0.3726 -0.1692
  345SOL    HW1 1034   1.302   2.163   2.822  2.5393 -0.9110  1.8606
  345SOL    HW2 1035   1.462   2.183   2.765  0.6670  2.4567  2.9983
  346SOL     OW 1036   2.310   0.811   1.370 -0.4358  0.4071  0.4636
  346SOL    HW1 1037   2.229   0.770   1.413  0.7939 -2.4447  0.4898
  346SOL    HW2 1038   2.303   0.807   1.268 -1.0130 -2.0401 -0.5542
  347SOL     OW 1039   0.701   2.801   1.706  0.0064 -0.0432 -0.0228
  347SOL    HW1 1040   0.773   2.869   1.680 -2.3815 -1.4783  1.7137
  347SOL    HW2 1041   0.632   2.782   1.636  1.6872 -0.1212 -1.1137
  348SOL     OW 1042   0.197   0.615   2.838 -0.2896 -0.2084 -0.0218
  348SOL    HW1 1043   0.098   0.633   2.813 -0.3291 -2.4543 -2.6702
  348SOL    HW2 1044   0.255   0.700   2.838 -1.3593 -0.9568  1.4665
  349SOL     OW 1045   1.761   0.429   2.826 -0.0692 -0.2947 -0.0828
  349SOL    HW1 1046   1.753   0.521   2.777 -0.8561 -0.5743  0.2463
  349SOL    HW2 1047   1.740   0.429   2.930 -0.7236  1.1355  1.3284
  350SOL     OW 1048   1.722   0.388   0.384  0.6826  0.3056 -0.2094
  350SOL    HW1 1049   1.800   0.372   0.453 -1.5478 -3.8419  1.3548
  350SOL    HW2 1050   1.708   0.480   0.339 -2.1809 -0.4353 -2.8043
  351SOL     OW 1051   0.841   0.798   2.084 -0.0018 -0.1607 -0.2663
  351SOL    HW1 1052   0.874   0.896   2.103 -1.9496 -1.0124  0.2074
  351SOL    HW2 1053   0.883   0.761   2.000  1.2574 -1.1723  1.6280
  352SOL     OW 1054   2.069   1.371   0.600  0.1259  0.2131 -0.0186
  352SOL    HW1 1055   2.018   1.397   0.514  1.5261  2.6027  0.3825
  352SOL    HW2 1056   2.007   1.311   0.657  0.5600  3.4142 -0.1381
  353SOL     OW 1057   2.174   2.693   1.127 -0.0337 -0.1161 -0.1185
  353SOL    HW1 1058   2.248   2.632   1.175  1.1791 -2.0264 -2.3745
  353SOL    HW2 1059   2.126   2.754   1.197 -0.3025 -0.4498 -0.3097
  354SOL     OW 1060   0.243   1.430   2.894 -0.0483 -0.0142 -0.3566
  354SOL    HW1 1061   0.269   1.512   2.836 -0.9672 -0.6859 -1.3025
  354SOL    HW2 1062   0.325   1.365   2.911 -1.1693 -2.7328  1.7153
  355SOL     OW 1063   0.717   1.613   0.596 -0.2499 -0.3674  0.7456
  355SOL    HW1 1064   0.693   1.572   0.687  0.3825  1.8335  0.7726
  355SOL    HW2 1065   0.687   1.557   0.511  0.4461  2.2001  0.4354
  356SOL     OW 1066   0.990   0.342   2.094 -0.0091  0.2999 -0.0856
  356SOL    HW1 1067   1.069   0.277   2.109 -0.0916  1.4294 -0.6657
  356SOL    HW2 1068   0.948   0.325   2.002  2.8118 -0.8346  1.5725
  357SOL     OW 1069   1.011   1.446   0.143  0.7180  0.6050 -0.2662
  357SOL    HW1 1070   1.055   1.387   0.071 -1.3886  0.5977 -0.2870
  357SOL    HW2 1071   1.071   1.516   0.190 -0.9442  0.2723  0.0683
  358SOL     OW 1072   1.680   1.473   0.447  0.2887  0.6543  0.1323
  358SOL    HW1 1073   1.681   1.415   0.531  2.9925  0.8571 -0.9818
  358SOL    HW2 1074   1.617   1.434   0.374  0.5024 -1.1001 -0.2741
  359SOL     OW 1075   1.614   2.563   0.204  0.7415  0.1344  0.0455
  359SOL    HW1 1076   1.610   2.466   0.166 -0.4197  0.2759  0.3240
  359SOL    HW2 1077   1.520   2.602   0.228 -0.0014  1.4818 -1.2899
  360SOL     OW 1078   0.712   0.511   0.568  0.3115 -0.1433 -0.4778
  360SOL    HW1 1079   0.628   0.503   0.506  0.6575 -0.0417  3.1457
  360SOL    HW2 1080   0.749   0.417   0.572 -1.3686  0.1554 -2.1225
  361SOL     OW 1081   1.374   1.310   0.624  0.0845  0.0425  0.2701
  361SOL    HW1 1082   1.406   1.368   0.709 -0.5031 -0.5465  2.0388
  361SOL    HW2 1083   1.297   1.350   0.570 -1.1491 -0.1296 -1.8757
  362SOL     OW 1084   1.386   1.817   0.716  0.3221  0.1424  0.4237
  362SOL    HW1 1085   1.439   1.771   0.793 -1.0529 -0.1092 -0.1553
  362SOL    HW2 1086   1.454   1.836   0.641 -0.0931 -0.0424  1.6679
  363SOL     OW 1087   1.263   1.333   1.933 -0.0701  0.3937 -0.0629
  363SOL    HW1 1088   1.321   1.367   2.012 -2.8189  2.4080 -1.2689
  363SOL    HW2 1089   1.229   1.409   1.874  2.2209 -1.3672 -3.2872
  364SOL     OW 1090   0.556   2.383   1.959 -0.1815  0.1729  0.2455
  364SOL    HW1 1091   0.453   2.373   1.979 -0.2639 -0.7283 -0.0697
  364SOL    HW2 1092   0.592   2.483   1.958  0.1063 -0.7657  0.9686
  365SOL     OW 1093   0.944   1.947   1.424 -0.1433 -0.0684 -0.6276
  365SOL    HW1 1094   0.866   1.991   1.473  0.8602  1.4490 -1.9598
  365SOL    HW2 1095   0.951   1.977   1.325 -0.7900  1.3338 -1.4971
  366SOL     OW 1096   2.743   1.875   0.256  0.0602 -0.5596 -0.1593
  366SOL    HW1 1097   2.661   1.815   0.238  0.6178  0.3871 -2.1219
  366SOL    HW2 1098   2.829   1.825   0.262 -1.8460  2.2863  3.6678
  367SOL     OW 1099   0.960   1.090   3.030 -0.0950 -0.1231 -0.1477
  367SOL    HW1 1100   0.933   1.056   3.124  0.1944 -0.8557 -0.0183
  367SOL    HW2 1101   1.015   1.178   3.027 -1.0924 -1.7876  1.1858
  368SOL     OW 1102   1.437   0.518   0.485 -0.3739 -0.3777 -0.3511
  368SOL    HW1 1103   1.340   0.560   0.476  3.5608  0.7196 -2.4351
  368SOL    HW2 1104   1.507   0.545   0.414  0.5847  0.9717  1.7521
  369SOL     OW 1105   0.354   1.658   0.147 -0.5465 -0.2945 -0.0473
  369SOL    HW1 1106   0.425   1.706   0.199 -1.6707 -1.7240  0.1863
  369SOL    HW2 1107   0.314   1.579   0.206 -2.3742  1.3360 -0.1104
  370SOL     OW 1108   0.447   2.140   1.025  0.8763 -0.2824  0.0365
  370SOL    HW1 1109   0.463   2.246   1.012  2.3813 -0.0854  0.4283
  370SOL    HW2 1110   0.352   2.109   0.994  0.6631  2.1228 -0.3269
  371SOL     OW 1111   2.919   2.165   2.703  0.3451 -0.1508 -0.3357
  371SOL    HW1 1112   2.991   2.093   2.689 -0.1450 -0.2973  2.0961
  371SOL    HW2 1113   2.929   2.214   2.790 -0.3215  2.7301 -1.3631
  372SOL     OW 1114   0.966   2.050   1.181  0.0954  0.0021  0.5643
  372SOL    HW1 1115   0.878   2.081   1.132 -1.4393  1.0205  0.9717
  372SOL    HW2 1116   1.030   2.128   1.198 -0.6022 -0.6532 -1.7407
  373SOL     OW 1117   1.921   1.900   1.037 -0.3720 -0.2988 -0.2668
  373SOL    HW1 1118   2.024   1.925   1.043 -0.5867  0.7015 -1.1816
  373SOL    HW2 1119   1.872   1.975   0.987 -3.7947 -2.8369  2.1174
  374SOL     OW 1120   1.929   0.334   0.558  0.0441 -1.2713  0.6957
  374SOL    HW1 1121   1.906   0.280   0.646  1.0137 -1.4474 -1.9300
  374SOL    HW2 1122   2.029   0.354   0.538  1.4570 -1.1410  1.2312
  375SOL     OW 1123   2.441   2.178   1.127 -0.4130 -0.5163 -0.3749
  375SOL    HW1 1124   2.445   2.234   1.036  0.1923  3.1189 -1.2611
  375SOL    HW2 1125   2.535   2.167   1.172  0.4655  0.7395  0.9027
  376SOL     OW 1126   3.062   0.626   1.434 -0.1986 -0.1696  0.0882
  376SOL    HW1 1127   3.083   0.681   1.521 -1.0049 -0.1425 -0.2822
  376SOL    HW2 1128   3.042   0.531   1.467  2.0963 -0.6411 -1.5701
  377SOL     OW 1129   2.256   2.939   0.161  0.0157  0.2140 -0.0794
  377SOL    HW1 1130   2.281   3.031   0.206  1.9232  1.7121 -0.9034
  377SOL    HW2 1131   2.284   2.853   0.215  1.1685 -0.1933 -1.5313
  378SOL     OW 1132   1.905   1.917   2.525  0.2000  0.0072 -0.3549
  378SOL    HW1 1133   1.993   1.891   2.483 -1.0528 -0.6309  1.2432
  378SOL    HW2 1134   1.841   1.838   2.528  0.3819  1.7350  2.2182
  379SOL     OW 1135   0.767   0.150   2.803  0.1506 -0.0883 -1.1921
  379SOL    HW1 1136   0.847   0.082   2.792  0.5490 -1.8165  2.4354
  379SOL    HW2 1137   0.772   0.225   2.735 -0.6439  2.6771 -0.4612
  380SOL     OW 1138   1.552   1.105   0.549  0.5483 -0.7200 -0.0375
  380SOL    HW1 1139   1.462   1.160   0.563 -2.7805 -1.1257 -2.1347
  380SOL    HW2 1140   1.538   1.004   0.554 -0.2687  1.8061  1.4996
  381SOL     OW 1141   1.263   1.301   1.462 -0.0894 -0.2346 -0.7676
  381SOL    HW1 1142   1.315   1.248   1.393  1.2081  1.1297  0.3610
  381SOL    HW2 1143   1.322   1.312   1.548  1.5459 -2.3072  1.1641
  382SOL     OW 1144   1.807   0.850   0.276 -0.3003  0.4971  0.3726
  382SOL    HW1 1145   1.842   0.800   0.191  1.1983  0.4761  0.6596
  382SOL    HW2 1146   1.881   0.845   0.355  1.6522 -1.5920  1.3986
  383SOL     OW 1147   2.513   1.011   1.487 -0.4117  0.1883  0.2842
  383SOL    HW1 1148   2.415   1.002   1.452  0.9677 -1.0483  1.9253
  383SOL    HW2 1149   2.585   0.979   1.414  2.0531  0.3036 -1.3246
  384SOL     OW 1150   0.960   2.303   0.212  0.2193 -0.4752 -0.3584
  384SOL    HW1 1151   0.873   2.355   0.215  3.4191 -0.4580  2.1784
  384SOL    HW2 1152   0.995   2.277   0.305  1.8185  0.5630 -0.2243
  385SOL     OW 1153   2.926   2.024   1.647 -0.5046 -0.0956 -0.6275
  385SOL    HW1 1154   3.011   2.081   1.679  2.5466  0.0254 -1.3188
  385SOL    HW2 1155   2.946   1.923   1.658 -1.1908  1.8226  1.3453
  386SOL     OW 1156   0.476   1.069   0.481  0.0159 -0.2401  0.8386
  386SOL    HW1 1157   0.458   0.967   0.490 -0.3688  3.6559 -4.9775
  386SOL    HW2 1158   0.396   1.109   0.425  0.9106 -2.6065 -3.9562
  387SOL     OW 1159   0.957   0.293   1.633 -0.3625 -0.5140 -0.1862
  387SOL    HW1 1160   0.982   0.392   1.630 -0.1858 -2.6783  1.4960
  387SOL    HW2 1161   0.936   0.257   1.537  0.6296 -1.2917 -0.3117
  388SOL     OW 1162   1.210   2.718   1.741  0.5019  0.0383  0.2960
  388SOL    HW1 1163   1.277   2.735   1.665  0.5375  0.6475  0.5649
  388SOL    HW2 1164   1.239   2.648   1.810 -1.3407  0.2072 -0.8902
  389SOL     OW 1165   0.155   2.913   1.320  0.0830 -0.0977  0.2836
  389SOL    HW1 1166   0.056   2.925   1.293  1.3898  1.2355  1.4671
  389SOL    HW2 1167   0.188   2.819   1.299 -2.8833  0.4586 -1.8600
  390SOL     OW 1168   1.025   0.961   1.367  0.0860 -0.1280 -0.3635
  390SOL    HW1 1169   1.120   0.964   1.402 -0.3278 -0.2499 -0.9828
  390SOL    HW2 1170   0.982   1.054   1.369  1.7270  1.4073 -1.1347
  391SOL     OW 1171   2.156   1.148   1.110 -0.5072  0.3556  0.0202
  391SOL    HW1 1172   2.131   1.060   1.160 -1.6174  1.2331 -1.0128
  391SOL    HW2 1173   2.209   1.123   1.025 -0.0831 -2.2402  3.0072
  392SOL     OW 1174   0.890   2.612   0.068  0.3074 -0.4574 -0.0093
  392SOL    HW1 1175   0.973   2.554   0.047  1.3858 -1.4732 -0.7178
  392SOL    HW2 1176   0.814   2.561   0.119 -0.1665 -0.0774 -2.9266
  393SOL     OW 1177   0.299   0.652   1.955  0.2021 -0.3144 -0.0819
  393SOL    HW1 1178   0.287   0.548   1.944  0.0288  1.7407  0.0579
  393SOL    HW2 1179   0.320   0.705   1.869  0.3302  1.3999  0.5066
  394SOL     OW 1180   3.074   1.934   2.694 -0.5040 -0.1702 -0.5138
  394SOL    HW1 1181   3.142   1.894   2.763  1.3040  0.4305 -0.0369
  394SOL    HW2 1182   3.080   1.889   2.605  1.5375 -0.1085  2.1400
  395SOL     OW 1183   1.621   1.985   0.646 -0.0059  0.5063 -0.1039
  395SOL    HW1 1184   1.670   1.902   0.609  0.1086  0.8234 -1.5244
  395SOL    HW2 1185   1.675   2.025   0.727 -0.2823 -2.9723  0.2418
  396SOL     OW 1186   2.906   1.867   1.286  0.1617 -0.3623  0.4553
  396SOL    HW1 1187   2.928   1.774   1.252 -1.3012  2.4022 -1.1222
  396SOL    HW2 1188   2.852   1.867   1.378 -1.3621 -2.3201  0.2304
  397SOL     OW 1189   1.040   2.207   0.514  0.0995  0.2217 -0.0637
  397SOL    HW1 1190   0.942   2.171   0.531  0.1105 -1.4922 -0.1715
  397SOL    HW2 1191   1.062   2.302   0.542 -0.6135 -1.3582  0.4251
  398SOL     OW 1192   2.150   3.048   1.146  0.2086 -0.4429  0.6097
  398SOL    HW1 1193   2.057   2.998   1.163 -0.7503 -1.9478 -1.1873
  398SOL    HW2 1194   2.147   3.144   1.110  1.9013 -1.8912 -0.5232
  399SOL     OW 1195   3.048   2.452   2.658 -0.6283  0.1702 -0.3085
  399SOL    HW1 1196   2.973   2.414   2.720  3.1964  4.1520  3.8534
  399SOL    HW2 1197   3.126   2.384   2.643  1.1747 -2.1550 -0.8777
  400SOL     OW 1198   0.657   1.699   1.358 -0.2284  0.3315 -0.2672
  400SOL    HW1 1199   0.587   1.746   1.419  1.9994  1.6991 -0.6994
  400SOL    HW2 1200   0.663   1.749   1.267 -1.9223  1.1033 -0.9593
  401SOL     OW 1201   1.865   0.283   1.140 -0.1314  0.4795  0.3670
  401SOL    HW1 1202   1.882   0.298   1.240 -0.3427 -2.0803  2.0096
  401SOL    HW2 1203   1.776   0.331   1.112  1.3947  0.9000 -2.4185
  402SOL     OW 1204   1.357   0.262   3.087  0.0541 -0.0681 -0.3962
  402SOL    HW1 1205   1.436   0.216   3.033  1.4848  0.8072  0.5551
  402SOL    HW2 1206   1.313   0.333   3.023  0.1883 -0.6946  0.4221
  403SOL     OW 1207   2.235   1.884   0.834  0.0873  0.2507 -0.5303
  403SOL    HW1 1208   2.339   1.887   0.806  1.6835  2.8282  0.8954
  403SOL    HW2 1209   2.216   1.902   0.937  2.1239  0.9504  2.7325
  404SOL     OW 1210   0.258   2.485   2.758  0.5140  0.0008 -0.1239
  404SOL    HW1 1211   0.331   2.481   2.686 -0.3088  0.6347  1.3841
  404SOL    HW2 1212   0.265   2.575   2.811 -0.3245  0.1085 -0.0685
  405SOL     OW 1213   0.137   2.378   0.739 -0.0266 -0.0188  0.0547
  405SOL    HW1 1214   0.113   2.297   0.674  1.8287 -0.8798 -1.0912
  405SOL    HW2 1215   0.224   2.431   0.702  0.3993 -2.9214 -1.9905
  406SOL     OW 1216   0.045   1.541   3.091 -0.1581 -0.1139 -0.3457
  406SOL    HW1 1217   0.118   1.507   3.027  2.9233  1.5818  2.2179
  406SOL    HW2 1218   0.065   1.514   3.190  1.8331 -1.7933 -1.0647
  407SOL     OW 1219   1.584   0.887   0.964  0.2804 -0.0356 -0.4646
  407SOL    HW1 1220   1.597   0.871   0.865 -0.5883  1.4972  0.7536
  407SOL    HW2 1221   1.512   0.956   0.994 -2.1688 -1.6146 -0.2003
  408SOL     OW 1222   1.551   2.372   0.964  0.8205 -0.2216 -0.0772
  408SOL    HW1 1223   1.631   2.365   0.903 -1.3167  0.3156  0.6011
  408SOL    HW2 1224   1.497   2.461   0.950  0.8852 -0.3611  0.7396
  409SOL     OW 1225   0.618   0.828   0.745 -0.2439  0.1487 -0.5713
  409SOL    HW1 1226   0.566   0.810   0.659  2.1803  0.7596  1.4700
  409SOL    HW2 1227   0.645   0.735   0.789  1.5284  0.5143 -1.4807
  410SOL     OW 1228   1.237   2.008   1.383 -0.4575  0.2709  0.5002
  410SOL    HW1 1229   1.321   1.966   1.433 -2.2802  0.8719 -1.0747
  410SOL    HW2 1230   1.153   1.963   1.419 -0.8625  1.4768  0.8150
  411SOL     OW 1231   2.515   1.852   3.011 -0.4432  0.0376 -0.0524
  411SOL    HW1 1232   2.566   1.941   3.028  0.4124 -2.0181 -1.5925
  411SOL    HW2 1233   2.503   1.830   2.911  3.6446 -0.5309 -0.7009
  412SOL     OW 1234   1.483   2.467   2.157  0.3950 -0.0262 -0.1190
  412SOL    HW1 1235   1.557   2.482   2.231  0.5968  0.4101 -0.5759
  412SOL    HW2 1236   1.389   2.453   2.203  1.8600 -2.2686  0.8671
  413SOL     OW 1237   0.018   0.255   3.023  0.5873  0.7226  0.5202
  413SOL    HW1 1238  -0.022   0.160   3.016 -1.4741 -0.3991  0.3944
  413SOL    HW2 1239   0.119   0.254   3.039  1.3266 -0.7846  0.9042
  414SOL     OW 1240   1.775   1.505   1.147 -0.2638  0.2864 -0.6823
  414SOL    HW1 1241   1.742   1.601   1.162 -2.8481 -2.2281 -2.4599
  414SOL    HW2 1242   1.794   1.475   1.048 -0.5608 -1.4972 -0.7843
  415SOL     OW 1243   0.346   2.145   0.669  0.4576 -0.3298 -0.2284
  415SOL    HW1 1244   0.310   2.170   0.764 -4.5390  0.5131 -1.9702
  415SOL    HW2 1245   0.271   2.157   0.597  1.7396  2.1008  2.0475
  416SOL     OW 1246   0.366   1.098   1.065 -0.2046 -0.2936  0.2565
  416SOL    HW1 1247   0.349   1.031   0.984 -1.0699 -0.0279 -0.5199
  416SOL    HW2 1248   0.469   1.120   1.078  0.5709  1.9942 -0.2896
  417SOL     OW 1249   2.363   2.410   2.110  0.2473  0.3500 -0.0212
  417SOL    HW1 1250   2.376   2.308   2.092  1.5698 -0.8417  0.6980
  417SOL    HW2 1251   2.326   2.426   2.207 -0.3066 -1.7566  3.3373
  418SOL     OW 1252   1.032   0.510   1.340  0.3603  0.4438 -0.3012
  418SOL    HW1 1253   0.954   0.471   1.281 -1.6721  1.8032  1.1259
  418SOL    HW2 1254   1.117   0.534   1.280  3.7222  0.2293 -0.3682
  419SOL     OW 1255   0.900   0.540   2.971 -0.4219 -0.1155 -0.1203
  419SOL    HW1 1256   0.814   0.582   2.931 -0.6220  0.2381  0.3151
  419SOL    HW2 1257   0.957   0.619   2.994 -3.0786 -1.0247  0.1854
  420SOL     OW 1258   0.121   2.200   0.503  0.1638 -0.0722 -0.0113
  420SOL    HW1 1259   0.160   2.147   0.418  0.3941 -4.2898 -0.6480
  420SOL    HW2 1260   0.038   2.143   0.542 -1.6891 -1.4305  2.6040
  421SOL     OW 1261   0.314   2.982   0.537 -0.2486 -0.2092 -0.1865
  421SOL    HW1 1262   0.283   2.917   0.613 -0.3253  0.5256  0.1847
  421SOL    HW2 1263   0.395   3.039   0.567 -0.6914 -1.2949 -1.8188
  422SOL     OW 1264   1.046   2.564   0.973  0.0983 -0.4001 -0.6973
  422SOL    HW1 1265   1.089   2.611   0.885 -1.1859  4.6530 -0.2812
  422SOL    HW2 1266   1.120   2.531   1.034 -1.4471 -1.6644 -0.2939
  423SOL     OW 1267   0.148   0.734   1.260  0.0885  0.0952  0.3244
  423SOL    HW1 1268   0.065   0.693   1.314 -2.7674  1.1483 -1.2936
  423SOL    HW2 1269   0.121   0.812   1.199 -0.3307 -0.2344 -0.4158
  424SOL     OW 1270   1.165   2.217   2.050 -0.2460 -0.0469  0.0676
  424SOL    HW1 1271   1.146   2.318   2.045 -0.3813  0.8054 -1.0410
  424SOL    HW2 1272   1.117   2.162   2.125 -0.5109 -1.3100 -0.2454
  425SOL     OW 1273   1.979   1.306   0.992 -0.9119  0.1353  0.1544
  425SOL    HW1 1274   2.058   1.266   1.048  1.9038  0.9285  0.1453
  425SOL    HW2 1275   2.003   1.404   0.972  0.6399 -0.4227 -0.6601
  426SOL     OW 1276   1.438   1.599   1.197 -0.4026 -0.1072  0.1391
  426SOL    HW1 1277   1.475   1.688   1.169  1.0676 -0.5512 -0.7843
  426SOL    HW2 1278   1.377   1.599   1.284  1.2178 -3.2149  0.3556
  427SOL     OW 1279   1.958   2.389   2.089  0.1795  0.1506  0.5411
  427SOL    HW1 1280   2.014   2.340   2.159  0.7456 -0.7800  1.9205
  427SOL    HW2 1281   1.964   2.493   2.097  0.5253 -2.4703  2.3002
  428SOL     OW 1282   0.897   0.037   0.109  0.4783 -0.0683 -0.2439
  428SOL    HW1 1283   0.924   0.116   0.046  2.2781 -3.2217  0.2988
  428SOL    HW2 1284   0.976  -0.025   0.132  1.3493  0.6521 -0.4525
  429SOL     OW 1285   1.303   0.170   0.244 -0.0975  0.0209  0.1873
  429SOL    HW1 1286   1.391   0.165   0.300 -1.8118 -0.3502 -2.1190
  429SOL    HW2 1287   1.328   0.197   0.147  0.2842 -0.6762  0.0969
  430SOL     OW 1288   2.906   1.408   0.286 -0.2262 -0.5178 -0.5329
  430SOL    HW1 1289   2.870   1.470   0.219 -0.0981 -2.9618  2.7215
  430SOL    HW2 1290   2.857   1.438   0.372 -0.6978 -2.9945  0.2238
  431SOL     OW 1291   2.058   1.581   0.907  0.0618 -0.0816 -0.2790
  431SOL    HW1 1292   2.144   1.629   0.940 -0.8304  1.6999  1.6484
  431SOL    HW2 1293   2.023   1.621   0.820  1.8622 -1.1496 -0.6798
  432SOL     OW 1294   2.917   2.159   1.212  0.0060  0.1194  0.3538
  432SOL    HW1 1295   2.877   2.072   1.251 -2.7028  0.1934 -3.7733
  432SOL    HW2 1296   2.939   2.232   1.284 -0.3023 -1.5308  0.2657
  433SOL     OW 1297   1.851   0.228   0.805 -0.1670  0.8859 -0.5544
  433SOL    HW1 1298   1.788   0.287   0.857 -1.9604 -1.6161 -0.7215
  433SOL    HW2 1299   1.927   0.199   0.875  0.6227  2.9993 -0.2500
  434SOL     OW 1300   1.547   0.303   0.667 -0.0407 -0.2278 -0.0003
  434SOL    HW1 1301   1.505   0.355   0.585 -0.7543  0.6712  1.4828
  434SOL    HW2 1302   1.629   0.362   0.705  0.8480 -2.5386  1.0304
  435SOL     OW 1303   1.502   1.416   2.093 -0.5666 -0.3120  0.7924
  435SOL    HW1 1304   1.499   1.469   2.186 -0.4167  1.4331  0.6933
  435SOL    HW2 1305   1.501   1.482   2.013  1.5345 -0.6055  2.9843
  436SOL     OW 1306   1.718   2.720   2.263  0.3827  0.2186  0.6025
  436SOL    HW1 1307   1.653   2.793   2.305 -0.0470  0.7072 -1.4914
  436SOL    HW2 1308   1.702   2.625   2.304 -1.6228 -2.0344 -0.4026
  437SOL     OW 1309   1.111   2.958   0.926  0.3306  0.1889  0.1114
  437SOL    HW1 1310   1.064   3.050   0.913  0.5986 -0.4347 -0.8420
  437SOL    HW2 1311   1.109   2.912   1.017  0.1694 -0.4464 -3.2426
  438SOL     OW 1312   1.021   2.686   1.488 -0.2143  0.5746  0.6243
  438SOL    HW1 1313   1.120   2.724   1.467  4.0948 -4.0923 -2.4579
  438SOL    HW2 1314   1.005   2.597   1.439 -1.3922 -0.7072 -0.5609
  439SOL     OW 1315   0.682   1.846   1.059 -0.2235  0.5491  0.2488
  439SOL    HW1 1316   0.670   1.935   1.003  2.2486  2.4961  1.2832
  439SOL    HW2 1317   0.594   1.790   1.072 -0.4480  1.3432 -4.8705
  440SOL     OW 1318   1.048   2.498   1.974 -0.6989  0.2799 -0.4091
  440SOL    HW1 1319   1.000   2.516   1.884  1.9188  0.8543 -3.9781
  440SOL    HW2 1320   1.152   2.495   1.965  0.2946  1.0013  1.2039
  441SOL     OW 1321   0.376   2.680   1.525  0.1572  0.5599 -0.5769
  441SOL    HW1 1322   0.435   2.597   1.540 -2.7008  1.3531  2.9368
  441SOL    HW2 1323   0.318   2.670   1.441  1.7008 -1.7174 -2.2460
  442SOL     OW 1324   2.280   0.670   2.558  0.2549 -0.3025  0.0563
  442SOL    HW1 1325   2.267   0.565   2.559  0.0671 -2.4834 -0.3494
  442SOL    HW2 1326   2.192   0.725   2.573  0.2646  0.9404 -1.4862
  443SOL     OW 1327   1.206   2.665   2.204  0.0136  0.3584  0.4724
  443SOL    HW1 1328   1.214   2.719   2.289  0.4414 -2.4435  1.3784
  443SOL    HW2 1329   1.180   2.567   2.220 -2.4015 -0.6549 -1.9720
  444SOL     OW 1330   0.996   1.375   1.553  0.2034  0.0620 -0.1272
  444SOL    HW1 1331   1.101   1.374   1.543  0.3698 -2.2947  0.0510
  444SOL    HW2 1332   0.954   1.468   1.545  0.8891 -0.9407 -1.3362
  445SOL     OW 1333   3.075   2.369   1.978  0.2600  0.2681  0.3288
  445SOL    HW1 1334   3.081   2.442   1.907  0.2129  1.0557  2.0563
  445SOL    HW2 1335   2.980   2.350   2.011  0.0362  0.2892  1.1138
  446SOL     OW 1336   0.194   1.878   2.338  0.1585 -0.0275  0.0735
  446SOL    HW1 1337   0.181   1.967   2.390  1.9349  2.4946 -0.3777
  446SOL    HW2 1338   0.102   1.852   2.299  1.1135  1.3328 -0.3694
  447SOL     OW 1339   1.225   1.655   1.942 -0.3675 -0.5001  0.0126
  447SOL    HW1 1340   1.175   1.725   1.884 -1.3775 -2.3290  1.4262
  447SOL    HW2 1341   1.328   1.663   1.937 -0.1026 -1.6829  0.9139
  448SOL     OW 1342   0.110   1.538   1.940 -0.0439  0.5888 -0.4684
  448SOL    HW1 1343   0.121   1.640   1.945  2.6085 -2.0749 -2.6127
  448SOL    HW2 1344   0.140   1.489   2.030 -0.7153 -0.7574 -1.9978
  449SOL     OW 1345   2.009   3.001   0.856  0.1293  0.0028  0.4548
  449SOL    HW1 1346   2.055   2.988   0.947  1.2910 -1.1354 -1.5266
  449SOL    HW2 1347   1.985   2.909   0.810 -0.1544 -3.1064  1.8324
  450SOL     OW 1348   2.270   1.367   0.905  0.2298  0.0683  0.6515
  450SOL    HW1 1349   2.274   1.265   0.886  0.8989 -2.4163 -0.9518
  450SOL    HW2 1350   2.233   1.414   0.824 -2.2542 -2.1685 -2.9254
  451SOL     OW 1351   1.416   0.024   1.440 -0.0503 -0.0728  0.3908
  451SOL    HW1 1352   1.338   0.089   1.450 -2.7094 -2.0742 -1.1480
  451SOL    HW2 1353   1.428  -0.043   1.521  1.5042 -0.1310  0.9029
  452SOL     OW 1354   2.665   2.338   2.245  0.2196  0.4864 -0.4658
  452SOL    HW1 1355   2.623   2.429   2.236  1.1998  1.5583  0.4570
  452SOL    HW2 1356   2.669   2.301   2.347 -0.8010  0.0256  0.7551
  453SOL     OW 1357   2.428   2.587   3.041 -0.0985 -0.3436  0.4613
  453SOL    HW1 1358   2.356   2.664   3.027 -0.1725  0.2466  1.0431
  453SOL    HW2 1359   2.419   2.523   2.961 -0.1548  1.0897  0.3676
  454SOL     OW 1360   0.956   1.090   2.075 -0.0072 -0.1372 -0.4119
  454SOL    HW1 1361   0.968   1.150   1.992  0.9543 -2.3113  0.4463
  454SOL    HW2 1362   1.039   1.048   2.117  1.4214  1.9223 -1.6113
  455SOL     OW 1363   0.646   2.673   2.907 -0.8369 -0.0175 -0.2947
  455SOL    HW1 1364   0.713   2.740   2.958 -0.1246 -0.4687 -0.8763
  455SOL    HW2 1365   0.627   2.588   2.957 -2.4588  0.6466 -1.1109
  456SOL     OW 1366   0.520   1.787   0.322  0.2173 -0.5228  0.8817
  456SOL    HW1 1367   0.587   1.719   0.356 -1.7372  1.9026 -0.5054
  456SOL    HW2 1368   0.555   1.881   0.296 -1.2642  1.2134  0.0853
  457SOL     OW 1369   0.341   2.532   0.659  0.6728  0.4727 -0.4070
  457SOL    HW1 1370   0.374   2.567   0.568  0.0129 -0.4392 -0.3638
  457SOL    HW2 1371   0.422   2.524   0.723 -0.1108  1.6001 -2.8401
  458SOL     OW 1372   2.991   2.973   1.258  0.2131  0.5493 -0.8948
  458SOL    HW1 1373   2.994   3.073   1.233 -1.9024 -0.4556  0.4333
  458SOL    HW2 1374   2.941   2.916   1.191  1.7746  2.2930 -0.1993
  459SOL     OW 1375   2.162   2.544   0.901 -0.1324  0.6390  0.1978
  459SOL    HW1 1376   2.181   2.605   0.982 -3.1665  0.0282 -1.7771
  459SOL    HW2 1377   2.253   2.534   0.845  1.4283 -0.1272  3.2976
  460SOL     OW 1378   1.070   1.925   2.919  0.0550  0.1492 -0.0638
  460SOL    HW1 1379   1.066   2.015   2.867  0.5733  0.1155 -2.6920
  460SOL    HW2 1380   1.166   1.893   2.942 -1.9837  1.9113  0.0639
  461SOL     OW 1381   0.562   2.116   2.701  0.3948 -0.0071 -0.5627
  461SOL    HW1 1382   0.481   2.050   2.686  0.1937 -0.0618 -0.8353
  461SOL    HW2 1383   0.616   2.091   2.786 -1.0481  0.0611 -0.0810
  462SOL     OW 1384   0.957   1.181   1.790  0.2468  0.0389 -0.0633
  462SOL    HW1 1385   1.017   1.097   1.771  1.8033 -2.2035 -0.1058
  462SOL    HW2 1386   0.991   1.261   1.747 -1.3077 -0.4696 -1.2847
  463SOL     OW 1387   0.436   0.783   0.521  0.2037 -0.5694 -0.4204
  463SOL    HW1 1388   0.483   0.701   0.481  0.1765 -1.5349 -0.6341
  463SOL    HW2 1389   0.330   0.783   0.510  0.4184 -1.5070  0.8815
  464SOL     OW 1390   0.503   2.247   2.228  0.2411  0.2508 -0.0289
  464SOL    HW1 1391   0.427   2.281   2.292 -0.4249  1.3347 -0.2847
  464SOL    HW2 1392   0.505   2.303   2.141 -0.7746  1.2000  0.5748
  465SOL     OW 1393   0.298   0.903   0.892  0.7813  0.7596 -0.4069
  465SOL    HW1 1394   0.210   0.897   0.838 -0.5625 -1.8928  2.6998
  465SOL    HW2 1395   0.322   0.804   0.913 -2.4701  1.7628  1.8349
  466SOL     OW 1396   1.393   1.061   1.076  0.0178  0.7734  0.9474
  466SOL    HW1 1397   1.460   1.139   1.057  1.6116 -0.8798  0.8581
  466SOL    HW2 1398   1.297   1.094   1.086  0.6611  0.3447 -0.3451
  467SOL     OW 1399   0.461   0.381   2.447  0.3285 -0.4017  0.1010
  467SOL    HW1 1400   0.454   0.465   2.505 -0.8892 -0.4134  1.0632
  467SOL    HW2 1401   0.473   0.299   2.506 -1.1243  2.6653  1.0076
  468SOL     OW 1402   0.493   2.220   1.721 -0.1667 -0.2730  0.4800
  468SOL    HW1 1403   0.534   2.290   1.785  1.1030 -1.8750 -0.0393
  468SOL    HW2 1404   0.451   2.257   1.634 -0.4298 -1.3015  1.0242
  469SOL     OW 1405   1.577   1.265   1.102  0.0734 -0.1901  0.0080
  469SOL    HW1 1406   1.667   1.233   1.139  0.7925  1.0221  0.0018
  469SOL    HW2 1407   1.569   1.369   1.114  1.3522  2.1063  0.4724
  470SOL     OW 1408   3.033   1.635   0.734 -0.1402 -0.1803  0.2964
  470SOL    HW1 1409   3.117   1.652   0.792 -1.3313  0.7971  1.4430
  470SOL    HW2 1410   2.961   1.699   0.762 -0.3485 -3.4743 -0.2966
  471SOL     OW 1411   2.647   1.300   2.168 -0.4687  0.4047  0.3680
  471SOL    HW1 1412   2.634   1.211   2.226 -2.1352 -0.6679  1.0354
  471SOL    HW2 1413   2.697   1.380   2.218 -1.2610 -1.7507  1.5513
  472SOL     OW 1414   1.127   2.463   0.016  0.2669  0.0173 -0.8768
  472SOL    HW1 1415   1.198   2.454   0.091 -1.0107 -0.7494  0.9787
  472SOL    HW2 1416   1.078   2.373   0.001 -1.0322  1.2530  2.9653
  473SOL     OW 1417   1.044   1.571   0.872 -0.5148 -0.4287  0.6934
  473SOL    HW1 1418   0.961   1.580   0.932  2.1708 -0.9981  1.6627
  473SOL    HW2 1419   1.124   1.532   0.926  1.3964  1.2587  1.5727
  474SOL     OW 1420   0.804   1.226   0.780 -0.2320  0.5766  0.3133
  474SOL    HW1 1421   0.768   1.220   0.680 -1.6758  2.9529 -1.2530
  474SOL    HW2 1422   0.905   1.218   0.787  0.9337  0.1315  0.8083
  475SOL     OW 1423   2.895   0.074   0.783  0.1112 -0.3273  0.5999
  475SOL    HW1 1424   2.981   0.060   0.841 -2.2260 -0.6676 -2.0263
  475SOL    HW2 1425   2.807   0.090   0.832  1.4929 -0.4260 -1.7606
  476SOL     OW 1426   0.897   3.046   1.866  0.7996  0.1696  0.9478
  476SOL    HW1 1427   0.976   3.002   1.914  1.3356  1.6441  1.1048
  476SOL    HW2 1428   0.908   3.046   1.763 -0.5982  2.8056  1.3210
  477SOL     OW 1429   1.461   0.392   2.430  0.6587  0.1885  0.2913
  477SOL    HW1 1430   1.413   0.364   2.518  0.6027 -0.2159 -2.0534
  477SOL    HW2 1431   1.552   0.345   2.415  0.5700  1.5601 -0.8183
  478SOL     OW 1432   2.240   1.797   0.261 -1.1190 -0.0516 -0.6642
  478SOL    HW1 1433   2.201   1.714   0.217  0.2230  0.8254 -1.1616
  478SOL    HW2 1434   2.344   1.793   0.266  0.1329  1.0247  0.2455
  479SOL     OW 1435   1.195   1.121   2.856 -0.5819  0.8755  0.1567
  479SOL    HW1 1436   1.267   1.093   2.782  0.7231 -0.7815  0.9375
  479SOL    HW2 1437   1.103   1.071   2.846 -2.0854 -2.3080  0.2386
  480SOL     OW 1438   2.476   2.348   0.361  0.2198  0.0830  0.0383
  480SOL    HW1 1439   2.434   2.266   0.412  1.1766 -2.9795  1.1517
  480SOL    HW2 1440   2.410   2.390   0.295  0.6534 -0.0529  1.0001
  481SOL     OW 1441   1.074   1.198   0.820 -0.2370 -0.5426  0.6327
  481SOL    HW1 1442   1.101   1.280   0.760  3.7659 -0.0992  2.6606
  481SOL    HW2 1443   1.105   1.216   0.917 -1.0191 -0.1284  1.6518
  482SOL     OW 1444   1.628   0.281   2.020  0.2348 -0.3430 -0.5662
  482SOL    HW1 1445   1.614   0.371   1.965  0.1228  2.1894 -1.5429
  482SOL    HW2 1446   1.725   0.271   2.054  1.4597  0.0288  0.1876
  483SOL     OW 1447   0.138   2.336   1.312 -0.1309 -0.4804  0.1067
  483SOL    HW1 1448   0.042   2.327   1.340  1.2981 -1.5270  0.6944
  483SOL    HW2 1449   0.156   2.368   1.214  2.4023 -2.9483 -0.2321
  484SOL     OW 1450   1.722   0.949   1.395 -0.2716 -0.4718  0.1036
  484SOL    HW1 1451   1.818   0.940   1.441 -0.1909  1.6854 -0.6954
  484SOL    HW2 1452   1.714   1.035   1.336 -0.1213  1.4251  1.9376
  485SOL     OW 1453   0.694   1.118   1.778 -0.4016  0.2336 -0.0669
  485SOL    HW1 1454   0.685   1.064   1.691 -1.2998  1.7513 -1.1741
  485SOL    HW2 1455   0.797   1.148   1.787  1.9260 -1.7737 -0.2490
  486SOL     OW 1456   0.892   1.918   2.417  0.6724  0.0804 -0.1465
  486SOL    HW1 1457   0.940   1.863   2.492 -1.3180 -1.2078  3.1948
  486SOL    HW2 1458   0.837   1.996   2.454 -2.1432 -0.5392  0.0281
  487SOL     OW 1459   1.737   1.496   0.878 -0.1054  0.0015  0.0192
  487SOL    HW1 1460   1.718   1.414   0.817  2.5759 -0.7365 -3.0987
  487SOL    HW2 1461   1.796   1.571   0.837 -0.0390  1.5306 -1.9191
  488SOL     OW 1462   2.971   0.953   2.275  0.5357 -0.0868 -0.2864
  488SOL    HW1 1463   3.004   0.865   2.223 -1.3423 -1.5595 -3.0532
  488SOL    HW2 1464   2.988   0.957   2.374  0.8962  0.0030 -1.6814
  489SOL     OW 1465   2.783   0.191   1.308  0.0128 -0.0828  0.3807
  489SOL    HW1 1466   2.780   0.225   1.408 -1.0530  1.8617 -1.5803
  489SOL    HW2 1467   2.879   0.170   1.280 -2.0124 -0.4709  1.0850
  490SOL     OW 1468   1.416   2.969   2.830 -0.3574  0.3558 -0.2292
  490SOL    HW1 1469   1.453   2.872   2.833  0.7490 -2.2061  0.8576
  490SOL    HW2 1470   1.382   3.010   2.743 -0.7117  0.4357 -2.3627
  491SOL     OW 1471   1.910   1.560   2.660 -0.0353  0.3026 -0.1126
  491SOL    HW1 1472   1.942   1.585   2.755 -0.1500 -1.6458 -1.5924
  491SOL    HW2 1473   1.978   1.597   2.594  0.0315 -2.3395  3.8483
  492SOL     OW 1474   0.472   1.913   0.712  0.2220 -0.6494 -0.1613
  492SOL    HW1 1475   0.549   1.938   0.779  2.4092  2.1940  1.3555
  492SOL    HW2 1476   0.427   1.998   0.674 -0.2180 -2.4362 -0.3167
  493SOL     OW 1477   0.463   1.409   2.155  0.1698 -0.2476  0.6919
  493SOL    HW1 1478   0.364   1.440   2.161  1.4322  2.7474 -0.0415
  493SOL    HW2 1479   0.488   1.340   2.229 -0.2277 -1.1222  0.8692
  494SOL     OW 1480   2.613   2.650   0.171 -0.0815 -0.6929 -0.0108
  494SOL    HW1 1481   2.647   2.575   0.235  0.6468 -0.5066 -1.8623
  494SOL    HW2 1482   2.574   2.617   0.080 -3.0872 -0.7176 -1.6075
  495SOL     OW 1483   2.753   2.685   2.683 -0.3514 -0.1514 -0.2221
  495SOL    HW1 1484   2.726   2.595   2.633 -0.5031 -0.5300 -1.6784
  495SOL    HW2 1485   2.766   2.760   2.617 -1.9034  0.0303 -0.2305
  496SOL     OW 1486   2.026   2.197   0.704  0.0393  0.0322  0.0924
  496SOL    HW1 1487   2.051   2.241   0.796  1.6449 -1.6262  0.3639
  496SOL    HW2 1488   2.048   2.096   0.704 -1.6913  5.6809  0.0622
  497SOL     OW 1489   0.237   2.974   2.404  0.5434 -0.6471  0.3002
  497SOL    HW1 1490   0.189   3.041   2.470  0.3421  1.1596  1.8163
  497SOL    HW2 1491   0.279   3.013   2.317  0.5218 -2.3499 -1.9167
  498SOL     OW 1492   1.217   1.500   1.059  0.4705  0.1811  0.0459
  498SOL    HW1 1493   1.310   1.526   1.099 -0.7254 -1.7807 -3.5545
  498SOL    HW2 1494   1.138   1.529   1.117  0.1334  0.3702 -1.1013
  499SOL     OW 1495   0.860   1.835   0.480  0.2306  0.0954 -0.2879
  499SOL    HW1 1496   0.815   1.760   0.528  0.5954  3.7625 -0.7483
  499SOL    HW2 1497   0.891   1.912   0.540  3.5290 -0.2849 -0.8409
  500SOL     OW 1498   1.460   2.959   1.654 -0.0629 -0.2214  0.0164
  500SOL    HW1 1499   1.440   3.008   1.740 -2.3637 -2.0140 -1.2746
  500SOL    HW2 1500   1.454   2.853   1.657 -0.0977  0.0060 -0.2671
  501SOL     OW 1501   0.775   1.115   2.260  0.6151 -0.1267  0.0118
  501SOL    HW1 1502   0.689   1.064   2.239  0.9497  0.8566  1.9509
  501SOL    HW2 1503   0.847   1.115   2.181 -1.1363 -0.1756  1.7714
  502SOL     OW 1504   2.619   0.978   1.731  0.1882  0.2340  0.0333
  502SOL    HW1 1505   2.587   0.990   1.633 -1.8815 -0.8311 -0.0874
  502SOL    HW2 1506   2.566   0.900   1.768  0.0806 -1.3313  1.0457
  503SOL     OW 1507   1.309   0.154   0.643 -0.1561  0.2520  0.0606
  503SOL    HW1 1508   1.243   0.225   0.605  1.0866  0.2642 -0.9539
  503SOL    HW2 1509   1.406   0.187   0.659 -1.4831 -0.4451 -0.9377
  504SOL     OW 1510   2.966   2.330   1.428  0.2237 -0.3294  0.4843
  504SOL    HW1 1511   2.969   2.424   1.475 -5.3165  0.3161  1.4362
  504SOL    HW2 1512   2.905   2.268   1.475 -0.4597 -0.7011 -1.3549
  505SOL     OW 1513   2.312   1.265   1.438  0.0708  0.2064  0.6685
  505SOL    HW1 1514   2.315   1.364   1.415  0.8214  0.2456  0.9570
  505SOL    HW2 1515   2.399   1.233   1.481 -1.9505  2.8393 -0.5841
  506SOL     OW 1516   1.883   0.247   1.774 -0.6125  0.5384  0.5997
  506SOL    HW1 1517   1.949   0.240   1.692 -1.7443  0.0458  0.3109
  506SOL    HW2 1518   1.903   0.320   1.840  0.5115 -2.2895 -0.8085
  507SOL     OW 1519   0.475   0.746   2.179 -0.0136  0.2973 -0.1667
  507SOL    HW1 1520   0.412   0.746   2.097 -0.0357 -0.3315  0.4089
  507SOL    HW2 1521   0.556   0.683   2.170  0.3889 -1.4955  0.9326
  508SOL     OW 1522   0.186   1.641   0.824  0.0877 -0.5125  0.7733
  508SOL    HW1 1523   0.183   1.744   0.806  2.1801  0.4461 -1.4115
  508SOL    HW2 1524   0.188   1.618   0.926 -0.3989 -0.8108 -1.3041
  509SOL     OW 1525   1.342   1.187   2.584 -0.5507  0.2394 -0.2183
  509SOL    HW1 1526   1.276   1.254   2.537  2.3974 -0.4644  1.4620
  509SOL    HW2 1527   1.307   1.089   2.591  0.0347 -0.5768  2.4191
  510SOL     OW 1528   1.317   1.990   2.039 -0.0307 -0.0622  0.6030
  510SOL    HW1 1529   1.272   2.085   2.023 -3.4909  0.4212 -0.0547
  510SOL    HW2 1530   1.290   1.953   2.129 -0.1376  1.9722 -3.1595
  511SOL     OW 1531   3.048   2.625   1.278 -0.2755  0.0050  0.5147
  511SOL    HW1 1532   2.985   2.588   1.207 -0.3462  1.0907 -0.0601
  511SOL    HW2 1533   3.015   2.610   1.375  0.1485  0.5864 -0.1632
  512SOL     OW 1534   2.422   0.390   1.419  0.0266  0.0235  1.0458
  512SOL    HW1 1535   2.319   0.394   1.414  2.1376 -2.5826 -0.7742
  512SOL    HW2 1536   2.466   0.377   1.327 -0.8238 -2.1631 -0.5026
  513SOL     OW 1537   2.499   1.971   0.810 -0.2927 -0.0393  0.2456
  513SOL    HW1 1538   2.457   2.067   0.806  0.4027  0.7855  0.6776
  513SOL    HW2 1539   2.589   1.967   0.758 -0.7531  0.7740 -1.2629
  514SOL     OW 1540   0.678   2.789   0.420  0.4246  0.2230  0.0562
  514SOL    HW1 1541   0.660   2.860   0.349 -0.4813  0.1111  1.5532
  514SOL    HW2 1542   0.706   2.828   0.508 -0.8709  0.3286 -0.6187
  515SOL     OW 1543   1.946   1.230   2.364 -0.1712 -0.0803 -0.6093
  515SOL    HW1 1544   1.879   1.264   2.291  0.5263 -0.6081 -1.8135
  515SOL    HW2 1545   1.911   1.216   2.466 -2.3958 -4.4307  2.2697
  516SOL     OW 1546   0.278   0.387   1.971  0.0627  0.7297  0.2507
  516SOL    HW1 1547   0.376   0.367   1.934  2.1528  0.7532  0.2284
  516SOL    HW2 1548   0.205   0.325   1.928  1.9943  2.6729 -1.7690
  517SOL     OW 1549   0.376   3.024   1.209  0.4344 -0.0011 -0.3854
  517SOL    HW1 1550   0.395   3.123   1.221  1.1730  0.8499 -0.5158
  517SOL    HW2 1551   0.296   2.984   1.263  1.0008  2.2025  1.1349
  518SOL     OW 1552   2.124   0.185   1.621  0.0585  0.2964 -0.1432
  518SOL    HW1 1553   2.179   0.214   1.706 -1.9263 -1.8434  0.6858
  518SOL    HW2 1554   2.160   0.101   1.573  2.7077  0.1150 -0.1180
  519SOL     OW 1555   2.341   2.165   2.540 -0.3152 -0.1429  0.0598
  519SOL    HW1 1556   2.271   2.180   2.616 -0.3117  0.3118  3.1521
  519SOL    HW2 1557   2.411   2.242   2.552  0.8981 -1.4124  1.9914
  520SOL     OW 1558   1.766   2.868   1.830 -0.2107  0.2899 -0.0923
  520SOL    HW1 1559   1.699   2.820   1.893  1.2135 -0.1310  0.7457
  520SOL    HW2 1560   1.851   2.811   1.828  0.1326  0.2280  1.3177
  521SOL     OW 1561   0.566   0.128   2.156  0.2816 -0.2807 -0.6954
  521SOL    HW1 1562   0.485   0.063   2.170  0.2512  0.9941 -0.3183
  521SOL    HW2 1563   0.632   0.121   2.235 -1.1099 -0.2272  0.2040
  522SOL     OW 1564   0.230   1.929   1.536 -0.4917 -0.0332 -0.1564
  522SOL    HW1 1565   0.261   1.976   1.620  0.7139  0.0313 -1.2871
  522SOL    HW2 1566   0.216   1.992   1.452  1.1553 -0.7014 -0.7273
  523SOL     OW 1567   2.239   3.027   1.587  0.4217 -0.0125  0.0093
  523SOL    HW1 1568   2.242   2.940   1.533  1.3692  1.7892 -0.2614
  523SOL    HW2 1569   2.230   3.017   1.690 -0.1075 -0.1842  0.8537
  524SOL     OW 1570   0.242   2.795   2.801  0.6947  0.4053 -0.2233
  524SOL    HW1 1571   0.185   2.875   2.822  1.9507 -0.6736 -1.5105
  524SOL    HW2 1572   0.338   2.808   2.772 -1.6601  1.1103  1.2052
  525SOL     OW 1573   2.132   1.985   0.454  0.0168  0.0245  0.6074
  525SOL    HW1 1574   2.110   1.917   0.530  0.6668  1.5295 -0.7079
  525SOL    HW2 1575   2.161   1.932   0.369 -1.8022  1.1328 -2.1451
  526SOL     OW 1576   0.440   1.534   1.554 -0.1668  0.3696 -0.3167
  526SOL    HW1 1577   0.370   1.497   1.619  0.8864 -0.6827 -0.0580
  526SOL    HW2 1578   0.531   1.485   1.557 -0.1249  0.7557 -1.2643
  527SOL     OW 1579   1.118   2.879   1.193  0.5391  0.0097  0.1547
  527SOL    HW1 1580   1.193   2.842   1.250  0.5751  2.0540  2.0421
  527SOL    HW2 1581   1.121   2.985   1.183  0.9921 -0.2688 -1.8765
  528SOL     OW 1582   1.338   2.386   0.464  0.1670 -0.3828  0.2640
  528SOL    HW1 1583   1.368   2.288   0.481  1.0845  0.9522  2.2317
  528SOL    HW2 1584   1.386   2.452   0.528 -0.0929  0.9232  1.4035
  529SOL     OW 1585   1.856   1.713   0.757  0.5183  0.3310 -0.8142
  529SOL    HW1 1586   1.814   1.744   0.671  0.1717 -1.6318  0.5548
  529SOL    HW2 1587   1.887   1.791   0.821  0.6379  0.7912  0.0056
  530SOL     OW 1588   0.368   2.433   0.247 -0.1359 -0.0185 -0.3779
  530SOL    HW1 1589   0.396   2.513   0.303  2.0030 -1.1250 -0.7692
  530SOL    HW2 1590   0.348   2.352   0.300  3.1378 -2.1974 -0.9114
  531SOL     OW 1591   1.873   0.822   0.959  0.4755 -0.7684 -0.3810
  531SOL    HW1 1592   1.915   0.870   0.871 -0.4435  2.8206 -3.1517
  531SOL    HW2 1593   1.770   0.845   0.963  1.1457  0.9856 -1.1396
  532SOL     OW 1594   0.451   1.102   0.768 -0.2848 -0.4030 -0.3758
  532SOL    HW1 1595   0.441   1.097   0.664  0.3097 -1.5986 -0.1827
  532SOL    HW2 1596   0.395   1.024   0.816 -0.2544  0.0237  2.2227
  533SOL     OW 1597   1.725   3.088   2.557 -0.4749 -0.2072  0.0172
  533SOL    HW1 1598   1.829   3.074   2.571  0.3596 -0.5020 -0.4734
  533SOL    HW2 1599   1.691   3.159   2.624  0.4703  2.1753  1.7553
  534SOL     OW 1600   0.389   0.197   1.558 -0.3040 -0.4102 -0.0790
  534SOL    HW1 1601   0.496   0.196   1.559  0.7104 -0.0970 -0.3650
  534SOL    HW2 1602   0.357   0.296   1.539  0.0676  1.2903  0.1919
  535SOL     OW 1603   1.945   0.331   0.167  0.5752 -0.1468  0.5293
  535SOL    HW1 1604   1.954   0.420   0.222 -0.9963  1.0899 -0.3679
  535SOL    HW2 1605   1.960   0.250   0.228 -2.1401 -0.4548 -3.6122
  536SOL     OW 1606   1.365   2.592   0.902  0.2244 -0.2650  0.1114
  536SOL    HW1 1607   1.327   2.555   0.990  0.1448  0.5479  2.8199
  536SOL    HW2 1608   1.306   2.659   0.853 -0.8667 -1.5194 -0.8210
  537SOL     OW 1609   0.857   0.265   2.363  0.3810  0.4186  0.3693
  537SOL    HW1 1610   0.907   0.315   2.280  0.2418  1.9743 -4.8717
  537SOL    HW2 1611   0.822   0.169   2.338 -0.6744  0.0378 -0.8132
  538SOL     OW 1612   1.663   2.401   1.408 -0.2110  0.3301  0.1787
  538SOL    HW1 1613   1.650   2.298   1.392 -0.7680 -0.9009  1.1661
  538SOL    HW2 1614   1.763   2.431   1.415  1.4681 -0.1301 -0.2256
  539SOL     OW 1615   0.205   1.615   2.658  0.0522 -0.3350 -0.0167
  539SOL    HW1 1616   0.112   1.572   2.647 -1.7666  0.3541  1.3696
  539SOL    HW2 1617   0.208   1.696   2.723  0.7382 -0.6105 -1.7315
  540SOL     OW 1618   2.673   1.736   1.931 -0.7472  0.0776 -0.0861
  540SOL    HW1 1619   2.624   1.650   1.969  0.6976 -0.4220  0.0077
  540SOL    HW2 1620   2.607   1.814   1.915  2.4147 -0.5415 -3.3665
  541SOL     OW 1621   0.519   2.138   0.022 -0.5580  0.4637 -0.4293
  541SOL    HW1 1622   0.523   2.118   0.126 -0.5718 -1.2143 -1.4234
  541SOL    HW2 1623   0.421   2.124  -0.016 -0.9339  1.1533 -1.6356
  542SOL     OW 1624   2.271   2.638   0.548  0.2290 -0.4535 -0.5626
  542SOL    HW1 1625   2.264   2.738   0.577 -1.7073 -0.1404 -1.3141
  542SOL    HW2 1626   2.179   2.586   0.543  0.1900 -1.7779  0.6443
  543SOL     OW 1627   1.078   1.786   1.585  0.1655  0.3068 -0.2894
  543SOL    HW1 1628   1.083   1.824   1.685 -1.1718  0.8575  1.0933
  543SOL    HW2 1629   1.028   1.845   1.516  2.9581 -1.8897 -0.3753
  544SOL     OW 1630   1.158   0.531   0.145 -0.5015  0.6520 -0.3807
  544SOL    HW1 1631   1.135   0.441   0.188  0.6626  0.7779 -3.4020
  544SOL    HW2 1632   1.191   0.517   0.046  0.1082  1.4263 -2.2970
  545SOL     OW 1633   1.134   1.825   0.807  0.4324 -0.4014  0.2272
  545SOL    HW1 1634   1.235   1.815   0.775  0.8835 -1.4186 -0.9068
  545SOL    HW2 1635   1.095   1.736   0.835  0.6411  0.1363  0.1431
  546SOL     OW 1636   2.670   1.597   2.985  0.3015 -0.2531 -0.0361
  546SOL    HW1 1637   2.623   1.689   2.988 -1.9277  2.0276  0.6236
  546SOL    HW2 1638   2.601   1.519   2.992 -0.7889  0.7143 -0.5356
  547SOL     OW 1639   0.667   3.045   2.577 -0.3169  0.2073 -0.1822
  547SOL    HW1 1640   0.741   3.023   2.645 -5.1180  1.2074 -1.0590
  547SOL    HW2 1641   0.608   2.956   2.559 -0.9579 -1.9212  1.9139
  548SOL     OW 1642   2.041   0.764   3.020 -0.1868  0.0712 -0.0127
  548SOL    HW1 1643   1.941   0.752   3.046 -1.4989 -0.2845 -1.5678
  548SOL    HW2 1644   2.082   0.842   3.078 -0.4623  0.9394  0.0940
  549SOL     OW 1645   0.695   0.573   0.186 -0.4105 -0.3461 -0.0610
  549SOL    HW1 1646   0.646   0.604   0.101  1.4480 -1.1764  1.4398
  549SOL    HW2 1647   0.788   0.617   0.191  1.0274  0.7402 -0.5899
  550SOL     OW 1648   2.581   2.753   2.883  0.0621  0.2601  0.0151
  550SOL    HW1 1649   2.521   2.687   2.940 -0.9609 -1.6226  1.0743
  550SOL    HW2 1650   2.621   2.705   2.800  0.6374  0.5446 -0.5016
  551SOL     OW 1651   0.258   0.878   0.203 -0.3495 -0.0119 -0.3422
  551SOL    HW1 1652   0.340   0.832   0.159 -0.4856 -3.0725 -2.9801
  551SOL    HW2 1653   0.263   0.875   0.304  0.0479  0.7498 -1.5000
  552SOL     OW 1654   0.635   3.044   1.954 -0.4980  0.1977  0.0491
  552SOL    HW1 1655   0.629   3.117   2.025 -0.9951 -0.3724 -1.3428
  552SOL    HW2 1656   0.735   3.020   1.931  1.3344 -0.6852  0.2731
  553SOL     OW 1657   3.003   2.418   0.361  0.0576  0.2679  0.0471
  553SOL    HW1 1658   3.019   2.320   0.369  2.2787  0.7669 -2.1688
  553SOL    HW2 1659   2.901   2.444   0.348 -1.9214  0.8879  2.7134
  554SOL     OW 1660   2.194   0.366   0.539  0.4169 -0.0541 -0.1485
  554SOL    HW1 1661   2.248   0.340   0.453 -0.0898  1.3484  1.2632
  554SOL    HW2 1662   2.194   0.292   0.615  1.5088 -2.1462 -1.0313
  555SOL     OW 1663   0.471   2.849   2.481 -0.1196  0.0744 -0.1152
  555SOL    HW1 1664   0.379   2.885   2.458  3.3077 -4.2061  0.5245
  555SOL    HW2 1665   0.501   2.776   2.413 -0.7054  0.2626 -1.9483
  556SOL     OW 1666   0.820   2.429   1.612  0.2248 -0.1897  0.0043
  556SOL    HW1 1667   0.873   2.491   1.669  0.5608 -1.3790 -3.1190
  556SOL    HW2 1668   0.867   2.410   1.521 -0.9651 -0.5813 -0.7776
  557SOL     OW 1669   0.242   2.083   0.252 -0.5252  0.2747  0.2664
  557SOL    HW1 1670   0.153   2.041   0.220  1.4804 -2.0874  0.0854
  557SOL    HW2 1671   0.330   2.053   0.206 -4.5861  0.0844 -2.6458
  558SOL     OW 1672   2.838   2.171   0.396 -0.0864  0.6488 -0.1439
  558SOL    HW1 1673   2.807   2.270   0.376  0.1450 -0.7022  0.3320
  558SOL    HW2 1674   2.801   2.119   0.319  1.4038  1.6360  2.7339
  559SOL     OW 1675   0.404   2.306   1.457  0.1451 -0.3668  0.0593
  559SOL    HW1 1676   0.304   2.314   1.424 -0.1400 -0.3188 -0.7149
  559SOL    HW2 1677   0.471   2.277   1.388  1.3079 -0.0743  1.4310
  560SOL     OW 1678   2.140   1.011   0.022 -0.3517  0.3182  0.1131
  560SOL    HW1 1679   2.207   1.060   0.094  2.8023 -0.0353  1.7103
  560SOL    HW2 1680   2.190   0.994  -0.071 -2.0177  0.6058 -1.1887
  561SOL     OW 1681   3.101   1.976   0.188 -0.0686 -0.1278 -0.1655
  561SOL    HW1 1682   3.047   1.900   0.233 -2.6156  1.4999  0.5520
  561SOL    HW2 1683   3.051   1.997   0.098  0.6250 -3.3238 -1.4528
  562SOL     OW 1684   1.031   2.080   2.246 -0.5176  0.1504  0.2418
  562SOL    HW1 1685   0.979   2.157   2.286 -0.9733 -1.6846  0.7030
  562SOL    HW2 1686   0.982   1.987   2.261 -1.5454  0.7598  1.2485
  563SOL     OW 1687   0.673   2.535   2.652  0.0179 -0.2613 -0.3013
  563SOL    HW1 1688   0.756   2.475   2.632  0.8621  0.4050 -1.4394
  563SOL    HW2 1689   0.673   2.565   2.751  0.6986 -2.3352 -1.1440
  564SOL     OW 1690   2.853   1.432   2.846 -0.0157  0.1576 -0.2185
  564SOL    HW1 1691   2.780   1.505   2.868  1.0569  1.5487 -3.6454
  564SOL    HW2 1692   2.942   1.473   2.825 -0.4297 -0.8687 -1.2678
  565SOL     OW 1693   2.491   1.958   2.652 -0.0564 -0.0450  0.3911
  565SOL    HW1 1694   2.439   2.041   2.622 -0.5013 -2.3800  2.2239
  565SOL    HW2 1695   2.580   1.974   2.702 -2.3470 -1.5838 -0.0779
  566SOL     OW 1696   1.915   2.897   1.445 -0.2897  0.1584  0.6339
  566SOL    HW1 1697   1.941   2.798   1.468  0.2217  0.1832  0.4403
  566SOL    HW2 1698   1.970   2.936   1.367  0.3782 -3.3685 -1.9132
  567SOL     OW 1699   2.346   0.033   2.301  0.0288  0.0447  0.0626
  567SOL    HW1 1700   2.272   0.035   2.372  0.9062 -1.9485  0.7131
  567SOL    HW2 1701   2.318   0.046   2.203 -0.3755 -0.0600 -1.7716
  568SOL     OW 1702   1.494   1.751   0.226 -0.5308  0.6411 -0.1181
  568SOL    HW1 1703   1.440   1.835   0.211  0.3131 -0.6348 -1.1972
  568SOL    HW2 1704   1.595   1.769   0.216 -3.2527 -1.0111 -3.4456
  569SOL     OW 1705   0.255   0.566   0.870  0.3743 -0.7029 -0.9884
  569SOL    HW1 1706   0.275   0.492   0.800 -1.9758 -0.5505  1.3643
  569SOL    HW2 1707   0.153   0.582   0.884 -0.3596 -1.2083 -1.6604
  570SOL     OW 1708   0.666   0.864   2.897  0.0008 -0.0473  0.1521
  570SOL    HW1 1709   0.697   0.885   2.802 -1.2022  0.7033  0.8847
  570SOL    HW2 1710   0.695   0.939   2.965  1.8123  1.3405  1.1577
  571SOL     OW 1711   0.801   3.067   1.071  0.2317 -0.2722  0.0534
  571SOL    HW1 1712   0.864   3.113   1.002 -0.6044 -3.5376 -0.7704
  571SOL    HW2 1713   0.825   2.967   1.081 -0.9386  1.0660  0.3235
  572SOL     OW 1714   1.658   2.731   1.435  0.6475 -0.0230  0.0588
  572SOL    HW1 1715   1.662   2.706   1.334  0.8114 -0.0095  0.8836
  572SOL    HW2 1716   1.679   2.828   1.452 -0.6438  0.2682  2.8361
  573SOL     OW 1717   3.019   0.467   1.928  0.1234 -0.5733 -0.1714
  573SOL    HW1 1718   2.961   0.377   1.929 -1.5629 -0.7339  0.1441
  573SOL    HW2 1719   3.103   0.460   1.867 -2.4785 -2.4038 -0.1415
  574SOL     OW 1720   0.110   1.662   1.105 -0.0308 -0.1597  0.0531
  574SOL    HW1 1721   0.174   1.646   1.183 -1.5119  0.9362  1.6578
  574SOL    HW2 1722   0.096   1.765   1.091 -0.0311 -1.2835 -0.5903
  575SOL     OW 1723   0.834   2.255   0.995 -0.7982  0.4285 -0.0478
  575SOL    HW1 1724   0.823   2.278   1.093 -2.3160  0.6716 -0.3381
  575SOL    HW2 1725   0.872   2.331   0.935  0.7187 -2.7588  0.1476
  576SOL     OW 1726   2.931   2.990   1.700  0.2075  0.2711 -0.1160
  576SOL    HW1 1727   2.833   2.981   1.663 -1.2710  0.5002 -0.0423
  576SOL    HW2 1728   2.979   3.073   1.664 -0.9945 -4.9437  0.3792
  577SOL     OW 1729   2.671   1.221   3.053  0.0593  0.5213  0.2742
  577SOL    HW1 1730   2.684   1.133   3.002 -1.0902 -0.8665  3.9364
  577SOL    HW2 1731   2.739   1.224   3.134  1.8606 -3.8214  2.4653
  578SOL     OW 1732   1.395   2.708   2.544 -0.5740  0.4263 -0.1591
  578SOL    HW1 1733   1.302   2.753   2.524  1.8513  2.0144 -1.1448
  578SOL    HW2 1734   1.475   2.762   2.504  1.4436 -0.1416 -1.4978
  579SOL     OW 1735   0.089   2.403   0.173 -0.0561  0.2790 -0.1032
  579SOL    HW1 1736   0.015   2.402   0.252 -0.3067  0.1184 -0.5543
  579SOL    HW2 1737   0.180   2.431   0.210 -2.9327  1.5221  0.4113
  580SOL     OW 1738   0.948   2.678   0.398  0.0928  0.5141 -0.3981
  580SOL    HW1 1739   0.958   2.673   0.296  2.5235  0.2153 -0.6295
  580SOL    HW2 1740   0.849   2.681   0.430 -1.7634 -2.6952 -0.1661
  581SOL     OW 1741   1.284   2.762   1.472  0.4459  0.2060 -0.4074
  581SOL    HW1 1742   1.306   2.661   1.470  2.3451  1.1428 -0.5602
  581SOL    HW2 1743   1.352   2.814   1.421 -2.1709  0.0150 -2.4947
  582SOL     OW 1744   1.506   0.066   1.857 -0.0086  0.5371 -0.1652
  582SOL    HW1 1745   1.552   0.115   1.934 -1.2193 -0.6501 -1.6492
  582SOL    HW2 1746   1.549   0.088   1.768  0.4881  0.7014  0.4891
  583SOL     OW 1747   2.427   2.977   0.490 -0.0547  0.2985 -0.1158
  583SOL    HW1 1748   2.512   2.921   0.467 -1.3510 -3.1182  0.6705
  583SOL    HW2 1749   2.369   2.941   0.571  1.2313  0.6997 -0.3511
  584SOL     OW 1750   1.552   1.085   2.252  0.3158  0.0918  0.0737
  584SOL    HW1 1751   1.565   1.186   2.226 -3.6548 -0.3264  0.6677
  584SOL    HW2 1752   1.635   1.037   2.294 -3.5128  0.1842  0.9934
  585SOL     OW 1753   2.033   2.663   2.900 -0.0698  0.0362  0.5119
  585SOL    HW1 1754   2.060   2.566   2.884 -1.7896  2.3831  1.1959
  585SOL    HW2 1755   1.931   2.684   2.912  2.3375  0.1071  0.4399
  586SOL     OW 1756   2.912   0.385   1.577  0.1335 -0.1866 -0.6380
  586SOL    HW1 1757   2.904   0.472   1.633 -0.4430  2.0677  2.6548
  586SOL    HW2 1758   2.832   0.325   1.594  2.6048  1.9856 -0.9267
  587SOL     OW 1759   2.175   1.483   2.783  0.0369  0.1710  0.0462
  587SOL    HW1 1760   2.144   1.441   2.694  2.5744 -0.4049  2.6793
  587SOL    HW2 1761   2.276   1.503   2.788 -1.2873  0.3730  1.4930
  588SOL     OW 1762   0.470   2.641   2.274 -0.5159  0.0511  0.6712
  588SOL    HW1 1763   0.434   2.689   2.187 -0.8890 -0.1950 -3.6585
  588SOL    HW2 1764   0.422   2.551   2.295  1.0561  1.9537 -1.6364
  589SOL     OW 1765   2.171   1.388   2.515 -0.2201  0.3111 -0.0431
  589SOL    HW1 1766   2.098   1.324   2.489  1.1813  4.2059 -1.6368
  589SOL    HW2 1767   2.266   1.346   2.516  0.3256  0.2226 -0.1245
  590SOL     OW 1768   2.323   1.694   2.075  0.7466 -0.1625 -0.1195
  590SOL    HW1 1769   2.405   1.635   2.048 -0.6343 -2.6523  0.0744
  590SOL    HW2 1770   2.318   1.713   2.178  3.3550 -1.0999 -1.4056
  591SOL     OW 1771   1.333   2.446   0.193 -0.6614 -0.4677  0.2991
  591SOL    HW1 1772   1.360   2.356   0.158  1.8700  1.0176  2.6344
  591SOL    HW2 1773   1.342   2.449   0.301  0.6439  1.2348  2.4009
  592SOL     OW 1774   1.793   2.362   0.814 -0.0445  0.4330  0.1987
  592SOL    HW1 1775   1.798   2.409   0.720  0.1361 -3.0135  0.8708
  592SOL    HW2 1776   1.887   2.352   0.859 -2.3925  0.5023  3.1575
  593SOL     OW 1777   0.749   0.305   0.183  0.2343  0.4067 -0.3398
  593SOL    HW1 1778   0.784   0.254   0.098  0.1552  1.5483 -1.2338
  593SOL    HW2 1779   0.736   0.405   0.170 -2.7020 -0.0703  1.0215
  594SOL     OW 1780   1.064   1.796   2.663 -0.7272  0.5756 -0.0405
  594SOL    HW1 1781   1.167   1.762   2.646  1.2334  0.3387 -0.5900
  594SOL    HW2 1782   1.049   1.840   2.759 -2.1164 -1.2087  1.8157
  595SOL     OW 1783   1.541   0.152   0.998  0.6550 -0.0321  0.2632
  595SOL    HW1 1784   1.599   0.064   0.986  2.0163  1.5450 -1.0763
  595SOL    HW2 1785   1.439   0.126   0.990 -0.4131  1.2338  1.6277
  596SOL     OW 1786   0.176   1.434   2.182  0.3156  0.3590 -0.0775
  596SOL    HW1 1787   0.112   1.358   2.194 -0.4554  0.6845  0.4006
  596SOL    HW2 1788   0.218   1.473   2.269  1.5170 -1.4017 -2.3824
  597SOL     OW 1789   1.991   2.687   1.826  0.1779 -0.1321  0.3384
  597SOL    HW1 1790   1.952   2.651   1.737 -1.4965 -0.5533  1.1025
  597SOL    HW2 1791   2.099   2.678   1.829  2.1045 -1.6921 -0.4340
  598SOL     OW 1792   2.484   2.797   1.277  0.1984 -0.6047 -0.3857
  598SOL    HW1 1793   2.578   2.837   1.300  0.2458 -1.5846 -2.9788
  598SOL    HW2 1794   2.487   2.701   1.241 -1.8240 -0.4669  2.3524
  599SOL     OW 1795   2.901   0.266   2.519 -0.1261  0.1827 -0.0891
  599SOL    HW1 1796   2.991   0.281   2.476 -0.1156  0.6633  3.0706
  599SOL    HW2 1797   2.836   0.335   2.485 -2.1992  0.8302  2.9140
  600SOL     OW 1798   2.768   1.178   2.754 -0.3788  0.5967 -0.1700
  600SOL    HW1 1799   2.726   1.111   2.822  0.3662  1.0294 -0.2333
  600SOL    HW2 1800   2.773   1.271   2.798 -2.8777  0.5186  1.3296
  601SOL     OW 1801   3.005   1.373   1.912  0.3738  0.1713 -0.5064
  601SOL    HW1 1802   2.901   1.395   1.903 -1.5727  0.4687 -1.0258
  601SOL    HW2 1803   3.070   1.453   1.901  1.6527 -1.8413 -2.5851
  602SOL     OW 1804   1.519   1.553   2.333 -0.6845  0.0063 -0.1771
  602SOL    HW1 1805   1.424   1.538   2.370  1.8697  0.1312 -0.0230
  602SOL    HW2 1806   1.595   1.559   2.403  0.7582 -1.4537 -0.2970
  603SOL     OW 1807   0.578   1.177   2.722 -0.4817  0.2138  0.5354
  603SOL    HW1 1808   0.483   1.189   2.681  0.9433 -0.4517  0.3780
  603SOL    HW2 1809   0.623   1.092   2.689 -2.5432 -1.2828  1.7843
  604SOL     OW 1810   2.533   1.058   0.234 -0.0017 -0.0366  0.5902
  604SOL    HW1 1811   2.631   1.082   0.215 -1.4839  1.9837 -0.6730
  604SOL    HW2 1812   2.501   1.003   0.153  0.3107  0.8859  1.3762
  605SOL     OW 1813   2.600   1.196   1.900 -0.0310  0.2043  0.0397
  605SOL    HW1 1814   2.613   1.099   1.864 -0.3717  0.9768  1.1594
  605SOL    HW2 1815   2.641   1.211   1.996  0.3717 -1.3866 -1.1208
  606SOL     OW 1816   1.518   2.461   2.576 -0.3777 -0.6533  0.4154
  606SOL    HW1 1817   1.448   2.532   2.562  2.0745  0.5140  1.3246
  606SOL    HW2 1818   1.483   2.366   2.540 -0.2304  0.1801  0.2056
  607SOL     OW 1819   1.293   1.579   0.295  0.0167  0.3579  0.1923
  607SOL    HW1 1820   1.220   1.647   0.329  3.2178  1.7718  1.1783
  607SOL    HW2 1821   1.381   1.625   0.267 -2.3336  0.3846  1.5799
  608SOL     OW 1822   1.433   2.791   0.326  0.8702  0.4949 -0.1704
  608SOL    HW1 1823   1.499   2.820   0.249  0.4252 -2.0135  0.6323
  608SOL    HW2 1824   1.401   2.872   0.382 -0.7063  0.0473 -1.1205
  609SOL     OW 1825   1.292   1.299   0.187  0.2087 -0.8459 -0.1538
  609SOL    HW1 1826   1.290   1.386   0.239  1.0483  0.2035 -0.1541
  609SOL    HW2 1827   1.248   1.317   0.091 -3.0370  0.7491  0.7797
  610SOL     OW 1828   3.067   1.246   2.166  0.4711 -0.0493 -0.1579
  610SOL    HW1 1829   2.998   1.169   2.167 -0.4065 -0.4268 -1.1257
  610SOL    HW2 1830   3.035   1.318   2.100  1.8097  3.4270 -1.5864
  611SOL     OW 1831   2.547   0.184   1.173 -0.3078  0.3043  0.1676
  611SOL    HW1 1832   2.493   0.100   1.206  0.4542  1.9658 -0.3746
  611SOL    HW2 1833   2.639   0.192   1.225  0.4559 -0.9436 -2.8913
  612SOL     OW 1834   0.758   2.367   1.234 -0.0166  0.0462 -0.5925
  612SOL    HW1 1835   0.698   2.283   1.254 -2.2413  0.8404  0.4131
  612SOL    HW2 1836   0.712   2.456   1.204  0.6126  1.8271  0.4852
  613SOL     OW 1837   0.776   1.376   2.384 -0.1617 -0.0782 -0.2690
  613SOL    HW1 1838   0.802   1.449   2.316  0.5628  0.2012  0.2095
  613SOL    HW2 1839   0.751   1.291   2.331  1.4816 -0.9721 -0.8648
  614SOL     OW 1840   1.499   1.654   1.951  0.3130  0.3607 -0.0811
  614SOL    HW1 1841   1.474   1.720   1.878 -1.4873 -0.7139  1.2710
  614SOL    HW2 1842   1.570   1.686   2.019  2.0410  1.9979  1.4177
  615SOL     OW 1843   0.694   1.468   1.713  0.0464  0.3029  0.5366
  615SOL    HW1 1844   0.671   1.381   1.663  0.2516 -1.9647  1.3162
  615SOL    HW2 1845   0.749   1.532   1.659 -1.7641 -3.4644  0.5954
  616SOL     OW 1846   1.127   1.602   2.196 -0.4780  0.1391 -0.3351
  616SOL    HW1 1847   1.022   1.591   2.193 -1.4873 -1.3326 -0.3722
  616SOL    HW2 1848   1.170   1.605   2.102  1.9886  0.6292  1.8742
  617SOL     OW 1849   2.922   1.569   1.615 -0.9307 -0.2856 -0.5815
  617SOL    HW1 1850   2.850   1.513   1.670  2.2769  0.9902  2.7022
  617SOL    HW2 1851   2.975   1.503   1.551  0.1733 -0.3081 -0.3699
  618SOL     OW 1852   1.898   2.004   1.472 -1.0335 -0.0123  0.4606
  618SOL    HW1 1853   1.962   1.981   1.393  1.9288  0.4077  0.6380
  618SOL    HW2 1854   1.885   1.923   1.536  0.7558  3.4394  0.3473
  619SOL     OW 1855   1.788   0.517   2.385  0.0199 -0.6529  0.4347
  619SOL    HW1 1856   1.723   0.577   2.332  0.4306 -1.2661  0.4381
  619SOL    HW2 1857   1.759   0.420   2.402  1.3815  1.4069 -0.1687
  620SOL     OW 1858   2.236   2.914   0.674  0.2292 -0.1381 -0.1719
  620SOL    HW1 1859   2.154   2.972   0.667  1.0779 -0.1966 -2.7420
  620SOL    HW2 1860   2.259   2.896   0.774 -0.0640  3.5268 -1.5558
  621SOL     OW 1861   2.135   1.859   1.353  0.0254 -0.4774 -0.2061
  621SOL    HW1 1862   2.141   1.850   1.462 -0.3312  1.0310  2.2290
  621SOL    HW2 1863   2.148   1.766   1.300  0.4895 -1.7144 -2.9028
  622SOL     OW 1864   2.252   0.969   1.842  0.5077 -0.4334 -0.5751
  622SOL    HW1 1865   2.308   0.893   1.803 -0.8956 -0.4068 -0.9189
  622SOL    HW2 1866   2.163   0.941   1.878  0.7048  3.2188  2.2929
  623SOL     OW 1867   1.265   0.935   2.584  0.4078  0.0882  0.2684
  623SOL    HW1 1868   1.223   0.848   2.621  0.4676 -0.7881 -2.8761
  623SOL    HW2 1869   1.256   0.928   2.479 -2.5084  0.6120  0.3986
  624SOL     OW 1870   0.542   0.696   3.064  0.4374  0.3423 -0.1564
  624SOL    HW1 1871   0.576   0.739   2.981  1.5342 -0.9740  2.4597
  624SOL    HW2 1872   0.525   0.769   3.128 -1.3805 -1.0828 -2.5767
  625SOL     OW 1873   2.791   1.768   0.824  0.3447  0.8303  0.3901
  625SOL    HW1 1874   2.761   1.814   0.914 -0.7146  0.7576  2.3430
  625SOL    HW2 1875   2.711   1.726   0.770  3.0684 -0.7000 -3.3304
  626SOL     OW 1876   0.398   2.812   2.073  0.4288  0.4953 -0.4171
  626SOL    HW1 1877   0.443   2.896   2.109  0.1321  1.4706  0.6774
  626SOL    HW2 1878   0.348   2.825   1.983 -2.0878  0.4460 -0.7044
  627SOL     OW 1879   0.726   1.023   1.518 -0.3343 -0.1814  0.6438
  627SOL    HW1 1880   0.765   0.931   1.517 -1.9136  3.4069  1.5556
  627SOL    HW2 1881   0.771   1.093   1.453  0.7593 -0.0220 -2.2162
  628SOL     OW 1882   2.458   0.114   0.657  0.0624 -0.1462 -0.1175
  628SOL    HW1 1883   2.440   0.041   0.585 -0.0619 -2.2063 -0.7584
  628SOL    HW2 1884   2.369   0.128   0.707 -0.3543 -2.7585 -1.6084
  629SOL     OW 1885   1.992   0.968   1.948  0.0842 -0.4104 -0.2847
  629SOL    HW1 1886   2.035   0.966   2.042 -0.3439 -2.1036 -0.9786
  629SOL    HW2 1887   1.929   1.053   1.932 -0.4027  0.3352 -0.4739
  630SOL     OW 1888   2.841   2.217   0.761  0.3333  0.0276 -0.5019
  630SOL    HW1 1889   2.767   2.267   0.816  0.3660  1.5164 -0.4407
  630SOL    HW2 1890   2.801   2.141   0.704  1.1108  4.7351  2.0477
  631SOL     OW 1891   3.004   0.179   2.123  0.5012  0.2278  0.3684
  631SOL    HW1 1892   3.041   0.214   2.218  0.7366  2.2602  1.9274
  631SOL    HW2 1893   3.072   0.194   2.044  1.1922  1.3906 -0.7493
  632SOL     OW 1894   2.408   2.526   0.770  0.4943 -0.4404 -0.2328
  632SOL    HW1 1895   2.492   2.578   0.809  1.4777 -1.4593 -4.6417
  632SOL    HW2 1896   2.362   2.573   0.684 -0.5720 -0.3926 -2.8904
  633SOL     OW 1897   1.595   1.254   2.701 -0.2575 -0.1365  0.1483
  633SOL    HW1 1898   1.582   1.334   2.767  0.8933  0.5791  0.7750
  633SOL    HW2 1899   1.503   1.225   2.660  0.3605 -3.0677  1.1091
  634SOL     OW 1900   0.669   2.078   0.910  0.4428 -0.1099  0.4127
  634SOL    HW1 1901   0.580   2.095   0.960 -0.3152 -2.1184 -1.7029
  634SOL    HW2 1902   0.737   2.162   0.918  1.8696  3.3973 -0.5099
  635SOL     OW 1903   0.036   2.230   3.046 -0.3612 -0.3538 -0.0885
  635SOL    HW1 1904  -0.007   2.306   2.990 -3.7081 -1.5729  0.9915
  635SOL    HW2 1905   0.057   2.261   3.146  0.3955  0.9863 -2.6447
  636SOL     OW 1906   2.336   2.845   2.011  0.3633 -0.4213 -0.4222
  636SOL    HW1 1907   2.305   2.944   1.987 -1.2875  1.7448  1.6831
  636SOL    HW2 1908   2.276   2.806   2.090  0.6317 -0.1534 -2.4072
  637SOL     OW 1909   2.578   0.735   2.100 -0.2619  0.2958  0.6905
  637SOL    HW1 1910   2.512   0.742   2.021  0.2790 -0.4749 -0.6612
  637SOL    HW2 1911   2.650   0.805   2.088 -0.9667  2.3575 -0.8578
  638SOL     OW 1912   2.413   1.925   1.410  0.1998  0.9374 -0.7170
  638SOL    HW1 1913   2.322   1.903   1.370  3.1337 -1.3368  0.8954
  638SOL    HW2 1914   2.470   1.833   1.421  1.5252  1.1814  0.0489
  639SOL     OW 1915   1.290   2.235   1.581 -0.0738 -0.1759  0.0661
  639SOL    HW1 1916   1.280   2.162   1.510  0.8589  0.1161 -0.3225
  639SOL    HW2 1917   1.203   2.240   1.642 -0.8479  0.4683 -1.9074
  640SOL     OW 1918   0.262   1.190   1.565 -0.3302 -0.2877 -0.1383
  640SOL    HW1 1919   0.301   1.263   1.626  0.2525 -2.4729  1.6606
  640SOL    HW2 1920   0.331   1.144   1.498 -2.1331 -1.0110 -0.2526
  641SOL     OW 1921   1.879   0.269   1.422  0.1045  0.5118 -0.4450
  641SOL    HW1 1922   1.813   0.338   1.459 -0.3775 -0.0044 -1.0255
  641SOL    HW2 1923   1.867   0.169   1.462 -0.0750 -2.8979  2.1362
  642SOL     OW 1924   2.002   0.119   0.331  0.0507  0.2637  0.6810
  642SOL    HW1 1925   2.102   0.103   0.355  1.9545 -0.7679 -0.8292
  642SOL    HW2 1926   1.946   0.109   0.419  1.8480  1.6715  0.8152
  643SOL     OW 1927   2.800   1.868   2.128  0.7937  0.1853  0.7344
  643SOL    HW1 1928   2.756   1.799   2.062  1.4406  0.5391  0.7520
  643SOL    HW2 1929   2.797   1.964   2.094 -1.6917 -2.2586 -0.4427
  644SOL     OW 1930   2.207   2.288   1.233  0.4633  0.3264 -0.3118
  644SOL    HW1 1931   2.287   2.234   1.196 -0.0152 -0.1406  0.5543
  644SOL    HW2 1932   2.209   2.293   1.333  0.4735 -2.6003 -3.0615
  645SOL     OW 1933   0.672   0.830   1.089 -0.3452  0.3722  0.0112
  645SOL    HW1 1934   0.596   0.765   1.056  1.7352 -2.8738 -0.1841
  645SOL    HW2 1935   0.664   0.934   1.066  0.4585  1.7145  0.8267
  646SOL     OW 1936   1.453   1.899   1.810 -0.0383  0.0146 -0.0260
  646SOL    HW1 1937   1.531   1.959   1.788 -1.6475 -0.7056  3.5864
  646SOL    HW2 1938   1.396   1.923   1.893  0.6607 -0.2144  0.1650
  647SOL     OW 1939   0.886   0.907   0.685 -0.0042 -0.5748 -0.2014
  647SOL    HW1 1940   0.959   0.916   0.756 -3.9533  0.0263  0.0929
  647SOL    HW2 1941   0.793   0.874   0.715  0.1006 -0.1252 -0.5063
  648SOL     OW 1942   0.046   0.228   0.328 -0.8124 -0.6116 -0.0549
  648SOL    HW1 1943   0.004   0.140   0.306 -1.1097  1.1305  0.8172
  648SOL    HW2 1944   0.052   0.292   0.246 -1.0228 -0.0394 -4.9373
  649SOL     OW 1945   0.000   0.030   0.950  0.0769  0.3659  0.3044
  649SOL    HW1 1946   0.100   0.041   0.924 -2.3941 -1.6760 -0.3630
  649SOL    HW2 1947  -0.024   0.099   1.024  0.8227  1.8578  0.0791
  650SOL     OW 1948   2.746   0.716   1.463 -0.3504  0.2325 -0.0673
  650SOL    HW1 1949   2.645   0.685   1.475  0.4956 -1.1604  2.4138
  650SOL    HW2 1950   2.758   0.806   1.410  2.4168 -0.6100  0.1915
  651SOL     OW 1951   0.886   1.612   1.490 -0.5110 -0.5223 -0.4999
  651SOL    HW1 1952   0.951   1.677   1.539  0.0410 -3.3427 -0.3519
  651SOL    HW2 1953   0.795   1.654   1.482  0.4255  3.2224  0.9863
  652SOL     OW 1954   2.292   2.516   2.355 -0.9966  0.4000 -0.4446
  652SOL    HW1 1955   2.225   2.508   2.435  1.3643 -1.0960  3.0792
  652SOL    HW2 1956   2.268   2.590   2.287  1.4644 -2.1148  2.7415
  653SOL     OW 1957   2.782   1.152   0.217 -0.1237 -0.1906 -0.4999
  653SOL    HW1 1958   2.856   1.229   0.227 -0.8646  0.3313 -3.6772
  653SOL    HW2 1959   2.821   1.062   0.244 -0.8578  0.8277  0.5091
  654SOL     OW 1960   1.188   2.229   1.238  0.3076  0.0082  0.0556
  654SOL    HW1 1961   1.197   2.148   1.305  0.7004 -0.6083 -0.9222
  654SOL    HW2 1962   1.240   2.217   1.148 -1.6325 -0.8829 -1.2328
  655SOL     OW 1963   0.234   1.057   1.920  0.1074 -0.1020  0.2213
  655SOL    HW1 1964   0.238   0.975   1.846 -2.1088 -1.9486 -0.5537
  655SOL    HW2 1965   0.318   1.121   1.915  0.6062 -0.5513 -1.8832
  656SOL     OW 1966   2.488   2.403   2.582  0.3871  0.1049  0.3457
  656SOL    HW1 1967   2.583   2.432   2.572 -1.3928  2.6327 -1.5242
  656SOL    HW2 1968   2.428   2.468   2.532 -0.1104 -1.6263  0.9456
  657SOL     OW 1969   3.046   1.104   1.878 -0.3027 -0.1796 -0.1618
  657SOL    HW1 1970   3.008   1.198   1.900  0.1272 -0.7581  0.3438
  657SOL    HW2 1971   3.149   1.100   1.891  0.9558  0.0118 -1.3173
  658SOL     OW 1972   1.700   0.263   2.376  0.2336  0.5470  0.1776
  658SOL    HW1 1973   1.706   0.171   2.429  0.6222  2.0238 -1.4836
  658SOL    HW2 1974   1.758   0.276   2.296 -0.5432  0.1975  1.5685
  659SOL     OW 1975   1.410   0.621   2.825 -0.2755 -0.0815 -0.1078
  659SOL    HW1 1976   1.487   0.685   2.855  0.3045  0.8364 -0.9621
  659SOL    HW2 1977   1.322   0.666   2.794  0.3178  0.1268  1.2467
  660SOL     OW 1978   1.369   0.422   1.413 -0.5033 -0.3257  0.3010
  660SOL    HW1 1979   1.400   0.425   1.510  1.2301  1.2549 -2.8608
  660SOL    HW2 1980   1.433   0.357   1.355 -0.7522 -0.2583 -1.6063
  661SOL     OW 1981   2.445   1.117   0.675 -0.4219 -0.0557 -0.1633
  661SOL    HW1 1982   2.461   1.027   0.627  0.0627 -0.0226 -0.4678
  661SOL    HW2 1983   2.445   1.193   0.610  0.1555 -1.1986  0.4082
  662SOL     OW 1984   1.268   0.458   1.850  0.6074 -0.0188 -0.1613
  662SOL    HW1 1985   1.225   0.359   1.849 -4.5839  0.3052  3.4488
  662SOL    HW2 1986   1.225   0.522   1.924 -1.4551 -0.8336 -1.4373
  663SOL     OW 1987   0.866   1.569   2.215 -0.0405 -0.1927 -0.3569
  663SOL    HW1 1988   0.807   1.648   2.251 -1.8001 -1.2208 -0.8019
  663SOL    HW2 1989   0.830   1.546   2.117  0.3854  0.9807  3.2613
  664SOL     OW 1990   1.653   2.063   1.382 -0.1002 -0.0144  0.2286
  664SOL    HW1 1991   1.595   2.000   1.436  1.1437  0.6844 -0.6577
  664SOL    HW2 1992   1.755   2.058   1.407  1.0302 -0.0028  0.2506
  665SOL     OW 1993   2.294   0.621   1.983 -0.4703 -0.0760 -0.3069
  665SOL    HW1 1994   2.322   0.531   2.015 -0.8026  0.4885  2.3737
  665SOL    HW2 1995   2.220   0.660   2.037  0.0616 -1.9602 -0.5323
  666SOL     OW 1996   0.481   2.282   0.466  0.7824  0.6134  0.0257
  666SOL    HW1 1997   0.538   2.367   0.462  0.1692 -1.1526  0.9004
  666SOL    HW2 1998   0.426   2.275   0.555  0.4179  0.8795  1.6555
  667SOL     OW 1999   2.081   0.210   1.013 -0.1230  0.3794 -0.4745
  667SOL    HW1 2000   2.147   0.284   1.046  0.9058  1.1539  2.0443
  667SOL    HW2 2001   1.989   0.217   1.062  2.1412  1.4329 -1.6636
  668SOL     OW 2002   2.051   0.648   1.281  0.4960 -0.4031  0.3056
  668SOL    HW1 2003   2.089   0.600   1.197  1.3827 -1.3350  0.0111
  668SOL    HW2 2004   2.033   0.581   1.359  1.0570  1.7101 -0.5944
  669SOL     OW 2005   3.029   2.166   0.973  0.6638  1.0472 -0.1424
  669SOL    HW1 2006   2.975   2.184   0.891  3.5315 -0.7969  0.5028
  669SOL    HW2 2007   2.982   2.147   1.063  0.2497  0.2972  0.5443
  670SOL     OW 2008   2.791   2.347   2.008 -0.2685  0.1702  0.2817
  670SOL    HW1 2009   2.747   2.343   2.104  1.2633  0.2118  1.4034
  670SOL    HW2 2010   2.767   2.435   1.960  2.6777 -0.2693  3.2207
  671SOL     OW 2011   1.692   1.734   1.472  0.3295  0.5710 -0.1480
  671SOL    HW1 2012   1.717   1.729   1.367 -0.0984  1.1150 -3.1947
  671SOL    HW2 2013   1.601   1.786   1.494  0.0737 -1.1389 -1.2228
  672SOL     OW 2014   0.401   0.681   2.457  0.0640  0.4192  0.0365
  672SOL    HW1 2015   0.415   0.697   2.352 -1.1038 -0.6267 -0.4127
  672SOL    HW2 2016   0.308   0.713   2.480  1.2672 -0.4107 -2.4070
  673SOL     OW 2017   0.142   1.253   1.070 -0.3391 -0.0822  0.0159
  673SOL    HW1 2018   0.156   1.311   1.156 -0.1555 -2.5800  0.6386
  673SOL    HW2 2019   0.225   1.195   1.053 -3.6839 -0.9327  0.6517
  674SOL     OW 2020   1.597   2.910   0.145  0.3993  0.3836  0.1535
  674SOL    HW1 2021   1.605   3.011   0.162 -0.6880 -0.4677 -1.9443
  674SOL    HW2 2022   1.683   2.875   0.102  2.4907 -0.0934  0.2158
  675SOL     OW 2023   1.730   0.877   2.331  0.3177 -0.2733 -0.2955
  675SOL    HW1 2024   1.830   0.856   2.353  0.3504 -1.3469  3.2261
  675SOL    HW2 2025   1.673   0.794   2.294  1.3977 -2.6153  0.9735
  676SOL     OW 2026   2.533   1.527   2.022  0.1477 -0.0813 -0.0550
  676SOL    HW1 2027   2.510   1.468   1.940  0.5777 -0.6948  0.1871
  676SOL    HW2 2028   2.580   1.464   2.090  1.0074  1.0488 -2.5328
  677SOL     OW 2029   1.947   0.552   0.916  0.3079  0.3846  0.4247
  677SOL    HW1 2030   1.934   0.652   0.941 -0.4293  0.5302  0.0971
  677SOL    HW2 2031   1.863   0.499   0.951 -2.0339 -2.9350  0.4297
  678SOL     OW 2032   0.080   0.762   1.651 -0.0085 -0.6340  0.6416
  678SOL    HW1 2033   0.176   0.791   1.680 -0.8204  0.7796  0.7746
  678SOL    HW2 2034   0.013   0.757   1.728  0.0774  0.0123 -1.3911
  679SOL     OW 2035   2.445   1.168   1.142  0.2733 -0.4138 -0.0762
  679SOL    HW1 2036   2.345   1.167   1.167 -0.6937  0.6036 -2.5595
  679SOL    HW2 2037   2.479   1.085   1.093  1.7107 -1.0146  0.1678
  680SOL     OW 2038   2.863   0.649   1.696 -0.0492 -0.0375 -0.2714
  680SOL    HW1 2039   2.850   0.681   1.601 -2.5810 -1.0763 -0.0025
  680SOL    HW2 2040   2.900   0.725   1.757 -3.0556  2.1445  0.9108
  681SOL     OW 2041   3.057   0.155   1.651 -0.2251  0.2277 -0.2753
  681SOL    HW1 2042   3.130   0.114   1.589 -1.6548 -0.5157  1.4943
  681SOL    HW2 2043   3.021   0.246   1.613 -0.0479  1.7113 -0.8832
  682SOL     OW 2044   0.715   3.087   1.336  0.1750  0.0818  0.4217
  682SOL    HW1 2045   0.668   3.000   1.362 -1.8783 -2.1515 -0.5533
  682SOL    HW2 2046   0.747   3.078   1.238 -0.0770 -1.1772 -0.5061
  683SOL     OW 2047   1.424   0.231   2.218  0.1015 -0.2404  0.8145
  683SOL    HW1 2048   1.416   0.301   2.294 -0.7125  1.6952 -0.5962
  683SOL    HW2 2049   1.503   0.248   2.156 -1.2446 -1.7435  2.1225
  684SOL     OW 2050   1.431   2.133   0.478  0.0608  0.2273  0.0293
  684SOL    HW1 2051   1.491   2.075   0.540 -0.2436 -0.1528  0.3091
  684SOL    HW2 2052   1.342   2.082   0.452 -0.6263  0.3341  1.1266
  685SOL     OW 2053   2.148   1.915   1.993 -0.6300 -0.2612  0.2627
  685SOL    HW1 2054   2.197   1.984   1.931  0.1121  0.8886  1.0916
  685SOL    HW2 2055   2.200   1.825   2.009  0.3506 -0.5290  1.2771
  686SOL     OW 2056   1.536   1.712   2.768 -0.0831  0.2141 -0.4587
  686SOL    HW1 2057   1.549   1.605   2.761 -0.3708  0.0269 -1.6135
  686SOL    HW2 2058   1.522   1.742   2.867 -3.5922  0.1633  0.8193
  687SOL     OW 2059   1.347   2.495   1.905 -0.1570 -0.1313  0.1105
  687SOL    HW1 2060   1.397   2.447   1.831 -2.1204  3.7565  0.5722
  687SOL    HW2 2061   1.401   2.492   1.996 -1.3891 -1.2300  0.6467
  688SOL     OW 2062   2.067   1.520   1.580 -0.8168  0.2184 -0.1393
  688SOL    HW1 2063   2.167   1.541   1.557 -1.3685  1.2707  0.8161
  688SOL    HW2 2064   2.005   1.480   1.503 -0.4061  0.0004  0.2183
  689SOL     OW 2065   2.470   1.068   2.717  0.5981  0.0321  0.4996
  689SOL    HW1 2066   2.370   1.050   2.744  2.1379  1.7450  2.0892
  689SOL    HW2 2067   2.537   1.040   2.791 -1.2003 -1.3220  2.4963
  690SOL     OW 2068   2.246   2.780   3.032  0.1262  0.3313 -0.5606
  690SOL    HW1 2069   2.153   2.734   3.003 -0.4516 -1.5091 -0.4245
  690SOL    HW2 2070   2.226   2.847   3.108  1.5900 -0.9219  1.2124
  691SOL     OW 2071   2.598   0.448   2.151  0.2327 -0.1266 -0.8692
  691SOL    HW1 2072   2.682   0.396   2.121  0.3683  0.3254 -2.2575
  691SOL    HW2 2073   2.601   0.549   2.132  2.0650  0.0868  1.3201
  692SOL     OW 2074   2.715   1.250   0.651  0.3511 -0.7015 -0.0148
  692SOL    HW1 2075   2.632   1.216   0.703  0.0163  0.9188 -1.1470
  692SOL    HW2 2076   2.765   1.325   0.706  1.4701  1.2126  3.1006
  693SOL     OW 2077   2.813   2.958   0.628 -0.0406  0.1259  0.1646
  693SOL    HW1 2078   2.834   3.040   0.690 -0.8976  2.5703  1.0181
  693SOL    HW2 2079   2.775   2.981   0.536 -1.9348 -0.2373  0.6939
  694SOL     OW 2080   2.410   2.157   0.060 -0.3121 -0.0294 -0.1160
  694SOL    HW1 2081   2.384   2.256   0.080  1.4344  2.6061  0.5729
  694SOL    HW2 2082   2.343   2.092   0.094  4.9020  0.7968 -0.8777
  695SOL     OW 2083   0.546   2.898   1.480 -0.0915 -0.1025 -0.2234
  695SOL    HW1 2084   0.482   2.813   1.487 -2.3954 -1.2965  0.7251
  695SOL    HW2 2085   0.516   2.969   1.547 -0.9304  0.7897 -0.9541
  696SOL     OW 2086   2.734   1.984   0.658 -0.1167 -0.0098  0.1966
  696SOL    HW1 2087   2.789   1.901   0.681 -0.4286 -0.5989 -0.8198
  696SOL    HW2 2088   2.679   1.974   0.574  3.2193 -0.1815  0.0151
  697SOL     OW 2089   1.672   2.035   1.730  0.1911  0.0593  0.4281
  697SOL    HW1 2090   1.750   1.983   1.776  2.4295 -0.0087  0.2300
  697SOL    HW2 2091   1.704   2.101   1.656  0.8887 -0.2766 -0.5009
  698SOL     OW 2092   2.926   0.340   2.806  0.5764 -0.0604 -0.4276
  698SOL    HW1 2093   2.940   0.286   2.719 -2.1389  1.3404  1.4354
  698SOL    HW2 2094   3.003   0.319   2.878  1.5815  1.4776  0.7089
  699SOL     OW 2095   1.532   0.131   2.930  0.2125  0.2941  0.0891
  699SOL    HW1 2096   1.512   0.030   2.925 -0.5986 -1.1235  0.9558
  699SOL    HW2 2097   1.558   0.172   2.837 -1.1076  0.8518 -0.2322
  700SOL     OW 2098   1.008   2.422   1.372  0.3205  0.3259 -0.4671
  700SOL    HW1 2099   1.085   2.360   1.337 -0.5483  1.0477  1.0802
  700SOL    HW2 2100   0.917   2.413   1.321 -2.6656  1.5078 -0.2829
  701SOL     OW 2101   1.827   2.841   0.023 -0.6689  1.0256 -0.4139
  701SOL    HW1 2102   1.861   2.780   0.098 -1.9420 -1.0480 -2.6949
  701SOL    HW2 2103   1.885   2.928   0.008 -0.2819  2.1134  2.2625
  702SOL     OW 2104   2.091   1.354   1.819  0.2246 -0.3234  0.1574
  702SOL    HW1 2105   2.188   1.318   1.828 -1.5092  0.5425 -0.5777
  702SOL    HW2 2106   2.081   1.407   1.728 -3.2238 -0.2880 -2.9803
  703SOL     OW 2107   1.968   0.892   1.483 -0.2074  0.2332 -0.0422
  703SOL    HW1 2108   1.983   0.798   1.523 -2.5403  2.2978  2.6431
  703SOL    HW2 2109   2.039   0.960   1.521 -1.0989  2.1946 -0.0973
  704SOL     OW 2110   0.279   2.071   1.793  0.0993 -0.1855  0.1457
  704SOL    HW1 2111   0.312   2.022   1.874  3.0754  1.6981 -1.3525
  704SOL    HW2 2112   0.364   2.122   1.757  0.0882  1.6689  0.8564
  705SOL     OW 2113   2.549   1.418   0.856 -0.1354  0.3618  0.1406
  705SOL    HW1 2114   2.462   1.399   0.914 -0.5005 -0.9102  1.4903
  705SOL    HW2 2115   2.642   1.403   0.896  0.9092 -0.4770 -1.7153
  706SOL     OW 2116   0.642   1.747   1.889  0.2116  0.5681 -0.0910
  706SOL    HW1 2117   0.651   1.651   1.935 -0.3922 -2.7627  1.8520
  706SOL    HW2 2118   0.719   1.804   1.929  0.7617 -0.3726  0.5670
  707SOL     OW 2119   2.333   1.226   1.859  0.4426 -0.4965 -1.5349
  707SOL    HW1 2120   2.439   1.207   1.867 -0.4373 -0.6136  0.4602
  707SOL    HW2 2121   2.279   1.133   1.855  0.0020 -1.9278  0.3608
  708SOL     OW 2122   3.047   0.525   3.026 -0.3361 -0.2031  0.5336
  708SOL    HW1 2123   3.061   0.586   2.946  2.1157  2.2455 -2.0313
  708SOL    HW2 2124   3.054   0.425   3.001 -1.0559 -3.8055 -0.6763
  709SOL     OW 2125   1.757   1.837   0.202  0.2639 -0.2801  0.2038
  709SOL    HW1 2126   1.792   1.915   0.255 -1.8913  1.2668 -2.2448
  709SOL    HW2 2127   1.777   1.844   0.097 -0.0655 -0.9175  0.1835
  710SOL     OW 2128   1.769   1.665   2.447 -0.0664  0.4977  0.1870
  710SOL    HW1 2129   1.823   1.620   2.365  1.9452 -1.7889  2.4211
  710SOL    HW2 2130   1.787   1.630   2.546 -1.9442 -1.7876  0.8105
  711SOL     OW 2131   2.625   2.905   0.968 -0.1064  0.4647 -0.0098
  711SOL    HW1 2132   2.656   3.005   0.965 -0.9214  2.1405  0.6715
  711SOL    HW2 2133   2.704   2.840   0.999  0.2271 -0.5550  0.6841
  712SOL     OW 2134   1.494   2.289   1.744  0.0548  0.1022 -0.2430
  712SOL    HW1 2135   1.563   2.210   1.757  1.6072 -0.2422 -1.7035
  712SOL    HW2 2136   1.414   2.273   1.677  0.5640  1.4831  1.2665
  713SOL     OW 2137   2.858   1.330   2.509 -0.2724 -0.4321  0.1410
  713SOL    HW1 2138   2.903   1.247   2.475 -0.3135  0.2145 -1.0390
  713SOL    HW2 2139   2.783   1.308   2.582 -1.7139 -1.4070  3.2271
  714SOL     OW 2140   2.667   0.433   2.446  0.0198  0.0455  0.7553
  714SOL    HW1 2141   2.586   0.413   2.508 -1.4219  1.5289  0.4148
  714SOL    HW2 2142   2.641   0.452   2.348  1.1053  0.1642 -0.5613
  715SOL     OW 2143   1.657   2.094   1.116  0.4581 -0.9617  0.0983
  715SOL    HW1 2144   1.569   2.146   1.099 -0.4335  0.4826  2.0127
  715SOL    HW2 2145   1.658   2.058   1.212 -2.1506 -0.5637 -0.9052
  716SOL     OW 2146   1.187   0.209   1.440 -0.5030  0.0516  0.0288
  716SOL    HW1 2147   1.086   0.208   1.444  0.2293  1.3178 -0.6230
  716SOL    HW2 2148   1.223   0.304   1.424  0.6885 -0.0012 -0.4593
  717SOL     OW 2149   1.053   0.582   1.594 -0.2204 -0.8851  0.1838
  717SOL    HW1 2150   1.144   0.635   1.581 -0.1686 -1.3011 -1.7313
  717SOL    HW2 2151   1.024   0.546   1.500 -1.0201  0.7653  0.2842
  718SOL     OW 2152   0.662   1.106   1.001 -0.0616  0.1873 -0.1975
  718SOL    HW1 2153   0.642   1.109   0.901  1.4098  2.6708  2.2278
  718SOL    HW2 2154   0.748   1.159   1.022 -0.4602 -2.5936  1.2345
  719SOL     OW 2155   0.691   1.816   2.246 -0.8593  0.2831  0.1445
  719SOL    HW1 2156   0.755   1.860   2.314 -0.4470 -1.0203 -0.2692
  719SOL    HW2 2157   0.597   1.866   2.224 -1.2989 -3.3119  2.7725
  720SOL     OW 2158   2.274   1.143   0.224 -0.1168  0.4200 -0.3647
  720SOL    HW1 2159   2.376   1.129   0.234  0.5041 -2.5207  1.0485
  720SOL    HW2 2160   2.239   1.171   0.319  2.1523  0.0739  2.3940
  721SOL     OW 2161   2.239   0.013   2.002 -0.0132 -0.0831 -0.0985
  721SOL    HW1 2162   2.252   0.103   1.953 -0.3975  1.2987 -0.0020
  721SOL    HW2 2163   2.142  -0.000   2.038  0.6397 -2.4176  1.8347
  722SOL     OW 2164   2.397   1.652   0.481  0.2217  0.2965 -0.2109
  722SOL    HW1 2165   2.395   1.570   0.417  1.0452  1.9277  1.1456
  722SOL    HW2 2166   2.300   1.683   0.510  0.8927  1.6055 -0.6711
  723SOL     OW 2167   2.607   2.852   1.899  0.5116  0.1388  0.0433
  723SOL    HW1 2168   2.662   2.895   1.976  0.5794 -0.3971 -1.0956
  723SOL    HW2 2169   2.514   2.823   1.931 -1.3787 -2.7809 -1.0118
  724SOL     OW 2170   0.291   2.417   2.360  0.2780 -0.3779  0.0246
  724SOL    HW1 2171   0.194   2.460   2.369 -0.8083  1.4761  1.5586
  724SOL    HW2 2172   0.341   2.391   2.446 -1.5904  1.2864  0.7866
  725SOL     OW 2173   2.292   2.788   1.477  0.1770  0.0555 -0.0145
  725SOL    HW1 2174   2.370   2.807   1.401  2.9256 -1.6369 -0.3709
  725SOL    HW2 2175   2.288   2.684   1.496  2.4104  0.3655 -1.0333
  726SOL     OW 2176   2.398   2.247   0.805  0.2057 -0.3964 -0.0213
  726SOL    HW1 2177   2.381   2.343   0.842  1.1398 -0.3404 -0.9716
  726SOL    HW2 2178   2.368   2.233   0.708  0.9456  1.0675 -1.5548
  727SOL     OW 2179   0.241   3.077   0.161  0.1787  0.5212 -0.2644
  727SOL    HW1 2180   0.263   2.996   0.103  2.0309  0.6405 -0.2069
  727SOL    HW2 2181   0.279   3.163   0.123 -0.0773 -0.2478 -0.7836
  728SOL     OW 2182   2.833   0.644   1.054 -0.2462  0.0771  1.3495
  728SOL    HW1 2183   2.749   0.601   1.004 -0.8038 -0.3588 -0.0811
  728SOL    HW2 2184   2.842   0.603   1.149 -0.5300  0.1075  1.4663
  729SOL     OW 2185   2.965   2.477   0.729  0.4920 -0.4272 -0.1315
  729SOL    HW1 2186   2.935   2.375   0.751  0.0445 -0.3052  0.9932
  729SOL    HW2 2187   3.066   2.495   0.744 -0.9103  1.2951  1.3344
  730SOL     OW 2188   2.622   0.563   0.869 -0.2285 -0.0624 -0.2766
  730SOL    HW1 2189   2.569   0.656   0.872 -2.9422  0.1145 -0.6825
  730SOL    HW2 2190   2.702   0.568   0.802  1.4064 -3.7484 -1.5192
  731SOL     OW 2191   0.106   2.130   2.466  0.5025  0.1114  0.0473
  731SOL    HW1 2192   0.115   2.165   2.567  0.2981 -1.2157  4.2792
  731SOL    HW2 2193   0.029   2.169   2.418  1.8043  0.1231 -0.4678
  732SOL     OW 2194   1.145   2.840   2.014  0.6213 -0.1661  0.8753
  732SOL    HW1 2195   1.161   2.761   2.080  0.9766 -0.6982  0.0417
  732SOL    HW2 2196   1.130   2.813   1.916  0.6430  2.2206  1.4285
  733SOL     OW 2197   3.037   0.689   2.110 -0.0939  0.1354  0.4709
  733SOL    HW1 2198   3.125   0.739   2.104 -1.5948 -0.6407  3.3523
  733SOL    HW2 2199   3.032   0.602   2.055  2.8156  2.3238 -2.7475
  734SOL     OW 2200   1.385   0.381   2.696 -0.3266 -0.2464 -0.1977
  734SOL    HW1 2201   1.393   0.474   2.745 -0.8131  3.0710 -0.6288
  734SOL    HW2 2202   1.325   0.318   2.751  2.1418  0.7955 -1.8274
  735SOL     OW 2203   2.803   2.634   2.292  0.0455 -0.1482 -0.1890
  735SOL    HW1 2204   2.732   2.647   2.216  1.2580 -2.3113  1.0159
  735SOL    HW2 2205   2.904   2.634   2.259  0.9600 -0.0239  0.0368
  736SOL     OW 2206   0.800   0.386   2.591 -0.0170 -0.4765 -0.8678
  736SOL    HW1 2207   0.739   0.468   2.601  2.0017 -0.3369  1.2685
  736SOL    HW2 2208   0.802   0.338   2.494  0.2630  0.0395  0.5303
  737SOL     OW 2209   2.696   0.470   2.852 -0.4630 -0.1211  0.5267
  737SOL    HW1 2210   2.666   0.466   2.951 -0.0385  0.3720 -1.1244
  737SOL    HW2 2211   2.779   0.407   2.839 -2.7272  0.1134  3.8249
  738SOL     OW 2212   1.640   1.158   3.016  0.1062 -0.4078  0.8204
  738SOL    HW1 2213   1.746   1.159   2.998  1.3620 -0.5895 -1.6425
  738SOL    HW2 2214   1.605   1.074   3.065 -3.4427 -0.8654 -1.8907
  739SOL     OW 2215   1.777   0.548   0.677  0.4474 -0.5579  0.1052
  739SOL    HW1 2216   1.819   0.545   0.771  0.2583  1.1391  2.7248
  739SOL    HW2 2217   1.826   0.484   0.610  0.4216 -1.1257  0.4356
  740SOL     OW 2218   1.895   2.023   2.142  0.1507  0.7358  0.0183
  740SOL    HW1 2219   1.963   1.967   2.085  1.8067  0.8645  0.3842
  740SOL    HW2 2220   1.810   2.044   2.094 -0.4474 -0.9037 -0.0071
  741SOL     OW 2221   2.505   0.083   2.580 -0.1386 -0.4362  0.5842
  741SOL    HW1 2222   2.598   0.036   2.579  0.0603 -3.9571 -0.0491
  741SOL    HW2 2223   2.452   0.074   2.492  0.8669  1.8166  0.5781
  742SOL     OW 2224   2.244   1.394   0.049  0.2080  0.3228  0.4895
  742SOL    HW1 2225   2.189   1.479   0.062 -4.2577 -1.7295 -0.6475
  742SOL    HW2 2226   2.210   1.318   0.102  1.4759  1.8036  0.0949
  743SOL     OW 2227   1.742   0.646   2.648  0.1269  0.0772 -0.0081
  743SOL    HW1 2228   1.767   0.579   2.575 -1.7325  2.4317 -1.6883
  743SOL    HW2 2229   1.660   0.704   2.620  1.7497 -0.3179 -0.4210
  744SOL     OW 2230   2.660   2.078   0.049 -0.0327  0.2360  0.9901
  744SOL    HW1 2231   2.558   2.100   0.054  1.9104  2.0686 -2.3728
  744SOL    HW2 2232   2.697   2.013   0.123  1.7875  1.5843  0.0803
  745SOL     OW 2233   2.196   2.721   2.204 -0.2390  0.2233 -0.0872
  745SOL    HW1 2234   2.098   2.693   2.181  1.4728 -0.6102 -0.5329
  745SOL    HW2 2235   2.205   2.765   2.304 -0.0721  0.9823  1.4111
  746SOL     OW 2236   3.071   2.598   1.832 -0.1918  0.2493 -0.4125
  746SOL    HW1 2237   3.172   2.614   1.817 -1.3318 -1.2979  1.1260
  746SOL    HW2 2238   3.030   2.680   1.877  0.3839 -0.3571 -0.3400
  747SOL     OW 2239   0.020   1.794   1.693  0.1874 -0.0290 -0.4654
  747SOL    HW1 2240  -0.021   1.703   1.674 -0.6120  0.6623 -1.0518
  747SOL    HW2 2241   0.102   1.813   1.632  0.0883 -0.5612 -1.6605
  748SOL     OW 2242   1.734   2.752   2.871 -0.2601 -0.3077  0.0789
  748SOL    HW1 2243   1.745   2.781   2.971 -0.1055 -0.7141 -2.6483
  748SOL    HW2 2244   1.637   2.729   2.851  1.6501  0.4926 -0.7947
  749SOL     OW 2245   1.299   0.071   0.901 -0.0154 -0.2610 -0.1696
  749SOL    HW1 2246   1.266  -0.028   0.915 -0.7882 -1.7463  0.0929
  749SOL    HW2 2247   1.291   0.105   0.802  0.0134 -0.4169  0.6664
  750SOL     OW 2248   2.269   0.257   1.862 -0.2954 -0.3326  0.3027
  750SOL    HW1 2249   2.356   0.294   1.812  1.6156 -2.4209 -1.4212
  750SOL    HW2 2250   2.264   0.285   1.962  0.1319 -0.9986  2.8571
  751SOL     OW 2251   0.849   2.250   2.900 -0.1406 -0.0067  0.1392
  751SOL    HW1 2252   0.915   2.231   2.979  0.0236 -1.3329  0.2596
  751SOL    HW2 2253   0.796   2.168   2.875  0.7934  1.4789 -1.4038
  752SOL     OW 2254   1.253   0.941   1.530  0.3065 -0.3865 -0.2961
  752SOL    HW1 2255   1.332   0.998   1.489 -0.3135  0.2891 -1.2130
  752SOL    HW2 2256   1.284   0.843   1.552  2.5343  0.1807 -1.1712
  753SOL     OW 2257   0.930   2.618   1.765 -0.2532 -0.7078  0.3553
  753SOL    HW1 2258   1.019   2.657   1.722 -0.3498  1.2487 -2.5084
  753SOL    HW2 2259   0.849   2.673   1.732 -0.1778  0.6764  2.4486
  754SOL     OW 2260   1.143   1.320   3.020 -0.0707  0.1226 -0.2152
  754SOL    HW1 2261   1.178   1.253   2.950 -1.2435 -1.0960  1.5073
  754SOL    HW2 2262   1.137   1.420   2.982  0.3088  0.6106 -1.9924
  755SOL     OW 2263   2.017   0.525   2.217 -0.2467  0.1566  0.4167
  755SOL    HW1 2264   2.105   0.487   2.263  0.5578 -0.2017  2.2555
  755SOL    HW2 2265   1.936   0.513   2.280  1.4406 -0.7919 -0.3712
  756SOL     OW 2266   2.639   0.967   2.939 -0.0468 -0.5912 -0.1634
  756SOL    HW1 2267   2.687   0.887   2.896 -0.0497  2.2141 -0.9338
  756SOL    HW2 2268   2.570   0.937   3.013 -0.0138 -2.4746 -2.7228
  757SOL     OW 2269   0.145   0.490   1.718  0.4512 -0.1328  0.3511
  757SOL    HW1 2270   0.094   0.571   1.680  0.0377 -2.3371 -0.5248
  757SOL    HW2 2271   0.216   0.454   1.648  2.0788 -2.0415 -2.6159
  758SOL     OW 2272   2.493   0.051   1.518  0.4827  0.5205 -0.1476
  758SOL    HW1 2273   2.405   0.083   1.563 -0.8990  2.3160  0.8970
  758SOL    HW2 2274   2.482   0.022   1.418 -1.9786 -0.4803  0.9126
  759SOL     OW 2275   1.660   0.091   0.077  0.2927  0.0617 -0.0133
  759SOL    HW1 2276   1.623   0.090  -0.022 -0.0427 -1.9449 -1.1624
  759SOL    HW2 2277   1.766   0.080   0.073  0.0638 -1.3651  2.1154
  760SOL     OW 2278   2.747   1.935   2.782  0.0294 -0.6497 -0.6952
  760SOL    HW1 2279   2.781   1.846   2.734  1.0248  1.2967 -1.4425
  760SOL    HW2 2280   2.809   2.012   2.759 -2.4500  2.1840  2.4978
  761SOL     OW 2281   1.903   1.767   1.622 -0.0825 -0.2824 -0.2376
  761SOL    HW1 2282   1.963   1.682   1.625  1.0209 -2.4427 -0.2092
  761SOL    HW2 2283   1.819   1.753   1.558 -1.0485 -0.8516  1.3011
  762SOL     OW 2284   0.521   2.404   0.995 -0.1127 -0.4687 -0.2861
  762SOL    HW1 2285   0.551   2.448   0.909 -3.0742 -3.2107  0.6226
  762SOL    HW2 2286   0.510   2.470   1.074 -0.8811  1.1451 -0.2993
  763SOL     OW 2287   2.021   1.587   2.963 -0.0039  0.2306 -0.0035
  763SOL    HW1 2288   2.088   1.539   2.898  2.0426 -1.0598 -0.8758
  763SOL    HW2 2289   1.977   1.515   3.023  0.9455 -1.3909  1.5094
  764SOL     OW 2290   0.692   0.592   0.849 -0.0988  0.1383 -0.0528
  764SOL    HW1 2291   0.704   0.574   0.749  0.7832  1.8398  1.1884
  764SOL    HW2 2292   0.781   0.606   0.904  0.6861 -0.0096 -1.2505
  765SOL     OW 2293   0.652   0.222   0.799 -0.6163  0.2178 -0.1678
  765SOL    HW1 2294   0.744   0.246   0.752  0.8806  1.9498  0.8949
  765SOL    HW2 2295   0.656   0.232   0.900  0.1807 -0.9139 -0.2886
  766SOL     OW 2296   3.016   1.990   3.037  0.5477 -0.2301 -0.2327
  766SOL    HW1 2297   2.918   1.977   3.028  0.6558  0.1283 -0.8390
  766SOL    HW2 2298   3.047   2.081   2.996  1.9762 -0.5393 -0.3734
  767SOL     OW 2299   2.790   1.569   0.490 -0.9379  0.0028 -0.3428
  767SOL    HW1 2300   2.695   1.578   0.527 -0.7207  0.4682 -0.5466
  767SOL    HW2 2301   2.861   1.569   0.560 -1.0414  2.0487 -1.6444
  768SOL     OW 2302   1.047   0.315   0.269  0.0311 -0.5788  0.0265
  768SOL    HW1 2303   0.957   0.264   0.260  0.3629 -1.1726  0.1593
  768SOL    HW2 2304   1.125   0.253   0.267 -2.0169  3.0193 -2.5808
  769SOL     OW 2305   1.278   1.840   2.257  1.0756  0.2011 -0.6928
  769SOL    HW1 2306   1.369   1.802   2.249  0.1687 -0.2803  3.3746
  769SOL    HW2 2307   1.196   1.772   2.249 -0.4202  0.7912 -0.7718
  770SOL     OW 2308   0.173   1.099   2.311  0.2053  0.0760 -0.2057
  770SOL    HW1 2309   0.134   1.155   2.395  1.0504 -1.0182 -0.2438
  770SOL    HW2 2310   0.111   1.105   2.230  0.5126 -0.3525 -1.5353
  771SOL     OW 2311   2.964   2.839   1.917 -0.0762  0.1566 -0.2791
  771SOL    HW1 2312   2.956   2.903   1.837  2.4593  0.8961 -3.7493
  771SOL    HW2 2313   2.921   2.877   2.000  0.8605 -0.7709 -1.9260
  772SOL     OW 2314   2.122   0.069   3.003 -0.0579 -0.0087  0.1544
  772SOL    HW1 2315   2.195  -0.002   2.987  0.5452 -1.7828  1.4770
  772SOL    HW2 2316   2.153   0.155   3.051  1.4277 -0.6520 -0.3159
  773SOL     OW 2317   0.733   2.138   2.470 -0.0206 -0.1015  0.3145
  773SOL    HW1 2318   0.721   2.220   2.410  0.0038  1.8234 -0.3391
  773SOL    HW2 2319   0.655   2.114   2.534 -0.4597  1.7794  0.7133
  774SOL     OW 2320   1.992   0.028   2.668 -0.8305 -0.2552  0.2467
  774SOL    HW1 2321   2.013   0.115   2.715 -1.5847 -1.7022 -0.9399
  774SOL    HW2 2322   2.046  -0.059   2.702  1.7676  0.9243  0.9078
  775SOL     OW 2323   2.516   2.899   2.373 -0.0671  0.4714 -0.3414
  775SOL    HW1 2324   2.474   2.991   2.393 -0.8803 -0.2890 -1.9552
  775SOL    HW2 2325   2.611   2.884   2.414 -1.9442 -0.0857 -1.5930
  776SOL     OW 2326   0.007   1.162   0.264 -0.3609 -0.7890 -0.0130
  776SOL    HW1 2327  -0.028   1.202   0.175  1.3581  0.6684 -0.4358
  776SOL    HW2 2328  -0.050   1.200   0.340  2.9744  1.9342 -0.8568
  777SOL     OW 2329   0.330   2.698   0.403 -0.0145  0.2383 -0.0943
  777SOL    HW1 2330   0.228   2.691   0.401  1.2456  2.3046  0.6008
  777SOL    HW2 2331   0.358   2.797   0.408 -2.0844  0.7239  1.4855
  778SOL     OW 2332   1.336   1.976   0.161  0.2115  0.7758  0.1152
  778SOL    HW1 2333   1.297   1.994   0.256  0.6689  0.3981  0.2170
  778SOL    HW2 2334   1.352   2.066   0.113  0.0273  1.2812 -1.6368
  779SOL     OW 2335   0.170   0.820   0.511 -0.4681 -0.4833 -0.3780
  779SOL    HW1 2336   0.116   0.730   0.524 -0.6890 -1.0283 -2.8903
  779SOL    HW2 2337   0.132   0.900   0.569  1.4035  2.2911  0.3841
  780SOL     OW 2338   0.039   0.307   2.364 -0.2918  0.7803 -0.1709
  780SOL    HW1 2339   0.002   0.402   2.372  0.1223 -1.4933  0.8612
  780SOL    HW2 2340   0.135   0.302   2.326 -0.0912 -0.5079  0.1185
  781SOL     OW 2341   0.555   1.780   1.608 -0.1128 -0.0331 -0.2091
  781SOL    HW1 2342   0.597   1.781   1.701 -2.2402  1.9743 -1.1551
  781SOL    HW2 2343   0.485   1.706   1.607 -1.1693 -1.1756  0.1363
  782SOL     OW 2344   2.648   0.103   0.888  0.0855 -1.0631 -0.0011
  782SOL    HW1 2345   2.602   0.132   0.797  0.4518  1.6685 -0.0434
  782SOL    HW2 2346   2.611   0.154   0.974 -0.8393  1.4856  0.0717
  783SOL     OW 2347   2.815   0.652   2.541 -0.2385 -0.7168  0.2254
  783SOL    HW1 2348   2.768   0.707   2.613  1.5253  2.8486  1.3932
  783SOL    HW2 2349   2.761   0.574   2.502  1.8713 -0.3778  0.2688
  784SOL     OW 2350   1.388   2.204   0.045  0.7215 -0.0570 -0.0806
  784SOL    HW1 2351   1.477   2.249   0.082 -0.7070 -0.4230  1.3828
  784SOL    HW2 2352   1.392   2.179  -0.053  1.3664 -0.9049 -1.0749
  785SOL     OW 2353   2.186   0.314   0.025 -0.1145  0.1572  0.0166
  785SOL    HW1 2354   2.090   0.315   0.075 -2.5523 -1.4175  0.0869
  785SOL    HW2 2355   2.213   0.412  -0.007  2.8280 -0.2784 -1.5582
  786SOL     OW 2356   2.081   2.196   2.240 -0.2321  0.1543 -0.4509
  786SOL    HW1 2357   2.008   2.134   2.193 -0.9916 -1.8648 -1.4376
  786SOL    HW2 2358   2.168   2.140   2.262  1.5240 -2.9104  2.0555
  787SOL     OW 2359   1.394   0.633   0.748 -0.8486  0.2474 -0.6139
  787SOL    HW1 2360   1.309   0.683   0.715 -0.1062 -4.0090  0.7442
  787SOL    HW2 2361   1.464   0.594   0.674 -0.2265 -1.6443 -0.2476
  788SOL     OW 2362   1.223   0.475   2.965  0.3910 -0.0686 -0.1509
  788SOL    HW1 2363   1.131   0.525   2.951  2.3087  3.1513  1.6427
  788SOL    HW2 2364   1.299   0.533   2.933 -1.0391 -2.3227  3.5163
  789SOL     OW 2365   2.639   0.058   1.867  0.1377  0.0473  0.4868
  789SOL    HW1 2366   2.539   0.052   1.833 -0.7294  2.4976  0.6706
  789SOL    HW2 2367   2.666  -0.017   1.926 -3.6142 -0.9669 -1.2335
  790SOL     OW 2368   2.612   2.673   0.835  0.6152 -0.1231  0.4762
  790SOL    HW1 2369   2.661   2.679   0.740 -0.3957  1.8615 -2.9794
  790SOL    HW2 2370   2.617   2.763   0.884  0.6443  1.9930 -1.3909
  791SOL     OW 2371   1.938   1.189   0.200  0.0650 -0.5636  0.1185
  791SOL    HW1 2372   1.852   1.163   0.256 -1.8724  0.3391  2.6570
  791SOL    HW2 2373   2.014   1.117   0.212 -2.1283  0.0878  2.5399
  792SOL     OW 2374   0.461   1.969   2.229  0.2241 -0.3630  0.6430
  792SOL    HW1 2375   0.478   2.072   2.235  0.7440 -0.2651 -0.5586
  792SOL    HW2 2376   0.365   1.944   2.249 -1.6513  0.2826  1.6980
  793SOL     OW 2377   2.097   1.508   2.046 -0.2154  0.3411 -1.0272
  793SOL    HW1 2378   2.187   1.563   2.056 -1.8113  0.2439  3.4840
  793SOL    HW2 2379   2.080   1.476   1.954  0.3869  1.8543  4.0641
  794SOL     OW 2380   0.553   1.547   2.475  0.3718 -0.0177  0.1756
  794SOL    HW1 2381   0.631   1.477   2.452  1.5132  0.2376 -4.5306
  794SOL    HW2 2382   0.517   1.597   2.392  0.1085  0.7154  0.9721
  795SOL     OW 2383   2.460   2.332   1.849 -0.3408  0.1841  0.2251
  795SOL    HW1 2384   2.470   2.330   1.950 -3.7496  1.5225  1.7468
  795SOL    HW2 2385   2.383   2.269   1.810 -0.6238  2.0765  0.5462
  796SOL     OW 2386   3.021   1.118   2.720  0.0886  0.4619  0.1181
  796SOL    HW1 2387   2.917   1.137   2.723 -0.9715  1.0281  0.5592
  796SOL    HW2 2388   3.073   1.145   2.806  1.9725  0.2105  1.7476
  797SOL     OW 2389   0.674   0.620   1.344  0.2501 -0.4437 -0.6355
  797SOL    HW1 2390   0.732   0.701   1.368 -0.0035 -1.4315  0.3552
  797SOL    HW2 2391   0.608   0.623   1.264 -0.0471 -0.7333  3.0066
  798SOL     OW 2392   1.193   0.511   0.909  0.8323  0.1233 -0.4322
  798SOL    HW1 2393   1.221   0.552   1.002  0.9873 -0.9488  0.9981
  798SOL    HW2 2394   1.269   0.530   0.839 -1.0082  0.8495  1.6206
  799SOL     OW 2395   1.796   2.709   1.027 -0.0556 -0.1492  0.2725
  799SOL    HW1 2396   1.790   2.623   1.086 -0.9165  1.3689  2.8939
  799SOL    HW2 2397   1.863   2.705   0.945 -3.4665  1.1295 -1.2381
  800SOL     OW 2398   3.000   0.822   1.864 -0.2334  0.2494 -0.0140
  800SOL    HW1 2399   2.995   0.923   1.881  0.8562 -1.3182 -0.5483
  800SOL    HW2 2400   3.020   0.776   1.954 -0.5491  1.1506 -1.6632
  801SOL     OW 2401   1.959   2.211   0.099  0.3404  1.0134  0.2346
  801SOL    HW1 2402   1.937   2.236  -0.000  0.1522 -1.2119 -1.2026
  801SOL    HW2 2403   2.040   2.148   0.107 -0.7186  0.8732 -0.1769
  802SOL     OW 2404   0.639   0.654   2.548  0.3462  0.3086 -0.5898
  802SOL    HW1 2405   0.696   0.643   2.463  1.1129  2.2964  0.2340
  802SOL    HW2 2406   0.538   0.666   2.526  1.2179 -2.3730 -1.3131
  803SOL     OW 2407   0.953   0.114   0.892  0.0979 -0.0837 -0.1110
  803SOL    HW1 2408   1.021   0.177   0.947  0.9153  1.3152  0.2615
  803SOL    HW2 2409   0.926   0.164   0.803  0.0252  2.8043 -0.6699
  804SOL     OW 2410   0.322   0.036   2.193  0.3074  0.0739 -0.6733
  804SOL    HW1 2411   0.314   0.138   2.213 -0.8543 -2.0456  0.2488
  804SOL    HW2 2412   0.262   0.011   2.113  1.5197  1.9035  0.5409
  805SOL     OW 2413   2.394   0.372   0.321 -0.1219  0.0185  0.1820
  805SOL    HW1 2414   2.461   0.376   0.394 -1.4903 -2.0076  1.7573
  805SOL    HW2 2415   2.404   0.291   0.258 -1.2286 -1.8729  1.9600
  806SOL     OW 2416   0.612   2.654   1.921  0.3546  0.3104  0.8745
  806SOL    HW1 2417   0.537   2.694   1.979  3.2194 -0.0797  1.9331
  806SOL    HW2 2418   0.662   2.725   1.867  0.6348  1.0739  0.3936
  807SOL     OW 2419   2.518   0.910   0.496  0.2319  0.0895  0.3052
  807SOL    HW1 2420   2.603   0.853   0.506 -0.6614 -1.9387  2.1142
  807SOL    HW2 2421   2.519   0.967   0.405 -0.9791 -0.8969 -1.0967
  808SOL     OW 2422   0.695   2.026   2.935  0.4391  0.1465 -0.4991
  808SOL    HW1 2423   0.624   2.061   3.005  0.4289 -0.3204  2.9740
  808SOL    HW2 2424   0.716   1.924   2.957  1.2237 -1.7415  1.1615
  809SOL     OW 2425   2.573   2.000   1.916 -0.3337  0.2588 -0.2612
  809SOL    HW1 2426   2.672   2.020   1.931 -2.7214  2.4989  2.5038
  809SOL    HW2 2427   2.536   2.015   1.820 -2.5322  0.8941 -0.5859
  810SOL     OW 2428   2.186   1.155   0.476 -0.1276  0.6191  0.0333
  810SOL    HW1 2429   2.173   1.068   0.528  0.5361  1.6096  0.5018
  810SOL    HW2 2430   2.159   1.237   0.526  2.1809  1.6425 -2.8656
  811SOL     OW 2431   1.249   2.505   1.140 -0.4529  0.4002  0.0588
  811SOL    HW1 2432   1.259   2.408   1.149  3.0788  1.3609 -2.1327
  811SOL    HW2 2433   1.277   2.557   1.219 -1.9928 -1.8287 -0.2912
  812SOL     OW 2434   1.466   0.744   1.989 -0.6651  0.3562  0.3134
  812SOL    HW1 2435   1.432   0.792   2.069 -0.9442 -1.3481 -2.2611
  812SOL    HW2 2436   1.496   0.807   1.916  0.4403 -1.7483 -0.5995
  813SOL     OW 2437   1.667   2.049   2.395 -0.9145  0.1854  0.3303
  813SOL    HW1 2438   1.759   2.014   2.429  0.4853 -1.3309 -1.3907
  813SOL    HW2 2439   1.659   2.049   2.293 -0.4063  1.1406 -1.5119
  814SOL     OW 2440   3.021   1.702   2.910 -0.1945  0.3708 -0.2655
  814SOL    HW1 2441   3.068   1.634   2.974 -3.1237 -0.6974 -0.9967
  814SOL    HW2 2442   3.060   1.795   2.915 -0.8511  0.0584  0.5053
  815SOL     OW 2443   2.172   2.851   2.721  0.1913  0.4109 -0.7264
  815SOL    HW1 2444   2.141   2.765   2.775 -2.6374  1.2719  0.5582
  815SOL    HW2 2445   2.253   2.899   2.767 -0.4808 -0.9388 -0.7214
  816SOL     OW 2446   1.475   0.407   1.667 -0.1785 -0.0656  0.5290
  816SOL    HW1 2447   1.550   0.337   1.684  2.6421 -0.0842 -1.2463
  816SOL    HW2 2448   1.412   0.423   1.746  0.8654  1.4683 -0.4692
  817SOL     OW 2449   0.363   1.274   2.564  0.1683 -0.7716 -0.3932
  817SOL    HW1 2450   0.264   1.305   2.537 -1.2908  0.4294 -1.7638
  817SOL    HW2 2451   0.437   1.326   2.510 -1.2046  1.7715 -0.2371
  818SOL     OW 2452   2.005   0.817   0.455 -0.2099 -0.5958 -0.0558
  818SOL    HW1 2453   2.103   0.796   0.416  1.4302  0.4440 -1.5550
  818SOL    HW2 2454   2.003   0.836   0.560 -0.1222 -2.1934  0.3728
  819SOL     OW 2455   2.787   2.914   2.977 -0.2147 -0.0246  0.5986
  819SOL    HW1 2456   2.869   2.853   2.960 -1.3239 -1.7658  1.4718
  819SOL    HW2 2457   2.699   2.875   2.959  2.2941  0.3084 -0.0989
  820SOL     OW 2458   1.220   1.066   0.555 -0.0215  0.6156 -0.0682
  820SOL    HW1 2459   1.215   1.171   0.587 -1.1512  2.9467  1.8705
  820SOL    HW2 2460   1.220   0.998   0.641 -1.3107  1.2565  2.5934
  821SOL     OW 2461   0.022   1.240   0.729 -0.2578 -0.1711  0.3423
  821SOL    HW1 2462  -0.013   1.230   0.827 -1.3537  1.9092 -2.0646
  821SOL    HW2 2463   0.099   1.309   0.710  0.3583  1.6968  0.5736
  822SOL     OW 2464   2.552   1.762   2.467  0.1075  0.3602 -0.1332
  822SOL    HW1 2465   2.527   1.838   2.536  0.5398  0.2675  0.2064
  822SOL    HW2 2466   2.472   1.744   2.403  1.4902  0.3792 -1.6174
  823SOL     OW 2467   1.992   0.928   1.185 -0.6423  0.1744  0.0671
  823SOL    HW1 2468   1.975   0.870   1.273 -0.0757 -0.7716  1.8349
  823SOL    HW2 2469   1.947   0.881   1.100  1.0982  0.3760  1.8941
  824SOL     OW 2470   0.175   1.832   2.837  0.6311 -0.2029  0.2809
  824SOL    HW1 2471   0.200   1.837   2.936  2.6594 -1.6794 -0.6121
  824SOL    HW2 2472   0.248   1.877   2.779  1.7205  1.2341 -0.8174
  825SOL     OW 2473   1.280   1.042   0.295 -0.3034 -0.4400 -0.0610
  825SOL    HW1 2474   1.277   1.135   0.242 -0.3525  0.4301  1.6628
  825SOL    HW2 2475   1.232   1.054   0.386  0.1414  0.7601 -0.5949
  826SOL     OW 2476   1.973   0.652   1.600  0.1505  0.3419 -0.4132
  826SOL    HW1 2477   2.056   0.596   1.637  0.0256  0.9137 -0.0317
  826SOL    HW2 2478   1.891   0.587   1.580 -1.3037  3.0178 -2.0957
  827SOL     OW 2479   0.729   1.190   0.506  0.2559  0.2473  0.2319
  827SOL    HW1 2480   0.806   1.123   0.475  1.3270  0.4644  0.6736
  827SOL    HW2 2481   0.633   1.152   0.491 -0.9554 -0.4029  0.5788
  828SOL     OW 2482   2.720   0.202   1.603 -0.1582 -0.6056  0.7682
  828SOL    HW1 2483   2.641   0.147   1.569  0.6260 -1.1535  0.5127
  828SOL    HW2 2484   2.728   0.199   1.706 -0.3946 -1.7568 -0.6191
  829SOL     OW 2485   2.896   2.373   2.890 -0.5908 -0.6476 -0.2343
  829SOL    HW1 2486   2.798   2.358   2.929 -2.3594  0.3323 -2.2755
  829SOL    HW2 2487   2.933   2.469   2.890  1.3866 -1.0029 -1.4098
  830SOL     OW 2488   2.944   0.922   2.972  0.4763  0.3787 -0.3430
  830SOL    HW1 2489   3.001   0.998   3.012  0.2344 -0.1230 -1.2892
  830SOL    HW2 2490   2.916   0.845   3.038  0.9448 -0.9877 -0.7374
  831SOL     OW 2491   0.033   0.567   0.468 -0.6823  0.6846 -0.0743
  831SOL    HW1 2492   0.004   0.504   0.545  1.0710  0.3894  0.1280
  831SOL    HW2 2493   0.054   0.516   0.379 -0.3450 -1.1081  1.2261
  832SOL     OW 2494   1.780   0.720   0.037 -0.5542  0.5792 -0.1475
  832SOL    HW1 2495   1.693   0.773   0.024 -1.6204  1.4365  1.5836
  832SOL    HW2 2496   1.767   0.621   0.006  2.4175  0.5205  0.3867
  833SOL     OW 2497   2.341   2.119   0.569  0.1339 -0.1015 -0.0806
  833SOL    HW1 2498   2.251   2.107   0.518 -0.6438 -0.2077  0.1330
  833SOL    HW2 2499   2.417   2.056   0.543  1.3397  3.5329 -0.5781
  834SOL     OW 2500   0.093   0.064   0.568 -0.6276  0.3082  0.0362
  834SOL    HW1 2501   0.174   0.003   0.543 -0.3656 -0.7782  2.2369
  834SOL    HW2 2502   0.065   0.129   0.495  3.4835 -0.8513  1.6045
  835SOL     OW 2503   2.480   1.691   1.130  0.7693 -0.0698 -0.3872
  835SOL    HW1 2504   2.522   1.620   1.189 -2.2263  1.2175  0.4691
  835SOL    HW2 2505   2.549   1.749   1.075  2.8174  1.2427 -0.7527
  836SOL     OW 2506   1.538   0.839   2.610  0.0809  0.1990  0.1108
  836SOL    HW1 2507   1.434   0.844   2.611 -0.4827  1.5509 -1.3153
  836SOL    HW2 2508   1.579   0.888   2.532  3.7064  0.6599 -0.6479
  837SOL     OW 2509   1.708   0.076   0.547 -0.6768  0.1517  0.3597
  837SOL    HW1 2510   1.671   0.118   0.630 -1.6361 -1.8993 -1.5438
  837SOL    HW2 2511   1.646   0.098   0.467 -0.4704 -0.0835  0.2905
  838SOL     OW 2512   1.153   1.463   2.687  0.3111 -0.5037  0.3840
  838SOL    HW1 2513   1.115   1.504   2.774 -1.1136  0.4788 -1.1119
  838SOL    HW2 2514   1.105   1.380   2.642 -2.6885  1.6804 -1.8541
  839SOL     OW 2515   1.648   0.409   0.957  0.0987 -0.3322 -0.1028
  839SOL    HW1 2516   1.607   0.500   0.973  0.8699 -0.2969 -2.1796
  839SOL    HW2 2517   1.589   0.323   0.963  0.3120  4.2887  1.3821
  840SOL     OW 2518   2.670   2.952   1.628  0.3959  0.2548 -0.4250
  840SOL    HW1 2519   2.594   3.019   1.601 -2.8592 -1.8165  0.7273
  840SOL    HW2 2520   2.668   2.920   1.726  3.1215  0.0671 -0.2351
  841SOL     OW 2521   1.548   0.842   3.071  0.0558  0.0934 -0.1221
  841SOL    HW1 2522   1.463   0.830   3.130  4.2210 -0.3361  0.0221
  841SOL    HW2 2523   1.539   0.909   2.993  2.5316 -3.1171  1.7848
  842SOL     OW 2524   0.825   1.625   1.017 -0.1262 -0.0642 -0.4149
  842SOL    HW1 2525   0.789   1.716   1.046  0.2576 -0.4466 -1.7052
  842SOL    HW2 2526   0.756   1.575   0.955  1.1249 -1.1772  0.9313
  843SOL     OW 2527   0.169   0.077   1.431 -0.4313  0.2831 -0.1874
  843SOL    HW1 2528   0.257   0.110   1.474  0.7790  1.1623  1.7697
  843SOL    HW2 2529   0.177   0.002   1.361 -0.4290  0.3038  1.2693
  844SOL     OW 2530   0.709   2.438   0.205 -0.0964  0.0239  0.3075
  844SOL    HW1 2531   0.657   2.475   0.286 -1.5473 -0.5749 -0.5252
  844SOL    HW2 2532   0.648   2.427   0.121 -0.5868  1.1262  0.0521
  845SOL     OW 2533   1.756  -0.001   1.270  0.3830 -0.2842  0.0564
  845SOL    HW1 2534   1.735  -0.011   1.371  0.3711  0.5754  0.9793
  845SOL    HW2 2535   1.755   0.093   1.239 -1.5833 -2.9842 -0.5713
  846SOL     OW 2536   1.672   3.016   0.898 -0.1311 -0.3655 -0.3014
  846SOL    HW1 2537   1.706   3.090   0.833  0.1116  1.7204  1.7558
  846SOL    HW2 2538   1.749   2.948   0.931  3.2644 -1.7712 -0.1768
  847SOL     OW 2539   2.068   1.599   0.148  0.0373 -0.1194  0.0863
  847SOL    HW1 2540   2.023   1.529   0.212  0.2735 -3.5296  1.7788
  847SOL    HW2 2541   2.036   1.596   0.050  0.8286 -1.5854  2.1324
  848SOL     OW 2542   2.499   0.791   2.650 -0.7069  0.3500  0.0834
  848SOL    HW1 2543   2.496   0.891   2.621 -1.0917 -0.9889 -3.6497
  848SOL    HW2 2544   2.425   0.748   2.595 -0.1001 -0.1864 -0.4128
  849SOL     OW 2545   2.380   0.854   2.292  0.2457 -0.1996 -0.5210
  849SOL    HW1 2546   2.441   0.800   2.227 -2.2247  0.1706  1.4176
  849SOL    HW2 2547   2.342   0.799   2.372 -3.3713  0.9804  1.7343
  850SOL     OW 2548   1.500   0.239   1.262  0.0994  0.5816 -0.2474
  850SOL    HW1 2549   1.504   0.224   1.161 -0.1865  2.5521  0.7908
  850SOL    HW2 2550   1.489   0.152   1.320 -1.8462 -1.2047 -1.7396
  851SOL     OW 2551   0.446   1.668   0.613  0.0610 -0.2018 -0.4701
  851SOL    HW1 2552   0.423   1.755   0.666 -0.6002 -1.7707 -1.4963
  851SOL    HW2 2553   0.543   1.640   0.628 -1.9616  2.5878 -0.9893
  852SOL     OW 2554   0.836   2.186   1.774 -0.0070 -0.3657  0.8021
  852SOL    HW1 2555   0.809   2.265   1.706  0.7822  2.7866 -0.1010
  852SOL    HW2 2556   0.771   2.164   1.848  2.4595  0.2036 -2.5915
  853SOL     OW 2557   2.554   1.509   2.573 -0.8393 -0.0142  0.3773
  853SOL    HW1 2558   2.507   1.433   2.531 -0.5968  2.1915  3.7118
  853SOL    HW2 2559   2.571   1.594   2.517 -0.4268 -3.2576  0.2123
  854SOL     OW 2560   2.469   1.450   1.751 -0.2356 -0.0512 -0.5453
  854SOL    HW1 2561   2.513   1.394   1.677  0.1860  0.0013  0.2623
  854SOL    HW2 2562   2.397   1.390   1.790  1.6985  0.2271 -1.8600
  855SOL     OW 2563   2.044   2.320   0.969  0.2001  0.8460 -0.3590
  855SOL    HW1 2564   2.085   2.413   0.950  0.0011 -1.7798 -1.3757
  855SOL    HW2 2565   2.067   2.284   1.065 -0.8348  0.1631 -3.2408
  856SOL     OW 2566   1.425   1.450   0.849 -0.2698  0.0906 -0.8489
  856SOL    HW1 2567   1.487   1.531   0.864  1.5478 -1.6469 -4.9819
  856SOL    HW2 2568   1.342   1.443   0.912  0.1771 -0.3020 -0.4679
  857SOL     OW 2569   2.920   2.518   1.080  0.4341 -0.1590 -0.2700
  857SOL    HW1 2570   2.843   2.454   1.105 -3.4274  1.5232 -0.6956
  857SOL    HW2 2571   2.993   2.480   1.020  0.4187 -1.8126  0.8462
  858SOL     OW 2572   2.257   2.139   1.778  0.2650 -0.0005 -0.1210
  858SOL    HW1 2573   2.164   2.152   1.743  0.5377  0.1387  0.8752
  858SOL    HW2 2574   2.297   2.065   1.718  2.0072  0.2838 -1.3892
  859SOL     OW 2575   2.454   0.406   0.996 -0.3317  0.5748  0.8629
  859SOL    HW1 2576   2.538   0.459   0.955  2.7829 -3.2365 -1.2848
  859SOL    HW2 2577   2.490   0.330   1.051  0.9679  2.1472 -2.0278
  860SOL     OW 2578   1.881   2.798   0.525 -0.6828 -0.5284  0.7722
  860SOL    HW1 2579   1.883   2.756   0.433 -0.8662  1.0724  0.2114
  860SOL    HW2 2580   1.918   2.895   0.521  0.5096  0.2499 -0.0537
  861SOL     OW 2581   0.999   2.566   2.803 -0.3128  0.1969  0.0107
  861SOL    HW1 2582   1.073   2.628   2.775  0.0862 -2.9899 -1.1353
  861SOL    HW2 2583   0.989   2.555   2.905 -1.6011 -0.3265 -1.4241
  862SOL     OW 2584   2.958   2.614   1.552  0.1082 -0.5269 -0.4045
  862SOL    HW1 2585   3.014   2.639   1.636 -0.3148 -0.7075 -0.2614
  862SOL    HW2 2586   2.858   2.623   1.566  0.7344 -1.6303 -1.9088
  863SOL     OW 2587   1.863   2.674   0.247 -0.0402 -0.9532 -0.5645
  863SOL    HW1 2588   1.924   2.594   0.274  2.4767 -1.9934  0.8598
  863SOL    HW2 2589   1.764   2.653   0.250  0.1917  1.4656 -2.9724
  864SOL     OW 2590   1.919   1.128   2.965  0.3575 -0.5376  0.4538
  864SOL    HW1 2591   1.949   1.095   2.874 -2.6610  2.5130  1.7167
  864SOL    HW2 2592   1.985   1.109   3.042  0.6236  0.4034  0.8740
  865SOL     OW 2593   2.145   1.698   0.598  0.5156 -0.3082 -0.6594
  865SOL    HW1 2594   2.154   1.740   0.690 -0.3994 -0.0071 -1.1569
  865SOL    HW2 2595   2.084   1.618   0.603 -0.4536 -0.7405  3.5793
  866SOL     OW 2596   2.885   2.829   1.007  0.3609  0.1789  0.3042
  866SOL    HW1 2597   2.955   2.862   0.934  1.4918  0.0305  2.1851
  866SOL    HW2 2598   2.885   2.725   1.022  0.7246 -2.4553 -0.4591
  867SOL     OW 2599   0.422   1.365   0.827  0.0921 -0.0115  0.1450
  867SOL    HW1 2600   0.432   1.263   0.823 -1.3774  1.4381 -1.4025
  867SOL    HW2 2601   0.340   1.398   0.771 -2.4958  3.2238  0.7387
  868SOL     OW 2602   0.841   1.884   2.010 -0.1294 -0.5109 -0.0431
  868SOL    HW1 2603   0.803   1.870   2.107  0.6420  1.9330 -2.5973
  868SOL    HW2 2604   0.800   1.975   1.972 -0.2530  0.2623  0.4645
  869SOL     OW 2605   2.533   1.992   1.653  0.3087 -0.5906  0.3032
  869SOL    HW1 2606   2.609   1.921   1.642  0.2633  0.5953 -2.8015
  869SOL    HW2 2607   2.478   2.011   1.563  0.8139 -0.8316 -2.5244
  870SOL     OW 2608   2.395   2.528   1.212 -0.1396  0.3336  0.5411
  870SOL    HW1 2609   2.317   2.458   1.222  0.3151  1.7406  0.8902
  870SOL    HW2 2610   2.481   2.510   1.273  0.6164  1.8234  2.3771
  871SOL     OW 2611   3.044   1.994   0.530 -0.3500  0.1641 -0.0109
  871SOL    HW1 2612   2.957   2.049   0.517 -0.6096 -0.5575 -0.0417
  871SOL    HW2 2613   3.034   1.903   0.480 -1.7787 -2.9978  0.3379
  872SOL     OW 2614   2.179   0.499   1.697  0.6808  0.4220 -0.0815
  872SOL    HW1 2615   2.137   0.472   1.791  0.2952  1.0177 -0.2527
  872SOL    HW2 2616   2.283   0.511   1.700 -2.5775  1.1924  1.3812
  873SOL     OW 2617   1.730   2.072   2.856 -0.2374  0.1648 -0.1529
  873SOL    HW1 2618   1.699   2.162   2.891 -0.9462 -2.2326 -0.1127
  873SOL    HW2 2619   1.648   2.030   2.812  1.8283 -0.6703  0.0743
  874SOL     OW 2620   0.606   2.525   0.740  0.1642  0.1301  0.3179
  874SOL    HW1 2621   0.630   2.622   0.761 -2.9330 -1.9582 -0.7900
  874SOL    HW2 2622   0.693   2.467   0.755 -0.2279 -2.6670  0.6130
  875SOL     OW 2623   2.323   1.565   1.465  0.4808 -0.2018 -0.0901
  875SOL    HW1 2624   2.421   1.596   1.484  2.1845 -1.6343 -3.2860
  875SOL    HW2 2625   2.294   1.588   1.367  1.4357 -1.7552  1.6984
  876SOL     OW 2626   0.123   2.231   2.737  0.2525 -0.1117  0.1170
  876SOL    HW1 2627   0.138   2.156   2.807 -0.2028 -1.6042  1.7886
  876SOL    HW2 2628   0.195   2.301   2.747  1.6057  1.5369  2.8465
  877SOL     OW 2629   2.781   2.651   0.609  0.4493  0.3520  0.1990
  877SOL    HW1 2630   2.799   2.751   0.600 -0.9449  1.3078  0.8265
  877SOL    HW2 2631   2.862   2.602   0.641 -2.7324 -0.5979 -0.0783
  878SOL     OW 2632   2.750   1.524   2.273 -0.1307 -0.2512  0.4583
  878SOL    HW1 2633   2.704   1.609   2.305  0.9542 -1.6116 -1.2204
  878SOL    HW2 2634   2.808   1.483   2.345 -0.0328 -0.5098 -2.2766
  879SOL     OW 2635   2.421   3.064   1.261  0.7906 -0.3874  0.1149
  879SOL    HW1 2636   2.467   2.968   1.250  0.2728  0.3391  0.4403
  879SOL    HW2 2637   2.321   3.066   1.230 -0.3749 -2.4781  1.6318
  880SOL     OW 2638   0.582   0.501   2.231  0.0136  0.5471  0.2943
  880SOL    HW1 2639   0.534   0.438   2.292 -2.6517 -0.0482  0.2661
  880SOL    HW2 2640   0.557   0.477   2.134  0.1488 -1.1148 -0.9574
  881SOL     OW 2641   0.855   0.081   0.437 -0.1760 -0.0071  0.9504
  881SOL    HW1 2642   0.928   0.007   0.432  0.5690  0.2509 -0.3788
  881SOL    HW2 2643   0.767   0.057   0.386  1.4050  0.7331 -0.5183
  882SOL     OW 2644   2.768   1.791   1.686 -0.0577 -0.1857  0.1407
  882SOL    HW1 2645   2.835   1.725   1.647 -2.7688  2.7294 -0.1693
  882SOL    HW2 2646   2.761   1.780   1.791 -1.4244  0.9135  0.8193
  883SOL     OW 2647   0.925   0.601   0.969 -0.1456  0.1255  0.2784
  883SOL    HW1 2648   0.928   0.644   1.063 -0.9239 -2.5100  1.2513
  883SOL    HW2 2649   1.014   0.554   0.940  0.6799  2.1580  1.4418
  884SOL     OW 2650   1.184   1.890   1.069  0.5695  0.6395 -0.0803
  884SOL    HW1 2651   1.156   1.888   0.971 -1.0125 -1.3563  0.5624
  884SOL    HW2 2652   1.115   1.939   1.126 -1.6945  1.6469 -0.8416
  885SOL     OW 2653   2.325   1.766   2.331  0.4329  0.7309 -0.6005
  885SOL    HW1 2654   2.242   1.748   2.398 -0.8042 -0.1422  1.2823
  885SOL    HW2 2655   2.326   1.869   2.303  0.6341 -0.2363 -1.4198
  886SOL     OW 2656   2.699   0.462   1.803 -0.3311 -0.3078  0.0480
  886SOL    HW1 2657   2.717   0.416   1.891 -0.5619 -1.9043 -0.0270
  886SOL    HW2 2658   2.770   0.537   1.780  2.0206  4.1142  0.4625
  887SOL     OW 2659   0.185   2.065   1.315  0.1139  1.0379  0.0980
  887SOL    HW1 2660   0.140   2.033   1.228  1.0068 -1.1386  0.7498
  887SOL    HW2 2661   0.164   2.160   1.346 -1.2585  2.3421  0.2052
  888SOL     OW 2662   0.583   1.312   1.520 -0.2012 -0.4360 -0.1273
  888SOL    HW1 2663   0.634   1.340   1.435 -0.0015  3.1499 -0.1556
  888SOL    HW2 2664   0.549   1.216   1.505  2.8684  0.3711 -0.5725
  889SOL     OW 2665   0.844   2.424   2.142 -0.0208 -0.8027 -0.0740
  889SOL    HW1 2666   0.776   2.372   2.083  0.3469  0.6412 -1.8874
  889SOL    HW2 2667   0.910   2.467   2.077  0.8843 -0.3918  0.5908
  890SOL     OW 2668   2.335   2.416   0.140  0.5241  0.7770  0.1853
  890SOL    HW1 2669   2.401   2.470   0.082  0.6541 -0.3938  0.7913
  890SOL    HW2 2670   2.243   2.464   0.156 -1.6923  0.6719  0.3721
  891SOL     OW 2671   2.587   1.629   0.701 -0.3412  0.1454  0.8756
  891SOL    HW1 2672   2.563   1.552   0.771  0.1825 -0.5951  2.2347
  891SOL    HW2 2673   2.511   1.639   0.629 -0.9877 -0.6226  0.5056
  892SOL     OW 2674   0.278   0.300   2.239  0.9198 -0.3111 -0.2989
  892SOL    HW1 2675   0.297   0.336   2.136  1.1420 -0.0542 -1.4687
  892SOL    HW2 2676   0.350   0.344   2.301  1.0265 -0.3600  0.3315
  893SOL     OW 2677   1.618   0.237   2.692 -0.2838  0.5341 -0.1893
  893SOL    HW1 2678   1.692   0.290   2.745  3.2450 -0.3525 -1.4761
  893SOL    HW2 2679   1.524   0.278   2.683  0.5945 -0.9575  1.6874
  894SOL     OW 2680   2.168   1.995   0.076  0.4733  0.3339 -0.1041
  894SOL    HW1 2681   2.157   1.951  -0.021 -0.4561 -2.4014  1.3256
  894SOL    HW2 2682   2.184   1.918   0.146 -0.2851 -0.1318 -0.1043
  895SOL     OW 2683   2.865   1.411   0.825 -0.3126  0.3305 -0.1311
  895SOL    HW1 2684   2.904   1.352   0.898  0.1551  0.8057 -1.4729
  895SOL    HW2 2685   2.931   1.483   0.788 -2.1942 -0.6861 -0.4980
  896SOL     OW 2686   1.709   1.766   1.195 -0.5372  0.7347  0.0195
  896SOL    HW1 2687   1.799   1.806   1.162 -2.3533  0.2942 -0.8749
  896SOL    HW2 2688   1.628   1.821   1.157 -2.6241  1.4087  2.7777
  897SOL     OW 2689   0.333   0.511   3.056  0.0409 -0.0916 -0.4159
  897SOL    HW1 2690   0.274   0.528   2.970 -1.2251 -1.0473 -0.9787
  897SOL    HW2 2691   0.408   0.581   3.066 -1.5450 -0.8223  0.1871
  898SOL     OW 2692   0.542   2.889   1.044 -0.2751  0.6658 -0.9156
  898SOL    HW1 2693   0.473   2.931   1.113  1.7185  0.4911  1.3951
  898SOL    HW2 2694   0.639   2.931   1.051  1.2324 -1.0373 -0.5373
  899SOL     OW 2695   2.716   0.938   1.287  0.3054 -0.5860 -0.3546
  899SOL    HW1 2696   2.659   0.949   1.204 -0.4020 -0.3350  2.2409
  899SOL    HW2 2697   2.814   0.968   1.267  1.9712  3.6164  2.0641
  900SOL     OW 2698   0.959   2.323   2.359  0.2051 -0.0799  0.1827
  900SOL    HW1 2699   0.909   2.393   2.300 -0.3363  2.2064 -0.7604
  900SOL    HW2 2700   0.933   2.339   2.461 -1.0948 -0.0313  0.8044
  901SOL     OW 2701   1.981   2.487   1.372  0.6474  0.0473 -0.1394
  901SOL    HW1 2702   1.939   2.470   1.276  0.1383  0.9547 -0.3409
  901SOL    HW2 2703   2.076   2.449   1.377  2.3442 -0.5796  0.7398
  902SOL     OW 2704   2.580   1.691   1.466 -0.1825  0.0366  0.3050
  902SOL    HW1 2705   2.636   1.694   1.555  1.4979 -0.2388  1.8303
  902SOL    HW2 2706   2.632   1.632   1.394  3.3735 -0.0837  1.4133
  903SOL     OW 2707   0.289   2.410   2.004  0.1392  0.5474  0.2469
  903SOL    HW1 2708   0.194   2.373   2.022 -2.9156 -1.1681  0.6741
  903SOL    HW2 2709   0.285   2.476   1.926  0.2021 -0.1459  0.7255
  904SOL     OW 2710   2.018   0.784   2.602 -0.1644 -0.2358  0.0155
  904SOL    HW1 2711   1.947   0.737   2.665  3.0395  1.4601 -1.6526
  904SOL    HW2 2712   2.000   0.772   2.499  2.0574  0.3040 -0.3103
  905SOL     OW 2713   2.790   0.021   2.546  0.3790 -0.0882 -0.5201
  905SOL    HW1 2714   2.862  -0.031   2.601 -3.0920  2.1072 -1.9937
  905SOL    HW2 2715   2.826   0.113   2.517 -1.3344  0.6338  0.4944
  906SOL     OW 2716   0.128   1.811   1.952  0.2061  0.6951 -0.0287
  906SOL    HW1 2717   0.087   1.826   1.858  0.4952 -0.3142 -2.2872
  906SOL    HW2 2718   0.226   1.836   1.948  0.1918 -0.2247 -0.6851
  907SOL     OW 2719   0.204   2.408   1.050 -0.2011 -0.3251  0.1062
  907SOL    HW1 2720   0.246   2.500   1.061 -0.8485 -1.6920 -1.3794
  907SOL    HW2 2721   0.202   2.381   0.952  2.0317 -1.2559 -0.6325
  908SOL     OW 2722   2.686   2.866   0.382  0.7437  0.0461  0.1263
  908SOL    HW1 2723   2.629   2.857   0.295 -1.7318 -1.4979  0.4083
  908SOL    HW2 2724   2.700   2.774   0.427 -1.3484 -0.9221 -0.7688
  909SOL     OW 2725   0.706   0.921   2.640  0.7100 -0.4828 -0.3552
  909SOL    HW1 2726   0.694   0.821   2.615 -3.6063 -3.0050  3.3530
  909SOL    HW2 2727   0.764   0.978   2.571  0.8187 -0.1170 -1.9931
  910SOL     OW 2728   1.721   1.791   2.031  0.2473 -0.1989  0.8853
  910SOL    HW1 2729   1.791   1.813   1.958  1.3431 -0.9087  2.1094
  910SOL    HW2 2730   1.664   1.870   2.064  0.8610 -0.7609  1.4268
  911SOL     OW 2731   1.739   3.042   1.584  0.2539  0.0520  0.1148
  911SOL    HW1 2732   1.808   2.976   1.544 -0.8273  1.0307  1.3722
  911SOL    HW2 2733   1.701   2.999   1.665  0.8780  1.3998 -2.2115
  912SOL     OW 2734   2.851   0.940   0.761  0.0275  0.0603  0.3957
  912SOL    HW1 2735   2.883   0.943   0.860 -1.3300 -0.6045  0.1412
  912SOL    HW2 2736   2.827   1.031   0.720  1.7386  0.5298 -0.7582
  913SOL     OW 2737   2.577   1.276   1.574 -0.2474  0.4772  0.1983
  913SOL    HW1 2738   2.599   1.191   1.632 -1.2187 -1.9037  0.3771
  913SOL    HW2 2739   2.603   1.268   1.475  0.1417 -1.3525  2.2317
  914SOL     OW 2740   2.838   0.501   1.285 -0.0805 -0.3130 -0.2347
  914SOL    HW1 2741   2.813   0.401   1.289 -1.6950 -1.3573  0.2802
  914SOL    HW2 2742   2.817   0.558   1.366  1.5323  0.7495  0.5455
  915SOL     OW 2743   1.203   0.813   1.050  0.1939  0.2067 -0.2710
  915SOL    HW1 2744   1.280   0.845   1.105 -0.3084 -1.4010 -1.1145
  915SOL    HW2 2745   1.112   0.802   1.102 -2.5293 -0.3431  0.4326
  916SOL     OW 2746   0.566   0.039   0.598  0.9936 -0.3546  0.2901
  916SOL    HW1 2747   0.585   0.094   0.684  1.3159  0.4650 -0.9508
  916SOL    HW2 2748   0.552   0.100   0.516 -0.8874 -0.7741  1.7678
  917SOL     OW 2749   2.739   2.579   1.889  0.0156  0.0411 -0.1032
  917SOL    HW1 2750   2.646   2.624   1.869 -5.3881  0.0919 -0.7559
  917SOL    HW2 2751   2.815   2.651   1.897 -0.1271 -0.4635 -2.1189
  918SOL     OW 2752   1.026   2.179   3.085  0.9379 -0.1595  0.6451
  918SOL    HW1 2753   1.008   2.215   3.180 -1.4533 -0.1365 -1.5637
  918SOL    HW2 2754   1.073   2.089   3.085  0.8379  0.3257 -0.0145
  919SOL     OW 2755   0.915   1.588   2.775 -0.1048 -0.8737 -0.4595
  919SOL    HW1 2756   0.974   1.637   2.699  2.3363 -0.6995 -0.2758
  919SOL    HW2 2757   0.879   1.492   2.753 -0.1551 -1.3485  0.5925
  920SOL     OW 2758   1.225   2.078   2.480  0.0382 -0.6109 -0.7236
  920SOL    HW1 2759   1.173   2.086   2.390 -2.9696 -0.2816  0.2707
  920SOL    HW2 2760   1.271   1.990   2.495  1.9827  0.3244  1.5743
  921SOL     OW 2761   1.061   0.086   2.568 -0.0941 -0.4279 -0.3106
  921SOL    HW1 2762   1.078   0.047   2.477 -1.2013 -1.8893  0.1480
  921SOL    HW2 2763   1.001   0.171   2.559  1.1027 -0.7317 -2.3102
  922SOL     OW 2764   2.079   2.420   2.779  0.1532 -0.1439 -0.1557
  922SOL    HW1 2765   2.114   2.325   2.784  0.2952  1.4155  1.3633
  922SOL    HW2 2766   2.040   2.455   2.687  0.7615  0.1636 -0.2318
  923SOL     OW 2767   1.175   2.724   0.207  0.3267 -0.1956  0.3255
  923SOL    HW1 2768   1.267   2.730   0.252  1.8179 -0.8765  1.2989
  923SOL    HW2 2769   1.178   2.680   0.115  0.2004  2.9185  0.2769
  924SOL     OW 2770   2.851   1.577   0.086  0.2967 -0.0617 -0.1372
  924SOL    HW1 2771   2.786   1.602   0.009  0.9559  0.1250 -1.4910
  924SOL    HW2 2772   2.947   1.556   0.048  0.0150  1.8352 -1.0639
  925SOL     OW 2773   0.085   2.890   1.606 -0.3160  0.0866  0.0131
  925SOL    HW1 2774  -0.020   2.889   1.613 -0.1733  2.5829 -0.2561
  925SOL    HW2 2775   0.115   2.912   1.509 -0.2316  0.0210  2.7773
  926SOL     OW 2776   1.442   2.901   1.283 -0.6728  0.2483 -0.4416
  926SOL    HW1 2777   1.448   2.885   1.180 -0.0506 -3.2817 -0.6951
  926SOL    HW2 2778   1.433   3.000   1.318 -0.4674 -0.2863 -0.8384
  927SOL     OW 2779   0.251   2.545   1.767 -0.3804  0.0570 -0.2481
  927SOL    HW1 2780   0.208   2.475   1.703 -0.2556  0.1743 -1.7276
  927SOL    HW2 2781   0.308   2.613   1.717  0.7841  0.1594 -2.5399
  928SOL     OW 2782   1.586   2.032   2.098 -0.0798 -0.0223  0.4680
  928SOL    HW1 2783   1.628   2.125   2.071  1.7284  1.6864  1.3763
  928SOL    HW2 2784   1.485   2.015   2.086  1.3007 -0.9528 -1.6857
  929SOL     OW 2785   2.366   2.435   2.829  0.3914 -0.4106 -0.0118
  929SOL    HW1 2786   2.267   2.413   2.812  0.0802  1.6031 -0.7992
  929SOL    HW2 2787   2.428   2.414   2.747  1.6505  0.2003 -2.7334
  930SOL     OW 2788   2.204   1.971   1.106 -0.0087  0.1124  0.7022
  930SOL    HW1 2789   2.166   1.924   1.189  0.1573 -0.8863 -0.5156
  930SOL    HW2 2790   2.289   2.027   1.122  0.4236 -2.6274 -2.6109
  931SOL     OW 2791   0.571   1.748   2.665 -0.2830  0.6809  0.2549
  931SOL    HW1 2792   0.638   1.748   2.743 -0.1218 -3.9264  0.3891
  931SOL    HW2 2793   0.595   1.678   2.599  0.5626 -0.3625  2.8590
  932SOL     OW 2794   0.496   0.100   2.897 -0.1367  0.1103  0.0361
  932SOL    HW1 2795   0.584   0.129   2.852 -0.1150 -1.1549  1.3534
  932SOL    HW2 2796   0.509   0.001   2.927  1.2769  0.8833  0.8158
  933SOL     OW 2797   1.082   0.807   2.965  0.0675  0.0213 -0.2022
  933SOL    HW1 2798   1.152   0.863   3.021  1.4175  0.8787  0.1082
  933SOL    HW2 2799   1.012   0.871   2.919 -1.3259  1.8316  0.1039
  934SOL     OW 2800   0.852   2.959   2.760  0.7386  0.1906  0.9659
  934SOL    HW1 2801   0.877   2.872   2.706 -0.0593 -1.0134 -2.4548
  934SOL    HW2 2802   0.865   2.952   2.863 -0.3090  2.8626 -1.5000
  935SOL     OW 2803   3.089   0.544   0.914 -0.5580 -0.5680  0.0590
  935SOL    HW1 2804   3.067   0.482   0.831 -1.8629  1.4107  0.8860
  935SOL    HW2 2805   3.009   0.603   0.939  1.9915 -3.6394 -0.6462
  936SOL     OW 2806   1.102   2.979   0.154 -0.3319  0.9281  0.1604
  936SOL    HW1 2807   1.150   3.016   0.066 -0.6141  0.0934 -0.1822
  936SOL    HW2 2808   1.128   2.884   0.181  1.7067  1.3353 -0.6399
  937SOL     OW 2809   1.948   2.653   2.103 -0.2227  0.8775 -0.0792
  937SOL    HW1 2810   1.873   2.698   2.150  0.0323 -0.0180  1.9987
  937SOL    HW2 2811   1.957   2.670   2.000 -0.2486  2.6185 -1.6442
  938SOL     OW 2812   2.741   2.182   1.513 -0.3594 -0.0052 -0.2125
  938SOL    HW1 2813   2.669   2.228   1.572 -0.8719  2.4330 -1.9098
  938SOL    HW2 2814   2.812   2.128   1.571 -2.1354  0.5870  0.7346
  939SOL     OW 2815   2.725   1.010   2.514 -0.0106 -0.4089  0.0622
  939SOL    HW1 2816   2.784   0.929   2.491  2.1007 -1.9131 -2.0437
  939SOL    HW2 2817   2.719   1.030   2.615 -0.1183 -1.4136 -0.9806
  940SOL     OW 2818   1.065   0.470   2.656  0.1057  0.2755  0.1145
  940SOL    HW1 2819   1.112   0.388   2.699  1.4541 -1.9165  4.6067
  940SOL    HW2 2820   0.963   0.465   2.651 -2.1434  0.1949 -0.5743
  941SOL     OW 2821   0.044   2.874   2.225  0.2359 -0.9026 -0.3310
  941SOL    HW1 2822   0.017   2.773   2.212  1.0140 -1.5677 -0.8987
  941SOL    HW2 2823   0.126   2.881   2.292  1.6085  1.0577  1.1069
  942SOL     OW 2824   0.100   0.079   2.527 -0.1521  0.5159 -0.2026
  942SOL    HW1 2825   0.165   0.099   2.608  2.2863 -2.5051  1.0977
  942SOL    HW2 2826   0.073   0.163   2.472 -0.5847 -0.8681 -0.2552
  943SOL     OW 2827   2.094   1.646   2.471  0.2997  0.1877  0.4490
  943SOL    HW1 2828   2.122   1.544   2.474 -0.5245 -1.1005 -0.9735
  943SOL    HW2 2829   2.063   1.661   2.375 -1.6985 -3.1871 -1.9485
  944SOL     OW 2830   2.195   2.330   1.497  0.1528 -0.5630 -0.3424
  944SOL    HW1 2831   2.259   2.397   1.530 -1.9065 -0.6102 -2.0706
  944SOL    HW2 2832   2.133   2.293   1.573 -0.3367 -0.1357  2.3185
  945SOL     OW 2833   0.633   1.478   0.379  0.1492 -0.4944 -0.5720
  945SOL    HW1 2834   0.682   1.482   0.288  1.4166 -0.9280  1.3124
  945SOL    HW2 2835   0.651   1.389   0.434  1.5176 -0.2965 -1.5070
  946SOL     OW 2836   0.332   1.009   2.638 -0.3308 -0.5379  0.4419
  946SOL    HW1 2837   0.289   0.942   2.573 -1.7375  0.3329 -1.3277
  946SOL    HW2 2838   0.331   1.107   2.593  0.7315  0.8923  0.1534
  947SOL     OW 2839   1.491   0.437   0.156  0.5979 -0.5125  0.0736
  947SOL    HW1 2840   1.496   0.408   0.258  2.2529 -0.9441  2.3445
  947SOL    HW2 2841   1.423   0.385   0.102  1.8306 -0.4552  1.1400
  948SOL     OW 2842   1.982   0.008   2.167  0.3672 -0.3918 -0.7911
  948SOL    HW1 2843   1.926   0.003   2.082  0.9440  1.6929  1.2100
  948SOL    HW2 2844   1.963  -0.081   2.224 -0.6794 -0.7122 -2.0475
  949SOL     OW 2845   0.582   2.537   0.454  0.2546 -0.1186  0.0009
  949SOL    HW1 2846   0.588   2.632   0.418  0.5877 -1.0976 -2.0118
  949SOL    HW2 2847   0.585   2.537   0.557 -2.2147 -1.2083 -0.7314
  950SOL     OW 2848   0.272   2.077   3.011 -0.4319  0.2296 -0.0421
  950SOL    HW1 2849   0.191   2.138   3.038  0.9414  1.9804 -0.0662
  950SOL    HW2 2850   0.268   1.985   3.064 -1.8277  0.5245  1.3509
  951SOL     OW 2851   1.161   2.798   2.783  0.1452  0.4640 -0.1122
  951SOL    HW1 2852   1.148   2.868   2.710  2.8456  1.3382  1.3914
  951SOL    HW2 2853   1.248   2.805   2.834  0.5959  0.4342  3.2367
  952SOL     OW 2854   0.106   1.725   0.457  0.1890  0.1479 -0.0197
  952SOL    HW1 2855   0.191   1.779   0.457 -3.1270  0.7310 -3.9373
  952SOL    HW2 2856   0.080   1.693   0.554 -0.9970 -2.5529  0.1453
  953SOL     OW 2857   2.507   1.754   0.195 -0.6251 -0.7420  0.0188
  953SOL    HW1 2858   2.483   1.653   0.202  0.0828  2.2540  0.0014
  953SOL    HW2 2859   2.487   1.788   0.101  0.4318  1.7624  2.0247
  954SOL     OW 2860   2.170   0.487   1.063  0.4028 -0.9341 -0.0626
  954SOL    HW1 2861   2.101   0.516   0.985  0.9185  0.1737  0.9701
  954SOL    HW2 2862   2.262   0.469   1.026  0.5593  1.3872 -1.0677
  955SOL     OW 2863   0.221   2.650   1.284 -0.6799  0.0544 -0.2756
  955SOL    HW1 2864   0.122   2.625   1.288  0.5085 -0.9938  0.1314
  955SOL    HW2 2865   0.262   2.625   1.193  0.8380  0.0016 -1.5047
  956SOL     OW 2866   2.732   2.482   2.517 -0.4375 -0.1572 -0.1567
  956SOL    HW1 2867   2.759   2.383   2.515 -2.0221 -1.6818 -1.2065
  956SOL    HW2 2868   2.771   2.534   2.431 -3.3414  0.0533 -0.6937
  957SOL     OW 2869   1.533   2.010   2.651  0.1833 -0.5973  0.1864
  957SOL    HW1 2870   1.447   1.953   2.641 -2.5394  0.6055 -0.4153
  957SOL    HW2 2871   1.592   2.000   2.560 -0.1528 -3.7325 -3.0336
  958SOL     OW 2872   2.663   2.315   3.014  0.1019 -0.0396 -0.2085
  958SOL    HW1 2873   2.569   2.322   2.977  2.6537 -1.2436  0.2221
  958SOL    HW2 2874   2.683   2.230   3.071  3.7510  0.4944 -0.3771
  959SOL     OW 2875   0.230   2.810   0.028 -0.1799 -0.1419  0.2465
  959SOL    HW1 2876   0.132   2.781   0.037 -0.2536 -1.2601 -0.2527
  959SOL    HW2 2877   0.296   2.731   0.022  1.4546 -0.5319 -2.3704
  960SOL     OW 2878   1.973   0.460   1.952 -0.5000 -0.3546  0.4072
  960SOL    HW1 2879   1.926   0.547   1.909 -2.0026 -0.8679 -1.4612
  960SOL    HW2 2880   2.018   0.480   2.043 -0.3233 -0.4811 -1.5430
  961SOL     OW 2881   2.651   1.870   1.032  0.5488  0.4304 -0.3129
  961SOL    HW1 2882   2.576   1.906   0.967  0.3864  2.8521  1.6566
  961SOL    HW2 2883   2.644   1.912   1.127 -0.2034  2.7168 -0.7984
  962SOL     OW 2884   1.281   0.909   0.039  0.1979  0.5221 -0.3182
  962SOL    HW1 2885   1.307   0.971  -0.039 -1.1867 -2.5534 -0.5728
  962SOL    HW2 2886   1.270   0.965   0.124  0.0568 -0.4598 -0.5892
  963SOL     OW 2887   2.277   2.614   1.867 -1.1436 -0.4267  1.1629
  963SOL    HW1 2888   2.300   2.532   1.928  2.1554 -1.5346 -0.7256
  963SOL    HW2 2889   2.301   2.705   1.916  0.0756  2.0196 -0.0779
  964SOL     OW 2890   2.453   0.386   1.697  0.1209  0.3817 -0.1054
  964SOL    HW1 2891   2.529   0.435   1.748  0.9441 -0.2965  0.0974
  964SOL    HW2 2892   2.472   0.362   1.597 -1.6767 -1.7270 -1.6372
  965SOL     OW 2893   2.666   3.009   0.121  0.5325 -0.1542  0.3703
  965SOL    HW1 2894   2.709   2.955   0.044  0.5100 -0.2847 -3.0826
  965SOL    HW2 2895   2.615   3.088   0.076  2.4060 -3.0910 -1.8228
  966SOL     OW 2896   2.559   2.635   2.159 -0.4956  0.3267  0.1786
  966SOL    HW1 2897   2.495   2.557   2.130  0.0936 -0.4776 -3.1478
  966SOL    HW2 2898   2.511   2.724   2.188 -1.2516 -1.0932  2.0707
  967SOL     OW 2899   2.773   2.852   2.470 -0.1798  0.4935  0.5856
  967SOL    HW1 2900   2.808   2.775   2.411  1.2049  0.3140  0.2902
  967SOL    HW2 2901   2.825   2.941   2.455 -2.2476 -0.5508 -1.6993
  968SOL     OW 2902   2.022   1.025   2.718  0.5528 -0.6112  0.4083
  968SOL    HW1 2903   1.954   1.093   2.675  1.5596  1.6164 -0.3397
  968SOL    HW2 2904   2.035   0.931   2.677 -0.3273  0.6741  3.0057
  969SOL     OW 2905   2.710   2.334   1.157 -0.2049  0.2229  0.0495
  969SOL    HW1 2906   2.675   2.353   1.060 -0.8833  0.1504  1.3249
  969SOL    HW2 2907   2.778   2.257   1.161 -1.2460 -0.0137 -0.9318
  970SOL     OW 2908   1.118   2.181   1.785  0.1806 -0.8318  0.4013
  970SOL    HW1 2909   1.017   2.184   1.781  1.8041 -2.8799 -0.1145
  970SOL    HW2 2910   1.164   2.202   1.875 -0.2107 -0.1370 -1.2956
  971SOL     OW 2911   2.828   2.094   1.942 -0.2312  0.6008 -0.0618
  971SOL    HW1 2912   2.821   2.195   1.959 -0.1304 -1.2881 -3.7161
  971SOL    HW2 2913   2.889   2.071   1.862  1.4604  1.7831  2.9933
  972SOL     OW 2914   2.054   2.441   0.274 -0.1774 -0.0126 -0.0892
  972SOL    HW1 2915   2.022   2.355   0.228  0.1122  2.8361  0.8340
  972SOL    HW2 2916   2.059   2.433   0.381 -2.1338  3.7680  0.9254
  973SOL     OW 2917   1.307   1.070   1.921  0.5941 -0.3193 -1.1124
  973SOL    HW1 2918   1.248   1.016   1.860  2.6974 -0.6336 -0.7163
  973SOL    HW2 2919   1.289   1.174   1.920 -3.0547  2.8459  0.1186
  974SOL     OW 2920   1.665   0.538   1.894  0.3525  0.0418  0.2580
  974SOL    HW1 2921   1.725   0.620   1.886 -4.5711  1.0688  0.4540
  974SOL    HW2 2922   1.567   0.569   1.914  0.9892  1.9729 -0.0473
  975SOL     OW 2923   2.409   3.055   3.080  0.4928 -0.4442 -0.6752
  975SOL    HW1 2924   2.369   2.986   3.145 -0.1343  0.3802  1.6254
  975SOL    HW2 2925   2.447   3.003   2.996  0.0885 -0.6583 -0.3525
  976SOL     OW 2926   1.928   2.897   2.316  0.1916  0.2551 -0.3385
  976SOL    HW1 2927   1.836   2.847   2.298  0.1975 -1.0460 -0.7224
  976SOL    HW2 2928   1.986   2.849   2.384  1.2835 -1.1710  3.1878
  977SOL     OW 2929   0.475   0.641   1.020  0.8591 -0.2693  0.3139
  977SOL    HW1 2930   0.393   0.615   0.956 -4.5476  0.3211  1.2833
  977SOL    HW2 2931   0.566   0.613   0.979 -1.6547 -2.2831  2.1175
   3.10000   3.10000   3.10000
