1000 SPC/Fw water molecules t=   0.54000 step= 540
 2931
    1SOL     OW    1   2.478   0.350   2.618 -0.0426  0.2772 -0.3049
    1SOL    HW1    2   2.501   0.251   2.624  1.7109  0.6271  1.6227
    1SOL    HW2    3   2.507   0.397   2.707  1.6369  1.7795 -0.9963
    2SOL     OW    4   2.693   3.066   1.446 -0.2435 -0.1401 -0.2197
    2SOL    HW1    5   2.738   3.106   1.358  2.6245  0.3031 -0.5476
    2SOL    HW2    6   2.702   3.129   1.526 -1.0641 -0.3794 -1.6145
    3SOL     OW    7   2.748   2.591   0.401  0.2668 -0.0077 -0.0253
    3SOL    HW1    8   2.685   2.506   0.401 -0.7615 -1.1520  0.4882
    3SOL    HW2    9   2.797   2.608   0.492 -0.4178 -0.7993 -0.1243
    4SOL     OW   10   1.309   1.478   2.361 -0.1086 -0.4259 -0.0538
    4SOL    HW1   11   1.223   1.520   2.320 -1.5259  1.0115 -1.2145
    4SOL    HW2   12   1.294   1.378   2.381 -0.1950 -3.5803  0.2644
    5SOL     OW   13   1.187   1.507   3.048 -0.2661 -0.2338  0.5129
    5SOL    HW1   14   1.249   1.566   3.104  1.8957  0.1709 -0.2298
    5SOL    HW2   15   1.089   1.508   3.082  2.0629  0.4283  0.5839
    6SOL     OW   16   0.078   1.826   2.909 -0.0072  0.4428 -0.4257
    6SOL    HW1   17   0.013   1.879   2.978  0.7992 -0.5950  3.2001
    6SOL    HW2   18   0.104   1.732   2.940  2.5088  2.2302  2.6992
    7SOL     OW   19   2.602   0.906   1.170 -0.3948  0.1844 -0.3528
    7SOL    HW1   20   2.519   0.845   1.205 -0.6979 -4.2705  2.3938
    7SOL    HW2   21   2.602   0.926   1.067  0.7682  0.4653  0.2632
    8SOL     OW   22   0.447   0.598   1.511  0.1079 -0.0066  0.1641
    8SOL    HW1   23   0.546   0.581   1.534 -0.5185 -1.8381  1.4098
    8SOL    HW2   24   0.414   0.545   1.424  0.1408  0.0791 -0.1225
    9SOL     OW   25   1.146   0.924   2.282  0.2429 -0.0303  0.5550
    9SOL    HW1   26   1.235   0.974   2.246  0.2052  1.3192  0.5102
    9SOL    HW2   27   1.075   0.904   2.210  0.0543  1.4261 -0.4768
   10SOL     OW   28   0.692   1.336   1.260 -0.3839  0.3239  0.1724
   10SOL    HW1   29   0.610   1.379   1.205 -2.5659  1.0195 -0.7370
   10SOL    HW2   30   0.763   1.402   1.298 -1.1833 -2.0268 -2.8746
   11SOL     OW   31   2.378   2.700   0.934 -0.2871  0.0280  0.1167
   11SOL    HW1   32   2.364   2.705   1.034 -0.2657  1.0426  0.5396
   11SOL    HW2   33   2.474   2.737   0.914  1.5695  1.0649  0.2905
   12SOL     OW   34   1.470   0.933   0.347  0.2212  0.2639 -0.6552
   12SOL    HW1   35   1.391   1.002   0.357 -0.7158  0.4358  1.8648
   12SOL    HW2   36   1.447   0.855   0.282  0.1184 -1.9323  1.7006
   13SOL     OW   37   2.545   0.676   1.817  0.0304  0.4264 -0.3624
   13SOL    HW1   38   2.463   0.666   1.880 -1.3537  0.1938 -0.2237
   13SOL    HW2   39   2.524   0.673   1.716 -1.6445  0.5831  0.4414
   14SOL     OW   40   1.979   0.072   0.727  0.1344  0.1583  0.4256
   14SOL    HW1   41   1.901   0.135   0.692 -1.1345 -0.7013  1.3830
   14SOL    HW2   42   1.941  -0.024   0.750  0.4181 -0.7466  0.0903
   15SOL     OW   43   1.945   2.016   2.811  0.1953 -0.3977 -0.7191
   15SOL    HW1   44   1.913   2.115   2.835  1.0665  3.5946  0.7516
   15SOL    HW2   45   1.878   1.968   2.746 -0.7905  0.5871  0.5952
   16SOL     OW   46   1.606   1.717   3.032  0.2514 -0.2062 -0.7710
   16SOL    HW1   47   1.641   1.618   3.033 -0.4651 -2.3565 -1.1862
   16SOL    HW2   48   1.680   1.780   3.067  0.7891  0.0964 -0.9218
   17SOL     OW   49   0.101   0.500   0.150  0.0884  0.1742  0.2150
   17SOL    HW1   50   0.168   0.536   0.079  0.1831 -1.2984 -0.4359
   17SOL    HW2   51   0.004   0.488   0.114 -2.0250 -1.4313 -0.3984
   18SOL     OW   52   0.994   2.929   2.136  0.1548  0.3115 -0.6448
   18SOL    HW1   53   0.906   2.880   2.143  2.2209  1.2706 -2.7673
   18SOL    HW2   54   1.046   2.901   2.050  1.5398 -0.0615 -2.1847
   19SOL     OW   55   0.541   0.833   1.915 -0.0232 -0.1060 -0.2735
   19SOL    HW1   56   0.534   0.787   2.008 -0.1059 -1.6552 -0.4868
   19SOL    HW2   57   0.629   0.821   1.871 -1.1004  0.4304 -1.6254
   20SOL     OW   58   0.179   2.796   0.808  0.4917 -0.0567 -0.1586
   20SOL    HW1   59   0.107   2.856   0.760 -0.6102 -1.7550  2.7050
   20SOL    HW2   60   0.264   2.776   0.750 -2.8534  0.8774 -2.0370
   21SOL     OW   61   2.765   0.202   2.079  0.2473 -0.1010 -0.5109
   21SOL    HW1   62   2.687   0.155   2.029 -2.5832  1.2225 -0.0624
   21SOL    HW2   63   2.826   0.147   2.138  0.0584 -1.4771  0.0146
   22SOL     OW   64   2.338   0.240   0.076  0.6817  0.1430  0.3250
   22SOL    HW1   65   2.357   0.143   0.089  2.7058  0.6348 -0.7774
   22SOL    HW2   66   2.234   0.265   0.068 -1.8525 -1.2141  0.8834
   23SOL     OW   67   2.750   0.628   0.631 -0.3327  0.0652 -0.6447
   23SOL    HW1   68   2.693   0.549   0.594 -0.9518 -0.0000 -1.4372
   23SOL    HW2   69   2.753   0.717   0.568 -0.7039  1.5002  0.9374
   24SOL     OW   70   0.123   1.912   0.384 -0.2263 -0.0521 -0.2018
   24SOL    HW1   71   0.091   2.011   0.368  1.3772  1.6360  0.5258
   24SOL    HW2   72   0.195   1.869   0.318  1.5811 -2.7494 -1.3895
   25SOL     OW   73   2.230   0.521   0.205 -0.3248 -0.1195  0.4280
   25SOL    HW1   74   2.222   0.609   0.270 -1.0429  2.6804  1.2032
   25SOL    HW2   75   2.250   0.533   0.102  2.4099 -1.6279  0.5782
   26SOL     OW   76   2.545   2.143   2.080  0.6496 -0.6002  0.0698
   26SOL    HW1   77   2.600   2.190   2.156 -0.4525 -0.9066  0.0845
   26SOL    HW2   78   2.601   2.069   2.026  3.4456 -3.0294 -0.7938
   27SOL     OW   79   0.601   2.941   0.158 -0.1661 -0.0663  0.4734
   27SOL    HW1   80   0.695   2.976   0.179 -0.1522 -0.8420  0.8395
   27SOL    HW2   81   0.568   2.971   0.065 -0.5240 -2.5050 -1.4683
   28SOL     OW   82   1.569   0.170   0.313 -0.4985  0.2180 -0.0155
   28SOL    HW1   83   1.622   0.169   0.224 -2.4742  1.2653  1.1026
   28SOL    HW2   84   1.550   0.264   0.356 -1.1274  1.4338 -0.9993
   29SOL     OW   85   1.982   0.502   0.369 -0.6890 -0.3338 -0.2218
   29SOL    HW1   86   1.969   0.599   0.384 -0.9877  0.5285  0.6721
   29SOL    HW2   87   2.083   0.477   0.350 -1.0653 -2.1795  0.3535
   30SOL     OW   88   0.196   2.048   0.928  0.9171 -0.3900 -0.4303
   30SOL    HW1   89   0.211   2.062   0.827 -1.3060 -0.2848  0.7742
   30SOL    HW2   90   0.139   2.127   0.960  5.8088  3.0443 -1.6159
   31SOL     OW   91   2.113   3.084   2.314 -0.1707 -0.0200 -0.1789
   31SOL    HW1   92   2.111   3.046   2.410 -2.5753  1.9113  1.8760
   31SOL    HW2   93   2.019   3.086   2.269 -1.8209  1.2480  1.8166
   32SOL     OW   94   2.968   0.205   0.238  0.1884 -0.0431  0.2587
   32SOL    HW1   95   2.929   0.161   0.325 -1.0583  1.1521 -0.1306
   32SOL    HW2   96   3.069   0.217   0.248 -1.4180  0.2975  1.0663
   33SOL     OW   97   0.907   0.343   0.553  0.2246  0.2935  0.4339
   33SOL    HW1   98   0.887   0.241   0.533 -1.7184 -3.7129 -1.4186
   33SOL    HW2   99   1.001   0.354   0.590 -0.8218  1.5571 -1.2506
   34SOL     OW  100   0.363   2.864   1.059 -0.4159 -0.0671  0.7558
   34SOL    HW1  101   0.318   2.860   0.966  1.2263  1.9606  0.5919
   34SOL    HW2  102   0.468   2.859   1.048  0.8723  3.3235  1.6938
   35SOL     OW  103   0.025   0.201   1.863 -0.1937  0.5145 -0.0118
   35SOL    HW1  104   0.050   0.099   1.876  0.2702 -0.9946 -1.1705
   35SOL    HW2  105  -0.046   0.218   1.788 -1.1760  1.1922 -1.5345
   36SOL     OW  106   1.940   1.090   1.842 -0.3962 -0.3048  0.1906
   36SOL    HW1  107   1.984   1.089   1.750 -1.9447 -0.1664  1.3208
   36SOL    HW2  108   1.960   1.169   1.899  1.8892  2.4979  0.2216
   37SOL     OW  109   1.205   0.169   0.937 -0.1056 -0.4955 -0.3916
   37SOL    HW1  110   1.238   0.239   1.007 -0.2335 -1.0961 -3.7674
   37SOL    HW2  111   1.283   0.112   0.897 -0.2579 -0.5877  1.6051
   38SOL     OW  112   1.076   2.752   2.415  0.6137  0.3104  0.5234
   38SOL    HW1  113   1.006   2.672   2.409  2.3436  1.2539 -0.6018
   38SOL    HW2  114   1.040   2.844   2.431 -0.1914  0.3167 -1.8513
   39SOL     OW  115   2.297   1.366   3.006  0.0102  0.3628  0.0903
   39SOL    HW1  116   2.389   1.314   3.006  1.1177  2.3205 -0.3071
   39SOL    HW2  117   2.248   1.375   3.098 -0.9937  2.4951  0.3966
   40SOL     OW  118   2.111   2.522   2.512 -0.2515  0.0341  0.2694
   40SOL    HW1  119   2.066   2.612   2.542 -1.6161 -2.2795 -0.1935
   40SOL    HW2  120   2.029   2.467   2.475 -2.5269  1.9029 -0.4364
   41SOL     OW  121   2.951   0.683   2.742  0.1486 -0.3967 -0.1592
   41SOL    HW1  122   2.851   0.727   2.743 -1.8233 -0.7637 -2.0041
   41SOL    HW2  123   2.946   0.585   2.703 -1.0379  0.6130  0.1086
   42SOL     OW  124   1.744   1.764   0.568  0.6519 -0.3330  0.2020
   42SOL    HW1  125   1.709   1.670   0.541  2.1445 -1.7856 -0.2234
   42SOL    HW2  126   1.813   1.799   0.500 -1.2551 -1.7233 -0.2564
   43SOL     OW  127   0.462   1.712   1.112  0.0314 -0.0251 -0.5071
   43SOL    HW1  128   0.448   1.609   1.128  2.1366 -2.6686  0.9953
   43SOL    HW2  129   0.372   1.758   1.111  0.5543 -2.0035 -2.9721
   44SOL     OW  130   1.822   2.476   3.036  0.0936  0.1058  0.4058
   44SOL    HW1  131   1.800   2.563   2.997  1.4119  0.0315  1.2349
   44SOL    HW2  132   1.922   2.465   3.046 -1.5686  0.0244  0.4155
   45SOL     OW  133   0.305   1.908   2.603 -0.0279  0.0298  0.0580
   45SOL    HW1  134   0.255   1.929   2.510  0.1916  1.4762  0.9339
   45SOL    HW2  135   0.398   1.857   2.593 -0.3368  2.4863 -0.1870
   46SOL     OW  136   1.213   0.651   0.155 -0.5179 -0.3996 -0.3411
   46SOL    HW1  137   1.251   0.746   0.136  1.7334 -1.6683  1.6801
   46SOL    HW2  138   1.111   0.656   0.181  1.5775 -0.2376  0.7902
   47SOL     OW  139   0.182   2.450   1.631  0.3534  0.1607  0.4670
   47SOL    HW1  140   0.249   2.372   1.630 -3.2500  0.2337  1.0733
   47SOL    HW2  141   0.153   2.479   1.529 -1.9445  1.8070 -2.6233
   48SOL     OW  142   2.616   0.592   0.147 -0.1096 -0.3021 -0.3986
   48SOL    HW1  143   2.574   0.611   0.240 -2.3647 -0.1751  3.6415
   48SOL    HW2  144   2.705   0.644   0.149 -2.9071  1.4868  1.1732
   49SOL     OW  145   0.362   0.777   1.699 -0.1678 -0.1247 -0.1189
   49SOL    HW1  146   0.423   0.794   1.783 -0.9486 -0.6597  3.0171
   49SOL    HW2  147   0.394   0.701   1.630 -0.5813 -0.8881 -2.4999
   50SOL     OW  148   1.660   1.132   0.304 -0.0864 -0.2403  0.2375
   50SOL    HW1  149   1.618   1.042   0.274 -0.3212 -1.5594 -0.1332
   50SOL    HW2  150   1.618   1.167   0.386  0.7245 -0.4142 -3.5645
   51SOL     OW  151   2.941   1.896   0.311 -0.7815 -0.6710  0.9137
   51SOL    HW1  152   2.882   1.837   0.249 -0.0828  0.6701 -1.3977
   51SOL    HW2  153   3.026   1.845   0.347 -0.5049 -1.5582 -0.3659
   52SOL     OW  154   0.824   1.923   0.467  0.5585 -0.4706 -0.3069
   52SOL    HW1  155   0.748   1.983   0.498 -0.5638  0.6489 -1.7411
   52SOL    HW2  156   0.826   1.831   0.517  0.5831  0.8630 -1.0678
   53SOL     OW  157   3.094   0.359   1.557 -0.2611  0.5651  0.1722
   53SOL    HW1  158   3.088   0.409   1.642  1.2590 -0.6741 -1.6957
   53SOL    HW2  159   3.068   0.424   1.481 -0.6334 -1.0683  2.7692
   54SOL     OW  160   1.767   0.449   3.077  0.5946  0.2133 -0.1117
   54SOL    HW1  161   1.794   0.393   3.156  1.2668  0.8248 -0.0278
   54SOL    HW2  162   1.661   0.450   3.070 -1.9486 -0.6143 -0.7282
   55SOL     OW  163   0.749   2.916   0.618 -0.1999 -0.5318  0.6386
   55SOL    HW1  164   0.706   3.005   0.656  0.4320  1.6422 -0.8147
   55SOL    HW2  165   0.827   2.918   0.549  0.5645 -3.0123  3.7690
   56SOL     OW  166   0.436   1.574   3.042 -0.7479  0.0826  0.6116
   56SOL    HW1  167   0.343   1.615   3.077  2.6629 -0.6604 -1.9275
   56SOL    HW2  168   0.429   1.499   2.974  1.5729 -1.6086  0.2217
   57SOL     OW  169   1.809   2.512   2.666  0.2797  0.1192  0.3211
   57SOL    HW1  170   1.840   2.469   2.576 -1.0230  1.4427  0.8688
   57SOL    HW2  171   1.709   2.528   2.676 -0.6005 -2.2636  0.0971
   58SOL     OW  172   0.657   0.387   1.074  0.1158 -0.7138 -0.4510
   58SOL    HW1  173   0.613   0.476   1.038 -2.1284  2.2917 -0.8391
   58SOL    HW2  174   0.585   0.312   1.053 -2.0626  0.9821 -0.4433
   59SOL     OW  175   0.409   2.355   2.760  0.1530  0.4439 -0.0520
   59SOL    HW1  176   0.414   2.250   2.746 -0.8373  1.3289 -1.3551
   59SOL    HW2  177   0.498   2.397   2.781 -0.8668  1.4028  0.2963
   60SOL     OW  178   2.332   2.079   2.237  0.0759 -0.1683 -0.4950
   60SOL    HW1  179   2.406   2.114   2.174 -0.9829 -0.9195 -1.8508
   60SOL    HW2  180   2.346   2.111   2.336 -1.6699 -0.9301  2.1326
   61SOL     OW  181   1.298   0.598   0.521 -0.1524 -0.8673  0.2731
   61SOL    HW1  182   1.220   0.650   0.571 -2.9880 -0.4191  2.5936
   61SOL    HW2  183   1.318   0.641   0.428  0.2435  0.4545 -1.3591
   62SOL     OW  184   2.660   1.783   2.954  0.0736 -0.3855 -0.5282
   62SOL    HW1  185   2.657   1.691   2.999 -0.6994 -0.6642 -0.6357
   62SOL    HW2  186   2.745   1.804   2.890  1.2969  1.5817  0.8924
   63SOL     OW  187   0.574   0.905   0.156  0.4424  0.6531  0.0650
   63SOL    HW1  188   0.508   0.982   0.132  0.4944  0.6320  3.2225
   63SOL    HW2  189   0.646   0.927   0.227 -2.4492  2.2898  0.6034
   64SOL     OW  190   0.060   0.566   2.545  0.5000  0.7396  0.2952
   64SOL    HW1  191   0.113   0.557   2.628 -3.4277 -0.1357 -1.9727
   64SOL    HW2  192   0.047   0.660   2.505 -2.3218 -0.0372 -0.8715
   65SOL     OW  193   0.192   1.483   0.563 -0.0018 -0.1155 -1.0184
   65SOL    HW1  194   0.247   1.539   0.635  0.4282  2.4983  4.1917
   65SOL    HW2  195   0.251   1.460   0.482  1.1030 -0.9590 -0.8857
   66SOL     OW  196   2.510   0.439   0.616  0.0819 -0.5201 -0.1039
   66SOL    HW1  197   2.473   0.501   0.684  1.1012  0.7344 -1.7216
   66SOL    HW2  198   2.481   0.339   0.626 -1.2727 -0.8249  0.1389
   67SOL     OW  199   0.538   2.501   1.404  0.8115  0.4327 -0.6021
   67SOL    HW1  200   0.577   2.470   1.496 -0.5631 -0.4619 -0.4119
   67SOL    HW2  201   0.500   2.422   1.350 -0.8197  3.7312 -3.0177
   68SOL     OW  202   1.011   1.103   2.459  0.3922 -0.0249 -0.0445
   68SOL    HW1  203   1.058   1.031   2.396 -0.1757 -1.4571 -1.1515
   68SOL    HW2  204   0.949   1.157   2.395  0.6979 -0.1470 -0.6687
   69SOL     OW  205   0.765   2.771   2.170  0.6447  0.0965  0.4390
   69SOL    HW1  206   0.811   2.674   2.174  1.7671 -5.6130  1.4889
   69SOL    HW2  207   0.662   2.760   2.169  1.2315  1.2331 -1.6891
   70SOL     OW  208   0.644   0.283   2.705 -0.2771 -0.0955 -0.1193
   70SOL    HW1  209   0.638   0.344   2.792 -0.1909 -0.0984  3.7701
   70SOL    HW2  210   0.607   0.184   2.714  1.3148 -3.5834  1.0053
   71SOL     OW  211   1.063   1.782   0.335 -0.5341 -0.2005  0.0610
   71SOL    HW1  212   1.011   1.691   0.365 -0.7273 -1.0389  0.8016
   71SOL    HW2  213   1.074   1.781   0.232 -0.8250  2.3414 -1.2201
   72SOL     OW  214   1.770   0.134   2.025  0.1347  0.5524  0.2265
   72SOL    HW1  215   1.814   0.143   1.935 -1.5252  1.1800 -1.0317
   72SOL    HW2  216   1.800   0.056   2.085 -2.0862  0.4102 -3.4239
   73SOL     OW  217   2.772   2.159   2.501  0.3976 -0.1633 -0.6540
   73SOL    HW1  218   2.732   2.069   2.505 -0.3823  0.9385 -1.4210
   73SOL    HW2  219   2.828   2.180   2.595  0.7746  2.9127  3.5092
   74SOL     OW  220   2.712   2.947   2.020  0.4320 -0.2218  0.5280
   74SOL    HW1  221   2.644   2.973   2.095 -0.0485  0.8908 -3.1450
   74SOL    HW2  222   2.804   2.926   2.053 -4.4399  0.5392  0.9944
   75SOL     OW  223   0.962   0.766   1.023  0.2231 -0.1955  0.2532
   75SOL    HW1  224   0.858   0.781   1.004 -0.5317  2.1951  2.5827
   75SOL    HW2  225   0.986   0.808   1.116  1.2192 -1.3381 -3.5115
   76SOL     OW  226   1.728   1.250   2.555 -0.2685  0.2728 -0.2717
   76SOL    HW1  227   1.635   1.217   2.590 -3.2093 -0.2608 -0.1230
   76SOL    HW2  228   1.750   1.340   2.602 -2.7232 -1.6862 -1.4495
   77SOL     OW  229   2.923   0.961   0.978  0.2776 -0.3815 -0.1109
   77SOL    HW1  230   2.878   0.878   0.947  1.0104  1.0412 -2.7317
   77SOL    HW2  231   2.961   0.958   1.074  0.3467  1.8337  1.2080
   78SOL     OW  232   2.063   1.403   1.529 -0.0227 -0.2969 -0.1319
   78SOL    HW1  233   2.128   1.471   1.477  3.9348 -0.7845 -0.5896
   78SOL    HW2  234   2.008   1.341   1.467 -0.9842 -1.4251  0.8101
   79SOL     OW  235   0.630   1.315   0.847  0.3480 -0.1013  0.4338
   79SOL    HW1  236   0.541   1.365   0.859 -0.0640 -1.9256  0.4870
   79SOL    HW2  237   0.646   1.282   0.755 -0.2229 -1.4200  1.3231
   80SOL     OW  238   0.682   0.469   1.608  0.1449  0.0390  0.0640
   80SOL    HW1  239   0.758   0.535   1.581 -1.0682  0.9474  2.7833
   80SOL    HW2  240   0.706   0.364   1.605  1.0341  0.5549 -0.5839
   81SOL     OW  241   1.056   1.363   2.592  0.1363  0.6096  0.2098
   81SOL    HW1  242   1.094   1.273   2.588 -0.4428 -0.7355  0.8802
   81SOL    HW2  243   0.961   1.372   2.549 -1.1660  1.8882 -0.2874
   82SOL     OW  244   0.957   2.949   1.504 -0.5383 -0.2587  0.2521
   82SOL    HW1  245   0.987   3.006   1.425 -1.0710  2.0738 -0.4744
   82SOL    HW2  246   0.865   2.907   1.482 -1.7329 -0.0991 -1.7712
   83SOL     OW  247   2.691   2.479   0.853  0.3274  0.0035  0.0342
   83SOL    HW1  248   2.618   2.416   0.802  0.0675 -0.8712 -0.8628
   83SOL    HW2  249   2.689   2.572   0.811  2.8605 -2.2560  0.6505
   84SOL     OW  250   0.716   3.088   2.328 -0.4597  0.0288 -0.1860
   84SOL    HW1  251   0.642   3.032   2.364 -0.5703  0.0107 -1.9814
   84SOL    HW2  252   0.810   3.041   2.328  2.4478  2.1686 -1.4447
   85SOL     OW  253   0.386   1.611   1.555 -0.5329 -0.1856 -0.6087
   85SOL    HW1  254   0.338   1.688   1.510 -1.1035 -0.3717  1.0260
   85SOL    HW2  255   0.385   1.607   1.657 -4.7422  0.9928 -0.2668
   86SOL     OW  256   0.353   0.965   1.502  0.3044 -0.1871  0.1235
   86SOL    HW1  257   0.321   0.926   1.410  1.0175 -0.8256  0.3020
   86SOL    HW2  258   0.357   0.891   1.580  2.0134 -0.6227  1.2269
   87SOL     OW  259   1.536   0.661   0.207  0.5931 -0.3839 -0.9265
   87SOL    HW1  260   1.629   0.716   0.229  0.8168 -0.4743  1.2176
   87SOL    HW2  261   1.545   0.608   0.118  2.1030  0.9878  0.3924
   88SOL     OW  262   1.557   1.373   0.243  0.4476  0.6153  0.2969
   88SOL    HW1  263   1.605   1.279   0.261  2.5818 -0.4194 -1.3454
   88SOL    HW2  264   1.453   1.379   0.235 -3.1784  2.5920  0.3088
   89SOL     OW  265   0.026   0.413   0.604  0.1582 -0.2064 -0.1606
   89SOL    HW1  266   0.090   0.330   0.584  0.1886 -1.2051 -1.2391
   89SOL    HW2  267  -0.072   0.399   0.567 -0.9003  1.0897  1.1049
   90SOL     OW  268   0.921   1.553   3.062 -0.3912 -0.1426  0.8460
   90SOL    HW1  269   0.838   1.556   3.123  2.0004 -0.2745 -0.3366
   90SOL    HW2  270   0.902   1.592   2.969 -0.9386 -1.2566 -0.1070
   91SOL     OW  271   1.277   1.430   1.828  0.1029 -0.4525 -0.6137
   91SOL    HW1  272   1.256   1.527   1.860  0.2691 -1.2144  0.8393
   91SOL    HW2  273   1.359   1.423   1.768 -2.7907 -2.0615  0.3850
   92SOL     OW  274   3.046   1.001   1.205  0.0036 -0.2969 -0.2113
   92SOL    HW1  275   3.117   1.073   1.176  1.5013 -0.1161  1.8712
   92SOL    HW2  276   3.044   0.987   1.304  1.5729  0.7521 -1.5510
   93SOL     OW  277   3.089   2.733   0.038 -0.2163  0.0500 -0.1850
   93SOL    HW1  278   3.033   2.728  -0.049 -0.3085 -1.7559 -1.2459
   93SOL    HW2  279   3.135   2.639   0.044 -2.0570 -2.4515 -0.6371
   94SOL     OW  280   1.550   1.468   1.689  0.0566  0.2291 -0.3296
   94SOL    HW1  281   1.584   1.371   1.682 -3.1476  1.1044  2.2858
   94SOL    HW2  282   1.601   1.518   1.766  0.2771  2.8779 -0.7937
   95SOL     OW  283   1.327   2.530   3.007  0.4638  0.2133  0.2610
   95SOL    HW1  284   1.294   2.506   3.102  0.1912 -1.3614 -0.1024
   95SOL    HW2  285   1.362   2.450   2.957  2.6122  1.0162 -0.4585
   96SOL     OW  286   0.540   2.016   1.287 -0.3709  0.1208  0.4291
   96SOL    HW1  287   0.488   2.047   1.201 -2.8440  0.1726 -0.2103
   96SOL    HW2  288   0.576   1.921   1.297  1.5559  1.2697  1.0329
   97SOL     OW  289   0.378   1.581   2.457  0.4710  0.4776 -0.4612
   97SOL    HW1  290   0.293   1.581   2.513  1.8128 -1.7983 -1.4719
   97SOL    HW2  291   0.451   1.637   2.506 -0.0509  1.3120 -0.7798
   98SOL     OW  292   1.948   1.592   1.265  0.4325  0.0288 -0.2806
   98SOL    HW1  293   1.893   1.527   1.328 -1.2713  0.0590 -0.8793
   98SOL    HW2  294   1.986   1.542   1.188  0.0721 -0.3338  1.9910
   99SOL     OW  295   2.474   2.105   1.370  0.3356  0.0446  0.0171
   99SOL    HW1  296   2.458   2.136   1.468 -0.4242  2.0840 -0.1193
   99SOL    HW2  297   2.433   2.010   1.354 -0.3964  1.2724 -1.6893
  100SOL     OW  298   2.301   0.390   2.084 -0.4506 -0.2007  0.2107
  100SOL    HW1  299   2.242   0.343   2.163 -1.0773 -0.8887  3.3796
  100SOL    HW2  300   2.400   0.409   2.113  2.0859  0.9201  0.8165
  101SOL     OW  301   0.382   1.486   0.247 -0.4093  0.1387 -0.1672
  101SOL    HW1  302   0.439   1.507   0.334  1.4754 -0.6854  0.9741
  101SOL    HW2  303   0.402   1.544   0.164  0.7231  1.2105 -0.7560
  102SOL     OW  304   2.325   1.025   0.832  0.2484 -0.2523  0.1454
  102SOL    HW1  305   2.220   1.006   0.826 -1.8542  1.1283  0.3219
  102SOL    HW2  306   2.355   1.107   0.781 -1.6805 -1.4786  1.3195
  103SOL     OW  307   2.282   0.006   0.408 -0.0048 -0.3804  0.0285
  103SOL    HW1  308   2.313   0.095   0.372 -2.4218 -0.8597 -0.4986
  103SOL    HW2  309   2.357  -0.053   0.452 -1.1396 -2.0248  0.1869
  104SOL     OW  310   0.084   1.748   2.205 -0.2129 -0.1124  0.5730
  104SOL    HW1  311   0.148   1.709   2.128  1.8473 -3.3714 -2.9238
  104SOL    HW2  312  -0.012   1.757   2.165  0.2194 -0.0626 -2.5219
  105SOL     OW  313   1.249   2.056   0.813  0.9006  0.9694 -0.4100
  105SOL    HW1  314   1.173   2.078   0.746 -0.3660  2.3587  2.0317
  105SOL    HW2  315   1.298   1.969   0.788 -2.6791  0.0578 -1.4452
  106SOL     OW  316   2.143   0.551   1.367  0.0040 -0.1273  0.1110
  106SOL    HW1  317   2.097   0.468   1.405  1.1652  0.2708  3.1532
  106SOL    HW2  318   2.084   0.636   1.369  0.9668  0.7760  1.8707
  107SOL     OW  319   1.759   3.009   1.092 -0.5327  0.1434 -0.0069
  107SOL    HW1  320   1.815   3.084   1.142 -1.0707  1.6923 -1.3863
  107SOL    HW2  321   1.718   2.942   1.161  2.3759 -2.0189  1.6066
  108SOL     OW  322   0.820   2.758   1.231 -0.2025  0.2497 -0.3308
  108SOL    HW1  323   0.786   2.762   1.332 -0.4648  0.6173  1.7380
  108SOL    HW2  324   0.923   2.766   1.220  0.6352 -0.1824  0.3178
  109SOL     OW  325   2.223   0.151   0.794  0.3305  0.0272 -0.4832
  109SOL    HW1  326   2.126   0.127   0.758 -2.6709  1.2128  0.3548
  109SOL    HW2  327   2.219   0.148   0.898  1.9067  2.1618  0.7676
  110SOL     OW  328   0.436   2.806   2.719  0.2470  0.6279  0.3004
  110SOL    HW1  329   0.438   2.839   2.621  1.9966 -1.0629  0.8393
  110SOL    HW2  330   0.530   2.766   2.752 -0.9615  0.9596  1.6146
  111SOL     OW  331   1.317   0.534   2.281 -0.1298 -0.1972  0.1678
  111SOL    HW1  332   1.236   0.584   2.330 -1.7732 -0.4608 -0.2765
  111SOL    HW2  333   1.361   0.474   2.352 -1.4409  0.0707  0.1813
  112SOL     OW  334   1.751   0.513   1.476  0.0968 -0.4164  0.0966
  112SOL    HW1  335   1.733   0.504   1.375 -0.1428 -0.8388 -1.2466
  112SOL    HW2  336   1.707   0.440   1.535  0.4183 -0.0979 -1.2407
  113SOL     OW  337   2.266   1.624   1.757  0.0288  0.0512 -0.0598
  113SOL    HW1  338   2.318   1.541   1.724  0.7150  3.4269 -1.5826
  113SOL    HW2  339   2.305   1.658   1.849 -1.7606 -1.0757  1.6465
  114SOL     OW  340   0.354   0.532   1.269  0.3165 -0.0365 -0.4948
  114SOL    HW1  341   0.335   0.630   1.245  2.6210 -2.0571 -0.1808
  114SOL    HW2  342   0.306   0.460   1.209  0.9558  2.5282  0.5469
  115SOL     OW  343   2.712   1.635   1.267  1.2327  0.3312 -0.3240
  115SOL    HW1  344   2.700   1.530   1.278 -1.3835 -1.6356 -0.5863
  115SOL    HW2  345   2.734   1.665   1.171  1.6903 -0.1222  0.8138
  116SOL     OW  346   1.797   1.012   0.711  0.3780 -0.2584 -0.0805
  116SOL    HW1  347   1.725   0.973   0.651  2.3721 -1.6633 -1.2238
  116SOL    HW2  348   1.761   1.082   0.779  1.0387 -0.1937  2.1526
  117SOL     OW  349   1.149   0.393   0.685  0.1067  0.6450 -0.2535
  117SOL    HW1  350   1.188   0.393   0.784  3.6435  1.9314  0.6085
  117SOL    HW2  351   1.196   0.463   0.628 -1.3198  0.3242  0.3483
  118SOL     OW  352   1.102   1.149   1.076 -0.1109  0.1551 -0.1154
  118SOL    HW1  353   1.059   1.065   1.122 -3.6378 -3.4640  1.2496
  118SOL    HW2  354   1.144   1.221   1.141  1.3207 -1.3240 -2.9135
  119SOL     OW  355   1.852   1.606   2.118  0.4562  0.3581 -0.0940
  119SOL    HW1  356   1.813   1.701   2.132 -2.0170  0.5080 -0.5662
  119SOL    HW2  357   1.955   1.589   2.137 -3.8284  0.4367 -0.7417
  120SOL     OW  358   2.960   2.840   0.252 -0.0750  0.2946 -0.8760
  120SOL    HW1  359   3.017   2.811   0.174 -0.6206 -0.0887  1.3362
  120SOL    HW2  360   2.921   2.758   0.310  0.4744 -1.0611 -0.7387
  121SOL     OW  361   2.003   0.757   2.296  0.5112  0.3320 -0.2272
  121SOL    HW1  362   1.978   0.808   2.210  0.7847  0.8531  2.1387
  121SOL    HW2  363   2.022   0.656   2.277  1.1376 -1.9629 -0.7069
  122SOL     OW  364   2.657   2.659   1.256 -1.6763  0.0519 -0.6971
  122SOL    HW1  365   2.698   2.569   1.214 -1.3334 -0.9614 -3.7698
  122SOL    HW2  366   2.579   2.695   1.199  2.8652  1.3365  1.3961
  123SOL     OW  367   1.732   0.064   1.684  0.3203 -0.2937 -0.3359
  123SOL    HW1  368   1.749  -0.033   1.650 -1.2407  2.5301  1.2930
  123SOL    HW2  369   1.818   0.110   1.724  0.8226  0.3848 -1.1225
  124SOL     OW  370   0.120   0.421   1.102  0.0840 -0.6221  0.3700
  124SOL    HW1  371   0.108   0.507   1.150 -2.8130 -1.3396 -3.3433
  124SOL    HW2  372   0.090   0.439   1.004  0.5366  0.0482  2.6901
  125SOL     OW  373   0.853   1.714   0.676 -0.5313  1.0078  0.3956
  125SOL    HW1  374   0.947   1.695   0.643 -0.4457  0.3821 -0.2771
  125SOL    HW2  375   0.846   1.693   0.776  0.0978  1.5749 -0.9751
  126SOL     OW  376   1.917   2.363   2.430  0.2999 -0.0323  0.3958
  126SOL    HW1  377   1.975   2.314   2.360  1.1871  2.0037  1.8547
  126SOL    HW2  378   1.834   2.304   2.455 -0.4511  0.6922 -2.9637
  127SOL     OW  379   0.818   0.909   0.303  0.7881 -0.3397  0.6572
  127SOL    HW1  380   0.896   0.960   0.349 -0.6200  0.3651  0.3628
  127SOL    HW2  381   0.838   0.806   0.288 -2.8121 -0.0802 -1.7156
  128SOL     OW  382   0.945   0.192   1.358  0.5541 -0.3083  0.4319
  128SOL    HW1  383   0.937   0.291   1.330 -1.5520  0.9392  0.8875
  128SOL    HW2  384   0.853   0.136   1.354 -2.6713 -2.1145  0.0868
  129SOL     OW  385   1.841   0.687   1.870 -0.6196  0.2333  0.1245
  129SOL    HW1  386   1.892   0.684   1.773 -0.7018 -0.7140  2.3387
  129SOL    HW2  387   1.866   0.757   1.939  0.3858  0.4269  0.1366
  130SOL     OW  388   1.338   2.227   1.024  0.2718  0.0245  0.7044
  130SOL    HW1  389   1.297   2.181   0.939 -1.4256 -0.4633 -1.4196
  130SOL    HW2  390   1.401   2.306   0.996  0.1629  0.8295 -0.9129
  131SOL     OW  391   0.003   1.483   1.405 -0.3034 -0.8138 -0.2726
  131SOL    HW1  392  -0.055   1.398   1.400 -1.9228  1.0636  1.1005
  131SOL    HW2  393   0.101   1.456   1.389  0.3986 -1.8550 -0.3584
  132SOL     OW  394   2.009   2.418   0.507  0.2092  0.5949 -0.0364
  132SOL    HW1  395   1.920   2.380   0.471  0.3671  1.3909  2.3840
  132SOL    HW2  396   2.035   2.357   0.589 -0.3527 -1.6096  0.9282
  133SOL     OW  397   1.882   2.275   2.843 -0.3872 -0.0268 -1.4750
  133SOL    HW1  398   1.839   2.284   2.938 -0.5073 -1.7905  0.3107
  133SOL    HW2  399   1.865   2.360   2.791 -1.1121 -0.2660 -0.3361
  134SOL     OW  400   2.710   2.348   1.625 -0.1789 -0.1655 -0.4994
  134SOL    HW1  401   2.646   2.355   1.708 -1.2830  2.2251  0.3586
  134SOL    HW2  402   2.768   2.435   1.616  1.4258 -0.6511  0.7315
  135SOL     OW  403   0.715   1.517   2.639 -0.1924 -1.1186  0.2221
  135SOL    HW1  404   0.678   1.430   2.688 -0.6298  3.7263 -0.1829
  135SOL    HW2  405   0.763   1.499   2.554  0.8931  3.0148  2.7236
  136SOL     OW  406   1.205   2.010   0.434 -0.5580 -0.6794  0.8373
  136SOL    HW1  407   1.143   2.050   0.505 -2.1677 -1.0793 -2.3041
  136SOL    HW2  408   1.164   1.927   0.391 -1.6915 -1.3825  1.1812
  137SOL     OW  409   0.374   1.137   2.114 -0.4621  0.2318  0.1869
  137SOL    HW1  410   0.292   1.107   2.173 -2.0651 -0.2132  2.5718
  137SOL    HW2  411   0.458   1.085   2.140 -0.7115  0.9418  1.3618
  138SOL     OW  412   2.430   1.488   0.236 -0.5626 -0.2091  0.6652
  138SOL    HW1  413   2.349   1.438   0.200  2.2035 -3.8259  0.2977
  138SOL    HW2  414   2.478   1.429   0.306  1.5451  0.5097 -0.4215
  139SOL     OW  415   1.808   2.668   1.264  0.7182  0.1781  0.7070
  139SOL    HW1  416   1.715   2.657   1.219 -1.6914 -1.0353 -2.8557
  139SOL    HW2  417   1.829   2.585   1.322 -1.9066 -1.4181  0.5579
  140SOL     OW  418   3.021   2.967   2.622 -0.5662 -0.2055 -0.1596
  140SOL    HW1  419   3.049   2.871   2.591  2.2981 -2.4768  2.1175
  140SOL    HW2  420   3.103   3.018   2.660 -0.5036 -2.0917  2.6715
  141SOL     OW  421   1.253   1.712   1.608  0.5179  0.1492  0.0030
  141SOL    HW1  422   1.164   1.750   1.635  1.5354 -1.1964 -1.0548
  141SOL    HW2  423   1.283   1.633   1.664  1.9389  0.2292 -0.9169
  142SOL     OW  424   1.585   0.607   2.181 -0.2818  0.2593 -0.0934
  142SOL    HW1  425   1.575   0.611   2.078 -0.8174 -1.5700  2.1475
  142SOL    HW2  426   1.491   0.584   2.227 -1.2481  0.4202 -0.5210
  143SOL     OW  427   2.741   0.880   0.499 -0.3339 -0.3467 -0.1002
  143SOL    HW1  428   2.750   0.928   0.408  2.2709  0.3497  0.1235
  143SOL    HW2  429   2.807   0.919   0.565  0.4855  1.4600 -1.1731
  144SOL     OW  430   2.946   1.261   1.434 -0.4819 -0.3546  0.2533
  144SOL    HW1  431   2.901   1.209   1.513 -1.6320  0.7855  0.3936
  144SOL    HW2  432   3.018   1.204   1.385 -0.7893 -0.4170  1.9203
  145SOL     OW  433   1.016   1.842   0.048 -0.0791  0.5613  0.6482
  145SOL    HW1  434   1.036   1.913  -0.027 -1.1043 -0.5182 -0.0280
  145SOL    HW2  435   1.024   1.746   0.010  1.1996 -0.8859  1.1749
  146SOL     OW  436   2.450   0.665   1.528  0.5309 -0.6238 -0.0791
  146SOL    HW1  437   2.412   0.595   1.465 -1.5571  4.0868 -0.0709
  146SOL    HW2  438   2.388   0.746   1.529 -0.2024  1.8129 -2.2750
  147SOL     OW  439   1.111   2.450   0.580  0.4470 -0.2116  0.1333
  147SOL    HW1  440   1.081   2.522   0.506  0.2424  1.1990 -0.3183
  147SOL    HW2  441   1.197   2.397   0.548 -2.0676  1.4373 -1.9421
  148SOL     OW  442   1.640   1.454   3.082  0.0200  0.2726 -0.0881
  148SOL    HW1  443   1.648   1.377   3.012  0.1112  0.0703 -2.3182
  148SOL    HW2  444   1.584   1.422   3.166  0.0717 -5.0904 -0.6183
  149SOL     OW  445   0.716   1.421   1.910  0.0188  0.4015  0.5444
  149SOL    HW1  446   0.640   1.395   1.970  2.6166  0.3390  0.8549
  149SOL    HW2  447   0.748   1.343   1.850 -0.4607  0.7239 -0.1440
  150SOL     OW  448   3.026   1.243   0.935  0.3488  0.2140  0.4992
  150SOL    HW1  449   3.099   1.280   1.003  0.6526 -0.0498  2.0143
  150SOL    HW2  450   2.978   1.159   0.969 -0.0809  0.7457  1.6936
  151SOL     OW  451   0.180   0.773   2.122  0.4593  0.2602  0.0320
  151SOL    HW1  452   0.158   0.838   2.041  1.0907 -2.1136 -1.4795
  151SOL    HW2  453   0.229   0.684   2.090 -1.2004 -0.1127 -1.4328
  152SOL     OW  454   1.359   1.746   1.281 -0.1405  1.0015  0.1133
  152SOL    HW1  455   1.365   1.840   1.327 -0.2485 -0.6622 -0.9332
  152SOL    HW2  456   1.264   1.722   1.250  0.3836  0.3354  3.3530
  153SOL     OW  457   0.049   1.548   0.181  0.0116  0.6050 -0.4030
  153SOL    HW1  458   0.063   1.443   0.172  0.8775 -0.5792 -0.5956
  153SOL    HW2  459   0.049   1.574   0.282  2.5806  2.1565  0.9869
  154SOL     OW  460   2.361   1.865   2.832 -0.4360 -0.6299 -0.3845
  154SOL    HW1  461   2.391   1.769   2.823  0.4491  1.2805 -0.9526
  154SOL    HW2  462   2.435   1.934   2.849 -2.3353  0.0173  1.3970
  155SOL     OW  463   2.456   1.232   0.363 -0.7172  0.0054  0.5841
  155SOL    HW1  464   2.555   1.230   0.323 -1.1148 -1.7769  0.0979
  155SOL    HW2  465   2.382   1.180   0.306 -2.4979 -0.7260 -0.6884
  156SOL     OW  466   2.577   0.949   0.900 -0.0837  0.1223  0.0446
  156SOL    HW1  467   2.477   0.958   0.869 -1.1974 -0.2976 -4.2383
  156SOL    HW2  468   2.639   1.022   0.865 -2.1468  0.7500  1.8038
  157SOL     OW  469   1.219   2.982   3.009  0.8868  0.4623  0.3382
  157SOL    HW1  470   1.255   2.946   2.917 -1.3660  0.0826  0.1389
  157SOL    HW2  471   1.257   3.075   3.035 -1.1328 -0.8640  3.0636
  158SOL     OW  472   0.997   1.869   1.992  0.0780 -0.7156  0.3772
  158SOL    HW1  473   1.077   1.928   2.021 -0.9865  0.5573 -0.0087
  158SOL    HW2  474   0.912   1.892   2.043  1.0962  1.8189  0.9540
  159SOL     OW  475   0.846   0.452   1.284  0.3757  0.3042 -0.8029
  159SOL    HW1  476   0.798   0.530   1.332 -1.9156 -3.1579  0.6410
  159SOL    HW2  477   0.780   0.399   1.229  0.6592 -1.8575 -0.4996
  160SOL     OW  478   1.435   2.425   1.683  0.4380 -0.4547  0.2003
  160SOL    HW1  479   1.483   2.499   1.628 -2.4544  0.2090  1.0736
  160SOL    HW2  480   1.473   2.332   1.657 -3.0813 -1.1819 -0.9014
  161SOL     OW  481   0.140   2.894   0.317 -0.2443  0.1544  0.0550
  161SOL    HW1  482   0.031   2.889   0.335 -3.8269  0.0857 -0.7488
  161SOL    HW2  483   0.157   2.972   0.248 -2.1979 -1.4403  0.8283
  162SOL     OW  484   2.583   1.919   0.448 -0.1394  0.3920 -0.6346
  162SOL    HW1  485   2.584   1.863   0.364 -2.5187 -1.5602  0.6508
  162SOL    HW2  486   2.566   1.846   0.523 -2.3452 -0.8995  0.3329
  163SOL     OW  487   1.973   2.687   0.762 -0.8675  1.0646  0.4793
  163SOL    HW1  488   1.947   2.683   0.662 -0.0060 -0.4688  0.9516
  163SOL    HW2  489   2.066   2.640   0.779 -1.8157  2.9496  0.2911
  164SOL     OW  490   3.043   0.238   1.222  0.1611 -0.6629 -1.1427
  164SOL    HW1  491   3.124   0.293   1.190 -1.3128 -2.6697 -0.8164
  164SOL    HW2  492   3.068   0.144   1.258  0.7219  2.1135 -0.1212
  165SOL     OW  493   0.934   1.436   0.663 -0.1775 -0.4156  0.1657
  165SOL    HW1  494   0.889   1.483   0.744 -1.8277  2.2008 -0.6473
  165SOL    HW2  495   0.925   1.499   0.577  0.0515  0.1740 -3.0425
  166SOL     OW  496   1.473   1.093   1.717 -0.3658 -0.0485  0.4962
  166SOL    HW1  497   1.407   1.029   1.762  3.4487  1.2913 -2.1455
  166SOL    HW2  498   1.544   1.124   1.784 -1.1394 -1.8763 -0.4976
  167SOL     OW  499   0.780   1.902   1.498 -0.3266 -0.5043 -0.4792
  167SOL    HW1  500   0.755   1.975   1.565  1.3611  1.5118 -0.2704
  167SOL    HW2  501   0.726   1.812   1.512 -1.6159  0.5792  1.6817
  168SOL     OW  502   1.631   2.387   0.137  0.6890  0.4879  0.2427
  168SOL    HW1  503   1.683   2.434   0.060 -1.5841  0.4217 -3.9883
  168SOL    HW2  504   1.674   2.301   0.178  1.6929 -1.9434 -3.5629
  169SOL     OW  505   0.231   2.603   2.225 -0.4046 -0.4847  0.6733
  169SOL    HW1  506   0.289   2.569   2.147 -3.7125 -0.1307 -1.2106
  169SOL    HW2  507   0.240   2.547   2.309  4.6525  0.8328 -2.1091
  170SOL     OW  508   1.243   0.296   1.944 -0.1672  0.0942  0.2580
  170SOL    HW1  509   1.287   0.243   2.023  0.1725 -0.7128  1.1773
  170SOL    HW2  510   1.234   0.236   1.861  1.0981  0.3647  1.8449
  171SOL     OW  511   0.214   0.826   2.384  0.3657  0.0701 -0.4727
  171SOL    HW1  512   0.127   0.854   2.434  1.0700  2.2292 -1.4542
  171SOL    HW2  513   0.194   0.807   2.280 -2.5704  3.0197 -2.1411
  172SOL     OW  514   0.902   1.111   2.953  0.6434  0.2346 -0.6436
  172SOL    HW1  515   0.982   1.165   2.989 -0.2605 -1.9911 -0.1300
  172SOL    HW2  516   0.886   1.129   2.855  2.2695  1.4555  1.0648
  173SOL     OW  517   0.674   2.671   0.080  0.1358  0.6087 -0.9753
  173SOL    HW1  518   0.657   2.770   0.077  2.5686 -2.5210  1.1899
  173SOL    HW2  519   0.589   2.618   0.099 -0.4907  0.5311  0.7326
  174SOL     OW  520   1.395   2.837   1.066  0.1221  0.9594 -0.2125
  174SOL    HW1  521   1.363   2.919   1.019  1.2309 -0.4373 -0.3403
  174SOL    HW2  522   1.361   2.746   1.025 -1.4780 -0.4288  0.0855
  175SOL     OW  523   0.413   0.061   1.635 -0.5786  0.1255  0.3314
  175SOL    HW1  524   0.463   0.119   1.704 -0.6963  2.5211 -2.9890
  175SOL    HW2  525   0.334   0.112   1.590  1.3721 -1.3728  0.0492
  176SOL     OW  526   2.542   0.391   3.091  0.1315 -0.4032  0.0383
  176SOL    HW1  527   2.578   0.457   3.164  2.9597  1.5140 -1.1805
  176SOL    HW2  528   2.464   0.336   3.140  2.4214 -0.3107 -2.2195
  177SOL     OW  529   0.352   0.289   0.935 -0.3102 -0.0261  0.4357
  177SOL    HW1  530   0.400   0.219   0.991  0.0455  0.3977  0.8326
  177SOL    HW2  531   0.262   0.319   0.962  1.6117  0.5733 -2.1327
  178SOL     OW  532   0.029   2.702   2.620  0.0038 -0.4701 -0.0864
  178SOL    HW1  533  -0.044   2.634   2.652 -0.8808 -0.1318  2.3755
  178SOL    HW2  534   0.079   2.740   2.703 -2.8309 -1.1839 -0.2004
  179SOL     OW  535   0.021   1.699   1.181  0.3877 -0.2643  0.2775
  179SOL    HW1  536  -0.030   1.783   1.183  0.0614  2.3577 -3.9421
  179SOL    HW2  537  -0.021   1.626   1.241 -1.6883  0.0319 -0.6647
  180SOL     OW  538   0.217   1.214   1.854 -0.6106 -0.1063  0.0777
  180SOL    HW1  539   0.322   1.202   1.851 -1.5855 -0.4941  0.0789
  180SOL    HW2  540   0.187   1.283   1.918 -0.0589  0.0330 -1.2847
  181SOL     OW  541   3.030   1.855   2.544 -0.8566 -0.2029 -0.6000
  181SOL    HW1  542   3.097   1.903   2.478  0.0485  2.2242 -2.6383
  181SOL    HW2  543   2.933   1.870   2.499  1.5334 -3.3615  2.5220
  182SOL     OW  544   2.287   1.287   1.160 -0.3472  0.1002 -0.0880
  182SOL    HW1  545   2.198   1.247   1.121 -2.5322 -0.4555 -1.5801
  182SOL    HW2  546   2.313   1.383   1.131 -1.7153  1.4264  2.5392
  183SOL     OW  547   1.512   2.270   2.508  0.0485 -0.7566  0.0035
  183SOL    HW1  548   1.428   2.208   2.527 -2.8611 -0.1775  0.7081
  183SOL    HW2  549   1.605   2.213   2.510 -0.9847  0.7036  1.3648
  184SOL     OW  550   2.047   0.938   0.826  0.3007 -0.2958 -0.5883
  184SOL    HW1  551   1.962   0.995   0.798 -1.5759 -0.2365 -0.5551
  184SOL    HW2  552   2.020   0.843   0.856 -0.5817  1.0955 -0.0231
  185SOL     OW  553   1.576   2.703   2.076 -0.3766  0.7149  0.4230
  185SOL    HW1  554   1.532   2.790   2.040 -0.2459 -0.0713 -2.7209
  185SOL    HW2  555   1.527   2.664   2.160  1.5348  0.0626 -1.4623
  186SOL     OW  556   0.082   2.193   1.712  0.1887 -0.7818 -0.6243
  186SOL    HW1  557   0.095   2.289   1.672  0.2120  0.1876  2.6998
  186SOL    HW2  558   0.175   2.153   1.728  1.9994 -1.2782 -0.8201
  187SOL     OW  559   1.381   0.702   1.679  0.3135  0.2016 -0.3040
  187SOL    HW1  560   1.430   0.751   1.601 -0.9915 -3.2508 -1.7930
  187SOL    HW2  561   1.434   0.715   1.768 -1.1042  0.2373  1.1700
  188SOL     OW  562   2.796   2.789   1.465  0.0288  0.9869  0.1136
  188SOL    HW1  563   2.801   2.893   1.468 -0.0177  0.5632 -1.4846
  188SOL    HW2  564   2.746   2.746   1.383 -0.4655 -0.0350 -0.0523
  189SOL     OW  565   0.857   1.052   1.380  0.3717  0.3152 -0.1772
  189SOL    HW1  566   0.919   1.125   1.423  1.2473  2.3572 -1.3804
  189SOL    HW2  567   0.800   1.100   1.308  1.8681  2.0094  1.7041
  190SOL     OW  568   1.538   1.877   1.564  0.2644 -0.2055  0.2695
  190SOL    HW1  569   1.435   1.867   1.556  0.6092  2.0430 -0.5246
  190SOL    HW2  570   1.568   1.914   1.655 -0.8887  0.8136  2.1440
  191SOL     OW  571   0.972   0.749   1.558  0.1862  0.2765 -0.3161
  191SOL    HW1  572   1.015   0.658   1.583  0.6158  0.1426  0.1177
  191SOL    HW2  573   1.045   0.824   1.552 -1.4460  2.8100 -0.7015
  192SOL     OW  574   1.847   2.268   1.123 -0.0047 -1.1156  0.1820
  192SOL    HW1  575   1.777   2.231   1.051 -2.1015 -0.9971  0.0683
  192SOL    HW2  576   1.928   2.322   1.087 -0.9830  1.0960 -0.3910
  193SOL     OW  577   0.511   0.615   0.399  0.2017  0.0911 -0.0436
  193SOL    HW1  578   0.468   0.542   0.462 -0.9596  0.0622  0.9023
  193SOL    HW2  579   0.543   0.580   0.307 -1.7017  0.2714  0.4056
  194SOL     OW  580   0.285   0.842   1.254 -0.4550 -0.6796  0.1113
  194SOL    HW1  581   0.201   0.791   1.224 -0.5608  0.3524  0.0570
  194SOL    HW2  582   0.314   0.918   1.183  0.2075 -0.0287 -0.3079
  195SOL     OW  583   0.992   2.922   0.442  0.0910 -0.3141  0.4078
  195SOL    HW1  584   0.999   2.827   0.411 -0.4834 -0.1476 -0.2493
  195SOL    HW2  585   1.087   2.958   0.443  2.8111  0.9050  0.6312
  196SOL     OW  586   0.276   1.407   1.406 -0.3084  0.1350 -0.1811
  196SOL    HW1  587   0.301   1.492   1.464 -0.8325  1.5824  0.6176
  196SOL    HW2  588   0.275   1.318   1.467  0.4544 -1.0833 -0.3337
  197SOL     OW  589   0.906   2.048   0.228 -0.9723 -0.0891 -0.2011
  197SOL    HW1  590   0.897   2.017   0.327  1.5693  0.0405  1.6300
  197SOL    HW2  591   0.955   1.979   0.165 -0.5897  0.1864 -1.2404
  198SOL     OW  592   0.271   1.246   0.282  0.1540 -0.6263 -0.1141
  198SOL    HW1  593   0.181   1.232   0.230  1.3646 -1.7326  0.8701
  198SOL    HW2  594   0.305   1.345   0.266 -0.3720  4.1425 -0.4388
  199SOL     OW  595   2.219   0.387   2.524 -0.0982 -0.4249  0.4000
  199SOL    HW1  596   2.146   0.343   2.591 -0.2542  1.1910  1.7304
  199SOL    HW2  597   2.310   0.394   2.563 -0.5664 -2.1552 -0.3038
  200SOL     OW  598   0.005   2.964   0.668  0.5243 -0.3606 -0.1161
  200SOL    HW1  599  -0.076   2.956   0.602  0.6916  3.1467 -0.9049
  200SOL    HW2  600   0.022   3.066   0.687  0.2841  0.5030 -0.4287
  201SOL     OW  601   1.102   0.724   0.644 -0.3614  0.0366  0.3582
  201SOL    HW1  602   1.113   0.773   0.732 -0.6795  0.2348 -1.6179
  201SOL    HW2  603   1.005   0.713   0.611  1.8940 -1.0712 -2.7635
  202SOL     OW  604   0.502   1.243   1.798  0.3019 -0.1548  0.9107
  202SOL    HW1  605   0.570   1.239   1.719 -3.4277 -0.5900  0.6757
  202SOL    HW2  606   0.523   1.177   1.872 -2.4616 -0.9563  2.4701
  203SOL     OW  607   0.737   0.209   1.589 -0.1591 -0.7081 -0.5479
  203SOL    HW1  608   0.731   0.137   1.517  0.0479  2.6277 -1.9790
  203SOL    HW2  609   0.774   0.170   1.681  0.5360  0.0603  0.7242
  204SOL     OW  610   2.104   1.847   3.003 -0.0275  0.5872  0.6071
  204SOL    HW1  611   2.111   1.745   2.979  1.4956  0.5444 -5.2229
  204SOL    HW2  612   2.082   1.902   2.913 -1.0900  0.8697 -3.5459
  205SOL     OW  613   1.839   1.875   0.033 -0.2015  0.1072  0.0672
  205SOL    HW1  614   1.937   1.855   0.004 -1.1168  3.7445  2.6376
  205SOL    HW2  615   1.808   1.970   0.003 -1.0977  1.8867  0.9039
  206SOL     OW  616   2.521   2.773   0.334 -0.3451  0.0492 -0.6019
  206SOL    HW1  617   2.590   2.699   0.368 -1.3874  0.5689  0.7270
  206SOL    HW2  618   2.559   2.845   0.270 -0.9377 -3.7468  0.6322
  207SOL     OW  619   0.569   1.786   2.911 -0.5236 -0.0106 -0.1347
  207SOL    HW1  620   0.670   1.763   2.915 -1.6030  0.5293  1.5965
  207SOL    HW2  621   0.516   1.712   2.962  1.2559  0.6511 -1.1330
  208SOL     OW  622   1.098   1.542   1.417  0.3270 -0.0288 -0.4148
  208SOL    HW1  623   1.027   1.580   1.349  3.9830 -0.6312 -2.1003
  208SOL    HW2  624   1.159   1.619   1.463  1.6129  0.1146  0.3661
  209SOL     OW  625   0.280   0.948   2.997 -0.3217  0.0459 -0.0538
  209SOL    HW1  626   0.313   0.897   2.913 -0.4743 -0.2497 -0.2546
  209SOL    HW2  627   0.285   0.888   3.082  1.0352 -0.4739  0.3979
  210SOL     OW  628   1.727   0.481   1.188  0.2522 -0.1512  0.4260
  210SOL    HW1  629   1.683   0.553   1.129  2.3325  0.0575  1.4437
  210SOL    HW2  630   1.831   0.474   1.166  2.2070 -0.2021 -0.4773
  211SOL     OW  631   2.098   1.073   1.614 -0.4754 -0.5302  0.0520
  211SOL    HW1  632   2.153   0.995   1.651 -0.1352  3.5740  0.3586
  211SOL    HW2  633   2.151   1.135   1.551  0.4718 -0.4043 -1.3713
  212SOL     OW  634   0.023   0.998   1.464  0.8243 -0.0533 -0.2797
  212SOL    HW1  635   0.103   1.053   1.495 -2.0126 -0.8991  3.3049
  212SOL    HW2  636   0.021   0.898   1.495 -2.9374  0.3655 -2.2279
  213SOL     OW  637   2.757   0.377   0.257  0.4204  0.2120 -0.1989
  213SOL    HW1  638   2.839   0.325   0.232 -3.5553  0.7782 -1.0058
  213SOL    HW2  639   2.728   0.434   0.182  0.5798  0.0750 -1.4443
  214SOL     OW  640   2.173   0.264   2.279 -0.6266 -0.5983 -0.4545
  214SOL    HW1  641   2.189   0.306   2.373  1.5904 -2.3561 -0.5871
  214SOL    HW2  642   2.123   0.172   2.276 -1.2162 -0.8617 -1.4915
  215SOL     OW  643   1.646   2.281   2.021 -0.7581 -0.3209  0.1493
  215SOL    HW1  644   1.749   2.307   2.022  0.3531 -0.9353 -0.1790
  215SOL    HW2  645   1.588   2.338   2.086  3.2166 -2.9356 -0.2999
  216SOL     OW  646   2.216   0.541   0.698  0.2319  0.1186  0.1617
  216SOL    HW1  647   2.213   0.450   0.639  0.4483  0.6747 -3.8876
  216SOL    HW2  648   2.159   0.613   0.658 -0.2813 -2.3198  3.1984
  217SOL     OW  649   0.734   2.779   2.484 -0.1361 -0.2384  0.4560
  217SOL    HW1  650   0.691   2.696   2.520 -1.1478  2.8315  3.0523
  217SOL    HW2  651   0.752   2.785   2.384  2.0191 -0.5783  0.5888
  218SOL     OW  652   1.913   1.411   0.062 -0.1128  0.5562 -0.1335
  218SOL    HW1  653   1.817   1.434   0.026 -0.6349  2.0942 -3.6359
  218SOL    HW2  654   1.912   1.348   0.149  0.2959 -2.3260  1.3928
  219SOL     OW  655   2.345   1.292   2.554  0.1126  0.4845  0.5423
  219SOL    HW1  656   2.388   1.266   2.466 -1.7029  2.9530  3.4570
  219SOL    HW2  657   2.369   1.228   2.635 -0.4539 -1.5500  0.9213
  220SOL     OW  658   1.534   0.992   1.221  0.1707 -0.6434  0.1719
  220SOL    HW1  659   1.612   1.046   1.268 -0.5873  0.7172  2.8607
  220SOL    HW2  660   1.505   1.053   1.141  0.5898  1.5956 -0.2562
  221SOL     OW  661   1.376   1.091   2.200  0.0530 -0.7989 -0.0156
  221SOL    HW1  662   1.305   1.133   2.138 -1.1076  1.5643 -0.3687
  221SOL    HW2  663   1.463   1.067   2.146  0.2322 -1.9471 -0.0051
  222SOL     OW  664   1.246   0.026   1.227 -0.0166 -0.5120 -0.6693
  222SOL    HW1  665   1.283   0.087   1.303 -0.3558 -1.3309 -0.2721
  222SOL    HW2  666   1.212   0.078   1.143 -2.6492  2.8663  0.2278
  223SOL     OW  667   2.857   0.864   2.038 -0.7510  0.2051  0.2044
  223SOL    HW1  668   2.856   0.891   2.138 -0.0841 -1.8764  0.2817
  223SOL    HW2  669   2.885   0.941   1.978 -0.3998 -1.0129  1.6951
  224SOL     OW  670   1.492   0.950   2.746  0.1158  0.1582 -0.4919
  224SOL    HW1  671   1.538   0.905   2.658  0.4277 -1.4060 -1.0675
  224SOL    HW2  672   1.492   1.055   2.736 -1.0667 -0.8116  1.5703
  225SOL     OW  673   2.964   2.770   2.887 -0.3125  0.4083  0.3167
  225SOL    HW1  674   2.958   2.692   2.817 -2.0310  1.7771  1.2515
  225SOL    HW2  675   3.017   2.855   2.849  0.2283 -0.3614  0.4072
  226SOL     OW  676   2.422   1.590   2.840 -0.3776 -0.1564 -0.0793
  226SOL    HW1  677   2.447   1.559   2.744 -0.3578  0.3593 -0.6038
  226SOL    HW2  678   2.368   1.523   2.893  0.6285  2.5255 -0.6580
  227SOL     OW  679   0.892   0.127   3.032 -0.2096  0.5059  0.0236
  227SOL    HW1  680   0.939   0.071   3.111 -1.9349  1.1484  3.2149
  227SOL    HW2  681   0.912   0.094   2.931  0.3653 -0.9044 -0.4032
  228SOL     OW  682   2.369   0.630   2.846  0.2629 -0.1024  0.2310
  228SOL    HW1  683   2.315   0.637   2.754  0.3550  1.7768 -1.5900
  228SOL    HW2  684   2.460   0.578   2.832 -1.2549  1.0473  0.8071
  229SOL     OW  685   0.570   0.528   1.885  0.5846 -0.1032  0.7121
  229SOL    HW1  686   0.492   0.486   1.827 -0.1503  3.7225 -1.7952
  229SOL    HW2  687   0.620   0.597   1.825 -1.9124 -1.8450 -2.5406
  230SOL     OW  688   1.920   1.204   2.158  0.0496 -0.3151  0.0811
  230SOL    HW1  689   1.998   1.218   2.089  0.2710 -3.9507 -0.6355
  230SOL    HW2  690   1.825   1.250   2.131  0.5861 -1.8888 -2.4622
  231SOL     OW  691   0.638   0.985   2.997  0.3340  0.3942 -0.5184
  231SOL    HW1  692   0.729   1.035   2.988  1.0332 -0.5661 -1.9948
  231SOL    HW2  693   0.617   0.955   3.096 -1.5099 -3.1733  0.5465
  232SOL     OW  694   2.449   0.019   2.747 -0.1014  0.4151 -0.2482
  232SOL    HW1  695   2.477  -0.078   2.761 -1.8467  2.2673 -0.1061
  232SOL    HW2  696   2.505   0.063   2.673 -0.2246  1.4735  0.4043
  233SOL     OW  697   1.694   1.301   1.099  0.2528  0.1253  0.0354
  233SOL    HW1  698   1.672   1.323   1.001  0.6970  0.4230 -0.0439
  233SOL    HW2  699   1.788   1.253   1.103 -2.3012 -0.4448 -0.2233
  234SOL     OW  700   1.626   2.561   1.843 -0.2464  0.3966 -0.4108
  234SOL    HW1  701   1.596   2.601   1.935 -5.1650  1.7031 -0.8759
  234SOL    HW2  702   1.561   2.490   1.809 -0.0696  0.1680  0.3453
  235SOL     OW  703   0.019   3.027   2.905 -0.3547 -0.0939  0.2309
  235SOL    HW1  704   0.106   3.076   2.874  1.0302 -1.3625 -0.4345
  235SOL    HW2  705  -0.012   3.064   2.995  0.2670  2.4533 -0.8861
  236SOL     OW  706   2.873   0.686   0.138  0.4984 -0.0828  0.0548
  236SOL    HW1  707   2.969   0.727   0.166  2.5599  1.9954  1.3565
  236SOL    HW2  708   2.883   0.625   0.050  0.8108  0.2020 -1.1246
  237SOL     OW  709   1.466   1.636   1.033 -0.6359  0.1103  0.0627
  237SOL    HW1  710   1.566   1.614   1.036 -2.9843  3.6179  0.9145
  237SOL    HW2  711   1.445   1.706   1.109 -3.7157  1.4197  1.0092
  238SOL     OW  712   1.766   1.293   0.814  0.4814  0.0785  0.2018
  238SOL    HW1  713   1.864   1.292   0.787 -1.3698 -2.1280  2.6640
  238SOL    HW2  714   1.706   1.357   0.765 -0.6950 -0.8029  1.2102
  239SOL     OW  715   2.036   0.275   2.700  0.0655 -0.3048  0.7883
  239SOL    HW1  716   2.094   0.248   2.779  0.9027 -1.0897 -2.5672
  239SOL    HW2  717   1.945   0.310   2.727  2.9222 -0.7187  2.2695
  240SOL     OW  718   0.946   0.679   0.269  1.3743  0.0820  0.1793
  240SOL    HW1  719   0.904   0.597   0.226 -1.7303 -0.5095  1.3196
  240SOL    HW2  720   0.940   0.679   0.377 -1.1203 -2.3194 -0.0991
  241SOL     OW  721   0.584   0.104   0.314  0.1369  0.2923 -0.1598
  241SOL    HW1  722   0.601   0.105   0.212 -1.9909  0.5638  2.6485
  241SOL    HW2  723   0.552   0.012   0.340 -1.4822 -1.0349  0.0447
  242SOL     OW  724   0.658   2.483   1.142  0.0827 -0.0368 -0.0070
  242SOL    HW1  725   0.634   2.544   1.220  0.7480  2.0874 -2.9354
  242SOL    HW2  726   0.758   2.500   1.105  2.7044  2.3174 -1.0571
  243SOL     OW  727   1.124   0.622   2.434 -0.3883 -0.0788 -0.2026
  243SOL    HW1  728   1.076   0.704   2.390  0.8159 -2.5121  1.1683
  243SOL    HW2  729   1.057   0.563   2.495  1.4635 -1.3445  2.2936
  244SOL     OW  730   2.807   1.856   2.390  0.0963 -0.1683  0.0619
  244SOL    HW1  731   2.848   1.827   2.298 -1.2672 -0.4790 -2.1035
  244SOL    HW2  732   2.711   1.826   2.405  1.5718  2.7930  0.2335
  245SOL     OW  733   2.502   0.685   2.170  0.2747 -0.3771  0.5765
  245SOL    HW1  734   2.522   0.761   2.236  0.6663 -0.0914  1.4322
  245SOL    HW2  735   2.590   0.626   2.156  0.9781 -0.5946 -1.4979
  246SOL     OW  736   0.282   2.930   1.692 -0.8127  0.6840  0.1096
  246SOL    HW1  737   0.222   2.894   1.613  0.0703 -0.9249 -0.6464
  246SOL    HW2  738   0.338   3.014   1.666  0.9695  0.5949 -0.9104
  247SOL     OW  739   2.220   0.568   3.050  0.0381 -0.5359  0.0897
  247SOL    HW1  740   2.294   0.582   2.980 -2.3702 -2.5660 -0.7762
  247SOL    HW2  741   2.148   0.643   3.037 -3.7175  1.1775  0.9705
  248SOL     OW  742   2.136   1.827   1.613 -0.1376 -0.5371 -0.6151
  248SOL    HW1  743   2.187   1.737   1.634 -0.6338 -1.8684 -0.7514
  248SOL    HW2  744   2.058   1.849   1.676  0.0439 -2.7092  1.3399
  249SOL     OW  745   1.948   1.976   1.957  0.1992 -0.7893 -0.3314
  249SOL    HW1  746   1.935   1.918   1.873  0.5417 -2.0365 -0.3557
  249SOL    HW2  747   2.050   2.002   1.973  2.3984  1.7048 -0.0505
  250SOL     OW  748   1.097   0.737   1.859  0.5950  0.0133 -0.0590
  250SOL    HW1  749   1.145   0.677   1.929  0.2354  0.9960 -0.1646
  250SOL    HW2  750   1.086   0.701   1.763  0.9609  0.4200  1.0213
  251SOL     OW  751   3.040   1.566   2.542 -0.4913 -0.2312  0.2183
  251SOL    HW1  752   3.030   1.669   2.520  0.8049  1.1078 -1.8825
  251SOL    HW2  753   2.949   1.514   2.529  1.1944 -3.0985 -4.3029
  252SOL     OW  754   1.530   0.892   1.496  0.2214 -0.2693 -0.2675
  252SOL    HW1  755   1.517   0.929   1.401  0.1328 -0.5202 -0.6246
  252SOL    HW2  756   1.542   0.968   1.571  1.5109  1.0232  3.7548
  253SOL     OW  757   0.921   1.549   0.389 -1.0199 -0.1607  0.0277
  253SOL    HW1  758   0.983   1.463   0.372  2.9736 -1.3830  1.8166
  253SOL    HW2  759   0.824   1.532   0.362  2.8983  3.4369 -0.1174
  254SOL     OW  760   2.083   2.168   1.595  0.1799 -0.6098 -0.5864
  254SOL    HW1  761   2.053   2.108   1.513 -0.7463  0.4195  0.1325
  254SOL    HW2  762   2.000   2.185   1.654  0.6397  0.3335  1.5295
  255SOL     OW  763   0.124   1.157   2.925 -0.7066  0.1976  0.1031
  255SOL    HW1  764   0.185   1.235   2.922 -2.7691 -0.5391 -0.0596
  255SOL    HW2  765   0.173   1.069   2.957  0.2961 -0.3393  0.3067
  256SOL     OW  766   2.808   1.360   1.837 -0.2236 -0.3855 -0.3422
  256SOL    HW1  767   2.748   1.445   1.838  0.9436  1.6541  0.4398
  256SOL    HW2  768   2.764   1.285   1.895 -0.4754  1.4460  0.5042
  257SOL     OW  769   0.900   0.146   1.833 -0.0279 -0.4121 -0.9192
  257SOL    HW1  770   0.951   0.222   1.776 -1.7862 -1.1819  0.1866
  257SOL    HW2  771   0.931   0.049   1.812  1.7193 -0.1655  3.7508
  258SOL     OW  772   2.976   1.285   0.441 -0.3946 -0.1215 -0.2968
  258SOL    HW1  773   2.918   1.374   0.424 -3.8739 -2.0926  0.8987
  258SOL    HW2  774   3.016   1.275   0.534 -0.1929  1.1045 -3.5337
  259SOL     OW  775   0.469   2.948   3.002  0.2474  0.1863  0.2067
  259SOL    HW1  776   0.428   2.872   3.069 -0.0902 -3.8266  0.4030
  259SOL    HW2  777   0.445   2.932   2.904  3.5992 -0.4214 -0.1213
  260SOL     OW  778   2.707   0.852   2.733  0.4183 -0.2287 -0.3759
  260SOL    HW1  779   2.625   0.825   2.675 -0.1813 -0.1494  0.0594
  260SOL    HW2  780   2.679   0.880   2.829 -1.7130 -2.3093  0.2300
  261SOL     OW  781   2.723   1.377   1.317  0.0562 -0.1720  0.4404
  261SOL    HW1  782   2.662   1.307   1.271  0.7092 -1.0039  1.6759
  261SOL    HW2  783   2.806   1.329   1.349 -2.1372  0.6012 -2.4213
  262SOL     OW  784   1.435   2.947   1.987  0.0395  0.4018  0.4633
  262SOL    HW1  785   1.442   3.052   1.968  2.5985 -0.2728  2.8858
  262SOL    HW2  786   1.342   2.902   1.973 -1.6026  1.8220 -1.6018
  263SOL     OW  787   0.862   0.742   2.330  0.3389 -0.5555  1.0662
  263SOL    HW1  788   0.813   0.650   2.308 -1.2799 -0.9961 -0.3864
  263SOL    HW2  789   0.885   0.790   2.237 -1.3691  0.6012  0.2812
  264SOL     OW  790   2.248   0.728   0.395 -0.4573  0.3356 -0.6693
  264SOL    HW1  791   2.155   0.746   0.428 -0.2942  2.6195 -0.1089
  264SOL    HW2  792   2.297   0.814   0.410 -1.9110  2.6988 -1.1975
  265SOL     OW  793   0.906   2.287   2.646  0.1418  0.2949 -0.6198
  265SOL    HW1  794   0.954   2.319   2.731 -2.8372 -0.3393 -0.4922
  265SOL    HW2  795   0.860   2.195   2.663 -0.6188 -2.7540 -1.8893
  266SOL     OW  796   1.328   1.738   0.030 -0.2660  0.3453 -0.4179
  266SOL    HW1  797   1.318   1.832   0.078 -0.9411  2.2420  1.3675
  266SOL    HW2  798   1.427   1.727  -0.000  1.6294  2.2963  0.6209
  267SOL     OW  799   1.037   3.059   2.378 -0.2097  0.2079 -0.1249
  267SOL    HW1  800   1.028   3.011   2.286 -3.3880 -0.9583 -0.1592
  267SOL    HW2  801   1.006   3.160   2.374  1.7499  0.0234  1.1456
  268SOL     OW  802   0.664   1.146   1.073 -0.4158 -0.2694  0.1618
  268SOL    HW1  803   0.663   1.204   1.157 -1.5104 -1.3448 -1.8985
  268SOL    HW2  804   0.678   1.201   0.983  0.2650 -0.6878  0.0767
  269SOL     OW  805   2.429   2.445   1.559  0.1773  0.3936 -0.4174
  269SOL    HW1  806   2.532   2.430   1.560  1.6860 -0.0586  0.5595
  269SOL    HW2  807   2.382   2.470   1.651 -1.6302  4.8878  0.1629
  270SOL     OW  808   0.143   3.050   1.917 -0.3543  0.5351 -0.6430
  270SOL    HW1  809   0.213   3.039   1.842 -0.4393 -1.0663 -1.0418
  270SOL    HW2  810   0.074   2.971   1.910  0.8909 -0.4728  1.8278
  271SOL     OW  811   0.467   1.445   1.157  0.4103  0.1762 -0.4824
  271SOL    HW1  812   0.425   1.409   1.068  0.2278  2.5514 -1.9358
  271SOL    HW2  813   0.415   1.431   1.243 -1.2759 -2.8458 -3.1659
  272SOL     OW  814   1.970   2.909   1.927  0.0452 -0.7611  0.2175
  272SOL    HW1  815   1.921   2.857   1.857  3.0649 -0.2796 -2.2164
  272SOL    HW2  816   2.040   2.969   1.874  3.7683  0.7694  0.5267
  273SOL     OW  817   1.382   1.426   2.839 -0.1845  0.4189  0.2245
  273SOL    HW1  818   1.319   1.490   2.791  0.9079 -3.5702 -0.6800
  273SOL    HW2  819   1.367   1.419   2.941 -0.4345 -0.5195 -2.4835
  274SOL     OW  820   1.157   0.544   2.056  0.4293 -0.2721 -0.1131
  274SOL    HW1  821   1.178   0.446   2.014  0.6924 -3.1893 -2.2479
  274SOL    HW2  822   1.219   0.570   2.133 -1.4631 -0.3889  0.1838
  275SOL     OW  823   0.610   2.074   1.935 -0.2878  0.0529 -0.5962
  275SOL    HW1  824   0.590   2.178   1.938  0.3871  0.8613 -0.5903
  275SOL    HW2  825   0.532   2.012   1.925 -0.4003 -1.3033  1.3111
  276SOL     OW  826   2.187   0.896   2.770  0.1773 -0.0661  0.6316
  276SOL    HW1  827   2.107   0.914   2.711  3.1738  1.7412  1.8619
  276SOL    HW2  828   2.153   0.848   2.855 -3.6983 -0.9051  1.3490
  277SOL     OW  829   3.071   0.880   0.227 -0.1176  0.0957 -0.0468
  277SOL    HW1  830   3.125   0.944   0.167 -1.3008 -0.7015  0.0826
  277SOL    HW2  831   3.125   0.807   0.275 -1.2166  0.6889  0.9191
  278SOL     OW  832   0.232   0.295   3.002  0.0913 -0.6492  0.2969
  278SOL    HW1  833   0.316   0.247   3.041  3.3368  1.3135  1.9586
  278SOL    HW2  834   0.242   0.402   3.006 -0.0677  3.8347  2.0208
  279SOL     OW  835   0.131   0.069   0.888 -0.4786  0.0486  0.4655
  279SOL    HW1  836   0.154   0.056   0.990 -0.3871 -0.7650  1.1007
  279SOL    HW2  837   0.209   0.051   0.822 -1.7036 -1.4470 -2.2398
  280SOL     OW  838   1.641   2.884   2.558 -0.4043  0.0767  0.2648
  280SOL    HW1  839   1.720   2.956   2.556 -0.0900  2.3751  1.7275
  280SOL    HW2  840   1.547   2.932   2.563  0.6337  1.5537 -0.2355
  281SOL     OW  841   0.571   0.966   2.288 -0.0241 -0.2195  0.2706
  281SOL    HW1  842   0.565   0.870   2.249 -1.9499  2.6436 -0.9122
  281SOL    HW2  843   0.522   0.973   2.380  0.9374 -0.7446 -1.8885
  282SOL     OW  844   1.689   2.377   0.507  0.1731  0.1783  0.5951
  282SOL    HW1  845   1.647   2.325   0.429  0.5486  1.2543 -1.5490
  282SOL    HW2  846   1.689   2.478   0.491 -2.0643 -1.6346 -4.0728
  283SOL     OW  847   1.177   0.946   0.836 -0.3323  0.0600 -0.4238
  283SOL    HW1  848   1.211   0.865   0.895 -0.4537 -0.0496  0.5444
  283SOL    HW2  849   1.107   1.010   0.885 -2.7170  2.2800  1.3364
  284SOL     OW  850   2.367   2.792   2.303 -0.1654  0.1956 -0.1766
  284SOL    HW1  851   2.426   2.871   2.281 -0.9984  0.0206  3.2115
  284SOL    HW2  852   2.389   2.740   2.393 -0.8893 -2.0411  2.6679
  285SOL     OW  853   1.380   2.972   2.527  0.9948  0.4228 -0.0255
  285SOL    HW1  854   1.398   2.976   2.426 -0.1735  1.0319  0.1157
  285SOL    HW2  855   1.298   3.038   2.549  1.3814  0.3603  4.7215
  286SOL     OW  856   0.443   0.420   0.723 -0.3766 -0.0766  0.1943
  286SOL    HW1  857   0.410   0.366   0.804  3.1416  1.0485  1.2773
  286SOL    HW2  858   0.467   0.362   0.642  2.2828  1.0391  0.4856
  287SOL     OW  859   0.145   1.288   2.542  0.2019 -0.0417  0.2278
  287SOL    HW1  860   0.096   1.227   2.608 -1.7904  0.2022 -2.9749
  287SOL    HW2  861   0.112   1.387   2.551 -0.2712  2.6267  1.2352
  288SOL     OW  862   1.532   2.664   1.552 -0.3661 -0.4984  0.4001
  288SOL    HW1  863   1.633   2.667   1.586  3.2830 -3.0572  2.7124
  288SOL    HW2  864   1.521   2.699   1.460 -0.0315  0.1080  0.0237
  289SOL     OW  865   0.684   2.691   0.816 -0.1955  0.0127  0.0377
  289SOL    HW1  866   0.729   2.742   0.734  0.6693 -0.6539 -0.5640
  289SOL    HW2  867   0.683   2.742   0.902 -0.5370 -0.8755 -0.3659
  290SOL     OW  868   2.841   1.078   1.621  0.1490  0.2223  0.4576
  290SOL    HW1  869   2.748   1.101   1.653 -2.8258 -3.1602 -0.3205
  290SOL    HW2  870   2.898   1.041   1.701  0.4930 -1.1478  0.9536
  291SOL     OW  871   1.963   0.058   0.071 -0.2201  0.1673 -0.5366
  291SOL    HW1  872   1.982   0.036   0.170 -0.8975 -3.2606 -0.0550
  291SOL    HW2  873   2.009   0.146   0.035 -0.1973  0.4081 -2.5148
  292SOL     OW  874   2.976   1.172   3.046  0.0265  0.1697  0.2580
  292SOL    HW1  875   2.902   1.221   2.993 -1.0939 -1.7504  1.0841
  292SOL    HW2  876   3.074   1.174   3.009 -2.2828  1.6302  1.4221
  293SOL     OW  877   0.592   2.129   0.138 -0.3219 -0.3003  0.1062
  293SOL    HW1  878   0.557   2.175   0.226 -3.0907  2.6284  1.5263
  293SOL    HW2  879   0.675   2.071   0.160 -1.8924  0.0380  1.6364
  294SOL     OW  880   1.690   2.225   1.749  0.1433  0.4666  0.6421
  294SOL    HW1  881   1.666   2.255   1.847 -0.0978 -0.7130  0.6979
  294SOL    HW2  882   1.674   2.287   1.664  1.3701  1.6543 -2.3545
  295SOL     OW  883   1.045   1.010   0.453 -0.3862  0.2787  0.5358
  295SOL    HW1  884   1.128   0.958   0.493  1.5254 -0.8518  3.1226
  295SOL    HW2  885   0.990   1.055   0.521  1.4590  0.1485 -0.7589
  296SOL     OW  886   1.291   2.051   2.520 -0.2628  0.8310 -0.4805
  296SOL    HW1  887   1.254   2.083   2.431 -1.3794 -2.2302  3.7904
  296SOL    HW2  888   1.303   1.950   2.520 -1.0354 -0.5065  0.8962
  297SOL     OW  889   1.478   0.624   1.381  0.0002 -0.5506  0.4328
  297SOL    HW1  890   1.426   0.534   1.393 -3.0728 -0.8567 -1.7471
  297SOL    HW2  891   1.574   0.622   1.417  1.0871 -0.8155  0.4347
  298SOL     OW  892   0.479   1.258   2.907  0.9466  0.7709  0.5582
  298SOL    HW1  893   0.503   1.204   2.994 -0.7708  1.1345  2.7644
  298SOL    HW2  894   0.546   1.257   2.830 -2.5076 -0.4378 -0.7275
  299SOL     OW  895   0.468   0.262   1.421  0.1207 -0.3650 -0.0151
  299SOL    HW1  896   0.479   0.357   1.376 -3.5263 -0.3756  1.5109
  299SOL    HW2  897   0.558   0.238   1.467 -1.5163  1.1190 -3.2868
  300SOL     OW  898   1.192   1.819   2.896 -0.1496  0.1422 -0.3121
  300SOL    HW1  899   1.139   1.749   2.841 -0.1736 -1.6321  1.9579
  300SOL    HW2  900   1.246   1.780   2.977  1.7937 -0.9372  2.7747
  301SOL     OW  901   0.452   0.273   0.491  0.0418  0.0981  0.1536
  301SOL    HW1  902   0.349   0.277   0.492  0.1327 -2.4529  1.0460
  301SOL    HW2  903   0.502   0.223   0.413 -0.8036 -2.3899  1.0433
  302SOL     OW  904   1.242   2.368   2.262 -0.7613  0.1859 -0.5977
  302SOL    HW1  905   1.173   2.401   2.326 -3.0897 -1.7301  1.4343
  302SOL    HW2  906   1.220   2.271   2.225  0.4234  2.4512 -0.0220
  303SOL     OW  907   0.951   2.334   0.797 -0.2975 -0.4363  0.1395
  303SOL    HW1  908   0.988   2.373   0.705  0.9149 -2.4530  0.5992
  303SOL    HW2  909   0.984   2.394   0.877 -0.1837  1.6051 -0.5497
  304SOL     OW  910   0.156   2.062   0.626  0.3506  0.1883 -0.1129
  304SOL    HW1  911   0.155   2.002   0.541  0.4449 -0.1384  0.5995
  304SOL    HW2  912   0.094   2.140   0.608 -2.7965 -1.0371  0.5036
  305SOL     OW  913   1.580   0.900   0.595 -0.0245 -0.0347  0.3661
  305SOL    HW1  914   1.526   0.920   0.505 -0.7298 -0.1744 -4.0447
  305SOL    HW2  915   1.613   0.801   0.592 -0.0833 -0.5081 -1.9592
  306SOL     OW  916   0.459   1.866   1.871 -0.2930  0.4587 -0.3197
  306SOL    HW1  917   0.540   1.818   1.819  0.5704 -0.8018 -1.5531
  306SOL    HW2  918   0.426   1.812   1.956 -0.2040 -2.5663  0.9996
  307SOL     OW  919   0.030   0.854   2.591 -0.4120 -0.0807 -0.2123
  307SOL    HW1  920   0.029   0.961   2.603 -2.0412  0.7087  1.1139
  307SOL    HW2  921  -0.043   0.818   2.658  0.8719 -2.3366  0.9802
  308SOL     OW  922   1.536   2.680   2.854  0.0789  0.3965 -0.3920
  308SOL    HW1  923   1.530   2.666   2.757 -0.2396 -0.4209  3.2640
  308SOL    HW2  924   1.461   2.628   2.907 -0.2791 -1.2288  1.6479
  309SOL     OW  925   1.224   0.069   1.781 -0.2845 -0.4153  0.0906
  309SOL    HW1  926   1.325   0.060   1.790 -2.3680  0.3733 -1.4177
  309SOL    HW2  927   1.197   0.074   1.682 -1.2555  2.2060  0.5990
  310SOL     OW  928   1.509   2.549   0.683  0.5148 -0.2185 -0.0596
  310SOL    HW1  929   1.484   2.588   0.771 -0.0175 -0.3240 -0.3204
  310SOL    HW2  930   1.582   2.602   0.634  0.4989  0.0413 -1.5622
  311SOL     OW  931   1.183   0.903   1.587 -0.0109 -1.0438  0.2433
  311SOL    HW1  932   1.249   0.824   1.594 -0.4514 -0.6210 -0.8202
  311SOL    HW2  933   1.234   0.995   1.584  1.4723  2.5111  2.4137
  312SOL     OW  934   1.663   0.682   1.028 -0.0295 -0.2367 -0.2002
  312SOL    HW1  935   1.601   0.759   1.049  0.9623 -0.9463 -0.7399
  312SOL    HW2  936   1.651   0.653   0.931  0.5001  0.0507 -0.5545
  313SOL     OW  937   1.524   1.426   0.677  0.5896  0.0275 -0.1101
  313SOL    HW1  938   1.432   1.453   0.721 -0.3082 -0.4683 -0.4116
  313SOL    HW2  939   1.514   1.339   0.618  1.6997 -2.0179 -0.7681
  314SOL     OW  940   2.995   3.084   0.050  0.1064  1.1996  0.5524
  314SOL    HW1  941   2.986   3.158   0.120 -0.3332 -1.1813 -1.1633
  314SOL    HW2  942   2.908   3.030   0.028  0.9764 -1.0615  0.8054
  315SOL     OW  943   1.220   0.219   2.792 -0.6402 -0.4075  0.4057
  315SOL    HW1  944   1.186   0.141   2.737  1.1168 -0.3225  3.2951
  315SOL    HW2  945   1.281   0.188   2.872  1.5546 -1.2915  1.0625
  316SOL     OW  946   1.664   2.111   0.924  0.2686 -0.2339  0.1828
  316SOL    HW1  947   1.607   2.108   1.010  1.6143 -0.0083 -1.1098
  316SOL    HW2  948   1.661   2.208   0.880 -0.2260  0.1722  1.0928
  317SOL     OW  949   1.118   0.721   2.854 -0.3429 -0.2099 -0.0742
  317SOL    HW1  950   1.037   0.775   2.894  1.3066  0.2476  2.8196
  317SOL    HW2  951   1.086   0.627   2.831  0.3484  2.4758  1.5507
  318SOL     OW  952   1.380   3.013   2.254 -0.7102  0.1444 -0.1175
  318SOL    HW1  953   1.405   3.111   2.215 -0.8077  2.5040 -1.3268
  318SOL    HW2  954   1.357   2.939   2.178 -0.5457 -5.0807 -1.5514
  319SOL     OW  955   0.645   2.413   2.914 -0.1480  0.1933  0.2989
  319SOL    HW1  956   0.553   2.389   2.965 -0.9696  0.6052 -0.3118
  319SOL    HW2  957   0.732   2.374   2.956 -0.8938  1.4773  0.8834
  320SOL     OW  958   1.631   2.169   0.323 -0.4802 -0.0667 -0.5353
  320SOL    HW1  959   1.732   2.150   0.340  3.0995  1.0398 -0.3274
  320SOL    HW2  960   1.568   2.134   0.404 -0.7981 -3.7503 -1.3429
  321SOL     OW  961   1.662   2.653   0.482  0.9615  0.4095  0.0248
  321SOL    HW1  962   1.580   2.710   0.453 -0.3147 -1.6042 -1.6494
  321SOL    HW2  963   1.747   2.713   0.477 -0.5345  0.1725 -0.4513
  322SOL     OW  964   2.575   1.133   2.302 -0.3672  0.1384 -0.0058
  322SOL    HW1  965   2.666   1.165   2.338 -0.5365  2.1930  1.8713
  322SOL    HW2  966   2.557   1.037   2.331 -0.2613 -0.0449 -0.2422
  323SOL     OW  967   1.004   2.636   0.808  0.2286  0.3173  0.4307
  323SOL    HW1  968   1.027   2.586   0.717  1.4311 -0.5642  0.6199
  323SOL    HW2  969   1.056   2.722   0.820 -0.9606 -0.3440  0.2259
  324SOL     OW  970   0.241   2.483   2.500  0.1790  0.5683  0.3557
  324SOL    HW1  971   0.225   2.387   2.533 -2.3701  1.8122 -0.1990
  324SOL    HW2  972   0.160   2.540   2.531 -0.3273  0.8493  0.3074
  325SOL     OW  973   1.253   3.037   0.437  0.7770 -0.4014 -0.1615
  325SOL    HW1  974   1.292   3.069   0.346  0.7274  0.8293 -0.0802
  325SOL    HW2  975   1.263   3.114   0.507  1.4734 -0.0170  0.0068
  326SOL     OW  976   2.474   0.767   3.077 -0.6502 -0.5473  0.4540
  326SOL    HW1  977   2.442   0.725   2.986  0.2028 -1.9549 -0.1405
  326SOL    HW2  978   2.526   0.704   3.139  2.2306  1.6867 -0.0535
  327SOL     OW  979   2.879   0.358   0.502 -0.3756 -0.4815  0.3882
  327SOL    HW1  980   2.836   0.388   0.413 -0.2598  2.2168  1.0531
  327SOL    HW2  981   2.827   0.279   0.551 -1.1180 -1.3863  0.8110
  328SOL     OW  982   2.515   0.628   0.393  0.1875  0.5043 -0.0744
  328SOL    HW1  983   2.415   0.647   0.387  1.8042  4.1740 -1.6465
  328SOL    HW2  984   2.533   0.543   0.449  0.6540  1.6129 -0.9524
  329SOL     OW  985   2.977   2.967   2.165  0.6246  0.2648 -0.0950
  329SOL    HW1  986   3.009   2.886   2.223  1.0892  1.7655  0.6009
  329SOL    HW2  987   3.002   3.058   2.211 -0.7423  1.2551 -0.6975
  330SOL     OW  988   0.547   0.191   1.877  0.6279 -0.5169 -0.0686
  330SOL    HW1  989   0.633   0.238   1.843 -0.4829 -2.0137 -0.3164
  330SOL    HW2  990   0.556   0.134   1.966  0.6128  0.1978 -0.4527
  331SOL     OW  991   2.944   1.932   1.113  0.6410  0.2185 -0.0479
  331SOL    HW1  992   2.987   2.014   1.068  0.0814  0.7801  1.5288
  331SOL    HW2  993   2.878   1.965   1.188 -1.6665  0.0129 -0.6358
  332SOL     OW  994   0.423   1.127   0.069  0.1453  0.0116  0.3658
  332SOL    HW1  995   0.362   1.075   0.001  1.5074  0.4718 -1.0096
  332SOL    HW2  996   0.366   1.192   0.129 -0.8984  1.3103 -2.1931
  333SOL     OW  997   2.859   1.049   0.311 -0.0096  0.2422  0.0548
  333SOL    HW1  998   2.910   1.123   0.369  0.8617  2.2730 -0.3075
  333SOL    HW2  999   2.921   0.970   0.285 -0.2566  0.6308  0.2187
  334SOL     OW 1000   1.687   1.179   1.887  0.4298  0.0050 -0.0682
  334SOL    HW1 1001   1.775   1.124   1.867 -0.8556 -0.4329  1.6000
  334SOL    HW2 1002   1.703   1.257   1.955 -1.2053  2.3980 -0.9207
  335SOL     OW 1003   1.990   2.752   2.606 -0.0639 -0.3352  0.0678
  335SOL    HW1 1004   1.914   2.707   2.651  1.8531 -2.3311 -1.0891
  335SOL    HW2 1005   2.046   2.805   2.671 -0.0051 -2.1974 -0.8940
  336SOL     OW 1006   0.245   0.073   2.822 -0.2627  0.1900  0.4520
  336SOL    HW1 1007   0.345   0.053   2.800 -0.1183 -1.6095  0.7166
  336SOL    HW2 1008   0.233   0.156   2.881 -0.0616  1.3891  2.8623
  337SOL     OW 1009   0.929   2.807   2.820 -0.0684  0.2435 -0.0977
  337SOL    HW1 1010   0.925   2.752   2.911  0.3425 -1.0904  1.3955
  337SOL    HW2 1011   1.005   2.768   2.760  1.4895 -1.6266 -1.6032
  338SOL     OW 1012   0.056   1.010   0.696  0.3526  0.3953 -0.2563
  338SOL    HW1 1013  -0.034   0.979   0.733  1.3235  0.1105 -1.6976
  338SOL    HW2 1014   0.047   1.109   0.680  1.4891 -2.6120 -0.2026
  339SOL     OW 1015   1.708   1.367   2.080  0.1393 -0.5002  0.2584
  339SOL    HW1 1016   1.606   1.391   2.079  1.5299 -2.0184 -2.4240
  339SOL    HW2 1017   1.773   1.444   2.090 -1.7266 -1.3503 -2.3351
  340SOL     OW 1018   2.354   0.740   1.231  0.0226 -0.4748  0.2711
  340SOL    HW1 1019   2.252   0.727   1.215  1.4802  0.0384 -0.1170
  340SOL    HW2 1020   2.401   0.663   1.182  0.7244 -0.1524 -2.2639
  341SOL     OW 1021   1.919   2.174   0.352  0.8395 -0.4507  0.6086
  341SOL    HW1 1022   1.937   2.230   0.266 -0.5688 -1.0028  0.0794
  341SOL    HW2 1023   2.009   2.142   0.388 -2.0651 -0.0609 -1.5911
  342SOL     OW 1024   2.206   2.087   2.753 -0.2515  0.2058 -0.2020
  342SOL    HW1 1025   2.256   1.992   2.753 -2.2517 -0.1637  2.7113
  342SOL    HW2 1026   2.102   2.077   2.753 -1.0514 -0.7754 -0.7124
  343SOL     OW 1027   0.371   0.782   2.747  0.7564 -0.0315 -0.0707
  343SOL    HW1 1028   0.372   0.823   2.656  1.8208  1.1087 -0.6946
  343SOL    HW2 1029   0.470   0.793   2.779 -0.1454 -0.6902  0.4859
  344SOL     OW 1030   1.928   1.402   0.440  0.5404 -0.2821  0.4532
  344SOL    HW1 1031   1.941   1.329   0.367 -0.3115  0.4217 -3.7605
  344SOL    HW2 1032   1.828   1.430   0.458 -0.7536  0.6140  0.1770
  345SOL     OW 1033   1.383   2.258   2.894 -0.7354 -0.1888 -0.3076
  345SOL    HW1 1034   1.299   2.207   2.860  0.8298  0.0603 -0.1910
  345SOL    HW2 1035   1.473   2.208   2.873 -0.1109  1.5481  2.8972
  346SOL     OW 1036   2.307   0.895   1.442 -0.0318 -0.1652 -0.9603
  346SOL    HW1 1037   2.277   0.996   1.429 -0.0343  0.3892  1.9744
  346SOL    HW2 1038   2.315   0.836   1.356  0.1288  1.0212  0.3928
  347SOL     OW 1039   0.726   2.796   1.477 -0.1208 -0.6812 -0.3702
  347SOL    HW1 1040   0.708   2.738   1.559 -0.5469  0.0984  0.1771
  347SOL    HW2 1041   0.658   2.874   1.460 -0.7019 -0.3380 -1.5098
  348SOL     OW 1042   0.132   0.670   2.833  0.3645  0.0564 -0.4685
  348SOL    HW1 1043   0.036   0.663   2.805  2.0697  3.5366  4.6141
  348SOL    HW2 1044   0.194   0.738   2.783  0.7994 -0.5915  1.4755
  349SOL     OW 1045   1.818   0.405   2.803 -0.4209 -0.2227  0.2232
  349SOL    HW1 1046   1.802   0.496   2.754 -1.4769  3.0464  2.9529
  349SOL    HW2 1047   1.808   0.415   2.906 -1.0231  1.1795 -0.5500
  350SOL     OW 1048   1.580   0.441   0.364 -0.8115  0.3150 -0.4158
  350SOL    HW1 1049   1.647   0.449   0.443 -0.1590 -1.8813  1.7103
  350SOL    HW2 1050   1.556   0.525   0.307 -3.3770 -1.7429 -0.7124
  351SOL     OW 1051   0.962   0.865   2.095 -0.2298 -0.2884 -0.2023
  351SOL    HW1 1052   0.968   0.961   2.049 -0.6710 -0.9925  1.4642
  351SOL    HW2 1053   1.018   0.796   2.039 -1.4560 -1.5879  0.6628
  352SOL     OW 1054   2.043   1.300   0.694 -0.2263 -0.3046  0.0077
  352SOL    HW1 1055   1.988   1.332   0.607 -1.6310 -0.1745  0.5407
  352SOL    HW2 1056   2.139   1.344   0.697  2.8466  0.9770  0.8648
  353SOL     OW 1057   2.136   2.925   1.096 -0.0670 -0.5048 -0.1342
  353SOL    HW1 1058   2.223   2.892   1.135  0.1274 -1.7962 -2.6662
  353SOL    HW2 1059   2.081   2.850   1.057 -0.3493  0.4318 -2.1629
  354SOL     OW 1060   0.250   1.402   2.893  0.0826  0.4419  0.3077
  354SOL    HW1 1061   0.232   1.472   2.814 -3.1919 -4.1719  1.1146
  354SOL    HW2 1062   0.342   1.353   2.877 -1.0929 -2.8024 -0.9684
  355SOL     OW 1063   0.522   1.532   0.508 -0.1977  0.0580 -0.3957
  355SOL    HW1 1064   0.533   1.604   0.584 -1.7644 -0.2308  0.4164
  355SOL    HW2 1065   0.534   1.434   0.541 -1.0449  0.3474  1.7395
  356SOL     OW 1066   0.952   0.292   2.094  0.0562 -0.3069  0.0855
  356SOL    HW1 1067   1.026   0.368   2.079  1.7136 -1.4591  0.5717
  356SOL    HW2 1068   0.952   0.210   2.029 -0.2688 -1.8463 -1.3748
  357SOL     OW 1069   1.029   1.305   0.386 -0.1497 -0.2112  0.1528
  357SOL    HW1 1070   0.948   1.261   0.335  2.2100 -3.0565  2.3720
  357SOL    HW2 1071   1.034   1.270   0.483 -0.8006 -0.5089 -1.8029
  358SOL     OW 1072   1.690   1.506   0.482  0.1588  0.2269 -0.0390
  358SOL    HW1 1073   1.628   1.480   0.563  1.9849 -1.8857  0.7251
  358SOL    HW2 1074   1.643   1.501   0.389  1.1574  1.6548 -1.2823
  359SOL     OW 1075   1.586   2.729   0.062  0.2670  0.0047 -0.1142
  359SOL    HW1 1076   1.511   2.659   0.055  1.2978  2.7799  0.1949
  359SOL    HW2 1077   1.551   2.827   0.061  1.3562  3.3263  0.4037
  360SOL     OW 1078   0.869   0.618   0.539  0.2155 -0.5197  0.2108
  360SOL    HW1 1079   0.773   0.614   0.579 -0.6256  0.6641 -0.9659
  360SOL    HW2 1080   0.906   0.522   0.525  0.8158  1.0773  3.1326
  361SOL     OW 1081   1.227   1.389   0.693 -0.8205  0.3210  0.1805
  361SOL    HW1 1082   1.265   1.417   0.789  1.3354  0.0420 -1.5868
  361SOL    HW2 1083   1.138   1.433   0.674 -3.0031 -1.4246  1.5027
  362SOL     OW 1084   1.355   1.756   0.773 -0.1019  0.2939  0.0045
  362SOL    HW1 1085   1.358   1.716   0.869 -2.2906  0.2046  1.8427
  362SOL    HW2 1086   1.447   1.792   0.743 -2.0455 -0.6173  2.5830
  363SOL     OW 1087   1.205   1.267   2.053 -0.4898 -0.0581 -0.2956
  363SOL    HW1 1088   1.303   1.296   2.078  1.6361 -0.9463 -1.2302
  363SOL    HW2 1089   1.175   1.331   1.977 -0.3622  0.1639 -0.3679
  364SOL     OW 1090   0.550   2.336   1.936 -0.3220 -0.0069  0.0233
  364SOL    HW1 1091   0.462   2.378   1.974  0.5980 -0.0029 -0.9314
  364SOL    HW2 1092   0.563   2.357   1.833 -0.4336  1.6719 -1.3726
  365SOL     OW 1093   1.038   1.905   1.398 -0.4234 -0.7452 -0.2333
  365SOL    HW1 1094   0.939   1.912   1.431  0.0303 -2.0708  0.1621
  365SOL    HW2 1095   1.051   1.841   1.316  0.3307  2.1607  0.1940
  366SOL     OW 1096   2.815   2.057   0.495  0.0068  0.1111  0.1087
  366SOL    HW1 1097   2.717   2.028   0.496  2.4637  1.7388  0.0114
  366SOL    HW2 1098   2.872   1.995   0.431  0.1375 -1.9854 -2.2755
  367SOL     OW 1099   0.822   1.162   0.172  0.4249 -0.0784  0.3541
  367SOL    HW1 1100   0.808   1.070   0.219 -3.6372 -1.2274 -2.1829
  367SOL    HW2 1101   0.866   1.142   0.081  2.1858 -2.4261  0.6551
  368SOL     OW 1102   1.520   0.590   0.725 -0.1357  0.3886 -0.4621
  368SOL    HW1 1103   1.461   0.603   0.640 -0.8663 -1.9857  1.1669
  368SOL    HW2 1104   1.617   0.631   0.712 -0.4705  0.6770  0.2941
  369SOL     OW 1105   0.239   1.700   0.047 -0.3336 -0.9650  0.6843
  369SOL    HW1 1106   0.274   1.780   0.098 -1.9533  0.5607  0.9216
  369SOL    HW2 1107   0.159   1.654   0.096 -2.0281 -0.2158 -3.0037
  370SOL     OW 1108   0.438   2.112   1.045  0.2877 -0.0878 -0.1093
  370SOL    HW1 1109   0.461   2.204   0.998  0.8845  0.6892 -2.0041
  370SOL    HW2 1110   0.348   2.076   1.007  1.5231 -0.6647  0.8395
  371SOL     OW 1111   2.891   2.236   2.728  0.2505 -0.2285 -0.1187
  371SOL    HW1 1112   2.886   2.187   2.816 -0.9800  2.3406 -0.5050
  371SOL    HW2 1113   2.981   2.292   2.712  2.7543  1.2808  2.2851
  372SOL     OW 1114   1.068   1.938   0.991 -0.0076  0.6029  0.8731
  372SOL    HW1 1115   0.965   1.954   0.987 -0.5715 -0.3068  4.0659
  372SOL    HW2 1116   1.130   1.996   0.926  2.2000 -0.6859 -3.0712
  373SOL     OW 1117   1.967   1.986   0.898 -0.2427 -0.1924  0.0758
  373SOL    HW1 1118   2.030   1.989   0.980 -0.1582  0.3931  0.4526
  373SOL    HW2 1119   1.876   2.031   0.912 -0.9902 -0.0376  1.0037
  374SOL     OW 1120   1.787   0.467   0.552 -0.3731 -0.2238  0.4524
  374SOL    HW1 1121   1.820   0.411   0.624  1.7540  4.1233 -2.5342
  374SOL    HW2 1122   1.863   0.458   0.477  0.1755 -0.8135 -3.0203
  375SOL     OW 1123   2.365   2.147   1.140 -0.4965 -0.0805 -0.5840
  375SOL    HW1 1124   2.431   2.175   1.066  0.4711 -2.0921 -5.0369
  375SOL    HW2 1125   2.416   2.139   1.230  2.8340  0.4337 -2.1698
  376SOL     OW 1126   2.998   0.614   1.419  0.0860  0.1107  0.1259
  376SOL    HW1 1127   3.057   0.690   1.462 -0.9446  0.9252  1.2765
  376SOL    HW2 1128   2.896   0.643   1.417 -1.1443 -0.3359  0.4524
  377SOL     OW 1129   2.252   2.837   0.352 -0.5326  0.0833 -0.0985
  377SOL    HW1 1130   2.258   2.932   0.385  0.5637 -2.0460 -0.0851
  377SOL    HW2 1131   2.347   2.803   0.325  0.2579  2.5312 -1.0886
  378SOL     OW 1132   1.755   1.864   2.667 -0.7247 -0.9898  0.5359
  378SOL    HW1 1133   1.656   1.843   2.676  1.9467  1.5404 -0.6087
  378SOL    HW2 1134   1.818   1.789   2.640 -1.4609  0.1139  2.3586
  379SOL     OW 1135   0.873   0.141   2.752 -0.0334  0.2879 -0.3932
  379SOL    HW1 1136   0.834   0.053   2.707  0.5530 -0.6742  2.1535
  379SOL    HW2 1137   0.815   0.224   2.731 -1.2663  2.1593 -0.9538
  380SOL     OW 1138   1.510   1.172   0.536 -0.2921  0.3437 -0.3227
  380SOL    HW1 1139   1.404   1.173   0.556  0.7236  4.1943  0.9219
  380SOL    HW2 1140   1.559   1.103   0.591 -3.4750  3.5052 -0.3241
  381SOL     OW 1141   1.299   1.191   1.549  0.3076 -0.0328 -0.6841
  381SOL    HW1 1142   1.344   1.254   1.483 -0.8284  0.4118  1.0546
  381SOL    HW2 1143   1.366   1.167   1.627  0.1954  3.1532  1.5328
  382SOL     OW 1144   1.765   0.800   0.265 -0.1746  0.1080 -0.6114
  382SOL    HW1 1145   1.789   0.791   0.164  1.7249  0.1776  0.5488
  382SOL    HW2 1146   1.849   0.822   0.322  0.3917 -1.5440 -0.5415
  383SOL     OW 1147   2.569   0.958   1.516  0.0190 -0.3810  0.1395
  383SOL    HW1 1148   2.473   0.934   1.476 -0.0170 -0.5272 -0.2358
  383SOL    HW2 1149   2.651   0.926   1.461 -1.4081  3.9500  1.5983
  384SOL     OW 1150   0.903   2.286   0.060  0.3773  0.0357  0.4376
  384SOL    HW1 1151   0.841   2.352   0.107  0.1997 -3.8350  0.3495
  384SOL    HW2 1152   0.876   2.188   0.087 -1.2016 -2.0610  0.9117
  385SOL     OW 1153   3.011   1.988   1.800 -0.0223 -0.2478  0.1756
  385SOL    HW1 1154   3.064   2.074   1.771 -0.6469 -0.7244  1.7848
  385SOL    HW2 1155   3.031   1.894   1.755 -3.0310 -2.4994 -0.7005
  386SOL     OW 1156   0.435   1.161   0.486 -0.1480  0.5332 -0.3410
  386SOL    HW1 1157   0.442   1.056   0.504 -1.3945 -0.5658  0.1805
  386SOL    HW2 1158   0.365   1.180   0.415  1.9770 -1.3962 -2.3330
  387SOL     OW 1159   1.004   0.310   1.656 -0.0144  0.5659  0.2567
  387SOL    HW1 1160   1.061   0.392   1.650 -0.4614 -0.5639  0.0664
  387SOL    HW2 1161   0.949   0.305   1.567 -0.3267  2.2735  3.7478
  388SOL     OW 1162   1.209   2.641   1.789  0.0866  0.6212  0.4638
  388SOL    HW1 1163   1.221   2.648   1.685 -0.1233 -2.9175 -2.4999
  388SOL    HW2 1164   1.259   2.555   1.826 -0.0410 -1.3872 -2.6674
  389SOL     OW 1165   0.244   3.079   1.124  0.1288 -0.0334 -0.2140
  389SOL    HW1 1166   0.171   3.078   1.195 -1.3108  1.7418 -1.9349
  389SOL    HW2 1167   0.295   2.983   1.111  0.3737 -1.7166  2.4521
  390SOL     OW 1168   1.054   0.926   1.236 -0.2166  0.8493  0.0007
  390SOL    HW1 1169   1.123   0.871   1.290  0.6710  1.0964  2.1529
  390SOL    HW2 1170   0.990   0.972   1.306 -0.9696  1.0460  0.0347
  391SOL     OW 1171   2.075   1.123   1.040 -0.3924  0.5064  0.0165
  391SOL    HW1 1172   1.993   1.075   1.067  1.6383 -1.3971 -0.4564
  391SOL    HW2 1173   2.119   1.060   0.969 -0.3850 -0.4057 -1.1893
  392SOL     OW 1174   0.896   2.688   3.054  0.3599 -0.6600  0.0830
  392SOL    HW1 1175   0.807   2.676   3.105 -0.1825 -1.0270  0.5276
  392SOL    HW2 1176   0.978   2.710   3.111  0.2763  2.2969  1.5335
  393SOL     OW 1177   0.381   0.519   2.101  0.1441 -0.6151 -0.2598
  393SOL    HW1 1178   0.297   0.487   2.047  0.3897  0.3975 -0.7303
  393SOL    HW2 1179   0.466   0.506   2.040  1.4165  0.1468 -1.5289
  394SOL     OW 1180   2.921   1.846   2.782  0.2976 -0.3227  0.0828
  394SOL    HW1 1181   2.993   1.804   2.838 -0.9364  1.7523  0.8810
  394SOL    HW2 1182   2.947   1.868   2.683 -0.7485 -0.4089 -1.3947
  395SOL     OW 1183   1.584   1.929   0.720 -0.1221 -0.0376 -0.2480
  395SOL    HW1 1184   1.654   1.866   0.676 -2.1522 -0.8556  2.2560
  395SOL    HW2 1185   1.625   1.992   0.793  1.3126 -1.4572 -3.7071
  396SOL     OW 1186   2.761   2.065   1.320 -0.4548 -0.3156  0.2052
  396SOL    HW1 1187   2.799   2.049   1.414 -0.2474  0.7416 -0.8970
  396SOL    HW2 1188   2.657   2.051   1.320 -1.8065  1.6838  0.6348
  397SOL     OW 1189   1.031   2.105   0.622  0.3036 -0.0513 -0.3288
  397SOL    HW1 1190   0.960   2.045   0.584  2.0334  2.5107 -1.0132
  397SOL    HW2 1191   0.998   2.195   0.669 -1.9302  1.5827  1.4630
  398SOL     OW 1192   2.197   0.101   1.086  0.7736  0.3797 -0.2199
  398SOL    HW1 1193   2.178  -0.005   1.083 -0.6665 -1.3757  1.6637
  398SOL    HW2 1194   2.109   0.152   1.090  3.7917 -0.7161 -0.5384
  399SOL     OW 1195   2.937   2.535   2.725 -0.4973  0.6639  0.0570
  399SOL    HW1 1196   2.882   2.506   2.640 -1.1532 -0.7997  2.1711
  399SOL    HW2 1197   2.893   2.503   2.811 -0.1317 -0.4886  2.3084
  400SOL     OW 1198   0.815   1.590   1.292 -0.3486 -0.2715 -0.0082
  400SOL    HW1 1199   0.762   1.636   1.367  2.4063  0.9301  0.4437
  400SOL    HW2 1200   0.843   1.661   1.221 -1.0165  1.7895 -1.3589
  401SOL     OW 1201   1.810   0.133   1.261 -0.0036 -0.1196 -0.0450
  401SOL    HW1 1202   1.875   0.174   1.333 -0.5084 -0.8965 -0.3917
  401SOL    HW2 1203   1.715   0.146   1.300 -0.9920  1.0441  1.0475
  402SOL     OW 1204   1.315   0.152   3.045 -0.2862  0.8087  0.0221
  402SOL    HW1 1205   1.416   0.118   3.046  1.7136 -1.3193 -0.7795
  402SOL    HW2 1206   1.294   0.239   3.091  1.5858  0.5162  0.8582
  403SOL     OW 1207   2.331   1.814   0.941 -0.3205  0.5251 -0.2283
  403SOL    HW1 1208   2.420   1.862   0.936 -0.2275  0.5314 -2.0557
  403SOL    HW2 1209   2.264   1.872   1.000  1.0509  1.9173 -1.6522
  404SOL     OW 1210   0.165   2.500   2.860 -0.0667 -0.0581  0.7506
  404SOL    HW1 1211   0.259   2.471   2.822 -0.8018 -1.7721 -0.6109
  404SOL    HW2 1212   0.153   2.602   2.882 -1.3166 -1.8787 -2.1327
  405SOL     OW 1213   0.236   2.557   0.533  0.0887 -0.1602  0.2193
  405SOL    HW1 1214   0.165   2.554   0.454  0.9377 -0.5483  0.7263
  405SOL    HW2 1215   0.287   2.649   0.548 -1.6903 -0.0705 -1.7460
  406SOL     OW 1216  -0.001   1.528   2.969 -0.1509  0.1641  0.2295
  406SOL    HW1 1217   0.089   1.482   2.939  3.7953  0.7345 -0.4339
  406SOL    HW2 1218   0.000   1.555   3.067  1.1253  0.8114 -0.3206
  407SOL     OW 1219   1.509   0.899   0.924 -0.0940  0.0433  0.1800
  407SOL    HW1 1220   1.539   0.890   0.826  1.6627  1.5419  0.6313
  407SOL    HW2 1221   1.434   0.972   0.941 -0.2963 -1.0789 -2.9982
  408SOL     OW 1222   1.548   2.415   0.968  0.6790  0.1249 -0.1027
  408SOL    HW1 1223   1.613   2.407   0.890 -0.7720  1.1476 -0.1788
  408SOL    HW2 1224   1.584   2.468   1.053  0.1525  3.2785  4.3079
  409SOL     OW 1225   0.674   0.849   0.694 -0.4539 -0.4063  0.6579
  409SOL    HW1 1226   0.615   0.868   0.615 -0.0671 -0.9911  0.7394
  409SOL    HW2 1227   0.691   0.747   0.711 -0.3154 -1.6693  0.6482
  410SOL     OW 1228   1.272   2.025   1.477 -0.5049 -0.3938 -0.5477
  410SOL    HW1 1229   1.274   2.086   1.570  1.3141  5.9992 -0.6097
  410SOL    HW2 1230   1.191   1.964   1.458 -0.7686 -1.1736  0.3842
  411SOL     OW 1231   2.387   1.821   3.104  0.3024 -0.2248 -0.3210
  411SOL    HW1 1232   2.295   1.861   3.073 -1.3688 -2.9643 -0.2044
  411SOL    HW2 1233   2.433   1.778   3.022 -1.0599 -0.0068  0.8898
  412SOL     OW 1234   1.498   2.419   2.207  0.2500  0.6212 -0.0284
  412SOL    HW1 1235   1.545   2.450   2.295 -0.7968  0.3697  0.4944
  412SOL    HW2 1236   1.399   2.389   2.238  0.6136  3.1393  0.0686
  413SOL     OW 1237   3.038   0.247   2.981  0.6736  0.1454 -0.0824
  413SOL    HW1 1238   3.033   0.157   3.032 -1.9215 -2.1780  0.9602
  413SOL    HW2 1239   3.140   0.271   2.965  1.6427 -0.9561  0.6937
  414SOL     OW 1240   1.756   1.383   1.367 -0.4892  0.0266  0.7534
  414SOL    HW1 1241   1.670   1.423   1.413  1.2688 -0.3866  1.0911
  414SOL    HW2 1242   1.746   1.383   1.265 -1.0281 -1.0551  1.7366
  415SOL     OW 1243   0.356   2.266   0.630 -0.2226  0.0763 -0.5191
  415SOL    HW1 1244   0.308   2.359   0.611  0.5202 -1.3568 -0.1475
  415SOL    HW2 1245   0.283   2.190   0.647 -2.1968 -0.8737  0.5108
  416SOL     OW 1246   0.372   1.023   1.070 -0.0394  0.9055 -0.3778
  416SOL    HW1 1247   0.363   1.000   0.966  1.3459  1.1400 -2.0045
  416SOL    HW2 1248   0.468   1.055   1.087 -0.4330 -1.5229 -0.8218
  417SOL     OW 1249   2.120   2.367   1.917 -0.0991  0.2208 -0.1705
  417SOL    HW1 1250   2.119   2.279   1.869 -0.3381  2.1271  3.9302
  417SOL    HW2 1251   2.038   2.377   1.977  1.4096  0.5820 -2.4364
  418SOL     OW 1252   1.140   0.515   1.312 -0.4168  0.2851 -0.1798
  418SOL    HW1 1253   1.042   0.499   1.290  2.7405  0.2938  2.4097
  418SOL    HW2 1254   1.206   0.468   1.254  0.7221  0.3454  0.4321
  419SOL     OW 1255   1.004   0.377   3.050 -0.0088 -0.1597 -0.3262
  419SOL    HW1 1256   0.998   0.422   2.957 -0.6848  0.2534 -0.0008
  419SOL    HW2 1257   0.965   0.279   3.045  0.2530  0.5984  3.5960
  420SOL     OW 1258   0.228   2.257   0.336  0.5328  0.1207 -0.0424
  420SOL    HW1 1259   0.194   2.198   0.253 -0.7307 -1.5165 -0.6393
  420SOL    HW2 1260   0.151   2.270   0.401 -1.3885  0.7394 -1.0234
  421SOL     OW 1261   0.345   3.087   0.672  0.4193 -0.0439  0.2991
  421SOL    HW1 1262   0.312   2.994   0.697  1.9555  0.3276 -2.3394
  421SOL    HW2 1263   0.446   3.100   0.663 -0.0398 -1.8970  1.0809
  422SOL     OW 1264   0.926   2.500   1.033  0.2084  0.4488 -0.0795
  422SOL    HW1 1265   0.933   2.554   0.947 -2.0619 -0.9704  1.1342
  422SOL    HW2 1266   0.979   2.536   1.114  0.3720 -3.4904  2.8742
  423SOL     OW 1267   0.056   0.704   1.207  0.2972 -0.6258  0.2293
  423SOL    HW1 1268   0.007   0.667   1.292  0.6200 -1.7817 -1.5770
  423SOL    HW2 1269   0.002   0.776   1.150 -0.0070  3.0187 -1.1059
  424SOL     OW 1270   0.990   2.165   2.101 -0.3347  0.3588 -0.0843
  424SOL    HW1 1271   0.998   2.267   2.096  0.6022 -0.6914  1.4386
  424SOL    HW2 1272   0.953   2.134   2.194 -2.1962  0.2767 -3.4441
  425SOL     OW 1273   1.996   1.426   1.032 -0.0013  0.3830 -0.4304
  425SOL    HW1 1274   2.002   1.326   1.004  1.2103 -0.2001 -0.1934
  425SOL    HW2 1275   2.056   1.494   0.983 -2.5031 -2.3773  0.1072
  426SOL     OW 1276   1.530   1.545   1.425 -0.4599  0.1885  1.0601
  426SOL    HW1 1277   1.486   1.614   1.361  0.4153 -1.8083  1.0921
  426SOL    HW2 1278   1.529   1.573   1.523  3.6816  0.0783 -0.6801
  427SOL     OW 1279   1.906   2.394   2.091 -0.3743  0.4578  0.4608
  427SOL    HW1 1280   1.958   2.346   2.168  0.7634  2.0394 -0.4155
  427SOL    HW2 1281   1.906   2.500   2.105  3.9286  3.1877  0.0039
  428SOL     OW 1282   0.877   3.015   0.134 -0.3119 -0.4078  0.1157
  428SOL    HW1 1283   0.926   3.094   0.176 -0.6098 -1.5062 -0.3371
  428SOL    HW2 1284   0.943   2.945   0.093 -3.6666  0.2194  4.4622
  429SOL     OW 1285   1.315   0.079   0.224 -0.1052  0.1462  0.2372
  429SOL    HW1 1286   1.392   0.123   0.278 -1.5958  0.2554 -0.1259
  429SOL    HW2 1287   1.302   0.131   0.134  0.3175  3.7948 -1.8295
  430SOL     OW 1288   2.807   1.509   0.352  0.2747  0.9463 -0.0687
  430SOL    HW1 1289   2.829   1.577   0.277  2.1289 -1.1800  2.2028
  430SOL    HW2 1290   2.790   1.560   0.444 -1.8889  1.5373  1.6165
  431SOL     OW 1291   2.128   1.624   0.907 -0.0676  0.2242  0.0764
  431SOL    HW1 1292   2.197   1.688   0.947 -0.1986  1.6811 -3.0181
  431SOL    HW2 1293   2.044   1.674   0.868 -0.5131  0.5161  1.3958
  432SOL     OW 1294   2.918   2.261   1.220 -0.0626 -0.3620  0.2718
  432SOL    HW1 1295   2.836   2.208   1.244  0.6097 -2.0517 -0.3547
  432SOL    HW2 1296   2.971   2.285   1.303  4.0780 -0.9338  2.0307
  433SOL     OW 1297   1.835   0.352   0.824  0.3797 -0.4360  0.1436
  433SOL    HW1 1298   1.741   0.307   0.826  2.3138  0.0335  2.9869
  433SOL    HW2 1299   1.890   0.329   0.907 -0.0101  1.5087  1.0629
  434SOL     OW 1300   1.523   0.299   0.724  0.3808  0.2798  0.5886
  434SOL    HW1 1301   1.519   0.406   0.708  2.4723 -0.8495  0.5839
  434SOL    HW2 1302   1.540   0.277   0.821  0.5494 -1.0912  0.1856
  435SOL     OW 1303   1.426   1.447   2.107 -0.1358 -0.5179  0.7472
  435SOL    HW1 1304   1.392   1.459   2.204  1.6443 -0.8282  1.2711
  435SOL    HW2 1305   1.400   1.528   2.042  0.9401 -2.3834  0.8293
  436SOL     OW 1306   1.646   2.643   2.428 -0.8328 -0.4263 -0.2065
  436SOL    HW1 1307   1.643   2.740   2.476 -0.5837 -0.8686  1.1275
  436SOL    HW2 1308   1.605   2.569   2.487  2.8337 -3.1384  0.0522
  437SOL     OW 1309   1.093   2.907   0.933 -0.0667 -0.5887  0.1261
  437SOL    HW1 1310   1.034   2.980   0.891  2.4857  1.6796 -1.7970
  437SOL    HW2 1311   1.060   2.870   1.021  2.1046 -0.6936 -0.5155
  438SOL     OW 1312   1.100   2.547   1.277  0.1883  0.6959 -0.5432
  438SOL    HW1 1313   1.094   2.626   1.350  0.2758  1.6835  3.7668
  438SOL    HW2 1314   1.065   2.457   1.325 -0.9314  1.3361  2.6397
  439SOL     OW 1315   0.743   1.779   1.021 -0.0995  0.4627 -0.2724
  439SOL    HW1 1316   0.722   1.855   0.953  1.9316  1.1452 -3.2136
  439SOL    HW2 1317   0.652   1.748   1.059 -1.4488  1.6882  1.5274
  440SOL     OW 1318   1.031   2.446   2.043  0.4058  0.1250  0.2682
  440SOL    HW1 1319   0.982   2.492   1.963  1.2415 -0.3392  0.2455
  440SOL    HW2 1320   1.137   2.459   2.039  0.7715 -0.9535  1.6337
  441SOL     OW 1321   0.368   2.720   1.433  0.7206  1.2325  0.1711
  441SOL    HW1 1322   0.425   2.634   1.423  0.0890 -2.9157 -0.1039
  441SOL    HW2 1323   0.327   2.766   1.347 -0.5637 -0.0355 -2.1554
  442SOL     OW 1324   2.230   0.648   2.599  0.0274  1.1150 -0.0437
  442SOL    HW1 1325   2.223   0.575   2.523  0.6314 -0.4178  0.6669
  442SOL    HW2 1326   2.150   0.715   2.597  0.6752 -0.9317  2.2271
  443SOL     OW 1327   1.265   2.673   2.207 -0.2986  0.0004 -0.4130
  443SOL    HW1 1328   1.206   2.589   2.178  0.5861  1.0619 -2.2158
  443SOL    HW2 1329   1.224   2.726   2.287 -0.1419 -0.9024  1.4322
  444SOL     OW 1330   1.027   1.218   1.489 -0.1295 -0.2468 -0.1111
  444SOL    HW1 1331   1.120   1.203   1.448 -1.9524  0.2039 -2.1029
  444SOL    HW2 1332   1.031   1.262   1.575  0.8607 -2.1363  0.6041
  445SOL     OW 1333   0.067   2.317   1.962 -0.7809  0.6857 -0.4747
  445SOL    HW1 1334   0.048   2.269   1.874 -2.0527  1.1344  1.6763
  445SOL    HW2 1335  -0.018   2.371   1.990 -3.1492  1.1555  0.5938
  446SOL     OW 1336   0.167   1.942   2.375  0.3736 -0.2932 -0.1603
  446SOL    HW1 1337   0.135   2.038   2.356  0.4021 -0.9114 -1.6864
  446SOL    HW2 1338   0.132   1.874   2.311 -0.1620  1.0366 -0.3347
  447SOL     OW 1339   1.247   1.686   1.950 -0.6426 -0.0868 -0.5600
  447SOL    HW1 1340   1.149   1.719   1.959  0.2320 -0.2451  0.4994
  447SOL    HW2 1341   1.322   1.742   1.996 -1.0344  0.0709 -2.0327
  448SOL     OW 1342   0.170   1.420   2.027 -0.1997 -0.2334 -0.3793
  448SOL    HW1 1343   0.157   1.488   1.955  1.9448 -1.1370  2.5404
  448SOL    HW2 1344   0.112   1.434   2.111 -1.2173 -1.0563  1.9891
  449SOL     OW 1345   1.849   2.928   0.842 -0.1908  0.4611  0.5512
  449SOL    HW1 1346   1.826   2.943   0.945 -0.1285  0.1406  0.2450
  449SOL    HW2 1347   1.897   2.842   0.823  1.4047 -0.5962  1.6290
  450SOL     OW 1348   2.256   1.474   0.680  0.5431  0.5392  0.2051
  450SOL    HW1 1349   2.198   1.526   0.744 -1.3338 -2.8847 -1.2867
  450SOL    HW2 1350   2.288   1.530   0.597  1.0212 -0.4535 -1.7821
  451SOL     OW 1351   1.393   3.057   1.498  0.5470  0.3176 -0.5402
  451SOL    HW1 1352   1.299   3.107   1.511 -0.6934  0.7853  2.0076
  451SOL    HW2 1353   1.409   2.994   1.573 -1.9088  5.8104 -2.7258
  452SOL     OW 1354   2.651   2.291   2.280 -0.0113 -0.5829 -0.8096
  452SOL    HW1 1355   2.606   2.381   2.296  0.8029 -0.7493  0.5216
  452SOL    HW2 1356   2.690   2.247   2.368 -0.2156 -0.1075 -1.1198
  453SOL     OW 1357   2.472   2.665   0.015 -0.0042 -0.1768  0.4458
  453SOL    HW1 1358   2.396   2.739   0.013 -1.3556  3.7963  2.0877
  453SOL    HW2 1359   2.446   2.586  -0.047  2.2338  2.0857 -1.2242
  454SOL     OW 1360   0.932   1.131   2.016  0.7039 -0.0894  0.0785
  454SOL    HW1 1361   0.941   1.087   1.924 -1.5070  2.5375 -0.4624
  454SOL    HW2 1362   0.995   1.210   2.030  2.7491 -2.4975 -0.1002
  455SOL     OW 1363   0.664   2.679   2.831 -0.4610  0.2379 -0.5469
  455SOL    HW1 1364   0.757   2.729   2.827  2.4833  0.6942  0.7969
  455SOL    HW2 1365   0.665   2.587   2.876  2.3076 -2.5510  1.0878
  456SOL     OW 1366   0.378   1.899   0.227  0.1639 -0.2997  0.2986
  456SOL    HW1 1367   0.453   1.837   0.265 -0.3395 -0.6027 -0.0980
  456SOL    HW2 1368   0.422   1.995   0.219  2.5510 -2.2508 -1.3224
  457SOL     OW 1369   0.390   2.789   0.639 -0.2139 -0.0719 -0.4508
  457SOL    HW1 1370   0.402   2.838   0.543 -1.6115  1.3412 -4.0181
  457SOL    HW2 1371   0.475   2.745   0.674  0.4166 -0.4416  1.6488
  458SOL     OW 1372   2.813   0.034   1.212 -0.1828  0.0049 -0.4818
  458SOL    HW1 1373   2.863   0.118   1.185 -0.9912  1.2568  2.9822
  458SOL    HW2 1374   2.833  -0.047   1.153 -0.8561  0.7792 -0.2311
  459SOL     OW 1375   2.203   2.539   0.810  0.3679 -0.0108  0.5124
  459SOL    HW1 1376   2.264   2.599   0.866  0.1586 -2.0053 -0.4384
  459SOL    HW2 1377   2.247   2.454   0.780 -1.0156  1.8776  0.0449
  460SOL     OW 1378   1.219   2.057   2.781  0.3714  0.1908 -0.1417
  460SOL    HW1 1379   1.257   2.069   2.686 -1.6045  0.7444  0.8134
  460SOL    HW2 1380   1.228   1.961   2.820 -1.5967 -0.7555 -3.5446
  461SOL     OW 1381   0.456   2.096   2.725  0.6056 -0.0054 -0.2818
  461SOL    HW1 1382   0.405   2.027   2.672  2.9222  0.6237  1.3480
  461SOL    HW2 1383   0.461   2.074   2.826  2.1937 -2.3720 -2.6376
  462SOL     OW 1384   0.967   1.051   1.770  0.4893  0.2716 -0.4361
  462SOL    HW1 1385   0.972   0.983   1.693  0.9919  0.6130 -1.8976
  462SOL    HW2 1386   0.920   1.138   1.737 -0.4015  1.1493 -1.8183
  463SOL     OW 1387   0.460   0.871   0.489  0.3201 -0.1919 -0.0650
  463SOL    HW1 1388   0.489   0.787   0.441  0.0592 -1.3307 -1.9542
  463SOL    HW2 1389   0.364   0.859   0.529 -0.1025 -2.2227  2.1171
  464SOL     OW 1390   0.617   2.334   2.192  0.6983  0.3804  0.0674
  464SOL    HW1 1391   0.555   2.397   2.243 -1.1153 -4.0305 -0.0546
  464SOL    HW2 1392   0.611   2.347   2.091 -2.7240 -0.4210  3.0899
  465SOL     OW 1393   0.263   0.907   0.836  0.4017  0.0052  0.0118
  465SOL    HW1 1394   0.178   0.932   0.789 -0.0180  1.1107  1.8306
  465SOL    HW2 1395   0.283   0.809   0.828  0.8241  1.6496 -1.8846
  466SOL     OW 1396   1.384   1.152   1.037  0.4778  0.0722  0.3021
  466SOL    HW1 1397   1.388   1.248   0.998 -1.4143  1.3008  1.6155
  466SOL    HW2 1398   1.287   1.125   1.044  1.0345  0.8729  2.8974
  467SOL     OW 1399   0.613   0.420   2.463  0.4637 -0.1014 -0.1418
  467SOL    HW1 1400   0.554   0.505   2.470 -0.1242  1.7559 -2.3993
  467SOL    HW2 1401   0.616   0.369   2.552  0.0397  0.4881 -0.5523
  468SOL     OW 1402   0.385   2.265   1.614 -0.1352 -0.0663  0.2506
  468SOL    HW1 1403   0.466   2.316   1.653 -1.8577  1.5101 -1.2022
  468SOL    HW2 1404   0.404   2.248   1.514 -2.6671 -0.0164  0.3880
  469SOL     OW 1405   1.454   1.302   1.332  0.6104  0.0574  0.4400
  469SOL    HW1 1406   1.543   1.276   1.279 -0.8811 -0.7058  1.5639
  469SOL    HW2 1407   1.455   1.400   1.352  0.7669 -2.5604  2.9784
  470SOL     OW 1408   3.013   1.818   0.714 -0.0906  0.6050 -0.0853
  470SOL    HW1 1409   3.087   1.879   0.669  0.4571  1.9907 -1.8280
  470SOL    HW2 1410   3.036   1.785   0.806  0.5173 -1.1288  1.6793
  471SOL     OW 1411   2.588   1.365   2.159  0.4325 -0.2990  0.0190
  471SOL    HW1 1412   2.565   1.285   2.218 -2.2269  2.1754 -0.9091
  471SOL    HW2 1413   2.682   1.405   2.179  0.0462  0.6034  1.1462
  472SOL     OW 1414   1.167   2.381   0.097  0.0168 -0.2682 -0.0762
  472SOL    HW1 1415   1.236   2.377   0.177  1.3009  0.4700 -1.5590
  472SOL    HW2 1416   1.069   2.366   0.121  1.8648 -0.9200  0.2268
  473SOL     OW 1417   1.091   1.490   1.030 -0.6496  0.2547 -0.0009
  473SOL    HW1 1418   1.002   1.501   0.977  1.4293 -0.7622 -0.7253
  473SOL    HW2 1419   1.079   1.427   1.109 -0.1550 -0.2303  0.4082
  474SOL     OW 1420   0.652   1.271   0.571 -0.3354  0.5093  0.7622
  474SOL    HW1 1421   0.575   1.215   0.525 -0.1474  1.8820 -1.8773
  474SOL    HW2 1422   0.728   1.204   0.588 -0.7726  0.0001 -1.1913
  475SOL     OW 1423   2.833   0.023   0.803  0.0963  0.3213  0.2611
  475SOL    HW1 1424   2.906   0.099   0.807 -1.1755 -0.3778 -1.4716
  475SOL    HW2 1425   2.737   0.051   0.835  1.3804  0.4687  0.2926
  476SOL     OW 1426   0.994   2.979   1.775 -0.1290 -0.2644 -0.0889
  476SOL    HW1 1427   1.088   2.967   1.812  0.3801 -1.1677  1.1505
  476SOL    HW2 1428   0.988   2.969   1.672  1.4071  0.9393  0.7491
  477SOL     OW 1429   1.460   0.314   2.411 -0.5195  0.1045 -0.0147
  477SOL    HW1 1430   1.445   0.328   2.515 -1.6436 -3.6286 -0.3188
  477SOL    HW2 1431   1.551   0.274   2.386 -0.0184  0.4079 -1.0604
  478SOL     OW 1432   2.223   1.857   0.253  0.4198  0.0540 -0.4531
  478SOL    HW1 1433   2.171   1.778   0.293 -0.7403 -3.9237 -1.0068
  478SOL    HW2 1434   2.279   1.823   0.172 -1.5774  0.3666  1.4715
  479SOL     OW 1435   1.261   0.956   2.912  0.2887 -0.1842 -1.0600
  479SOL    HW1 1436   1.349   0.954   2.853  0.2152  0.8122 -0.8978
  479SOL    HW2 1437   1.198   0.876   2.888  0.1795 -1.3792 -0.5535
  480SOL     OW 1438   2.605   2.341   0.373 -0.8185 -0.0522  0.0877
  480SOL    HW1 1439   2.582   2.261   0.436 -2.9691  0.1120 -1.5480
  480SOL    HW2 1440   2.520   2.383   0.324 -1.2362  1.6307 -1.1013
  481SOL     OW 1441   0.996   1.181   0.817 -0.2143 -0.2302  0.4379
  481SOL    HW1 1442   1.010   1.254   0.749 -0.1293 -2.5802 -0.0746
  481SOL    HW2 1443   1.049   1.195   0.908 -1.9991 -0.8789 -1.1610
  482SOL     OW 1444   1.556   0.322   1.989  0.0855 -0.0493  0.0054
  482SOL    HW1 1445   1.556   0.418   1.955 -0.9634 -0.5722 -1.3824
  482SOL    HW2 1446   1.653   0.280   2.001 -1.6234 -0.4798  1.4762
  483SOL     OW 1447   0.156   2.324   1.246 -0.2427 -0.2605  0.2565
  483SOL    HW1 1448   0.135   2.400   1.311  1.6674  1.0488 -1.1173
  483SOL    HW2 1449   0.135   2.336   1.145 -2.0923  0.6665  0.0979
  484SOL     OW 1450   1.777   1.094   1.352  0.0440  0.0824 -0.6551
  484SOL    HW1 1451   1.820   1.019   1.410 -2.3574  1.4848 -1.3367
  484SOL    HW2 1452   1.787   1.192   1.384 -2.1720  0.9559  0.6045
  485SOL     OW 1453   0.772   0.759   1.779 -0.3940  0.2243  0.5026
  485SOL    HW1 1454   0.767   0.828   1.702 -0.6208  2.8096  0.0565
  485SOL    HW2 1455   0.862   0.762   1.825  0.5086 -2.6432 -0.9781
  486SOL     OW 1456   0.846   1.854   2.435 -0.1322  0.1885  0.4886
  486SOL    HW1 1457   0.883   1.843   2.534  0.2701 -0.4517 -1.3011
  486SOL    HW2 1458   0.814   1.947   2.409  4.4797  1.8781  0.3392
  487SOL     OW 1459   1.749   1.577   0.964  0.2478 -0.0871 -0.6002
  487SOL    HW1 1460   1.806   1.503   1.010  0.5905 -0.3794  1.1453
  487SOL    HW2 1461   1.805   1.638   0.906 -1.5609 -1.3766 -0.0542
  488SOL     OW 1462   2.966   0.863   2.315 -0.5441 -0.0843  0.0083
  488SOL    HW1 1463   3.000   0.779   2.264 -0.7322 -1.3581 -0.2941
  488SOL    HW2 1464   2.968   0.854   2.418  0.5126  0.5278  1.1083
  489SOL     OW 1465   2.786   0.376   1.276 -0.1504 -0.3118  0.7406
  489SOL    HW1 1466   2.770   0.324   1.363  2.7842  0.6389  0.8247
  489SOL    HW2 1467   2.871   0.342   1.228 -0.0874  1.0633  1.6815
  490SOL     OW 1468   1.408   2.950   2.795 -0.5827 -0.0789 -0.4096
  490SOL    HW1 1469   1.478   2.871   2.806 -0.1469 -0.4342 -0.8619
  490SOL    HW2 1470   1.363   2.961   2.701  0.5373  2.1012  0.3320
  491SOL     OW 1471   1.727   1.504   2.669 -0.0613  0.6026 -0.0991
  491SOL    HW1 1472   1.655   1.494   2.745 -0.1101 -1.0497 -0.7543
  491SOL    HW2 1473   1.822   1.535   2.704 -3.5023 -0.8827 -1.2826
  492SOL     OW 1474   0.567   2.059   0.625  0.0332 -0.1387  0.3743
  492SOL    HW1 1475   0.587   2.045   0.730  0.3397 -0.9311  2.4793
  492SOL    HW2 1476   0.521   2.147   0.608  1.5404 -2.8040  1.1568
  493SOL     OW 1477   0.496   1.390   2.069 -0.3531  0.0428 -0.1906
  493SOL    HW1 1478   0.418   1.451   2.037 -0.6790  0.8361 -1.0409
  493SOL    HW2 1479   0.460   1.292   2.071  0.4517  1.4222  0.4181
  494SOL     OW 1480   2.708   2.546   0.090  0.3374  0.2583 -0.7327
  494SOL    HW1 1481   2.729   2.534   0.191  1.6654 -2.2972 -0.1357
  494SOL    HW2 1482   2.617   2.590   0.075 -0.0308  1.0909  2.2271
  495SOL     OW 1483   2.551   2.770   2.606  0.7307 -0.7885 -0.3821
  495SOL    HW1 1484   2.546   2.664   2.597 -2.6894  0.7861  0.0937
  495SOL    HW2 1485   2.626   2.810   2.539  0.0053 -0.0947 -2.3136
  496SOL     OW 1486   2.024   2.289   0.823 -0.1251 -0.0893 -0.0512
  496SOL    HW1 1487   2.050   2.356   0.895  3.6871 -0.9977 -0.4826
  496SOL    HW2 1488   2.051   2.188   0.843  1.6813 -1.2668 -0.0002
  497SOL     OW 1489   0.131   3.014   2.366  0.2652  0.1508 -0.0361
  497SOL    HW1 1490   0.115   3.081   2.445  2.4671 -1.2114  1.3028
  497SOL    HW2 1491   0.191   3.055   2.286  1.4550  2.2338 -0.8375
  498SOL     OW 1492   1.189   1.327   1.255  0.2099 -0.4740  0.1042
  498SOL    HW1 1493   1.291   1.316   1.273  1.1123 -1.6971  1.1525
  498SOL    HW2 1494   1.148   1.399   1.325  0.1665 -0.2182 -0.2498
  499SOL     OW 1495   0.630   1.798   0.266 -0.2564  0.4208 -0.6899
  499SOL    HW1 1496   0.636   1.735   0.189 -0.1031 -0.4916  1.8691
  499SOL    HW2 1497   0.722   1.815   0.309  1.3915  3.7222  2.6068
  500SOL     OW 1498   1.420   2.878   1.682 -0.9078 -0.3570 -0.1516
  500SOL    HW1 1499   1.433   2.896   1.787  0.4514  1.1702  0.9173
  500SOL    HW2 1500   1.464   2.786   1.661 -1.2513  2.0805 -0.9980
  501SOL     OW 1501   0.786   1.154   2.251 -0.1232  0.4393  0.3028
  501SOL    HW1 1502   0.710   1.087   2.266 -1.6156  0.3058  1.9817
  501SOL    HW2 1503   0.843   1.132   2.172 -3.9206  0.6974  4.4143
  502SOL     OW 1504   2.594   0.945   1.783 -0.8108 -0.5481 -0.2889
  502SOL    HW1 1505   2.592   0.958   1.679  0.3225 -1.7875  1.4910
  502SOL    HW2 1506   2.598   0.843   1.811 -2.3648 -0.8199 -0.3062
  503SOL     OW 1507   1.298   0.161   0.599 -0.1198 -0.0252 -0.5860
  503SOL    HW1 1508   1.221   0.230   0.616 -1.1024  2.5530 -0.2706
  503SOL    HW2 1509   1.384   0.180   0.654  0.7094 -0.3071  2.2711
  504SOL     OW 1510   3.023   2.345   1.489  0.1582 -0.2439 -0.4592
  504SOL    HW1 1511   2.971   2.416   1.545 -2.8224 -0.2180 -0.1116
  504SOL    HW2 1512   3.038   2.258   1.541 -1.7567  1.4259 -0.5384
  505SOL     OW 1513   2.263   1.164   1.412  0.3862  0.4989  0.0281
  505SOL    HW1 1514   2.253   1.199   1.312  3.2122 -0.5615  1.9315
  505SOL    HW2 1515   2.347   1.201   1.459  0.5817  1.5145 -2.5803
  506SOL     OW 1516   1.942   0.199   1.805 -0.6734  0.2957 -0.1380
  506SOL    HW1 1517   2.014   0.120   1.812 -0.2772 -1.2765  0.0395
  506SOL    HW2 1518   1.983   0.285   1.850  1.9313 -1.7316  1.2107
  507SOL     OW 1519   0.551   0.711   2.188  0.1582 -0.6123 -0.0602
  507SOL    HW1 1520   0.461   0.654   2.163  1.4608 -0.4350 -0.0611
  507SOL    HW2 1521   0.636   0.656   2.179 -0.4297  1.4240 -0.0905
  508SOL     OW 1522   0.328   1.663   0.784 -0.2078 -0.3084  0.2209
  508SOL    HW1 1523   0.367   1.741   0.728  0.6647  2.5850 -0.0380
  508SOL    HW2 1524   0.297   1.695   0.881 -0.0837  0.2835  2.5981
  509SOL     OW 1525   1.288   1.191   2.453 -0.1829 -0.0587 -0.7132
  509SOL    HW1 1526   1.363   1.160   2.391 -0.9103  2.3965  0.5308
  509SOL    HW2 1527   1.215   1.117   2.468 -1.4153 -1.8008  3.5127
  510SOL     OW 1528   1.270   2.075   2.220 -0.3389  0.6576  0.3208
  510SOL    HW1 1529   1.320   2.080   2.130 -0.6335 -0.1489  3.8530
  510SOL    HW2 1530   1.206   1.993   2.225  1.9572 -1.2834 -1.9502
  511SOL     OW 1531   3.021   2.712   1.266 -0.0920 -0.4547  0.6001
  511SOL    HW1 1532   3.030   2.720   1.157 -0.6274  1.4256 -2.0050
  511SOL    HW2 1533   2.921   2.721   1.292  0.3427 -0.0918 -0.4529
  512SOL     OW 1534   2.387   0.444   1.366  0.0634  0.6269  0.0044
  512SOL    HW1 1535   2.292   0.488   1.343  1.2787  1.3226  1.1022
  512SOL    HW2 1536   2.434   0.404   1.282  3.5613  1.4438  1.8688
  513SOL     OW 1537   2.565   2.172   0.933 -0.1614  0.3026  0.1713
  513SOL    HW1 1538   2.513   2.245   0.883  1.5862 -1.9524  0.8929
  513SOL    HW2 1539   2.670   2.180   0.924  0.3670 -1.4613  1.4666
  514SOL     OW 1540   0.671   2.758   0.402  0.1391  1.1230  0.5592
  514SOL    HW1 1541   0.691   2.762   0.300 -0.1165  0.0920 -0.8000
  514SOL    HW2 1542   0.664   2.849   0.447 -0.2414 -0.0874 -1.7808
  515SOL     OW 1543   1.918   1.374   2.383 -0.0443 -0.3681 -0.7311
  515SOL    HW1 1544   1.927   1.318   2.295  0.1814 -0.6523  3.1155
  515SOL    HW2 1545   1.846   1.338   2.452 -2.5214  1.2083 -0.7607
  516SOL     OW 1546   0.291   0.309   1.896 -0.0062  0.2546  0.0756
  516SOL    HW1 1547   0.386   0.260   1.885  0.7724  0.0550 -3.0967
  516SOL    HW2 1548   0.211   0.257   1.865 -0.1927  2.0925  1.7496
  517SOL     OW 1549   0.470   0.131   1.134 -0.2344 -0.6068 -0.6171
  517SOL    HW1 1550   0.531   0.111   1.217  1.5565  0.4838  2.8972
  517SOL    HW2 1551   0.375   0.078   1.143 -1.4055 -3.7016 -1.8885
  518SOL     OW 1552   2.121   3.086   1.793 -0.0378  0.4640  0.0680
  518SOL    HW1 1553   2.199   3.156   1.808  1.3644 -1.5382  0.5841
  518SOL    HW2 1554   2.143   3.034   1.700 -1.0969 -1.9156 -2.8924
  519SOL     OW 1555   2.311   2.148   2.506 -0.1849 -0.3604 -0.3875
  519SOL    HW1 1556   2.268   2.129   2.605 -4.0859 -0.8778  1.0177
  519SOL    HW2 1557   2.338   2.251   2.484 -1.2944  0.2002  0.8164
  520SOL     OW 1558   1.821   2.726   1.729 -0.0566 -0.7059  0.0811
  520SOL    HW1 1559   1.742   2.668   1.775 -0.9000 -1.3918  1.0748
  520SOL    HW2 1560   1.895   2.662   1.696 -4.2437  2.1033 -1.1451
  521SOL     OW 1561   0.552   0.001   2.103  0.0243 -0.0214 -0.5196
  521SOL    HW1 1562   0.453  -0.012   2.131 -1.1045 -1.2728  1.5152
  521SOL    HW2 1563   0.622   0.012   2.180 -2.1839  1.4731 -1.1434
  522SOL     OW 1564   0.218   1.857   1.507 -0.4306 -0.1619  0.6593
  522SOL    HW1 1565   0.232   1.908   1.595 -3.2320 -2.4316  0.8647
  522SOL    HW2 1566   0.194   1.919   1.426  1.8701 -2.5473 -0.1020
  523SOL     OW 1567   2.181   2.921   1.516 -0.2126  0.0508  0.3047
  523SOL    HW1 1568   2.257   2.849   1.506  0.9058  0.9514 -0.1201
  523SOL    HW2 1569   2.109   2.901   1.447  2.6420 -2.3219 -2.0786
  524SOL     OW 1570   0.192   2.783   2.829  0.2768  0.2400  0.5625
  524SOL    HW1 1571   0.161   2.861   2.884 -0.8801  2.1045  0.1836
  524SOL    HW2 1572   0.279   2.800   2.770 -1.9517 -1.3923  1.3436
  525SOL     OW 1573   2.175   2.049   0.434 -0.0469 -0.0172 -0.6603
  525SOL    HW1 1574   2.130   2.005   0.518  1.4223  1.3332 -2.8059
  525SOL    HW2 1575   2.196   1.981   0.356  1.1893 -2.4712 -0.6874
  526SOL     OW 1576   0.417   1.546   1.832  0.5018 -0.0776  0.1737
  526SOL    HW1 1577   0.470   1.597   1.910  0.5299  1.4033 -0.5236
  526SOL    HW2 1578   0.468   1.452   1.819  2.6880 -3.7936  0.1662
  527SOL     OW 1579   1.074   2.910   1.208  0.8414 -0.7901  0.1497
  527SOL    HW1 1580   1.126   2.839   1.257  1.0034  1.4045 -0.4079
  527SOL    HW2 1581   1.128   2.998   1.211 -1.9874  2.7784 -3.4871
  528SOL     OW 1582   1.359   2.341   0.536 -0.0619  0.3952 -0.2129
  528SOL    HW1 1583   1.401   2.240   0.546 -1.0753 -1.2614 -2.4066
  528SOL    HW2 1584   1.421   2.411   0.572 -0.1160 -2.1148 -2.0256
  529SOL     OW 1585   1.915   1.741   0.796  0.2107  0.5499 -0.6260
  529SOL    HW1 1586   1.847   1.743   0.713 -0.1344  0.9532 -2.5446
  529SOL    HW2 1587   1.929   1.837   0.839  0.4911  2.2387 -2.7755
  530SOL     OW 1588   0.443   2.552   0.156 -0.9361  0.3979 -0.2853
  530SOL    HW1 1589   0.441   2.526   0.252 -0.0468  0.7450  1.6243
  530SOL    HW2 1590   0.453   2.467   0.095 -1.0697 -1.0836  2.2392
  531SOL     OW 1591   1.829   0.973   1.090 -0.3473 -0.4876  0.6093
  531SOL    HW1 1592   1.760   0.916   1.036 -0.2553  0.6664 -0.0891
  531SOL    HW2 1593   1.792   1.008   1.184  0.0420  0.3808  3.5122
  532SOL     OW 1594   0.291   1.206   0.701 -0.4589 -1.2388  0.1402
  532SOL    HW1 1595   0.372   1.203   0.631  1.4947 -0.9974 -0.4387
  532SOL    HW2 1596   0.231   1.122   0.706 -2.0002  0.1994 -0.0086
  533SOL     OW 1597   1.788   0.019   2.558 -0.1185 -0.4991  0.5218
  533SOL    HW1 1598   1.890   0.003   2.558 -0.8567  0.3486  0.7978
  533SOL    HW2 1599   1.745   0.063   2.646  0.0036  3.9849  2.1446
  534SOL     OW 1600   0.227   0.206   1.522  0.4603  0.3943 -0.3031
  534SOL    HW1 1601   0.311   0.249   1.476 -1.3701  0.6365 -1.4984
  534SOL    HW2 1602   0.154   0.277   1.534  2.5994  0.4509  0.2959
  535SOL     OW 1603   1.847   0.316   0.221  0.0304  0.0524 -0.0575
  535SOL    HW1 1604   1.879   0.396   0.276 -0.1734  2.9923 -4.2037
  535SOL    HW2 1605   1.757   0.277   0.248  3.3545  2.5362  2.0240
  536SOL     OW 1606   1.305   2.624   0.937  0.8494 -0.6385 -0.0036
  536SOL    HW1 1607   1.358   2.540   0.906  0.9259 -1.1316 -3.0685
  536SOL    HW2 1608   1.214   2.637   0.893  3.2205  0.7055  1.3935
  537SOL     OW 1609   0.896   0.212   2.355 -0.3405 -0.0006 -0.4658
  537SOL    HW1 1610   0.947   0.231   2.262 -0.1247  2.7441 -0.1414
  537SOL    HW2 1611   0.791   0.214   2.351 -0.6639  0.3253  0.1097
  538SOL     OW 1612   1.660   2.332   1.506 -0.2414 -0.0642 -0.4155
  538SOL    HW1 1613   1.638   2.247   1.452 -1.4039  0.4432 -3.0814
  538SOL    HW2 1614   1.752   2.365   1.470  0.9691 -2.1551 -1.5702
  539SOL     OW 1615   0.179   1.594   2.696 -0.2030 -0.1235 -0.4274
  539SOL    HW1 1616   0.088   1.592   2.647  1.6934  1.0785  2.3967
  539SOL    HW2 1617   0.205   1.694   2.716 -3.2165 -2.4804 -1.0596
  540SOL     OW 1618   2.714   1.694   1.987  0.0776 -0.3775  0.0924
  540SOL    HW1 1619   2.643   1.630   1.958 -1.4054  2.5696 -3.5628
  540SOL    HW2 1620   2.681   1.789   1.988 -0.7783  0.0883  2.4082
  541SOL     OW 1621   0.438   2.335   3.083  0.2009  0.3431  0.5409
  541SOL    HW1 1622   0.490   2.255   3.136  2.5934 -1.3465 -2.6900
  541SOL    HW2 1623   0.354   2.293   3.036  1.7243  1.5280 -0.0963
  542SOL     OW 1624   2.241   2.569   0.475  0.2177 -0.3746 -0.3359
  542SOL    HW1 1625   2.222   2.671   0.459 -0.4381  1.1577  2.2219
  542SOL    HW2 1626   2.155   2.512   0.481  1.5396  2.6867 -1.3485
  543SOL     OW 1627   0.988   1.793   1.715 -0.0289 -0.1979 -0.2389
  543SOL    HW1 1628   0.988   1.819   1.817  0.0810 -0.6733  2.2540
  543SOL    HW2 1629   0.920   1.849   1.663  0.2686 -0.1489  2.4644
  544SOL     OW 1630   0.910   0.410   0.224 -0.3690 -0.4504  0.0665
  544SOL    HW1 1631   0.914   0.361   0.313 -1.8079 -1.4586 -1.6678
  544SOL    HW2 1632   0.960   0.362   0.147  1.0587  2.5430  0.1240
  545SOL     OW 1633   1.129   1.723   0.606 -0.4604  0.0082  0.1857
  545SOL    HW1 1634   1.220   1.724   0.661 -1.0116  0.4582  1.0667
  545SOL    HW2 1635   1.140   1.737   0.503  0.5043 -1.2235  0.3668
  546SOL     OW 1636   2.650   1.539  -0.003 -0.1225 -0.0802 -0.5280
  546SOL    HW1 1637   2.562   1.538  -0.051 -0.9553  0.3116 -2.5927
  546SOL    HW2 1638   2.651   1.502   0.094  1.0905  0.4233 -2.9378
  547SOL     OW 1639   0.538   0.019   2.778  0.4758 -0.0140  0.0482
  547SOL    HW1 1640   0.604  -0.038   2.719 -2.3375  0.3070 -3.5041
  547SOL    HW2 1641   0.548   0.004   2.876 -4.0224  0.8189 -0.9869
  548SOL     OW 1642   2.070   0.835   3.031 -0.2929  0.2444  0.0520
  548SOL    HW1 1643   1.966   0.810   3.043 -1.9954 -1.7428 -1.2140
  548SOL    HW2 1644   2.083   0.937   3.042 -4.0833 -0.5283 -0.9846
  549SOL     OW 1645   0.628   0.477   0.177  0.4492  1.0139  0.0928
  549SOL    HW1 1646   0.626   0.542   0.093  1.9752  0.7026 -0.7926
  549SOL    HW2 1647   0.732   0.455   0.199  2.3493 -1.4036 -1.4396
  550SOL     OW 1648   2.561   2.860   2.860 -0.3404 -0.3133 -0.0117
  550SOL    HW1 1649   2.517   2.789   2.919 -0.1696  1.5775  1.0236
  550SOL    HW2 1650   2.581   2.836   2.766  0.7060  0.3678  2.6797
  551SOL     OW 1651   0.260   0.912   0.198  0.2393  0.1330  1.1190
  551SOL    HW1 1652   0.351   0.862   0.200 -0.1693  3.0452 -0.9025
  551SOL    HW2 1653   0.238   0.954   0.292  0.8302 -0.4658  2.4385
  552SOL     OW 1654   0.788   2.838   1.851  0.6487  0.9877 -0.8890
  552SOL    HW1 1655   0.735   2.887   1.931 -1.2041  0.8450  1.4723
  552SOL    HW2 1656   0.867   2.900   1.816  2.0132 -2.9927  2.4469
  553SOL     OW 1657   3.070   2.531   0.356  0.3522 -0.2490 -0.0677
  553SOL    HW1 1658   3.015   2.439   0.352 -1.2695  0.6382  1.7532
  553SOL    HW2 1659   3.025   2.586   0.436  1.3803  0.6468  0.3140
  554SOL     OW 1660   2.230   0.311   0.562  0.7266  0.2474  0.1514
  554SOL    HW1 1661   2.322   0.324   0.517 -1.2579  0.2371  1.4313
  554SOL    HW2 1662   2.231   0.247   0.643 -0.0147 -1.8213  0.1895
  555SOL     OW 1663   0.418   2.902   2.437  0.1799 -0.5541  0.5527
  555SOL    HW1 1664   0.329   2.934   2.395  0.7627  3.1864 -0.7094
  555SOL    HW2 1665   0.453   2.826   2.378  0.2373 -0.3729 -1.7713
  556SOL     OW 1666   0.916   2.370   1.691 -0.0905  0.2397 -0.3127
  556SOL    HW1 1667   0.940   2.464   1.729  0.2644  0.3768  0.4831
  556SOL    HW2 1668   0.979   2.337   1.615  1.0504  0.4316 -0.9211
  557SOL     OW 1669   0.126   2.097   0.119 -0.3705 -0.0324  0.3195
  557SOL    HW1 1670   0.046   2.040   0.080 -0.6418 -0.5275 -1.7894
  557SOL    HW2 1671   0.147   2.173   0.049  2.3068 -1.2051  0.9364
  558SOL     OW 1672   2.955   2.273   0.335 -0.1732  0.0094 -0.0677
  558SOL    HW1 1673   2.868   2.218   0.354 -1.3712  1.7433  5.1918
  558SOL    HW2 1674   2.971   2.288   0.234 -1.1126 -1.1361  1.1013
  559SOL     OW 1675   0.410   2.267   1.335 -0.4191 -0.0250 -0.4943
  559SOL    HW1 1676   0.325   2.291   1.275 -3.6169 -1.9421 -1.1346
  559SOL    HW2 1677   0.460   2.184   1.302 -0.2604  1.0345  0.3185
  560SOL     OW 1678   2.090   1.114   3.078  0.0044 -0.4921 -0.4013
  560SOL    HW1 1679   2.018   1.188   3.088  0.6616  2.1040  0.3852
  560SOL    HW2 1680   2.191   1.143   3.089  1.0018 -2.7444 -1.0603
  561SOL     OW 1681   3.010   1.945   0.004 -0.0675 -0.5602  0.1456
  561SOL    HW1 1682   2.952   1.886   0.069 -2.6738  0.0756 -1.2865
  561SOL    HW2 1683   2.940   2.012  -0.045 -1.5346  1.2829 -4.2356
  562SOL     OW 1684   0.906   2.139   2.353  0.9441 -0.1091  0.6074
  562SOL    HW1 1685   0.802   2.154   2.369 -1.7005 -0.7598 -1.8285
  562SOL    HW2 1686   0.962   2.180   2.422 -1.5814 -0.7383 -1.9703
  563SOL     OW 1687   0.689   2.444   2.600  0.3045 -0.3855 -0.1263
  563SOL    HW1 1688   0.769   2.372   2.613 -1.3253 -3.0362 -1.1739
  563SOL    HW2 1689   0.654   2.476   2.692 -2.2397  0.3452  1.9831
  564SOL     OW 1690   2.741   1.322   2.865  0.2040 -0.3662  0.6389
  564SOL    HW1 1691   2.669   1.307   2.936  0.8017  1.3099  1.5264
  564SOL    HW2 1692   2.788   1.418   2.865  0.2062  1.6132  0.6641
  565SOL     OW 1693   2.531   1.972   2.566  0.0254  0.0737 -0.1553
  565SOL    HW1 1694   2.452   2.008   2.507  0.4301  0.4542 -0.2657
  565SOL    HW2 1695   2.522   1.990   2.670  1.0772  0.9300  0.8225
  566SOL     OW 1696   1.995   2.877   1.337  0.9501  0.0603 -0.1928
  566SOL    HW1 1697   1.941   2.790   1.325  0.2671  0.6936 -1.4214
  566SOL    HW2 1698   2.024   2.912   1.247  0.3927  0.8791  1.6190
  567SOL     OW 1699   2.431   0.119   2.196  0.1467  0.1469  0.2220
  567SOL    HW1 1700   2.412   0.093   2.096  0.5987 -0.4015  0.2557
  567SOL    HW2 1701   2.346   0.126   2.250  3.5826  3.2297 -0.4623
  568SOL     OW 1702   1.540   1.811   0.312  0.7617  0.1428 -0.7548
  568SOL    HW1 1703   1.463   1.839   0.250  0.4821 -0.9603  2.0446
  568SOL    HW2 1704   1.569   1.890   0.375 -0.7790 -1.4145 -1.4129
  569SOL     OW 1705   0.307   0.634   0.803  0.3443  0.3938  0.6749
  569SOL    HW1 1706   0.369   0.551   0.771  2.8309 -1.0252 -1.1103
  569SOL    HW2 1707   0.206   0.600   0.814 -3.7043  2.9247 -0.9253
  570SOL     OW 1708   0.627   0.758   2.825 -0.2194 -0.2763 -0.2430
  570SOL    HW1 1709   0.677   0.759   2.733  2.2642 -3.2690 -1.0460
  570SOL    HW2 1710   0.636   0.853   2.874  1.2753  0.4873 -0.8202
  571SOL     OW 1711   0.862   3.063   1.113  0.5064 -0.1675 -0.4685
  571SOL    HW1 1712   0.889   3.122   1.032 -0.0610 -0.0417 -1.2490
  571SOL    HW2 1713   0.943   3.024   1.162 -0.9609 -0.0502 -0.6547
  572SOL     OW 1714   1.567   2.635   1.164  0.2136  0.1568 -0.7758
  572SOL    HW1 1715   1.505   2.562   1.201 -0.4879 -0.3080 -1.0353
  572SOL    HW2 1716   1.510   2.713   1.126  0.1133  1.7712 -0.0591
  573SOL     OW 1717   2.932   0.445   2.053 -0.4152 -0.1232 -0.3367
  573SOL    HW1 1718   2.898   0.348   2.072  0.8412 -0.1020 -0.5835
  573SOL    HW2 1719   2.861   0.508   2.017 -2.3033 -0.8322 -0.0339
  574SOL     OW 1720   0.206   1.788   1.001 -0.3145 -0.0436 -0.0059
  574SOL    HW1 1721   0.202   1.894   0.991  3.0115  1.1082  0.1874
  574SOL    HW2 1722   0.130   1.753   1.062 -1.1126 -0.0439 -1.7670
  575SOL     OW 1723   0.805   2.168   0.965 -0.2250  0.1153 -0.3095
  575SOL    HW1 1724   0.827   2.193   1.062 -1.2281 -1.2710 -0.7842
  575SOL    HW2 1725   0.859   2.224   0.898 -1.5454  0.8522 -0.2433
  576SOL     OW 1726   2.938   2.918   1.716  0.0581  0.3152 -0.1999
  576SOL    HW1 1727   2.878   2.859   1.654  0.2363  0.8414  1.5736
  576SOL    HW2 1728   2.941   3.021   1.686  0.2723 -0.5767  1.9855
  577SOL     OW 1729   2.553   1.250   3.083  0.0282 -0.2664 -0.1474
  577SOL    HW1 1730   2.565   1.149   3.052  0.0953  1.1630  0.7987
  577SOL    HW2 1731   2.598   1.269   3.177 -1.0868  1.0090  1.0676
  578SOL     OW 1732   1.328   2.713   2.576 -0.7206 -0.0898  0.0118
  578SOL    HW1 1733   1.244   2.685   2.530  2.0592  0.5259 -2.2527
  578SOL    HW2 1734   1.352   2.809   2.550  3.3679  0.2840 -0.2639
  579SOL     OW 1735   0.116   2.510   0.110 -0.0725  0.5521 -0.7158
  579SOL    HW1 1736   0.063   2.521   0.198  0.9120 -1.8313 -0.8273
  579SOL    HW2 1737   0.219   2.520   0.125 -0.3683 -0.3810  0.3567
  580SOL     OW 1738   1.016   2.633   0.389 -0.2394 -0.5923 -0.0515
  580SOL    HW1 1739   1.097   2.651   0.326 -1.4022 -2.1361  0.0470
  580SOL    HW2 1740   0.948   2.574   0.343  1.6111 -0.5962  0.3435
  581SOL     OW 1741   1.252   2.634   1.526 -0.0785  0.0712 -0.2573
  581SOL    HW1 1742   1.305   2.552   1.489  1.6538  0.6787 -1.4085
  581SOL    HW2 1743   1.269   2.711   1.456  0.7313 -0.6411 -1.6846
  582SOL     OW 1744   1.496   0.074   1.854 -0.2779  0.3273 -0.1891
  582SOL    HW1 1745   1.506   0.167   1.897 -1.3871 -1.4565  0.5068
  582SOL    HW2 1746   1.574   0.053   1.790 -0.2495 -1.6620 -1.9038
  583SOL     OW 1747   2.488   2.966   0.546  0.1065 -0.2923 -0.0764
  583SOL    HW1 1748   2.496   2.902   0.463  0.5397  1.8607 -1.7593
  583SOL    HW2 1749   2.445   2.927   0.626  1.3560  2.2653  1.1944
  584SOL     OW 1750   1.612   1.032   2.092  0.1629  0.2749 -0.7961
  584SOL    HW1 1751   1.649   1.084   2.008  0.6996 -0.7881 -0.3412
  584SOL    HW2 1752   1.673   1.033   2.174 -0.7130 -0.2697 -1.8198
  585SOL     OW 1753   2.095   2.626   2.880 -0.2539  0.1702  0.5890
  585SOL    HW1 1754   2.125   2.533   2.871  1.7943  1.1123  2.0557
  585SOL    HW2 1755   1.995   2.642   2.892  2.1914 -0.4350 -0.5905
  586SOL     OW 1756   2.730   0.238   1.512  0.0550  0.3337 -0.1610
  586SOL    HW1 1757   2.780   0.311   1.566 -1.0607 -3.5563 -0.4098
  586SOL    HW2 1758   2.632   0.208   1.542 -0.8130 -1.7617 -1.4577
  587SOL     OW 1759   1.959   1.615   2.728  0.2701  0.0488  0.0482
  587SOL    HW1 1760   2.023   1.550   2.677  1.4814 -0.2643  0.9168
  587SOL    HW2 1761   2.005   1.663   2.803 -2.4671 -2.9977 -0.4255
  588SOL     OW 1762   0.486   2.732   2.213 -0.8853  0.1427  0.4954
  588SOL    HW1 1763   0.394   2.739   2.162 -1.2287 -1.0311 -0.7061
  588SOL    HW2 1764   0.484   2.644   2.269 -0.2277  0.9927 -1.0652
  589SOL     OW 1765   2.106   1.447   2.569  0.2570 -0.0643 -0.7309
  589SOL    HW1 1766   2.052   1.406   2.492  0.1859  0.7399 -1.0654
  589SOL    HW2 1767   2.195   1.394   2.580 -3.1479 -2.2966  0.7970
  590SOL     OW 1768   2.356   1.676   2.025  0.6949 -0.0550  0.2671
  590SOL    HW1 1769   2.444   1.628   2.010 -1.2860 -1.4239  3.1755
  590SOL    HW2 1770   2.351   1.715   2.121 -0.4923 -1.8522  0.6539
  591SOL     OW 1771   1.354   2.428   0.265 -0.1579  0.0757  0.1094
  591SOL    HW1 1772   1.450   2.431   0.224 -1.4132 -3.0325 -0.6999
  591SOL    HW2 1773   1.354   2.392   0.360 -1.6621 -0.7350 -2.1549
  592SOL     OW 1774   1.742   2.365   0.780  0.6007  0.3027  0.4459
  592SOL    HW1 1775   1.703   2.386   0.681 -0.6781  1.1417 -1.2369
  592SOL    HW2 1776   1.843   2.350   0.779 -0.5057  0.3100  1.2178
  593SOL     OW 1777   0.635   0.221   0.067 -0.5617  1.0286  0.2080
  593SOL    HW1 1778   0.715   0.219   0.001 -0.3896  0.0882 -0.5670
  593SOL    HW2 1779   0.625   0.308   0.110  0.9761 -2.2131  1.6985
  594SOL     OW 1780   0.939   1.908   2.685  0.6758 -0.4610 -0.1058
  594SOL    HW1 1781   1.029   1.960   2.697 -0.0680  1.3729  2.6790
  594SOL    HW2 1782   0.863   1.954   2.740 -0.1199 -1.6212 -1.0325
  595SOL     OW 1783   1.544   0.037   1.018  0.2178  0.1349 -0.2135
  595SOL    HW1 1784   1.630  -0.022   1.033 -0.1110  0.8718 -0.9971
  595SOL    HW2 1785   1.472  -0.004   0.948 -0.7637 -2.7819  1.4034
  596SOL     OW 1786   3.073   1.434   2.218 -0.1408  0.4927 -0.2863
  596SOL    HW1 1787   2.968   1.438   2.199 -3.6558 -0.7583 -0.4262
  596SOL    HW2 1788   3.088   1.506   2.288 -1.9086  0.3280 -2.9869
  597SOL     OW 1789   2.055   2.612   1.627 -0.3608  0.4187  0.4938
  597SOL    HW1 1790   2.081   2.542   1.559  2.9650 -1.2428 -1.5695
  597SOL    HW2 1791   2.125   2.620   1.703  1.1394  0.6563  1.0669
  598SOL     OW 1792   2.464   2.927   1.378 -0.7297 -0.0432  0.1375
  598SOL    HW1 1793   2.545   2.968   1.433  3.0248 -1.2616  1.4447
  598SOL    HW2 1794   2.486   2.920   1.277  1.3039 -1.2815 -0.3211
  599SOL     OW 1795   2.908   0.391   2.451  0.3223  0.3896 -0.1033
  599SOL    HW1 1796   2.992   0.433   2.410  1.0530 -0.6579 -0.4841
  599SOL    HW2 1797   2.820   0.415   2.400  1.1737  0.4693 -0.5604
  600SOL     OW 1798   2.816   1.135   2.673  0.4368 -0.0842  0.3384
  600SOL    HW1 1799   2.759   1.050   2.679 -0.6623 -0.9020  0.8709
  600SOL    HW2 1800   2.784   1.206   2.736  2.3623  0.6747 -0.4252
  601SOL     OW 1801   3.047   1.243   1.996  0.2561  0.1932 -0.2776
  601SOL    HW1 1802   2.995   1.298   1.926  1.0268 -0.0388 -0.8978
  601SOL    HW2 1803   3.109   1.301   2.058 -1.1746  0.4201 -3.5452
  602SOL     OW 1804   1.452   1.713   2.365 -0.9010  0.0978  0.3867
  602SOL    HW1 1805   1.405   1.618   2.352 -1.1700  1.1385 -0.1378
  602SOL    HW2 1806   1.560   1.698   2.375  1.4858 -1.9077  1.3867
  603SOL     OW 1807   0.646   1.267   2.685 -0.0376  0.3175 -0.4782
  603SOL    HW1 1808   0.551   1.255   2.642  0.6469  2.0466  0.0397
  603SOL    HW2 1809   0.708   1.192   2.657  1.0129  0.6050 -0.9725
  604SOL     OW 1810   2.405   0.978   0.153 -0.0989  0.1282  0.4627
  604SOL    HW1 1811   2.467   1.040   0.099 -0.4677  3.5345 -1.4169
  604SOL    HW2 1812   2.384   0.884   0.107  0.0197 -0.6419  1.4552
  605SOL     OW 1813   2.656   1.152   1.943 -0.2016 -0.0237  0.2131
  605SOL    HW1 1814   2.636   1.075   1.873  1.4390  1.2562 -0.2085
  605SOL    HW2 1815   2.704   1.119   2.029 -2.9211  2.1547 -0.9359
  606SOL     OW 1816   1.510   2.492   2.643  0.0578  0.2621  0.6049
  606SOL    HW1 1817   1.427   2.554   2.625  1.2265 -0.6518 -1.0513
  606SOL    HW2 1818   1.510   2.411   2.575  0.1091 -1.7937  0.4176
  607SOL     OW 1819   1.390   1.595   0.387 -0.1885  0.2470  0.2825
  607SOL    HW1 1820   1.360   1.593   0.484  2.2362 -0.0413 -0.5185
  607SOL    HW2 1821   1.456   1.674   0.358 -0.9510  0.2760 -1.9526
  608SOL     OW 1822   1.440   2.829   0.422 -0.3709 -0.0132 -0.2070
  608SOL    HW1 1823   1.496   2.890   0.362 -0.6156 -0.0083  0.9693
  608SOL    HW2 1824   1.375   2.889   0.475  0.8039  0.3267  0.8832
  609SOL     OW 1825   1.263   1.374   0.270 -0.4721  0.4955 -0.3317
  609SOL    HW1 1826   1.294   1.473   0.292  0.6212 -1.0857  1.2099
  609SOL    HW2 1827   1.181   1.343   0.327 -1.9544 -1.9111  1.2656
  610SOL     OW 1828   2.974   1.133   2.262  0.4978  0.1193 -0.2561
  610SOL    HW1 1829   2.961   1.032   2.279  1.0532  1.3094 -0.6766
  610SOL    HW2 1830   3.010   1.157   2.166  2.7025 -0.5118  0.9170
  611SOL     OW 1831   2.536   0.313   1.168  0.5698  0.2169  0.0898
  611SOL    HW1 1832   2.496   0.224   1.206  0.2002  1.0125  0.6955
  611SOL    HW2 1833   2.632   0.329   1.210  0.5977 -0.2113  2.4043
  612SOL     OW 1834   0.821   2.234   1.249 -0.0734 -0.2095 -0.2187
  612SOL    HW1 1835   0.784   2.143   1.281 -0.5524  0.1677  1.5271
  612SOL    HW2 1836   0.744   2.296   1.230  0.3361  0.5558  0.3751
  613SOL     OW 1837   0.843   1.436   2.418 -0.6334 -0.6674  0.5495
  613SOL    HW1 1838   0.906   1.492   2.354  1.6113 -2.6952  0.4103
  613SOL    HW2 1839   0.766   1.384   2.370  1.0174  0.3307 -0.3217
  614SOL     OW 1840   1.653   1.615   1.892 -0.1034  0.5749  0.6777
  614SOL    HW1 1841   1.587   1.689   1.922 -0.5850  0.4264  2.4247
  614SOL    HW2 1842   1.731   1.599   1.959  0.8305  0.4988 -0.9669
  615SOL     OW 1843   0.795   1.280   1.712 -0.5046 -0.0875 -0.1975
  615SOL    HW1 1844   0.732   1.274   1.635  0.3767 -2.1619 -0.9266
  615SOL    HW2 1845   0.858   1.360   1.701  1.1980  0.5593  0.1727
  616SOL     OW 1846   1.089   1.604   2.273 -0.1530  0.0397  0.8207
  616SOL    HW1 1847   1.019   1.582   2.202  0.7340 -0.3823 -0.5737
  616SOL    HW2 1848   1.111   1.703   2.276  0.8774  2.2359  2.5865
  617SOL     OW 1849   2.922   1.532   1.603  0.1130  0.3934  0.0917
  617SOL    HW1 1850   2.871   1.450   1.649 -1.7491 -1.0544  0.6159
  617SOL    HW2 1851   2.986   1.508   1.524 -1.2193 -0.5354  1.1567
  618SOL     OW 1852   1.908   2.078   1.332  0.5844 -0.1540 -0.9047
  618SOL    HW1 1853   1.909   2.154   1.261  2.4624  0.3656  2.1865
  618SOL    HW2 1854   1.898   1.979   1.300  0.2098 -2.4936 -0.0241
  619SOL     OW 1855   1.739   0.500   2.369 -0.0862 -0.2801 -0.1103
  619SOL    HW1 1856   1.672   0.561   2.319  2.8823  0.9745  0.3270
  619SOL    HW2 1857   1.706   0.403   2.385  1.6257 -1.8476 -3.7158
  620SOL     OW 1858   2.326   2.934   0.756  0.3067  0.4639 -0.3796
  620SOL    HW1 1859   2.267   3.016   0.785 -0.0681  2.0234  2.6368
  620SOL    HW2 1860   2.317   2.852   0.812  0.7427  1.9940 -2.7642
  621SOL     OW 1861   2.102   1.814   1.320 -0.7424 -0.0424  0.1193
  621SOL    HW1 1862   2.090   1.829   1.425 -0.0293 -0.4371 -0.2609
  621SOL    HW2 1863   2.079   1.718   1.294 -2.1576 -0.3710 -0.6370
  622SOL     OW 1864   2.272   0.918   1.818  0.2093 -0.2364 -0.2315
  622SOL    HW1 1865   2.372   0.938   1.805  2.7260  1.7613 -0.1213
  622SOL    HW2 1866   2.262   0.826   1.870 -0.5123 -0.0405 -2.3096
  623SOL     OW 1867   1.348   0.790   2.432 -0.6017 -0.2103  0.8857
  623SOL    HW1 1868   1.323   0.713   2.495  1.0722  0.4296 -1.1027
  623SOL    HW2 1869   1.275   0.827   2.373  4.1140 -0.1227  0.9665
  624SOL     OW 1870   0.574   0.667   3.102  0.1680 -0.3629 -0.0079
  624SOL    HW1 1871   0.614   0.670   3.006 -3.1225 -0.7375  1.2426
  624SOL    HW2 1872   0.574   0.765   3.141 -0.2272 -0.9714  0.1491
  625SOL     OW 1873   2.774   1.735   0.991 -0.4389 -0.2178  0.0396
  625SOL    HW1 1874   2.685   1.789   0.981  1.5868 -1.0988 -0.9887
  625SOL    HW2 1875   2.857   1.795   1.011  0.4830 -0.1258 -1.4826
  626SOL     OW 1876   0.622   2.679   1.716  0.0059 -0.1280 -0.0806
  626SOL    HW1 1877   0.683   2.744   1.769  1.2217 -2.6390 -0.3454
  626SOL    HW2 1878   0.520   2.682   1.732 -0.7837 -0.0830 -0.7132
  627SOL     OW 1879   0.692   0.950   1.571 -0.0140  0.4731 -0.5009
  627SOL    HW1 1880   0.599   0.923   1.529  0.9062  1.5949  2.1535
  627SOL    HW2 1881   0.756   0.984   1.494  1.9855  0.2598 -1.7319
  628SOL     OW 1882   2.497   0.162   0.653  0.3183 -0.5113 -0.3133
  628SOL    HW1 1883   2.540   0.084   0.607 -0.0680 -1.6738  2.0846
  628SOL    HW2 1884   2.392   0.147   0.662 -2.6357  1.4353 -0.1173
  629SOL     OW 1885   1.915   0.938   2.065  0.3132  0.1531  0.6055
  629SOL    HW1 1886   1.922   0.968   1.968  1.2831  1.9153  1.7992
  629SOL    HW2 1887   1.915   1.023   2.129  2.2509  0.0811  0.3303
  630SOL     OW 1888   2.923   2.336   0.805 -0.7242  0.0084  0.1727
  630SOL    HW1 1889   2.842   2.403   0.814  0.4215  1.8778 -0.2347
  630SOL    HW2 1890   2.900   2.240   0.775  0.8388  1.2637 -0.3874
  631SOL     OW 1891   3.085   0.152   2.192  0.1479 -0.2697  0.0916
  631SOL    HW1 1892   3.143   0.185   2.268 -2.8615  0.5622 -2.1855
  631SOL    HW2 1893   3.127   0.168   2.099 -0.6674 -0.7045 -1.8917
  632SOL     OW 1894   2.466   2.571   0.647 -0.1379 -0.7916  0.3771
  632SOL    HW1 1895   2.492   2.668   0.688  0.0877  0.6864  0.0135
  632SOL    HW2 1896   2.398   2.580   0.566  1.0279 -0.7310 -2.9797
  633SOL     OW 1897   1.460   1.222   2.686 -0.4628  0.8555 -0.1268
  633SOL    HW1 1898   1.444   1.310   2.740  0.6054 -0.5069  1.3081
  633SOL    HW2 1899   1.395   1.202   2.612  1.9908 -1.6348  0.1859
  634SOL     OW 1900   0.622   1.986   0.885  0.2077 -0.3188 -0.5710
  634SOL    HW1 1901   0.531   2.021   0.920 -0.0614 -0.2339 -0.4260
  634SOL    HW2 1902   0.702   2.048   0.912 -1.0807  2.3274  0.8095
  635SOL     OW 1903   2.988   2.354   0.062  0.2863 -0.1013  0.0955
  635SOL    HW1 1904   2.933   2.393  -0.016  0.6774  0.4380 -0.6287
  635SOL    HW2 1905   3.081   2.391   0.070 -1.5168  1.3746 -0.2837
  636SOL     OW 1906   2.352   2.758   1.958 -0.3047 -0.4659 -0.1224
  636SOL    HW1 1907   2.368   2.859   1.993 -0.4084  1.7280  0.0745
  636SOL    HW2 1908   2.291   2.705   2.022 -0.8660 -1.9988 -0.8766
  637SOL     OW 1909   2.755   0.615   1.967 -0.1023 -0.4195 -0.1798
  637SOL    HW1 1910   2.672   0.627   1.904  0.3903  0.4724  1.6822
  637SOL    HW2 1911   2.775   0.701   2.018  0.5618  2.8135  1.3515
  638SOL     OW 1912   2.417   1.850   1.317  0.1971 -0.1031 -0.3816
  638SOL    HW1 1913   2.315   1.831   1.318  1.0161  0.7314  1.9358
  638SOL    HW2 1914   2.475   1.796   1.390  2.8204  2.9321  2.2975
  639SOL     OW 1915   1.304   2.191   1.704  0.2108 -0.3823 -0.1548
  639SOL    HW1 1916   1.314   2.297   1.691  1.6370 -0.6263  0.2239
  639SOL    HW2 1917   1.217   2.163   1.756 -0.7078  0.4987 -2.7704
  640SOL     OW 1918   0.224   1.194   1.576 -0.1428  0.3930  0.7872
  640SOL    HW1 1919   0.208   1.202   1.677  2.8136 -2.0442  0.5451
  640SOL    HW2 1920   0.282   1.108   1.553 -1.0777  0.6766  4.2254
  641SOL     OW 1921   2.034   0.298   1.435 -0.0698  1.1479  0.2548
  641SOL    HW1 1922   1.986   0.342   1.514  0.5844 -0.5580 -2.1434
  641SOL    HW2 1923   2.099   0.225   1.468 -1.1962  1.0823  0.8394
  642SOL     OW 1924   2.018   0.064   0.338 -0.0117 -0.4726 -0.1142
  642SOL    HW1 1925   2.122   0.051   0.343  0.1151 -0.3245  0.0605
  642SOL    HW2 1926   1.991   0.158   0.376  0.6930  0.6270 -1.1027
  643SOL     OW 1927   2.910   1.786   2.140 -0.0516 -0.2167 -0.4818
  643SOL    HW1 1928   2.853   1.746   2.063  2.0656  0.7482 -2.5577
  643SOL    HW2 1929   2.923   1.889   2.126  0.5091 -0.7610 -2.5057
  644SOL     OW 1930   2.279   2.414   1.216 -0.5300  0.1133 -0.3345
  644SOL    HW1 1931   2.326   2.323   1.183 -0.5778 -2.7896  0.4676
  644SOL    HW2 1932   2.239   2.407   1.315  0.8229  1.4639  0.7256
  645SOL     OW 1933   0.572   0.850   1.294 -0.4080  0.4428 -0.3731
  645SOL    HW1 1934   0.470   0.834   1.306  1.6754  0.1792  2.1736
  645SOL    HW2 1935   0.602   0.835   1.194  3.7936 -0.0504  0.9343
  646SOL     OW 1936   1.461   1.834   2.039  0.1279 -0.1326  0.2790
  646SOL    HW1 1937   1.516   1.887   1.968 -1.4220  1.9231 -1.0280
  646SOL    HW2 1938   1.511   1.819   2.128  0.5136  2.0883  0.3113
  647SOL     OW 1939   0.827   1.054   0.641  0.0766 -1.4363 -0.2661
  647SOL    HW1 1940   0.886   1.089   0.721 -0.3128  0.8723 -1.9159
  647SOL    HW2 1941   0.777   0.966   0.659  0.5071  0.7650  0.7472
  648SOL     OW 1942   0.125   0.220   0.229 -0.1217 -0.0058 -0.5735
  648SOL    HW1 1943   0.155   0.129   0.188  1.5580 -1.4560  0.2702
  648SOL    HW2 1944   0.159   0.301   0.174  2.6114 -3.7591  0.4659
  649SOL     OW 1945   3.003   0.218   0.842 -0.2679  0.5582  0.2293
  649SOL    HW1 1946   3.074   0.154   0.881 -1.4160 -0.7275  1.0190
  649SOL    HW2 1947   3.019   0.315   0.866  0.4540  1.3678  2.0178
  650SOL     OW 1948   2.712   0.634   1.530  0.2947 -0.2405 -0.2396
  650SOL    HW1 1949   2.605   0.638   1.525 -1.1068 -3.5146 -1.4597
  650SOL    HW2 1950   2.762   0.720   1.499  0.0734  0.4987  0.9150
  651SOL     OW 1951   0.911   1.517   1.636  0.3385 -0.3158 -0.1725
  651SOL    HW1 1952   0.920   1.600   1.698  2.2719 -0.7954 -0.6032
  651SOL    HW2 1953   0.985   1.510   1.567 -0.6141  2.4721 -1.4728
  652SOL     OW 1954   2.374   2.393   2.444 -1.2880 -0.1946  0.0397
  652SOL    HW1 1955   2.283   2.441   2.439  0.4495 -1.4522 -2.8607
  652SOL    HW2 1956   2.444   2.437   2.379 -1.5510 -1.7756  0.3143
  653SOL     OW 1957   2.696   1.286   0.246 -0.2547 -0.1240  0.0784
  653SOL    HW1 1958   2.736   1.377   0.285  2.9814 -1.4308  4.1462
  653SOL    HW2 1959   2.769   1.209   0.260 -0.4893 -3.0119 -1.6614
  654SOL     OW 1960   1.266   2.223   1.280  0.0359  0.3074  0.1208
  654SOL    HW1 1961   1.267   2.129   1.327 -0.0921  0.6048 -4.1796
  654SOL    HW2 1962   1.297   2.219   1.179  0.3916 -1.5401 -0.0659
  655SOL     OW 1963   0.182   0.926   1.865  0.5927 -0.1148 -0.2409
  655SOL    HW1 1964   0.265   0.897   1.810  0.3811 -0.0935  0.6868
  655SOL    HW2 1965   0.191   1.021   1.907  2.4957  1.5045  0.4585
  656SOL     OW 1966   2.547   2.499   2.621  0.1401 -0.4573 -0.5738
  656SOL    HW1 1967   2.646   2.470   2.605  0.8587 -1.6780 -0.4196
  656SOL    HW2 1968   2.482   2.429   2.591  0.2837  0.4889  2.7697
  657SOL     OW 1969   3.013   1.019   1.860 -0.2902  0.3298  0.7633
  657SOL    HW1 1970   3.024   1.105   1.915 -1.4161  0.3769 -1.6552
  657SOL    HW2 1971   3.101   0.960   1.846 -0.7478 -3.5369 -1.1175
  658SOL     OW 1972   1.715   0.212   2.361  0.2812  0.0719  0.5718
  658SOL    HW1 1973   1.730   0.147   2.441  3.0737  1.0021 -1.5072
  658SOL    HW2 1974   1.710   0.161   2.267 -1.5208 -1.9696 -1.3702
  659SOL     OW 1975   1.378   0.619   2.799  0.4925 -0.3113  0.6582
  659SOL    HW1 1976   1.430   0.688   2.856 -2.1450  0.4845 -0.0019
  659SOL    HW2 1977   1.286   0.649   2.772 -0.6155  0.2113 -1.2680
  660SOL     OW 1978   1.398   0.340   1.436 -0.1712  0.0933 -0.2746
  660SOL    HW1 1979   1.401   0.351   1.537 -0.7975  0.1459 -0.3173
  660SOL    HW2 1980   1.467   0.273   1.410 -1.1225  1.3612 -3.3752
  661SOL     OW 1981   2.408   1.246   0.685 -0.6865 -0.2038  0.5100
  661SOL    HW1 1982   2.416   1.195   0.589  1.4957 -1.9219 -1.3699
  661SOL    HW2 1983   2.332   1.317   0.695 -0.0686 -2.3885 -2.1278
  662SOL     OW 1984   1.399   0.405   1.741 -0.3443 -0.1888  0.3665
  662SOL    HW1 1985   1.341   0.394   1.824 -3.1436  1.2236  0.5991
  662SOL    HW2 1986   1.446   0.498   1.736  0.5793  0.7503  0.6165
  663SOL     OW 1987   0.862   1.545   2.120 -0.0945  0.5178 -0.2729
  663SOL    HW1 1988   0.776   1.543   2.174 -1.8872 -0.8164 -1.1077
  663SOL    HW2 1989   0.842   1.516   2.022 -1.9581  1.9665  3.0034
  664SOL     OW 1990   1.645   2.091   1.417  0.2751  0.1716 -0.3621
  664SOL    HW1 1991   1.608   2.004   1.469  0.4038 -2.0984 -0.3370
  664SOL    HW2 1992   1.734   2.078   1.370 -1.7520  1.8932 -0.0612
  665SOL     OW 1993   2.301   0.666   1.959  0.0510  0.8897  0.2634
  665SOL    HW1 1994   2.272   0.566   1.977 -1.4118 -1.8013 -1.1113
  665SOL    HW2 1995   2.362   0.695   2.036 -1.0670 -0.3228 -0.8652
  666SOL     OW 1996   0.515   2.251   0.377 -0.1323  0.0308 -0.5898
  666SOL    HW1 1997   0.555   2.320   0.444  1.4330  0.2165 -0.8435
  666SOL    HW2 1998   0.413   2.240   0.379  0.1321 -1.5200  0.8480
  667SOL     OW 1999   1.951   0.236   1.052  0.0227 -0.8563 -0.5240
  667SOL    HW1 2000   1.977   0.329   1.090 -2.8396  0.2557  1.1593
  667SOL    HW2 2001   1.881   0.190   1.116 -0.6397 -3.0543  1.1875
  668SOL     OW 2002   2.010   0.502   1.137  0.1786  0.5553 -0.2422
  668SOL    HW1 2003   2.083   0.513   1.063  1.5164  2.3990  1.9611
  668SOL    HW2 2004   2.046   0.546   1.229  4.1143  0.3597  1.7896
  669SOL     OW 2005   3.070   2.189   1.004  0.2995 -0.2444  0.0314
  669SOL    HW1 2006   3.026   2.231   0.913 -0.7849  0.8095 -0.0009
  669SOL    HW2 2007   3.010   2.204   1.089  0.5577 -3.0436  4.0363
  670SOL     OW 2008   2.872   2.325   2.133  0.0079  0.1487 -0.2813
  670SOL    HW1 2009   2.782   2.300   2.183  0.2232 -1.9723 -1.0092
  670SOL    HW2 2010   2.869   2.405   2.067 -0.0901 -2.8958  2.2911
  671SOL     OW 2011   1.785   1.797   1.488  0.2918  0.2903 -0.4719
  671SOL    HW1 2012   1.797   1.839   1.395 -1.2703  3.0075  0.7946
  671SOL    HW2 2013   1.683   1.803   1.514 -1.4256  0.0552 -2.6291
  672SOL     OW 2014   0.463   0.651   2.468  0.1920  0.1798 -1.5885
  672SOL    HW1 2015   0.490   0.690   2.378 -3.1547 -1.0104 -0.2149
  672SOL    HW2 2016   0.370   0.683   2.506 -2.0348 -1.4641  0.6115
  673SOL     OW 2017   0.136   1.210   1.137  0.7264 -1.1586  0.1369
  673SOL    HW1 2018   0.180   1.283   1.198 -2.4475 -1.3749  0.9856
  673SOL    HW2 2019   0.205   1.148   1.092  1.7178  0.0116  0.7909
  674SOL     OW 2020   1.615   3.010   0.315  0.3673 -0.0764 -0.2507
  674SOL    HW1 2021   1.589   3.109   0.296  0.9802 -1.6285  1.4618
  674SOL    HW2 2022   1.710   2.990   0.297 -0.3372  0.0452  0.8828
  675SOL     OW 2023   1.711   0.834   2.292 -0.3271 -0.4038 -0.5379
  675SOL    HW1 2024   1.811   0.803   2.298  1.7880 -0.1766  2.3280
  675SOL    HW2 2025   1.657   0.769   2.235  0.5185 -0.6404 -0.0712
  676SOL     OW 2026   2.548   1.490   1.913 -0.4292  0.3029 -0.0409
  676SOL    HW1 2027   2.508   1.432   1.842  1.4184  0.3860 -0.9429
  676SOL    HW2 2028   2.555   1.447   2.012  0.3181  2.6949  1.4750
  677SOL     OW 2029   1.918   0.690   0.913  0.0189  0.8569  0.1401
  677SOL    HW1 2030   1.829   0.673   0.964 -0.0587 -3.2848 -0.7367
  677SOL    HW2 2031   1.990   0.623   0.939 -3.0120 -2.6532  0.0204
  678SOL     OW 2032   0.076   0.744   1.592 -0.2468  0.0495 -0.5902
  678SOL    HW1 2033   0.175   0.757   1.615 -0.9016  2.0981  1.0012
  678SOL    HW2 2034   0.022   0.710   1.675 -0.2487 -0.6318 -2.3234
  679SOL     OW 2035   2.587   1.183   1.210  0.1778  0.2342  0.4276
  679SOL    HW1 2036   2.493   1.215   1.181 -0.7399  0.4008  3.1726
  679SOL    HW2 2037   2.607   1.085   1.190 -0.9988  3.5658 -0.3782
  680SOL     OW 2038   2.826   0.443   1.677  0.1053 -0.2966 -1.0866
  680SOL    HW1 2039   2.805   0.516   1.604 -2.3605 -0.9568 -2.0225
  680SOL    HW2 2040   2.862   0.484   1.765  0.3582 -0.1968  2.8998
  681SOL     OW 2041   2.954   0.055   1.589 -0.2570  0.2837  0.0679
  681SOL    HW1 2042   3.049   0.075   1.550  3.5454  0.9204  0.4145
  681SOL    HW2 2043   2.889   0.131   1.580 -0.1223  1.1014 -0.0935
  682SOL     OW 2044   0.720   0.035   1.343  0.6906  0.4990  0.4835
  682SOL    HW1 2045   0.634  -0.024   1.366 -2.6998  0.7319  0.0142
  682SOL    HW2 2046   0.756   0.004   1.251 -1.6140  3.0649 -2.3196
  683SOL     OW 2047   1.393   0.189   2.157  0.2744  0.1581  0.8698
  683SOL    HW1 2048   1.390   0.243   2.244  0.9132  3.4969 -0.0710
  683SOL    HW2 2049   1.457   0.237   2.088  0.6818  2.9113 -1.4848
  684SOL     OW 2050   1.468   2.089   0.527  0.4026 -0.0750 -0.5232
  684SOL    HW1 2051   1.505   2.043   0.611 -2.7938 -0.4538 -0.3910
  684SOL    HW2 2052   1.378   2.040   0.501 -1.1092 -3.0632 -1.3885
  685SOL     OW 2053   2.193   2.067   1.954 -0.1625  0.1093  0.1893
  685SOL    HW1 2054   2.279   2.080   1.887  0.1737  1.6781 -0.7308
  685SOL    HW2 2055   2.213   2.077   2.054 -1.8543  0.0760  1.9409
  686SOL     OW 2056   1.496   1.848   2.816  1.2811  0.4179 -0.1899
  686SOL    HW1 2057   1.528   1.772   2.882 -1.2246 -0.7475 -0.7158
  686SOL    HW2 2058   1.403   1.828   2.778  1.1556 -0.4596 -2.0734
  687SOL     OW 2059   1.327   2.456   1.972  0.5700 -0.0232  0.4927
  687SOL    HW1 2060   1.319   2.353   1.980  1.1690 -2.2690  0.7098
  687SOL    HW2 2061   1.387   2.501   2.043  0.3970  0.5325 -2.0442
  688SOL     OW 2062   1.999   1.538   1.780 -0.5271  0.6432 -0.1992
  688SOL    HW1 2063   2.095   1.578   1.758  2.6335  0.7169 -2.0116
  688SOL    HW2 2064   1.972   1.465   1.713 -0.4306  0.1105 -0.2594
  689SOL     OW 2065   2.389   1.085   2.769 -0.3812 -0.3097  0.2316
  689SOL    HW1 2066   2.301   1.034   2.772 -0.4738  1.8752  0.0408
  689SOL    HW2 2067   2.463   1.046   2.828  2.2435 -0.3684 -4.4358
  690SOL     OW 2068   2.220   2.805   0.013 -0.4801  0.2816  0.3587
  690SOL    HW1 2069   2.157   2.783  -0.066  0.5043 -0.1296 -3.5172
  690SOL    HW2 2070   2.179   2.798   0.100 -0.2705 -2.6156 -0.9159
  691SOL     OW 2071   2.588   0.407   2.141  0.2410  0.5104  0.9501
  691SOL    HW1 2072   2.611   0.307   2.152  0.7813  1.2144  0.5684
  691SOL    HW2 2073   2.617   0.440   2.050  1.2234  0.8549  0.3969
  692SOL     OW 2074   2.656   1.215   0.776 -0.4500  0.0209 -0.6983
  692SOL    HW1 2075   2.562   1.216   0.723  0.3860  2.4077 -3.2468
  692SOL    HW2 2076   2.702   1.308   0.786  2.0119 -2.4375 -0.6161
  693SOL     OW 2077   2.855   2.966   0.565 -0.1444 -1.0163  0.7641
  693SOL    HW1 2078   2.849   3.033   0.642 -0.9525 -1.5803 -0.8343
  693SOL    HW2 2079   2.823   3.015   0.479 -1.3296  1.8652  1.5896
  694SOL     OW 2080   2.417   2.223   0.091 -0.3756  0.5966 -0.5723
  694SOL    HW1 2081   2.386   2.284   0.165  2.4830 -1.6885  2.3842
  694SOL    HW2 2082   2.347   2.152   0.067  0.4329  3.6782  0.8211
  695SOL     OW 2083   0.519   2.984   1.432  0.1830 -0.2323  0.5838
  695SOL    HW1 2084   0.483   2.887   1.440  0.4585 -0.4560 -0.7638
  695SOL    HW2 2085   0.482   3.047   1.507  2.3129 -0.7237  2.1223
  696SOL     OW 2086   2.868   2.067   0.771 -0.5081 -0.1778  0.1876
  696SOL    HW1 2087   2.886   1.971   0.797  1.6826  0.0754 -2.8048
  696SOL    HW2 2088   2.842   2.068   0.670 -0.1867  0.7500  0.4383
  697SOL     OW 2089   1.665   1.917   1.854 -0.3009  0.3507  0.3148
  697SOL    HW1 2090   1.725   1.839   1.820  0.6375  1.4074 -1.0622
  697SOL    HW2 2091   1.714   2.004   1.872  0.6294 -0.8967 -0.2671
  698SOL     OW 2092   2.891   0.420   2.736  0.3708 -0.2552  0.2102
  698SOL    HW1 2093   2.914   0.404   2.635 -1.6439 -1.4494  1.2953
  698SOL    HW2 2094   2.920   0.344   2.799 -0.4895  2.2651 -2.0271
  699SOL     OW 2095   1.568   0.035   2.933 -0.3429  0.0970 -0.2955
  699SOL    HW1 2096   1.510  -0.039   2.892 -1.2377 -0.1066  1.9633
  699SOL    HW2 2097   1.606   0.105   2.865 -0.4039 -0.2825  2.1018
  700SOL     OW 2098   1.049   2.313   1.402  0.1459  0.3027 -0.5248
  700SOL    HW1 2099   1.138   2.268   1.367  0.9171 -1.9530  1.7597
  700SOL    HW2 2100   0.964   2.276   1.349  0.5827  3.6007 -0.0180
  701SOL     OW 2101   1.928   2.886   0.009  0.3925  0.5237  0.0583
  701SOL    HW1 2102   1.940   2.814   0.080 -0.5568  2.4245 -1.4768
  701SOL    HW2 2103   1.931   2.983   0.039 -0.3911 -2.3482  0.8026
  702SOL     OW 2104   2.058   1.314   1.943 -0.0466  0.2542  0.4092
  702SOL    HW1 2105   2.143   1.255   1.936 -1.3456  0.4695  1.3317
  702SOL    HW2 2106   2.054   1.398   1.883  0.2954 -3.0393 -1.0949
  703SOL     OW 2107   1.939   0.903   1.467 -0.1266  0.7633 -0.0913
  703SOL    HW1 2108   1.927   0.810   1.509  1.0559  1.4006 -1.9888
  703SOL    HW2 2109   2.009   0.961   1.514 -1.3870 -1.2200  0.6348
  704SOL     OW 2110   0.291   2.013   1.738  0.0623 -0.1227  0.9438
  704SOL    HW1 2111   0.338   1.951   1.813 -1.3391  0.7894  0.1743
  704SOL    HW2 2112   0.352   2.090   1.710 -0.1341 -0.8730 -1.1289
  705SOL     OW 2113   2.517   1.556   0.883  1.1819  0.1282  0.1283
  705SOL    HW1 2114   2.467   1.469   0.871  1.1256 -1.1250  1.3542
  705SOL    HW2 2115   2.616   1.536   0.905 -0.0415  0.8565 -1.0651
  706SOL     OW 2116   0.714   1.717   1.879  0.0206 -0.0810  0.4179
  706SOL    HW1 2117   0.714   1.612   1.874  0.1900 -0.7040  1.7161
  706SOL    HW2 2118   0.765   1.752   1.960 -2.8223 -0.5258 -2.1698
  707SOL     OW 2119   2.306   1.173   1.920  0.0868 -0.5256 -1.1326
  707SOL    HW1 2120   2.406   1.193   1.940  0.6764 -0.9454  0.1425
  707SOL    HW2 2121   2.280   1.071   1.905  0.5589  0.7254 -2.5467
  708SOL     OW 2122   2.957   0.530   3.030  0.0684  0.1219  0.5247
  708SOL    HW1 2123   2.956   0.570   2.935 -0.4579  0.7128  2.3470
  708SOL    HW2 2124   2.999   0.433   3.020 -3.1109  1.9754 -1.4670
  709SOL     OW 2125   1.855   1.873   0.324 -0.8039 -0.1525 -0.9008
  709SOL    HW1 2126   1.881   1.973   0.345  1.1759  0.4291  1.8761
  709SOL    HW2 2127   1.838   1.854   0.220 -1.6621  0.9451 -1.4212
  710SOL     OW 2128   1.718   1.618   2.398 -0.1148  0.1625 -0.4767
  710SOL    HW1 2129   1.760   1.575   2.314  0.7095 -1.5437 -0.8912
  710SOL    HW2 2130   1.742   1.585   2.494 -3.6582 -0.6662 -1.5620
  711SOL     OW 2131   2.568   2.910   1.051 -0.2116  0.4043  0.9084
  711SOL    HW1 2132   2.546   3.010   1.043 -0.5402 -1.0950  1.5251
  711SOL    HW2 2133   2.672   2.900   1.059 -0.6237  2.3971  0.8563
  712SOL     OW 2134   1.415   2.137   1.972  0.0604  0.4537  0.1182
  712SOL    HW1 2135   1.504   2.187   1.965  0.9418  1.1901  0.9272
  712SOL    HW2 2136   1.364   2.141   1.885  0.2422  0.6363 -1.5388
  713SOL     OW 2137   2.782   1.460   2.511  0.2582 -0.3870 -0.7811
  713SOL    HW1 2138   2.785   1.362   2.476  2.7437  0.8865  1.3997
  713SOL    HW2 2139   2.692   1.497   2.546  0.3332 -2.6577  0.3049
  714SOL     OW 2140   2.646   0.438   2.402  0.3363 -0.0129 -0.1677
  714SOL    HW1 2141   2.582   0.412   2.480  0.3007  1.0997  1.1608
  714SOL    HW2 2142   2.612   0.422   2.306 -2.2827 -0.6491 -3.2704
  715SOL     OW 2143   1.536   2.088   1.161 -0.4907 -0.4235 -0.2391
  715SOL    HW1 2144   1.448   2.133   1.135  2.1469 -0.3536  1.6651
  715SOL    HW2 2145   1.551   2.072   1.263  1.6452 -1.1521  1.4220
  716SOL     OW 2146   1.184   0.133   1.499 -0.3161 -0.7936  0.3077
  716SOL    HW1 2147   1.087   0.135   1.452 -2.0833  0.1275 -1.5372
  716SOL    HW2 2148   1.229   0.234   1.495 -0.9561  1.9321  0.8617
  717SOL     OW 2149   1.146   0.548   1.600  0.3544  0.2429 -0.2607
  717SOL    HW1 2150   1.228   0.529   1.657 -1.9994  1.8028 -0.8284
  717SOL    HW2 2151   1.175   0.561   1.500  5.9192 -0.6262  1.5243
  718SOL     OW 2152   0.662   0.894   0.970 -0.0162 -0.1785  0.0830
  718SOL    HW1 2153   0.664   0.897   0.863  1.3696  2.3275 -0.4421
  718SOL    HW2 2154   0.657   0.988   1.010  0.7742 -1.8607 -1.4801
  719SOL     OW 2155   0.646   1.729   2.313  0.8252 -0.5294 -0.0223
  719SOL    HW1 2156   0.730   1.758   2.367  3.4172  3.7810  0.9722
  719SOL    HW2 2157   0.615   1.638   2.344  3.3052  1.8559 -0.4335
  720SOL     OW 2158   2.213   1.133   0.285 -0.2042  0.3163 -0.3759
  720SOL    HW1 2159   2.265   1.059   0.227 -0.1552 -0.5508  0.3159
  720SOL    HW2 2160   2.152   1.093   0.363 -3.4262 -1.1260 -0.4886
  721SOL     OW 2161   2.240   3.038   2.067  0.1162 -0.2468  0.1842
  721SOL    HW1 2162   2.160   3.036   2.005  0.1729 -0.0782 -2.7519
  721SOL    HW2 2163   2.207   3.034   2.165  0.1693  1.3589  0.4129
  722SOL     OW 2164   2.304   1.616   0.454 -0.0902 -0.5987 -0.1098
  722SOL    HW1 2165   2.355   1.588   0.373 -1.7131 -2.1500  0.4886
  722SOL    HW2 2166   2.207   1.633   0.426  1.2928  0.1652  0.6247
  723SOL     OW 2167   2.657   2.683   1.893 -0.4643 -0.3843 -0.2265
  723SOL    HW1 2168   2.675   2.776   1.929 -1.5329  0.5485 -1.6878
  723SOL    HW2 2169   2.560   2.669   1.871 -0.6470 -0.8527 -2.0737
  724SOL     OW 2170   0.498   2.497   2.393  0.2454  0.4787  0.0781
  724SOL    HW1 2171   0.417   2.508   2.457 -0.1726 -2.0564 -0.5667
  724SOL    HW2 2172   0.572   2.449   2.444  0.9852  1.7044  1.9954
  725SOL     OW 2173   2.363   2.706   1.511  0.1493 -0.3505 -0.7035
  725SOL    HW1 2174   2.435   2.770   1.480  0.0594  3.1941 -1.3090
  725SOL    HW2 2175   2.396   2.617   1.545  0.4567 -1.2300 -0.9971
  726SOL     OW 2176   2.483   2.325   0.729  0.1458  0.5588 -0.2043
  726SOL    HW1 2177   2.453   2.422   0.692  4.0189  0.1713  1.4245
  726SOL    HW2 2178   2.474   2.253   0.661 -0.4691  1.0058 -0.1449
  727SOL     OW 2179   0.157   3.090   0.127  0.4074 -0.1546 -0.0299
  727SOL    HW1 2180   0.220   3.095   0.044  0.5258 -1.7398  0.4571
  727SOL    HW2 2181   0.062   3.063   0.100 -0.9917 -0.0624 -1.1893
  728SOL     OW 2182   2.895   0.683   0.884 -0.2553  0.3331  0.6898
  728SOL    HW1 2183   2.843   0.668   0.794  1.6371 -2.6646  0.7867
  728SOL    HW2 2184   2.840   0.657   0.966 -3.7972  0.0174 -2.0452
  729SOL     OW 2185   0.029   2.548   0.722 -0.2204 -0.0143 -0.1734
  729SOL    HW1 2186   0.021   2.474   0.789  0.9287  2.0953 -3.9921
  729SOL    HW2 2187   0.124   2.568   0.684 -0.5955  0.9777 -0.1621
  730SOL     OW 2188   2.543   0.665   0.818  0.4553  0.5568  0.2833
  730SOL    HW1 2189   2.547   0.756   0.865 -0.0932 -0.2169  1.0539
  730SOL    HW2 2190   2.622   0.645   0.751 -1.5413  1.0502  1.4887
  731SOL     OW 2191   0.022   2.182   2.428  0.1683  0.0600  0.2125
  731SOL    HW1 2192   0.049   2.234   2.514 -1.6299 -0.3868  0.2077
  731SOL    HW2 2193  -0.077   2.192   2.402  1.2383  2.0132  0.8436
  732SOL     OW 2194   1.196   2.813   1.988 -0.4353  0.2164  0.1609
  732SOL    HW1 2195   1.219   2.766   2.076  0.6285  2.0729 -0.2164
  732SOL    HW2 2196   1.202   2.754   1.903  1.0374  0.8854 -0.0325
  733SOL     OW 2197   3.064   0.628   2.221 -0.6110  0.3461  0.1467
  733SOL    HW1 2198   3.150   0.663   2.167  1.6578 -1.1223 -2.3466
  733SOL    HW2 2199   3.003   0.565   2.173 -2.0009  1.6211  2.4291
  734SOL     OW 2200   1.423   0.354   2.680  0.0676  0.4667 -0.1357
  734SOL    HW1 2201   1.420   0.444   2.737 -2.4540  1.1029 -1.2532
  734SOL    HW2 2202   1.344   0.287   2.705  1.4521  0.3014  1.0832
  735SOL     OW 2203   2.899   2.617   2.277 -0.1967 -0.3155 -0.0727
  735SOL    HW1 2204   2.914   2.573   2.184 -0.2121  1.0427  3.3448
  735SOL    HW2 2205   2.985   2.668   2.303 -3.4416 -0.6171 -0.0654
  736SOL     OW 2206   0.929   0.456   2.536  0.1988  0.0454  0.5003
  736SOL    HW1 2207   0.886   0.517   2.461 -0.2994  0.9398 -1.7360
  736SOL    HW2 2208   0.941   0.358   2.493  1.1994 -1.0120  0.7463
  737SOL     OW 2209   2.620   0.500   2.823  0.2204 -0.4939 -0.0034
  737SOL    HW1 2210   2.620   0.464   2.922 -0.5193  0.4173  2.8202
  737SOL    HW2 2211   2.705   0.466   2.773 -0.7721  0.5270  1.1977
  738SOL     OW 2212   1.733   1.261   2.897 -0.4854 -0.1838  0.6199
  738SOL    HW1 2213   1.835   1.256   2.875  0.9962  1.4489 -2.4711
  738SOL    HW2 2214   1.685   1.194   2.835 -0.6884  0.2090 -2.7052
  739SOL     OW 2215   1.760   0.703   0.679 -0.3463 -0.3196  0.2170
  739SOL    HW1 2216   1.845   0.730   0.736 -0.3455  0.2813  0.0635
  739SOL    HW2 2217   1.770   0.611   0.631 -1.2579  1.8462  1.9550
  740SOL     OW 2218   1.926   1.931   2.385  0.6785 -0.6033  0.0558
  740SOL    HW1 2219   1.988   1.849   2.412 -1.9614  0.2570  1.5098
  740SOL    HW2 2220   1.852   1.913   2.308 -2.3314 -1.0713 -2.3249
  741SOL     OW 2221   2.585   0.106   2.515 -0.5682  0.1359  0.5355
  741SOL    HW1 2222   2.685   0.126   2.525 -0.0815  3.6127  0.5003
  741SOL    HW2 2223   2.546   0.139   2.422  0.3791 -0.1530  0.5470
  742SOL     OW 2224   2.180   1.369   0.150  0.8294 -0.2026  0.4822
  742SOL    HW1 2225   2.086   1.408   0.128  4.0968 -1.0135  0.0581
  742SOL    HW2 2226   2.176   1.283   0.206  2.4631  4.3260  0.5592
  743SOL     OW 2227   1.752   0.625   2.628 -0.0633  0.2235  0.5898
  743SOL    HW1 2228   1.742   0.568   2.537 -4.0310 -2.8448 -3.7213
  743SOL    HW2 2229   1.703   0.717   2.627  0.1547 -1.4247 -1.6985
  744SOL     OW 2230   2.707   2.013   0.055  0.1642 -0.2536  0.1780
  744SOL    HW1 2231   2.657   2.045   0.146 -0.2796  3.8175  1.0617
  744SOL    HW2 2232   2.671   1.924   0.014  0.9943  0.2256 -0.2004
  745SOL     OW 2233   2.157   2.647   2.153  0.1437 -0.1656 -0.6425
  745SOL    HW1 2234   2.060   2.611   2.168 -0.3015  1.7543  2.0155
  745SOL    HW2 2235   2.193   2.719   2.221  0.0554 -0.4659 -0.7459
  746SOL     OW 2236   0.013   2.650   1.728 -0.1243 -0.1141 -0.1642
  746SOL    HW1 2237   0.068   2.561   1.714  2.1793 -0.3073 -0.1722
  746SOL    HW2 2238   0.045   2.698   1.818  2.0000 -1.5770  2.2182
  747SOL     OW 2239   3.089   1.747   1.652 -0.0368 -0.2026  0.3867
  747SOL    HW1 2240   3.052   1.653   1.630  1.3366 -4.0300  0.1764
  747SOL    HW2 2241   3.153   1.774   1.578 -2.1507 -0.9404  1.1363
  748SOL     OW 2242   1.819   2.715   2.903 -0.4107 -0.4672  0.0748
  748SOL    HW1 2243   1.841   2.779   2.984 -0.6575  1.0603  0.4399
  748SOL    HW2 2244   1.719   2.716   2.881 -1.2332  1.5383 -2.8021
  749SOL     OW 2245   1.345   3.048   0.849 -0.2932 -0.3948 -0.0173
  749SOL    HW1 2246   1.244   3.022   0.852 -6.0324 -0.5762 -1.3823
  749SOL    HW2 2247   1.406   2.989   0.790 -3.7399  1.0980 -0.3307
  750SOL     OW 2248   2.298   0.193   1.866 -0.0751  0.2859 -0.0614
  750SOL    HW1 2249   2.328   0.249   1.783  2.3172 -0.7746  0.6351
  750SOL    HW2 2250   2.288   0.253   1.950  1.0549 -1.2971 -2.8220
  751SOL     OW 2251   0.772   2.061   2.837 -0.1694 -0.7578 -0.4943
  751SOL    HW1 2252   0.848   2.077   2.908  1.5996 -0.8031  0.5066
  751SOL    HW2 2253   0.677   2.066   2.878 -0.4714  1.4759  2.8053
  752SOL     OW 2254   1.322   0.836   1.275  0.1450  0.7390 -0.0970
  752SOL    HW1 2255   1.385   0.910   1.238  0.4122 -0.3259  1.6408
  752SOL    HW2 2256   1.375   0.766   1.328 -1.7612  0.3744  2.1346
  753SOL     OW 2257   0.949   2.601   1.829 -0.1044  1.2962 -0.4602
  753SOL    HW1 2258   1.051   2.620   1.816 -1.1542  2.2398  0.3234
  753SOL    HW2 2259   0.888   2.686   1.834 -2.5223  1.4449  0.2674
  754SOL     OW 2260   1.147   1.216   3.040 -0.5893 -0.3872 -0.1483
  754SOL    HW1 2261   1.228   1.151   3.014 -0.7119 -2.9868 -2.1824
  754SOL    HW2 2262   1.176   1.311   3.073  2.3865 -1.9450 -0.0975
  755SOL     OW 2263   1.988   0.483   2.243  0.3398  0.6080  0.3739
  755SOL    HW1 2264   2.045   0.399   2.275 -0.8568  0.1073 -0.8653
  755SOL    HW2 2265   1.889   0.474   2.274 -1.4968 -1.5464  0.9634
  756SOL     OW 2266   2.585   0.994   2.971 -0.0452  0.4867 -0.5154
  756SOL    HW1 2267   2.688   0.992   2.987  0.3258 -0.0981  1.0460
  756SOL    HW2 2268   2.539   0.916   3.015  0.8995  0.7675  1.6070
  757SOL     OW 2269   0.125   0.490   2.011 -0.5129 -0.3791  0.3250
  757SOL    HW1 2270   0.157   0.413   1.950  0.6700  0.2716 -0.4634
  757SOL    HW2 2271   0.030   0.472   2.062 -1.3257  1.8825 -1.6713
  758SOL     OW 2272   2.199   0.085   1.510  0.7426 -0.1440 -0.4696
  758SOL    HW1 2273   2.205  -0.020   1.521  0.1236 -1.1050 -1.5339
  758SOL    HW2 2274   2.254   0.124   1.431 -1.2711  1.9888  1.1480
  759SOL     OW 2275   1.672   0.124   0.071  0.1218  0.5176  0.4920
  759SOL    HW1 2276   1.630   0.086  -0.019 -0.7726 -0.1164 -0.5230
  759SOL    HW2 2277   1.774   0.121   0.077  1.1330 -0.5167  1.3443
  760SOL     OW 2278   2.547   2.057   2.829  0.7197 -0.3120 -0.0551
  760SOL    HW1 2279   2.633   2.013   2.860  0.1271  0.5955  1.0266
  760SOL    HW2 2280   2.528   2.148   2.879  0.3411 -0.2039  1.1054
  761SOL     OW 2281   1.896   1.791   1.741 -0.8178 -0.3210 -0.2364
  761SOL    HW1 2282   1.921   1.697   1.774 -0.4176  0.4045 -2.1890
  761SOL    HW2 2283   1.855   1.787   1.648  0.3100 -1.1980 -1.1392
  762SOL     OW 2284   0.483   2.365   0.954 -0.1575  0.0724 -0.0938
  762SOL    HW1 2285   0.536   2.380   0.866  0.3684 -1.6531  2.3710
  762SOL    HW2 2286   0.533   2.416   1.035  0.2253  1.3355  0.9948
  763SOL     OW 2287   2.109   1.566   3.010 -0.0591 -0.0306  0.0123
  763SOL    HW1 2288   2.181   1.497   2.976  0.5450  0.6792  3.1212
  763SOL    HW2 2289   2.013   1.535   3.015  0.6701 -0.8126  3.6353
  764SOL     OW 2290   0.678   0.554   0.737  0.1747  0.4158  0.2599
  764SOL    HW1 2291   0.585   0.507   0.737 -2.1554  1.0994  1.2500
  764SOL    HW2 2292   0.735   0.527   0.815  0.0478  2.3595 -1.3938
  765SOL     OW 2293   0.772   0.246   0.788 -0.0227  0.0445  0.6574
  765SOL    HW1 2294   0.793   0.299   0.697  3.8427  3.1701 -2.0172
  765SOL    HW2 2295   0.799   0.305   0.870  0.0483 -2.6904 -2.9898
  766SOL     OW 2296   2.873   2.161   2.991 -0.7015 -0.1415 -0.0992
  766SOL    HW1 2297   2.777   2.141   3.030 -0.7967  0.9277 -1.9360
  766SOL    HW2 2298   2.933   2.216   3.050  0.0663 -0.9239 -1.3690
  767SOL     OW 2299   2.788   1.676   0.576 -0.5016 -0.0775 -0.2196
  767SOL    HW1 2300   2.698   1.702   0.614  2.4023 -0.2531  0.3790
  767SOL    HW2 2301   2.866   1.739   0.595  0.5081  0.9929  1.2111
  768SOL     OW 2302   1.034   0.132   0.237  0.0219 -0.9419 -0.3198
  768SOL    HW1 2303   0.978   0.099   0.321 -0.9002 -0.8123  1.4412
  768SOL    HW2 2304   1.134   0.107   0.232  1.7677  1.2471  0.7798
  769SOL     OW 2305   1.107   1.891   2.336 -0.6585  0.2574  0.0868
  769SOL    HW1 2306   1.010   1.917   2.354  0.7224 -0.6397 -0.0967
  769SOL    HW2 2307   1.160   1.860   2.422 -0.6033  1.2793  2.2471
  770SOL     OW 2308   0.173   1.138   2.309  0.2446  0.1674 -0.2460
  770SOL    HW1 2309   0.162   1.191   2.397 -0.7745 -0.9542 -1.4726
  770SOL    HW2 2310   0.089   1.150   2.246 -0.4320  2.2795 -1.0811
  771SOL     OW 2311   3.068   2.841   1.939  0.0318  0.4357 -0.4057
  771SOL    HW1 2312   2.997   2.855   1.868  3.3590 -0.2901  2.4853
  771SOL    HW2 2313   3.054   2.895   2.026 -2.2173 -0.5822 -0.8035
  772SOL     OW 2314   2.265   0.191   2.858 -0.7383 -0.4876  0.0045
  772SOL    HW1 2315   2.317   0.112   2.814 -1.9420  1.5490 -0.6290
  772SOL    HW2 2316   2.303   0.228   2.945 -1.6334 -0.0423  0.4789
  773SOL     OW 2317   0.638   2.130   2.376  0.2086 -0.2108  0.0451
  773SOL    HW1 2318   0.636   2.222   2.324 -0.4267 -2.0206  0.2566
  773SOL    HW2 2319   0.558   2.098   2.439  1.3463 -0.9587  2.2435
  774SOL     OW 2320   2.111   3.069   2.577 -0.3961 -0.3793 -0.0491
  774SOL    HW1 2321   2.124   3.161   2.629 -1.0102 -0.2039 -0.1062
  774SOL    HW2 2322   2.145   2.988   2.636  0.9890 -1.9547  2.8589
  775SOL     OW 2323   2.560   2.985   2.231  0.2020 -0.1609  0.5522
  775SOL    HW1 2324   2.511   3.079   2.213  1.0272  0.8922 -0.7041
  775SOL    HW2 2325   2.642   2.986   2.292 -0.5506 -1.2567 -0.8681
  776SOL     OW 2326   0.007   1.241   0.193  0.7137 -0.4754 -0.1288
  776SOL    HW1 2327  -0.041   1.209   0.109  0.0549 -0.4221  2.1710
  776SOL    HW2 2328  -0.056   1.242   0.275 -1.3699  0.5982  0.7743
  777SOL     OW 2329   0.416   2.911   0.382 -0.2313 -0.4636 -0.4211
  777SOL    HW1 2330   0.314   2.907   0.362 -1.1494 -1.8217 -0.2871
  777SOL    HW2 2331   0.479   2.914   0.300 -0.9160 -2.0359 -1.6990
  778SOL     OW 2332   1.328   1.978   0.181  0.4079  0.4685 -0.7783
  778SOL    HW1 2333   1.261   2.021   0.252 -0.3194 -1.2420 -1.1505
  778SOL    HW2 2334   1.375   2.055   0.123  1.0904  1.7127 -1.9191
  779SOL     OW 2335   0.186   0.903   0.470 -0.1079  0.0325  0.3831
  779SOL    HW1 2336   0.164   0.808   0.424 -0.8936  0.8598 -0.1649
  779SOL    HW2 2337   0.120   0.940   0.537 -0.5080  2.6494 -0.2412
  780SOL     OW 2338   0.143   0.319   2.418 -0.9732 -0.3257  0.1924
  780SOL    HW1 2339   0.117   0.414   2.445  1.5195  1.1706 -0.9101
  780SOL    HW2 2340   0.245   0.312   2.387  0.4595 -1.7487  0.8709
  781SOL     OW 2341   0.671   1.653   1.515 -0.1060  0.2045  0.1641
  781SOL    HW1 2342   0.740   1.615   1.581 -0.6488  0.7076 -0.6625
  781SOL    HW2 2343   0.573   1.631   1.543 -0.8915 -2.2149  0.3874
  782SOL     OW 2344   2.607   0.151   0.926  0.1664 -0.1429 -0.4856
  782SOL    HW1 2345   2.557   0.158   0.834 -0.6496 -0.1566 -0.5425
  782SOL    HW2 2346   2.592   0.220   1.000  1.1035  1.3655  2.1069
  783SOL     OW 2347   2.764   0.680   2.439  0.9940 -0.2990  0.0563
  783SOL    HW1 2348   2.803   0.697   2.535 -2.0648  0.7647 -0.2691
  783SOL    HW2 2349   2.719   0.580   2.427 -0.1592  1.2103  0.7795
  784SOL     OW 2350   1.463   2.178   0.050  0.4483 -0.6569 -0.3115
  784SOL    HW1 2351   1.507   2.248   0.116  0.4316 -0.2114 -3.0605
  784SOL    HW2 2352   1.415   2.219  -0.029 -2.1578 -1.5378  0.5668
  785SOL     OW 2353   2.068   0.305   0.029 -0.2880  0.6012  0.9874
  785SOL    HW1 2354   2.010   0.327   0.111  0.5988 -0.4599 -1.0031
  785SOL    HW2 2355   2.088   0.383  -0.043  0.7029 -0.2717 -0.7830
  786SOL     OW 2356   2.053   2.190   2.241  0.9089 -0.2640  0.5783
  786SOL    HW1 2357   2.011   2.097   2.259 -2.0697 -0.7634 -1.7834
  786SOL    HW2 2358   2.159   2.193   2.244 -2.2812  0.2834 -2.0680
  787SOL     OW 2359   1.337   0.511   0.919  0.0641 -0.1316  0.0034
  787SOL    HW1 2360   1.270   0.585   0.931  1.7040  0.0069  0.2484
  787SOL    HW2 2361   1.416   0.544   0.857 -1.1946 -1.6112  2.6710
  788SOL     OW 2362   1.236   0.399   0.084  0.8287 -0.2461  0.2654
  788SOL    HW1 2363   1.150   0.395   0.025  3.5603 -2.8068 -0.5975
  788SOL    HW2 2364   1.254   0.485   0.139  1.1281 -1.2528 -1.4586
  789SOL     OW 2365   2.559   0.091   1.917 -0.1504 -0.2442  0.7015
  789SOL    HW1 2366   2.459   0.108   1.891  4.1193 -0.4952  0.8447
  789SOL    HW2 2367   2.575  -0.014   1.904  1.0385 -2.7959  1.0967
  790SOL     OW 2368   2.614   2.792   0.777 -0.2028  0.2077  0.4079
  790SOL    HW1 2369   2.680   2.814   0.699  1.3043  3.6964 -2.6079
  790SOL    HW2 2370   2.614   2.860   0.854 -1.1173  0.8194  0.0083
  791SOL     OW 2371   1.915   1.218   0.256 -0.7963 -0.2301 -0.5219
  791SOL    HW1 2372   1.818   1.192   0.268  0.1512 -0.8518 -1.1310
  791SOL    HW2 2373   1.984   1.143   0.247  2.4876 -0.8944 -0.4341
  792SOL     OW 2374   0.418   1.760   2.144  0.3413  0.1477  0.0092
  792SOL    HW1 2375   0.490   1.750   2.221  1.9228  1.5255  0.0382
  792SOL    HW2 2376   0.332   1.812   2.171  0.0230  0.7318  0.1733
  793SOL     OW 2377   2.131   1.571   2.122 -0.3251 -0.0557  0.4984
  793SOL    HW1 2378   2.210   1.618   2.075 -1.2596  0.8065  0.6721
  793SOL    HW2 2379   2.109   1.477   2.083 -1.0823 -0.3515  1.0200
  794SOL     OW 2380   0.558   1.417   2.344 -0.4884 -0.4546 -0.0493
  794SOL    HW1 2381   0.550   1.380   2.246 -0.9523 -2.7751  1.6547
  794SOL    HW2 2382   0.477   1.479   2.376  1.5605  0.3688 -0.5702
  795SOL     OW 2383   2.520   2.266   1.822 -0.1959  0.2221  0.4490
  795SOL    HW1 2384   2.512   2.252   1.926 -0.7404 -1.6273 -0.7211
  795SOL    HW2 2385   2.442   2.221   1.767 -0.6113  0.3916 -0.1330
  796SOL     OW 2386   3.097   1.113   2.685  0.0261  0.0975 -0.3263
  796SOL    HW1 2387   2.991   1.117   2.681 -0.8926  3.7972  1.3623
  796SOL    HW2 2388   3.144   1.108   2.778 -0.6651  2.9127 -0.5267
  797SOL     OW 2389   0.755   0.674   1.397 -0.1987  0.0866  0.1838
  797SOL    HW1 2390   0.821   0.719   1.464 -1.8503  1.5956  0.1360
  797SOL    HW2 2391   0.682   0.745   1.368 -1.0589 -1.2678  1.8815
  798SOL     OW 2392   1.300   0.347   1.124 -0.5005 -0.4244  0.1216
  798SOL    HW1 2393   1.384   0.324   1.180 -4.0847  1.1342 -2.2475
  798SOL    HW2 2394   1.323   0.411   1.045  0.7966 -2.0346  0.3201
  799SOL     OW 2395   1.966   2.712   1.044  0.3308  0.2351  0.7670
  799SOL    HW1 2396   1.876   2.709   1.102 -0.6083 -2.8838  0.9710
  799SOL    HW2 2397   1.953   2.671   0.946 -0.5632 -2.3023 -1.5367
  800SOL     OW 2398   3.044   0.607   1.822  0.2389  0.3734  0.7470
  800SOL    HW1 2399   2.952   0.654   1.847 -0.5365 -1.1269 -2.5704
  800SOL    HW2 2400   3.111   0.594   1.903  0.3518  1.5440 -0.1074
  801SOL     OW 2401   1.976   2.258   0.077  0.1771  0.0917 -0.2648
  801SOL    HW1 2402   1.893   2.203   0.046  1.5835 -2.9708  0.1931
  801SOL    HW2 2403   2.063   2.212   0.051 -0.3636  0.4242 -0.9008
  802SOL     OW 2404   0.721   0.831   2.567  0.1631  0.1812 -0.2475
  802SOL    HW1 2405   0.794   0.792   2.498  0.4895 -1.4659 -0.6813
  802SOL    HW2 2406   0.626   0.802   2.553  1.5394  2.5179  2.2878
  803SOL     OW 2407   0.952   0.069   0.882  0.2550  0.6293 -0.0207
  803SOL    HW1 2408   1.047   0.112   0.885 -3.9448  0.0078 -0.5109
  803SOL    HW2 2409   0.886   0.139   0.839  0.6528  0.0354 -0.9923
  804SOL     OW 2410   0.280   0.032   2.143  0.2396 -0.2032 -0.0832
  804SOL    HW1 2411   0.258   0.118   2.191  0.8892  2.0213 -2.8387
  804SOL    HW2 2412   0.203   0.003   2.084 -0.7700  0.4571  1.2054
  805SOL     OW 2413   2.426   0.261   0.350 -0.4542  0.4265  0.7255
  805SOL    HW1 2414   2.530   0.256   0.348  1.5786 -0.2961  3.9700
  805SOL    HW2 2415   2.387   0.299   0.258 -0.4826 -0.1350 -3.1820
  806SOL     OW 2416   0.633   2.429   1.659  0.2797  0.7937  0.5647
  806SOL    HW1 2417   0.619   2.532   1.666 -0.1594  0.5257 -3.3295
  806SOL    HW2 2418   0.732   2.397   1.672  1.4249  0.7334  3.0009
  807SOL     OW 2419   2.427   0.919   0.428  0.5459 -0.2575 -0.3023
  807SOL    HW1 2420   2.510   0.858   0.446  2.2177 -2.8002  0.6498
  807SOL    HW2 2421   2.441   0.970   0.338  3.8416 -1.7452 -0.1844
  808SOL     OW 2422   0.532   2.037   2.987  0.4408  0.0263  0.7536
  808SOL    HW1 2423   0.555   2.081   3.077 -2.1377 -2.2515  1.2084
  808SOL    HW2 2424   0.540   1.932   2.990 -0.1602  2.7100  0.6270
  809SOL     OW 2425   2.681   1.954   1.926  0.4736 -0.4255  0.6846
  809SOL    HW1 2426   2.765   1.997   1.963 -1.5260 -2.2045 -1.0400
  809SOL    HW2 2427   2.642   2.010   1.848  1.7933  0.5981  1.3215
  810SOL     OW 2428   2.108   1.052   0.516  0.2005 -0.1143 -0.4854
  810SOL    HW1 2429   2.197   1.011   0.556  0.9131 -0.6631  2.3480
  810SOL    HW2 2430   2.056   1.121   0.580 -0.8139  0.1494 -0.8191
  811SOL     OW 2431   1.371   2.495   1.288 -0.5809 -0.2683  0.1696
  811SOL    HW1 2432   1.342   2.392   1.292 -2.1488 -1.5283  0.5819
  811SOL    HW2 2433   1.290   2.556   1.270  1.5921  1.5743 -3.2851
  812SOL     OW 2434   1.468   0.846   1.954 -0.2137  0.4515 -0.0800
  812SOL    HW1 2435   1.530   0.913   2.001  2.1186 -3.5752  1.1879
  812SOL    HW2 2436   1.377   0.887   1.940  1.6987 -0.9142 -0.6647
  813SOL     OW 2437   1.737   2.140   2.468  0.0856 -0.4844  0.0798
  813SOL    HW1 2438   1.783   2.064   2.520 -0.1877 -0.7495  1.1159
  813SOL    HW2 2439   1.722   2.098   2.371 -0.1079 -0.3590 -1.6948
  814SOL     OW 2440   2.865   1.546   2.839  0.1260  0.3824 -0.2133
  814SOL    HW1 2441   2.959   1.521   2.884 -0.3251  0.1482  0.2937
  814SOL    HW2 2442   2.875   1.615   2.760 -0.0226  0.2569  0.2083
  815SOL     OW 2443   2.188   2.856   2.759 -0.3303  1.0895  0.0929
  815SOL    HW1 2444   2.175   2.752   2.795 -1.3649  1.0071  1.7044
  815SOL    HW2 2445   2.289   2.873   2.745 -0.2556  0.2178  0.4741
  816SOL     OW 2446   1.640   0.318   1.636  0.0563  0.4556  0.7114
  816SOL    HW1 2447   1.678   0.220   1.652 -0.8082 -1.0081  0.9484
  816SOL    HW2 2448   1.567   0.339   1.702 -1.4555  1.4875  1.8772
  817SOL     OW 2449   0.411   1.227   2.532 -0.1224 -0.0120  0.1943
  817SOL    HW1 2450   0.312   1.258   2.528  2.5115 -0.4903 -1.7946
  817SOL    HW2 2451   0.460   1.252   2.444 -0.6179  0.8509 -0.6234
  818SOL     OW 2452   1.969   0.788   0.465  0.6072 -0.2391 -0.3223
  818SOL    HW1 2453   1.992   0.885   0.505  0.7504  0.2216 -0.6254
  818SOL    HW2 2454   1.901   0.743   0.530 -0.3278  0.0306  1.3949
  819SOL     OW 2455   2.791   2.915   3.029 -0.1235 -0.1166  0.2381
  819SOL    HW1 2456   2.874   2.863   2.987  1.4568 -0.2142 -0.8998
  819SOL    HW2 2457   2.709   2.904   2.965 -0.4502 -0.8290 -0.2491
  820SOL     OW 2458   1.253   1.123   0.635  0.3153 -0.2406  0.7453
  820SOL    HW1 2459   1.228   1.220   0.679  0.4440  1.0527  0.4350
  820SOL    HW2 2460   1.246   1.047   0.704  3.5183 -2.4362 -1.1670
  821SOL     OW 2461   0.000   1.289   0.673 -0.3332  0.3257 -0.0566
  821SOL    HW1 2462  -0.019   1.280   0.779  1.2207  0.9438  0.2435
  821SOL    HW2 2463   0.081   1.350   0.652 -2.6479  1.4864  2.6648
  822SOL     OW 2464   2.549   1.736   2.434  0.1112  0.0763  0.1957
  822SOL    HW1 2465   2.573   1.808   2.505 -0.5975  0.0545  0.3395
  822SOL    HW2 2466   2.472   1.767   2.364 -2.1185  0.7368  1.5469
  823SOL     OW 2467   2.057   0.780   1.216  0.7625 -0.2924 -0.0983
  823SOL    HW1 2468   2.002   0.856   1.260  0.3179 -2.0676  0.7792
  823SOL    HW2 2469   2.028   0.757   1.117  1.3984 -1.3706 -2.4163
  824SOL     OW 2470   0.133   2.056   2.792 -0.1369  0.3128  0.0711
  824SOL    HW1 2471   0.102   1.980   2.856  2.6926 -0.7204  1.3697
  824SOL    HW2 2472   0.187   2.017   2.705  2.3743 -1.8388  0.2279
  825SOL     OW 2473   1.262   1.097   0.300 -0.7553  0.0272  0.8187
  825SOL    HW1 2474   1.294   1.199   0.286  2.7027  0.6357 -0.5345
  825SOL    HW2 2475   1.157   1.079   0.291 -0.9540  1.3160  2.1669
  826SOL     OW 2476   1.931   0.658   1.607 -0.3457  0.3514  0.2688
  826SOL    HW1 2477   2.013   0.600   1.631 -0.1047  0.4152  0.2058
  826SOL    HW2 2478   1.855   0.607   1.561  1.0499 -0.4016 -1.6820
  827SOL     OW 2479   0.704   1.374   0.271  0.1015 -0.7312  0.2697
  827SOL    HW1 2480   0.759   1.297   0.224  3.0910  3.7561 -2.7374
  827SOL    HW2 2481   0.665   1.349   0.366 -0.0665 -0.7218  1.5059
  828SOL     OW 2482   2.515   0.104   1.601  0.7143 -0.1255 -0.5405
  828SOL    HW1 2483   2.455   0.135   1.523 -0.5080 -2.3566 -1.1770
  828SOL    HW2 2484   2.478   0.015   1.633 -0.5454 -2.7006 -1.3793
  829SOL     OW 2485   2.829   2.454   2.960 -0.0957  0.0023  0.5590
  829SOL    HW1 2486   2.785   2.360   2.955  1.4202 -2.2588  0.3520
  829SOL    HW2 2487   2.780   2.511   3.033 -1.7462 -1.2319  1.5387
  830SOL     OW 2488   2.842   0.929   3.005  0.7560  0.6718 -0.7075
  830SOL    HW1 2489   2.907   1.011   2.994 -0.0725  4.6041  0.8223
  830SOL    HW2 2490   2.875   0.868   3.082  0.0111  0.6596  2.0037
  831SOL     OW 2491   0.081   0.666   0.376  0.7852  0.1439  0.2676
  831SOL    HW1 2492   0.085   0.621   0.470  1.2294 -2.6297  0.1288
  831SOL    HW2 2493   0.080   0.600   0.292  1.7317 -0.7480  1.3001
  832SOL     OW 2494   1.808   0.743   3.075 -0.1968  0.0078 -0.3082
  832SOL    HW1 2495   1.716   0.779   3.034  1.5372  0.9054  0.1565
  832SOL    HW2 2496   1.813   0.637   3.077 -2.1656 -0.8122 -0.4906
  833SOL     OW 2497   2.429   2.142   0.523  0.4228  0.7499 -0.1132
  833SOL    HW1 2498   2.330   2.132   0.497  0.7230  1.5189  1.5625
  833SOL    HW2 2499   2.484   2.071   0.468  1.3463 -1.5634  0.5936
  834SOL     OW 2500   0.197   0.197   0.495  0.0950  0.1600 -0.0766
  834SOL    HW1 2501   0.217   0.108   0.525  0.7518  2.8748 -1.0862
  834SOL    HW2 2502   0.170   0.209   0.398  2.1293  1.9113  1.1467
  835SOL     OW 2503   2.368   1.574   1.122  0.3986  0.2912  0.0398
  835SOL    HW1 2504   2.403   1.633   1.192 -0.2160  0.4914 -1.3219
  835SOL    HW2 2505   2.402   1.592   1.026  0.2180 -2.3649  0.9162
  836SOL     OW 2506   1.593   0.831   2.526  0.6459 -0.2585 -0.1640
  836SOL    HW1 2507   1.494   0.825   2.498  0.6564  2.1755 -0.0907
  836SOL    HW2 2508   1.654   0.847   2.444  2.7702 -0.5587  0.4983
  837SOL     OW 2509   1.730   0.161   0.549 -0.2791  0.4878  0.1212
  837SOL    HW1 2510   1.648   0.216   0.580 -0.8887  0.7374  0.7546
  837SOL    HW2 2511   1.706   0.078   0.499 -1.4107 -0.9289  3.2872
  838SOL     OW 2512   1.130   1.567   2.781  0.1164 -0.0539  0.0997
  838SOL    HW1 2513   1.142   1.530   2.880  0.8507 -1.0703 -0.4557
  838SOL    HW2 2514   1.128   1.485   2.713  0.6514 -0.9309 -1.9568
  839SOL     OW 2515   1.626   0.295   0.980  0.1859  0.3237 -0.2420
  839SOL    HW1 2516   1.630   0.363   1.057  1.3583  0.0906  1.7376
  839SOL    HW2 2517   1.617   0.197   1.016 -0.2042 -0.5675  0.8752
  840SOL     OW 2518   2.455   2.933   1.733  0.0627 -0.1464  0.2098
  840SOL    HW1 2519   2.387   2.860   1.736 -2.2035  2.2051  1.6258
  840SOL    HW2 2520   2.549   2.905   1.699 -0.3803  1.4783  1.5744
  841SOL     OW 2521   1.555   0.831   2.992 -0.0427 -0.0707  0.0137
  841SOL    HW1 2522   1.503   0.859   3.069 -1.8332 -2.1418 -1.5240
  841SOL    HW2 2523   1.557   0.891   2.905  1.2371  0.7120 -2.4292
  842SOL     OW 2524   0.848   1.539   0.896  0.6599  0.6453  0.3123
  842SOL    HW1 2525   0.822   1.604   0.973  0.8075  1.8883 -1.0389
  842SOL    HW2 2526   0.772   1.467   0.878  0.8251 -0.2839 -1.3284
  843SOL     OW 2527   0.062   0.018   1.367 -0.2051  0.1455  0.3921
  843SOL    HW1 2528   0.140   0.070   1.411  0.6057 -0.6240 -2.2525
  843SOL    HW2 2529   0.058  -0.081   1.401 -2.9292  2.8980 -2.2602
  844SOL     OW 2530   0.783   2.476   0.236  0.6100 -0.4787  0.0539
  844SOL    HW1 2531   0.711   2.483   0.311 -1.0363  0.9130  0.5385
  844SOL    HW2 2532   0.769   2.554   0.167 -1.6881  2.2198 -0.5327
  845SOL     OW 2533   1.651   2.885   1.316 -0.4319  0.5291  0.1911
  845SOL    HW1 2534   1.678   2.785   1.304  0.3908 -1.5964 -1.7551
  845SOL    HW2 2535   1.711   2.938   1.386 -0.7484 -0.6250  0.1205
  846SOL     OW 2536   1.573   2.923   0.758 -0.3674 -0.3461 -0.1862
  846SOL    HW1 2537   1.555   2.859   0.678 -1.2772  0.9074 -0.5227
  846SOL    HW2 2538   1.673   2.936   0.782 -1.9093 -0.9814  0.2261
  847SOL     OW 2539   2.041   1.663   0.370 -0.3950  0.3098  0.0980
  847SOL    HW1 2540   2.016   1.569   0.413 -3.6175 -3.8982 -1.4588
  847SOL    HW2 2541   1.955   1.714   0.354  2.6689 -3.1169  1.3528
  848SOL     OW 2542   2.451   0.848   2.626  0.2090  0.2261 -0.5227
  848SOL    HW1 2543   2.384   0.929   2.642 -1.4110 -1.6111 -1.1281
  848SOL    HW2 2544   2.406   0.757   2.641  0.7371  1.3805 -0.1920
  849SOL     OW 2545   2.567   0.863   2.373 -0.3050 -0.1361 -0.0347
  849SOL    HW1 2546   2.640   0.790   2.368 -2.2360  1.1731  0.3713
  849SOL    HW2 2547   2.523   0.854   2.469 -0.2095 -0.1264  0.2526
  850SOL     OW 2548   1.513   0.110   1.327 -0.2547  0.6854  0.0945
  850SOL    HW1 2549   1.508   0.066   1.234  0.2999 -1.8097  2.3717
  850SOL    HW2 2550   1.481   0.050   1.408 -1.1747 -0.1012 -1.5950
  851SOL     OW 2551   0.459   1.835   0.561  0.1798  0.1115 -0.1132
  851SOL    HW1 2552   0.499   1.923   0.602  0.7263 -0.0823  1.0393
  851SOL    HW2 2553   0.489   1.819   0.461  3.2825 -1.1855 -1.3239
  852SOL     OW 2554   0.795   2.093   1.721  0.3504  0.3335 -0.5434
  852SOL    HW1 2555   0.830   2.191   1.716  1.3097  0.9173 -0.9271
  852SOL    HW2 2556   0.741   2.060   1.806  0.0534 -0.3955  0.5510
  853SOL     OW 2557   2.511   1.503   2.577 -0.0074 -0.5361 -0.3506
  853SOL    HW1 2558   2.446   1.420   2.549  0.8258 -1.5897  2.0742
  853SOL    HW2 2559   2.495   1.587   2.514  0.2113  0.5739  0.1573
  854SOL     OW 2560   2.388   1.374   1.714 -0.3939  0.4994  0.6053
  854SOL    HW1 2561   2.436   1.329   1.629  0.5144  0.0226  0.5717
  854SOL    HW2 2562   2.354   1.303   1.781  1.3237  1.0826  1.8385
  855SOL     OW 2563   2.049   2.458   1.082 -0.0998 -0.2666 -0.3148
  855SOL    HW1 2564   2.031   2.560   1.078 -3.0253  1.4221 -0.4224
  855SOL    HW2 2565   2.142   2.439   1.120 -0.2010  0.6882 -0.6171
  856SOL     OW 2566   1.343   1.429   0.933 -0.1258  0.4038  0.0013
  856SOL    HW1 2567   1.403   1.512   0.961 -1.1390  2.7646  1.8152
  856SOL    HW2 2568   1.251   1.431   0.982 -2.0784 -1.1317  0.9484
  857SOL     OW 2569   3.027   2.707   0.963  0.4265  0.0909 -0.8871
  857SOL    HW1 2570   2.985   2.613   0.954 -2.7296 -2.7525  1.3502
  857SOL    HW2 2571   3.108   2.722   0.900 -2.5440 -0.7970 -0.0951
  858SOL     OW 2572   2.322   2.098   1.718 -0.0464 -0.0898 -0.1180
  858SOL    HW1 2573   2.237   2.106   1.651 -0.2771 -0.3906 -0.0494
  858SOL    HW2 2574   2.378   2.016   1.689 -0.7891 -0.5228 -0.7801
  859SOL     OW 2575   2.476   0.564   1.050 -0.1741 -0.7592 -0.3938
  859SOL    HW1 2576   2.498   0.590   0.950 -2.3750  1.0706 -1.0058
  859SOL    HW2 2577   2.487   0.465   1.066 -1.8293 -0.8837 -2.4182
  860SOL     OW 2578   1.885   2.789   0.446  0.5288 -0.1329  0.0416
  860SOL    HW1 2579   1.890   2.767   0.342  0.5955 -0.2597 -3.3087
  860SOL    HW2 2580   1.925   2.888   0.469  2.9560  1.2024 -0.1088
  861SOL     OW 2581   1.018   2.403   2.877  0.1862 -0.2617  0.2427
  861SOL    HW1 2582   1.046   2.489   2.825  2.1535 -0.6382 -1.5706
  861SOL    HW2 2583   0.992   2.409   2.978 -3.0625 -0.9435  1.2191
  862SOL     OW 2584   2.877   2.556   1.606 -0.4795  0.0335  0.6825
  862SOL    HW1 2585   2.933   2.591   1.686 -2.1073 -1.2942  0.4815
  862SOL    HW2 2586   2.843   2.629   1.543 -0.5559 -3.5327 -1.5961
  863SOL     OW 2587   1.837   2.714   0.191 -0.2885 -0.2353 -0.4697
  863SOL    HW1 2588   1.872   2.617   0.181  0.8291  1.6097 -0.9691
  863SOL    HW2 2589   1.745   2.736   0.142  1.1945  2.0394 -1.0282
  864SOL     OW 2590   2.005   1.222   2.834 -0.2958 -0.1164 -0.1903
  864SOL    HW1 2591   2.017   1.181   2.738  3.2703  1.3589 -1.6039
  864SOL    HW2 2592   2.071   1.185   2.909  2.6135 -0.1545  2.5394
  865SOL     OW 2593   2.187   1.893   0.708  0.4293 -0.5029  0.0561
  865SOL    HW1 2594   2.268   1.844   0.749  0.6609 -0.1215  0.2325
  865SOL    HW2 2595   2.118   1.925   0.774  0.4575 -0.3743 -0.0512
  866SOL     OW 2596   2.842   2.924   1.013  0.0693 -0.3673  0.0353
  866SOL    HW1 2597   2.856   2.990   0.931  1.2454  1.3497 -1.1540
  866SOL    HW2 2598   2.913   2.850   1.014  0.7941 -4.0830  1.8679
  867SOL     OW 2599   0.342   1.391   0.907  0.4127  0.4138  0.3934
  867SOL    HW1 2600   0.308   1.326   0.831 -0.0999 -2.7964 -3.7489
  867SOL    HW2 2601   0.359   1.490   0.879  1.4088 -0.4733  1.7517
  868SOL     OW 2602   0.755   1.923   2.118 -0.1678 -0.0584  0.6597
  868SOL    HW1 2603   0.695   1.859   2.180 -1.3061 -0.0793 -0.0321
  868SOL    HW2 2604   0.699   1.998   2.067 -2.3699  0.8683 -1.6204
  869SOL     OW 2605   2.554   1.941   1.667 -0.2254 -0.2246  0.1171
  869SOL    HW1 2606   2.636   1.994   1.629 -0.7498 -1.0772  0.4253
  869SOL    HW2 2607   2.592   1.848   1.699  0.5534 -3.3139  1.4203
  870SOL     OW 2608   2.304   2.680   1.248  0.1985  0.0982 -0.4490
  870SOL    HW1 2609   2.292   2.584   1.215  1.9727 -2.8162  2.6500
  870SOL    HW2 2610   2.318   2.695   1.352  4.3184  2.2696  0.9420
  871SOL     OW 2611   0.030   2.292   0.566 -0.1184 -0.5312  0.3618
  871SOL    HW1 2612   0.013   2.368   0.636 -1.1229  1.6134 -0.6448
  871SOL    HW2 2613  -0.044   2.281   0.496  0.5219 -1.4922 -0.0892
  872SOL     OW 2614   2.117   0.475   1.682  0.4594  0.2455 -0.3229
  872SOL    HW1 2615   2.076   0.472   1.780 -1.1053 -0.8561  0.8460
  872SOL    HW2 2616   2.216   0.441   1.683 -1.2015 -1.5427 -1.1816
  873SOL     OW 2617   1.737   2.147   3.058 -0.3385  0.1633 -0.5512
  873SOL    HW1 2618   1.641   2.154   3.100  0.4679 -1.6201  2.8569
  873SOL    HW2 2619   1.728   2.110   2.961  2.3078 -0.7022  0.2351
  874SOL     OW 2620   0.686   2.410   0.754  0.3190 -0.4219  0.4539
  874SOL    HW1 2621   0.696   2.514   0.768  0.6150  2.4366  2.1454
  874SOL    HW2 2622   0.772   2.363   0.783 -0.0209  1.9315  2.2990
  875SOL     OW 2623   2.278   1.548   1.432 -0.0063  0.0175  0.4839
  875SOL    HW1 2624   2.366   1.602   1.454  3.3840 -1.7892 -1.4992
  875SOL    HW2 2625   2.256   1.545   1.335 -0.1806 -1.3269 -1.8085
  876SOL     OW 2626   0.061   2.301   2.686 -0.4424 -0.2209  0.0277
  876SOL    HW1 2627   0.059   2.209   2.731 -2.9991 -3.2132 -0.1763
  876SOL    HW2 2628   0.076   2.384   2.749 -2.3619 -0.7061 -3.1032
  877SOL     OW 2629   2.946   2.700   0.573  0.5952  0.6143 -0.4125
  877SOL    HW1 2630   2.910   2.801   0.579 -1.2830  2.5955  0.1191
  877SOL    HW2 2631   3.012   2.673   0.649  2.2095  3.3449 -1.6967
  878SOL     OW 2632   2.814   1.511   2.230 -0.1105  0.4166  0.0583
  878SOL    HW1 2633   2.778   1.599   2.195  0.9954 -0.5747  1.3517
  878SOL    HW2 2634   2.810   1.504   2.334 -2.2074 -0.4047 -0.1875
  879SOL     OW 2635   2.393   0.083   1.251  0.0858  0.0860 -0.3658
  879SOL    HW1 2636   2.397  -0.007   1.309 -0.3310  0.1434  1.3469
  879SOL    HW2 2637   2.310   0.088   1.187  0.5173 -0.0547 -0.6307
  880SOL     OW 2638   0.768   0.508   2.266  0.2798 -0.1885 -0.2438
  880SOL    HW1 2639   0.702   0.472   2.345 -1.4563  2.3837 -0.4304
  880SOL    HW2 2640   0.775   0.446   2.181 -2.0848 -0.2052 -0.6246
  881SOL     OW 2641   0.856   0.093   0.464  0.6071  0.3910  0.1404
  881SOL    HW1 2642   0.902   0.003   0.473  1.7479  2.4951  4.1803
  881SOL    HW2 2643   0.758   0.087   0.424  2.2163  1.8405 -0.5315
  882SOL     OW 2644   2.716   1.688   1.716 -0.1143  0.6350 -0.1758
  882SOL    HW1 2645   2.804   1.652   1.680  0.2486 -0.1405 -0.9236
  882SOL    HW2 2646   2.722   1.709   1.819  0.8770 -1.9957 -0.9368
  883SOL     OW 2647   0.870   0.486   0.925  0.3400 -0.3757 -0.2974
  883SOL    HW1 2648   0.951   0.544   0.958  1.0417 -1.2146  2.7585
  883SOL    HW2 2649   0.800   0.461   0.995 -1.1543 -0.1074 -0.6051
  884SOL     OW 2650   1.110   1.730   1.175  0.4831 -1.0387  0.4277
  884SOL    HW1 2651   1.130   1.639   1.131 -0.4248  3.5691  1.5600
  884SOL    HW2 2652   1.104   1.809   1.105  0.7363 -0.1149 -1.6599
  885SOL     OW 2653   2.315   1.790   2.264  0.2567 -0.5658 -0.2040
  885SOL    HW1 2654   2.234   1.754   2.316 -0.4223  1.6418  1.5955
  885SOL    HW2 2655   2.311   1.894   2.256 -4.6003 -0.5302  2.9709
  886SOL     OW 2656   2.610   0.352   1.811 -0.0430  0.7778  0.2519
  886SOL    HW1 2657   2.606   0.247   1.817 -0.1400  0.1427 -4.0858
  886SOL    HW2 2658   2.685   0.382   1.751 -0.6811  0.6143 -0.2585
  887SOL     OW 2659   0.124   2.033   1.297  0.0393 -0.7920  0.0019
  887SOL    HW1 2660   0.066   1.988   1.228 -2.8763 -2.5964  2.6502
  887SOL    HW2 2661   0.117   2.136   1.299 -1.8340  0.9632  0.7717
  888SOL     OW 2662   0.618   1.218   1.505 -0.4426  0.0076 -0.0202
  888SOL    HW1 2663   0.608   1.275   1.417 -1.2037  0.9158  0.9475
  888SOL    HW2 2664   0.605   1.121   1.486  0.3650 -1.5932 -1.8486
  889SOL     OW 2665   0.827   2.499   2.203 -0.0733 -0.2582  0.4121
  889SOL    HW1 2666   0.744   2.439   2.189  0.0755 -0.5672 -0.7851
  889SOL    HW2 2667   0.902   2.476   2.135  2.2642  0.1967 -0.6291
  890SOL     OW 2668   2.419   2.484   0.264  0.8539 -0.6654  0.2146
  890SOL    HW1 2669   2.428   2.549   0.185 -2.6724 -0.7401 -1.9486
  890SOL    HW2 2670   2.350   2.522   0.330  0.3041  1.6159 -2.7906
  891SOL     OW 2671   2.514   1.703   0.633  0.2088 -0.3542 -0.5117
  891SOL    HW1 2672   2.498   1.677   0.735 -0.8768  1.5757 -0.9833
  891SOL    HW2 2673   2.432   1.682   0.573 -1.0054 -1.7421  2.1568
  892SOL     OW 2674   0.384   0.290   2.309 -0.2716 -0.5383  0.5967
  892SOL    HW1 2675   0.396   0.274   2.212 -0.9089 -0.0212  1.5345
  892SOL    HW2 2676   0.466   0.336   2.352  0.0032 -0.3122  0.0216
  893SOL     OW 2677   1.658   0.200   2.727 -0.1504  0.1594 -0.3509
  893SOL    HW1 2678   1.733   0.271   2.751  0.4045 -1.0082  1.5466
  893SOL    HW2 2679   1.578   0.238   2.672 -2.3329 -2.0177 -1.3718
  894SOL     OW 2680   2.169   2.073   0.059 -0.1206 -0.1744 -0.6651
  894SOL    HW1 2681   2.138   2.012  -0.016  0.1692 -0.3714  0.3934
  894SOL    HW2 2682   2.181   2.027   0.149 -2.3285  1.5884 -1.3136
  895SOL     OW 2683   2.799   1.446   0.888  0.0557  0.4384 -0.1571
  895SOL    HW1 2684   2.876   1.380   0.889 -0.8898  1.5940  0.7679
  895SOL    HW2 2685   2.827   1.538   0.931  1.1460  2.1988  2.6118
  896SOL     OW 2686   1.837   1.840   1.202 -0.4808 -0.1996  0.1894
  896SOL    HW1 2687   1.899   1.759   1.220 -0.8500  0.1012 -0.5650
  896SOL    HW2 2688   1.745   1.812   1.161 -1.4275 -1.2541 -1.6232
  897SOL     OW 2689   0.269   0.578   3.047 -0.0771  0.0507  0.0242
  897SOL    HW1 2690   0.239   0.624   2.958  1.9923  0.6228 -1.9885
  897SOL    HW2 2691   0.357   0.614   3.078 -1.4557 -0.0799 -1.0170
  898SOL     OW 2692   0.651   2.867   1.041 -0.4956  0.5181 -0.0320
  898SOL    HW1 2693   0.709   2.948   1.016  1.7750  0.8364  0.3930
  898SOL    HW2 2694   0.698   2.811   1.114  2.1064 -0.7977 -0.5692
  899SOL     OW 2695   2.785   0.848   1.361  0.3011 -0.5457 -0.3420
  899SOL    HW1 2696   2.732   0.792   1.290 -3.2434 -1.4057 -2.3909
  899SOL    HW2 2697   2.795   0.947   1.332  0.5568  1.7539 -0.0274
  900SOL     OW 2698   0.974   2.498   2.454 -0.2406  0.4104 -1.6316
  900SOL    HW1 2699   0.914   2.503   2.366 -3.3424 -0.3687  0.7827
  900SOL    HW2 2700   0.937   2.433   2.526 -3.4759 -2.0372  0.4002
  901SOL     OW 2701   1.890   2.417   1.350 -0.1461 -0.4963 -0.0663
  901SOL    HW1 2702   1.867   2.371   1.256 -0.4977 -0.3066 -2.4771
  901SOL    HW2 2703   1.986   2.399   1.388 -1.4828  0.2892  1.9133
  902SOL     OW 2704   2.536   1.657   1.490 -0.0863 -0.0055  0.3828
  902SOL    HW1 2705   2.601   1.678   1.566 -1.9460 -0.4804  0.2418
  902SOL    HW2 2706   2.590   1.629   1.405  2.5581 -1.6569  1.8333
  903SOL     OW 2707   0.304   2.496   1.966 -0.2497 -0.2635 -0.6880
  903SOL    HW1 2708   0.221   2.435   1.946 -1.1600 -1.0023  2.2960
  903SOL    HW2 2709   0.331   2.559   1.885  1.5272 -0.5235 -1.2113
  904SOL     OW 2710   1.983   0.785   2.554 -0.0887  0.1530  0.1050
  904SOL    HW1 2711   1.908   0.714   2.582 -2.7799 -1.2703  1.2324
  904SOL    HW2 2712   1.998   0.797   2.451  1.0428  1.1437  1.5181
  905SOL     OW 2713   2.924   0.104   2.473  0.3007  0.0121  0.8909
  905SOL    HW1 2714   2.993   0.070   2.544  0.8354 -3.1387 -1.7404
  905SOL    HW2 2715   2.923   0.205   2.452 -0.4696 -0.4987 -2.9142
  906SOL     OW 2716   0.143   1.666   1.870 -0.7764  0.2681 -0.3691
  906SOL    HW1 2717   0.069   1.705   1.803 -1.3537  0.4056  2.2990
  906SOL    HW2 2718   0.234   1.633   1.825 -1.3111  1.5931  1.4843
  907SOL     OW 2719   0.213   2.413   0.967  0.1054 -0.0956  0.0460
  907SOL    HW1 2720   0.308   2.382   0.943  0.0569 -0.7153  2.6274
  907SOL    HW2 2721   0.196   2.514   0.951  1.9521  1.1213 -2.7643
  908SOL     OW 2722   2.807   3.082   0.308  0.1212 -0.4164  0.2804
  908SOL    HW1 2723   2.723   3.085   0.240 -3.6558  0.5031  0.4858
  908SOL    HW2 2724   2.872   2.998   0.294  1.5042 -0.1412 -0.2422
  909SOL     OW 2725   0.839   1.056   2.672  0.0020 -0.1966 -0.0374
  909SOL    HW1 2726   0.788   0.974   2.630 -0.5355 -0.2114 -0.2995
  909SOL    HW2 2727   0.915   1.079   2.610 -1.6916 -1.2327  1.2670
  910SOL     OW 2728   1.782   1.889   2.134  0.1978  0.0799  0.1850
  910SOL    HW1 2729   1.862   1.923   2.074 -0.2427  0.6539 -1.6958
  910SOL    HW2 2730   1.715   1.964   2.161 -0.0166  0.5710 -1.7536
  911SOL     OW 2731   1.843   2.946   1.558  0.1353 -0.8803  0.6564
  911SOL    HW1 2732   1.919   2.955   1.487 -0.7338  1.1509 -3.5025
  911SOL    HW2 2733   1.834   2.853   1.604  1.5681  0.1784 -1.0359
  912SOL     OW 2734   2.859   1.019   0.723 -0.0493 -0.3239  0.0891
  912SOL    HW1 2735   2.883   1.009   0.825 -0.4087 -0.5673  0.8732
  912SOL    HW2 2736   2.799   1.102   0.703  2.7942 -0.5240  0.6516
  913SOL     OW 2737   2.535   1.235   1.524 -0.5760  0.3299 -0.1526
  913SOL    HW1 2738   2.554   1.138   1.504  1.3432  1.8795 -1.9661
  913SOL    HW2 2739   2.591   1.299   1.462 -0.5503 -1.8840 -1.2550
  914SOL     OW 2740   2.761   0.647   1.164  0.8197 -0.1635  0.1058
  914SOL    HW1 2741   2.760   0.561   1.222  1.6016  2.2676  0.4039
  914SOL    HW2 2742   2.671   0.645   1.115 -0.8038  2.6547  0.2471
  915SOL     OW 2743   1.226   0.743   1.015 -0.1641 -1.1756 -0.5126
  915SOL    HW1 2744   1.270   0.769   1.107  1.4242  0.7154 -1.6160
  915SOL    HW2 2745   1.120   0.746   1.020  3.8292 -0.1462  3.7426
  916SOL     OW 2746   0.626   0.067   0.637 -0.1536 -0.4405 -0.0672
  916SOL    HW1 2747   0.695   0.129   0.685  2.8753 -2.7690 -0.3971
  916SOL    HW2 2748   0.563   0.131   0.583  4.2607 -0.7013  0.4520
  917SOL     OW 2749   2.900   2.573   1.982  0.1486 -0.2964  0.1400
  917SOL    HW1 2750   2.808   2.606   1.944 -1.5600 -1.7888  1.5832
  917SOL    HW2 2751   2.971   2.644   1.988 -1.6185  0.8467  4.1206
  918SOL     OW 2752   1.039   2.065   3.006 -0.0094  0.4130 -0.1149
  918SOL    HW1 2753   1.045   2.153   3.064 -2.0312  2.3764  1.0968
  918SOL    HW2 2754   1.119   2.061   2.940  0.6293  1.4192  0.5554
  919SOL     OW 2755   0.817   1.699   2.834 -0.1726  0.1076  0.5992
  919SOL    HW1 2756   0.876   1.770   2.782 -0.2976 -1.5367 -4.2277
  919SOL    HW2 2757   0.781   1.621   2.773 -2.9757 -0.5549  2.7523
  920SOL     OW 2758   1.268   1.778   2.560 -0.1081 -0.0200  0.0184
  920SOL    HW1 2759   1.352   1.759   2.506 -0.3241 -0.8857 -1.4065
  920SOL    HW2 2760   1.213   1.693   2.570  1.7788 -1.5027 -2.5979
  921SOL     OW 2761   1.127   0.010   2.657 -0.0850  0.0442  0.2095
  921SOL    HW1 2762   1.109  -0.016   2.555  1.1301  0.0225  0.9523
  921SOL    HW2 2763   1.044   0.014   2.714 -1.6411 -0.4454 -0.7725
  922SOL     OW 2764   2.176   2.372   2.796  0.5616 -0.2771 -0.0001
  922SOL    HW1 2765   2.169   2.273   2.824 -0.0078  0.7751 -3.2032
  922SOL    HW2 2766   2.142   2.383   2.694  0.1320 -3.6039  0.5950
  923SOL     OW 2767   1.258   2.678   0.270 -0.2952 -0.4793 -0.3442
  923SOL    HW1 2768   1.330   2.751   0.303  0.7614  0.1425 -0.9351
  923SOL    HW2 2769   1.298   2.579   0.266 -0.3094  0.4057 -0.1227
  924SOL     OW 2770   2.901   1.704   0.111 -0.2770  0.5036 -0.3016
  924SOL    HW1 2771   2.836   1.675   0.035  2.3399  0.4310 -0.4034
  924SOL    HW2 2772   2.981   1.634   0.119  1.3376 -0.4023 -2.1048
  925SOL     OW 2773   0.038   2.840   1.474  0.2185 -0.0498 -0.3208
  925SOL    HW1 2774  -0.005   2.804   1.561 -0.2264  0.3108 -0.1777
  925SOL    HW2 2775   0.005   2.792   1.384 -0.4391  0.3836 -3.8346
  926SOL     OW 2776   1.310   2.831   1.342  0.3803 -0.2931  0.5163
  926SOL    HW1 2777   1.343   2.849   1.247  0.2123 -1.9570 -0.0852
  926SOL    HW2 2778   1.340   2.897   1.417 -3.2215 -2.9164  3.3716
  927SOL     OW 2779   0.355   2.647   1.755  0.0426 -0.1146  0.4454
  927SOL    HW1 2780   0.295   2.589   1.688 -1.1700  1.4669 -1.0214
  927SOL    HW2 2781   0.322   2.748   1.760  1.1699  0.4102  0.1616
  928SOL     OW 2782   1.621   2.102   2.216  0.3164  0.4348 -0.3028
  928SOL    HW1 2783   1.634   2.174   2.140 -0.0146  3.4684 -1.8130
  928SOL    HW2 2784   1.523   2.101   2.244  0.8582 -2.6692 -0.7075
  929SOL     OW 2785   2.419   2.503   2.880 -0.1088  0.1814  0.4274
  929SOL    HW1 2786   2.332   2.451   2.877  0.3071 -0.8826 -1.2590
  929SOL    HW2 2787   2.461   2.529   2.787 -0.3931  0.8382 -0.8313
  930SOL     OW 2788   2.155   1.970   1.096  0.7560  0.6029  0.1875
  930SOL    HW1 2789   2.132   1.927   1.191 -0.1243  1.6554 -0.6078
  930SOL    HW2 2790   2.229   2.039   1.099 -1.7883 -1.7267 -1.1677
  931SOL     OW 2791   0.539   1.765   2.635  0.5987 -0.2859  0.4815
  931SOL    HW1 2792   0.539   1.792   2.736 -0.7002  0.4763 -1.9514
  931SOL    HW2 2793   0.617   1.699   2.625 -0.7905  0.0502  2.3464
  932SOL     OW 2794   0.408   0.090   3.076  1.0947  1.1065 -0.0488
  932SOL    HW1 2795   0.493   0.137   3.117  2.0633  0.4782 -2.7874
  932SOL    HW2 2796   0.415  -0.012   3.056  2.6662 -1.3703  1.5687
  933SOL     OW 2797   0.914   0.836   3.007 -0.0912 -0.1476  0.2953
  933SOL    HW1 2798   0.902   0.815   3.109 -3.0093 -1.3261  1.1523
  933SOL    HW2 2799   0.912   0.935   2.987  2.7621 -2.7184  1.2940
  934SOL     OW 2800   0.755   2.981   2.653  0.2163  0.3431 -0.9186
  934SOL    HW1 2801   0.734   2.921   2.571 -0.5199 -0.4546  3.4704
  934SOL    HW2 2802   0.823   2.929   2.720  2.2268 -0.4311 -1.2499
  935SOL     OW 2803   0.011   0.522   0.850  0.0724 -0.4619  0.9719
  935SOL    HW1 2804   0.018   0.489   0.753  1.1185  0.7794 -1.2244
  935SOL    HW2 2805  -0.075   0.584   0.867 -1.0342 -0.4103 -2.1213
  936SOL     OW 2806   1.102   2.824   0.089  0.5454 -0.1872  0.2592
  936SOL    HW1 2807   1.138   2.879   0.007 -0.8119 -1.5301  2.1551
  936SOL    HW2 2808   1.170   2.765   0.140  0.9680 -1.4696  0.0875
  937SOL     OW 2809   1.888   2.676   2.109 -0.3628  0.2155  0.0549
  937SOL    HW1 2810   1.785   2.684   2.093 -0.8793  0.7642  0.7071
  937SOL    HW2 2811   1.945   2.752   2.069 -0.4604 -0.6461  0.0922
  938SOL     OW 2812   2.788   2.084   1.608 -0.1466 -0.0682  0.6059
  938SOL    HW1 2813   2.751   2.177   1.639 -0.8457  0.9737  1.1553
  938SOL    HW2 2814   2.861   2.045   1.668  2.2819 -0.5953 -0.2700
  939SOL     OW 2815   2.786   1.210   2.424  0.4716  0.2628 -0.3795
  939SOL    HW1 2816   2.878   1.192   2.375  0.1774  2.4887  0.6854
  939SOL    HW2 2817   2.784   1.176   2.524 -2.2987  1.7002 -2.2251
  940SOL     OW 2818   1.079   0.447   2.768  0.1898 -0.2311  0.3556
  940SOL    HW1 2819   1.130   0.356   2.777  1.2287  0.9360 -2.0421
  940SOL    HW2 2820   1.023   0.454   2.683  2.7943 -3.6413 -0.1640
  941SOL     OW 2821   0.017   2.776   2.283  0.3216 -0.3092 -0.2962
  941SOL    HW1 2822   0.094   2.716   2.256 -2.5627  1.1008  1.7640
  941SOL    HW2 2823   0.045   2.855   2.347 -1.5352  2.1498 -0.1554
  942SOL     OW 2824   0.132   0.085   2.571  0.1477  0.1229  0.1919
  942SOL    HW1 2825   0.182   0.078   2.660  4.2492  0.5623 -1.6733
  942SOL    HW2 2826   0.132   0.178   2.527 -0.9505  1.1342  1.7252
  943SOL     OW 2827   2.092   1.655   2.383  0.0694  0.0625  0.5951
  943SOL    HW1 2828   2.100   1.630   2.283  0.8762  0.0421  0.5303
  943SOL    HW2 2829   2.079   1.582   2.452  0.6030 -0.8568  1.8837
  944SOL     OW 2830   2.195   2.378   1.465 -0.1388 -0.2401 -0.2050
  944SOL    HW1 2831   2.294   2.394   1.491 -2.2657 -0.7480  1.9198
  944SOL    HW2 2832   2.148   2.299   1.522  2.0479 -0.2087  3.0408
  945SOL     OW 2833   0.677   1.583   0.093 -0.3090  0.1121 -0.1814
  945SOL    HW1 2834   0.581   1.601   0.052 -0.5839  0.6738 -1.8080
  945SOL    HW2 2835   0.679   1.496   0.148 -1.6705  2.7548  1.3801
  946SOL     OW 2836   0.398   0.942   2.532  0.2531  0.0928 -0.1503
  946SOL    HW1 2837   0.320   0.926   2.462 -2.6798  1.0402 -1.4791
  946SOL    HW2 2838   0.402   1.043   2.561 -0.3565 -0.6092  4.5710
  947SOL     OW 2839   1.499   0.506   3.074 -0.2461  0.2356 -0.3056
  947SOL    HW1 2840   1.459   0.526   2.984  0.2058 -2.0815  1.1018
  947SOL    HW2 2841   1.436   0.450   3.127  0.2409  1.1063  0.7842
  948SOL     OW 2842   1.868   3.013   2.173  0.4265  0.2540 -0.0848
  948SOL    HW1 2843   1.929   2.985   2.095 -0.7607  2.5010  0.9274
  948SOL    HW2 2844   1.853   2.937   2.246 -0.9840 -3.3758  0.5799
  949SOL     OW 2845   0.634   2.490   0.482  0.3250  0.2503 -0.3602
  949SOL    HW1 2846   0.637   2.589   0.468  0.0094  0.0772 -0.9257
  949SOL    HW2 2847   0.667   2.456   0.574 -0.7966 -2.6488 -1.3576
  950SOL     OW 2848   0.189   2.264   2.999 -0.0237  0.1158 -0.3373
  950SOL    HW1 2849   0.177   2.354   2.948  1.0949 -1.7519  1.9248
  950SOL    HW2 2850   0.148   2.181   2.948  0.6782  0.4771 -1.0113
  951SOL     OW 2851   1.166   2.615   2.795  0.1140  0.4990  0.3970
  951SOL    HW1 2852   1.212   2.572   2.878  0.7964 -3.0578 -0.9166
  951SOL    HW2 2853   1.239   2.652   2.732 -0.6142 -3.0122  1.3482
  952SOL     OW 2854   0.031   1.655   0.425  0.2262  0.2003  0.5281
  952SOL    HW1 2855   0.076   1.740   0.441 -2.5519  0.8994  0.6841
  952SOL    HW2 2856   0.069   1.579   0.485 -1.7603  1.0743 -0.1503
  953SOL     OW 2857   2.569   1.749   0.199  0.2019  0.5060  0.1604
  953SOL    HW1 2858   2.534   1.659   0.236 -0.5728 -1.1465  1.1399
  953SOL    HW2 2859   2.514   1.774   0.116 -0.6901 -2.5279  2.5901
  954SOL     OW 2860   2.213   0.595   0.983  0.4045 -0.4102  0.5716
  954SOL    HW1 2861   2.203   0.574   0.876 -2.7290  0.7420 -1.8376
  954SOL    HW2 2862   2.313   0.603   1.014  0.4337 -0.1726  1.1970
  955SOL     OW 2863   0.119   2.566   1.403  0.0188  0.2444 -0.3942
  955SOL    HW1 2864   0.019   2.589   1.371 -1.5273 -2.2332 -2.3528
  955SOL    HW2 2865   0.183   2.638   1.373 -2.3590  0.1890  0.3224
  956SOL     OW 2866   2.800   2.450   2.492  0.1589 -0.4499 -0.2366
  956SOL    HW1 2867   2.808   2.345   2.476  1.0794  0.3544 -2.0179
  956SOL    HW2 2868   2.824   2.508   2.408  0.0857  2.9077  2.1763
  957SOL     OW 2869   1.577   2.096   2.812  0.7452  0.1541  0.8679
  957SOL    HW1 2870   1.551   1.996   2.807  0.9992  1.1054  1.4858
  957SOL    HW2 2871   1.639   2.122   2.732  2.8352 -1.4470 -1.2354
  958SOL     OW 2872   2.590   2.287   2.995 -0.1345 -0.0758  0.3411
  958SOL    HW1 2873   2.585   2.387   2.966  1.9650 -1.1686 -0.4377
  958SOL    HW2 2874   2.518   2.256   3.065 -1.1213  1.2041  3.1038
  959SOL     OW 2875   0.320   2.776   0.071  0.2294 -0.3016 -0.2847
  959SOL    HW1 2876   0.216   2.768   0.090  0.5196 -1.4609 -1.5133
  959SOL    HW2 2877   0.374   2.691   0.092  1.9286 -0.3228  2.6781
  960SOL     OW 2878   2.019   0.453   1.931  0.0274  0.3192  0.4830
  960SOL    HW1 2879   1.936   0.516   1.919 -1.5676 -0.4846 -0.7583
  960SOL    HW2 2880   2.059   0.458   2.024 -0.5130  0.1815 -0.9595
  961SOL     OW 2881   2.564   1.913   1.063 -0.3059 -0.3342  0.2305
  961SOL    HW1 2882   2.564   2.010   1.024 -1.3029  0.1274 -0.2502
  961SOL    HW2 2883   2.518   1.896   1.152 -1.5925 -1.1754 -1.2040
  962SOL     OW 2884   1.307   0.910   0.081  0.1027  0.0694  0.0169
  962SOL    HW1 2885   1.283   0.950  -0.007 -0.7872  0.0973  0.0076
  962SOL    HW2 2886   1.295   0.971   0.166 -1.5533  0.2194  1.8267
  963SOL     OW 2887   2.311   2.522   1.793 -0.0024 -0.0011 -0.5081
  963SOL    HW1 2888   2.239   2.461   1.837 -0.3984  1.3512 -1.8663
  963SOL    HW2 2889   2.312   2.609   1.849  0.8882 -3.9964 -0.7223
  964SOL     OW 2890   2.368   0.373   1.678 -0.1380  0.6007 -0.0515
  964SOL    HW1 2891   2.455   0.386   1.737 -2.3774  1.7470 -1.7287
  964SOL    HW2 2892   2.384   0.412   1.583 -1.2211  1.5014 -0.0950
  965SOL     OW 2893   2.610   2.987   0.130  0.3327 -0.2723 -0.7232
  965SOL    HW1 2894   2.668   2.942   0.055  1.1050  3.6421 -1.3914
  965SOL    HW2 2895   2.523   3.030   0.092  1.2482 -1.4045 -0.6972
  966SOL     OW 2896   2.532   2.541   2.276  0.2351  0.6286  0.6215
  966SOL    HW1 2897   2.596   2.613   2.314  2.0390  0.0779  0.6979
  966SOL    HW2 2898   2.461   2.586   2.211 -0.2272 -0.5032  1.3238
  967SOL     OW 2899   2.779   2.800   2.464 -0.3235 -0.0675  0.0209
  967SOL    HW1 2900   2.816   2.736   2.390  0.7999  0.9983  2.4476
  967SOL    HW2 2901   2.855   2.861   2.500 -0.1469 -0.3056  2.2432
  968SOL     OW 2902   1.920   1.064   2.600 -0.0341 -0.3749 -0.0561
  968SOL    HW1 2903   1.837   1.122   2.577 -1.0188  0.9250  0.4500
  968SOL    HW2 2904   1.930   0.971   2.564  1.0246  3.0051 -0.3159
  969SOL     OW 2905   2.749   2.456   1.122 -0.0478  0.0991  0.1731
  969SOL    HW1 2906   2.717   2.451   1.021 -0.3434 -0.6233  0.5348
  969SOL    HW2 2907   2.804   2.373   1.151  3.6835  1.3846 -1.6465
  970SOL     OW 2908   1.080   2.114   1.835 -0.8130  0.2664 -0.4595
  970SOL    HW1 2909   0.994   2.089   1.782  1.1502  0.1847 -1.8070
  970SOL    HW2 2910   1.052   2.138   1.932 -1.4178 -0.2924  0.0961
  971SOL     OW 2911   2.899   2.048   2.054  0.5565  0.2687  0.2739
  971SOL    HW1 2912   2.917   2.139   2.105 -0.5986 -1.7542 -0.5505
  971SOL    HW2 2913   2.957   2.040   1.965 -1.7936  0.3971  1.4107
  972SOL     OW 2914   1.978   2.482   0.220  0.2480 -0.4252 -0.5031
  972SOL    HW1 2915   1.981   2.395   0.167  0.7539  0.6539  3.1011
  972SOL    HW2 2916   2.004   2.474   0.319 -0.8182 -1.1793  1.3221
  973SOL     OW 2917   1.241   0.985   1.878  0.1994  1.1243  0.4035
  973SOL    HW1 2918   1.182   0.903   1.857  1.9666  2.2189 -0.3807
  973SOL    HW2 2919   1.187   1.071   1.868 -1.7790  0.3534  0.2679
  974SOL     OW 2920   1.560   0.603   1.897 -0.2919  0.2354 -0.0410
  974SOL    HW1 2921   1.654   0.603   1.849  2.9261  0.7139 -0.8476
  974SOL    HW2 2922   1.517   0.700   1.914 -0.9262  3.7875 -0.0071
  975SOL     OW 2923   2.360   3.053   0.035  0.2434 -0.1513 -0.1938
  975SOL    HW1 2924   2.294   2.974   0.035  0.8558  0.3412  2.7702
  975SOL    HW2 2925   2.395   3.079  -0.060  1.1401 -0.3732 -0.2713
  976SOL     OW 2926   1.872   2.803   2.376  0.5665 -0.2914 -0.4428
  976SOL    HW1 2927   1.797   2.727   2.373 -0.9238 -3.1328 -2.4360
  976SOL    HW2 2928   1.946   2.777   2.444 -0.9638  0.7310  0.4784
  977SOL     OW 2929   0.529   0.609   0.988 -0.3926  0.6262  0.2972
  977SOL    HW1 2930   0.440   0.611   0.923 -2.5097  2.3127 -1.6383
  977SOL    HW2 2931   0.560   0.706   1.017 -1.1834  3.7589  4.3020
   3.10000   3.10000   3.10000
