1000 SPC/Fw water molecules t=   0.06000 step= 60
 2931
    1SOL     OW    1   2.513   0.404   2.580 -0.1018 -0.3819  0.6712
    1SOL    HW1    2   2.516   0.302   2.578 -2.5021  2.4924 -1.8022
    1SOL    HW2    3   2.581   0.448   2.646  2.4775 -2.8249 -1.1057
    2SOL     OW    4   2.730   2.995   1.435 -0.4148  0.3826  0.1613
    2SOL    HW1    5   2.809   3.037   1.377  2.8790  0.7712  0.3779
    2SOL    HW2    6   2.676   3.063   1.490  1.2683 -0.0199 -0.9646
    3SOL     OW    7   2.712   2.631   0.431 -0.3485 -0.3555 -0.4391
    3SOL    HW1    8   2.665   2.539   0.452 -3.6144  1.5898 -0.6707
    3SOL    HW2    9   2.796   2.641   0.491 -2.5181  0.1165 -1.3840
    4SOL     OW   10   1.315   1.439   2.332  0.1936 -0.1676 -0.1424
    4SOL    HW1   11   1.238   1.507   2.307 -0.0578  3.6352 -0.4581
    4SOL    HW2   12   1.286   1.369   2.403 -1.6113 -0.0391  1.8666
    5SOL     OW   13   1.185   1.487   3.041  0.2773 -0.0560  0.4566
    5SOL    HW1   14   1.231   1.576   3.078  1.7882 -0.1431  1.5133
    5SOL    HW2   15   1.087   1.477   3.080 -0.9455 -0.0618  0.6600
    6SOL     OW   16   0.149   1.896   2.947 -0.3358 -0.5309  0.0073
    6SOL    HW1   17   0.196   1.955   3.018 -0.2792  0.0519 -0.0713
    6SOL    HW2   18   0.114   1.803   2.979 -1.0579 -2.7838  4.1793
    7SOL     OW   19   2.599   0.832   1.191  0.2601 -0.2960 -0.6519
    7SOL    HW1   20   2.614   0.744   1.243 -3.2411 -2.1163  0.1973
    7SOL    HW2   21   2.569   0.824   1.091 -1.1384 -4.2123  0.7162
    8SOL     OW   22   0.448   0.680   1.574 -0.1248  0.1216 -0.4870
    8SOL    HW1   23   0.499   0.593   1.596  0.3549 -0.3251 -0.8411
    8SOL    HW2   24   0.408   0.676   1.474  3.7474 -2.4410 -3.7243
    9SOL     OW   25   1.141   0.899   2.266 -0.1715 -0.1013  0.2319
    9SOL    HW1   26   1.218   0.968   2.239  0.0147  2.3971 -1.3836
    9SOL    HW2   27   1.075   0.884   2.191 -1.5615 -2.4911 -0.1164
   10SOL     OW   28   0.624   1.368   1.324 -0.0747  0.0475 -0.2942
   10SOL    HW1   29   0.546   1.383   1.257  0.5319  0.4402 -5.4486
   10SOL    HW2   30   0.694   1.446   1.322  0.8756 -2.8258  2.1751
   11SOL     OW   31   2.320   2.550   0.907 -0.1461  0.2905  0.1986
   11SOL    HW1   32   2.351   2.604   0.993 -1.6846 -1.9088  1.2755
   11SOL    HW2   33   2.363   2.459   0.899 -2.7374 -1.6560  0.8071
   12SOL     OW   34   1.418   0.908   0.485 -0.9097 -0.4680 -0.0218
   12SOL    HW1   35   1.462   0.945   0.399  0.1650 -1.0528  2.9953
   12SOL    HW2   36   1.386   0.809   0.478  0.4879  0.7837 -1.6353
   13SOL     OW   37   2.444   0.680   1.781  0.2002 -0.5547 -0.4997
   13SOL    HW1   38   2.389   0.645   1.860 -0.7913  0.5456 -1.7120
   13SOL    HW2   39   2.425   0.629   1.691  1.7521 -0.2917  0.8479
   14SOL     OW   40   1.789   0.023   0.538  0.3722 -0.2966  0.1450
   14SOL    HW1   41   1.686   0.041   0.525 -1.5265 -4.1400 -1.0254
   14SOL    HW2   42   1.823   0.046   0.633 -1.2221  1.2576  1.3780
   15SOL     OW   43   1.970   2.055   2.805 -0.2010 -0.0355  0.1138
   15SOL    HW1   44   1.888   2.112   2.839 -1.6224 -1.0668  3.8006
   15SOL    HW2   45   1.944   1.969   2.755 -0.3241  2.3403  0.7780
   16SOL     OW   46   1.565   1.659   0.014 -0.1086  1.0460  0.7956
   16SOL    HW1   47   1.630   1.605  -0.050 -0.4515 -0.0041 -1.2993
   16SOL    HW2   48   1.594   1.656   0.116  2.1551 -0.8177  0.2736
   17SOL     OW   49   0.083   0.464   0.152  0.7120 -1.0174  0.4808
   17SOL    HW1   50   0.147   0.510   0.089 -2.1239 -1.4711  1.3981
   17SOL    HW2   51  -0.010   0.459   0.113  3.3764  1.8320  1.1528
   18SOL     OW   52   1.086   2.884   2.150  0.2004  0.0917  0.3271
   18SOL    HW1   53   1.036   2.840   2.074  1.9621  1.3874  1.7019
   18SOL    HW2   54   1.182   2.907   2.122  1.0418  1.6205 -0.4085
   19SOL     OW   55   0.589   1.016   1.960  0.0465 -0.8964  0.2144
   19SOL    HW1   56   0.526   0.992   2.040 -1.5169  1.1923 -1.4976
   19SOL    HW2   57   0.656   0.944   1.929 -2.2557 -0.2137 -1.3365
   20SOL     OW   58   0.264   2.731   0.854  0.3147  0.7776 -0.3692
   20SOL    HW1   59   0.187   2.803   0.839  1.2072  0.6606  0.5269
   20SOL    HW2   60   0.314   2.704   0.766 -0.1774 -1.6274  1.8535
   21SOL     OW   61   2.830   0.220   2.138  0.1394 -0.6771  0.4987
   21SOL    HW1   62   2.908   0.169   2.087  1.2364  2.1941 -3.4962
   21SOL    HW2   63   2.804   0.176   2.233  2.5499 -0.5001  3.6991
   22SOL     OW   64   2.352   0.183   0.076 -0.1698  0.4405  0.0144
   22SOL    HW1   65   2.361   0.083   0.072 -0.2429  2.7476 -2.8842
   22SOL    HW2   66   2.255   0.220   0.085  1.3453  0.6697 -2.8505
   23SOL     OW   67   2.756   0.659   0.696  0.3186  0.1108 -0.6468
   23SOL    HW1   68   2.701   0.581   0.669  0.3618  1.2782  2.7801
   23SOL    HW2   69   2.774   0.722   0.615 -0.5921  1.5420 -0.5469
   24SOL     OW   70   0.146   1.874   0.440  0.2783  0.3639  0.8413
   24SOL    HW1   71   0.055   1.888   0.391 -0.8348  1.6085 -1.3051
   24SOL    HW2   72   0.225   1.890   0.372  1.4741  0.6210  0.4502
   25SOL     OW   73   2.264   0.515   0.193 -0.4968  0.0588 -0.3952
   25SOL    HW1   74   2.340   0.465   0.251  1.9696 -2.1782  4.2445
   25SOL    HW2   75   2.261   0.482   0.090  0.2073 -3.9815 -3.0378
   26SOL     OW   76   2.542   2.163   2.064  0.9701  0.4878  0.1376
   26SOL    HW1   77   2.604   2.215   2.128 -0.0202  0.0176 -1.0652
   26SOL    HW2   78   2.588   2.086   2.012 -0.4916  0.4899 -0.9673
   27SOL     OW   79   0.671   2.988   0.132  0.2985 -0.2134 -0.5297
   27SOL    HW1   80   0.746   3.031   0.079  0.8714 -2.7053  0.1413
   27SOL    HW2   81   0.583   2.998   0.077  0.7401 -0.8985  0.5427
   28SOL     OW   82   1.459   0.233   0.196  0.1383  0.3761  0.3046
   28SOL    HW1   83   1.554   0.207   0.179 -0.6983 -2.6392 -0.6900
   28SOL    HW2   84   1.452   0.335   0.225 -1.5704  2.2012  0.6211
   29SOL     OW   85   2.022   0.581   0.313  0.1367  0.6476 -0.2917
   29SOL    HW1   86   2.033   0.678   0.341  1.4862 -0.3640 -2.7112
   29SOL    HW2   87   2.108   0.543   0.260  0.4611 -1.4284  3.5993
   30SOL     OW   88   0.194   2.055   0.903  0.0687  0.3144 -0.0142
   30SOL    HW1   89   0.143   2.009   0.824  1.6284 -1.4323 -0.2815
   30SOL    HW2   90   0.128   2.112   0.967  1.1186  2.6671  3.0658
   31SOL     OW   91   2.096   0.031   2.328 -0.6852  0.6890 -0.2589
   31SOL    HW1   92   2.067   0.027   2.429 -0.6890  1.9997 -0.2319
   31SOL    HW2   93   2.037  -0.031   2.268  0.4970  0.6702 -2.0927
   32SOL     OW   94   2.999   0.114   0.239 -0.3253  0.3609 -0.5182
   32SOL    HW1   95   2.984   0.057   0.325  3.3957  1.0262  0.8978
   32SOL    HW2   96   3.088   0.094   0.193 -2.2773 -0.7047  0.3989
   33SOL     OW   97   0.969   0.323   0.446  0.2427  0.5108 -0.2958
   33SOL    HW1   98   0.912   0.231   0.443 -0.0979 -3.7261  1.8880
   33SOL    HW2   99   1.030   0.329   0.529 -1.6414 -1.6718 -1.7587
   34SOL     OW  100   0.377   2.885   1.041  0.3300 -0.2766  0.3896
   34SOL    HW1  101   0.334   2.841   0.956  1.9764 -2.0453 -1.6635
   34SOL    HW2  102   0.480   2.870   1.047  0.1489 -1.9997  1.1351
   35SOL     OW  103   0.041   3.095   1.799 -0.1814 -0.0058  0.5091
   35SOL    HW1  104   0.074   2.999   1.796 -3.9977  1.9431  2.2898
   35SOL    HW2  105  -0.022   3.124   1.726  2.2779  1.3241  1.2376
   36SOL     OW  106   1.895   1.160   1.783  0.0296  0.1593  0.1834
   36SOL    HW1  107   1.934   1.108   1.705 -1.5182  0.9501  1.0282
   36SOL    HW2  108   1.917   1.254   1.788  1.7903 -2.7967 -0.4968
   37SOL     OW  109   1.122   0.324   1.010 -0.4436 -0.1914  0.0163
   37SOL    HW1  110   1.105   0.383   1.096  2.7268 -2.8501  1.2124
   37SOL    HW2  111   1.220   0.289   1.012  0.1889 -0.8845 -1.0186
   38SOL     OW  112   1.154   2.706   2.346 -0.2636  0.6280  0.3351
   38SOL    HW1  113   1.074   2.644   2.387 -3.0695 -1.3253  1.7467
   38SOL    HW2  114   1.127   2.777   2.277 -1.2924  0.2353 -0.6644
   39SOL     OW  115   2.423   1.510   3.086 -0.1831 -0.1301 -1.0965
   39SOL    HW1  116   2.463   1.416   3.067 -2.3862  3.3944 -0.8732
   39SOL    HW2  117   2.358   1.507   3.168  1.1883 -1.0389 -2.2790
   40SOL     OW  118   2.048   2.497   2.602  0.1672 -0.2219 -0.8754
   40SOL    HW1  119   1.974   2.560   2.630  3.2952 -2.4669 -2.3207
   40SOL    HW2  120   2.021   2.452   2.518  1.5587  3.3206  2.3342
   41SOL     OW  121   2.946   0.718   2.741 -0.6546  0.0007  0.6955
   41SOL    HW1  122   2.853   0.770   2.754 -1.3280 -1.6385  2.3291
   41SOL    HW2  123   2.924   0.618   2.709  0.2940 -1.4805 -1.5256
   42SOL     OW  124   1.700   1.741   0.588 -0.0242  0.3331 -0.0734
   42SOL    HW1  125   1.651   1.679   0.526  0.5633  1.8106 -0.4846
   42SOL    HW2  126   1.739   1.826   0.536 -0.0956  0.0338 -0.2794
   43SOL     OW  127   0.469   1.747   1.204  0.5892 -0.1078 -0.0985
   43SOL    HW1  128   0.431   1.706   1.292 -0.2337  0.7559  1.1798
   43SOL    HW2  129   0.393   1.750   1.133  2.0208  1.4277 -1.2865
   44SOL     OW  130   1.755   2.455   0.019  0.0677 -0.4346  0.1818
   44SOL    HW1  131   1.805   2.520  -0.044 -0.5354 -0.4715 -0.3232
   44SOL    HW2  132   1.793   2.432   0.119  0.9867  0.4294  1.0691
   45SOL     OW  133   0.372   1.886   2.552  0.2554 -0.3832 -0.5535
   45SOL    HW1  134   0.307   1.908   2.477  2.9798 -1.5362  2.1459
   45SOL    HW2  135   0.414   1.795   2.541  2.5920  1.6435 -1.5332
   46SOL     OW  136   1.186   0.681   0.172 -0.2697 -0.4968  0.9177
   46SOL    HW1  137   1.229   0.763   0.126 -1.1664 -0.4140  0.7360
   46SOL    HW2  138   1.096   0.692   0.218 -2.5068  0.3647 -2.9617
   47SOL     OW  139   0.230   2.425   1.580  0.1890  0.3328  0.2779
   47SOL    HW1  140   0.316   2.378   1.571 -2.2481  1.9658  2.1446
   47SOL    HW2  141   0.206   2.484   1.491 -0.3637  1.0710 -0.1868
   48SOL     OW  142   2.641   0.555   0.102 -0.4093 -0.1886 -0.2989
   48SOL    HW1  143   2.615   0.582   0.200 -3.5398  4.2691  2.4833
   48SOL    HW2  144   2.724   0.604   0.064 -1.9550 -1.1540 -3.7315
   49SOL     OW  145   0.356   0.854   1.766 -0.1371 -0.4731  0.2394
   49SOL    HW1  146   0.434   0.898   1.813 -1.5605 -2.3010 -1.6876
   49SOL    HW2  147   0.389   0.778   1.701 -0.8004 -0.0061  2.0432
   50SOL     OW  148   1.715   1.080   0.279  0.6746  0.4820  0.4406
   50SOL    HW1  149   1.718   0.977   0.254 -0.2425  0.0612 -0.6279
   50SOL    HW2  150   1.676   1.099   0.375  5.2022  1.9725 -1.8886
   51SOL     OW  151   2.990   1.890   0.342 -0.0795 -0.3110  0.5615
   51SOL    HW1  152   3.003   1.945   0.256  0.3572 -1.1152  3.1617
   51SOL    HW2  153   2.944   1.800   0.321 -0.7402  1.5815 -0.8073
   52SOL     OW  154   0.812   1.898   0.481  0.3236  0.3343 -0.0008
   52SOL    HW1  155   0.734   1.963   0.513  1.1057  1.6789  1.2900
   52SOL    HW2  156   0.840   1.831   0.554 -1.5712  3.4489 -1.9176
   53SOL     OW  157   3.100   0.388   1.529 -0.1845 -0.2363  0.0974
   53SOL    HW1  158   3.035   0.376   1.607  1.9359 -0.5700 -0.9901
   53SOL    HW2  159   3.097   0.487   1.489 -0.2138  1.7120 -0.8827
   54SOL     OW  160   1.770   0.480   3.006  0.1946  0.3158 -0.0359
   54SOL    HW1  161   1.811   0.432   3.084 -1.5595  0.1573 -0.4747
   54SOL    HW2  162   1.672   0.461   2.984  2.0110  3.2968  0.7185
   55SOL     OW  163   0.692   2.916   0.653  0.2263  0.7088  0.1765
   55SOL    HW1  164   0.649   3.005   0.689  0.4417  1.8326  5.5392
   55SOL    HW2  165   0.791   2.935   0.619 -2.1966 -1.7951 -2.1397
   56SOL     OW  166   0.486   1.546   3.087  0.5456 -0.0659 -0.0553
   56SOL    HW1  167   0.410   1.602   3.135  1.4870 -0.0046  0.8462
   56SOL    HW2  168   0.462   1.452   3.066  0.4011  2.4396 -2.9284
   57SOL     OW  169   1.755   2.385   2.673  0.4878 -0.0504 -0.4362
   57SOL    HW1  170   1.832   2.353   2.616  3.1200  2.9012  1.7064
   57SOL    HW2  171   1.662   2.375   2.627  1.0285 -1.4452  1.4179
   58SOL     OW  172   0.646   0.480   1.101 -0.5540 -0.1505 -0.0320
   58SOL    HW1  173   0.590   0.562   1.059  2.8046  3.6836 -2.4156
   58SOL    HW2  174   0.597   0.388   1.105  3.1289  0.0930  0.1479
   59SOL     OW  175   0.472   2.389   2.694 -0.0803 -0.1288 -0.3378
   59SOL    HW1  176   0.492   2.288   2.692 -2.6886  3.0514 -1.6002
   59SOL    HW2  177   0.525   2.441   2.763 -1.6272 -3.0470 -3.1833
   60SOL     OW  178   2.320   2.167   2.254  0.1762  0.5187 -0.0706
   60SOL    HW1  179   2.402   2.168   2.191 -1.5908 -1.2386  0.6894
   60SOL    HW2  180   2.337   2.192   2.355  1.3132 -1.6726 -1.9824
   61SOL     OW  181   1.341   0.655   0.430 -0.0309 -0.0427 -0.4777
   61SOL    HW1  182   1.256   0.653   0.493 -0.7700  2.8296 -2.4622
   61SOL    HW2  183   1.319   0.654   0.331  3.2219  0.4609  0.3698
   62SOL     OW  184   2.726   1.882   3.080 -0.3554  0.1555  0.4386
   62SOL    HW1  185   2.733   1.779   3.081  1.0491  0.5689  2.6297
   62SOL    HW2  186   2.705   1.918   2.984  2.6637  0.8307 -0.0901
   63SOL     OW  187   0.561   0.813   0.138 -0.7939 -0.3118  0.3156
   63SOL    HW1  188   0.531   0.911   0.109 -0.5638 -0.4832 -0.2058
   63SOL    HW2  189   0.610   0.804   0.227  1.1493  0.9603 -1.3202
   64SOL     OW  190   0.067   0.558   2.492 -0.0913 -0.1876  0.2098
   64SOL    HW1  191   0.126   0.608   2.563  0.0033  1.4918 -1.5439
   64SOL    HW2  192   0.045   0.615   2.412 -0.1313  0.6063  4.1350
   65SOL     OW  193   0.172   1.494   0.605 -0.1260 -0.1545 -0.4440
   65SOL    HW1  194   0.195   1.546   0.694  1.3771  1.8412 -0.0143
   65SOL    HW2  195   0.259   1.468   0.556 -1.0722  0.4379  0.6153
   66SOL     OW  196   2.470   0.334   0.631  0.2422  0.2279  0.4976
   66SOL    HW1  197   2.406   0.413   0.648 -1.1957 -0.7369  1.4832
   66SOL    HW2  198   2.437   0.244   0.679 -0.6231 -2.4362 -0.0765
   67SOL     OW  199   0.468   2.571   1.299 -0.2780  0.3956 -0.0093
   67SOL    HW1  200   0.564   2.578   1.343  3.8155  0.0390  1.4719
   67SOL    HW2  201   0.431   2.475   1.302 -1.8378  0.4371  0.3469
   68SOL     OW  202   0.991   1.100   2.398  0.4223  0.0745 -0.3408
   68SOL    HW1  203   1.042   1.042   2.329 -1.2623 -3.2856  0.0537
   68SOL    HW2  204   0.932   1.165   2.343 -0.6446  0.8491  1.1691
   69SOL     OW  205   0.778   2.722   2.173 -0.2685  0.1261 -0.7888
   69SOL    HW1  206   0.824   2.629   2.154  1.5056 -1.4467 -0.6727
   69SOL    HW2  207   0.679   2.709   2.182  2.5912 -1.5191 -1.1425
   70SOL     OW  208   0.562   0.222   2.700  0.6307 -0.2681  0.4393
   70SOL    HW1  209   0.570   0.265   2.793  1.5230 -1.4600 -0.1829
   70SOL    HW2  210   0.504   0.134   2.707 -3.0960  1.1514 -1.5865
   71SOL     OW  211   1.115   1.784   0.359  0.2819  0.8916  0.2362
   71SOL    HW1  212   1.061   1.692   0.341  0.5006 -1.3953 -2.1497
   71SOL    HW2  213   1.096   1.851   0.283  0.1541  1.0770 -0.1459
   72SOL     OW  214   1.774   0.094   2.079 -0.3035 -1.1850  0.3357
   72SOL    HW1  215   1.835   0.151   2.015  1.5054  0.8217  0.8105
   72SOL    HW2  216   1.816   0.002   2.111 -1.2316 -0.2941 -0.2368
   73SOL     OW  217   2.854   2.207   2.498  0.0459  0.5208  0.1945
   73SOL    HW1  218   2.859   2.128   2.433  2.1225 -0.1869  1.0587
   73SOL    HW2  219   2.894   2.191   2.593 -1.0067  0.9329  0.8663
   74SOL     OW  220   2.708   2.967   2.098  0.4148  0.2019 -0.6589
   74SOL    HW1  221   2.653   2.943   2.185  0.0346  0.6291 -0.5972
   74SOL    HW2  222   2.803   2.935   2.086 -1.8471 -0.7627 -0.6937
   75SOL     OW  223   0.919   0.762   0.953  0.4068 -0.5436  0.1294
   75SOL    HW1  224   0.831   0.818   0.927 -3.2248  2.4172 -0.8544
   75SOL    HW2  225   0.970   0.804   1.032  0.7832  0.7663 -1.9604
   76SOL     OW  226   1.742   1.244   2.570 -0.4013 -0.1768  0.6864
   76SOL    HW1  227   1.640   1.221   2.564 -1.2089 -1.5087 -0.0945
   76SOL    HW2  228   1.756   1.320   2.644 -0.4466  0.3548  1.0274
   77SOL     OW  229   2.987   1.006   1.007 -0.1393  0.2328 -0.6840
   77SOL    HW1  230   2.983   0.901   0.994  3.3135 -0.7346 -1.2122
   77SOL    HW2  231   3.068   1.044   1.065 -0.1875  2.2598 -0.5107
   78SOL     OW  232   1.981   1.398   1.443 -0.2048  0.1123  0.4681
   78SOL    HW1  233   2.060   1.396   1.374 -0.5082  0.4038 -1.0008
   78SOL    HW2  234   1.888   1.367   1.414  0.5420  0.6523 -1.6215
   79SOL     OW  235   0.628   1.279   0.836  0.0543 -0.3752  0.2334
   79SOL    HW1  236   0.532   1.316   0.811 -3.0905  2.6364  0.4816
   79SOL    HW2  237   0.660   1.208   0.769 -1.2990  0.4069 -0.3790
   80SOL     OW  238   0.650   0.498   1.607 -0.3474 -0.4971  0.1326
   80SOL    HW1  239   0.718   0.571   1.573 -3.2027 -1.1130 -2.3897
   80SOL    HW2  240   0.662   0.402   1.560 -0.1189  0.8222 -0.0450
   81SOL     OW  241   1.115   1.458   2.601  0.0771  0.0081  0.0929
   81SOL    HW1  242   1.077   1.397   2.674 -1.0561 -0.9796 -2.0494
   81SOL    HW2  243   1.066   1.437   2.510  1.3830 -2.7631 -1.4766
   82SOL     OW  244   0.899   3.015   1.530  0.1393  0.2488 -0.0490
   82SOL    HW1  245   0.981   2.964   1.488 -0.2049 -0.1997  1.0459
   82SOL    HW2  246   0.812   2.954   1.549 -0.3530  1.2888  1.3040
   83SOL     OW  247   2.735   2.419   0.812  0.5952 -0.2318  0.6525
   83SOL    HW1  248   2.641   2.403   0.766 -1.4078  1.3287 -1.9145
   83SOL    HW2  249   2.773   2.499   0.761  1.0883 -0.5813  2.1486
   84SOL     OW  250   0.654   0.012   2.411 -0.2531  0.0572 -0.1015
   84SOL    HW1  251   0.581   0.004   2.482  0.2095  0.8483 -0.2220
   84SOL    HW2  252   0.744  -0.029   2.441  1.8607 -0.8139  3.0854
   85SOL     OW  253   0.345   1.645   1.466  0.2483  0.1738 -0.0513
   85SOL    HW1  254   0.310   1.745   1.490 -0.7565  2.9343  0.4888
   85SOL    HW2  255   0.342   1.590   1.554 -0.5649 -0.7400  1.0971
   86SOL     OW  256   0.355   1.002   1.486  0.2030  0.9713  0.1605
   86SOL    HW1  257   0.309   0.941   1.418  0.4778  1.7242  0.9366
   86SOL    HW2  258   0.424   0.952   1.544 -0.6168 -0.0969 -1.8280
   87SOL     OW  259   1.551   0.561   0.199  0.4160  0.4291 -0.0161
   87SOL    HW1  260   1.580   0.658   0.223  0.4692  1.8361 -0.0878
   87SOL    HW2  261   1.512   0.559   0.101 -1.5715 -0.3113 -0.5961
   88SOL     OW  262   1.618   1.325   0.210  0.1144 -0.7735 -0.2109
   88SOL    HW1  263   1.673   1.235   0.204 -0.0385 -0.3094  3.0197
   88SOL    HW2  264   1.516   1.306   0.201 -0.1443 -1.5398  0.3265
   89SOL     OW  265   2.994   0.423   0.590 -0.3655 -0.1125 -0.5029
   89SOL    HW1  266   3.058   0.348   0.633  2.7848 -1.3948  4.6157
   89SOL    HW2  267   2.896   0.401   0.578 -0.8385 -0.9782  0.6876
   90SOL     OW  268   0.861   1.629   3.076  0.6430 -0.1953 -0.4414
   90SOL    HW1  269   0.794   1.641   3.154  2.3884  0.1983 -0.1203
   90SOL    HW2  270   0.817   1.629   2.982  1.7456  1.5481 -1.3613
   91SOL     OW  271   1.247   1.363   1.816 -0.3297  0.3249  0.2909
   91SOL    HW1  272   1.288   1.444   1.868  1.1585 -0.5371  0.4862
   91SOL    HW2  273   1.318   1.317   1.761 -1.7345  3.3333  0.1973
   92SOL     OW  274   0.079   1.092   1.203  0.0194 -0.3931 -0.4537
   92SOL    HW1  275   0.168   1.119   1.159  1.8750  0.0791  0.4719
   92SOL    HW2  276   0.088   1.038   1.287 -0.5380  0.5574 -0.5762
   93SOL     OW  277   0.114   2.830   3.051 -0.3205  0.4825  0.2832
   93SOL    HW1  278   0.015   2.831   3.016  0.9018  0.5301  2.5613
   93SOL    HW2  279   0.138   2.734   3.086 -2.5808  0.8096 -1.6721
   94SOL     OW  280   1.509   1.272   1.674  0.2631  0.5774 -0.3095
   94SOL    HW1  281   1.541   1.206   1.749  1.4093  0.6681 -1.0049
   94SOL    HW2  282   1.571   1.357   1.686  0.8355  1.3440  0.8634
   95SOL     OW  283   1.412   2.491   2.914 -0.3940 -0.4495 -0.5801
   95SOL    HW1  284   1.342   2.458   2.984  2.3307 -1.0166 -0.8389
   95SOL    HW2  285   1.443   2.412   2.858 -1.7975  1.5094  0.8832
   96SOL     OW  286   0.521   2.031   1.238 -0.3717 -0.2644 -0.2535
   96SOL    HW1  287   0.500   2.060   1.141 -2.4543 -1.1043  0.7966
   96SOL    HW2  288   0.500   1.931   1.243  2.1477 -0.4043 -0.5878
   97SOL     OW  289   0.303   1.439   2.456 -0.5339 -0.4039  0.2690
   97SOL    HW1  290   0.231   1.382   2.503 -0.6322 -0.8903  0.2040
   97SOL    HW2  291   0.359   1.493   2.518 -0.1809  1.6270 -2.0268
   98SOL     OW  292   2.112   1.654   1.250 -0.5880  0.1105  0.4405
   98SOL    HW1  293   2.107   1.554   1.213  0.4444 -4.0596  0.8296
   98SOL    HW2  294   2.204   1.666   1.300 -2.2099  1.3331 -0.5687
   99SOL     OW  295   2.520   2.178   1.370 -0.5163 -0.4743 -0.7665
   99SOL    HW1  296   2.459   2.134   1.440 -2.0094  2.0559  0.4501
   99SOL    HW2  297   2.609   2.197   1.415 -0.6776 -3.3484 -0.6581
  100SOL     OW  298   2.280   0.395   2.069  0.3250  0.4681  0.0324
  100SOL    HW1  299   2.224   0.357   2.151  0.0194  0.3213 -0.1694
  100SOL    HW2  300   2.378   0.378   2.078  0.2551  2.3665 -0.9824
  101SOL     OW  301   0.406   1.417   0.238  0.0752 -0.1297  0.7036
  101SOL    HW1  302   0.434   1.430   0.340  1.3187  1.3844  1.0405
  101SOL    HW2  303   0.412   1.501   0.180  2.1698 -0.2609 -0.6113
  102SOL     OW  304   2.237   1.111   0.875  0.0598 -0.8440 -0.1868
  102SOL    HW1  305   2.173   1.036   0.836 -0.9406  0.2812 -2.4258
  102SOL    HW2  306   2.289   1.155   0.798  0.0103 -0.3088  0.8466
  103SOL     OW  307   2.281   0.087   0.393 -0.0684 -0.1834 -0.1087
  103SOL    HW1  308   2.351   0.160   0.379  0.4857  1.7572 -0.7243
  103SOL    HW2  309   2.318   0.019   0.464  1.1426 -2.4378 -0.2234
  104SOL     OW  310   0.092   1.856   2.150 -0.3416 -0.0327 -0.3565
  104SOL    HW1  311   0.133   1.811   2.058  1.7237 -0.1493 -2.0437
  104SOL    HW2  312  -0.011   1.878   2.151 -0.3767 -1.1186 -2.1715
  105SOL     OW  313   1.080   1.966   0.814  0.5681 -0.1928 -0.0752
  105SOL    HW1  314   1.040   2.045   0.762 -0.1801  0.6380  0.4341
  105SOL    HW2  315   1.059   1.877   0.764 -1.8335 -0.0121  0.6421
  106SOL     OW  316   2.065   0.502   1.343 -0.5603 -0.0874 -0.4062
  106SOL    HW1  317   2.014   0.428   1.395  3.5702 -0.8419 -1.1128
  106SOL    HW2  318   2.064   0.595   1.388 -0.2049 -1.1657 -1.4222
  107SOL     OW  319   1.849   3.003   1.131 -0.0447  0.0026 -0.0738
  107SOL    HW1  320   1.872   3.093   1.181 -2.7350 -0.1067  1.1153
  107SOL    HW2  321   1.809   2.933   1.198 -1.6153 -0.5623  0.3827
  108SOL     OW  322   0.748   2.639   1.318  0.1428 -0.3738  0.3827
  108SOL    HW1  323   0.730   2.719   1.387  1.2151  0.7550  0.8696
  108SOL    HW2  324   0.848   2.620   1.304 -0.4527  0.6907 -1.5160
  109SOL     OW  325   2.023   0.152   0.682  0.2328 -0.7625  0.0309
  109SOL    HW1  326   2.042   0.063   0.725  2.1046  0.3182  3.8533
  109SOL    HW2  327   1.964   0.212   0.748 -3.8491 -0.1918 -1.2707
  110SOL     OW  328   0.501   2.691   2.794 -0.1176  0.0259 -0.2979
  110SOL    HW1  329   0.489   2.729   2.701 -1.4505  0.2964 -2.4846
  110SOL    HW2  330   0.604   2.667   2.815 -0.0265 -0.8593 -3.1172
  111SOL     OW  331   1.279   0.534   2.353  0.0851  0.1150  0.0939
  111SOL    HW1  332   1.208   0.567   2.425  1.5906 -1.6737 -0.5865
  111SOL    HW2  333   1.323   0.444   2.389 -1.5604 -0.5688  0.0062
  112SOL     OW  334   1.708   0.514   1.433 -0.6096 -0.1256  0.5443
  112SOL    HW1  335   1.693   0.465   1.341 -1.1888 -3.8404  1.2839
  112SOL    HW2  336   1.703   0.460   1.524  0.1587  0.1807  2.3724
  113SOL     OW  337   2.278   1.662   1.762  0.3665 -0.7181 -0.7743
  113SOL    HW1  338   2.306   1.564   1.782 -3.1292  1.1223 -1.2598
  113SOL    HW2  339   2.293   1.728   1.841  1.9658  0.5809  1.7816
  114SOL     OW  340   0.416   0.575   1.302 -0.7777 -0.1235 -0.0466
  114SOL    HW1  341   0.350   0.640   1.257  2.9615  0.5624 -1.1362
  114SOL    HW2  342   0.451   0.499   1.238  1.2628  1.0601  0.1622
  115SOL     OW  343   2.705   1.575   1.273 -0.2060 -0.6674 -0.0185
  115SOL    HW1  344   2.705   1.472   1.293 -0.8270  0.3522  0.5430
  115SOL    HW2  345   2.785   1.596   1.215  0.1160 -0.8018  1.5666
  116SOL     OW  346   1.821   1.063   0.760  0.4399 -0.3217  0.2858
  116SOL    HW1  347   1.736   1.013   0.723 -1.5082  0.7723 -0.2640
  116SOL    HW2  348   1.806   1.164   0.754  0.5114  1.4159  0.3085
  117SOL     OW  349   1.082   0.420   0.691  0.0545  0.1384 -0.7695
  117SOL    HW1  350   1.069   0.431   0.794  1.6830  0.3055  1.5996
  117SOL    HW2  351   1.101   0.513   0.644  0.1241  0.3014 -0.5951
  118SOL     OW  352   1.086   1.052   0.988 -0.4161  0.5461  0.7974
  118SOL    HW1  353   1.096   0.969   1.055 -1.9413 -2.5194 -0.1212
  118SOL    HW2  354   1.098   1.145   1.034 -1.6439  0.1839 -0.4424
  119SOL     OW  355   1.841   1.629   1.983 -0.7268  0.3136  0.1278
  119SOL    HW1  356   1.806   1.708   2.033  1.7779 -0.6712  0.3276
  119SOL    HW2  357   1.943   1.608   2.016  1.0736 -0.0983 -0.5987
  120SOL     OW  358   2.964   2.778   0.232 -0.6937  0.0268  0.3198
  120SOL    HW1  359   2.906   2.720   0.165 -1.0129  0.3154  2.3014
  120SOL    HW2  360   3.034   2.710   0.276 -1.0430 -1.6395 -1.5720
  121SOL     OW  361   2.100   0.705   2.234 -0.3142  0.2804 -0.2545
  121SOL    HW1  362   2.167   0.727   2.152 -0.2947  1.3673 -1.0691
  121SOL    HW2  363   2.065   0.610   2.229  0.4979  0.8284 -0.9737
  122SOL     OW  364   2.702   2.546   1.328 -0.1830 -0.4843  0.3312
  122SOL    HW1  365   2.708   2.536   1.229  1.3233  0.7837  0.2520
  122SOL    HW2  366   2.640   2.474   1.376  1.6230 -0.1132  0.2278
  123SOL     OW  367   1.729   0.023   1.693  0.1018  0.7283  0.0176
  123SOL    HW1  368   1.759  -0.056   1.633 -1.6131  1.5601  1.7580
  123SOL    HW2  369   1.790   0.102   1.696  0.2510 -0.7455  0.2955
  124SOL     OW  370   0.179   0.478   0.955  0.3493  0.2219  0.7341
  124SOL    HW1  371   0.179   0.531   1.041  1.8378 -0.9162 -2.1431
  124SOL    HW2  372   0.131   0.509   0.868  4.4369  0.4761  0.7106
  125SOL     OW  373   0.878   1.703   0.685 -0.6293  0.5442 -0.3944
  125SOL    HW1  374   0.976   1.684   0.657  0.2910 -0.4274 -0.7980
  125SOL    HW2  375   0.839   1.635   0.760 -1.6767  1.1750  0.6067
  126SOL     OW  376   1.891   2.373   2.412  0.1165  0.2357 -0.1243
  126SOL    HW1  377   1.940   2.286   2.381 -1.5773 -1.0360  0.7292
  126SOL    HW2  378   1.829   2.415   2.344  2.9817  2.2782  1.0781
  127SOL     OW  379   1.005   0.969   0.175 -1.0604  0.6397  0.3509
  127SOL    HW1  380   1.087   1.001   0.232 -0.5693  1.5125  0.4263
  127SOL    HW2  381   0.959   0.880   0.199 -2.0479 -0.7265 -0.9069
  128SOL     OW  382   0.977   0.197   1.441  0.2908 -0.0095  0.3558
  128SOL    HW1  383   0.918   0.261   1.391  0.8529 -3.0511  0.9687
  128SOL    HW2  384   0.929   0.110   1.456  2.4861  0.2174 -2.4565
  129SOL     OW  385   1.757   0.722   1.818 -0.0556 -0.2114  0.1597
  129SOL    HW1  386   1.785   0.738   1.714  0.9861 -1.8275 -3.1656
  129SOL    HW2  387   1.795   0.804   1.870 -2.1279  1.0167  1.7398
  130SOL     OW  388   1.253   2.097   0.994  0.4658  0.0638  0.1159
  130SOL    HW1  389   1.193   2.027   0.948  1.7370 -1.1779  1.7103
  130SOL    HW2  390   1.335   2.128   0.937 -1.1763 -1.6851  0.5796
  131SOL     OW  391   3.031   1.510   1.327  0.3749 -0.0101  0.3597
  131SOL    HW1  392   2.992   1.416   1.307  0.5376 -1.1076  2.4138
  131SOL    HW2  393   3.132   1.501   1.350  1.6542 -1.0934  1.9571
  132SOL     OW  394   1.915   2.478   0.509 -0.1008  0.1938 -0.3958
  132SOL    HW1  395   1.817   2.502   0.542 -0.6392 -1.4130 -2.2793
  132SOL    HW2  396   1.978   2.448   0.587 -1.2754 -0.6141 -0.6325
  133SOL     OW  397   1.797   2.287   2.920 -0.3531  0.1557  0.4351
  133SOL    HW1  398   1.776   2.361   2.991  0.5959  2.0056  0.9299
  133SOL    HW2  399   1.780   2.321   2.822 -1.5032  2.1962  3.2733
  134SOL     OW  400   2.632   2.342   1.609 -0.3673  0.8821  0.0910
  134SOL    HW1  401   2.546   2.333   1.672 -2.1809 -1.2876  1.3173
  134SOL    HW2  402   2.700   2.407   1.652  0.3746  0.2152  1.7914
  135SOL     OW  403   0.776   1.505   2.543 -0.2791  0.0997  0.1524
  135SOL    HW1  404   0.760   1.405   2.584  0.1396  0.9546  2.1231
  135SOL    HW2  405   0.846   1.507   2.474  1.3403 -0.2643  0.6166
  136SOL     OW  406   1.141   2.066   0.456  0.0098  0.5185  0.4426
  136SOL    HW1  407   1.071   2.097   0.526  0.3659  2.5498 -0.6028
  136SOL    HW2  408   1.134   1.963   0.434 -0.9946  0.0413 -0.7634
  137SOL     OW  409   0.384   1.028   2.129 -0.4693 -0.1419  0.5078
  137SOL    HW1  410   0.320   1.079   2.200 -1.6233 -0.4423  2.3111
  137SOL    HW2  411   0.395   0.929   2.150 -1.7816  0.2866 -1.9871
  138SOL     OW  412   2.430   1.464   0.360  0.2098  0.0876 -0.5429
  138SOL    HW1  413   2.341   1.457   0.307  2.2747 -3.6197  1.2080
  138SOL    HW2  414   2.449   1.377   0.412 -1.1217  0.1836 -1.3829
  139SOL     OW  415   1.746   2.503   1.200  0.1229  0.1994  0.6000
  139SOL    HW1  416   1.639   2.505   1.202 -1.5439 -1.8629  0.0268
  139SOL    HW2  417   1.796   2.459   1.279  0.4311  1.4680 -1.5833
  140SOL     OW  418   2.985   2.996   2.490 -0.0963  0.4275  0.7928
  140SOL    HW1  419   3.026   2.907   2.524 -1.1304 -1.8977  0.8900
  140SOL    HW2  420   3.054   3.069   2.453  1.9450  0.1125 -0.0274
  141SOL     OW  421   1.144   1.526   1.593  0.1682  0.9190 -0.1398
  141SOL    HW1  422   1.173   1.610   1.652  1.0530  2.5137  2.8995
  141SOL    HW2  423   1.180   1.433   1.631 -1.4655 -1.8864  0.5448
  142SOL     OW  424   1.537   0.595   2.246  0.4205 -0.1230  0.3382
  142SOL    HW1  425   1.529   0.595   2.145 -1.0800  0.1083  1.8244
  142SOL    HW2  426   1.438   0.591   2.285 -1.0038 -0.5393 -3.0368
  143SOL     OW  427   2.774   0.840   0.507  0.1289 -0.3610 -0.3765
  143SOL    HW1  428   2.806   0.888   0.416 -0.2776  2.6206  0.0887
  143SOL    HW2  429   2.806   0.892   0.592 -0.8137 -0.4301 -0.7678
  144SOL     OW  430   2.981   1.239   1.358 -0.6095 -0.1453  0.0836
  144SOL    HW1  431   2.979   1.233   1.465 -1.9967 -2.0811  2.0595
  144SOL    HW2  432   3.055   1.182   1.310  3.1588 -3.0207  0.5598
  145SOL     OW  433   0.997   1.863   0.088  0.1168  0.2007  0.7393
  145SOL    HW1  434   1.022   1.951   0.036  1.5947  0.6163 -0.2582
  145SOL    HW2  435   0.966   1.786   0.023  0.1066 -2.0782 -1.4987
  146SOL     OW  436   2.523   0.629   1.508 -0.3875 -0.1241 -0.1391
  146SOL    HW1  437   2.464   0.552   1.470  3.1571 -1.6216  0.4071
  146SOL    HW2  438   2.476   0.724   1.516  0.4690  1.1963 -1.5905
  147SOL     OW  439   1.087   2.608   0.635 -0.4509 -0.2289 -0.5235
  147SOL    HW1  440   1.044   2.647   0.546 -1.5400 -1.1580 -1.2769
  147SOL    HW2  441   1.156   2.535   0.615  0.0009  2.6554 -2.0270
  148SOL     OW  442   1.657   1.422   3.018  0.2736  0.1642  0.0635
  148SOL    HW1  443   1.705   1.342   2.973 -0.5721 -1.8607 -0.8592
  148SOL    HW2  444   1.625   1.400   3.118  1.0201 -0.3267  0.2579
  149SOL     OW  445   0.614   1.405   1.945  0.4837 -0.2020 -0.2779
  149SOL    HW1  446   0.536   1.359   1.992  1.3534 -2.4070 -1.6552
  149SOL    HW2  447   0.674   1.342   1.891 -0.7643  0.5326 -2.4089
  150SOL     OW  448   2.977   1.278   0.920 -0.6932 -0.2939  0.4571
  150SOL    HW1  449   3.044   1.346   0.970  0.4652  0.7751  0.7720
  150SOL    HW2  450   2.978   1.186   0.966 -0.6899  0.8175  2.4476
  151SOL     OW  451   0.182   0.782   2.088 -0.1743 -0.4512 -0.0354
  151SOL    HW1  452   0.182   0.857   2.019  2.8299  0.0370 -0.3218
  151SOL    HW2  453   0.252   0.704   2.072  1.9554 -1.3520  0.6192
  152SOL     OW  454   1.411   1.763   1.257 -0.0119  0.6513  0.1952
  152SOL    HW1  455   1.412   1.836   1.331  0.7792 -1.4546 -1.0426
  152SOL    HW2  456   1.319   1.753   1.209  1.6521 -0.3622 -0.0228
  153SOL     OW  457   0.048   1.510   0.182 -0.1636 -0.0666  0.4325
  153SOL    HW1  458   0.023   1.407   0.198 -0.3438  0.6144 -1.2471
  153SOL    HW2  459   0.041   1.564   0.267  0.8912  0.4017 -0.8941
  154SOL     OW  460   2.411   1.968   2.828 -0.0618 -0.1645  0.1496
  154SOL    HW1  461   2.420   1.873   2.856  0.0420  3.1699 -0.0802
  154SOL    HW2  462   2.471   1.998   2.751 -2.4421  1.2010  1.8800
  155SOL     OW  463   2.533   1.225   0.442 -0.2374 -0.5715 -0.8950
  155SOL    HW1  464   2.554   1.221   0.339  0.2133 -1.4830 -1.7265
  155SOL    HW2  465   2.523   1.135   0.488 -0.3529 -2.1892 -1.4978
  156SOL     OW  466   2.493   0.994   0.895  0.4033 -0.0008 -0.1592
  156SOL    HW1  467   2.406   1.040   0.916  2.0267 -0.2729  0.5562
  156SOL    HW2  468   2.565   1.054   0.846 -1.0302 -0.7202  1.6252
  157SOL     OW  469   1.368   2.973   3.098  0.5901  0.2588  0.0276
  157SOL    HW1  470   1.408   2.898   3.039 -2.1340 -1.6221  0.4676
  157SOL    HW2  471   1.360   3.065   3.054 -1.8740  1.0706  1.0237
  158SOL     OW  472   1.073   1.881   2.024  0.2377 -1.0018 -0.1353
  158SOL    HW1  473   1.107   1.878   2.121  0.0234 -1.0069  0.4613
  158SOL    HW2  474   0.971   1.879   2.018  0.9423 -1.4264  2.0999
  159SOL     OW  475   0.876   0.452   1.305 -0.1018 -0.5571  0.5470
  159SOL    HW1  476   0.861   0.532   1.371  2.3305 -0.9961  0.4134
  159SOL    HW2  477   0.813   0.450   1.223  0.4333  0.4474  1.0682
  160SOL     OW  478   1.462   2.338   1.654  0.4791 -0.0078 -0.0463
  160SOL    HW1  479   1.485   2.427   1.600 -2.0817  2.3886 -1.5607
  160SOL    HW2  480   1.547   2.287   1.675  2.3237  3.2174 -0.4116
  161SOL     OW  481   0.100   2.934   0.369  0.9320  0.2346  0.2153
  161SOL    HW1  482   0.001   2.909   0.394 -2.4472 -0.8201  1.1637
  161SOL    HW2  483   0.103   2.999   0.286 -1.0764  0.5171  1.0116
  162SOL     OW  484   2.616   1.897   0.523 -0.1203  0.1685 -0.2950
  162SOL    HW1  485   2.596   1.878   0.425  1.8694  1.7553  0.3099
  162SOL    HW2  486   2.613   1.807   0.578 -1.1218 -0.9111 -0.3082
  163SOL     OW  487   1.960   2.768   0.753  0.2986 -0.0821  0.4463
  163SOL    HW1  488   1.928   2.781   0.653 -0.4241  1.8990 -0.6904
  163SOL    HW2  489   1.993   2.672   0.774 -0.8275 -1.1337 -1.6870
  164SOL     OW  490   0.044   0.238   1.203 -0.5065  0.3312  0.1161
  164SOL    HW1  491   0.107   0.165   1.158  1.3678 -0.1710  0.0255
  164SOL    HW2  492   0.077   0.266   1.298 -1.9871  1.1127  1.7011
  165SOL     OW  493   1.018   1.412   0.648 -0.2613 -0.9039  0.2187
  165SOL    HW1  494   0.960   1.461   0.722 -0.4139  1.1528 -2.2504
  165SOL    HW2  495   0.994   1.456   0.557 -0.9878 -0.6390  0.3808
  166SOL     OW  496   1.379   1.018   1.797 -0.3107 -0.3333 -0.6847
  166SOL    HW1  497   1.288   0.997   1.848  1.1009  0.5484  1.0101
  166SOL    HW2  498   1.448   1.061   1.856 -0.7422  0.3900  2.4523
  167SOL     OW  499   0.923   1.834   1.599 -0.7083 -0.0867  0.1583
  167SOL    HW1  500   0.893   1.930   1.624 -0.2392  0.6088 -2.9159
  167SOL    HW2  501   0.842   1.773   1.568  0.3438 -1.1374 -1.8523
  168SOL     OW  502   1.540   2.354   0.178 -0.1492  0.5671 -0.5370
  168SOL    HW1  503   1.615   2.374   0.108  0.3391  0.5322  0.4521
  168SOL    HW2  504   1.576   2.346   0.274 -0.6263 -0.0441 -1.2283
  169SOL     OW  505   0.167   2.557   2.162 -0.0555  0.0459  0.4910
  169SOL    HW1  506   0.212   2.478   2.109 -0.9313  0.9202 -1.7251
  169SOL    HW2  507   0.112   2.527   2.243 -1.4755  0.4484 -0.8964
  170SOL     OW  508   1.263   0.325   1.931  0.2865 -0.2465 -0.2521
  170SOL    HW1  509   1.273   0.282   2.025  1.0177 -1.2515  1.0052
  170SOL    HW2  510   1.208   0.268   1.868  1.1301 -0.4363  3.3242
  171SOL     OW  511   0.241   0.823   2.420  0.3928 -0.2305  0.1923
  171SOL    HW1  512   0.148   0.845   2.464  1.3377  3.1675 -0.3143
  171SOL    HW2  513   0.236   0.827   2.312 -2.8358  2.8955 -3.9928
  172SOL     OW  514   0.895   1.124   2.909  0.0043 -0.0317  0.6560
  172SOL    HW1  515   0.996   1.137   2.933  0.5181 -0.2411 -2.3828
  172SOL    HW2  516   0.884   1.104   2.808  3.1570  4.0142  1.7356
  173SOL     OW  517   0.686   2.719   0.155 -0.1279 -0.2020  0.3120
  173SOL    HW1  518   0.711   2.819   0.173 -1.0715 -1.0084  0.6695
  173SOL    HW2  519   0.594   2.710   0.109  1.2385  0.2410 -0.8268
  174SOL     OW  520   1.288   2.754   1.054  0.5406  0.0762 -0.3822
  174SOL    HW1  521   1.291   2.816   0.972  0.3820 -2.0654 -1.6935
  174SOL    HW2  522   1.257   2.659   1.032 -1.5628  1.0422  1.7429
  175SOL     OW  523   0.365   0.031   1.690 -0.2383 -0.0804 -0.0521
  175SOL    HW1  524   0.413   0.103   1.750 -0.3964  1.3519  2.3061
  175SOL    HW2  525   0.281   0.069   1.634  1.9271 -1.1343 -2.2782
  176SOL     OW  526   2.628   0.337   3.010  0.3013  0.4981 -0.1395
  176SOL    HW1  527   2.604   0.420   3.075  0.8059  0.1967  1.8900
  176SOL    HW2  528   2.589   0.244   3.040 -1.5767  2.4976 -1.7894
  177SOL     OW  529   0.377   0.308   0.864 -0.4802  0.1544 -0.2238
  177SOL    HW1  530   0.448   0.302   0.940  1.7926 -0.0011 -1.6017
  177SOL    HW2  531   0.291   0.361   0.895 -2.4167  0.6173 -1.2889
  178SOL     OW  532   3.079   2.684   2.598 -0.0530 -0.2568  0.2757
  178SOL    HW1  533   3.034   2.651   2.685 -0.6072  0.9867 -0.2020
  178SOL    HW2  534   3.164   2.735   2.632 -2.5351  1.3155 -1.7612
  179SOL     OW  535   0.010   1.773   1.177 -0.0155  0.1380  0.1592
  179SOL    HW1  536  -0.078   1.821   1.153 -0.0289 -0.4172 -0.1776
  179SOL    HW2  537  -0.015   1.693   1.244 -2.9547  1.0024 -1.4897
  180SOL     OW  538   0.159   1.264   1.821  0.3373 -0.1603  0.5408
  180SOL    HW1  539   0.263   1.247   1.808 -1.3615  1.4866 -0.7946
  180SOL    HW2  540   0.126   1.323   1.894 -0.8962 -0.5325 -0.1026
  181SOL     OW  541   3.009   1.827   2.531 -0.2415 -0.0166  0.4288
  181SOL    HW1  542   3.074   1.894   2.545 -3.1042  0.1835 -3.1520
  181SOL    HW2  543   2.943   1.857   2.452  1.0697 -1.5308 -0.6309
  182SOL     OW  544   2.331   1.242   1.258 -0.0525  0.1033 -0.0622
  182SOL    HW1  545   2.240   1.238   1.215  0.6855  0.9149 -0.3497
  182SOL    HW2  546   2.375   1.329   1.224 -1.1082 -2.0658  0.1213
  183SOL     OW  547   1.517   2.266   2.507 -0.2191 -0.3923  0.2978
  183SOL    HW1  548   1.425   2.225   2.534 -1.0788 -0.5438  0.3942
  183SOL    HW2  549   1.578   2.195   2.461 -0.4501  0.6570 -0.6652
  184SOL     OW  550   2.066   0.935   0.735 -0.0848  0.0141 -0.4411
  184SOL    HW1  551   1.967   0.957   0.756 -2.7580 -1.7147 -0.5277
  184SOL    HW2  552   2.095   0.842   0.768 -1.3922  0.6056 -0.4193
  185SOL     OW  553   1.642   2.751   2.169  0.2763 -0.0275  0.2374
  185SOL    HW1  554   1.602   2.841   2.144 -1.2968 -1.9625 -1.3774
  185SOL    HW2  555   1.662   2.741   2.272  0.1801 -0.0644 -0.3013
  186SOL     OW  556   0.081   2.209   1.672  0.5415  0.6423  0.5579
  186SOL    HW1  557   0.132   2.298   1.643  0.7404  1.2274  0.2683
  186SOL    HW2  558   0.146   2.131   1.689 -1.5204 -1.2007  1.0266
  187SOL     OW  559   1.423   0.671   1.723  0.1314 -0.5245  0.3542
  187SOL    HW1  560   1.477   0.741   1.670 -1.8294 -0.9851 -0.0727
  187SOL    HW2  561   1.405   0.705   1.820  0.8094 -1.4611  2.9717
  188SOL     OW  562   2.756   2.756   1.533  0.0975 -0.2983 -0.2273
  188SOL    HW1  563   2.734   2.849   1.486 -2.5868  1.9364  2.2322
  188SOL    HW2  564   2.758   2.675   1.465 -1.4568  1.3846 -3.1324
  189SOL     OW  565   0.728   0.979   1.482 -0.4244  0.4590 -0.0380
  189SOL    HW1  566   0.819   1.030   1.472  2.7443 -1.0209 -0.2394
  189SOL    HW2  567   0.710   0.909   1.406 -0.1667  0.0259  1.1065
  190SOL     OW  568   1.485   1.756   1.662 -0.3946  0.2109 -0.1438
  190SOL    HW1  569   1.422   1.816   1.604  2.0126  1.2024  0.5915
  190SOL    HW2  570   1.535   1.811   1.731 -1.4843 -0.8504 -1.6456
  191SOL     OW  571   1.014   0.824   1.537 -0.3161 -0.3848 -0.1811
  191SOL    HW1  572   1.042   0.731   1.575  1.9483 -2.9175 -0.7521
  191SOL    HW2  573   1.099   0.883   1.536  1.1353  1.2165  0.5421
  192SOL     OW  574   1.893   2.196   1.226 -0.3361  0.3988 -0.7814
  192SOL    HW1  575   1.799   2.184   1.187 -0.1990 -0.4280  1.3172
  192SOL    HW2  576   1.964   2.259   1.174  0.5535 -3.5422  0.4705
  193SOL     OW  577   0.506   0.566   0.328  0.1904 -0.0530 -0.2077
  193SOL    HW1  578   0.522   0.500   0.400 -0.0472  0.3007 -1.4154
  193SOL    HW2  579   0.520   0.525   0.235 -1.2065  0.2494  3.0295
  194SOL     OW  580   0.288   0.828   1.248 -0.4092 -0.9849 -0.0446
  194SOL    HW1  581   0.202   0.775   1.222 -1.5196 -1.6878  2.7647
  194SOL    HW2  582   0.305   0.909   1.185  1.1513 -0.2227  0.6573
  195SOL     OW  583   0.937   2.939   0.514 -0.3649  0.3158 -0.2857
  195SOL    HW1  584   0.942   2.845   0.470 -1.8243  2.0110  0.0839
  195SOL    HW2  585   1.033   2.985   0.510 -1.9363 -1.7828 -0.2191
  196SOL     OW  586   0.193   1.451   1.350  0.2640  0.1220  0.3112
  196SOL    HW1  587   0.251   1.524   1.396  2.9433  2.1201 -2.0996
  196SOL    HW2  588   0.173   1.365   1.411  0.5893 -1.0885  0.3323
  197SOL     OW  589   0.792   2.004   0.226  0.0735 -0.0374 -0.7810
  197SOL    HW1  590   0.809   1.974   0.324 -1.5367  1.8530  1.7753
  197SOL    HW2  591   0.849   1.947   0.161  2.0968  1.8611  0.5233
  198SOL     OW  592   0.285   1.175   0.220 -0.3056  0.8088  0.2383
  198SOL    HW1  593   0.181   1.184   0.216  1.1747  1.0772 -1.3551
  198SOL    HW2  594   0.334   1.268   0.212  0.9156  1.3990 -0.1092
  199SOL     OW  595   2.265   0.425   2.463  0.6970  0.2098  0.3542
  199SOL    HW1  596   2.224   0.362   2.538 -2.1100  0.2999 -2.1609
  199SOL    HW2  597   2.362   0.453   2.482 -1.2414 -1.9232 -1.4260
  200SOL     OW  598   0.047   2.895   0.820 -0.1571 -0.0126 -0.1295
  200SOL    HW1  599  -0.033   2.883   0.763  3.0772 -2.8931  1.5387
  200SOL    HW2  600   0.074   2.993   0.843  1.7708 -1.7961  0.9278
  201SOL     OW  601   1.102   0.661   0.556 -0.1399  0.0587 -0.2599
  201SOL    HW1  602   1.106   0.734   0.628  0.6831 -2.4345 -1.0220
  201SOL    HW2  603   1.004   0.657   0.512 -4.3713 -0.9743 -1.4023
  202SOL     OW  604   0.441   1.216   1.784 -0.2225  0.3714 -0.5041
  202SOL    HW1  605   0.492   1.221   1.690  0.8826 -0.4993 -1.8346
  202SOL    HW2  606   0.483   1.155   1.854  2.9959  0.4186  0.8933
  203SOL     OW  607   0.586   0.233   1.529  0.0402  0.1103  0.2153
  203SOL    HW1  608   0.597   0.207   1.426  0.4255 -2.2430 -1.6880
  203SOL    HW2  609   0.598   0.146   1.581 -0.3052 -1.6242  0.6467
  204SOL     OW  610   2.100   1.884   2.991 -0.6715  0.2554  0.0904
  204SOL    HW1  611   2.094   1.779   2.970  0.8378 -2.4918 -0.7639
  204SOL    HW2  612   2.054   1.950   2.925  0.9923 -0.3388 -1.4088
  205SOL     OW  613   1.888   1.852   0.154  0.2201  0.1410 -0.3289
  205SOL    HW1  614   1.969   1.816   0.095  1.8826 -0.9458 -1.5877
  205SOL    HW2  615   1.810   1.879   0.096 -2.5793 -0.4900 -0.0902
  206SOL     OW  616   2.520   2.821   0.359 -0.2659 -0.6415  0.9141
  206SOL    HW1  617   2.592   2.753   0.394  1.8549  1.7183 -0.3011
  206SOL    HW2  618   2.566   2.890   0.296 -0.2079 -2.0618 -0.1214
  207SOL     OW  619   0.523   1.717   2.897 -0.1732  0.4000 -0.4699
  207SOL    HW1  620   0.618   1.689   2.868 -1.0380 -0.1392 -0.9303
  207SOL    HW2  621   0.485   1.641   2.962 -0.1457 -0.1575  3.2909
  208SOL     OW  622   1.041   1.439   1.343  0.5303 -0.2754 -0.0548
  208SOL    HW1  623   0.957   1.493   1.316  2.4255  0.2374 -0.7805
  208SOL    HW2  624   1.091   1.484   1.419  0.4990 -0.6271 -0.4899
  209SOL     OW  625   0.147   0.887   3.090 -0.0340  0.0496 -0.3902
  209SOL    HW1  626   0.199   0.874   3.007 -0.9837  2.6578  0.8988
  209SOL    HW2  627   0.202   0.860   3.176  0.6368 -1.2480  0.4371
  210SOL     OW  628   1.727   0.410   1.169 -0.0391  0.5825 -0.1285
  210SOL    HW1  629   1.692   0.491   1.122  1.2768 -2.9375 -0.8599
  210SOL    HW2  630   1.829   0.388   1.142 -0.9782 -0.5614  0.0989
  211SOL     OW  631   2.131   1.041   1.648  0.3285 -0.0556  0.2946
  211SOL    HW1  632   2.171   1.009   1.744 -1.3819  0.1716  0.2850
  211SOL    HW2  633   2.193   1.100   1.587  0.5882  0.3513 -2.0385
  212SOL     OW  634   0.034   1.012   1.471  0.4385  0.0435 -0.1435
  212SOL    HW1  635   0.078   1.100   1.497 -0.8184  0.4659  1.7925
  212SOL    HW2  636   0.048   0.944   1.549  1.1087  1.8408 -1.6549
  213SOL     OW  637   2.776   0.292   0.306 -0.2502 -0.4324 -0.2255
  213SOL    HW1  638   2.862   0.231   0.291 -1.1935 -0.0260  1.8933
  213SOL    HW2  639   2.766   0.365   0.238 -1.3393 -3.1706 -1.5281
  214SOL     OW  640   2.110   0.307   2.265  0.3383 -0.5991 -0.1384
  214SOL    HW1  641   2.163   0.359   2.335 -1.7125 -1.0508  0.7573
  214SOL    HW2  642   2.114   0.202   2.283  2.0388 -1.8946 -0.8155
  215SOL     OW  643   1.706   2.281   2.046 -0.2033 -0.0282 -0.4154
  215SOL    HW1  644   1.799   2.316   2.011 -1.8752 -0.6272 -1.0823
  215SOL    HW2  645   1.673   2.348   2.118  0.4080 -2.1035 -0.3537
  216SOL     OW  646   2.250   0.520   0.641  0.2265  0.6383  0.1495
  216SOL    HW1  647   2.171   0.470   0.590 -0.1106 -0.8595 -0.9776
  216SOL    HW2  648   2.286   0.595   0.581 -3.0149 -2.9431  1.2258
  217SOL     OW  649   0.798   2.785   2.427  0.1281  0.1171  0.1015
  217SOL    HW1  650   0.783   2.689   2.468  0.8239  1.6025  0.5182
  217SOL    HW2  651   0.797   2.785   2.320  1.2457  1.8478  1.5527
  218SOL     OW  652   1.935   1.433   3.068 -0.2882 -0.3443  0.5232
  218SOL    HW1  653   1.834   1.438   3.045 -0.8045  0.6547 -0.2218
  218SOL    HW2  654   1.941   1.360   3.140  0.2665 -1.9911 -0.1790
  219SOL     OW  655   2.368   1.289   2.599  0.1010 -0.3474 -0.1519
  219SOL    HW1  656   2.431   1.241   2.529  1.9555  2.3603  0.4598
  219SOL    HW2  657   2.359   1.238   2.684 -1.8202 -0.8238  0.8244
  220SOL     OW  658   1.481   1.016   1.289 -0.6504  0.2853 -0.3105
  220SOL    HW1  659   1.560   0.957   1.317 -0.0949  1.8297 -5.2752
  220SOL    HW2  660   1.484   1.109   1.323  0.7300 -3.4537  0.0066
  221SOL     OW  661   1.292   1.108   2.175  0.1544 -0.0306 -0.4861
  221SOL    HW1  662   1.251   1.192   2.131 -0.9380  0.9048 -1.0988
  221SOL    HW2  663   1.368   1.064   2.121  0.1281 -0.6463 -1.5226
  222SOL     OW  664   1.335   0.160   1.111 -0.1559  0.1068  0.4964
  222SOL    HW1  665   1.399   0.077   1.093  1.3090 -0.3948 -0.1159
  222SOL    HW2  666   1.347   0.211   1.200 -1.4517  3.3201 -1.6789
  223SOL     OW  667   2.897   0.780   2.002 -0.7463  0.4671 -0.1758
  223SOL    HW1  668   2.865   0.796   2.102  1.9830 -1.8124  2.1424
  223SOL    HW2  669   2.939   0.870   1.960  0.6006  1.8357  0.1193
  224SOL     OW  670   1.555   1.055   2.809  0.1792  0.0546  0.1863
  224SOL    HW1  671   1.571   0.967   2.750  0.0357 -2.4890 -0.0789
  224SOL    HW2  672   1.517   1.132   2.757  1.7799 -0.3665 -0.6950
  225SOL     OW  673   2.959   2.828   2.939  0.3907  0.0346  0.3390
  225SOL    HW1  674   2.933   2.748   2.881 -0.6061 -2.6431  0.3462
  225SOL    HW2  675   3.014   2.898   2.884 -1.7283  0.7337 -0.2897
  226SOL     OW  676   2.460   1.655   2.866 -0.0603 -0.4424 -0.1289
  226SOL    HW1  677   2.484   1.604   2.779 -0.8475  1.8798 -0.2960
  226SOL    HW2  678   2.434   1.602   2.948 -0.5330  2.4948 -0.0904
  227SOL     OW  679   0.781   0.149   2.942  0.1415 -0.5610 -0.4130
  227SOL    HW1  680   0.830   0.089   3.012 -0.7733 -0.6504  1.2349
  227SOL    HW2  681   0.811   0.128   2.846 -1.7397 -0.4563  1.6504
  228SOL     OW  682   2.349   0.541   2.769  0.3214 -0.1857  0.3019
  228SOL    HW1  683   2.300   0.602   2.701 -0.6456 -1.0179 -1.7665
  228SOL    HW2  684   2.413   0.475   2.719  1.6886 -0.5267  1.9586
  229SOL     OW  685   0.596   0.482   1.884  0.9260  0.4615 -0.4133
  229SOL    HW1  686   0.630   0.485   1.790 -1.8056 -0.4288  1.9440
  229SOL    HW2  687   0.665   0.511   1.954 -4.4036 -0.7533 -3.6520
  230SOL     OW  688   1.935   1.237   2.111 -0.6104 -0.2330  0.2009
  230SOL    HW1  689   2.010   1.284   2.057  3.2796 -1.1190  1.1930
  230SOL    HW2  690   1.850   1.295   2.120  1.5745 -2.3606  0.2206
  231SOL     OW  691   0.604   1.110   2.947  0.4428 -0.3457  0.4963
  231SOL    HW1  692   0.705   1.087   2.940  1.1633 -3.1920 -1.9329
  231SOL    HW2  693   0.564   1.096   3.039 -1.7588  1.5481  2.0130
  232SOL     OW  694   2.521   0.020   2.718  0.3843 -0.6702  0.3380
  232SOL    HW1  695   2.535  -0.080   2.726 -0.5842 -0.7232  1.2499
  232SOL    HW2  696   2.535   0.051   2.618  3.0319 -0.8173 -0.5879
  233SOL     OW  697   1.733   1.291   1.077 -0.1367 -0.0258 -0.5338
  233SOL    HW1  698   1.754   1.288   0.975  1.5252 -0.2605  0.6558
  233SOL    HW2  699   1.810   1.235   1.127 -1.2671 -0.1388  1.2107
  234SOL     OW  700   1.649   2.589   1.930 -0.8785 -0.2339 -0.3885
  234SOL    HW1  701   1.660   2.652   2.014  3.1067  0.4682 -0.6701
  234SOL    HW2  702   1.571   2.519   1.940  0.4230  0.2151  0.9185
  235SOL     OW  703   3.088   3.051   2.827  0.6335 -0.7739 -0.0450
  235SOL    HW1  704   3.182   3.082   2.790 -0.7184  0.9294 -2.2217
  235SOL    HW2  705   3.037   3.121   2.881 -0.1598 -1.6887 -0.8170
  236SOL     OW  706   2.875   0.685   0.038 -0.1268  0.1147  0.2102
  236SOL    HW1  707   2.943   0.747   0.083 -0.6279 -0.3500  1.5377
  236SOL    HW2  708   2.920   0.633  -0.042  0.5487  1.6849 -3.3424
  237SOL     OW  709   1.486   1.611   1.044 -0.0828  0.5457 -0.6143
  237SOL    HW1  710   1.585   1.594   1.021 -2.2747 -0.5887 -1.0054
  237SOL    HW2  711   1.472   1.674   1.125  1.6895  0.4788  1.0958
  238SOL     OW  712   1.758   1.360   0.746  0.6932  0.2229  0.0000
  238SOL    HW1  713   1.836   1.379   0.673  0.8648 -1.7548  1.2693
  238SOL    HW2  714   1.690   1.441   0.750 -0.1491  0.5857 -1.4473
  239SOL     OW  715   2.144   0.286   2.667  0.1369 -0.2690  0.5615
  239SOL    HW1  716   2.215   0.260   2.741 -2.0212  0.1460 -1.0476
  239SOL    HW2  717   2.061   0.337   2.703 -0.8531 -1.2123  0.5321
  240SOL     OW  718   0.879   0.737   0.232 -0.2113 -0.2875  0.5838
  240SOL    HW1  719   0.863   0.661   0.164 -1.3255 -0.4680  0.7444
  240SOL    HW2  720   0.870   0.688   0.327  0.9157  1.8601 -0.8629
  241SOL     OW  721   0.578   0.020   0.356  0.3883  0.0327  0.0384
  241SOL    HW1  722   0.612  -0.050   0.281 -0.2059  1.2078  0.7655
  241SOL    HW2  723   0.504  -0.017   0.415 -1.2939  0.3779 -2.7450
  242SOL     OW  724   0.683   2.439   1.134 -0.2633 -0.0377  0.5342
  242SOL    HW1  725   0.675   2.506   1.215 -0.5544  0.7371 -0.0862
  242SOL    HW2  726   0.775   2.454   1.083  1.4823 -0.8678 -1.4756
  243SOL     OW  727   1.087   0.647   2.503  0.0472 -0.6673 -0.3353
  243SOL    HW1  728   1.003   0.678   2.453 -1.6202 -0.8205  0.1289
  243SOL    HW2  729   1.066   0.562   2.558  0.0394  1.0183  1.6450
  244SOL     OW  730   2.831   1.994   2.329 -0.0718  0.0565  0.1385
  244SOL    HW1  731   2.899   1.998   2.247  3.1384 -0.1767 -2.3207
  244SOL    HW2  732   2.745   1.943   2.303 -0.7538  0.2998  0.5049
  245SOL     OW  733   2.464   0.716   2.190  0.1885 -0.0865 -0.0617
  245SOL    HW1  734   2.448   0.787   2.265  0.6129  0.5190 -2.1259
  245SOL    HW2  735   2.558   0.670   2.195 -1.3524 -2.3562  0.7527
  246SOL     OW  736   0.319   2.860   1.774 -0.6747 -0.2764 -0.3096
  246SOL    HW1  737   0.237   2.846   1.712 -0.0860 -1.0736  1.0507
  246SOL    HW2  738   0.367   2.947   1.752  0.6532 -1.5768  2.4424
  247SOL     OW  739   2.197   0.502   2.993  0.3428 -0.3396 -0.2809
  247SOL    HW1  740   2.272   0.523   2.925 -1.1421  1.4121  1.9889
  247SOL    HW2  741   2.128   0.582   2.996  0.8907  1.8727  2.2359
  248SOL     OW  742   2.175   1.856   1.575  0.0814  0.3999  1.2245
  248SOL    HW1  743   2.206   1.767   1.621 -3.3377 -1.5087 -1.7276
  248SOL    HW2  744   2.086   1.887   1.618  1.1532 -0.6610  0.5835
  249SOL     OW  745   1.994   1.975   1.915  0.0607 -0.6738  0.2271
  249SOL    HW1  746   1.990   1.898   1.846  0.7084 -0.3990 -1.7367
  249SOL    HW2  747   2.090   2.015   1.918  1.7321 -0.3255  0.8019
  250SOL     OW  748   1.027   0.640   1.897 -0.5741  0.4063 -0.5210
  250SOL    HW1  749   1.050   0.597   1.991  2.2903 -2.0193  1.4664
  250SOL    HW2  750   1.097   0.610   1.831 -2.2707 -2.4132  0.7597
  251SOL     OW  751   3.034   1.534   2.604 -0.1470  0.4147 -0.2756
  251SOL    HW1  752   3.027   1.634   2.620 -0.1104 -1.6373  1.0185
  251SOL    HW2  753   2.944   1.486   2.585  0.3270  0.0586  0.5336
  252SOL     OW  754   1.542   0.903   1.613 -0.0156  0.2766  0.4980
  252SOL    HW1  755   1.603   0.974   1.566  0.1502 -1.3544 -0.6489
  252SOL    HW2  756   1.490   0.948   1.694 -0.2103  2.4676  1.9215
  253SOL     OW  757   0.998   1.525   0.360 -0.3123 -0.2906  0.1247
  253SOL    HW1  758   1.090   1.487   0.357 -1.4289 -0.0497 -1.2905
  253SOL    HW2  759   0.935   1.481   0.278 -0.0282 -1.1951 -4.7292
  254SOL     OW  760   2.005   2.097   1.600 -0.3273  0.8194  0.3646
  254SOL    HW1  761   1.964   2.038   1.522  0.1203  0.9718  0.8072
  254SOL    HW2  762   1.953   2.087   1.685  1.9915  0.4668 -1.2143
  255SOL     OW  763   0.110   1.170   2.973  0.5858  0.1533 -0.4103
  255SOL    HW1  764   0.186   1.238   2.964 -2.7049  0.3293 -0.2449
  255SOL    HW2  765   0.143   1.081   3.022  0.9810 -2.7865 -0.5936
  256SOL     OW  766   2.716   1.309   1.821 -0.5711 -0.3295  0.6093
  256SOL    HW1  767   2.654   1.307   1.736 -0.6492 -1.7459  1.8186
  256SOL    HW2  768   2.678   1.254   1.899  0.2566  1.0821 -2.3069
  257SOL     OW  769   0.834   0.200   1.862  0.1280  0.6224  0.2442
  257SOL    HW1  770   0.885   0.264   1.797 -0.9779 -0.4931 -2.0776
  257SOL    HW2  771   0.887   0.112   1.872  1.3155  2.2170 -0.5692
  258SOL     OW  772   2.953   1.270   0.408 -0.3451  0.3655 -0.2221
  258SOL    HW1  773   2.875   1.337   0.381  1.7043  0.5656 -0.2245
  258SOL    HW2  774   2.983   1.274   0.510 -1.4414 -1.4906 -0.4407
  259SOL     OW  775   0.495   2.901   2.984  0.2267 -1.0173  0.3955
  259SOL    HW1  776   0.441   2.865   3.067  0.6760 -1.9308  1.4511
  259SOL    HW2  777   0.495   2.820   2.913  3.7062 -0.1613 -1.8303
  260SOL     OW  778   2.661   0.752   2.694 -0.0248 -0.3951  0.0625
  260SOL    HW1  779   2.564   0.792   2.681 -0.1536  0.3813  3.4869
  260SOL    HW2  780   2.651   0.660   2.746 -0.0024 -0.4117 -1.3204
  261SOL     OW  781   2.707   1.305   1.344  0.1827  0.2506 -0.3134
  261SOL    HW1  782   2.650   1.235   1.290  1.1075 -0.3600  1.2770
  261SOL    HW2  783   2.809   1.283   1.340 -0.7011  2.0901 -1.2411
  262SOL     OW  784   1.495   2.959   2.052 -0.0627  0.2866 -0.3708
  262SOL    HW1  785   1.482   3.033   1.975  0.9288  0.0694 -0.6853
  262SOL    HW2  786   1.441   2.872   2.038  2.2031 -0.9459  0.1952
  263SOL     OW  787   0.850   0.727   2.341  0.8986  0.5118  0.3291
  263SOL    HW1  788   0.762   0.676   2.314 -0.9823  0.6145  1.8676
  263SOL    HW2  789   0.873   0.805   2.273  2.5725  2.1445 -0.2597
  264SOL     OW  790   2.315   0.753   0.474 -0.1490  0.5466  0.1615
  264SOL    HW1  791   2.219   0.785   0.463  2.3188 -0.7449  1.9298
  264SOL    HW2  792   2.389   0.832   0.472 -0.1732  0.4096 -2.1154
  265SOL     OW  793   0.915   2.294   2.699  0.0843  0.5826 -0.1551
  265SOL    HW1  794   0.973   2.368   2.738 -0.5805  0.8258 -1.9433
  265SOL    HW2  795   0.883   2.229   2.777  0.1473 -1.6740  0.6902
  266SOL     OW  796   1.284   1.739   0.018 -0.5228  0.1102  0.2132
  266SOL    HW1  797   1.256   1.805   0.092 -0.2310 -0.1709  0.1502
  266SOL    HW2  798   1.384   1.711   0.030  1.6799 -1.4345  0.6627
  267SOL     OW  799   1.104   0.027   2.321 -0.1974 -0.1972  0.2734
  267SOL    HW1  800   1.058  -0.061   2.290 -1.3404  1.1381 -1.1831
  267SOL    HW2  801   1.200   0.030   2.278  1.0575 -2.0423 -0.1902
  268SOL     OW  802   0.666   1.148   1.099 -0.4165 -0.0042  0.0918
  268SOL    HW1  803   0.659   1.204   1.184 -2.0826  2.3086 -4.0688
  268SOL    HW2  804   0.664   1.215   1.016 -1.7315  1.4057  0.9114
  269SOL     OW  805   2.400   2.555   1.569  0.4141 -0.1206  0.6180
  269SOL    HW1  806   2.463   2.474   1.581  0.0341  1.1854 -0.9245
  269SOL    HW2  807   2.368   2.587   1.662  2.5125  0.5620 -0.4388
  270SOL     OW  808   0.304   2.783   2.072 -0.0554 -0.6509 -0.2963
  270SOL    HW1  809   0.290   2.780   1.970 -2.2771 -0.2040  0.8618
  270SOL    HW2  810   0.261   2.698   2.116  0.3102 -0.2493  0.3513
  271SOL     OW  811   0.398   1.375   1.143  0.9146 -0.2375  0.5083
  271SOL    HW1  812   0.350   1.352   1.048 -1.8823 -1.1356 -0.4466
  271SOL    HW2  813   0.322   1.399   1.211  0.7544  1.7975  1.0428
  272SOL     OW  814   1.974   2.809   1.890 -0.3454 -0.2250 -0.2787
  272SOL    HW1  815   1.903   2.806   1.816  1.2864  1.8174 -0.9786
  272SOL    HW2  816   2.056   2.873   1.865  1.8976  2.3753  0.2868
  273SOL     OW  817   1.416   1.435   2.883 -0.3288 -0.7488 -0.4009
  273SOL    HW1  818   1.509   1.449   2.930  0.4355 -0.9229 -2.5249
  273SOL    HW2  819   1.340   1.469   2.950  0.9366  2.5186  1.6822
  274SOL     OW  820   1.100   0.470   2.111  0.5100  0.1143 -0.5576
  274SOL    HW1  821   1.173   0.440   2.042  0.2657  1.6318  1.0149
  274SOL    HW2  822   1.140   0.519   2.187 -1.4968  0.0199 -1.8939
  275SOL     OW  823   0.673   2.084   1.890 -0.4868  0.1390  0.3830
  275SOL    HW1  824   0.682   2.174   1.946  1.0509  1.9650  0.0637
  275SOL    HW2  825   0.572   2.056   1.880 -1.2833 -0.5850 -0.9152
  276SOL     OW  826   2.144   0.905   2.743  0.3040 -0.2092  0.6069
  276SOL    HW1  827   2.067   0.929   2.677  3.4964  1.1109  0.3284
  276SOL    HW2  828   2.128   0.820   2.796  1.8375 -1.6523 -1.2026
  277SOL     OW  829   3.066   0.859   0.217 -0.6304 -0.3534  0.0194
  277SOL    HW1  830   3.127   0.891   0.135  0.1610 -1.4098  2.6505
  277SOL    HW2  831   3.088   0.771   0.271 -2.3792  2.3577 -1.8218
  278SOL     OW  832   0.263   0.280   2.904 -0.5682  0.0522  1.0399
  278SOL    HW1  833   0.356   0.272   2.943 -1.4120 -2.1033  0.4117
  278SOL    HW2  834   0.242   0.384   2.891  1.0909  1.9596 -1.8227
  279SOL     OW  835   0.121   0.059   0.896 -0.4066 -0.0096 -0.0652
  279SOL    HW1  836   0.158   0.047   0.994  1.2882 -0.8353  0.1895
  279SOL    HW2  837   0.194   0.062   0.826 -1.3985 -3.4988  1.2399
  280SOL     OW  838   1.640   2.958   2.491  0.5358 -0.5953 -0.0003
  280SOL    HW1  839   1.731   2.993   2.539  0.8293  2.6264  0.5220
  280SOL    HW2  840   1.557   3.015   2.514  2.4747 -0.9226  1.9056
  281SOL     OW  841   0.657   1.037   2.338 -0.0353 -0.6596 -0.2702
  281SOL    HW1  842   0.613   0.963   2.280  1.8238 -1.1924 -1.5755
  281SOL    HW2  843   0.722   0.999   2.412 -0.5941  0.2296  0.7613
  282SOL     OW  844   1.666   2.502   0.562  0.0266 -0.1878  0.0852
  282SOL    HW1  845   1.630   2.415   0.511 -2.1204 -0.2093  0.2332
  282SOL    HW2  846   1.610   2.590   0.554 -1.5383 -2.2169  1.8340
  283SOL     OW  847   1.116   0.876   0.723 -0.7406  0.1464 -0.1902
  283SOL    HW1  848   1.188   0.833   0.786 -1.4713  0.5290 -2.5122
  283SOL    HW2  849   1.075   0.968   0.761 -0.4506  3.0547  2.4602
  284SOL     OW  850   2.213   2.815   2.426  0.1324 -0.0150 -0.2809
  284SOL    HW1  851   2.224   2.830   2.533 -0.3163 -0.9608  0.5739
  284SOL    HW2  852   2.207   2.906   2.381 -1.0474  4.4521  2.4387
  285SOL     OW  853   1.380   3.057   2.537 -0.2116  0.2001 -0.4048
  285SOL    HW1  854   1.392   3.061   2.436  0.1589  1.0284  1.8327
  285SOL    HW2  855   1.288   3.101   2.572  0.4446 -1.2660  1.3402
  286SOL     OW  856   0.429   0.441   0.630 -0.0607  1.0428 -0.1335
  286SOL    HW1  857   0.418   0.392   0.719 -0.2747  0.1704  2.3914
  286SOL    HW2  858   0.437   0.381   0.546  1.1539 -3.6750  0.1699
  287SOL     OW  859   0.080   1.303   2.536  0.2334 -0.3496 -0.3143
  287SOL    HW1  860   0.038   1.219   2.577 -2.3308 -0.9235 -0.2373
  287SOL    HW2  861   0.037   1.393   2.571 -1.1607  3.4079  0.4504
  288SOL     OW  862   1.593   2.584   1.473 -0.0656 -0.3829 -0.0840
  288SOL    HW1  863   1.685   2.563   1.506  2.2043 -0.1073  0.9555
  288SOL    HW2  864   1.576   2.564   1.376  0.0582 -0.0873  3.8730
  289SOL     OW  865   0.624   2.719   0.847 -0.0470  0.5450  0.0784
  289SOL    HW1  866   0.630   2.800   0.775  2.0852  0.1341 -1.3759
  289SOL    HW2  867   0.656   2.756   0.936  0.0452  1.7792  0.1246
  290SOL     OW  868   2.990   1.283   1.658 -0.6729 -0.2972  0.0641
  290SOL    HW1  869   2.898   1.285   1.705  2.5933  0.1303  0.1659
  290SOL    HW2  870   3.069   1.301   1.725 -0.4582  1.5461  0.6748
  291SOL     OW  871   1.990   0.043   0.100  0.1605  0.1299 -0.3221
  291SOL    HW1  872   2.020   0.029   0.196 -2.3562 -1.2569 -0.6117
  291SOL    HW2  873   2.052   0.103   0.042  1.9885 -3.1756 -2.2688
  292SOL     OW  874   2.946   1.184   3.071  0.2354  0.3817 -0.3670
  292SOL    HW1  875   2.874   1.229   3.013  0.2051 -2.0465 -0.4034
  292SOL    HW2  876   3.042   1.185   3.030  0.7215  2.8278  2.0974
  293SOL     OW  877   0.543   2.107   0.154  0.4388 -0.9610 -0.1151
  293SOL    HW1  878   0.496   2.151   0.236 -0.9449  0.5228 -0.3010
  293SOL    HW2  879   0.632   2.067   0.186  0.6604 -1.9106  0.1246
  294SOL     OW  880   1.612   2.105   1.839  0.1387  0.1559  0.5447
  294SOL    HW1  881   1.634   2.161   1.920  3.6623 -0.7588  1.4257
  294SOL    HW2  882   1.659   2.149   1.757 -1.3858 -0.3347  0.4227
  295SOL     OW  883   0.976   1.176   0.412 -0.4013  0.2120 -0.7122
  295SOL    HW1  884   1.064   1.154   0.470 -1.8872 -0.6412  0.5707
  295SOL    HW2  885   0.892   1.143   0.464  2.4274  0.9906 -0.7595
  296SOL     OW  886   1.286   2.107   2.520  0.2308  0.1493  0.2015
  296SOL    HW1  887   1.245   2.172   2.448  2.1190 -3.3467  0.9110
  296SOL    HW2  888   1.301   2.017   2.482 -2.6151  2.7177  1.3112
  297SOL     OW  889   1.500   0.708   1.379  0.4165  0.0072 -0.3642
  297SOL    HW1  890   1.582   0.648   1.373  0.3851  0.6442 -2.3468
  297SOL    HW2  891   1.511   0.793   1.440  0.6856 -1.0773  1.0546
  298SOL     OW  892   0.557   1.347   2.835 -0.8013 -0.7253 -0.0172
  298SOL    HW1  893   0.586   1.254   2.867 -0.5204  0.2290  0.2482
  298SOL    HW2  894   0.601   1.378   2.744  1.4608  0.6219  0.7304
  299SOL     OW  895   0.356   0.380   1.511  0.0400  0.0383 -0.1144
  299SOL    HW1  896   0.357   0.444   1.430  0.1246  0.5489  0.3215
  299SOL    HW2  897   0.447   0.328   1.521 -1.0202 -1.6619 -1.6993
  300SOL     OW  898   1.282   1.819   2.853  0.7278 -0.4031 -0.5964
  300SOL    HW1  899   1.283   1.748   2.774 -1.3046 -0.0375  0.0568
  300SOL    HW2  900   1.262   1.782   2.949  2.5676  0.6771  2.0557
  301SOL     OW  901   0.426   0.266   0.437  0.2617  0.6021 -0.0959
  301SOL    HW1  902   0.328   0.230   0.422 -0.7707  0.6805  0.7671
  301SOL    HW2  903   0.499   0.221   0.377  0.0782  2.7178  1.2277
  302SOL     OW  904   1.174   2.313   2.371  0.8215 -0.0276 -0.1514
  302SOL    HW1  905   1.115   2.357   2.439  0.7540  1.3617 -0.8965
  302SOL    HW2  906   1.119   2.247   2.303 -1.1517 -0.8408  0.1732
  303SOL     OW  907   0.926   2.406   0.767  0.0848  0.0699 -0.3935
  303SOL    HW1  908   0.983   2.457   0.694 -0.8580  0.6099 -1.4261
  303SOL    HW2  909   0.922   2.456   0.858  0.8300 -1.2405  0.4278
  304SOL     OW  910   0.077   1.991   0.673 -0.2258 -0.1913 -0.1517
  304SOL    HW1  911   0.142   1.936   0.606 -0.1611  3.5961  1.5962
  304SOL    HW2  912   0.018   2.064   0.636 -0.3264  0.2692  1.7597
  305SOL     OW  913   1.607   0.880   0.681 -0.1182  0.3746  0.1406
  305SOL    HW1  914   1.512   0.876   0.636 -0.9729  1.7913 -2.8842
  305SOL    HW2  915   1.685   0.839   0.625  2.8132  0.7512  0.9760
  306SOL     OW  916   0.424   1.941   1.935  0.0396 -0.5571  0.4787
  306SOL    HW1  917   0.448   1.845   1.891  1.2245 -1.7520 -1.3715
  306SOL    HW2  918   0.422   1.931   2.040  0.0552 -2.2955  0.3821
  307SOL     OW  919   3.101   0.871   2.545 -0.0953  0.2478  0.0184
  307SOL    HW1  920   3.086   0.958   2.597 -2.1424 -0.0595 -0.4672
  307SOL    HW2  921   3.054   0.798   2.597 -4.0900  2.5080 -2.0374
  308SOL     OW  922   1.563   2.692   2.795  0.0221 -0.4919  0.2457
  308SOL    HW1  923   1.574   2.660   2.695  0.2575 -2.3421  2.5661
  308SOL    HW2  924   1.511   2.624   2.849 -2.4934  2.6591  1.7508
  309SOL     OW  925   1.266   0.015   1.820  0.3164  0.0972 -0.0196
  309SOL    HW1  926   1.366   0.031   1.848 -3.8438 -1.8780  2.7706
  309SOL    HW2  927   1.239   0.035   1.721 -2.5718 -2.2791  0.0127
  310SOL     OW  928   1.435   2.644   0.714 -0.0037  0.7485 -0.6036
  310SOL    HW1  929   1.348   2.691   0.736  1.7445 -0.4116  1.2105
  310SOL    HW2  930   1.511   2.703   0.686 -0.8309 -0.3661 -0.6937
  311SOL     OW  931   1.222   0.996   1.456  0.0456 -0.5737  0.3074
  311SOL    HW1  932   1.312   0.944   1.469 -1.4910 -0.1230 -2.3411
  311SOL    HW2  933   1.251   1.095   1.463  1.1987  0.3664 -0.2551
  312SOL     OW  934   1.634   0.642   1.019 -0.1990 -0.1872 -0.6538
  312SOL    HW1  935   1.591   0.730   1.055 -0.0388 -0.9491 -0.6229
  312SOL    HW2  936   1.565   0.594   0.957  0.2030  0.4502  1.7044
  313SOL     OW  937   1.593   1.446   0.480 -0.2489 -0.1180 -0.1592
  313SOL    HW1  938   1.497   1.467   0.515 -2.3605 -1.6209 -1.7083
  313SOL    HW2  939   1.613   1.352   0.442  3.5002  1.6104  2.5511
  314SOL     OW  940   2.930   0.073   3.075 -0.6438 -0.3362 -0.3229
  314SOL    HW1  941   2.949   0.103   3.172 -1.8519 -0.5035 -0.8648
  314SOL    HW2  942   2.879  -0.016   3.065 -1.8095  0.7841 -0.4173
  315SOL     OW  943   1.286   0.239   2.747  0.1175 -0.2096  0.3313
  315SOL    HW1  944   1.216   0.190   2.686 -3.1661  4.0556 -1.5380
  315SOL    HW2  945   1.281   0.209   2.847  0.5494 -1.5455  0.7354
  316SOL     OW  946   1.702   2.089   0.915  0.7779  0.1199 -0.0820
  316SOL    HW1  947   1.667   2.122   1.003  2.9360  1.9112 -3.9378
  316SOL    HW2  948   1.725   2.170   0.845 -0.5639 -1.3154 -1.8889
  317SOL     OW  949   1.162   0.693   2.807 -0.1130  0.5143  0.2072
  317SOL    HW1  950   1.106   0.747   2.880  1.2488  0.7630  4.0725
  317SOL    HW2  951   1.123   0.602   2.778  0.3780 -0.7102 -1.3548
  318SOL     OW  952   1.405   0.008   2.260  0.3745  0.3464 -0.3025
  318SOL    HW1  953   1.382   0.112   2.231 -0.1326  1.6702  0.1327
  318SOL    HW2  954   1.455  -0.038   2.183 -1.9796  0.1863 -1.0020
  319SOL     OW  955   0.656   2.402   2.928 -0.0771 -0.2324  0.2130
  319SOL    HW1  956   0.591   2.404   3.011 -0.9914  1.6614  1.8983
  319SOL    HW2  957   0.685   2.308   2.893 -0.5739  1.2289 -3.0801
  320SOL     OW  958   1.593   2.269   0.443  0.6869  0.2735 -0.6220
  320SOL    HW1  959   1.673   2.209   0.461  1.7451  1.3892 -0.3280
  320SOL    HW2  960   1.507   2.242   0.496  1.7457  0.5048  1.2469
  321SOL     OW  961   1.626   2.776   0.512 -0.2610 -0.4566  0.8952
  321SOL    HW1  962   1.563   2.831   0.452  0.8797 -0.1009  1.4610
  321SOL    HW2  963   1.721   2.813   0.503 -2.6167 -1.2958  0.4487
  322SOL     OW  964   2.672   1.115   2.270  0.3810 -1.0348 -0.2153
  322SOL    HW1  965   2.724   1.146   2.352 -0.2037 -2.2352 -0.5557
  322SOL    HW2  966   2.608   1.036   2.282  0.6792  2.7529 -4.0195
  323SOL     OW  967   1.000   2.740   0.870 -0.0532 -0.3725  0.2945
  323SOL    HW1  968   1.032   2.700   0.775  1.9542  0.0596  1.6730
  323SOL    HW2  969   1.009   2.841   0.883  0.4845 -1.9357 -0.6465
  324SOL     OW  970   0.079   2.501   2.424  0.0002 -0.4881  0.4826
  324SOL    HW1  971   0.058   2.404   2.431 -1.8056  1.0138 -0.6087
  324SOL    HW2  972   0.024   2.564   2.485  0.4734  1.9483 -2.6759
  325SOL     OW  973   1.201   3.058   0.481  0.0416 -0.0901 -0.2573
  325SOL    HW1  974   1.217   3.102   0.383 -1.8634  2.4065 -3.4715
  325SOL    HW2  975   1.200   3.136   0.550 -2.1134  1.8356 -0.1816
  326SOL     OW  976   2.308   0.815   0.081  0.2143 -0.7399 -0.3602
  326SOL    HW1  977   2.247   0.793   0.001 -3.4156  1.1293  0.9765
  326SOL    HW2  978   2.324   0.730   0.138 -2.4224 -1.5775 -1.1300
  327SOL     OW  979   2.691   0.434   0.539  0.0898 -0.0009 -0.0412
  327SOL    HW1  980   2.722   0.376   0.460  0.4122  0.8514 -0.0079
  327SOL    HW2  981   2.606   0.391   0.586 -1.1421 -0.2734 -1.0540
  328SOL     OW  982   2.543   0.617   0.351 -0.4107  0.0019  0.0947
  328SOL    HW1  983   2.466   0.661   0.404 -4.3082 -2.4114 -1.0739
  328SOL    HW2  984   2.601   0.566   0.420  3.6394  1.9615  0.0038
  329SOL     OW  985   3.003   2.943   2.129 -0.7475 -0.3493 -0.2467
  329SOL    HW1  986   3.056   2.891   2.201  0.2787  0.9498  0.6454
  329SOL    HW2  987   3.013   3.047   2.117  0.4214  3.0257 -0.8231
  330SOL     OW  988   0.492   0.226   1.866  0.3982  0.1554 -0.8441
  330SOL    HW1  989   0.500   0.328   1.839 -0.3790  0.8620  0.3680
  330SOL    HW2  990   0.580   0.188   1.906  0.6227  0.8053 -0.1447
  331SOL     OW  991   2.873   1.931   1.089  0.3823 -0.2795  0.1190
  331SOL    HW1  992   2.925   2.017   1.072 -0.6206  0.2807 -0.6993
  331SOL    HW2  993   2.796   1.939   1.166 -3.7610  0.3398  0.8843
  332SOL     OW  994   0.420   1.033   0.027  0.8305  0.2945 -0.1273
  332SOL    HW1  995   0.371   1.010  -0.061  0.4944 -2.4716 -3.3681
  332SOL    HW2  996   0.361   1.099   0.087  0.8677  0.4081  0.6887
  333SOL     OW  997   2.860   1.027   0.316  0.1424 -0.1541 -0.4711
  333SOL    HW1  998   2.907   1.105   0.364 -0.7705 -1.8219  1.0433
  333SOL    HW2  999   2.923   0.970   0.259 -3.3810  1.6537  1.2217
  334SOL     OW 1000   1.638   1.149   1.891  0.3684 -0.0352  0.6321
  334SOL    HW1 1001   1.729   1.111   1.867 -3.4770  1.5193 -3.2344
  334SOL    HW2 1002   1.654   1.238   1.934 -0.8723  0.4595 -1.6573
  335SOL     OW 1003   1.941   2.808   2.619  0.9025  0.0288  0.3524
  335SOL    HW1 1004   1.987   2.777   2.706  0.7282 -2.0211 -3.1797
  335SOL    HW2 1005   1.854   2.862   2.628  0.9393 -2.1058 -1.1144
  336SOL     OW 1006   0.205   0.065   2.696  0.2971 -0.1138 -0.1076
  336SOL    HW1 1007   0.302   0.021   2.703 -1.7483 -0.0493 -0.2587
  336SOL    HW2 1008   0.202   0.154   2.749 -1.9716  0.7599 -2.3296
  337SOL     OW 1009   1.006   2.810   2.822 -0.4725  0.1282 -0.2580
  337SOL    HW1 1010   0.974   2.784   2.914  0.6993  1.2687  0.1069
  337SOL    HW2 1011   1.093   2.762   2.798  1.6354  1.5918 -1.1468
  338SOL     OW 1012   0.009   1.020   0.616 -0.3693 -0.1939 -0.7860
  338SOL    HW1 1013  -0.088   0.994   0.635  1.7155 -1.8255  1.4237
  338SOL    HW2 1014   0.026   1.120   0.596  1.3501 -3.6649  0.2018
  339SOL     OW 1015   1.713   1.396   2.054  0.2869 -0.0217  0.4431
  339SOL    HW1 1016   1.609   1.390   2.068  2.0547 -0.0276  2.2075
  339SOL    HW2 1017   1.742   1.492   2.017 -0.2045  0.5926 -0.6122
  340SOL     OW 1018   2.286   0.793   1.284  0.1094 -0.2192 -0.0748
  340SOL    HW1 1019   2.204   0.834   1.240 -0.5901  0.0136  1.0006
  340SOL    HW2 1020   2.326   0.719   1.223  0.6034  1.1253  0.8381
  341SOL     OW 1021   1.871   2.163   0.471  0.5149  0.0100  0.4612
  341SOL    HW1 1022   1.858   2.183   0.370  1.0330  2.0772 -2.8535
  341SOL    HW2 1023   1.976   2.153   0.492  1.6491  2.1590 -0.0667
  342SOL     OW 1024   2.238   2.192   2.801 -0.5271  0.3626  0.6248
  342SOL    HW1 1025   2.296   2.112   2.846  1.6048  0.4735  0.6135
  342SOL    HW2 1026   2.146   2.160   2.780  1.1772  0.8902 -1.9052
  343SOL     OW 1027   0.309   0.887   2.865  0.0814  0.1339  0.1136
  343SOL    HW1 1028   0.289   0.947   2.786  0.9741 -0.7548  0.1418
  343SOL    HW2 1029   0.411   0.864   2.866 -2.1193  1.3414 -1.3080
  344SOL     OW 1030   1.890   1.463   0.298 -0.6507  0.0027  0.5015
  344SOL    HW1 1031   1.839   1.397   0.238 -0.1925 -0.4993 -1.6368
  344SOL    HW2 1032   1.846   1.558   0.291 -1.7012  2.4069 -0.4325
  345SOL     OW 1033   1.459   2.212   2.863 -0.5007  0.0193 -0.3648
  345SOL    HW1 1034   1.369   2.177   2.819 -0.6734 -2.7421 -0.4426
  345SOL    HW2 1035   1.544   2.170   2.819 -0.9424  0.0751 -1.4811
  346SOL     OW 1036   2.403   0.884   1.509  0.9392  0.2531 -0.6496
  346SOL    HW1 1037   2.392   0.988   1.521  1.0026 -1.1111 -1.5723
  346SOL    HW2 1038   2.358   0.847   1.423 -1.0931 -0.4175  0.1572
  347SOL     OW 1039   0.673   2.811   1.524  0.0354 -1.0613 -0.4496
  347SOL    HW1 1040   0.665   2.748   1.606  1.5156 -2.4517 -0.5605
  347SOL    HW2 1041   0.594   2.876   1.512 -2.4441 -2.5202 -3.4151
  348SOL     OW 1042   0.108   0.694   2.815 -0.5917 -0.2642 -0.5410
  348SOL    HW1 1043   0.013   0.704   2.771 -1.0186 -1.4141  4.3457
  348SOL    HW2 1044   0.165   0.781   2.819 -2.0964 -1.9988 -0.4191
  349SOL     OW 1045   1.926   0.469   2.734 -0.2167 -0.0701  0.3618
  349SOL    HW1 1046   1.916   0.551   2.672  0.8206  0.9676 -0.1847
  349SOL    HW2 1047   1.920   0.489   2.835 -2.4656 -0.3607 -0.1549
  350SOL     OW 1048   1.674   0.373   0.346 -0.6680 -0.3456  0.1788
  350SOL    HW1 1049   1.727   0.387   0.436  0.9279 -0.0467  0.9037
  350SOL    HW2 1050   1.654   0.466   0.309  1.7029  0.5598 -2.2741
  351SOL     OW 1051   0.922   0.908   2.113  0.4385  0.0642 -0.0072
  351SOL    HW1 1052   0.919   1.011   2.077  1.8888  1.4794 -0.1372
  351SOL    HW2 1053   0.874   0.846   2.042 -1.5598  0.8908 -1.5260
  352SOL     OW 1054   1.969   1.369   0.562 -0.1169 -0.1260  0.2196
  352SOL    HW1 1055   1.950   1.388   0.464 -2.4114  0.5420 -0.0320
  352SOL    HW2 1056   2.049   1.429   0.599  0.5948  2.6901  2.3078
  353SOL     OW 1057   2.141   2.807   1.194  0.3269  0.1898 -0.0680
  353SOL    HW1 1058   2.233   2.766   1.155 -0.9479 -0.7243  0.2230
  353SOL    HW2 1059   2.062   2.757   1.152  0.9610  0.8647  1.8489
  354SOL     OW 1060   0.299   1.367   2.924  0.1951 -0.2092 -0.4118
  354SOL    HW1 1061   0.241   1.438   2.875  4.1150  0.0934  1.1002
  354SOL    HW2 1062   0.399   1.365   2.892  0.8876 -1.5791  2.8852
  355SOL     OW 1063   0.455   1.492   0.513 -0.2727 -0.1770  0.9674
  355SOL    HW1 1064   0.514   1.577   0.518  0.1248  0.6955  0.2182
  355SOL    HW2 1065   0.500   1.403   0.533  0.1307 -0.9674 -0.6128
  356SOL     OW 1066   0.795   0.399   2.073  0.5746  0.2731 -0.0446
  356SOL    HW1 1067   0.888   0.381   2.122  1.2130 -0.4688  1.1604
  356SOL    HW2 1068   0.778   0.324   2.001  1.8133 -1.1190 -1.8161
  357SOL     OW 1069   1.065   1.319   0.177  0.0783 -0.0857 -0.0231
  357SOL    HW1 1070   1.078   1.274   0.083 -1.5879 -1.7997  0.0096
  357SOL    HW2 1071   1.045   1.260   0.259  1.6361 -0.3367 -0.9063
  358SOL     OW 1072   1.610   1.646   0.276  0.1318  0.2207  0.3836
  358SOL    HW1 1073   1.625   1.555   0.321  0.1544  0.4318 -1.5814
  358SOL    HW2 1074   1.546   1.699   0.332 -0.1955 -0.5262  0.7146
  359SOL     OW 1075   1.569   2.712   0.124 -0.0163  0.0764  0.2804
  359SOL    HW1 1076   1.589   2.654   0.036  0.9352 -0.3391 -2.3970
  359SOL    HW2 1077   1.478   2.696   0.166 -1.3207 -0.6226 -0.1867
  360SOL     OW 1078   0.858   0.580   0.452  1.1182  0.1613  0.0955
  360SOL    HW1 1079   0.787   0.594   0.534 -1.8367  1.3101  2.9882
  360SOL    HW2 1080   0.889   0.482   0.436  0.1462  0.0306  2.0862
  361SOL     OW 1081   1.283   1.369   0.634  0.3063  0.0061  0.3248
  361SOL    HW1 1082   1.320   1.392   0.729  1.2207  0.2304 -1.0069
  361SOL    HW2 1083   1.182   1.393   0.635 -0.5171 -0.9465 -1.4309
  362SOL     OW 1084   1.384   1.734   0.786  0.0825 -0.1846 -0.1799
  362SOL    HW1 1085   1.427   1.674   0.859  0.2651  2.5393 -1.8172
  362SOL    HW2 1086   1.425   1.827   0.774 -1.0157 -1.4819 -1.0365
  363SOL     OW 1087   1.122   1.289   2.041  0.1209  0.6977 -0.6252
  363SOL    HW1 1088   1.133   1.375   2.096 -0.4074  0.3302 -0.5622
  363SOL    HW2 1089   1.153   1.305   1.945  0.4506  1.6580  0.9169
  364SOL     OW 1090   0.578   2.366   2.000  0.0317 -0.8535  0.5253
  364SOL    HW1 1091   0.474   2.361   2.009 -0.9032 -0.1584  1.9607
  364SOL    HW2 1092   0.616   2.403   1.910  2.9543  1.4244  0.4654
  365SOL     OW 1093   1.143   1.764   1.443 -0.0426  0.0915 -0.0736
  365SOL    HW1 1094   1.059   1.806   1.492  1.5571  1.1678  0.0207
  365SOL    HW2 1095   1.143   1.663   1.459 -0.9273  2.8705  0.8221
  366SOL     OW 1096   2.828   2.069   0.484 -0.0688 -0.1775 -0.0698
  366SOL    HW1 1097   2.763   1.996   0.519 -1.0521  0.0567 -0.6284
  366SOL    HW2 1098   2.919   2.021   0.454  0.6593 -2.2107 -3.6838
  367SOL     OW 1099   0.830   1.169   0.074  0.0707 -0.2572 -0.1725
  367SOL    HW1 1100   0.885   1.093   0.115 -2.5910  0.8739 -3.5866
  367SOL    HW2 1101   0.845   1.189  -0.024 -0.8320 -0.0295  1.9533
  368SOL     OW 1102   1.502   0.492   0.602  0.2984 -0.4384  0.2350
  368SOL    HW1 1103   1.459   0.547   0.528  0.7272  0.1357  0.2245
  368SOL    HW2 1104   1.602   0.488   0.591 -1.3376 -0.8206  2.7516
  369SOL     OW 1105   0.284   1.669   0.112  0.6402  0.0044 -0.4643
  369SOL    HW1 1106   0.280   1.767   0.128 -1.2780 -3.3222 -1.6722
  369SOL    HW2 1107   0.207   1.621   0.164 -0.5626  2.9251 -2.0002
  370SOL     OW 1108   0.460   2.119   0.981  0.0839  0.0303  0.1101
  370SOL    HW1 1109   0.480   2.221   0.980 -0.2558 -0.9199 -0.1365
  370SOL    HW2 1110   0.368   2.088   0.941  0.1620 -0.7787  0.1796
  371SOL     OW 1111   2.973   2.178   2.789 -0.2871  0.4890  0.0792
  371SOL    HW1 1112   2.969   2.206   2.886 -0.0686 -1.9995  0.2209
  371SOL    HW2 1113   3.045   2.237   2.732  0.5823  3.8094 -1.9447
  372SOL     OW 1114   0.867   1.915   1.010  0.2145 -0.7906  0.0671
  372SOL    HW1 1115   0.845   1.979   1.089 -1.3683  0.8073 -0.7072
  372SOL    HW2 1116   0.939   1.952   0.947 -0.4650  1.3258  2.0033
  373SOL     OW 1117   1.931   1.932   0.923  0.0238  0.5176  0.2784
  373SOL    HW1 1118   1.987   1.986   0.993 -0.8841 -0.4956  3.1064
  373SOL    HW2 1119   1.833   1.970   0.914  0.3844 -0.2020  4.0912
  374SOL     OW 1120   1.817   0.449   0.580  0.3617  0.1791  0.3766
  374SOL    HW1 1121   1.839   0.404   0.673 -0.7833 -0.0465 -2.9858
  374SOL    HW2 1122   1.892   0.451   0.506  1.8120  2.5139 -1.0016
  375SOL     OW 1123   2.470   2.316   1.135  0.3663 -0.5980 -0.6574
  375SOL    HW1 1124   2.489   2.272   1.043 -0.6561  0.2011 -1.9758
  375SOL    HW2 1125   2.487   2.247   1.216  0.6421  1.3505  0.2074
  376SOL     OW 1126   3.046   0.655   1.472  0.7544 -0.1155 -0.2998
  376SOL    HW1 1127   3.092   0.723   1.530 -0.4345 -0.0481 -1.9964
  376SOL    HW2 1128   2.943   0.678   1.464  1.2772 -2.0370  0.4106
  377SOL     OW 1129   2.172   2.800   0.323  0.4680 -0.0604  0.0704
  377SOL    HW1 1130   2.127   2.889   0.358  0.2577 -2.3228 -0.3333
  377SOL    HW2 1131   2.265   2.819   0.289 -1.0554  2.5011  0.0497
  378SOL     OW 1132   1.875   1.825   2.677 -0.0052  0.3638 -0.1811
  378SOL    HW1 1133   1.933   1.737   2.681 -1.6112 -0.0748  1.0061
  378SOL    HW2 1134   1.775   1.804   2.671  2.1234 -1.0778 -2.2697
  379SOL     OW 1135   0.878   0.108   2.689 -0.0646  0.4202  0.7019
  379SOL    HW1 1136   0.881   0.002   2.675  2.5096  0.2362  0.8925
  379SOL    HW2 1137   0.803   0.153   2.634 -0.9854  0.4281  0.6097
  380SOL     OW 1138   1.584   1.130   0.525 -0.2687  0.3848  0.3058
  380SOL    HW1 1139   1.512   1.057   0.532  0.2933  0.1673  3.1347
  380SOL    HW2 1140   1.583   1.192   0.609 -1.2041 -1.5032  0.2692
  381SOL     OW 1141   1.300   1.268   1.507 -0.2862 -0.2309 -0.1192
  381SOL    HW1 1142   1.330   1.340   1.437  1.6506 -1.0697  2.7650
  381SOL    HW2 1143   1.371   1.257   1.581 -1.6695 -0.8722  0.0528
  382SOL     OW 1144   1.726   0.795   0.255  0.2317 -0.2508  0.3879
  382SOL    HW1 1145   1.743   0.804   0.155 -0.4256 -0.3755 -0.7087
  382SOL    HW2 1146   1.793   0.728   0.302 -2.9533 -0.7293  1.7171
  383SOL     OW 1147   2.651   1.006   1.529  0.4390 -0.1644  0.5161
  383SOL    HW1 1148   2.570   0.949   1.517  1.3537  0.8096 -1.9665
  383SOL    HW2 1149   2.736   0.978   1.466 -2.1405  1.6562 -1.2395
  384SOL     OW 1150   1.015   2.303   0.123 -0.3635  0.2354 -0.0084
  384SOL    HW1 1151   0.919   2.344   0.122  1.4855 -0.9370 -0.5104
  384SOL    HW2 1152   1.038   2.259   0.212 -0.8836 -1.2039  2.8527
  385SOL     OW 1153   2.977   2.054   1.686  0.0952  0.1605  0.2182
  385SOL    HW1 1154   3.057   2.123   1.674  3.6613 -0.6619 -0.6402
  385SOL    HW2 1155   3.012   1.963   1.678 -0.0952  0.7852 -0.6175
  386SOL     OW 1156   0.419   1.050   0.443  0.5062 -0.5901  0.5366
  386SOL    HW1 1157   0.416   0.945   0.447 -0.0624 -2.1872  1.0047
  386SOL    HW2 1158   0.375   1.089   0.360 -0.4769  2.6532 -0.5545
  387SOL     OW 1159   1.018   0.359   1.698 -0.4962  0.0078 -0.1165
  387SOL    HW1 1160   1.066   0.451   1.690  2.0544  1.8377 -2.0819
  387SOL    HW2 1161   1.002   0.312   1.606  1.5336  0.4435  2.4057
  388SOL     OW 1162   1.266   2.558   1.757  0.5625  0.1528 -0.3183
  388SOL    HW1 1163   1.281   2.555   1.656 -0.1427 -0.1057 -1.1347
  388SOL    HW2 1164   1.333   2.503   1.817 -3.0947 -2.4469 -0.3771
  389SOL     OW 1165   0.236   3.105   1.134  0.0794  0.0277  0.2265
  389SOL    HW1 1166   0.212   3.068   1.227  0.3900 -1.3603  1.2892
  389SOL    HW2 1167   0.261   3.025   1.068  0.0467 -0.3088 -2.8333
  390SOL     OW 1168   1.071   0.858   1.168  0.0705 -0.0880 -0.4923
  390SOL    HW1 1169   1.161   0.813   1.168 -1.0049 -0.7721 -0.7941
  390SOL    HW2 1170   1.045   0.876   1.270  1.2195  1.0303 -0.8245
  391SOL     OW 1171   2.076   1.136   1.093 -0.2782  0.3886 -0.4007
  391SOL    HW1 1172   2.072   1.036   1.131 -0.1387  0.6408  0.5498
  391SOL    HW2 1173   2.113   1.135   0.993 -1.0636 -2.0997 -3.1174
  392SOL     OW 1174   0.919   2.712   3.080 -0.3784 -0.3094  0.6003
  392SOL    HW1 1175   0.832   2.704   3.133  0.2900  0.5817  1.0708
  392SOL    HW2 1176   0.993   2.773   3.116 -0.6656 -0.5851 -1.1719
  393SOL     OW 1177   0.361   0.588   1.994  0.0930 -0.3263 -0.0693
  393SOL    HW1 1178   0.274   0.537   1.966  0.2147 -0.7538  1.1555
  393SOL    HW2 1179   0.448   0.551   1.950 -0.8684  1.5430 -2.1193
  394SOL     OW 1180   2.821   1.816   2.746  0.2972 -0.5454 -0.0806
  394SOL    HW1 1181   2.866   1.832   2.651  0.8234 -2.6649 -1.2173
  394SOL    HW2 1182   2.759   1.896   2.780 -3.1952  0.8162  2.6254
  395SOL     OW 1183   1.550   1.953   0.710  0.4329 -0.1614 -0.0572
  395SOL    HW1 1184   1.617   1.878   0.683  2.5524  4.3334  1.5237
  395SOL    HW2 1185   1.597   2.014   0.781 -2.9546 -1.5823 -2.2094
  396SOL     OW 1186   2.732   1.956   1.325 -0.0620  0.1346  0.1370
  396SOL    HW1 1187   2.759   2.027   1.394  0.9738 -1.1575  0.8565
  396SOL    HW2 1188   2.628   1.937   1.323 -2.0213  3.5972 -2.1747
  397SOL     OW 1189   0.958   2.157   0.635  0.4448 -0.1185  0.2222
  397SOL    HW1 1190   0.879   2.101   0.603  2.9867  2.0561  1.0569
  397SOL    HW2 1191   0.928   2.243   0.687 -0.4487 -0.7233 -1.5892
  398SOL     OW 1192   2.228   3.075   1.116  0.0137  0.1098 -0.8042
  398SOL    HW1 1193   2.171   2.989   1.145 -1.2322 -0.2353  1.2087
  398SOL    HW2 1194   2.170   3.157   1.105  1.5606 -2.1095 -1.8732
  399SOL     OW 1195   2.890   2.589   2.774  0.0836 -0.1538 -0.6469
  399SOL    HW1 1196   2.847   2.573   2.675 -0.8775 -3.4981 -0.8105
  399SOL    HW2 1197   2.840   2.534   2.850 -1.7730  0.2442  0.2679
  400SOL     OW 1198   0.809   1.565   1.302 -0.3347 -0.1627 -0.0931
  400SOL    HW1 1199   0.770   1.605   1.389 -2.8020  0.1519 -0.9963
  400SOL    HW2 1200   0.768   1.610   1.215 -1.6948  1.2680  0.3566
  401SOL     OW 1201   1.862   0.153   1.277 -0.3021 -0.2067  0.2683
  401SOL    HW1 1202   1.915   0.185   1.362 -3.1752  0.1532 -0.3242
  401SOL    HW2 1203   1.765   0.184   1.278  1.4925  0.9046 -1.4437
  402SOL     OW 1204   1.364   0.136   3.018 -0.9018 -0.1502  0.0253
  402SOL    HW1 1205   1.447   0.174   2.977  1.1519  0.3752 -2.4805
  402SOL    HW2 1206   1.354   0.192   3.104 -1.4494  0.1924 -0.1390
  403SOL     OW 1207   2.264   1.860   0.953 -0.1510  0.0463 -0.0488
  403SOL    HW1 1208   2.353   1.859   1.004 -1.7672 -1.5471  0.9101
  403SOL    HW2 1209   2.207   1.947   0.973  1.1365  1.5462  2.1748
  404SOL     OW 1210   0.221   2.481   2.769  0.4847 -0.4006  0.2803
  404SOL    HW1 1211   0.316   2.460   2.734 -0.9128  0.2985 -3.8825
  404SOL    HW2 1212   0.212   2.584   2.788  1.6821 -1.1280 -0.4663
  405SOL     OW 1213   0.186   2.523   0.561  0.2922 -0.8165  0.3787
  405SOL    HW1 1214   0.191   2.427   0.602 -2.3292  0.2871 -0.9284
  405SOL    HW2 1215   0.261   2.583   0.594  0.8198 -2.9465  0.3104
  406SOL     OW 1216   0.038   1.641   3.022 -0.0111 -0.0076  0.0006
  406SOL    HW1 1217   0.091   1.595   2.939 -1.7991  1.5018 -2.4097
  406SOL    HW2 1218   0.046   1.589   3.110 -1.8257 -2.2236  0.8499
  407SOL     OW 1219   1.553   0.926   0.940  0.5881  0.7780  0.7828
  407SOL    HW1 1220   1.589   0.908   0.844 -1.6058 -2.0288  0.7701
  407SOL    HW2 1221   1.458   0.961   0.944  0.8040 -0.6129 -1.0590
  408SOL     OW 1222   1.468   2.320   0.911  0.0084 -0.0155  0.0900
  408SOL    HW1 1223   1.556   2.321   0.855 -0.4798  0.5195 -1.8942
  408SOL    HW2 1224   1.469   2.396   0.980 -0.5534  0.3969  1.3143
  409SOL     OW 1225   0.612   0.852   0.687  0.1378  0.0366 -0.2947
  409SOL    HW1 1226   0.533   0.883   0.629 -0.4907 -1.2065  3.6936
  409SOL    HW2 1227   0.622   0.750   0.688  1.2440  3.8621  0.4206
  410SOL     OW 1228   1.352   1.938   1.476  0.2169  1.1257  0.0981
  410SOL    HW1 1229   1.326   2.041   1.493  0.2489 -1.7028  3.2541
  410SOL    HW2 1230   1.272   1.874   1.461  2.2744  2.0769  2.8014
  411SOL     OW 1231   2.374   1.858   0.063  0.2025 -0.2233  0.0188
  411SOL    HW1 1232   2.287   1.871   0.015 -0.4386 -0.8662 -1.7550
  411SOL    HW2 1233   2.454   1.895   0.009  0.0050  0.2176  2.5754
  412SOL     OW 1234   1.621   2.445   2.258 -0.4364  0.3498  0.4690
  412SOL    HW1 1235   1.639   2.543   2.279  0.7230 -2.6172  1.2055
  412SOL    HW2 1236   1.537   2.404   2.299  2.4577 -2.1503 -0.4995
  413SOL     OW 1237   3.073   0.259   2.885 -0.0128  0.6496 -0.4335
  413SOL    HW1 1238   3.006   0.212   2.949 -0.6312  2.6800 -2.2540
  413SOL    HW2 1239   3.175   0.257   2.917 -1.1760  2.5765 -1.3797
  414SOL     OW 1240   1.710   1.362   1.380 -0.1496 -0.1757 -0.3204
  414SOL    HW1 1241   1.608   1.382   1.411  0.6174  0.4182 -1.4495
  414SOL    HW2 1242   1.719   1.377   1.281  1.9102  0.4615 -2.5733
  415SOL     OW 1243   0.213   2.276   0.665  0.2741  0.4839 -0.1355
  415SOL    HW1 1244   0.216   2.193   0.732  1.4937 -2.5020  0.8444
  415SOL    HW2 1245   0.122   2.278   0.612 -3.6081  4.7636 -1.5992
  416SOL     OW 1246   0.318   1.076   1.081  0.2413 -0.1679 -0.3942
  416SOL    HW1 1247   0.302   1.045   0.983  2.4345 -1.5186 -2.3803
  416SOL    HW2 1248   0.406   1.123   1.100 -1.8840 -2.2566  0.7481
  417SOL     OW 1249   2.203   2.337   1.863 -0.3410  0.1967  0.5241
  417SOL    HW1 1250   2.265   2.257   1.885 -2.0388  0.1219  1.3606
  417SOL    HW2 1251   2.105   2.332   1.904  2.0019  1.7502  0.2344
  418SOL     OW 1252   1.138   0.557   1.347 -0.3725 -0.5330 -0.0384
  418SOL    HW1 1253   1.067   0.490   1.314  1.3424  4.1750  0.6277
  418SOL    HW2 1254   1.227   0.538   1.310 -2.9632 -1.1280  1.1883
  419SOL     OW 1255   0.958   0.389   2.990  0.0123 -0.1536  0.0020
  419SOL    HW1 1256   0.990   0.435   2.902 -0.6264  2.5987  1.1018
  419SOL    HW2 1257   0.916   0.296   2.971  1.5654 -0.2638 -0.9138
  420SOL     OW 1258   0.193   2.234   0.345 -0.1138  0.7507  1.2752
  420SOL    HW1 1259   0.152   2.234   0.244 -2.4277 -0.7773 -1.6414
  420SOL    HW2 1260   0.125   2.232   0.421 -4.0971  0.2363 -1.4895
  421SOL     OW 1261   0.312   0.064   0.710  0.9120  0.6533 -0.0326
  421SOL    HW1 1262   0.355   0.002   0.639 -0.2034 -0.2663  3.7306
  421SOL    HW2 1263   0.375   0.130   0.757  1.3230 -0.4044 -1.1635
  422SOL     OW 1264   0.920   2.528   1.025  0.2587 -0.1357  0.4731
  422SOL    HW1 1265   0.960   2.610   0.977 -2.7457 -2.9821 -0.0254
  422SOL    HW2 1266   0.934   2.544   1.130  0.2195  2.3931 -1.4426
  423SOL     OW 1267   0.057   0.682   1.219  0.0182  0.8565  0.1578
  423SOL    HW1 1268   0.083   0.686   1.321  0.8390 -1.5108 -2.2767
  423SOL    HW2 1269  -0.029   0.627   1.207  1.3453 -0.6925  0.2214
  424SOL     OW 1270   1.001   2.156   2.217 -0.4738 -0.3529  0.1911
  424SOL    HW1 1271   0.962   2.220   2.146 -2.0119 -1.5810 -1.2943
  424SOL    HW2 1272   0.930   2.133   2.292 -0.5057  0.0383  0.8501
  425SOL     OW 1273   2.065   1.402   1.129 -0.4217 -0.3279 -0.2587
  425SOL    HW1 1274   2.091   1.305   1.112  1.1503 -1.9705  2.4508
  425SOL    HW2 1275   2.086   1.466   1.050  0.3014  0.5716  2.5343
  426SOL     OW 1276   1.471   1.541   1.432  0.6089 -0.3471 -0.2363
  426SOL    HW1 1277   1.457   1.624   1.370  0.9245  1.3002 -2.2981
  426SOL    HW2 1278   1.481   1.569   1.533  0.7202 -0.7139 -0.1309
  427SOL     OW 1279   1.990   2.329   2.018  0.0148 -0.3041  0.3646
  427SOL    HW1 1280   2.007   2.265   2.092 -2.6268  2.2328 -2.9857
  427SOL    HW2 1281   1.991   2.429   2.042 -0.6815 -0.8743 -0.4310
  428SOL     OW 1282   0.916   0.016   0.053 -0.1336 -0.4372 -0.3072
  428SOL    HW1 1283   0.956   0.093   0.115  0.6588  1.4166  1.1113
  428SOL    HW2 1284   0.974  -0.072   0.046 -0.3199  0.0734 -1.4519
  429SOL     OW 1285   1.242   0.069   0.227 -0.0202  0.1461 -0.2580
  429SOL    HW1 1286   1.342   0.109   0.213  1.7520 -2.2088  0.8348
  429SOL    HW2 1287   1.210  -0.009   0.166  0.8330 -3.6434 -0.2572
  430SOL     OW 1288   2.781   1.475   0.298 -0.3836  0.5728  0.4200
  430SOL    HW1 1289   2.729   1.535   0.231  2.8143 -0.4717  3.2759
  430SOL    HW2 1290   2.817   1.526   0.378 -0.3281  0.2006 -0.2255
  431SOL     OW 1291   2.112   1.607   0.928 -0.8916  0.6931  0.0165
  431SOL    HW1 1292   2.180   1.686   0.926  0.7340  0.9741  1.6232
  431SOL    HW2 1293   2.026   1.630   0.876  0.9547 -1.6295 -1.7232
  432SOL     OW 1294   2.935   2.177   1.267 -0.3186  0.4263 -0.2017
  432SOL    HW1 1295   2.853   2.115   1.276 -1.2032  1.6113 -0.7277
  432SOL    HW2 1296   2.915   2.262   1.320  1.8281  2.3957 -0.6192
  433SOL     OW 1297   1.857   0.301   0.829  0.0388 -1.1092 -0.0279
  433SOL    HW1 1298   1.760   0.275   0.854  3.0218 -1.3122  0.8029
  433SOL    HW2 1299   1.910   0.353   0.896 -0.6901 -1.8567 -0.1382
  434SOL     OW 1300   1.471   0.222   0.727  0.2197  0.2521 -0.2668
  434SOL    HW1 1301   1.469   0.314   0.671  0.4405  0.1978  0.4514
  434SOL    HW2 1302   1.512   0.238   0.819 -0.0717  0.1697 -0.5951
  435SOL     OW 1303   1.435   1.397   2.070 -0.4641  0.5882 -0.3835
  435SOL    HW1 1304   1.388   1.389   2.160 -0.2993 -0.0700  0.3046
  435SOL    HW2 1305   1.394   1.472   2.015  1.1709  1.5723  0.7655
  436SOL     OW 1306   1.673   2.685   2.451  0.0133 -0.3714  0.0910
  436SOL    HW1 1307   1.646   2.787   2.459 -1.4749 -0.1992 -3.0790
  436SOL    HW2 1308   1.602   2.611   2.482  0.0468  0.0905 -1.4444
  437SOL     OW 1309   1.022   3.015   0.870 -0.4336 -0.5819 -0.1214
  437SOL    HW1 1310   0.946   3.081   0.853 -1.6463  0.3279  1.3970
  437SOL    HW2 1311   1.070   3.020   0.963 -0.6932 -1.1570  1.0654
  438SOL     OW 1312   0.998   2.563   1.279  0.0463 -0.5193  0.8413
  438SOL    HW1 1313   1.086   2.608   1.313  0.0924 -2.2165  2.3790
  438SOL    HW2 1314   0.989   2.467   1.315  2.6258  0.7764  0.3602
  439SOL     OW 1315   0.710   1.686   1.060 -0.6362  0.2207 -0.1182
  439SOL    HW1 1316   0.774   1.766   1.045  1.2625 -1.8357  0.5496
  439SOL    HW2 1317   0.620   1.713   1.109  0.1714  0.7480  0.1273
  440SOL     OW 1318   0.953   2.327   1.989  0.4378 -0.0771 -0.6286
  440SOL    HW1 1319   0.970   2.418   1.943  0.4364  0.5785  1.8343
  440SOL    HW2 1320   1.016   2.251   1.951  0.5711  0.3977 -3.5389
  441SOL     OW 1321   0.365   2.820   1.320  0.3615  0.6739  0.2339
  441SOL    HW1 1322   0.400   2.720   1.320 -0.2055  1.9089 -0.9837
  441SOL    HW2 1323   0.365   2.864   1.225 -3.5490  0.9642 -1.0594
  442SOL     OW 1324   2.224   0.682   2.569  0.1279  0.0335  0.2467
  442SOL    HW1 1325   2.231   0.591   2.520 -0.8150  0.4895 -1.4196
  442SOL    HW2 1326   2.150   0.744   2.527  2.0104 -0.2805 -1.9507
  443SOL     OW 1327   1.323   2.490   2.240 -0.4055  0.1068 -0.4519
  443SOL    HW1 1328   1.274   2.405   2.274  0.1642  1.9151  0.8798
  443SOL    HW2 1329   1.266   2.571   2.268  1.4732 -0.9871  1.2458
  444SOL     OW 1330   0.950   1.161   1.434  0.3848  1.0824  0.3246
  444SOL    HW1 1331   1.044   1.115   1.432 -2.8221 -0.8680 -0.2134
  444SOL    HW2 1332   0.949   1.267   1.437  0.5613  1.7744 -0.8922
  445SOL     OW 1333   0.154   2.113   2.029 -0.3906  0.5859  0.5376
  445SOL    HW1 1334   0.179   2.011   2.028  1.4191 -0.7926 -1.8313
  445SOL    HW2 1335   0.091   2.140   2.102  1.0200  0.7061  1.0072
  446SOL     OW 1336   0.126   2.003   2.388 -0.4266  0.0782  0.5473
  446SOL    HW1 1337   0.079   2.095   2.355  0.0640  2.4256 -1.2351
  446SOL    HW2 1338   0.121   1.930   2.313  0.8307 -1.8621 -0.3395
  447SOL     OW 1339   1.305   1.611   1.915 -0.9811  0.5893  0.4510
  447SOL    HW1 1340   1.238   1.672   1.865  0.2091  1.3304 -1.4860
  447SOL    HW2 1341   1.384   1.668   1.957 -0.9318 -0.0694  4.1048
  448SOL     OW 1342   0.154   1.472   2.017  0.2987  0.0880 -0.4274
  448SOL    HW1 1343   0.182   1.564   1.987  0.0218 -0.7425 -1.6239
  448SOL    HW2 1344   0.085   1.479   2.097  2.8667  0.7043  1.1713
  449SOL     OW 1345   1.874   3.036   0.835  0.3612  0.0670  0.1026
  449SOL    HW1 1346   1.850   3.039   0.941  0.3871  0.3246 -3.0634
  449SOL    HW2 1347   1.918   2.950   0.800 -0.3965  0.9266 -0.1201
  450SOL     OW 1348   2.176   1.511   0.681  0.8601  0.3521 -0.0895
  450SOL    HW1 1349   2.155   1.540   0.781  3.1925 -2.4040  0.0423
  450SOL    HW2 1350   2.244   1.574   0.634 -1.5509 -0.5894  1.6698
  451SOL     OW 1351   1.396   2.983   1.474 -0.3158 -0.1037 -0.1174
  451SOL    HW1 1352   1.330   3.065   1.494 -0.8834 -0.2559 -2.4607
  451SOL    HW2 1353   1.423   2.937   1.562  1.4351  0.9597 -2.9966
  452SOL     OW 1354   2.669   2.315   2.273  0.1719 -0.2647  0.5431
  452SOL    HW1 1355   2.594   2.390   2.257 -2.7786  0.2444  0.5470
  452SOL    HW2 1356   2.681   2.285   2.372  0.0650  0.0860  1.3655
  453SOL     OW 1357   2.493   2.683   0.009  0.2229  0.0007  0.0684
  453SOL    HW1 1358   2.400   2.707   0.040 -2.4924 -0.9540 -2.3306
  453SOL    HW2 1359   2.486   2.596  -0.044  0.0700  0.7610 -1.6426
  454SOL     OW 1360   0.883   1.158   2.025 -0.0349 -0.1608  0.1165
  454SOL    HW1 1361   0.850   1.156   1.926  1.5666 -0.1649  0.0503
  454SOL    HW2 1362   0.981   1.191   2.040  2.2847 -2.1796  2.9795
  455SOL     OW 1363   0.782   2.604   2.795 -0.4616 -0.2318  0.4285
  455SOL    HW1 1364   0.862   2.669   2.821 -0.5698  3.2710  0.0141
  455SOL    HW2 1365   0.761   2.520   2.861 -1.1421 -0.0089  1.7380
  456SOL     OW 1366   0.305   1.929   0.205  0.3533  0.2419  0.3233
  456SOL    HW1 1367   0.402   1.961   0.221 -0.8655 -1.1704  3.1340
  456SOL    HW2 1368   0.241   2.005   0.175 -1.2824 -1.0861  0.8331
  457SOL     OW 1369   0.410   2.680   0.640 -0.2648 -0.7356  0.1893
  457SOL    HW1 1370   0.445   2.708   0.545 -0.4389 -2.4703  0.4873
  457SOL    HW2 1371   0.482   2.649   0.707  1.7920  0.5272 -0.1636
  458SOL     OW 1372   2.958   0.010   1.286 -0.8487 -0.0068 -0.0456
  458SOL    HW1 1373   2.981   0.106   1.253  1.1708  0.6476  0.5408
  458SOL    HW2 1374   2.961  -0.059   1.204 -2.0945 -0.1796  0.1205
  459SOL     OW 1375   2.109   2.521   0.737 -0.2510 -0.4283 -0.4155
  459SOL    HW1 1376   2.180   2.537   0.816 -1.4571  3.1738 -1.7357
  459SOL    HW2 1377   2.131   2.561   0.646 -1.8933 -3.5509  1.9180
  460SOL     OW 1378   1.223   2.079   2.796  0.2158 -0.0736 -0.3269
  460SOL    HW1 1379   1.199   2.100   2.700 -3.1432 -1.0073  1.2260
  460SOL    HW2 1380   1.256   1.980   2.806  0.1570 -0.7601 -1.6385
  461SOL     OW 1381   0.473   2.114   2.749  0.2717  0.1325  1.0387
  461SOL    HW1 1382   0.373   2.096   2.748  0.8693 -0.8456 -1.4648
  461SOL    HW2 1383   0.531   2.063   2.820 -0.4674  2.6096  0.5063
  462SOL     OW 1384   0.972   1.029   1.723 -0.3562 -0.4237 -0.2046
  462SOL    HW1 1385   0.953   0.956   1.651  0.3910  1.2125 -0.2451
  462SOL    HW2 1386   0.912   1.112   1.717  1.7800 -1.6074  0.2189
  463SOL     OW 1387   0.426   0.774   0.496  0.1379 -0.1664 -0.4746
  463SOL    HW1 1388   0.454   0.690   0.442  0.9166 -1.0411 -1.8935
  463SOL    HW2 1389   0.323   0.792   0.507  0.1337  0.6425 -0.7324
  464SOL     OW 1390   0.534   2.337   2.285 -0.3163 -0.1482 -0.2119
  464SOL    HW1 1391   0.478   2.412   2.336  2.0748  2.3958 -1.5681
  464SOL    HW2 1392   0.556   2.359   2.184  0.4946 -0.7757 -0.3243
  465SOL     OW 1393   0.240   0.982   0.815 -0.0042  1.0535  0.2413
  465SOL    HW1 1394   0.152   0.996   0.762  0.6308 -1.0319 -1.5989
  465SOL    HW2 1395   0.275   0.888   0.790  2.3228 -0.2884 -0.9018
  466SOL     OW 1396   1.350   1.151   0.850 -0.4902  0.1002  0.2586
  466SOL    HW1 1397   1.377   1.248   0.873 -0.3875  0.2277  0.9461
  466SOL    HW2 1398   1.270   1.120   0.907 -0.3280  1.5295 -0.5333
  467SOL     OW 1399   0.621   0.451   2.560  0.4392  0.2727  0.4924
  467SOL    HW1 1400   0.560   0.532   2.589 -1.0832 -1.2319  1.8878
  467SOL    HW2 1401   0.601   0.374   2.625  4.1839  1.3597 -1.5402
  468SOL     OW 1402   0.479   2.266   1.599 -0.1157 -0.2152 -0.1958
  468SOL    HW1 1403   0.564   2.318   1.633 -1.5183  2.4120 -0.8745
  468SOL    HW2 1404   0.481   2.252   1.495  1.1225  0.3471  0.1737
  469SOL     OW 1405   1.426   1.340   1.224 -0.4043 -0.3060  0.6584
  469SOL    HW1 1406   1.499   1.312   1.155 -1.1645 -1.4673 -0.9486
  469SOL    HW2 1407   1.455   1.424   1.277 -0.4469 -2.7091  1.8404
  470SOL     OW 1408   2.977   1.847   0.796  0.2060  0.1986 -0.0907
  470SOL    HW1 1409   3.063   1.894   0.767  2.4491 -2.8071  0.0238
  470SOL    HW2 1410   2.958   1.852   0.897  1.0130  0.4532 -1.5634
  471SOL     OW 1411   2.688   1.394   2.178 -0.0728  0.3094  0.1792
  471SOL    HW1 1412   2.675   1.293   2.197  0.3058  0.1778  1.3118
  471SOL    HW2 1413   2.768   1.441   2.217  1.3987 -0.8622 -2.3458
  472SOL     OW 1414   1.294   2.393   0.063 -0.0428  0.2580 -0.2154
  472SOL    HW1 1415   1.380   2.347   0.102  1.5841  0.0499  1.0597
  472SOL    HW2 1416   1.204   2.366   0.105 -0.0625 -2.5079 -0.4424
  473SOL     OW 1417   1.075   1.492   0.962  0.2167 -0.0780  0.3385
  473SOL    HW1 1418   0.977   1.519   0.939  1.0800 -0.7468 -1.4485
  473SOL    HW2 1419   1.080   1.416   1.033 -0.2369 -0.0367  1.1794
  474SOL     OW 1420   0.634   1.273   0.439 -0.0059  0.1211  0.6279
  474SOL    HW1 1421   0.587   1.259   0.349  0.3784 -0.0291 -0.4533
  474SOL    HW2 1422   0.679   1.186   0.481  1.2012  1.1092 -3.7605
  475SOL     OW 1423   2.891   0.025   0.859  0.0150  0.6265 -0.5183
  475SOL    HW1 1424   2.952   0.107   0.866 -0.7114  0.3207 -1.7839
  475SOL    HW2 1425   2.805   0.046   0.912  0.1760  0.2819 -2.6384
  476SOL     OW 1426   0.979   3.059   1.814  0.4221 -0.3969 -0.4724
  476SOL    HW1 1427   1.081   3.082   1.832  0.1332 -3.1602 -0.6616
  476SOL    HW2 1428   0.949   3.058   1.712 -2.4611  2.7821  1.7108
  477SOL     OW 1429   1.458   0.315   2.451 -0.5430  0.2604 -0.3478
  477SOL    HW1 1430   1.460   0.340   2.550 -0.6714  2.2669 -1.7104
  477SOL    HW2 1431   1.535   0.252   2.431  0.2029  0.8292  3.7043
  478SOL     OW 1432   2.260   1.946   0.344  0.1876  0.0542 -0.7121
  478SOL    HW1 1433   2.203   1.863   0.355 -1.6895  1.6490 -0.9292
  478SOL    HW2 1434   2.346   1.928   0.282  0.7930  0.2963  0.2259
  479SOL     OW 1435   1.283   1.015   2.878 -0.3374 -0.5230 -0.1171
  479SOL    HW1 1436   1.377   1.048   2.859  1.5589  0.8220 -1.6752
  479SOL    HW2 1437   1.244   0.949   2.807 -0.3737 -0.8123 -2.2734
  480SOL     OW 1438   2.640   2.267   0.432  0.3273  0.8059 -0.1471
  480SOL    HW1 1439   2.719   2.203   0.461 -0.5093 -2.3709  0.5560
  480SOL    HW2 1440   2.551   2.238   0.471 -0.1069 -0.5985 -0.0234
  481SOL     OW 1441   0.954   1.113   0.745  0.5798  0.4903  0.6551
  481SOL    HW1 1442   0.981   1.192   0.693 -1.8801 -2.0886  2.2421
  481SOL    HW2 1443   0.979   1.119   0.847 -0.9624  1.2866 -0.4735
  482SOL     OW 1444   1.564   0.285   2.029 -0.0502  0.2910  0.4525
  482SOL    HW1 1445   1.588   0.386   2.027  0.8120 -1.6222 -0.4593
  482SOL    HW2 1446   1.642   0.217   2.045 -1.1951 -1.5573  0.2955
  483SOL     OW 1447   0.172   2.372   1.205 -0.1748  0.1176  0.4950
  483SOL    HW1 1448   0.152   2.448   1.267  2.0672 -1.5261  2.2805
  483SOL    HW2 1449   0.179   2.412   1.107  1.3258  1.3008  2.8606
  484SOL     OW 1450   1.733   1.040   1.454  0.0812  0.0222  0.4073
  484SOL    HW1 1451   1.831   1.001   1.438 -0.6435  0.3731  0.2426
  484SOL    HW2 1452   1.722   1.143   1.450 -2.1870 -1.4174  0.0033
  485SOL     OW 1453   0.781   0.751   1.932 -0.1807  0.4379  0.4089
  485SOL    HW1 1454   0.719   0.758   1.848  0.0804 -2.3813  0.9606
  485SOL    HW2 1455   0.867   0.702   1.908 -1.3647  1.3950  1.8726
  486SOL     OW 1456   0.912   1.858   2.477 -0.0847  0.2264 -0.5017
  486SOL    HW1 1457   0.911   1.861   2.584 -2.1260  2.6422  1.8543
  486SOL    HW2 1458   0.906   1.953   2.441  1.0698  0.9254 -1.2145
  487SOL     OW 1459   1.751   1.572   1.025 -0.3199  0.4542 -0.0018
  487SOL    HW1 1460   1.767   1.471   1.034  1.8041  0.7789 -2.2558
  487SOL    HW2 1461   1.797   1.617   0.942  0.1647 -0.4273 -0.8068
  488SOL     OW 1462   2.911   0.839   2.263  1.0991 -0.3948 -0.7590
  488SOL    HW1 1463   2.983   0.765   2.260 -0.0506 -0.4936 -0.8476
  488SOL    HW2 1464   2.833   0.815   2.331  1.3938  0.2927 -0.4105
  489SOL     OW 1465   2.848   0.322   1.289 -0.1556  0.1682 -0.1022
  489SOL    HW1 1466   2.820   0.298   1.386 -2.3818 -0.3008 -1.1409
  489SOL    HW2 1467   2.947   0.328   1.270 -0.1688  0.4385  2.2745
  490SOL     OW 1468   1.507   3.012   2.791 -0.6682 -0.1292  0.3347
  490SOL    HW1 1469   1.548   2.916   2.787  0.6398 -0.4000 -0.5946
  490SOL    HW2 1470   1.449   3.039   2.709  0.9714  0.5082 -1.7598
  491SOL     OW 1471   1.789   1.496   2.753 -0.0444 -0.8438 -0.1768
  491SOL    HW1 1472   1.773   1.430   2.831  0.3974 -1.3654  3.4595
  491SOL    HW2 1473   1.881   1.543   2.769  1.4906  3.2354  1.0635
  492SOL     OW 1474   0.677   2.131   0.596 -0.4243 -0.9667 -0.5071
  492SOL    HW1 1475   0.688   2.130   0.704  0.2861 -0.6183  3.1951
  492SOL    HW2 1476   0.588   2.160   0.563 -0.7227  0.3048  3.3971
  493SOL     OW 1477   0.381   1.338   2.099 -0.2909 -0.1302  0.0175
  493SOL    HW1 1478   0.288   1.375   2.067 -0.1655 -1.4041 -1.3068
  493SOL    HW2 1479   0.379   1.236   2.100  1.2356  0.9291 -1.2698
  494SOL     OW 1480   2.710   2.653   0.164  0.2254 -0.1180  0.0835
  494SOL    HW1 1481   2.721   2.657   0.268 -0.9992  1.0436  3.6564
  494SOL    HW2 1482   2.620   2.690   0.124 -1.2168  1.4485 -1.2139
  495SOL     OW 1483   2.543   2.808   2.658 -0.0063 -0.0530 -0.3237
  495SOL    HW1 1484   2.544   2.707   2.657 -1.5250  0.6115 -1.8066
  495SOL    HW2 1485   2.619   2.830   2.587 -1.4285  0.2328 -2.5577
  496SOL     OW 1486   1.983   2.254   0.846 -0.5669  0.4631 -0.2991
  496SOL    HW1 1487   2.046   2.185   0.802 -1.5485  3.1153  0.0202
  496SOL    HW2 1488   2.036   2.341   0.869  0.2486  0.5834 -1.4399
  497SOL     OW 1489   0.354   2.969   2.343 -0.3770  0.1874 -0.1630
  497SOL    HW1 1490   0.288   3.038   2.370  1.9591  1.5505  0.9874
  497SOL    HW2 1491   0.414   3.001   2.270  1.2425 -1.8721  2.5097
  498SOL     OW 1492   1.170   1.292   1.156  0.4069  0.2279  0.0974
  498SOL    HW1 1493   1.273   1.306   1.158 -0.6232  3.3115  2.7898
  498SOL    HW2 1494   1.127   1.331   1.243  2.4131  0.1566 -1.7907
  499SOL     OW 1495   0.627   1.708   0.440 -0.1993  0.8988 -0.6899
  499SOL    HW1 1496   0.607   1.674   0.341 -0.1319 -1.1276 -0.4662
  499SOL    HW2 1497   0.688   1.790   0.441  2.3290  0.0752 -2.4122
  500SOL     OW 1498   1.460   2.776   1.667  0.1115 -0.6677  0.1202
  500SOL    HW1 1499   1.497   2.761   1.759 -0.8933  1.3539 -1.0171
  500SOL    HW2 1500   1.509   2.714   1.600 -1.0240  0.2046  1.7305
  501SOL     OW 1501   0.795   1.254   2.279 -0.0310  0.3462  0.1867
  501SOL    HW1 1502   0.722   1.195   2.322  0.2718  0.7687  0.8939
  501SOL    HW2 1503   0.816   1.221   2.186  0.8640  2.1436  2.6776
  502SOL     OW 1504   2.532   0.928   1.786  0.2195 -0.2312  0.0312
  502SOL    HW1 1505   2.616   0.947   1.732 -1.0452 -2.8023  2.7939
  502SOL    HW2 1506   2.495   0.826   1.763  1.5100 -2.7135  1.9663
  503SOL     OW 1507   1.213   0.134   0.700  0.6852  0.0584  0.6797
  503SOL    HW1 1508   1.160   0.199   0.762 -2.0877 -1.3605 -2.8701
  503SOL    HW2 1509   1.317   0.155   0.688  2.3921  1.3643 -0.0289
  504SOL     OW 1510   2.950   2.385   1.515 -0.0330 -0.2060  0.2540
  504SOL    HW1 1511   2.908   2.444   1.585 -1.5401  0.9921 -1.8692
  504SOL    HW2 1512   2.932   2.284   1.528 -0.0161  0.2214  0.9104
  505SOL     OW 1513   2.324   1.159   1.510 -0.3969 -0.1523  0.1231
  505SOL    HW1 1514   2.326   1.171   1.404  1.3946  0.3385 -1.2418
  505SOL    HW2 1515   2.373   1.231   1.571  1.8946 -1.1718  2.8419
  506SOL     OW 1516   1.933   0.251   1.884  0.1163  0.3160 -0.4909
  506SOL    HW1 1517   2.036   0.233   1.864  0.1766  1.5647 -0.3522
  506SOL    HW2 1518   1.920   0.343   1.927  0.5333 -3.2967 -1.7446
  507SOL     OW 1519   0.483   0.767   2.154 -0.1985  0.0536 -0.0081
  507SOL    HW1 1520   0.442   0.714   2.073 -0.4029 -1.9488 -0.0717
  507SOL    HW2 1521   0.540   0.710   2.214 -0.5019  3.4194 -1.7680
  508SOL     OW 1522   0.324   1.638   0.788  0.2663  0.0742 -0.2268
  508SOL    HW1 1523   0.419   1.667   0.754  2.5939  1.6937 -0.0666
  508SOL    HW2 1524   0.287   1.686   0.878 -2.9366  1.2976 -1.1493
  509SOL     OW 1525   1.275   1.184   2.458  0.0285  0.1008  0.6555
  509SOL    HW1 1526   1.272   1.163   2.354  0.8711  2.8219 -0.5412
  509SOL    HW2 1527   1.189   1.138   2.496 -1.0801  0.3456 -0.6287
  510SOL     OW 1528   1.417   2.044   2.195 -0.1923  0.0160  0.3773
  510SOL    HW1 1529   1.395   2.081   2.098  1.2916 -0.5321  1.3519
  510SOL    HW2 1530   1.346   1.976   2.219 -2.5830  0.6470 -0.2582
  511SOL     OW 1531   3.001   2.649   1.372 -0.0910 -0.0473 -0.3123
  511SOL    HW1 1532   2.944   2.678   1.290  1.7863 -0.2621 -0.8724
  511SOL    HW2 1533   2.966   2.563   1.420  1.5725  0.8754 -0.1833
  512SOL     OW 1534   2.373   0.432   1.371 -0.3013  0.0491  0.3482
  512SOL    HW1 1535   2.287   0.446   1.314 -0.8159 -1.9312 -1.0030
  512SOL    HW2 1536   2.442   0.383   1.310 -0.3351  1.0188  0.2929
  513SOL     OW 1537   2.570   2.142   0.931 -0.4685 -0.5544 -0.8496
  513SOL    HW1 1538   2.534   2.209   0.866 -0.3407 -0.6816  0.4689
  513SOL    HW2 1539   2.643   2.081   0.888 -0.1510  1.9235 -1.8014
  514SOL     OW 1540   0.561   2.794   0.438  0.0271 -0.1947  0.1732
  514SOL    HW1 1541   0.598   2.784   0.342  0.8258 -2.8982 -0.6205
  514SOL    HW2 1542   0.629   2.818   0.513  0.0387 -1.9341 -2.6549
  515SOL     OW 1543   1.958   1.345   2.403  0.3115 -0.2216 -0.2073
  515SOL    HW1 1544   1.943   1.310   2.309  1.4595  1.2221  1.0561
  515SOL    HW2 1545   1.891   1.308   2.471  1.2775 -2.0141  0.0279
  516SOL     OW 1546   0.234   0.151   1.936  0.1742  0.0159  0.3653
  516SOL    HW1 1547   0.334   0.182   1.918  0.3986  2.2100  1.3360
  516SOL    HW2 1548   0.200   0.081   1.870 -0.0230  2.1756  1.7584
  517SOL     OW 1549   0.504   0.250   1.110  0.2382 -0.1374  0.0929
  517SOL    HW1 1550   0.561   0.199   1.181  0.1831  0.5688 -2.1374
  517SOL    HW2 1551   0.409   0.219   1.124  3.3764  0.3241  1.3460
  518SOL     OW 1552   2.224   3.027   1.871 -0.1272 -0.1983 -0.8851
  518SOL    HW1 1553   2.237   3.127   1.896 -2.1252  0.5367  0.6312
  518SOL    HW2 1554   2.236   3.008   1.772 -1.1858 -1.2111  0.1852
  519SOL     OW 1555   2.373   2.235   2.534 -0.4586 -0.1654  0.2531
  519SOL    HW1 1556   2.339   2.204   2.625  1.0994  1.2342  0.3629
  519SOL    HW2 1557   2.387   2.337   2.531 -2.0432  0.6982 -1.5234
  520SOL     OW 1558   1.772   2.632   1.699  0.1354 -0.0074 -0.5329
  520SOL    HW1 1559   1.729   2.609   1.795 -0.7367 -2.5043  1.4014
  520SOL    HW2 1560   1.852   2.574   1.684 -0.5867  1.5188 -0.0306
  521SOL     OW 1561   0.642   0.081   2.146  0.4454 -0.2596 -0.1350
  521SOL    HW1 1562   0.559   0.043   2.099 -1.6375  0.2278 -1.7225
  521SOL    HW2 1563   0.652   0.061   2.246  2.5029  1.5226 -1.9485
  522SOL     OW 1564   0.227   1.905   1.542  0.9566 -0.5472 -0.0939
  522SOL    HW1 1565   0.277   1.966   1.608 -0.4378  1.1184 -2.5041
  522SOL    HW2 1566   0.194   1.953   1.454  1.1385 -2.2546  0.1989
  523SOL     OW 1567   2.216   2.970   1.580  0.3580 -0.5426  0.2484
  523SOL    HW1 1568   2.317   2.935   1.553  1.9272  0.2957 -0.3410
  523SOL    HW2 1569   2.135   2.928   1.529  0.9109 -1.8621 -2.4098
  524SOL     OW 1570   0.205   2.763   2.810  0.3941  0.1637 -0.7389
  524SOL    HW1 1571   0.171   2.801   2.899  2.9972 -1.6187  1.7853
  524SOL    HW2 1572   0.310   2.760   2.805 -1.6029  0.9524 -0.9950
  525SOL     OW 1573   2.127   2.130   0.499 -0.2562 -0.2231  0.3436
  525SOL    HW1 1574   2.106   2.070   0.578 -1.6223 -0.2307  0.0837
  525SOL    HW2 1575   2.180   2.079   0.421  0.1887 -2.7828 -1.0536
  526SOL     OW 1576   0.403   1.497   1.684 -0.5410  0.2571  0.5973
  526SOL    HW1 1577   0.439   1.557   1.763  2.5245 -0.5847 -1.1262
  526SOL    HW2 1578   0.427   1.400   1.695  1.9593  1.5025 -0.7072
  527SOL     OW 1579   1.149   3.059   1.113  0.0868 -0.5269 -0.2777
  527SOL    HW1 1580   1.218   2.987   1.084 -0.4749 -1.1435 -0.6432
  527SOL    HW2 1581   1.201   3.147   1.115 -0.9095 -0.4521  0.0238
  528SOL     OW 1582   1.294   2.423   0.618 -0.4660 -0.2125 -0.2510
  528SOL    HW1 1583   1.334   2.321   0.602  1.5402 -2.6615  0.8935
  528SOL    HW2 1584   1.362   2.492   0.649 -2.2210 -0.6181 -4.9472
  529SOL     OW 1585   1.858   1.694   0.816 -0.4511 -0.1273  0.2792
  529SOL    HW1 1586   1.806   1.728   0.731 -3.6786 -1.0221 -0.0079
  529SOL    HW2 1587   1.885   1.772   0.876  0.5077  0.5836 -1.1159
  530SOL     OW 1588   0.462   2.550   0.139 -0.5680  0.0797  0.2563
  530SOL    HW1 1589   0.506   2.520   0.225 -0.5317 -1.9661 -0.6032
  530SOL    HW2 1590   0.439   2.464   0.081 -1.8437 -0.2836 -0.5230
  531SOL     OW 1591   1.811   0.983   1.037  0.3785  0.6732  0.0032
  531SOL    HW1 1592   1.848   1.032   0.954  0.6329  0.0466  0.1921
  531SOL    HW2 1593   1.715   0.940   1.024  0.3814 -0.2097 -2.1682
  532SOL     OW 1594   0.405   1.178   0.694  0.2801  0.9230  0.3400
  532SOL    HW1 1595   0.417   1.135   0.597  1.0786  1.4915 -0.9176
  532SOL    HW2 1596   0.358   1.109   0.752 -0.4523  1.4286 -0.5716
  533SOL     OW 1597   1.811   3.087   2.652  0.1733  0.0055 -0.3358
  533SOL    HW1 1598   1.911   3.070   2.660 -1.6748  1.1116  0.1574
  533SOL    HW2 1599   1.779   3.189   2.659 -0.1248 -0.2042 -2.7442
  534SOL     OW 1600   0.180   0.179   1.557  0.2999 -0.1071 -0.0430
  534SOL    HW1 1601   0.236   0.267   1.544 -2.5116 -1.8470  0.3707
  534SOL    HW2 1602   0.081   0.202   1.564  3.6889 -1.4677 -2.7944
  535SOL     OW 1603   1.895   0.386   0.169 -0.0536 -0.1462 -0.3422
  535SOL    HW1 1604   1.928   0.471   0.217 -0.2496  1.1493 -1.5183
  535SOL    HW2 1605   1.814   0.328   0.220 -1.7705 -5.0932  1.9049
  536SOL     OW 1606   1.230   2.485   0.919  0.2875 -0.0011  0.1323
  536SOL    HW1 1607   1.264   2.405   0.870 -0.4663 -0.1136 -0.1229
  536SOL    HW2 1608   1.166   2.544   0.863 -0.1551  0.5431  1.9768
  537SOL     OW 1609   0.897   0.224   2.312 -0.6432  0.8035  0.1958
  537SOL    HW1 1610   0.801   0.204   2.286 -1.5509  2.2353 -0.7192
  537SOL    HW2 1611   0.969   0.153   2.281  1.4536 -1.1879 -0.1840
  538SOL     OW 1612   1.742   2.221   1.621 -0.1065  0.6799  0.6062
  538SOL    HW1 1613   1.692   2.156   1.559  0.2905  0.3742  1.9578
  538SOL    HW2 1614   1.814   2.288   1.579  0.9976  1.3496  0.1501
  539SOL     OW 1615   0.158   1.551   2.782 -0.5292 -0.1176 -0.2481
  539SOL    HW1 1616   0.084   1.541   2.714  1.4103  0.0331  3.1964
  539SOL    HW2 1617   0.243   1.598   2.747 -1.4874 -1.1438  2.3568
  540SOL     OW 1618   2.664   1.791   2.131 -0.6362 -0.0245 -0.5054
  540SOL    HW1 1619   2.624   1.699   2.103 -1.4742  1.0197  2.6341
  540SOL    HW2 1620   2.630   1.875   2.083 -3.0509  1.4311  4.0341
  541SOL     OW 1621   0.420   2.312   0.010 -0.4382 -0.0823 -0.5438
  541SOL    HW1 1622   0.480   2.232   0.040 -2.1244 -1.3124 -4.4423
  541SOL    HW2 1623   0.350   2.277  -0.053  1.1617  0.5475  0.0683
  542SOL     OW 1624   2.175   2.584   0.473 -0.1276 -0.0120 -0.4362
  542SOL    HW1 1625   2.173   2.677   0.421  0.5093  0.8496  1.2362
  542SOL    HW2 1626   2.086   2.534   0.466  2.6810  0.9087  1.3599
  543SOL     OW 1627   1.106   1.745   1.770 -0.0847  1.0075 -0.1271
  543SOL    HW1 1628   1.109   1.794   1.863  0.6309  2.4747  0.8436
  543SOL    HW2 1629   1.057   1.801   1.700  2.1938 -0.1328  2.8649
  544SOL     OW 1630   0.842   0.481   0.110  0.1821 -0.5107  0.2453
  544SOL    HW1 1631   0.833   0.408   0.182 -0.6703  2.2856 -0.0222
  544SOL    HW2 1632   0.893   0.445   0.024 -0.0891 -0.7429 -0.2826
  545SOL     OW 1633   1.144   1.721   0.634  0.4012  0.3646  0.4032
  545SOL    HW1 1634   1.234   1.719   0.687 -0.6572 -2.3361  0.1047
  545SOL    HW2 1635   1.158   1.730   0.533  0.1296 -1.3823  2.3663
  546SOL     OW 1636   2.707   1.599   0.032  0.8511 -0.3953  0.3852
  546SOL    HW1 1637   2.771   1.549  -0.027 -3.9103  1.6396 -1.6832
  546SOL    HW2 1638   2.612   1.599  -0.013  2.0728 -1.6390 -1.2374
  547SOL     OW 1639   0.472   3.057   2.721  0.3289  0.2110  0.1483
  547SOL    HW1 1640   0.490   2.981   2.648 -0.8745  0.4355 -1.1093
  547SOL    HW2 1641   0.512   3.022   2.810  0.2124  2.0172 -2.6913
  548SOL     OW 1642   2.065   0.772   2.979  0.0266  0.3481  0.5989
  548SOL    HW1 1643   1.961   0.754   3.007 -5.1055 -1.8886 -0.0752
  548SOL    HW2 1644   2.088   0.872   2.973  0.8302  0.4820 -3.5938
  549SOL     OW 1645   0.573   0.460   0.089 -0.1645  0.0742  0.3901
  549SOL    HW1 1646   0.539   0.521   0.013  0.3920  0.0139  3.3620
  549SOL    HW2 1647   0.674   0.459   0.107 -2.0492 -1.3695  0.9419
  550SOL     OW 1648   2.521   2.901   2.909 -0.1532 -0.1457 -0.5528
  550SOL    HW1 1649   2.513   2.820   2.974  1.7857 -1.0988 -0.2528
  550SOL    HW2 1650   2.512   2.879   2.809 -0.2655  1.0804 -0.5938
  551SOL     OW 1651   0.271   0.828   0.229  0.1511  0.0931 -0.0082
  551SOL    HW1 1652   0.366   0.785   0.231 -1.2027  1.5119  1.9544
  551SOL    HW2 1653   0.226   0.839   0.322 -2.6160  0.0809  0.5247
  552SOL     OW 1654   0.857   2.823   1.918 -0.1421 -0.3480  0.5441
  552SOL    HW1 1655   0.824   2.821   2.018 -1.9016 -0.2226  2.1952
  552SOL    HW2 1656   0.872   2.918   1.887  3.6877 -1.1613  2.0596
  553SOL     OW 1657   3.094   2.558   0.359  0.1610 -0.0021  0.1278
  553SOL    HW1 1658   3.050   2.465   0.331 -1.8403 -0.1324 -0.5097
  553SOL    HW2 1659   3.134   2.557   0.454 -1.5765  1.6502  1.3000
  554SOL     OW 1660   2.101   0.351   0.488 -0.3504 -0.4250 -0.1791
  554SOL    HW1 1661   2.201   0.358   0.457 -0.1096  1.5182  0.2920
  554SOL    HW2 1662   2.087   0.270   0.547 -1.0175  1.5332 -1.0483
  555SOL     OW 1663   0.526   2.856   2.525  0.0302 -0.2090 -0.2802
  555SOL    HW1 1664   0.462   2.882   2.450  0.6893 -0.6094 -1.7572
  555SOL    HW2 1665   0.621   2.828   2.482  1.0028  1.7631 -1.8562
  556SOL     OW 1666   0.977   2.365   1.634 -0.4092 -0.2934  0.0808
  556SOL    HW1 1667   1.018   2.437   1.701 -1.1886  0.1702  2.5098
  556SOL    HW2 1668   0.971   2.393   1.536 -0.0898  1.4050  0.3368
  557SOL     OW 1669   0.127   2.123   0.095  0.4881  0.0534  0.6505
  557SOL    HW1 1670   0.053   2.053   0.080 -1.6398  1.4236 -1.4864
  557SOL    HW2 1671   0.145   2.185   0.013 -0.9634 -1.0729  0.6077
  558SOL     OW 1672   2.997   2.309   0.273 -0.0024 -0.0115 -0.1864
  558SOL    HW1 1673   2.937   2.234   0.302 -0.5038 -1.1540 -0.5623
  558SOL    HW2 1674   3.000   2.324   0.172 -0.5218 -1.8719  0.7148
  559SOL     OW 1675   0.409   2.277   1.335 -0.9723  0.4572 -0.7720
  559SOL    HW1 1676   0.317   2.296   1.288 -1.2618  3.0577 -2.2427
  559SOL    HW2 1677   0.456   2.189   1.304 -2.7495 -0.4024 -1.9873
  560SOL     OW 1678   2.070   1.062   3.012 -0.7873  0.1712  0.1007
  560SOL    HW1 1679   2.055   1.132   2.938  0.1743  0.0078 -1.0836
  560SOL    HW2 1680   2.024   1.093   3.097 -1.1235 -0.4666 -1.1329
  561SOL     OW 1681   3.001   1.953   0.076 -0.1477 -0.1875  0.3314
  561SOL    HW1 1682   2.975   1.852   0.062  1.4304  0.7239  1.5065
  561SOL    HW2 1683   2.952   2.017   0.010 -0.2215 -0.8061 -0.7298
  562SOL     OW 1684   0.850   2.124   2.469  0.1473  0.6502  0.0388
  562SOL    HW1 1685   0.751   2.114   2.440 -1.4391  0.9117  0.1938
  562SOL    HW2 1686   0.861   2.180   2.549 -4.0838 -0.2017 -1.4306
  563SOL     OW 1687   0.660   2.569   2.552 -0.6525 -0.3526  0.1312
  563SOL    HW1 1688   0.605   2.482   2.544 -2.1824  1.6941 -1.6052
  563SOL    HW2 1689   0.716   2.586   2.639 -2.3298  2.7845  0.1680
  564SOL     OW 1690   2.765   1.329   2.938  0.3188 -0.6151 -0.0825
  564SOL    HW1 1691   2.664   1.315   2.962 -2.7848 -1.9490 -0.5728
  564SOL    HW2 1692   2.800   1.428   2.933 -0.9405  0.7423 -0.8897
  565SOL     OW 1693   2.556   2.031   2.578 -0.3982 -0.2471 -0.2597
  565SOL    HW1 1694   2.486   2.105   2.544  0.2502 -1.0204 -2.8408
  565SOL    HW2 1695   2.650   2.064   2.610  0.7483  1.2509 -0.6255
  566SOL     OW 1696   2.037   2.819   1.455  0.0281 -0.1973 -0.1482
  566SOL    HW1 1697   2.033   2.729   1.511 -1.3149  2.0285 -2.0296
  566SOL    HW2 1698   2.073   2.809   1.360 -0.9487  1.6881  0.7556
  567SOL     OW 1699   2.390   0.094   2.218 -0.0310  0.6921 -0.0204
  567SOL    HW1 1700   2.441   0.122   2.132 -0.9509  2.1649  1.1127
  567SOL    HW2 1701   2.310   0.029   2.212  2.5235 -1.5382  1.0552
  568SOL     OW 1702   1.414   1.804   0.471  0.6947  0.3696  0.6166
  568SOL    HW1 1703   1.384   1.854   0.389  0.3088 -4.8001  1.5073
  568SOL    HW2 1704   1.453   1.871   0.547  2.7447  2.1152 -0.1502
  569SOL     OW 1705   0.293   0.689   0.753  0.0680 -0.2122 -0.1529
  569SOL    HW1 1706   0.320   0.598   0.730  2.5924 -0.5535  0.3525
  569SOL    HW2 1707   0.189   0.685   0.753 -1.0738  0.0533 -1.6091
  570SOL     OW 1708   0.594   0.873   2.809  0.2507 -0.4765  0.0290
  570SOL    HW1 1709   0.661   0.850   2.737  1.5289 -1.4304  1.5804
  570SOL    HW2 1710   0.582   0.976   2.834  0.0063  0.6050 -1.5871
  571SOL     OW 1711   0.850   3.077   1.187 -0.5308  0.1480 -0.2990
  571SOL    HW1 1712   0.866   3.144   1.109  2.0766 -0.4078 -0.3484
  571SOL    HW2 1713   0.941   3.032   1.213 -0.4575 -1.8301  0.7936
  572SOL     OW 1714   1.485   2.572   1.177  0.1743  0.3516 -0.0412
  572SOL    HW1 1715   1.414   2.498   1.202 -1.3950 -4.0569  2.7561
  572SOL    HW2 1716   1.445   2.662   1.140 -1.3608  1.7982 -0.7954
  573SOL     OW 1717   2.937   0.485   2.068  0.0206  0.2980 -0.0236
  573SOL    HW1 1718   2.877   0.400   2.059 -1.2929  0.3694 -0.7210
  573SOL    HW2 1719   2.893   0.571   2.047  1.7717 -1.1812 -0.3455
  574SOL     OW 1720   0.247   1.762   1.026 -0.4352 -0.5147  0.1339
  574SOL    HW1 1721   0.236   1.855   0.976  0.9855  1.8135 -1.8962
  574SOL    HW2 1722   0.167   1.750   1.093 -4.2787 -1.5607 -2.4472
  575SOL     OW 1723   0.964   2.195   1.030 -0.6116  0.4839 -0.0811
  575SOL    HW1 1724   1.004   2.252   1.107  1.2632 -0.3295  0.7910
  575SOL    HW2 1725   1.011   2.206   0.941 -0.8238  1.7192  1.7247
  576SOL     OW 1726   2.869   2.909   1.748  0.2472  0.3694 -0.1141
  576SOL    HW1 1727   2.822   2.856   1.675 -0.4082  1.4465  3.3766
  576SOL    HW2 1728   2.819   2.997   1.773  1.4567  0.1396 -1.1002
  577SOL     OW 1729   2.524   1.254   3.067 -0.2385 -0.1280  0.3368
  577SOL    HW1 1730   2.515   1.163   3.019 -0.6180  0.7380 -0.5270
  577SOL    HW2 1731   2.575   1.252   3.164  0.0584  1.0839  2.9385
  578SOL     OW 1732   1.325   2.775   2.565  0.5490  0.1262  0.2496
  578SOL    HW1 1733   1.256   2.740   2.497  3.7289  0.3723  0.5998
  578SOL    HW2 1734   1.338   2.880   2.560  0.5424 -0.5852  0.0219
  579SOL     OW 1735   0.135   2.578   0.116 -0.1441 -0.1435  0.4118
  579SOL    HW1 1736   0.093   2.595   0.206 -1.3249  1.3535 -0.1628
  579SOL    HW2 1737   0.222   2.521   0.126 -2.4282 -0.3722  1.1374
  580SOL     OW 1738   0.929   2.680   0.392  0.2052  0.4192  0.0153
  580SOL    HW1 1739   0.998   2.674   0.317  0.1120 -1.2702 -0.4481
  580SOL    HW2 1740   0.844   2.621   0.367 -1.5116  0.0310  2.7295
  581SOL     OW 1741   1.216   2.494   1.444 -0.2407  0.6045 -0.3877
  581SOL    HW1 1742   1.250   2.422   1.383 -0.5229  2.2441  1.9802
  581SOL    HW2 1743   1.250   2.591   1.426  1.2651 -0.9932 -1.2195
  582SOL     OW 1744   1.516   0.059   1.864  0.3265  0.1092  0.0484
  582SOL    HW1 1745   1.536   0.138   1.926 -3.7276 -2.3423 -0.6336
  582SOL    HW2 1746   1.584   0.044   1.780 -0.6713 -0.1991 -2.7601
  583SOL     OW 1747   2.366   2.951   0.552  0.5639 -0.0277  0.4812
  583SOL    HW1 1748   2.442   2.911   0.490 -0.5480 -0.3109 -0.1255
  583SOL    HW2 1749   2.323   2.884   0.623  0.9485 -0.7590 -0.6988
  584SOL     OW 1750   1.532   0.963   2.067  0.1277 -0.1238  0.0259
  584SOL    HW1 1751   1.585   1.037   2.016  0.0356  3.1463 -1.1073
  584SOL    HW2 1752   1.581   0.929   2.152 -0.0565  1.1687  3.5767
  585SOL     OW 1753   2.087   2.721   2.849 -0.0964 -0.2325  0.1319
  585SOL    HW1 1754   2.138   2.630   2.830  0.3238 -3.0992 -3.3783
  585SOL    HW2 1755   1.987   2.705   2.885 -2.6470  0.0950 -1.9875
  586SOL     OW 1756   2.799   0.277   1.560 -0.4946  0.3485  0.3909
  586SOL    HW1 1757   2.834   0.365   1.602  1.6485 -0.9164 -1.4813
  586SOL    HW2 1758   2.708   0.240   1.590 -1.1698  1.1193  2.5175
  587SOL     OW 1759   2.040   1.612   2.721 -0.2732  0.0443  0.4796
  587SOL    HW1 1760   2.084   1.568   2.637  1.0079 -1.0712  1.7719
  587SOL    HW2 1761   2.076   1.597   2.817 -2.9627  1.6956 -2.7333
  588SOL     OW 1762   0.505   2.700   2.245  0.3306 -0.4211  0.3038
  588SOL    HW1 1763   0.429   2.751   2.199 -1.1717  0.5781 -1.0408
  588SOL    HW2 1764   0.471   2.642   2.325 -1.1812 -0.5812  0.8088
  589SOL     OW 1765   2.167   1.475   2.513  0.1525  0.5074 -0.1921
  589SOL    HW1 1766   2.078   1.434   2.480  0.5484  1.3621 -0.1264
  589SOL    HW2 1767   2.248   1.409   2.532 -0.7740 -0.0263 -0.1321
  590SOL     OW 1768   2.332   1.769   2.034  0.4520  0.4562  0.1594
  590SOL    HW1 1769   2.411   1.700   2.023  1.3959  0.9520  2.9277
  590SOL    HW2 1770   2.340   1.824   2.128 -1.6428  2.6143  1.0732
  591SOL     OW 1771   1.316   2.469   0.340 -0.8201  1.0567  0.0183
  591SOL    HW1 1772   1.396   2.435   0.284  1.7821 -0.2719 -0.0271
  591SOL    HW2 1773   1.314   2.423   0.434 -0.7048  0.9602  0.2297
  592SOL     OW 1774   1.702   2.324   0.780 -0.5470 -0.4541  0.2624
  592SOL    HW1 1775   1.676   2.396   0.704 -1.4747  1.0127 -0.0997
  592SOL    HW2 1776   1.804   2.314   0.789  0.7794 -1.3072  0.2749
  593SOL     OW 1777   0.530   0.267   2.985 -0.3752  0.2707  0.1032
  593SOL    HW1 1778   0.625   0.219   2.993 -1.1139 -0.3603 -2.1404
  593SOL    HW2 1779   0.526   0.340   3.059 -2.8726 -2.4968 -1.2731
  594SOL     OW 1780   0.939   1.872   2.747 -0.3001  0.0789  0.1615
  594SOL    HW1 1781   1.037   1.847   2.773  1.3679 -1.1780  2.2911
  594SOL    HW2 1782   0.916   1.970   2.772 -1.9876  0.4042 -3.6075
  595SOL     OW 1783   1.545   3.065   1.036  0.0158 -0.1529 -0.4385
  595SOL    HW1 1784   1.629   3.024   1.078  1.0747  0.7688  1.7155
  595SOL    HW2 1785   1.533   3.036   0.934  0.3567 -0.9830 -0.1323
  596SOL     OW 1786   3.070   1.487   2.230  0.1167 -0.0228 -0.1372
  596SOL    HW1 1787   2.992   1.540   2.259  1.0785 -3.5038  2.7290
  596SOL    HW2 1788   3.139   1.459   2.302 -1.8621 -0.9623 -1.0706
  597SOL     OW 1789   2.053   2.571   1.605 -0.4183  0.0799 -0.2839
  597SOL    HW1 1790   2.108   2.495   1.562 -3.6661  3.8803 -1.3378
  597SOL    HW2 1791   2.099   2.621   1.682 -1.5359 -0.0333 -2.0317
  598SOL     OW 1792   2.609   2.855   1.236  0.2231  0.2873 -0.6544
  598SOL    HW1 1793   2.671   2.905   1.305  0.4037 -1.9681  2.7872
  598SOL    HW2 1794   2.664   2.823   1.151  1.9209 -2.3983 -0.8822
  599SOL     OW 1795   2.938   0.358   2.429  0.3564 -0.4307 -0.0920
  599SOL    HW1 1796   3.032   0.382   2.392 -2.1068  0.7792 -2.7311
  599SOL    HW2 1797   2.861   0.400   2.372 -0.2233  0.2776  0.3473
  600SOL     OW 1798   2.785   1.092   2.759 -0.1993 -0.3630  0.2457
  600SOL    HW1 1799   2.741   1.005   2.798 -2.8706 -0.0964  0.4630
  600SOL    HW2 1800   2.765   1.173   2.816  5.2330 -2.4573  0.4506
  601SOL     OW 1801   2.960   1.295   2.041  0.1417  0.1219  0.0556
  601SOL    HW1 1802   2.875   1.337   1.992 -3.4983  1.9427 -0.5500
  601SOL    HW2 1803   2.993   1.354   2.122 -1.5388  2.3849  0.9010
  602SOL     OW 1804   1.547   1.648   2.281 -0.1483  0.7615 -0.1416
  602SOL    HW1 1805   1.481   1.573   2.296  0.8091  1.6407 -0.9737
  602SOL    HW2 1806   1.616   1.636   2.355  1.5039  0.8056 -1.0356
  603SOL     OW 1807   0.719   1.238   2.595 -0.2485 -0.1875 -0.0416
  603SOL    HW1 1808   0.630   1.205   2.553  0.9725 -0.1040  1.4162
  603SOL    HW2 1809   0.782   1.165   2.618 -1.2657  2.6722 -0.3133
  604SOL     OW 1810   2.402   1.049   0.204  0.3520 -0.2361 -0.3400
  604SOL    HW1 1811   2.478   1.096   0.154 -0.2616  2.9935 -1.2319
  604SOL    HW2 1812   2.376   0.954   0.164  0.2018 -0.9965 -3.1496
  605SOL     OW 1813   2.592   1.109   1.987  0.2487  0.1382 -0.3929
  605SOL    HW1 1814   2.565   1.024   1.936  2.4991  0.3836 -0.4343
  605SOL    HW2 1815   2.648   1.084   2.073  0.5798  1.6220 -0.5891
  606SOL     OW 1816   1.472   2.538   2.552 -0.0273 -0.0264  0.1374
  606SOL    HW1 1817   1.383   2.594   2.535  1.8581 -0.8660  1.3183
  606SOL    HW2 1818   1.473   2.435   2.531  0.2332 -0.4734 -2.5479
  607SOL     OW 1819   1.306   1.545   0.431  0.0576  0.0352  0.7130
  607SOL    HW1 1820   1.285   1.472   0.502 -0.8296 -0.5331 -0.7519
  607SOL    HW2 1821   1.349   1.637   0.462  1.7512 -0.5411 -1.4287
  608SOL     OW 1822   1.382   2.869   0.381 -0.1464  0.1800 -0.0987
  608SOL    HW1 1823   1.449   2.908   0.309 -2.5717  0.9198  0.6864
  608SOL    HW2 1824   1.319   2.942   0.424  1.1769  0.2449  1.4863
  609SOL     OW 1825   1.337   1.341   0.209 -0.8009 -0.3282 -0.1646
  609SOL    HW1 1826   1.343   1.432   0.262  2.5106 -1.4440 -3.5023
  609SOL    HW2 1827   1.246   1.325   0.163 -0.7157 -0.9629 -0.0328
  610SOL     OW 1828   2.997   1.124   2.266  0.3987 -0.6454  0.4152
  610SOL    HW1 1829   2.987   1.024   2.242  0.2647  0.0808 -0.6249
  610SOL    HW2 1830   2.935   1.187   2.209 -0.3704 -1.7997  0.3072
  611SOL     OW 1831   2.587   0.308   1.221 -0.6544  0.0587  0.3885
  611SOL    HW1 1832   2.563   0.212   1.192 -2.0324  1.7026  1.7984
  611SOL    HW2 1833   2.692   0.317   1.229 -0.2326  0.5642  1.2777
  612SOL     OW 1834   0.745   2.192   1.264  0.3142 -0.4255 -0.4297
  612SOL    HW1 1835   0.668   2.118   1.266  3.0043 -1.7909 -0.9574
  612SOL    HW2 1836   0.712   2.280   1.228  0.3200 -1.8175  2.0059
  613SOL     OW 1837   0.968   1.462   2.343 -0.0855 -1.3794 -0.2310
  613SOL    HW1 1838   0.992   1.513   2.260  2.5746  1.0996  1.5615
  613SOL    HW2 1839   0.893   1.393   2.324 -0.9564  0.1494  0.5860
  614SOL     OW 1840   1.609   1.531   1.733  0.2665 -0.1480  0.0944
  614SOL    HW1 1841   1.542   1.608   1.734 -0.1651 -1.4061  2.6694
  614SOL    HW2 1842   1.683   1.550   1.803  2.0601 -1.4833 -1.6062
  615SOL     OW 1843   0.790   1.251   1.749  0.0115  0.8163 -0.2936
  615SOL    HW1 1844   0.706   1.239   1.698  2.9559  1.1045  3.0003
  615SOL    HW2 1845   0.835   1.345   1.731 -0.6080 -1.6308 -1.2535
  616SOL     OW 1846   1.076   1.563   2.094 -0.0134  0.2493  0.6030
  616SOL    HW1 1847   1.025   1.568   2.001 -2.0039  0.9088  0.1492
  616SOL    HW2 1848   1.116   1.654   2.114 -0.3820 -1.7594 -0.0591
  617SOL     OW 1849   2.987   1.542   1.584 -0.5603 -0.1552  0.1513
  617SOL    HW1 1850   2.992   1.441   1.609 -4.5739 -0.2865 -0.9344
  617SOL    HW2 1851   2.996   1.563   1.483  0.2836  1.3863 -0.0071
  618SOL     OW 1852   1.866   1.963   1.395 -0.2839  0.8916 -0.4985
  618SOL    HW1 1853   1.898   2.035   1.334  1.3237 -0.3839  1.0899
  618SOL    HW2 1854   1.853   1.873   1.341 -0.7649 -0.3449 -1.5386
  619SOL     OW 1855   1.720   0.419   2.343  0.4401 -0.1717 -0.0544
  619SOL    HW1 1856   1.641   0.474   2.293  2.4627 -0.1044 -0.1268
  619SOL    HW2 1857   1.691   0.318   2.358 -1.9524 -0.4087  2.0662
  620SOL     OW 1858   2.249   2.821   0.774  0.0909  0.1810  0.0393
  620SOL    HW1 1859   2.148   2.828   0.790 -0.9683 -0.7756 -3.5059
  620SOL    HW2 1860   2.292   2.730   0.809 -0.4361 -0.9061 -0.9093
  621SOL     OW 1861   2.194   1.916   1.290 -0.2619  0.2302  0.7024
  621SOL    HW1 1862   2.177   1.901   1.392 -1.9314  2.9143  0.1830
  621SOL    HW2 1863   2.156   1.839   1.232  0.6369  0.4761  0.4739
  622SOL     OW 1864   2.230   0.932   1.864  0.3181  0.7020 -0.1857
  622SOL    HW1 1865   2.329   0.910   1.873 -1.5791 -0.9313 -2.0420
  622SOL    HW2 1866   2.177   0.861   1.924  0.0032  0.5236  0.9934
  623SOL     OW 1867   1.272   0.842   2.529 -0.1563 -0.0387 -0.4694
  623SOL    HW1 1868   1.212   0.765   2.561  2.2457  0.6571 -0.8685
  623SOL    HW2 1869   1.267   0.855   2.425  0.6992 -0.7351  3.2800
  624SOL     OW 1870   0.484   0.662   3.014 -0.1320 -0.3518 -0.4846
  624SOL    HW1 1871   0.525   0.695   2.926 -2.7421 -0.8720 -0.8613
  624SOL    HW2 1872   0.512   0.723   3.096 -0.5483 -0.5882  0.1480
  625SOL     OW 1873   2.729   1.703   0.998  0.3434  0.3478  0.2816
  625SOL    HW1 1874   2.637   1.697   1.044 -1.0913  1.3838  1.1299
  625SOL    HW2 1875   2.782   1.790   1.020  0.0389  2.2351 -0.5230
  626SOL     OW 1876   0.650   2.647   1.764  0.0846 -0.1647 -0.8112
  626SOL    HW1 1877   0.713   2.703   1.825  1.0934  2.6247 -0.5170
  626SOL    HW2 1878   0.552   2.637   1.806 -2.9799  0.7280  0.3537
  627SOL     OW 1879   0.659   0.828   1.722  0.1456  0.0179  0.8865
  627SOL    HW1 1880   0.627   0.749   1.666  0.3295 -0.6037  2.1995
  627SOL    HW2 1881   0.700   0.902   1.670  0.4893 -1.7424  0.9160
  628SOL     OW 1882   2.374   0.057   0.745 -0.6294  0.4951  0.1719
  628SOL    HW1 1883   2.387  -0.016   0.677 -0.5707  0.3135  1.3142
  628SOL    HW2 1884   2.343   0.023   0.837  0.6773  4.4679 -1.3900
  629SOL     OW 1885   1.857   0.937   1.961  0.2846 -0.5627  0.3692
  629SOL    HW1 1886   1.893   1.012   1.895  0.7146 -0.3965  1.5570
  629SOL    HW2 1887   1.855   0.963   2.063  1.4020  1.0011  0.4138
  630SOL     OW 1888   2.909   2.204   0.790 -0.1424 -0.1231  0.2128
  630SOL    HW1 1889   2.855   2.287   0.828  1.7118  0.1313 -0.6385
  630SOL    HW2 1890   2.845   2.132   0.755 -1.8794  2.6224 -0.7322
  631SOL     OW 1891   3.045   0.096   2.034 -0.5770 -0.0242 -0.3127
  631SOL    HW1 1892   3.100   0.146   2.106 -1.6996  1.8155 -0.0923
  631SOL    HW2 1893   3.089   0.081   1.945 -2.3505  3.2765 -0.5796
  632SOL     OW 1894   2.488   2.577   0.622  0.3815 -0.2622 -0.3125
  632SOL    HW1 1895   2.532   2.669   0.653 -0.7457  0.6115 -1.4536
  632SOL    HW2 1896   2.402   2.590   0.573  2.2732  0.3493 -2.4735
  633SOL     OW 1897   1.451   1.251   2.670  0.3665  0.6089  0.7332
  633SOL    HW1 1898   1.409   1.310   2.747  1.8862  0.9440  0.0458
  633SOL    HW2 1899   1.383   1.235   2.595 -0.3433 -0.0888  2.4552
  634SOL     OW 1900   0.719   2.181   0.862  0.1130 -0.5914  0.0888
  634SOL    HW1 1901   0.638   2.122   0.894 -1.1371  0.5099 -1.2204
  634SOL    HW2 1902   0.792   2.201   0.933  0.1555  0.2618 -0.5479
  635SOL     OW 1903   3.026   2.433   0.008  0.3114 -0.1519 -0.3818
  635SOL    HW1 1904   2.941   2.488  -0.015  0.3856 -0.3639  0.1130
  635SOL    HW2 1905   3.105   2.497   0.029 -0.1539  1.7254  0.6256
  636SOL     OW 1906   2.376   2.679   2.068  0.0617  0.1874 -0.7251
  636SOL    HW1 1907   2.351   2.765   2.120  2.3517  2.2372 -0.0113
  636SOL    HW2 1908   2.340   2.600   2.123 -0.3228  1.1327 -1.5844
  637SOL     OW 1909   2.673   0.615   1.950  0.2432 -0.0610  0.0342
  637SOL    HW1 1910   2.591   0.615   1.888  0.0419 -0.4735 -0.7969
  637SOL    HW2 1911   2.739   0.697   1.943  0.7916  4.1086  1.6797
  638SOL     OW 1912   2.468   1.858   1.344  0.8246  0.8288  0.3469
  638SOL    HW1 1913   2.369   1.888   1.325 -0.4409 -0.5505 -0.4556
  638SOL    HW2 1914   2.477   1.770   1.403  0.9009 -0.1252  0.1695
  639SOL     OW 1915   1.261   2.184   1.548 -0.1069  0.1383  0.2741
  639SOL    HW1 1916   1.342   2.240   1.586  3.7924  1.2600  0.4826
  639SOL    HW2 1917   1.175   2.236   1.562  0.5747 -1.9693  1.0050
  640SOL     OW 1918   0.187   1.250   1.522 -0.6088 -0.2943 -0.0333
  640SOL    HW1 1919   0.179   1.252   1.623  1.5486 -0.4722 -1.8514
  640SOL    HW2 1920   0.268   1.192   1.489 -1.2013  0.4010  2.4641
  641SOL     OW 1921   1.970   0.282   1.496  0.4363 -0.1740  0.3875
  641SOL    HW1 1922   1.889   0.299   1.563 -0.0679  0.1447  1.5720
  641SOL    HW2 1923   2.053   0.305   1.546  0.2283 -2.7908  0.7958
  642SOL     OW 1924   2.033   3.067   0.397 -0.0263 -0.4589 -0.8311
  642SOL    HW1 1925   2.118   3.131   0.396  0.7048  3.0017 -2.3832
  642SOL    HW2 1926   1.957   3.103   0.462 -1.3863  0.8571  1.8294
  643SOL     OW 1927   2.937   1.932   2.095 -0.2851  0.2316 -0.0635
  643SOL    HW1 1928   2.866   1.856   2.090  1.4122  0.4641  1.4521
  643SOL    HW2 1929   2.910   2.019   2.044  1.4474 -1.8534 -0.5075
  644SOL     OW 1930   2.273   2.440   1.297 -0.2202 -0.4557 -0.1105
  644SOL    HW1 1931   2.349   2.388   1.245  0.3899 -2.5603 -1.0622
  644SOL    HW2 1932   2.278   2.440   1.399  3.1497 -2.0350  0.3743
  645SOL     OW 1933   0.647   0.789   1.274  0.5931  0.4077 -0.0645
  645SOL    HW1 1934   0.546   0.758   1.267  1.6432 -0.7528 -3.6070
  645SOL    HW2 1935   0.691   0.793   1.183 -0.6341  0.0079  0.6883
  646SOL     OW 1936   1.514   1.741   2.022  0.5826  0.3150  0.5019
  646SOL    HW1 1937   1.586   1.786   1.961  1.3503  0.8586 -2.0297
  646SOL    HW2 1938   1.544   1.723   2.120 -0.7492 -0.7221  2.7466
  647SOL     OW 1939   0.744   1.072   0.568 -0.1685  0.3424  0.4356
  647SOL    HW1 1940   0.826   1.075   0.632  1.8784 -0.6060 -1.5738
  647SOL    HW2 1941   0.696   0.979   0.573 -1.1462  0.5830  1.6642
  648SOL     OW 1942   0.138   0.234   0.373  0.4116 -0.0804  0.0467
  648SOL    HW1 1943   0.056   0.175   0.351  1.2844 -0.0327  1.6433
  648SOL    HW2 1944   0.147   0.325   0.328 -0.9622 -3.6750 -0.6435
  649SOL     OW 1945   3.015   0.260   0.952 -0.0340 -0.1597 -0.3553
  649SOL    HW1 1946   3.086   0.284   0.880 -0.5273 -0.1685 -0.9175
  649SOL    HW2 1947   3.056   0.250   1.048 -0.9157  0.4354 -1.2004
  650SOL     OW 1948   2.759   0.705   1.429  0.7219  0.5727 -0.1099
  650SOL    HW1 1949   2.662   0.678   1.457 -1.2676 -2.1718 -0.6368
  650SOL    HW2 1950   2.768   0.805   1.416 -3.0912  2.3763  0.4846
  651SOL     OW 1951   0.876   1.518   1.691 -0.0039 -0.1723  0.0617
  651SOL    HW1 1952   0.851   1.580   1.772 -2.0761  0.8996 -0.0603
  651SOL    HW2 1953   0.972   1.534   1.656 -1.5771  2.2092  0.1104
  652SOL     OW 1954   2.281   2.571   2.512  0.5928 -0.2110  0.3667
  652SOL    HW1 1955   2.197   2.536   2.561  3.1490 -1.3850  0.0212
  652SOL    HW2 1956   2.268   2.667   2.465  0.1101  0.9656  3.0194
  653SOL     OW 1957   2.685   1.225   0.190  0.0536  0.3802 -0.5043
  653SOL    HW1 1958   2.704   1.319   0.226  0.8909  1.4884 -0.8290
  653SOL    HW2 1959   2.763   1.158   0.218 -0.2689 -1.3055 -0.7403
  654SOL     OW 1960   1.186   2.058   1.257  0.2206  0.2064  0.0353
  654SOL    HW1 1961   1.176   1.961   1.291  2.2905  0.5543  1.2379
  654SOL    HW2 1962   1.207   2.056   1.151  2.5084 -1.1465 -2.5138
  655SOL     OW 1963   0.150   0.988   1.885  0.4225 -0.4026  0.3838
  655SOL    HW1 1964   0.226   0.935   1.834  1.2685 -0.5398 -0.1121
  655SOL    HW2 1965   0.158   1.090   1.859  0.5036  1.1311  0.5333
  656SOL     OW 1966   2.542   2.534   2.632  0.5340  0.0379 -0.2610
  656SOL    HW1 1967   2.639   2.515   2.591  2.0199 -0.6819  1.6531
  656SOL    HW2 1968   2.461   2.527   2.569  2.1682 -0.2734 -0.6885
  657SOL     OW 1969   2.993   1.012   1.948  0.5190 -0.2652  0.2398
  657SOL    HW1 1970   2.987   1.109   1.981 -0.1153  0.2728 -0.1108
  657SOL    HW2 1971   3.093   0.983   1.920  1.4919  1.6022  0.8047
  658SOL     OW 1972   1.683   0.160   2.346 -0.0063  0.3044 -0.4366
  658SOL    HW1 1973   1.669   0.073   2.400  0.4544  4.2075 -1.8605
  658SOL    HW2 1974   1.720   0.146   2.251 -0.0934  1.7292  1.7286
  659SOL     OW 1975   1.434   0.682   2.793 -0.3598  0.2505  0.7404
  659SOL    HW1 1976   1.471   0.767   2.746 -1.0443 -0.0513  0.7941
  659SOL    HW2 1977   1.334   0.688   2.803  1.8832 -0.8590 -0.5331
  660SOL     OW 1978   1.432   0.292   1.414  0.0800 -0.9598 -0.2952
  660SOL    HW1 1979   1.454   0.335   1.508  2.4821  1.3922  0.1617
  660SOL    HW2 1980   1.504   0.224   1.393  1.5276  0.1806 -1.2899
  661SOL     OW 1981   2.361   1.293   0.680  0.5509 -0.1116 -0.1601
  661SOL    HW1 1982   2.406   1.266   0.587  4.1976 -4.5220 -2.6646
  661SOL    HW2 1983   2.288   1.365   0.674  0.4939  0.2532 -0.4935
  662SOL     OW 1984   1.473   0.382   1.678  0.4249  0.0339 -0.0844
  662SOL    HW1 1985   1.403   0.346   1.742 -0.5771 -0.2027 -2.3706
  662SOL    HW2 1986   1.485   0.487   1.697 -3.2332 -0.6620 -0.7659
  663SOL     OW 1987   0.782   1.634   1.928  0.1122 -0.1337  0.0070
  663SOL    HW1 1988   0.789   1.718   1.987  1.7816  1.3120  2.6085
  663SOL    HW2 1989   0.734   1.549   1.976  1.2897 -3.3425  1.9718
  664SOL     OW 1990   1.615   2.058   1.452  0.4411  0.2525 -0.5583
  664SOL    HW1 1991   1.534   2.000   1.476  0.0928 -0.3036  1.4902
  664SOL    HW2 1992   1.703   2.005   1.453 -1.7033 -0.5325 -1.4597
  665SOL     OW 1993   2.274   0.670   2.028 -0.5465  0.1141  0.3161
  665SOL    HW1 1994   2.268   0.565   2.031 -0.4361 -2.6490 -0.2361
  665SOL    HW2 1995   2.352   0.698   2.091 -0.5190 -0.9246 -1.7926
  666SOL     OW 1996   0.448   2.241   0.390 -0.1474  0.2858 -0.1024
  666SOL    HW1 1997   0.474   2.333   0.437 -0.1502  0.3063  1.8669
  666SOL    HW2 1998   0.343   2.238   0.381  0.1893  0.2968 -1.2009
  667SOL     OW 1999   2.045   0.183   1.082 -0.4601  0.5043  0.2823
  667SOL    HW1 2000   2.049   0.281   1.051  0.3487 -0.8147  0.1151
  667SOL    HW2 2001   1.972   0.157   1.155  1.8782  0.5509  1.0262
  668SOL     OW 2002   1.992   0.477   1.076 -0.3266  0.7508  0.3227
  668SOL    HW1 2003   2.079   0.487   1.024 -1.3403 -0.3805 -1.2506
  668SOL    HW2 2004   2.015   0.491   1.181 -0.3416 -1.8553  1.3322
  669SOL     OW 2005   3.072   2.131   1.027 -0.2314  0.0360 -0.2535
  669SOL    HW1 2006   3.037   2.165   0.934 -0.6090 -0.9533  0.8066
  669SOL    HW2 2007   3.022   2.171   1.106  0.6207  0.4365  0.9142
  670SOL     OW 2008   2.924   2.398   2.176  0.3860  0.3136 -0.0235
  670SOL    HW1 2009   2.833   2.373   2.218  3.0906 -1.8478 -2.9728
  670SOL    HW2 2010   2.913   2.480   2.117  1.9831 -2.2221  1.3626
  671SOL     OW 2011   1.816   1.650   1.531 -0.2073 -0.0392  0.3913
  671SOL    HW1 2012   1.844   1.656   1.434 -3.1037 -2.2753  0.8981
  671SOL    HW2 2013   1.737   1.591   1.546 -0.0186  2.3578  0.2832
  672SOL     OW 2014   0.472   0.728   2.564  0.9008 -0.3388  0.6081
  672SOL    HW1 2015   0.401   0.721   2.483 -0.2615 -1.7913  1.0558
  672SOL    HW2 2016   0.463   0.820   2.613 -0.9567  4.2902  0.7594
  673SOL     OW 2017   0.076   1.433   1.013 -0.1868 -0.2402  0.4868
  673SOL    HW1 2018   0.107   1.443   1.110  0.7327  2.0253  1.4604
  673SOL    HW2 2019   0.151   1.421   0.948 -0.1969 -5.2477  3.8262
  674SOL     OW 2020   1.554   3.030   0.227  0.2539 -0.4734  0.3928
  674SOL    HW1 2021   1.646   3.075   0.201  0.9662 -3.4010 -0.3817
  674SOL    HW2 2022   1.512   2.999   0.139 -0.8907  1.2551  2.2177
  675SOL     OW 2023   1.644   0.842   2.305 -0.3045  0.0530 -0.1394
  675SOL    HW1 2024   1.747   0.831   2.286  0.0337  1.2676 -1.1827
  675SOL    HW2 2025   1.592   0.756   2.288  1.7464  2.0093  2.7289
  676SOL     OW 2026   2.540   1.567   2.001  0.4060 -0.1690  0.0596
  676SOL    HW1 2027   2.506   1.521   1.918  4.2019 -3.0749  0.2037
  676SOL    HW2 2028   2.578   1.502   2.076  0.1366 -0.3881  1.3804
  677SOL     OW 2029   1.886   0.691   0.887 -1.2185  0.5307 -0.5161
  677SOL    HW1 2030   1.797   0.693   0.938  0.3620  1.5342 -0.9597
  677SOL    HW2 2031   1.962   0.649   0.943 -4.0097 -0.0809 -0.1833
  678SOL     OW 2032   0.109   0.809   1.643 -0.4947  0.5208  0.1103
  678SOL    HW1 2033   0.211   0.814   1.662  0.0122  2.6247 -0.2492
  678SOL    HW2 2034   0.048   0.784   1.724  0.4273 -1.2592  0.0460
  679SOL     OW 2035   2.566   1.102   1.217  0.0840  0.1060 -0.1473
  679SOL    HW1 2036   2.467   1.135   1.223 -2.9383  0.2027 -0.0650
  679SOL    HW2 2037   2.575   1.000   1.214 -0.7102  1.7747  2.1014
  680SOL     OW 2038   2.830   0.518   1.670 -0.4393  0.1341  0.1693
  680SOL    HW1 2039   2.799   0.579   1.590 -0.6080 -0.1323  0.3991
  680SOL    HW2 2040   2.898   0.566   1.732 -0.5562 -0.1462  0.6012
  681SOL     OW 2041   3.011   0.106   1.574 -0.2604 -1.5707 -0.2162
  681SOL    HW1 2042   3.005   0.055   1.486  3.4407  1.5733 -0.1988
  681SOL    HW2 2043   2.935   0.179   1.581  3.5643 -0.4214  0.9732
  682SOL     OW 2044   0.607   0.100   1.296 -0.3570 -0.0276 -0.5828
  682SOL    HW1 2045   0.555   0.034   1.362 -2.2762 -3.4434 -1.0226
  682SOL    HW2 2046   0.695   0.056   1.263  0.8039  0.8037  0.4859
  683SOL     OW 2047   1.360   0.248   2.187 -0.2770 -0.1018  0.1876
  683SOL    HW1 2048   1.386   0.284   2.280  0.6805 -1.4643  0.9710
  683SOL    HW2 2049   1.443   0.252   2.116  3.9028 -0.0103 -0.2673
  684SOL     OW 2050   1.379   2.165   0.576 -0.1312  0.1591  0.0047
  684SOL    HW1 2051   1.411   2.112   0.656 -1.2272 -0.9697 -2.3148
  684SOL    HW2 2052   1.287   2.129   0.545  0.6234  0.5244  0.2091
  685SOL     OW 2053   2.263   2.081   1.979 -0.2470  0.0486 -0.2555
  685SOL    HW1 2054   2.325   1.999   1.966  1.7466  3.2642  1.9038
  685SOL    HW2 2055   2.263   2.108   2.080 -0.4260 -1.6690 -0.5711
  686SOL     OW 2056   1.544   1.838   2.898 -0.5578  0.2301  0.1139
  686SOL    HW1 2057   1.539   1.776   2.983  0.1283  0.6513  0.6308
  686SOL    HW2 2058   1.448   1.858   2.868 -1.9211 -0.4087 -0.1797
  687SOL     OW 2059   1.408   2.430   1.979  0.2057  0.5482 -0.2314
  687SOL    HW1 2060   1.396   2.329   1.955 -2.8495  0.3874 -2.5349
  687SOL    HW2 2061   1.388   2.449   2.082 -2.0501  2.0002 -1.6213
  688SOL     OW 2062   2.052   1.507   1.712 -0.0353  0.0738  0.0636
  688SOL    HW1 2063   2.133   1.574   1.704 -0.0296  2.7205 -0.0593
  688SOL    HW2 2064   2.004   1.497   1.619  0.2430  2.6808  0.0191
  689SOL     OW 2065   2.316   1.111   2.804  0.9857  0.2636  0.0944
  689SOL    HW1 2066   2.240   1.043   2.784 -0.2612  2.9155 -0.1937
  689SOL    HW2 2067   2.371   1.074   2.881 -0.5525  0.0295 -2.1840
  690SOL     OW 2068   2.232   2.780   0.015 -0.2977 -0.3517  0.4833
  690SOL    HW1 2069   2.165   2.832  -0.036  1.2489  0.9724  0.1169
  690SOL    HW2 2070   2.184   2.746   0.100  0.8820 -2.5408 -2.0170
  691SOL     OW 2071   2.583   0.408   2.097 -0.0383 -0.0073  0.0944
  691SOL    HW1 2072   2.605   0.319   2.045  1.9631 -1.9548 -0.8643
  691SOL    HW2 2073   2.611   0.494   2.047 -0.9272  1.7815  0.0835
  692SOL     OW 2074   2.661   1.233   0.721  0.1461 -0.3222  0.3553
  692SOL    HW1 2075   2.604   1.268   0.643 -1.0069 -0.7565  0.3655
  692SOL    HW2 2076   2.696   1.313   0.781 -0.9129  2.1606  3.4970
  693SOL     OW 2077   2.902   2.909   0.667 -0.2186 -0.1175 -0.3063
  693SOL    HW1 2078   2.885   2.989   0.733 -0.4046 -1.1448 -0.4452
  693SOL    HW2 2079   2.896   2.937   0.564 -1.9426 -1.6483 -1.2904
  694SOL     OW 2080   2.392   2.275   0.113  0.1563  0.1812  0.1784
  694SOL    HW1 2081   2.406   2.344   0.189 -0.5737 -0.2923  0.9998
  694SOL    HW2 2082   2.313   2.205   0.137 -0.7242  0.8958  3.0519
  695SOL     OW 2083   0.501   3.013   1.466  0.0529  0.1007 -0.5480
  695SOL    HW1 2084   0.432   2.959   1.409 -0.0358 -3.0572 -1.4282
  695SOL    HW2 2085   0.452   3.048   1.548  1.0765  2.9954 -1.1806
  696SOL     OW 2086   2.743   1.988   0.765  0.3511 -0.0381  0.2557
  696SOL    HW1 2087   2.824   1.921   0.775  2.6707  0.6513  2.4100
  696SOL    HW2 2088   2.682   1.973   0.677 -0.3168 -0.8623 -2.8003
  697SOL     OW 2089   1.697   1.858   1.849  0.5877 -0.5141  0.3754
  697SOL    HW1 2090   1.799   1.834   1.863  1.4373  2.2036 -3.4640
  697SOL    HW2 2091   1.678   1.959   1.849 -0.7708 -1.1944 -0.3377
  698SOL     OW 2092   2.912   0.396   2.704 -0.3199 -0.1959 -0.6075
  698SOL    HW1 2093   2.930   0.375   2.605  1.4740 -1.0474  0.1186
  698SOL    HW2 2094   2.963   0.329   2.767 -1.0660  0.7519  0.6461
  699SOL     OW 2095   1.650   0.119   2.921  0.6329 -0.1779  0.2090
  699SOL    HW1 2096   1.583   0.049   2.884 -2.6607  0.9734  0.9547
  699SOL    HW2 2097   1.706   0.172   2.851  2.5542 -1.4529  0.5445
  700SOL     OW 2098   0.990   2.279   1.359  0.5666  0.1744  0.0717
  700SOL    HW1 2099   1.048   2.198   1.360 -3.7475 -1.7788 -0.6129
  700SOL    HW2 2100   0.890   2.249   1.346  2.9591 -1.7658  1.0205
  701SOL     OW 2101   1.871   2.900   0.020  0.4313 -0.2830  0.4748
  701SOL    HW1 2102   1.853   2.850   0.110 -1.0066 -0.0581 -2.1802
  701SOL    HW2 2103   1.927   2.982   0.044  1.2216 -0.3997 -1.4389
  702SOL     OW 2104   2.108   1.372   1.948 -0.2124  0.2168  0.3177
  702SOL    HW1 2105   2.186   1.303   1.931  0.8691 -1.4088  0.5708
  702SOL    HW2 2106   2.067   1.408   1.857  0.9933  2.4489 -1.1705
  703SOL     OW 2107   1.981   0.931   1.443  0.2845  0.1938  0.2229
  703SOL    HW1 2108   1.940   0.843   1.484  1.1536 -0.9325  1.1616
  703SOL    HW2 2109   2.051   0.969   1.511  0.6108 -0.0373 -1.1503
  704SOL     OW 2110   0.336   2.067   1.711 -0.0722  0.0465  0.3422
  704SOL    HW1 2111   0.361   2.046   1.810 -1.8270 -0.1352 -0.7049
  704SOL    HW2 2112   0.399   2.140   1.669  1.7443  1.4887  0.8331
  705SOL     OW 2113   2.477   1.410   0.929  0.1519  0.0116 -0.1271
  705SOL    HW1 2114   2.435   1.342   0.865 -1.0946  0.6077 -0.2042
  705SOL    HW2 2115   2.577   1.426   0.907 -0.6307 -0.8326 -0.9760
  706SOL     OW 2116   0.534   1.725   1.790  0.2077 -0.0757 -0.3534
  706SOL    HW1 2117   0.562   1.780   1.713  2.1489  0.3212 -0.5957
  706SOL    HW2 2118   0.612   1.669   1.831 -1.2447  1.9243  2.2881
  707SOL     OW 2119   2.317   1.182   1.874 -0.0161  0.3504  0.6309
  707SOL    HW1 2120   2.401   1.180   1.935  3.0008 -1.4365 -2.8814
  707SOL    HW2 2121   2.261   1.090   1.875 -2.3333  0.3213  1.2397
  708SOL     OW 2122   3.030   0.542   2.982 -0.1092 -0.5042  0.6818
  708SOL    HW1 2123   3.104   0.611   2.965  1.6885  2.5033 -0.6204
  708SOL    HW2 2124   3.034   0.453   2.923  2.7399 -2.5921 -0.7993
  709SOL     OW 2125   1.845   1.911   0.436  0.5231  0.2912 -0.1144
  709SOL    HW1 2126   1.868   2.010   0.456 -0.8457  0.2986 -0.1713
  709SOL    HW2 2127   1.834   1.892   0.333 -1.5543  1.7044  1.3451
  710SOL     OW 2128   1.749   1.550   2.426  0.0147 -0.2042  0.4642
  710SOL    HW1 2129   1.824   1.487   2.399 -0.4159 -1.6151  1.9061
  710SOL    HW2 2130   1.730   1.547   2.531  0.4333 -1.4490 -0.7725
  711SOL     OW 2131   2.712   2.844   0.979 -0.7070  0.1725 -0.3571
  711SOL    HW1 2132   2.667   2.935   0.944 -2.5459  1.9497 -0.2041
  711SOL    HW2 2133   2.803   2.860   1.030  1.0190  1.0292  2.0874
  712SOL     OW 2134   1.341   2.179   1.925  0.5610 -1.0370  0.2382
  712SOL    HW1 2135   1.391   2.153   1.833  2.9278  0.0768  0.4355
  712SOL    HW2 2136   1.237   2.179   1.918  0.0853 -2.9560 -0.2418
  713SOL     OW 2137   2.792   1.454   2.541 -0.2540 -0.5007  0.0103
  713SOL    HW1 2138   2.782   1.349   2.543  2.9273  0.9548 -1.3458
  713SOL    HW2 2139   2.722   1.502   2.599 -1.2349 -0.8885 -1.7286
  714SOL     OW 2140   2.663   0.428   2.342 -0.3385  0.2147 -0.2091
  714SOL    HW1 2141   2.623   0.375   2.423  1.1168  4.6853 -0.6017
  714SOL    HW2 2142   2.624   0.410   2.250  0.9556  1.6912  1.4005
  715SOL     OW 2143   1.623   2.180   1.179  0.8140 -0.4721  0.1464
  715SOL    HW1 2144   1.522   2.211   1.164  1.1389  0.2345 -2.3614
  715SOL    HW2 2145   1.629   2.131   1.268  0.8917 -0.1437 -1.2587
  716SOL     OW 2146   1.252   0.123   1.533  0.2722 -0.4154  0.6169
  716SOL    HW1 2147   1.153   0.136   1.492 -0.9367  0.2300 -1.0614
  716SOL    HW2 2148   1.320   0.193   1.486  1.0150  0.8809  0.5939
  717SOL     OW 2149   1.170   0.591   1.622  0.1211 -0.1918 -0.0513
  717SOL    HW1 2150   1.260   0.631   1.648 -0.0034  2.2495  2.5303
  717SOL    HW2 2151   1.155   0.580   1.520  1.0283 -1.4210  1.4925
  718SOL     OW 2152   0.661   0.889   0.966 -0.7694 -0.0340 -0.3279
  718SOL    HW1 2153   0.643   0.894   0.862 -2.4450 -1.4714  0.1930
  718SOL    HW2 2154   0.669   0.983   1.011  2.2231 -1.3758  1.2263
  719SOL     OW 2155   0.737   1.736   2.279 -0.0853 -0.4810 -0.1557
  719SOL    HW1 2156   0.785   1.747   2.370  0.5202 -0.3151  1.2961
  719SOL    HW2 2157   0.674   1.650   2.270  0.0734  0.2241 -1.4364
  720SOL     OW 2158   2.174   1.204   0.279 -0.8157 -0.6200  0.2920
  720SOL    HW1 2159   2.263   1.161   0.241  0.9670 -0.1669  0.3941
  720SOL    HW2 2160   2.157   1.166   0.376  0.5532 -2.1034  2.8458
  721SOL     OW 2161   2.230   2.923   2.120 -0.1387  0.0535  0.7573
  721SOL    HW1 2162   2.244   2.912   2.020  1.0608 -1.4967 -0.6356
  721SOL    HW2 2163   2.126   2.932   2.142 -1.8776  1.5153  2.1235
  722SOL     OW 2164   2.333   1.691   0.566 -0.4363 -0.3167 -0.4697
  722SOL    HW1 2165   2.403   1.703   0.488  0.0908  0.0512 -0.4854
  722SOL    HW2 2166   2.244   1.736   0.540  2.3842 -0.3698  1.1926
  723SOL     OW 2167   2.610   2.760   1.951  0.6278  0.5033  0.1567
  723SOL    HW1 2168   2.655   2.841   1.997 -0.4294 -0.8327  1.1524
  723SOL    HW2 2169   2.519   2.724   1.991  0.9137 -1.3015 -1.2085
  724SOL     OW 2170   0.383   2.518   2.422  0.4570  0.0953 -0.6146
  724SOL    HW1 2171   0.277   2.531   2.412 -0.6321  2.0560  0.6587
  724SOL    HW2 2172   0.406   2.481   2.512 -0.1734  0.5091 -1.5395
  725SOL     OW 2173   2.439   2.820   1.490  0.2241  0.4335 -1.0090
  725SOL    HW1 2174   2.491   2.827   1.407  0.6204 -1.4206 -1.6446
  725SOL    HW2 2175   2.423   2.718   1.515  3.8145 -0.1792  0.8175
  726SOL     OW 2176   2.478   2.328   0.734  0.5021  0.3322 -0.3101
  726SOL    HW1 2177   2.480   2.427   0.698 -0.7125 -0.1855 -0.4789
  726SOL    HW2 2178   2.441   2.262   0.659 -2.3076 -0.3535 -2.4065
  727SOL     OW 2179   0.116   3.087   0.128  0.2660 -0.0155 -0.1073
  727SOL    HW1 2180   0.217   3.110   0.110 -3.5984  2.1838 -2.0060
  727SOL    HW2 2181   0.073   3.039   0.048  1.4068 -0.4810  0.9447
  728SOL     OW 2182   2.942   0.739   0.939 -0.2786  0.2094  0.6673
  728SOL    HW1 2183   2.873   0.733   0.861 -0.3623  2.1860 -0.6150
  728SOL    HW2 2184   2.932   0.669   1.018 -2.7712 -2.4076  0.9016
  729SOL     OW 2185   0.011   2.528   0.781  0.2316  0.4052 -0.0381
  729SOL    HW1 2186   0.075   2.493   0.856 -0.5774  2.4400 -1.6320
  729SOL    HW2 2187   0.058   2.545   0.690 -1.9511  0.0617  0.9895
  730SOL     OW 2188   2.572   0.732   0.925 -0.7308 -0.2209 -0.3202
  730SOL    HW1 2189   2.531   0.825   0.900  1.0923 -0.0392 -0.1537
  730SOL    HW2 2190   2.641   0.703   0.853  2.1096  0.7468  1.4836
  731SOL     OW 2191   3.092   2.235   2.337 -0.0496  0.0283  0.7406
  731SOL    HW1 2192   3.034   2.250   2.419 -1.5905 -0.6173 -0.0286
  731SOL    HW2 2193   3.041   2.278   2.256  0.5831  0.2564 -0.2553
  732SOL     OW 2194   1.336   2.742   1.980 -0.2860  0.4704  0.2331
  732SOL    HW1 2195   1.393   2.662   2.012 -1.8944 -2.4036 -0.1055
  732SOL    HW2 2196   1.279   2.719   1.894  1.4761 -0.1086 -1.2520
  733SOL     OW 2197   3.099   0.649   2.231  0.3216 -0.1008  0.1110
  733SOL    HW1 2198   3.164   0.708   2.173  0.2285 -0.2492 -0.7578
  733SOL    HW2 2199   3.052   0.578   2.169 -0.0325 -1.8614  0.4615
  734SOL     OW 2200   1.511   0.398   2.717 -0.4937 -0.6980 -0.3441
  734SOL    HW1 2201   1.495   0.500   2.726 -0.1284 -2.0170  1.5194
  734SOL    HW2 2202   1.439   0.333   2.757  1.1116 -0.5985  1.0095
  735SOL     OW 2203   2.879   2.676   2.327  0.4260 -0.3307  0.2048
  735SOL    HW1 2204   2.859   2.636   2.232  0.0292 -0.5125  1.3254
  735SOL    HW2 2205   2.959   2.735   2.331 -2.5801 -0.2140  2.0432
  736SOL     OW 2206   0.882   0.413   2.522  0.6331 -0.0583  0.1991
  736SOL    HW1 2207   0.779   0.422   2.527  0.4427 -0.9516 -0.4552
  736SOL    HW2 2208   0.909   0.346   2.444 -1.4868 -1.2741 -0.7343
  737SOL     OW 2209   2.682   0.481   2.794 -0.1584  0.1770 -0.0793
  737SOL    HW1 2210   2.657   0.436   2.881  1.6146  2.8440  1.2739
  737SOL    HW2 2211   2.777   0.461   2.755 -2.9577  0.5398  0.0451
  738SOL     OW 2212   1.767   1.239   2.859 -0.0125  0.0312  0.1006
  738SOL    HW1 2213   1.867   1.221   2.824  0.9141 -2.0471  1.6771
  738SOL    HW2 2214   1.697   1.170   2.827  0.7304 -1.0888 -0.7803
  739SOL     OW 2215   1.846   0.724   0.622  0.1270 -0.5939  0.0288
  739SOL    HW1 2216   1.867   0.711   0.728 -0.8380  0.8140  0.0061
  739SOL    HW2 2217   1.806   0.641   0.587  2.0042 -2.6323  0.7147
  740SOL     OW 2218   1.979   1.921   2.352 -0.2246  0.5594 -0.2490
  740SOL    HW1 2219   2.028   1.831   2.390 -0.7474 -0.1140  2.9665
  740SOL    HW2 2220   1.918   1.898   2.274 -3.8789  2.1112 -1.4650
  741SOL     OW 2221   2.546   0.112   2.455 -0.2047 -0.0388  0.0444
  741SOL    HW1 2222   2.647   0.125   2.436  1.0332 -0.8442 -0.5359
  741SOL    HW2 2223   2.492   0.111   2.368  1.5378 -1.6299 -0.1831
  742SOL     OW 2224   2.202   1.463   0.188 -0.0060  0.2289 -0.0786
  742SOL    HW1 2225   2.122   1.518   0.146  1.3391  0.5378  0.4145
  742SOL    HW2 2226   2.177   1.368   0.223  0.7776  0.2983 -1.0532
  743SOL     OW 2227   1.768   0.644   2.554  0.5212 -0.0616  0.0914
  743SOL    HW1 2228   1.732   0.586   2.477  1.3627 -1.8642  2.1515
  743SOL    HW2 2229   1.698   0.651   2.627  0.0886 -1.7442 -0.1933
  744SOL     OW 2230   2.699   2.132   0.179 -1.0416 -0.1481 -0.4891
  744SOL    HW1 2231   2.653   2.169   0.263 -3.4788 -2.5888 -0.4711
  744SOL    HW2 2232   2.698   2.032   0.173 -0.8210  3.0564  0.1561
  745SOL     OW 2233   2.219   2.506   2.215 -0.6045 -0.3523 -0.2092
  745SOL    HW1 2234   2.146   2.538   2.153 -0.6381  0.5057  2.5258
  745SOL    HW2 2235   2.196   2.512   2.318 -1.0617 -1.3899  0.7898
  746SOL     OW 2236   3.082   2.544   1.794  0.1295  0.3122 -0.1623
  746SOL    HW1 2237   3.159   2.490   1.755  0.1320  0.5757 -1.1321
  746SOL    HW2 2238   3.101   2.645   1.814  2.1243  0.0239  1.8683
  747SOL     OW 2239   3.085   1.795   1.667  0.0618 -1.0165 -0.0495
  747SOL    HW1 2240   3.054   1.700   1.652  1.0926  2.0399  1.3893
  747SOL    HW2 2241   3.166   1.828   1.610 -2.5489  5.2699 -0.7728
  748SOL     OW 2242   1.823   2.683   2.947 -0.1882  0.4675 -0.2632
  748SOL    HW1 2243   1.807   2.766   3.001  2.9392  1.6531 -0.8423
  748SOL    HW2 2244   1.753   2.675   2.878  0.9591 -1.8288  3.2214
  749SOL     OW 2245   1.275   2.889   0.816 -0.1284  0.5910  0.0343
  749SOL    HW1 2246   1.190   2.925   0.782 -2.4312  2.4256 -1.4277
  749SOL    HW2 2247   1.363   2.944   0.789  1.2300 -0.4340  0.0461
  750SOL     OW 2248   2.274   0.225   1.848  0.4428  0.3764  0.5340
  750SOL    HW1 2249   2.311   0.287   1.765  0.6494 -1.1951 -2.9158
  750SOL    HW2 2250   2.269   0.278   1.938 -0.8343  0.1474  0.0581
  751SOL     OW 2251   0.819   2.120   2.912 -0.2127  0.7586  0.4091
  751SOL    HW1 2252   0.906   2.088   2.964 -0.6526 -1.2806 -2.8999
  751SOL    HW2 2253   0.734   2.077   2.952  0.1115 -1.1578  0.2983
  752SOL     OW 2254   1.347   0.775   1.141  0.7809  0.6006 -0.5443
  752SOL    HW1 2255   1.381   0.871   1.166  0.2228  0.7387  1.2303
  752SOL    HW2 2256   1.389   0.701   1.199 -1.4929 -0.1927  2.6647
  753SOL     OW 2257   1.002   2.553   1.829 -0.2341  0.6791 -0.4014
  753SOL    HW1 2258   1.106   2.560   1.797  4.0395 -0.2263 -2.2656
  753SOL    HW2 2259   0.955   2.651   1.834 -0.3280  5.5103 -0.8859
  754SOL     OW 2260   1.136   1.214   2.997 -0.0797 -0.8703 -0.2292
  754SOL    HW1 2261   1.201   1.138   2.976 -0.9516 -1.4767  1.4419
  754SOL    HW2 2262   1.182   1.306   3.004  0.2980 -2.8424 -0.6926
  755SOL     OW 2263   1.934   0.490   2.189 -0.0207 -0.1990  0.1075
  755SOL    HW1 2264   1.992   0.402   2.203 -3.7150 -0.2719 -0.3466
  755SOL    HW2 2265   1.858   0.485   2.252  4.1589  0.5739  0.9208
  756SOL     OW 2266   2.505   0.979   2.973  0.1813 -0.1518 -0.3063
  756SOL    HW1 2267   2.603   0.944   2.975 -0.0831  1.8082 -0.3071
  756SOL    HW2 2268   2.443   0.911   3.016 -1.3987  1.4136 -0.9552
  757SOL     OW 2269   0.126   0.416   1.958 -0.2618  0.3420 -0.1534
  757SOL    HW1 2270   0.156   0.321   1.939  1.8115 -1.2691  3.8898
  757SOL    HW2 2271   0.074   0.427   2.051  0.1552 -1.7712  0.4285
  758SOL     OW 2272   2.323   0.080   1.410 -0.1761 -0.0315  0.1264
  758SOL    HW1 2273   2.260   0.030   1.476 -1.2707 -1.6900  1.0209
  758SOL    HW2 2274   2.320   0.049   1.310 -1.7974  1.0570 -0.2471
  759SOL     OW 2275   1.728   0.121   0.090  0.1756  0.0728 -0.3617
  759SOL    HW1 2276   1.696   0.119  -0.011 -1.3544 -0.8181  0.7310
  759SOL    HW2 2277   1.828   0.099   0.106 -2.5087 -0.0325  1.7960
  760SOL     OW 2278   2.711   2.095   2.821  0.2536 -0.8211  0.5841
  760SOL    HW1 2279   2.676   2.172   2.882  0.4767 -0.8067 -0.5692
  760SOL    HW2 2280   2.809   2.112   2.801 -1.8653  1.0137 -0.2971
  761SOL     OW 2281   1.950   1.777   1.733 -0.2341 -0.1785 -0.9407
  761SOL    HW1 2282   1.999   1.697   1.775 -0.3193 -0.8675 -1.1209
  761SOL    HW2 2283   1.892   1.755   1.648  2.4217 -2.0618 -3.0989
  762SOL     OW 2284   0.506   2.389   0.930  0.2018  0.2140  0.2308
  762SOL    HW1 2285   0.563   2.392   0.843  0.8613 -1.4597 -0.6290
  762SOL    HW2 2286   0.564   2.419   1.013  2.6911  2.2591  1.0960
  763SOL     OW 2287   2.127   1.610   2.991 -0.3014 -0.1547  0.6646
  763SOL    HW1 2288   2.229   1.590   3.017  0.0940 -0.0867  0.6610
  763SOL    HW2 2289   2.060   1.544   3.028  1.1998  0.0018 -0.9443
  764SOL     OW 2290   0.659   0.568   0.640 -0.0489 -0.0421 -0.4388
  764SOL    HW1 2291   0.575   0.515   0.625  1.9974 -0.0834 -0.3237
  764SOL    HW2 2292   0.713   0.533   0.721 -1.2241  1.1504 -3.2617
  765SOL     OW 2293   0.828   0.264   0.731  0.2054  0.2817 -0.5871
  765SOL    HW1 2294   0.844   0.261   0.632 -0.0071  4.0131 -0.9774
  765SOL    HW2 2295   0.838   0.366   0.768 -2.8518 -2.1747  2.7442
  766SOL     OW 2296   2.899   2.206   3.055 -0.0497 -0.5858 -0.0381
  766SOL    HW1 2297   2.814   2.183   3.109  1.5663  1.9909 -0.6700
  766SOL    HW2 2298   2.938   2.300   3.080 -1.9673  1.0886 -0.5954
  767SOL     OW 2299   2.841   1.621   0.517 -0.3031 -0.1824  0.7405
  767SOL    HW1 2300   2.777   1.608   0.599  1.6418 -0.3310  1.6837
  767SOL    HW2 2301   2.927   1.677   0.539 -0.6084  0.9223 -2.1796
  768SOL     OW 2302   1.025   0.223   0.188  0.2045 -0.1395 -0.1903
  768SOL    HW1 2303   1.005   0.297   0.259 -0.9304  0.1596 -1.0749
  768SOL    HW2 2304   1.112   0.171   0.211 -0.7508  2.2302 -1.1228
  769SOL     OW 2305   1.132   1.797   2.279 -0.3781  0.2506 -0.1221
  769SOL    HW1 2306   1.041   1.824   2.308  0.0816  1.4336  0.5316
  769SOL    HW2 2307   1.204   1.794   2.358 -0.4966 -0.0036  3.0277
  770SOL     OW 2308   0.195   1.154   2.284  0.1425 -0.0600 -0.0843
  770SOL    HW1 2309   0.179   1.231   2.355 -1.4987 -0.6835  1.0470
  770SOL    HW2 2310   0.106   1.106   2.272  3.2386 -0.7333 -1.1559
  771SOL     OW 2311   3.073   2.804   1.898 -0.3588 -0.1991  0.2093
  771SOL    HW1 2312   3.004   2.840   1.831  1.6947 -0.1338  1.1576
  771SOL    HW2 2313   3.067   2.859   1.988  1.5832 -1.9431  0.1190
  772SOL     OW 2314   2.350   0.210   2.836  0.3525  0.0594 -0.3741
  772SOL    HW1 2315   2.409   0.135   2.798 -1.0095  1.8295  1.6092
  772SOL    HW2 2316   2.345   0.205   2.937  0.0293 -2.3619  0.1860
  773SOL     OW 2317   0.577   2.090   2.430  0.0470  0.5886 -0.6234
  773SOL    HW1 2318   0.508   2.151   2.372 -2.0085  1.4788 -1.1588
  773SOL    HW2 2319   0.542   2.054   2.521 -0.1260 -3.3674  0.4589
  774SOL     OW 2320   2.104   0.007   2.642 -0.2545 -0.0060  0.0262
  774SOL    HW1 2321   2.123   0.112   2.648 -0.0413  0.4729 -1.6420
  774SOL    HW2 2322   2.173  -0.059   2.683  2.9067 -0.6479 -3.3791
  775SOL     OW 2323   2.528   2.870   2.282  0.2741  0.2037 -0.5063
  775SOL    HW1 2324   2.436   2.899   2.315 -0.3995  1.9562  2.3445
  775SOL    HW2 2325   2.602   2.859   2.359  1.4015 -1.7765 -1.9468
  776SOL     OW 2326   0.014   1.221   0.187 -0.0433 -0.3708  0.0662
  776SOL    HW1 2327  -0.045   1.194   0.108  3.0928 -0.9270  1.3505
  776SOL    HW2 2328  -0.039   1.236   0.276  2.2688  1.7155  1.6625
  777SOL     OW 2329   0.379   2.999   0.497 -0.7713 -0.5000 -0.1154
  777SOL    HW1 2330   0.284   3.000   0.454  1.8024  0.6119 -0.2409
  777SOL    HW2 2331   0.421   2.906   0.520 -0.7845  2.1900  0.5725
  778SOL     OW 2332   1.345   2.000   0.269  0.8673 -0.1479  0.3345
  778SOL    HW1 2333   1.279   2.065   0.321 -1.3689  1.0209 -1.2099
  778SOL    HW2 2334   1.368   2.044   0.176  0.8095  1.2199  1.9588
  779SOL     OW 2335   0.140   0.802   0.494  0.3824  0.7203 -0.3315
  779SOL    HW1 2336   0.075   0.717   0.483 -0.1772 -0.1686 -0.1294
  779SOL    HW2 2337   0.089   0.887   0.523 -0.7160  2.2463  0.9923
  780SOL     OW 2338   0.123   0.343   2.345 -0.5657  0.2187  0.0670
  780SOL    HW1 2339   0.112   0.429   2.400  0.5108 -0.6508  0.4656
  780SOL    HW2 2340   0.219   0.331   2.307 -2.1314 -0.7956  0.6061
  781SOL     OW 2341   0.697   1.662   1.540 -0.2148  0.1655  0.3157
  781SOL    HW1 2342   0.734   1.581   1.600 -0.0012  0.8781  1.0174
  781SOL    HW2 2343   0.597   1.649   1.516  0.1704 -2.4631  0.8738
  782SOL     OW 2344   2.609   3.097   0.891 -0.2147 -0.0602  0.3689
  782SOL    HW1 2345   2.551   3.109   0.805  0.9362 -0.7097 -2.0137
  782SOL    HW2 2346   2.555   3.117   0.982 -0.5518  0.4022  1.0946
  783SOL     OW 2347   2.713   0.701   2.412 -0.4291 -0.0331  0.0713
  783SOL    HW1 2348   2.713   0.718   2.516  3.0033  0.1598  0.0682
  783SOL    HW2 2349   2.696   0.601   2.387 -1.8276  0.3370 -2.7100
  784SOL     OW 2350   1.432   2.121   0.048 -0.1169 -0.7575 -0.3088
  784SOL    HW1 2351   1.498   2.189   0.094  1.0321  0.6255  3.0474
  784SOL    HW2 2352   1.413   2.142  -0.049 -1.1664  0.8358  0.6114
  785SOL     OW 2353   2.101   0.294   0.032 -0.0485 -0.4630 -0.2381
  785SOL    HW1 2354   2.003   0.304   0.065  0.0927  2.4094 -0.6541
  785SOL    HW2 2355   2.143   0.382  -0.013  0.3064  0.6484 -0.4946
  786SOL     OW 2356   2.042   2.190   2.286 -0.0397  0.4315  0.1680
  786SOL    HW1 2357   2.024   2.089   2.303 -2.1805 -1.8974  0.4564
  786SOL    HW2 2358   2.148   2.208   2.286 -1.0099 -0.8315 -0.9069
  787SOL     OW 2359   1.424   0.529   0.895  0.2930  0.1926  0.2505
  787SOL    HW1 2360   1.339   0.588   0.886  1.8719  0.4381  1.5686
  787SOL    HW2 2361   1.458   0.481   0.805  0.0162 -0.7220  0.8949
  788SOL     OW 2362   1.225   0.439   0.003 -0.4358  0.2671  0.3442
  788SOL    HW1 2363   1.142   0.383  -0.023  1.1438 -0.6861 -2.4394
  788SOL    HW2 2364   1.200   0.520   0.061  0.4933 -1.6988  0.3912
  789SOL     OW 2365   2.574   0.110   1.967 -0.1538  0.3678 -0.2605
  789SOL    HW1 2366   2.526   0.038   1.901  0.1149  1.4208 -1.9013
  789SOL    HW2 2367   2.645   0.065   2.032 -0.3959 -0.3717 -0.6027
  790SOL     OW 2368   2.604   2.820   0.712  0.5634 -0.2141  0.2250
  790SOL    HW1 2369   2.688   2.848   0.667  0.0321  0.5220  0.7722
  790SOL    HW2 2370   2.615   2.821   0.817  0.6073  1.1559 -1.6140
  791SOL     OW 2371   1.928   1.192   0.124 -0.0964  0.2418 -0.7194
  791SOL    HW1 2372   1.846   1.149   0.169  0.3079  1.9898 -0.8126
  791SOL    HW2 2373   2.019   1.173   0.161 -3.0806 -2.3617  0.5926
  792SOL     OW 2374   0.456   1.878   2.214 -0.5261 -0.8450 -0.5001
  792SOL    HW1 2375   0.484   1.925   2.303 -1.3748  1.0676 -0.7873
  792SOL    HW2 2376   0.439   1.773   2.213  0.3029 -0.6089 -0.0188
  793SOL     OW 2377   2.102   1.616   2.081 -0.2663  0.1056  0.0552
  793SOL    HW1 2378   2.173   1.686   2.072 -0.5429 -1.0311  1.6270
  793SOL    HW2 2379   2.120   1.526   2.032 -1.9648  1.7775  2.1883
  794SOL     OW 2380   0.453   1.583   2.249  0.7308 -0.3382  0.0686
  794SOL    HW1 2381   0.442   1.498   2.188 -1.9468 -1.5572  3.5027
  794SOL    HW2 2382   0.394   1.572   2.333 -2.7255 -0.1655 -0.9569
  795SOL     OW 2383   2.468   2.231   1.797 -0.0991  0.1891  0.2806
  795SOL    HW1 2384   2.483   2.219   1.898  2.8544 -0.5860 -1.6186
  795SOL    HW2 2385   2.449   2.148   1.745 -0.9600  1.1541  0.4812
  796SOL     OW 2386   3.090   1.074   2.716  0.0630 -0.4070 -0.5878
  796SOL    HW1 2387   2.991   1.082   2.746 -0.5916 -0.8303  0.6324
  796SOL    HW2 2388   3.151   1.100   2.793 -0.1508  0.8100  0.6326
  797SOL     OW 2389   0.812   0.664   1.468  0.3817 -0.7285  0.1870
  797SOL    HW1 2390   0.888   0.735   1.489 -0.0593  2.8792  0.0639
  797SOL    HW2 2391   0.746   0.705   1.396 -1.2904  0.0611  0.1044
  798SOL     OW 2392   1.370   0.481   1.176 -0.1261 -0.2515 -0.0688
  798SOL    HW1 2393   1.427   0.430   1.246 -2.6508  1.3457  0.5902
  798SOL    HW2 2394   1.396   0.466   1.078  1.0704 -1.7696  1.7804
  799SOL     OW 2395   1.942   2.639   1.058  0.0682  0.0159 -0.4021
  799SOL    HW1 2396   1.867   2.588   1.116 -0.5757  0.9455  2.2607
  799SOL    HW2 2397   1.898   2.684   0.979  0.2917  0.5432  0.1526
  800SOL     OW 2398   3.062   0.625   1.821  0.3341 -0.1231 -0.5758
  800SOL    HW1 2399   3.015   0.662   1.906  0.5582  0.5511  1.0807
  800SOL    HW2 2400   3.156   0.579   1.836  2.0577  1.6458 -0.2255
  801SOL     OW 2401   1.893   2.189   0.192 -0.0537 -0.1884 -0.0171
  801SOL    HW1 2402   1.815   2.149   0.141 -0.6071  0.6544  0.8026
  801SOL    HW2 2403   1.989   2.163   0.154  1.2770  0.1333  1.1825
  802SOL     OW 2404   0.737   0.822   2.562 -0.6615 -0.4510  0.3120
  802SOL    HW1 2405   0.794   0.792   2.477  0.0562  1.3335 -0.9292
  802SOL    HW2 2406   0.645   0.781   2.550  1.5898 -0.9767  0.9610
  803SOL     OW 2407   0.896   0.168   0.972  0.5282 -0.1051  0.3008
  803SOL    HW1 2408   0.989   0.216   0.989  0.5891  2.0812 -1.3317
  803SOL    HW2 2409   0.860   0.194   0.875 -0.8813 -0.7340 -0.9937
  804SOL     OW 2410   0.395   3.064   2.074  0.5626 -0.6301  0.3869
  804SOL    HW1 2411   0.323   3.135   2.047 -0.3226  1.1624 -0.7853
  804SOL    HW2 2412   0.355   2.966   2.071 -0.3395 -1.9059 -2.7210
  805SOL     OW 2413   2.451   0.308   0.304  0.5127  0.7021  0.2627
  805SOL    HW1 2414   2.553   0.317   0.319  0.2489 -1.1520 -0.8108
  805SOL    HW2 2415   2.410   0.258   0.221 -0.3641 -2.3266 -1.3938
  806SOL     OW 2416   0.709   2.417   1.674  0.2715  0.2035  0.0259
  806SOL    HW1 2417   0.688   2.518   1.697  0.6963 -1.7551  1.3931
  806SOL    HW2 2418   0.812   2.399   1.675 -1.4482  0.9734  0.4677
  807SOL     OW 2419   2.496   0.940   0.440  0.6962  0.4475  0.1641
  807SOL    HW1 2420   2.574   0.878   0.417  1.8276  0.9056 -0.0993
  807SOL    HW2 2421   2.459   0.979   0.350 -2.8495  1.5976  1.3086
  808SOL     OW 2422   0.587   1.980   2.996 -0.8611  0.0955 -0.5217
  808SOL    HW1 2423   0.566   2.004   3.091  1.2218  0.5031 -2.2879
  808SOL    HW2 2424   0.542   1.891   2.964 -1.5234  1.0901 -0.4522
  809SOL     OW 2425   2.691   1.997   1.917 -0.0352 -0.3614  0.1279
  809SOL    HW1 2426   2.762   2.072   1.902 -0.0958 -0.1799 -1.0202
  809SOL    HW2 2427   2.679   1.939   1.831 -0.4866  1.2794 -0.6737
  810SOL     OW 2428   2.107   1.138   0.536  0.2130 -0.1356  0.3378
  810SOL    HW1 2429   2.075   1.063   0.600 -2.2491 -3.7491  1.3468
  810SOL    HW2 2430   2.041   1.224   0.535 -1.5243  2.4225  0.0536
  811SOL     OW 2431   1.334   2.321   1.216 -0.2761  0.4601  0.0477
  811SOL    HW1 2432   1.289   2.244   1.271 -1.2700 -1.3922 -1.6566
  811SOL    HW2 2433   1.275   2.342   1.132 -3.2338  2.1850  1.2517
  812SOL     OW 2434   1.361   0.757   1.984  0.1728  0.2496 -0.1338
  812SOL    HW1 2435   1.432   0.816   2.032  2.6640 -1.5079  0.5665
  812SOL    HW2 2436   1.275   0.810   1.953 -1.0844 -2.3768 -0.5943
  813SOL     OW 2437   1.697   2.024   2.478  0.2261 -0.0969  0.8910
  813SOL    HW1 2438   1.782   1.979   2.501 -1.5663  1.8373  1.0881
  813SOL    HW2 2439   1.681   2.028   2.374 -1.6304  0.4526 -2.2367
  814SOL     OW 2440   2.870   1.575   2.908  0.4458 -0.0524 -0.2098
  814SOL    HW1 2441   2.961   1.590   2.952 -0.5947 -1.0787 -1.6044
  814SOL    HW2 2442   2.839   1.650   2.840  1.5150 -1.6048 -3.7132
  815SOL     OW 2443   2.278   2.889   2.686 -0.0715  0.0665  0.4250
  815SOL    HW1 2444   2.230   2.847   2.769 -1.4751 -1.1538  1.8196
  815SOL    HW2 2445   2.380   2.871   2.686 -1.0968 -0.9933 -0.6757
  816SOL     OW 2446   1.742   0.329   1.651 -0.1126 -0.0987  0.5697
  816SOL    HW1 2447   1.648   0.294   1.682  0.1704 -0.0213  0.8772
  816SOL    HW2 2448   1.788   0.368   1.729 -0.6244 -0.7704 -0.0432
  817SOL     OW 2449   0.475   1.219   2.473  0.2277  0.7528 -0.0036
  817SOL    HW1 2450   0.413   1.298   2.441 -3.4260  0.5976  0.8059
  817SOL    HW2 2451   0.519   1.174   2.392  1.7331  2.0520  1.2410
  818SOL     OW 2452   2.014   0.834   0.441 -0.0842  0.5472 -0.0414
  818SOL    HW1 2453   2.024   0.935   0.457 -2.5150 -1.2993 -1.3229
  818SOL    HW2 2454   1.955   0.791   0.511 -0.0985  1.5774  0.7892
  819SOL     OW 2455   2.759   2.970   3.057 -0.0056 -0.0929  0.1016
  819SOL    HW1 2456   2.814   2.891   3.026  0.7816  0.0844  2.3322
  819SOL    HW2 2457   2.669   2.980   3.001 -3.4103 -0.8165  1.8497
  820SOL     OW 2458   1.196   1.094   0.553  0.4656 -0.1374 -0.3160
  820SOL    HW1 2459   1.261   1.162   0.603 -0.0984  2.4003  0.2523
  820SOL    HW2 2460   1.181   1.001   0.597 -0.8911  0.3458  2.7757
  821SOL     OW 2461   3.072   1.289   0.652 -0.0610 -0.6415  0.3055
  821SOL    HW1 2462   3.021   1.284   0.748 -0.6534  1.8856  0.0465
  821SOL    HW2 2463   3.160   1.346   0.651  1.1282  2.6842 -0.4093
  822SOL     OW 2464   2.567   1.775   2.473  0.0028  0.1018 -0.3053
  822SOL    HW1 2465   2.537   1.866   2.516 -0.3680 -0.4542  0.1449
  822SOL    HW2 2466   2.538   1.762   2.373 -0.0933 -2.7480 -2.2308
  823SOL     OW 2467   2.027   0.894   1.177  0.7270  0.0649 -0.2501
  823SOL    HW1 2468   2.013   0.915   1.279  0.7958  0.9166  0.3115
  823SOL    HW2 2469   1.941   0.917   1.125  0.1933  0.9194  0.7241
  824SOL     OW 2470   0.191   2.054   2.721 -0.3324 -0.3743 -0.4049
  824SOL    HW1 2471   0.170   1.977   2.793  0.5607  0.1020  0.1403
  824SOL    HW2 2472   0.222   2.008   2.630  1.2104  2.0621 -1.0217
  825SOL     OW 2473   1.248   1.054   0.269 -0.0135 -0.7582 -0.1384
  825SOL    HW1 2474   1.235   1.051   0.372 -0.1260 -0.8424 -0.2568
  825SOL    HW2 2475   1.279   1.153   0.244 -2.3878  0.0188 -4.6156
  826SOL     OW 2476   1.914   0.681   1.552  0.1930 -0.3350  0.0276
  826SOL    HW1 2477   1.966   0.615   1.608 -2.8222 -0.5469  0.1401
  826SOL    HW2 2478   1.840   0.635   1.500  0.9504  1.6896 -0.2128
  827SOL     OW 2479   0.779   1.405   0.245 -0.3989  0.2570  0.0316
  827SOL    HW1 2480   0.799   1.328   0.183 -1.6445 -0.0681  0.1492
  827SOL    HW2 2481   0.757   1.368   0.342  2.1630  0.7135  1.6977
  828SOL     OW 2482   2.582   0.057   1.596  0.1435  0.0670 -0.3139
  828SOL    HW1 2483   2.507   0.075   1.526 -0.0542 -0.3213  1.9832
  828SOL    HW2 2484   2.577  -0.025   1.657  0.9990  1.0363 -0.9547
  829SOL     OW 2485   2.750   2.493   3.017  0.4901 -0.1002  0.2607
  829SOL    HW1 2486   2.711   2.401   2.988  1.6809 -1.8109 -0.0275
  829SOL    HW2 2487   2.710   2.538   3.100  2.8772 -2.3293  2.0520
  830SOL     OW 2488   2.780   0.927   2.984 -0.1606 -0.0646  0.3243
  830SOL    HW1 2489   2.837   0.990   3.039  2.0451 -0.2699 -2.4937
  830SOL    HW2 2490   2.775   0.833   3.021 -0.4940  1.8010 -0.6872
  831SOL     OW 2491   3.086   0.587   0.387 -0.6677 -0.2582 -0.1149
  831SOL    HW1 2492   3.052   0.533   0.467  1.1370 -2.7893  0.9847
  831SOL    HW2 2493   3.110   0.525   0.303  1.0449  0.4993 -0.9883
  832SOL     OW 2494   1.805   0.751   3.056 -0.1528  0.2017 -0.2964
  832SOL    HW1 2495   1.729   0.815   3.026  0.5218 -0.3886 -0.1196
  832SOL    HW2 2496   1.773   0.653   3.057  1.1232 -1.4984  0.3511
  833SOL     OW 2497   2.434   2.123   0.562  0.5959 -0.2263 -0.6984
  833SOL    HW1 2498   2.336   2.138   0.531  2.8746  1.0269 -2.0989
  833SOL    HW2 2499   2.462   2.025   0.532 -0.1304  0.4427 -0.8359
  834SOL     OW 2500   0.057   0.228   0.678  0.2649 -0.0878 -0.7682
  834SOL    HW1 2501   0.044   0.158   0.749  2.5209  3.1321 -0.0935
  834SOL    HW2 2502   0.141   0.219   0.614  0.6244  3.1314 -0.9724
  835SOL     OW 2503   2.438   1.464   1.181 -0.7115  0.1101  0.1846
  835SOL    HW1 2504   2.514   1.498   1.238  0.9513 -0.5596 -0.3716
  835SOL    HW2 2505   2.455   1.453   1.074 -0.9017 -0.9617 -0.6583
  836SOL     OW 2506   1.538   0.863   2.591 -0.4594 -0.1745  0.0066
  836SOL    HW1 2507   1.436   0.858   2.586 -0.6726  1.2800 -0.2506
  836SOL    HW2 2508   1.578   0.865   2.497  0.2596  0.3277  0.9177
  837SOL     OW 2509   1.522   0.060   0.483  0.0790 -0.7239  0.5892
  837SOL    HW1 2510   1.530   0.163   0.472 -0.2105  1.4866 -0.3687
  837SOL    HW2 2511   1.530   0.014   0.390  2.2548  2.3389  0.0129
  838SOL     OW 2512   1.322   1.608   2.678 -0.4900 -0.2529  0.3002
  838SOL    HW1 2513   1.383   1.546   2.735 -1.4682 -1.0240 -0.9826
  838SOL    HW2 2514   1.232   1.566   2.643 -0.9361 -2.8326  0.2321
  839SOL     OW 2515   1.605   0.252   0.983 -0.2399  0.2486  0.1713
  839SOL    HW1 2516   1.646   0.316   1.053 -0.6409 -1.8873  0.5389
  839SOL    HW2 2517   1.568   0.161   1.026  1.7374 -0.3089 -0.3658
  840SOL     OW 2518   2.558   2.912   1.723 -0.4573  0.4149  0.5685
  840SOL    HW1 2519   2.542   2.851   1.639  2.6275  2.5374 -4.1248
  840SOL    HW2 2520   2.566   2.844   1.807  2.0251 -1.4553  0.4821
  841SOL     OW 2521   1.583   0.924   3.038  0.2085  0.0624 -0.1434
  841SOL    HW1 2522   1.491   0.915   3.085  4.4667  1.4956  0.0403
  841SOL    HW2 2523   1.576   0.992   2.956 -1.2883 -0.0584 -2.4410
  842SOL     OW 2524   0.815   1.514   0.878  0.6597  0.7444 -0.4603
  842SOL    HW1 2525   0.777   1.574   0.954 -0.6645  0.4482  0.8706
  842SOL    HW2 2526   0.749   1.438   0.844 -1.5371 -1.7279  1.9481
  843SOL     OW 2527   0.150   3.066   1.399  0.7381  0.2060 -0.2075
  843SOL    HW1 2528   0.168   3.154   1.452  0.8778 -0.8822 -2.5514
  843SOL    HW2 2529   0.086   2.997   1.438  2.8107 -0.1723  0.4432
  844SOL     OW 2530   0.798   2.458   0.245  0.2260  0.2008  0.1024
  844SOL    HW1 2531   0.717   2.445   0.306 -0.8653  0.9009 -0.8398
  844SOL    HW2 2532   0.775   2.523   0.169  0.7055  0.1358  0.0377
  845SOL     OW 2533   1.650   2.830   1.271  0.1562 -0.0021 -0.2430
  845SOL    HW1 2534   1.629   2.734   1.234 -2.4089 -3.2034 -1.4874
  845SOL    HW2 2535   1.658   2.825   1.378 -1.7709  1.3719  1.6400
  846SOL     OW 2536   1.522   3.022   0.749  0.1856 -0.2308 -0.3719
  846SOL    HW1 2537   1.473   3.087   0.685 -0.2801 -2.8745 -1.8769
  846SOL    HW2 2538   1.599   2.964   0.708  0.6267  1.3138  1.9735
  847SOL     OW 2539   2.088   1.774   0.452 -0.4175 -0.3278  0.2403
  847SOL    HW1 2540   2.034   1.704   0.489  0.8856  1.9820  0.1582
  847SOL    HW2 2541   2.031   1.855   0.426  3.1958 -1.4865  1.5204
  848SOL     OW 2542   2.431   0.885   2.638 -0.2670  0.1266 -0.1806
  848SOL    HW1 2543   2.393   0.974   2.673  1.9542 -0.8897  2.5916
  848SOL    HW2 2544   2.364   0.808   2.633  0.5347  0.7449  1.5365
  849SOL     OW 2545   2.518   0.896   2.384 -0.3713 -0.0855  0.3876
  849SOL    HW1 2546   2.596   0.829   2.371  0.3253 -1.6935  3.8969
  849SOL    HW2 2547   2.487   0.894   2.486  0.0956 -1.0964 -0.5437
  850SOL     OW 2548   1.569   0.050   1.343  0.2361  1.2453 -0.5925
  850SOL    HW1 2549   1.562   0.015   1.244 -0.9962 -0.8664  1.3898
  850SOL    HW2 2550   1.530  -0.018   1.418 -1.1577 -0.4895 -1.7172
  851SOL     OW 2551   0.587   1.708   0.712 -0.1481 -0.0354 -0.2773
  851SOL    HW1 2552   0.675   1.732   0.768  1.0082  1.7688  0.8460
  851SOL    HW2 2553   0.601   1.716   0.604 -0.1093  0.2043 -4.6626
  852SOL     OW 2554   0.845   2.092   1.654  0.5778  0.3878  0.2788
  852SOL    HW1 2555   0.892   2.183   1.655 -0.9424  0.3518  0.6915
  852SOL    HW2 2556   0.778   2.087   1.734  0.8581 -2.2732 -1.4282
  853SOL     OW 2557   2.540   1.530   2.630  0.1435 -0.0595 -0.0557
  853SOL    HW1 2558   2.482   1.447   2.608 -1.3489 -0.2692  0.1916
  853SOL    HW2 2559   2.529   1.604   2.560  0.2769  0.1550 -0.4401
  854SOL     OW 2560   2.412   1.416   1.782  0.0338  0.6094  0.2712
  854SOL    HW1 2561   2.471   1.394   1.701 -0.9290 -0.6287  0.3890
  854SOL    HW2 2562   2.361   1.333   1.817 -1.6696 -0.7475  1.5920
  855SOL     OW 2563   2.058   2.383   1.123  0.1433 -0.0191 -0.2488
  855SOL    HW1 2564   2.041   2.481   1.092 -1.5460  1.3140  1.8126
  855SOL    HW2 2565   2.141   2.377   1.189  0.6620  0.3632  0.0028
  856SOL     OW 2566   1.328   1.424   0.914 -0.4882  0.3732  0.1325
  856SOL    HW1 2567   1.390   1.477   0.974 -0.4835  1.4967 -3.8819
  856SOL    HW2 2568   1.226   1.450   0.930 -0.2118  0.0709  0.8657
  857SOL     OW 2569   0.021   2.725   1.078 -0.4908  0.5023  0.2683
  857SOL    HW1 2570   0.023   2.733   0.977 -0.6814 -1.0775  1.1828
  857SOL    HW2 2571   0.061   2.632   1.113 -0.9622  0.7495  3.2736
  858SOL     OW 2572   2.390   2.041   1.615  0.2607 -0.1673 -0.8292
  858SOL    HW1 2573   2.296   1.984   1.608 -1.2881 -3.7358 -1.9049
  858SOL    HW2 2574   2.475   1.982   1.628  0.2283 -1.1517 -0.6444
  859SOL     OW 2575   2.443   0.561   1.091  0.7193 -0.2710 -0.2145
  859SOL    HW1 2576   2.502   0.613   1.021  0.2994 -2.1470  1.9327
  859SOL    HW2 2577   2.502   0.500   1.148 -0.7696  1.6638 -1.3045
  860SOL     OW 2578   1.889   2.824   0.490  0.4023  0.1477  0.6253
  860SOL    HW1 2579   1.878   2.797   0.392  0.8164 -0.4020  0.6396
  860SOL    HW2 2580   1.894   2.932   0.491  1.1027  0.6990 -1.4005
  861SOL     OW 2581   1.037   2.493   2.875 -0.3339 -0.0646 -0.5151
  861SOL    HW1 2582   1.119   2.548   2.838 -0.8867  2.7320 -0.2784
  861SOL    HW2 2583   1.001   2.530   2.966 -0.8890  2.5743  0.5569
  862SOL     OW 2584   2.831   2.539   1.688 -0.0200  0.0031 -0.2485
  862SOL    HW1 2585   2.921   2.559   1.742  0.2126 -1.5540 -1.1909
  862SOL    HW2 2586   2.770   2.615   1.657  1.5661 -0.0292 -0.3288
  863SOL     OW 2587   1.831   2.733   0.224  0.0032  0.1617 -0.1415
  863SOL    HW1 2588   1.871   2.643   0.255  0.1283 -3.7493  1.1811
  863SOL    HW2 2589   1.729   2.729   0.199 -0.0688  1.0445 -0.5366
  864SOL     OW 2590   2.044   1.217   2.797 -0.5911  0.4190  0.6942
  864SOL    HW1 2591   2.019   1.149   2.720  0.7495 -1.5736 -0.7587
  864SOL    HW2 2592   2.144   1.233   2.793 -0.0933  1.4810  0.4209
  865SOL     OW 2593   2.109   1.966   0.710  0.6415 -0.4696  0.2836
  865SOL    HW1 2594   2.194   1.932   0.754  0.9760  1.2888 -1.0205
  865SOL    HW2 2595   2.022   1.957   0.765 -0.2069  0.9615  0.1370
  866SOL     OW 2596   2.960   2.942   1.082  0.1029  0.2145 -0.3041
  866SOL    HW1 2597   2.963   3.011   0.997  1.3974  0.7161 -2.1568
  866SOL    HW2 2598   3.031   2.869   1.084 -1.0934 -0.5212  1.3635
  867SOL     OW 2599   0.322   1.370   0.878 -0.2329  0.3731 -0.5681
  867SOL    HW1 2600   0.336   1.295   0.810 -0.8239 -0.8863  0.2157
  867SOL    HW2 2601   0.320   1.464   0.836 -1.9425 -1.2219 -2.0315
  868SOL     OW 2602   0.793   1.894   2.063  0.1911 -0.9321 -0.1043
  868SOL    HW1 2603   0.744   1.844   2.140 -2.7431  0.3878 -1.8782
  868SOL    HW2 2604   0.739   1.979   2.035 -1.4132  3.6242 -0.5154
  869SOL     OW 2605   2.620   1.899   1.653 -0.2145  0.3483 -0.3476
  869SOL    HW1 2606   2.693   1.950   1.596  0.8274 -1.0104  1.8271
  869SOL    HW2 2607   2.608   1.801   1.637 -0.3271  1.7320 -0.8151
  870SOL     OW 2608   2.383   2.695   1.137  0.1206  0.6919 -0.5448
  870SOL    HW1 2609   2.352   2.626   1.212 -0.3819  0.8446 -0.0037
  870SOL    HW2 2610   2.460   2.750   1.177  1.5908 -0.7321  4.1381
  871SOL     OW 2611   3.077   2.270   0.548  0.0957  0.1839 -0.4547
  871SOL    HW1 2612   3.010   2.223   0.611  0.2801 -2.1478 -2.9145
  871SOL    HW2 2613   3.033   2.292   0.460 -0.4885  0.4830  1.9643
  872SOL     OW 2614   2.080   0.483   1.707  0.2433 -0.6929  0.0074
  872SOL    HW1 2615   2.034   0.500   1.804  1.3843 -0.6148  1.5710
  872SOL    HW2 2616   2.181   0.464   1.702 -0.6778  1.0430  0.8486
  873SOL     OW 2617   1.707   2.077   3.072 -0.0608  0.6400 -0.3896
  873SOL    HW1 2618   1.625   2.031   3.031 -0.3188  0.8179  0.8431
  873SOL    HW2 2619   1.740   2.163   3.020 -0.9407  1.1735 -1.1573
  874SOL     OW 2620   0.667   2.492   0.704  0.4034 -0.1919  0.2121
  874SOL    HW1 2621   0.665   2.583   0.760  0.3458 -0.3139 -1.5332
  874SOL    HW2 2622   0.753   2.438   0.712  2.0899 -0.3966  1.3919
  875SOL     OW 2623   2.332   1.630   1.398 -1.1924 -0.1825 -0.1257
  875SOL    HW1 2624   2.399   1.612   1.475 -4.5707 -0.6240  1.9658
  875SOL    HW2 2625   2.344   1.569   1.320  2.2084 -0.1077  1.5014
  876SOL     OW 2626   0.075   2.292   2.643  0.1067 -0.4436 -0.5292
  876SOL    HW1 2627   0.118   2.204   2.667  0.3897 -1.0269 -1.7896
  876SOL    HW2 2628   0.125   2.375   2.676 -3.6932 -0.8616 -1.1131
  877SOL     OW 2629   2.869   2.623   0.681 -0.1017  0.1465 -0.1702
  877SOL    HW1 2630   2.902   2.717   0.655  0.5073 -0.0842  1.6960
  877SOL    HW2 2631   2.946   2.565   0.716  0.1986  5.7889 -0.2959
  878SOL     OW 2632   2.842   1.616   2.306 -0.1629  0.2341 -0.0189
  878SOL    HW1 2633   2.761   1.654   2.257 -0.4891 -2.0793 -1.0256
  878SOL    HW2 2634   2.813   1.596   2.404  0.8889 -1.4596  0.8670
  879SOL     OW 2635   2.489   0.017   1.140 -0.2344  0.3555  0.6616
  879SOL    HW1 2636   2.519  -0.075   1.179 -3.3076 -2.8153 -2.3570
  879SOL    HW2 2637   2.382   0.016   1.126 -2.3924  2.4136 -0.8330
  880SOL     OW 2638   0.627   0.536   2.263 -0.2741 -0.0315 -0.3476
  880SOL    HW1 2639   0.629   0.476   2.350  0.9847  0.7942  1.6039
  880SOL    HW2 2640   0.693   0.506   2.185 -1.0689 -1.6364 -2.2488
  881SOL     OW 2641   0.816   0.082   0.457  0.2035 -0.6124 -0.9081
  881SOL    HW1 2642   0.870   0.004   0.499  1.1821 -0.7657 -0.9298
  881SOL    HW2 2643   0.741   0.039   0.396 -1.3912  0.3516 -1.5992
  882SOL     OW 2644   2.737   1.617   1.718 -0.2165 -0.3832 -0.8336
  882SOL    HW1 2645   2.833   1.637   1.694 -1.7339  0.1117  0.4147
  882SOL    HW2 2646   2.724   1.589   1.820  0.2883 -0.0959  2.2821
  883SOL     OW 2647   0.815   0.505   0.856 -0.2343 -0.0146  0.3544
  883SOL    HW1 2648   0.853   0.600   0.884 -1.4352  0.4194  0.3244
  883SOL    HW2 2649   0.781   0.445   0.934 -1.4306  1.2334 -0.1241
  884SOL     OW 2650   1.195   1.722   1.092  0.0625 -0.4860  0.3707
  884SOL    HW1 2651   1.123   1.643   1.064 -0.5662  1.4101 -0.2144
  884SOL    HW2 2652   1.229   1.776   1.012  0.6103  1.5427  1.3131
  885SOL     OW 2653   2.326   1.875   2.280 -0.2644  0.2559 -0.2147
  885SOL    HW1 2654   2.247   1.828   2.327 -2.2991  2.3609 -2.5167
  885SOL    HW2 2655   2.339   1.976   2.300 -2.5224 -0.8186 -0.4152
  886SOL     OW 2656   2.600   0.366   1.789  0.0656 -0.6422  0.6191
  886SOL    HW1 2657   2.612   0.276   1.830  1.6247  1.1930 -0.1961
  886SOL    HW2 2658   2.693   0.410   1.763 -0.0147 -3.0430 -1.0715
  887SOL     OW 2659   0.125   2.062   1.332  0.1473  0.6274 -0.8770
  887SOL    HW1 2660   0.052   1.992   1.304  2.3555  0.3542 -2.5250
  887SOL    HW2 2661   0.099   2.155   1.298 -1.5828 -1.5734  0.3924
  888SOL     OW 2662   0.588   1.237   1.563 -0.5175  0.0250 -0.2774
  888SOL    HW1 2663   0.575   1.297   1.476  0.9125  0.2752  0.9544
  888SOL    HW2 2664   0.633   1.150   1.545 -0.4545  2.6114 -0.0032
  889SOL     OW 2665   0.824   2.441   2.223 -0.0095 -0.0021  0.4735
  889SOL    HW1 2666   0.721   2.416   2.237 -0.9370  2.3814  0.0015
  889SOL    HW2 2667   0.862   2.408   2.133  1.4755 -1.7271  0.7529
  890SOL     OW 2668   2.398   2.469   0.298 -0.0066 -0.1465 -1.0277
  890SOL    HW1 2669   2.475   2.531   0.315 -3.0772  0.9509  1.6472
  890SOL    HW2 2670   2.315   2.491   0.358  2.0314 -1.9646  1.2489
  891SOL     OW 2671   2.618   1.711   0.716  0.3337 -0.5292 -0.5896
  891SOL    HW1 2672   2.633   1.760   0.807 -0.6710  2.2622  2.4380
  891SOL    HW2 2673   2.518   1.693   0.702 -0.2951 -1.4138 -2.3493
  892SOL     OW 2674   0.368   0.306   2.242  0.5329  0.6625 -0.4001
  892SOL    HW1 2675   0.469   0.303   2.249 -2.5109 -0.5959 -0.3585
  892SOL    HW2 2676   0.331   0.268   2.155 -0.2299 -0.6340  0.4835
  893SOL     OW 2677   1.752   0.257   2.679 -0.4304  0.3954  0.2350
  893SOL    HW1 2678   1.832   0.331   2.683  1.4155 -1.4214  2.4294
  893SOL    HW2 2679   1.659   0.311   2.688  1.5204  2.5241 -0.2636
  894SOL     OW 2680   2.136   2.080   0.108  0.3396 -0.7877 -0.3805
  894SOL    HW1 2681   2.117   2.017   0.028 -1.5590  0.7268  2.7706
  894SOL    HW2 2682   2.176   2.031   0.187 -1.6415 -0.0684 -0.8705
  895SOL     OW 2683   2.775   1.445   0.855  0.0333 -0.5082  0.2400
  895SOL    HW1 2684   2.842   1.377   0.898  0.0131 -0.7877  0.2552
  895SOL    HW2 2685   2.772   1.544   0.897  1.1551  0.7248 -0.6362
  896SOL     OW 2686   1.848   1.728   1.265  0.6120  0.7484 -0.1558
  896SOL    HW1 2687   1.945   1.693   1.257 -0.8086 -0.2826  1.6497
  896SOL    HW2 2688   1.781   1.686   1.199  1.5852  0.4486 -2.6361
  897SOL     OW 2689   0.242   0.549   2.998 -0.4627  0.5307  0.1037
  897SOL    HW1 2690   0.177   0.598   2.931 -1.6400 -0.5197  1.8976
  897SOL    HW2 2691   0.339   0.590   2.997 -0.8431 -2.6981  0.0605
  898SOL     OW 2692   0.669   2.838   1.101  0.1138 -0.0418 -0.4251
  898SOL    HW1 2693   0.701   2.923   1.147 -1.9128 -2.3993  1.4164
  898SOL    HW2 2694   0.703   2.752   1.148  0.3553 -0.2464  0.4382
  899SOL     OW 2695   2.881   0.944   1.361 -0.0124  0.0440 -0.4540
  899SOL    HW1 2696   2.878   0.948   1.258  1.0199  0.1051  0.3574
  899SOL    HW2 2697   2.977   0.983   1.391  1.1192  0.9001 -2.1981
  900SOL     OW 2698   0.964   2.507   2.461  0.2880 -0.1957  0.5227
  900SOL    HW1 2699   0.894   2.497   2.389  1.2521 -1.4773 -0.4131
  900SOL    HW2 2700   0.941   2.467   2.554  0.5910 -0.7669  0.5671
  901SOL     OW 2701   1.886   2.370   1.421  0.0292  0.3746  0.0018
  901SOL    HW1 2702   1.892   2.286   1.356  0.4057 -1.7436 -1.7933
  901SOL    HW2 2703   1.965   2.376   1.487 -1.0859  0.8401  0.6820
  902SOL     OW 2704   2.585   1.649   1.510 -0.5488 -0.7994  0.1470
  902SOL    HW1 2705   2.643   1.649   1.596  0.5821  1.6444  0.7368
  902SOL    HW2 2706   2.642   1.625   1.422  0.5283 -1.3299 -0.9227
  903SOL     OW 2707   0.303   2.365   1.993  0.4082  0.5053 -0.6368
  903SOL    HW1 2708   0.258   2.270   1.994  2.9949  0.5265  2.3438
  903SOL    HW2 2709   0.291   2.421   1.909 -0.2885 -1.8665  0.4025
  904SOL     OW 2710   1.978   0.823   2.456  0.0269  0.7051  0.3133
  904SOL    HW1 2711   1.915   0.751   2.499 -0.7911 -2.6802 -0.4671
  904SOL    HW2 2712   2.028   0.785   2.369  0.2605  0.5248 -0.5618
  905SOL     OW 2713   2.813   0.119   2.400 -0.2031 -0.1016 -0.0545
  905SOL    HW1 2714   2.845   0.039   2.460  0.9772 -1.8239 -1.4689
  905SOL    HW2 2715   2.859   0.211   2.409  0.5733  0.6459  0.0485
  906SOL     OW 2716   0.144   1.742   1.909 -0.3494  0.2994  0.1929
  906SOL    HW1 2717   0.070   1.781   1.850 -0.7972  0.6745 -0.2206
  906SOL    HW2 2718   0.238   1.750   1.864  1.9716 -1.4609 -0.4586
  907SOL     OW 2719   0.236   2.498   0.972 -0.1979 -0.1211 -0.4964
  907SOL    HW1 2720   0.319   2.439   0.966 -2.8667 -1.6056 -1.1428
  907SOL    HW2 2721   0.242   2.593   0.927 -0.0597  0.0119  0.9390
  908SOL     OW 2722   2.867   2.961   0.396 -0.1233  0.3013  0.1364
  908SOL    HW1 2723   2.785   3.016   0.356  0.4975  2.9256 -2.4048
  908SOL    HW2 2724   2.892   2.882   0.335 -1.5322  1.9366 -1.3982
  909SOL     OW 2725   0.898   1.028   2.634 -0.0914 -0.2797  0.6616
  909SOL    HW1 2726   0.856   0.932   2.620 -0.2290 -0.1643  1.5533
  909SOL    HW2 2727   0.960   1.055   2.558 -0.9707  0.4078  3.2436
  910SOL     OW 2728   1.826   1.875   2.125 -0.6524  0.1916  0.1569
  910SOL    HW1 2729   1.879   1.930   2.053 -0.3679 -1.0955  0.4687
  910SOL    HW2 2730   1.752   1.943   2.160  0.2987  0.6772  1.6105
  911SOL     OW 2731   1.752   2.871   1.550 -0.0444  0.5977 -0.3591
  911SOL    HW1 2732   1.841   2.858   1.496 -0.8052  0.0020 -2.6655
  911SOL    HW2 2733   1.722   2.780   1.594 -1.4910  0.3053 -0.5978
  912SOL     OW 2734   2.842   0.984   0.720  0.6408  0.2975  0.5784
  912SOL    HW1 2735   2.865   0.973   0.822  0.9039  2.6705  1.7131
  912SOL    HW2 2736   2.803   1.076   0.695 -0.4521 -0.4135  0.5503
  913SOL     OW 2737   2.589   1.279   1.590 -0.2545 -0.6739 -0.8554
  913SOL    HW1 2738   2.615   1.179   1.588  0.5276  2.5211 -1.7923
  913SOL    HW2 2739   2.612   1.328   1.501 -0.4877  2.1694  0.5960
  914SOL     OW 2740   2.882   0.573   1.167 -0.3939  0.5335  0.4438
  914SOL    HW1 2741   2.851   0.481   1.203 -0.5479  2.1796  0.8921
  914SOL    HW2 2742   2.835   0.645   1.224  1.7504 -0.3008  0.9314
  915SOL     OW 2743   1.203   0.705   0.911 -0.2449  0.7670  0.1207
  915SOL    HW1 2744   1.252   0.729   0.996 -0.8875  0.9132 -0.0443
  915SOL    HW2 2745   1.099   0.715   0.926  0.6923  0.6070  1.4912
  916SOL     OW 2746   0.596   0.084   0.676  0.0153 -0.4312  0.1903
  916SOL    HW1 2747   0.663   0.152   0.721  2.7534  1.4539  0.8089
  916SOL    HW2 2748   0.602   0.087   0.569 -0.5513 -1.3624 -1.8179
  917SOL     OW 2749   2.843   2.624   2.033 -0.0031  0.0462 -0.0857
  917SOL    HW1 2750   2.749   2.651   2.000  1.2685 -0.8414  0.1716
  917SOL    HW2 2751   2.925   2.667   1.994 -0.5805 -2.8566  0.7411
  918SOL     OW 2752   1.079   2.096   3.052 -0.0339  0.0621 -0.0465
  918SOL    HW1 2753   1.085   2.195   3.082  0.0800  0.6473  0.3158
  918SOL    HW2 2754   1.136   2.075   2.968 -0.9242  0.5600  1.6333
  919SOL     OW 2755   0.771   1.652   2.785  0.4963 -0.5753  0.0564
  919SOL    HW1 2756   0.814   1.743   2.774 -0.3617 -2.3786 -3.0970
  919SOL    HW2 2757   0.775   1.600   2.698 -0.7395 -2.1229  2.9815
  920SOL     OW 2758   1.344   1.819   2.475 -0.2303  0.2252 -0.3314
  920SOL    HW1 2759   1.421   1.801   2.406  2.2987  1.2426 -0.7171
  920SOL    HW2 2760   1.345   1.750   2.557 -0.5093 -1.5952  0.6203
  921SOL     OW 2761   1.128   0.117   2.571  0.3930 -0.8581  0.1161
  921SOL    HW1 2762   1.134   0.105   2.465  0.5853  1.1149  1.6278
  921SOL    HW2 2763   1.031   0.113   2.602 -0.7578 -0.9634 -0.0988
  922SOL     OW 2764   2.179   2.468   2.825  0.3886  0.2329 -0.3618
  922SOL    HW1 2765   2.192   2.371   2.852  1.9668 -0.6506 -1.0297
  922SOL    HW2 2766   2.123   2.475   2.734 -2.0843 -2.0976 -2.0002
  923SOL     OW 2767   1.186   2.700   0.283  0.7725 -0.5578  0.5892
  923SOL    HW1 2768   1.255   2.752   0.337  0.8238 -1.3462 -0.1976
  923SOL    HW2 2769   1.215   2.603   0.276 -0.5322  0.9429 -2.7634
  924SOL     OW 2770   2.947   1.697   0.141  0.1811  0.5399 -0.0208
  924SOL    HW1 2771   2.854   1.653   0.117 -0.6273 -0.4209  0.1251
  924SOL    HW2 2772   3.013   1.618   0.165  2.0253 -2.1081  2.1817
  925SOL     OW 2773   0.015   2.889   1.575  0.6346 -0.1215 -0.2639
  925SOL    HW1 2774  -0.048   2.963   1.616 -0.8007 -0.5579 -0.2030
  925SOL    HW2 2775  -0.037   2.806   1.545 -1.4503 -1.6580 -2.1023
  926SOL     OW 2776   1.259   2.754   1.331  0.2767  0.4476  0.3780
  926SOL    HW1 2777   1.268   2.775   1.232  2.7434 -0.9779  2.4575
  926SOL    HW2 2778   1.321   2.805   1.394 -3.3477  1.5779 -0.6374
  927SOL     OW 2779   0.360   2.587   1.784 -0.3238  0.2732  0.0147
  927SOL    HW1 2780   0.312   2.536   1.705 -0.3403 -1.1689 -0.1242
  927SOL    HW2 2781   0.345   2.691   1.789 -1.1293  0.5431  1.3468
  928SOL     OW 2782   1.678   2.069   2.216  0.0496  0.2177  0.0137
  928SOL    HW1 2783   1.705   2.135   2.144 -0.3179 -1.0203  2.3627
  928SOL    HW2 2784   1.573   2.064   2.228  1.0603 -0.5026  3.1188
  929SOL     OW 2785   2.434   2.505   2.901  0.0598 -0.2297 -0.2580
  929SOL    HW1 2786   2.341   2.500   2.863  0.6735 -1.7330 -0.5750
  929SOL    HW2 2787   2.502   2.532   2.821  2.2615  0.9406 -3.1813
  930SOL     OW 2788   2.120   2.086   1.080 -0.0744  0.3528  0.2902
  930SOL    HW1 2789   2.146   2.048   1.174 -1.5661  0.8318  1.7944
  930SOL    HW2 2790   2.110   2.187   1.080 -1.6918 -1.6171 -1.6416
  931SOL     OW 2791   0.473   1.599   2.632  0.1367  0.3396  0.1038
  931SOL    HW1 2792   0.457   1.634   2.727 -1.3738 -2.1786 -1.4865
  931SOL    HW2 2793   0.570   1.596   2.602 -1.9433 -0.8622 -1.9249
  932SOL     OW 2794   0.352   0.038   3.089  0.1174  0.5808  0.2745
  932SOL    HW1 2795   0.412   0.119   3.075 -2.4036 -0.3908 -0.2817
  932SOL    HW2 2796   0.378  -0.046   3.043 -1.6967  1.6035 -1.3504
  933SOL     OW 2797   1.009   0.832   2.999  0.4551 -0.2265  0.1920
  933SOL    HW1 2798   1.011   0.925   3.038  1.9786  0.4869 -0.5343
  933SOL    HW2 2799   0.937   0.767   3.033 -0.9092  0.8018  0.7604
  934SOL     OW 2800   0.889   2.962   2.623  0.2944 -0.4490  0.2127
  934SOL    HW1 2801   0.855   2.890   2.556 -0.2901  1.7408  0.2862
  934SOL    HW2 2802   0.941   2.918   2.710  1.3806 -0.5255  3.0121
  935SOL     OW 2803   3.104   0.617   0.761 -0.0161 -0.7490  0.3600
  935SOL    HW1 2804   3.053   0.571   0.686 -1.0298 -1.3956 -2.3813
  935SOL    HW2 2805   3.040   0.681   0.818  0.2254  1.9147  0.0098
  936SOL     OW 2806   1.111   2.881   0.089  0.0556  0.1107  0.0549
  936SOL    HW1 2807   1.191   2.917   0.033 -2.1741  1.5960 -1.9411
  936SOL    HW2 2808   1.141   2.820   0.169  1.9816  0.0286 -0.3999
  937SOL     OW 2809   1.981   2.599   2.087 -0.5342 -0.3692 -0.4242
  937SOL    HW1 2810   1.947   2.643   2.171  0.9717  0.9825  0.5680
  937SOL    HW2 2811   2.000   2.670   2.010 -0.0785 -0.9214 -0.0916
  938SOL     OW 2812   2.749   2.116   1.536  0.1285 -0.4398  0.0446
  938SOL    HW1 2813   2.705   2.201   1.572 -1.2027  0.3223 -1.2298
  938SOL    HW2 2814   2.830   2.093   1.597  1.0460 -0.9527  1.3178
  939SOL     OW 2815   2.834   1.197   2.488 -0.1691 -0.7407 -0.0277
  939SOL    HW1 2816   2.918   1.196   2.427  0.6482  0.1864  0.8703
  939SOL    HW2 2817   2.821   1.125   2.563 -0.1633 -1.3106  1.3471
  940SOL     OW 2818   1.053   0.434   2.741 -0.0912  0.3420 -0.3168
  940SOL    HW1 2819   1.143   0.380   2.729 -0.7248  0.5706  1.5758
  940SOL    HW2 2820   0.982   0.410   2.673 -0.8529 -1.0948  2.1524
  941SOL     OW 2821   0.085   2.809   2.281 -0.0138 -0.3085 -0.0689
  941SOL    HW1 2822   0.123   2.761   2.201  1.2680  2.2151  0.2193
  941SOL    HW2 2823   0.163   2.844   2.339  0.2744 -0.1154 -0.4515
  942SOL     OW 2824   0.130   0.051   2.436 -0.3291  0.2287 -0.0099
  942SOL    HW1 2825   0.166   0.052   2.535 -1.2205  0.3887  2.2378
  942SOL    HW2 2826   0.098   0.146   2.403 -2.8676  1.8433  1.8449
  943SOL     OW 2827   2.136   1.689   2.350  0.4280 -0.2456 -0.3462
  943SOL    HW1 2828   2.117   1.652   2.251  0.5464 -0.2026 -0.2234
  943SOL    HW2 2829   2.167   1.625   2.420 -1.6091  2.1530 -1.5062
  944SOL     OW 2830   2.197   2.304   1.571  0.0556  0.3084  0.1307
  944SOL    HW1 2831   2.221   2.319   1.670 -0.9430 -1.7256 -0.9896
  944SOL    HW2 2832   2.144   2.212   1.556 -0.0327 -1.7774  1.7759
  945SOL     OW 2833   0.667   1.652   0.184  0.3477 -0.0537  0.4991
  945SOL    HW1 2834   0.595   1.627   0.111 -0.8183 -0.7234  0.2546
  945SOL    HW2 2835   0.717   1.567   0.216  0.5648  0.6987 -1.7300
  946SOL     OW 2836   0.366   0.991   2.594 -0.4987 -0.0111  0.9011
  946SOL    HW1 2837   0.321   0.935   2.515  0.6709 -2.5354  1.1634
  946SOL    HW2 2838   0.409   1.084   2.570 -0.1433  2.4107 -0.9225
  947SOL     OW 2839   1.465   0.540   3.030 -0.3181 -0.1188 -0.0716
  947SOL    HW1 2840   1.460   0.585   2.938  0.8061 -0.3413  1.0941
  947SOL    HW2 2841   1.384   0.479   3.050 -0.5616  0.8232 -1.5369
  948SOL     OW 2842   1.962   2.939   2.157  0.4369  0.1260  0.2661
  948SOL    HW1 2843   1.949   2.925   2.059  0.4358  0.6939  2.5050
  948SOL    HW2 2844   1.956   2.852   2.216  0.8403 -0.5379 -1.2991
  949SOL     OW 2845   0.576   2.497   0.435 -0.0264 -0.6114 -0.5791
  949SOL    HW1 2846   0.560   2.596   0.449 -1.7917  0.5209 -0.7345
  949SOL    HW2 2847   0.629   2.459   0.522 -2.7617 -0.3744  2.3565
  950SOL     OW 2848   0.218   2.243   2.952 -0.6947  0.2623 -0.5402
  950SOL    HW1 2849   0.231   2.346   2.923 -1.8079  0.7957 -1.8650
  950SOL    HW2 2850   0.205   2.183   2.872  3.8387  2.6477  1.8862
  951SOL     OW 2851   1.257   2.672   2.803 -0.5059 -0.1999  0.3396
  951SOL    HW1 2852   1.329   2.613   2.845  0.8334 -1.6943  0.4883
  951SOL    HW2 2853   1.287   2.714   2.710 -1.3778 -1.8983  0.4651
  952SOL     OW 2854   0.035   1.636   0.407  0.2172 -0.4751  0.5325
  952SOL    HW1 2855   0.076   1.722   0.450  0.7879 -1.2025 -0.4971
  952SOL    HW2 2856   0.012   1.566   0.486 -0.6658 -1.2164 -1.4037
  953SOL     OW 2857   2.479   1.724   0.310  0.3806  0.0352 -0.1896
  953SOL    HW1 2858   2.493   1.625   0.324  0.9857  0.3937 -0.9535
  953SOL    HW2 2859   2.459   1.750   0.211 -0.9249  0.1936  2.4656
  954SOL     OW 2860   2.209   0.514   0.930 -0.2735  0.1746  0.2970
  954SOL    HW1 2861   2.210   0.522   0.825  1.9430  0.6009  2.2300
  954SOL    HW2 2862   2.299   0.535   0.974  0.1467 -1.3679 -3.1780
  955SOL     OW 2863   0.179   2.611   1.382  0.3369 -0.4136  0.0126
  955SOL    HW1 2864   0.078   2.637   1.373  1.3304  1.0170  0.6159
  955SOL    HW2 2865   0.235   2.702   1.375  1.4562 -1.5878  0.1116
  956SOL     OW 2866   2.792   2.502   2.542 -0.2011  0.7043 -0.2725
  956SOL    HW1 2867   2.821   2.404   2.527  1.5137 -0.5720 -0.0480
  956SOL    HW2 2868   2.823   2.557   2.459 -0.5249  0.9329  0.6924
  957SOL     OW 2869   1.635   2.055   2.735 -0.1454  0.2397 -0.1788
  957SOL    HW1 2870   1.630   1.960   2.775 -2.4943  1.6465 -1.0410
  957SOL    HW2 2871   1.627   2.066   2.629 -1.6716  2.3300 -3.2060
  958SOL     OW 2872   2.603   2.261   3.035  0.0596  0.6245  0.1891
  958SOL    HW1 2873   2.512   2.311   3.042  1.4017 -1.2563 -0.2122
  958SOL    HW2 2874   2.634   2.224   3.123 -1.6502 -1.7378  1.5109
  959SOL     OW 2875   0.386   2.811   0.125  0.2755 -0.0011  0.2326
  959SOL    HW1 2876   0.302   2.842   0.182  0.1228  1.0435  1.3042
  959SOL    HW2 2877   0.395   2.709   0.128  0.6796 -0.6945 -0.1666
  960SOL     OW 2878   1.913   0.519   1.923 -0.2104 -0.1742  0.4479
  960SOL    HW1 2879   1.870   0.602   1.870 -1.4501 -1.1591  0.6061
  960SOL    HW2 2880   1.915   0.532   2.025 -1.4399 -0.7430  0.3172
  961SOL     OW 2881   2.504   1.896   1.064  0.1088  0.1085 -0.0852
  961SOL    HW1 2882   2.513   1.987   1.017  0.0282  1.5930  2.1191
  961SOL    HW2 2883   2.514   1.909   1.167 -1.3383 -1.2330 -0.7904
  962SOL     OW 2884   1.322   0.916   0.039 -0.5845  0.2161  0.2406
  962SOL    HW1 2885   1.291   0.941  -0.057 -0.0810 -1.2743 -0.7764
  962SOL    HW2 2886   1.302   0.981   0.116  0.3571 -2.5320 -2.6931
  963SOL     OW 2887   2.308   2.578   1.825  0.6880  0.1402  0.3260
  963SOL    HW1 2888   2.262   2.486   1.842  1.2019 -0.5461 -1.3231
  963SOL    HW2 2889   2.343   2.627   1.910 -0.2685 -0.1883 -0.8161
  964SOL     OW 2890   2.352   0.407   1.671  0.9496  0.5589  0.1378
  964SOL    HW1 2891   2.449   0.399   1.719 -1.0271  1.5618 -0.5134
  964SOL    HW2 2892   2.357   0.409   1.564 -0.6392 -0.2972 -0.8352
  965SOL     OW 2893   2.637   3.004   0.214  0.0525  0.1542 -0.7054
  965SOL    HW1 2894   2.683   2.973   0.124 -0.1503 -0.8617 -1.0655
  965SOL    HW2 2895   2.548   3.056   0.197 -0.1141 -1.1267 -2.7873
  966SOL     OW 2896   2.488   2.488   2.242 -0.4899  0.1464 -0.0279
  966SOL    HW1 2897   2.515   2.577   2.200 -0.4245  1.0649  0.2562
  966SOL    HW2 2898   2.381   2.473   2.243 -1.7559  0.3066 -0.5088
  967SOL     OW 2899   2.742   2.828   2.487  0.2521 -0.5521 -0.7754
  967SOL    HW1 2900   2.764   2.749   2.426  2.2287 -2.4877  4.0497
  967SOL    HW2 2901   2.827   2.881   2.509  0.5585  1.2391 -1.6746
  968SOL     OW 2902   1.969   1.062   2.583  0.2076 -0.5850 -0.4512
  968SOL    HW1 2903   1.894   1.125   2.556  2.1638 -0.3566  1.0713
  968SOL    HW2 2904   1.961   0.981   2.520  0.1195  1.6341  1.1825
  969SOL     OW 2905   2.725   2.573   1.053  0.9847 -0.7377 -0.3865
  969SOL    HW1 2906   2.701   2.667   1.019  2.2633  1.5838  0.1558
  969SOL    HW2 2907   2.749   2.508   0.975  1.1407 -1.3089  1.1146
  970SOL     OW 2908   1.071   2.110   1.860 -0.0948  0.1433 -0.4353
  970SOL    HW1 2909   1.077   2.038   1.937 -1.5997  2.0383  0.4450
  970SOL    HW2 2910   1.046   2.073   1.769  1.0493 -0.2004  0.2764
  971SOL     OW 2911   2.918   2.185   1.956 -0.2184 -0.0660 -0.1091
  971SOL    HW1 2912   2.944   2.268   2.012  0.1329 -0.4303 -0.0396
  971SOL    HW2 2913   2.967   2.182   1.862 -2.7328  0.7771 -3.7867
  972SOL     OW 2914   1.882   2.445   0.253  0.3086 -0.3606 -0.3080
  972SOL    HW1 2915   1.904   2.352   0.228  1.9104  2.1326 -1.3338
  972SOL    HW2 2916   1.888   2.469   0.359 -3.5002  2.1094  1.0060
  973SOL     OW 2917   1.143   0.903   1.887  0.5149  0.5476 -0.2262
  973SOL    HW1 2918   1.100   0.806   1.886 -0.9284  1.4284  0.9147
  973SOL    HW2 2919   1.089   0.975   1.835 -0.5834  0.6018  0.1457
  974SOL     OW 2920   1.579   0.553   1.971  0.2422  0.8138 -0.2682
  974SOL    HW1 2921   1.658   0.602   1.925  0.7647  0.7189  2.4691
  974SOL    HW2 2922   1.488   0.585   1.932  0.6545 -1.5589 -2.0910
  975SOL     OW 2923   2.362   3.017   0.039 -0.3358  0.3637  0.1337
  975SOL    HW1 2924   2.308   2.932   0.064  1.3434  0.2654  1.9236
  975SOL    HW2 2925   2.417   3.006  -0.053  1.2582 -2.3291 -1.6639
  976SOL     OW 2926   1.917   2.729   2.322 -0.2862 -0.3586  0.4382
  976SOL    HW1 2927   1.821   2.702   2.354  1.0299 -0.7332  2.0898
  976SOL    HW2 2928   1.977   2.760   2.400 -1.7082 -1.3295 -0.6405
  977SOL     OW 2929   0.489   0.687   0.978 -0.4641  0.4222  0.2672
  977SOL    HW1 2930   0.421   0.676   0.902  1.0708 -0.0165  2.0287
  977SOL    HW2 2931   0.544   0.771   0.971 -0.5602 -0.6489  0.4546
   3.10000   3.10000   3.10000
