1000 SPC/Fw water molecules t=   0.89000 step= 890
 2931
    1SOL     OW    1   2.500   0.355   2.661 -0.0925 -0.2318 -0.2454
    1SOL    HW1    2   2.516   0.254   2.638 -0.6005 -0.2874  0.6475
    1SOL    HW2    3   2.558   0.376   2.746 -1.3772 -3.4254  1.9738
    2SOL     OW    4   2.724   3.050   1.442 -0.3056 -0.0446  0.5236
    2SOL    HW1    5   2.803   3.066   1.374 -0.9949 -0.1083 -0.4133
    2SOL    HW2    6   2.705   3.137   1.493 -0.9860 -0.4074 -3.9373
    3SOL     OW    7   2.686   2.608   0.387 -0.1344 -0.0116  0.6516
    3SOL    HW1    8   2.687   2.507   0.377 -1.9271  0.0954  0.8320
    3SOL    HW2    9   2.749   2.636   0.462 -0.3683 -1.6675 -1.2943
    4SOL     OW   10   1.245   1.528   2.310 -0.8133  0.6465 -0.4652
    4SOL    HW1   11   1.169   1.591   2.274  3.4131 -0.3021 -1.5841
    4SOL    HW2   12   1.219   1.436   2.346  0.4684  1.1332  0.1069
    5SOL     OW   13   1.153   1.489   0.002  0.0681  0.0854  0.1530
    5SOL    HW1   14   1.224   1.563  -0.000 -0.0611 -0.4472  1.3804
    5SOL    HW2   15   1.059   1.521   0.044 -0.7085  0.7720  0.5864
    6SOL     OW   16   0.134   1.816   2.944  0.3433 -0.6785 -0.0751
    6SOL    HW1   17   0.045   1.847   2.995  1.0562  1.0753  1.7232
    6SOL    HW2   18   0.210   1.779   3.000 -1.2130  1.9410 -1.3432
    7SOL     OW   19   2.616   0.923   1.104  0.0430  0.1663 -0.1951
    7SOL    HW1   20   2.533   0.871   1.131  0.7562  0.7034  0.0082
    7SOL    HW2   21   2.610   0.955   1.008  1.6589  0.0913  2.5765
    8SOL     OW   22   0.372   0.617   1.563 -0.3032 -0.0691  0.1943
    8SOL    HW1   23   0.449   0.553   1.575 -1.1728  0.9009  0.7607
    8SOL    HW2   24   0.382   0.668   1.472 -1.1358  1.6712  1.1604
    9SOL     OW   25   1.180   0.873   2.409  0.0238  0.4062  0.1496
    9SOL    HW1   26   1.249   0.890   2.336 -2.3905  0.8667  2.5478
    9SOL    HW2   27   1.132   0.786   2.387  2.4930  0.7660  1.9366
   10SOL     OW   28   0.655   1.347   1.303  0.4611  0.0675 -0.3778
   10SOL    HW1   29   0.565   1.349   1.252 -2.6517  2.5965 -0.6688
   10SOL    HW2   30   0.711   1.438   1.300  0.2387  0.7291 -2.5291
   11SOL     OW   31   2.342   2.731   0.850 -0.1090  0.3670 -0.0623
   11SOL    HW1   32   2.280   2.753   0.935  0.3572 -2.1828  1.0326
   11SOL    HW2   33   2.436   2.775   0.862 -1.9906  2.4848  4.1462
   12SOL     OW   34   1.490   0.900   0.350 -0.1148  0.3258  0.2874
   12SOL    HW1   35   1.422   0.964   0.301  1.3905  0.2202 -0.5880
   12SOL    HW2   36   1.505   0.817   0.287 -0.7761 -0.6259  1.0910
   13SOL     OW   37   2.494   0.677   1.786  0.4515  0.4275  0.2714
   13SOL    HW1   38   2.399   0.653   1.814 -1.2529  1.1751  0.8691
   13SOL    HW2   39   2.517   0.645   1.689  1.6376  0.0623  0.7462
   14SOL     OW   40   1.871   0.055   0.726  0.3937  0.8569 -0.5244
   14SOL    HW1   41   1.817   0.090   0.641 -0.1555  1.1513  0.3707
   14SOL    HW2   42   1.812   0.016   0.803 -0.4349 -3.0254 -1.4598
   15SOL     OW   43   1.981   2.077   2.734 -0.1184 -0.5773 -0.4933
   15SOL    HW1   44   1.909   2.151   2.750 -0.0695  0.5928  0.4337
   15SOL    HW2   45   1.946   1.990   2.688 -0.9221  0.0085  2.7344
   16SOL     OW   46   1.590   1.739   2.968 -0.2147  0.4973  0.2767
   16SOL    HW1   47   1.617   1.637   2.985 -2.0779 -0.7494  0.2250
   16SOL    HW2   48   1.672   1.801   2.976 -0.5210 -1.5834  1.3289
   17SOL     OW   49   0.124   0.510   0.207 -0.0714 -0.0940 -0.1507
   17SOL    HW1   50   0.222   0.533   0.178 -0.4494  0.3478  1.9076
   17SOL    HW2   51   0.060   0.517   0.124 -1.6999 -0.7623 -2.4890
   18SOL     OW   52   0.946   2.901   2.133 -0.9156 -0.8217  0.4960
   18SOL    HW1   53   0.867   2.836   2.131  0.7919  2.5862 -0.5644
   18SOL    HW2   54   1.029   2.884   2.067  0.9251 -1.0230 -0.2760
   19SOL     OW   55   0.527   0.826   1.895 -0.1981  0.2472 -0.3407
   19SOL    HW1   56   0.560   0.742   1.955 -0.6504 -1.1330 -0.3093
   19SOL    HW2   57   0.608   0.891   1.877 -2.6333 -1.5640 -0.5464
   20SOL     OW   58   0.180   2.717   0.832 -0.6056  0.4707  0.2949
   20SOL    HW1   59   0.125   2.799   0.794  3.2051  2.6148 -2.6196
   20SOL    HW2   60   0.217   2.654   0.760 -0.5704  0.1976  0.8085
   21SOL     OW   61   2.718   0.224   2.096 -1.0300  0.6132 -0.3437
   21SOL    HW1   62   2.668   0.176   2.018  0.8475  1.4941 -0.8221
   21SOL    HW2   63   2.819   0.189   2.112 -0.4802 -0.4533  2.2061
   22SOL     OW   64   2.383   0.227   0.152 -0.0291 -0.1464  0.3713
   22SOL    HW1   65   2.388   0.126   0.154 -0.2074  2.2015  0.6898
   22SOL    HW2   66   2.293   0.264   0.115 -0.6046  1.7266 -0.3872
   23SOL     OW   67   2.784   0.658   0.655  0.1518  0.0379  0.1341
   23SOL    HW1   68   2.786   0.553   0.654  0.8837 -3.9416  0.3664
   23SOL    HW2   69   2.780   0.700   0.557 -2.2481 -1.0946 -2.0095
   24SOL     OW   70   0.199   1.897   0.363 -0.0294  0.7780  0.0210
   24SOL    HW1   71   0.150   1.959   0.296 -3.2009 -1.4463 -0.2892
   24SOL    HW2   72   0.302   1.898   0.344  3.3621  2.4265 -0.6545
   25SOL     OW   73   2.202   0.575   0.262 -0.0754  0.4225 -0.9864
   25SOL    HW1   74   2.162   0.540   0.173 -1.7139  0.1162 -1.5451
   25SOL    HW2   75   2.263   0.511   0.310  0.9521  2.0981  2.6519
   26SOL     OW   76   2.511   2.091   2.078  0.2217  0.1943 -0.1649
   26SOL    HW1   77   2.576   2.160   2.129 -2.0498 -0.4041  0.5082
   26SOL    HW2   78   2.559   2.033   2.006 -1.3661 -0.1553 -3.2142
   27SOL     OW   79   0.594   2.961   0.205  0.2785 -0.0171 -0.1241
   27SOL    HW1   80   0.696   2.984   0.200  0.0849  0.0839 -0.4262
   27SOL    HW2   81   0.553   2.969   0.109 -2.1224 -1.9047 -0.9578
   28SOL     OW   82   1.571   0.166   0.272  0.5874  0.2837 -0.0312
   28SOL    HW1   83   1.618   0.134   0.181  2.3836  0.3515 -0.4415
   28SOL    HW2   84   1.592   0.265   0.295 -1.0851  2.0639  0.8917
   29SOL     OW   85   1.955   0.626   0.418  0.2408  0.7371 -0.3898
   29SOL    HW1   86   1.926   0.722   0.435  0.7754 -0.1908 -0.5593
   29SOL    HW2   87   2.060   0.621   0.407  0.7686 -3.0809  1.1964
   30SOL     OW   88   0.174   1.971   0.885 -0.3795 -0.0342 -0.1480
   30SOL    HW1   89   0.132   1.967   0.787  0.0428  0.0515  0.5836
   30SOL    HW2   90   0.127   2.040   0.948 -0.4859  0.9044 -0.9036
   31SOL     OW   91   2.093   3.069   2.346 -0.2344  0.3816  0.0442
   31SOL    HW1   92   2.074   3.090   2.447  1.6368  2.1352  0.3063
   31SOL    HW2   93   2.023   3.006   2.299  1.3712 -0.5053  1.4476
   32SOL     OW   94   2.953   0.071   0.181  0.5658 -0.6898 -0.7301
   32SOL    HW1   95   2.970  -0.035   0.159  1.1195 -0.3867 -3.1675
   32SOL    HW2   96   3.045   0.116   0.201  1.1919 -1.5998 -0.3536
   33SOL     OW   97   0.942   0.302   0.606 -0.0627 -0.0183 -0.3816
   33SOL    HW1   98   0.907   0.216   0.559  1.7532  1.4086 -1.0861
   33SOL    HW2   99   1.044   0.311   0.590 -1.8834  1.3132  0.0398
   34SOL     OW  100   0.259   2.760   1.089 -0.1169 -0.6810 -0.7589
   34SOL    HW1  101   0.271   2.684   1.015  2.1812 -1.1779  3.6401
   34SOL    HW2  102   0.355   2.785   1.126 -0.3891  0.7566  0.9914
   35SOL     OW  103   0.026   0.082   1.885 -0.0969 -0.6239  0.1758
   35SOL    HW1  104   0.070   0.001   1.933 -1.2532  0.4360 -0.0840
   35SOL    HW2  105   0.005   0.072   1.785  0.5136 -0.7428  2.7710
   36SOL     OW  106   1.909   1.180   1.733 -0.1585 -0.0645 -0.3661
   36SOL    HW1  107   1.969   1.113   1.686  1.2497  5.2080  1.7014
   36SOL    HW2  108   1.961   1.264   1.761  0.8717  1.3434 -1.1632
   37SOL     OW  109   1.183   0.173   0.933 -0.0218  0.3878  0.1876
   37SOL    HW1  110   1.237   0.235   1.000 -0.6513  0.1165  2.0523
   37SOL    HW2  111   1.240   0.094   0.903  1.0833  0.7389 -0.4305
   38SOL     OW  112   1.056   2.803   2.487  0.2848  0.7542  0.2751
   38SOL    HW1  113   0.969   2.742   2.476  0.4672 -0.6600 -1.7178
   38SOL    HW2  114   1.035   2.901   2.467 -0.4862  0.7435  0.9813
   39SOL     OW  115   2.313   1.406   3.027  0.4843 -0.1840 -0.3726
   39SOL    HW1  116   2.379   1.324   3.033  2.6746  1.0519  1.6380
   39SOL    HW2  117   2.257   1.415   3.118  1.2650  1.2057  2.2174
   40SOL     OW  118   2.037   2.441   2.526  0.5024 -0.4183 -0.0046
   40SOL    HW1  119   1.993   2.535   2.528 -0.3913 -0.9871 -0.4431
   40SOL    HW2  120   1.978   2.369   2.481 -2.3107 -0.5507  2.1803
   41SOL     OW  121   3.039   0.700   2.843  0.1177  0.1745  0.1079
   41SOL    HW1  122   2.986   0.787   2.816 -3.9735 -1.3025 -0.7449
   41SOL    HW2  123   3.000   0.608   2.819  2.3775 -0.7001 -2.0899
   42SOL     OW  124   1.790   1.732   0.491  0.0808  0.5091 -0.2136
   42SOL    HW1  125   1.748   1.641   0.471  1.0054  2.2659  1.6883
   42SOL    HW2  126   1.790   1.786   0.407  0.7136 -1.5959  0.6626
   43SOL     OW  127   0.459   1.643   1.139 -0.4763 -0.1855 -0.1009
   43SOL    HW1  128   0.460   1.541   1.169 -1.3645 -0.5699 -1.2011
   43SOL    HW2  129   0.366   1.679   1.132  0.1811  0.3230  3.3376
   44SOL     OW  130   1.777   2.511   3.018 -0.5178 -0.2158 -0.7061
   44SOL    HW1  131   1.810   2.592   2.962 -0.0714  1.9004  1.3988
   44SOL    HW2  132   1.793   2.414   2.981  1.4390 -1.4418  2.4803
   45SOL     OW  133   0.419   1.941   2.595 -0.3040 -0.0684  0.1032
   45SOL    HW1  134   0.356   1.920   2.514 -3.4143  0.6520 -0.3220
   45SOL    HW2  135   0.455   1.859   2.643  0.5953  0.8433  0.3797
   46SOL     OW  136   1.252   0.683   0.193 -0.1415 -0.2570  0.0863
   46SOL    HW1  137   1.269   0.753   0.114 -0.6123  1.1992 -0.4101
   46SOL    HW2  138   1.176   0.714   0.257 -0.0793 -1.8226 -2.9562
   47SOL     OW  139   0.221   2.512   1.558  0.1813  0.3961 -0.3390
   47SOL    HW1  140   0.263   2.420   1.558 -3.2414 -1.0076  4.0443
   47SOL    HW2  141   0.177   2.533   1.463  1.3155 -2.3189 -4.2859
   48SOL     OW  142   2.635   0.639   0.135  0.6080  0.4726 -0.2220
   48SOL    HW1  143   2.624   0.620   0.239  0.7595 -0.0457  1.5307
   48SOL    HW2  144   2.727   0.675   0.109 -0.8740 -5.0330  0.3288
   49SOL     OW  145   0.293   0.814   1.754 -0.0757 -0.2758  0.3074
   49SOL    HW1  146   0.377   0.836   1.817 -1.8278  0.4246  0.5067
   49SOL    HW2  147   0.312   0.735   1.691  1.4974 -1.1937  1.2958
   50SOL     OW  148   1.675   1.143   0.330  0.1195  0.2202  0.5101
   50SOL    HW1  149   1.649   1.054   0.281 -0.9925 -0.8660  3.9996
   50SOL    HW2  150   1.627   1.150   0.423  0.5202 -2.5727 -0.7062
   51SOL     OW  151   2.873   1.814   0.283 -0.4087 -0.3411 -0.5558
   51SOL    HW1  152   2.794   1.755   0.249 -0.5573 -3.8440 -0.9261
   51SOL    HW2  153   2.951   1.765   0.341 -0.9311  1.4571  0.0447
   52SOL     OW  154   0.763   2.010   0.509  0.1894  0.2628  0.1282
   52SOL    HW1  155   0.671   2.049   0.535  1.2353 -0.0846  1.9310
   52SOL    HW2  156   0.796   1.924   0.568 -2.3664  0.0470 -0.2162
   53SOL     OW  157   0.193   0.413   1.584  0.0606  0.7389 -0.2901
   53SOL    HW1  158   0.279   0.470   1.586  1.3309 -1.9343  1.8155
   53SOL    HW2  159   0.112   0.456   1.535  1.3507 -0.8646 -1.7252
   54SOL     OW  160   1.806   0.488   3.067 -0.2655  0.4917  0.3148
   54SOL    HW1  161   1.849   0.433   3.143 -1.7601  1.6951  1.3848
   54SOL    HW2  162   1.698   0.477   3.078 -3.0550 -1.3630 -0.3295
   55SOL     OW  163   0.760   2.898   0.681 -0.2386 -0.4789 -0.1346
   55SOL    HW1  164   0.695   2.978   0.688 -3.7005 -0.8544 -2.1687
   55SOL    HW2  165   0.859   2.924   0.666  1.1616 -0.6637  2.4099
   56SOL     OW  166   0.544   1.591   0.021  0.8888 -0.0545  0.4271
   56SOL    HW1  167   0.447   1.636   0.031  0.3809 -0.4485  0.9694
   56SOL    HW2  168   0.545   1.502  -0.033  2.1760 -0.9605 -0.7748
   57SOL     OW  169   1.717   2.519   2.470 -0.0968  0.2710 -0.3872
   57SOL    HW1  170   1.750   2.424   2.430 -0.6841  2.4412 -0.8116
   57SOL    HW2  171   1.622   2.520   2.504 -1.3710 -3.2649 -3.2942
   58SOL     OW  172   0.664   0.242   1.049  0.2022 -0.2128  0.5873
   58SOL    HW1  173   0.561   0.250   1.031  0.8432  1.5155  0.0210
   58SOL    HW2  174   0.710   0.148   1.030 -0.1170  3.3041  0.5783
   59SOL     OW  175   0.461   2.440   2.723  0.1606 -0.4468 -0.5720
   59SOL    HW1  176   0.514   2.352   2.698  0.2024  0.6487  1.1298
   59SOL    HW2  177   0.511   2.474   2.805 -0.7116 -0.6188  0.8341
   60SOL     OW  178   2.289   2.049   2.218  0.2682  0.5879  0.4116
   60SOL    HW1  179   2.373   2.064   2.153 -3.4230 -2.8898  1.4758
   60SOL    HW2  180   2.295   2.089   2.316 -1.2226 -0.0665 -0.2231
   61SOL     OW  181   1.321   0.639   0.499 -0.5103  0.4340  0.2592
   61SOL    HW1  182   1.243   0.688   0.542  0.9281  2.5063  1.4164
   61SOL    HW2  183   1.354   0.688   0.416 -1.0950 -0.3457 -1.4646
   62SOL     OW  184   2.737   1.821   2.937  0.0474  0.2007  0.0076
   62SOL    HW1  185   2.672   1.749   2.903 -1.0932 -0.0634 -0.4068
   62SOL    HW2  186   2.821   1.834   2.872  0.2886  2.2289  2.0165
   63SOL     OW  187   0.571   0.880   0.200 -0.5924 -0.8940  0.3241
   63SOL    HW1  188   0.634   0.935   0.143 -0.9449 -0.8326 -1.7254
   63SOL    HW2  189   0.602   0.855   0.293 -0.4976 -0.2667 -0.5285
   64SOL     OW  190   0.100   0.473   2.469 -0.3309 -0.2291 -0.2837
   64SOL    HW1  191   0.120   0.545   2.538  0.1701  1.1505 -1.9780
   64SOL    HW2  192   0.079   0.515   2.371 -0.3364  0.1106  0.1369
   65SOL     OW  193   0.148   1.509   0.532 -0.1451  0.6628 -0.0800
   65SOL    HW1  194   0.158   1.556   0.623 -0.6245 -1.5946 -1.6227
   65SOL    HW2  195   0.239   1.478   0.488 -1.2119 -0.6639 -0.2188
   66SOL     OW  196   2.570   0.374   0.620 -0.1079 -0.5612  0.0774
   66SOL    HW1  197   2.664   0.348   0.630 -1.9920 -0.6359  2.3090
   66SOL    HW2  198   2.506   0.307   0.664  0.8230 -1.5291 -1.0822
   67SOL     OW  199   0.529   2.549   1.385  0.0633 -0.2238  0.5044
   67SOL    HW1  200   0.620   2.507   1.413 -0.6467  1.1103 -2.7262
   67SOL    HW2  201   0.461   2.470   1.368  0.1990  0.7284 -0.0138
   68SOL     OW  202   1.013   1.079   2.473 -0.1472 -0.3292  0.1652
   68SOL    HW1  203   1.075   0.994   2.458  0.2459 -1.1905 -0.5980
   68SOL    HW2  204   0.939   1.087   2.398  0.2007  0.5238 -2.3725
   69SOL     OW  205   0.737   2.739   2.170 -0.0000  0.4091 -0.3569
   69SOL    HW1  206   0.775   2.643   2.152  2.0459  1.3499 -2.5923
   69SOL    HW2  207   0.635   2.753   2.152  2.6001 -1.7703  2.5764
   70SOL     OW  208   0.531   0.294   2.692  0.6622 -0.6640 -0.1859
   70SOL    HW1  209   0.470   0.297   2.775 -0.3456 -0.4116 -2.5970
   70SOL    HW2  210   0.545   0.197   2.666 -0.6252  0.7992  1.6045
   71SOL     OW  211   1.123   1.750   0.467  0.0994  0.2790  0.1995
   71SOL    HW1  212   1.055   1.675   0.509 -2.0012 -0.0146 -1.1037
   71SOL    HW2  213   1.091   1.770   0.373 -0.4872  1.9778  0.8436
   72SOL     OW  214   1.812   0.210   2.172  0.4428 -0.1624 -0.3599
   72SOL    HW1  215   1.884   0.275   2.202  1.7228  2.2539  1.6643
   72SOL    HW2  216   1.847   0.111   2.156 -1.1577 -0.7836  3.4500
   73SOL     OW  217   2.808   2.183   2.410 -0.3071 -0.8249 -0.5897
   73SOL    HW1  218   2.797   2.094   2.373 -0.6041  3.5253  1.2358
   73SOL    HW2  219   2.843   2.183   2.509  0.7394  1.2616  0.6680
   74SOL     OW  220   2.659   2.911   2.139  0.4304 -0.4017 -0.2558
   74SOL    HW1  221   2.601   2.895   2.226  0.4013 -1.6940  3.5567
   74SOL    HW2  222   2.762   2.924   2.156 -1.2063  2.5376 -0.6263
   75SOL     OW  223   0.902   0.795   1.109 -0.4541  0.3437 -0.4985
   75SOL    HW1  224   0.837   0.841   1.042 -1.9673 -0.1128 -2.1229
   75SOL    HW2  225   0.949   0.859   1.179  2.8743  0.7892  0.7951
   76SOL     OW  226   1.682   1.164   2.504  0.2723  0.0031 -0.1345
   76SOL    HW1  227   1.583   1.137   2.507 -1.7153 -0.2283  3.2168
   76SOL    HW2  228   1.707   1.258   2.533 -0.5754 -2.3454  1.8397
   77SOL     OW  229   2.967   0.911   0.948 -0.0985 -0.5031  0.3612
   77SOL    HW1  230   2.954   0.809   0.941  0.1909  1.9068 -3.6383
   77SOL    HW2  231   2.991   0.945   1.043 -4.1436 -0.8984  0.8716
   78SOL     OW  232   2.054   1.488   1.504 -0.5668 -0.0235 -0.8635
   78SOL    HW1  233   2.131   1.527   1.446  0.1952  0.3957 -0.0870
   78SOL    HW2  234   1.967   1.472   1.451  0.6892  1.8175 -1.9591
   79SOL     OW  235   0.584   1.379   0.844 -0.0894  0.5862 -0.9941
   79SOL    HW1  236   0.480   1.393   0.845  0.6136 -0.4304  0.4163
   79SOL    HW2  237   0.608   1.292   0.797 -0.0829 -2.2799 -0.7630
   80SOL     OW  238   0.628   0.508   1.596 -0.6370 -0.1435  0.2440
   80SOL    HW1  239   0.691   0.567   1.540 -3.9770  0.5590 -0.6489
   80SOL    HW2  240   0.659   0.407   1.595  2.2573  0.0129  0.7727
   81SOL     OW  241   1.031   1.398   2.637  0.4220  0.0766  0.5302
   81SOL    HW1  242   1.103   1.330   2.620  0.4208 -1.1886  0.6844
   81SOL    HW2  243   0.948   1.372   2.581  2.0482 -1.1413 -0.2545
   82SOL     OW  244   1.009   2.962   1.524 -0.0892  0.4662  0.2683
   82SOL    HW1  245   1.012   2.997   1.428 -1.1884  0.3923 -0.1019
   82SOL    HW2  246   0.926   2.900   1.543  2.9728 -2.0644 -0.0477
   83SOL     OW  247   2.737   2.454   0.861 -0.1026 -0.0070  0.1306
   83SOL    HW1  248   2.658   2.406   0.821 -0.3998 -1.7038 -1.2464
   83SOL    HW2  249   2.730   2.556   0.854  0.7835 -2.5444  0.6343
   84SOL     OW  250   0.650   3.021   2.350  0.2000 -0.3389 -0.0968
   84SOL    HW1  251   0.601   3.068   2.424  1.1805  4.5274 -0.5337
   84SOL    HW2  252   0.697   2.931   2.376 -0.0595 -0.3921  0.1897
   85SOL     OW  253   0.259   1.566   1.488 -0.0036 -0.9069 -0.1416
   85SOL    HW1  254   0.252   1.672   1.492  2.7196 -0.7962 -0.5930
   85SOL    HW2  255   0.320   1.523   1.565  1.1508  0.5079 -1.0886
   86SOL     OW  256   0.392   0.995   1.532  0.0875 -0.0823 -0.1017
   86SOL    HW1  257   0.365   0.967   1.436 -1.2156  2.3208  0.5503
   86SOL    HW2  258   0.372   0.927   1.607 -2.2657 -1.0669 -0.6339
   87SOL     OW  259   1.573   0.674   0.209 -0.3521 -0.3339 -0.1834
   87SOL    HW1  260   1.670   0.714   0.201  3.0686 -3.4471  1.1783
   87SOL    HW2  261   1.552   0.616   0.131 -0.3589  0.1236  1.9381
   88SOL     OW  262   1.590   1.378   0.231 -0.7245  0.1326  0.3706
   88SOL    HW1  263   1.628   1.289   0.268 -0.5744  1.5821 -0.0827
   88SOL    HW2  264   1.487   1.384   0.216 -2.5046  1.3197 -0.1145
   89SOL     OW  265   0.003   0.461   0.585 -0.0136 -0.0993 -0.0307
   89SOL    HW1  266   0.056   0.412   0.511 -1.9908  2.4212 -0.8348
   89SOL    HW2  267  -0.079   0.406   0.617  2.4121  0.8522  1.6650
   90SOL     OW  268   0.900   1.584   0.059  0.5525 -0.3303  0.1216
   90SOL    HW1  269   0.815   1.551   0.108  4.1917 -3.6893  1.4461
   90SOL    HW2  270   0.881   1.599  -0.044 -2.4516  0.4808 -0.5703
   91SOL     OW  271   1.212   1.446   1.820  0.2448 -0.4910  0.2666
   91SOL    HW1  272   1.188   1.532   1.878 -1.2599 -1.9015  3.5749
   91SOL    HW2  273   1.317   1.446   1.801  0.0711 -1.4802  2.3204
   92SOL     OW  274   3.089   0.980   1.213 -0.1408 -0.2090  0.4843
   92SOL    HW1  275   3.144   1.054   1.162  2.2152 -1.5361  0.6611
   92SOL    HW2  276   3.110   0.982   1.314 -0.4607 -0.2324 -0.0483
   93SOL     OW  277   0.022   2.709   3.046  0.3449  0.1755 -0.2802
   93SOL    HW1  278  -0.061   2.713   2.982 -0.0928 -1.4066  0.8152
   93SOL    HW2  279   0.013   2.633   3.115 -0.0377  0.7761 -0.4815
   94SOL     OW  280   1.515   1.492   1.744  0.5273 -0.2789  0.0934
   94SOL    HW1  281   1.577   1.415   1.780  0.6876  1.6604  3.0820
   94SOL    HW2  282   1.524   1.569   1.811 -0.3755 -0.4607  1.8464
   95SOL     OW  283   1.359   2.538   2.979  0.4489 -0.3778 -0.0596
   95SOL    HW1  284   1.281   2.548   3.046 -0.5019  1.9034 -3.0486
   95SOL    HW2  285   1.393   2.442   2.972  1.4976 -2.1829  2.4975
   96SOL     OW  286   0.552   2.110   1.245 -0.0105 -0.2241 -0.1497
   96SOL    HW1  287   0.508   2.058   1.162  1.3614 -2.0401 -0.7969
   96SOL    HW2  288   0.600   2.044   1.311  0.3680  0.3044 -1.2418
   97SOL     OW  289   0.426   1.605   2.472  0.3497  0.0233  0.1622
   97SOL    HW1  290   0.341   1.582   2.521  1.5541 -2.3637 -0.2847
   97SOL    HW2  291   0.507   1.625   2.533 -0.1569  0.9097 -0.2254
   98SOL     OW  292   2.024   1.604   1.208  0.1732 -0.2216 -0.4929
   98SOL    HW1  293   1.947   1.568   1.267  1.3516 -0.9559  1.6646
   98SOL    HW2  294   2.048   1.539   1.134  0.6600  0.1146  1.7387
   99SOL     OW  295   2.470   2.048   1.372  0.6171  0.0530 -0.9842
   99SOL    HW1  296   2.498   2.013   1.466  0.9257  0.9873 -0.7264
   99SOL    HW2  297   2.407   1.982   1.324  0.3964  0.6826 -0.7872
  100SOL     OW  298   2.381   0.310   2.112  0.2969  0.0273 -0.2737
  100SOL    HW1  299   2.306   0.282   2.178 -2.0835 -0.6763  0.7495
  100SOL    HW2  300   2.449   0.379   2.145  3.0371  0.1141  1.1303
  101SOL     OW  301   0.403   1.494   0.413 -0.0559 -0.3730  0.8855
  101SOL    HW1  302   0.484   1.493   0.474  0.5331 -0.4009 -0.0132
  101SOL    HW2  303   0.381   1.588   0.381  2.0924 -2.0240 -0.2807
  102SOL     OW  304   2.250   1.030   0.854 -0.1671  0.0502 -0.1245
  102SOL    HW1  305   2.228   0.927   0.847  0.5396 -1.0928  0.7437
  102SOL    HW2  306   2.320   1.062   0.789 -1.9971  0.3109  4.7062
  103SOL     OW  307   2.267   0.069   0.403 -0.3574  0.2908  0.1080
  103SOL    HW1  308   2.279   0.170   0.412 -1.1353 -2.8099  0.9174
  103SOL    HW2  309   2.360   0.022   0.426 -0.8069 -2.1496 -1.0529
  104SOL     OW  310   0.075   1.753   2.210 -0.4873  0.3108  0.1610
  104SOL    HW1  311   0.154   1.725   2.153  0.5156  1.6210 -2.0208
  104SOL    HW2  312  -0.002   1.788   2.153  1.9030 -1.0947  0.1143
  105SOL     OW  313   1.222   2.095   0.792  0.0989 -0.1394 -0.0323
  105SOL    HW1  314   1.180   2.098   0.699  2.5035 -1.2075  0.2702
  105SOL    HW2  315   1.257   2.000   0.814  0.5702  0.7152 -1.1944
  106SOL     OW  316   2.098   0.428   1.399 -0.3814 -0.0292  0.1226
  106SOL    HW1  317   2.069   0.331   1.410  1.4965 -0.6671 -1.9349
  106SOL    HW2  318   2.109   0.478   1.489 -0.4024  0.4391 -0.2721
  107SOL     OW  319   1.822   3.020   1.168 -0.2981  0.1164 -0.7471
  107SOL    HW1  320   1.846   3.103   1.229  0.1657 -0.2813  0.9594
  107SOL    HW2  321   1.753   2.957   1.211 -1.5129 -1.6785  0.1729
  108SOL     OW  322   0.759   2.795   1.250 -0.2680 -0.7010  0.7356
  108SOL    HW1  323   0.768   2.777   1.353  0.6899  0.0732  0.6637
  108SOL    HW2  324   0.856   2.802   1.208 -1.3018 -0.4038  1.1199
  109SOL     OW  325   2.136   0.103   0.782 -0.3403 -0.2449  0.7778
  109SOL    HW1  326   2.035   0.078   0.769  0.2598  1.2073  1.3142
  109SOL    HW2  327   2.172   0.083   0.877 -1.6880 -1.2615  0.6623
  110SOL     OW  328   0.467   2.823   2.800 -0.0626  0.0175  0.0545
  110SOL    HW1  329   0.453   2.850   2.699 -0.1919 -1.7002 -0.0688
  110SOL    HW2  330   0.554   2.758   2.808  0.0965 -2.2511  0.1487
  111SOL     OW  331   1.311   0.558   2.323  0.0711 -0.5685 -0.4851
  111SOL    HW1  332   1.254   0.585   2.407  0.0889  1.0800  1.0031
  111SOL    HW2  333   1.363   0.472   2.342  1.4226  1.8711  0.5570
  112SOL     OW  334   1.701   0.539   1.439 -1.0508 -0.5521  0.1047
  112SOL    HW1  335   1.741   0.517   1.343 -0.8002 -1.7595 -0.1050
  112SOL    HW2  336   1.698   0.457   1.511 -2.5215 -0.6276  0.1559
  113SOL     OW  337   2.294   1.669   1.762  0.7259 -0.5565 -0.2728
  113SOL    HW1  338   2.362   1.604   1.723 -0.2941  0.1982  0.8653
  113SOL    HW2  339   2.320   1.704   1.856 -1.5686 -0.0387 -0.3256
  114SOL     OW  340   0.397   0.534   1.256  0.7086  0.5628 -0.2219
  114SOL    HW1  341   0.418   0.564   1.157 -2.0506  0.0371  2.1033
  114SOL    HW2  342   0.299   0.563   1.283  0.2089  1.5210 -1.6039
  115SOL     OW  343   2.733   1.593   1.256 -0.2903  0.3613 -0.6876
  115SOL    HW1  344   2.748   1.492   1.253  0.3441 -1.6779 -0.8093
  115SOL    HW2  345   2.755   1.637   1.163 -0.4938 -0.2994 -0.9446
  116SOL     OW  346   1.818   1.051   0.698 -0.9406  0.4201 -0.6739
  116SOL    HW1  347   1.757   0.992   0.643  0.5587 -0.0374 -0.5833
  116SOL    HW2  348   1.789   1.148   0.715  1.3116 -0.6722  0.5904
  117SOL     OW  349   1.231   0.376   0.552 -0.0195 -0.0066 -0.0100
  117SOL    HW1  350   1.242   0.434   0.642 -0.0171 -1.4267  1.9428
  117SOL    HW2  351   1.263   0.423   0.469  2.0284 -1.9280 -2.5700
  118SOL     OW  352   1.141   1.110   1.110  0.4874 -0.1922  0.4480
  118SOL    HW1  353   1.144   1.039   1.178  0.4382 -0.0860 -2.1075
  118SOL    HW2  354   1.163   1.207   1.143 -0.0332 -0.7108 -1.3805
  119SOL     OW  355   1.817   1.596   2.156 -0.0972 -0.4329  0.3754
  119SOL    HW1  356   1.780   1.692   2.166 -1.3079  0.1827 -0.9580
  119SOL    HW2  357   1.925   1.590   2.165  1.3153 -1.2526  2.6721
  120SOL     OW  358   2.957   2.880   0.113 -0.0253 -0.0365 -0.0924
  120SOL    HW1  359   3.031   2.820   0.081  0.0225  1.0636  1.2895
  120SOL    HW2  360   2.855   2.851   0.093 -0.6383  0.9493 -1.3899
  121SOL     OW  361   1.997   0.750   2.208  0.4210  0.2187 -0.7327
  121SOL    HW1  362   2.021   0.799   2.118 -1.5007 -1.3862 -0.2122
  121SOL    HW2  363   2.015   0.649   2.202 -0.1545 -0.7680 -1.0511
  122SOL     OW  364   2.586   2.650   1.246  0.1628 -0.1936  0.6899
  122SOL    HW1  365   2.633   2.581   1.180  0.3731 -1.8194 -1.8027
  122SOL    HW2  366   2.483   2.639   1.245  1.1848  0.5151  2.5679
  123SOL     OW  367   1.732   0.076   1.708 -0.0661 -0.1394 -0.5740
  123SOL    HW1  368   1.764  -0.022   1.677  2.8470 -0.1935 -1.5672
  123SOL    HW2  369   1.805   0.123   1.758 -1.7229  0.7730 -0.2102
  124SOL     OW  370   0.089   0.479   1.104 -0.3365 -0.0694 -0.2053
  124SOL    HW1  371   0.071   0.564   1.161  0.6453  2.5230  0.4124
  124SOL    HW2  372   0.095   0.497   0.995  0.7269  0.0929 -2.7856
  125SOL     OW  373   0.862   1.823   0.692  0.1920 -0.1768 -0.1934
  125SOL    HW1  374   0.950   1.785   0.732 -0.3494 -0.1027 -0.0582
  125SOL    HW2  375   0.811   1.881   0.764  0.8766 -0.8584  0.3638
  126SOL     OW  376   1.858   2.262   2.435 -0.1621 -0.3914 -0.8295
  126SOL    HW1  377   1.911   2.230   2.352  0.5555  0.1729 -0.8505
  126SOL    HW2  378   1.802   2.186   2.482 -1.4470  2.2381 -1.0930
  127SOL     OW  379   1.010   0.892   0.269  0.4507 -0.2940  0.2301
  127SOL    HW1  380   1.005   0.958   0.348  2.2710  1.1700 -0.1599
  127SOL    HW2  381   0.973   0.798   0.298 -0.6607  1.9248  0.3019
  128SOL     OW  382   0.915   0.217   1.405  0.3721 -0.0188 -0.0496
  128SOL    HW1  383   0.886   0.284   1.335  1.1256 -1.9492  4.8492
  128SOL    HW2  384   0.917   0.116   1.378 -0.4262 -1.4758 -0.2075
  129SOL     OW  385   1.831   0.691   1.876  0.1951  0.0620 -0.1307
  129SOL    HW1  386   1.827   0.701   1.767  0.6950 -0.0273 -0.7373
  129SOL    HW2  387   1.866   0.776   1.923 -0.0669 -1.4255  0.2029
  130SOL     OW  388   1.367   2.199   1.018  0.3402 -0.7155  0.0090
  130SOL    HW1  389   1.286   2.187   0.955  1.3884  0.9993 -0.7333
  130SOL    HW2  390   1.420   2.288   1.002 -1.3629 -2.3817 -0.3656
  131SOL     OW  391   3.060   1.457   1.409 -0.5945  0.1997  0.1576
  131SOL    HW1  392   3.004   1.369   1.411  2.2736 -1.2253 -1.1313
  131SOL    HW2  393   3.161   1.432   1.407 -0.9269 -1.1695  0.1559
  132SOL     OW  394   2.063   2.444   0.520  0.0812 -0.1392  0.3383
  132SOL    HW1  395   1.959   2.465   0.542  0.4424 -1.0740 -0.5505
  132SOL    HW2  396   2.095   2.361   0.569  0.4777 -1.2927  0.2303
  133SOL     OW  397   1.868   2.323   2.835 -0.3803  0.0731 -0.4462
  133SOL    HW1  398   1.841   2.400   2.770  2.3992  0.3674  0.0293
  133SOL    HW2  399   1.969   2.310   2.826 -0.0303  2.8531 -1.0971
  134SOL     OW  400   2.659   2.361   1.619 -0.1349 -0.1532 -0.7195
  134SOL    HW1  401   2.596   2.346   1.700  0.9953  0.5866 -0.0849
  134SOL    HW2  402   2.709   2.453   1.617 -2.1157 -0.3228 -0.6023
  135SOL     OW  403   0.645   1.462   2.658  0.0049 -0.0028 -0.6390
  135SOL    HW1  404   0.628   1.366   2.700  1.9518 -2.9654  0.7304
  135SOL    HW2  405   0.680   1.456   2.565 -1.1773  0.8870 -0.6855
  136SOL     OW  406   1.197   2.026   0.417  0.5274  0.1321  0.0922
  136SOL    HW1  407   1.131   2.099   0.455  0.8042 -1.7431 -2.7444
  136SOL    HW2  408   1.184   1.931   0.456  0.7015  1.6512 -0.3980
  137SOL     OW  409   0.412   1.185   2.161 -0.3903  0.2654 -0.6060
  137SOL    HW1  410   0.332   1.171   2.219 -0.7741 -0.4880 -1.0220
  137SOL    HW2  411   0.478   1.105   2.153  1.4706  2.4963  0.2368
  138SOL     OW  412   2.481   1.515   0.216  0.5997 -0.5219  0.2775
  138SOL    HW1  413   2.390   1.457   0.224 -1.8517 -0.8739 -1.1236
  138SOL    HW2  414   2.559   1.495   0.283 -0.2152 -2.9746 -0.3471
  139SOL     OW  415   1.844   2.603   1.292 -0.5134 -0.0027  0.4983
  139SOL    HW1  416   1.739   2.601   1.287  0.2320 -1.5930  0.3286
  139SOL    HW2  417   1.871   2.507   1.330 -0.9756  0.6071 -2.5976
  140SOL     OW  418   3.023   2.998   2.545  0.7809  0.2137  0.0104
  140SOL    HW1  419   3.046   2.897   2.557  0.7149  1.1919  0.2974
  140SOL    HW2  420   3.099   3.065   2.550 -0.4436  0.6540  1.3869
  141SOL     OW  421   1.340   1.660   1.598  0.1391 -0.2034 -0.3108
  141SOL    HW1  422   1.253   1.704   1.632  1.7890 -0.0446  0.3907
  141SOL    HW2  423   1.385   1.598   1.666 -0.5626 -0.6001 -0.0523
  142SOL     OW  424   1.588   0.594   2.251  0.0930  0.5003  0.2125
  142SOL    HW1  425   1.597   0.556   2.151 -1.6107  1.8466  0.8079
  142SOL    HW2  426   1.487   0.606   2.275 -1.6468 -1.0048 -2.8515
  143SOL     OW  427   2.699   0.899   0.496 -0.2438 -0.0019 -0.5100
  143SOL    HW1  428   2.752   0.952   0.424 -1.2250 -0.6917 -0.0534
  143SOL    HW2  429   2.734   0.912   0.588 -1.0387  1.2155 -1.1557
  144SOL     OW  430   2.907   1.163   1.448 -0.0685 -0.1086  0.5447
  144SOL    HW1  431   2.841   1.154   1.531  0.8576  2.2119  2.3155
  144SOL    HW2  432   2.978   1.086   1.443  1.8116  0.3933 -3.4722
  145SOL     OW  433   0.973   1.816   0.185 -0.3222  0.1245  0.3518
  145SOL    HW1  434   1.065   1.833   0.144 -0.5377 -2.4164  0.5567
  145SOL    HW2  435   0.935   1.723   0.158  1.6550  0.5741  0.8417
  146SOL     OW  436   2.516   0.659   1.497  0.2896 -0.4814  0.0398
  146SOL    HW1  437   2.490   0.569   1.449 -2.1236  1.4181 -1.6989
  146SOL    HW2  438   2.466   0.737   1.445  0.3707 -0.4995 -1.6421
  147SOL     OW  439   1.096   2.476   0.644  0.3623  0.3910  0.4262
  147SOL    HW1  440   1.060   2.526   0.565  2.7417  1.2877 -0.3283
  147SOL    HW2  441   1.178   2.423   0.619 -1.9329  3.7996 -2.0190
  148SOL     OW  442   1.619   1.476   3.048  0.0032 -0.3207  0.3272
  148SOL    HW1  443   1.629   1.402   2.976 -0.8841 -0.3606  3.8740
  148SOL    HW2  444   1.610   1.437   3.145 -0.4755 -1.9554 -1.1372
  149SOL     OW  445   0.703   1.385   1.983  0.3294 -0.3104  0.2820
  149SOL    HW1  446   0.601   1.381   2.008 -0.2791  1.5487  0.2791
  149SOL    HW2  447   0.723   1.338   1.889  0.0550  2.6837 -2.7644
  150SOL     OW  448   3.015   1.217   0.943 -0.0605 -0.0924  0.1468
  150SOL    HW1  449   3.073   1.217   1.027 -1.7243 -0.9031  0.2220
  150SOL    HW2  450   2.944   1.145   0.949 -0.3358  0.3710 -2.9884
  151SOL     OW  451   0.167   0.735   2.117 -0.4703 -0.2480 -0.3378
  151SOL    HW1  452   0.161   0.831   2.077  0.5486  0.2890  0.2663
  151SOL    HW2  453   0.188   0.668   2.043 -1.8459 -1.0195  0.5908
  152SOL     OW  454   1.436   1.766   1.295  0.6744  0.2505  0.1402
  152SOL    HW1  455   1.455   1.870   1.297  1.2518 -2.1889 -1.8583
  152SOL    HW2  456   1.345   1.745   1.251 -0.4271 -0.3470  1.6139
  153SOL     OW  457   0.054   1.536   0.158  0.6002  0.2554 -0.2462
  153SOL    HW1  458   0.027   1.441   0.192 -1.0657  0.5806 -0.8158
  153SOL    HW2  459   0.042   1.607   0.235 -0.3506  2.3481 -1.7799
  154SOL     OW  460   2.387   1.837   2.812 -0.1587 -0.6687  0.5778
  154SOL    HW1  461   2.399   1.734   2.836  0.0212  0.6160  0.1964
  154SOL    HW2  462   2.451   1.869   2.735 -0.7735  0.4128  1.2850
  155SOL     OW  463   2.464   1.196   0.380 -0.0768 -0.0647  0.2547
  155SOL    HW1  464   2.524   1.221   0.302 -1.8147 -1.5899 -0.8466
  155SOL    HW2  465   2.388   1.138   0.343 -0.2837  1.0049  0.1943
  156SOL     OW  466   2.541   0.994   0.837  0.6036  0.0110 -0.6605
  156SOL    HW1  467   2.454   0.980   0.892  0.7438  1.3221  0.5275
  156SOL    HW2  468   2.526   1.068   0.768 -0.7519 -0.3600  0.0058
  157SOL     OW  469   1.272   2.938   3.026 -0.6160  0.1968 -0.0520
  157SOL    HW1  470   1.321   2.897   2.944  3.4229 -2.1074 -1.5254
  157SOL    HW2  471   1.281   3.042   3.027 -0.5536  0.5672 -1.7194
  158SOL     OW  472   0.994   1.831   1.902 -0.6076 -0.1513  0.4566
  158SOL    HW1  473   1.039   1.924   1.901  0.1664 -0.7996 -1.7902
  158SOL    HW2  474   0.900   1.836   1.935  0.4330  0.1009  1.8576
  159SOL     OW  475   0.841   0.411   1.217  0.3636 -0.5448  0.0150
  159SOL    HW1  476   0.818   0.495   1.280 -0.2901 -0.8795 -1.0621
  159SOL    HW2  477   0.760   0.378   1.163  0.7802  0.4840  0.2178
  160SOL     OW  478   1.414   2.354   1.565  0.0427  0.3432  0.1533
  160SOL    HW1  479   1.370   2.279   1.615  1.0151  0.6139  1.0308
  160SOL    HW2  480   1.518   2.345   1.552  1.8714  0.0400  0.7027
  161SOL     OW  481   0.068   2.952   0.347  0.0217  0.2112  0.9512
  161SOL    HW1  482   0.051   2.851   0.317 -1.1827 -1.6153 -1.5212
  161SOL    HW2  483   0.069   3.025   0.274 -0.5757 -0.8115  0.4037
  162SOL     OW  484   2.583   1.881   0.491  0.4335 -0.0455 -0.0401
  162SOL    HW1  485   2.573   1.837   0.401  0.2804  1.6400  1.5694
  162SOL    HW2  486   2.559   1.813   0.566  3.1620 -0.1796 -2.4210
  163SOL     OW  487   1.911   2.836   0.724  0.2094 -0.5292 -0.2695
  163SOL    HW1  488   1.923   2.858   0.623 -0.1566 -0.9410 -0.2560
  163SOL    HW2  489   1.968   2.751   0.758  1.5938 -0.0140  0.4188
  164SOL     OW  490   3.065   0.256   1.235 -0.3924 -0.1730  0.2086
  164SOL    HW1  491   3.116   0.330   1.181  1.7259  0.7412 -1.1031
  164SOL    HW2  492   3.126   0.197   1.297  1.2049 -3.1076  2.5797
  165SOL     OW  493   0.980   1.434   0.751  0.5101 -0.8836 -0.0690
  165SOL    HW1  494   0.914   1.465   0.818  1.1034 -1.2392 -3.9375
  165SOL    HW2  495   0.962   1.472   0.653 -1.6410 -1.7186  1.6018
  166SOL     OW  496   1.521   1.051   1.740  0.7035  0.0033 -0.0075
  166SOL    HW1  497   1.427   1.028   1.783  0.2242 -0.3311 -0.9816
  166SOL    HW2  498   1.569   1.139   1.774  1.2307  0.6813 -1.6647
  167SOL     OW  499   0.725   1.987   1.426 -0.0282  0.9635 -0.6307
  167SOL    HW1  500   0.707   2.050   1.508  1.7485  0.9550  0.2871
  167SOL    HW2  501   0.690   1.888   1.444  0.1445 -0.8098  0.2173
  168SOL     OW  502   1.668   2.362   0.157  0.3129 -0.4651  0.4121
  168SOL    HW1  503   1.734   2.417   0.090  1.2097 -0.0175 -1.6918
  168SOL    HW2  504   1.683   2.361   0.263 -2.2075 -1.9479  0.3053
  169SOL     OW  505   0.225   2.557   2.258  0.1907  0.1958 -0.0623
  169SOL    HW1  506   0.218   2.493   2.174 -2.6801  0.6531 -3.1511
  169SOL    HW2  507   0.243   2.513   2.352  0.7347  1.0898 -0.0796
  170SOL     OW  508   1.128   0.211   2.027 -0.1445 -0.3178  0.8332
  170SOL    HW1  509   1.218   0.204   2.081  1.7466 -0.2050 -0.8035
  170SOL    HW2  510   1.147   0.201   1.921  1.6256  0.2811 -0.0432
  171SOL     OW  511   0.186   0.779   2.384  0.5142 -0.0657 -0.5042
  171SOL    HW1  512   0.116   0.834   2.432 -0.8288  0.7444 -2.5113
  171SOL    HW2  513   0.164   0.770   2.282 -3.0535 -1.9166 -1.3364
  172SOL     OW  514   0.934   1.003   2.883  0.2448 -0.0696 -0.3412
  172SOL    HW1  515   0.965   1.100   2.902 -1.0641  0.1317 -1.0965
  172SOL    HW2  516   0.857   0.994   2.815  1.1464 -0.9156 -0.8657
  173SOL     OW  517   0.667   2.690   0.132  0.0368  0.2923 -0.2133
  173SOL    HW1  518   0.657   2.790   0.148 -0.6080 -4.6284 -2.3415
  173SOL    HW2  519   0.578   2.638   0.137  2.7229 -0.6127 -2.2989
  174SOL     OW  520   1.495   2.824   1.045  0.4842  0.1547 -0.3224
  174SOL    HW1  521   1.438   2.892   0.996  0.6018 -2.2262  1.9193
  174SOL    HW2  522   1.520   2.735   0.990 -1.3823 -2.7744  1.6638
  175SOL     OW  523   0.423   3.085   1.650  0.5663 -0.2179  0.5911
  175SOL    HW1  524   0.473   3.108   1.737 -0.7967 -1.9823  0.9473
  175SOL    HW2  525   0.382   3.173   1.607  0.1129  2.0738  2.1677
  176SOL     OW  526   2.615   0.390   0.006 -0.3095 -0.3922 -0.1723
  176SOL    HW1  527   2.638   0.476   0.059  0.5197 -0.0147 -0.5767
  176SOL    HW2  528   2.526   0.351   0.049  2.1824  0.9878  2.0912
  177SOL     OW  529   0.346   0.311   0.974 -0.4144  0.1312 -0.9254
  177SOL    HW1  530   0.282   0.241   0.927 -0.3749 -0.3702  0.9867
  177SOL    HW2  531   0.304   0.344   1.065  1.3641 -1.4877 -1.3262
  178SOL     OW  532   0.011   2.745   2.584  0.5195  0.4088  0.2489
  178SOL    HW1  533  -0.032   2.652   2.583  1.5689 -1.6232 -0.0143
  178SOL    HW2  534   0.088   2.750   2.655 -0.1934  1.3823  0.2936
  179SOL     OW  535   3.071   1.599   1.138 -0.0346 -0.9816 -0.1630
  179SOL    HW1  536   2.983   1.645   1.108 -2.0132  1.4675  0.7413
  179SOL    HW2  537   3.060   1.568   1.239 -3.7617 -0.8146 -2.4233
  180SOL     OW  538   0.180   1.198   1.865 -0.0298  0.3859 -0.1744
  180SOL    HW1  539   0.282   1.177   1.845  1.3038  1.0495  0.9730
  180SOL    HW2  540   0.168   1.291   1.907  0.9224 -4.6915  0.7130
  181SOL     OW  541   3.046   1.854   2.489  0.1567 -0.4717 -0.3443
  181SOL    HW1  542   3.110   1.936   2.492 -1.2044  1.9631 -0.5552
  181SOL    HW2  543   2.977   1.863   2.416 -0.1271 -0.0401  0.1465
  182SOL     OW  544   2.285   1.317   1.173  0.8475 -0.2146  0.0536
  182SOL    HW1  545   2.211   1.278   1.113  2.2181 -1.5132 -0.5698
  182SOL    HW2  546   2.295   1.418   1.158  1.3268  1.6713 -1.0836
  183SOL     OW  547   1.476   2.252   2.602 -0.2029  0.1971  0.1920
  183SOL    HW1  548   1.386   2.211   2.578 -1.8312  1.1069 -1.2549
  183SOL    HW2  549   1.564   2.211   2.557 -1.7711 -1.7431  0.4939
  184SOL     OW  550   2.001   0.851   0.758 -0.6548  0.3029 -0.2120
  184SOL    HW1  551   1.942   0.937   0.746  0.1980 -0.7506 -1.4982
  184SOL    HW2  552   1.958   0.781   0.821  0.1039  1.5118 -2.2314
  185SOL     OW  553   1.633   2.764   2.047 -0.0759  0.0054 -0.1173
  185SOL    HW1  554   1.569   2.843   2.038 -0.5456 -0.2798 -1.9259
  185SOL    HW2  555   1.639   2.736   2.147  2.1226  2.2073 -0.5541
  186SOL     OW  556   0.100   2.220   1.653  0.0848  0.8666  0.3240
  186SOL    HW1  557   0.075   2.270   1.742  0.8542 -1.7973 -0.4046
  186SOL    HW2  558   0.186   2.167   1.673  1.0105  1.1135  3.1817
  187SOL     OW  559   1.292   0.754   1.680 -0.0048 -0.6926  0.2403
  187SOL    HW1  560   1.360   0.786   1.612 -1.4298  2.2593  1.1633
  187SOL    HW2  561   1.338   0.729   1.769  0.5805 -4.3008 -0.4625
  188SOL     OW  562   2.765   2.771   1.423  0.1309 -0.5769 -0.0781
  188SOL    HW1  563   2.762   2.873   1.437 -0.6832 -2.5044  0.7020
  188SOL    HW2  564   2.696   2.744   1.350 -2.9723 -1.8512  1.0067
  189SOL     OW  565   0.942   1.208   1.424 -0.1758 -0.1210  0.4076
  189SOL    HW1  566   1.010   1.247   1.501  1.9442  1.3755  1.6907
  189SOL    HW2  567   0.910   1.279   1.355 -0.3503 -0.1503 -1.2496
  190SOL     OW  568   1.466   1.910   1.595 -0.0150  0.1142  0.3426
  190SOL    HW1  569   1.422   1.817   1.579  2.9591  1.7685 -0.2635
  190SOL    HW2  570   1.490   1.942   1.691 -2.5564  1.1911  0.8230
  191SOL     OW  571   0.966   0.723   1.583 -0.4863 -0.0869 -0.1546
  191SOL    HW1  572   1.027   0.649   1.620  0.2456 -0.1347 -0.0946
  191SOL    HW2  573   0.930   0.781   1.659  0.1657 -1.7348  2.7879
  192SOL     OW  574   1.868   2.245   1.110 -0.0854 -0.0353 -0.3120
  192SOL    HW1  575   1.769   2.263   1.078 -1.1988  2.0636  0.9332
  192SOL    HW2  576   1.938   2.283   1.042  0.8538 -0.6126 -1.1033
  193SOL     OW  577   0.596   0.578   0.470 -0.0040  0.2820 -0.0806
  193SOL    HW1  578   0.524   0.502   0.497  0.1903 -1.5526  0.4402
  193SOL    HW2  579   0.642   0.571   0.382  0.6960  0.3720  0.2294
  194SOL     OW  580   0.329   0.898   1.288 -0.1630  0.6316 -0.1305
  194SOL    HW1  581   0.280   0.811   1.270  0.4004  0.0518 -1.2546
  194SOL    HW2  582   0.344   0.960   1.204 -1.1000  1.6390  2.5663
  195SOL     OW  583   1.004   2.891   0.547 -0.1058  0.2544 -0.2520
  195SOL    HW1  584   0.964   2.802   0.514 -0.2202  4.8820  0.2686
  195SOL    HW2  585   1.103   2.904   0.515 -0.7601  0.8048  2.1708
  196SOL     OW  586   0.210   1.324   1.379  0.0898  0.1671  0.3566
  196SOL    HW1  587   0.252   1.419   1.402  0.5497  1.1058 -0.3975
  196SOL    HW2  588   0.196   1.263   1.462  2.0015 -0.1441  0.7067
  197SOL     OW  589   0.815   2.075   0.241  0.0355  0.3487  0.4598
  197SOL    HW1  590   0.799   2.060   0.342 -0.1076  0.5676  0.7127
  197SOL    HW2  591   0.858   1.995   0.191  0.3256  0.2840 -1.9647
  198SOL     OW  592   0.292   1.255   0.251  0.0017  0.3237  0.3250
  198SOL    HW1  593   0.194   1.255   0.217  3.5043 -0.8100  0.2445
  198SOL    HW2  594   0.328   1.345   0.277 -1.9963  0.5099  1.8220
  199SOL     OW  595   2.266   0.363   2.526  1.2661  0.0164 -0.5807
  199SOL    HW1  596   2.180   0.330   2.584 -1.8438  1.5895  0.7120
  199SOL    HW2  597   2.356   0.352   2.574  0.0396 -0.3776  2.2525
  200SOL     OW  598   0.033   2.917   0.761 -0.0109 -0.5323  0.2221
  200SOL    HW1  599  -0.055   2.910   0.702 -0.8188 -2.5061 -0.3311
  200SOL    HW2  600   0.089   3.001   0.732  2.4107 -0.5789 -1.8340
  201SOL     OW  601   1.073   0.740   0.601  0.0987 -0.1850 -0.1578
  201SOL    HW1  602   1.069   0.803   0.684  2.9916 -0.6904 -0.3235
  201SOL    HW2  603   0.993   0.669   0.602  4.1630 -1.6847 -1.5298
  202SOL     OW  604   0.429   1.115   1.875 -0.5368 -0.8728  0.5945
  202SOL    HW1  605   0.507   1.092   1.816 -0.8207 -0.5619  1.1401
  202SOL    HW2  606   0.452   1.143   1.970  1.8295  0.3355  1.9909
  203SOL     OW  607   0.656   0.206   1.525  0.0045  0.3382 -0.3647
  203SOL    HW1  608   0.718   0.165   1.456  0.4052 -0.3539  1.2852
  203SOL    HW2  609   0.692   0.207   1.621 -0.2124 -1.0351  1.4148
  204SOL     OW  610   2.074   1.837   2.896  0.0749 -0.5503 -0.4501
  204SOL    HW1  611   2.099   1.753   2.945  1.4038 -0.8590 -3.1296
  204SOL    HW2  612   2.143   1.856   2.817  2.1210 -1.3305 -0.1547
  205SOL     OW  613   1.831   1.860   3.058  0.1668  0.4415 -0.5113
  205SOL    HW1  614   1.913   1.862   2.997 -3.3845 -0.5877 -0.0500
  205SOL    HW2  615   1.773   1.944   3.043  0.2794 -0.3542 -4.0778
  206SOL     OW  616   2.501   2.803   0.326 -0.2040  0.5241  0.2194
  206SOL    HW1  617   2.550   2.713   0.350  1.1648 -1.4821  0.6324
  206SOL    HW2  618   2.568   2.873   0.288 -0.7212  0.6912 -1.2018
  207SOL     OW  619   0.647   1.806   3.002  0.0873  0.3361  0.6743
  207SOL    HW1  620   0.733   1.768   2.958 -0.4086 -0.0222 -3.3177
  207SOL    HW2  621   0.608   1.732   3.066 -0.1781 -0.7167  2.0181
  208SOL     OW  622   1.103   1.554   1.368 -0.4216  0.0241  0.1873
  208SOL    HW1  623   1.125   1.620   1.295 -1.7006 -0.3995 -0.2097
  208SOL    HW2  624   1.147   1.583   1.458 -1.4921  2.4833  1.6562
  209SOL     OW  625   0.212   0.938   3.053 -0.2576 -0.3698 -0.5196
  209SOL    HW1  626   0.215   0.847   3.005  0.1639  0.9208 -0.2573
  209SOL    HW2  627   0.243   0.936   3.151  0.5938 -1.9043 -1.9088
  210SOL     OW  628   1.799   0.504   1.184 -0.3064 -0.6527  0.0980
  210SOL    HW1  629   1.757   0.595   1.149 -1.8046 -2.1176  1.9114
  210SOL    HW2  630   1.904   0.497   1.168  2.4600  0.3727 -1.2665
  211SOL     OW  631   2.127   1.052   1.553 -0.1502  0.8606  0.2642
  211SOL    HW1  632   2.185   1.009   1.629 -1.4221  2.9776  0.1519
  211SOL    HW2  633   2.174   1.124   1.492  0.8091  0.7184 -2.5836
  212SOL     OW  634   0.028   0.957   1.472  0.3919  0.2338  0.4219
  212SOL    HW1  635   0.079   1.030   1.526  2.5187 -0.7397 -0.3978
  212SOL    HW2  636   0.024   0.869   1.529 -0.8347 -1.9496 -0.5767
  213SOL     OW  637   2.836   0.258   0.391 -0.1695 -0.5429 -0.2229
  213SOL    HW1  638   2.856   0.188   0.320 -0.9843 -1.0849 -2.2211
  213SOL    HW2  639   2.790   0.338   0.338 -2.3548  2.9880 -1.0065
  214SOL     OW  640   2.151   0.247   2.293  0.1050 -0.1897 -0.1904
  214SOL    HW1  641   2.206   0.311   2.356 -2.2857  1.5814 -0.2284
  214SOL    HW2  642   2.135   0.148   2.324 -2.8340 -0.2576 -1.3000
  215SOL     OW  643   1.631   2.262   2.126 -0.2359 -0.0772 -0.2687
  215SOL    HW1  644   1.723   2.300   2.092  1.1924  0.5706  0.7421
  215SOL    HW2  645   1.562   2.334   2.152  0.3219 -2.7683 -2.0995
  216SOL     OW  646   2.201   0.641   0.653 -0.0821 -0.4287  0.3294
  216SOL    HW1  647   2.172   0.545   0.620  1.5197 -3.7940  2.5975
  216SOL    HW2  648   2.123   0.706   0.650  0.5974 -1.6767  0.6573
  217SOL     OW  649   0.762   2.793   2.439  0.0554 -0.5340 -0.0006
  217SOL    HW1  650   0.740   2.699   2.477 -1.3091 -0.4635  0.3628
  217SOL    HW2  651   0.747   2.787   2.336 -2.1489 -1.2326 -0.2428
  218SOL     OW  652   1.914   1.435   0.025 -0.1557 -0.0416 -0.1106
  218SOL    HW1  653   1.831   1.443  -0.033 -1.2690 -2.4403 -1.3589
  218SOL    HW2  654   1.906   1.358   0.097 -1.3812 -2.7461  2.1662
  219SOL     OW  655   2.400   1.298   2.542  0.5525 -0.6969 -0.0120
  219SOL    HW1  656   2.463   1.244   2.482  0.2800  0.4387  2.2808
  219SOL    HW2  657   2.363   1.241   2.623  1.9740  0.4142  2.2303
  220SOL     OW  658   1.504   1.053   1.258 -0.7961 -0.2325  0.3869
  220SOL    HW1  659   1.607   1.035   1.277  0.7802  1.4134  0.4007
  220SOL    HW2  660   1.495   1.088   1.160 -0.4090 -1.7444  0.3976
  221SOL     OW  661   1.355   0.994   2.203 -0.1503  0.3440 -0.2984
  221SOL    HW1  662   1.288   1.001   2.127 -0.5418  3.1780 -0.6704
  221SOL    HW2  663   1.450   0.969   2.173 -1.1753 -1.8786  1.8408
  222SOL     OW  664   1.109   0.010   1.166 -0.5337 -0.3877 -0.0987
  222SOL    HW1  665   1.156   0.031   1.253  0.6588  1.4314  0.3520
  222SOL    HW2  666   1.134   0.075   1.087  1.1584  2.3557  0.1978
  223SOL     OW  667   2.745   0.915   2.037  0.2864  0.4560  0.4345
  223SOL    HW1  668   2.714   0.976   2.116 -0.0343  1.2577  0.0891
  223SOL    HW2  669   2.846   0.921   2.019 -1.6333 -0.4589  0.7935
  224SOL     OW  670   1.524   1.032   2.784 -0.2948  0.4145 -0.0915
  224SOL    HW1  671   1.577   0.961   2.734  1.0022  1.8764 -0.5696
  224SOL    HW2  672   1.470   1.094   2.714  0.0435  1.0399 -0.6223
  225SOL     OW  673   2.924   2.770   2.871  0.1796 -0.3575  0.0736
  225SOL    HW1  674   2.956   2.698   2.806  1.3951  1.9787  0.3616
  225SOL    HW2  675   2.972   2.860   2.845 -0.3883  0.5355 -1.7430
  226SOL     OW  676   2.460   1.567   2.851  1.0989 -0.3005  0.8421
  226SOL    HW1  677   2.505   1.523   2.768 -0.3006 -2.2014 -0.0426
  226SOL    HW2  678   2.406   1.505   2.912  0.6039  4.8458 -0.8578
  227SOL     OW  679   0.843   0.152   0.014  0.0938  0.0231  0.4337
  227SOL    HW1  680   0.914   0.087   0.055 -0.0112  0.5069  2.1475
  227SOL    HW2  681   0.824   0.141  -0.089  5.5798 -2.2137 -2.3175
  228SOL     OW  682   2.395   0.636   2.856  0.0527  0.1032  0.2772
  228SOL    HW1  683   2.323   0.627   2.786  0.6917 -0.1330 -1.9949
  228SOL    HW2  684   2.476   0.577   2.835 -0.9663  0.9282  1.3163
  229SOL     OW  685   0.606   0.445   1.851 -0.8666  0.3964  0.0157
  229SOL    HW1  686   0.616   0.343   1.849 -0.8421  5.0129  2.8868
  229SOL    HW2  687   0.624   0.485   1.757 -1.6439  1.6315  4.3747
  230SOL     OW  688   1.872   1.142   2.089  0.4396 -0.6436 -0.7322
  230SOL    HW1  689   1.940   1.199   2.039  4.0407  0.3083 -0.4996
  230SOL    HW2  690   1.785   1.191   2.114  0.3956 -0.7537 -0.0667
  231SOL     OW  691   0.659   1.019   3.066 -0.2092  0.1448  0.9159
  231SOL    HW1  692   0.721   1.099   3.053 -1.7890  1.5676 -0.5442
  231SOL    HW2  693   0.562   1.048   3.088 -2.1068 -1.4004 -1.3422
  232SOL     OW  694   2.357   3.085   2.858 -0.4022 -0.0300  0.8397
  232SOL    HW1  695   2.411   2.996   2.872 -0.9092 -0.2722  0.8337
  232SOL    HW2  696   2.383   3.134   2.771  0.7287  0.2312 -0.6901
  233SOL     OW  697   1.704   1.294   1.148 -0.2884  0.2596  0.3232
  233SOL    HW1  698   1.763   1.288   1.062  1.2245 -1.1808 -2.1730
  233SOL    HW2  699   1.719   1.211   1.215 -0.1624 -0.7711  0.5852
  234SOL     OW  700   1.576   2.572   1.859 -0.4915 -0.4970  0.0418
  234SOL    HW1  701   1.589   2.651   1.926  0.3017 -0.8893  1.2721
  234SOL    HW2  702   1.496   2.514   1.876  0.7002 -0.0445  3.6347
  235SOL     OW  703   0.007   2.982   2.845 -0.0827  0.3928 -0.6421
  235SOL    HW1  704   0.023   3.016   2.748  0.1823 -0.5174 -1.0849
  235SOL    HW2  705  -0.022   3.068   2.903  2.7958  2.3642 -1.3040
  236SOL     OW  706   2.919   0.721   0.076 -0.6189  0.1995 -0.0701
  236SOL    HW1  707   2.982   0.776   0.138 -0.5329  0.1637  0.8381
  236SOL    HW2  708   2.951   0.628   0.043 -0.5229  0.8736  1.2565
  237SOL     OW  709   1.521   1.694   1.007 -0.1169 -0.7084 -0.5126
  237SOL    HW1  710   1.615   1.656   1.003 -2.4126  2.5418  0.9150
  237SOL    HW2  711   1.495   1.716   1.107  0.4752  0.3019  0.0526
  238SOL     OW  712   1.764   1.274   0.852  0.4509 -0.3718 -0.5858
  238SOL    HW1  713   1.832   1.353   0.883  1.3491 -0.6786  2.2772
  238SOL    HW2  714   1.681   1.315   0.802 -0.8948  2.7717  2.0556
  239SOL     OW  715   2.053   0.265   2.682 -0.0493 -0.1590 -0.4240
  239SOL    HW1  716   2.121   0.248   2.762  1.7941  1.6025  0.1484
  239SOL    HW2  717   1.978   0.332   2.717 -0.3977 -2.3528  1.0240
  240SOL     OW  718   0.898   0.653   0.317  0.4979  0.6499 -0.6590
  240SOL    HW1  719   0.954   0.580   0.276  1.9356  1.8030  3.9751
  240SOL    HW2  720   0.883   0.638   0.418 -1.0688 -3.1118 -1.2690
  241SOL     OW  721   0.565   0.081   0.371 -0.8059 -0.3192 -0.0789
  241SOL    HW1  722   0.618   0.155   0.315 -0.5984  0.1355 -2.0125
  241SOL    HW2  723   0.560  -0.001   0.313  2.0188 -2.5630 -2.3270
  242SOL     OW  724   0.668   2.514   1.136  0.1148  0.3242  0.2829
  242SOL    HW1  725   0.624   2.553   1.221 -2.4281  0.1319  1.3408
  242SOL    HW2  726   0.722   2.588   1.088  1.5916  1.7721  0.6496
  243SOL     OW  727   1.082   0.591   2.501 -0.0299  0.1742 -0.0972
  243SOL    HW1  728   1.010   0.606   2.433  0.9169  0.0707  2.9567
  243SOL    HW2  729   1.062   0.520   2.577 -3.3186 -0.0755  0.5507
  244SOL     OW  730   2.801   1.885   2.296  0.5357 -0.0460 -0.3100
  244SOL    HW1  731   2.844   1.868   2.205  0.8063 -3.9685  0.5785
  244SOL    HW2  732   2.752   1.807   2.335  2.0369  4.8484  0.0705
  245SOL     OW  733   2.342   0.685   2.195 -0.6254  0.1469 -0.6975
  245SOL    HW1  734   2.417   0.752   2.216  2.0773  0.8815  1.8835
  245SOL    HW2  735   2.303   0.641   2.285 -2.7076  4.0148  1.0384
  246SOL     OW  736   0.205   2.914   1.701  0.0672  0.0204  0.2059
  246SOL    HW1  737   0.148   2.882   1.624 -0.0125 -0.5006  3.7063
  246SOL    HW2  738   0.276   2.985   1.675  2.5920 -1.7762  1.4953
  247SOL     OW  739   2.182   0.589   3.049  0.7695 -0.2135  0.5552
  247SOL    HW1  740   2.267   0.604   3.000  2.4243 -0.7772 -0.3702
  247SOL    HW2  741   2.131   0.677   3.060  1.1495  2.0188 -2.4901
  248SOL     OW  742   2.142   1.835   1.587 -0.5456 -0.2664 -0.2383
  248SOL    HW1  743   2.202   1.774   1.647  2.4543  0.4987 -0.5495
  248SOL    HW2  744   2.049   1.852   1.621  0.3993  0.9977  2.4926
  249SOL     OW  745   1.857   1.912   1.903 -0.0063 -0.0582 -0.4574
  249SOL    HW1  746   1.870   1.835   1.834  2.1492  2.7512  0.4551
  249SOL    HW2  747   1.948   1.949   1.932 -0.6361  0.5004  1.3091
  250SOL     OW  748   1.131   0.721   1.958  0.2289  0.2565 -0.5252
  250SOL    HW1  749   1.154   0.619   1.976 -0.3100  1.4485  0.0981
  250SOL    HW2  750   1.102   0.747   1.863  0.5647  0.6906 -0.6517
  251SOL     OW  751   0.025   1.578   2.487  0.1109  0.4180 -0.5975
  251SOL    HW1  752   0.032   1.679   2.470  1.8166  0.0517 -1.2586
  251SOL    HW2  753  -0.072   1.554   2.503  2.9257  0.6183 -1.6728
  252SOL     OW  754   1.521   0.859   1.552  0.2936 -0.2161  0.1050
  252SOL    HW1  755   1.606   0.837   1.509 -0.7513  2.1688  1.2861
  252SOL    HW2  756   1.523   0.920   1.634 -0.9221  0.2047 -0.9515
  253SOL     OW  757   0.935   1.508   0.489  0.5504 -0.1046 -0.2195
  253SOL    HW1  758   0.971   1.427   0.427  3.1551 -3.1586  0.3216
  253SOL    HW2  759   0.837   1.512   0.492  2.2849 -0.0925 -4.0800
  254SOL     OW  760   2.029   2.145   1.610  0.1393 -0.2968 -0.3902
  254SOL    HW1  761   1.987   2.068   1.557  0.3023 -1.3120  1.7835
  254SOL    HW2  762   1.955   2.188   1.668 -1.3053 -1.4683 -0.0810
  255SOL     OW  763   0.154   1.158   2.871  0.0554 -0.1248  0.0091
  255SOL    HW1  764   0.220   1.241   2.879  0.6409  2.9237  0.3845
  255SOL    HW2  765   0.184   1.065   2.908  1.3859 -4.2395  0.8080
  256SOL     OW  766   2.807   1.375   1.764  0.0164  0.0821  0.2382
  256SOL    HW1  767   2.712   1.408   1.769  0.6474  0.9754 -0.7475
  256SOL    HW2  768   2.812   1.281   1.724 -0.0142  0.1835  1.9462
  257SOL     OW  769   0.812   0.205   1.777 -0.7128  0.2483 -0.3318
  257SOL    HW1  770   0.863   0.286   1.728  2.0899  0.1602 -2.1431
  257SOL    HW2  771   0.855   0.112   1.760 -0.0951 -0.3598 -2.5620
  258SOL     OW  772   2.952   1.290   0.447  0.9611  0.0958 -0.3179
  258SOL    HW1  773   2.873   1.361   0.448 -0.1850 -1.5123  2.0387
  258SOL    HW2  774   3.002   1.275   0.533 -2.8888 -0.8371 -1.8512
  259SOL     OW  775   0.458   2.953   3.065 -0.0871 -0.0649  0.0598
  259SOL    HW1  776   0.363   2.914   3.098 -3.2653 -1.5721  1.3555
  259SOL    HW2  777   0.485   2.912   2.974 -0.0648 -0.3601  3.0548
  260SOL     OW  778   2.717   0.843   2.804 -1.0032 -0.1517  0.2960
  260SOL    HW1  779   2.621   0.827   2.775  2.9568 -2.4341  1.3475
  260SOL    HW2  780   2.737   0.872   2.898  0.5456 -0.4529 -0.7553
  261SOL     OW  781   2.758   1.316   1.272 -0.2529  0.8643 -0.9478
  261SOL    HW1  782   2.696   1.255   1.208 -0.9729 -3.2910 -1.3332
  261SOL    HW2  783   2.820   1.257   1.332 -1.3796  0.9568 -0.7611
  262SOL     OW  784   1.396   2.970   2.018  0.1177 -0.0673  0.4657
  262SOL    HW1  785   1.434   3.033   1.947 -0.7790 -1.5862  0.4008
  262SOL    HW2  786   1.311   2.923   1.986  1.3282  0.0181 -1.5321
  263SOL     OW  787   0.858   0.743   2.324 -0.5465  0.3440  0.3526
  263SOL    HW1  788   0.840   0.650   2.288  1.6487  1.9731 -2.5781
  263SOL    HW2  789   0.918   0.790   2.253  0.4729 -1.8630 -0.2085
  264SOL     OW  790   2.205   0.846   0.370  0.3265 -0.4798  0.5521
  264SOL    HW1  791   2.191   0.783   0.286  0.3629  4.4623  1.7051
  264SOL    HW2  792   2.295   0.824   0.416 -3.1323  1.4047  1.3144
  265SOL     OW  793   0.924   2.385   2.663  0.6191  0.2866 -0.2471
  265SOL    HW1  794   0.986   2.430   2.730 -2.3379 -1.4814 -0.9269
  265SOL    HW2  795   0.888   2.298   2.702 -1.4877 -0.9391 -1.3949
  266SOL     OW  796   1.355   1.680   3.091  0.0582  0.1983 -0.1340
  266SOL    HW1  797   1.327   1.752   3.160  1.0262 -0.9713 -0.2682
  266SOL    HW2  798   1.440   1.702   3.032 -0.1290 -2.7460  3.0196
  267SOL     OW  799   0.975   3.027   2.370  0.6560 -0.0835  0.2553
  267SOL    HW1  800   0.973   2.973   2.279  1.9670  0.8140 -1.4323
  267SOL    HW2  801   0.942   3.127   2.358 -1.9592 -0.0412  0.8323
  268SOL     OW  802   0.655   1.191   1.057 -0.3516 -0.6550  0.0881
  268SOL    HW1  803   0.672   1.238   1.144 -2.2068  0.3696 -2.3119
  268SOL    HW2  804   0.619   1.255   0.980 -0.6239  1.8774  0.5177
  269SOL     OW  805   2.359   2.532   1.577 -0.3117 -0.2295  0.5782
  269SOL    HW1  806   2.421   2.452   1.602 -1.8299  1.7455  2.5726
  269SOL    HW2  807   2.318   2.570   1.664 -0.3222  1.6372 -1.7378
  270SOL     OW  808   0.181   2.970   1.984  0.0036 -0.7517  0.3565
  270SOL    HW1  809   0.221   2.941   1.893  0.2463  0.9628  1.7913
  270SOL    HW2  810   0.148   2.891   2.041  3.5834  0.0209  0.7642
  271SOL     OW  811   0.413   1.382   1.167 -0.2944 -0.1093  0.2746
  271SOL    HW1  812   0.385   1.376   1.065 -0.7003 -0.0796  2.1123
  271SOL    HW2  813   0.340   1.344   1.230  3.1937  1.5800  0.6021
  272SOL     OW  814   1.990   2.874   1.952 -0.2838  0.1016  0.7700
  272SOL    HW1  815   1.939   2.820   1.881  1.6719  0.3564  3.0375
  272SOL    HW2  816   2.069   2.940   1.911  2.4274  0.8999  1.1294
  273SOL     OW  817   1.462   1.435   2.758  0.4086 -0.0917 -0.3579
  273SOL    HW1  818   1.373   1.469   2.803 -1.2388  0.4755 -0.8533
  273SOL    HW2  819   1.524   1.379   2.823 -1.4068  0.2558  1.9241
  274SOL     OW  820   1.229   0.479   2.024  0.0647 -0.5579  0.7751
  274SOL    HW1  821   1.199   0.380   2.014 -0.5683 -0.5318 -0.7112
  274SOL    HW2  822   1.288   0.490   2.105 -1.9239  1.5461 -1.9109
  275SOL     OW  823   0.592   2.086   1.891 -0.2000 -0.0129  0.2308
  275SOL    HW1  824   0.606   2.173   1.950  2.4124  1.0002 -3.2122
  275SOL    HW2  825   0.502   2.046   1.911  2.8557  0.3816 -0.0687
  276SOL     OW  826   2.179   0.894   2.748  0.2963  0.7192 -0.0024
  276SOL    HW1  827   2.119   0.865   2.674  2.5458  1.6293 -0.2937
  276SOL    HW2  828   2.141   0.865   2.842 -0.4813 -0.3440 -1.6711
  277SOL     OW  829   3.067   0.900   0.223  0.0721  0.0546  0.2228
  277SOL    HW1  830   3.154   0.938   0.180 -0.1279 -1.6172  0.4213
  277SOL    HW2  831   3.090   0.839   0.304  0.6225  1.1258 -0.7200
  278SOL     OW  832   0.229   0.283   3.062 -0.2215 -0.1917 -0.9501
  278SOL    HW1  833   0.292   0.209   3.027  0.0344  3.5167  1.3800
  278SOL    HW2  834   0.281   0.369   3.085 -0.8164 -0.9364 -0.6220
  279SOL     OW  835   0.152   0.093   0.876  0.3429 -0.0217 -0.1181
  279SOL    HW1  836   0.152   0.024   0.955  1.3362  0.2824 -2.5578
  279SOL    HW2  837   0.223   0.071   0.804 -0.7077  2.7108 -2.6376
  280SOL     OW  838   1.561   2.961   2.431  0.1154 -0.0646 -0.2925
  280SOL    HW1  839   1.620   3.019   2.491 -0.6322  1.1734 -1.7281
  280SOL    HW2  840   1.485   3.021   2.392  1.1242  1.5328 -0.8082
  281SOL     OW  841   0.566   0.961   2.203  0.2468  0.5552  0.2385
  281SOL    HW1  842   0.594   0.866   2.172  0.8770  1.5430  1.7620
  281SOL    HW2  843   0.507   0.962   2.290 -0.5376 -0.9588 -0.1325
  282SOL     OW  844   1.792   2.483   0.544 -0.1881  0.2594 -0.2415
  282SOL    HW1  845   1.749   2.408   0.488  1.7132  1.3610 -1.1325
  282SOL    HW2  846   1.753   2.577   0.533 -1.4034 -0.7775 -0.3408
  283SOL     OW  847   1.127   0.900   0.859  0.2688 -0.8440 -0.8219
  283SOL    HW1  848   1.167   0.864   0.949 -0.8235  0.8551  0.3229
  283SOL    HW2  849   1.095   0.995   0.883  0.6713 -0.1257 -0.0277
  284SOL     OW  850   2.314   2.694   2.494 -0.9749  0.2859  0.5451
  284SOL    HW1  851   2.356   2.769   2.445 -0.8445 -1.8928  3.2767
  284SOL    HW2  852   2.361   2.679   2.584 -1.3648  0.0436  2.4101
  285SOL     OW  853   1.304   3.038   2.599  0.3407  0.1819  0.1109
  285SOL    HW1  854   1.333   3.059   2.505 -0.5390  0.2846  5.0126
  285SOL    HW2  855   1.206   3.064   2.622 -0.1522 -1.1026  3.0499
  286SOL     OW  856   0.452   0.464   0.757 -0.2933 -0.5339 -0.8473
  286SOL    HW1  857   0.426   0.406   0.842 -0.8708  0.4087  1.2058
  286SOL    HW2  858   0.434   0.413   0.666  0.1837 -1.1982 -0.1468
  287SOL     OW  859   0.102   1.290   2.522  0.0803  0.0622 -0.3082
  287SOL    HW1  860   0.047   1.240   2.594 -2.8234  1.2440 -2.3804
  287SOL    HW2  861   0.065   1.391   2.521 -2.5037  3.7639  3.6971
  288SOL     OW  862   1.588   2.632   1.577 -0.3328 -0.2169  0.0607
  288SOL    HW1  863   1.583   2.582   1.670 -0.8811 -2.2098 -2.0513
  288SOL    HW2  864   1.677   2.654   1.536  2.5750 -0.1487 -2.4291
  289SOL     OW  865   0.656   2.712   0.879  0.3032 -0.2303  0.2821
  289SOL    HW1  866   0.697   2.781   0.811  1.1576  0.2092 -0.6354
  289SOL    HW2  867   0.608   2.757   0.959  1.8300  0.3603 -2.4111
  290SOL     OW  868   2.799   1.088   1.703  0.1603 -0.3656  0.2248
  290SOL    HW1  869   2.710   1.037   1.695 -0.4901 -1.3073  0.5187
  290SOL    HW2  870   2.867   1.049   1.768  0.9551  1.1910 -1.0195
  291SOL     OW  871   1.977   0.049   0.062 -0.2809 -0.2203 -0.5127
  291SOL    HW1  872   1.989   0.046   0.163 -0.1630 -3.5910 -1.6545
  291SOL    HW2  873   2.025   0.133   0.027 -3.3019 -0.9309 -0.2466
  292SOL     OW  874   2.985   1.152   3.015 -0.2239 -0.5635 -0.4610
  292SOL    HW1  875   2.902   1.213   2.989  1.1418 -1.2455 -1.1750
  292SOL    HW2  876   3.072   1.178   2.964 -1.2894 -0.9376  0.9657
  293SOL     OW  877   0.567   2.148   0.164  0.0591  0.2997  0.1809
  293SOL    HW1  878   0.519   2.202   0.232  0.1716  1.4455 -1.7181
  293SOL    HW2  879   0.666   2.122   0.193  0.6511  1.6550 -1.0111
  294SOL     OW  880   1.812   2.254   1.772 -0.3418  0.9090  0.7009
  294SOL    HW1  881   1.791   2.322   1.846  1.7565 -2.5769 -0.0025
  294SOL    HW2  882   1.759   2.269   1.686  2.1337 -0.6224 -0.0758
  295SOL     OW  883   0.990   1.064   0.482  0.3975  0.5546 -0.5666
  295SOL    HW1  884   1.087   1.037   0.509  0.6742  0.0303 -1.4847
  295SOL    HW2  885   0.926   1.054   0.555 -0.3569 -1.5168 -2.1041
  296SOL     OW  886   1.208   2.149   2.522 -1.0343  0.7891  0.3050
  296SOL    HW1  887   1.156   2.212   2.464  4.7343 -0.5486 -1.9663
  296SOL    HW2  888   1.184   2.049   2.496  1.6426 -2.1482  1.1645
  297SOL     OW  889   1.430   0.620   1.350  0.0331 -0.5032 -0.0444
  297SOL    HW1  890   1.398   0.524   1.320 -1.2668  2.9871 -1.1051
  297SOL    HW2  891   1.526   0.614   1.387 -0.2963 -0.6029 -0.0657
  298SOL     OW  892   0.559   1.363   2.959  0.2240 -0.9032 -0.7632
  298SOL    HW1  893   0.512   1.293   3.020 -2.3781 -0.7688  0.7496
  298SOL    HW2  894   0.590   1.317   2.873  0.5648  1.6933  3.6900
  299SOL     OW  895   0.473   0.272   1.313 -0.0022 -0.3307 -0.0108
  299SOL    HW1  896   0.464   0.374   1.296  1.0452  1.0890  3.8095
  299SOL    HW2  897   0.544   0.250   1.379 -4.1730 -1.3162  0.6116
  300SOL     OW  898   1.224   1.806   2.740  0.4779  0.0526 -0.4530
  300SOL    HW1  899   1.216   1.715   2.787  0.2691  2.0320 -1.0746
  300SOL    HW2  900   1.323   1.830   2.739  2.2130 -1.5220 -0.9713
  301SOL     OW  901   0.434   0.347   0.514 -0.3863 -0.2494  0.4290
  301SOL    HW1  902   0.337   0.306   0.491 -0.9857 -1.2833 -1.3815
  301SOL    HW2  903   0.517   0.296   0.476  1.3689  0.0328  0.6871
  302SOL     OW  904   1.268   2.484   2.344  0.3586 -0.4098 -0.1972
  302SOL    HW1  905   1.198   2.505   2.415 -0.2786  0.4432  1.1747
  302SOL    HW2  906   1.276   2.382   2.319  1.2072  1.6659  0.8759
  303SOL     OW  907   0.927   2.400   0.833 -0.1515 -0.3717 -0.0151
  303SOL    HW1  908   0.995   2.429   0.759  0.6510 -0.4463  0.6916
  303SOL    HW2  909   0.942   2.463   0.915  0.9484  1.6503 -0.9571
  304SOL     OW  910   0.083   1.992   0.612 -0.1323 -0.4011 -0.7380
  304SOL    HW1  911   0.132   1.945   0.531  1.3413  0.2095  0.0710
  304SOL    HW2  912   0.019   2.064   0.572  2.5774 -1.0441 -2.4432
  305SOL     OW  913   1.639   0.896   0.570 -0.2490  0.0426  0.0906
  305SOL    HW1  914   1.572   0.882   0.492 -1.0060 -0.0800 -1.0860
  305SOL    HW2  915   1.680   0.803   0.596  0.1982  0.0714 -2.6163
  306SOL     OW  916   0.425   1.852   1.916 -0.3442 -0.3557  0.0689
  306SOL    HW1  917   0.493   1.775   1.899 -0.2447 -2.7384  0.7029
  306SOL    HW2  918   0.417   1.894   2.008  0.0426 -0.0615 -1.2819
  307SOL     OW  919   3.081   0.915   2.508 -0.4999 -0.2439 -0.4042
  307SOL    HW1  920   3.078   1.002   2.568 -0.1841 -1.1880 -1.2653
  307SOL    HW2  921   3.002   0.848   2.531  1.4562 -0.2301  1.1292
  308SOL     OW  922   1.566   2.683   2.793 -0.4867  0.1663 -0.4140
  308SOL    HW1  923   1.564   2.605   2.730 -0.4425  2.1869  1.9222
  308SOL    HW2  924   1.536   2.653   2.888  1.4528 -1.0681 -0.3116
  309SOL     OW  925   1.243   0.164   1.774  0.5113  0.1862 -0.7900
  309SOL    HW1  926   1.338   0.124   1.784 -0.9045  0.7932 -1.4336
  309SOL    HW2  927   1.206   0.163   1.676 -0.1050  1.0717 -0.4672
  310SOL     OW  928   1.508   2.541   0.682  0.1236  0.7219  0.1591
  310SOL    HW1  929   1.468   2.568   0.774  1.1137  0.3516 -0.6108
  310SOL    HW2  930   1.530   2.618   0.617 -1.1681  0.2424 -2.0240
  311SOL     OW  931   1.190   1.004   1.625 -0.0917 -0.4166  0.2858
  311SOL    HW1  932   1.222   0.908   1.629  0.2114 -0.4838 -0.8681
  311SOL    HW2  933   1.243   1.064   1.560  0.3897  0.7467 -0.3186
  312SOL     OW  934   1.639   0.716   1.065  0.3321  0.5466  0.5188
  312SOL    HW1  935   1.622   0.802   1.015 -0.9841 -1.9636  1.3580
  312SOL    HW2  936   1.551   0.663   1.080  3.0612 -0.9028 -0.2154
  313SOL     OW  937   1.538   1.375   0.735  0.3532 -0.1092 -0.1675
  313SOL    HW1  938   1.471   1.427   0.792 -0.1032 -2.9735 -3.3127
  313SOL    HW2  939   1.503   1.292   0.686 -1.1920 -0.4741 -0.9435
  314SOL     OW  940   2.954   0.061   3.016 -0.1512 -0.1832  0.6071
  314SOL    HW1  941   2.955   0.096   3.114  0.3660 -0.4705 -1.7458
  314SOL    HW2  942   2.865   0.012   2.992 -1.4465  1.5692  2.5186
  315SOL     OW  943   1.220   0.202   2.764  0.0360 -0.2653 -0.7189
  315SOL    HW1  944   1.211   0.138   2.689 -1.6686  0.3485  2.0090
  315SOL    HW2  945   1.229   0.148   2.852 -0.3362  0.1689  0.9240
  316SOL     OW  946   1.728   2.046   0.854  0.5674  0.1899  0.4295
  316SOL    HW1  947   1.679   2.053   0.947 -0.6957 -0.6254 -0.8434
  316SOL    HW2  948   1.748   2.142   0.815 -1.0116  2.9065  0.0455
  317SOL     OW  949   1.133   0.644   2.890 -0.1519 -0.9095 -0.3351
  317SOL    HW1  950   1.084   0.713   2.949  1.8586  2.2974  1.0236
  317SOL    HW2  951   1.073   0.560   2.873 -0.1999  1.9662 -1.8210
  318SOL     OW  952   1.360   3.089   2.318 -0.1595 -0.1361 -0.0946
  318SOL    HW1  953   1.371   3.192   2.325  0.6749 -1.0454 -1.4118
  318SOL    HW2  954   1.366   3.046   2.225  1.0429 -2.7835  0.0872
  319SOL     OW  955   0.690   2.392   2.921 -0.6844 -0.2174  0.1616
  319SOL    HW1  956   0.617   2.350   2.986  0.5314  1.0054  2.1574
  319SOL    HW2  957   0.783   2.384   2.962 -1.9215 -0.9735 -1.7215
  320SOL     OW  958   1.697   2.267   0.406 -0.5849  0.0586  0.2284
  320SOL    HW1  959   1.767   2.196   0.386  0.5452 -1.2109 -0.4142
  320SOL    HW2  960   1.602   2.226   0.428  0.5617  2.2404 -1.1979
  321SOL     OW  961   1.616   2.748   0.512 -0.5002 -0.1419  0.5769
  321SOL    HW1  962   1.572   2.763   0.418  2.3199  0.8557  0.5376
  321SOL    HW2  963   1.713   2.783   0.514  0.6528  0.5035 -2.2857
  322SOL     OW  964   2.585   1.151   2.368  0.0525 -0.4428 -0.2710
  322SOL    HW1  965   2.668   1.178   2.422  0.3586  0.0497  0.1706
  322SOL    HW2  966   2.569   1.050   2.383 -1.8015 -0.8274  3.5571
  323SOL     OW  967   1.171   2.649   0.849  0.0170  0.1410 -0.8117
  323SOL    HW1  968   1.134   2.593   0.770 -1.3828  0.5105  0.4740
  323SOL    HW2  969   1.138   2.751   0.850 -1.9264  0.5999 -1.9803
  324SOL     OW  970   0.261   2.475   2.524 -0.1200 -0.4359  0.6717
  324SOL    HW1  971   0.326   2.431   2.595  1.1944  0.5225 -1.6802
  324SOL    HW2  972   0.188   2.537   2.568  1.1770  0.7860 -0.7939
  325SOL     OW  973   1.287   3.060   0.492  0.4811  0.0709  0.1740
  325SOL    HW1  974   1.300   3.120   0.407 -1.9550 -2.5172 -0.4925
  325SOL    HW2  975   1.300   3.117   0.582 -1.2078  2.1939 -2.2202
  326SOL     OW  976   2.470   0.798   3.055 -0.0495 -0.1142  0.2209
  326SOL    HW1  977   2.418   0.742   2.983  1.3765 -0.2881 -2.4868
  326SOL    HW2  978   2.533   0.737   3.115  0.9915 -0.3860 -0.0659
  327SOL     OW  979   2.845   0.347   0.641  0.0554 -0.3423  0.5865
  327SOL    HW1  980   2.850   0.305   0.549 -1.6161 -0.0629  0.8278
  327SOL    HW2  981   2.872   0.284   0.717 -1.3152  3.3486  0.8764
  328SOL     OW  982   2.575   0.576   0.396  0.0096  0.4916  0.1321
  328SOL    HW1  983   2.543   0.678   0.401  0.3588  2.2151  1.6154
  328SOL    HW2  984   2.552   0.524   0.487  0.8594 -2.5407  1.0171
  329SOL     OW  985   2.964   2.930   2.135 -0.2314  0.7034  0.1029
  329SOL    HW1  986   3.040   2.862   2.159 -1.2543 -1.8897 -0.4465
  329SOL    HW2  987   2.950   2.996   2.216 -1.1683  0.2484  3.3737
  330SOL     OW  988   0.551   0.137   1.878 -0.8525  0.3994 -0.7850
  330SOL    HW1  989   0.647   0.132   1.840  1.7338  0.9636 -1.2054
  330SOL    HW2  990   0.544   0.090   1.967  0.4756  0.3181  0.4836
  331SOL     OW  991   2.999   1.902   1.167  0.2631  0.1670  0.1400
  331SOL    HW1  992   3.028   1.995   1.129 -2.5500  0.7865  1.4380
  331SOL    HW2  993   2.906   1.910   1.208  1.7887  0.4498 -0.4717
  332SOL     OW  994   0.416   1.170   0.003 -0.4259 -0.0095  0.5139
  332SOL    HW1  995   0.354   1.121  -0.062  0.5990  2.2211  2.6358
  332SOL    HW2  996   0.371   1.189   0.093 -2.1933 -1.0496 -0.0694
  333SOL     OW  997   2.850   1.026   0.332 -0.1884 -0.5826 -0.2608
  333SOL    HW1  998   2.874   1.110   0.387 -3.2480 -0.1904  0.0329
  333SOL    HW2  999   2.926   0.993   0.273 -3.2943  1.7024 -0.4974
  334SOL     OW 1000   1.674   1.290   1.838 -0.6969  0.3308 -0.2485
  334SOL    HW1 1001   1.747   1.232   1.789  1.6894 -0.4746  0.8125
  334SOL    HW2 1002   1.695   1.309   1.937  1.6095  1.3498  0.2704
  335SOL     OW 1003   1.996   2.729   2.605 -0.1889  0.3460  0.3587
  335SOL    HW1 1004   1.938   2.730   2.688 -0.7166 -3.2859 -0.0439
  335SOL    HW2 1005   2.086   2.775   2.614  0.3338 -1.5396 -0.7802
  336SOL     OW 1006   0.245   0.180   2.803 -0.5330 -0.2312  0.2241
  336SOL    HW1 1007   0.339   0.178   2.846 -1.0180 -0.7556 -0.2097
  336SOL    HW2 1008   0.189   0.257   2.838 -0.2844 -0.3280  0.6887
  337SOL     OW 1009   0.922   2.826   2.842 -0.4954  0.5940  0.0984
  337SOL    HW1 1010   0.911   2.756   2.921  0.4591 -0.1299 -1.5839
  337SOL    HW2 1011   1.021   2.837   2.814  0.0256  0.9305  2.2216
  338SOL     OW 1012   0.010   1.019   0.609  0.3513 -0.6554 -0.4775
  338SOL    HW1 1013  -0.093   1.003   0.633 -1.5532  0.6229  1.2260
  338SOL    HW2 1014   0.033   1.121   0.629  0.2417  0.6331  0.4650
  339SOL     OW 1015   1.700   1.346   2.126  0.1812  0.7675  0.2876
  339SOL    HW1 1016   1.600   1.367   2.136 -1.1287 -2.1640 -0.9953
  339SOL    HW2 1017   1.752   1.431   2.145 -0.9407 -0.1607  0.9600
  340SOL     OW 1018   2.352   0.794   1.117 -0.4423  0.1846  0.1089
  340SOL    HW1 1019   2.249   0.801   1.128  0.9527 -3.0905 -0.4405
  340SOL    HW2 1020   2.376   0.704   1.072  0.5438 -1.3515 -0.4090
  341SOL     OW 1021   1.902   2.103   0.333  0.3633  0.1820 -0.4157
  341SOL    HW1 1022   1.930   2.177   0.270  0.1226  1.3398  2.1493
  341SOL    HW2 1023   1.986   2.061   0.378 -0.7218  1.2612  0.6369
  342SOL     OW 1024   2.264   2.121   2.710 -0.1834  0.0669  0.3814
  342SOL    HW1 1025   2.311   2.048   2.769  2.9708  1.3826 -0.6634
  342SOL    HW2 1026   2.160   2.117   2.705  0.7000  0.8070 -0.9175
  343SOL     OW 1027   0.340   0.878   2.728 -0.2287 -0.2148 -0.1969
  343SOL    HW1 1028   0.343   0.922   2.639 -0.6485  1.3289  1.3798
  343SOL    HW2 1029   0.418   0.899   2.788 -3.8766 -1.6810 -1.8932
  344SOL     OW 1030   1.900   1.431   0.401 -0.0149 -0.5654  0.3002
  344SOL    HW1 1031   1.898   1.380   0.312  0.9659 -0.4392  1.7630
  344SOL    HW2 1032   1.801   1.447   0.433  0.4553  0.4322 -0.0098
  345SOL     OW 1033   1.433   2.238   2.921  0.1441  0.2547 -0.3160
  345SOL    HW1 1034   1.342   2.191   2.890 -1.1032  0.6929 -1.2072
  345SOL    HW2 1035   1.515   2.194   2.871 -0.2497  1.0848  0.1055
  346SOL     OW 1036   2.372   0.865   1.388  0.1836 -0.0910 -0.8403
  346SOL    HW1 1037   2.320   0.954   1.392 -0.0601  0.9712 -1.6338
  346SOL    HW2 1038   2.362   0.821   1.296  1.8218 -3.0578  1.3696
  347SOL     OW 1039   0.758   2.813   1.526  0.0670 -0.6685  0.7876
  347SOL    HW1 1040   0.700   2.761   1.594  0.7526 -1.2197 -1.2681
  347SOL    HW2 1041   0.707   2.902   1.494 -1.6766 -3.1574 -4.0759
  348SOL     OW 1042   0.225   0.673   2.870  0.0135  0.4429  0.0600
  348SOL    HW1 1043   0.124   0.677   2.852  1.8046 -1.1503  2.1926
  348SOL    HW2 1044   0.277   0.752   2.816  1.4235  0.5531  2.2621
  349SOL     OW 1045   1.886   0.442   2.799  0.1880 -0.3407 -0.2096
  349SOL    HW1 1046   1.868   0.531   2.748 -0.2878  2.3311  2.5593
  349SOL    HW2 1047   1.874   0.454   2.902  0.5262  0.2427 -1.8315
  350SOL     OW 1048   1.646   0.406   0.354 -0.0617  0.3015  0.1695
  350SOL    HW1 1049   1.693   0.401   0.447 -0.4818 -0.2348  2.4631
  350SOL    HW2 1050   1.593   0.496   0.340 -0.4379  1.2077 -1.9098
  351SOL     OW 1051   0.991   0.865   2.144 -0.3223  0.1842  0.5456
  351SOL    HW1 1052   0.999   0.969   2.134  1.2473 -0.1574  0.9587
  351SOL    HW2 1053   1.013   0.824   2.053 -1.0090  1.6786 -2.3083
  352SOL     OW 1054   2.042   1.310   0.661 -0.1778  0.0400  0.0789
  352SOL    HW1 1055   2.057   1.387   0.591 -2.3421  2.4932  3.7159
  352SOL    HW2 1056   1.944   1.276   0.674 -4.5348 -1.4530  0.6751
  353SOL     OW 1057   2.163   2.810   1.045  0.0550 -0.1194  0.5574
  353SOL    HW1 1058   2.217   2.767   1.125 -0.7518 -1.4123 -1.4030
  353SOL    HW2 1059   2.063   2.772   1.028  0.6357 -0.2392 -0.0246
  354SOL     OW 1060   0.280   1.394   2.882 -0.3798 -0.2067  0.5896
  354SOL    HW1 1061   0.257   1.473   2.817 -0.3276 -0.9675  0.3992
  354SOL    HW2 1062   0.381   1.398   2.900 -0.2065  0.1045  1.8665
  355SOL     OW 1063   0.603   1.528   0.600  0.5027  0.5144  0.4221
  355SOL    HW1 1064   0.597   1.540   0.703  2.8439  1.2231 -0.2323
  355SOL    HW2 1065   0.630   1.429   0.575  1.7403 -0.6016 -0.7270
  356SOL     OW 1066   0.873   0.299   2.091 -0.4206  0.4764 -0.3472
  356SOL    HW1 1067   0.973   0.275   2.087 -2.1794 -0.1591 -0.1214
  356SOL    HW2 1068   0.831   0.279   2.004 -2.0842  2.1318 -1.1071
  357SOL     OW 1069   0.993   1.292   0.332 -0.0676  0.6218  0.5315
  357SOL    HW1 1070   0.972   1.254   0.238  0.1375  2.8756  0.8562
  357SOL    HW2 1071   0.978   1.224   0.405 -1.5600  2.3103  0.3570
  358SOL     OW 1072   1.639   1.489   0.490 -0.1419  0.1245  0.3722
  358SOL    HW1 1073   1.585   1.482   0.577 -0.3734 -0.0607 -1.7989
  358SOL    HW2 1074   1.582   1.465   0.409 -1.2569 -0.2110  2.8006
  359SOL     OW 1075   1.568   2.640   0.183 -0.2086 -0.1964  0.3180
  359SOL    HW1 1076   1.571   2.542   0.157  0.4064  2.5783  0.7774
  359SOL    HW2 1077   1.508   2.702   0.121 -1.2136  0.3761  0.0225
  360SOL     OW 1078   0.878   0.571   0.591  0.0787 -0.1289  0.0615
  360SOL    HW1 1079   0.785   0.603   0.628 -1.1593  0.3368 -1.3894
  360SOL    HW2 1080   0.889   0.465   0.595 -0.4209  1.0519 -0.3112
  361SOL     OW 1081   1.216   1.311   0.740  0.0100  0.1555 -0.4421
  361SOL    HW1 1082   1.286   1.372   0.786 -1.4484 -2.5781 -0.7617
  361SOL    HW2 1083   1.124   1.356   0.740  0.0792 -2.7072  1.2744
  362SOL     OW 1084   1.382   1.842   0.785  0.0845 -0.3050  0.2852
  362SOL    HW1 1085   1.430   1.814   0.874 -1.3004 -0.7587  2.6089
  362SOL    HW2 1086   1.447   1.854   0.703  1.9279  0.6225  1.2167
  363SOL     OW 1087   1.217   1.252   2.050 -0.2652 -0.1071  0.2345
  363SOL    HW1 1088   1.307   1.268   2.105  1.0150 -0.0954  1.7770
  363SOL    HW2 1089   1.179   1.341   2.009 -1.7451  0.8904 -0.9645
  364SOL     OW 1090   0.501   2.334   1.985 -0.2792  0.3975 -0.4370
  364SOL    HW1 1091   0.413   2.388   1.998  0.3079  0.6615 -1.3600
  364SOL    HW2 1092   0.558   2.373   1.903  2.5588  1.1093 -1.2989
  365SOL     OW 1093   1.013   1.879   1.418  0.1949 -0.1590  0.4072
  365SOL    HW1 1094   0.935   1.949   1.414 -1.0993 -0.3059  0.3853
  365SOL    HW2 1095   1.039   1.847   1.324 -2.7964  3.6611  0.4405
  366SOL     OW 1096   2.783   2.051   0.455 -0.0450 -0.7870 -0.1325
  366SOL    HW1 1097   2.694   1.999   0.460  1.2667  0.5546 -1.2463
  366SOL    HW2 1098   2.855   2.003   0.397  5.4116  0.4275 -0.2894
  367SOL     OW 1099   0.950   1.140   0.120 -0.3492 -0.6659  0.7345
  367SOL    HW1 1100   0.991   1.051   0.155 -0.7904 -0.3084 -1.4963
  367SOL    HW2 1101   0.997   1.180   0.036 -1.3311  0.7224 -0.4922
  368SOL     OW 1102   1.454   0.535   0.748 -0.8002 -0.3587  0.0024
  368SOL    HW1 1103   1.393   0.571   0.676  1.8768  1.3520 -0.4071
  368SOL    HW2 1104   1.541   0.589   0.729  0.0486  0.6381 -1.3164
  369SOL     OW 1105   0.319   1.735   0.075  0.5127 -0.2158  0.2461
  369SOL    HW1 1106   0.372   1.792   0.143  1.0140  0.1909  1.1907
  369SOL    HW2 1107   0.258   1.663   0.114  1.4178 -0.3351 -1.3904
  370SOL     OW 1108   0.464   2.080   0.965  0.4927 -0.0161 -0.0184
  370SOL    HW1 1109   0.476   2.183   0.968  2.4450  2.6205  1.7759
  370SOL    HW2 1110   0.370   2.056   0.925  0.1194  1.0148 -0.0342
  371SOL     OW 1111   2.936   2.176   2.661  0.1033 -0.0130  0.3741
  371SOL    HW1 1112   2.868   2.138   2.725  1.0197  2.2735 -3.0282
  371SOL    HW2 1113   3.019   2.221   2.706  1.1730  1.0827 -2.2816
  372SOL     OW 1114   1.123   1.998   1.093  0.0419  0.1807 -0.3176
  372SOL    HW1 1115   1.063   2.023   1.012 -0.2074 -0.1974 -1.3465
  372SOL    HW2 1116   1.138   2.086   1.145  0.7010  0.6313  0.4136
  373SOL     OW 1117   2.014   1.997   0.860 -0.0699  0.3653 -0.1464
  373SOL    HW1 1118   2.080   2.019   0.935  0.4214  0.3022 -1.3314
  373SOL    HW2 1119   1.916   2.001   0.887 -1.2717  0.6045 -2.4293
  374SOL     OW 1120   1.826   0.419   0.584  0.4948 -0.2308  0.3591
  374SOL    HW1 1121   1.853   0.398   0.680 -2.4565  0.4123 -1.0268
  374SOL    HW2 1122   1.910   0.475   0.541  2.6283  1.0451 -0.6001
  375SOL     OW 1123   2.440   2.191   1.122 -0.3141 -0.3087 -0.0757
  375SOL    HW1 1124   2.530   2.195   1.068 -0.5545 -0.5148 -2.2777
  375SOL    HW2 1125   2.448   2.158   1.222  1.2136 -0.6132 -0.7637
  376SOL     OW 1126   3.076   0.548   1.480  0.1267  0.1208 -0.1375
  376SOL    HW1 1127   3.100   0.620   1.555  0.4563 -2.4263  1.5399
  376SOL    HW2 1128   2.974   0.534   1.470 -0.0475 -0.5390  0.4894
  377SOL     OW 1129   2.237   2.848   0.329 -0.0397  0.1942 -0.3293
  377SOL    HW1 1130   2.219   2.928   0.387  4.1308 -2.1845 -0.0178
  377SOL    HW2 1131   2.340   2.825   0.332 -0.2866  2.1789 -2.1693
  378SOL     OW 1132   1.884   1.864   2.587 -0.1001 -0.1498 -0.0546
  378SOL    HW1 1133   1.894   1.820   2.678  1.2467  3.6188 -2.7880
  378SOL    HW2 1134   1.867   1.796   2.513  1.7241  2.3690  0.3598
  379SOL     OW 1135   0.762   0.151   2.820 -0.6396 -0.0336  0.8196
  379SOL    HW1 1136   0.681   0.110   2.770 -0.5384  2.5171  0.3121
  379SOL    HW2 1137   0.806   0.225   2.761  0.5191  2.7016 -1.8271
  380SOL     OW 1138   1.502   1.136   0.550  0.1146 -0.3324 -0.4150
  380SOL    HW1 1139   1.395   1.143   0.555  1.2704 -0.1799  0.7205
  380SOL    HW2 1140   1.533   1.038   0.550 -3.1621  1.1774  1.4607
  381SOL     OW 1141   1.387   1.169   1.467  0.4516 -0.0562 -0.1272
  381SOL    HW1 1142   1.419   1.136   1.374  2.3957 -0.0972  0.5615
  381SOL    HW2 1143   1.440   1.123   1.547  0.5556  0.0023 -0.2615
  382SOL     OW 1144   1.785   0.824   0.163 -0.4027  0.0956 -0.0432
  382SOL    HW1 1145   1.834   0.822   0.073 -0.0516  0.0008 -0.2935
  382SOL    HW2 1146   1.850   0.841   0.244  0.2699 -2.8951  4.1561
  383SOL     OW 1147   2.620   0.986   1.446 -0.4353 -0.1151 -0.3806
  383SOL    HW1 1148   2.529   0.945   1.409 -1.3186 -1.8516 -3.5175
  383SOL    HW2 1149   2.694   0.967   1.380 -1.4519 -0.5117  2.0462
  384SOL     OW 1150   0.881   2.326   0.136  0.1771 -0.2905 -0.1397
  384SOL    HW1 1151   0.876   2.398   0.212 -2.3353  0.9502 -2.6016
  384SOL    HW2 1152   0.830   2.244   0.174 -1.4930  0.6054  0.3206
  385SOL     OW 1153   3.029   1.999   1.703  0.1718 -0.0636 -0.4857
  385SOL    HW1 1154   3.101   2.063   1.671 -0.7173  1.0651  1.3764
  385SOL    HW2 1155   3.052   1.895   1.710 -0.3644 -1.2261 -0.0857
  386SOL     OW 1156   0.459   1.091   0.421  0.4547  0.6012 -0.4867
  386SOL    HW1 1157   0.452   0.986   0.445  2.3003 -0.6342  0.6796
  386SOL    HW2 1158   0.394   1.119   0.348 -0.2043 -0.2765  2.9446
  387SOL     OW 1159   0.910   0.398   1.606  0.0403 -0.4704 -0.3172
  387SOL    HW1 1160   0.996   0.454   1.597 -0.3644 -2.2687  0.3084
  387SOL    HW2 1161   0.898   0.338   1.519 -0.0900  1.5349 -1.3972
  388SOL     OW 1162   1.184   2.625   1.765  0.3936 -0.8139 -0.0718
  388SOL    HW1 1163   1.227   2.609   1.670 -1.8870  0.3130 -1.4475
  388SOL    HW2 1164   1.220   2.548   1.828  0.6411 -1.4283 -3.5073
  389SOL     OW 1165   0.173   3.019   1.094 -0.5332  0.0542  0.0106
  389SOL    HW1 1166   0.086   3.011   1.146  0.5067 -2.3419 -0.4811
  389SOL    HW2 1167   0.222   2.927   1.103  1.0068  0.0050 -1.3704
  390SOL     OW 1168   0.996   0.951   1.299  0.2499 -0.2713  0.4968
  390SOL    HW1 1169   0.980   0.881   1.371  1.3271  1.1160  0.7274
  390SOL    HW2 1170   0.995   1.051   1.331  2.0707 -0.6233 -0.5277
  391SOL     OW 1171   2.091   1.189   1.003 -0.3616  0.3659  0.1767
  391SOL    HW1 1172   2.018   1.122   1.023  1.5626 -0.5983 -0.8657
  391SOL    HW2 1173   2.179   1.143   0.962  1.1273 -0.1933  2.4919
  392SOL     OW 1174   0.899   2.660   3.047 -0.4107  0.1462 -0.3992
  392SOL    HW1 1175   0.821   2.654   3.116  1.9584  2.5094 -0.2649
  392SOL    HW2 1176   0.985   2.698   3.090 -2.5902 -0.5726 -1.2576
  393SOL     OW 1177   0.380   0.484   1.995 -0.4140  0.3289 -0.5343
  393SOL    HW1 1178   0.325   0.402   1.971 -0.0059  0.8200  1.0556
  393SOL    HW2 1179   0.462   0.482   1.929 -0.8788 -0.9029  1.2243
  394SOL     OW 1180   2.967   1.841   2.777 -0.6454  0.6618  0.5429
  394SOL    HW1 1181   3.054   1.858   2.829 -2.9591 -2.2636  0.1971
  394SOL    HW2 1182   2.979   1.849   2.675  0.0115  0.9741 -0.9151
  395SOL     OW 1183   1.618   1.891   0.623  0.1156 -0.0582 -0.5873
  395SOL    HW1 1184   1.669   1.833   0.554  1.9591 -1.1626  0.4903
  395SOL    HW2 1185   1.664   1.924   0.712  1.1532  0.5960  0.4086
  396SOL     OW 1186   2.758   1.966   1.299 -0.2944  0.1134  0.0442
  396SOL    HW1 1187   2.659   1.996   1.299 -1.3719 -1.0062  1.1408
  396SOL    HW2 1188   2.792   1.937   1.397 -1.2380  1.3475  3.1891
  397SOL     OW 1189   0.998   2.183   0.528 -0.6542  0.2743 -0.4649
  397SOL    HW1 1190   0.933   2.114   0.499  1.9049  0.6608 -1.5441
  397SOL    HW2 1191   0.969   2.229   0.620 -1.8935  2.1272  1.2207
  398SOL     OW 1192   2.180   0.023   1.032 -1.2536 -0.1421  0.7566
  398SOL    HW1 1193   2.152  -0.076   1.016 -3.9923 -2.2440  0.8204
  398SOL    HW2 1194   2.122   0.073   1.108  0.8865 -1.3540 -0.5723
  399SOL     OW 1195   2.928   2.521   2.746  0.5794 -0.3583 -0.7682
  399SOL    HW1 1196   2.916   2.468   2.659  1.3016  0.7084  0.4154
  399SOL    HW2 1197   2.866   2.494   2.822  0.3010 -4.0769  0.7958
  400SOL     OW 1198   0.768   1.597   1.310  0.5019 -0.3164  0.4324
  400SOL    HW1 1199   0.743   1.626   1.404  1.6929  2.9003 -2.6161
  400SOL    HW2 1200   0.753   1.675   1.240 -1.0329  0.6374 -1.0098
  401SOL     OW 1201   1.846   0.100   1.361 -0.0598 -0.2373  0.3163
  401SOL    HW1 1202   1.893   0.140   1.447 -1.2878  1.1844 -1.9250
  401SOL    HW2 1203   1.743   0.085   1.369 -1.3901 -0.4858  1.8308
  402SOL     OW 1204   1.325   0.098   3.059  0.1201 -0.1233 -0.4452
  402SOL    HW1 1205   1.416   0.090   3.007 -0.3682  0.7854  2.7394
  402SOL    HW2 1206   1.312   0.184   3.106 -0.5682 -0.6329 -0.6935
  403SOL     OW 1207   2.294   1.829   0.898  0.2744 -0.2087  0.0711
  403SOL    HW1 1208   2.395   1.837   0.907  1.5607 -1.7547 -3.2180
  403SOL    HW2 1209   2.248   1.901   0.960 -0.3523 -0.5082  1.5262
  404SOL     OW 1210   0.179   2.484   2.819 -0.3806  0.0759 -0.4257
  404SOL    HW1 1211   0.281   2.478   2.805  1.5849 -0.3300 -2.1501
  404SOL    HW2 1212   0.156   2.585   2.839 -0.6455  1.2623 -1.5313
  405SOL     OW 1213   0.171   2.420   0.588 -0.4410 -0.0634  0.4633
  405SOL    HW1 1214   0.163   2.363   0.504  0.6122 -0.4488  1.2354
  405SOL    HW2 1215   0.231   2.503   0.584 -2.5657 -1.7844 -1.9893
  406SOL     OW 1216   0.032   1.466   2.979  0.2353  0.5223  0.7854
  406SOL    HW1 1217   0.120   1.445   2.936  1.1181 -1.8838 -0.1717
  406SOL    HW2 1218   0.039   1.496   3.075 -0.2589 -1.6563 -2.0161
  407SOL     OW 1219   1.570   0.917   0.903 -0.6670  0.3639  0.2466
  407SOL    HW1 1220   1.597   0.916   0.802  1.9319  2.6006 -1.8029
  407SOL    HW2 1221   1.516   1.002   0.933  0.3222 -0.6542  2.0422
  408SOL     OW 1222   1.611   2.383   0.933  0.5046 -0.4328 -0.8983
  408SOL    HW1 1223   1.682   2.364   0.863 -2.1790  0.6452  2.3928
  408SOL    HW2 1224   1.568   2.481   0.928 -1.2387  3.5257 -1.1313
  409SOL     OW 1225   0.600   0.883   0.734  0.4978 -0.0881 -0.4635
  409SOL    HW1 1226   0.542   0.872   0.651  1.5367 -0.0241  2.2841
  409SOL    HW2 1227   0.622   0.788   0.774  2.7633 -1.8321 -0.8326
  410SOL     OW 1228   1.272   2.011   1.409 -0.0742 -0.2284  0.4072
  410SOL    HW1 1229   1.351   1.981   1.468 -0.4455  0.1868 -1.7248
  410SOL    HW2 1230   1.190   1.967   1.429  1.7250  0.2676  0.9307
  411SOL     OW 1231   2.525   1.882   3.052  0.6131 -0.3460  0.1061
  411SOL    HW1 1232   2.456   1.885   2.973  1.8203 -0.9120  0.1247
  411SOL    HW2 1233   2.623   1.865   3.018  1.3189  1.2731 -0.4210
  412SOL     OW 1234   1.487   2.527   2.195  0.3912  0.8326 -0.4649
  412SOL    HW1 1235   1.547   2.607   2.225  1.0977  1.3938  1.6977
  412SOL    HW2 1236   1.401   2.516   2.256 -1.1492  1.1635  0.2360
  413SOL     OW 1237   3.098   0.275   2.936  0.5398  0.0846  0.0232
  413SOL    HW1 1238   3.030   0.205   2.969  1.0077 -0.9762  0.6577
  413SOL    HW2 1239   3.192   0.253   2.979  0.4859 -1.0725 -2.9690
  414SOL     OW 1240   1.782   1.489   1.344 -0.3048  0.1625 -0.7831
  414SOL    HW1 1241   1.697   1.502   1.403 -0.0316 -0.2708  3.2233
  414SOL    HW2 1242   1.753   1.433   1.264  1.0731 -0.6466  0.5578
  415SOL     OW 1243   0.288   2.214   0.706  0.5074 -0.3442  0.1515
  415SOL    HW1 1244   0.221   2.286   0.663 -0.5806 -0.3545  1.8726
  415SOL    HW2 1245   0.259   2.120   0.676 -2.1404 -1.5839  0.9348
  416SOL     OW 1246   0.353   1.063   1.062  0.1240 -0.2560  0.2107
  416SOL    HW1 1247   0.332   1.006   0.975  0.9568  2.0416 -2.3189
  416SOL    HW2 1248   0.445   1.109   1.061  0.4385 -0.0004 -3.3121
  417SOL     OW 1249   2.114   2.317   1.887  0.2738 -0.5133  0.4840
  417SOL    HW1 1250   2.138   2.218   1.909  1.0573  1.0210  0.3527
  417SOL    HW2 1251   2.017   2.345   1.918 -1.9851 -1.3076 -1.7211
  418SOL     OW 1252   1.135   0.502   1.272  0.1373 -0.4321  0.7495
  418SOL    HW1 1253   1.047   0.455   1.256  1.7751 -1.4829  3.8482
  418SOL    HW2 1254   1.145   0.583   1.210  0.7653  1.1772 -1.1126
  419SOL     OW 1255   1.005   0.364   3.037 -0.4131  0.2470  0.2798
  419SOL    HW1 1256   1.017   0.376   2.936 -0.4710 -1.8352 -2.4223
  419SOL    HW2 1257   0.918   0.311   3.051 -1.1099 -1.8312 -0.9607
  420SOL     OW 1258   0.152   2.253   0.361  0.0529  0.4195  0.0809
  420SOL    HW1 1259   0.171   2.196   0.276 -2.1401  0.0351  0.9867
  420SOL    HW2 1260   0.060   2.232   0.404  0.2475  3.0563  1.3271
  421SOL     OW 1261   0.323   3.038   0.687  0.5306 -0.5617 -0.1619
  421SOL    HW1 1262   0.301   2.947   0.728 -0.7384 -0.2632  0.8826
  421SOL    HW2 1263   0.424   3.058   0.662  0.8657  2.2447  0.9721
  422SOL     OW 1264   0.982   2.590   1.034  0.4133  0.7913 -0.0673
  422SOL    HW1 1265   1.060   2.614   0.970 -0.9779 -0.2871  2.8265
  422SOL    HW2 1266   1.003   2.614   1.130 -0.5408 -1.6989 -1.4731
  423SOL     OW 1267   0.104   0.702   1.271 -0.2641  0.0970  0.4471
  423SOL    HW1 1268   0.059   0.676   1.356 -0.9608  0.9411 -0.0374
  423SOL    HW2 1269   0.052   0.779   1.221  0.7840  3.8648 -1.8106
  424SOL     OW 1270   1.018   2.228   2.049  0.0791  0.2729  0.0951
  424SOL    HW1 1271   0.994   2.317   2.001  1.9428  0.6923 -1.3858
  424SOL    HW2 1272   1.063   2.243   2.142 -0.5507 -0.4307  0.3412
  425SOL     OW 1273   1.985   1.451   0.940 -0.1091 -0.4089  0.2691
  425SOL    HW1 1274   2.027   1.358   0.964  1.8622 -1.0976  0.4703
  425SOL    HW2 1275   2.049   1.519   0.896  1.5888 -1.6128 -1.7693
  426SOL     OW 1276   1.496   1.526   1.403  0.4407 -0.2455 -0.4372
  426SOL    HW1 1277   1.466   1.619   1.361 -0.7319  2.2056  0.7927
  426SOL    HW2 1278   1.468   1.523   1.502 -0.0058  0.9321  1.3552
  427SOL     OW 1279   1.864   2.354   2.027  0.0298 -0.5628  0.0211
  427SOL    HW1 1280   1.900   2.286   2.094  1.2996  0.1304  1.3122
  427SOL    HW2 1281   1.890   2.451   2.044 -0.3319 -0.5618  0.2803
  428SOL     OW 1282   0.881   2.956   0.197  0.0649  0.6322  0.3247
  428SOL    HW1 1283   0.933   3.033   0.247  2.2394  0.6130  0.4481
  428SOL    HW2 1284   0.946   2.886   0.151  1.9977  2.4938 -0.1307
  429SOL     OW 1285   1.316   0.090   0.253  0.5203 -0.1213 -0.5847
  429SOL    HW1 1286   1.402   0.149   0.268 -0.5950 -0.6823  2.4037
  429SOL    HW2 1287   1.319   0.048   0.157  1.8602  1.5297 -2.3078
  430SOL     OW 1288   2.708   1.457   0.392  0.4412 -0.0838 -0.1038
  430SOL    HW1 1289   2.762   1.491   0.309 -1.4757 -2.7487 -1.2167
  430SOL    HW2 1290   2.728   1.499   0.485 -0.7240  0.8129  0.7946
  431SOL     OW 1291   2.141   1.625   0.820  0.2077 -0.3851 -0.3356
  431SOL    HW1 1292   2.205   1.703   0.850  0.8935 -1.6820  0.6016
  431SOL    HW2 1293   2.065   1.660   0.758  0.0997  2.6251  0.6503
  432SOL     OW 1294   2.860   2.226   1.266 -0.2055 -0.5002  0.4791
  432SOL    HW1 1295   2.823   2.131   1.301  1.2203  0.5138 -0.5612
  432SOL    HW2 1296   2.918   2.271   1.343 -0.2023 -0.6518 -0.0201
  433SOL     OW 1297   1.925   0.362   0.845  0.1914 -0.0162  0.3007
  433SOL    HW1 1298   1.853   0.328   0.913 -1.1609 -0.1119 -0.2401
  433SOL    HW2 1299   2.016   0.314   0.844  0.1517  1.6043 -0.2476
  434SOL     OW 1300   1.563   0.264   0.795 -0.2561  0.6794  0.5002
  434SOL    HW1 1301   1.535   0.363   0.777 -0.4011 -2.7443  0.9264
  434SOL    HW2 1302   1.609   0.252   0.882  0.1416  0.3622 -2.0176
  435SOL     OW 1303   1.420   1.417   2.130 -0.5860 -0.2029 -0.0740
  435SOL    HW1 1304   1.381   1.469   2.211 -0.4027  3.9512 -0.3776
  435SOL    HW2 1305   1.453   1.489   2.055 -2.2832  0.6052 -1.0442
  436SOL     OW 1306   1.678   2.727   2.315 -0.0449 -0.5351 -1.1975
  436SOL    HW1 1307   1.641   2.821   2.346  1.3409  0.5375 -0.2607
  436SOL    HW2 1308   1.700   2.662   2.390  1.9959 -0.7285 -0.3768
  437SOL     OW 1309   1.113   2.892   0.915 -0.0391 -0.5724  0.1594
  437SOL    HW1 1310   1.056   2.967   0.871 -2.7145  1.7544  1.5056
  437SOL    HW2 1311   1.077   2.868   1.009 -0.6392  0.3682  0.9947
  438SOL     OW 1312   1.064   2.575   1.315 -0.0061 -0.0916  0.0608
  438SOL    HW1 1313   1.135   2.604   1.387  3.3062 -3.3492  1.3251
  438SOL    HW2 1314   1.022   2.480   1.326  0.1930  1.3499 -1.5591
  439SOL     OW 1315   0.724   1.766   1.088 -0.0936 -0.1106 -0.3814
  439SOL    HW1 1316   0.741   1.834   1.012 -1.3395 -1.3884 -1.3499
  439SOL    HW2 1317   0.627   1.734   1.101  2.2724  0.6084  2.8414
  440SOL     OW 1318   0.968   2.487   1.922 -0.0030 -0.1870 -0.4871
  440SOL    HW1 1319   0.956   2.539   1.831 -0.1580  1.6503 -0.1791
  440SOL    HW2 1320   1.063   2.501   1.959 -3.3561 -0.6724  0.9252
  441SOL     OW 1321   0.410   2.785   1.374 -0.1708 -0.3346  0.0351
  441SOL    HW1 1322   0.469   2.702   1.389 -0.2946 -0.7607  2.4034
  441SOL    HW2 1323   0.318   2.753   1.340  1.8373  0.5414  3.4867
  442SOL     OW 1324   2.274   0.641   2.583  0.0636 -0.2931 -1.2064
  442SOL    HW1 1325   2.251   0.544   2.548  1.0948 -1.1277 -2.1379
  442SOL    HW2 1326   2.196   0.705   2.581 -0.3459  0.0988 -0.9932
  443SOL     OW 1327   1.214   2.728   2.197  0.1751 -0.0275 -0.1652
  443SOL    HW1 1328   1.218   2.637   2.250 -0.6692  1.2210 -2.5644
  443SOL    HW2 1329   1.211   2.805   2.270 -1.7089  2.7935  0.1276
  444SOL     OW 1330   1.147   1.300   1.597  0.0894 -0.0094  0.5570
  444SOL    HW1 1331   1.235   1.266   1.552 -1.1830  0.9234  0.1851
  444SOL    HW2 1332   1.174   1.349   1.684  0.8124  1.9853 -2.3275
  445SOL     OW 1333   0.012   2.375   1.865  0.2927  0.1107 -0.4569
  445SOL    HW1 1334  -0.002   2.464   1.817  0.8099 -2.4086  2.0290
  445SOL    HW2 1335  -0.064   2.352   1.933  0.2939 -1.2668  0.9743
  446SOL     OW 1336   0.245   1.897   2.376 -0.4259  0.2641 -0.4382
  446SOL    HW1 1337   0.187   1.976   2.421  2.1344  1.8457 -0.2957
  446SOL    HW2 1338   0.201   1.847   2.302  2.3598 -0.0540  3.2239
  447SOL     OW 1339   1.236   1.705   1.949 -0.4199  0.7497 -0.6439
  447SOL    HW1 1340   1.140   1.751   1.945 -0.4989  1.3779  0.0969
  447SOL    HW2 1341   1.310   1.752   2.008  0.0613 -1.9537 -0.4350
  448SOL     OW 1342   0.112   1.448   1.969  0.2438  0.1947  0.2088
  448SOL    HW1 1343   0.126   1.552   1.951 -0.1412 -1.1712  0.4395
  448SOL    HW2 1344   0.083   1.436   2.068  2.5090  0.7086  0.9821
  449SOL     OW 1345   1.757   2.980   0.917  0.2430  0.2790  0.0326
  449SOL    HW1 1346   1.800   3.008   1.010 -1.4621 -0.4877  2.9321
  449SOL    HW2 1347   1.819   2.927   0.854  3.0363  2.5650  0.0858
  450SOL     OW 1348   2.339   1.430   0.735  0.3923 -0.1400 -0.7522
  450SOL    HW1 1349   2.251   1.455   0.781  3.8445 -1.5110  0.2543
  450SOL    HW2 1350   2.346   1.472   0.637  1.0646 -0.7453 -0.8585
  451SOL     OW 1351   1.322   3.021   1.427  0.2528 -0.0174  0.1182
  451SOL    HW1 1352   1.268   3.100   1.466  2.7834  2.6356 -0.2607
  451SOL    HW2 1353   1.367   2.963   1.503 -0.0018  0.7720 -0.9970
  452SOL     OW 1354   2.676   2.294   2.191  0.5657  0.2274 -0.4477
  452SOL    HW1 1355   2.654   2.393   2.205 -0.2869 -0.7494  0.6372
  452SOL    HW2 1356   2.722   2.244   2.274  0.2397  0.3012 -1.6447
  453SOL     OW 1357   2.466   2.648   0.012  0.2382 -0.8037 -0.2713
  453SOL    HW1 1358   2.395   2.716   0.055  0.1963  1.7289  1.7534
  453SOL    HW2 1359   2.427   2.591  -0.068  1.4895  2.3738  0.1925
  454SOL     OW 1360   0.980   1.111   2.058  0.0597 -0.3950  0.8429
  454SOL    HW1 1361   0.969   1.107   1.953 -1.7409  1.0629  1.0883
  454SOL    HW2 1362   1.065   1.166   2.089  1.0871 -0.1467  0.8391
  455SOL     OW 1363   0.679   2.678   2.809  0.0132  0.2769  0.4569
  455SOL    HW1 1364   0.746   2.751   2.836 -3.4589 -1.5703 -0.7725
  455SOL    HW2 1365   0.709   2.589   2.837  0.1213  0.4468 -2.9162
  456SOL     OW 1366   0.460   1.901   0.239 -0.2320 -0.1391  0.2468
  456SOL    HW1 1367   0.540   1.857   0.291 -0.3898 -0.6827  1.8347
  456SOL    HW2 1368   0.486   2.000   0.211  2.3785 -0.5080  3.9059
  457SOL     OW 1369   0.330   2.630   0.603 -0.2171 -0.2397 -0.0178
  457SOL    HW1 1370   0.381   2.708   0.556  0.4080  0.8024  1.2120
  457SOL    HW2 1371   0.397   2.578   0.657  0.0025  0.6259 -1.1223
  458SOL     OW 1372   2.916   3.084   1.240 -0.2992  0.1339  0.6681
  458SOL    HW1 1373   2.931   3.180   1.205  1.6641 -0.6053 -0.8059
  458SOL    HW2 1374   2.907   3.018   1.158  1.0028  1.9087  2.0990
  459SOL     OW 1375   2.081   2.624   0.736  0.5028 -0.1855 -0.2652
  459SOL    HW1 1376   2.180   2.626   0.770  1.1890 -0.7204 -1.3242
  459SOL    HW2 1377   2.072   2.565   0.649 -1.6367  1.9948  1.8409
  460SOL     OW 1378   1.220   2.092   2.825  0.0352 -0.5263  0.0490
  460SOL    HW1 1379   1.198   2.137   2.732 -3.6814  1.6201 -1.3696
  460SOL    HW2 1380   1.205   1.989   2.827 -0.4227 -2.1428  2.9531
  461SOL     OW 1381   0.539   2.191   2.656  0.0018 -0.2626  0.0244
  461SOL    HW1 1382   0.489   2.114   2.611  0.1749  0.9174 -0.3624
  461SOL    HW2 1383   0.563   2.157   2.751 -0.8193 -2.1360  1.7161
  462SOL     OW 1384   0.958   1.149   1.785  0.3998  0.0964  0.4424
  462SOL    HW1 1385   1.041   1.163   1.722 -1.2806  0.9045 -1.1349
  462SOL    HW2 1386   0.872   1.206   1.760  0.2554  0.2983 -2.5942
  463SOL     OW 1387   0.453   0.815   0.513  0.2649 -0.2545  0.2777
  463SOL    HW1 1388   0.479   0.716   0.503 -1.0735  2.1279 -2.2708
  463SOL    HW2 1389   0.346   0.822   0.514 -1.5083  0.9187 -1.4686
  464SOL     OW 1390   0.600   2.294   2.237  0.0163 -0.6947  0.2691
  464SOL    HW1 1391   0.554   2.372   2.292 -0.4128  0.6158  0.0817
  464SOL    HW2 1392   0.549   2.289   2.142 -1.2802  1.4288  1.2442
  465SOL     OW 1393   0.231   0.962   0.830 -0.0773 -0.4821  0.6558
  465SOL    HW1 1394   0.146   1.000   0.782  1.8279  1.7079 -3.6495
  465SOL    HW2 1395   0.252   0.864   0.806  0.2848  4.6953  1.7531
  466SOL     OW 1396   1.402   1.124   0.976  0.1609  0.2060 -0.4185
  466SOL    HW1 1397   1.422   1.225   0.958  0.8390 -0.6795  1.9097
  466SOL    HW2 1398   1.301   1.096   0.976  0.3339 -1.2925  0.0480
  467SOL     OW 1399   0.539   0.397   2.425 -0.7553 -0.1072 -0.4079
  467SOL    HW1 1400   0.484   0.481   2.395  0.8944 -2.9051 -1.7629
  467SOL    HW2 1401   0.516   0.363   2.523 -0.1136 -1.5747 -3.3235
  468SOL     OW 1402   0.464   2.268   1.628  0.3533  0.1727  0.5230
  468SOL    HW1 1403   0.501   2.361   1.661 -0.3349 -2.0611  0.7055
  468SOL    HW2 1404   0.423   2.275   1.533 -2.3238 -0.0198  1.3307
  469SOL     OW 1405   1.438   1.359   1.193  0.0853  0.4107 -0.1467
  469SOL    HW1 1406   1.527   1.342   1.134 -0.0287 -3.7815 -2.4469
  469SOL    HW2 1407   1.457   1.390   1.287  2.0887  1.1182 -2.1418
  470SOL     OW 1408   3.000   1.814   0.747 -0.0908 -0.8061 -0.0119
  470SOL    HW1 1409   3.063   1.866   0.683 -0.3761 -0.6995 -1.3493
  470SOL    HW2 1410   3.048   1.737   0.796  1.5921 -4.9420 -2.0657
  471SOL     OW 1411   2.665   1.258   2.131  0.5653 -0.3343 -0.2848
  471SOL    HW1 1412   2.654   1.200   2.215  1.8128  0.0593  0.2683
  471SOL    HW2 1413   2.703   1.355   2.158  0.0501  1.4138  0.6641
  472SOL     OW 1414   1.122   2.460   0.057 -0.3710 -0.0423 -0.1418
  472SOL    HW1 1415   1.171   2.464   0.150  1.0327 -1.2088  0.8131
  472SOL    HW2 1416   1.028   2.417   0.068  0.0547 -0.9276  0.5557
  473SOL     OW 1417   1.098   1.545   0.995  0.3836  0.1061  0.0483
  473SOL    HW1 1418   0.998   1.542   0.958 -0.0460  1.1405 -2.2581
  473SOL    HW2 1419   1.122   1.474   1.064 -0.4708  1.1508 -1.1480
  474SOL     OW 1420   0.666   1.266   0.533 -0.7310 -0.1217 -0.5223
  474SOL    HW1 1421   0.606   1.192   0.489 -0.2087 -0.3633 -1.7789
  474SOL    HW2 1422   0.738   1.226   0.599 -0.7668  0.5631  1.4130
  475SOL     OW 1423   2.874   0.021   0.829 -0.1319  0.2647 -0.5924
  475SOL    HW1 1424   2.946   0.102   0.831  0.1486  0.9286  0.5028
  475SOL    HW2 1425   2.770   0.050   0.836 -1.2838  1.5496 -1.5035
  476SOL     OW 1426   0.976   3.083   1.757  0.4604 -0.3121  0.2276
  476SOL    HW1 1427   1.067   3.071   1.802  1.4217 -2.7038  0.6412
  476SOL    HW2 1428   0.976   3.047   1.659 -0.0337  2.3342 -0.7440
  477SOL     OW 1429   1.406   0.319   2.423  0.4238 -0.5163  0.1995
  477SOL    HW1 1430   1.408   0.353   2.525 -0.6794  0.3227  1.7447
  477SOL    HW2 1431   1.493   0.269   2.394 -2.6807 -1.9280 -2.2903
  478SOL     OW 1432   2.228   1.827   0.157  0.3206  0.4174 -0.0106
  478SOL    HW1 1433   2.183   1.744   0.202  1.4375 -2.2002  2.0899
  478SOL    HW2 1434   2.317   1.807   0.113 -2.0582 -0.9178 -0.3862
  479SOL     OW 1435   1.228   0.983   2.879  1.1776  0.2415  0.8209
  479SOL    HW1 1436   1.303   0.948   2.820  0.9686 -2.0451  0.8898
  479SOL    HW2 1437   1.133   0.970   2.833 -1.1614 -0.7328 -0.7424
  480SOL     OW 1438   2.671   2.332   0.352  0.0482 -0.0193  0.1950
  480SOL    HW1 1439   2.684   2.253   0.419  0.7781  0.0603  1.9302
  480SOL    HW2 1440   2.592   2.322   0.285  1.6286  0.2078 -2.5639
  481SOL     OW 1441   0.969   1.143   0.905 -0.0309  0.0259  0.2790
  481SOL    HW1 1442   0.998   1.235   0.867 -1.9883  1.6047 -0.0582
  481SOL    HW2 1443   1.014   1.124   0.999  0.8396  1.1720  2.1703
  482SOL     OW 1444   1.584   0.284   2.052 -0.3801  0.5121  0.1011
  482SOL    HW1 1445   1.580   0.376   2.008 -1.2045 -1.1406 -1.0808
  482SOL    HW2 1446   1.688   0.259   2.082  0.3019  1.4220  1.3340
  483SOL     OW 1447   0.102   2.313   1.244 -0.1306  0.3185  0.8348
  483SOL    HW1 1448   0.019   2.323   1.303  0.2520 -1.2144 -0.4232
  483SOL    HW2 1449   0.144   2.400   1.205  1.9507 -1.5162  1.2009
  484SOL     OW 1450   1.764   1.106   1.351 -0.1706 -0.0835 -0.3524
  484SOL    HW1 1451   1.826   1.023   1.363  0.7133 -0.1472 -0.6799
  484SOL    HW2 1452   1.792   1.190   1.402  0.8402  1.3777  0.3983
  485SOL     OW 1453   0.724   0.961   1.772 -0.0986  0.8752  0.9746
  485SOL    HW1 1454   0.734   0.943   1.668 -0.1074  1.5294 -1.0162
  485SOL    HW2 1455   0.810   1.001   1.812 -0.9499  3.3268 -4.0232
  486SOL     OW 1456   0.811   1.883   2.431 -0.0028  0.5379  0.0485
  486SOL    HW1 1457   0.884   1.853   2.505  0.6061 -2.2355 -2.4300
  486SOL    HW2 1458   0.773   1.976   2.456 -1.4351  0.9790 -0.3363
  487SOL     OW 1459   1.797   1.650   0.974  0.1625 -0.0175 -0.4015
  487SOL    HW1 1460   1.862   1.573   1.003  0.9823 -2.6163  2.9146
  487SOL    HW2 1461   1.799   1.673   0.876 -0.4500  1.0984  1.1835
  488SOL     OW 1462   3.007   0.872   2.211  0.0403  0.0757 -0.2341
  488SOL    HW1 1463   2.981   0.771   2.212  2.1623 -1.0347  0.1222
  488SOL    HW2 1464   3.051   0.906   2.299 -1.5501  0.5719 -0.2099
  489SOL     OW 1465   2.772   0.292   1.268 -0.1621 -0.0286  0.2108
  489SOL    HW1 1466   2.796   0.319   1.367 -1.9112  0.8851  2.6123
  489SOL    HW2 1467   2.860   0.280   1.210  1.6311 -1.2938 -1.8617
  490SOL     OW 1468   1.499   2.947   2.764  0.1002 -0.1727 -0.5902
  490SOL    HW1 1469   1.531   2.847   2.764  2.2480 -0.9316  1.3765
  490SOL    HW2 1470   1.420   2.965   2.704  1.5252 -0.5833 -0.8656
  491SOL     OW 1471   1.733   1.444   2.606  0.5164 -0.1347 -0.0418
  491SOL    HW1 1472   1.658   1.418   2.677 -0.8344 -2.0869  0.8986
  491SOL    HW2 1473   1.816   1.493   2.650  0.7569  0.2292  0.7973
  492SOL     OW 1474   0.564   2.138   0.655 -0.7894  0.1507  0.2305
  492SOL    HW1 1475   0.626   2.112   0.737  0.7453 -0.5286  2.0796
  492SOL    HW2 1476   0.471   2.173   0.681  1.6197 -2.3220  0.3092
  493SOL     OW 1477   0.428   1.429   2.021 -0.3514  0.2718  0.3043
  493SOL    HW1 1478   0.337   1.467   1.990 -2.2162 -1.5510 -3.7455
  493SOL    HW2 1479   0.416   1.342   2.079 -1.2502  2.5663 -1.4975
  494SOL     OW 1480   2.713   2.730   0.132  0.0890 -0.3465  0.5077
  494SOL    HW1 1481   2.726   2.674   0.219 -4.6976  0.6778  0.5178
  494SOL    HW2 1482   2.631   2.699   0.080  1.6859 -1.3743  2.5317
  495SOL     OW 1483   2.622   2.718   2.687  0.8194  0.5346  1.3069
  495SOL    HW1 1484   2.619   2.616   2.676 -0.6447  1.1393  0.5466
  495SOL    HW2 1485   2.690   2.754   2.622  2.1409  0.7982 -1.1630
  496SOL     OW 1486   2.070   2.239   0.726  0.0605 -0.3633  0.4497
  496SOL    HW1 1487   2.074   2.304   0.810  0.5440 -2.2245  2.5699
  496SOL    HW2 1488   2.072   2.135   0.751  1.7043 -0.4483 -2.6819
  497SOL     OW 1489   0.200   2.995   2.367 -0.0479 -0.1558  0.8412
  497SOL    HW1 1490   0.188   3.062   2.447 -1.5672 -0.7779  0.1961
  497SOL    HW2 1491   0.238   3.039   2.277  0.1531  0.5949 -2.1687
  498SOL     OW 1492   1.163   1.376   1.190 -0.3052 -0.2506 -0.6711
  498SOL    HW1 1493   1.264   1.399   1.183  1.1511 -0.6766 -2.1737
  498SOL    HW2 1494   1.123   1.427   1.272  0.2642  2.1356 -0.1301
  499SOL     OW 1495   0.644   1.756   0.365  0.1792 -0.2756 -0.0633
  499SOL    HW1 1496   0.655   1.660   0.339  2.2011  1.0126  1.2688
  499SOL    HW2 1497   0.732   1.792   0.411  0.7445  0.8742  0.9545
  500SOL     OW 1498   1.411   2.864   1.632 -0.0722 -0.3238 -0.0914
  500SOL    HW1 1499   1.399   2.911   1.730  1.9308  0.3931  1.3565
  500SOL    HW2 1500   1.473   2.782   1.651  1.0670 -2.6393  0.4643
  501SOL     OW 1501   0.811   1.104   2.271 -0.0408  0.0501 -0.1089
  501SOL    HW1 1502   0.718   1.058   2.251 -2.1949 -2.1242 -0.1039
  501SOL    HW2 1503   0.863   1.119   2.179 -1.1141 -2.3327  2.7120
  502SOL     OW 1504   2.553   0.932   1.715  0.3767  0.2415  0.1485
  502SOL    HW1 1505   2.570   0.935   1.611  4.3977  3.1339  0.0787
  502SOL    HW2 1506   2.563   0.840   1.755 -1.6314  0.4523 -0.5489
  503SOL     OW 1507   1.330   0.152   0.697  0.2173 -0.5103  0.2917
  503SOL    HW1 1508   1.279   0.232   0.658 -1.8689  0.2592  1.4021
  503SOL    HW2 1509   1.419   0.185   0.740 -0.3373 -0.7390  1.5343
  504SOL     OW 1510   3.029   2.346   1.466  0.0813  0.0601 -0.7071
  504SOL    HW1 1511   2.956   2.400   1.524 -0.9802  0.0379 -1.9526
  504SOL    HW2 1512   3.099   2.288   1.524 -0.3068  0.5362  0.2471
  505SOL     OW 1513   2.336   1.181   1.412 -0.2969  0.1753  0.1183
  505SOL    HW1 1514   2.313   1.234   1.322 -1.0439  2.7369 -1.7030
  505SOL    HW2 1515   2.421   1.219   1.452  0.8910  1.6842  2.9529
  506SOL     OW 1516   1.965   0.223   1.826 -0.2190 -0.0291  0.0266
  506SOL    HW1 1517   2.005   0.135   1.856 -0.0839  0.8043  1.7468
  506SOL    HW2 1518   1.995   0.304   1.876  1.3573 -1.4959  0.3756
  507SOL     OW 1519   0.549   0.650   2.136 -0.3002  0.0514  0.4474
  507SOL    HW1 1520   0.488   0.581   2.075 -0.4674 -2.6775 -1.9224
  507SOL    HW2 1521   0.635   0.607   2.178  1.9575 -0.8877  2.0842
  508SOL     OW 1522   0.283   1.621   0.756  0.4329 -0.5624 -0.3725
  508SOL    HW1 1523   0.347   1.691   0.716 -1.9693 -1.3206 -0.0623
  508SOL    HW2 1524   0.255   1.639   0.858 -0.2762  1.4048 -1.9776
  509SOL     OW 1525   1.226   1.232   2.378 -0.4639 -0.2191 -1.0672
  509SOL    HW1 1526   1.276   1.168   2.319 -5.2863  5.3547  0.1890
  509SOL    HW2 1527   1.134   1.195   2.403 -1.7600  1.2946  1.8464
  510SOL     OW 1528   1.257   2.114   2.208 -0.2186 -0.3024 -0.0691
  510SOL    HW1 1529   1.309   2.131   2.118  0.7905  1.3962 -0.1291
  510SOL    HW2 1530   1.173   2.049   2.196 -5.5010  0.3172 -0.3754
  511SOL     OW 1531   3.012   2.698   1.335  0.2936  0.1857  0.3803
  511SOL    HW1 1532   3.036   2.673   1.238  0.5275  2.2506  2.1221
  511SOL    HW2 1533   2.925   2.742   1.342  2.1104  0.0832 -1.9916
  512SOL     OW 1534   2.365   0.434   1.368 -0.4671 -0.0635  0.0244
  512SOL    HW1 1535   2.265   0.440   1.376  1.9899  1.5822  0.1168
  512SOL    HW2 1536   2.411   0.435   1.278  0.8964 -2.3374 -0.4377
  513SOL     OW 1537   2.629   2.096   0.888 -0.2284 -0.1826  0.5073
  513SOL    HW1 1538   2.573   2.166   0.831  1.5695 -2.0264 -0.4855
  513SOL    HW2 1539   2.674   2.025   0.823  0.6499  0.5466 -2.3693
  514SOL     OW 1540   0.620   2.739   0.469 -0.7090 -0.2897  0.3828
  514SOL    HW1 1541   0.633   2.763   0.366  2.9276 -0.5420 -0.6674
  514SOL    HW2 1542   0.654   2.811   0.536  0.1698 -1.2417  0.3554
  515SOL     OW 1543   1.953   1.276   2.366 -0.1882 -0.5488 -0.0542
  515SOL    HW1 1544   2.001   1.233   2.291  0.8019  0.8832  3.6423
  515SOL    HW2 1545   1.870   1.220   2.383  1.9514 -0.9775 -0.8585
  516SOL     OW 1546   0.266   0.228   1.920  0.1476 -0.3052  0.1272
  516SOL    HW1 1547   0.346   0.207   1.852  0.0366 -0.7148 -0.4265
  516SOL    HW2 1548   0.173   0.195   1.898  0.5457  0.5808  0.9779
  517SOL     OW 1549   0.469   0.025   1.167 -0.6129 -0.0351 -0.2858
  517SOL    HW1 1550   0.487   0.104   1.227 -3.3911  2.3193 -2.4642
  517SOL    HW2 1551   0.380   0.027   1.119  0.9070  0.5645 -0.9827
  518SOL     OW 1552   2.163   3.032   1.814  0.3863  0.0959 -0.5103
  518SOL    HW1 1553   2.215   3.114   1.838 -2.4621 -1.6171  0.5478
  518SOL    HW2 1554   2.193   2.999   1.721 -0.3074  0.0812 -2.0494
  519SOL     OW 1555   2.378   2.162   2.459  0.1657 -0.0478  0.0330
  519SOL    HW1 1556   2.349   2.150   2.558  0.6567  0.8757  1.0325
  519SOL    HW2 1557   2.365   2.260   2.428  3.0493 -1.3321  1.3111
  520SOL     OW 1558   1.860   2.728   1.748  0.4381  0.4798  0.2709
  520SOL    HW1 1559   1.772   2.698   1.798 -1.1912 -2.2954  0.1797
  520SOL    HW2 1560   1.890   2.655   1.677  0.4351  0.3510 -0.9120
  521SOL     OW 1561   0.572   3.057   2.096 -0.4228 -0.2376 -0.0175
  521SOL    HW1 1562   0.475   3.074   2.131 -1.2068 -0.2367 -1.0831
  521SOL    HW2 1563   0.639   3.043   2.172 -0.7253 -2.0032 -2.6779
  522SOL     OW 1564   0.240   1.850   1.513  0.3091  0.4064 -0.7012
  522SOL    HW1 1565   0.288   1.907   1.586  1.0047 -2.0527  1.0517
  522SOL    HW2 1566   0.178   1.908   1.447 -1.0858  2.3161  0.6578
  523SOL     OW 1567   2.218   2.955   1.550  0.7905 -0.2605 -0.0693
  523SOL    HW1 1568   2.312   2.899   1.535  0.9742 -2.6919  0.0295
  523SOL    HW2 1569   2.130   2.907   1.514 -0.7077 -0.8403 -1.1745
  524SOL     OW 1570   0.188   2.783   2.775 -0.0898  0.0938 -0.3762
  524SOL    HW1 1571   0.117   2.834   2.832 -3.4930 -0.7029  0.9287
  524SOL    HW2 1572   0.288   2.812   2.797  0.9415 -0.7099  4.0123
  525SOL     OW 1573   2.177   1.973   0.387 -0.8804  0.6530  0.0655
  525SOL    HW1 1574   2.180   1.910   0.475 -0.3836  0.0396 -0.8705
  525SOL    HW2 1575   2.203   1.926   0.298  1.3381  2.8844 -2.2750
  526SOL     OW 1576   0.475   1.507   1.643 -0.2119 -0.0078 -0.1100
  526SOL    HW1 1577   0.520   1.551   1.722 -2.3732 -3.7848 -1.5683
  526SOL    HW2 1578   0.491   1.405   1.642 -1.8522 -0.9123  2.2937
  527SOL     OW 1579   1.018   2.849   1.165  0.0476 -0.0501  0.5674
  527SOL    HW1 1580   1.081   2.783   1.217  0.0536  1.1991 -0.4087
  527SOL    HW2 1581   1.052   2.947   1.186  0.1943  0.1315  1.5100
  528SOL     OW 1582   1.355   2.372   0.556  0.2109  0.0364 -0.1014
  528SOL    HW1 1583   1.401   2.283   0.520  0.2040 -1.0882 -0.0535
  528SOL    HW2 1584   1.424   2.438   0.599  0.1860 -3.5650  1.2494
  529SOL     OW 1585   1.962   1.756   0.688 -0.0195 -0.3697  0.2669
  529SOL    HW1 1586   1.891   1.745   0.609 -2.2379  4.3733  1.7835
  529SOL    HW2 1587   1.970   1.849   0.727  2.7718 -1.9912 -2.1041
  530SOL     OW 1588   0.352   2.602   0.216 -0.4149  0.0978  0.1521
  530SOL    HW1 1589   0.352   2.674   0.292  1.4728 -0.0606  2.3368
  530SOL    HW2 1590   0.372   2.502   0.246 -1.1431  1.7700  2.1367
  531SOL     OW 1591   1.859   1.017   1.030 -0.4787  0.0659  0.0100
  531SOL    HW1 1592   1.796   1.071   0.964 -0.4642  0.6649  0.5528
  531SOL    HW2 1593   1.811   0.925   1.044 -2.2663 -0.7447  1.9412
  532SOL     OW 1594   0.370   1.179   0.700  0.2594  0.8999  0.1327
  532SOL    HW1 1595   0.400   1.170   0.597 -0.5467  3.0349 -2.5898
  532SOL    HW2 1596   0.347   1.083   0.742 -1.2925  1.5355  1.2148
  533SOL     OW 1597   1.759   0.048   2.568  0.4023  0.2881 -0.4005
  533SOL    HW1 1598   1.846  -0.002   2.581 -3.6377 -0.0125 -1.5977
  533SOL    HW2 1599   1.742   0.107   2.651  2.5682 -1.9201 -0.1677
  534SOL     OW 1600   0.321   0.202   1.505  0.5647 -0.4099  0.7817
  534SOL    HW1 1601   0.389   0.229   1.428  0.1460  0.3583 -3.1286
  534SOL    HW2 1602   0.262   0.283   1.539  1.8627  1.5739  0.8220
  535SOL     OW 1603   1.915   0.429   0.226  0.5079  0.2061  0.5657
  535SOL    HW1 1604   1.956   0.509   0.284  0.5005  0.1244 -0.1127
  535SOL    HW2 1605   1.831   0.384   0.265  0.0075 -1.2156 -1.0942
  536SOL     OW 1606   1.422   2.582   0.946 -0.5723 -0.1033  0.1898
  536SOL    HW1 1607   1.419   2.546   1.044  1.2700  1.2571 -0.2591
  536SOL    HW2 1608   1.328   2.604   0.911  3.1065 -1.7504 -0.3798
  537SOL     OW 1609   0.811   0.170   2.340  0.1328  0.3123 -0.3794
  537SOL    HW1 1610   0.817   0.217   2.249  0.4885  1.4106  0.6400
  537SOL    HW2 1611   0.745   0.091   2.344 -1.6823  1.5666  1.3980
  538SOL     OW 1612   1.689   2.314   1.537  0.3059  0.2880  0.1405
  538SOL    HW1 1613   1.641   2.234   1.487  1.6483  0.3421 -0.8269
  538SOL    HW2 1614   1.783   2.320   1.489 -0.4669 -1.3875 -3.5317
  539SOL     OW 1615   0.182   1.593   2.730  0.3901 -0.7830  0.0270
  539SOL    HW1 1616   0.109   1.594   2.656 -0.5584 -1.0697 -4.0368
  539SOL    HW2 1617   0.173   1.673   2.797 -0.5161 -0.6378  2.1589
  540SOL     OW 1618   2.726   1.715   1.987  0.1179 -0.1532  0.0650
  540SOL    HW1 1619   2.668   1.654   2.050  0.8906 -1.1188  0.2086
  540SOL    HW2 1620   2.693   1.816   1.983 -0.1731  1.8049 -0.5282
  541SOL     OW 1621   0.489   2.286   3.070 -0.4657  0.0778  0.6578
  541SOL    HW1 1622   0.523   2.213   3.137 -0.4876 -2.8348 -0.5952
  541SOL    HW2 1623   0.391   2.285   3.068 -0.5420 -3.0596  2.1813
  542SOL     OW 1624   2.258   2.574   0.389 -0.0379  0.4727 -0.1733
  542SOL    HW1 1625   2.229   2.662   0.342  1.0502  1.7381 -0.3586
  542SOL    HW2 1626   2.182   2.518   0.431 -0.3443 -0.6901 -1.2840
  543SOL     OW 1627   1.075   1.750   1.648  0.0317  0.6753  0.0835
  543SOL    HW1 1628   1.041   1.776   1.745 -0.0655  2.6051 -0.7574
  543SOL    HW2 1629   1.037   1.808   1.570  3.0508 -0.4900 -1.5184
  544SOL     OW 1630   1.003   0.406   0.203  0.4907  0.0937  0.1048
  544SOL    HW1 1631   0.981   0.316   0.241  0.6788  2.4169 -3.1248
  544SOL    HW2 1632   1.020   0.397   0.104  0.6352 -0.0032  3.0603
  545SOL     OW 1633   1.095   1.768   0.843  0.1169  0.0930  0.5531
  545SOL    HW1 1634   1.195   1.801   0.848  0.1828  2.2500  2.6223
  545SOL    HW2 1635   1.091   1.665   0.864 -1.6004 -0.1831 -0.4460
  546SOL     OW 1636   2.630   1.583   0.006  0.3628 -0.7462 -0.4617
  546SOL    HW1 1637   2.563   1.613  -0.069 -3.5580  3.5545 -2.1060
  546SOL    HW2 1638   2.571   1.538   0.082 -0.6616  0.3990 -1.0620
  547SOL     OW 1639   0.562   0.023   2.665  0.0363  0.2192  0.2489
  547SOL    HW1 1640   0.647  -0.040   2.637  1.6100 -1.0781 -0.3137
  547SOL    HW2 1641   0.482  -0.037   2.694 -2.6288 -1.9935  2.6130
  548SOL     OW 1642   2.078   0.853   3.049  0.3055 -0.1258 -0.2552
  548SOL    HW1 1643   1.999   0.822   2.995 -0.2325  0.8540  0.1642
  548SOL    HW2 1644   2.076   0.957   3.057  0.8361 -2.4223 -1.5411
  549SOL     OW 1645   0.686   0.526   0.190 -0.2771 -0.3265 -0.2308
  549SOL    HW1 1646   0.644   0.562   0.103 -1.4433  1.3751  0.5545
  549SOL    HW2 1647   0.774   0.582   0.221 -2.8879  2.3379 -1.8202
  550SOL     OW 1648   2.481   2.856   2.869 -0.3098 -0.5174 -0.4046
  550SOL    HW1 1649   2.450   2.799   2.953 -0.9800  0.7212 -0.8447
  550SOL    HW2 1650   2.529   2.798   2.798  1.0837 -0.8432  2.5013
  551SOL     OW 1651   0.288   0.873   0.235  0.0038  0.4151 -0.3137
  551SOL    HW1 1652   0.390   0.863   0.220  0.7239  3.9986  1.8604
  551SOL    HW2 1653   0.263   0.861   0.333  1.8333  1.2621  2.3488
  552SOL     OW 1654   0.705   2.987   1.835  0.6422  0.1041 -0.3725
  552SOL    HW1 1655   0.658   3.009   1.926  0.5330  2.1379  2.7409
  552SOL    HW2 1656   0.805   2.997   1.837 -0.3751  0.5464  2.0318
  553SOL     OW 1657   3.018   2.566   0.348 -0.3975 -0.1587 -0.3086
  553SOL    HW1 1658   2.994   2.466   0.339 -0.9006 -2.0332  0.7036
  553SOL    HW2 1659   2.992   2.611   0.436 -1.2736 -0.4788 -1.5759
  554SOL     OW 1660   2.110   0.367   0.590 -0.4294  0.0050  0.3626
  554SOL    HW1 1661   2.184   0.362   0.517  0.2951  1.1807  2.8921
  554SOL    HW2 1662   2.094   0.284   0.647 -2.2760  2.1899 -0.1307
  555SOL     OW 1663   0.409   2.859   2.502  0.0911 -1.2859  0.0800
  555SOL    HW1 1664   0.311   2.891   2.477  0.6804 -1.5003  0.7039
  555SOL    HW2 1665   0.466   2.830   2.424  0.7801  0.8253  0.8517
  556SOL     OW 1666   0.785   2.395   1.543 -0.2448  0.1860 -0.3565
  556SOL    HW1 1667   0.822   2.478   1.596 -0.5512  1.1387 -0.5424
  556SOL    HW2 1668   0.858   2.368   1.474  2.1470  2.5143  1.0027
  557SOL     OW 1669   0.094   2.046   0.157  0.3096 -0.2267  0.8439
  557SOL    HW1 1670   0.026   1.981   0.116  3.1522 -2.6834 -2.4801
  557SOL    HW2 1671   0.144   2.095   0.081  2.6558 -2.4556  0.5950
  558SOL     OW 1672   2.936   2.312   0.280 -0.3515 -0.2927  0.2869
  558SOL    HW1 1673   2.834   2.318   0.306 -1.6349  3.4581 -1.7357
  558SOL    HW2 1674   2.951   2.289   0.181  2.0759  0.4765  0.0142
  559SOL     OW 1675   0.376   2.308   1.356  0.7287  0.4183  0.1186
  559SOL    HW1 1676   0.277   2.301   1.316 -2.9081 -1.5373 -0.6364
  559SOL    HW2 1677   0.435   2.238   1.304 -0.1451 -1.0365  0.6623
  560SOL     OW 1678   2.103   1.126   3.076 -0.0618  0.3448 -0.3988
  560SOL    HW1 1679   2.033   1.157   3.148  0.0977  0.2114  0.0826
  560SOL    HW2 1680   2.187   1.187   3.078  1.0953 -0.2631  4.1134
  561SOL     OW 1681   3.020   1.876   0.019 -0.5583 -0.1434 -0.0380
  561SOL    HW1 1682   2.998   1.791   0.068 -0.5165  0.9931 -1.8840
  561SOL    HW2 1683   2.943   1.940   0.015  0.3413 -0.9318  0.1848
  562SOL     OW 1684   1.030   2.276   2.372  0.7569  0.7309 -0.0606
  562SOL    HW1 1685   0.941   2.216   2.365 -0.2095 -3.1106  1.8595
  562SOL    HW2 1686   1.016   2.378   2.369  1.5457 -3.6931  1.7139
  563SOL     OW 1687   0.728   2.565   2.582 -0.1004  0.4593  0.4450
  563SOL    HW1 1688   0.795   2.495   2.628 -1.2132  0.5087  1.6527
  563SOL    HW2 1689   0.674   2.619   2.655 -1.3719  2.2293  0.9736
  564SOL     OW 1690   2.760   1.315   2.956 -0.1966  0.3221  0.1160
  564SOL    HW1 1691   2.685   1.362   3.005 -0.6819 -1.1848 -2.0029
  564SOL    HW2 1692   2.802   1.380   2.884  0.1764  2.0067  0.0970
  565SOL     OW 1693   2.582   1.939   2.605  0.1863  0.3661 -0.0574
  565SOL    HW1 1694   2.552   2.013   2.538 -1.2969  0.8265  1.7408
  565SOL    HW2 1695   2.644   1.980   2.678 -2.1772  1.3055  1.9477
  566SOL     OW 1696   1.958   2.836   1.376  0.6262 -0.3616  0.4684
  566SOL    HW1 1697   1.925   2.735   1.362  0.5072 -2.3361  0.5121
  566SOL    HW2 1698   1.947   2.895   1.291  0.0433  0.2446  3.9995
  567SOL     OW 1699   2.507   0.064   2.274  0.1993  0.3458 -0.6434
  567SOL    HW1 1700   2.534   0.118   2.188 -4.4910  2.5182 -0.0771
  567SOL    HW2 1701   2.406   0.046   2.285 -2.1613  1.1992  3.5583
  568SOL     OW 1702   1.556   1.788   0.306 -0.1188 -0.1426  0.4476
  568SOL    HW1 1703   1.489   1.852   0.258 -0.6545  0.4533 -1.2639
  568SOL    HW2 1704   1.655   1.801   0.279  0.1723  1.9901  2.5820
  569SOL     OW 1705   0.272   0.694   0.768  0.1359 -0.0499 -0.2231
  569SOL    HW1 1706   0.338   0.616   0.751  0.1955 -2.5832  1.3738
  569SOL    HW2 1707   0.180   0.654   0.788  1.3285 -0.6418 -0.3880
  570SOL     OW 1708   0.607   0.827   2.848 -0.2367  0.4174  0.2107
  570SOL    HW1 1709   0.624   0.803   2.750  3.6807  0.6554 -1.1665
  570SOL    HW2 1710   0.658   0.906   2.891 -1.3752  0.2154 -0.1515
  571SOL     OW 1711   0.790   0.015   1.030 -0.5335  0.0442 -0.2511
  571SOL    HW1 1712   0.870   0.025   0.960  0.8472  0.8426 -0.6330
  571SOL    HW2 1713   0.725  -0.061   1.009  0.8616 -0.7613  2.7526
  572SOL     OW 1714   1.576   2.610   1.269  0.0302 -0.0419  0.1146
  572SOL    HW1 1715   1.491   2.556   1.248  3.4049  1.0247  1.8331
  572SOL    HW2 1716   1.553   2.706   1.302 -1.4835 -1.7646  2.4044
  573SOL     OW 1717   2.874   0.470   2.053  0.2666 -0.5311  0.3963
  573SOL    HW1 1718   2.829   0.377   2.045  2.6523  1.3838 -0.9724
  573SOL    HW2 1719   2.803   0.545   2.039 -0.3726 -0.1935  1.1520
  574SOL     OW 1720   0.209   1.702   0.998  0.2660 -0.3106  0.6672
  574SOL    HW1 1721   0.189   1.805   0.977 -0.3051  0.2647 -0.9717
  574SOL    HW2 1722   0.136   1.658   1.060 -0.1735  0.1344  1.8970
  575SOL     OW 1723   0.936   2.160   0.984 -0.1499  0.0225  0.0393
  575SOL    HW1 1724   0.875   2.191   1.063  2.1638  0.7222 -0.3452
  575SOL    HW2 1725   0.958   2.237   0.919  1.0146  0.4968  1.7582
  576SOL     OW 1726   2.909   3.008   1.678 -0.2406 -0.2559  0.1687
  576SOL    HW1 1727   2.807   3.006   1.682 -1.0083 -0.2847  2.3342
  576SOL    HW2 1728   2.949   3.104   1.670 -0.4385  0.7286 -1.5929
  577SOL     OW 1729   2.507   1.236   0.028  0.3432 -0.1273 -0.2865
  577SOL    HW1 1730   2.537   1.157  -0.036 -1.1272  0.8080 -1.2131
  577SOL    HW2 1731   2.582   1.255   0.093 -1.6528  1.3266 -0.9528
  578SOL     OW 1732   1.336   2.756   2.484 -0.1070  0.5031 -0.2405
  578SOL    HW1 1733   1.236   2.790   2.479  1.0217  0.6371 -1.6171
  578SOL    HW2 1734   1.401   2.829   2.450 -0.0580 -1.0773 -1.4424
  579SOL     OW 1735   0.080   2.503   0.130 -0.0186 -0.2156 -0.0639
  579SOL    HW1 1736   0.044   2.546   0.220  0.2984 -0.4852  0.1698
  579SOL    HW2 1737   0.187   2.498   0.124 -0.0377  3.3165 -0.5601
  580SOL     OW 1738   1.023   2.630   0.427 -0.0976 -0.1175  0.0107
  580SOL    HW1 1739   1.094   2.655   0.351  1.9463  1.7464  0.2636
  580SOL    HW2 1740   0.939   2.589   0.392  2.7057  3.3487  0.7045
  581SOL     OW 1741   1.270   2.575   1.512 -0.5338  0.4988 -0.2192
  581SOL    HW1 1742   1.301   2.481   1.553 -0.9312  1.6077 -0.4558
  581SOL    HW2 1743   1.348   2.625   1.461  0.5201  2.9347  2.0160
  582SOL     OW 1744   1.499   0.086   1.865  0.0144  0.1814 -0.2458
  582SOL    HW1 1745   1.527   0.166   1.929 -2.0064  0.7830  2.1825
  582SOL    HW2 1746   1.580   0.060   1.807  2.0160  1.0483  1.7708
  583SOL     OW 1747   2.507   3.065   0.499  0.0428  0.4003  0.1251
  583SOL    HW1 1748   2.600   3.021   0.469  1.2010 -1.1054 -1.4257
  583SOL    HW2 1749   2.457   2.999   0.558 -0.5974  2.7932  0.3376
  584SOL     OW 1750   1.597   0.915   2.099 -0.7892 -0.2753 -0.1770
  584SOL    HW1 1751   1.643   0.875   2.013  1.0762  0.8596  1.3073
  584SOL    HW2 1752   1.669   0.937   2.170  0.0665 -0.1765  0.3153
  585SOL     OW 1753   2.090   2.664   2.901  0.1269  0.2980 -0.1579
  585SOL    HW1 1754   2.115   2.569   2.876 -0.7473 -2.5750 -0.4119
  585SOL    HW2 1755   1.985   2.675   2.889  0.9781 -0.1729 -1.8331
  586SOL     OW 1756   2.807   0.352   1.537  0.1092  0.8389 -0.1452
  586SOL    HW1 1757   2.820   0.429   1.613 -0.3557 -0.4794  0.5109
  586SOL    HW2 1758   2.726   0.286   1.553 -1.4398  1.5236  0.1373
  587SOL     OW 1759   1.967   1.544   2.714 -0.1098  0.4783 -0.2720
  587SOL    HW1 1760   2.027   1.487   2.647  1.8090 -1.8196 -2.9476
  587SOL    HW2 1761   2.023   1.563   2.798  0.8241  1.2626 -0.4390
  588SOL     OW 1762   0.460   2.693   2.256  0.2179 -0.2972  0.0946
  588SOL    HW1 1763   0.365   2.683   2.210 -0.5346 -2.4829  3.0273
  588SOL    HW2 1764   0.481   2.612   2.319  1.3387  2.2137  1.1382
  589SOL     OW 1765   2.131   1.422   2.518  0.1332  0.6180 -0.4464
  589SOL    HW1 1766   2.063   1.363   2.467 -0.2412 -0.1685 -0.2288
  589SOL    HW2 1767   2.230   1.384   2.506  1.4918 -0.5335 -1.5337
  590SOL     OW 1768   2.341   1.653   2.049 -0.2033  0.3749  0.1487
  590SOL    HW1 1769   2.422   1.593   2.023 -1.3003 -2.7908  2.7718
  590SOL    HW2 1770   2.349   1.706   2.138  1.5015 -1.9513  0.3313
  591SOL     OW 1771   1.330   2.382   0.260 -0.0559 -0.5094  0.2312
  591SOL    HW1 1772   1.359   2.295   0.211  0.0803 -1.2173 -0.0949
  591SOL    HW2 1773   1.344   2.379   0.362  0.7326  0.5793  0.5501
  592SOL     OW 1774   1.802   2.306   0.751 -0.1247 -0.6537  0.2509
  592SOL    HW1 1775   1.775   2.378   0.677 -0.4881  1.0647  1.7949
  592SOL    HW2 1776   1.894   2.263   0.731 -1.4553 -1.5664 -2.3780
  593SOL     OW 1777   0.704   0.258   0.234  0.1417 -0.5206  0.3726
  593SOL    HW1 1778   0.755   0.215   0.151  1.1143  0.8886  0.8590
  593SOL    HW2 1779   0.695   0.361   0.220 -1.6686 -1.4724  1.1394
  594SOL     OW 1780   0.946   1.877   2.699  0.0118  0.1221  0.0023
  594SOL    HW1 1781   1.047   1.856   2.713  0.4542  1.1122 -0.5479
  594SOL    HW2 1782   0.916   1.966   2.744  1.5103 -1.6345 -1.9758
  595SOL     OW 1783   1.592   0.049   1.088  0.3724 -0.2824  0.1301
  595SOL    HW1 1784   1.644  -0.038   1.088 -0.5764  1.2979 -2.3233
  595SOL    HW2 1785   1.507   0.040   1.028  0.9817 -0.3820 -1.8375
  596SOL     OW 1786   0.006   1.413   2.239 -0.2346 -0.1825  0.4592
  596SOL    HW1 1787   0.011   1.317   2.281 -0.0043  1.1247  1.1060
  596SOL    HW2 1788   0.016   1.487   2.306  2.0599 -3.6423 -0.6565
  597SOL     OW 1789   2.001   2.536   1.613 -0.3712  0.2397  0.2675
  597SOL    HW1 1790   2.031   2.481   1.535 -0.0743 -2.5641 -1.0629
  597SOL    HW2 1791   2.065   2.550   1.691  0.7003 -0.7806  1.3405
  598SOL     OW 1792   2.509   2.969   1.278 -0.0037 -0.3441 -0.7561
  598SOL    HW1 1793   2.591   3.012   1.327  0.3115 -0.4698  0.2471
  598SOL    HW2 1794   2.530   2.931   1.185 -0.7129 -1.7146 -0.7041
  599SOL     OW 1795   2.957   0.343   2.510 -0.1255 -0.1803 -0.5214
  599SOL    HW1 1796   3.049   0.370   2.472 -0.2352 -0.3041  1.3647
  599SOL    HW2 1797   2.886   0.412   2.481  1.7952 -3.2486 -2.0480
  600SOL     OW 1798   2.788   1.125   2.746  0.3608  0.3654  0.6690
  600SOL    HW1 1799   2.729   1.044   2.757  2.5129  2.3660  2.5821
  600SOL    HW2 1800   2.769   1.196   2.817  0.6506 -1.4056  0.8067
  601SOL     OW 1801   2.983   1.267   1.957 -0.1884  0.3825  0.0476
  601SOL    HW1 1802   2.896   1.309   1.933 -0.5918 -0.7731  1.8215
  601SOL    HW2 1803   3.069   1.322   1.938  1.6775  1.2588 -0.1757
  602SOL     OW 1804   1.428   1.735   2.376 -0.0484  0.7075  0.1074
  602SOL    HW1 1805   1.374   1.652   2.334 -0.5780 -0.9124  1.5825
  602SOL    HW2 1806   1.527   1.711   2.391  2.0255  1.2389 -0.1692
  603SOL     OW 1807   0.589   1.192   2.739  0.1965 -0.2094 -0.2116
  603SOL    HW1 1808   0.499   1.176   2.692  0.4268  2.5288  0.1974
  603SOL    HW2 1809   0.663   1.131   2.703 -0.7583 -1.6413 -1.7000
  604SOL     OW 1810   2.387   1.001   0.146  0.1641 -0.1839  0.1932
  604SOL    HW1 1811   2.413   1.085   0.094 -2.6993  1.4372  0.6954
  604SOL    HW2 1812   2.408   0.916   0.093 -0.2316  3.0930  1.7928
  605SOL     OW 1813   2.519   1.151   1.918 -0.3778  0.0880  0.3869
  605SOL    HW1 1814   2.588   1.097   1.854  0.4804 -5.1543 -0.5299
  605SOL    HW2 1815   2.566   1.184   2.006  1.4576  0.1700 -0.6276
  606SOL     OW 1816   1.478   2.516   2.578  0.3842  0.1885 -0.0806
  606SOL    HW1 1817   1.396   2.544   2.520  0.9106 -0.4854  2.2272
  606SOL    HW2 1818   1.481   2.413   2.584  1.7185 -0.3724  0.6732
  607SOL     OW 1819   1.337   1.608   0.367 -0.0840 -0.1782 -0.6192
  607SOL    HW1 1820   1.264   1.649   0.424  1.5164 -2.0267  1.0899
  607SOL    HW2 1821   1.414   1.677   0.349  1.0395 -0.5953 -2.8452
  608SOL     OW 1822   1.439   2.892   0.321 -0.4043  0.3256 -0.1025
  608SOL    HW1 1823   1.530   2.916   0.281 -0.4154 -0.7729  1.4638
  608SOL    HW2 1824   1.404   2.964   0.387  0.7288  2.0586 -1.0440
  609SOL     OW 1825   1.317   1.385   0.188  0.1007 -0.1136 -0.4195
  609SOL    HW1 1826   1.316   1.462   0.258 -2.3130 -1.3486  0.7805
  609SOL    HW2 1827   1.264   1.417   0.104  0.5212  0.1060 -5.5278
  610SOL     OW 1828   3.012   1.136   2.213 -0.3027  0.6014  0.4476
  610SOL    HW1 1829   3.001   1.037   2.187  3.4391 -0.3669  0.7709
  610SOL    HW2 1830   2.996   1.201   2.133 -2.8518  1.4958 -0.4917
  611SOL     OW 1831   2.549   0.295   1.111 -0.3872  0.0437  0.1086
  611SOL    HW1 1832   2.471   0.242   1.157 -1.1822  1.8885 -1.9888
  611SOL    HW2 1833   2.636   0.289   1.169 -2.0673 -0.1556  2.0572
  612SOL     OW 1834   0.754   2.273   1.140 -0.0652  0.4918 -0.0603
  612SOL    HW1 1835   0.676   2.212   1.169  0.3384  2.2523 -0.2295
  612SOL    HW2 1836   0.727   2.375   1.128  0.2552 -1.4923 -0.2258
  613SOL     OW 1837   0.831   1.366   2.448 -0.1047  0.2079 -0.4300
  613SOL    HW1 1838   0.859   1.424   2.367  0.6327 -0.3394 -2.7258
  613SOL    HW2 1839   0.796   1.271   2.421 -1.0446 -2.1995  0.4164
  614SOL     OW 1840   1.580   1.634   1.968 -0.6238 -0.5308 -0.4399
  614SOL    HW1 1841   1.520   1.716   1.989  1.3767 -0.5273  0.4699
  614SOL    HW2 1842   1.666   1.645   2.022 -0.5312 -1.5325 -0.1953
  615SOL     OW 1843   0.764   1.317   1.710 -0.3734  0.2551 -0.0970
  615SOL    HW1 1844   0.699   1.276   1.635  1.2956  1.4463 -0.5595
  615SOL    HW2 1845   0.820   1.398   1.664  1.2394  2.7946 -0.3291
  616SOL     OW 1846   1.043   1.656   2.208 -0.5881 -0.4446 -0.2820
  616SOL    HW1 1847   0.951   1.612   2.222  1.3818  1.5492  0.5467
  616SOL    HW2 1848   1.040   1.756   2.230 -1.0374 -1.6160 -4.1369
  617SOL     OW 1849   2.947   1.575   1.621 -0.3832 -0.5191 -0.0795
  617SOL    HW1 1850   2.924   1.496   1.688  3.4981 -0.9059  3.8692
  617SOL    HW2 1851   2.993   1.544   1.536  0.4010  2.1424  3.1079
  618SOL     OW 1852   1.888   1.981   1.417  0.0062  0.5005  0.7275
  618SOL    HW1 1853   1.940   2.013   1.336  0.4557 -0.7192  3.0993
  618SOL    HW2 1854   1.853   1.880   1.405  3.8797 -0.7979  1.1434
  619SOL     OW 1855   1.763   0.437   2.379 -0.4764  0.0328  0.2346
  619SOL    HW1 1856   1.702   0.506   2.335  2.7336  0.1696  2.0592
  619SOL    HW2 1857   1.720   0.345   2.378  1.2685  1.0749  1.5750
  620SOL     OW 1858   2.276   2.946   0.627 -0.4080  0.2675  0.0440
  620SOL    HW1 1859   2.196   3.013   0.660 -0.7185  2.7484 -0.1298
  620SOL    HW2 1860   2.269   2.851   0.661 -2.4668  1.7990 -1.7176
  621SOL     OW 1861   2.154   1.827   1.308  0.1812  0.2282  0.5828
  621SOL    HW1 1862   2.148   1.807   1.412 -0.4188 -1.2252  1.3283
  621SOL    HW2 1863   2.096   1.762   1.257  0.6541 -2.1338 -1.0672
  622SOL     OW 1864   2.268   0.935   1.798 -0.4478  0.1547  0.8026
  622SOL    HW1 1865   2.358   0.954   1.754  0.4645  2.6743 -0.4087
  622SOL    HW2 1866   2.262   0.832   1.817  1.1838  0.6091 -1.4715
  623SOL     OW 1867   1.320   0.826   2.648  0.0340  0.2423 -0.1395
  623SOL    HW1 1868   1.297   0.748   2.713 -2.7995  0.8455  0.3801
  623SOL    HW2 1869   1.249   0.845   2.576 -0.4307  0.0280 -0.2745
  624SOL     OW 1870   0.572   0.663   3.089  0.3038 -0.2869 -0.3427
  624SOL    HW1 1871   0.596   0.718   3.006  0.4038  0.2251  3.2927
  624SOL    HW2 1872   0.555   0.727   3.172  0.2403 -0.5533  1.5852
  625SOL     OW 1873   2.804   1.700   0.970 -0.0134 -0.4276 -0.3623
  625SOL    HW1 1874   2.704   1.725   0.984  1.3364  0.1398 -0.8205
  625SOL    HW2 1875   2.864   1.783   0.983  0.3835  1.5202 -1.1185
  626SOL     OW 1876   0.596   2.726   1.746  0.0318 -0.5135  0.8809
  626SOL    HW1 1877   0.622   2.823   1.782  0.2451 -1.0689 -0.5635
  626SOL    HW2 1878   0.496   2.698   1.760  0.7850 -1.9569  0.4470
  627SOL     OW 1879   0.790   0.973   1.494 -0.0641  0.6724 -0.1424
  627SOL    HW1 1880   0.705   0.952   1.443  1.8720  1.1012  2.1577
  627SOL    HW2 1881   0.844   1.055   1.466  2.3836 -0.2330  0.2350
  628SOL     OW 1882   2.404   0.162   0.700 -0.1999  0.3370  0.1866
  628SOL    HW1 1883   2.400   0.089   0.628 -0.8778 -0.1093  1.7004
  628SOL    HW2 1884   2.313   0.145   0.756 -2.4095 -1.2481  2.3014
  629SOL     OW 1885   1.963   0.909   1.974 -0.4512 -0.1673  0.1937
  629SOL    HW1 1886   2.050   0.947   1.933 -1.0374 -1.8918  2.1469
  629SOL    HW2 1887   1.916   0.987   2.032 -0.8798  0.1458 -0.7272
  630SOL     OW 1888   2.896   2.211   0.838  0.3399  0.3023 -0.1735
  630SOL    HW1 1889   2.843   2.301   0.829 -0.8507 -0.5413  1.1516
  630SOL    HW2 1890   2.841   2.121   0.837  0.2530  0.4363  2.6733
  631SOL     OW 1891   2.984   0.165   2.125 -0.2919 -0.2420 -0.0356
  631SOL    HW1 1892   3.054   0.206   2.190 -1.1559 -1.8842 -1.1112
  631SOL    HW2 1893   3.029   0.139   2.034  1.2126 -0.0159 -2.6051
  632SOL     OW 1894   2.377   2.526   0.648 -0.3001 -0.1156 -0.0739
  632SOL    HW1 1895   2.379   2.610   0.710 -3.3795  1.3128  1.5302
  632SOL    HW2 1896   2.362   2.552   0.551  1.2443 -0.9021 -1.7594
  633SOL     OW 1897   1.421   1.217   2.593  0.2029  0.1333 -0.5211
  633SOL    HW1 1898   1.448   1.306   2.642  1.1749  0.7420  0.8312
  633SOL    HW2 1899   1.351   1.237   2.518  0.2682 -3.0407  0.9232
  634SOL     OW 1900   0.707   2.024   0.878 -0.5013 -0.3583  0.1128
  634SOL    HW1 1901   0.605   2.035   0.903 -0.6880 -0.9939 -0.7478
  634SOL    HW2 1902   0.772   2.088   0.927 -1.6707 -0.6512 -1.1493
  635SOL     OW 1903   3.001   2.343   3.095  0.4095 -0.4221  0.0233
  635SOL    HW1 1904   2.925   2.408   3.057 -1.9281 -0.9785 -1.9086
  635SOL    HW2 1905   3.079   2.397   3.141  0.3752 -0.1639 -1.5492
  636SOL     OW 1906   2.310   2.733   2.051  0.3370 -0.2664  0.2326
  636SOL    HW1 1907   2.274   2.834   2.052 -1.8787  0.0668  0.2728
  636SOL    HW2 1908   2.276   2.679   2.128 -0.0394  2.1433  0.7150
  637SOL     OW 1909   2.651   0.650   2.007 -0.7805  0.7572  0.1824
  637SOL    HW1 1910   2.580   0.654   1.926 -0.4389  2.4399  1.7574
  637SOL    HW2 1911   2.700   0.742   2.022  0.9041  0.5919 -0.2710
  638SOL     OW 1912   2.448   1.799   1.248 -0.1551 -0.4410 -0.0591
  638SOL    HW1 1913   2.342   1.791   1.255 -0.7834  1.4675  0.2457
  638SOL    HW2 1914   2.497   1.736   1.315 -0.7419 -3.4266  0.1686
  639SOL     OW 1915   1.281   2.141   1.730 -0.5145  0.7484  0.1561
  639SOL    HW1 1916   1.281   2.072   1.651  2.5260 -1.4670  1.0300
  639SOL    HW2 1917   1.191   2.143   1.781 -1.9407  0.5607 -2.3811
  640SOL     OW 1918   0.185   1.154   1.593 -0.0884 -0.1446 -0.6862
  640SOL    HW1 1919   0.186   1.197   1.689 -0.7691 -0.9351  1.3852
  640SOL    HW2 1920   0.264   1.093   1.564  2.3002 -0.3536 -0.1563
  641SOL     OW 1921   2.051   0.165   1.545 -0.1130  0.4140 -0.0521
  641SOL    HW1 1922   2.027   0.183   1.644 -1.2340 -2.0000 -2.5026
  641SOL    HW2 1923   2.145   0.121   1.530 -0.0633 -1.7102 -2.2136
  642SOL     OW 1924   2.002   0.028   0.318  0.1814  0.7441  0.0540
  642SOL    HW1 1925   2.107   0.044   0.323 -0.2903  1.6931 -0.5112
  642SOL    HW2 1926   1.954   0.013   0.409 -0.2254  2.4794 -0.6532
  643SOL     OW 1927   2.953   1.855   2.056  0.0433  0.0453  0.2244
  643SOL    HW1 1928   2.883   1.788   2.017  1.0475  0.8654 -1.7371
  643SOL    HW2 1929   2.947   1.946   2.012 -1.1906 -0.2715  2.0278
  644SOL     OW 1930   2.225   2.354   1.186  0.2023 -0.3614  0.2446
  644SOL    HW1 1931   2.312   2.313   1.139  0.8007 -0.0865 -1.1466
  644SOL    HW2 1932   2.209   2.312   1.282  2.2242  2.2822 -0.1822
  645SOL     OW 1933   0.609   0.798   1.286  0.0177 -0.3162  0.0218
  645SOL    HW1 1934   0.513   0.798   1.256  0.5805  1.7203 -1.8320
  645SOL    HW2 1935   0.666   0.844   1.211  0.9708 -0.3273 -1.6829
  646SOL     OW 1936   1.434   1.857   2.054  0.0846  0.4084 -0.1469
  646SOL    HW1 1937   1.470   1.935   1.999  0.5092 -0.7738 -1.8937
  646SOL    HW2 1938   1.437   1.873   2.156  0.2244  1.9349  0.8448
  647SOL     OW 1939   0.790   1.085   0.698  0.2994 -0.2126  0.2314
  647SOL    HW1 1940   0.848   1.104   0.786  2.4520  0.4894  2.4970
  647SOL    HW2 1941   0.722   1.002   0.713 -2.9105  0.2977 -0.9079
  648SOL     OW 1942   0.078   0.235   0.225 -0.3903 -0.0263 -0.5273
  648SOL    HW1 1943   0.136   0.184   0.149  2.2712 -2.6989 -0.4888
  648SOL    HW2 1944   0.086   0.340   0.215 -1.8785 -0.9864 -0.1263
  649SOL     OW 1945   3.039   0.229   0.860  0.2479 -0.1653  0.6603
  649SOL    HW1 1946   3.120   0.165   0.867  0.5555  0.1410  0.7523
  649SOL    HW2 1947   3.063   0.324   0.882 -2.9808  0.9395  0.0668
  650SOL     OW 1948   2.792   0.731   1.484 -0.2119 -0.3857 -0.3071
  650SOL    HW1 1949   2.694   0.701   1.491  1.4201 -2.2113 -1.1776
  650SOL    HW2 1950   2.802   0.816   1.426  0.3432 -1.3358 -0.9036
  651SOL     OW 1951   0.912   1.519   1.589  0.0450  0.3140  0.2918
  651SOL    HW1 1952   0.955   1.594   1.654 -1.6326  0.5410  2.3947
  651SOL    HW2 1953   0.940   1.527   1.491  1.4824 -0.0652 -1.5152
  652SOL     OW 1954   2.320   2.427   2.492 -0.7816 -0.0057  0.1315
  652SOL    HW1 1955   2.224   2.396   2.521  2.0258 -1.9504  1.0976
  652SOL    HW2 1956   2.317   2.500   2.420 -1.3853 -1.2728  0.7027
  653SOL     OW 1957   2.717   1.233   0.217  0.0503  0.0914 -0.7269
  653SOL    HW1 1958   2.702   1.273   0.310 -0.4581 -0.0907  0.4304
  653SOL    HW2 1959   2.769   1.143   0.221 -0.5115 -2.3499 -2.0161
  654SOL     OW 1960   1.241   2.254   1.255 -0.1041  0.2415  0.1027
  654SOL    HW1 1961   1.267   2.198   1.340 -1.8987  0.1280 -1.1656
  654SOL    HW2 1962   1.291   2.215   1.171 -1.5928 -0.9350  0.1763
  655SOL     OW 1963   0.172   0.964   1.975 -0.2642 -0.0913  0.4310
  655SOL    HW1 1964   0.195   0.907   1.891 -1.8825  0.9195 -0.2505
  655SOL    HW2 1965   0.178   1.064   1.949 -2.3810 -0.0988 -2.1492
  656SOL     OW 1966   2.568   2.421   2.649 -0.1816 -0.0647  0.6154
  656SOL    HW1 1967   2.657   2.419   2.592 -1.7371  1.3726  1.0068
  656SOL    HW2 1968   2.491   2.428   2.584  1.4866 -0.5319 -0.8726
  657SOL     OW 1969   3.001   1.015   1.890 -0.0983  0.0066  0.0436
  657SOL    HW1 1970   2.981   1.117   1.911 -0.0705 -0.7673 -0.1258
  657SOL    HW2 1971   3.096   0.985   1.920  1.6746 -3.6913 -0.8091
  658SOL     OW 1972   1.634   0.186   2.368 -0.1786  0.3578  0.9437
  658SOL    HW1 1973   1.684   0.136   2.447 -0.4494 -1.9285 -2.0027
  658SOL    HW2 1974   1.682   0.173   2.273  1.3424  2.2082  0.0253
  659SOL     OW 1975   1.388   0.625   2.834  0.7512 -0.0342 -0.1150
  659SOL    HW1 1976   1.437   0.699   2.888 -1.3234 -2.0882 -1.1911
  659SOL    HW2 1977   1.287   0.617   2.864  0.7960 -0.9163  3.3784
  660SOL     OW 1978   1.418   0.352   1.391 -0.1226 -0.0704  0.2289
  660SOL    HW1 1979   1.422   0.396   1.482 -1.9992  3.5673 -0.6734
  660SOL    HW2 1980   1.467   0.261   1.384 -2.9133  1.1597  1.7378
  661SOL     OW 1981   2.448   1.179   0.669  0.8568  0.3364  0.3417
  661SOL    HW1 1982   2.442   1.167   0.568  0.6471 -1.1834 -1.9450
  661SOL    HW2 1983   2.400   1.268   0.700 -0.4062 -0.3645 -1.9257
  662SOL     OW 1984   1.413   0.395   1.741  0.1094  0.5102  0.0183
  662SOL    HW1 1985   1.342   0.319   1.735  0.3164  1.2656  0.4164
  662SOL    HW2 1986   1.381   0.477   1.796  0.2750 -1.4628  0.9320
  663SOL     OW 1987   0.777   1.548   2.220  0.0560 -0.3236  0.7210
  663SOL    HW1 1988   0.703   1.617   2.245 -3.0554  1.8922 -2.9862
  663SOL    HW2 1989   0.765   1.496   2.125 -1.0084  3.5549 -2.5440
  664SOL     OW 1990   1.602   2.068   1.430  0.4256  0.6725  0.4830
  664SOL    HW1 1991   1.547   2.014   1.506 -1.6555  0.2197  0.2691
  664SOL    HW2 1992   1.700   2.036   1.424  0.4546  0.5449  0.8561
  665SOL     OW 1993   2.254   0.685   1.938  0.3324 -0.5854  0.3969
  665SOL    HW1 1994   2.159   0.639   1.928 -1.1195  2.1022  0.3006
  665SOL    HW2 1995   2.294   0.684   2.034  0.1183 -0.4165 -2.5488
  666SOL     OW 1996   0.441   2.295   0.352 -0.3193  0.0185  0.4939
  666SOL    HW1 1997   0.509   2.328   0.426 -0.6925  1.5204  0.4478
  666SOL    HW2 1998   0.349   2.269   0.388  1.2768  1.7636 -1.2938
  667SOL     OW 1999   2.047   0.198   1.203 -0.2574  0.2180 -0.1676
  667SOL    HW1 2000   2.030   0.292   1.158 -1.2919 -0.8329 -1.3547
  667SOL    HW2 2001   1.976   0.162   1.272 -1.0264 -1.2597 -2.6630
  668SOL     OW 2002   2.062   0.473   1.128  0.3588 -0.1066  0.1585
  668SOL    HW1 2003   2.124   0.510   1.059 -1.7234 -1.2979  2.7477
  668SOL    HW2 2004   2.100   0.475   1.224  0.9194 -3.2303  0.7933
  669SOL     OW 2005   0.004   2.141   1.052  0.4643  0.3169 -0.3231
  669SOL    HW1 2006  -0.061   2.180   0.977 -2.1780  2.5514 -0.6643
  669SOL    HW2 2007   0.016   2.202   1.134 -0.9304  1.9585  2.8884
  670SOL     OW 2008   2.860   2.352   1.991 -0.1583 -0.1217 -0.4180
  670SOL    HW1 2009   2.778   2.312   2.037 -0.9009 -0.9400  3.0642
  670SOL    HW2 2010   2.850   2.456   1.968 -1.6453  0.8100  0.9723
  671SOL     OW 2011   1.716   1.728   1.490  0.4970 -0.9433 -0.1514
  671SOL    HW1 2012   1.739   1.701   1.390  0.8336 -0.4473 -2.1882
  671SOL    HW2 2013   1.612   1.742   1.508  0.8700 -1.6982 -0.3073
  672SOL     OW 2014   0.414   0.629   2.393  0.0416 -0.0756  0.0100
  672SOL    HW1 2015   0.451   0.677   2.311  0.1175 -0.7103  1.3260
  672SOL    HW2 2016   0.324   0.674   2.427 -1.4832 -0.5093 -0.0403
  673SOL     OW 2017   0.119   1.202   1.141  0.4608 -0.5211  0.4330
  673SOL    HW1 2018   0.119   1.268   1.223 -0.2289  2.6550  0.3401
  673SOL    HW2 2019   0.211   1.166   1.116 -1.4250 -1.1016 -0.8891
  674SOL     OW 2020   1.697   2.933   0.242 -0.3902 -0.1230  0.0883
  674SOL    HW1 2021   1.722   3.025   0.205 -0.0440 -3.6751 -2.7727
  674SOL    HW2 2022   1.750   2.857   0.197 -1.4596 -0.0918 -2.1743
  675SOL     OW 2023   1.731   0.807   2.328 -0.2352  0.0296  0.3433
  675SOL    HW1 2024   1.827   0.793   2.286  0.5794 -0.3304 -4.1723
  675SOL    HW2 2025   1.670   0.729   2.295  2.1968 -0.7007  2.0274
  676SOL     OW 2026   2.522   1.480   1.953 -0.2348  0.0950  0.1453
  676SOL    HW1 2027   2.501   1.476   1.853 -2.3484  0.0760  0.5677
  676SOL    HW2 2028   2.556   1.390   2.000  0.3151 -2.7855  1.8885
  677SOL     OW 2029   1.839   0.658   0.911  0.4023 -0.0717 -0.1223
  677SOL    HW1 2030   1.748   0.647   0.957  0.8721  0.5066 -1.2825
  677SOL    HW2 2031   1.899   0.579   0.916 -0.3407 -0.1544 -0.3163
  678SOL     OW 2032   0.035   0.750   1.664 -0.0369  0.3553  0.0939
  678SOL    HW1 2033   0.131   0.775   1.685 -0.4258  1.8248  0.5071
  678SOL    HW2 2034  -0.024   0.737   1.750  1.2507 -1.6515  1.4143
  679SOL     OW 2035   2.546   1.194   1.103  0.6376 -0.2787 -0.4722
  679SOL    HW1 2036   2.445   1.229   1.116 -1.7638  1.0021  0.7554
  679SOL    HW2 2037   2.565   1.089   1.100  2.5927  0.8798  1.7443
  680SOL     OW 2038   2.843   0.570   1.701 -0.2067  0.5649 -0.4075
  680SOL    HW1 2039   2.819   0.647   1.636  2.0698 -1.0083  0.0685
  680SOL    HW2 2040   2.871   0.616   1.791  0.7597  0.2828  1.0342
  681SOL     OW 2041   3.004   0.144   1.636  0.3160  0.8841  0.1666
  681SOL    HW1 2042   3.067   0.122   1.553 -3.6591 -1.5335 -0.1664
  681SOL    HW2 2043   2.964   0.232   1.621  1.8579 -4.2587  1.8474
  682SOL     OW 2044   0.814   3.095   1.306  0.4839  0.3248 -0.1079
  682SOL    HW1 2045   0.737   3.030   1.344  2.6328 -0.5842 -1.8072
  682SOL    HW2 2046   0.813   3.090   1.202 -2.0697  0.4669  2.2120
  683SOL     OW 2047   1.359   0.236   2.181  0.1860  0.2010  0.6148
  683SOL    HW1 2048   1.373   0.285   2.273 -0.6657  0.0262 -0.6342
  683SOL    HW2 2049   1.445   0.222   2.119 -0.5867  1.1449  2.8854
  684SOL     OW 2050   1.479   2.122   0.467 -0.3706  0.0762  0.4074
  684SOL    HW1 2051   1.529   2.046   0.514 -2.2456  0.5087 -0.0671
  684SOL    HW2 2052   1.380   2.096   0.450 -0.1699 -0.8603 -0.2283
  685SOL     OW 2053   2.143   2.044   1.947 -0.8730  0.1143  0.3677
  685SOL    HW1 2054   2.210   2.041   1.860  1.2382 -0.4035 -1.2955
  685SOL    HW2 2055   2.184   2.004   2.031 -0.3825 -2.7269 -0.4796
  686SOL     OW 2056   1.540   1.806   2.714 -0.0034  0.2179 -0.3633
  686SOL    HW1 2057   1.570   1.780   2.812  0.8443  0.3366 -1.3338
  686SOL    HW2 2058   1.535   1.727   2.647  0.1602 -0.1082  0.1450
  687SOL     OW 2059   1.297   2.479   1.984 -0.0131 -0.0430  0.0400
  687SOL    HW1 2060   1.294   2.377   2.001 -0.1599  0.7775  2.0167
  687SOL    HW2 2061   1.343   2.529   2.059 -2.5572  1.7630 -5.0484
  688SOL     OW 2062   2.072   1.493   1.786  0.3557 -0.3631  0.0059
  688SOL    HW1 2063   2.138   1.569   1.812  0.9125  1.7366 -1.5199
  688SOL    HW2 2064   2.086   1.467   1.690  2.3819  0.9918  1.4332
  689SOL     OW 2065   2.386   1.085   2.742  0.4779 -0.1881 -0.6460
  689SOL    HW1 2066   2.300   1.021   2.732 -1.7028  0.6106 -2.1862
  689SOL    HW2 2067   2.455   1.055   2.815  1.1157  0.4629 -1.1666
  690SOL     OW 2068   2.221   2.808   0.056 -0.0140  0.5251 -0.8119
  690SOL    HW1 2069   2.165   2.746  -0.007 -0.5297  0.1917  0.4759
  690SOL    HW2 2070   2.174   2.812   0.145  0.1635 -2.7832 -0.0272
  691SOL     OW 2071   2.614   0.466   2.215 -0.1326 -0.2386  0.5191
  691SOL    HW1 2072   2.659   0.371   2.185 -0.0432  2.4935 -0.4114
  691SOL    HW2 2073   2.622   0.538   2.136  1.9665  0.9660 -1.2153
  692SOL     OW 2074   2.724   1.234   0.749 -0.0802 -0.5581  0.4638
  692SOL    HW1 2075   2.622   1.238   0.716  0.0206 -1.7581 -1.1748
  692SOL    HW2 2076   2.745   1.306   0.821 -0.7368  2.9400 -3.1172
  693SOL     OW 2077   2.875   2.940   0.619 -0.0677  0.0573  0.0948
  693SOL    HW1 2078   2.891   3.021   0.686  0.3196  2.5111 -1.1615
  693SOL    HW2 2079   2.829   2.986   0.537 -0.6173  0.7577  1.3446
  694SOL     OW 2080   2.363   2.159   0.081  0.1833  0.2946  0.0353
  694SOL    HW1 2081   2.357   2.246   0.140 -1.4098  0.5411 -0.7439
  694SOL    HW2 2082   2.269   2.111   0.068 -0.8862  1.6419 -1.1147
  695SOL     OW 2083   0.591   3.000   1.422 -0.1756  0.1360 -0.3892
  695SOL    HW1 2084   0.526   2.948   1.359  0.5224 -0.2434  1.7804
  695SOL    HW2 2085   0.536   3.041   1.505  1.2699 -0.4112  0.8762
  696SOL     OW 2086   2.772   1.960   0.709 -0.5090 -0.3908  0.3001
  696SOL    HW1 2087   2.840   1.887   0.739 -1.1957  0.3757  1.1902
  696SOL    HW2 2088   2.793   1.994   0.613  0.6204 -0.3202  0.0449
  697SOL     OW 2089   1.597   2.027   1.833 -0.0523  0.2698 -0.3171
  697SOL    HW1 2090   1.695   1.995   1.851  0.5384 -0.6554 -0.9493
  697SOL    HW2 2091   1.598   2.118   1.797 -1.7929 -1.1943 -0.5483
  698SOL     OW 2092   2.941   0.425   2.777  0.1051  0.4762  0.4833
  698SOL    HW1 2093   2.951   0.390   2.674 -0.5392 -4.4241 -2.7119
  698SOL    HW2 2094   2.990   0.366   2.850 -2.7547 -1.1480  2.9502
  699SOL     OW 2095   1.559   0.075   2.917  0.2884  0.0775  0.4618
  699SOL    HW1 2096   1.546  -0.005   2.851 -0.2177  0.2688 -1.2733
  699SOL    HW2 2097   1.621   0.149   2.871 -0.8893 -1.3090 -0.2769
  700SOL     OW 2098   0.958   2.329   1.342  0.2000 -0.3337 -0.3540
  700SOL    HW1 2099   1.035   2.267   1.321 -0.4904 -0.5848  0.7986
  700SOL    HW2 2100   0.879   2.318   1.273 -0.8730  0.3479  0.3084
  701SOL     OW 2101   1.893   2.912   3.056  0.5807 -0.4534  0.4880
  701SOL    HW1 2102   1.866   2.856   3.139 -1.6584  0.0786  0.6989
  701SOL    HW2 2103   1.960   2.984   3.084 -1.4747  0.8320 -0.7761
  702SOL     OW 2104   2.071   1.335   1.994 -0.1232 -0.0481 -0.0726
  702SOL    HW1 2105   2.156   1.279   1.964  2.3031 -0.3956  0.0222
  702SOL    HW2 2106   2.047   1.412   1.925 -1.4777 -1.0552  1.3318
  703SOL     OW 2107   1.938   0.891   1.450 -0.3509 -0.6142 -0.6179
  703SOL    HW1 2108   1.918   0.811   1.515 -1.8561  1.0951  1.3082
  703SOL    HW2 2109   2.005   0.962   1.488  1.7380 -0.2904  1.0691
  704SOL     OW 2110   0.315   2.049   1.732 -0.2942  0.5054 -0.7021
  704SOL    HW1 2111   0.355   1.973   1.795  1.2043 -3.2213 -0.1881
  704SOL    HW2 2112   0.374   2.130   1.713 -1.3639  0.9472 -1.3772
  705SOL     OW 2113   2.528   1.510   0.942  0.0828 -0.1754  0.9620
  705SOL    HW1 2114   2.469   1.473   0.867  0.6591  0.9261  0.0506
  705SOL    HW2 2115   2.623   1.465   0.945  0.6538  0.4700 -1.4160
  706SOL     OW 2116   0.644   1.628   1.864 -0.0810 -0.4661 -0.6731
  706SOL    HW1 2117   0.677   1.534   1.896  0.1031  0.6033  1.1476
  706SOL    HW2 2118   0.706   1.706   1.901 -0.5481 -0.9872 -0.7517
  707SOL     OW 2119   2.265   1.206   1.865 -0.0902 -0.1355  0.2998
  707SOL    HW1 2120   2.367   1.215   1.896  0.5206  0.5004  2.2126
  707SOL    HW2 2121   2.238   1.108   1.860 -1.0640  1.4219  0.0892
  708SOL     OW 2122   3.087   0.496   3.080  0.5376 -0.1137 -0.0845
  708SOL    HW1 2123   3.083   0.555   2.995 -2.9244  1.1811  1.6067
  708SOL    HW2 2124   3.136   0.408   3.067 -3.8425  1.0551 -0.3643
  709SOL     OW 2125   1.840   1.850   0.235 -0.5975 -0.5136  0.4735
  709SOL    HW1 2126   1.865   1.947   0.266  1.9824  1.9313 -0.0331
  709SOL    HW2 2127   1.824   1.840   0.132  1.3355 -0.1787 -0.3669
  710SOL     OW 2128   1.740   1.648   2.433  0.7325  0.0581  0.3080
  710SOL    HW1 2129   1.787   1.648   2.342  1.2385  1.5450 -2.0797
  710SOL    HW2 2130   1.742   1.559   2.482 -1.0349 -0.1175 -0.1645
  711SOL     OW 2131   2.620   2.961   1.036 -0.0436  0.7086 -0.5692
  711SOL    HW1 2132   2.594   3.054   0.994  1.3284  0.8838  1.8526
  711SOL    HW2 2133   2.722   2.940   1.029 -1.7706 -1.6065 -1.8125
  712SOL     OW 2134   1.388   2.209   1.979 -0.2152  0.2489  0.3333
  712SOL    HW1 2135   1.487   2.195   1.999 -0.3602 -2.1773  2.4886
  712SOL    HW2 2136   1.364   2.174   1.885 -0.1029 -1.4174 -0.6183
  713SOL     OW 2137   2.889   1.481   2.538  0.4436 -0.2245 -0.0502
  713SOL    HW1 2138   2.851   1.404   2.484  0.5946  0.6164  0.3609
  713SOL    HW2 2139   2.857   1.491   2.634  0.7318  2.2898 -0.3674
  714SOL     OW 2140   2.719   0.516   2.451  0.0891 -0.3786 -0.0426
  714SOL    HW1 2141   2.657   0.486   2.527 -2.2161  0.9264 -0.9665
  714SOL    HW2 2142   2.678   0.502   2.357  1.8767 -1.4456 -0.6183
  715SOL     OW 2143   1.577   2.023   1.114 -0.2458 -0.2068 -0.4965
  715SOL    HW1 2144   1.505   2.076   1.058  2.2031  0.8722 -1.0148
  715SOL    HW2 2145   1.592   2.071   1.202  0.2333  1.2077  0.4727
  716SOL     OW 2146   1.174   0.169   1.473  0.4250 -0.2283 -0.2567
  716SOL    HW1 2147   1.077   0.186   1.472  3.4368  2.7532  1.0613
  716SOL    HW2 2148   1.229   0.243   1.429 -0.3529 -0.4475 -1.1465
  717SOL     OW 2149   1.166   0.508   1.561  0.0229 -0.7240  0.4238
  717SOL    HW1 2150   1.210   0.596   1.591 -1.5997  0.4563 -0.3487
  717SOL    HW2 2151   1.164   0.494   1.455 -1.2106  3.8815 -2.0204
  718SOL     OW 2152   0.686   0.924   1.004  0.2257  1.1592 -0.2257
  718SOL    HW1 2153   0.651   0.916   0.909 -0.4982  1.7248 -0.3678
  718SOL    HW2 2154   0.691   1.025   1.025  0.3212 -0.8062  0.3066
  719SOL     OW 2155   0.604   1.783   2.282  0.3297 -0.0471 -0.1706
  719SOL    HW1 2156   0.679   1.816   2.347 -0.7704  0.3887  0.6875
  719SOL    HW2 2157   0.513   1.756   2.327  3.8412  2.7135  0.9132
  720SOL     OW 2158   2.190   1.161   0.326  0.2563  0.1995 -0.3392
  720SOL    HW1 2159   2.234   1.087   0.276 -0.8371  0.7751 -0.4998
  720SOL    HW2 2160   2.164   1.131   0.418  0.1178  0.0993  0.1026
  721SOL     OW 2161   2.268   3.011   2.118 -0.2998 -0.0117  0.2435
  721SOL    HW1 2162   2.265   3.089   2.048  0.3809 -0.1748 -1.8314
  721SOL    HW2 2163   2.202   3.018   2.199  4.1001  0.5807  1.6492
  722SOL     OW 2164   2.365   1.582   0.510  0.3229 -0.7037 -0.1720
  722SOL    HW1 2165   2.423   1.619   0.433  0.0664  1.1543 -0.3361
  722SOL    HW2 2166   2.275   1.628   0.507  2.7035  0.4706 -1.1750
  723SOL     OW 2167   2.555   2.731   1.935 -0.6067 -0.3858  0.8349
  723SOL    HW1 2168   2.586   2.788   2.019 -1.5941  0.8425  1.2338
  723SOL    HW2 2169   2.453   2.721   1.933 -0.0244 -0.6752 -2.5968
  724SOL     OW 2170   0.513   2.489   2.414 -0.2485  0.6201 -0.0800
  724SOL    HW1 2171   0.427   2.474   2.474  1.2930 -1.4828  3.5080
  724SOL    HW2 2172   0.592   2.526   2.473  2.1679 -1.7816  1.1104
  725SOL     OW 2173   2.468   2.834   1.521 -0.0550  0.1883 -0.3018
  725SOL    HW1 2174   2.474   2.875   1.426  0.2150  2.3319  2.9538
  725SOL    HW2 2175   2.504   2.741   1.533 -0.7254  0.6345  0.0739
  726SOL     OW 2176   2.514   2.307   0.715  0.0189 -1.0214 -0.2660
  726SOL    HW1 2177   2.466   2.402   0.705 -0.6154  1.1700  0.4548
  726SOL    HW2 2178   2.481   2.241   0.649 -0.3198  3.5658  1.6387
  727SOL     OW 2179   0.141   3.102   0.050  0.6435 -0.1435 -0.1250
  727SOL    HW1 2180   0.206   3.024   0.063  0.0577  0.7581 -1.3581
  727SOL    HW2 2181   0.049   3.085   0.004 -1.5303 -0.0273 -2.0000
  728SOL     OW 2182   2.904   0.653   0.961 -0.1454  0.2969  0.2447
  728SOL    HW1 2183   2.816   0.671   0.903  1.8239  2.2010  0.6939
  728SOL    HW2 2184   2.879   0.637   1.063  1.3039 -0.2051  1.0630
  729SOL     OW 2185   3.052   2.504   0.780  0.1450 -1.0510  0.0706
  729SOL    HW1 2186   3.035   2.412   0.819 -1.5257  5.2736  1.5163
  729SOL    HW2 2187   3.143   2.507   0.731  0.4846  0.7930 -1.3951
  730SOL     OW 2188   2.630   0.729   0.859 -0.2791  0.0274 -0.5226
  730SOL    HW1 2189   2.595   0.823   0.848 -1.3824  0.3737  0.1400
  730SOL    HW2 2190   2.688   0.701   0.773  0.8584 -3.2163 -2.0514
  731SOL     OW 2191   0.091   2.074   2.510  0.6060 -0.5112  0.0246
  731SOL    HW1 2192   0.084   2.115   2.605  1.5403  0.2914 -1.8437
  731SOL    HW2 2193   0.014   2.109   2.455  2.3534 -1.3564 -2.0506
  732SOL     OW 2194   1.183   2.829   1.944 -0.4508 -0.6033  0.2190
  732SOL    HW1 2195   1.212   2.782   2.035 -0.8801  0.8812 -0.7766
  732SOL    HW2 2196   1.166   2.762   1.866  0.8461  1.1772  0.6249
  733SOL     OW 2197   3.042   0.588   2.217  0.0652 -0.2017  0.3265
  733SOL    HW1 2198   3.138   0.611   2.173  2.1223 -0.8504 -0.5035
  733SOL    HW2 2199   2.979   0.538   2.153 -0.6213  3.5513  1.6827
  734SOL     OW 2200   1.430   0.385   2.698 -0.3880 -0.0661  0.4593
  734SOL    HW1 2201   1.416   0.485   2.723  1.4881  0.0476  1.0042
  734SOL    HW2 2202   1.351   0.323   2.730 -0.8617 -0.5420  1.2225
  735SOL     OW 2203   2.889   2.667   2.276  0.0227 -0.3479 -0.0856
  735SOL    HW1 2204   2.859   2.622   2.186  2.7279  1.5523 -0.4087
  735SOL    HW2 2205   2.991   2.698   2.271  2.1207 -0.9669  0.8414
  736SOL     OW 2206   0.815   0.308   2.582 -0.6470  0.0761  0.6760
  736SOL    HW1 2207   0.729   0.361   2.571  0.4623  0.1181 -2.0734
  736SOL    HW2 2208   0.843   0.259   2.501 -2.2614 -2.5107  5.4461
  737SOL     OW 2209   2.667   0.481   2.845  0.7472  0.6492  0.4658
  737SOL    HW1 2210   2.665   0.451   2.944  1.5572  0.5868  1.3966
  737SOL    HW2 2211   2.766   0.474   2.810  1.2980 -2.2431  0.6940
  738SOL     OW 2212   1.639   1.264   2.893  0.1196  0.0943 -0.0469
  738SOL    HW1 2213   1.738   1.245   2.894 -2.0428  0.5411  0.2444
  738SOL    HW2 2214   1.587   1.177   2.869  1.4088  0.4976  0.7933
  739SOL     OW 2215   1.741   0.656   0.663  0.4241 -0.7261 -0.4138
  739SOL    HW1 2216   1.790   0.673   0.754  0.2258  0.2585  0.8993
  739SOL    HW2 2217   1.766   0.560   0.619 -0.2723 -0.7294 -0.2400
  740SOL     OW 2218   1.988   1.902   2.302 -0.1930 -0.1674 -0.8043
  740SOL    HW1 2219   2.016   1.833   2.375  0.3305  3.2441 -1.8605
  740SOL    HW2 2220   1.899   1.891   2.251 -2.2762  1.7654 -0.9555
  741SOL     OW 2221   2.557   0.056   2.540  0.0892 -0.6944  0.6477
  741SOL    HW1 2222   2.651   0.056   2.582  0.2385 -0.9330  1.7758
  741SOL    HW2 2223   2.552   0.071   2.435  2.7474  2.8792  1.5615
  742SOL     OW 2224   2.216   1.418   0.199  0.1909  0.6154  0.3175
  742SOL    HW1 2225   2.167   1.491   0.253 -1.5643  1.4929  1.1529
  742SOL    HW2 2226   2.202   1.325   0.247 -1.2105 -2.0775  3.4291
  743SOL     OW 2227   1.837   0.677   2.641  0.2170  0.2903  0.0611
  743SOL    HW1 2228   1.815   0.635   2.548 -0.3690 -1.8310 -2.7119
  743SOL    HW2 2229   1.780   0.754   2.676  2.4804 -1.5974 -0.6767
  744SOL     OW 2230   2.621   2.119   0.169  0.0881  0.0912 -0.6173
  744SOL    HW1 2231   2.523   2.113   0.127  0.3256 -1.9008  1.8282
  744SOL    HW2 2232   2.641   2.080   0.261 -2.4512  4.1269  3.5134
  745SOL     OW 2233   2.145   2.628   2.284  0.2423 -0.4856  0.9122
  745SOL    HW1 2234   2.041   2.633   2.289 -0.0447 -0.9904 -1.6250
  745SOL    HW2 2235   2.202   2.686   2.350  1.1420  3.0883 -1.4139
  746SOL     OW 2236   3.070   2.617   1.749  0.4671  0.0453 -0.1841
  746SOL    HW1 2237   3.148   2.605   1.685  1.2187  0.1978  1.2169
  746SOL    HW2 2238   3.057   2.706   1.799  1.9959 -0.5806  0.4447
  747SOL     OW 2239   0.048   1.752   1.693  0.5127  0.4100 -0.6385
  747SOL    HW1 2240  -0.028   1.694   1.657 -0.9216  0.5111  0.1298
  747SOL    HW2 2241   0.121   1.769   1.626 -4.4590 -1.1482  0.1132
  748SOL     OW 2242   1.828   2.728   2.860  0.1423  0.1349 -0.8539
  748SOL    HW1 2243   1.863   2.817   2.912  3.1451  0.3686  0.5842
  748SOL    HW2 2244   1.729   2.750   2.827 -1.2871 -0.8611  0.5199
  749SOL     OW 2245   1.340   3.038   0.927 -0.2507  0.6320  0.9289
  749SOL    HW1 2246   1.247   2.997   0.918 -3.8558 -0.1976  1.4046
  749SOL    HW2 2247   1.388   3.036   0.834 -1.5082  2.0235  2.9037
  750SOL     OW 2248   2.273   0.178   1.891  0.0934 -0.0421  0.7416
  750SOL    HW1 2249   2.290   0.242   1.809  0.8292 -0.5124  0.0578
  750SOL    HW2 2250   2.293   0.224   1.985  1.5560 -0.2609 -1.1273
  751SOL     OW 2251   0.874   2.137   2.807  0.0273  0.6780 -0.2108
  751SOL    HW1 2252   0.941   2.161   2.881  0.5019  1.9876 -0.1141
  751SOL    HW2 2253   0.777   2.116   2.841  0.9907  0.8371  1.0467
  752SOL     OW 2254   1.322   0.860   1.299  0.4438 -0.1984  0.9000
  752SOL    HW1 2255   1.395   0.934   1.314 -2.8271  2.3111  0.0200
  752SOL    HW2 2256   1.355   0.764   1.327 -2.0152  1.2286 -0.0757
  753SOL     OW 2257   0.924   2.606   1.650  0.4369 -0.1520 -0.0181
  753SOL    HW1 2258   1.023   2.620   1.654 -1.8549  0.8671  0.7559
  753SOL    HW2 2259   0.871   2.691   1.627 -1.8203 -0.0269 -1.3473
  754SOL     OW 2260   1.100   1.235   2.992 -0.4607 -0.2275 -0.2404
  754SOL    HW1 2261   1.182   1.191   2.943  2.7724 -0.9613 -0.3323
  754SOL    HW2 2262   1.112   1.331   3.030  1.2981  0.7384 -1.9049
  755SOL     OW 2263   2.006   0.461   2.233  0.0475 -0.1551  0.0890
  755SOL    HW1 2264   2.072   0.379   2.238 -0.8007 -1.0288  0.0359
  755SOL    HW2 2265   1.926   0.451   2.300  0.8915 -1.9413  3.6989
  756SOL     OW 2266   2.558   1.039   2.966 -0.3341  0.9616 -0.2680
  756SOL    HW1 2267   2.653   1.029   3.013 -0.6590 -2.0379  1.7546
  756SOL    HW2 2268   2.501   0.964   3.004  2.0808  2.4211  0.8478
  757SOL     OW 2269   0.046   0.534   1.908 -0.5515  0.0008 -0.6114
  757SOL    HW1 2270   0.082   0.503   1.819  2.8221  0.3405 -1.6338
  757SOL    HW2 2271   0.022   0.462   1.981 -0.9767 -2.1805 -1.0301
  758SOL     OW 2272   2.327   0.092   1.494  0.8991 -0.2998 -0.3132
  758SOL    HW1 2273   2.297  -0.008   1.514 -1.1728 -2.9266 -1.1012
  758SOL    HW2 2274   2.344   0.106   1.393 -0.4051 -1.1586 -2.9750
  759SOL     OW 2275   1.709   0.124   0.046  0.0306 -0.2893  0.5891
  759SOL    HW1 2276   1.648   0.082  -0.029  0.9188  2.6627 -2.4130
  759SOL    HW2 2277   1.807   0.096   0.042 -0.0320  0.5455 -0.4189
  760SOL     OW 2278   2.693   2.073   2.826  0.1296  0.3178 -0.1083
  760SOL    HW1 2279   2.724   2.007   2.897 -0.8731  0.2051 -0.6037
  760SOL    HW2 2280   2.641   2.154   2.869 -1.8608  0.4072  0.4332
  761SOL     OW 2281   1.893   1.727   1.705 -0.1736  0.7758  0.0600
  761SOL    HW1 2282   1.940   1.642   1.748  1.1645  3.3989  0.9440
  761SOL    HW2 2283   1.827   1.707   1.622 -1.1281  0.9864 -0.2201
  762SOL     OW 2284   0.509   2.352   0.960 -0.2653 -0.1066 -0.3093
  762SOL    HW1 2285   0.558   2.341   0.871 -2.8429  4.8142  1.9118
  762SOL    HW2 2286   0.561   2.404   1.034  0.0910 -1.4899  0.8006
  763SOL     OW 2287   2.105   1.570   2.971  0.3900 -0.3439 -0.2848
  763SOL    HW1 2288   2.188   1.505   2.976 -2.7423  0.2649  2.7434
  763SOL    HW2 2289   2.036   1.537   3.041  0.0020 -0.6708 -4.2190
  764SOL     OW 2290   0.667   0.624   0.822 -0.0375  0.1426 -0.1916
  764SOL    HW1 2291   0.578   0.570   0.796 -1.1109 -1.9322  1.5764
  764SOL    HW2 2292   0.744   0.570   0.871 -1.4711  1.0564  1.2124
  765SOL     OW 2293   0.705   0.229   0.750 -0.1617  0.6334 -0.2583
  765SOL    HW1 2294   0.771   0.267   0.683  1.1495 -0.4805 -2.5163
  765SOL    HW2 2295   0.712   0.276   0.838 -0.1920 -4.5162 -1.7497
  766SOL     OW 2296   2.846   2.119   0.017 -0.0975  0.4753  0.4563
  766SOL    HW1 2297   2.761   2.135   0.083 -0.2253 -2.1381  3.0855
  766SOL    HW2 2298   2.894   2.206  -0.012  1.7759 -0.5780 -0.4784
  767SOL     OW 2299   2.782   1.601   0.625  0.6279 -0.2274  0.6044
  767SOL    HW1 2300   2.709   1.642   0.687 -0.1693 -3.2066 -0.5741
  767SOL    HW2 2301   2.841   1.660   0.564  1.8294 -0.0165 -2.8586
  768SOL     OW 2302   1.030   0.056   0.271 -0.4992 -0.1484 -0.1122
  768SOL    HW1 2303   0.980   0.077   0.363 -1.2474  1.7233  1.2304
  768SOL    HW2 2304   1.127   0.027   0.272  0.0645  1.9501 -0.3839
  769SOL     OW 2305   1.049   1.937   2.262 -0.0937 -0.6374 -0.3664
  769SOL    HW1 2306   0.950   1.919   2.282 -1.9914 -0.4375  0.3232
  769SOL    HW2 2307   1.115   1.913   2.343  2.4302  1.6256 -0.4358
  770SOL     OW 2308   0.185   1.128   2.303  0.3921 -0.5532  0.4664
  770SOL    HW1 2309   0.188   1.138   2.403 -1.2312 -1.7455 -1.6688
  770SOL    HW2 2310   0.089   1.110   2.264  0.2817  0.8730 -1.9438
  771SOL     OW 2311   2.968   2.831   1.878  0.4403 -0.0656 -0.4126
  771SOL    HW1 2312   2.958   2.900   1.801 -0.4568  0.1796  2.8203
  771SOL    HW2 2313   2.957   2.876   1.971 -1.7963  1.1395 -1.0162
  772SOL     OW 2314   2.190   0.221   2.902 -0.1200  0.1932 -1.0340
  772SOL    HW1 2315   2.219   0.122   2.916  1.4220 -0.9357  0.4189
  772SOL    HW2 2316   2.180   0.278   2.985  1.0974  0.0444  1.2597
  773SOL     OW 2317   0.722   2.141   2.427  0.0951  0.0263 -0.0373
  773SOL    HW1 2318   0.680   2.191   2.347 -0.2472  0.5281 -1.6666
  773SOL    HW2 2319   0.693   2.175   2.523  1.7269  0.6529  3.4708
  774SOL     OW 2320   2.049  -0.000   2.624 -0.0811  0.0231  0.4780
  774SOL    HW1 2321   2.056   0.097   2.666  0.9525  0.2523  0.0099
  774SOL    HW2 2322   2.080  -0.075   2.681 -0.9949 -0.5787  1.9435
  775SOL     OW 2323   2.520   2.864   2.375 -0.3307 -0.5926  0.1085
  775SOL    HW1 2324   2.506   2.968   2.364  0.9619  2.0126 -0.3319
  775SOL    HW2 2325   2.590   2.834   2.447  2.8628  0.9824 -0.6828
  776SOL     OW 2326   3.100   1.263   0.195  0.1125  0.6754  0.1488
  776SOL    HW1 2327   3.064   1.192   0.131 -2.4988  1.8495  0.7696
  776SOL    HW2 2328   3.046   1.268   0.286 -3.6719  0.7595  1.2943
  777SOL     OW 2329   0.356   2.856   0.413 -0.2694  0.2382  0.3260
  777SOL    HW1 2330   0.272   2.905   0.433  1.5699 -1.1989 -1.8413
  777SOL    HW2 2331   0.434   2.921   0.395 -2.9021 -0.6472 -0.7492
  778SOL     OW 2332   1.348   1.944   0.182 -0.4802  0.1894 -0.0355
  778SOL    HW1 2333   1.272   1.978   0.247  0.7188  0.6613  1.4257
  778SOL    HW2 2334   1.401   2.020   0.139 -0.8237  3.7154 -0.6983
  779SOL     OW 2335   0.171   0.840   0.489  0.1454  0.3054  0.2973
  779SOL    HW1 2336   0.108   0.756   0.473  0.1642 -0.2347 -0.8914
  779SOL    HW2 2337   0.121   0.918   0.536  0.2081 -1.1955  0.4873
  780SOL     OW 2338   0.110   0.208   2.293  0.5305 -0.0300 -0.4652
  780SOL    HW1 2339   0.177   0.289   2.297  2.0836 -1.0252  1.7827
  780SOL    HW2 2340   0.151   0.128   2.236 -0.4943 -0.2795  0.1031
  781SOL     OW 2341   0.656   1.713   1.529  0.1683  0.4769  0.6949
  781SOL    HW1 2342   0.729   1.693   1.598  0.0969  2.5623  1.4300
  781SOL    HW2 2343   0.570   1.653   1.537 -2.2274  0.3915 -1.6294
  782SOL     OW 2344   2.586   0.096   0.896 -0.2509  0.3997 -0.6608
  782SOL    HW1 2345   2.525   0.116   0.809  2.6336  1.4295 -0.6120
  782SOL    HW2 2346   2.589   0.174   0.967  3.4529  2.0196  0.5736
  783SOL     OW 2347   2.860   0.756   2.561  0.1410  0.6130  0.5607
  783SOL    HW1 2348   2.786   0.768   2.637 -0.6664 -0.1182  2.1459
  783SOL    HW2 2349   2.850   0.667   2.508 -0.2879 -1.7545 -1.3551
  784SOL     OW 2350   1.468   2.196   0.087  0.2085 -0.4855  0.4045
  784SOL    HW1 2351   1.546   2.245   0.137  0.3028 -0.0341 -1.4215
  784SOL    HW2 2352   1.455   2.230  -0.006  0.1931 -4.3857  0.4350
  785SOL     OW 2353   2.133   0.330   0.070 -0.2094  0.6604  0.3124
  785SOL    HW1 2354   2.067   0.328   0.150  1.0161 -0.6054 -2.2957
  785SOL    HW2 2355   2.121   0.423   0.018  0.8259  1.5621 -0.3386
  786SOL     OW 2356   2.003   2.173   2.207 -0.2427  0.0767 -0.8023
  786SOL    HW1 2357   1.998   2.078   2.243 -0.2280 -3.7558 -0.7347
  786SOL    HW2 2358   2.060   2.171   2.124 -0.4852  0.3669 -0.1980
  787SOL     OW 2359   1.407   0.578   1.011  0.5840  0.9436 -0.3366
  787SOL    HW1 2360   1.321   0.624   1.034 -0.7016 -0.8058  0.0852
  787SOL    HW2 2361   1.412   0.549   0.911 -1.6901 -0.6034 -0.3920
  788SOL     OW 2362   1.262   0.404   0.051  0.0746  0.3123 -0.6479
  788SOL    HW1 2363   1.170   0.366   0.010  0.2345 -2.4957 -0.4599
  788SOL    HW2 2364   1.253   0.476   0.130  0.9925  3.5510 -0.0215
  789SOL     OW 2365   2.559   0.104   1.849 -0.3761  0.6242  0.1764
  789SOL    HW1 2366   2.463   0.129   1.862  0.8806 -0.0312 -0.7495
  789SOL    HW2 2367   2.564  -0.003   1.833 -2.3274 -3.1409 -1.1125
  790SOL     OW 2368   2.666   2.777   0.789 -0.4472 -0.0885  0.1480
  790SOL    HW1 2369   2.746   2.826   0.739 -0.5364 -0.7659  0.6160
  790SOL    HW2 2370   2.675   2.799   0.886 -0.1249 -1.5679 -0.7075
  791SOL     OW 2371   1.916   1.198   0.207 -0.4190  0.5320 -0.2853
  791SOL    HW1 2372   1.821   1.173   0.243  2.4393  1.2368  1.3128
  791SOL    HW2 2373   1.988   1.194   0.283 -1.6564 -1.1450  1.3779
  792SOL     OW 2374   0.436   1.991   2.162  0.1885  0.8964 -0.1697
  792SOL    HW1 2375   0.508   1.927   2.205 -0.3505  1.5686 -2.8107
  792SOL    HW2 2376   0.372   2.027   2.232  0.3295 -0.5663 -1.3943
  793SOL     OW 2377   2.094   1.571   2.150  0.8496 -0.0642  0.1678
  793SOL    HW1 2378   2.182   1.617   2.119  0.3638  1.7735 -0.8867
  793SOL    HW2 2379   2.071   1.487   2.085 -1.2853 -3.2929 -1.6989
  794SOL     OW 2380   0.460   1.341   2.411 -0.2584 -0.0217  0.5194
  794SOL    HW1 2381   0.444   1.293   2.319 -0.6730  1.6566  0.0756
  794SOL    HW2 2382   0.447   1.445   2.413  1.3143  0.0979  0.0434
  795SOL     OW 2383   2.453   2.283   1.799 -0.7602  0.2329 -0.8805
  795SOL    HW1 2384   2.398   2.322   1.877 -1.9398 -0.8073 -1.0814
  795SOL    HW2 2385   2.406   2.195   1.767  0.3173  0.2259 -1.1416
  796SOL     OW 2386   3.051   1.118   2.681  0.3099 -0.0764 -0.1219
  796SOL    HW1 2387   2.951   1.132   2.721  0.3107  1.2288  2.2516
  796SOL    HW2 2388   3.126   1.107   2.758  0.5372  0.7931  0.5412
  797SOL     OW 2389   0.786   0.613   1.398  0.6075 -0.3317 -0.3472
  797SOL    HW1 2390   0.857   0.668   1.454 -0.5223  1.5772 -1.3789
  797SOL    HW2 2391   0.710   0.676   1.362  0.8800 -0.9580  0.7654
  798SOL     OW 2392   1.343   0.314   1.120  0.4739  0.4235  0.3009
  798SOL    HW1 2393   1.370   0.302   1.224  0.4049 -0.2599 -0.5380
  798SOL    HW2 2394   1.368   0.408   1.084  0.2360  4.4343  0.0242
  799SOL     OW 2395   1.912   2.712   1.042  0.0883 -0.7367  0.0546
  799SOL    HW1 2396   1.897   2.693   1.145 -2.0673 -1.6047 -1.0157
  799SOL    HW2 2397   1.827   2.739   0.987 -2.1972  0.8105 -2.2201
  800SOL     OW 2398   2.950   0.739   1.891  0.0814  0.2793  0.3065
  800SOL    HW1 2399   2.976   0.838   1.895  0.0995  0.4030  0.0697
  800SOL    HW2 2400   3.006   0.673   1.942 -1.7157  1.8556  0.7928
  801SOL     OW 2401   1.940   2.245   0.098 -0.0048  0.4157  0.5388
  801SOL    HW1 2402   1.859   2.232   0.027 -2.1695 -0.6106  1.0333
  801SOL    HW2 2403   2.002   2.164   0.082 -1.7268 -0.2716 -1.6095
  802SOL     OW 2404   0.696   0.809   2.537  0.1511  0.0483 -0.0601
  802SOL    HW1 2405   0.772   0.799   2.463  2.5357 -0.2597  1.1369
  802SOL    HW2 2406   0.609   0.770   2.504  1.6291  2.2248  0.2457
  803SOL     OW 2407   0.970   0.031   0.825  0.0728 -0.2086 -0.8481
  803SOL    HW1 2408   1.029   0.114   0.851  1.0315  0.7614 -0.8661
  803SOL    HW2 2409   0.895   0.059   0.757 -1.7387  1.2402 -1.1718
  804SOL     OW 2410   0.317   0.041   2.157  0.3727  0.5283 -0.5907
  804SOL    HW1 2411   0.330   0.143   2.148  2.1523  0.4521  0.1466
  804SOL    HW2 2412   0.278  -0.006   2.073 -0.0037 -1.4588  0.7560
  805SOL     OW 2413   2.363   0.334   0.418  0.0255  0.0540  0.3689
  805SOL    HW1 2414   2.436   0.345   0.494  0.2718  0.5005 -0.3518
  805SOL    HW2 2415   2.400   0.321   0.320 -0.0392  1.5331  0.0697
  806SOL     OW 2416   0.635   2.463   1.794 -0.2328  0.7275 -0.0346
  806SOL    HW1 2417   0.629   2.562   1.822 -0.9128 -0.3824 -0.3550
  806SOL    HW2 2418   0.731   2.437   1.765  0.7754 -1.7261  1.5718
  807SOL     OW 2419   2.491   0.839   0.351 -0.3211 -0.5252 -0.1137
  807SOL    HW1 2420   2.576   0.867   0.403  0.9485  2.0713  0.2203
  807SOL    HW2 2421   2.454   0.911   0.289  0.1913 -0.8659  1.8476
  808SOL     OW 2422   0.615   2.059   2.895  0.6833 -0.1887 -0.7419
  808SOL    HW1 2423   0.579   2.122   2.969  0.4828 -2.3656 -1.2122
  808SOL    HW2 2424   0.650   1.968   2.936  3.8966  1.7182 -0.4765
  809SOL     OW 2425   2.650   1.958   1.878 -0.5031  0.1712 -0.1831
  809SOL    HW1 2426   2.721   2.028   1.865 -0.5219  0.5826  0.4012
  809SOL    HW2 2427   2.616   1.925   1.787  0.9573 -3.3570  1.7708
  810SOL     OW 2428   2.111   1.065   0.559  0.1701  0.0265  0.1843
  810SOL    HW1 2429   2.060   0.986   0.601 -1.6215  0.9830 -0.2516
  810SOL    HW2 2430   2.085   1.149   0.610  0.1375 -2.8192 -0.2210
  811SOL     OW 2431   1.328   2.508   1.209 -0.0491  0.1018  0.8036
  811SOL    HW1 2432   1.275   2.416   1.222 -0.0401  1.0424 -0.3078
  811SOL    HW2 2433   1.269   2.590   1.222  0.2306  0.9007  0.2124
  812SOL     OW 2434   1.414   0.744   1.934 -0.0566  0.0138 -0.4526
  812SOL    HW1 2435   1.444   0.844   1.960  1.1043  0.7330 -0.1813
  812SOL    HW2 2436   1.316   0.731   1.975 -2.0677 -0.9053 -1.1548
  813SOL     OW 2437   1.704   2.077   2.521 -0.2457 -0.0868  0.3041
  813SOL    HW1 2438   1.760   1.997   2.546 -2.7771 -0.9519 -0.0393
  813SOL    HW2 2439   1.639   2.054   2.446  0.2140  2.7392  1.6875
  814SOL     OW 2440   2.906   1.502   2.835 -0.2476 -0.6142  0.0991
  814SOL    HW1 2441   2.997   1.478   2.882 -0.4004 -0.7707 -0.1946
  814SOL    HW2 2442   2.887   1.605   2.843  1.2054 -1.4844  0.2136
  815SOL     OW 2443   2.168   2.900   2.776  0.3016 -0.0400 -0.2861
  815SOL    HW1 2444   2.147   2.816   2.836  1.5979  0.7260 -1.5290
  815SOL    HW2 2445   2.245   2.956   2.813  0.6906 -1.1396  2.9718
  816SOL     OW 2446   1.646   0.322   1.599 -0.3008  0.0626  0.3066
  816SOL    HW1 2447   1.678   0.226   1.629  1.2716 -2.3140  0.4976
  816SOL    HW2 2448   1.567   0.363   1.652  1.8348  1.0893 -0.2454
  817SOL     OW 2449   0.381   1.147   2.582 -0.3281 -0.5503  0.5427
  817SOL    HW1 2450   0.280   1.156   2.584 -0.2477  2.5580  0.9006
  817SOL    HW2 2451   0.419   1.230   2.528 -2.3130  0.8310 -1.9561
  818SOL     OW 2452   1.918   0.911   0.388  1.1122  0.4042 -0.7084
  818SOL    HW1 2453   2.022   0.901   0.388 -0.5348 -1.4915 -0.8824
  818SOL    HW2 2454   1.878   0.963   0.462  1.9960  0.5820  0.9215
  819SOL     OW 2455   2.754   2.972   2.958 -0.1070  0.4470  0.0128
  819SOL    HW1 2456   2.816   2.894   2.940  1.0807 -0.9875 -0.8631
  819SOL    HW2 2457   2.669   2.962   2.903 -1.2911  2.6755  1.7606
  820SOL     OW 2458   1.229   1.067   0.621 -0.3796  0.1105 -0.4047
  820SOL    HW1 2459   1.227   1.158   0.675 -2.3071  1.8840 -0.9754
  820SOL    HW2 2460   1.200   0.991   0.678 -2.4169  1.0278 -2.6520
  821SOL     OW 2461   0.017   1.281   0.688  0.4241  0.0904 -0.2906
  821SOL    HW1 2462  -0.034   1.264   0.781 -0.1952  1.1435  2.6137
  821SOL    HW2 2463   0.092   1.349   0.679  0.6614 -0.3701  0.6938
  822SOL     OW 2464   2.574   1.727   2.426  0.3246  0.5253  0.1036
  822SOL    HW1 2465   2.583   1.794   2.503 -0.8260  0.1497 -2.0571
  822SOL    HW2 2466   2.483   1.735   2.375  0.5143 -3.8601 -0.3237
  823SOL     OW 2467   2.056   0.905   1.186 -0.1725 -0.4356 -0.1494
  823SOL    HW1 2468   2.024   0.882   1.280  1.7854  2.0590  0.9363
  823SOL    HW2 2469   1.978   0.950   1.130 -1.9910  0.7432 -2.2840
  824SOL     OW 2470   0.269   2.032   2.828  0.2743 -0.4286  0.9726
  824SOL    HW1 2471   0.238   1.947   2.876 -0.7815 -0.3299 -0.1905
  824SOL    HW2 2472   0.331   2.017   2.746 -0.8136  1.4935 -0.3913
  825SOL     OW 2473   1.293   1.093   0.283 -0.0412 -0.6745 -0.0520
  825SOL    HW1 2474   1.329   1.185   0.243 -0.5216  1.0748 -0.3472
  825SOL    HW2 2475   1.237   1.107   0.368  1.5071 -1.9972 -1.3022
  826SOL     OW 2476   1.880   0.672   1.621  0.3388 -0.1442 -0.0175
  826SOL    HW1 2477   1.971   0.622   1.637  0.9481 -0.4340  1.0845
  826SOL    HW2 2478   1.809   0.625   1.562 -1.6098  0.9813 -1.0627
  827SOL     OW 2479   0.678   1.228   0.200  0.0657  1.0348  0.0456
  827SOL    HW1 2480   0.772   1.210   0.175 -0.1109  3.5653  0.6905
  827SOL    HW2 2481   0.630   1.165   0.262  2.9821  0.4452  1.2666
  828SOL     OW 2482   2.601   0.179   1.594  0.7654  0.8696 -0.1948
  828SOL    HW1 2483   2.504   0.158   1.553  0.5051  0.9731 -3.5286
  828SOL    HW2 2484   2.616   0.144   1.689  1.5809 -1.5476 -1.6471
  829SOL     OW 2485   2.775   2.478   3.010  0.4704 -0.0869 -0.4921
  829SOL    HW1 2486   2.691   2.414   3.022 -0.7396 -0.6078 -1.1165
  829SOL    HW2 2487   2.748   2.576   2.983 -0.5360 -1.6743  0.9609
  830SOL     OW 2488   2.799   0.976   3.061  0.2313  0.1992  0.4222
  830SOL    HW1 2489   2.873   1.045   3.052  0.9981 -0.8675 -0.8056
  830SOL    HW2 2490   2.832   0.889   3.101 -1.5619 -0.9141 -0.6441
  831SOL     OW 2491   3.085   0.669   0.405 -0.5082 -0.0679 -0.4625
  831SOL    HW1 2492   3.070   0.620   0.494 -1.0015 -1.5753 -0.3977
  831SOL    HW2 2493   3.116   0.611   0.326 -1.3253  3.2215 -1.5421
  832SOL     OW 2494   1.823   0.754   2.976  0.0933  0.2908 -0.0747
  832SOL    HW1 2495   1.725   0.782   2.958  1.4205  0.0920  1.1532
  832SOL    HW2 2496   1.828   0.652   2.998  3.4713 -1.1425 -0.8176
  833SOL     OW 2497   2.426   2.143   0.512 -0.8708 -0.3991 -0.3203
  833SOL    HW1 2498   2.329   2.140   0.475  0.7756 -1.1170 -1.1185
  833SOL    HW2 2499   2.482   2.056   0.494  1.9827 -0.1595 -2.8852
  834SOL     OW 2500   0.201   0.222   0.476 -0.0486  0.2377  0.3211
  834SOL    HW1 2501   0.175   0.155   0.545 -4.8878  0.1416 -1.1406
  834SOL    HW2 2502   0.156   0.199   0.383 -0.4627 -0.3719  0.4405
  835SOL     OW 2503   2.302   1.567   1.083 -0.3898 -0.2221  0.2588
  835SOL    HW1 2504   2.247   1.608   1.005 -0.1396  0.3390 -1.9204
  835SOL    HW2 2505   2.407   1.558   1.057 -1.1583 -0.3594 -2.5794
  836SOL     OW 2506   1.618   0.829   2.598 -0.5434  0.2555  0.0335
  836SOL    HW1 2507   1.516   0.833   2.597  3.0897  0.7539  0.7653
  836SOL    HW2 2508   1.662   0.841   2.505 -0.1376  1.1176  3.2459
  837SOL     OW 2509   1.695   0.127   0.529 -0.5188 -0.3848 -0.2183
  837SOL    HW1 2510   1.633   0.180   0.593 -1.8452  0.4538  0.0068
  837SOL    HW2 2511   1.662   0.126   0.434  1.4605  0.7606 -0.6859
  838SOL     OW 2512   1.175   1.547   2.814  0.1636 -0.7187 -0.0759
  838SOL    HW1 2513   1.166   1.526   2.916 -0.8499 -1.4900 -0.3891
  838SOL    HW2 2514   1.099   1.502   2.759 -2.4169 -0.3059  1.0460
  839SOL     OW 2515   1.705   0.300   1.021  0.7155 -0.4079 -0.3403
  839SOL    HW1 2516   1.726   0.378   1.086  0.2474 -0.5707 -0.0371
  839SOL    HW2 2517   1.668   0.212   1.062 -3.0876 -2.1006 -3.3748
  840SOL     OW 2518   2.584   2.954   1.762  1.2864 -0.0075 -0.5517
  840SOL    HW1 2519   2.550   2.936   1.669  2.1389  1.7063  1.5380
  840SOL    HW2 2520   2.609   2.868   1.818 -0.5053  0.9853 -2.5445
  841SOL     OW 2521   1.512   0.824   2.987  0.0930  0.1037  0.2760
  841SOL    HW1 2522   1.471   0.848   3.076  0.4375 -2.3233 -2.2024
  841SOL    HW2 2523   1.521   0.906   2.925 -1.6495 -1.9400  0.9823
  842SOL     OW 2524   0.838   1.547   0.948  0.5590 -0.1145 -0.4458
  842SOL    HW1 2525   0.805   1.625   1.011 -0.3981 -1.6059  1.0195
  842SOL    HW2 2526   0.760   1.474   0.941 -0.8485 -1.2098  3.8076
  843SOL     OW 2527   0.076   0.061   1.442  0.2340  0.0240  0.3578
  843SOL    HW1 2528   0.171   0.097   1.466  2.2140 -0.2569  2.4366
  843SOL    HW2 2529   0.073  -0.042   1.447  1.8285  1.4904 -2.0477
  844SOL     OW 2530   0.792   2.507   0.307  0.0556 -1.0142  0.1201
  844SOL    HW1 2531   0.717   2.492   0.379 -1.3847 -1.8199  1.4197
  844SOL    HW2 2532   0.753   2.579   0.240 -1.9828  1.7894  1.6383
  845SOL     OW 2533   1.620   2.900   1.363 -0.2869 -0.0067 -0.0962
  845SOL    HW1 2534   1.685   2.924   1.440  0.0528  2.6541  0.2963
  845SOL    HW2 2535   1.522   2.920   1.385 -0.3741  1.5311 -1.0303
  846SOL     OW 2536   1.539   2.926   0.742  0.4383 -0.0466  0.3025
  846SOL    HW1 2537   1.564   2.918   0.640 -0.3614  1.5113  0.9542
  846SOL    HW2 2538   1.619   2.965   0.800 -0.4521  0.9514  1.2608
  847SOL     OW 2539   2.050   1.660   0.300 -0.0385  0.0239 -0.0981
  847SOL    HW1 2540   1.994   1.573   0.325 -3.1325 -1.3901 -1.7409
  847SOL    HW2 2541   1.988   1.734   0.263  0.1902 -3.0348 -1.8483
  848SOL     OW 2542   2.474   0.853   2.590  0.5548 -0.0223  0.2021
  848SOL    HW1 2543   2.447   0.951   2.603 -0.0263 -2.4576  0.1672
  848SOL    HW2 2544   2.406   0.776   2.603  0.1807  0.4198  2.1357
  849SOL     OW 2545   2.592   0.814   2.346 -0.0133  0.4669 -0.0467
  849SOL    HW1 2546   2.680   0.764   2.333 -2.0981  0.3965 -0.6388
  849SOL    HW2 2547   2.571   0.826   2.449  0.1421 -1.0164  1.5110
  850SOL     OW 2548   1.531   0.108   1.353 -0.0611  0.2259  0.1929
  850SOL    HW1 2549   1.542   0.105   1.247 -2.6260 -2.4096  2.2054
  850SOL    HW2 2550   1.472   0.035   1.395  1.2440 -0.0031 -1.9519
  851SOL     OW 2551   0.446   1.805   0.605 -0.0524 -0.0290  0.3053
  851SOL    HW1 2552   0.471   1.903   0.603 -0.7891 -1.1869 -2.2898
  851SOL    HW2 2553   0.526   1.746   0.571 -0.2505  0.6742  0.3254
  852SOL     OW 2554   0.763   2.132   1.678 -0.2732  0.0588  0.6287
  852SOL    HW1 2555   0.740   2.210   1.614  1.5884 -1.2926 -2.1441
  852SOL    HW2 2556   0.691   2.106   1.755  0.7875 -0.9379  3.6239
  853SOL     OW 2557   2.560   1.508   2.590 -0.5497  0.7679  0.4135
  853SOL    HW1 2558   2.510   1.420   2.568  0.5962  2.6065  0.0736
  853SOL    HW2 2559   2.560   1.578   2.518 -0.0133 -1.3536  0.5922
  854SOL     OW 2560   2.412   1.424   1.696  0.5481  0.7990 -0.2979
  854SOL    HW1 2561   2.416   1.436   1.591 -0.0633 -0.3128 -0.9233
  854SOL    HW2 2562   2.370   1.337   1.730 -2.7189  1.0228  0.8670
  855SOL     OW 2563   2.061   2.402   0.939  0.7316 -0.4619 -0.2146
  855SOL    HW1 2564   2.064   2.494   0.892 -0.4280 -2.9927  0.8952
  855SOL    HW2 2565   2.101   2.412   1.033 -0.4724 -0.3397 -3.0339
  856SOL     OW 2566   1.351   1.506   0.903 -0.5129  0.5882  0.0354
  856SOL    HW1 2567   1.412   1.588   0.935  1.4370  1.2493  0.3941
  856SOL    HW2 2568   1.256   1.513   0.940  2.7978  1.1519 -0.7095
  857SOL     OW 2569   3.074   2.673   1.024  0.8941 -0.6778  0.1207
  857SOL    HW1 2570   3.025   2.597   0.970  0.7520 -2.2053 -1.3378
  857SOL    HW2 2571   3.156   2.705   0.972 -2.0268 -0.7626 -0.7926
  858SOL     OW 2572   2.323   2.009   1.739 -0.0543  0.0648  0.8909
  858SOL    HW1 2573   2.239   1.972   1.685 -1.4088  0.6541 -1.0415
  858SOL    HW2 2574   2.407   1.992   1.684  0.9649 -3.1009  1.0988
  859SOL     OW 2575   2.492   0.559   1.036 -0.2845  0.0886  0.4691
  859SOL    HW1 2576   2.560   0.609   0.976 -1.7433 -2.2774  0.9207
  859SOL    HW2 2577   2.524   0.462   1.056  1.6522  1.9464 -1.8831
  860SOL     OW 2578   1.953   2.815   0.426 -0.2044 -0.0830  0.5669
  860SOL    HW1 2579   1.889   2.814   0.353  0.2801 -0.6862  0.4035
  860SOL    HW2 2580   2.055   2.803   0.402  1.0398  0.0296 -0.1670
  861SOL     OW 2581   1.100   2.470   2.836 -0.2293  0.3736 -0.5606
  861SOL    HW1 2582   1.163   2.549   2.804  0.3534  0.6968 -0.4088
  861SOL    HW2 2583   1.110   2.451   2.941  0.9117 -1.0747 -0.2818
  862SOL     OW 2584   2.826   2.573   1.605 -0.0603 -0.0676 -0.0901
  862SOL    HW1 2585   2.912   2.601   1.657  0.3063 -1.5406  1.0212
  862SOL    HW2 2586   2.786   2.647   1.540  0.1186  0.7838 -3.3041
  863SOL     OW 2587   1.854   2.712   0.171  0.1336 -0.2062 -0.4145
  863SOL    HW1 2588   1.929   2.638   0.176 -0.3587  0.6154  0.7271
  863SOL    HW2 2589   1.758   2.672   0.196 -0.5295  0.9322  2.8511
  864SOL     OW 2590   1.907   1.194   2.857 -0.1299  0.0948  0.3238
  864SOL    HW1 2591   1.926   1.151   2.763 -1.8045  0.9154 -0.8824
  864SOL    HW2 2592   1.971   1.157   2.931  1.8118 -0.7460  0.3155
  865SOL     OW 2593   2.228   1.826   0.608  0.5693  0.8314 -0.5777
  865SOL    HW1 2594   2.281   1.877   0.683 -0.2808 -0.2595  1.8455
  865SOL    HW2 2595   2.134   1.803   0.643  0.4711  1.1177  0.1628
  866SOL     OW 2596   2.925   2.920   1.021  0.7544  0.3178  0.0292
  866SOL    HW1 2597   2.942   2.976   0.934 -0.2309  1.0221 -1.4802
  866SOL    HW2 2598   2.969   2.830   1.029 -1.2351  0.9378 -0.9164
  867SOL     OW 2599   0.323   1.344   0.904  0.0025 -0.2841 -0.1407
  867SOL    HW1 2600   0.320   1.271   0.830  2.1251 -0.1586 -2.4556
  867SOL    HW2 2601   0.271   1.431   0.877  2.9857 -1.1221  0.4276
  868SOL     OW 2602   0.725   1.870   1.988  0.1375 -0.0469  0.8596
  868SOL    HW1 2603   0.724   1.881   2.092  1.2767 -0.7758  0.0095
  868SOL    HW2 2604   0.686   1.954   1.943 -2.2027  0.2898  0.0116
  869SOL     OW 2605   2.574   1.941   1.602  0.1858  0.3239 -0.0844
  869SOL    HW1 2606   2.654   2.010   1.597 -2.0943 -1.7053  1.8933
  869SOL    HW2 2607   2.604   1.843   1.591  1.4594  0.7966 -1.6513
  870SOL     OW 2608   2.238   2.651   1.263  0.7702  0.3608  0.4960
  870SOL    HW1 2609   2.236   2.554   1.244  0.6983  3.7844 -3.8807
  870SOL    HW2 2610   2.205   2.676   1.359 -1.5169  0.5608 -2.2845
  871SOL     OW 2611   3.031   2.203   0.538 -0.0320 -0.2528  0.5150
  871SOL    HW1 2612   2.983   2.239   0.622  0.6792  2.2969  0.2482
  871SOL    HW2 2613   2.984   2.229   0.447  1.1764 -2.5638 -0.3340
  872SOL     OW 2614   2.118   0.496   1.673  0.0145 -0.4866 -0.6693
  872SOL    HW1 2615   2.105   0.481   1.774  0.6989 -0.6744  0.1180
  872SOL    HW2 2616   2.211   0.456   1.652 -1.0706 -0.8129 -0.0950
  873SOL     OW 2617   1.713   2.133   3.032 -0.0578  0.1505  0.4263
  873SOL    HW1 2618   1.620   2.145   3.077 -0.1035 -0.0191  2.3107
  873SOL    HW2 2619   1.702   2.118   2.928  0.0702 -0.2535 -0.1381
  874SOL     OW 2620   0.680   2.445   0.747 -0.9761 -0.4300 -0.1725
  874SOL    HW1 2621   0.675   2.536   0.805 -0.2141  1.7305  0.8446
  874SOL    HW2 2622   0.766   2.393   0.762 -0.4941  2.5403 -2.1569
  875SOL     OW 2623   2.337   1.517   1.414 -0.2234  0.8080  0.4681
  875SOL    HW1 2624   2.432   1.551   1.433 -0.5296 -2.1769  0.5569
  875SOL    HW2 2625   2.311   1.526   1.319  0.3584  1.5901 -0.9816
  876SOL     OW 2626   0.089   2.233   2.765  0.6465 -0.1234  0.4585
  876SOL    HW1 2627   0.164   2.162   2.763 -2.6666  1.2223 -1.5955
  876SOL    HW2 2628   0.120   2.332   2.798 -0.9489 -0.2369  1.1304
  877SOL     OW 2629   2.914   2.660   0.578 -0.0345 -0.0824  0.1151
  877SOL    HW1 2630   2.917   2.761   0.591  1.3022  0.6351  1.0259
  877SOL    HW2 2631   2.956   2.602   0.654  0.4717 -0.7897 -1.1118
  878SOL     OW 2632   2.767   1.494   2.236  0.3904  0.3782 -0.4931
  878SOL    HW1 2633   2.868   1.471   2.241 -0.7586 -0.8810  1.3345
  878SOL    HW2 2634   2.726   1.536   2.325 -1.0760 -0.9985  0.1469
  879SOL     OW 2635   2.374   0.098   1.236 -0.1671  0.0414 -0.1329
  879SOL    HW1 2636   2.433   0.011   1.239  1.8060  0.1967 -1.7991
  879SOL    HW2 2637   2.293   0.085   1.173 -1.8241 -1.8334  1.6519
  880SOL     OW 2638   0.735   0.497   2.242 -0.5541 -0.0793  0.7626
  880SOL    HW1 2639   0.667   0.451   2.311 -0.5900 -1.0458  2.1130
  880SOL    HW2 2640   0.789   0.426   2.189  0.5709  0.0557  0.2785
  881SOL     OW 2641   0.857   0.053   0.479 -0.3278  0.3852 -0.2412
  881SOL    HW1 2642   0.888  -0.040   0.503 -2.2010  0.0843 -2.2485
  881SOL    HW2 2643   0.760   0.060   0.455  2.3173 -5.0002 -1.0947
  882SOL     OW 2644   2.710   1.694   1.708  0.1145  0.4671  0.1805
  882SOL    HW1 2645   2.804   1.658   1.676  1.3455 -2.1210 -2.7423
  882SOL    HW2 2646   2.700   1.694   1.815 -1.9734 -0.6159  0.4782
  883SOL     OW 2647   0.921   0.565   0.961  0.2090  0.1992  0.5959
  883SOL    HW1 2648   0.924   0.652   1.017 -2.4899  0.6448  0.8258
  883SOL    HW2 2649   0.901   0.483   1.016  1.8244  0.3454  0.9605
  884SOL     OW 2650   1.201   1.750   1.168 -0.0021  0.4967 -0.6371
  884SOL    HW1 2651   1.171   1.683   1.096 -0.2394  3.1480  0.5424
  884SOL    HW2 2652   1.170   1.844   1.150  0.5719  2.2135 -3.6229
  885SOL     OW 2653   2.322   1.774   2.296  0.7988 -0.1251 -0.1406
  885SOL    HW1 2654   2.240   1.731   2.345 -1.4036  1.6020  0.1470
  885SOL    HW2 2655   2.289   1.872   2.266 -0.8542  0.4442 -1.4460
  886SOL     OW 2656   2.605   0.399   1.789  0.1595  0.1647 -0.0967
  886SOL    HW1 2657   2.630   0.306   1.830  1.5402  1.4223 -0.1899
  886SOL    HW2 2658   2.678   0.470   1.787 -1.8162  1.4966 -0.3738
  887SOL     OW 2659   0.097   2.011   1.338 -0.2932  0.6760 -0.7543
  887SOL    HW1 2660   0.014   1.963   1.298 -2.5341 -0.1077  1.5426
  887SOL    HW2 2661   0.110   2.102   1.290 -1.8589  1.9744 -0.4961
  888SOL     OW 2662   0.578   1.223   1.536 -0.0118  0.3824  0.2573
  888SOL    HW1 2663   0.618   1.259   1.444  1.6342  1.0451  2.1065
  888SOL    HW2 2664   0.499   1.161   1.526  2.8073  0.5185  0.5427
  889SOL     OW 2665   0.827   2.473   2.178  0.3255  0.2709  0.1280
  889SOL    HW1 2666   0.768   2.390   2.183  3.2546  0.3025 -0.6536
  889SOL    HW2 2667   0.880   2.464   2.093  0.7419 -1.0240  0.2265
  890SOL     OW 2668   2.419   2.425   0.212  0.1192 -0.2370 -0.6223
  890SOL    HW1 2669   2.480   2.490   0.162  0.0836  2.2615  3.5366
  890SOL    HW2 2670   2.355   2.470   0.279 -0.5026 -1.9670 -1.4727
  891SOL     OW 2671   2.555   1.714   0.730 -0.0358 -0.2674  0.1531
  891SOL    HW1 2672   2.561   1.716   0.837 -1.6007  1.4805  1.5691
  891SOL    HW2 2673   2.465   1.679   0.683 -1.7913 -1.2062 -0.8156
  892SOL     OW 2674   0.359   0.323   2.231  0.3762  0.2127 -0.4003
  892SOL    HW1 2675   0.383   0.377   2.148 -1.1554 -1.1649  0.0042
  892SOL    HW2 2676   0.428   0.336   2.310  0.8585  1.2065 -2.8012
  893SOL     OW 2677   1.701   0.263   2.744 -0.1490  0.8043  0.3335
  893SOL    HW1 2678   1.778   0.332   2.756 -1.1412 -0.0923  1.5516
  893SOL    HW2 2679   1.615   0.308   2.715 -1.3070 -1.1544  0.6381
  894SOL     OW 2680   2.114   2.030   0.011  0.2843 -0.5893 -0.2989
  894SOL    HW1 2681   2.075   1.984  -0.071 -1.2679  2.6502  1.8872
  894SOL    HW2 2682   2.165   1.963   0.078 -0.8428 -0.3808  0.4128
  895SOL     OW 2683   2.799   1.424   0.929 -0.6589 -0.4570 -0.4340
  895SOL    HW1 2684   2.885   1.380   0.960 -3.7578  1.1661  0.7524
  895SOL    HW2 2685   2.811   1.527   0.911  1.5633  2.3198  0.7239
  896SOL     OW 2686   1.781   1.812   1.210  0.2487  0.3089  0.4704
  896SOL    HW1 2687   1.806   1.748   1.134 -1.2973 -0.1756  0.8863
  896SOL    HW2 2688   1.701   1.873   1.180 -2.3130 -0.6895  2.1832
  897SOL     OW 2689   0.348   0.529   3.089  0.3057 -0.6758  0.8609
  897SOL    HW1 2690   0.281   0.588   3.030  1.7192  3.2379 -0.9050
  897SOL    HW2 2691   0.442   0.579   3.087 -0.6385 -0.7479  1.9257
  898SOL     OW 2692   0.552   2.864   1.081 -0.2047  0.1103 -0.2571
  898SOL    HW1 2693   0.524   2.962   1.096 -0.3342 -1.6760 -1.0084
  898SOL    HW2 2694   0.631   2.829   1.141 -0.4987 -1.6370 -0.2855
  899SOL     OW 2695   2.829   0.923   1.285 -0.1748 -0.1618 -0.1959
  899SOL    HW1 2696   2.763   0.902   1.207 -1.2631 -2.5774  1.1743
  899SOL    HW2 2697   2.923   0.939   1.243 -0.2995  1.6341 -0.2510
  900SOL     OW 2698   0.958   2.527   2.418 -0.4058 -0.2482 -0.5077
  900SOL    HW1 2699   0.871   2.517   2.365 -0.0228  0.4675  2.0399
  900SOL    HW2 2700   0.944   2.503   2.518  0.1747 -1.0892  3.0744
  901SOL     OW 2701   1.918   2.343   1.376  0.1675  0.0771 -0.0934
  901SOL    HW1 2702   1.888   2.298   1.285 -1.1123 -0.8533 -1.1923
  901SOL    HW2 2703   2.022   2.327   1.398 -0.8506 -2.4083  0.9091
  902SOL     OW 2704   2.582   1.650   1.455  0.0943 -0.0689  0.1885
  902SOL    HW1 2705   2.626   1.626   1.546 -0.1784 -0.2453 -0.7928
  902SOL    HW2 2706   2.642   1.627   1.376 -0.9009  2.2855  0.1858
  903SOL     OW 2707   0.245   2.469   1.965  0.3692  0.1147  0.1572
  903SOL    HW1 2708   0.159   2.425   1.932  2.1837 -0.1432  1.2965
  903SOL    HW2 2709   0.278   2.528   1.887  1.5264 -0.9844 -1.1465
  904SOL     OW 2710   2.037   0.818   2.509 -0.0234  0.1963 -0.8098
  904SOL    HW1 2711   1.962   0.778   2.569  0.4034  0.8110  3.1186
  904SOL    HW2 2712   2.024   0.809   2.406  0.6157 -1.2606  0.9863
  905SOL     OW 2713   2.842   0.092   2.558 -0.7701 -0.4408 -0.2441
  905SOL    HW1 2714   2.898   0.005   2.565 -0.5922  0.2478  1.1009
  905SOL    HW2 2715   2.892   0.180   2.540 -0.0861  0.2676  0.2596
  906SOL     OW 2716   0.195   1.702   1.932 -0.3293  0.2227  0.5951
  906SOL    HW1 2717   0.139   1.721   1.849  0.7198 -0.5615 -1.4219
  906SOL    HW2 2718   0.293   1.728   1.914  0.4626  2.4692 -2.6720
  907SOL     OW 2719   0.253   2.458   1.030 -0.2248  0.2339 -0.2987
  907SOL    HW1 2720   0.355   2.460   1.014 -1.5541  2.6981  0.0178
  907SOL    HW2 2721   0.200   2.397   0.968 -0.4846 -1.5607  1.1436
  908SOL     OW 2722   2.761   2.983   0.367 -0.6561 -0.1744  0.2778
  908SOL    HW1 2723   2.704   3.034   0.299 -1.6872  1.1939 -1.1230
  908SOL    HW2 2724   2.826   2.916   0.320  0.5093  0.7220  1.8594
  909SOL     OW 2725   0.777   1.034   2.648 -0.3220 -0.2281  0.1409
  909SOL    HW1 2726   0.734   0.952   2.595 -2.3781  1.8206  0.5270
  909SOL    HW2 2727   0.856   1.079   2.594 -0.5829 -2.6322 -0.5046
  910SOL     OW 2728   1.749   1.885   2.175 -0.7472  0.1916 -0.0655
  910SOL    HW1 2729   1.787   1.909   2.083  1.8399  0.2263  2.4934
  910SOL    HW2 2730   1.668   1.939   2.207  3.3093 -1.1853  0.2647
  911SOL     OW 2731   1.810   2.938   1.591 -0.0829 -0.1043 -0.4578
  911SOL    HW1 2732   1.870   2.921   1.507  3.7763  1.2422 -0.4658
  911SOL    HW2 2733   1.824   2.862   1.660 -2.6692 -0.7574 -1.7448
  912SOL     OW 2734   2.849   1.001   0.705 -0.4648  0.4485 -0.3061
  912SOL    HW1 2735   2.869   0.969   0.804 -1.1974 -2.7891  0.9993
  912SOL    HW2 2736   2.793   1.087   0.696 -0.7888  0.8178 -2.9261
  913SOL     OW 2737   2.580   1.271   1.498  0.3978 -0.4130 -0.3287
  913SOL    HW1 2738   2.627   1.184   1.521 -0.5790 -2.0949 -0.5076
  913SOL    HW2 2739   2.631   1.337   1.433  2.8056 -0.6239  0.6003
  914SOL     OW 2740   2.811   0.618   1.225  0.5840 -0.0452  0.0588
  914SOL    HW1 2741   2.784   0.521   1.242  0.5660  1.1647  1.7296
  914SOL    HW2 2742   2.825   0.669   1.314 -0.4615 -3.1804  2.3317
  915SOL     OW 2743   1.179   0.760   1.093  0.2513  0.6598 -0.2234
  915SOL    HW1 2744   1.242   0.805   1.160  0.9372 -1.9108  1.6350
  915SOL    HW2 2745   1.084   0.796   1.091  4.2060  2.7977  2.8294
  916SOL     OW 2746   0.602   0.012   0.657 -0.3355 -0.3212  0.9530
  916SOL    HW1 2747   0.632   0.100   0.708 -0.8908  1.6112  2.5374
  916SOL    HW2 2748   0.584   0.036   0.556 -0.4441 -0.9628  0.6136
  917SOL     OW 2749   2.824   2.617   1.979 -0.5297  0.1183  0.1150
  917SOL    HW1 2750   2.725   2.648   1.981 -1.8801 -0.9783 -2.0845
  917SOL    HW2 2751   2.882   2.678   1.923 -1.0339  1.1717 -1.5662
  918SOL     OW 2752   1.026   2.141   3.056  0.1703  0.3741 -0.2473
  918SOL    HW1 2753   0.985   2.198   3.132  2.1599  2.4128  0.6322
  918SOL    HW2 2754   1.121   2.174   3.036  1.6433  1.3962  4.1895
  919SOL     OW 2755   0.850   1.646   2.886 -0.0220  0.4344 -0.2412
  919SOL    HW1 2756   0.888   1.701   2.809 -0.0886  0.2317 -0.6675
  919SOL    HW2 2757   0.802   1.557   2.863  0.0325 -1.8429  0.8727
  920SOL     OW 2758   1.197   1.847   2.485  0.0919  0.0450 -0.9389
  920SOL    HW1 2759   1.281   1.801   2.447 -1.8213 -1.8128  1.4883
  920SOL    HW2 2760   1.177   1.807   2.578 -0.8476 -2.6118 -3.0170
  921SOL     OW 2761   1.042   0.025   2.619 -0.4899  0.1246  0.2331
  921SOL    HW1 2762   1.010  -0.003   2.523 -0.0485  1.6381  1.4266
  921SOL    HW2 2763   0.968   0.051   2.679  1.6503 -3.3219  0.0634
  922SOL     OW 2764   2.128   2.389   2.782 -0.5617  0.1081  0.0548
  922SOL    HW1 2765   2.209   2.329   2.792  0.5193  1.4265 -0.5804
  922SOL    HW2 2766   2.101   2.412   2.684  0.8119  0.3792 -1.8849
  923SOL     OW 2767   1.267   2.680   0.270 -0.1742  0.3931 -0.0224
  923SOL    HW1 2768   1.337   2.752   0.299  1.3357  2.6974  1.6055
  923SOL    HW2 2769   1.307   2.585   0.270  0.9472 -1.0363  1.0405
  924SOL     OW 2770   2.858   1.543   0.156 -0.0753 -0.5570 -0.2733
  924SOL    HW1 2771   2.794   1.569   0.076 -0.0421  0.3241 -1.9861
  924SOL    HW2 2772   2.959   1.541   0.134 -0.0357  0.4068  0.7969
  925SOL     OW 2773   3.088   2.884   1.522 -0.2483  0.5897  0.1858
  925SOL    HW1 2774   3.009   2.925   1.570  2.3443  4.1159  0.0992
  925SOL    HW2 2775   3.066   2.825   1.440 -0.4282 -3.1216  3.5739
  926SOL     OW 2776   1.303   2.800   1.259 -0.0027  0.3011 -0.3523
  926SOL    HW1 2777   1.387   2.799   1.195  1.3528 -2.3903 -0.2179
  926SOL    HW2 2778   1.305   2.882   1.321 -0.3749 -1.4120  1.4003
  927SOL     OW 2779   0.330   2.660   1.767 -0.1846 -0.1253 -0.5308
  927SOL    HW1 2780   0.302   2.604   1.685 -2.4918 -0.9776 -0.5617
  927SOL    HW2 2781   0.302   2.759   1.753 -0.1095 -1.5309  0.8870
  928SOL     OW 2782   1.532   2.051   2.283 -0.4531 -0.0232  0.0898
  928SOL    HW1 2783   1.572   2.130   2.226 -2.0309  1.0669  0.8342
  928SOL    HW2 2784   1.434   2.058   2.304  2.5395  1.0607 -2.2031
  929SOL     OW 2785   2.418   2.486   2.866  0.3438 -0.3876 -0.0610
  929SOL    HW1 2786   2.320   2.479   2.840  0.4201  0.6585 -3.1849
  929SOL    HW2 2787   2.475   2.468   2.783 -0.0090 -0.6373  0.7741
  930SOL     OW 2788   2.218   2.020   1.080  0.1430  0.3870 -0.3388
  930SOL    HW1 2789   2.185   1.978   1.173  2.4873 -0.4616  1.7305
  930SOL    HW2 2790   2.277   2.102   1.093 -0.4693 -1.0897  0.8930
  931SOL     OW 2791   0.543   1.713   2.736  0.3368  0.0665  0.0394
  931SOL    HW1 2792   0.580   1.758   2.820 -2.9671 -1.0149 -0.0451
  931SOL    HW2 2793   0.584   1.621   2.734  0.3176  1.1754 -1.1159
  932SOL     OW 2794   0.470   0.146   2.984 -0.5417  0.1083 -0.4504
  932SOL    HW1 2795   0.544   0.213   3.023 -1.6058  0.0066 -2.6908
  932SOL    HW2 2796   0.470   0.050   3.025 -0.6527 -2.2661 -2.6163
  933SOL     OW 2797   1.003   0.806   3.055 -0.3072  0.4959 -0.4900
  933SOL    HW1 2798   1.006   0.835   3.157 -1.0227  1.9381  1.4634
  933SOL    HW2 2799   0.962   0.880   2.995 -0.1010  0.8933  0.5488
  934SOL     OW 2800   0.782   2.969   2.640 -0.0318  0.0416 -0.4304
  934SOL    HW1 2801   0.788   2.912   2.555  0.5172 -0.7543  2.0014
  934SOL    HW2 2802   0.833   2.935   2.722  1.4260  0.5441 -0.3428
  935SOL     OW 2803   0.021   0.572   0.832 -0.0105 -0.1132  0.1789
  935SOL    HW1 2804   0.026   0.538   0.740 -2.2766  2.2137  3.6288
  935SOL    HW2 2805  -0.076   0.593   0.864  0.3704  0.9159  1.6299
  936SOL     OW 2806   1.103   2.794   0.079 -0.6187  0.8656  0.2453
  936SOL    HW1 2807   1.160   2.854   0.014  0.6007  0.7758 -0.0999
  936SOL    HW2 2808   1.154   2.751   0.156 -2.4320 -0.6305 -1.0628
  937SOL     OW 2809   1.904   2.629   2.100  0.2993 -0.0618 -0.0207
  937SOL    HW1 2810   1.831   2.709   2.096 -1.2288  0.5479 -3.8685
  937SOL    HW2 2811   1.997   2.649   2.062  2.1484 -3.7981  0.5172
  938SOL     OW 2812   2.786   2.116   1.613  0.1379  0.4804 -0.0756
  938SOL    HW1 2813   2.771   2.219   1.603  0.9927 -1.3288 -0.9255
  938SOL    HW2 2814   2.885   2.088   1.636  0.4301 -2.1840 -0.3008
  939SOL     OW 2815   2.882   1.206   2.424 -0.6505 -0.0137  0.2241
  939SOL    HW1 2816   2.909   1.190   2.324  0.8831 -0.1515 -0.6026
  939SOL    HW2 2817   2.932   1.148   2.495  2.3652 -1.0990 -0.9645
  940SOL     OW 2818   1.033   0.397   2.720  0.0511  0.0154 -0.0926
  940SOL    HW1 2819   1.107   0.319   2.730 -0.4898  0.0026  0.8068
  940SOL    HW2 2820   0.939   0.369   2.682  1.5060  0.2531 -0.2588
  941SOL     OW 2821   0.054   2.779   2.259 -0.4122 -0.3805 -0.4028
  941SOL    HW1 2822   0.111   2.690   2.271  0.7133 -1.7066 -1.1462
  941SOL    HW2 2823   0.089   2.857   2.312  1.4911 -0.7264  1.5923
  942SOL     OW 2824   0.137   0.090   2.559 -0.3342  0.9110 -0.0160
  942SOL    HW1 2825   0.182   0.131   2.642 -2.2292 -2.3652 -0.7976
  942SOL    HW2 2826   0.121   0.153   2.477  1.7506 -0.6193  1.9666
  943SOL     OW 2827   2.092   1.676   2.416 -0.2868 -0.5561  0.0916
  943SOL    HW1 2828   2.099   1.645   2.316 -0.6105  2.0192  2.8211
  943SOL    HW2 2829   2.110   1.601   2.487 -0.3405  1.4416  2.2576
  944SOL     OW 2830   2.179   2.330   1.472  0.3979  0.4150  0.3918
  944SOL    HW1 2831   2.247   2.399   1.506 -1.9577 -0.9641  0.6014
  944SOL    HW2 2832   2.152   2.250   1.531  0.6329  2.1999 -1.7446
  945SOL     OW 2833   0.668   1.495   0.240 -0.1539 -0.0597  0.2911
  945SOL    HW1 2834   0.615   1.536   0.160 -0.2778 -0.1151  0.7775
  945SOL    HW2 2835   0.662   1.393   0.244 -0.8654  1.9930 -2.4548
  946SOL     OW 2836   0.409   0.923   2.448 -0.3454  0.1500 -0.2482
  946SOL    HW1 2837   0.324   0.885   2.405  0.0494  1.1257 -1.9183
  946SOL    HW2 2838   0.402   1.015   2.487 -0.8300 -1.3118 -1.8471
  947SOL     OW 2839   1.529   0.516   3.074 -0.4216 -0.4918 -0.0963
  947SOL    HW1 2840   1.511   0.567   2.981 -1.1020 -2.4478  1.5902
  947SOL    HW2 2841   1.445   0.466   3.114 -1.3881 -1.7817  1.9541
  948SOL     OW 2842   1.851   3.043   2.147  0.9296 -0.1540 -0.2431
  948SOL    HW1 2843   1.877   2.992   2.060 -2.3208 -2.4435  2.7010
  948SOL    HW2 2844   1.838   2.987   2.234 -0.0810 -1.3843  1.5631
  949SOL     OW 2845   0.609   2.473   0.500 -0.4859  0.0890  0.2963
  949SOL    HW1 2846   0.584   2.574   0.473  3.6629  1.5584 -1.7534
  949SOL    HW2 2847   0.621   2.450   0.603  1.4079  0.6969  0.7679
  950SOL     OW 2848   0.206   2.214   3.055  0.1920  0.0581 -0.6762
  950SOL    HW1 2849   0.129   2.278   3.038  0.0740 -1.9530  1.5082
  950SOL    HW2 2850   0.233   2.154   2.973  1.9821 -0.5263 -1.1181
  951SOL     OW 2851   1.249   2.695   2.742  0.3647  0.2597 -0.6156
  951SOL    HW1 2852   1.321   2.634   2.786  1.9815  1.4569 -2.3479
  951SOL    HW2 2853   1.277   2.729   2.651 -2.6877 -2.0387  0.0785
  952SOL     OW 2854   0.015   1.712   0.379 -0.0866 -0.5833  0.0992
  952SOL    HW1 2855   0.088   1.789   0.371  0.0080 -2.5837 -1.2503
  952SOL    HW2 2856   0.063   1.620   0.420 -0.4211  1.6295  0.9378
  953SOL     OW 2857   2.536   1.781   0.219 -0.0879  0.2386  0.7047
  953SOL    HW1 2858   2.529   1.679   0.198  0.2635 -2.1490 -0.7636
  953SOL    HW2 2859   2.538   1.844   0.134 -0.2114 -2.7562 -0.6135
  954SOL     OW 2860   2.235   0.548   0.925  0.3351  0.2141  0.2238
  954SOL    HW1 2861   2.235   0.569   0.824 -1.3083  2.2712  0.2690
  954SOL    HW2 2862   2.329   0.533   0.966  0.0522  1.3135 -0.3099
  955SOL     OW 2863   0.164   2.592   1.293 -0.4178  0.1745 -0.3364
  955SOL    HW1 2864   0.077   2.637   1.334 -0.4002 -1.3147 -0.8484
  955SOL    HW2 2865   0.185   2.617   1.199 -2.4505  0.3731  0.0886
  956SOL     OW 2866   2.823   2.446   2.495 -0.5424  0.1974 -0.3460
  956SOL    HW1 2867   2.794   2.353   2.457  1.2872  1.3175 -0.7648
  956SOL    HW2 2868   2.868   2.509   2.425 -1.3118  1.6082 -3.8971
  957SOL     OW 2869   1.639   2.059   2.787 -0.9333 -0.0625 -0.0199
  957SOL    HW1 2870   1.599   1.969   2.758  1.0858  0.6814  2.4622
  957SOL    HW2 2871   1.671   2.117   2.708 -1.8406 -1.9938 -0.4323
  958SOL     OW 2872   2.559   2.313   2.994  0.2391 -0.0986 -0.1745
  958SOL    HW1 2873   2.506   2.370   2.924 -1.0139 -1.4416 -1.1183
  958SOL    HW2 2874   2.497   2.256   3.057  3.1396 -0.1670  4.4586
  959SOL     OW 2875   0.252   2.815   0.053  0.0804  0.3980  0.1732
  959SOL    HW1 2876   0.171   2.776  -0.000  2.7401 -1.3099 -1.0734
  959SOL    HW2 2877   0.292   2.748   0.122 -2.8890  1.3532 -0.3342
  960SOL     OW 2878   2.033   0.487   1.943  0.5858 -0.1591  0.5963
  960SOL    HW1 2879   1.961   0.557   1.916 -0.4096  1.1953 -2.5540
  960SOL    HW2 2880   2.051   0.485   2.044  3.5121  3.1549 -0.9025
  961SOL     OW 2881   2.570   1.846   0.998 -0.1326 -0.4687  0.1344
  961SOL    HW1 2882   2.595   1.948   0.998  2.4320  0.3560  3.0532
  961SOL    HW2 2883   2.514   1.831   1.083 -0.3554 -2.2735 -0.4145
  962SOL     OW 2884   1.316   0.956   0.041  0.0560  0.3805  0.2084
  962SOL    HW1 2885   1.258   0.960  -0.045 -2.9301 -1.6165  1.6450
  962SOL    HW2 2886   1.269   1.013   0.119 -2.3989 -0.2061 -0.4497
  963SOL     OW 2887   2.221   2.571   1.832  0.1851  0.1805 -0.1030
  963SOL    HW1 2888   2.194   2.473   1.861  0.8653 -2.5303 -0.0740
  963SOL    HW2 2889   2.235   2.638   1.916  0.5028  0.5567 -0.6663
  964SOL     OW 2890   2.355   0.375   1.680  0.2778 -0.2588  0.2133
  964SOL    HW1 2891   2.447   0.392   1.732  1.3840  0.8179  1.1817
  964SOL    HW2 2892   2.372   0.346   1.583 -0.6236 -2.1494 -1.6347
  965SOL     OW 2893   2.629   3.075   0.131 -0.2028  0.2508 -0.1053
  965SOL    HW1 2894   2.681   3.047   0.046 -0.6186  0.6164 -0.8187
  965SOL    HW2 2895   2.529   3.064   0.118 -1.7808 -0.6285 -3.7537
  966SOL     OW 2896   2.631   2.572   2.191 -0.1926 -0.2383 -0.0466
  966SOL    HW1 2897   2.668   2.654   2.244 -1.6856 -0.8991  1.3881
  966SOL    HW2 2898   2.543   2.584   2.139  0.5997 -1.1709 -1.3405
  967SOL     OW 2899   2.809   2.826   2.498  0.2389 -0.5701  0.1710
  967SOL    HW1 2900   2.845   2.767   2.421  0.3361  1.8666 -0.5821
  967SOL    HW2 2901   2.872   2.904   2.518 -0.9389  0.8895  0.6616
  968SOL     OW 2902   1.902   1.029   2.625  0.0215 -0.5876 -0.0099
  968SOL    HW1 2903   1.810   1.061   2.579  2.1155 -0.7154 -1.0588
  968SOL    HW2 2904   1.958   0.968   2.567 -2.0536  1.6853 -0.0470
  969SOL     OW 2905   2.849   2.441   1.128 -0.2446 -0.2095 -0.1424
  969SOL    HW1 2906   2.819   2.420   1.032 -1.4635 -0.3388  0.9138
  969SOL    HW2 2907   2.853   2.357   1.187 -1.5281 -0.7033 -0.6412
  970SOL     OW 2908   1.025   2.097   1.824  0.2922  0.4608  0.3148
  970SOL    HW1 2909   0.940   2.093   1.764 -0.5665 -0.4693 -0.7546
  970SOL    HW2 2910   1.001   2.142   1.916 -2.3913  2.0511 -0.7245
  971SOL     OW 2911   2.920   2.087   1.929 -0.6005 -0.2237 -0.5608
  971SOL    HW1 2912   2.907   2.187   1.944  1.3409 -1.2398 -3.9008
  971SOL    HW2 2913   2.971   2.055   1.846  0.7901 -1.2540 -1.1265
  972SOL     OW 2914   1.981   2.481   0.224  0.1130 -0.1497 -0.6254
  972SOL    HW1 2915   1.951   2.398   0.162 -1.6043  1.0347 -1.3944
  972SOL    HW2 2916   2.021   2.457   0.319  1.7079 -0.9997  3.1508
  973SOL     OW 2917   1.281   1.018   1.908  0.2553 -0.8360 -0.1035
  973SOL    HW1 2918   1.212   1.000   1.832 -0.9288  2.4771  0.9826
  973SOL    HW2 2919   1.263   1.109   1.955 -0.4243 -1.2154  1.9691
  974SOL     OW 2920   1.605   0.568   1.992 -0.4895  0.3223 -0.3994
  974SOL    HW1 2921   1.686   0.606   1.944  0.6374 -1.8297  0.9523
  974SOL    HW2 2922   1.524   0.618   1.953  0.0961  0.4448  0.0348
  975SOL     OW 2923   2.367   3.051   0.065  0.5302  0.2423  0.1448
  975SOL    HW1 2924   2.313   2.959   0.065 -1.4496  0.3250 -0.7662
  975SOL    HW2 2925   2.382   3.089  -0.030 -0.2818 -2.1172 -2.4403
  976SOL     OW 2926   1.920   2.861   2.376  0.2114  0.0639  0.3460
  976SOL    HW1 2927   1.845   2.798   2.341 -1.4670  0.4928 -1.3005
  976SOL    HW2 2928   1.954   2.829   2.465 -1.5026 -0.1048 -0.9618
  977SOL     OW 2929   0.434   0.644   1.003 -0.7291 -0.0080  0.2940
  977SOL    HW1 2930   0.374   0.690   0.936  0.9171 -1.5469 -0.3383
  977SOL    HW2 2931   0.528   0.668   0.968 -2.4491 -0.4768 -0.5687
   3.10000   3.10000   3.10000
