1000 SPC/Fw water molecules t=   0.41000 step= 410
 2931
    1SOL     OW    1   2.528   0.305   2.602 -0.3259  0.1460  0.8213
    1SOL    HW1    2   2.588   0.220   2.604 -0.2767  0.5751  3.6923
    1SOL    HW2    3   2.533   0.365   2.691 -1.0677  1.2078  1.4419
    2SOL     OW    4   2.702   3.061   1.447 -0.1265  0.8655  0.8364
    2SOL    HW1    5   2.763   3.106   1.376  0.3791 -4.8167 -2.0361
    2SOL    HW2    6   2.637   3.125   1.496  2.1998  0.0707 -1.5611
    3SOL     OW    7   2.742   2.594   0.395  0.3915 -0.0540 -0.1649
    3SOL    HW1    8   2.706   2.498   0.386 -0.2352  1.2199  0.5403
    3SOL    HW2    9   2.808   2.600   0.472 -0.3031  2.4129 -1.9021
    4SOL     OW   10   1.337   1.479   2.360 -0.4001  0.3471 -0.5922
    4SOL    HW1   11   1.249   1.511   2.306 -0.4340 -0.3724  0.4363
    4SOL    HW2   12   1.314   1.420   2.443 -1.0405  2.3032  0.2326
    5SOL     OW   13   1.197   1.498   3.032 -0.0089  0.2419  0.0982
    5SOL    HW1   14   1.265   1.553   3.088 -0.1235  2.4109  1.4782
    5SOL    HW2   15   1.098   1.537   3.034 -0.7973 -0.7884  1.4089
    6SOL     OW   16   0.028   1.779   2.886  0.2699  0.2141  0.3526
    6SOL    HW1   17   0.050   1.829   2.974  2.0034 -0.4825 -1.8379
    6SOL    HW2   18   0.025   1.681   2.913  0.7649  1.7846  0.6431
    7SOL     OW   19   2.555   0.891   1.149  0.2464  0.0779  0.1462
    7SOL    HW1   20   2.474   0.846   1.195  0.3272 -1.7996  2.1498
    7SOL    HW2   21   2.549   0.871   1.050 -2.1425  0.1621  3.7373
    8SOL     OW   22   0.405   0.639   1.542  0.2378 -0.0483 -0.1937
    8SOL    HW1   23   0.483   0.576   1.561 -0.1210 -0.4751 -0.5956
    8SOL    HW2   24   0.339   0.604   1.470 -0.6039  0.3177 -1.1360
    9SOL     OW   25   1.152   0.966   2.250 -0.5864 -0.0798 -0.4210
    9SOL    HW1   26   1.224   1.042   2.227  1.7958 -2.2832  0.9967
    9SOL    HW2   27   1.089   0.948   2.176  0.3817  0.8718  1.1142
   10SOL     OW   28   0.721   1.351   1.255 -0.3383  0.0947  0.4500
   10SOL    HW1   29   0.625   1.386   1.235 -2.8425 -0.4370  0.7616
   10SOL    HW2   30   0.783   1.436   1.267 -4.4546  0.5371 -1.6423
   11SOL     OW   31   2.351   2.661   0.966  0.1004  0.7336  0.3607
   11SOL    HW1   32   2.318   2.672   1.066  2.2775 -1.0970 -1.4544
   11SOL    HW2   33   2.456   2.661   0.964  2.6455 -0.2427  2.6410
   12SOL     OW   34   1.440   0.925   0.404 -0.2074 -0.2104 -0.3365
   12SOL    HW1   35   1.372   0.989   0.360  0.6351  1.5205  1.2121
   12SOL    HW2   36   1.430   0.826   0.373  2.7483  0.7676 -2.5617
   13SOL     OW   37   2.529   0.668   1.833  0.1868 -0.1152 -0.8312
   13SOL    HW1   38   2.439   0.660   1.885  0.8195  1.2025 -0.7017
   13SOL    HW2   39   2.514   0.653   1.730  2.3084  0.2724 -0.1125
   14SOL     OW   40   1.977   0.034   0.675  0.8595  0.2905  0.7353
   14SOL    HW1   41   1.910   0.092   0.624  2.7613 -0.2873  0.3257
   14SOL    HW2   42   1.938  -0.044   0.727  0.5540  1.8366 -0.7449
   15SOL     OW   43   1.946   2.019   2.856  0.0181 -0.2583  0.1182
   15SOL    HW1   44   1.900   2.113   2.871  0.9728  0.8151 -1.7522
   15SOL    HW2   45   1.903   1.964   2.778  0.5991  0.8005  2.3878
   16SOL     OW   46   1.620   1.735   0.000  0.0490 -0.3493  0.2422
   16SOL    HW1   47   1.651   1.634   0.002  0.7217  0.6511 -2.0914
   16SOL    HW2   48   1.689   1.800   0.044  1.6130 -1.7162 -2.4949
   17SOL     OW   49   0.087   0.486   0.148 -0.3972  0.3842 -1.1934
   17SOL    HW1   50   0.171   0.507   0.087  1.0498  0.6123  1.5011
   17SOL    HW2   51  -0.005   0.507   0.102 -0.5852 -1.5432 -3.8853
   18SOL     OW   52   0.983   2.896   2.177  0.2488 -0.1812 -0.0851
   18SOL    HW1   53   0.894   2.844   2.173  1.4088  1.5952 -0.7736
   18SOL    HW2   54   1.052   2.876   2.098  2.8214  0.0554 -3.0503
   19SOL     OW   55   0.516   0.863   1.951  0.4831 -0.6731 -0.7663
   19SOL    HW1   56   0.533   0.960   1.990  0.7792  0.4034  2.3229
   19SOL    HW2   57   0.598   0.797   1.961  1.1711 -0.0398 -0.2460
   20SOL     OW   58   0.186   2.800   0.819 -0.5149 -0.0353  0.5940
   20SOL    HW1   59   0.122   2.856   0.761 -2.9700 -0.4288 -0.2190
   20SOL    HW2   60   0.281   2.828   0.797 -1.5625  1.0120  0.6176
   21SOL     OW   61   2.781   0.183   2.146  0.4375 -0.1709 -0.5746
   21SOL    HW1   62   2.770   0.103   2.079  1.6927 -2.0869 -0.4837
   21SOL    HW2   63   2.808   0.147   2.244 -1.0924  0.9651  1.1668
   22SOL     OW   64   2.315   0.230   0.005  0.4674  0.1588  0.1882
   22SOL    HW1   65   2.325   0.127   0.002  0.0950  1.7861  1.6171
   22SOL    HW2   66   2.212   0.260  -0.007 -0.5459  1.4212 -1.4105
   23SOL     OW   67   2.804   0.643   0.657 -0.3394 -0.4069 -0.6290
   23SOL    HW1   68   2.841   0.569   0.598  0.5032  1.5591  0.6202
   23SOL    HW2   69   2.784   0.726   0.595 -0.8655 -0.7684 -0.4628
   24SOL     OW   70   0.145   1.914   0.445 -0.1728  0.3306 -0.2907
   24SOL    HW1   71   0.057   1.946   0.394  1.8353  2.3141 -2.9260
   24SOL    HW2   72   0.219   1.914   0.371 -1.0812 -1.2759 -2.6865
   25SOL     OW   73   2.258   0.483   0.203 -0.0832  0.4059  0.0913
   25SOL    HW1   74   2.321   0.404   0.235  1.5015 -0.9036  1.1828
   25SOL    HW2   75   2.258   0.478   0.101  1.8300  1.1533  2.7355
   26SOL     OW   76   2.476   2.188   2.098  0.0987  0.3527 -0.0181
   26SOL    HW1   77   2.549   2.244   2.145 -2.8687 -1.6787  1.3380
   26SOL    HW2   78   2.512   2.095   2.062 -0.6313 -1.5815 -2.1597
   27SOL     OW   79   0.660   2.974   0.107 -0.4238  0.5516  0.3896
   27SOL    HW1   80   0.764   2.992   0.110  0.4593  0.9698 -2.5481
   27SOL    HW2   81   0.621   3.018   0.020 -0.9920  0.0642 -0.8104
   28SOL     OW   82   1.560   0.169   0.277  0.3684  0.0982 -0.2124
   28SOL    HW1   83   1.635   0.132   0.215 -0.8302  0.3752  0.9754
   28SOL    HW2   84   1.595   0.251   0.333  0.6429 -0.0725  3.0593
   29SOL     OW   85   2.040   0.554   0.350 -0.2137 -0.5792  0.7829
   29SOL    HW1   86   2.018   0.651   0.342 -0.3092 -2.8516 -1.2207
   29SOL    HW2   87   2.122   0.523   0.285 -0.7759  0.6576  0.7818
   30SOL     OW   88   0.127   2.022   0.933 -0.0048  0.4290 -0.4830
   30SOL    HW1   89   0.139   2.044   0.831  5.3732  0.4756 -1.5935
   30SOL    HW2   90   0.055   2.080   0.974 -0.8371 -0.0646  0.7954
   31SOL     OW   91   2.101   0.009   2.307 -0.2699  0.0948 -0.1498
   31SOL    HW1   92   2.086  -0.001   2.409  1.2452  0.3182 -1.1144
   31SOL    HW2   93   2.021  -0.030   2.252  1.6352  1.0396 -1.6693
   32SOL     OW   94   2.915   0.188   0.154  0.5411  0.2536  0.3420
   32SOL    HW1   95   2.874   0.101   0.205  0.9822 -1.5290  0.8306
   32SOL    HW2   96   3.000   0.227   0.193  0.9666 -0.5921 -0.0660
   33SOL     OW   97   0.938   0.329   0.493 -0.2242  0.1925  0.5940
   33SOL    HW1   98   0.888   0.243   0.462 -0.1425 -0.3589 -0.7828
   33SOL    HW2   99   1.008   0.309   0.571 -3.7337 -3.5549 -2.4993
   34SOL     OW  100   0.397   2.841   1.052 -0.2615 -0.0065 -1.4315
   34SOL    HW1  101   0.329   2.813   0.981  1.1212 -3.6699  0.7343
   34SOL    HW2  102   0.497   2.845   1.026 -1.6749  0.6083 -1.8054
   35SOL     OW  103   0.038   0.083   1.849  0.1425  1.0130  0.2238
   35SOL    HW1  104   0.097  -0.001   1.871 -1.6813  2.0694  1.4219
   35SOL    HW2  105  -0.008   0.081   1.754 -0.6554  1.0966  1.6315
   36SOL     OW  106   1.936   1.122   1.809  0.3298 -0.0663  0.3128
   36SOL    HW1  107   1.999   1.087   1.728 -2.4162 -1.4141  0.4507
   36SOL    HW2  108   1.985   1.195   1.869 -0.6256  1.0936  1.6531
   37SOL     OW  109   1.196   0.236   0.944 -0.4058 -0.5340  0.0693
   37SOL    HW1  110   1.239   0.315   0.993  0.6443 -0.0332 -1.9879
   37SOL    HW2  111   1.232   0.146   0.980  1.1211 -2.5510 -0.5241
   38SOL     OW  112   1.061   2.695   2.414 -0.0805  0.3900 -0.0983
   38SOL    HW1  113   1.035   2.595   2.439  3.4244 -0.6624  1.1898
   38SOL    HW2  114   0.985   2.754   2.433 -0.1122 -1.9944  0.4803
   39SOL     OW  115   2.312   1.388   3.004  0.5391 -0.2889 -0.5493
   39SOL    HW1  116   2.403   1.337   3.022  1.0407  0.3286  0.6818
   39SOL    HW2  117   2.245   1.365   3.080 -0.5546 -0.8461  1.6903
   40SOL     OW  118   2.095   2.529   2.519  0.3433 -0.3457  0.3630
   40SOL    HW1  119   2.047   2.598   2.585 -1.0256  1.7971  2.3178
   40SOL    HW2  120   2.034   2.458   2.465  0.4913 -3.9408 -3.0411
   41SOL     OW  121   2.924   0.694   2.750  0.1264 -0.1224  0.1450
   41SOL    HW1  122   2.840   0.754   2.765 -0.1367  3.0963  0.7354
   41SOL    HW2  123   2.908   0.592   2.747 -1.5119  0.0824 -3.3312
   42SOL     OW  124   1.763   1.765   0.571 -0.3095  0.4110 -0.0715
   42SOL    HW1  125   1.707   1.682   0.547  0.7393 -2.0961  0.2481
   42SOL    HW2  126   1.799   1.808   0.482  0.2853  2.2194  2.1057
   43SOL     OW  127   0.458   1.750   1.203  0.5430 -0.2790 -0.7351
   43SOL    HW1  128   0.433   1.714   1.297 -1.6278 -1.2207  0.0471
   43SOL    HW2  129   0.376   1.752   1.138  2.5067 -0.3376  0.3544
   44SOL     OW  130   1.781   2.540   0.010  0.1553 -0.6915 -0.3666
   44SOL    HW1  131   1.771   2.567  -0.090 -1.5842  0.1704 -2.0129
   44SOL    HW2  132   1.880   2.553   0.047  3.0141  1.7481  0.0674
   45SOL     OW  133   0.286   1.909   2.600  0.0089 -0.8103 -0.1294
   45SOL    HW1  134   0.224   1.884   2.523 -0.7081 -0.8134  1.1268
   45SOL    HW2  135   0.357   1.836   2.617 -0.8491 -0.0363  1.4364
   46SOL     OW  136   1.163   0.653   0.235  0.4753  0.3997 -0.3909
   46SOL    HW1  137   1.220   0.723   0.187  0.2343  2.3126  2.4744
   46SOL    HW2  138   1.061   0.672   0.246  1.1023  0.6144  1.6063
   47SOL     OW  139   0.214   2.439   1.604  0.1501 -0.1577  0.8508
   47SOL    HW1  140   0.294   2.376   1.609 -4.5443 -0.5311 -0.5458
   47SOL    HW2  141   0.180   2.455   1.507 -3.0839 -1.0915 -1.2231
   48SOL     OW  142   2.594   0.600   0.146  0.7822  0.3090 -0.2660
   48SOL    HW1  143   2.554   0.587   0.245 -3.6408 -2.8156 -0.6004
   48SOL    HW2  144   2.680   0.662   0.133 -4.1177 -0.5784 -1.9837
   49SOL     OW  145   0.358   0.804   1.743 -0.0177  0.0498 -0.2243
   49SOL    HW1  146   0.431   0.824   1.813  0.8927  0.5793 -2.2015
   49SOL    HW2  147   0.392   0.727   1.679  1.3354 -0.6122  1.8822
   50SOL     OW  148   1.694   1.088   0.376 -0.4654  0.4745 -0.3664
   50SOL    HW1  149   1.688   0.986   0.348 -0.5278 -4.7192 -0.6331
   50SOL    HW2  150   1.614   1.114   0.438 -1.0946  0.6856  0.1482
   51SOL     OW  151   2.994   1.892   0.334 -0.1863  0.4424 -0.5094
   51SOL    HW1  152   2.981   1.914   0.234  0.6119 -1.7510  0.6422
   51SOL    HW2  153   2.989   1.788   0.346 -1.7704  2.3147  0.6439
   52SOL     OW  154   0.790   1.967   0.495  0.1350 -0.6627  0.4198
   52SOL    HW1  155   0.703   2.003   0.536 -1.5716 -1.8322  0.1527
   52SOL    HW2  156   0.825   1.880   0.548 -0.6445  0.6860  1.3031
   53SOL     OW  157   3.089   0.356   1.560 -0.5295 -0.2207  0.0005
   53SOL    HW1  158   3.061   0.371   1.656  0.5596  1.8014 -0.6122
   53SOL    HW2  159   3.087   0.442   1.498  0.8164  2.6522 -0.9345
   54SOL     OW  160   1.746   0.479   3.056 -0.0860 -0.4260  0.5143
   54SOL    HW1  161   1.792   0.425   3.132  0.5574  1.9308 -1.0891
   54SOL    HW2  162   1.640   0.503   3.076 -1.0002 -0.6164  0.0986
   55SOL     OW  163   0.729   2.942   0.574  0.4566 -0.9214  0.3702
   55SOL    HW1  164   0.675   3.028   0.576 -1.2982 -2.2546 -0.8621
   55SOL    HW2  165   0.828   2.970   0.552 -2.7252 -0.1797 -1.1101
   56SOL     OW  166   0.456   1.567   3.020 -0.0120  0.0169  0.3634
   56SOL    HW1  167   0.387   1.632   3.067  0.8564  2.7798  0.0048
   56SOL    HW2  168   0.409   1.489   2.982 -2.6033  0.2267  0.2471
   57SOL     OW  169   1.815   2.435   2.682  0.1326  0.6798 -0.4304
   57SOL    HW1  170   1.853   2.432   2.586  1.0261 -0.0234 -0.2631
   57SOL    HW2  171   1.716   2.461   2.679  0.5192 -0.6118  1.1142
   58SOL     OW  172   0.643   0.421   1.120  0.2600 -0.4603 -0.2883
   58SOL    HW1  173   0.585   0.495   1.078  0.5028  1.6707  0.0232
   58SOL    HW2  174   0.615   0.322   1.108  1.9680 -0.2260  2.7149
   59SOL     OW  175   0.438   2.397   2.731 -0.0522 -0.2292  0.2646
   59SOL    HW1  176   0.443   2.297   2.693 -0.4373 -2.7930  0.5658
   59SOL    HW2  177   0.516   2.413   2.796 -1.5632 -2.5041  2.0510
   60SOL     OW  178   2.298   2.111   2.263 -0.1792 -0.0411 -0.6394
   60SOL    HW1  179   2.381   2.144   2.211 -0.4318  0.6124  0.9998
   60SOL    HW2  180   2.297   2.132   2.366  0.4685 -0.4802 -0.1758
   61SOL     OW  181   1.371   0.648   0.505 -0.3294  0.2818 -0.3392
   61SOL    HW1  182   1.283   0.679   0.557 -0.4667 -1.2627 -0.2148
   61SOL    HW2  183   1.348   0.619   0.407 -1.6390  0.4401  1.7752
   62SOL     OW  184   2.651   1.815   3.016  0.1000 -0.5141 -0.2667
   62SOL    HW1  185   2.639   1.720   3.052  1.3444 -1.5019 -1.5981
   62SOL    HW2  186   2.721   1.804   2.935  1.9685 -1.4628 -1.3847
   63SOL     OW  187   0.499   0.876   0.168  0.0915  0.6893 -0.0781
   63SOL    HW1  188   0.462   0.972   0.157 -1.4224 -0.0170  0.4879
   63SOL    HW2  189   0.587   0.878   0.219  0.3235 -1.2409 -0.2889
   64SOL     OW  190   0.078   0.517   2.527 -0.5828  0.0550  0.5000
   64SOL    HW1  191   0.016   0.543   2.606 -2.2531  2.1082  0.5086
   64SOL    HW2  192   0.101   0.599   2.470  3.7905  2.2091 -3.5037
   65SOL     OW  193   0.177   1.475   0.629 -0.2683  0.0480 -0.0868
   65SOL    HW1  194   0.196   1.547   0.701  3.5586 -0.5636 -1.0597
   65SOL    HW2  195   0.263   1.468   0.573 -2.8004 -0.2594  1.7427
   66SOL     OW  196   2.524   0.426   0.649  0.0669  0.3887 -0.4381
   66SOL    HW1  197   2.461   0.494   0.690  1.3114 -0.2566 -0.1363
   66SOL    HW2  198   2.515   0.330   0.694 -1.5369 -2.2800  0.8723
   67SOL     OW  199   0.500   2.494   1.416  0.1920 -0.5341  0.5343
   67SOL    HW1  200   0.554   2.465   1.499 -0.5744  0.4644  2.3336
   67SOL    HW2  201   0.454   2.419   1.365  1.4828 -0.3286  2.3603
   68SOL     OW  202   1.020   1.093   2.479 -0.7224 -0.5910 -0.3161
   68SOL    HW1  203   1.068   1.025   2.413  0.5492  1.4188 -0.2062
   68SOL    HW2  204   0.926   1.130   2.449  1.6109  3.8992 -0.2048
   69SOL     OW  205   0.748   2.751   2.153 -0.7803  0.5040  0.5925
   69SOL    HW1  206   0.805   2.671   2.195  1.1524  0.3185  0.1311
   69SOL    HW2  207   0.647   2.736   2.164  5.0597 -2.5019 -0.3082
   70SOL     OW  208   0.650   0.276   2.746 -0.2149  0.0152 -0.0599
   70SOL    HW1  209   0.694   0.330   2.826  1.2577  0.0929 -2.4246
   70SOL    HW2  210   0.594   0.191   2.774 -0.1896  1.7624 -0.7571
   71SOL     OW  211   1.128   1.797   0.336 -0.1498  0.3227 -0.2440
   71SOL    HW1  212   1.056   1.717   0.349  2.5592 -1.8520 -1.3648
   71SOL    HW2  213   1.140   1.829   0.240  0.1911 -0.3586  1.5536
   72SOL     OW  214   1.806   0.162   2.059 -0.5912 -0.3376  0.0101
   72SOL    HW1  215   1.858   0.172   1.969 -0.4365  0.5082 -2.4071
   72SOL    HW2  216   1.840   0.072   2.103 -1.3758 -1.4066 -0.1510
   73SOL     OW  217   2.742   2.204   2.526 -0.3621 -1.0210  0.0248
   73SOL    HW1  218   2.712   2.110   2.516  1.1911  4.1996  1.8714
   73SOL    HW2  219   2.789   2.222   2.620  2.4988 -1.7185 -0.9899
   74SOL     OW  220   2.736   2.972   2.012 -0.2360  0.3841 -0.4763
   74SOL    HW1  221   2.679   2.946   2.096 -1.9273 -3.0838  1.0329
   74SOL    HW2  222   2.833   2.986   2.042 -0.5130 -0.6895 -0.9025
   75SOL     OW  223   0.909   0.757   1.033  0.0321  0.2155 -0.0895
   75SOL    HW1  224   0.826   0.811   1.007 -2.5583  2.7422 -0.5712
   75SOL    HW2  225   0.964   0.797   1.108 -0.0945 -1.5327 -2.0711
   76SOL     OW  226   1.744   1.235   2.578  0.0202 -0.3257 -0.1480
   76SOL    HW1  227   1.643   1.209   2.561 -3.4755 -0.7995 -0.3443
   76SOL    HW2  228   1.755   1.305   2.655  1.2380 -0.3064 -2.9626
   77SOL     OW  229   2.923   0.974   0.986 -0.6294 -0.4956 -0.9667
   77SOL    HW1  230   2.895   0.878   0.958  0.7180 -0.3770  3.3022
   77SOL    HW2  231   2.962   0.983   1.084 -0.5524 -2.6010 -0.4597
   78SOL     OW  232   1.996   1.421   1.502  1.1228  0.2015 -0.2017
   78SOL    HW1  233   2.097   1.424   1.475 -1.5110 -0.1761 -2.9819
   78SOL    HW2  234   1.938   1.387   1.426  0.7460  2.4664  2.2914
   79SOL     OW  235   0.588   1.349   0.824 -0.5684 -0.2717 -0.2844
   79SOL    HW1  236   0.496   1.380   0.869 -1.7951  0.2724  0.4498
   79SOL    HW2  237   0.575   1.309   0.730 -0.1231 -0.0433 -1.1187
   80SOL     OW  238   0.655   0.489   1.584  0.2946 -0.0562  0.1635
   80SOL    HW1  239   0.707   0.554   1.524 -1.3926  0.3360 -0.2954
   80SOL    HW2  240   0.702   0.397   1.590  2.5684  0.9113  0.5569
   81SOL     OW  241   1.004   1.367   2.609  0.8652  0.1139 -0.0947
   81SOL    HW1  242   1.027   1.269   2.600 -3.5860  1.0585 -0.3035
   81SOL    HW2  243   0.947   1.407   2.526 -0.5940  1.0255 -1.1363
   82SOL     OW  244   0.976   2.960   1.529  0.3892 -0.2391 -0.3370
   82SOL    HW1  245   1.040   2.929   1.452  0.4237  1.6390 -1.7045
   82SOL    HW2  246   0.872   2.937   1.505 -0.7705  2.9685 -1.1727
   83SOL     OW  247   2.686   2.456   0.785 -0.8793  0.0707  0.3557
   83SOL    HW1  248   2.600   2.403   0.762 -3.0038  2.9647 -0.4626
   83SOL    HW2  249   2.683   2.554   0.762  1.6202 -3.0656  2.3613
   84SOL     OW  250   0.711   3.086   2.379  0.6316 -0.1558 -0.4609
   84SOL    HW1  251   0.642   3.026   2.425  0.2209  1.2145 -0.6666
   84SOL    HW2  252   0.787   3.107   2.446  2.0166 -0.8697  2.3360
   85SOL     OW  253   0.411   1.674   1.532 -0.5076 -0.3777  0.6035
   85SOL    HW1  254   0.352   1.759   1.524  0.9077 -1.0346 -1.3924
   85SOL    HW2  255   0.427   1.647   1.632  0.8655  0.1284 -1.8527
   86SOL     OW  256   0.363   0.983   1.515 -0.0128 -0.3632  0.1725
   86SOL    HW1  257   0.365   0.926   1.430  0.1337  0.1376  1.1978
   86SOL    HW2  258   0.381   0.925   1.598 -0.5703  0.6745  0.3327
   87SOL     OW  259   1.527   0.644   0.255 -0.1519 -0.0165  0.6807
   87SOL    HW1  260   1.604   0.714   0.265  0.7038  0.4197 -0.9285
   87SOL    HW2  261   1.514   0.601   0.164  0.7603 -0.1532  2.5325
   88SOL     OW  262   1.569   1.319   0.191  0.0765  0.4898  0.0109
   88SOL    HW1  263   1.615   1.255   0.261 -1.6433  0.7492  2.1122
   88SOL    HW2  264   1.480   1.346   0.233 -0.3728 -1.4103  0.7992
   89SOL     OW  265   0.023   0.452   0.555  0.6613  0.0124  0.3181
   89SOL    HW1  266   0.095   0.375   0.564  0.7485 -0.7793  0.9653
   89SOL    HW2  267  -0.068   0.412   0.536  3.4568  1.6506  0.7538
   90SOL     OW  268   0.949   1.615   3.013 -0.3187 -0.6285  0.1623
   90SOL    HW1  269   0.863   1.601   3.073  0.4301 -0.4314  1.0832
   90SOL    HW2  270   0.922   1.644   2.916  0.7951  0.8509 -1.6303
   91SOL     OW  271   1.272   1.475   1.788  0.4716 -0.8291  0.1501
   91SOL    HW1  272   1.267   1.568   1.836  0.6421  1.3692  1.5160
   91SOL    HW2  273   1.368   1.444   1.770  0.3956  1.1477  0.3903
   92SOL     OW  274   3.058   1.039   1.220  0.1896  0.2827  0.8744
   92SOL    HW1  275   3.123   1.111   1.184 -1.2008  1.1050 -2.3256
   92SOL    HW2  276   3.088   0.991   1.307 -1.5083  0.2059 -0.0813
   93SOL     OW  277   3.089   2.749   0.067 -0.2559  0.3568  0.3538
   93SOL    HW1  278   3.070   2.748  -0.037 -2.0648  0.5488 -1.2173
   93SOL    HW2  279   3.147   2.670   0.108  1.7932 -0.7825  3.4782
   94SOL     OW  280   1.529   1.410   1.697 -0.4908  0.3132 -0.0975
   94SOL    HW1  281   1.577   1.318   1.709 -1.2572  1.0658  1.2594
   94SOL    HW2  282   1.572   1.487   1.753  1.3458 -0.1522 -0.0676
   95SOL     OW  283   1.301   2.504   2.980  0.2260  0.5887  0.1004
   95SOL    HW1  284   1.229   2.484   3.060 -1.5193  2.1319 -0.5240
   95SOL    HW2  285   1.330   2.416   2.930  0.6335  1.5519  0.3625
   96SOL     OW  286   0.583   2.018   1.184  0.4452  0.2288  0.3227
   96SOL    HW1  287   0.535   2.023   1.089 -2.3424  0.0318 -0.6742
   96SOL    HW2  288   0.541   1.933   1.232 -1.5386  0.4624  0.6124
   97SOL     OW  289   0.375   1.526   2.530 -0.0449  0.3360 -0.4470
   97SOL    HW1  290   0.275   1.542   2.541  1.1511  1.6660  1.7362
   97SOL    HW2  291   0.426   1.601   2.584 -0.7499  2.0832  2.2089
   98SOL     OW  292   1.977   1.618   1.278  0.0489 -0.2326  0.1464
   98SOL    HW1  293   1.916   1.616   1.189 -3.3308 -0.9990 -2.7381
   98SOL    HW2  294   2.039   1.537   1.285  0.1843  0.5606 -1.6274
   99SOL     OW  295   2.485   2.123   1.372 -0.4908 -0.7074  0.6936
   99SOL    HW1  296   2.475   2.143   1.472  2.2729 -3.0582  0.8736
   99SOL    HW2  297   2.477   2.024   1.345 -0.4577  1.3252 -0.1211
  100SOL     OW  298   2.309   0.381   2.045 -0.1298 -0.1714  0.7592
  100SOL    HW1  299   2.250   0.348   2.126  0.4141  1.2039 -1.6623
  100SOL    HW2  300   2.403   0.402   2.076 -4.2483  1.7038  0.5976
  101SOL     OW  301   0.385   1.486   0.271  0.6487  0.0029  0.3408
  101SOL    HW1  302   0.407   1.518   0.368  1.7707 -0.4104 -1.8047
  101SOL    HW2  303   0.400   1.565   0.203 -0.3950 -1.3370 -0.3041
  102SOL     OW  304   2.307   1.046   0.813  0.1753 -0.4675  0.0384
  102SOL    HW1  305   2.209   1.006   0.800 -1.7542 -0.2024 -0.1512
  102SOL    HW2  306   2.341   1.109   0.743  0.7954 -2.8836  3.4954
  103SOL     OW  307   2.298   0.047   0.401  0.1890  0.3857 -0.1906
  103SOL    HW1  308   2.355   0.110   0.343  3.6932 -3.6569  1.4831
  103SOL    HW2  309   2.357  -0.006   0.471  0.8203 -1.1794  0.5709
  104SOL     OW  310   0.071   1.823   2.117  0.1692 -1.0769  0.1246
  104SOL    HW1  311   0.079   1.776   2.022  3.8709 -1.9538 -1.7086
  104SOL    HW2  312  -0.023   1.847   2.154  2.9203  0.1962 -0.7112
  105SOL     OW  313   1.237   1.985   0.788  0.4364  0.1429 -0.1978
  105SOL    HW1  314   1.176   2.014   0.710  0.2917  1.3734  0.2546
  105SOL    HW2  315   1.275   1.888   0.774 -1.2816 -0.9703 -0.0745
  106SOL     OW  316   2.102   0.496   1.389  0.7532  0.9742 -0.2136
  106SOL    HW1  317   2.042   0.417   1.420 -0.2903  0.7755 -0.3681
  106SOL    HW2  318   2.093   0.578   1.454 -2.5236  0.8040  2.0188
  107SOL     OW  319   1.808   3.004   1.086  0.1876 -0.3145  0.3194
  107SOL    HW1  320   1.834   3.091   1.140 -1.6617  0.6720 -0.6694
  107SOL    HW2  321   1.737   2.950   1.134  0.1467  2.4405  0.0835
  108SOL     OW  322   0.807   2.729   1.285  0.5562  0.2720 -0.4444
  108SOL    HW1  323   0.775   2.764   1.378  0.0626 -1.9087 -1.5982
  108SOL    HW2  324   0.902   2.687   1.287 -0.5711  3.0537 -1.5934
  109SOL     OW  325   2.187   0.110   0.807  0.1449  0.1288 -0.8592
  109SOL    HW1  326   2.106   0.071   0.755  0.6035  2.6022 -0.6521
  109SOL    HW2  327   2.190   0.092   0.911  0.1716 -1.2799 -2.5587
  110SOL     OW  328   0.452   2.810   2.683 -0.4110 -0.2936 -0.0371
  110SOL    HW1  329   0.424   2.839   2.590  0.0976  0.7969  0.9118
  110SOL    HW2  330   0.542   2.764   2.687 -1.8907 -1.8799 -0.5663
  111SOL     OW  331   1.310   0.526   2.255  0.3628 -0.5895 -0.6422
  111SOL    HW1  332   1.237   0.586   2.301 -0.7489  0.2823  0.0467
  111SOL    HW2  333   1.356   0.455   2.315  1.8881  1.3373  1.7334
  112SOL     OW  334   1.749   0.515   1.432 -0.1184  0.0391  0.5718
  112SOL    HW1  335   1.756   0.506   1.328  2.4877  3.0183  0.0121
  112SOL    HW2  336   1.721   0.425   1.480  1.9607  0.4665 -1.0573
  113SOL     OW  337   2.303   1.636   1.729 -0.4402 -0.3281 -0.0917
  113SOL    HW1  338   2.345   1.545   1.705 -1.7997  2.2840 -0.9415
  113SOL    HW2  339   2.308   1.666   1.830 -0.3196 -1.8963  2.1726
  114SOL     OW  340   0.305   0.541   1.301 -0.1921  0.1053 -0.6087
  114SOL    HW1  341   0.293   0.632   1.259  0.7485  0.0713  0.6374
  114SOL    HW2  342   0.249   0.470   1.253  1.1686 -1.5146 -1.7879
  115SOL     OW  343   2.622   1.570   1.209 -0.5564  0.8802 -0.4556
  115SOL    HW1  344   2.666   1.485   1.256 -0.3283 -0.9595 -0.9084
  115SOL    HW2  345   2.686   1.606   1.135 -1.4344  0.6161  1.5166
  116SOL     OW  346   1.810   1.038   0.797  0.3004 -0.0438 -0.4298
  116SOL    HW1  347   1.728   0.989   0.758  1.6329  3.3164  1.4571
  116SOL    HW2  348   1.796   1.140   0.800 -1.5711 -0.7076 -0.7365
  117SOL     OW  349   1.109   0.338   0.718  0.1601  0.2623 -0.3408
  117SOL    HW1  350   1.145   0.298   0.809 -0.2209 -1.4042  0.4647
  117SOL    HW2  351   1.140   0.434   0.696  0.5486 -1.5649  1.1522
  118SOL     OW  352   1.112   1.119   1.131 -0.0990  0.3712 -0.4598
  118SOL    HW1  353   1.059   1.047   1.184 -1.9753 -2.0623 -0.1678
  118SOL    HW2  354   1.115   1.207   1.189 -2.4253 -1.9500 -1.6658
  119SOL     OW  355   1.820   1.607   2.112  0.0358 -0.7414  0.2764
  119SOL    HW1  356   1.790   1.698   2.145  0.7768  2.3473  1.0829
  119SOL    HW2  357   1.928   1.605   2.117  1.4660  0.4921  1.2757
  120SOL     OW  358   2.968   2.807   0.301 -0.0524  0.2845 -0.5148
  120SOL    HW1  359   3.023   2.810   0.216 -1.2582  1.8444  1.2755
  120SOL    HW2  360   2.995   2.725   0.359  1.1161 -1.6003  0.1000
  121SOL     OW  361   1.985   0.717   2.228 -0.0803  0.1325  0.2864
  121SOL    HW1  362   2.026   0.752   2.138 -3.3027 -0.5068  0.4255
  121SOL    HW2  363   1.976   0.614   2.230  2.6955 -1.1514  0.7329
  122SOL     OW  364   2.718   2.631   1.303 -0.3016  0.8929  0.1824
  122SOL    HW1  365   2.744   2.577   1.223  0.3356 -0.0817  0.4017
  122SOL    HW2  366   2.637   2.592   1.353  2.7823  2.3931 -1.2794
  123SOL     OW  367   1.740   0.072   1.718 -0.1292  0.2667 -0.2243
  123SOL    HW1  368   1.758  -0.019   1.674  2.5156  0.8635  0.7230
  123SOL    HW2  369   1.825   0.105   1.763  0.2784  1.7258  0.9025
  124SOL     OW  370   0.109   0.495   1.085  0.1418  0.0538  0.4846
  124SOL    HW1  371   0.111   0.588   1.130  1.0816  1.9114  2.0940
  124SOL    HW2  372   0.092   0.495   0.978 -1.2983  0.0190 -4.0928
  125SOL     OW  373   0.910   1.750   0.647 -0.7799 -0.6329 -0.5861
  125SOL    HW1  374   1.011   1.730   0.637  0.7769 -0.0504 -1.4353
  125SOL    HW2  375   0.886   1.795   0.739  0.0331  2.5511 -1.0154
  126SOL     OW  376   1.922   2.361   2.409 -0.2031  0.1692  0.5322
  126SOL    HW1  377   1.975   2.281   2.368  0.1167  0.0844 -0.5243
  126SOL    HW2  378   1.820   2.342   2.402 -0.6622  0.9728  0.5238
  127SOL     OW  379   0.784   0.965   0.243  0.3375 -0.2351  0.3294
  127SOL    HW1  380   0.827   0.991   0.334 -2.7594  0.4564  2.2477
  127SOL    HW2  381   0.832   0.883   0.207  2.6878 -0.0321  1.7600
  128SOL     OW  382   0.945   0.171   1.408  0.1935  0.4259 -0.5195
  128SOL    HW1  383   0.919   0.254   1.352  3.4595 -2.0680 -0.2501
  128SOL    HW2  384   0.864   0.113   1.438 -0.4275  1.1867 -1.5683
  129SOL     OW  385   1.896   0.668   1.850 -0.2311  0.1879  0.1026
  129SOL    HW1  386   1.911   0.689   1.744 -0.0531  1.5877  1.2493
  129SOL    HW2  387   1.891   0.758   1.895 -1.0604 -0.7686  0.8361
  130SOL     OW  388   1.309   2.167   1.018 -0.0964  0.8503 -0.5637
  130SOL    HW1  389   1.305   2.088   0.951  0.2318  0.3196 -0.8918
  130SOL    HW2  390   1.334   2.261   0.977 -0.9009  0.0658  2.1792
  131SOL     OW  391   0.015   1.504   1.386  0.1726  0.1608  0.4583
  131SOL    HW1  392  -0.037   1.413   1.383  1.3295  1.4874  0.2933
  131SOL    HW2  393   0.116   1.497   1.407 -0.3244 -2.3716  0.5746
  132SOL     OW  394   2.007   2.414   0.536 -0.3003 -0.5946 -0.2087
  132SOL    HW1  395   1.901   2.420   0.531 -1.6813 -0.1005 -2.0503
  132SOL    HW2  396   2.051   2.400   0.632  0.6358  0.2847  2.4414
  133SOL     OW  397   1.866   2.269   2.878  0.1504  0.1292 -0.5514
  133SOL    HW1  398   1.925   2.320   2.951  2.0228  3.0481 -1.0983
  133SOL    HW2  399   1.856   2.323   2.789 -0.2703 -1.6418  1.8332
  134SOL     OW  400   2.735   2.350   1.626  0.0170 -0.0925 -0.1082
  134SOL    HW1  401   2.687   2.336   1.718  1.5734 -0.8474  1.2710
  134SOL    HW2  402   2.799   2.432   1.616 -0.3301  0.1448 -1.3737
  135SOL     OW  403   0.730   1.537   2.593 -0.1388  0.8559  0.0111
  135SOL    HW1  404   0.675   1.453   2.630 -2.1564 -2.3308 -1.5337
  135SOL    HW2  405   0.766   1.525   2.503  0.7429 -0.7243 -2.6619
  136SOL     OW  406   1.190   2.029   0.444  0.0420  0.2386 -0.3413
  136SOL    HW1  407   1.126   2.061   0.520  0.9557  2.4412 -0.5746
  136SOL    HW2  408   1.164   1.937   0.408  0.3208 -0.2062 -2.0322
  137SOL     OW  409   0.411   1.107   2.123  0.3970  0.0909 -0.6839
  137SOL    HW1  410   0.311   1.106   2.157 -1.8812  2.4628  0.8728
  137SOL    HW2  411   0.481   1.074   2.192 -0.3359 -0.9892 -0.2674
  138SOL     OW  412   2.437   1.492   0.191 -0.2674 -0.0059  0.2449
  138SOL    HW1  413   2.347   1.456   0.152 -1.5130  0.0157 -0.5828
  138SOL    HW2  414   2.477   1.428   0.266 -1.9473 -0.9394  2.5271
  139SOL     OW  415   1.810   2.656   1.210  0.3286 -0.3013  0.4655
  139SOL    HW1  416   1.723   2.609   1.173  0.7808  0.4407 -0.8745
  139SOL    HW2  417   1.855   2.599   1.286 -0.6152  2.1731 -1.2074
  140SOL     OW  418   2.984   2.969   2.517  0.3287 -0.0041  1.0935
  140SOL    HW1  419   3.040   2.885   2.509 -3.7620 -2.1309  0.6894
  140SOL    HW2  420   3.032   3.053   2.558 -0.2328 -0.9039 -0.8387
  141SOL     OW  421   1.223   1.672   1.605 -0.4169  0.5208 -0.0062
  141SOL    HW1  422   1.150   1.739   1.645 -3.2161  0.6416  0.3460
  141SOL    HW2  423   1.242   1.594   1.671 -1.3098 -1.5608  1.6218
  142SOL     OW  424   1.605   0.632   2.224  0.2451  0.2643 -0.3783
  142SOL    HW1  425   1.634   0.600   2.134 -1.2670 -1.1892  2.6563
  142SOL    HW2  426   1.504   0.633   2.238 -1.2384 -0.2808 -0.5516
  143SOL     OW  427   2.725   0.875   0.502  0.2072  0.1441  0.1322
  143SOL    HW1  428   2.744   0.890   0.400  2.1918 -3.8426 -1.5204
  143SOL    HW2  429   2.766   0.943   0.564  0.1284 -1.2560  2.2331
  144SOL     OW  430   2.989   1.282   1.365  0.4668 -0.5507  0.3151
  144SOL    HW1  431   2.956   1.239   1.455  1.9993  0.8652  1.0945
  144SOL    HW2  432   3.001   1.207   1.294  0.9313 -0.2326  0.4472
  145SOL     OW  433   1.027   1.845   0.069 -0.5039 -0.3282  0.2397
  145SOL    HW1  434   1.010   1.905  -0.013  0.0774 -2.2054  1.5587
  145SOL    HW2  435   1.020   1.743   0.051 -0.1101 -0.6978  0.4226
  146SOL     OW  436   2.449   0.633   1.544 -1.0809 -0.0197  0.4107
  146SOL    HW1  437   2.427   0.548   1.487  2.0107 -0.7736  2.0245
  146SOL    HW2  438   2.397   0.717   1.509 -1.5087  4.2735  0.1341
  147SOL     OW  439   1.078   2.488   0.586  0.5211 -0.3184 -0.2903
  147SOL    HW1  440   1.040   2.538   0.505 -0.3875 -1.5859 -3.0740
  147SOL    HW2  441   1.169   2.447   0.572 -1.5395 -0.3863  1.5172
  148SOL     OW  442   1.637   1.471   3.063  0.3356  0.2176 -0.2358
  148SOL    HW1  443   1.662   1.414   2.982 -1.2853  1.8192 -1.1075
  148SOL    HW2  444   1.597   1.421   3.146 -2.3451  2.9259  0.8979
  149SOL     OW  445   0.674   1.416   1.929 -0.6018  0.2852 -0.1347
  149SOL    HW1  446   0.609   1.388   2.006 -1.5696 -0.5922 -0.1437
  149SOL    HW2  447   0.730   1.337   1.885 -0.9092 -2.5218 -1.0342
  150SOL     OW  448   2.973   1.250   0.914  0.4670 -0.4286  0.2420
  150SOL    HW1  449   3.039   1.278   0.993 -1.9980  2.1415  2.1828
  150SOL    HW2  450   2.935   1.156   0.930 -0.2944  0.6677 -0.9180
  151SOL     OW  451   0.185   0.770   2.135 -0.4611  0.3583 -0.9645
  151SOL    HW1  452   0.173   0.850   2.079  1.7972 -1.5157  0.8170
  151SOL    HW2  453   0.242   0.699   2.091  0.1562  0.3550  1.7833
  152SOL     OW  454   1.363   1.725   1.254 -0.5675 -0.1294 -0.1196
  152SOL    HW1  455   1.372   1.774   1.346 -0.6184 -0.1190  0.6721
  152SOL    HW2  456   1.265   1.714   1.229  0.0190 -2.5468 -0.8058
  153SOL     OW  457   0.036   1.544   0.169 -0.2561  0.2546  0.0941
  153SOL    HW1  458   0.009   1.442   0.183  2.0991  0.3353 -1.3871
  153SOL    HW2  459   0.054   1.596   0.256  0.3812  0.0819 -1.5958
  154SOL     OW  460   2.367   1.848   2.825 -0.3240 -0.0832 -0.0623
  154SOL    HW1  461   2.383   1.744   2.837 -0.4818 -2.2652 -1.2445
  154SOL    HW2  462   2.428   1.889   2.753  1.7765  3.5862  0.7040
  155SOL     OW  463   2.496   1.274   0.334 -0.2390 -0.0679  0.4186
  155SOL    HW1  464   2.575   1.252   0.275 -2.7198  1.4014  1.8472
  155SOL    HW2  465   2.409   1.231   0.311  0.5994  2.4047  1.0760
  156SOL     OW  466   2.544   0.945   0.871 -0.0349  0.1797 -0.2904
  156SOL    HW1  467   2.442   0.950   0.847 -1.6369 -2.2527  0.7753
  156SOL    HW2  468   2.584   1.042   0.876  1.6476 -2.3631  0.1328
  157SOL     OW  469   1.189   2.978   2.975 -0.1621 -0.1554 -0.3500
  157SOL    HW1  470   1.248   2.939   2.899  0.1012  0.1964 -2.9105
  157SOL    HW2  471   1.210   3.078   2.981 -0.8795  0.6197  3.3278
  158SOL     OW  472   1.030   1.840   1.992 -0.2819 -0.0549 -0.4078
  158SOL    HW1  473   1.052   1.939   2.017  1.3413  1.0295 -4.6488
  158SOL    HW2  474   0.949   1.801   2.040  2.6771 -0.7628 -0.5637
  159SOL     OW  475   0.861   0.429   1.294 -0.0340  0.3684  0.6337
  159SOL    HW1  476   0.841   0.511   1.358  1.3077  2.2959 -1.0970
  159SOL    HW2  477   0.785   0.418   1.224  1.3807 -1.6225 -1.2358
  160SOL     OW  478   1.471   2.481   1.636 -0.2472 -0.0711 -0.0610
  160SOL    HW1  479   1.501   2.577   1.616  0.3941 -2.4977 -1.3066
  160SOL    HW2  480   1.534   2.412   1.600 -1.0956  1.6578 -0.1158
  161SOL     OW  481   0.188   2.899   0.345  0.1217  0.2433 -0.7963
  161SOL    HW1  482   0.125   2.833   0.394 -1.7548 -3.1063  2.3744
  161SOL    HW2  483   0.155   2.980   0.293 -1.0549 -0.5500  1.0684
  162SOL     OW  484   2.602   1.911   0.513 -0.1702  0.2819 -0.7763
  162SOL    HW1  485   2.573   1.869   0.423  1.9310  2.6340 -2.3556
  162SOL    HW2  486   2.589   1.855   0.604 -0.5394  1.3384  1.5382
  163SOL     OW  487   1.957   2.663   0.707 -0.2341  0.4597 -0.2757
  163SOL    HW1  488   1.895   2.698   0.633  1.4179  0.8867 -1.3740
  163SOL    HW2  489   2.045   2.620   0.675 -0.3596 -1.4471  1.7169
  164SOL     OW  490   3.046   0.285   1.243  0.0463 -0.2679  0.7848
  164SOL    HW1  491   3.098   0.334   1.168  1.3210  1.3978  0.1135
  164SOL    HW2  492   3.087   0.296   1.335  1.2246 -2.1364  1.3970
  165SOL     OW  493   0.978   1.443   0.682 -0.6214 -0.6760  0.0496
  165SOL    HW1  494   0.910   1.441   0.765 -0.9127  1.3942 -0.8494
  165SOL    HW2  495   0.948   1.508   0.604  3.0078  1.4366 -2.1077
  166SOL     OW  496   1.467   1.066   1.760  0.2061 -0.1990 -0.2379
  166SOL    HW1  497   1.388   1.023   1.812  2.4152 -2.6306  0.9387
  166SOL    HW2  498   1.544   1.105   1.815  2.8616  0.3591  0.5282
  167SOL     OW  499   0.832   1.925   1.532 -0.1118  0.1760  0.3344
  167SOL    HW1  500   0.792   1.966   1.618 -0.3657 -0.3562  0.5640
  167SOL    HW2  501   0.773   1.849   1.487  1.7526 -3.4115  0.9091
  168SOL     OW  502   1.609   2.388   0.166  0.5332 -0.2737 -0.0077
  168SOL    HW1  503   1.686   2.427   0.104 -0.5159 -0.1743 -1.9855
  168SOL    HW2  504   1.648   2.326   0.243  1.2441 -0.0448 -2.3957
  169SOL     OW  505   0.214   2.603   2.214  0.8779 -0.0707 -0.0877
  169SOL    HW1  506   0.284   2.549   2.155  3.3798 -1.0414 -2.6294
  169SOL    HW2  507   0.182   2.545   2.295 -1.3872 -2.2947 -0.9125
  170SOL     OW  508   1.246   0.280   1.913 -0.3264 -0.0149 -0.1831
  170SOL    HW1  509   1.286   0.259   2.007 -1.9957  0.1233  1.0013
  170SOL    HW2  510   1.217   0.200   1.854 -0.8271  2.0114  1.1042
  171SOL     OW  511   0.220   0.756   2.421 -0.3861  0.2513 -0.0792
  171SOL    HW1  512   0.137   0.784   2.471  1.4409  0.1245 -0.7076
  171SOL    HW2  513   0.219   0.757   2.319  0.7415 -2.4782 -1.6178
  172SOL     OW  514   0.869   1.146   2.949  0.4577  0.2295  0.9715
  172SOL    HW1  515   0.962   1.181   2.984  3.0710  0.9427  0.6004
  172SOL    HW2  516   0.864   1.142   2.845  0.9148 -0.0095 -0.5495
  173SOL     OW  517   0.643   2.673   0.139  0.2227  0.4848 -0.2670
  173SOL    HW1  518   0.621   2.770   0.104 -0.5904 -1.2196 -2.1274
  173SOL    HW2  519   0.556   2.613   0.152 -2.8154  0.9428  1.2244
  174SOL     OW  520   1.395   2.811   1.046 -0.0260  0.1545 -0.1735
  174SOL    HW1  521   1.402   2.891   0.979 -1.2218 -0.5502  2.3974
  174SOL    HW2  522   1.334   2.732   1.004 -0.3095 -0.5928 -1.3021
  175SOL     OW  523   0.449   0.018   1.668  0.7263  0.4846 -0.0685
  175SOL    HW1  524   0.485   0.078   1.744  0.4020  1.9332  0.7894
  175SOL    HW2  525   0.386   0.074   1.607  0.3506 -1.4689 -2.8670
  176SOL     OW  526   2.503   0.428   3.063 -0.0549 -0.0662  0.2615
  176SOL    HW1  527   2.541   0.494   3.134  0.4386  1.6359  0.0002
  176SOL    HW2  528   2.428   0.352   3.076  0.0779 -0.2074  0.6293
  177SOL     OW  529   0.375   0.326   0.942 -0.5022 -0.4625  0.0288
  177SOL    HW1  530   0.414   0.261   1.019  2.6691 -4.2820 -1.1772
  177SOL    HW2  531   0.290   0.379   0.976 -2.2515 -0.0608  0.2803
  178SOL     OW  532   0.052   2.711   2.578  0.0869  0.3685  0.0558
  178SOL    HW1  533  -0.020   2.646   2.613 -2.0579  0.2929 -1.5690
  178SOL    HW2  534   0.121   2.741   2.650  0.7859 -0.2496 -2.7715
  179SOL     OW  535   0.021   1.717   1.165 -0.0901 -0.0580 -0.1839
  179SOL    HW1  536  -0.029   1.805   1.147  0.1387  1.1963  1.4673
  179SOL    HW2  537  -0.011   1.676   1.260 -2.1647  1.5470  2.9810
  180SOL     OW  538   0.217   1.223   1.817  0.1163 -0.6944 -0.1495
  180SOL    HW1  539   0.325   1.234   1.824  3.3711 -2.1344 -0.2070
  180SOL    HW2  540   0.166   1.283   1.880 -0.8027 -3.3425  0.8218
  181SOL     OW  541   3.045   1.840   2.565 -0.1228  0.1930 -0.3495
  181SOL    HW1  542   3.102   1.911   2.524 -2.0196  1.1516 -0.4930
  181SOL    HW2  543   2.938   1.842   2.548  3.8235  0.1755  1.3885
  182SOL     OW  544   2.327   1.263   1.154 -0.1774  0.3756 -0.5588
  182SOL    HW1  545   2.231   1.241   1.113 -0.4856  2.2592 -0.0301
  182SOL    HW2  546   2.340   1.367   1.155 -0.0182 -2.6333 -0.4150
  183SOL     OW  547   1.503   2.285   2.521 -0.0879  0.4376 -0.3069
  183SOL    HW1  548   1.434   2.213   2.530  0.2781  0.2222 -1.1883
  183SOL    HW2  549   1.597   2.252   2.506 -5.0090  1.0175  1.2710
  184SOL     OW  550   2.075   0.934   0.808 -0.1593 -0.0231 -0.1372
  184SOL    HW1  551   1.982   0.982   0.814  0.2766  1.2033 -2.1217
  184SOL    HW2  552   2.071   0.838   0.842  1.0285  2.5884 -0.1185
  185SOL     OW  553   1.635   2.671   2.100 -0.5089  0.0075 -0.3935
  185SOL    HW1  554   1.557   2.723   2.064  0.6979  2.4858  0.7235
  185SOL    HW2  555   1.642   2.687   2.203  0.7936  0.9375 -1.1858
  186SOL     OW  556   0.091   2.204   1.721 -0.7727  0.4473 -0.3238
  186SOL    HW1  557   0.138   2.300   1.731  1.2227  1.0412  0.2268
  186SOL    HW2  558   0.156   2.125   1.700 -1.4423 -1.3837 -1.3970
  187SOL     OW  559   1.376   0.711   1.681 -0.1440  0.6707  0.1814
  187SOL    HW1  560   1.415   0.759   1.601 -1.7219 -2.0595  1.1786
  187SOL    HW2  561   1.386   0.766   1.766  2.0544  3.5719 -1.0837
  188SOL     OW  562   2.782   2.785   1.515  0.3516 -0.3646 -0.5590
  188SOL    HW1  563   2.751   2.885   1.500  1.0338  0.7240 -0.2850
  188SOL    HW2  564   2.768   2.732   1.423  0.7318 -0.9215 -1.8365
  189SOL     OW  565   0.848   1.002   1.397  0.3294  0.4077 -0.2989
  189SOL    HW1  566   0.932   1.053   1.439  3.2094  0.1135  0.3869
  189SOL    HW2  567   0.792   1.051   1.320 -0.0113  0.9673  0.4016
  190SOL     OW  568   1.507   1.791   1.574 -0.2883  1.8140  0.2338
  190SOL    HW1  569   1.402   1.793   1.587 -0.1783  0.5011  2.7258
  190SOL    HW2  570   1.560   1.803   1.661  2.8900 -1.0596 -2.3750
  191SOL     OW  571   0.998   0.763   1.556 -0.1324 -0.1197  0.1648
  191SOL    HW1  572   1.061   0.681   1.569  2.1356  1.0831 -1.4183
  191SOL    HW2  573   1.055   0.850   1.553  0.2896 -1.4862  0.3307
  192SOL     OW  574   1.834   2.307   1.177  0.1706  0.5461 -0.1608
  192SOL    HW1  575   1.780   2.241   1.116 -0.3229 -1.1256  0.8078
  192SOL    HW2  576   1.909   2.352   1.121 -0.0824 -2.8802  0.9186
  193SOL     OW  577   0.504   0.565   0.401 -0.5374  0.5783 -0.0108
  193SOL    HW1  578   0.509   0.471   0.445  2.9520  0.3643  1.6286
  193SOL    HW2  579   0.504   0.552   0.298  1.9792 -0.2976  2.6950
  194SOL     OW  580   0.308   0.823   1.238 -0.3488 -0.5157  0.6656
  194SOL    HW1  581   0.208   0.817   1.218 -0.6353 -0.4237  0.2179
  194SOL    HW2  582   0.351   0.896   1.173  0.4647  2.1465  0.3894
  195SOL     OW  583   0.955   2.923   0.434 -0.1097  0.2234 -0.3197
  195SOL    HW1  584   0.970   2.817   0.420  0.4180  1.3052 -0.5573
  195SOL    HW2  585   1.049   2.976   0.451  1.1853 -1.9482  3.0871
  196SOL     OW  586   0.286   1.452   1.425  0.2072 -0.1022  0.1505
  196SOL    HW1  587   0.331   1.531   1.474 -0.8596 -0.2444 -1.0021
  196SOL    HW2  588   0.257   1.377   1.490  1.0593  1.3981  0.4110
  197SOL     OW  589   0.916   2.028   0.223  0.9560  0.2030 -0.9435
  197SOL    HW1  590   0.910   1.998   0.321  2.1878  1.1859 -1.0787
  197SOL    HW2  591   0.966   1.957   0.163 -1.6454  0.8532 -0.3779
  198SOL     OW  592   0.254   1.262   0.262 -0.5087 -0.1450  0.3043
  198SOL    HW1  593   0.159   1.246   0.219  1.8841  0.1094  1.7481
  198SOL    HW2  594   0.296   1.358   0.250  0.7941 -0.9634 -0.3455
  199SOL     OW  595   2.262   0.371   2.506 -0.0692  0.3526 -0.2366
  199SOL    HW1  596   2.172   0.368   2.567 -2.7586 -1.0027  0.9945
  199SOL    HW2  597   2.345   0.352   2.563 -0.3997 -0.1308 -0.2997
  200SOL     OW  598   3.096   2.980   0.722 -0.3633  0.8183 -0.5977
  200SOL    HW1  599   3.012   2.986   0.662 -1.4604  0.9752 -1.1546
  200SOL    HW2  600   3.129   3.062   0.779  2.5687  0.5841  2.4792
  201SOL     OW  601   1.147   0.746   0.609  0.0315  0.6069  0.9777
  201SOL    HW1  602   1.121   0.832   0.658 -1.7509  1.1274 -1.4881
  201SOL    HW2  603   1.071   0.706   0.554 -0.9525 -0.5117 -0.2125
  202SOL     OW  604   0.494   1.259   1.731  0.1667  0.0317  0.1863
  202SOL    HW1  605   0.507   1.251   1.628  1.1485  0.1331 -0.3466
  202SOL    HW2  606   0.559   1.199   1.773 -0.3901  0.0179  0.7658
  203SOL     OW  607   0.679   0.195   1.596  0.1364 -0.1709  0.2368
  203SOL    HW1  608   0.695   0.138   1.516  2.0513  0.4162  3.7319
  203SOL    HW2  609   0.731   0.167   1.678 -0.0906 -2.1918 -0.0529
  204SOL     OW  610   2.088   1.841   3.025  0.0044  0.0537 -0.3866
  204SOL    HW1  611   2.090   1.741   3.030 -0.4361  1.6284  3.4676
  204SOL    HW2  612   2.035   1.887   2.953  3.3154  3.6720 -0.6366
  205SOL     OW  613   1.851   1.868   0.085 -0.2452 -0.3349 -0.3470
  205SOL    HW1  614   1.951   1.862   0.056 -0.3599  0.3820  2.5628
  205SOL    HW2  615   1.807   1.957   0.063 -0.1547  1.6835  0.5637
  206SOL     OW  616   2.542   2.824   0.410 -0.3889 -0.1814 -0.5328
  206SOL    HW1  617   2.587   2.730   0.410  2.0688 -1.5218 -1.0450
  206SOL    HW2  618   2.566   2.874   0.326  1.5185 -0.1240  0.1684
  207SOL     OW  619   0.619   1.755   2.889 -0.3710  0.7350 -0.0457
  207SOL    HW1  620   0.717   1.745   2.855  1.4263  1.8789 -0.6713
  207SOL    HW2  621   0.580   1.675   2.945 -1.2458 -2.8933  0.4825
  208SOL     OW  622   1.031   1.528   1.446  0.4588  0.3774  0.0305
  208SOL    HW1  623   0.971   1.579   1.380  2.4075 -0.6089  2.5289
  208SOL    HW2  624   1.101   1.591   1.485  1.0877 -0.3171 -1.4266
  209SOL     OW  625   0.288   0.952   3.020  0.6976  0.4249 -0.6746
  209SOL    HW1  626   0.298   0.912   2.924  2.1467 -1.2278  1.9375
  209SOL    HW2  627   0.242   0.887   3.088  2.6006 -0.4305  0.2940
  210SOL     OW  628   1.726   0.498   1.157  0.1487 -0.5216  0.8853
  210SOL    HW1  629   1.679   0.587   1.131 -0.8767 -3.4534  0.4416
  210SOL    HW2  630   1.828   0.495   1.131  0.6949  0.3223 -1.1175
  211SOL     OW  631   2.149   1.054   1.643 -0.4403 -0.1908 -0.3974
  211SOL    HW1  632   2.210   1.002   1.712 -3.5158 -0.0271  1.8336
  211SOL    HW2  633   2.198   1.129   1.595 -1.4304  0.7623 -2.4136
  212SOL     OW  634   0.010   0.958   1.465 -0.4298  0.1010  0.1790
  212SOL    HW1  635   0.028   1.048   1.509  1.4024 -0.2093  3.0951
  212SOL    HW2  636   0.060   0.882   1.520  0.6941 -3.3639  0.6844
  213SOL     OW  637   2.710   0.343   0.269 -0.6662 -0.2939  0.3966
  213SOL    HW1  638   2.787   0.291   0.212  1.4115  1.3785 -2.5516
  213SOL    HW2  639   2.675   0.427   0.220 -0.0178  3.1325 -0.6287
  214SOL     OW  640   2.180   0.266   2.276 -0.6717 -0.1648 -0.4229
  214SOL    HW1  641   2.216   0.306   2.363  1.7615 -1.8438 -0.7426
  214SOL    HW2  642   2.150   0.168   2.296 -1.5825 -1.1293  0.8266
  215SOL     OW  643   1.655   2.265   2.038 -0.4606 -0.2708 -0.9872
  215SOL    HW1  644   1.755   2.296   2.030  1.8636 -0.6447 -0.8000
  215SOL    HW2  645   1.609   2.331   2.100 -0.2752 -0.9754 -1.3075
  216SOL     OW  646   2.202   0.525   0.671 -0.2861  0.1809 -0.1678
  216SOL    HW1  647   2.213   0.432   0.627  4.3372 -1.8244  0.2775
  216SOL    HW2  648   2.219   0.604   0.608  0.0555 -0.3194  2.6361
  217SOL     OW  649   0.757   2.786   2.462 -0.4506  0.0543  0.1669
  217SOL    HW1  650   0.752   2.690   2.504  1.7282 -3.3662 -1.1857
  217SOL    HW2  651   0.743   2.780   2.359  2.0991  0.9257 -4.3756
  218SOL     OW  652   1.928   1.393   0.075 -0.3897 -0.4766 -0.0919
  218SOL    HW1  653   1.841   1.447   0.078  1.2372 -0.0804  0.8397
  218SOL    HW2  654   1.927   1.335   0.164 -3.6703 -0.1857  0.7027
  219SOL     OW  655   2.375   1.278   2.525 -0.4303 -0.7046 -0.4816
  219SOL    HW1  656   2.353   1.237   2.432  3.3209 -1.3136  1.8998
  219SOL    HW2  657   2.390   1.204   2.596 -1.0000 -0.5670  3.4046
  220SOL     OW  658   1.493   1.034   1.264  0.3878 -0.2236 -0.0773
  220SOL    HW1  659   1.592   1.039   1.301 -1.1094 -2.1882  1.2945
  220SOL    HW2  660   1.476   1.057   1.162  0.7105 -0.9517 -0.3222
  221SOL     OW  661   1.346   1.167   2.199  0.4975 -0.7155  0.1764
  221SOL    HW1  662   1.290   1.210   2.122  1.4890 -2.0978 -0.7279
  221SOL    HW2  663   1.432   1.115   2.169 -0.3648 -1.8784  2.3755
  222SOL     OW  664   1.230   0.064   1.170  0.2402 -0.2254  0.9952
  222SOL    HW1  665   1.313   0.085   1.231 -1.2882 -2.1194  0.9114
  222SOL    HW2  666   1.159   0.139   1.179 -0.6224 -1.7922 -0.1517
  223SOL     OW  667   2.956   0.819   1.999 -0.3715  0.6926  0.4030
  223SOL    HW1  668   2.966   0.833   2.103 -1.5075  1.7545 -0.0371
  223SOL    HW2  669   2.952   0.905   1.942 -0.0958  0.7992  1.8222
  224SOL     OW  670   1.503   0.964   2.809 -0.6304  0.1759 -0.2270
  224SOL    HW1  671   1.562   0.899   2.751 -1.2869  1.4946 -1.5203
  224SOL    HW2  672   1.486   1.053   2.766 -1.0116 -3.3277  2.4490
  225SOL     OW  673   3.009   2.775   2.901 -1.0862 -0.1265 -0.4550
  225SOL    HW1  674   2.990   2.691   2.852 -1.2771  1.8269  1.4593
  225SOL    HW2  675   3.074   2.836   2.849  0.9575 -1.8622  2.0928
  226SOL     OW  676   2.458   1.599   2.894 -0.2883 -0.5386  0.4428
  226SOL    HW1  677   2.472   1.578   2.793 -0.0397 -2.7368 -2.0048
  226SOL    HW2  678   2.418   1.517   2.944 -1.0316 -1.9720  0.2053
  227SOL     OW  679   0.883   0.118   2.992  0.2485 -0.3310  0.0989
  227SOL    HW1  680   0.907   0.047   3.060  1.2779 -0.0799  0.0702
  227SOL    HW2  681   0.894   0.078   2.899  3.8372  0.8623  3.3516
  228SOL     OW  682   2.368   0.597   2.850  0.5904  0.2857 -0.1486
  228SOL    HW1  683   2.320   0.611   2.761 -0.3875  3.7897 -0.2091
  228SOL    HW2  684   2.458   0.546   2.843 -1.7538  0.1343 -0.7079
  229SOL     OW  685   0.559   0.521   1.853 -0.5165  0.4572  0.3987
  229SOL    HW1  686   0.555   0.497   1.751 -0.8182 -4.3722 -1.8698
  229SOL    HW2  687   0.652   0.556   1.889  4.0848 -3.0901 -2.7708
  230SOL     OW  688   1.882   1.245   2.172 -0.1717  0.2089 -0.2191
  230SOL    HW1  689   1.946   1.250   2.097  1.2510  1.6076  2.8608
  230SOL    HW2  690   1.794   1.296   2.151  0.0750 -1.0461  2.0913
  231SOL     OW  691   0.650   1.009   3.003 -0.3931 -0.1729  0.0449
  231SOL    HW1  692   0.734   1.064   2.973  1.9517 -2.1856  2.8861
  231SOL    HW2  693   0.631   1.033   3.100 -1.3345  2.2346 -0.4499
  232SOL     OW  694   2.483   0.024   2.741 -0.1348 -0.3663  0.7370
  232SOL    HW1  695   2.474  -0.072   2.782 -3.1648 -1.4747  0.4299
  232SOL    HW2  696   2.472   0.027   2.639 -3.7269 -0.9926  0.8240
  233SOL     OW  697   1.697   1.244   1.067  0.2945 -0.2139 -0.0386
  233SOL    HW1  698   1.693   1.293   0.980 -0.6861 -1.9329 -0.1600
  233SOL    HW2  699   1.766   1.165   1.065  0.3760  0.8980 -1.0299
  234SOL     OW  700   1.685   2.584   1.820  0.4447 -0.2542 -0.1123
  234SOL    HW1  701   1.678   2.591   1.925  1.3616 -0.5972  1.1951
  234SOL    HW2  702   1.594   2.567   1.774  1.4663  2.4793 -1.6092
  235SOL     OW  703   0.117   3.009   2.904 -0.7299 -0.2607  0.0853
  235SOL    HW1  704   0.177   3.078   2.845 -0.5866  0.7916 -2.1675
  235SOL    HW2  705   0.040   3.049   2.963 -1.3399 -1.6221 -0.4373
  236SOL     OW  706   2.846   0.669   0.124  0.5355 -0.0067 -0.3503
  236SOL    HW1  707   2.922   0.726   0.166  0.3471 -0.9240 -0.9718
  236SOL    HW2  708   2.878   0.601   0.056 -0.5877  1.4954  3.8979
  237SOL     OW  709   1.481   1.627   1.009 -0.2301 -0.0400 -0.3508
  237SOL    HW1  710   1.582   1.601   0.992 -1.2827  1.0671 -3.0834
  237SOL    HW2  711   1.463   1.693   1.088  0.5140  2.7936  1.1523
  238SOL     OW  712   1.794   1.322   0.825 -0.4720 -0.5009  0.1628
  238SOL    HW1  713   1.881   1.311   0.767 -0.3871 -0.4273 -2.0678
  238SOL    HW2  714   1.724   1.378   0.773 -1.4902  1.3661 -2.9707
  239SOL     OW  715   2.083   0.247   2.735  0.2583 -0.0014 -0.4564
  239SOL    HW1  716   2.171   0.231   2.790  2.3229  0.5484  0.1503
  239SOL    HW2  717   2.014   0.305   2.782 -2.2393 -1.0350 -0.2689
  240SOL     OW  718   0.877   0.692   0.225  0.1493 -0.2428  0.3898
  240SOL    HW1  719   0.857   0.603   0.179 -1.5000  0.3966  1.1382
  240SOL    HW2  720   0.878   0.666   0.330  0.0579  1.6401 -0.3548
  241SOL     OW  721   0.568   0.047   0.324  0.5951  0.6893 -0.1487
  241SOL    HW1  722   0.598   0.022   0.222  0.2412 -1.5071  0.3661
  241SOL    HW2  723   0.527  -0.032   0.371 -1.5554  1.3841 -2.8908
  242SOL     OW  724   0.689   2.450   1.150 -0.4088  0.0597  0.4640
  242SOL    HW1  725   0.647   2.490   1.234  0.2906 -2.6777 -1.9242
  242SOL    HW2  726   0.778   2.493   1.113  0.4346  2.5148 -0.3151
  243SOL     OW  727   1.097   0.645   2.420  0.0536  0.2353  0.4687
  243SOL    HW1  728   1.027   0.704   2.382  3.1150 -0.7669  1.4281
  243SOL    HW2  729   1.057   0.570   2.472  0.0132  1.2700  0.2427
  244SOL     OW  730   2.792   1.889   2.439  0.2020 -0.2720  0.1887
  244SOL    HW1  731   2.841   1.898   2.347 -0.1306  0.4261 -4.0656
  244SOL    HW2  732   2.699   1.847   2.424  0.2323 -0.3573  2.9898
  245SOL     OW  733   2.458   0.734   2.140  0.2328  0.2057  0.7816
  245SOL    HW1  734   2.475   0.795   2.221  1.7782 -0.0038 -1.9860
  245SOL    HW2  735   2.544   0.722   2.077  1.2143 -1.4572  0.6003
  246SOL     OW  736   0.269   2.892   1.680  0.5519  0.3123 -0.5941
  246SOL    HW1  737   0.197   2.891   1.601 -0.7112  1.3013  0.5488
  246SOL    HW2  738   0.330   2.975   1.681 -0.7026  0.7460  1.7467
  247SOL     OW  739   2.172   0.558   3.037  0.1803  0.0870 -0.0148
  247SOL    HW1  740   2.251   0.565   2.971 -3.4935  1.9413  0.4719
  247SOL    HW2  741   2.137   0.653   3.064  2.1395  1.9674  1.3316
  248SOL     OW  742   2.201   1.853   1.619 -0.0366  0.6253  0.1493
  248SOL    HW1  743   2.257   1.771   1.652  0.1938  1.2680 -0.9839
  248SOL    HW2  744   2.118   1.870   1.676 -0.3775 -0.2745 -2.8226
  249SOL     OW  745   1.928   1.995   1.976 -0.1845  0.3271 -0.3689
  249SOL    HW1  746   1.933   1.925   1.899 -0.3177  1.8706  0.8918
  249SOL    HW2  747   2.019   2.046   1.990 -0.3599  0.0224 -1.1850
  250SOL     OW  748   1.018   0.669   1.851  0.0893  0.6194  0.1333
  250SOL    HW1  749   1.081   0.612   1.916  0.8364 -0.0489  1.6765
  250SOL    HW2  750   1.026   0.631   1.754 -0.5690 -0.3188 -0.6518
  251SOL     OW  751   3.060   1.557   2.562  0.3059  0.3277 -0.1275
  251SOL    HW1  752   3.067   1.658   2.537 -1.6778  0.1041 -0.2549
  251SOL    HW2  753   2.958   1.532   2.576 -0.6438  0.8134 -3.2757
  252SOL     OW  754   1.507   0.901   1.517  0.1088 -0.3327 -0.2504
  252SOL    HW1  755   1.484   0.958   1.435  0.1201 -2.1618  1.9498
  252SOL    HW2  756   1.516   0.965   1.598 -0.2374  3.7702 -1.0466
  253SOL     OW  757   0.959   1.602   0.363 -0.6003 -0.2540 -0.1459
  253SOL    HW1  758   0.980   1.508   0.350 -1.1690  0.0921 -1.3536
  253SOL    HW2  759   0.862   1.608   0.391  3.3868  0.0820  0.6388
  254SOL     OW  760   2.014   2.183   1.596  0.3498  0.1180  0.3883
  254SOL    HW1  761   1.993   2.139   1.503  0.7735 -0.1545  1.3894
  254SOL    HW2  762   1.932   2.208   1.648  1.3352  0.4323 -1.5604
  255SOL     OW  763   0.120   1.158   2.923  0.6873  0.0939 -0.1140
  255SOL    HW1  764   0.171   1.241   2.890 -0.4499  0.5390  1.3196
  255SOL    HW2  765   0.188   1.077   2.946  1.0561 -3.9112  0.8752
  256SOL     OW  766   2.803   1.385   1.838  0.6458 -0.0718  0.1053
  256SOL    HW1  767   2.738   1.466   1.824 -0.8896  0.5681  0.2944
  256SOL    HW2  768   2.756   1.292   1.847 -0.2314  0.7268  0.6015
  257SOL     OW  769   0.908   0.197   1.918 -0.0269 -0.1448 -0.6583
  257SOL    HW1  770   0.945   0.236   1.831  2.8612 -1.3450  0.3581
  257SOL    HW2  771   0.914   0.096   1.915  1.8534  0.1202  0.1012
  258SOL     OW  772   2.954   1.282   0.434  0.1007  0.5070  0.2298
  258SOL    HW1  773   2.912   1.378   0.413 -1.2902  3.8612  1.5730
  258SOL    HW2  774   3.000   1.284   0.524  1.8164 -2.0131 -2.1464
  259SOL     OW  775   0.434   2.932   2.972  0.4190 -0.4826 -0.4645
  259SOL    HW1  776   0.393   2.864   3.041  0.4439  1.5460  1.9613
  259SOL    HW2  777   0.466   2.879   2.890 -2.5742 -1.8780  2.5036
  260SOL     OW  778   2.664   0.812   2.773  0.5807  0.5921 -0.2172
  260SOL    HW1  779   2.591   0.825   2.699  0.4088 -1.4805  0.2787
  260SOL    HW2  780   2.654   0.874   2.854  0.9585  1.4636 -1.0223
  261SOL     OW  781   2.729   1.370   1.316 -0.1572 -0.1249 -0.1047
  261SOL    HW1  782   2.674   1.301   1.253 -2.8783 -2.1743 -1.0392
  261SOL    HW2  783   2.826   1.335   1.338 -0.8969 -0.6524  1.7443
  262SOL     OW  784   1.482   2.899   2.018  0.1891 -0.1935 -0.2022
  262SOL    HW1  785   1.492   2.994   1.974  1.9723 -1.4996 -3.1225
  262SOL    HW2  786   1.382   2.876   2.019 -0.9359  2.8919  0.2315
  263SOL     OW  787   0.871   0.781   2.319 -0.7400  0.2636 -0.1781
  263SOL    HW1  788   0.815   0.699   2.298  0.0651  1.2712  0.9816
  263SOL    HW2  789   0.897   0.840   2.239 -1.3812 -0.8738  0.4247
  264SOL     OW  790   2.263   0.740   0.476  0.1243 -0.3647 -0.0442
  264SOL    HW1  791   2.180   0.738   0.412 -1.0164 -1.3844 -1.6237
  264SOL    HW2  792   2.323   0.831   0.474  3.4476  2.1135 -1.3146
  265SOL     OW  793   0.893   2.287   2.680  0.3506 -0.2328 -0.4798
  265SOL    HW1  794   0.927   2.352   2.757  0.9352 -0.1422 -2.1667
  265SOL    HW2  795   0.839   2.204   2.715 -2.8403 -1.3431  0.1906
  266SOL     OW  796   1.347   1.703   0.062  0.0467  0.1908  0.2803
  266SOL    HW1  797   1.319   1.779   0.128 -1.7752 -1.3594 -0.6341
  266SOL    HW2  798   1.445   1.704   0.024 -2.1312  1.1718 -2.7417
  267SOL     OW  799   1.072   3.092   2.388 -0.2374 -0.6142 -0.0448
  267SOL    HW1  800   1.064   3.012   2.325 -2.6699  0.9995 -1.3910
  267SOL    HW2  801   1.007   3.169   2.361 -1.4730 -1.9839  1.8723
  268SOL     OW  802   0.668   1.160   0.998  0.3776 -0.4346  0.3014
  268SOL    HW1  803   0.696   1.204   1.085 -0.3196 -1.0185  0.0776
  268SOL    HW2  804   0.639   1.233   0.925  0.0607  2.2199 -1.4045
  269SOL     OW  805   2.417   2.473   1.598  0.1828 -0.4787  0.1110
  269SOL    HW1  806   2.505   2.419   1.619 -0.8609 -0.9219  0.1837
  269SOL    HW2  807   2.364   2.499   1.688 -0.2664  0.6069  0.1822
  270SOL     OW  808   0.198   2.976   1.948 -0.4467  0.5085 -0.1702
  270SOL    HW1  809   0.249   2.925   1.872  0.5827 -0.8238  1.5593
  270SOL    HW2  810   0.106   2.934   1.976 -2.0328  1.7072 -0.4779
  271SOL     OW  811   0.471   1.398   1.194  0.3376  0.4785  0.0038
  271SOL    HW1  812   0.409   1.411   1.109  0.5913 -3.3676 -2.4770
  271SOL    HW2  813   0.420   1.436   1.275 -0.9873 -2.9488 -1.3970
  272SOL     OW  814   1.901   2.918   1.901 -0.4981 -0.1054  0.2837
  272SOL    HW1  815   1.871   2.857   1.821  0.5063  0.0489 -0.2130
  272SOL    HW2  816   1.974   2.994   1.875  2.6816  1.2821  0.2972
  273SOL     OW  817   1.413   1.422   2.820 -0.7144 -0.0987 -0.4441
  273SOL    HW1  818   1.415   1.506   2.766 -0.7220 -0.7051  0.1011
  273SOL    HW2  819   1.390   1.444   2.918  2.7167 -1.7887  1.6903
  274SOL     OW  820   1.140   0.512   2.040  0.1781  0.5606  0.6037
  274SOL    HW1  821   1.155   0.418   1.990 -0.6006 -0.0804 -0.2274
  274SOL    HW2  822   1.215   0.525   2.107 -0.0923 -0.7179 -3.9432
  275SOL     OW  823   0.620   2.076   1.984 -0.1490  0.1760 -0.5773
  275SOL    HW1  824   0.601   2.177   1.955  0.5233  1.1781 -0.5731
  275SOL    HW2  825   0.541   2.017   1.960 -1.0015  3.1710 -1.7549
  276SOL     OW  826   2.162   0.954   2.794  0.4419 -0.4712 -0.9849
  276SOL    HW1  827   2.099   0.936   2.708 -0.5322  0.4201 -0.8085
  276SOL    HW2  828   2.129   0.906   2.881  0.2008 -1.6868  1.9433
  277SOL     OW  829   3.053   0.852   0.204 -0.0634  0.7155 -0.1311
  277SOL    HW1  830   3.147   0.852   0.157  1.0413 -0.8524 -1.7330
  277SOL    HW2  831   3.057   0.802   0.293 -0.6573  0.5752  1.2359
  278SOL     OW  832   0.184   0.274   2.965  0.4735  0.1289 -0.1977
  278SOL    HW1  833   0.247   0.206   3.008 -4.0847  1.4212 -2.5827
  278SOL    HW2  834   0.202   0.376   2.992  0.5517  0.8274 -0.5902
  279SOL     OW  835   0.160   0.049   0.876 -0.0426  0.3007 -0.0795
  279SOL    HW1  836   0.208   0.062   0.969  2.2491 -0.7910 -0.1044
  279SOL    HW2  837   0.230   0.028   0.805  0.8089 -0.7690  2.0008
  280SOL     OW  838   1.607   2.946   2.548 -0.8441  0.0209  0.4482
  280SOL    HW1  839   1.678   3.017   2.550  0.2836  0.1580 -2.6922
  280SOL    HW2  840   1.512   2.967   2.519 -0.4382 -3.0868 -0.9751
  281SOL     OW  841   0.572   0.956   2.324 -0.2581  0.4785 -0.3309
  281SOL    HW1  842   0.569   0.856   2.297  0.5250 -1.6181  0.2827
  281SOL    HW2  843   0.536   0.976   2.420  0.3218 -0.6239  0.1603
  282SOL     OW  844   1.722   2.433   0.506  0.2714 -0.1879  0.1480
  282SOL    HW1  845   1.672   2.352   0.469  0.9162 -2.5888  2.3037
  282SOL    HW2  846   1.670   2.518   0.494  2.7470 -1.0320  1.1659
  283SOL     OW  847   1.191   0.969   0.750 -0.3794 -0.2373  1.0995
  283SOL    HW1  848   1.202   0.917   0.841  2.1635  1.5867 -0.9533
  283SOL    HW2  849   1.135   1.057   0.768  0.1674  1.8643  2.2033
  284SOL     OW  850   2.365   2.799   2.371 -0.0147 -0.0011 -0.9090
  284SOL    HW1  851   2.347   2.873   2.300  1.2997 -2.1524 -0.8415
  284SOL    HW2  852   2.427   2.836   2.448  4.1623  0.2268  0.4790
  285SOL     OW  853   1.345   2.974   2.547  0.3885 -0.2216 -0.0712
  285SOL    HW1  854   1.355   3.007   2.452 -1.4667  1.1732  3.9940
  285SOL    HW2  855   1.283   3.036   2.605 -0.1025 -0.5531  0.8060
  286SOL     OW  856   0.468   0.431   0.693 -0.1554 -0.1256  0.3890
  286SOL    HW1  857   0.440   0.371   0.776 -1.1564 -0.5808 -1.0071
  286SOL    HW2  858   0.438   0.390   0.601  0.1224  1.0696  0.2367
  287SOL     OW  859   0.113   1.326   2.528  0.3198 -0.6907  0.7494
  287SOL    HW1  860   0.090   1.227   2.550  1.5731 -0.1273 -1.6361
  287SOL    HW2  861   0.051   1.394   2.578 -3.3173 -0.8345  1.7579
  288SOL     OW  862   1.611   2.704   1.485 -0.0350  0.7000  0.6794
  288SOL    HW1  863   1.630   2.612   1.440 -2.5877 -2.4975 -2.7322
  288SOL    HW2  864   1.592   2.772   1.412  1.7654 -4.8369  0.0099
  289SOL     OW  865   0.653   2.736   0.766  0.0588 -0.1608 -0.5800
  289SOL    HW1  866   0.713   2.802   0.708  1.2418 -0.7189 -0.2215
  289SOL    HW2  867   0.655   2.767   0.864  2.4673 -0.2665 -1.4388
  290SOL     OW  868   2.875   1.180   1.581 -0.5114 -0.8078  0.2207
  290SOL    HW1  869   2.778   1.154   1.561  0.9754 -2.3026  1.1307
  290SOL    HW2  870   2.921   1.121   1.658 -0.1727 -0.9997  0.0620
  291SOL     OW  871   1.991   0.054   0.113 -0.5883 -0.4967  0.0795
  291SOL    HW1  872   2.016   0.056   0.215 -0.1030  1.6776 -0.0267
  291SOL    HW2  873   2.038   0.134   0.065 -0.3293  0.7612 -0.2682
  292SOL     OW  874   2.968   1.144   3.034  0.0932  0.1347  0.0537
  292SOL    HW1  875   2.906   1.211   2.986 -0.9442  0.1749 -0.4127
  292SOL    HW2  876   3.065   1.153   2.989  1.2427 -0.4660 -2.5503
  293SOL     OW  877   0.624   2.108   0.115 -0.4457  0.6410 -0.2429
  293SOL    HW1  878   0.565   2.148   0.190  0.0087 -0.0451  0.0491
  293SOL    HW2  879   0.726   2.124   0.137 -2.5843  1.6109  0.3867
  294SOL     OW  880   1.678   2.151   1.751  0.2024 -0.2107  0.4399
  294SOL    HW1  881   1.673   2.188   1.847 -3.2597  1.5723 -0.3449
  294SOL    HW2  882   1.676   2.234   1.687  1.2031  2.2237 -0.0818
  295SOL     OW  883   1.002   1.002   0.413 -0.0519 -0.2557  0.7860
  295SOL    HW1  884   1.097   0.957   0.398  4.2230 -0.4759 -0.4834
  295SOL    HW2  885   0.981   1.022   0.514 -1.5489 -1.5549 -0.4243
  296SOL     OW  886   1.324   2.035   2.503  0.5843  0.3521 -0.1170
  296SOL    HW1  887   1.349   2.039   2.399 -1.0924 -1.8702 -1.9068
  296SOL    HW2  888   1.301   1.938   2.537 -1.7994 -2.5595  2.8567
  297SOL     OW  889   1.473   0.621   1.350  0.2356 -0.5437  0.0879
  297SOL    HW1  890   1.444   0.520   1.349 -1.3659 -0.4848  3.0358
  297SOL    HW2  891   1.574   0.624   1.377 -0.4640 -5.3482  1.3502
  298SOL     OW  892   0.434   1.214   2.875 -0.4695 -0.0227  0.5061
  298SOL    HW1  893   0.462   1.129   2.928  0.9549 -1.6995  1.0495
  298SOL    HW2  894   0.515   1.244   2.814  1.4100 -1.1755  0.4113
  299SOL     OW  895   0.463   0.315   1.471  0.0494 -0.9214  0.0804
  299SOL    HW1  896   0.462   0.369   1.385  0.0211  0.7937  2.5445
  299SOL    HW2  897   0.544   0.321   1.533 -1.5460 -0.0605 -2.5127
  300SOL     OW  898   1.178   1.810   2.887 -0.1210 -0.6610  0.3076
  300SOL    HW1  899   1.173   1.713   2.841 -1.7784  1.4201 -0.5891
  300SOL    HW2  900   1.198   1.805   2.989 -0.4332 -0.6847  1.4031
  301SOL     OW  901   0.436   0.285   0.440  0.1926 -0.2572  0.0534
  301SOL    HW1  902   0.345   0.313   0.393 -1.8776 -0.2424  2.3567
  301SOL    HW2  903   0.472   0.195   0.395  0.4929  0.6304 -0.7039
  302SOL     OW  904   1.239   2.324   2.328 -0.0072 -0.1655 -0.1172
  302SOL    HW1  905   1.186   2.331   2.411  1.6985  0.9634  0.2979
  302SOL    HW2  906   1.228   2.230   2.278  1.2198 -1.6879 -0.7407
  303SOL     OW  907   0.943   2.341   0.792  0.1043 -0.4585 -0.3341
  303SOL    HW1  908   1.008   2.385   0.722  0.9852 -0.8907  1.5781
  303SOL    HW2  909   0.923   2.400   0.874 -0.7116 -2.0230  1.1458
  304SOL     OW  910   0.136   2.051   0.662 -0.1881 -0.1147 -0.2925
  304SOL    HW1  911   0.166   1.983   0.584 -3.1798  0.6411 -0.8030
  304SOL    HW2  912   0.078   2.133   0.631  0.8856  2.3670  1.9205
  305SOL     OW  913   1.608   0.899   0.634 -0.2305  0.3911 -0.2441
  305SOL    HW1  914   1.538   0.894   0.557 -4.6655 -1.5888  1.1808
  305SOL    HW2  915   1.692   0.838   0.622 -0.9812 -0.5031  4.1493
  306SOL     OW  916   0.460   1.874   1.892  0.6840  0.0211  0.5797
  306SOL    HW1  917   0.547   1.829   1.854 -0.7130 -0.9727  0.1603
  306SOL    HW2  918   0.441   1.833   1.985  1.0483 -0.9248 -2.4009
  307SOL     OW  919   0.022   0.840   2.603 -0.1734  0.0138  0.2480
  307SOL    HW1  920   0.058   0.938   2.616 -0.8323  0.3465 -1.5308
  307SOL    HW2  921  -0.054   0.804   2.663  1.8227  0.2852  1.2852
  308SOL     OW  922   1.545   2.638   2.884 -0.7885  0.1998 -0.2627
  308SOL    HW1  923   1.575   2.566   2.819 -2.1736  1.0492  3.8447
  308SOL    HW2  924   1.448   2.617   2.923 -3.9056  0.0413  1.4574
  309SOL     OW  925   1.213   0.090   1.737  0.0620  0.7050  0.0360
  309SOL    HW1  926   1.309   0.072   1.780  1.1899 -0.5884  3.9394
  309SOL    HW2  927   1.217   0.099   1.634  2.0378 -0.1268 -2.4432
  310SOL     OW  928   1.399   2.596   0.737  0.0905 -0.8794  0.8588
  310SOL    HW1  929   1.417   2.695   0.765  1.4484  0.4364 -0.8206
  310SOL    HW2  930   1.460   2.574   0.653  3.3300  0.4692 -1.3497
  311SOL     OW  931   1.184   0.966   1.545 -0.8877  0.4372  0.3518
  311SOL    HW1  932   1.256   0.903   1.499 -0.3141  3.3666  1.9118
  311SOL    HW2  933   1.223   1.064   1.553 -1.0055  1.8497 -1.8988
  312SOL     OW  934   1.620   0.693   0.992  0.3548  0.7884  0.6847
  312SOL    HW1  935   1.576   0.787   0.981 -4.0317  0.3944 -0.4788
  312SOL    HW2  936   1.581   0.622   0.925  0.3110 -2.1785 -0.3341
  313SOL     OW  937   1.537   1.407   0.642 -0.1280 -0.0920  0.7452
  313SOL    HW1  938   1.435   1.439   0.641  0.0035  1.3514  1.8297
  313SOL    HW2  939   1.540   1.303   0.627 -2.0552  0.9616 -1.1172
  314SOL     OW  940   2.979   0.014   3.041  0.3331 -0.3430  0.9935
  314SOL    HW1  941   2.953   0.087   3.112  0.3014 -1.8061  2.3079
  314SOL    HW2  942   2.913  -0.067   3.051 -1.2030 -1.8606 -0.2397
  315SOL     OW  943   1.226   0.241   2.781 -0.1831 -0.6525 -0.3587
  315SOL    HW1  944   1.216   0.155   2.727 -1.4085  0.7323 -0.9520
  315SOL    HW2  945   1.197   0.233   2.882 -0.1877  1.7555  2.5988
  316SOL     OW  946   1.702   2.091   0.926  0.3046  0.1947  0.3433
  316SOL    HW1  947   1.651   2.118   1.010 -0.4891 -1.2451  0.1625
  316SOL    HW2  948   1.688   2.158   0.845 -1.1880  0.4022 -1.8826
  317SOL     OW  949   1.137   0.702   2.835  0.4098  0.2702 -0.1466
  317SOL    HW1  950   1.085   0.748   2.915 -1.3820  2.8196  0.4296
  317SOL    HW2  951   1.113   0.605   2.810 -0.2094  0.9636  0.6162
  318SOL     OW  952   1.467   3.041   2.274 -0.2728 -0.5953 -0.3111
  318SOL    HW1  953   1.439   3.127   2.220  1.2726 -1.0432 -0.9376
  318SOL    HW2  954   1.488   2.977   2.196 -1.8407  1.3068 -2.3348
  319SOL     OW  955   0.650   2.406   2.918  0.1235 -0.1738 -0.1546
  319SOL    HW1  956   0.580   2.371   2.985 -0.9238 -1.4210 -1.0591
  319SOL    HW2  957   0.716   2.327   2.903  1.6488  0.9128  0.4863
  320SOL     OW  958   1.635   2.176   0.344 -0.4177 -0.1468  0.0995
  320SOL    HW1  959   1.730   2.147   0.362 -2.4690 -0.0627 -0.6182
  320SOL    HW2  960   1.558   2.140   0.408  0.3443  1.6498 -2.0053
  321SOL     OW  961   1.584   2.673   0.510  0.6194 -0.5726 -0.4202
  321SOL    HW1  962   1.514   2.734   0.461  0.9574  1.1362 -2.8591
  321SOL    HW2  963   1.676   2.721   0.527 -0.4479 -2.6884 -1.8288
  322SOL     OW  964   2.551   1.111   2.257 -0.5067  0.0056 -0.3634
  322SOL    HW1  965   2.624   1.163   2.310 -0.0681  1.2726  2.2702
  322SOL    HW2  966   2.538   1.013   2.299  1.2034 -1.1185  1.3287
  323SOL     OW  967   0.985   2.674   0.795  0.2796 -0.0980 -0.2368
  323SOL    HW1  968   1.011   2.621   0.708  2.6172  0.9157 -3.5312
  323SOL    HW2  969   1.005   2.775   0.791 -0.0443 -1.1392  1.7068
  324SOL     OW  970   0.185   2.470   2.461  0.9794 -0.1379 -0.1111
  324SOL    HW1  971   0.158   2.385   2.516  3.4914 -1.1818 -0.1389
  324SOL    HW2  972   0.154   2.561   2.505  0.9814  0.7616  2.1134
  325SOL     OW  973   1.193   3.057   0.459  0.7505 -0.2679 -0.2816
  325SOL    HW1  974   1.234   3.076   0.367 -1.7182 -1.2619  0.2733
  325SOL    HW2  975   1.223   3.122   0.533  0.1669 -1.1264 -2.5370
  326SOL     OW  976   2.457   0.760   3.064  0.4459  0.6058 -0.3491
  326SOL    HW1  977   2.421   0.711   2.978  2.1397 -1.4795 -0.4370
  326SOL    HW2  978   2.488   0.689   3.132  0.4844  1.3840 -1.6005
  327SOL     OW  979   2.839   0.399   0.521  0.5819 -0.0273 -0.4854
  327SOL    HW1  980   2.803   0.374   0.428 -0.6733  0.4079  0.9915
  327SOL    HW2  981   2.809   0.327   0.592  1.0645 -1.0606  0.1176
  328SOL     OW  982   2.470   0.549   0.397  0.1588  0.2803  0.0928
  328SOL    HW1  983   2.396   0.621   0.409 -0.1277 -2.3537 -0.6414
  328SOL    HW2  984   2.483   0.487   0.481 -3.1357  0.5766 -2.4050
  329SOL     OW  985   2.959   2.998   2.166 -0.7748 -0.1675  0.1605
  329SOL    HW1  986   3.014   2.922   2.212 -1.6354  0.0491 -0.4414
  329SOL    HW2  987   2.996   3.096   2.176 -2.0997  1.1818  2.8694
  330SOL     OW  988   0.526   0.170   1.885  0.1701  0.2369  0.0541
  330SOL    HW1  989   0.584   0.254   1.870 -0.5327 -0.7107 -0.0643
  330SOL    HW2  990   0.555   0.126   1.973 -1.6150 -0.0736 -0.7739
  331SOL     OW  991   2.956   1.931   1.124 -0.1016  0.3880 -0.5131
  331SOL    HW1  992   2.986   2.018   1.076  0.1604 -1.2559 -0.2121
  331SOL    HW2  993   2.876   1.941   1.192 -0.2793  0.6859  1.1865
  332SOL     OW  994   0.419   1.129   0.084 -0.0048 -0.4363 -0.0477
  332SOL    HW1  995   0.353   1.079   0.026 -0.1023 -0.7570  1.3019
  332SOL    HW2  996   0.376   1.199   0.150  1.2838  1.6041 -1.9089
  333SOL     OW  997   2.871   1.037   0.308  0.0642  0.4308 -0.1656
  333SOL    HW1  998   2.914   1.105   0.374 -1.7553  1.8766 -0.4646
  333SOL    HW2  999   2.939   0.981   0.253  1.0096 -0.3605  3.7760
  334SOL     OW 1000   1.667   1.189   1.909  0.5024  0.3585 -0.2751
  334SOL    HW1 1001   1.761   1.169   1.865 -1.8174  1.1437 -0.0417
  334SOL    HW2 1002   1.673   1.267   1.977  3.8101 -1.0945  1.1566
  335SOL     OW 1003   2.011   2.755   2.628 -0.7140 -0.4108 -0.7652
  335SOL    HW1 1004   1.939   2.817   2.669  0.4159  2.4788  2.2094
  335SOL    HW2 1005   2.109   2.780   2.654  1.0830  1.3652  2.3691
  336SOL     OW 1006   0.255   0.116   2.750 -0.1097 -0.0225  0.0939
  336SOL    HW1 1007   0.349   0.078   2.781  0.9430  0.1387  0.9637
  336SOL    HW2 1008   0.218   0.180   2.826  1.1000 -1.1555  1.4231
  337SOL     OW 1009   0.908   2.770   2.806  0.8542  0.0411 -0.1931
  337SOL    HW1 1010   0.884   2.741   2.905  0.5146  4.8569 -1.4460
  337SOL    HW2 1011   1.001   2.738   2.774  0.5146  1.0923  1.1667
  338SOL     OW 1012   0.037   0.988   0.642  0.2464 -0.4931  0.4824
  338SOL    HW1 1013  -0.066   0.974   0.660 -1.1343  1.0824  1.4196
  338SOL    HW2 1014   0.066   1.087   0.666 -2.4029 -0.1976  1.9677
  339SOL     OW 1015   1.659   1.397   2.083  0.4832 -0.1213  0.1221
  339SOL    HW1 1016   1.561   1.438   2.062 -2.0928 -1.5687 -0.6581
  339SOL    HW2 1017   1.726   1.479   2.092  2.6526  1.7687 -0.9357
  340SOL     OW 1018   2.277   0.809   1.185 -0.3711  0.0800  0.5624
  340SOL    HW1 1019   2.174   0.830   1.198  1.0331  0.9111  0.7327
  340SOL    HW2 1020   2.299   0.719   1.136  0.7882 -0.7253  0.6110
  341SOL     OW 1021   1.905   2.156   0.364  0.7102 -0.2333 -0.0304
  341SOL    HW1 1022   1.919   2.176   0.264  0.3797  4.2378 -1.3903
  341SOL    HW2 1023   1.991   2.156   0.425  0.4383  1.8018 -1.4956
  342SOL     OW 1024   2.207   2.098   2.766 -0.1841  0.3091  0.3353
  342SOL    HW1 1025   2.276   2.028   2.806  1.6677  1.7712  1.0810
  342SOL    HW2 1026   2.113   2.071   2.790  0.8913  0.5192 -2.8600
  343SOL     OW 1027   0.337   0.797   2.772 -0.5037 -0.1180 -0.0663
  343SOL    HW1 1028   0.346   0.860   2.689  0.8489 -1.4395 -0.7336
  343SOL    HW2 1029   0.431   0.749   2.801  1.6079  0.7653  0.1881
  344SOL     OW 1030   1.903   1.452   0.413 -0.2128  0.1664  0.5735
  344SOL    HW1 1031   1.900   1.360   0.361 -0.2740 -0.1745  2.3833
  344SOL    HW2 1032   1.808   1.499   0.411  1.4377 -0.3410  0.0275
  345SOL     OW 1033   1.391   2.250   2.855  0.1805  0.6280  0.5098
  345SOL    HW1 1034   1.312   2.188   2.825 -0.5600 -0.6669  2.0223
  345SOL    HW2 1035   1.478   2.212   2.810  0.2380  0.2448  0.2778
  346SOL     OW 1036   2.316   0.857   1.460 -0.2874 -0.0573  0.3972
  346SOL    HW1 1037   2.260   0.929   1.507 -0.0637  2.3924 -0.9596
  346SOL    HW2 1038   2.285   0.842   1.361  0.1091  1.0766 -0.6995
  347SOL     OW 1039   0.718   2.858   1.511  0.0758  0.2866  0.1579
  347SOL    HW1 1040   0.701   2.796   1.593  0.5660 -1.3450 -2.6494
  347SOL    HW2 1041   0.629   2.904   1.477  0.6052  2.0987  0.8909
  348SOL     OW 1042   0.076   0.663   2.868 -0.7728 -1.0396  0.1185
  348SOL    HW1 1043  -0.014   0.698   2.834  0.6217  3.5697  2.0589
  348SOL    HW2 1044   0.153   0.708   2.814  2.3016  0.1382 -0.7294
  349SOL     OW 1045   1.869   0.430   2.812 -0.7109  0.2636 -0.1930
  349SOL    HW1 1046   1.837   0.492   2.740  1.5797 -1.3483 -1.5072
  349SOL    HW2 1047   1.834   0.456   2.905 -0.8591 -2.4298 -0.9152
  350SOL     OW 1048   1.646   0.396   0.383 -0.5108  0.7209 -0.1102
  350SOL    HW1 1049   1.729   0.406   0.446 -1.0200  4.0928  1.9456
  350SOL    HW2 1050   1.606   0.486   0.361  3.1006 -0.0531 -0.1043
  351SOL     OW 1051   0.953   0.911   2.067  0.6868 -0.3518  0.1445
  351SOL    HW1 1052   0.943   1.012   2.046  0.9670 -1.7450  0.7014
  351SOL    HW2 1053   0.945   0.850   1.988  0.6794  3.6444  0.4537
  352SOL     OW 1054   2.001   1.314   0.638 -0.2789 -0.7343  0.2404
  352SOL    HW1 1055   1.962   1.351   0.552  3.8024 -2.0614  3.5486
  352SOL    HW2 1056   2.100   1.337   0.640 -0.7312  0.8078  2.7863
  353SOL     OW 1057   2.127   2.900   1.123  0.3330  0.0128  0.2955
  353SOL    HW1 1058   2.208   2.851   1.173  1.0172 -0.5250  0.6508
  353SOL    HW2 1059   2.083   2.839   1.051 -1.5547 -0.7248  1.2378
  354SOL     OW 1060   0.253   1.394   2.844 -0.3498  0.2251  0.0119
  354SOL    HW1 1061   0.249   1.480   2.784  1.2509  0.8770  1.0564
  354SOL    HW2 1062   0.333   1.330   2.830  0.1950 -0.7111 -2.6693
  355SOL     OW 1063   0.518   1.532   0.540  0.2462  0.0590 -0.5107
  355SOL    HW1 1064   0.493   1.602   0.610  1.4185 -0.4130 -0.8019
  355SOL    HW2 1065   0.577   1.457   0.573 -1.1509  1.4419 -2.8365
  356SOL     OW 1066   0.920   0.381   2.120  0.0572 -0.5605  0.2511
  356SOL    HW1 1067   1.007   0.443   2.109  0.8607 -3.2605 -0.2883
  356SOL    HW2 1068   0.910   0.328   2.032 -2.7381  0.1024  0.1037
  357SOL     OW 1069   1.008   1.277   0.309  0.1773  0.5872  1.0828
  357SOL    HW1 1070   0.958   1.277   0.217 -0.0793  1.1345  0.5727
  357SOL    HW2 1071   1.025   1.191   0.360  1.6527  0.0936 -1.2977
  358SOL     OW 1072   1.647   1.549   0.443  0.0455 -0.8961  0.3879
  358SOL    HW1 1073   1.584   1.512   0.514 -1.6448  1.1728 -2.2727
  358SOL    HW2 1074   1.596   1.571   0.358  0.7933 -2.7882 -0.5519
  359SOL     OW 1075   1.562   2.680   0.115  0.3777 -0.0101 -0.9774
  359SOL    HW1 1076   1.605   2.609   0.050 -1.3503  0.2717 -0.0145
  359SOL    HW2 1077   1.466   2.662   0.133  0.0042 -0.0443  1.0177
  360SOL     OW 1078   0.902   0.594   0.502 -0.2956 -0.0064 -0.4725
  360SOL    HW1 1079   0.823   0.610   0.565 -0.3079  1.4378  1.6934
  360SOL    HW2 1080   0.933   0.497   0.508 -0.2802  1.7437  0.6633
  361SOL     OW 1081   1.259   1.387   0.677  0.1698  0.2871  0.1154
  361SOL    HW1 1082   1.289   1.387   0.778 -1.1165 -1.6294  0.6009
  361SOL    HW2 1083   1.164   1.413   0.668  1.0244 -0.4764  0.8072
  362SOL     OW 1084   1.382   1.747   0.778 -0.0846 -0.0241 -0.1115
  362SOL    HW1 1085   1.409   1.694   0.866 -0.6636 -1.3718  2.1388
  362SOL    HW2 1086   1.462   1.803   0.739  0.3496 -0.3984  0.1638
  363SOL     OW 1087   1.186   1.328   2.017  0.8091 -0.6758  0.3606
  363SOL    HW1 1088   1.197   1.415   2.077  1.1870  0.9344 -0.6479
  363SOL    HW2 1089   1.195   1.349   1.916 -0.8579 -1.8627  1.2920
  364SOL     OW 1090   0.544   2.338   1.926 -0.3427  0.0778 -0.1791
  364SOL    HW1 1091   0.469   2.402   1.951  2.0920 -0.1545 -0.9750
  364SOL    HW2 1092   0.585   2.355   1.832  3.1915 -0.3078 -0.0988
  365SOL     OW 1093   1.080   1.952   1.383 -0.1052  0.0053  0.2325
  365SOL    HW1 1094   1.007   1.933   1.452 -0.4948 -2.5050  0.7139
  365SOL    HW2 1095   1.085   1.878   1.311  1.1722  1.0909 -0.2185
  366SOL     OW 1096   2.820   2.069   0.471 -0.7394 -0.6404  0.0543
  366SOL    HW1 1097   2.736   2.006   0.473  1.8600 -0.2526  1.6305
  366SOL    HW2 1098   2.902   2.026   0.425  1.8407 -0.4263  0.1141
  367SOL     OW 1099   0.811   1.213   0.132 -0.3725  0.1572  0.6915
  367SOL    HW1 1100   0.765   1.133   0.186 -0.9050 -1.0565  2.6529
  367SOL    HW2 1101   0.825   1.201   0.025  1.8634 -2.1331 -2.5560
  368SOL     OW 1102   1.535   0.557   0.713 -0.5584  0.3744  0.2737
  368SOL    HW1 1103   1.471   0.587   0.641  0.4212 -1.3998  0.9210
  368SOL    HW2 1104   1.627   0.601   0.704 -0.7874  1.2363 -2.1466
  369SOL     OW 1105   0.288   1.730   0.070 -0.1587  0.0747 -1.0594
  369SOL    HW1 1106   0.314   1.811   0.124 -0.2535 -1.0194  1.3241
  369SOL    HW2 1107   0.224   1.662   0.122 -0.0771 -0.1544  2.4567
  370SOL     OW 1108   0.387   2.114   1.020 -0.3191  0.2555  0.4270
  370SOL    HW1 1109   0.408   2.212   0.990  0.3659  1.4204  2.7520
  370SOL    HW2 1110   0.291   2.076   1.005  0.1407  0.2417 -0.4219
  371SOL     OW 1111   2.904   2.209   2.744 -0.2042  0.2673  0.4140
  371SOL    HW1 1112   2.912   2.177   2.840 -1.6023 -0.9533 -2.9984
  371SOL    HW2 1113   3.000   2.226   2.700  1.0537  0.3407 -0.9899
  372SOL     OW 1114   0.945   1.880   0.918  0.5604  0.8442  0.3770
  372SOL    HW1 1115   0.912   1.966   0.966  3.3339 -0.0506  0.9109
  372SOL    HW2 1116   1.039   1.902   0.882  0.5281  2.2747  1.0136
  373SOL     OW 1117   1.986   2.004   0.921 -0.7489  0.1605 -1.0736
  373SOL    HW1 1118   2.053   2.011   1.004  0.8453 -2.3801 -0.7105
  373SOL    HW2 1119   1.888   2.043   0.940 -0.0982  2.2209  0.2365
  374SOL     OW 1120   1.861   0.459   0.550 -1.1164  0.3546  0.0127
  374SOL    HW1 1121   1.843   0.390   0.630 -0.2449 -0.9294 -2.0707
  374SOL    HW2 1122   1.962   0.457   0.504  3.8322  1.3833 -2.8258
  375SOL     OW 1123   2.387   2.148   1.136 -0.2759 -0.2777  0.3730
  375SOL    HW1 1124   2.464   2.166   1.066  0.4378 -0.2723 -2.3402
  375SOL    HW2 1125   2.420   2.157   1.239  1.7986 -0.1579 -0.4248
  376SOL     OW 1126   3.041   0.612   1.433 -0.2355 -0.0812 -0.5256
  376SOL    HW1 1127   3.108   0.634   1.508 -1.5476 -2.6977 -0.0277
  376SOL    HW2 1128   2.939   0.607   1.457 -1.4449 -0.2776 -2.6228
  377SOL     OW 1129   2.274   2.835   0.315  0.1124 -0.3939 -0.4379
  377SOL    HW1 1130   2.250   2.936   0.329 -2.0134 -0.0257 -0.0942
  377SOL    HW2 1131   2.362   2.804   0.364  2.2962 -2.8342  2.8403
  378SOL     OW 1132   1.834   1.905   2.635 -0.9144  0.2579 -0.1000
  378SOL    HW1 1133   1.791   1.819   2.671 -1.5073  0.6587  2.4076
  378SOL    HW2 1134   1.885   1.885   2.549 -1.9273  2.5767 -1.6131
  379SOL     OW 1135   0.853   0.063   2.725  0.8505  0.2980  0.2873
  379SOL    HW1 1136   0.808  -0.029   2.705 -0.2561  0.6859  1.7627
  379SOL    HW2 1137   0.789   0.138   2.701  0.2792 -0.3426 -0.2949
  380SOL     OW 1138   1.517   1.140   0.594  0.1351 -0.3938  0.1979
  380SOL    HW1 1139   1.421   1.130   0.559 -2.2209 -0.6822 -0.1494
  380SOL    HW2 1140   1.553   1.047   0.619  3.3782  0.5627 -3.4050
  381SOL     OW 1141   1.320   1.197   1.497  0.0662 -0.2001  0.0465
  381SOL    HW1 1142   1.356   1.258   1.418  0.5718 -1.5534  0.6653
  381SOL    HW2 1143   1.371   1.210   1.588  0.5476 -0.9627  2.1834
  382SOL     OW 1144   1.748   0.796   0.278  0.1012 -0.1756 -0.2608
  382SOL    HW1 1145   1.770   0.758   0.186  1.4755  0.3252 -1.4250
  382SOL    HW2 1146   1.831   0.827   0.333 -0.1688 -0.7576  1.6788
  383SOL     OW 1147   2.583   0.982   1.508 -0.0846 -0.5219 -0.1101
  383SOL    HW1 1148   2.490   0.970   1.471 -2.9294 -1.9722  1.2013
  383SOL    HW2 1149   2.653   0.936   1.445 -0.3446  0.9818 -1.7923
  384SOL     OW 1150   0.917   2.278   0.104 -0.9404  0.2196 -0.4697
  384SOL    HW1 1151   0.860   2.359   0.130  1.8327 -1.4755 -0.1289
  384SOL    HW2 1152   0.911   2.195   0.168  0.3949 -4.2620 -0.5077
  385SOL     OW 1153   3.004   2.010   1.753 -1.0653  0.2218  0.3898
  385SOL    HW1 1154   3.072   2.089   1.742  2.5987 -3.2530 -1.6617
  385SOL    HW2 1155   3.051   1.926   1.716  1.8960  0.0686  0.5502
  386SOL     OW 1156   0.442   1.144   0.445 -0.1607  0.5192  0.2801
  386SOL    HW1 1157   0.434   1.038   0.435  0.4284 -0.3477  0.6635
  386SOL    HW2 1158   0.377   1.195   0.389  2.0403  0.0259  1.4841
  387SOL     OW 1159   0.974   0.292   1.671  0.0208 -0.8193 -0.1278
  387SOL    HW1 1160   1.014   0.384   1.667 -0.0921  0.7264 -0.7206
  387SOL    HW2 1161   0.978   0.236   1.578  0.5316  0.2610 -2.3800
  388SOL     OW 1162   1.161   2.619   1.777  0.4348 -0.0022 -0.2387
  388SOL    HW1 1163   1.172   2.646   1.681 -1.0191  2.2647  3.0416
  388SOL    HW2 1164   1.220   2.543   1.810 -2.7313  1.0118  0.5059
  389SOL     OW 1165   0.266   0.019   1.131  0.0775  0.5361  0.1276
  389SOL    HW1 1166   0.212   0.038   1.213  0.3256  2.0145 -3.3930
  389SOL    HW2 1167   0.300  -0.080   1.126  1.2124  0.2983  0.9228
  390SOL     OW 1168   1.021   0.877   1.240 -0.1101  0.0745 -0.1307
  390SOL    HW1 1169   1.122   0.871   1.271  0.5083  1.3683  0.0537
  390SOL    HW2 1170   0.944   0.905   1.311 -1.1668  0.4425 -1.5616
  391SOL     OW 1171   2.099   1.143   1.054 -0.1785  0.5002  0.6876
  391SOL    HW1 1172   2.003   1.095   1.057 -1.4478  2.2441  0.5583
  391SOL    HW2 1173   2.172   1.091   0.993  0.7953 -3.0972 -1.2383
  392SOL     OW 1174   0.870   2.716   3.065  0.1010 -0.1261 -0.5469
  392SOL    HW1 1175   0.779   2.698   3.116  0.2333 -2.1973 -1.5077
  392SOL    HW2 1176   0.951   2.739   3.130  0.6709 -0.6630 -0.5910
  393SOL     OW 1177   0.358   0.586   2.026  0.4358 -0.2316  0.8442
  393SOL    HW1 1178   0.273   0.531   2.002  0.9430 -1.1602  3.7627
  393SOL    HW2 1179   0.444   0.554   1.975  2.3321  0.3695 -0.0050
  394SOL     OW 1180   2.844   1.821   2.790  0.1106  0.2064  0.6303
  394SOL    HW1 1181   2.946   1.823   2.777  0.2475 -1.2346  1.7407
  394SOL    HW2 1182   2.806   1.917   2.781 -0.3362  2.4018 -4.6066
  395SOL     OW 1183   1.598   1.928   0.716 -0.3205  0.2913  0.7612
  395SOL    HW1 1184   1.674   1.878   0.668  0.4767 -1.5948 -2.4393
  395SOL    HW2 1185   1.625   1.966   0.809  0.8839  0.0200  2.6514
  396SOL     OW 1186   2.756   2.058   1.303  0.2809 -0.2994  0.6346
  396SOL    HW1 1187   2.784   2.053   1.404 -2.5934  1.4612 -0.5164
  396SOL    HW2 1188   2.666   2.108   1.293  0.4201  0.5822 -1.3012
  397SOL     OW 1189   1.010   2.077   0.648 -0.0222 -0.2983 -0.0824
  397SOL    HW1 1190   0.937   2.040   0.587  2.5055  3.0294  0.6743
  397SOL    HW2 1191   0.971   2.136   0.726  1.1944  2.1055  2.1947
  398SOL     OW 1192   2.184   0.054   1.076  0.3769  0.6836  0.5024
  398SOL    HW1 1193   2.178  -0.051   1.093  0.4754 -2.0072  2.2673
  398SOL    HW2 1194   2.094   0.099   1.078  2.6425 -1.1586 -1.4608
  399SOL     OW 1195   2.955   2.547   2.740  0.2485 -0.3826 -0.3797
  399SOL    HW1 1196   2.904   2.500   2.659  1.2604 -2.2053 -0.7897
  399SOL    HW2 1197   2.915   2.521   2.833  2.4412 -2.6481  2.1621
  400SOL     OW 1198   0.847   1.608   1.265  0.0434  0.2340  0.0546
  400SOL    HW1 1199   0.805   1.635   1.357  1.7474  1.1240  1.0845
  400SOL    HW2 1200   0.792   1.643   1.180 -1.7983  1.0650 -1.0600
  401SOL     OW 1201   1.834   0.120   1.271  0.0003  0.3092  0.0187
  401SOL    HW1 1202   1.908   0.171   1.330 -0.5362  2.6422 -1.5778
  401SOL    HW2 1203   1.742   0.102   1.317 -0.5175  0.8919  0.4575
  402SOL     OW 1204   1.313   0.144   3.040  0.1956  0.0486  0.0430
  402SOL    HW1 1205   1.407   0.110   2.995  1.2288 -2.5545 -2.2730
  402SOL    HW2 1206   1.328   0.220   3.112  0.4213 -2.9394 -0.2442
  403SOL     OW 1207   2.292   1.813   0.945  0.3993  0.0240 -0.3466
  403SOL    HW1 1208   2.392   1.823   0.969  0.2814  0.2609  0.6252
  403SOL    HW2 1209   2.225   1.876   1.000 -0.9766 -0.6658  1.7251
  404SOL     OW 1210   0.179   2.473   2.833 -0.4958  0.8967  0.4641
  404SOL    HW1 1211   0.277   2.452   2.804  2.1011  1.0227 -1.0375
  404SOL    HW2 1212   0.156   2.571   2.805  2.5840  2.0810  1.6012
  405SOL     OW 1213   0.264   2.569   0.581 -0.4670  0.6436 -0.4582
  405SOL    HW1 1214   0.255   2.586   0.483 -0.1317  1.0155  2.2158
  405SOL    HW2 1215   0.326   2.636   0.625 -0.2668 -2.5963 -0.4990
  406SOL     OW 1216   0.026   1.521   2.964  0.4474 -0.1485  0.6544
  406SOL    HW1 1217   0.106   1.472   2.917  0.6720 -1.9232 -1.2838
  406SOL    HW2 1218   0.039   1.525   3.067 -0.7506 -1.6245 -0.1629
  407SOL     OW 1219   1.534   0.936   0.888 -0.3311 -0.4090 -0.5754
  407SOL    HW1 1220   1.537   0.899   0.795  0.1770  0.6010  1.2419
  407SOL    HW2 1221   1.487   1.028   0.896  0.2752 -0.6381  0.8621
  408SOL     OW 1222   1.487   2.385   0.967  0.4830  0.4216 -0.3802
  408SOL    HW1 1223   1.562   2.365   0.900  0.4257  2.6665  2.8462
  408SOL    HW2 1224   1.523   2.456   1.034  2.4737  0.6391  1.0174
  409SOL     OW 1225   0.662   0.883   0.685  0.1195 -0.4487  0.2857
  409SOL    HW1 1226   0.592   0.919   0.618  1.4426  0.1964 -0.0336
  409SOL    HW2 1227   0.684   0.780   0.663  1.1547 -0.7818  0.7504
  410SOL     OW 1228   1.320   2.004   1.500  0.0178 -0.1289 -0.3332
  410SOL    HW1 1229   1.322   2.092   1.558 -1.4750  2.2545  1.1821
  410SOL    HW2 1230   1.224   1.981   1.480 -0.2051  2.5913  2.9544
  411SOL     OW 1231   2.367   1.838   0.045  0.4408 -0.0702  0.2310
  411SOL    HW1 1232   2.285   1.861  -0.009 -1.3266 -1.0996  1.8784
  411SOL    HW2 1233   2.452   1.830  -0.013 -2.0204  0.8212 -0.3077
  412SOL     OW 1234   1.508   2.399   2.230 -0.1020 -0.0127 -0.3395
  412SOL    HW1 1235   1.520   2.501   2.221 -0.1429  0.3198  0.6975
  412SOL    HW2 1236   1.440   2.362   2.301 -0.9103  0.8033  2.7500
  413SOL     OW 1237   3.009   0.271   2.930 -0.2997 -0.4076  0.9891
  413SOL    HW1 1238   2.970   0.187   2.889  0.5152  0.1919  0.4891
  413SOL    HW2 1239   3.111   0.260   2.955 -0.7165  0.2389 -2.3104
  414SOL     OW 1240   1.781   1.345   1.321 -0.0356  0.6211  0.2913
  414SOL    HW1 1241   1.731   1.429   1.360 -2.0949 -0.0915  1.5682
  414SOL    HW2 1242   1.766   1.331   1.222 -0.6158  0.4959 -0.5600
  415SOL     OW 1243   0.367   2.270   0.671  0.1617  0.2194  0.0662
  415SOL    HW1 1244   0.359   2.366   0.635 -0.7683 -3.0256 -0.0763
  415SOL    HW2 1245   0.290   2.208   0.654  0.6666  0.2969 -0.3162
  416SOL     OW 1246   0.363   1.015   1.062  0.3634  0.2135 -0.2231
  416SOL    HW1 1247   0.321   0.966   0.977  1.3123 -2.0583 -1.5421
  416SOL    HW2 1248   0.450   1.069   1.049 -2.5492  0.2580  1.7297
  417SOL     OW 1249   2.153   2.325   1.876  0.0171 -0.3214  0.1187
  417SOL    HW1 1250   2.194   2.232   1.878  1.9171 -1.8397  2.9752
  417SOL    HW2 1251   2.058   2.327   1.916 -2.0152  0.7121  2.8404
  418SOL     OW 1252   1.139   0.433   1.339 -0.0725  0.5369 -0.3990
  418SOL    HW1 1253   1.037   0.450   1.305 -1.1979  0.7879 -0.6278
  418SOL    HW2 1254   1.205   0.423   1.259  0.5251  0.7821 -4.4647
  419SOL     OW 1255   0.971   0.382   3.026  0.1304  0.2897  0.6902
  419SOL    HW1 1256   0.985   0.416   2.930 -2.3567 -2.8436 -1.2744
  419SOL    HW2 1257   0.961   0.280   3.034 -2.3339  1.6795  0.8687
  420SOL     OW 1258   0.202   2.277   0.363  0.1268 -0.2911 -0.3112
  420SOL    HW1 1259   0.179   2.242   0.267  2.1938  0.2986 -2.1471
  420SOL    HW2 1260   0.133   2.276   0.438  2.4137 -1.5260  0.6235
  421SOL     OW 1261   0.328   3.071   0.642  0.1400  0.1330 -0.1287
  421SOL    HW1 1262   0.346   3.022   0.552 -3.3498 -1.1271  0.1949
  421SOL    HW2 1263   0.413   3.121   0.675  1.3674 -1.6973  0.7705
  422SOL     OW 1264   0.927   2.507   1.025 -0.3116 -0.2553  0.1665
  422SOL    HW1 1265   0.971   2.569   0.958  1.1390 -0.7819  1.0795
  422SOL    HW2 1266   0.984   2.499   1.112  2.1307  1.4777  1.4588
  423SOL     OW 1267   0.028   0.736   1.192  0.4927 -0.2710  0.0584
  423SOL    HW1 1268  -0.002   0.705   1.289  1.4606 -0.0866 -1.3075
  423SOL    HW2 1269  -0.048   0.719   1.123 -2.8532  0.6635 -1.7570
  424SOL     OW 1270   1.028   2.141   2.168  0.0225 -0.0105 -0.6675
  424SOL    HW1 1271   1.031   2.236   2.131 -1.1596  2.1459 -1.0875
  424SOL    HW2 1272   0.980   2.138   2.262  0.9603 -1.2527  1.1826
  425SOL     OW 1273   2.016   1.413   1.080 -0.5187 -0.0881 -0.3880
  425SOL    HW1 1274   2.025   1.308   1.084 -1.9319 -1.7751  1.0451
  425SOL    HW2 1275   2.069   1.450   0.994 -0.0653 -0.2653  2.4346
  426SOL     OW 1276   1.558   1.519   1.384  0.0919 -0.0321 -0.3797
  426SOL    HW1 1277   1.505   1.602   1.354 -2.0048  2.5188 -0.5311
  426SOL    HW2 1278   1.529   1.488   1.477 -1.8896  0.0822 -0.0066
  427SOL     OW 1279   1.921   2.367   2.034  0.1189  0.2283  0.6610
  427SOL    HW1 1280   1.978   2.328   2.114 -1.8637 -0.5971 -0.4368
  427SOL    HW2 1281   1.920   2.469   2.022  1.1805  1.4933 -2.1271
  428SOL     OW 1282   0.925   3.042   0.127 -0.7065  0.0703  0.1394
  428SOL    HW1 1283   0.980   3.120   0.162  0.9634  0.9625  0.7923
  428SOL    HW2 1284   0.986   2.962   0.099 -1.0935 -0.7448 -0.2638
  429SOL     OW 1285   1.325   0.059   0.238 -0.1107  0.1834  0.2783
  429SOL    HW1 1286   1.409   0.122   0.255 -4.6255  1.4748  0.4771
  429SOL    HW2 1287   1.325   0.009   0.148 -0.5448 -0.2164 -0.6013
  430SOL     OW 1288   2.816   1.500   0.362  0.1485 -0.0943 -0.4091
  430SOL    HW1 1289   2.842   1.556   0.280 -3.2769 -1.5872  1.7401
  430SOL    HW2 1290   2.795   1.556   0.448  0.4340  1.2607 -0.1428
  431SOL     OW 1291   2.105   1.600   0.903  0.6826 -0.0507  0.5233
  431SOL    HW1 1292   2.170   1.671   0.945  0.9374  1.5885  1.6819
  431SOL    HW2 1293   2.028   1.644   0.847 -0.1166 -0.9051  0.0169
  432SOL     OW 1294   2.899   2.299   1.242  0.5068  0.2172 -0.3087
  432SOL    HW1 1295   2.830   2.230   1.286  1.1068  1.5241  2.0565
  432SOL    HW2 1296   2.969   2.327   1.317  1.6100 -3.0160  3.0661
  433SOL     OW 1297   1.832   0.331   0.799 -0.3187  0.0893  0.5488
  433SOL    HW1 1298   1.733   0.318   0.771  0.2592  3.7936 -1.0752
  433SOL    HW2 1299   1.860   0.273   0.878 -0.9254  0.2134  0.3983
  434SOL     OW 1300   1.544   0.272   0.708  0.1384 -0.0889 -0.0934
  434SOL    HW1 1301   1.522   0.371   0.673 -0.9963  0.8311  0.9810
  434SOL    HW2 1302   1.559   0.273   0.806  1.2065  0.0336 -1.9971
  435SOL     OW 1303   1.438   1.541   2.113  0.2298 -0.1687 -0.0976
  435SOL    HW1 1304   1.419   1.513   2.208  1.1892  1.8177 -0.7420
  435SOL    HW2 1305   1.383   1.623   2.085 -0.7444 -2.8248 -0.3958
  436SOL     OW 1306   1.646   2.677   2.375  0.3069 -0.7301  0.5639
  436SOL    HW1 1307   1.631   2.778   2.388  2.6296 -2.1202  0.8773
  436SOL    HW2 1308   1.637   2.628   2.461  1.4369  1.3224 -0.1529
  437SOL     OW 1309   1.091   2.917   0.850  0.4352 -0.5335  0.5127
  437SOL    HW1 1310   1.037   3.004   0.847 -1.1449  0.7661  3.1525
  437SOL    HW2 1311   1.127   2.900   0.946 -0.6380  1.9072  0.9379
  438SOL     OW 1312   1.032   2.506   1.286  0.6384  0.2182 -0.0509
  438SOL    HW1 1313   1.056   2.584   1.351  1.2706  2.5922  0.8357
  438SOL    HW2 1314   1.022   2.407   1.319  0.1794  0.2251 -0.7804
  439SOL     OW 1315   0.709   1.687   1.048  0.2034  0.1117  0.6355
  439SOL    HW1 1316   0.765   1.757   0.995 -2.0899  0.8169  1.2121
  439SOL    HW2 1317   0.605   1.707   1.043  1.3168 -0.2736 -2.7855
  440SOL     OW 1318   1.037   2.442   2.039 -0.0734 -0.1173 -0.0526
  440SOL    HW1 1319   0.991   2.463   1.951  2.5200 -1.4652  0.9512
  440SOL    HW2 1320   1.142   2.441   2.032  0.2174 -1.7437  1.1317
  441SOL     OW 1321   0.350   2.719   1.323  0.0608 -0.1675  1.4518
  441SOL    HW1 1322   0.421   2.646   1.348 -2.1321  0.2594 -0.6790
  441SOL    HW2 1323   0.361   2.753   1.221 -1.6170  1.1299  2.1774
  442SOL     OW 1324   2.253   0.673   2.597 -0.0492  0.1362  0.4179
  442SOL    HW1 1325   2.269   0.588   2.542 -0.0428 -1.1244  1.4807
  442SOL    HW2 1326   2.154   0.694   2.614  1.6238 -1.9755 -0.5015
  443SOL     OW 1327   1.282   2.614   2.224 -0.0592  1.1517  0.4154
  443SOL    HW1 1328   1.310   2.513   2.238  2.1277  1.9281 -0.1117
  443SOL    HW2 1329   1.207   2.639   2.286  1.1323 -1.4076 -0.9351
  444SOL     OW 1330   1.026   1.209   1.462 -0.5622 -0.4421  0.3438
  444SOL    HW1 1331   1.135   1.208   1.455  3.0807 -0.3891 -0.0990
  444SOL    HW2 1332   0.990   1.304   1.478  0.8207  1.5110  0.5382
  445SOL     OW 1333   0.174   2.273   2.063 -0.2507  0.4020 -0.9833
  445SOL    HW1 1334   0.077   2.272   2.019 -0.3659  1.0651 -1.2245
  445SOL    HW2 1335   0.188   2.207   2.142 -1.6353 -0.6947  2.0460
  446SOL     OW 1336   0.143   1.950   2.351  0.4168 -0.0111 -0.0674
  446SOL    HW1 1337   0.084   2.039   2.352 -2.0838 -0.1077  6.0397
  446SOL    HW2 1338   0.129   1.896   2.264  0.4714 -1.8867  2.6313
  447SOL     OW 1339   1.270   1.705   1.962 -0.6444 -0.0271  0.7502
  447SOL    HW1 1340   1.183   1.764   1.970 -0.4051  1.3264  1.7277
  447SOL    HW2 1341   1.354   1.769   1.966  0.5952 -0.2681  0.4253
  448SOL     OW 1342   0.203   1.446   2.057  0.7090 -0.0797 -0.0616
  448SOL    HW1 1343   0.168   1.530   2.005  0.0746 -0.5981  0.2725
  448SOL    HW2 1344   0.130   1.417   2.134 -3.8146 -1.2033  1.3639
  449SOL     OW 1345   1.878   2.919   0.804  0.3289 -0.6291 -0.3190
  449SOL    HW1 1346   1.864   2.934   0.910 -0.1368  1.0489  0.5160
  449SOL    HW2 1347   1.923   2.831   0.780  3.0336 -0.7394 -0.4534
  450SOL     OW 1348   2.242   1.443   0.672  0.6625 -0.0194  0.0747
  450SOL    HW1 1349   2.173   1.480   0.742  0.0951  1.6451 -1.6154
  450SOL    HW2 1350   2.290   1.521   0.619  2.0924  3.4141  0.7920
  451SOL     OW 1351   1.396   3.034   1.496  0.0248  0.1638  0.0626
  451SOL    HW1 1352   1.319   3.105   1.510 -5.0532  2.0398 -2.1760
  451SOL    HW2 1353   1.430   2.992   1.581  1.6485  0.2743 -1.7301
  452SOL     OW 1354   2.685   2.303   2.258 -0.3799 -0.4037  0.1123
  452SOL    HW1 1355   2.647   2.397   2.248  1.8469  0.4344  0.0428
  452SOL    HW2 1356   2.720   2.275   2.353  0.2558 -1.3945  1.4437
  453SOL     OW 1357   2.468   2.660   3.065  0.7648 -0.0484 -0.6937
  453SOL    HW1 1358   2.394   2.707   3.125  1.3459  1.8087 -1.4744
  453SOL    HW2 1359   2.435   2.573   3.017  0.9951  2.4349  5.7689
  454SOL     OW 1360   0.932   1.186   1.992 -0.3137 -0.4604 -0.1104
  454SOL    HW1 1361   0.892   1.177   1.896 -1.2661 -1.2201 -1.1266
  454SOL    HW2 1362   1.021   1.240   1.994  0.3760  1.6450  2.3324
  455SOL     OW 1363   0.655   2.660   2.811  0.1004  0.0250 -0.3699
  455SOL    HW1 1364   0.747   2.709   2.805  0.2551  1.1040 -1.4335
  455SOL    HW2 1365   0.643   2.582   2.874 -4.0363  1.2792 -2.8306
  456SOL     OW 1366   0.380   1.940   0.217 -0.0977  0.1276  0.0994
  456SOL    HW1 1367   0.480   1.970   0.221 -0.8210  0.2494  0.4110
  456SOL    HW2 1368   0.309   2.011   0.191 -0.0462 -0.0004  1.2266
  457SOL     OW 1369   0.412   2.761   0.651  0.1640 -0.2184 -0.0193
  457SOL    HW1 1370   0.422   2.830   0.571  1.2931  1.4740 -0.2589
  457SOL    HW2 1371   0.505   2.742   0.687  0.0003  2.6368 -1.3724
  458SOL     OW 1372   2.886   0.031   1.237 -0.9037 -0.3184 -0.1091
  458SOL    HW1 1373   2.953   0.103   1.265 -0.7809  0.1854 -1.3967
  458SOL    HW2 1374   2.909  -0.007   1.143 -0.5617  2.5193 -1.6359
  459SOL     OW 1375   2.216   2.488   0.782  0.6246  0.0322  0.4579
  459SOL    HW1 1376   2.249   2.561   0.848 -0.9827  2.0208  1.9344
  459SOL    HW2 1377   2.295   2.439   0.740  1.8821  1.8424 -3.0394
  460SOL     OW 1378   1.194   2.055   2.762 -0.1565  0.6407  0.1421
  460SOL    HW1 1379   1.240   2.051   2.668  2.5882  1.1443  0.5521
  460SOL    HW2 1380   1.189   1.962   2.807  0.4082  0.2614 -0.0631
  461SOL     OW 1381   0.427   2.113   2.704 -0.4073 -0.0592 -0.0077
  461SOL    HW1 1382   0.380   2.034   2.652 -0.4393 -1.3670 -2.8345
  461SOL    HW2 1383   0.466   2.080   2.799  0.1394  1.6099  2.8216
  462SOL     OW 1384   0.944   1.020   1.757 -0.0623 -0.1040  0.0581
  462SOL    HW1 1385   0.914   0.930   1.713  0.1328  0.8650 -1.2798
  462SOL    HW2 1386   0.913   1.107   1.703  2.1130  0.7499 -0.0582
  463SOL     OW 1387   0.446   0.849   0.478  0.2533 -0.3124  0.0528
  463SOL    HW1 1388   0.493   0.763   0.446  2.7982  2.3734 -0.1348
  463SOL    HW2 1389   0.338   0.843   0.486  0.0082 -1.3828  2.1651
  464SOL     OW 1390   0.611   2.353   2.203 -0.2369 -0.4498 -0.8998
  464SOL    HW1 1391   0.559   2.424   2.259  0.0665  1.7821  2.0565
  464SOL    HW2 1392   0.596   2.354   2.101 -2.7332  0.4717 -2.0823
  465SOL     OW 1393   0.236   0.911   0.823 -0.0076 -0.3550  0.4933
  465SOL    HW1 1394   0.157   0.930   0.753 -2.2092 -3.7966 -1.1861
  465SOL    HW2 1395   0.255   0.807   0.833  0.8114 -1.0183 -1.3183
  466SOL     OW 1396   1.370   1.137   1.011  0.2631  0.1563 -0.5471
  466SOL    HW1 1397   1.366   1.239   0.986  2.3461  1.7550  0.7829
  466SOL    HW2 1398   1.280   1.096   1.042  0.2432  0.8078  0.5653
  467SOL     OW 1399   0.579   0.414   2.485 -0.3011 -0.6200  0.1746
  467SOL    HW1 1400   0.561   0.515   2.496  0.0301  0.2354 -0.3128
  467SOL    HW2 1401   0.611   0.366   2.573 -2.2073  2.4231  0.1958
  468SOL     OW 1402   0.434   2.257   1.616 -0.0766  0.6054 -0.4113
  468SOL    HW1 1403   0.532   2.280   1.648  2.5244 -2.0572 -0.6753
  468SOL    HW2 1404   0.425   2.246   1.511  0.6726  0.0167 -1.2421
  469SOL     OW 1405   1.400   1.326   1.277  0.0162  0.0409  0.6547
  469SOL    HW1 1406   1.442   1.243   1.221  2.2434 -3.3519  0.6166
  469SOL    HW2 1407   1.466   1.401   1.287  0.6825 -0.1447 -1.8632
  470SOL     OW 1408   3.028   1.771   0.737 -0.4134 -0.2551 -0.1143
  470SOL    HW1 1409   3.094   1.847   0.698  0.9920  1.0173 -0.1847
  470SOL    HW2 1410   3.053   1.754   0.836  1.7763  0.2954 -1.7782
  471SOL     OW 1411   2.557   1.389   2.165 -0.2365 -0.3077 -0.0609
  471SOL    HW1 1412   2.523   1.302   2.212  0.4978 -1.1190 -2.1786
  471SOL    HW2 1413   2.657   1.404   2.186  0.4395 -2.4506  0.2799
  472SOL     OW 1414   1.126   2.445   0.072  0.0429 -0.8494 -0.4743
  472SOL    HW1 1415   1.175   2.457   0.163  1.7239  0.8085 -0.1782
  472SOL    HW2 1416   1.041   2.389   0.084 -0.1756  2.0345  0.8172
  473SOL     OW 1417   1.065   1.503   1.005  0.3870  0.1288 -0.5604
  473SOL    HW1 1418   0.981   1.501   0.942 -0.2374 -1.7313  1.5491
  473SOL    HW2 1419   1.054   1.443   1.089 -0.9175  1.2825  1.7706
  474SOL     OW 1420   0.650   1.284   0.545  0.1322 -0.0768  0.0963
  474SOL    HW1 1421   0.566   1.227   0.507 -1.4529  0.5443 -0.0965
  474SOL    HW2 1422   0.741   1.233   0.555  1.2888  0.9447 -1.1679
  475SOL     OW 1423   2.802   0.047   0.814  0.1495 -0.1196 -0.3099
  475SOL    HW1 1424   2.872   0.123   0.800 -0.5686  0.4680  0.1834
  475SOL    HW2 1425   2.733   0.084   0.881 -1.0960 -0.8741 -2.5711
  476SOL     OW 1426   0.984   3.046   1.793  0.1959 -0.4220 -0.1619
  476SOL    HW1 1427   1.072   3.102   1.797  2.4706  0.4571 -2.0610
  476SOL    HW2 1428   0.976   3.001   1.696 -2.9219 -0.2083 -1.1852
  477SOL     OW 1429   1.466   0.294   2.400 -0.1345 -0.0871 -0.3892
  477SOL    HW1 1430   1.461   0.331   2.498  0.3333  0.8578 -0.6589
  477SOL    HW2 1431   1.558   0.252   2.375  1.9064  1.9030  0.0389
  478SOL     OW 1432   2.238   1.890   0.292 -0.2797 -0.3937 -0.1864
  478SOL    HW1 1433   2.174   1.816   0.317 -3.6696 -0.0549  0.8181
  478SOL    HW2 1434   2.326   1.857   0.241 -0.4047  1.2940 -0.1590
  479SOL     OW 1435   1.231   0.968   2.907  0.0853 -0.1390  0.1385
  479SOL    HW1 1436   1.330   0.983   2.883 -1.2478  1.0822 -1.3399
  479SOL    HW2 1437   1.194   0.883   2.859  0.8622 -0.0964  0.3211
  480SOL     OW 1438   2.694   2.303   0.386  0.7743  0.2435 -0.3117
  480SOL    HW1 1439   2.737   2.247   0.463 -2.8119  2.9181  0.8920
  480SOL    HW2 1440   2.624   2.253   0.332  1.8297 -0.0468  0.9607
  481SOL     OW 1441   1.059   1.186   0.869  0.2032  0.1096 -0.6873
  481SOL    HW1 1442   1.034   1.280   0.851 -0.6279 -1.6670  0.2203
  481SOL    HW2 1443   1.083   1.167   0.969 -0.8824  0.2965 -0.1948
  482SOL     OW 1444   1.569   0.298   1.994  0.2454 -0.0860  0.2116
  482SOL    HW1 1445   1.563   0.385   1.945  0.4934 -2.5131  0.2389
  482SOL    HW2 1446   1.661   0.283   2.038 -0.2068  0.9745  1.3146
  483SOL     OW 1447   0.225   2.335   1.216 -0.3483  0.2973  0.4048
  483SOL    HW1 1448   0.173   2.410   1.266  3.9572  0.9841 -0.1604
  483SOL    HW2 1449   0.217   2.361   1.111 -0.5477 -0.1526  0.2804
  484SOL     OW 1450   1.757   1.056   1.330 -0.1068  0.1923  0.2646
  484SOL    HW1 1451   1.826   0.992   1.380 -1.1638 -1.5309 -0.8925
  484SOL    HW2 1452   1.769   1.152   1.364  0.4778 -0.0346  2.5880
  485SOL     OW 1453   0.747   0.733   1.827  0.1861  0.1384  0.1224
  485SOL    HW1 1454   0.719   0.806   1.755 -0.0119  0.5621 -2.4741
  485SOL    HW2 1455   0.847   0.695   1.814  0.1250 -0.3636  0.0972
  486SOL     OW 1456   0.827   1.883   2.411 -0.0035 -0.0638 -0.1131
  486SOL    HW1 1457   0.851   1.920   2.508 -1.0378 -0.1922  0.9472
  486SOL    HW2 1458   0.792   1.955   2.352 -1.2062 -2.8123 -0.7519
  487SOL     OW 1459   1.790   1.577   1.044  0.2343 -0.3922 -0.0927
  487SOL    HW1 1460   1.834   1.481   1.055  1.9289 -1.8178 -0.6519
  487SOL    HW2 1461   1.802   1.619   0.952 -1.0588 -2.7587 -0.2313
  488SOL     OW 1462   2.957   0.831   2.292  0.6996  0.5268 -0.0269
  488SOL    HW1 1463   3.040   0.768   2.281  0.3428  0.6352  0.0593
  488SOL    HW2 1464   2.896   0.794   2.371  1.5046  1.5141  2.5457
  489SOL     OW 1465   2.764   0.331   1.273 -0.0868  0.4657 -0.8879
  489SOL    HW1 1466   2.763   0.307   1.374 -3.0075 -1.5346 -1.0866
  489SOL    HW2 1467   2.858   0.319   1.232  0.8196  1.2123 -1.5311
  490SOL     OW 1468   1.436   2.905   2.822 -0.0275 -0.0864  0.1141
  490SOL    HW1 1469   1.455   2.803   2.827  1.5221 -0.4914 -1.2002
  490SOL    HW2 1470   1.443   2.932   2.722  0.4670 -0.2337  0.6792
  491SOL     OW 1471   1.741   1.495   2.714 -0.0803  0.1375 -0.3043
  491SOL    HW1 1472   1.720   1.432   2.790 -2.8263 -0.0817  0.3733
  491SOL    HW2 1473   1.816   1.560   2.732 -0.1273 -0.8232  1.1491
  492SOL     OW 1474   0.544   2.060   0.659  0.5050  0.4687  0.1764
  492SOL    HW1 1475   0.591   2.052   0.755 -0.0677  0.6323  3.6729
  492SOL    HW2 1476   0.480   2.137   0.653  2.8468 -2.9956  0.0954
  493SOL     OW 1477   0.471   1.371   2.099  0.4690  0.6046 -0.2119
  493SOL    HW1 1478   0.379   1.419   2.090 -0.9288 -0.6023  0.8153
  493SOL    HW2 1479   0.465   1.268   2.115  0.9697  2.2153  0.0626
  494SOL     OW 1480   2.699   2.581   0.093 -0.1627 -0.7959 -0.1799
  494SOL    HW1 1481   2.724   2.612   0.189  1.1335  1.0503  0.0603
  494SOL    HW2 1482   2.609   2.618   0.054  0.6417 -0.4211  0.6899
  495SOL     OW 1483   2.536   2.814   2.601  0.0669 -0.1506 -0.5413
  495SOL    HW1 1484   2.546   2.712   2.612  0.1681  2.7448  0.6957
  495SOL    HW2 1485   2.624   2.858   2.568  0.5256 -0.3565  3.7526
  496SOL     OW 1486   1.983   2.315   0.813 -0.1869  0.2176  0.1479
  496SOL    HW1 1487   2.057   2.370   0.858 -1.3260 -0.8824 -3.0072
  496SOL    HW2 1488   1.995   2.210   0.824 -1.4105 -1.4205  2.3042
  497SOL     OW 1489   0.179   2.996   2.387 -0.7871  0.1741 -0.0940
  497SOL    HW1 1490   0.121   3.049   2.451  2.2335 -0.8880 -2.7653
  497SOL    HW2 1491   0.199   3.053   2.302 -0.2927 -0.7318  2.2505
  498SOL     OW 1492   1.119   1.368   1.241  0.4274 -0.1479  0.9396
  498SOL    HW1 1493   1.219   1.387   1.230  0.4772  2.8778  1.0341
  498SOL    HW2 1494   1.076   1.408   1.328  0.0202 -0.1626 -0.3685
  499SOL     OW 1495   0.627   1.804   0.333 -0.1412 -0.7682 -0.4283
  499SOL    HW1 1496   0.657   1.753   0.246  1.4071  1.0936  0.3305
  499SOL    HW2 1497   0.705   1.868   0.363  2.2975  1.4389 -1.9979
  500SOL     OW 1498   1.514   2.880   1.677 -0.5988  0.1157  0.3629
  500SOL    HW1 1499   1.560   2.895   1.767  0.7359 -3.0594  0.2912
  500SOL    HW2 1500   1.566   2.815   1.614 -2.9490  0.4401  2.0532
  501SOL     OW 1501   0.783   1.153   2.293 -0.0322 -0.4203  0.0729
  501SOL    HW1 1502   0.707   1.079   2.297 -3.6578 -3.8706 -0.9737
  501SOL    HW2 1503   0.816   1.170   2.194  0.5097 -2.3932 -0.0753
  502SOL     OW 1504   2.597   0.925   1.786  0.4663 -0.0354 -0.3622
  502SOL    HW1 1505   2.602   0.947   1.687  1.9057  0.6818  0.7078
  502SOL    HW2 1506   2.590   0.822   1.807 -1.5084 -2.5963 -0.6367
  503SOL     OW 1507   1.295   0.135   0.651 -0.1180  0.2786 -0.2945
  503SOL    HW1 1508   1.225   0.211   0.666  1.0722 -1.2474 -1.1939
  503SOL    HW2 1509   1.393   0.172   0.658 -1.0715 -1.2409 -0.1380
  504SOL     OW 1510   3.036   2.305   1.526 -0.0765 -0.0425 -0.0847
  504SOL    HW1 1511   2.991   2.389   1.566 -1.5867  0.3916 -1.2384
  504SOL    HW2 1512   3.104   2.261   1.593 -5.1120 -0.2474 -0.2766
  505SOL     OW 1513   2.316   1.182   1.451 -0.2665  0.2201 -0.9764
  505SOL    HW1 1514   2.278   1.184   1.356  0.7060  0.1030  0.8385
  505SOL    HW2 1515   2.403   1.230   1.459 -1.3899 -0.4688  2.4884
  506SOL     OW 1516   1.971   0.163   1.858 -0.3024  0.7488 -0.1498
  506SOL    HW1 1517   2.064   0.117   1.840  0.5036 -0.9511  1.9882
  506SOL    HW2 1518   1.972   0.266   1.878  0.4104  0.4433  0.6272
  507SOL     OW 1519   0.552   0.719   2.209  0.9986 -0.2219  0.5107
  507SOL    HW1 1520   0.496   0.737   2.122  1.0596  1.7081 -1.1149
  507SOL    HW2 1521   0.633   0.664   2.194 -0.3691 -0.1443 -0.3152
  508SOL     OW 1522   0.326   1.683   0.787  0.1507 -0.0917  0.0794
  508SOL    HW1 1523   0.361   1.744   0.713  0.0712 -1.2721  3.2672
  508SOL    HW2 1524   0.305   1.734   0.875 -1.7074 -2.7513 -1.3940
  509SOL     OW 1525   1.277   1.224   2.486  0.4097 -0.4929  0.2114
  509SOL    HW1 1526   1.305   1.215   2.385 -1.7153 -1.8057  2.0755
  509SOL    HW2 1527   1.186   1.179   2.503 -1.2998  2.2665 -2.0477
  510SOL     OW 1528   1.308   2.040   2.227  0.8342  0.6745  0.0721
  510SOL    HW1 1529   1.334   2.036   2.127 -0.5700  2.0029 -0.1598
  510SOL    HW2 1530   1.235   1.976   2.249  0.3201  0.4761  1.5537
  511SOL     OW 1531   3.013   2.756   1.297  0.0097 -0.5022 -0.3427
  511SOL    HW1 1532   3.024   2.781   1.197 -0.1058  1.6685  0.8339
  511SOL    HW2 1533   2.923   2.720   1.323  2.3527  1.8876 -1.9756
  512SOL     OW 1534   2.370   0.418   1.378  0.6305  0.0847  0.3196
  512SOL    HW1 1535   2.280   0.456   1.348  0.6930 -1.8770  0.8160
  512SOL    HW2 1536   2.419   0.366   1.307 -4.9925 -2.7345  1.7726
  513SOL     OW 1537   2.592   2.143   0.926  0.0735  0.4341  0.4222
  513SOL    HW1 1538   2.567   2.220   0.865  0.2127 -2.0976  1.0798
  513SOL    HW2 1539   2.676   2.095   0.889  1.1976  1.6294 -0.1927
  514SOL     OW 1540   0.654   2.713   0.424  0.7306 -0.2439 -0.2139
  514SOL    HW1 1541   0.667   2.719   0.320 -0.4089  3.9656 -2.1939
  514SOL    HW2 1542   0.706   2.787   0.476 -1.1001 -2.0548  0.8258
  515SOL     OW 1543   1.928   1.349   2.422 -0.0724 -0.0447 -0.2894
  515SOL    HW1 1544   1.919   1.314   2.325  0.3025  3.1330  1.5694
  515SOL    HW2 1545   1.864   1.295   2.482 -1.4260  1.3676  1.2370
  516SOL     OW 1546   0.254   0.271   1.878  0.1151  0.1935  0.0451
  516SOL    HW1 1547   0.357   0.241   1.880  3.4104 -0.0942  0.5001
  516SOL    HW2 1548   0.193   0.199   1.836  0.7226  0.9288 -0.7912
  517SOL     OW 1549   0.475   0.170   1.165 -0.0060 -0.8350  0.3209
  517SOL    HW1 1550   0.522   0.144   1.250 -1.2234 -0.5154 -3.1333
  517SOL    HW2 1551   0.386   0.114   1.149  2.1990  1.9112  0.9813
  518SOL     OW 1552   2.143   3.049   1.801  0.3632  0.7166 -0.8805
  518SOL    HW1 1553   2.213   3.127   1.806  0.0020 -4.0773  1.2145
  518SOL    HW2 1554   2.137   3.003   1.708  1.5944 -0.2200  2.0588
  519SOL     OW 1555   2.348   2.181   2.519 -0.1168 -0.0681 -0.1445
  519SOL    HW1 1556   2.311   2.158   2.613 -3.4910 -0.3624 -1.5662
  519SOL    HW2 1557   2.358   2.283   2.520  0.9884 -1.9223  1.2635
  520SOL     OW 1558   1.849   2.753   1.683  0.0863 -0.2209  0.2084
  520SOL    HW1 1559   1.789   2.677   1.722 -2.9250 -1.3930  0.4575
  520SOL    HW2 1560   1.949   2.735   1.672 -2.6053  0.0843  3.3855
  521SOL     OW 1561   0.562   0.045   2.140 -0.5441 -0.1032 -0.1906
  521SOL    HW1 1562   0.466   0.032   2.176 -1.2246 -0.4921 -1.9604
  521SOL    HW2 1563   0.633   0.010   2.210 -1.5535 -1.4542 -3.9603
  522SOL     OW 1564   0.236   1.866   1.463 -0.0465 -0.4413 -0.1852
  522SOL    HW1 1565   0.278   1.927   1.533 -1.8952 -0.3887  0.6754
  522SOL    HW2 1566   0.192   1.917   1.382  0.1201  1.8009  0.1163
  523SOL     OW 1567   2.131   2.919   1.567 -0.1817  0.0748 -0.3588
  523SOL    HW1 1568   2.194   2.833   1.581  1.3748 -1.0446  0.1376
  523SOL    HW2 1569   2.052   2.908   1.506  0.2752  1.7042  0.8549
  524SOL     OW 1570   0.214   2.756   2.792  0.2817  0.0736 -0.0388
  524SOL    HW1 1571   0.199   2.836   2.855  1.1232  2.6098  1.7101
  524SOL    HW2 1572   0.314   2.746   2.755  0.4732  0.7039 -0.1614
  525SOL     OW 1573   2.138   2.042   0.482 -0.6128  0.0467 -0.6164
  525SOL    HW1 1574   2.135   1.999   0.578  1.5213  3.0809 -1.1861
  525SOL    HW2 1575   2.183   1.977   0.416 -0.9212 -2.3016 -1.4687
  526SOL     OW 1576   0.438   1.533   1.783  0.3880 -0.2341  0.9974
  526SOL    HW1 1577   0.424   1.524   1.890 -0.2858 -1.3082 -1.2303
  526SOL    HW2 1578   0.465   1.445   1.734 -1.8243  1.1349 -0.8130
  527SOL     OW 1579   1.054   2.940   1.221  0.0919 -0.3510  0.6030
  527SOL    HW1 1580   1.127   2.866   1.220  1.6963  2.4411 -1.2883
  527SOL    HW2 1581   1.096   3.033   1.208  1.8330 -0.6947  1.0974
  528SOL     OW 1582   1.318   2.367   0.566  0.4619 -0.2188 -0.2086
  528SOL    HW1 1583   1.353   2.264   0.575  1.3208 -3.1448 -0.4308
  528SOL    HW2 1584   1.334   2.421   0.649  0.4132 -1.8402 -0.6549
  529SOL     OW 1585   1.892   1.751   0.814 -0.0309  0.1191 -0.4500
  529SOL    HW1 1586   1.846   1.749   0.720 -0.6970 -1.4691  0.7925
  529SOL    HW2 1587   1.932   1.840   0.845 -2.1771 -1.7205 -0.3085
  530SOL     OW 1588   0.444   2.489   0.189 -0.1052 -0.2805  0.5638
  530SOL    HW1 1589   0.479   2.429   0.265  2.9117 -1.2672 -0.2863
  530SOL    HW2 1590   0.427   2.436   0.096 -0.5702  2.1116 -1.8162
  531SOL     OW 1591   1.854   1.022   1.067  0.0103  0.5214 -0.7499
  531SOL    HW1 1592   1.787   0.983   0.996  0.4225  0.9519  2.7786
  531SOL    HW2 1593   1.807   1.029   1.161  2.4928 -1.2892  0.5868
  532SOL     OW 1594   0.368   1.188   0.721 -0.3372  0.7268 -0.1214
  532SOL    HW1 1595   0.372   1.180   0.616  1.4255 -0.5329 -0.4566
  532SOL    HW2 1596   0.327   1.098   0.755 -0.0433  1.8841 -0.7938
  533SOL     OW 1597   1.836   0.055   2.528  0.4551 -0.6296  0.2032
  533SOL    HW1 1598   1.935   0.035   2.547 -2.6335  1.0555  0.5068
  533SOL    HW2 1599   1.786   0.101   2.608 -2.0949  2.1674 -1.0160
  534SOL     OW 1600   0.239   0.185   1.541  0.5436  0.0446 -0.4007
  534SOL    HW1 1601   0.311   0.252   1.498  2.2538  0.0710 -3.2312
  534SOL    HW2 1602   0.148   0.229   1.569 -1.6778  1.1956 -0.0430
  535SOL     OW 1603   1.908   0.383   0.192 -0.0859 -0.7057  0.1627
  535SOL    HW1 1604   1.966   0.437   0.253 -0.0022  0.4446  0.9783
  535SOL    HW2 1605   1.842   0.321   0.246 -3.4387 -3.2741 -3.5822
  536SOL     OW 1606   1.244   2.604   0.974  0.4424  1.0098 -1.0430
  536SOL    HW1 1607   1.304   2.527   1.002 -0.3313 -0.3315 -1.1047
  536SOL    HW2 1608   1.221   2.599   0.871 -3.1503 -0.4385  1.0344
  537SOL     OW 1609   0.900   0.204   2.348  0.1954  0.0873 -0.0431
  537SOL    HW1 1610   0.926   0.222   2.251  2.1925 -2.2440  2.0709
  537SOL    HW2 1611   0.805   0.168   2.345 -0.4371  2.5576 -0.6569
  538SOL     OW 1612   1.692   2.343   1.538 -0.2270  0.2199 -0.5674
  538SOL    HW1 1613   1.646   2.278   1.471 -2.8053 -0.3738  1.5971
  538SOL    HW2 1614   1.781   2.390   1.504  1.0396  0.9746  0.9926
  539SOL     OW 1615   0.185   1.636   2.702  0.4048  0.1420 -0.0447
  539SOL    HW1 1616   0.108   1.592   2.656 -2.7789 -1.2773  0.5852
  539SOL    HW2 1617   0.162   1.723   2.753 -2.3540  0.1514  3.5048
  540SOL     OW 1618   2.703   1.721   2.033 -0.0071 -0.5681 -0.3283
  540SOL    HW1 1619   2.666   1.628   1.990  2.2512 -1.6784 -3.4465
  540SOL    HW2 1620   2.633   1.802   2.039 -0.6252  2.8387  1.3617
  541SOL     OW 1621   0.457   2.295   3.064  0.0415 -0.0610  0.1514
  541SOL    HW1 1622   0.498   2.204   3.096  2.2306  0.0519 -0.5841
  541SOL    HW2 1623   0.364   2.297   3.028  1.7109 -2.9365  0.8264
  542SOL     OW 1624   2.189   2.606   0.490 -0.0451 -0.3301  0.2956
  542SOL    HW1 1625   2.155   2.690   0.441 -0.5833  1.5972 -2.5605
  542SOL    HW2 1626   2.114   2.542   0.523  1.9180 -0.9947 -2.1465
  543SOL     OW 1627   1.003   1.786   1.718 -0.6570  0.1726 -0.5429
  543SOL    HW1 1628   1.021   1.807   1.819 -1.3878 -1.7248  1.0112
  543SOL    HW2 1629   0.938   1.850   1.670  1.5657 -2.1158  0.2379
  544SOL     OW 1630   0.880   0.425   0.162  0.1423 -0.4046  0.7062
  544SOL    HW1 1631   0.950   0.412   0.236  0.4318  0.8566  0.6888
  544SOL    HW2 1632   0.918   0.413   0.065  1.7236 -0.7100 -0.1010
  545SOL     OW 1633   1.161   1.696   0.611  0.6057 -0.0712 -0.6131
  545SOL    HW1 1634   1.248   1.704   0.668  0.3677 -1.5143  0.7295
  545SOL    HW2 1635   1.164   1.733   0.516  3.1046 -1.8055  0.1940
  546SOL     OW 1636   2.670   1.553   0.018  0.4446  0.2805 -0.1023
  546SOL    HW1 1637   2.695   1.521  -0.075  3.1015 -2.6162 -0.3370
  546SOL    HW2 1638   2.578   1.507   0.051 -2.3056 -1.2222  1.7217
  547SOL     OW 1639   0.548   0.027   2.805  0.0057  0.5873  0.2204
  547SOL    HW1 1640   0.547  -0.039   2.728  0.8149 -1.8641  0.2852
  547SOL    HW2 1641   0.547  -0.020   2.890  0.8677  0.3814 -3.0967
  548SOL     OW 1642   2.059   0.841   3.017  0.1255  0.9895  0.6272
  548SOL    HW1 1643   1.973   0.802   3.061 -0.1376  0.0085  0.8852
  548SOL    HW2 1644   2.097   0.924   3.060  1.0481 -2.4436 -1.7236
  549SOL     OW 1645   0.607   0.393   0.132  0.5039  0.1137  0.3619
  549SOL    HW1 1646   0.600   0.469   0.061 -1.2891  0.7103  0.1170
  549SOL    HW2 1647   0.697   0.376   0.187  3.6974 -1.0765  0.9480
  550SOL     OW 1648   2.525   2.872   2.881  0.5251 -0.4272  0.1847
  550SOL    HW1 1649   2.514   2.776   2.932 -0.8216 -2.0683  3.7590
  550SOL    HW2 1650   2.546   2.859   2.780 -0.4226  0.4032 -1.5556
  551SOL     OW 1651   0.241   0.811   0.175  0.1646  0.6255 -0.4871
  551SOL    HW1 1652   0.343   0.828   0.174 -2.2577  3.3770 -1.0130
  551SOL    HW2 1653   0.203   0.824   0.269 -1.3421  0.1705 -0.8260
  552SOL     OW 1654   0.809   2.806   1.850 -0.3107 -0.2688  0.2185
  552SOL    HW1 1655   0.796   2.801   1.950 -1.4128 -0.6191 -1.9133
  552SOL    HW2 1656   0.876   2.876   1.823 -1.9948 -4.3012  3.2733
  553SOL     OW 1657   3.051   2.550   0.393  0.0421 -0.0054 -0.5147
  553SOL    HW1 1658   3.014   2.460   0.352 -0.7220 -0.0517 -0.7435
  553SOL    HW2 1659   3.011   2.583   0.485 -0.0566  0.9963  0.4325
  554SOL     OW 1660   2.155   0.278   0.568  0.5389  0.7236  0.1841
  554SOL    HW1 1661   2.226   0.229   0.506  1.6562  1.8717  1.2768
  554SOL    HW2 1662   2.138   0.229   0.655  1.4209 -0.4180 -0.0108
  555SOL     OW 1663   0.440   2.913   2.434 -0.7070 -0.1705  0.0667
  555SOL    HW1 1664   0.342   2.951   2.438 -0.7547 -0.0200 -0.1187
  555SOL    HW2 1665   0.471   2.882   2.337 -2.0981 -1.4587 -1.2739
  556SOL     OW 1666   0.914   2.298   1.689 -0.0155  0.4952  0.0050
  556SOL    HW1 1667   0.913   2.402   1.711  1.5463  0.3760  0.2391
  556SOL    HW2 1668   0.955   2.275   1.598 -1.5551 -0.2054 -0.2793
  557SOL     OW 1669   0.170   2.136   0.118 -0.0984 -0.3205  0.1683
  557SOL    HW1 1670   0.104   2.058   0.118 -1.0583  1.0568  1.1507
  557SOL    HW2 1671   0.194   2.178   0.026  0.9115 -1.2700  1.5910
  558SOL     OW 1672   2.958   2.319   0.308 -0.5631 -0.4420  0.6825
  558SOL    HW1 1673   2.856   2.325   0.311 -1.0765 -3.2753 -1.3052
  558SOL    HW2 1674   2.993   2.310   0.211 -1.7897 -1.3345  2.1529
  559SOL     OW 1675   0.435   2.217   1.353 -0.2995  0.1138  0.1356
  559SOL    HW1 1676   0.341   2.226   1.309 -1.7419 -1.8966  0.3543
  559SOL    HW2 1677   0.496   2.153   1.298 -1.7590  0.6896  1.6726
  560SOL     OW 1678   2.072   1.133   3.100  0.2974 -0.1782 -0.2827
  560SOL    HW1 1679   2.064   1.193   3.015 -0.3159 -1.2579  0.0831
  560SOL    HW2 1680   1.981   1.134   3.150  0.8668 -1.9450  0.6056
  561SOL     OW 1681   3.054   1.921   0.021  0.1013  0.3490 -0.8689
  561SOL    HW1 1682   2.977   1.849   0.028  1.7614  2.6382  1.9100
  561SOL    HW2 1683   3.032   2.013  -0.025  0.7671  0.1181  0.1416
  562SOL     OW 1684   0.864   2.170   2.417  0.4368 -0.1216 -1.0455
  562SOL    HW1 1685   0.761   2.145   2.405 -2.5696 -1.9638  2.0505
  562SOL    HW2 1686   0.887   2.184   2.515 -1.2636 -0.8138 -3.7138
  563SOL     OW 1687   0.698   2.545   2.559 -0.8866 -0.1587  1.1814
  563SOL    HW1 1688   0.781   2.479   2.547 -1.8384  0.4617  0.4882
  563SOL    HW2 1689   0.694   2.579   2.656 -0.5450 -2.3690  0.0402
  564SOL     OW 1690   2.724   1.308   2.837 -0.6505 -0.1203  0.2071
  564SOL    HW1 1691   2.658   1.303   2.917 -1.0760 -1.7055 -1.9723
  564SOL    HW2 1692   2.775   1.400   2.837 -0.3147 -0.5664  0.3408
  565SOL     OW 1693   2.530   1.967   2.590  0.4685 -0.5075 -0.0920
  565SOL    HW1 1694   2.462   2.039   2.558 -1.1025 -2.0369  0.7762
  565SOL    HW2 1695   2.573   1.997   2.681 -1.3396  0.6428  2.7138
  566SOL     OW 1696   1.964   2.868   1.364 -0.0201 -0.0093 -0.1654
  566SOL    HW1 1697   1.957   2.762   1.365 -0.6768 -2.0699 -2.4009
  566SOL    HW2 1698   2.008   2.907   1.277 -1.5845  1.6227 -1.3131
  567SOL     OW 1699   2.468   0.139   2.231 -0.2170 -0.3019 -0.0101
  567SOL    HW1 1700   2.504   0.122   2.135  2.2009  0.2819 -1.1246
  567SOL    HW2 1701   2.371   0.167   2.228  1.0046 -1.0072 -0.1410
  568SOL     OW 1702   1.491   1.833   0.393  0.0630  0.0264 -0.7011
  568SOL    HW1 1703   1.492   1.862   0.300  0.5438 -0.8718  0.5089
  568SOL    HW2 1704   1.552   1.887   0.460  2.3185  1.1945 -0.1112
  569SOL     OW 1705   0.323   0.638   0.798 -0.2398 -0.3233 -0.3295
  569SOL    HW1 1706   0.392   0.573   0.766 -3.2159  0.9848  1.3855
  569SOL    HW2 1707   0.232   0.603   0.776  4.6683 -0.0346  3.1920
  570SOL     OW 1708   0.599   0.768   2.834  0.5477 -0.2842 -0.0147
  570SOL    HW1 1709   0.671   0.772   2.763 -0.5730  2.1602  1.2515
  570SOL    HW2 1710   0.568   0.863   2.862  0.5913 -1.9993 -0.2646
  571SOL     OW 1711   0.809   3.038   1.098 -0.0369  0.0912 -0.0054
  571SOL    HW1 1712   0.844   3.108   1.027  0.3603 -0.6869 -1.8443
  571SOL    HW2 1713   0.884   2.983   1.151  1.7528  1.3495 -1.0079
  572SOL     OW 1714   1.547   2.574   1.159  0.0200  0.6980  0.0843
  572SOL    HW1 1715   1.479   2.514   1.210  2.4991 -0.8374 -1.8526
  572SOL    HW2 1716   1.506   2.665   1.124 -0.0044 -1.8059 -0.3675
  573SOL     OW 1717   2.942   0.414   2.085 -0.3789 -0.3092  0.0845
  573SOL    HW1 1718   2.899   0.317   2.105  0.3962 -0.4176 -0.4455
  573SOL    HW2 1719   2.867   0.479   2.061  0.7352 -1.0891 -0.6397
  574SOL     OW 1720   0.231   1.791   1.026 -0.3025 -0.6242 -0.7130
  574SOL    HW1 1721   0.196   1.886   1.002  0.0338 -1.0332  0.4281
  574SOL    HW2 1722   0.163   1.736   1.080  1.7293  2.0096 -0.8835
  575SOL     OW 1723   0.885   2.143   1.003 -0.3834 -0.1695 -0.4516
  575SOL    HW1 1724   0.907   2.148   1.105  0.9575  2.1730 -0.0314
  575SOL    HW2 1725   0.927   2.219   0.949  0.3764 -0.1228 -1.1199
  576SOL     OW 1726   2.908   2.940   1.734 -0.1101 -0.1373 -0.4065
  576SOL    HW1 1727   2.864   2.888   1.661  0.9130 -1.4114  1.0578
  576SOL    HW2 1728   2.935   3.034   1.702 -1.9675  0.1124 -0.0247
  577SOL     OW 1729   2.566   1.261   3.058 -0.1516 -0.0995  0.4295
  577SOL    HW1 1730   2.551   1.163   3.036  0.4517  1.9080  1.8259
  577SOL    HW2 1731   2.631   1.281   3.133  0.7882  2.4451  0.5338
  578SOL     OW 1732   1.316   2.676   2.543 -0.3676 -0.3919 -0.5537
  578SOL    HW1 1733   1.227   2.668   2.487 -1.3951  1.9896  0.5705
  578SOL    HW2 1734   1.336   2.775   2.569 -0.5894  2.8150  0.4728
  579SOL     OW 1735   0.129   2.495   0.187  0.1323 -0.7515  0.1328
  579SOL    HW1 1736   0.072   2.522   0.268  1.1004 -0.2705  0.8033
  579SOL    HW2 1737   0.206   2.427   0.208  0.8696 -1.6680 -0.7348
  580SOL     OW 1738   1.007   2.648   0.365  0.0634  0.4120  0.5828
  580SOL    HW1 1739   1.078   2.698   0.310  0.4357  2.2833  0.2989
  580SOL    HW2 1740   0.940   2.590   0.311  1.2792 -0.9945 -0.9134
  581SOL     OW 1741   1.197   2.617   1.502  0.5542 -0.0371 -0.2816
  581SOL    HW1 1742   1.251   2.528   1.500  0.7715 -0.6787 -0.1907
  581SOL    HW2 1743   1.234   2.702   1.450 -0.8062  1.9070 -0.5192
  582SOL     OW 1744   1.481   0.047   1.853 -0.1065  0.3748  0.0986
  582SOL    HW1 1745   1.476   0.132   1.915  2.1780 -0.6363  1.4291
  582SOL    HW2 1746   1.567   0.051   1.792  3.0265  0.5827 -1.3987
  583SOL     OW 1747   2.450   3.008   0.604  0.1930  0.0470 -0.3638
  583SOL    HW1 1748   2.503   2.942   0.539 -2.0424 -3.3981 -0.9150
  583SOL    HW2 1749   2.389   2.956   0.668  1.7126 -1.4939 -0.8527
  584SOL     OW 1750   1.573   1.001   2.132  0.0640  0.2494  0.0882
  584SOL    HW1 1751   1.638   1.053   2.072  1.0927  1.6981  1.5047
  584SOL    HW2 1752   1.614   0.985   2.223 -1.7948 -1.0962 -0.0189
  585SOL     OW 1753   2.105   2.646   2.915 -0.5127  0.0673 -0.3935
  585SOL    HW1 1754   2.163   2.585   2.860  2.0077 -1.6265 -1.0480
  585SOL    HW2 1755   2.006   2.659   2.874 -2.2773 -0.6789 -0.4102
  586SOL     OW 1756   2.750   0.241   1.552 -0.0518  0.6709  0.5127
  586SOL    HW1 1757   2.775   0.314   1.622  1.1678 -1.4353 -1.5765
  586SOL    HW2 1758   2.660   0.196   1.586 -3.6604 -0.4893  1.1674
  587SOL     OW 1759   1.969   1.649   2.734 -0.3748  0.0146  0.0855
  587SOL    HW1 1760   2.035   1.609   2.667  1.1689 -0.5763 -3.2241
  587SOL    HW2 1761   1.994   1.629   2.834  0.2674  1.8136  0.3286
  588SOL     OW 1762   0.484   2.733   2.244  0.6437 -0.1053 -0.4068
  588SOL    HW1 1763   0.390   2.733   2.202 -0.5865  0.0871 -0.9013
  588SOL    HW2 1764   0.495   2.668   2.324 -0.0757  2.0882 -0.3697
  589SOL     OW 1765   2.142   1.443   2.561 -0.2665 -0.0164  0.7726
  589SOL    HW1 1766   2.076   1.407   2.489 -0.3944  0.2846 -1.0741
  589SOL    HW2 1767   2.240   1.398   2.563  1.7583  0.3732 -0.8487
  590SOL     OW 1768   2.362   1.692   1.992  0.6119  0.2745  0.4207
  590SOL    HW1 1769   2.431   1.614   1.993 -1.2627 -1.0351  0.7890
  590SOL    HW2 1770   2.361   1.753   2.079  1.3294  2.4669  2.1124
  591SOL     OW 1771   1.364   2.463   0.292 -0.1254  0.2903  0.0970
  591SOL    HW1 1772   1.459   2.460   0.248  2.3543  1.4127  1.8066
  591SOL    HW2 1773   1.366   2.427   0.389  0.8257  0.7023  1.5215
  592SOL     OW 1774   1.694   2.332   0.782  0.8314 -0.2655 -0.1490
  592SOL    HW1 1775   1.661   2.349   0.684 -1.9936 -0.7226 -1.8200
  592SOL    HW2 1776   1.791   2.346   0.798 -2.2154  1.4746 -0.8806
  593SOL     OW 1777   0.623   0.156   0.019  0.0969 -0.5347  1.1555
  593SOL    HW1 1778   0.690   0.158  -0.063  2.9241  0.1871 -1.6762
  593SOL    HW2 1779   0.615   0.249   0.067  2.6591  0.3754  2.6225
  594SOL     OW 1780   0.925   1.988   2.677 -0.2485 -0.5554  0.1221
  594SOL    HW1 1781   1.026   2.013   2.680  0.9759 -3.4329 -0.7530
  594SOL    HW2 1782   0.872   2.005   2.762  2.4052 -1.7699  0.5001
  595SOL     OW 1783   1.547   0.029   1.086 -0.5264 -0.5566 -0.6121
  595SOL    HW1 1784   1.632   0.011   1.039 -2.2304  1.6359  1.2454
  595SOL    HW2 1785   1.467  -0.001   1.029 -0.0136 -0.7336  0.6063
  596SOL     OW 1786   0.004   1.389   2.239  0.3502  0.0060  0.1347
  596SOL    HW1 1787  -0.095   1.419   2.264 -1.4342  0.8945  0.1633
  596SOL    HW2 1788   0.070   1.357   2.318 -0.4915  1.5529 -1.9460
  597SOL     OW 1789   2.088   2.615   1.654 -0.8432  0.0490 -0.4078
  597SOL    HW1 1790   2.053   2.541   1.590 -1.5907 -1.2517 -0.7408
  597SOL    HW2 1791   2.164   2.579   1.725  2.1854 -0.3359  0.4558
  598SOL     OW 1792   2.513   2.898   1.269 -0.3611  0.2969  0.4875
  598SOL    HW1 1793   2.565   2.941   1.349 -1.9795 -0.5858  0.4959
  598SOL    HW2 1794   2.570   2.903   1.182  0.8695 -2.6645  4.1064
  599SOL     OW 1795   2.912   0.373   2.473  0.1561  0.3680 -0.0933
  599SOL    HW1 1796   2.993   0.378   2.408  0.6253 -1.8243  0.3538
  599SOL    HW2 1797   2.818   0.360   2.426 -1.8747  1.1256 -0.6088
  600SOL     OW 1798   2.820   1.088   2.728  0.2452  0.3029 -0.0634
  600SOL    HW1 1799   2.778   0.997   2.764 -0.6013 -0.6412  1.0430
  600SOL    HW2 1800   2.782   1.173   2.779  1.0824 -2.1874  1.7231
  601SOL     OW 1801   3.004   1.242   2.025 -0.1874  0.1661  0.1659
  601SOL    HW1 1802   2.940   1.306   1.980 -2.4098 -0.8440 -2.7766
  601SOL    HW2 1803   3.085   1.293   2.069 -0.1093  1.1782 -1.0707
  602SOL     OW 1804   1.521   1.729   2.365 -0.4843 -0.3452 -0.4862
  602SOL    HW1 1805   1.470   1.645   2.347  0.7472  4.8040 -0.4773
  602SOL    HW2 1806   1.618   1.714   2.387 -1.8643 -0.3077 -3.1529
  603SOL     OW 1807   0.639   1.258   2.691 -0.3497 -0.2152  0.3979
  603SOL    HW1 1808   0.573   1.251   2.606  1.4426  0.4751 -1.2465
  603SOL    HW2 1809   0.727   1.203   2.683 -1.3648 -1.2872 -0.8877
  604SOL     OW 1810   2.414   0.967   0.168  0.2635 -0.3257 -0.5642
  604SOL    HW1 1811   2.487   1.019   0.121 -2.1719  0.2439 -1.5440
  604SOL    HW2 1812   2.399   0.876   0.116  0.1318  0.9407 -0.0405
  605SOL     OW 1813   2.692   1.136   1.954  0.1158  0.6429  0.4334
  605SOL    HW1 1814   2.649   1.074   1.889  1.2302  0.1295 -0.7052
  605SOL    HW2 1815   2.685   1.099   2.049 -0.4691 -0.8128 -0.2379
  606SOL     OW 1816   1.523   2.530   2.614 -0.0868 -0.4454  0.0994
  606SOL    HW1 1817   1.439   2.597   2.596 -1.6586 -0.1963  1.9773
  606SOL    HW2 1818   1.511   2.435   2.576  1.3272 -2.4392  1.0969
  607SOL     OW 1819   1.354   1.585   0.438 -0.1744  0.3664  0.0180
  607SOL    HW1 1820   1.306   1.590   0.527  1.3627 -0.1059  0.5222
  607SOL    HW2 1821   1.386   1.680   0.409 -1.7104  3.1570 -3.1847
  608SOL     OW 1822   1.415   2.891   0.459 -0.5323 -0.2376  0.3251
  608SOL    HW1 1823   1.484   2.929   0.386  0.8197  1.7641 -0.4012
  608SOL    HW2 1824   1.335   2.956   0.479 -0.9433 -0.1763  0.9865
  609SOL     OW 1825   1.288   1.377   0.276 -0.1343  0.3223  0.1340
  609SOL    HW1 1826   1.316   1.449   0.346 -1.6068 -1.3476 -0.2165
  609SOL    HW2 1827   1.190   1.353   0.286 -0.8014 -2.1099  0.7327
  610SOL     OW 1828   2.959   1.116   2.287 -0.0079  0.1470 -0.2790
  610SOL    HW1 1829   2.944   1.015   2.297  0.2223  0.0226  0.9199
  610SOL    HW2 1830   2.971   1.150   2.189 -0.6303  0.7428 -1.8187
  611SOL     OW 1831   2.517   0.301   1.154  0.0751 -0.5169  0.0126
  611SOL    HW1 1832   2.480   0.207   1.177  0.2217  1.0816 -0.0297
  611SOL    HW2 1833   2.616   0.315   1.189  1.4918  0.7536 -1.2093
  612SOL     OW 1834   0.756   2.199   1.262  0.5948  0.5452 -0.0396
  612SOL    HW1 1835   0.689   2.118   1.241 -0.8869  0.3338  1.5272
  612SOL    HW2 1836   0.720   2.293   1.239  0.0486 -0.3374 -0.7767
  613SOL     OW 1837   0.891   1.467   2.375 -0.4334  0.2433  0.2252
  613SOL    HW1 1838   0.973   1.517   2.333 -0.2087  2.2615  2.1633
  613SOL    HW2 1839   0.863   1.381   2.318  1.5526 -0.7070  1.6420
  614SOL     OW 1840   1.666   1.599   1.824  0.1771  0.5723  0.5283
  614SOL    HW1 1841   1.633   1.697   1.822 -1.7606 -0.2564  0.6587
  614SOL    HW2 1842   1.719   1.577   1.911 -0.2543  1.6758  0.7503
  615SOL     OW 1843   0.827   1.286   1.718  0.9491  0.4247 -0.5027
  615SOL    HW1 1844   0.759   1.251   1.643 -0.2316  3.8001  0.6619
  615SOL    HW2 1845   0.839   1.396   1.711  0.4447  1.1790  0.9602
  616SOL     OW 1846   1.114   1.552   2.201  0.0880  0.7753  0.1467
  616SOL    HW1 1847   1.017   1.534   2.158  0.7168  1.8438  0.3138
  616SOL    HW2 1848   1.139   1.655   2.196 -0.7228  0.1598 -0.6724
  617SOL     OW 1849   2.965   1.540   1.619 -0.4444 -0.8076 -0.6374
  617SOL    HW1 1850   2.957   1.471   1.697  0.8378  0.5771  1.5336
  617SOL    HW2 1851   3.026   1.506   1.541 -1.0410  1.1619  1.6421
  618SOL     OW 1852   1.875   2.095   1.363  0.0926 -0.0086 -0.1021
  618SOL    HW1 1853   1.843   2.174   1.302 -1.0702 -1.1076 -1.4445
  618SOL    HW2 1854   1.873   2.006   1.305 -0.1948 -3.0514 -2.9434
  619SOL     OW 1855   1.758   0.460   2.374  0.0623 -0.1294 -0.2933
  619SOL    HW1 1856   1.686   0.517   2.328 -0.7336 -2.3920 -1.8687
  619SOL    HW2 1857   1.729   0.364   2.388 -1.0880 -0.0064  1.1980
  620SOL     OW 1858   2.297   2.863   0.773  0.2983  0.3884 -0.2499
  620SOL    HW1 1859   2.244   2.945   0.805 -0.5047  3.9328  0.0689
  620SOL    HW2 1860   2.313   2.791   0.848 -1.4359  0.9241 -1.5624
  621SOL     OW 1861   2.125   1.844   1.351 -0.5032 -1.0240  0.1980
  621SOL    HW1 1862   2.169   1.852   1.447  0.3607 -2.2814 -0.2568
  621SOL    HW2 1863   2.080   1.752   1.336 -0.0116 -1.4270 -0.1719
  622SOL     OW 1864   2.319   0.945   1.854 -1.0066 -0.4535 -0.2072
  622SOL    HW1 1865   2.413   0.929   1.826 -1.5947 -1.7919  1.0743
  622SOL    HW2 1866   2.273   0.852   1.874  0.6475 -0.2557 -1.8076
  623SOL     OW 1867   1.339   0.792   2.440  0.5195  0.1437 -0.4236
  623SOL    HW1 1868   1.245   0.750   2.433 -1.9224 -2.8033  0.1411
  623SOL    HW2 1869   1.350   0.865   2.367  2.7695  1.5329 -0.6157
  624SOL     OW 1870   0.536   0.638   3.083 -0.0863  0.0784 -0.2168
  624SOL    HW1 1871   0.547   0.675   2.988 -0.8769  1.3018  0.1324
  624SOL    HW2 1872   0.557   0.704   3.158  2.6349  1.0868  1.0132
  625SOL     OW 1873   2.789   1.709   1.008  0.0215  0.0188 -0.4095
  625SOL    HW1 1874   2.698   1.758   1.011  1.1637 -0.4504  2.5017
  625SOL    HW2 1875   2.865   1.771   1.029  0.9216 -1.7926  0.3550
  626SOL     OW 1876   0.622   2.684   1.712  0.0306 -0.8162 -0.2773
  626SOL    HW1 1877   0.687   2.741   1.771 -0.8999 -0.1301  1.0499
  626SOL    HW2 1878   0.527   2.678   1.757 -1.2238 -1.5092  2.6727
  627SOL     OW 1879   0.643   0.885   1.578 -0.0133  0.1555 -0.2995
  627SOL    HW1 1880   0.570   0.850   1.511  1.4825  1.8788  1.7110
  627SOL    HW2 1881   0.728   0.911   1.528 -2.1219 -0.1549 -0.3983
  628SOL     OW 1882   2.429   0.146   0.698  0.0996  0.2525  0.1285
  628SOL    HW1 1883   2.449   0.055   0.655 -1.9531  1.7107  1.5510
  628SOL    HW2 1884   2.330   0.148   0.732  1.1325  1.4378 -1.0021
  629SOL     OW 1885   1.900   0.908   1.985 -0.0438 -0.3079  0.0450
  629SOL    HW1 1886   1.908   0.963   1.898  1.4602 -2.3776 -1.1922
  629SOL    HW2 1887   1.881   0.961   2.072 -0.5014 -1.1425  1.1709
  630SOL     OW 1888   2.909   2.317   0.778  0.6434  0.6802 -0.0387
  630SOL    HW1 1889   2.838   2.392   0.785 -1.4146  0.5640  0.8461
  630SOL    HW2 1890   2.865   2.230   0.752 -1.8999  0.9189  3.0871
  631SOL     OW 1891   3.078   0.137   2.172 -0.6496  0.6394  0.4279
  631SOL    HW1 1892   3.161   0.187   2.207 -1.3184 -1.3825 -1.8307
  631SOL    HW2 1893   3.083   0.119   2.072 -0.2545 -0.1424 -0.1658
  632SOL     OW 1894   2.437   2.568   0.590  0.5227  0.0291  0.6631
  632SOL    HW1 1895   2.496   2.650   0.616  0.7160 -1.5916 -0.5267
  632SOL    HW2 1896   2.348   2.587   0.546  2.9315 -0.2669  0.9001
  633SOL     OW 1897   1.475   1.192   2.685  0.8077 -0.3043  0.0639
  633SOL    HW1 1898   1.449   1.282   2.741 -2.3797  2.3973  0.3204
  633SOL    HW2 1899   1.412   1.187   2.602 -2.0363  2.7357 -0.2848
  634SOL     OW 1900   0.638   2.035   0.917 -0.3458 -0.0262 -0.0953
  634SOL    HW1 1901   0.544   2.063   0.948  1.2398 -3.5857  1.1500
  634SOL    HW2 1902   0.716   2.090   0.956  1.0286 -2.5993 -1.8718
  635SOL     OW 1903   3.010   2.387   0.031 -0.3789 -0.1011  0.2113
  635SOL    HW1 1904   2.949   2.450  -0.030 -2.0890  0.0880  0.0929
  635SOL    HW2 1905   3.097   2.437   0.065 -0.1311 -1.3843  2.6885
  636SOL     OW 1906   2.401   2.752   1.992 -0.3398  0.2338 -0.2449
  636SOL    HW1 1907   2.385   2.856   1.999 -1.9645  0.8510 -0.0695
  636SOL    HW2 1908   2.337   2.705   2.054  0.4384  3.8320 -0.4940
  637SOL     OW 1909   2.766   0.610   1.978  0.0879  0.3773 -0.4711
  637SOL    HW1 1910   2.720   0.595   1.883  1.1111 -1.1163  2.1341
  637SOL    HW2 1911   2.836   0.687   1.986  1.3882  0.2548  1.9763
  638SOL     OW 1912   2.442   1.850   1.293  0.1814  0.1535 -0.0721
  638SOL    HW1 1913   2.339   1.851   1.281  1.2909 -1.2159 -0.5312
  638SOL    HW2 1914   2.470   1.790   1.373  0.3680  1.0078  1.9132
  639SOL     OW 1915   1.319   2.212   1.684 -0.1614 -0.1086  0.2916
  639SOL    HW1 1916   1.349   2.308   1.699 -0.6356 -0.5136  1.4120
  639SOL    HW2 1917   1.256   2.179   1.755  0.2135 -0.3707 -3.1513
  640SOL     OW 1918   0.187   1.195   1.548  0.1658  0.0742 -0.0454
  640SOL    HW1 1919   0.191   1.192   1.648 -1.5450  2.1148  1.2287
  640SOL    HW2 1920   0.237   1.116   1.507  0.8982  0.7871 -2.1684
  641SOL     OW 1921   1.964   0.272   1.483 -0.0507  0.0765 -0.5645
  641SOL    HW1 1922   1.882   0.299   1.540  0.8539 -0.0781 -0.2300
  641SOL    HW2 1923   2.029   0.209   1.528  1.8963  0.2813 -0.2782
  642SOL     OW 1924   2.029   0.079   0.376 -0.3385 -0.0855  0.2581
  642SOL    HW1 1925   2.134   0.072   0.378 -1.1599 -0.5006 -0.7408
  642SOL    HW2 1926   1.985   0.142   0.446  0.6173  1.3210 -0.0167
  643SOL     OW 1927   2.905   1.848   2.159  0.5487 -0.2077 -0.4352
  643SOL    HW1 1928   2.848   1.769   2.118  1.1104  0.0216 -0.8562
  643SOL    HW2 1929   2.903   1.929   2.094  0.2217  0.6917  1.6438
  644SOL     OW 1930   2.292   2.431   1.241 -0.0750  0.1870 -0.1675
  644SOL    HW1 1931   2.331   2.345   1.198 -0.8422  0.7074  0.2902
  644SOL    HW2 1932   2.236   2.403   1.319  2.4944  0.3445 -2.8274
  645SOL     OW 1933   0.600   0.824   1.244 -0.5020  0.0667  0.7459
  645SOL    HW1 1934   0.513   0.775   1.244  0.7289  0.6349 -0.6817
  645SOL    HW2 1935   0.626   0.843   1.150 -0.4324 -0.4531  0.6751
  646SOL     OW 1936   1.499   1.819   2.047  0.1723 -0.1126 -0.0382
  646SOL    HW1 1937   1.580   1.825   1.982  0.4422 -1.8515 -1.3795
  646SOL    HW2 1938   1.530   1.802   2.146 -0.2622 -1.2550 -0.3478
  647SOL     OW 1939   0.838   1.099   0.656  0.2743 -0.0379 -0.6988
  647SOL    HW1 1940   0.911   1.126   0.727  4.0456  1.5240 -1.1006
  647SOL    HW2 1941   0.774   1.025   0.695  1.5373 -2.0484  1.1925
  648SOL     OW 1942   0.150   0.259   0.296 -0.1453  0.6898 -0.5336
  648SOL    HW1 1943   0.143   0.171   0.243 -0.0274 -1.4148  0.8388
  648SOL    HW2 1944   0.146   0.348   0.240  0.1900 -0.0464  1.0002
  649SOL     OW 1945   3.024   0.190   0.778 -0.4633 -0.7681  0.3582
  649SOL    HW1 1946   3.111   0.130   0.767  0.7485 -1.6847  1.4133
  649SOL    HW2 1947   3.045   0.283   0.818  0.9312 -0.7242  0.4351
  650SOL     OW 1948   2.725   0.655   1.541 -0.0647 -0.4973  0.4630
  650SOL    HW1 1949   2.625   0.641   1.519 -1.5674  3.6054  0.2199
  650SOL    HW2 1950   2.743   0.752   1.522 -1.4108 -2.3971  3.5077
  651SOL     OW 1951   0.875   1.544   1.676  0.2202  0.0067  0.1390
  651SOL    HW1 1952   0.903   1.616   1.748 -1.2501 -0.3210  1.4859
  651SOL    HW2 1953   0.944   1.536   1.600 -0.9715  1.4136 -0.2226
  652SOL     OW 1954   2.402   2.467   2.467  0.1531 -0.7792  0.2017
  652SOL    HW1 1955   2.305   2.494   2.486 -1.6095 -0.2783  1.2930
  652SOL    HW2 1956   2.434   2.494   2.374  1.9087 -0.6145  0.3311
  653SOL     OW 1957   2.739   1.245   0.183 -0.0111 -0.2758 -0.1060
  653SOL    HW1 1958   2.752   1.334   0.233  1.1809 -0.2255 -1.0557
  653SOL    HW2 1959   2.790   1.162   0.221  0.0372 -1.3433 -1.9612
  654SOL     OW 1960   1.271   2.179   1.292 -0.1507  0.0864  0.5641
  654SOL    HW1 1961   1.262   2.091   1.338 -0.9024  1.9813 -0.2226
  654SOL    HW2 1962   1.278   2.172   1.190  0.5609  3.0435 -0.2554
  655SOL     OW 1963   0.178   0.957   1.886  0.7909 -0.3319 -0.3872
  655SOL    HW1 1964   0.250   0.919   1.820 -2.3911 -0.2968 -1.0667
  655SOL    HW2 1965   0.191   1.058   1.900  0.2623 -0.5691  2.2226
  656SOL     OW 1966   2.571   2.566   2.654 -0.4011 -0.4991  0.4131
  656SOL    HW1 1967   2.668   2.529   2.630  2.4841  0.5932 -1.6897
  656SOL    HW2 1968   2.500   2.522   2.591 -1.1989  1.0886 -0.7691
  657SOL     OW 1969   3.009   1.053   1.816 -0.5671 -0.6945 -0.5036
  657SOL    HW1 1970   2.992   1.131   1.874  1.3498 -3.5682 -1.0570
  657SOL    HW2 1971   3.108   1.020   1.826  1.5646  0.7906  0.2185
  658SOL     OW 1972   1.708   0.200   2.310  0.3395  0.3320 -0.4336
  658SOL    HW1 1973   1.740   0.126   2.377 -2.9391  1.8413 -3.8302
  658SOL    HW2 1974   1.726   0.171   2.210 -0.0189  1.2841 -2.8147
  659SOL     OW 1975   1.406   0.637   2.754 -0.4414 -0.0388  0.4748
  659SOL    HW1 1976   1.462   0.723   2.721  0.5384  0.8861 -1.0840
  659SOL    HW2 1977   1.319   0.661   2.804 -1.5825 -2.0518 -0.2820
  660SOL     OW 1978   1.444   0.343   1.406 -0.3916  0.4334  0.1968
  660SOL    HW1 1979   1.449   0.389   1.502  1.4302  0.2090 -1.3057
  660SOL    HW2 1980   1.506   0.263   1.392  0.6830  4.3834  4.0186
  661SOL     OW 1981   2.443   1.245   0.642 -0.0158  0.3312 -0.0645
  661SOL    HW1 1982   2.469   1.272   0.547 -1.7567  0.7455 -1.4368
  661SOL    HW2 1983   2.363   1.305   0.668  0.8926 -4.2725 -0.6002
  662SOL     OW 1984   1.444   0.433   1.711 -0.4342 -0.2186  0.2663
  662SOL    HW1 1985   1.367   0.374   1.744 -0.1811  0.0761 -1.6981
  662SOL    HW2 1986   1.412   0.537   1.701 -1.7312  1.3301  1.5710
  663SOL     OW 1987   0.860   1.571   2.099  0.1289 -0.6921  0.9627
  663SOL    HW1 1988   0.794   1.639   2.125  0.4260 -2.1901  2.8199
  663SOL    HW2 1989   0.829   1.504   2.024  1.8663  0.2203 -0.9660
  664SOL     OW 1990   1.601   2.124   1.422  0.8855 -0.3286  0.3696
  664SOL    HW1 1991   1.509   2.084   1.452 -0.4814 -1.5384 -0.2853
  664SOL    HW2 1992   1.684   2.067   1.448 -0.8148  2.6812  0.6642
  665SOL     OW 1993   2.277   0.662   1.959  0.2789 -0.3514  0.0253
  665SOL    HW1 1994   2.255   0.561   1.974  1.2278 -2.1363  1.3223
  665SOL    HW2 1995   2.335   0.703   2.033 -2.5918 -1.1954 -1.6478
  666SOL     OW 1996   0.482   2.239   0.314 -0.2662  0.2424 -0.2214
  666SOL    HW1 1997   0.540   2.257   0.401 -0.3144  0.3535  0.5547
  666SOL    HW2 1998   0.382   2.238   0.340  1.2378  1.3138  1.5399
  667SOL     OW 1999   1.914   0.225   1.033 -0.1606  0.2546 -0.3118
  667SOL    HW1 2000   1.983   0.302   1.033 -1.5292  0.8977 -0.6923
  667SOL    HW2 2001   1.865   0.207   1.127 -2.1271 -0.9969 -0.0461
  668SOL     OW 2002   1.992   0.518   1.128 -0.1198  0.6047  0.1713
  668SOL    HW1 2003   2.056   0.538   1.056 -4.9143 -2.8415  0.8208
  668SOL    HW2 2004   2.031   0.523   1.224  1.0420 -3.2223  2.0943
  669SOL     OW 2005   3.025   2.180   1.009 -0.0622 -0.0959  0.7196
  669SOL    HW1 2006   2.992   2.218   0.915 -0.2614 -2.2402  1.4936
  669SOL    HW2 2007   2.968   2.225   1.081  0.6639  2.2193 -3.2286
  670SOL     OW 2008   2.898   2.300   2.087 -0.2546  0.2068  0.0618
  670SOL    HW1 2009   2.826   2.292   2.162 -3.3254  0.2045  2.1883
  670SOL    HW2 2010   2.891   2.398   2.048  0.9627  1.1535  1.0449
  671SOL     OW 2011   1.773   1.775   1.543 -0.0322 -0.2747  0.0559
  671SOL    HW1 2012   1.826   1.734   1.465  0.7688  2.5174 -1.2138
  671SOL    HW2 2013   1.670   1.757   1.548 -1.6370  0.1508  1.5712
  672SOL     OW 2014   0.475   0.662   2.541  0.0972  0.5706 -0.3892
  672SOL    HW1 2015   0.389   0.696   2.491  0.5814  0.3303 -0.0413
  672SOL    HW2 2016   0.449   0.608   2.625  0.1190 -2.5363  0.9263
  673SOL     OW 2017   0.070   1.302   1.113  0.1806 -0.9965  0.0090
  673SOL    HW1 2018   0.086   1.384   1.175 -1.7792  0.0566 -0.9580
  673SOL    HW2 2019   0.157   1.260   1.088 -1.3509  1.4908  1.7252
  674SOL     OW 2020   1.635   2.968   0.312  0.1461  0.3727  0.1435
  674SOL    HW1 2021   1.625   3.014   0.217 -2.0392  1.8881 -2.5212
  674SOL    HW2 2022   1.719   2.912   0.318  0.4673  0.3832 -2.1363
  675SOL     OW 2023   1.732   0.840   2.335 -0.1964 -0.1201 -0.3050
  675SOL    HW1 2024   1.837   0.832   2.327  0.6854  0.9117 -2.1337
  675SOL    HW2 2025   1.684   0.767   2.281  2.5685  1.3514 -0.5347
  676SOL     OW 2026   2.558   1.515   1.930 -0.3219 -0.1180 -0.3985
  676SOL    HW1 2027   2.520   1.482   1.843  2.2636 -1.7133  1.6054
  676SOL    HW2 2028   2.570   1.433   1.998 -0.7165 -2.3841 -0.0388
  677SOL     OW 2029   1.914   0.731   0.898  0.5162 -0.1503 -0.4171
  677SOL    HW1 2030   1.837   0.715   0.963 -1.0604 -0.8051 -1.9646
  677SOL    HW2 2031   1.998   0.675   0.912  1.7149  4.9429 -2.1671
  678SOL     OW 2032   0.114   0.744   1.616 -0.0153  0.4370  0.1566
  678SOL    HW1 2033   0.207   0.731   1.657  0.5515 -1.3255  0.9500
  678SOL    HW2 2034   0.037   0.733   1.684 -0.5599  0.4732  0.3204
  679SOL     OW 2035   2.598   1.181   1.164 -0.3499  0.3812  0.3433
  679SOL    HW1 2036   2.498   1.217   1.158 -1.7665  3.6912  0.5823
  679SOL    HW2 2037   2.602   1.080   1.145 -3.4727  2.2463 -2.3528
  680SOL     OW 2038   2.844   0.473   1.709 -0.3962 -0.0221 -0.0915
  680SOL    HW1 2039   2.808   0.549   1.641  0.6538  1.4849  1.2990
  680SOL    HW2 2040   2.919   0.514   1.769  0.9261  0.0208  0.5415
  681SOL     OW 2041   2.987   0.068   1.612 -0.2575 -0.0277 -0.3611
  681SOL    HW1 2042   3.031   0.028   1.522 -0.0059 -2.9746 -2.8143
  681SOL    HW2 2043   2.890   0.108   1.589 -1.0229 -0.5665  0.1904
  682SOL     OW 2044   0.659   0.050   1.344 -0.0524  0.3805 -0.2166
  682SOL    HW1 2045   0.591  -0.015   1.393  0.5878 -1.9610 -1.2294
  682SOL    HW2 2046   0.706   0.006   1.264  0.6937  3.5290  1.1291
  683SOL     OW 2047   1.369   0.210   2.157  0.4463  0.0900  0.2627
  683SOL    HW1 2048   1.374   0.227   2.260 -1.8699 -0.0028 -1.2245
  683SOL    HW2 2049   1.450   0.244   2.101  1.8321 -4.0306 -1.9483
  684SOL     OW 2050   1.454   2.117   0.545  0.3212 -0.0173  0.2037
  684SOL    HW1 2051   1.488   2.064   0.627  2.1252  1.1088 -2.1104
  684SOL    HW2 2052   1.364   2.084   0.501 -1.2708 -1.1877 -0.6673
  685SOL     OW 2053   2.220   2.058   1.966  0.4079  0.6358  0.3107
  685SOL    HW1 2054   2.279   2.059   1.880  0.2578 -0.5568  1.1342
  685SOL    HW2 2055   2.282   2.057   2.044 -1.3028 -0.0277 -1.1876
  686SOL     OW 2056   1.499   1.826   2.856 -0.7348 -0.2099 -0.5396
  686SOL    HW1 2057   1.545   1.777   2.936 -0.7359 -0.6711 -0.6691
  686SOL    HW2 2058   1.401   1.806   2.841  0.3166 -1.0235 -2.3988
  687SOL     OW 2059   1.321   2.394   1.976  0.1325  0.3168 -0.1348
  687SOL    HW1 2060   1.333   2.292   1.984 -1.5196 -0.6110  0.4709
  687SOL    HW2 2061   1.415   2.440   1.984  0.4198 -0.7972  0.9003
  688SOL     OW 2062   2.044   1.523   1.783 -0.4936  0.0665  0.4014
  688SOL    HW1 2063   2.128   1.580   1.750 -1.0474  2.8842 -1.3827
  688SOL    HW2 2064   2.000   1.479   1.698  0.6207  0.0657  2.3094
  689SOL     OW 2065   2.388   1.099   2.729  0.2083 -0.4631 -0.2231
  689SOL    HW1 2066   2.294   1.059   2.750 -0.0022 -1.7740  1.7074
  689SOL    HW2 2067   2.437   1.125   2.817 -2.1692  0.1695  1.3718
  690SOL     OW 2068   2.246   2.775   0.063  0.3093  0.7070  0.1245
  690SOL    HW1 2069   2.151   2.743   0.028 -5.3896 -1.2416  2.9758
  690SOL    HW2 2070   2.240   2.798   0.166 -0.1414 -1.8449 -0.6625
  691SOL     OW 2071   2.595   0.403   2.099 -0.2186  0.2047 -0.4955
  691SOL    HW1 2072   2.654   0.319   2.126 -0.1759 -0.0472  0.9970
  691SOL    HW2 2073   2.649   0.492   2.101 -1.0937  0.0818 -1.3096
  692SOL     OW 2074   2.633   1.207   0.818  0.0501 -0.0712 -0.0797
  692SOL    HW1 2075   2.557   1.234   0.754 -1.0165  0.6703  1.5464
  692SOL    HW2 2076   2.673   1.286   0.867  0.9231 -1.3236 -0.1051
  693SOL     OW 2077   2.857   2.991   0.579  0.1529  0.4236 -0.1340
  693SOL    HW1 2078   2.834   3.056   0.658  3.2957 -0.0848  2.7624
  693SOL    HW2 2079   2.840   3.029   0.483  0.9975  2.3079 -1.9261
  694SOL     OW 2080   2.450   2.205   0.144  0.0027 -0.8404 -0.1991
  694SOL    HW1 2081   2.437   2.298   0.187  1.3225  1.9255 -1.7572
  694SOL    HW2 2082   2.363   2.168   0.097 -1.3064  1.3343 -2.3454
  695SOL     OW 2083   0.489   2.953   1.432 -0.3746 -0.2792 -0.0205
  695SOL    HW1 2084   0.421   2.885   1.394 -0.1545  2.1681  0.1237
  695SOL    HW2 2085   0.475   2.981   1.529  1.5686 -1.5272 -0.6649
  696SOL     OW 2086   2.846   2.050   0.742  0.3529  0.3852 -0.2211
  696SOL    HW1 2087   2.901   1.967   0.767  0.2760  1.1538  1.2045
  696SOL    HW2 2088   2.825   2.058   0.638  1.4994  0.9072 -2.4777
  697SOL     OW 2089   1.656   1.877   1.824 -0.3705  0.4021 -0.3751
  697SOL    HW1 2090   1.757   1.847   1.839 -1.2844 -3.3553  1.1828
  697SOL    HW2 2091   1.654   1.974   1.789  0.1431 -1.2356  0.9440
  698SOL     OW 2092   2.896   0.429   2.756 -0.6280  0.4577  0.3465
  698SOL    HW1 2093   2.932   0.402   2.666 -0.9696 -0.5635 -1.7060
  698SOL    HW2 2094   2.944   0.384   2.834  1.0001  1.0058 -0.2912
  699SOL     OW 2095   1.554   0.057   2.920 -0.1951 -0.1469  0.5450
  699SOL    HW1 2096   1.515  -0.027   2.878  0.2129 -0.5774 -0.4670
  699SOL    HW2 2097   1.611   0.107   2.849  0.3047 -0.2043 -0.2170
  700SOL     OW 2098   0.994   2.244   1.385  0.3779  0.4832  0.9556
  700SOL    HW1 2099   1.065   2.177   1.367 -2.3644 -0.8100  1.6917
  700SOL    HW2 2100   0.901   2.220   1.345  2.8529  0.8011  0.6674
  701SOL     OW 2101   1.915   2.864   0.005  0.2829  0.5235 -0.1241
  701SOL    HW1 2102   1.896   2.827   0.102 -1.3341 -2.4959 -1.7045
  701SOL    HW2 2103   1.948   2.962   0.015  1.4732  0.6759 -1.2115
  702SOL     OW 2104   2.077   1.312   1.956 -0.5240 -0.5456 -0.3028
  702SOL    HW1 2105   2.176   1.281   1.969  0.3656  0.9626  0.6962
  702SOL    HW2 2106   2.076   1.392   1.888 -0.0388  2.0400  2.4546
  703SOL     OW 2107   1.938   0.911   1.485  0.5093  0.3385  0.0629
  703SOL    HW1 2108   1.936   0.828   1.551 -2.2704 -1.3949  1.6428
  703SOL    HW2 2109   2.028   0.960   1.490  2.1022 -1.9002 -1.4935
  704SOL     OW 2110   0.297   2.023   1.691 -0.3552  0.0119 -0.4828
  704SOL    HW1 2111   0.323   1.993   1.790 -1.3981  0.1625 -1.0902
  704SOL    HW2 2112   0.347   2.106   1.659 -0.0852  0.9532  0.3043
  705SOL     OW 2113   2.467   1.503   0.869 -0.4555  0.5268 -0.5139
  705SOL    HW1 2114   2.453   1.433   0.795 -1.9701  0.0458 -1.2412
  705SOL    HW2 2115   2.562   1.496   0.913  0.0172 -1.7815 -2.4699
  706SOL     OW 2116   0.685   1.706   1.839  0.4988 -0.1778  0.0905
  706SOL    HW1 2117   0.649   1.611   1.839  1.2758 -3.5253  0.8455
  706SOL    HW2 2118   0.720   1.737   1.928  0.6681 -1.3194 -4.4967
  707SOL     OW 2119   2.340   1.201   1.979  0.0800  0.1619  0.2761
  707SOL    HW1 2120   2.434   1.211   2.017 -0.8788 -0.2168  1.5521
  707SOL    HW2 2121   2.321   1.104   1.944 -1.3275  2.2961 -0.8486
  708SOL     OW 2122   3.017   0.528   3.031 -0.2788  0.6195 -0.4487
  708SOL    HW1 2123   3.092   0.586   2.986  3.6675 -0.8042  0.7849
  708SOL    HW2 2124   2.994   0.433   2.992  2.4058 -1.7584  2.5251
  709SOL     OW 2125   1.886   1.854   0.337  0.3673  0.1836 -0.4899
  709SOL    HW1 2126   1.895   1.953   0.359  0.0572  0.4577 -1.3979
  709SOL    HW2 2127   1.865   1.843   0.234  3.3609  0.8566 -0.5888
  710SOL     OW 2128   1.769   1.628   2.474 -0.1572 -0.2894  0.0594
  710SOL    HW1 2129   1.829   1.563   2.419 -1.8449  1.0017 -3.4243
  710SOL    HW2 2130   1.732   1.576   2.561  0.3776  1.4160  0.3405
  711SOL     OW 2131   2.604   2.939   0.967 -0.7888 -0.3664  0.0127
  711SOL    HW1 2132   2.556   3.028   0.974 -0.0284 -1.4677  0.2520
  711SOL    HW2 2133   2.702   2.944   0.997 -1.3504 -1.3402  2.7872
  712SOL     OW 2134   1.407   2.144   1.961  0.2230  0.0558  0.0996
  712SOL    HW1 2135   1.512   2.161   1.986  3.3515  2.8538 -0.7842
  712SOL    HW2 2136   1.395   2.087   1.873  0.8165 -0.2399 -2.7576
  713SOL     OW 2137   2.800   1.509   2.527  0.2762  0.4751 -0.2469
  713SOL    HW1 2138   2.796   1.402   2.516  2.7622 -1.8820 -0.4343
  713SOL    HW2 2139   2.705   1.540   2.559 -0.9015  0.2504  0.5829
  714SOL     OW 2140   2.618   0.452   2.375 -0.6177 -0.5643  0.3385
  714SOL    HW1 2141   2.563   0.379   2.433 -1.4147  0.8289 -0.8041
  714SOL    HW2 2142   2.594   0.445   2.273 -0.3552 -0.6948 -2.1366
  715SOL     OW 2143   1.576   2.150   1.144 -0.0236 -0.5761 -0.9242
  715SOL    HW1 2144   1.475   2.170   1.128  0.3689 -1.7345  0.4618
  715SOL    HW2 2145   1.593   2.133   1.245  2.2177  0.7895  1.6827
  716SOL     OW 2146   1.233   0.155   1.480 -0.4396  0.3183 -0.2489
  716SOL    HW1 2147   1.137   0.151   1.458  3.5474 -0.3664  2.5328
  716SOL    HW2 2148   1.283   0.243   1.466 -1.8706 -2.9406 -0.6679
  717SOL     OW 2149   1.165   0.547   1.589  0.1050 -0.1333 -0.1927
  717SOL    HW1 2150   1.233   0.620   1.615 -2.2265  0.1122  0.3723
  717SOL    HW2 2151   1.190   0.496   1.499 -1.3629 -2.7102 -2.2078
  718SOL     OW 2152   0.649   0.897   0.953  0.4499  0.1014 -0.4279
  718SOL    HW1 2153   0.648   0.888   0.848 -0.1102 -0.5908 -2.1072
  718SOL    HW2 2154   0.665   0.993   0.984  0.5293 -1.1713  1.6909
  719SOL     OW 2155   0.602   1.740   2.287 -0.3417  0.1808 -0.4726
  719SOL    HW1 2156   0.680   1.767   2.348  2.1743 -2.9365  0.8554
  719SOL    HW2 2157   0.592   1.635   2.276 -0.4079  2.4619  0.7043
  720SOL     OW 2158   2.218   1.130   0.295 -0.0380 -0.3720 -0.1299
  720SOL    HW1 2159   2.227   1.054   0.223  1.1597  1.4646  0.1881
  720SOL    HW2 2160   2.250   1.099   0.386  1.2832  0.3357 -2.2561
  721SOL     OW 2161   2.249   2.999   2.052  0.1152 -0.3448 -0.2198
  721SOL    HW1 2162   2.198   2.992   1.966  0.0789  3.4294  2.2874
  721SOL    HW2 2163   2.190   3.035   2.132 -0.4889  1.3720 -3.3926
  722SOL     OW 2164   2.355   1.642   0.482 -0.1867  0.1588  0.2848
  722SOL    HW1 2165   2.401   1.665   0.391  0.7593 -0.5509 -2.4343
  722SOL    HW2 2166   2.249   1.645   0.472 -2.3848 -0.7954 -2.2645
  723SOL     OW 2167   2.645   2.713   1.924 -0.3673 -0.1422 -0.1637
  723SOL    HW1 2168   2.703   2.796   1.958  4.9848 -0.4486 -2.1612
  723SOL    HW2 2169   2.542   2.717   1.953 -0.1220  0.8300  1.5996
  724SOL     OW 2170   0.469   2.502   2.410  0.2758 -0.0092  0.2649
  724SOL    HW1 2171   0.371   2.510   2.453 -1.7797  0.0078  0.8660
  724SOL    HW2 2172   0.545   2.478   2.476  0.6782 -1.8403 -0.1414
  725SOL     OW 2173   2.371   2.750   1.571 -0.1267 -0.8932  0.3991
  725SOL    HW1 2174   2.431   2.770   1.491  0.7081 -3.7223  0.0701
  725SOL    HW2 2175   2.334   2.653   1.559  1.1491  0.8320 -3.4708
  726SOL     OW 2176   2.484   2.310   0.691 -0.6656  0.6326  0.3394
  726SOL    HW1 2177   2.480   2.403   0.640 -0.3898  0.3055 -1.2232
  726SOL    HW2 2178   2.447   2.234   0.636  0.4976 -0.3960 -2.4108
  727SOL     OW 2179   0.095   3.101   0.155  0.3321 -0.7332 -0.3975
  727SOL    HW1 2180   0.183   3.110   0.095  1.9889 -2.4676 -0.7991
  727SOL    HW2 2181   0.010   3.069   0.108 -2.4009  2.4740 -0.5233
  728SOL     OW 2182   2.905   0.707   0.909 -0.4959  0.1108  0.6032
  728SOL    HW1 2183   2.877   0.690   0.810  0.8123 -0.5415 -1.0369
  728SOL    HW2 2184   2.853   0.653   0.979  0.2607  0.5139  2.6611
  729SOL     OW 2185   0.033   2.529   0.740 -0.1130  0.2250 -0.1786
  729SOL    HW1 2186   0.057   2.479   0.828 -0.8703 -0.5823 -1.3400
  729SOL    HW2 2187   0.122   2.565   0.698  0.4413  3.9770 -3.3045
  730SOL     OW 2188   2.548   0.662   0.856 -0.5574  0.5204 -0.4882
  730SOL    HW1 2189   2.557   0.762   0.837  0.4410  1.5124  0.2780
  730SOL    HW2 2190   2.614   0.612   0.791 -1.2081 -1.6360 -0.5040
  731SOL     OW 2191   3.078   2.184   2.395  0.0893  0.4543  0.6294
  731SOL    HW1 2192   3.103   2.224   2.485  0.4121 -2.4275  1.1807
  731SOL    HW2 2193   2.991   2.221   2.355  0.4708 -0.1970  0.4847
  732SOL     OW 2194   1.197   2.782   2.034 -0.8339  0.6153  0.1674
  732SOL    HW1 2195   1.234   2.721   2.112 -0.8237  0.3113  0.6937
  732SOL    HW2 2196   1.165   2.723   1.952 -1.8462 -0.5021 -0.7060
  733SOL     OW 2197   0.012   0.574   2.253 -0.6073  0.2394  0.2150
  733SOL    HW1 2198   0.093   0.618   2.202  0.9066  1.0501  2.0262
  733SOL    HW2 2199  -0.036   0.503   2.194  1.6576  0.5938  0.4689
  734SOL     OW 2200   1.457   0.376   2.672 -0.0244  0.1647  0.3343
  734SOL    HW1 2201   1.442   0.477   2.685 -1.2362 -0.9111 -2.7131
  734SOL    HW2 2202   1.389   0.319   2.724  3.2939  0.9579  1.1935
  735SOL     OW 2203   2.867   2.609   2.283  0.1736  0.0111 -0.0421
  735SOL    HW1 2204   2.839   2.561   2.192  0.8176  0.5692 -2.7095
  735SOL    HW2 2205   2.953   2.663   2.280  2.5097  0.6329 -0.0690
  736SOL     OW 2206   0.916   0.439   2.511  0.1929 -0.0816  0.2317
  736SOL    HW1 2207   0.821   0.475   2.503  1.1741 -0.4884  0.2747
  736SOL    HW2 2208   0.935   0.348   2.461 -1.1809  1.9231 -0.1088
  737SOL     OW 2209   2.608   0.448   2.816  0.2722  0.1536 -0.2200
  737SOL    HW1 2210   2.586   0.423   2.913  3.0663  3.2627  1.1930
  737SOL    HW2 2211   2.710   0.445   2.791 -0.4884  2.7799  0.2627
  738SOL     OW 2212   1.713   1.284   2.881  0.0771  0.4409  0.2055
  738SOL    HW1 2213   1.812   1.246   2.898  0.5916  1.0264  1.9763
  738SOL    HW2 2214   1.640   1.218   2.841 -1.5732 -1.2291  1.2708
  739SOL     OW 2215   1.782   0.687   0.648  0.0848 -0.0272  0.0050
  739SOL    HW1 2216   1.838   0.693   0.737  0.3754 -0.2026  2.5025
  739SOL    HW2 2217   1.789   0.595   0.604 -0.0536  1.5580  0.2048
  740SOL     OW 2218   1.940   1.926   2.375  0.0537  0.4876 -0.0012
  740SOL    HW1 2219   2.003   1.841   2.388 -0.7514  1.3302 -1.1905
  740SOL    HW2 2220   1.877   1.898   2.301  2.0332 -1.3205 -1.1721
  741SOL     OW 2221   2.558   0.059   2.459  0.8241  0.8506 -0.4535
  741SOL    HW1 2222   2.658   0.055   2.444  0.3065  1.4841  0.1498
  741SOL    HW2 2223   2.508   0.118   2.386 -0.4695 -1.0691 -1.1097
  742SOL     OW 2224   2.195   1.368   0.150 -0.0260  0.2332 -0.1746
  742SOL    HW1 2225   2.105   1.414   0.135 -1.9431  0.2538 -1.6908
  742SOL    HW2 2226   2.187   1.291   0.213  0.5617 -1.5991 -1.1919
  743SOL     OW 2227   1.776   0.622   2.614 -0.4833  0.8120 -0.0008
  743SOL    HW1 2228   1.765   0.546   2.547 -0.3611 -1.2456  3.8626
  743SOL    HW2 2229   1.703   0.696   2.613  3.4907 -2.0778  0.4810
  744SOL     OW 2230   2.668   2.091   0.045  0.4938 -0.9308 -0.0434
  744SOL    HW1 2231   2.575   2.125   0.076 -1.7966 -3.2778  0.1805
  744SOL    HW2 2232   2.663   1.994   0.028 -0.2006  3.1916 -2.5459
  745SOL     OW 2233   2.220   2.632   2.187 -0.6757  0.6878 -0.4361
  745SOL    HW1 2234   2.121   2.626   2.180  1.6053 -0.2627  0.8644
  745SOL    HW2 2235   2.249   2.685   2.270  1.5167 -0.3579 -2.3858
  746SOL     OW 2236   0.052   2.644   1.741  0.0814  0.2875 -0.2514
  746SOL    HW1 2237   0.136   2.600   1.702 -0.7228  0.3260 -0.1286
  746SOL    HW2 2238   0.058   2.712   1.822 -1.8012  0.3852  1.9829
  747SOL     OW 2239   0.051   1.804   1.659  0.3933  0.6154  0.2538
  747SOL    HW1 2240  -0.029   1.739   1.637 -3.0305  0.1832 -0.3521
  747SOL    HW2 2241   0.125   1.814   1.577 -1.1022 -0.0204 -2.8031
  748SOL     OW 2242   1.811   2.732   2.871  0.0741 -0.0152 -0.1984
  748SOL    HW1 2243   1.826   2.804   2.951  0.3755  0.8945 -1.0142
  748SOL    HW2 2244   1.711   2.727   2.844  0.8308 -0.1112  2.6153
  749SOL     OW 2245   1.379   3.039   0.875 -0.0168  0.6867 -0.3499
  749SOL    HW1 2246   1.303   3.065   0.814 -3.2505 -2.4269 -1.9273
  749SOL    HW2 2247   1.461   3.006   0.814 -1.5488 -2.8386  3.2171
  750SOL     OW 2248   2.264   0.181   1.830  0.5151  0.1760  0.1112
  750SOL    HW1 2249   2.297   0.232   1.747  0.6061  4.8690 -2.1661
  750SOL    HW2 2250   2.282   0.234   1.914 -0.8838  0.7846 -0.9055
  751SOL     OW 2251   0.750   2.137   2.893  0.4922 -0.5809  0.2400
  751SOL    HW1 2252   0.846   2.107   2.932  0.6609  0.9792  1.5934
  751SOL    HW2 2253   0.668   2.085   2.934 -0.3020  1.5576  1.3133
  752SOL     OW 2254   1.310   0.825   1.275  0.6976  0.3751  0.3204
  752SOL    HW1 2255   1.361   0.917   1.285  1.0725 -0.5156 -0.1780
  752SOL    HW2 2256   1.376   0.744   1.289 -0.9157 -1.3996  1.6062
  753SOL     OW 2257   0.914   2.535   1.803 -0.3794  0.2932  0.0668
  753SOL    HW1 2258   1.005   2.575   1.774 -0.5898  0.3305  0.1427
  753SOL    HW2 2259   0.842   2.607   1.813 -0.7874  1.8333  0.0278
  754SOL     OW 2260   1.120   1.229   3.043 -0.4829  0.2073 -0.0873
  754SOL    HW1 2261   1.163   1.157   2.983 -0.0447 -0.1460  2.0574
  754SOL    HW2 2262   1.172   1.317   3.047 -2.5775 -1.8318  0.0650
  755SOL     OW 2263   1.980   0.435   2.212 -0.0849  0.1544 -0.1034
  755SOL    HW1 2264   2.061   0.368   2.242  1.0210  1.5233 -0.9310
  755SOL    HW2 2265   1.893   0.424   2.262  0.9288  1.2311  1.6513
  756SOL     OW 2266   2.542   1.007   2.996  0.4076 -0.6483 -0.0193
  756SOL    HW1 2267   2.645   0.976   2.995  0.7245  0.3382  0.1113
  756SOL    HW2 2268   2.484   0.922   3.014 -0.7282 -0.3485 -0.2383
  757SOL     OW 2269   0.109   0.457   1.999  0.0816  1.0620 -0.3242
  757SOL    HW1 2270   0.160   0.394   1.941  0.7375  0.4054  0.3069
  757SOL    HW2 2271   0.013   0.415   2.020 -0.2872  0.9536 -1.9519
  758SOL     OW 2272   2.205   0.100   1.492  0.2807  0.0083 -0.1058
  758SOL    HW1 2273   2.198   0.005   1.529  0.4637 -1.4867 -0.1950
  758SOL    HW2 2274   2.256   0.100   1.402 -0.1298  0.6227  1.6174
  759SOL     OW 2275   1.695   0.055   0.065  0.1492  0.5839 -0.0028
  759SOL    HW1 2276   1.656   0.058  -0.035  0.7549  0.1291 -1.7511
  759SOL    HW2 2277   1.800   0.059   0.063 -0.2255 -0.5346 -0.6835
  760SOL     OW 2278   2.640   2.018   2.827 -1.1317  0.4659 -0.3486
  760SOL    HW1 2279   2.626   1.948   2.903  2.9824 -1.6731 -2.7339
  760SOL    HW2 2280   2.641   2.117   2.858 -0.3431  0.8787 -0.4190
  761SOL     OW 2281   1.927   1.790   1.782  0.1039 -0.0126  0.0051
  761SOL    HW1 2282   1.989   1.709   1.804 -0.2440  0.7416  0.7072
  761SOL    HW2 2283   1.860   1.773   1.701 -1.5596  1.7210 -1.0754
  762SOL     OW 2284   0.478   2.372   0.966  0.0325 -0.4491 -0.4475
  762SOL    HW1 2285   0.516   2.385   0.873 -0.4879 -1.8259  2.2303
  762SOL    HW2 2286   0.542   2.399   1.041 -0.2266 -0.0578 -0.8704
  763SOL     OW 2287   2.069   1.545   2.962  0.3427  0.1972 -0.0478
  763SOL    HW1 2288   2.158   1.490   2.938  3.7059 -0.5969 -0.2937
  763SOL    HW2 2289   2.008   1.488   3.023 -2.9881  1.2261 -1.3739
  764SOL     OW 2290   0.695   0.609   0.715 -0.1319 -0.1099  0.3085
  764SOL    HW1 2291   0.597   0.569   0.700 -1.3118 -2.0738  1.4331
  764SOL    HW2 2292   0.739   0.572   0.804 -0.2775  0.2698 -2.6532
  765SOL     OW 2293   0.807   0.291   0.746 -0.0967 -0.3566  0.5240
  765SOL    HW1 2294   0.825   0.315   0.652  2.0607 -2.6406 -0.6220
  765SOL    HW2 2295   0.805   0.371   0.815  0.3159 -4.3092 -2.7905
  766SOL     OW 2296   2.926   2.152   3.025 -0.3384  0.0998 -0.5832
  766SOL    HW1 2297   2.835   2.125   3.071 -0.2399 -1.0252  1.8311
  766SOL    HW2 2298   2.959   2.244   3.060 -0.3073  0.3775  2.0654
  767SOL     OW 2299   2.792   1.662   0.603  0.1990  0.1383 -0.1628
  767SOL    HW1 2300   2.706   1.678   0.661 -0.2414 -1.6368 -1.2553
  767SOL    HW2 2301   2.879   1.649   0.660  2.8620  1.0704 -0.4927
  768SOL     OW 2302   1.080   0.150   0.237 -0.5098 -0.2539  0.0794
  768SOL    HW1 2303   1.043   0.150   0.336 -1.7286  1.8818  2.2794
  768SOL    HW2 2304   1.185   0.125   0.237 -0.7006 -0.8768  2.0192
  769SOL     OW 2305   1.125   1.826   2.312 -0.0031  0.2723  0.3711
  769SOL    HW1 2306   1.030   1.856   2.330  2.3705 -1.2264 -0.9388
  769SOL    HW2 2307   1.175   1.780   2.393  1.4466 -0.2872  0.1219
  770SOL     OW 2308   0.162   1.123   2.303 -0.2300  0.0748  0.1748
  770SOL    HW1 2309   0.212   1.198   2.353 -0.3300 -2.7621  0.4777
  770SOL    HW2 2310   0.060   1.127   2.310  0.1854  1.1791 -1.5355
  771SOL     OW 2311   3.061   2.824   1.947  0.3451 -0.1670 -0.5386
  771SOL    HW1 2312   3.005   2.862   1.867 -1.4948 -2.9254 -1.6862
  771SOL    HW2 2313   3.037   2.880   2.032  2.0003  0.5948  3.1746
  772SOL     OW 2314   2.316   0.216   2.834 -0.8689 -0.0576 -0.1682
  772SOL    HW1 2315   2.390   0.148   2.797  0.4597 -0.2912  0.6655
  772SOL    HW2 2316   2.341   0.249   2.928  0.3257 -0.3126  2.1231
  773SOL     OW 2317   0.608   2.112   2.391  0.0172  0.1014  0.1990
  773SOL    HW1 2318   0.571   2.181   2.321  1.0724 -0.3860 -0.0521
  773SOL    HW2 2319   0.525   2.062   2.432 -1.6575 -0.6992  0.6198
  774SOL     OW 2320   2.106   0.009   2.586  0.5080 -0.0781  0.4568
  774SOL    HW1 2321   2.115   0.102   2.637 -2.8522  0.2337  0.0651
  774SOL    HW2 2322   2.138  -0.075   2.632 -0.3031  1.0919 -0.3332
  775SOL     OW 2323   2.583   2.958   2.228 -0.0984  0.2847 -0.3433
  775SOL    HW1 2324   2.552   3.053   2.262 -3.3869  1.9608 -0.7002
  775SOL    HW2 2325   2.606   2.900   2.311  1.3202  1.8524 -1.7218
  776SOL     OW 2326   3.098   1.249   0.159 -0.5698 -0.2853 -0.2138
  776SOL    HW1 2327   3.041   1.201   0.086  1.5825 -0.6587 -0.4861
  776SOL    HW2 2328   3.058   1.246   0.254  1.5075 -1.3663  3.4466
  777SOL     OW 2329   0.443   2.936   0.425 -0.0224  0.4309 -0.0452
  777SOL    HW1 2330   0.348   2.918   0.377 -0.7555 -0.6279  1.2551
  777SOL    HW2 2331   0.507   2.853   0.420  1.8580  2.0344  0.1900
  778SOL     OW 2332   1.324   1.961   0.181  0.4133 -0.4603 -0.2309
  778SOL    HW1 2333   1.260   1.982   0.260  0.5834 -0.5382 -1.6111
  778SOL    HW2 2334   1.360   2.045   0.134 -1.6567 -0.6551 -0.3577
  779SOL     OW 2335   0.162   0.850   0.439  0.0566  0.9751  0.2925
  779SOL    HW1 2336   0.118   0.751   0.438  0.0828  0.8441  2.0097
  779SOL    HW2 2337   0.105   0.907   0.501  2.6338  2.6137  1.4122
  780SOL     OW 2338   0.192   0.283   2.375  0.0625  0.2239  0.7462
  780SOL    HW1 2339   0.147   0.357   2.431 -1.6673 -0.9205 -0.7550
  780SOL    HW2 2340   0.269   0.318   2.309  0.5067 -0.6891  0.6460
  781SOL     OW 2341   0.706   1.682   1.486  0.0291 -0.6060 -0.1692
  781SOL    HW1 2342   0.748   1.640   1.573  2.2811 -1.3814 -2.0172
  781SOL    HW2 2343   0.603   1.670   1.477 -1.1646 -1.1751  0.7273
  782SOL     OW 2344   2.557   0.107   0.952  0.7707  0.2882 -0.4305
  782SOL    HW1 2345   2.517   0.098   0.853  0.1597  0.4263 -0.2655
  782SOL    HW2 2346   2.533   0.201   0.990 -1.0283  0.7007 -0.6823
  783SOL     OW 2347   2.759   0.681   2.472 -0.0033 -0.5507  0.0763
  783SOL    HW1 2348   2.723   0.668   2.562  1.1736  1.7275 -2.8219
  783SOL    HW2 2349   2.753   0.591   2.425  0.4928  1.7961  0.8926
  784SOL     OW 2350   1.400   2.198   0.053  0.0810 -0.5483  0.2802
  784SOL    HW1 2351   1.434   2.295   0.083 -1.3637  1.0748  3.7973
  784SOL    HW2 2352   1.381   2.192  -0.044 -1.2246  1.2323  2.6766
  785SOL     OW 2353   2.048   0.320   3.062 -0.6937  0.1781  0.1437
  785SOL    HW1 2354   1.985   0.345   3.141  0.2033 -0.7828  0.1571
  785SOL    HW2 2355   2.087   0.415   3.034 -0.8526  2.2732 -0.8156
  786SOL     OW 2356   2.027   2.174   2.250  0.2416 -0.2322 -0.1314
  786SOL    HW1 2357   1.996   2.084   2.277  1.3141 -2.0682  0.5058
  786SOL    HW2 2358   2.131   2.164   2.236  1.5436 -1.2867 -1.7804
  787SOL     OW 2359   1.358   0.519   0.924 -0.3224 -0.1245  0.1702
  787SOL    HW1 2360   1.315   0.612   0.929 -3.0389  2.0365  0.6143
  787SOL    HW2 2361   1.412   0.500   0.832  1.3531  0.1800 -2.2235
  788SOL     OW 2362   1.209   0.428   0.054  0.4916 -0.5587  0.0360
  788SOL    HW1 2363   1.120   0.399   0.002 -3.2296 -1.0883 -0.3414
  788SOL    HW2 2364   1.182   0.495   0.131  0.0690  2.6200  1.4152
  789SOL     OW 2365   2.530   0.094   1.980 -0.1268 -0.7369 -0.1142
  789SOL    HW1 2366   2.445   0.110   1.916  5.3353 -1.2382 -4.0908
  789SOL    HW2 2367   2.595   0.016   1.954  4.2962 -0.2378  1.2201
  790SOL     OW 2368   2.660   2.743   0.760 -0.0933  0.3719  0.8364
  790SOL    HW1 2369   2.712   2.801   0.692  0.5351  0.8549 -1.9209
  790SOL    HW2 2370   2.623   2.797   0.841 -2.4285 -3.2536 -0.7396
  791SOL     OW 2371   1.929   1.223   0.292  0.2589 -0.1219 -0.2033
  791SOL    HW1 2372   1.840   1.160   0.308 -0.7537 -0.6472  0.8798
  791SOL    HW2 2373   2.017   1.174   0.324  1.5900  1.0980 -0.8595
  792SOL     OW 2374   0.372   1.738   2.115 -0.2537  0.1508  0.5672
  792SOL    HW1 2375   0.420   1.774   2.199 -0.6726 -1.0191  0.3835
  792SOL    HW2 2376   0.270   1.735   2.126  2.0289  0.7531 -1.0362
  793SOL     OW 2377   2.101   1.568   2.106 -0.4409 -0.6981 -0.3901
  793SOL    HW1 2378   2.154   1.608   2.030  2.5274 -1.1645  1.5031
  793SOL    HW2 2379   2.095   1.464   2.095  1.6014 -0.6519 -2.0212
  794SOL     OW 2380   0.564   1.454   2.332  0.3878 -0.3754  0.2041
  794SOL    HW1 2381   0.519   1.420   2.245 -0.8146  0.7272 -0.3443
  794SOL    HW2 2382   0.489   1.477   2.401 -0.6884  2.2980  0.6826
  795SOL     OW 2383   2.542   2.280   1.824 -0.2947 -0.4690  0.4199
  795SOL    HW1 2384   2.507   2.283   1.919  3.9086 -2.4278 -0.7517
  795SOL    HW2 2385   2.493   2.211   1.771 -0.1599  0.1610  1.5070
  796SOL     OW 2386   0.015   1.107   2.676 -0.3693  0.2166  0.4071
  796SOL    HW1 2387  -0.091   1.098   2.681 -0.0336 -0.7517  0.9388
  796SOL    HW2 2388   0.047   1.113   2.776 -2.6393 -0.5022  0.3404
  797SOL     OW 2389   0.787   0.667   1.418 -0.2677  0.1306 -0.0658
  797SOL    HW1 2390   0.862   0.714   1.476  1.1243 -0.8698  1.7661
  797SOL    HW2 2391   0.742   0.727   1.347 -0.2641  1.1980 -1.7759
  798SOL     OW 2392   1.313   0.385   1.149  0.4144  0.0240  0.3624
  798SOL    HW1 2393   1.373   0.367   1.236 -0.3227  0.4700  1.3830
  798SOL    HW2 2394   1.357   0.447   1.077 -0.0778  4.2225 -1.1838
  799SOL     OW 2395   1.994   2.706   0.972 -0.2213  0.0140 -0.0115
  799SOL    HW1 2396   1.930   2.668   1.046  1.0502  1.3423 -1.4226
  799SOL    HW2 2397   1.974   2.682   0.875  1.1411  0.2577  2.3497
  800SOL     OW 2398   3.039   0.645   1.823  0.0727 -0.9474 -0.4998
  800SOL    HW1 2399   3.012   0.728   1.878  0.7450 -0.9130 -0.6759
  800SOL    HW2 2400   3.064   0.575   1.891  0.8447  0.8317 -0.0818
  801SOL     OW 2401   1.946   2.255   0.081  0.4893 -0.3549 -0.3414
  801SOL    HW1 2402   1.860   2.226   0.030 -0.7050 -0.0038  1.0062
  801SOL    HW2 2403   2.026   2.185   0.071  1.4050 -0.3189  2.7832
  802SOL     OW 2404   0.731   0.811   2.563 -0.4246 -0.1018 -0.2364
  802SOL    HW1 2405   0.794   0.792   2.480  0.8520 -1.6359 -2.3102
  802SOL    HW2 2406   0.637   0.783   2.538  1.1408  3.1872 -1.4214
  803SOL     OW 2407   0.945   0.098   0.900  0.1677 -0.0296 -0.2620
  803SOL    HW1 2408   1.037   0.143   0.919  2.0267 -1.1495 -1.7176
  803SOL    HW2 2409   0.881   0.156   0.841 -1.1682  2.1009 -1.6876
  804SOL     OW 2410   0.285   0.051   2.162 -0.0074 -0.3214  0.3811
  804SOL    HW1 2411   0.331   0.145   2.144  1.5367  0.6528 -0.3205
  804SOL    HW2 2412   0.299  -0.023   2.088  0.0767 -0.5988 -1.4769
  805SOL     OW 2413   2.434   0.247   0.260  0.6543  0.1633  1.0486
  805SOL    HW1 2414   2.531   0.279   0.287 -1.8534  0.4689  0.2194
  805SOL    HW2 2415   2.416   0.254   0.155  1.9813  0.0934  1.4159
  806SOL     OW 2416   0.659   2.404   1.683 -0.3240  0.2193 -0.2492
  806SOL    HW1 2417   0.657   2.510   1.685  2.1717 -0.1737  3.0859
  806SOL    HW2 2418   0.758   2.372   1.668  0.4528  1.2584 -1.0372
  807SOL     OW 2419   2.390   0.976   0.463 -0.9679 -0.6324 -0.0625
  807SOL    HW1 2420   2.479   0.968   0.517 -1.3589 -2.7281  1.2883
  807SOL    HW2 2421   2.394   0.968   0.355 -0.6069  2.4383 -0.3554
  808SOL     OW 2422   0.544   2.005   2.979  0.3267  0.6391  0.8107
  808SOL    HW1 2423   0.597   2.015   3.066  2.1484  1.4814 -0.1927
  808SOL    HW2 2424   0.558   1.909   2.936  0.4237 -0.1145 -1.3299
  809SOL     OW 2425   2.597   1.980   1.967  0.0223 -0.0898 -0.5200
  809SOL    HW1 2426   2.693   2.019   1.955  0.1547  0.9516  0.8109
  809SOL    HW2 2427   2.548   1.951   1.879 -0.5760  1.8996 -4.2293
  810SOL     OW 2428   2.088   1.068   0.553  0.4658 -0.5893  1.2332
  810SOL    HW1 2429   2.149   1.020   0.615 -1.3503  0.4054  0.0605
  810SOL    HW2 2430   2.035   1.140   0.605  1.0906 -2.3984 -0.8048
  811SOL     OW 2431   1.353   2.459   1.312 -0.1094  0.4725  0.3697
  811SOL    HW1 2432   1.345   2.358   1.332 -0.3548  0.1616  0.4933
  811SOL    HW2 2433   1.259   2.501   1.308  1.2700 -2.7138  1.4643
  812SOL     OW 2434   1.466   0.794   1.951  0.2660  0.2477 -0.0014
  812SOL    HW1 2435   1.540   0.848   1.999 -0.3251 -0.3420  1.9581
  812SOL    HW2 2436   1.370   0.832   1.967  1.5686  1.8298  1.7894
  813SOL     OW 2437   1.730   2.178   2.441  0.1012 -0.6374  0.0174
  813SOL    HW1 2438   1.797   2.114   2.481 -1.1398  1.7214 -2.6341
  813SOL    HW2 2439   1.673   2.142   2.360 -2.0889 -0.9137  2.3905
  814SOL     OW 2440   2.860   1.529   2.889  0.3739  0.8967 -0.8521
  814SOL    HW1 2441   2.958   1.500   2.892 -2.4295  1.7051 -1.0489
  814SOL    HW2 2442   2.841   1.613   2.836 -0.5089 -1.0293 -1.0947
  815SOL     OW 2443   2.269   2.841   2.702  0.2066 -0.3286  0.6226
  815SOL    HW1 2444   2.254   2.787   2.791  0.9932  0.0566  0.3686
  815SOL    HW2 2445   2.357   2.831   2.652 -4.2025 -1.9297  1.1044
  816SOL     OW 2446   1.681   0.302   1.588 -0.4069 -0.5019 -0.5029
  816SOL    HW1 2447   1.702   0.201   1.619  0.5215  0.2131 -0.3522
  816SOL    HW2 2448   1.616   0.351   1.651 -0.3728 -1.1430 -0.2123
  817SOL     OW 2449   0.447   1.256   2.491 -0.2429  0.1513  0.6150
  817SOL    HW1 2450   0.379   1.332   2.515  0.1745 -0.5020 -1.1504
  817SOL    HW2 2451   0.514   1.282   2.418  0.1213  1.5947  0.0061
  818SOL     OW 2452   1.961   0.836   0.441 -0.1388  0.1100  0.6648
  818SOL    HW1 2453   1.997   0.925   0.486 -0.0266 -1.1362 -0.1381
  818SOL    HW2 2454   1.912   0.767   0.501  1.0702 -0.8719  1.1893
  819SOL     OW 2455   2.785   2.888   3.024  0.5657 -0.2196 -0.3774
  819SOL    HW1 2456   2.862   2.830   2.990 -0.8015  0.8859  0.1627
  819SOL    HW2 2457   2.704   2.895   2.957 -0.3002 -0.3344  0.8738
  820SOL     OW 2458   1.247   1.119   0.533 -0.2581 -0.4496  0.2886
  820SOL    HW1 2459   1.221   1.216   0.560 -2.1771 -1.5349 -0.7229
  820SOL    HW2 2460   1.224   1.056   0.605  3.3026  2.9103 -0.9019
  821SOL     OW 2461   3.097   1.270   0.667  0.8546  0.1819 -0.1522
  821SOL    HW1 2462   3.035   1.278   0.750 -0.2049  1.2231  0.9298
  821SOL    HW2 2463   3.168   1.340   0.661  0.7666 -0.7543 -1.5296
  822SOL     OW 2464   2.527   1.752   2.416  0.1064 -0.0778 -0.1013
  822SOL    HW1 2465   2.521   1.836   2.472  2.0524 -0.2640 -1.4491
  822SOL    HW2 2466   2.475   1.765   2.326  1.1545  0.2933 -2.0696
  823SOL     OW 2467   2.029   0.873   1.223  0.4143 -0.6853 -0.1614
  823SOL    HW1 2468   1.976   0.878   1.312  1.6520  0.2010 -1.1566
  823SOL    HW2 2469   1.970   0.885   1.139 -0.7647 -3.6965  0.5554
  824SOL     OW 2470   0.112   2.024   2.801  0.1705  0.0564  0.3342
  824SOL    HW1 2471   0.036   1.955   2.816  2.1645  2.5984  0.9001
  824SOL    HW2 2472   0.183   1.977   2.737 -0.6253  0.1382 -0.3462
  825SOL     OW 2473   1.281   1.074   0.235  0.3207  0.3949  0.2436
  825SOL    HW1 2474   1.328   1.166   0.242 -0.9109 -0.3575 -0.3475
  825SOL    HW2 2475   1.191   1.103   0.190 -0.3358 -0.6911  2.4514
  826SOL     OW 2476   1.941   0.642   1.597 -0.1227 -0.4155  0.5422
  826SOL    HW1 2477   1.999   0.564   1.641 -0.4862  1.1204  2.3487
  826SOL    HW2 2478   1.876   0.603   1.523 -0.9391  0.2772  1.4793
  827SOL     OW 2479   0.734   1.425   0.295 -0.1273 -0.4018 -0.3603
  827SOL    HW1 2480   0.743   1.353   0.222  1.5332 -0.0578  0.4873
  827SOL    HW2 2481   0.680   1.387   0.374 -1.6209 -4.0202 -1.2338
  828SOL     OW 2482   2.511   0.087   1.583 -0.3528  0.2655  0.4045
  828SOL    HW1 2483   2.412   0.127   1.564 -1.6338 -0.3017 -4.1619
  828SOL    HW2 2484   2.517  -0.004   1.640  1.4679 -2.1808  2.5092
  829SOL     OW 2485   2.817   2.503   2.969 -0.4201  0.1185  0.0084
  829SOL    HW1 2486   2.763   2.433   2.911  0.7603 -0.9579  1.0045
  829SOL    HW2 2487   2.769   2.538   3.058  0.2042 -0.3455 -1.9053
  830SOL     OW 2488   2.808   0.935   3.024  0.4200 -0.7493  0.2528
  830SOL    HW1 2489   2.883   1.011   3.020  0.0858  0.5892  3.2645
  830SOL    HW2 2490   2.841   0.850   3.073  0.1093  1.1558 -1.3193
  831SOL     OW 2491   0.012   0.637   0.374  0.2964 -0.5069  0.7316
  831SOL    HW1 2492   0.016   0.565   0.443 -1.2135  1.7820 -1.7725
  831SOL    HW2 2493   0.071   0.616   0.291 -2.7025  1.3557  1.2300
  832SOL     OW 2494   1.851   0.727   0.010 -0.7632  0.0885 -0.4577
  832SOL    HW1 2495   1.760   0.773  -0.008  2.8135  2.4221  0.9319
  832SOL    HW2 2496   1.843   0.630  -0.021 -3.7097  1.9203  0.2818
  833SOL     OW 2497   2.414   2.119   0.534  0.4529 -0.5922  0.0718
  833SOL    HW1 2498   2.330   2.126   0.473  2.9229 -1.4880  0.6192
  833SOL    HW2 2499   2.477   2.036   0.512  1.0013  0.5933 -1.3466
  834SOL     OW 2500   0.162   0.199   0.581  0.2396 -0.1794  0.0650
  834SOL    HW1 2501   0.219   0.118   0.608  1.3171 -2.7105 -1.9997
  834SOL    HW2 2502   0.152   0.205   0.472  1.0394 -0.2826 -4.4717
  835SOL     OW 2503   2.363   1.518   1.148  1.0948 -0.1071  0.6464
  835SOL    HW1 2504   2.457   1.548   1.179  0.3241  1.9041  1.6974
  835SOL    HW2 2505   2.357   1.532   1.041 -2.6958  0.2284 -2.5638
  836SOL     OW 2506   1.573   0.814   2.575  0.2106  0.2292 -0.2576
  836SOL    HW1 2507   1.488   0.772   2.532 -0.2510 -1.1639 -2.1146
  836SOL    HW2 2508   1.627   0.867   2.503  0.4674  0.5126 -0.4462
  837SOL     OW 2509   1.738   0.139   0.540 -0.0443  0.3814  0.2114
  837SOL    HW1 2510   1.668   0.171   0.613 -3.1580  1.1995  0.6009
  837SOL    HW2 2511   1.694   0.094   0.460  4.6714 -2.0178 -0.5842
  838SOL     OW 2512   1.198   1.567   2.726 -0.9968 -0.5074  0.1987
  838SOL    HW1 2513   1.206   1.523   2.821 -0.5304  1.8307  0.2758
  838SOL    HW2 2514   1.116   1.540   2.668 -0.0613  0.7888 -1.1178
  839SOL     OW 2515   1.590   0.308   0.976 -0.0805  0.3221 -0.1914
  839SOL    HW1 2516   1.660   0.358   1.034  0.2820  0.5490  1.4304
  839SOL    HW2 2517   1.526   0.241   1.025 -1.6326 -1.3201 -2.4550
  840SOL     OW 2518   2.518   2.932   1.726 -0.7583  0.2573 -0.3848
  840SOL    HW1 2519   2.464   2.862   1.678 -0.8209 -0.6930  2.0346
  840SOL    HW2 2520   2.593   2.883   1.779  0.8352 -1.5507 -0.9439
  841SOL     OW 2521   1.604   0.814   3.057 -0.0096 -0.5167  0.4262
  841SOL    HW1 2522   1.520   0.834   3.115 -0.9835  0.9230 -2.6240
  841SOL    HW2 2523   1.586   0.852   2.958 -0.8629  0.9174 -4.1686
  842SOL     OW 2524   0.823   1.472   0.903  0.0561  0.3295  0.3114
  842SOL    HW1 2525   0.798   1.554   0.957 -0.1741 -0.9290 -2.3481
  842SOL    HW2 2526   0.741   1.414   0.878 -0.0582  0.1767  1.7634
  843SOL     OW 2527   0.097   0.015   1.385 -0.2997 -0.5569 -0.1573
  843SOL    HW1 2528   0.150   0.090   1.437  0.7772  1.2595  1.8615
  843SOL    HW2 2529   0.081  -0.079   1.431 -0.2142  0.2088  0.5491
  844SOL     OW 2530   0.808   2.492   0.271 -0.1438 -0.4130 -0.0843
  844SOL    HW1 2531   0.774   2.436   0.354  1.6390 -1.4410 -0.0804
  844SOL    HW2 2532   0.739   2.556   0.223 -0.3911  1.7998 -0.7395
  845SOL     OW 2533   1.658   2.884   1.292 -0.3309  0.1012  1.1540
  845SOL    HW1 2534   1.722   2.810   1.266 -2.4196 -0.0442  1.2248
  845SOL    HW2 2535   1.696   2.940   1.373  1.4181  0.3213 -1.7808
  846SOL     OW 2536   1.590   2.946   0.713  0.3493 -0.3263  0.3080
  846SOL    HW1 2537   1.551   2.944   0.619 -0.0804  1.6040 -0.4583
  846SOL    HW2 2538   1.689   2.970   0.715 -0.2157  0.3461  2.2917
  847SOL     OW 2539   2.083   1.666   0.398 -0.7050  0.4533 -0.8600
  847SOL    HW1 2540   2.027   1.579   0.404  0.1518 -3.5225  2.0878
  847SOL    HW2 2541   2.022   1.749   0.421  3.6023 -1.2822  2.1076
  848SOL     OW 2542   2.445   0.858   2.615 -0.2092 -0.2785  0.0234
  848SOL    HW1 2543   2.416   0.952   2.649  3.0969  1.3715 -0.1837
  848SOL    HW2 2544   2.367   0.791   2.610 -1.3234  3.4569 -0.1389
  849SOL     OW 2545   2.562   0.856   2.364 -0.4875  0.0770 -0.0748
  849SOL    HW1 2546   2.652   0.810   2.383 -0.7067  0.5646 -0.4314
  849SOL    HW2 2547   2.494   0.864   2.447 -2.2596  0.4904  3.7679
  850SOL     OW 2548   1.560   0.098   1.363 -0.2723 -0.3548 -0.1607
  850SOL    HW1 2549   1.554   0.065   1.267  0.5362 -0.2541  0.7510
  850SOL    HW2 2550   1.512   0.036   1.432  0.0105 -0.0078  2.5274
  851SOL     OW 2551   0.438   1.812   0.564 -0.1675 -0.4235 -0.0219
  851SOL    HW1 2552   0.458   1.909   0.596 -1.9537 -0.2835 -3.3284
  851SOL    HW2 2553   0.490   1.798   0.473 -0.7388 -3.7342 -1.6207
  852SOL     OW 2554   0.817   2.050   1.796 -0.3361  0.2505 -0.3933
  852SOL    HW1 2555   0.841   2.150   1.790 -2.1511 -0.4252  1.2689
  852SOL    HW2 2556   0.738   2.041   1.867 -2.1604  0.3193 -2.4705
  853SOL     OW 2557   2.510   1.542   2.598 -0.2183  0.1927 -0.1479
  853SOL    HW1 2558   2.451   1.461   2.573 -0.4167  2.0485 -0.0938
  853SOL    HW2 2559   2.512   1.614   2.529 -2.5799 -1.4549  2.5349
  854SOL     OW 2560   2.422   1.371   1.747 -0.5225 -0.3128 -0.3241
  854SOL    HW1 2561   2.478   1.328   1.669 -0.9727 -0.8340 -0.5680
  854SOL    HW2 2562   2.368   1.302   1.799 -1.7403  0.9920 -2.3386
  855SOL     OW 2563   2.083   2.467   1.043  0.0053  0.3958 -0.2393
  855SOL    HW1 2564   2.072   2.567   1.012  1.2305  1.2076 -1.6581
  855SOL    HW2 2565   2.167   2.449   1.103  0.7359  1.5938 -1.2531
  856SOL     OW 2566   1.325   1.408   0.933  0.5860 -0.1652  0.1644
  856SOL    HW1 2567   1.398   1.475   0.966  0.3828 -1.4318 -3.8536
  856SOL    HW2 2568   1.229   1.453   0.943  2.1232  0.5884 -1.1866
  857SOL     OW 2569   3.063   2.753   0.992 -0.0967 -0.1597 -0.3239
  857SOL    HW1 2570   3.009   2.692   0.932  0.2973 -2.4666 -1.6672
  857SOL    HW2 2571   3.160   2.767   0.954 -1.4159 -1.1039 -0.1920
  858SOL     OW 2572   2.362   2.094   1.714 -0.3949 -0.0827 -0.1655
  858SOL    HW1 2573   2.261   2.084   1.681 -2.1729  0.6732 -1.7969
  858SOL    HW2 2574   2.435   2.037   1.669 -2.5555 -0.2174 -2.2133
  859SOL     OW 2575   2.399   0.575   1.089  1.2072  0.3741  0.6987
  859SOL    HW1 2576   2.444   0.618   1.001  1.7505 -0.2768 -1.2250
  859SOL    HW2 2577   2.443   0.485   1.117 -1.7355 -1.6541 -1.5448
  860SOL     OW 2578   1.820   2.809   0.508  0.6306 -0.3776 -0.1741
  860SOL    HW1 2579   1.823   2.777   0.412  1.1128  0.9051  3.1355
  860SOL    HW2 2580   1.872   2.901   0.528 -0.8274 -0.4852  1.8100
  861SOL     OW 2581   0.987   2.450   2.871  0.3825 -0.5330  0.1955
  861SOL    HW1 2582   1.055   2.525   2.839  1.0485  1.3342  1.2323
  861SOL    HW2 2583   0.971   2.468   2.972 -0.3476  0.5489  1.6997
  862SOL     OW 2584   2.931   2.556   1.614 -0.0396  0.1755 -0.1833
  862SOL    HW1 2585   3.020   2.589   1.658  0.9303  0.8931 -3.8714
  862SOL    HW2 2586   2.889   2.617   1.545  0.5347 -1.2383 -1.2563
  863SOL     OW 2587   1.807   2.744   0.242 -0.0467  0.1576 -0.1694
  863SOL    HW1 2588   1.847   2.651   0.250  0.4591 -0.6919 -1.9895
  863SOL    HW2 2589   1.711   2.738   0.200 -1.0078 -1.8039 -1.0322
  864SOL     OW 2590   2.031   1.236   2.851 -0.0567 -0.8283 -0.3302
  864SOL    HW1 2591   2.050   1.162   2.777  1.9663  1.2050  2.2905
  864SOL    HW2 2592   2.065   1.332   2.827 -2.0235  0.0225  1.2554
  865SOL     OW 2593   2.170   1.933   0.737 -0.4442 -0.0797  0.5927
  865SOL    HW1 2594   2.242   1.882   0.796  0.4692 -0.7880 -0.0771
  865SOL    HW2 2595   2.097   1.976   0.802 -2.1353 -1.3002  1.2387
  866SOL     OW 2596   2.878   2.958   1.013 -0.1416 -0.1984  0.1324
  866SOL    HW1 2597   2.868   3.009   0.918  2.2380 -2.6206  0.1748
  866SOL    HW2 2598   2.951   2.887   1.007 -0.4731  1.2276 -1.1967
  867SOL     OW 2599   0.362   1.455   0.933  0.1108  0.3898  0.1901
  867SOL    HW1 2600   0.295   1.393   0.888  0.7945  0.9564 -0.7661
  867SOL    HW2 2601   0.344   1.554   0.902 -0.3360 -4.4251  0.1905
  868SOL     OW 2602   0.766   1.837   2.092 -0.1317  0.3529  0.9460
  868SOL    HW1 2603   0.695   1.804   2.160  2.3440  0.1346 -2.5591
  868SOL    HW2 2604   0.760   1.938   2.077 -0.5933 -1.0240  1.8485
  869SOL     OW 2605   2.578   1.937   1.632  0.3023  0.5095 -0.4829
  869SOL    HW1 2606   2.666   1.998   1.643 -0.9733 -1.8896  0.5102
  869SOL    HW2 2607   2.593   1.836   1.614 -2.2143 -1.4501  1.1434
  870SOL     OW 2608   2.313   2.710   1.233 -0.6654 -0.8566 -0.4227
  870SOL    HW1 2609   2.337   2.610   1.254 -0.5068  2.1986 -3.5328
  870SOL    HW2 2610   2.387   2.780   1.270 -0.1132  1.0761 -1.3215
  871SOL     OW 2611   0.011   2.273   0.558  0.9878  0.1484 -0.4973
  871SOL    HW1 2612  -0.045   2.314   0.642  0.1161 -0.1866  1.6890
  871SOL    HW2 2613  -0.048   2.256   0.472  3.3817 -1.4495 -0.6308
  872SOL     OW 2614   2.091   0.432   1.694  0.5001  0.1840 -0.7166
  872SOL    HW1 2615   2.043   0.412   1.785 -0.8045 -1.3120 -0.8586
  872SOL    HW2 2616   2.190   0.411   1.692 -1.8748 -0.1666  0.5436
  873SOL     OW 2617   1.703   2.096   3.102  0.3935  0.0345 -0.0892
  873SOL    HW1 2618   1.649   2.157   3.162 -0.0136 -0.6706 -2.0393
  873SOL    HW2 2619   1.677   2.113   3.004  0.4896  0.3833  1.6819
  874SOL     OW 2620   0.675   2.466   0.757  0.4193  0.0327  0.1087
  874SOL    HW1 2621   0.675   2.573   0.758 -2.3435  1.7898  1.7857
  874SOL    HW2 2622   0.766   2.420   0.758 -1.7216  0.5711 -0.3682
  875SOL     OW 2623   2.258   1.510   1.431  0.0626  0.2711 -0.2363
  875SOL    HW1 2624   2.309   1.575   1.502 -0.3854  2.0894  1.4444
  875SOL    HW2 2625   2.280   1.527   1.330 -0.7409  0.7692 -0.4357
  876SOL     OW 2626   0.067   2.279   2.655 -0.0819  0.3909 -0.2271
  876SOL    HW1 2627   0.106   2.194   2.690 -0.5225 -0.9126  0.1356
  876SOL    HW2 2628   0.092   2.360   2.720  2.5383 -2.1608  0.8939
  877SOL     OW 2629   2.924   2.642   0.620  0.1058 -0.6592 -0.4111
  877SOL    HW1 2630   2.903   2.741   0.646 -0.4263  0.8316  1.8830
  877SOL    HW2 2631   3.001   2.595   0.673 -0.3454  0.4170 -1.5278
  878SOL     OW 2632   2.817   1.500   2.254 -0.2320 -0.2688  0.4142
  878SOL    HW1 2633   2.800   1.577   2.187  1.1413 -0.4128  1.9763
  878SOL    HW2 2634   2.819   1.530   2.355  0.4266  0.1747  0.6773
  879SOL     OW 2635   2.392   0.078   1.239 -0.4177  0.5588  0.5349
  879SOL    HW1 2636   2.429  -0.018   1.243 -0.2355  0.6438 -0.3836
  879SOL    HW2 2637   2.313   0.092   1.177 -1.9439 -1.2833  3.5248
  880SOL     OW 2638   0.735   0.526   2.249  0.1610 -0.1894 -0.6066
  880SOL    HW1 2639   0.662   0.472   2.299 -0.8598  2.0461 -0.1739
  880SOL    HW2 2640   0.799   0.459   2.201 -0.3934 -0.7281  1.8303
  881SOL     OW 2641   0.822   0.084   0.416  0.4396 -0.2521  0.1436
  881SOL    HW1 2642   0.870  -0.004   0.417 -3.2263  1.6078 -2.1648
  881SOL    HW2 2643   0.736   0.080   0.358  2.7252  0.2361 -0.8872
  882SOL     OW 2644   2.720   1.664   1.699 -0.5076  0.1698 -0.2836
  882SOL    HW1 2645   2.803   1.636   1.647 -1.4582 -2.6059  0.7251
  882SOL    HW2 2646   2.741   1.720   1.789  1.1919  1.0594  1.0486
  883SOL     OW 2647   0.814   0.507   0.932  0.1223  0.2970  0.4907
  883SOL    HW1 2648   0.867   0.596   0.957  1.1384  0.5304  1.9816
  883SOL    HW2 2649   0.747   0.484   1.007  0.7743 -1.2727 -1.0587
  884SOL     OW 2650   1.103   1.754   1.155 -0.0415 -0.5030  0.7097
  884SOL    HW1 2651   1.087   1.661   1.108  1.1665  0.7351  1.8352
  884SOL    HW2 2652   1.067   1.828   1.096 -0.6638  2.6231 -0.0750
  885SOL     OW 2653   2.328   1.838   2.223 -0.5210 -0.5930  0.2116
  885SOL    HW1 2654   2.246   1.794   2.265  0.9809 -2.9303 -1.1698
  885SOL    HW2 2655   2.317   1.938   2.222  2.6143 -2.4021  1.8062
  886SOL     OW 2656   2.597   0.348   1.804 -0.3376  0.0571 -0.2994
  886SOL    HW1 2657   2.584   0.308   1.900 -0.9522 -3.5128 -0.2896
  886SOL    HW2 2658   2.689   0.392   1.787 -0.2213 -1.1264 -2.1948
  887SOL     OW 2659   0.154   2.057   1.264 -0.0133  0.0619  0.5822
  887SOL    HW1 2660   0.051   2.033   1.260 -0.9302 -0.8929 -1.3146
  887SOL    HW2 2661   0.175   2.155   1.228  0.8916  2.0283  1.8336
  888SOL     OW 2662   0.655   1.214   1.495 -0.4070  0.0407 -0.1318
  888SOL    HW1 2663   0.667   1.280   1.410  1.7519  0.6618 -0.1665
  888SOL    HW2 2664   0.589   1.139   1.479  1.6796 -0.3766 -1.1222
  889SOL     OW 2665   0.855   2.476   2.249 -0.4128  0.9593 -0.5154
  889SOL    HW1 2666   0.762   2.430   2.224  0.0168  2.3009 -1.7581
  889SOL    HW2 2667   0.926   2.468   2.173  1.2603 -0.3210  2.0960
  890SOL     OW 2668   2.350   2.486   0.238  0.0118  0.4986  0.3885
  890SOL    HW1 2669   2.356   2.568   0.177  2.4094  2.4754 -1.5080
  890SOL    HW2 2670   2.282   2.489   0.318 -0.3187  1.9996  3.2505
  891SOL     OW 2671   2.524   1.723   0.699 -0.4976  0.1440 -0.3488
  891SOL    HW1 2672   2.517   1.662   0.783  0.9686  1.2270 -1.3420
  891SOL    HW2 2673   2.449   1.709   0.632 -0.3377 -0.6108  0.5346
  892SOL     OW 2674   0.404   0.366   2.224  0.5547 -0.4342  0.1259
  892SOL    HW1 2675   0.397   0.456   2.179  0.1832 -1.7058  0.3325
  892SOL    HW2 2676   0.468   0.365   2.308  1.6393  0.6441  1.6798
  893SOL     OW 2677   1.708   0.218   2.710 -0.3221 -0.4591  0.3176
  893SOL    HW1 2678   1.783   0.262   2.766  1.1405  1.2189 -2.2714
  893SOL    HW2 2679   1.641   0.289   2.688  1.0419  1.4257  1.1870
  894SOL     OW 2680   2.166   2.088   0.068 -0.3262 -0.1472  0.0025
  894SOL    HW1 2681   2.167   2.002   0.008 -0.1829 -0.5807 -2.5116
  894SOL    HW2 2682   2.176   2.064   0.169  1.4025  0.7866  1.0240
  895SOL     OW 2683   2.755   1.451   0.933  1.0889  0.0027 -0.1841
  895SOL    HW1 2684   2.831   1.381   0.924  0.1280  1.3866  0.8626
  895SOL    HW2 2685   2.785   1.543   0.979  0.1363  4.5140 -0.2078
  896SOL     OW 2686   1.847   1.868   1.221  0.3935 -0.1414 -0.1836
  896SOL    HW1 2687   1.935   1.814   1.229 -1.1316  1.9524  0.5652
  896SOL    HW2 2688   1.779   1.838   1.148 -0.4724  0.7758 -0.5006
  897SOL     OW 2689   0.274   0.516   3.033  0.7270  0.8489  0.4931
  897SOL    HW1 2690   0.217   0.563   2.958 -2.8794  1.6732 -1.0435
  897SOL    HW2 2691   0.366   0.559   3.052  1.1991 -0.5809  0.3853
  898SOL     OW 2692   0.683   2.804   1.024 -0.1661  0.4390  0.6730
  898SOL    HW1 2693   0.728   2.897   1.045  0.0400  1.0669 -0.9520
  898SOL    HW2 2694   0.721   2.724   1.081  0.7804 -2.8399 -3.2680
  899SOL     OW 2695   2.844   0.888   1.422 -0.5044 -0.0278 -0.4917
  899SOL    HW1 2696   2.849   0.862   1.320  1.6240 -3.0826 -1.0313
  899SOL    HW2 2697   2.941   0.907   1.465 -1.0366  0.3359  1.4646
  900SOL     OW 2698   0.990   2.443   2.482  0.0355  0.5693  0.8555
  900SOL    HW1 2699   0.948   2.426   2.388  2.7861  2.5759  2.6372
  900SOL    HW2 2700   0.972   2.377   2.556  2.4986  1.5119  1.9985
  901SOL     OW 2701   1.917   2.442   1.397  0.0879 -0.4421 -0.4775
  901SOL    HW1 2702   1.880   2.393   1.314 -1.3928  0.0925 -1.7115
  901SOL    HW2 2703   2.014   2.418   1.402 -0.9806 -0.2235 -2.4036
  902SOL     OW 2704   2.511   1.675   1.489  0.0383  0.1061  0.6782
  902SOL    HW1 2705   2.567   1.639   1.567 -0.9982  0.4292  0.3198
  902SOL    HW2 2706   2.526   1.626   1.399 -0.7856  0.3729 -0.3654
  903SOL     OW 2707   0.332   2.502   1.994 -0.4094  0.3316 -0.0270
  903SOL    HW1 2708   0.274   2.417   1.973 -0.6087  0.4576 -1.7726
  903SOL    HW2 2709   0.332   2.570   1.919  2.3751 -1.8610 -1.4691
  904SOL     OW 2710   1.994   0.796   2.511  0.1779  0.3450  1.2067
  904SOL    HW1 2711   1.911   0.752   2.554 -1.4924  1.2153  1.6687
  904SOL    HW2 2712   2.014   0.749   2.421 -3.3784 -1.2120  2.2739
  905SOL     OW 2713   2.855   0.085   2.384  0.3097 -0.1642  0.3239
  905SOL    HW1 2714   2.896  -0.008   2.395  1.1788  0.2878  1.1871
  905SOL    HW2 2715   2.918   0.155   2.418  1.1599 -0.4810 -0.6369
  906SOL     OW 2716   0.152   1.697   1.885 -0.3132 -0.1282  0.2878
  906SOL    HW1 2717   0.093   1.720   1.806 -2.0009  0.4588 -0.1003
  906SOL    HW2 2718   0.243   1.684   1.845 -1.5848  0.4511 -1.1389
  907SOL     OW 2719   0.215   2.471   0.959 -0.2959 -0.7360  0.4002
  907SOL    HW1 2720   0.305   2.418   0.955 -0.9806  0.3047 -2.2267
  907SOL    HW2 2721   0.226   2.569   0.927 -2.0616  1.5775  0.3395
  908SOL     OW 2722   2.831   3.048   0.268  0.1869  0.1262  0.0668
  908SOL    HW1 2723   2.737   3.021   0.237  0.5185 -1.2060 -0.4377
  908SOL    HW2 2724   2.885   2.962   0.274 -2.5267  0.4263 -1.4232
  909SOL     OW 2725   0.852   1.049   2.682  0.6175  0.5100 -0.1510
  909SOL    HW1 2726   0.797   0.958   2.670 -1.1432 -2.2403 -1.3930
  909SOL    HW2 2727   0.934   1.056   2.616 -1.5170  0.8362 -1.8185
  910SOL     OW 2728   1.777   1.878   2.157 -0.6181  0.2407  0.2148
  910SOL    HW1 2729   1.836   1.913   2.076 -2.7660  1.4732  0.4594
  910SOL    HW2 2730   1.697   1.949   2.170 -0.9258 -1.1517  3.9637
  911SOL     OW 2731   1.788   2.961   1.542 -0.0468  0.0788  0.5100
  911SOL    HW1 2732   1.860   2.975   1.469  2.5559 -0.1200 -0.6721
  911SOL    HW2 2733   1.807   2.872   1.594  0.2491  0.0960  0.2058
  912SOL     OW 2734   2.853   1.022   0.722 -0.0264  0.2467  0.1124
  912SOL    HW1 2735   2.853   0.975   0.815 -0.3923 -0.5977  0.7750
  912SOL    HW2 2736   2.790   1.103   0.717  4.2656  0.7710  0.2124
  913SOL     OW 2737   2.553   1.275   1.521  0.4127 -0.4471 -0.4941
  913SOL    HW1 2738   2.584   1.181   1.499 -1.5605 -1.6322  0.9573
  913SOL    HW2 2739   2.601   1.348   1.462 -0.6112  1.9928 -0.3384
  914SOL     OW 2740   2.775   0.602   1.135  0.1732  0.4182 -0.6248
  914SOL    HW1 2741   2.765   0.505   1.181 -1.8669  2.3857 -0.6932
  914SOL    HW2 2742   2.709   0.675   1.167  0.5004 -0.6595 -0.1612
  915SOL     OW 2743   1.194   0.783   0.990  0.3789 -0.3381  0.3789
  915SOL    HW1 2744   1.237   0.773   1.081  1.2210 -2.5518  1.8248
  915SOL    HW2 2745   1.098   0.744   0.985  0.7085  1.7157 -0.6562
  916SOL     OW 2746   0.569   0.124   0.673 -0.1643 -0.7651 -0.3813
  916SOL    HW1 2747   0.651   0.154   0.722 -1.6534  1.5975  1.8769
  916SOL    HW2 2748   0.550   0.164   0.577 -1.5374  2.5242 -0.1654
  917SOL     OW 2749   2.868   2.559   1.999  0.7480 -0.5523  0.0255
  917SOL    HW1 2750   2.776   2.589   1.951 -1.3915  1.1509 -1.5674
  917SOL    HW2 2751   2.932   2.638   2.009 -0.9276 -0.1149 -0.3958
  918SOL     OW 2752   1.008   2.070   3.013  0.0452 -0.4047 -0.1332
  918SOL    HW1 2753   1.002   2.158   3.066 -1.8529 -0.1987 -1.1753
  918SOL    HW2 2754   1.079   2.072   2.937 -1.2628  0.8810  1.7320
  919SOL     OW 2755   0.867   1.713   2.760 -0.2582 -0.0174  0.1738
  919SOL    HW1 2756   0.906   1.800   2.716  0.4911 -0.3434  1.8635
  919SOL    HW2 2757   0.829   1.640   2.693  0.5164 -0.6457  0.9649
  920SOL     OW 2758   1.287   1.752   2.524 -0.3940 -0.1912  0.2547
  920SOL    HW1 2759   1.380   1.747   2.477 -0.6773  2.1567 -1.1908
  920SOL    HW2 2760   1.275   1.691   2.608 -1.5759  2.9276  2.7592
  921SOL     OW 2761   1.134   0.007   2.650 -0.2827 -0.1782  0.0156
  921SOL    HW1 2762   1.100   0.007   2.548  0.5796  0.5289 -0.2680
  921SOL    HW2 2763   1.056   0.022   2.711 -1.9020 -0.0745 -0.4595
  922SOL     OW 2764   2.184   2.370   2.743 -0.0400 -0.0752  0.1659
  922SOL    HW1 2765   2.180   2.270   2.746  1.6651  0.4073 -0.2962
  922SOL    HW2 2766   2.147   2.417   2.655  2.4415  1.7523 -3.3196
  923SOL     OW 2767   1.273   2.722   0.266  0.0363 -0.9729  0.1185
  923SOL    HW1 2768   1.307   2.792   0.334 -1.6004 -1.2344 -0.5822
  923SOL    HW2 2769   1.302   2.627   0.295  1.9991  1.5912 -0.5080
  924SOL     OW 2770   2.884   1.696   0.148 -0.3686 -0.8893 -0.1422
  924SOL    HW1 2771   2.791   1.671   0.117  0.6057 -0.8670  1.0676
  924SOL    HW2 2772   2.960   1.634   0.122  1.1175 -1.9437  0.5438
  925SOL     OW 2773   0.048   2.867   1.521  0.1843  0.0171  0.1075
  925SOL    HW1 2774   0.006   2.811   1.597 -1.1930  2.0914 -1.2902
  925SOL    HW2 2775   0.012   2.836   1.430  0.3682 -2.6579  0.6907
  926SOL     OW 2776   1.308   2.835   1.322 -0.4927 -0.0402  0.5126
  926SOL    HW1 2777   1.347   2.825   1.227  1.2675  3.2942 -0.5445
  926SOL    HW2 2778   1.343   2.925   1.366  0.5176  2.6437 -0.1662
  927SOL     OW 2779   0.355   2.656   1.757 -0.5633 -0.6646  0.5492
  927SOL    HW1 2780   0.331   2.581   1.693 -0.7308  2.0284 -0.9592
  927SOL    HW2 2781   0.322   2.750   1.727  4.1870 -0.1394  2.9187
  928SOL     OW 2782   1.599   2.072   2.233  0.1745 -0.1660  0.6533
  928SOL    HW1 2783   1.611   2.153   2.168 -0.7629 -0.3295 -0.1547
  928SOL    HW2 2784   1.498   2.041   2.237  1.4698  0.4961 -3.5828
  929SOL     OW 2785   2.399   2.493   2.858 -0.2781 -0.6833 -0.1087
  929SOL    HW1 2786   2.322   2.454   2.805  1.4830  1.1116 -0.5652
  929SOL    HW2 2787   2.479   2.512   2.788  0.9596  1.9270 -0.4280
  930SOL     OW 2788   2.161   1.987   1.127 -0.1537 -0.3927 -0.5526
  930SOL    HW1 2789   2.136   1.959   1.225  0.1332 -2.0727  1.3998
  930SOL    HW2 2790   2.233   2.058   1.128 -1.8323 -0.2371 -1.0372
  931SOL     OW 2791   0.515   1.725   2.641  0.1330 -0.0025 -0.1572
  931SOL    HW1 2792   0.554   1.760   2.736  2.6627 -0.6419  0.5800
  931SOL    HW2 2793   0.579   1.660   2.590  0.9691 -1.0815 -2.0377
  932SOL     OW 2794   0.364   0.096   3.083  0.3249  0.1258  0.2125
  932SOL    HW1 2795   0.468   0.119   3.083 -1.0896  0.8043  1.4893
  932SOL    HW2 2796   0.348  -0.001   3.060  0.0403  2.4101  3.2329
  933SOL     OW 2797   0.959   0.846   3.030 -0.1088 -0.0480 -0.3304
  933SOL    HW1 2798   0.862   0.807   3.023 -2.7632 -0.2531 -0.6968
  933SOL    HW2 2799   0.961   0.950   3.037 -0.5194 -0.9755  0.6282
  934SOL     OW 2800   0.718   2.922   2.672 -0.2856 -0.0317  0.0675
  934SOL    HW1 2801   0.710   2.880   2.580 -0.6118  2.4822  2.8045
  934SOL    HW2 2802   0.787   2.870   2.726  1.0980  0.4128  0.0507
  935SOL     OW 2803   3.103   0.540   0.814  0.0603 -0.0130 -0.8224
  935SOL    HW1 2804   3.103   0.521   0.714  1.3473 -0.6626  0.4445
  935SOL    HW2 2805   3.016   0.593   0.844  0.0652 -2.0553  0.1583
  936SOL     OW 2806   1.099   2.846   0.084  0.0591  0.1178  0.4121
  936SOL    HW1 2807   1.151   2.884  -0.001  0.1034  0.2997 -0.5385
  936SOL    HW2 2808   1.166   2.795   0.143  0.3721 -3.8005  0.3947
  937SOL     OW 2809   1.904   2.649   2.072 -0.6250  0.1672  0.2863
  937SOL    HW1 2810   1.802   2.633   2.085 -1.2478 -0.2737  0.0806
  937SOL    HW2 2811   1.925   2.700   1.984 -1.2386  0.0008  0.1701
  938SOL     OW 2812   2.800   2.088   1.561  0.5805 -0.0900  0.4904
  938SOL    HW1 2813   2.768   2.188   1.574  1.2019 -0.6020  2.1496
  938SOL    HW2 2814   2.875   2.067   1.631  1.6089  0.3442 -1.0757
  939SOL     OW 2815   2.787   1.231   2.468 -0.0489  0.1878 -0.5941
  939SOL    HW1 2816   2.847   1.193   2.395  0.0926  1.0001 -1.5534
  939SOL    HW2 2817   2.805   1.186   2.561  0.6266 -0.4896 -0.8561
  940SOL     OW 2818   1.031   0.436   2.765 -0.4489  0.5236 -0.6520
  940SOL    HW1 2819   1.103   0.359   2.768  2.9518  1.8707  2.7864
  940SOL    HW2 2820   0.982   0.433   2.676  0.0312 -0.5995  1.6813
  941SOL     OW 2821  -0.006   2.781   2.260 -0.1273 -0.2820  0.0860
  941SOL    HW1 2822   0.061   2.716   2.212  2.1848 -0.6855  2.5083
  941SOL    HW2 2823   0.045   2.838   2.334  2.0443 -0.8127  3.4529
  942SOL     OW 2824   0.064   0.080   2.553  0.6368  0.3259  0.2414
  942SOL    HW1 2825   0.135   0.090   2.630 -0.0056 -1.2874  1.1124
  942SOL    HW2 2826   0.080   0.157   2.484  0.2640 -0.3972 -0.0566
  943SOL     OW 2827   2.105   1.714   2.330  0.0104 -0.1572 -0.1497
  943SOL    HW1 2828   2.087   1.660   2.237 -1.0883  0.8164 -1.9675
  943SOL    HW2 2829   2.121   1.653   2.414 -1.1509  2.1766  2.0639
  944SOL     OW 2830   2.199   2.371   1.495 -0.1808  0.3643 -0.3823
  944SOL    HW1 2831   2.290   2.389   1.537 -1.7540  1.9444 -0.9310
  944SOL    HW2 2832   2.154   2.295   1.547 -0.5083 -1.0753  0.0300
  945SOL     OW 2833   0.704   1.580   0.068  0.0485 -0.1038 -0.0585
  945SOL    HW1 2834   0.606   1.612   0.058 -2.7266 -1.0133  0.0357
  945SOL    HW2 2835   0.716   1.505   0.140  0.3937  0.2390 -0.2159
  946SOL     OW 2836   0.390   0.975   2.537  0.8611 -0.5712 -0.4635
  946SOL    HW1 2837   0.320   0.934   2.472  0.8719  1.8817 -0.8416
  946SOL    HW2 2838   0.386   1.080   2.535  1.7385 -1.8199 -0.4431
  947SOL     OW 2839   1.487   0.535   3.074  0.2789 -0.6517 -0.0595
  947SOL    HW1 2840   1.500   0.617   3.008 -1.6063  0.3561  0.0139
  947SOL    HW2 2841   1.385   0.505   3.087 -2.6489 -0.4891 -1.5914
  948SOL     OW 2842   1.896   3.007   2.161 -0.2436  0.7318 -0.1698
  948SOL    HW1 2843   1.893   2.967   2.067  2.5828  1.2060  3.5721
  948SOL    HW2 2844   1.911   2.934   2.233  2.5267  1.9871  1.2589
  949SOL     OW 2845   0.600   2.444   0.471 -0.3528  0.2370 -0.3899
  949SOL    HW1 2846   0.613   2.545   0.455 -0.3458 -0.8664  0.4153
  949SOL    HW2 2847   0.607   2.419   0.576  2.9325  3.5814 -0.4470
  950SOL     OW 2848   0.193   2.238   2.970 -0.4594  0.5139 -0.1453
  950SOL    HW1 2849   0.160   2.332   2.946 -2.6760  1.4005  1.6299
  950SOL    HW2 2850   0.146   2.163   2.922 -2.0697 -1.7477  1.3598
  951SOL     OW 2851   1.165   2.652   2.772 -0.1328 -0.2333  0.3664
  951SOL    HW1 2852   1.219   2.621   2.853 -0.2323 -0.3676  1.4055
  951SOL    HW2 2853   1.223   2.658   2.684 -1.7153  0.8053  0.2776
  952SOL     OW 2854   0.099   1.646   0.398 -1.0127  0.2270 -0.5181
  952SOL    HW1 2855   0.123   1.731   0.447 -2.7273  0.0834  1.6130
  952SOL    HW2 2856   0.121   1.558   0.455 -0.0485  1.0463  1.4777
  953SOL     OW 2857   2.536   1.773   0.250  0.0473  0.1876 -0.4058
  953SOL    HW1 2858   2.576   1.680   0.236  3.1873 -0.9654  0.6581
  953SOL    HW2 2859   2.470   1.803   0.172  0.2702  1.2186 -0.3260
  954SOL     OW 2860   2.174   0.584   0.929  0.4808  0.2203 -0.2633
  954SOL    HW1 2861   2.176   0.568   0.828  0.8639 -0.4708 -1.1375
  954SOL    HW2 2862   2.265   0.576   0.968  0.1204 -0.1204 -3.9041
  955SOL     OW 2863   0.104   2.552   1.369 -0.3034 -0.1667 -0.2409
  955SOL    HW1 2864   0.006   2.574   1.344 -1.3574  2.2084  0.7354
  955SOL    HW2 2865   0.172   2.627   1.357 -2.5728 -2.1877  0.7143
  956SOL     OW 2866   2.809   2.476   2.508 -0.2546 -0.0280 -0.3293
  956SOL    HW1 2867   2.807   2.375   2.492  0.4856  0.6325  0.4426
  956SOL    HW2 2868   2.847   2.524   2.425 -0.5475 -0.5871  0.3358
  957SOL     OW 2869   1.565   2.058   2.725 -0.2435  0.2196 -0.0099
  957SOL    HW1 2870   1.530   1.975   2.778  2.0654  1.4548  0.9146
  957SOL    HW2 2871   1.638   2.039   2.652  1.9405  1.9628 -2.5131
  958SOL     OW 2872   2.586   2.295   2.956 -0.4861  0.9214  0.0549
  958SOL    HW1 2873   2.497   2.351   2.970  0.4010 -1.4619  1.3732
  958SOL    HW2 2874   2.623   2.258   3.044  1.3665  0.7635 -1.3203
  959SOL     OW 2875   0.334   2.775   0.097 -0.5069  0.4004  0.0040
  959SOL    HW1 2876   0.263   2.831   0.151 -0.2119 -0.2852  0.7307
  959SOL    HW2 2877   0.343   2.684   0.139 -1.7288  0.4963 -2.6443
  960SOL     OW 2878   1.962   0.427   1.928  0.3876 -0.2713  0.0412
  960SOL    HW1 2879   1.915   0.518   1.898 -0.9927  0.7251  0.0325
  960SOL    HW2 2880   1.968   0.415   2.029 -1.0640  0.5377 -0.8069
  961SOL     OW 2881   2.542   1.853   1.040 -0.0463  0.5642  1.0416
  961SOL    HW1 2882   2.545   1.951   0.999  1.5165  1.0439 -2.0068
  961SOL    HW2 2883   2.517   1.855   1.143 -1.0617  0.0602  0.3473
  962SOL     OW 2884   1.338   0.867   0.055  0.4745  0.3108 -0.0622
  962SOL    HW1 2885   1.266   0.892  -0.015 -1.5713 -0.2534  0.8525
  962SOL    HW2 2886   1.336   0.935   0.140  1.6024  1.0814  0.2870
  963SOL     OW 2887   2.287   2.555   1.821  0.6003  0.1234 -0.3159
  963SOL    HW1 2888   2.222   2.487   1.867  0.2104 -4.1345 -0.0372
  963SOL    HW2 2889   2.316   2.646   1.869 -3.0805  0.0687  1.7918
  964SOL     OW 2890   2.371   0.362   1.655  0.3867 -0.2685  0.7954
  964SOL    HW1 2891   2.463   0.384   1.704  1.1436  1.9840 -0.3984
  964SOL    HW2 2892   2.364   0.377   1.554  0.8610 -3.2904 -1.8702
  965SOL     OW 2893   2.581   2.986   0.160 -0.3366  0.1849  0.1751
  965SOL    HW1 2894   2.641   2.951   0.086 -1.7248 -2.0155  0.3594
  965SOL    HW2 2895   2.494   3.027   0.127  0.6679  3.6324  1.8050
  966SOL     OW 2896   2.518   2.527   2.188  0.0273  0.6600 -0.0001
  966SOL    HW1 2897   2.548   2.623   2.177 -0.1025 -0.4000 -0.3790
  966SOL    HW2 2898   2.424   2.515   2.145  1.1165  0.9448 -0.7822
  967SOL     OW 2899   2.759   2.861   2.450  1.1154 -0.2921  0.1513
  967SOL    HW1 2900   2.779   2.762   2.426  0.7969 -0.3354  3.7516
  967SOL    HW2 2901   2.831   2.913   2.503  0.8304  0.7442  1.1286
  968SOL     OW 2902   1.943   1.047   2.619 -0.1572  0.1248 -0.4390
  968SOL    HW1 2903   1.853   1.093   2.589 -2.7052  1.4136 -0.4695
  968SOL    HW2 2904   1.961   0.961   2.562 -0.7777  0.6878  0.7823
  969SOL     OW 2905   2.756   2.475   1.075 -0.3091 -0.7152 -0.2038
  969SOL    HW1 2906   2.744   2.486   0.973  1.2842 -0.1993  0.1574
  969SOL    HW2 2907   2.827   2.405   1.106 -0.9646 -0.5358  0.5576
  970SOL     OW 2908   1.085   2.122   1.849 -0.1344 -0.1890 -0.3435
  970SOL    HW1 2909   1.007   2.062   1.812  0.2514  1.9126  0.4519
  970SOL    HW2 2910   1.049   2.197   1.907 -0.6455 -1.6976  0.6634
  971SOL     OW 2911   2.874   2.050   1.987  0.9521 -0.0222  0.7618
  971SOL    HW1 2912   2.897   2.138   2.036  2.0470  2.3983  0.4606
  971SOL    HW2 2913   2.917   2.041   1.894 -1.1044  0.6847 -1.3191
  972SOL     OW 2914   1.953   2.484   0.264  0.4113 -0.5348 -0.3104
  972SOL    HW1 2915   1.933   2.413   0.194  0.0113  0.5737  0.8831
  972SOL    HW2 2916   1.992   2.448   0.356  2.7298  3.6511  3.2171
  973SOL     OW 2917   1.219   0.916   1.863  0.3160  0.2387 -0.2065
  973SOL    HW1 2918   1.193   0.815   1.872  0.2275 -1.4492 -1.2128
  973SOL    HW2 2919   1.155   0.972   1.807  0.2230  1.8945 -0.5416
  974SOL     OW 2920   1.643   0.570   1.940 -0.0419  0.3676 -0.9952
  974SOL    HW1 2921   1.725   0.611   1.893 -1.5059 -0.7061  1.2718
  974SOL    HW2 2922   1.558   0.634   1.935  0.7796 -0.9022 -0.7354
  975SOL     OW 2923   2.347   3.047   3.085 -0.3454 -0.0205  0.7260
  975SOL    HW1 2924   2.273   2.974   3.100 -0.8802 -1.4450 -0.2990
  975SOL    HW2 2925   2.413   3.012   3.011  1.5149 -1.1881  0.4255
  976SOL     OW 2926   1.892   2.829   2.363 -0.5737  0.2490  0.7476
  976SOL    HW1 2927   1.821   2.755   2.347  1.3830 -0.8080 -0.7502
  976SOL    HW2 2928   1.944   2.817   2.453  0.7405 -0.3389 -2.4514
  977SOL     OW 2929   0.512   0.615   0.994  0.1738 -0.6385 -0.8994
  977SOL    HW1 2930   0.425   0.635   0.937  2.5165 -1.8792  1.3310
  977SOL    HW2 2931   0.584   0.685   0.980 -2.5085 -2.7913  0.8037
   3.10000   3.10000   3.10000
