1000 SPC/Fw water molecules t=   1.95000 step= 1950
 2931
    1SOL     OW    1   2.532   0.272   2.716 -0.2467 -0.0721  0.0830
    1SOL    HW1    2   2.576   0.180   2.686 -1.9302  0.7878  0.7381
    1SOL    HW2    3   2.590   0.320   2.790  2.6482 -1.7086 -1.2349
    2SOL     OW    4   2.798   2.782   1.268  0.5362 -0.5477 -0.2682
    2SOL    HW1    5   2.863   2.849   1.228 -1.7487  1.3314  0.2403
    2SOL    HW2    6   2.791   2.787   1.368 -1.3934 -1.8706 -0.6614
    3SOL     OW    7   2.769   2.431   0.465  0.2969  0.2474 -0.0977
    3SOL    HW1    8   2.691   2.367   0.475  1.3039  1.2897  4.8302
    3SOL    HW2    9   2.763   2.510   0.530  0.1271 -0.4001  0.4324
    4SOL     OW   10   1.194   1.545   2.418  0.0157  0.0959 -0.6449
    4SOL    HW1   11   1.148   1.583   2.329 -0.9582 -1.0966 -2.3652
    4SOL    HW2   12   1.164   1.445   2.429 -3.0351 -1.2004 -1.5698
    5SOL     OW   13   1.152   1.570   2.906 -0.0113  0.3356 -0.0956
    5SOL    HW1   14   1.184   1.665   2.945  1.8188  1.6481  0.3956
    5SOL    HW2   15   1.060   1.579   2.849 -2.5301  1.6655  0.9583
    6SOL     OW   16   0.182   1.867   0.017 -0.3195 -0.0803  0.3273
    6SOL    HW1   17   0.105   1.887   0.078  1.2074  0.9936 -0.5898
    6SOL    HW2   18   0.245   1.801   0.056 -0.0180 -0.4397 -2.0082
    7SOL     OW   19   2.555   0.864   1.061  0.0001 -0.0765 -0.1470
    7SOL    HW1   20   2.478   0.814   1.106  2.8164  2.2347 -1.3796
    7SOL    HW2   21   2.631   0.810   1.017  1.0236 -1.5844  2.1873
    8SOL     OW   22   0.472   0.728   1.472 -0.0708  0.1075  0.0091
    8SOL    HW1   23   0.566   0.741   1.511 -0.5953 -0.8375 -0.5272
    8SOL    HW2   24   0.468   0.714   1.367  1.1576 -0.3932 -0.8390
    9SOL     OW   25   1.130   0.842   2.310 -0.1204 -0.1972  0.1424
    9SOL    HW1   26   1.150   0.889   2.224 -0.4223 -2.3234 -1.0607
    9SOL    HW2   27   1.081   0.749   2.306 -0.8960 -2.2644 -4.2972
   10SOL     OW   28   0.599   1.507   1.247 -0.1928  0.7516 -0.1650
   10SOL    HW1   29   0.506   1.499   1.207  0.4532  2.7034 -1.0175
   10SOL    HW2   30   0.627   1.606   1.272 -1.0131 -0.5519  0.3145
   11SOL     OW   31   2.340   2.822   0.932 -0.3312 -0.2876  0.1240
   11SOL    HW1   32   2.289   2.788   1.023 -1.4844 -0.5913  0.3580
   11SOL    HW2   33   2.440   2.839   0.950  1.9972 -0.3604 -1.1388
   12SOL     OW   34   1.427   0.828   0.532 -0.3196  0.0198  0.3060
   12SOL    HW1   35   1.327   0.845   0.553  0.8997  1.2624  2.3815
   12SOL    HW2   36   1.453   0.767   0.452  2.3801 -4.2131  2.3592
   13SOL     OW   37   2.444   0.688   1.832 -0.1367 -0.3393 -0.5421
   13SOL    HW1   38   2.348   0.666   1.861  0.3312 -0.2624 -2.1403
   13SOL    HW2   39   2.470   0.648   1.746 -0.6212  1.0009 -0.2101
   14SOL     OW   40   1.945   3.031   0.669  0.8302  0.2087  0.9171
   14SOL    HW1   41   1.864   3.087   0.662  3.3237 -0.3519 -1.2518
   14SOL    HW2   42   1.973   3.007   0.768 -2.4354  0.9053  0.2291
   15SOL     OW   43   1.853   2.088   2.639 -0.4257 -0.6300 -0.0495
   15SOL    HW1   44   1.800   2.067   2.722  1.8710 -1.6865  0.8520
   15SOL    HW2   45   1.865   2.007   2.580  1.1130  2.1859  2.8039
   16SOL     OW   46   1.537   1.735   2.991 -0.3997 -0.5745 -0.1434
   16SOL    HW1   47   1.535   1.639   3.023  0.7243 -0.0742 -2.5845
   16SOL    HW2   48   1.629   1.774   3.023  0.6695  0.4940  0.1381
   17SOL     OW   49   0.057   0.466   0.183 -0.0333 -0.1279 -0.4929
   17SOL    HW1   50   0.152   0.465   0.147  0.7315 -0.9005 -0.0739
   17SOL    HW2   51  -0.000   0.509   0.108 -0.5393  3.3697 -1.1805
   18SOL     OW   52   0.872   2.832   2.233  0.4083  0.1079 -0.1508
   18SOL    HW1   53   0.824   2.763   2.296  1.0623 -0.9643 -0.1745
   18SOL    HW2   54   0.896   2.797   2.138  0.8008  1.0736  1.0866
   19SOL     OW   55   0.532   0.934   1.916  0.6411  0.0428 -0.2317
   19SOL    HW1   56   0.579   0.887   1.994  1.7388  0.7608  0.3458
   19SOL    HW2   57   0.586   1.017   1.889  1.0346  1.1751 -0.5551
   20SOL     OW   58   0.230   2.754   0.772  0.4414 -0.8329  0.1162
   20SOL    HW1   59   0.129   2.789   0.758  3.0708  0.5399  0.9820
   20SOL    HW2   60   0.264   2.691   0.697  2.3882 -2.7686 -0.7514
   21SOL     OW   61   2.828   0.292   1.973  0.0950  0.0394  0.1964
   21SOL    HW1   62   2.757   0.221   1.952 -0.3292 -1.5698 -1.8947
   21SOL    HW2   63   2.897   0.265   2.046 -0.8336  0.1121  1.3142
   22SOL     OW   64   2.421   0.217   0.059  0.1769  0.7674 -0.0897
   22SOL    HW1   65   2.451   0.122   0.030  0.8067 -1.0684  2.2063
   22SOL    HW2   66   2.330   0.239   0.005 -3.7263  0.5993 -0.9955
   23SOL     OW   67   2.809   0.517   0.671  0.1033  0.2692 -0.0496
   23SOL    HW1   68   2.895   0.467   0.641  2.6615 -2.9244 -0.3717
   23SOL    HW2   69   2.814   0.620   0.657  1.9195  2.7907 -1.2099
   24SOL     OW   70   0.267   1.894   0.426 -0.5521 -0.6469 -0.0817
   24SOL    HW1   71   0.265   1.993   0.400 -0.8133  1.1872 -1.0252
   24SOL    HW2   72   0.354   1.847   0.391 -1.7095  0.0313 -2.1453
   25SOL     OW   73   2.292   0.575   0.265 -0.1908 -0.0330  0.4627
   25SOL    HW1   74   2.262   0.615   0.175 -1.5006 -0.4162  1.2441
   25SOL    HW2   75   2.325   0.479   0.260 -1.7537 -1.6265 -1.6310
   26SOL     OW   76   2.445   2.154   2.146 -0.3587  0.1747  0.0725
   26SOL    HW1   77   2.522   2.212   2.177 -0.0405  1.7114  1.5100
   26SOL    HW2   78   2.477   2.093   2.071  0.2705  1.8624 -0.5707
   27SOL     OW   79   0.635   3.039   0.161 -0.3166  0.3357 -0.9116
   27SOL    HW1   80   0.721   3.070   0.109 -1.0150 -0.9897 -4.7381
   27SOL    HW2   81   0.584   2.980   0.095  3.1786  1.7722 -0.1693
   28SOL     OW   82   1.576   0.174   0.343  0.4113  0.2225  0.1460
   28SOL    HW1   83   1.609   0.147   0.245 -1.4394 -1.4351 -2.6365
   28SOL    HW2   84   1.643   0.239   0.392 -0.8116 -1.7230  0.0582
   29SOL     OW   85   2.002   0.545   0.313 -0.0990 -0.1556  0.1143
   29SOL    HW1   86   1.995   0.629   0.376  0.0717  1.0550  0.6596
   29SOL    HW2   87   2.102   0.550   0.274  0.6700 -0.1400  0.7418
   30SOL     OW   88   0.184   2.094   0.900 -0.0777 -0.4781  0.3333
   30SOL    HW1   89   0.169   2.006   0.846 -1.9305 -1.6344  2.2191
   30SOL    HW2   90   0.096   2.145   0.909 -0.1208  0.4370 -0.0217
   31SOL     OW   91   2.090   0.100   2.371 -0.1366 -0.0674  0.3510
   31SOL    HW1   92   2.062   0.047   2.456  0.5760  0.3613 -1.5953
   31SOL    HW2   93   2.049   0.056   2.288  4.1302 -1.2356  0.3430
   32SOL     OW   94   3.087   3.073   0.227  0.3138  0.3470 -0.1583
   32SOL    HW1   95   3.046   2.987   0.258  1.0150  2.3923  0.8105
   32SOL    HW2   96   3.182   3.065   0.188  1.4129 -0.6107  0.7088
   33SOL     OW   97   0.876   0.245   0.662 -0.1650 -0.8579  0.0897
   33SOL    HW1   98   0.887   0.180   0.585 -0.0330 -0.8370  1.5233
   33SOL    HW2   99   0.954   0.313   0.665 -0.2901  1.0424 -1.4271
   34SOL     OW  100   0.353   2.658   0.985  0.2312  0.1871 -0.4650
   34SOL    HW1  101   0.311   2.687   0.896  0.9902  0.6896  2.4974
   34SOL    HW2  102   0.428   2.720   1.020  1.1790 -0.6884 -2.4091
   35SOL     OW  103   0.114   0.210   1.925  0.2207  0.3540  0.1426
   35SOL    HW1  104   0.097   0.115   1.960 -1.8223  1.7840  3.1076
   35SOL    HW2  105   0.093   0.214   1.821  4.0320  0.4153  0.1188
   36SOL     OW  106   1.829   1.246   1.486 -0.8577  0.4219  0.4669
   36SOL    HW1  107   1.918   1.200   1.517 -0.2596  3.9918  0.5164
   36SOL    HW2  108   1.847   1.306   1.401 -2.9256  0.8949 -3.1300
   37SOL     OW  109   1.164   0.241   0.986 -0.0137 -0.5783 -0.1656
   37SOL    HW1  110   1.171   0.347   0.991  0.3644 -0.0802 -0.6529
   37SOL    HW2  111   1.240   0.196   0.935  1.1438  1.4099  0.6679
   38SOL     OW  112   1.130   2.803   2.474  0.2907 -0.1973  0.0995
   38SOL    HW1  113   1.038   2.758   2.468  1.1672 -0.5858  1.4559
   38SOL    HW2  114   1.146   2.888   2.417 -0.0037 -0.9384 -1.6530
   39SOL     OW  115   2.491   1.412   3.039  0.5506  0.3343  0.5159
   39SOL    HW1  116   2.549   1.324   3.036  2.0162  1.8832  4.3051
   39SOL    HW2  117   2.406   1.408   3.094  0.8924  0.3274  0.7150
   40SOL     OW  118   2.039   2.503   2.572 -0.4145  0.1485  0.2306
   40SOL    HW1  119   1.999   2.600   2.594  1.9060  1.6917  0.9658
   40SOL    HW2  120   1.966   2.441   2.543  2.7201  0.3372  3.3116
   41SOL     OW  121   3.024   0.706   2.806 -0.0954  0.1821  0.0525
   41SOL    HW1  122   3.023   0.798   2.857  1.6956  0.9689 -0.6145
   41SOL    HW2  123   2.930   0.657   2.809 -0.1101  0.1147  0.7863
   42SOL     OW  124   1.771   1.726   0.456  0.6062 -0.3531 -0.2563
   42SOL    HW1  125   1.734   1.630   0.468  0.0920  0.9284 -0.0095
   42SOL    HW2  126   1.749   1.762   0.362 -0.4586 -1.4253 -0.1938
   43SOL     OW  127   0.426   1.805   1.137  0.0627  0.9294  0.0155
   43SOL    HW1  128   0.402   1.827   1.037  1.7519  2.8761  1.0193
   43SOL    HW2  129   0.353   1.804   1.211  1.2726 -1.1765  1.9533
   44SOL     OW  130   1.716   2.393   2.971  0.4638  0.3603  0.0365
   44SOL    HW1  131   1.636   2.451   2.995 -0.4273 -1.2156 -0.6556
   44SOL    HW2  132   1.731   2.397   2.868  0.3083  1.1636  1.5745
   45SOL     OW  133   0.355   1.938   2.625 -0.0835  0.4225  0.7117
   45SOL    HW1  134   0.283   1.918   2.554  1.5865 -0.4632 -0.2313
   45SOL    HW2  135   0.432   1.865   2.644 -1.3310 -1.3052  3.8367
   46SOL     OW  136   1.295   0.742   0.223 -0.3170  0.4754 -0.1232
   46SOL    HW1  137   1.266   0.840   0.207 -0.8787  2.0304 -1.1384
   46SOL    HW2  138   1.230   0.672   0.190 -0.9909 -0.9859 -1.1218
   47SOL     OW  139   0.170   2.347   1.612  0.2450  0.4286  0.0825
   47SOL    HW1  140   0.111   2.270   1.642  1.3292 -0.9594 -1.8648
   47SOL    HW2  141   0.177   2.348   1.506 -0.0021 -1.1615  0.6586
   48SOL     OW  142   2.662   0.674   0.194  0.2415 -0.2309  0.5111
   48SOL    HW1  143   2.669   0.649   0.295 -0.6369 -0.2352  0.1129
   48SOL    HW2  144   2.749   0.715   0.154 -0.9198 -0.5527 -0.0970
   49SOL     OW  145   0.336   0.840   1.719  0.2194 -0.4710 -0.4796
   49SOL    HW1  146   0.418   0.866   1.782 -0.9222  1.2581  1.5992
   49SOL    HW2  147   0.356   0.843   1.618  0.1530  2.3073  0.4876
   50SOL     OW  148   1.686   1.076   0.350  0.1267 -0.2126  0.7307
   50SOL    HW1  149   1.730   0.978   0.334  2.6089 -0.9721 -1.5143
   50SOL    HW2  150   1.638   1.083   0.442  1.6543  1.1483  1.6821
   51SOL     OW  151   2.920   1.714   0.346 -0.6734  0.1773  0.7009
   51SOL    HW1  152   2.923   1.672   0.250  2.8712  1.3594  1.2329
   51SOL    HW2  153   2.991   1.678   0.410 -0.6887  0.0353  2.7186
   52SOL     OW  154   0.805   2.175   0.556  0.1903 -0.4792  0.2803
   52SOL    HW1  155   0.714   2.165   0.504  0.9851  0.0344 -0.6217
   52SOL    HW2  156   0.816   2.097   0.626  0.3734 -2.7780 -1.3252
   53SOL     OW  157   0.304   0.509   1.507  0.3046  0.6039  0.5076
   53SOL    HW1  158   0.373   0.585   1.522  0.7110  1.3594  1.4089
   53SOL    HW2  159   0.238   0.534   1.431 -2.7103  0.3350  0.8905
   54SOL     OW  160   1.786   0.438   3.083 -0.1961  0.0129 -0.4873
   54SOL    HW1  161   1.868   0.389   3.124 -0.5186  0.1551  0.6049
   54SOL    HW2  162   1.703   0.429   3.149 -0.9353 -1.3543  1.0059
   55SOL     OW  163   0.748   2.893   0.611 -1.1483 -0.2504 -0.4626
   55SOL    HW1  164   0.686   2.974   0.625 -0.3760 -2.3435  0.0563
   55SOL    HW2  165   0.846   2.923   0.618 -3.6286  1.7925 -1.6932
   56SOL     OW  166   0.519   1.620   3.066  0.4954  0.5574  0.0353
   56SOL    HW1  167   0.437   1.623   3.128 -0.9573 -3.7314 -1.1980
   56SOL    HW2  168   0.517   1.533   3.006  1.2606 -0.9925  3.3384
   57SOL     OW  169   1.692   2.468   2.384  0.3790 -0.2599 -0.0685
   57SOL    HW1  170   1.759   2.390   2.411  0.7109  0.2750  0.9414
   57SOL    HW2  171   1.612   2.483   2.448 -0.7441  1.4410 -2.0266
   58SOL     OW  172   0.667   0.160   1.070  0.4973 -0.1019 -0.4805
   58SOL    HW1  173   0.572   0.168   1.113  2.0160  0.1469 -1.8887
   58SOL    HW2  174   0.721   0.069   1.091 -0.5166 -2.2553  2.7951
   59SOL     OW  175   0.451   2.383   2.571 -0.1009  0.5040  0.0450
   59SOL    HW1  176   0.466   2.296   2.621  0.6879  1.0132 -1.1325
   59SOL    HW2  177   0.537   2.444   2.582 -0.3420  1.6524 -0.6074
   60SOL     OW  178   2.332   2.062   2.373 -0.0840 -0.0782  0.4834
   60SOL    HW1  179   2.397   2.094   2.297 -0.2291  3.2137 -1.0436
   60SOL    HW2  180   2.363   2.088   2.467  2.4879  1.3405  1.2501
   61SOL     OW  181   1.190   0.647   0.501 -0.3686  0.4668  0.3473
   61SOL    HW1  182   1.087   0.658   0.495 -0.9456 -0.8130  1.1160
   61SOL    HW2  183   1.234   0.653   0.404 -1.7666  0.5695 -0.0650
   62SOL     OW  184   2.758   1.715   2.686 -0.5101  0.1668 -0.0153
   62SOL    HW1  185   2.725   1.637   2.627 -0.7622  1.8279  0.6235
   62SOL    HW2  186   2.842   1.690   2.739 -1.4017 -3.2918  1.8182
   63SOL     OW  187   0.514   0.799   0.173 -0.3179 -0.1501 -0.5072
   63SOL    HW1  188   0.567   0.873   0.119 -1.4818  0.1566 -1.1203
   63SOL    HW2  189   0.534   0.795   0.271 -1.7063 -1.4796 -3.6670
   64SOL     OW  190   3.073   0.580   2.383  0.1116  0.7673  0.1605
   64SOL    HW1  191   2.999   0.607   2.451 -1.8138  2.5298  0.9031
   64SOL    HW2  192   3.050   0.610   2.288  2.2507  1.0162 -1.2294
   65SOL     OW  193   0.129   1.429   0.653 -0.2719  0.2816 -0.0974
   65SOL    HW1  194   0.095   1.513   0.701  0.3699 -0.7230 -1.5418
   65SOL    HW2  195   0.138   1.443   0.550  0.8986 -1.4480  1.7605
   66SOL     OW  196   2.599   0.311   0.511  0.2584  0.1473  0.0014
   66SOL    HW1  197   2.692   0.299   0.538 -2.5375 -0.8653 -1.1875
   66SOL    HW2  198   2.539   0.271   0.580  0.0606 -2.4153 -0.8922
   67SOL     OW  199   0.578   2.487   1.532  0.3064 -0.2014 -0.2565
   67SOL    HW1  200   0.673   2.465   1.560  0.8133  1.3842  2.2227
   67SOL    HW2  201   0.521   2.400   1.506  0.6811  0.8408 -0.1237
   68SOL     OW  202   0.906   0.986   2.527  0.0848 -0.6982 -0.0105
   68SOL    HW1  203   0.968   0.902   2.510  3.2239  0.1284 -0.2392
   68SOL    HW2  204   0.896   1.050   2.446 -2.1175  0.0278 -0.0411
   69SOL     OW  205   0.694   2.596   2.307 -0.0385  0.2196  0.4396
   69SOL    HW1  206   0.741   2.530   2.241  1.4347 -1.4860  1.1808
   69SOL    HW2  207   0.600   2.639   2.274 -2.3153  0.0985 -0.8411
   70SOL     OW  208   0.537   0.144   2.581 -0.2714 -0.4980  0.3068
   70SOL    HW1  209   0.456   0.122   2.639 -0.8647  0.3878  1.5615
   70SOL    HW2  210   0.616   0.079   2.599 -0.5461  0.5171 -2.1561
   71SOL     OW  211   1.088   1.810   0.321 -0.1494  0.1223 -0.4252
   71SOL    HW1  212   1.012   1.772   0.380  1.1126  0.5779 -0.0215
   71SOL    HW2  213   1.059   1.844   0.229  0.2463  2.4100  1.5652
   72SOL     OW  214   1.821   0.207   2.134 -0.4731 -0.0289 -0.1799
   72SOL    HW1  215   1.844   0.308   2.107 -0.8979 -2.1414 -0.7637
   72SOL    HW2  216   1.847   0.140   2.059  0.4678  1.1621 -1.6410
   73SOL     OW  217   2.791   2.187   2.437  0.6439 -0.4828 -0.0249
   73SOL    HW1  218   2.796   2.106   2.372 -1.6318  1.2293 -1.4203
   73SOL    HW2  219   2.863   2.194   2.511  2.6423 -1.3138 -0.1609
   74SOL     OW  220   2.684   3.008   2.110 -0.2326  0.3414 -0.3974
   74SOL    HW1  221   2.648   2.978   2.200 -1.2067  2.4917  0.5997
   74SOL    HW2  222   2.780   3.036   2.115 -0.8812 -2.4802 -1.3298
   75SOL     OW  223   0.915   0.806   1.106 -0.6002 -0.3598 -1.1186
   75SOL    HW1  224   0.813   0.838   1.100  0.3961  1.7247 -2.1355
   75SOL    HW2  225   0.952   0.847   1.195 -0.9262  2.1680  1.7725
   76SOL     OW  226   1.810   1.269   2.581 -0.6035 -0.0640  0.2258
   76SOL    HW1  227   1.737   1.224   2.644 -0.7992  3.4180 -0.2659
   76SOL    HW2  228   1.847   1.363   2.615 -0.0507 -1.1702 -3.6094
   77SOL     OW  229   2.913   0.921   1.025 -0.4213  0.4671  0.2911
   77SOL    HW1  230   2.861   0.837   1.056 -1.1344 -0.9895 -0.1104
   77SOL    HW2  231   3.013   0.920   1.058  0.1900 -2.2231 -1.1637
   78SOL     OW  232   1.948   1.464   1.290  0.3275 -0.2181  0.5780
   78SOL    HW1  233   2.033   1.442   1.238 -0.4150  0.0644  0.7603
   78SOL    HW2  234   1.866   1.480   1.224  0.3146 -1.3833 -1.5847
   79SOL     OW  235   0.634   1.511   0.829 -0.3064  0.3092 -0.1480
   79SOL    HW1  236   0.539   1.507   0.868  1.3044  0.2748 -0.6351
   79SOL    HW2  237   0.670   1.413   0.799 -0.7025 -0.1487 -1.0611
   80SOL     OW  238   0.713   0.469   1.566  0.4340  0.6930 -0.2216
   80SOL    HW1  239   0.729   0.492   1.469 -1.3398 -2.0701  1.0952
   80SOL    HW2  240   0.675   0.373   1.572 -1.6685 -0.3545 -2.3437
   81SOL     OW  241   1.054   1.301   2.424  0.0208  0.0118 -0.6794
   81SOL    HW1  242   0.955   1.297   2.400  2.2013 -0.6418 -1.9527
   81SOL    HW2  243   1.110   1.234   2.375  0.8591  1.9381  1.0324
   82SOL     OW  244   0.953   2.948   1.677 -0.0928  0.1238  0.2344
   82SOL    HW1  245   1.014   2.862   1.657  2.7159 -0.7258  1.0952
   82SOL    HW2  246   0.926   2.998   1.593  0.4938  2.6770  0.3474
   83SOL     OW  247   2.623   2.358   0.937 -0.7709 -0.2249  0.9087
   83SOL    HW1  248   2.537   2.306   0.901  0.3894 -0.0271  0.9407
   83SOL    HW2  249   2.609   2.459   0.926 -1.6433  0.1261 -0.8896
   84SOL     OW  250   0.795   3.096   2.332  0.1494 -0.1647 -0.3134
   84SOL    HW1  251   0.743   3.083   2.426 -0.3133  0.3385  3.4068
   84SOL    HW2  252   0.829   3.005   2.293 -0.2491 -1.7559  1.5394
   85SOL     OW  253   0.252   1.692   1.365 -0.4373  0.0991 -0.0623
   85SOL    HW1  254   0.246   1.787   1.407 -1.7098 -0.0640 -2.3542
   85SOL    HW2  255   0.294   1.621   1.425  1.2664  2.9356 -3.3529
   86SOL     OW  256   0.481   1.069   1.393  0.0666  0.2756 -0.1088
   86SOL    HW1  257   0.467   1.031   1.299  1.0278 -3.1432 -0.3496
   86SOL    HW2  258   0.541   1.018   1.457  2.2289  4.4620 -0.7762
   87SOL     OW  259   1.583   0.681   0.348 -0.4378  0.0717 -0.0784
   87SOL    HW1  260   1.655   0.752   0.332 -2.2216 -0.7925 -3.7764
   87SOL    HW2  261   1.561   0.629   0.262 -2.4938  0.0857 -0.3316
   88SOL     OW  262   1.526   1.345   0.291 -0.4022 -0.2276  0.1815
   88SOL    HW1  263   1.571   1.259   0.302 -0.1564 -1.8003 -0.7122
   88SOL    HW2  264   1.425   1.342   0.308  1.8189 -0.7964 -2.1458
   89SOL     OW  265   3.063   0.366   0.627 -0.3757  0.0954  0.0036
   89SOL    HW1  266   3.166   0.345   0.621 -0.9196  0.0884 -1.5503
   89SOL    HW2  267   3.003   0.283   0.636  3.0334  1.1767  1.5502
   90SOL     OW  268   0.748   1.584   0.167 -0.6122  0.3088  0.7233
   90SOL    HW1  269   0.842   1.561   0.129  0.1295  1.3086 -0.3107
   90SOL    HW2  270   0.679   1.605   0.093 -0.3760  0.5028  1.1739
   91SOL     OW  271   1.280   1.519   1.676  0.1665 -0.2079  0.0052
   91SOL    HW1  272   1.252   1.560   1.770 -0.2955 -1.6676  2.0103
   91SOL    HW2  273   1.379   1.478   1.680  3.0116  1.2149 -1.5920
   92SOL     OW  274   0.078   0.944   1.150 -0.3280 -1.0522  0.2031
   92SOL    HW1  275   0.117   1.036   1.114 -1.0821 -1.5404 -0.3718
   92SOL    HW2  276   0.072   0.942   1.260 -0.1325  0.4518  0.6908
   93SOL     OW  277   3.028   2.682   0.051  0.0790  0.1621 -0.3247
   93SOL    HW1  278   2.982   2.660  -0.042 -1.1876 -1.3056 -2.6448
   93SOL    HW2  279   3.098   2.606   0.081  2.6404 -0.6294 -1.9737
   94SOL     OW  280   1.545   1.456   1.609 -0.4114  0.4539 -0.0387
   94SOL    HW1  281   1.596   1.369   1.641  1.3841 -0.8671 -2.4645
   94SOL    HW2  282   1.593   1.504   1.528  0.0380  1.6903 -2.7839
   95SOL     OW  283   1.444   2.470   2.914  0.3510  0.0978 -0.1206
   95SOL    HW1  284   1.378   2.505   2.982  0.4255 -1.5596 -0.5549
   95SOL    HW2  285   1.413   2.379   2.865  1.7244  0.8814 -2.1990
   96SOL     OW  286   0.590   2.135   1.264 -0.0599 -0.1533 -0.5243
   96SOL    HW1  287   0.552   2.081   1.184 -0.4049 -1.0357  1.3551
   96SOL    HW2  288   0.631   2.078   1.342  0.2929  0.5571  1.3306
   97SOL     OW  289   0.301   1.615   2.415  0.3335  0.1069 -0.2911
   97SOL    HW1  290   0.306   1.716   2.386 -0.6489  0.6413  2.5442
   97SOL    HW2  291   0.258   1.599   2.513  0.3984 -3.3382  1.2232
   98SOL     OW  292   2.275   1.688   1.188  0.3421  0.2457 -0.5314
   98SOL    HW1  293   2.275   1.586   1.172  1.2319 -0.1023  1.2115
   98SOL    HW2  294   2.362   1.724   1.147 -2.3773 -2.3199 -0.3879
   99SOL     OW  295   2.593   2.111   1.277 -0.2853  0.4482 -0.3066
   99SOL    HW1  296   2.645   2.145   1.362 -0.2566  1.4302  0.1223
   99SOL    HW2  297   2.520   2.034   1.304 -1.9965 -2.6619 -1.3845
  100SOL     OW  298   2.329   0.392   2.138 -0.0904  0.3136  0.7577
  100SOL    HW1  299   2.278   0.383   2.225  2.0163  1.0854  1.4393
  100SOL    HW2  300   2.431   0.412   2.157  0.9740  2.3371  0.1804
  101SOL     OW  301   0.371   1.470   0.454  0.8887 -0.2897  0.9635
  101SOL    HW1  302   0.347   1.564   0.473  3.5283 -1.7859  0.7099
  101SOL    HW2  303   0.455   1.464   0.397 -3.1112  1.1265 -1.9839
  102SOL     OW  304   2.315   1.062   0.861  0.4407  0.3199 -0.8880
  102SOL    HW1  305   2.293   0.955   0.854  0.9774  0.2781 -1.1039
  102SOL    HW2  306   2.360   1.091   0.776  0.1627 -1.0168 -1.0297
  103SOL     OW  307   2.260   0.062   0.331  0.3995  0.3631 -0.0955
  103SOL    HW1  308   2.310   0.155   0.317 -0.2224 -0.5494 -2.0813
  103SOL    HW2  309   2.298   0.007   0.415  1.1589  0.5742  5.5872
  104SOL     OW  310   0.048   1.834   2.177  0.1410  0.3628 -0.4808
  104SOL    HW1  311   0.088   1.807   2.090 -0.6284  2.9809  0.9776
  104SOL    HW2  312  -0.058   1.830   2.162 -0.1664 -0.9241 -1.4135
  105SOL     OW  313   1.236   2.105   0.796 -0.5293  0.4224  0.1055
  105SOL    HW1  314   1.155   2.129   0.859 -2.9624 -0.3333  0.2848
  105SOL    HW2  315   1.234   2.004   0.770 -2.5576  0.1051 -1.9993
  106SOL     OW  316   2.136   0.406   1.477 -0.1635  0.1774  0.2650
  106SOL    HW1  317   2.048   0.356   1.449 -0.6357 -0.1799  0.9787
  106SOL    HW2  318   2.138   0.437   1.579  2.4134 -0.2554 -0.7420
  107SOL     OW  319   1.926   2.944   1.209 -0.5284  0.2583  0.2011
  107SOL    HW1  320   1.853   3.008   1.238  1.6434  1.2382  1.8290
  107SOL    HW2  321   1.883   2.861   1.164  0.9531  1.9779  3.1287
  108SOL     OW  322   0.899   2.778   1.085  0.0164 -0.1437  0.3998
  108SOL    HW1  323   0.893   2.683   1.042  0.7909 -0.6328 -0.1630
  108SOL    HW2  324   0.999   2.804   1.094 -1.7915 -0.6946 -3.5067
  109SOL     OW  325   2.181   0.091   0.759 -0.6223 -0.2161  0.4647
  109SOL    HW1  326   2.106   0.035   0.716  0.3208 -2.3858 -0.0588
  109SOL    HW2  327   2.166   0.102   0.862 -0.1153 -3.9323  0.0309
  110SOL     OW  328   0.493   2.814   2.817 -0.3806 -0.4711 -0.1130
  110SOL    HW1  329   0.478   2.816   2.715 -0.5967  0.9656  0.8545
  110SOL    HW2  330   0.535   2.725   2.846 -0.3910  0.4289 -1.1741
  111SOL     OW  331   1.336   0.603   2.352  0.3668 -0.9965 -0.6911
  111SOL    HW1  332   1.239   0.611   2.379  1.6441  0.2626  0.6705
  111SOL    HW2  333   1.380   0.520   2.399  0.6738  0.8822  1.5650
  112SOL     OW  334   1.757   0.559   1.502  0.4954  0.0937 -0.3652
  112SOL    HW1  335   1.731   0.563   1.402 -2.6427 -1.8114 -4.0568
  112SOL    HW2  336   1.675   0.566   1.571  1.7080  2.8008  1.3352
  113SOL     OW  337   2.294   1.706   1.774  0.4839  0.0203  0.1429
  113SOL    HW1  338   2.327   1.626   1.726  0.3261  1.3579  0.0231
  113SOL    HW2  339   2.293   1.693   1.880 -1.2607  0.8276  0.1823
  114SOL     OW  340   0.334   0.443   1.179  0.5186  0.0768 -0.1982
  114SOL    HW1  341   0.267   0.515   1.212 -2.5851  0.6261  0.5032
  114SOL    HW2  342   0.392   0.488   1.101 -1.0643 -0.6785 -0.1911
  115SOL     OW  343   2.725   1.578   1.250 -0.0780 -0.5142 -0.6939
  115SOL    HW1  344   2.705   1.478   1.254  1.6352 -1.3211  1.8965
  115SOL    HW2  345   2.827   1.598   1.243  1.4198  2.6949  0.8713
  116SOL     OW  346   1.880   0.927   0.682  0.4447 -0.3423  0.4280
  116SOL    HW1  347   1.784   0.894   0.676 -1.4960  0.5368 -0.8226
  116SOL    HW2  348   1.897   1.028   0.658 -0.9900  1.4672  1.5661
  117SOL     OW  349   1.117   0.386   0.553  0.5148 -0.1788  0.6405
  117SOL    HW1  350   1.153   0.481   0.557 -0.2625 -0.8826 -4.3660
  117SOL    HW2  351   1.073   0.365   0.463  0.8536  1.7577  0.8434
  118SOL     OW  352   1.122   1.229   1.130 -0.5995 -0.1663  0.0313
  118SOL    HW1  353   1.098   1.158   1.195 -0.2781  0.8791 -0.0383
  118SOL    HW2  354   1.158   1.316   1.177  0.4389  1.0995  0.3076
  119SOL     OW  355   1.908   1.626   2.219 -0.7783  0.1486 -0.3533
  119SOL    HW1  356   1.833   1.677   2.166 -0.4422 -3.3841 -1.4829
  119SOL    HW2  357   1.979   1.581   2.153  2.9804  2.1618 -0.9319
  120SOL     OW  358   2.952   2.824   0.285  0.0782  0.0658 -0.1725
  120SOL    HW1  359   2.975   2.765   0.208 -1.6737  0.1609  2.3975
  120SOL    HW2  360   2.856   2.814   0.313 -0.8328 -0.9420 -0.3929
  121SOL     OW  361   1.977   0.818   2.331 -0.1188  0.7944 -0.0634
  121SOL    HW1  362   2.040   0.899   2.295  0.9695  1.8123 -3.6125
  121SOL    HW2  363   2.016   0.722   2.315  1.9956  1.0920 -0.1569
  122SOL     OW  364   2.570   2.472   1.395 -0.0354  0.2405 -0.1101
  122SOL    HW1  365   2.650   2.432   1.348  0.0108 -0.7105  1.1839
  122SOL    HW2  366   2.576   2.464   1.499  0.8255  1.5794 -0.8554
  123SOL     OW  367   1.656   0.180   1.661  0.0314 -0.2280  0.2816
  123SOL    HW1  368   1.705   0.090   1.639  1.0266 -0.1469  2.4090
  123SOL    HW2  369   1.723   0.250   1.690 -1.9159 -2.0469  0.4453
  124SOL     OW  370   3.015   0.432   1.164 -0.0843  0.2324  0.1552
  124SOL    HW1  371   2.934   0.488   1.197  1.2699 -1.1645 -4.3378
  124SOL    HW2  372   3.042   0.468   1.072 -0.9840 -0.2545 -0.3297
  125SOL     OW  373   0.913   1.943   0.740 -0.2218  0.1897 -0.1617
  125SOL    HW1  374   0.990   1.878   0.770 -0.7684 -1.8052  1.2977
  125SOL    HW2  375   0.874   1.995   0.823 -0.4522 -0.0421 -1.3323
  126SOL     OW  376   1.893   2.297   2.454 -0.4237  0.4837  0.4822
  126SOL    HW1  377   1.950   2.276   2.370 -0.0132  2.5919 -1.5508
  126SOL    HW2  378   1.908   2.230   2.530 -0.1420  2.7451 -1.9869
  127SOL     OW  379   0.979   0.963   0.182  0.0742  0.1488 -0.2267
  127SOL    HW1  380   0.967   0.997   0.282  1.4752  0.5456  0.8725
  127SOL    HW2  381   0.932   0.875   0.163 -1.5303  0.7689 -0.9580
  128SOL     OW  382   0.885   0.194   1.398 -0.1371  0.3169  0.1625
  128SOL    HW1  383   0.874   0.264   1.319 -0.1955  1.3087 -1.0759
  128SOL    HW2  384   0.837   0.100   1.381 -1.6958 -2.7681  1.7160
  129SOL     OW  385   1.903   0.677   1.910  0.0157 -0.0938  0.5349
  129SOL    HW1  386   1.919   0.682   1.805 -0.3078 -1.0638  2.0388
  129SOL    HW2  387   1.893   0.774   1.952 -1.8621  2.8556  0.4741
  130SOL     OW  388   1.390   2.219   0.996 -0.0813  1.0680 -0.1614
  130SOL    HW1  389   1.359   2.170   0.911 -0.5258 -0.4875  0.5856
  130SOL    HW2  390   1.429   2.311   0.977 -0.5086 -1.2782  0.2301
  131SOL     OW  391   3.012   1.372   1.396 -0.5592 -0.4141 -0.0215
  131SOL    HW1  392   2.982   1.270   1.416 -3.3037  1.5069  0.5067
  131SOL    HW2  393   3.117   1.372   1.379  2.9128 -0.7413 -0.0944
  132SOL     OW  394   2.029   2.425   0.562 -0.4985 -0.2880  0.8125
  132SOL    HW1  395   1.926   2.450   0.544  0.3814 -0.3080 -1.3207
  132SOL    HW2  396   2.038   2.343   0.622  2.7052  0.4655 -2.1821
  133SOL     OW  397   1.736   2.455   2.703 -0.5373 -0.2803 -0.1789
  133SOL    HW1  398   1.647   2.448   2.647  0.3915 -0.7550  0.4125
  133SOL    HW2  399   1.753   2.550   2.746 -1.7021  1.5272 -0.4991
  134SOL     OW  400   2.589   2.421   1.684  0.0327 -0.1318  0.7852
  134SOL    HW1  401   2.532   2.364   1.746 -0.1030  1.9535 -0.1767
  134SOL    HW2  402   2.663   2.477   1.728  0.3660 -1.0751 -1.0513
  135SOL     OW  403   0.788   1.352   2.677  0.1343  0.8256  0.2939
  135SOL    HW1  404   0.713   1.310   2.728  1.7257  1.6410  0.5061
  135SOL    HW2  405   0.780   1.323   2.578 -2.5077 -1.9371 -1.9626
  136SOL     OW  406   1.208   2.026   0.401  0.2758  0.2641 -0.3825
  136SOL    HW1  407   1.159   2.102   0.456  1.7536 -1.0808 -1.0497
  136SOL    HW2  408   1.149   1.942   0.394  0.3469  2.1771  0.0131
  137SOL     OW  409   0.463   1.171   2.264 -0.0221  0.1646  0.4359
  137SOL    HW1  410   0.358   1.169   2.254 -1.1084 -2.6013 -0.7528
  137SOL    HW2  411   0.501   1.075   2.289  1.1791 -0.7733  3.7782
  138SOL     OW  412   2.415   1.523   0.303  0.1102 -0.2875 -0.6504
  138SOL    HW1  413   2.351   1.485   0.230 -1.2793  4.2891  1.9171
  138SOL    HW2  414   2.472   1.450   0.342 -2.0274  0.6231  0.0539
  139SOL     OW  415   1.894   2.667   1.540 -0.7439  1.1741 -0.2743
  139SOL    HW1  416   1.816   2.710   1.484  0.8336  1.2644 -0.6011
  139SOL    HW2  417   1.939   2.585   1.489  2.8907  0.3070 -0.2138
  140SOL     OW  418   3.069   2.998   2.652  1.1265 -0.8688 -0.0253
  140SOL    HW1  419   3.073   2.900   2.623 -0.5717  3.5306  0.5701
  140SOL    HW2  420   3.142   3.057   2.605 -0.0547 -1.9596  1.1158
  141SOL     OW  421   1.243   1.613   1.397 -0.8249 -0.0674 -0.0284
  141SOL    HW1  422   1.158   1.614   1.344  1.0034 -2.1540  1.0489
  141SOL    HW2  423   1.235   1.573   1.494 -0.2042 -0.1806 -0.2551
  142SOL     OW  424   1.590   0.656   2.257 -0.1096 -0.3867  0.7712
  142SOL    HW1  425   1.607   0.594   2.173 -0.7094 -0.0448 -0.4553
  142SOL    HW2  426   1.487   0.665   2.273 -2.1323  0.2844  0.5424
  143SOL     OW  427   2.818   0.768   0.576 -0.0368 -0.5253  0.2051
  143SOL    HW1  428   2.868   0.815   0.496 -1.1285  0.4814  0.3126
  143SOL    HW2  429   2.825   0.828   0.659  0.6847 -0.4876  0.1356
  144SOL     OW  430   2.925   1.116   1.401 -0.1959  0.2338 -0.1476
  144SOL    HW1  431   2.875   1.092   1.490  2.2989  0.8164  0.6836
  144SOL    HW2  432   3.025   1.083   1.402  0.4823 -0.9774 -0.7776
  145SOL     OW  433   0.949   1.887   0.063  0.1155  0.7876  0.0429
  145SOL    HW1  434   1.016   1.935  -0.001 -0.0168 -0.5214  2.1373
  145SOL    HW2  435   0.889   1.819   0.010  0.8892  0.1712 -1.2625
  146SOL     OW  436   2.441   0.629   1.538 -0.3376  0.1858  0.3686
  146SOL    HW1  437   2.419   0.533   1.506  1.5913 -3.2581 -3.2537
  146SOL    HW2  438   2.367   0.696   1.513  3.5581  0.8547  1.0287
  147SOL     OW  439   1.045   2.504   0.502 -0.1487 -0.0454 -0.6562
  147SOL    HW1  440   1.005   2.582   0.446  0.8038  0.0482  1.5385
  147SOL    HW2  441   1.149   2.493   0.491  1.6024  1.1565  0.4773
  148SOL     OW  442   1.544   1.379   0.012 -0.2952 -0.3283  0.1980
  148SOL    HW1  443   1.568   1.276   0.012 -2.9640  0.1470  0.6940
  148SOL    HW2  444   1.521   1.408   0.106  0.3988 -1.5031  1.9153
  149SOL     OW  445   0.734   1.495   1.969  0.2714  0.6387 -0.2104
  149SOL    HW1  446   0.651   1.467   2.024 -0.0881  1.1706 -0.1567
  149SOL    HW2  447   0.732   1.478   1.865  1.3590  0.8096 -0.0492
  150SOL     OW  448   2.984   1.210   1.014  0.6119 -0.3805 -0.2712
  150SOL    HW1  449   3.082   1.238   1.052  0.5102 -1.0113  0.1946
  150SOL    HW2  450   2.958   1.116   1.040  2.2648  1.2893  1.8120
  151SOL     OW  451   0.159   0.835   2.112  0.4077  0.3606  0.2721
  151SOL    HW1  452   0.168   0.922   2.056  2.4489 -1.9168 -2.4772
  151SOL    HW2  453   0.227   0.765   2.076  1.1839  0.6732 -0.7342
  152SOL     OW  454   1.409   1.873   1.102 -0.0049  0.3212 -0.2983
  152SOL    HW1  455   1.464   1.957   1.109 -0.7227  0.6423 -1.1915
  152SOL    HW2  456   1.308   1.896   1.104 -0.6751 -0.4386 -2.0730
  153SOL     OW  457   0.090   1.522   0.243  0.0976  0.1411  0.0341
  153SOL    HW1  458   0.006   1.462   0.236  2.4835 -0.3920  1.1338
  153SOL    HW2  459   0.089   1.591   0.318  0.0267  0.0919 -1.6619
  154SOL     OW  460   2.261   1.880   2.787  0.2047 -0.2520 -0.0982
  154SOL    HW1  461   2.287   1.780   2.818  1.6720 -0.8801 -0.2774
  154SOL    HW2  462   2.334   1.917   2.720  0.8040 -0.6218 -0.1525
  155SOL     OW  463   2.616   1.331   0.366 -0.4249 -0.2598  0.3155
  155SOL    HW1  464   2.656   1.384   0.448 -0.5503 -0.0578 -0.4631
  155SOL    HW2  465   2.674   1.259   0.321 -0.7164  0.7999 -2.4055
  156SOL     OW  466   2.503   0.798   0.761 -0.0854 -0.2108  0.2480
  156SOL    HW1  467   2.400   0.804   0.764 -2.7049  0.5376 -1.3639
  156SOL    HW2  468   2.547   0.862   0.689  0.9622  1.9815 -0.1429
  157SOL     OW  469   1.209   0.014   3.020 -0.0707 -0.0557 -0.3477
  157SOL    HW1  470   1.257  -0.043   2.950 -2.7185 -1.1405 -0.8223
  157SOL    HW2  471   1.250   0.104   3.043 -1.2288 -0.5549  0.3279
  158SOL     OW  472   1.038   1.824   1.872 -0.4612  0.0506  0.5256
  158SOL    HW1  473   1.116   1.895   1.859 -0.4627  0.1930 -0.7299
  158SOL    HW2  474   0.971   1.854   1.941  2.7302  1.7259 -4.1691
  159SOL     OW  475   0.823   0.362   1.195  0.3053 -0.0702  0.2529
  159SOL    HW1  476   0.767   0.450   1.210  2.5416  1.6166  1.9780
  159SOL    HW2  477   0.766   0.299   1.138 -0.1271  0.1182 -0.1780
  160SOL     OW  478   1.374   2.457   1.456 -0.2150  0.2768  0.1101
  160SOL    HW1  479   1.303   2.401   1.502  2.6305  0.1350  1.1915
  160SOL    HW2  480   1.466   2.411   1.442 -0.2491  1.5059 -1.2093
  161SOL     OW  481   0.083   2.663   0.408  0.3048  0.4004  0.0484
  161SOL    HW1  482   0.071   2.558   0.412 -1.0945 -2.1999  0.5151
  161SOL    HW2  483  -0.004   2.712   0.374 -1.3527  1.4892  0.1323
  162SOL     OW  484   2.560   1.948   0.475 -0.0429 -0.2550  0.1867
  162SOL    HW1  485   2.615   1.936   0.387  0.0751  3.0888  1.1875
  162SOL    HW2  486   2.493   1.870   0.492 -0.7145  4.6495 -0.8790
  163SOL     OW  487   1.896   2.692   0.794  0.1204 -0.0352 -0.3589
  163SOL    HW1  488   1.857   2.731   0.707 -0.4584 -0.1635  1.2467
  163SOL    HW2  489   1.966   2.624   0.769 -1.0367 -1.3399 -2.4122
  164SOL     OW  490   3.020   0.154   1.268 -0.1000  0.8279  0.4281
  164SOL    HW1  491   3.002   0.250   1.237 -3.0714 -1.3740 -1.6721
  164SOL    HW2  492   3.100   0.141   1.335 -0.0462 -0.9417 -0.9032
  165SOL     OW  493   1.079   1.360   0.651 -0.5781 -0.2341  0.2723
  165SOL    HW1  494   1.063   1.438   0.721  1.3699  1.4037  0.0696
  165SOL    HW2  495   1.047   1.391   0.556  0.1295 -4.0264 -0.2334
  166SOL     OW  496   1.546   0.948   1.777 -0.0792  0.6545 -0.9119
  166SOL    HW1  497   1.450   0.973   1.810 -0.2986 -0.3724  0.8599
  166SOL    HW2  498   1.605   1.026   1.746  1.1654  1.5649 -0.5001
  167SOL     OW  499   0.649   2.032   1.517 -0.2626 -0.3006  0.1640
  167SOL    HW1  500   0.676   2.100   1.589  0.7689 -1.0836  1.7120
  167SOL    HW2  501   0.608   1.946   1.556 -0.8736  1.5944 -0.2104
  168SOL     OW  502   1.671   2.322   0.155 -0.6442  0.3459  0.2353
  168SOL    HW1  503   1.738   2.319   0.081 -0.1174  2.7993 -0.5512
  168SOL    HW2  504   1.705   2.280   0.244  0.7404  0.3800  0.3080
  169SOL     OW  505   3.049   2.615   2.163 -0.1518  0.4611 -0.3425
  169SOL    HW1  506   3.027   2.558   2.080 -0.7280  0.4912 -0.6825
  169SOL    HW2  507   3.103   2.565   2.232 -0.9420  4.2828  0.3875
  170SOL     OW  508   1.159   0.140   2.120  0.0539 -0.1952 -0.1335
  170SOL    HW1  509   1.240   0.158   2.185 -0.8992 -0.1116  0.2325
  170SOL    HW2  510   1.193   0.142   2.020 -0.7551  2.0954  1.5056
  171SOL     OW  511   0.159   0.889   2.451  0.0270 -0.0975  0.1461
  171SOL    HW1  512   0.058   0.897   2.480  0.9109 -1.2053 -0.2822
  171SOL    HW2  513   0.169   0.875   2.350 -1.4402  0.7628 -1.6694
  172SOL     OW  514   1.022   1.012   2.824  0.5368  0.3387  0.5663
  172SOL    HW1  515   0.976   1.063   2.905  1.2385 -1.4837  2.0511
  172SOL    HW2  516   0.980   1.043   2.734  0.6028  0.2711  1.3833
  173SOL     OW  517   0.322   2.551   3.040 -0.4614  0.0175  1.1278
  173SOL    HW1  518   0.336   2.538   2.937  2.6936  1.6770  1.3292
  173SOL    HW2  519   0.375   2.483   3.098  2.0070 -0.1918 -2.2354
  174SOL     OW  520   1.475   2.896   0.978  0.1767  0.6287  0.0319
  174SOL    HW1  521   1.572   2.939   0.972  1.0437  0.3823  1.1172
  174SOL    HW2  522   1.473   2.798   0.955  1.5979  0.2474 -0.3907
  175SOL     OW  523   0.412   0.023   1.718 -0.3299  0.7679  0.7102
  175SOL    HW1  524   0.477   0.008   1.796 -1.5726 -1.0838  1.8925
  175SOL    HW2  525   0.371   0.117   1.712 -0.8005  0.8333 -1.4595
  176SOL     OW  526   2.534   0.466   0.034  0.0567 -0.1479 -0.3286
  176SOL    HW1  527   2.566   0.508   0.123  2.8605  1.4534 -0.2918
  176SOL    HW2  528   2.487   0.371   0.039 -5.3430 -0.3809  0.9112
  177SOL     OW  529   0.321   0.105   0.785  0.1555 -0.3749 -0.3184
  177SOL    HW1  530   0.299   0.025   0.855 -0.4635 -1.9388 -0.9369
  177SOL    HW2  531   0.410   0.159   0.805  1.2194  1.5455  0.9844
  178SOL     OW  532   0.004   2.718   2.615  0.1484 -0.0431  0.0218
  178SOL    HW1  533  -0.008   2.617   2.606  1.1679  0.8215  0.9187
  178SOL    HW2  534   0.093   2.745   2.666  0.4412 -0.7239  0.2458
  179SOL     OW  535   2.991   1.606   1.227  0.3552  0.5971 -0.4439
  179SOL    HW1  536   3.063   1.634   1.160  1.1286 -0.6729  0.9893
  179SOL    HW2  537   2.996   1.509   1.262 -0.6988 -1.3111  0.6089
  180SOL     OW  538   0.240   1.351   1.727 -0.8598 -0.0942  0.1938
  180SOL    HW1  539   0.317   1.309   1.786  0.4391 -2.1468 -1.0250
  180SOL    HW2  540   0.190   1.418   1.784  1.3830 -1.3333 -2.9092
  181SOL     OW  541   3.048   1.738   2.445  0.7507  0.0314 -0.4257
  181SOL    HW1  542   3.129   1.793   2.425  1.7049 -0.2206  0.1584
  181SOL    HW2  543   2.961   1.785   2.416 -1.7465 -2.4593 -1.4812
  182SOL     OW  544   2.212   1.415   1.207  0.0207  0.0738  0.1736
  182SOL    HW1  545   2.238   1.369   1.291 -0.2005 -0.3963 -1.6317
  182SOL    HW2  546   2.218   1.346   1.127  1.0542  1.1513 -0.4653
  183SOL     OW  547   1.391   2.204   2.482  0.2894 -0.1970  0.4801
  183SOL    HW1  548   1.314   2.140   2.496  2.4161  0.7673  1.5987
  183SOL    HW2  549   1.481   2.155   2.476  1.4303  1.7637  0.7942
  184SOL     OW  550   2.242   0.799   0.801 -0.1219  0.6209 -0.4409
  184SOL    HW1  551   2.166   0.826   0.735 -1.6709 -1.3374 -0.1829
  184SOL    HW2  552   2.235   0.696   0.826  0.0272  1.2206 -1.6538
  185SOL     OW  553   1.595   2.755   2.007 -0.0168  0.5982  0.0773
  185SOL    HW1  554   1.522   2.831   2.012 -0.5193  0.5988  0.5309
  185SOL    HW2  555   1.640   2.731   2.100 -0.5641  0.5450 -0.5712
  186SOL     OW  556   3.093   2.130   1.801 -0.3352 -0.4774 -0.2028
  186SOL    HW1  557   3.118   2.217   1.858  0.3448  0.2173 -0.5100
  186SOL    HW2  558   3.172   2.104   1.736  1.8761  3.0541 -1.3199
  187SOL     OW  559   1.321   0.633   1.680  0.8162 -0.4181 -0.0981
  187SOL    HW1  560   1.409   0.656   1.638  0.0006  0.4722 -2.0289
  187SOL    HW2  561   1.325   0.568   1.764  2.0050 -1.2223 -0.0280
  188SOL     OW  562   2.706   2.677   1.566 -0.1214  0.4950 -0.5953
  188SOL    HW1  563   2.695   2.774   1.594 -1.3386  0.6625 -1.2057
  188SOL    HW2  564   2.620   2.641   1.520 -0.2711 -1.5089 -0.5144
  189SOL     OW  565   0.857   1.135   1.435 -0.1888 -0.1872  0.2868
  189SOL    HW1  566   0.929   1.187   1.487  0.6854 -1.2556 -3.1564
  189SOL    HW2  567   0.803   1.196   1.368 -0.3550  1.0130  3.0681
  190SOL     OW  568   1.393   1.869   1.515 -0.4737  0.7367 -0.0870
  190SOL    HW1  569   1.332   1.784   1.496 -0.2130  0.5712 -1.5913
  190SOL    HW2  570   1.406   1.870   1.615 -0.9017 -0.8567 -1.1792
  191SOL     OW  571   0.905   0.741   1.507  0.1033 -0.5283  0.0448
  191SOL    HW1  572   0.980   0.672   1.538  2.2793 -0.5650  0.8938
  191SOL    HW2  573   0.947   0.833   1.499  3.7992 -0.0566  0.5462
  192SOL     OW  574   1.837   2.416   1.124  0.0512 -0.1958 -0.4732
  192SOL    HW1  575   1.739   2.390   1.091 -0.0425  0.1709 -1.2476
  192SOL    HW2  576   1.918   2.412   1.061 -2.6031 -1.2878  1.0466
  193SOL     OW  577   0.490   0.500   0.391  0.0153  0.2616  0.5596
  193SOL    HW1  578   0.422   0.420   0.380  0.2056 -0.6518 -2.1588
  193SOL    HW2  579   0.553   0.497   0.312  0.1708  0.3241  1.6785
  194SOL     OW  580   0.437   0.726   1.206  0.3093 -0.1502 -0.2294
  194SOL    HW1  581   0.331   0.721   1.219  0.0137  3.0587  0.3720
  194SOL    HW2  582   0.474   0.652   1.142 -1.2804 -2.8380 -1.5288
  195SOL     OW  583   1.015   2.935   0.500 -0.2545 -0.6996 -0.2016
  195SOL    HW1  584   1.006   2.846   0.449 -2.4433 -0.1681 -1.9599
  195SOL    HW2  585   1.107   2.979   0.482  1.2361 -1.8815  1.7102
  196SOL     OW  586   0.189   1.371   1.354 -0.6293 -0.1406  0.1903
  196SOL    HW1  587   0.254   1.451   1.353 -1.4626  0.7263  0.8516
  196SOL    HW2  588   0.209   1.306   1.431 -0.5213 -1.7579 -3.4881
  197SOL     OW  589   0.788   1.969   0.265 -0.2819 -0.1878  0.6071
  197SOL    HW1  590   0.804   1.898   0.341  3.3323 -1.0320  3.0580
  197SOL    HW2  591   0.862   1.959   0.189 -0.4726  0.3144  0.4774
  198SOL     OW  592   0.297   1.231   0.337  0.2706  0.1329  0.4554
  198SOL    HW1  593   0.200   1.212   0.303 -0.7318  1.8428 -0.7200
  198SOL    HW2  594   0.302   1.324   0.386 -0.3299 -1.6541  3.2215
  199SOL     OW  595   2.281   0.417   2.628  0.7252  0.2894  0.0942
  199SOL    HW1  596   2.215   0.379   2.696  2.8329  0.4987 -0.6723
  199SOL    HW2  597   2.379   0.392   2.648  0.7976 -0.1269 -2.2034
  200SOL     OW  598   3.088   2.908   0.752  0.4090  0.6100 -0.4888
  200SOL    HW1  599   3.116   3.005   0.767  1.5068  0.4081 -1.2478
  200SOL    HW2  600   3.020   2.901   0.671 -1.2685  1.6369 -1.6738
  201SOL     OW  601   0.894   0.678   0.484 -0.8991  0.1062 -0.2962
  201SOL    HW1  602   0.882   0.752   0.559 -0.1663  3.8747  1.5098
  201SOL    HW2  603   0.831   0.597   0.490  1.7590  0.3327 -0.0469
  202SOL     OW  604   0.446   1.266   1.899 -0.4626 -0.5197 -0.3385
  202SOL    HW1  605   0.535   1.232   1.857 -0.4021 -1.4967  0.8610
  202SOL    HW2  606   0.463   1.297   1.995 -0.9717  0.6129 -1.4211
  203SOL     OW  607   0.622   0.209   1.596  0.1073  0.4264  0.5444
  203SOL    HW1  608   0.664   0.147   1.528 -0.5665  0.4309 -1.1491
  203SOL    HW2  609   0.657   0.192   1.691  1.0106  0.3802 -0.1255
  204SOL     OW  610   2.038   1.830   2.983 -0.7925 -0.5392 -0.2282
  204SOL    HW1  611   2.033   1.725   2.995  1.6516  0.8277 -1.3693
  204SOL    HW2  612   2.097   1.857   2.903 -0.8002 -2.7698  0.4732
  205SOL     OW  613   1.778   1.883   3.028 -0.2946  0.0199  0.4926
  205SOL    HW1  614   1.880   1.852   3.031  0.8701 -1.7790  0.6176
  205SOL    HW2  615   1.768   1.975   2.983  1.2286 -0.0840  0.2894
  206SOL     OW  616   2.389   2.744   0.311  0.1799  0.6829  0.0862
  206SOL    HW1  617   2.334   2.701   0.387 -1.2919 -0.1643 -2.3667
  206SOL    HW2  618   2.466   2.687   0.281 -1.8777 -0.7430  1.2371
  207SOL     OW  619   0.703   1.769   2.909 -0.3601  0.1136 -0.0401
  207SOL    HW1  620   0.782   1.714   2.875  0.9710  1.1787  2.3849
  207SOL    HW2  621   0.643   1.713   2.975 -1.8929 -4.0676 -1.5669
  208SOL     OW  622   1.018   1.592   1.227 -0.0215 -0.0634  0.6573
  208SOL    HW1  623   0.955   1.597   1.143  0.0507  1.2708 -0.5433
  208SOL    HW2  624   0.971   1.581   1.318  2.3578  0.1510 -0.5478
  209SOL     OW  625   0.253   0.988   3.085  0.3888 -0.7454  0.6720
  209SOL    HW1  626   0.282   0.910   3.018  0.2053  1.8972  0.8220
  209SOL    HW2  627   0.256   0.970   3.189 -1.2406  0.8931  2.6473
  210SOL     OW  628   1.780   0.656   1.245 -0.1746  0.8691  0.1403
  210SOL    HW1  629   1.768   0.754   1.267  3.6864 -0.6247 -0.5534
  210SOL    HW2  630   1.876   0.618   1.263 -0.7743 -2.6594  0.1223
  211SOL     OW  631   2.059   1.139   1.558 -0.1983  0.3573 -0.6378
  211SOL    HW1  632   2.081   1.117   1.658 -2.6369 -0.3210  1.9778
  211SOL    HW2  633   2.134   1.181   1.505 -4.7230 -0.2712 -2.7891
  212SOL     OW  634   0.081   0.953   1.419  0.2525 -0.2467  0.0871
  212SOL    HW1  635   0.144   1.021   1.467  0.5346 -0.4171 -0.1636
  212SOL    HW2  636   0.064   0.868   1.480 -0.4712  0.4345  1.7991
  213SOL     OW  637   2.847   0.059   0.332 -0.3105  0.0792  0.5694
  213SOL    HW1  638   2.940   0.018   0.314 -2.9704  0.7147  1.3449
  213SOL    HW2  639   2.771   0.044   0.264 -0.2509 -0.6129 -1.1778
  214SOL     OW  640   2.216   0.346   2.382 -0.1749 -0.0684  0.2349
  214SOL    HW1  641   2.243   0.368   2.480 -0.4890 -5.1406 -2.0551
  214SOL    HW2  642   2.184   0.246   2.375 -0.8414 -0.8059  0.9971
  215SOL     OW  643   1.696   2.298   2.070  0.1007  0.1193 -0.1028
  215SOL    HW1  644   1.789   2.347   2.067  2.4119  0.6331 -1.0643
  215SOL    HW2  645   1.614   2.364   2.082 -1.2962 -0.6563  2.0709
  216SOL     OW  646   2.306   0.526   0.778  0.1268 -0.2231 -0.4442
  216SOL    HW1  647   2.288   0.465   0.697  2.6084 -0.2595  0.7326
  216SOL    HW2  648   2.400   0.505   0.826 -0.4560 -0.2102  0.7680
  217SOL     OW  649   0.881   2.688   2.550 -0.0050 -0.0623 -0.3801
  217SOL    HW1  650   0.904   2.655   2.639 -1.3324  1.6445  1.3878
  217SOL    HW2  651   0.809   2.628   2.502  0.0780 -1.0773  0.2018
  218SOL     OW  652   1.852   1.399   0.012  0.1490 -0.0700  0.3280
  218SOL    HW1  653   1.753   1.415   0.016  0.5588  1.0067 -0.8149
  218SOL    HW2  654   1.871   1.312   0.061 -2.8198  0.6528 -1.4557
  219SOL     OW  655   2.417   1.256   2.533  0.2804  0.2995 -0.1240
  219SOL    HW1  656   2.458   1.224   2.446 -3.4666  1.1976 -0.3864
  219SOL    HW2  657   2.430   1.190   2.613 -2.3618  0.3944  0.7233
  220SOL     OW  658   1.438   1.048   1.423 -0.0692 -0.7193 -0.2188
  220SOL    HW1  659   1.540   1.024   1.437 -1.1084 -1.0394  1.7173
  220SOL    HW2  660   1.411   1.041   1.320  1.1725  1.7589 -0.7816
  221SOL     OW  661   1.241   0.997   2.119 -0.5654  0.5249 -0.1744
  221SOL    HW1  662   1.268   1.009   2.019  0.2976  1.3872 -1.7556
  221SOL    HW2  663   1.319   1.014   2.182 -2.8099 -3.0235 -1.7781
  222SOL     OW  664   1.149   0.055   1.197 -0.1940  0.4145 -0.3257
  222SOL    HW1  665   1.155   0.090   1.294  0.9595  1.7828 -1.1770
  222SOL    HW2  666   1.170   0.132   1.132 -0.1669 -0.1915  1.8793
  223SOL     OW  667   2.696   0.947   2.152 -0.3954 -0.1346  0.2115
  223SOL    HW1  668   2.653   0.964   2.245  0.7245  1.3655 -0.2884
  223SOL    HW2  669   2.798   0.960   2.152 -2.2340  0.1871 -0.9818
  224SOL     OW  670   1.539   0.975   2.811  0.7816  0.1880  0.1847
  224SOL    HW1  671   1.536   0.935   2.713  0.9127 -0.1897 -4.0022
  224SOL    HW2  672   1.559   1.074   2.806  1.1234 -1.0716 -2.9972
  225SOL     OW  673   2.951   2.674   2.870  0.0376 -0.3608  0.2225
  225SOL    HW1  674   2.867   2.698   2.813  0.2148  2.2528 -0.1848
  225SOL    HW2  675   3.035   2.681   2.818  1.4499  0.1021  2.8533
  226SOL     OW  676   2.404   1.586   2.844 -0.2826 -0.3638  0.3092
  226SOL    HW1  677   2.430   1.560   2.750  0.1660 -0.8838  1.8159
  226SOL    HW2  678   2.419   1.506   2.907  0.6403 -0.7209 -2.5446
  227SOL     OW  679   0.904   0.296   3.015 -0.2813  0.5125  0.3802
  227SOL    HW1  680   0.898   0.400   3.015  0.2245 -1.5610  4.0007
  227SOL    HW2  681   0.857   0.242   2.938  0.0818  2.5013  1.1308
  228SOL     OW  682   2.386   0.683   2.916  0.3205  0.0455 -0.0421
  228SOL    HW1  683   2.433   0.735   2.837  0.2597  0.3645 -0.2199
  228SOL    HW2  684   2.434   0.591   2.941 -1.5947 -0.6340  0.4699
  229SOL     OW  685   0.755   0.680   1.752  0.3046  0.0008 -1.0221
  229SOL    HW1  686   0.836   0.678   1.809 -0.8207 -2.4284 -1.8468
  229SOL    HW2  687   0.744   0.605   1.680 -0.5918 -0.3613  2.0470
  230SOL     OW  688   1.922   1.207   1.939  0.3307 -0.1667 -0.1914
  230SOL    HW1  689   1.983   1.275   1.889 -2.5692  0.5809  1.3513
  230SOL    HW2  690   1.854   1.254   2.000  0.1886  1.4154  2.4992
  231SOL     OW  691   0.661   0.980   0.030 -0.0066 -0.2352  0.6180
  231SOL    HW1  692   0.755   1.021   0.012  1.5267 -0.9166  0.6146
  231SOL    HW2  693   0.596   1.053   0.070  3.4578 -0.2553 -3.1799
  232SOL     OW  694   2.404   2.957   2.794  0.1594  0.3303  0.1460
  232SOL    HW1  695   2.464   2.880   2.827 -0.3301 -1.7081 -1.1136
  232SOL    HW2  696   2.434   3.006   2.707  0.8899 -0.3665 -0.3046
  233SOL     OW  697   1.817   1.108   1.169  0.0982 -0.3416 -0.2399
  233SOL    HW1  698   1.862   1.176   1.102 -1.0889  0.2525 -1.5559
  233SOL    HW2  699   1.864   1.015   1.177 -0.5528 -1.7264 -1.9973
  234SOL     OW  700   1.649   2.541   1.837 -0.1114  0.0899 -0.4861
  234SOL    HW1  701   1.645   2.608   1.922 -0.6637 -1.7710  1.0608
  234SOL    HW2  702   1.597   2.454   1.851  0.3392  2.6160 -1.2127
  235SOL     OW  703   0.103   3.019   2.886 -0.4522 -0.2825  0.1124
  235SOL    HW1  704   0.032   3.048   2.814  0.6067  0.0772  0.5692
  235SOL    HW2  705   0.075   3.053   2.980  0.1634 -1.7833  1.1685
  236SOL     OW  706   2.894   0.769   0.045  0.1626 -0.0783  0.2900
  236SOL    HW1  707   2.955   0.808   0.120  2.1873  0.2344 -0.1946
  236SOL    HW2  708   2.916   0.671   0.010  0.5846 -2.6322 -0.5611
  237SOL     OW  709   1.506   1.682   0.900 -0.1237 -0.0910 -0.0101
  237SOL    HW1  710   1.606   1.660   0.894 -3.4651  2.2677 -0.4473
  237SOL    HW2  711   1.478   1.741   0.980  0.4721  0.9326  1.0636
  238SOL     OW  712   1.900   1.227   0.721 -0.2215  0.4709  0.0282
  238SOL    HW1  713   1.934   1.219   0.822  2.4690 -0.7339  0.9676
  238SOL    HW2  714   1.806   1.273   0.715  1.6591 -0.8558  2.0981
  239SOL     OW  715   2.094   0.351   2.812  0.2503  0.2617 -0.7083
  239SOL    HW1  716   2.116   0.341   2.914 -0.1978  1.4276  1.7238
  239SOL    HW2  717   2.001   0.391   2.799 -0.4711 -2.6528 -0.4573
  240SOL     OW  718   0.895   0.679   0.219 -0.1828  0.1710 -0.1986
  240SOL    HW1  719   0.976   0.622   0.180 -0.9773 -1.8055 -0.6346
  240SOL    HW2  720   0.890   0.687   0.324 -0.7646 -3.1261  0.1540
  241SOL     OW  721   0.554   0.144   0.306  0.1199 -0.4144  0.6385
  241SOL    HW1  722   0.633   0.211   0.279  0.7986  0.6926  0.3576
  241SOL    HW2  723   0.560   0.057   0.250 -0.2686  1.0419  1.3203
  242SOL     OW  724   0.612   2.619   1.288 -0.0931 -0.1603  0.4584
  242SOL    HW1  725   0.619   2.587   1.383  0.1789 -1.6317 -3.3347
  242SOL    HW2  726   0.619   2.723   1.276  2.0821  0.8660 -1.9051
  243SOL     OW  727   1.043   0.593   2.405  0.6875  0.0956 -0.0032
  243SOL    HW1  728   0.960   0.619   2.352  1.6721  0.0170  1.9957
  243SOL    HW2  729   1.023   0.541   2.492  1.7893 -1.4934  2.2241
  244SOL     OW  730   2.805   1.883   2.360  0.2611 -0.4056 -0.1453
  244SOL    HW1  731   2.844   1.879   2.266 -0.2527 -1.3478  0.0845
  244SOL    HW2  732   2.711   1.838   2.376 -2.2539 -0.3487  0.7463
  245SOL     OW  733   2.126   1.035   2.210  0.2699 -0.0442  0.2581
  245SOL    HW1  734   2.209   1.026   2.275  1.4525  0.6164  2.5667
  245SOL    HW2  735   2.071   1.124   2.227 -0.0801 -0.5678  1.0538
  246SOL     OW  736   0.261   2.914   1.821  0.1859 -0.4388  0.2872
  246SOL    HW1  737   0.197   2.849   1.768 -2.9987  0.3093 -0.5973
  246SOL    HW2  738   0.312   2.983   1.760 -0.4061 -2.2845  0.3106
  247SOL     OW  739   2.204   0.601   3.094 -0.4636  0.0480  0.9294
  247SOL    HW1  740   2.262   0.623   3.006 -0.6585  1.7311 -1.6779
  247SOL    HW2  741   2.127   0.669   3.106 -0.1366 -0.1441  0.3758
  248SOL     OW  742   2.160   1.898   1.610 -0.3664  0.2959 -0.8608
  248SOL    HW1  743   2.200   1.816   1.667  2.3874 -2.4050 -0.2991
  248SOL    HW2  744   2.136   1.975   1.670 -0.6172  0.6791 -0.8948
  249SOL     OW  745   1.875   1.855   1.910 -0.0687 -0.1059  0.4139
  249SOL    HW1  746   1.870   1.790   1.827 -0.0505 -2.7955 -0.1367
  249SOL    HW2  747   1.973   1.872   1.938 -0.2692 -1.6890  1.0413
  250SOL     OW  748   1.086   0.655   1.854  0.0774 -0.1551  0.2014
  250SOL    HW1  749   1.128   0.597   1.931 -1.9078 -2.5762 -2.8183
  250SOL    HW2  750   1.080   0.606   1.760  0.6758 -0.7880  1.8972
  251SOL     OW  751   3.030   1.504   2.559  0.2628  0.3697 -0.3247
  251SOL    HW1  752   3.034   1.597   2.514 -0.6009  1.2516  0.4363
  251SOL    HW2  753   2.960   1.443   2.516  1.6701 -0.1472 -0.9194
  252SOL     OW  754   1.558   0.751   1.567 -0.6607  0.3872 -0.0104
  252SOL    HW1  755   1.602   0.801   1.485  0.7554 -3.1068 -1.6367
  252SOL    HW2  756   1.546   0.809   1.653 -1.3799  0.8764  0.6058
  253SOL     OW  757   0.992   1.467   0.404  0.3297  0.2400 -0.3647
  253SOL    HW1  758   1.016   1.470   0.303 -2.2216  0.4110  1.6415
  253SOL    HW2  759   0.911   1.523   0.429  1.3003 -2.2343  0.5259
  254SOL     OW  760   2.054   2.178   1.643  0.6284 -0.1543 -0.5357
  254SOL    HW1  761   1.976   2.128   1.600  2.0121  2.5202  0.0787
  254SOL    HW2  762   2.027   2.268   1.686  0.6423 -2.0340  0.9824
  255SOL     OW  763   0.087   1.172   2.975  0.1145 -0.3236 -0.0141
  255SOL    HW1  764   0.152   1.252   2.959  0.0867 -0.3136  0.5511
  255SOL    HW2  765   0.140   1.096   3.015  1.2135 -3.2247  0.6237
  256SOL     OW  766   2.780   1.441   1.788 -0.1733 -0.2113 -0.3625
  256SOL    HW1  767   2.702   1.500   1.833  1.6794 -0.9978  0.9474
  256SOL    HW2  768   2.751   1.347   1.779  1.1022  1.7109  1.9770
  257SOL     OW  769   0.811   0.183   1.870  0.3526 -0.3253 -0.0698
  257SOL    HW1  770   0.863   0.232   1.792 -0.4284 -0.8935  1.7584
  257SOL    HW2  771   0.852   0.098   1.895  0.4790 -1.3639 -4.8525
  258SOL     OW  772   2.985   1.167   0.538  0.3029 -0.2927  0.2425
  258SOL    HW1  773   2.896   1.189   0.586  3.2046 -0.7806  1.0314
  258SOL    HW2  774   3.060   1.169   0.607 -1.3990  0.1679  0.6752
  259SOL     OW  775   0.455   2.965   3.033  0.6736 -0.1414  0.2541
  259SOL    HW1  776   0.372   2.917   3.081 -1.7753 -0.0776  1.8565
  259SOL    HW2  777   0.486   2.913   2.946 -1.4078  1.3400  2.9314
  260SOL     OW  778   2.694   0.664   2.797  0.0529 -0.7606  0.0048
  260SOL    HW1  779   2.623   0.714   2.738  0.8040  2.0484  0.0735
  260SOL    HW2  780   2.678   0.564   2.826 -0.1473 -0.0008  1.2771
  261SOL     OW  781   2.731   1.277   1.279 -0.0447  0.6864 -0.3617
  261SOL    HW1  782   2.665   1.226   1.221  1.0645 -2.6105  0.5915
  261SOL    HW2  783   2.822   1.232   1.275  0.1972 -0.6859  1.9195
  262SOL     OW  784   1.400   2.968   1.996 -0.6118 -0.2505 -0.2203
  262SOL    HW1  785   1.406   3.061   1.950  0.1158 -0.7206 -1.5201
  262SOL    HW2  786   1.318   2.915   1.962  1.0352  1.8338  0.0602
  263SOL     OW  787   0.845   0.685   2.258  0.2174  0.0396  0.0016
  263SOL    HW1  788   0.782   0.602   2.246  3.5962  0.6277  0.6590
  263SOL    HW2  789   0.864   0.734   2.172 -0.3297 -1.2328  3.5988
  264SOL     OW  790   2.280   0.816   0.459  0.0552 -0.5538  0.2110
  264SOL    HW1  791   2.295   0.733   0.394 -0.7748 -0.0228 -2.7764
  264SOL    HW2  792   2.365   0.843   0.515  1.7925  0.9735 -0.4096
  265SOL     OW  793   0.877   2.304   2.648  0.1806  0.0460  0.4685
  265SOL    HW1  794   0.856   2.310   2.745 -0.2703  0.3295 -1.6241
  265SOL    HW2  795   0.812   2.241   2.594 -1.2271 -1.1405  0.1122
  266SOL     OW  796   1.278   1.822   3.022 -0.2271 -0.2042 -0.8274
  266SOL    HW1  797   1.273   1.885   3.104  2.5203 -0.9619 -1.3306
  266SOL    HW2  798   1.373   1.792   3.011 -2.3754  3.0872 -1.7264
  267SOL     OW  799   1.114   3.022   2.289  0.6377 -0.2244  0.6598
  267SOL    HW1  800   1.046   2.951   2.250  2.7770  2.6225 -3.9344
  267SOL    HW2  801   1.120   3.099   2.219 -3.3862 -1.8262  0.0077
  268SOL     OW  802   0.769   1.296   1.229  0.1641 -0.4347  0.8390
  268SOL    HW1  803   0.713   1.386   1.244 -0.2825 -0.6720  0.3050
  268SOL    HW2  804   0.860   1.314   1.189 -3.5059 -0.2268  0.7411
  269SOL     OW  805   2.287   2.516   1.614 -0.5109  0.0476 -0.0142
  269SOL    HW1  806   2.373   2.468   1.620 -1.8559  0.1492 -1.2647
  269SOL    HW2  807   2.237   2.531   1.701 -1.6947 -0.3847  0.0118
  270SOL     OW  808   0.112   3.055   2.010  0.4184 -0.7237  0.0406
  270SOL    HW1  809   0.160   2.993   1.944  0.8918  0.9608 -1.9072
  270SOL    HW2  810   0.039   3.010   2.072  0.5572 -0.2277  0.0549
  271SOL     OW  811   0.364   1.428   1.121 -0.4849  0.2698  0.3945
  271SOL    HW1  812   0.386   1.390   1.024 -1.2200 -0.2706 -1.6356
  271SOL    HW2  813   0.267   1.411   1.155  1.4761  3.7517 -0.1984
  272SOL     OW  814   1.871   0.010   1.902  0.0073 -0.3322  0.2744
  272SOL    HW1  815   1.816  -0.078   1.877  0.5315 -0.1442  0.6352
  272SOL    HW2  816   1.896   0.073   1.823  1.2127 -0.4113  0.7912
  273SOL     OW  817   1.455   1.448   2.865  0.5182 -0.1975  0.3617
  273SOL    HW1  818   1.363   1.493   2.888 -0.9282 -2.0494  0.0109
  273SOL    HW2  819   1.507   1.431   2.953  0.0781 -1.4679 -0.0676
  274SOL     OW  820   1.178   0.548   2.109  0.4191 -0.0742  0.5708
  274SOL    HW1  821   1.109   0.473   2.114 -2.2570 -0.7319 -0.8827
  274SOL    HW2  822   1.237   0.568   2.191  0.5509  0.3037 -0.7207
  275SOL     OW  823   0.653   2.154   1.961  0.5691  0.4835 -0.3308
  275SOL    HW1  824   0.579   2.079   1.955 -0.6762  0.2296 -0.0918
  275SOL    HW2  825   0.604   2.244   1.981 -0.2835 -2.4078  0.9726
  276SOL     OW  826   2.236   0.921   2.853 -0.7211 -0.0009 -0.3357
  276SOL    HW1  827   2.144   0.936   2.810  0.8862 -1.2681 -2.5652
  276SOL    HW2  828   2.253   0.820   2.872 -1.3990 -2.2071 -1.6398
  277SOL     OW  829   3.082   0.788   0.240 -0.0507  0.0888 -0.1718
  277SOL    HW1  830   3.181   0.811   0.213  0.6210 -0.2091 -1.3651
  277SOL    HW2  831   3.083   0.735   0.327  3.5523 -2.0705 -1.1732
  278SOL     OW  832   0.332   0.235   0.023 -0.1689  0.1019  0.0179
  278SOL    HW1  833   0.408   0.193  -0.033 -0.9328  0.1160  1.0171
  278SOL    HW2  834   0.323   0.336   0.006 -0.3653  1.2013 -0.0627
  279SOL     OW  835   0.244   2.989   0.946 -0.6718  0.0226 -0.1221
  279SOL    HW1  836   0.273   2.961   1.043  4.7686  1.8729  1.4313
  279SOL    HW2  837   0.260   2.917   0.875  1.7712  0.7377  1.2827
  280SOL     OW  838   1.588   2.893   2.442 -0.3842 -0.0354 -0.0955
  280SOL    HW1  839   1.621   2.971   2.501  0.5449  0.4728 -1.7680
  280SOL    HW2  840   1.527   2.926   2.362 -1.8730  3.6645 -2.3882
  281SOL     OW  841   0.618   0.935   2.328  0.3330 -0.3157 -0.4127
  281SOL    HW1  842   0.578   0.873   2.249 -0.8839  0.1643 -2.6900
  281SOL    HW2  843   0.600   0.909   2.427 -0.4690  3.1068 -0.7730
  282SOL     OW  844   1.731   2.456   0.546 -0.4357 -0.5578  0.3109
  282SOL    HW1  845   1.711   2.399   0.466 -2.0661  0.3641 -0.3415
  282SOL    HW2  846   1.668   2.540   0.544  1.1550  0.0276 -0.2491
  283SOL     OW  847   1.139   0.913   0.788 -0.6517 -0.0144 -0.0046
  283SOL    HW1  848   1.172   0.853   0.869  1.8612 -0.4247  0.4055
  283SOL    HW2  849   1.101   1.006   0.816  0.2511 -0.6684 -0.3505
  284SOL     OW  850   2.212   2.849   2.471 -0.5481  0.3410  0.0226
  284SOL    HW1  851   2.306   2.862   2.430 -0.9133  0.6713 -0.5306
  284SOL    HW2  852   2.218   2.812   2.568 -0.4832  1.3349  0.2985
  285SOL     OW  853   1.334   3.070   2.539 -0.2098  0.1262 -0.5229
  285SOL    HW1  854   1.358   3.043   2.442  2.9701  1.6571 -0.6698
  285SOL    HW2  855   1.252   3.127   2.543 -2.5419  2.3497 -2.2610
  286SOL     OW  856   0.229   0.320   0.664 -0.3729 -0.0717 -0.2005
  286SOL    HW1  857   0.245   0.224   0.715  0.0971 -2.4118  2.6058
  286SOL    HW2  858   0.290   0.339   0.586  2.2593  2.3762  0.3740
  287SOL     OW  859   0.104   1.278   2.542  0.1980  0.3667  0.3856
  287SOL    HW1  860   0.063   1.217   2.617 -1.4027  1.5366  1.8147
  287SOL    HW2  861   0.055   1.365   2.531 -1.6849  0.9725  0.8698
  288SOL     OW  862   1.521   2.712   1.653  0.2782  0.0497  0.3711
  288SOL    HW1  863   1.558   2.664   1.735  0.0536  0.6294 -2.9050
  288SOL    HW2  864   1.571   2.681   1.564  1.7576  1.0252 -1.0912
  289SOL     OW  865   0.584   2.734   0.786 -0.1555 -0.2937 -0.2870
  289SOL    HW1  866   0.643   2.796   0.730 -0.8754  1.0674 -0.7170
  289SOL    HW2  867   0.568   2.782   0.875 -1.1661 -1.3014 -2.2561
  290SOL     OW  868   2.817   1.079   1.655 -0.2454 -0.4040 -0.6504
  290SOL    HW1  869   2.724   1.041   1.684  0.1875  0.1860 -1.3132
  290SOL    HW2  870   2.886   1.075   1.728 -1.5119 -0.7165  1.2584
  291SOL     OW  871   1.919   0.011   0.041  0.1097 -0.2539 -0.9245
  291SOL    HW1  872   1.960   0.007   0.136 -3.7131  1.2817  1.2058
  291SOL    HW2  873   1.994   0.031  -0.032 -0.1062 -0.5718 -2.0207
  292SOL     OW  874   2.943   1.259   0.018 -0.4568 -0.7726 -0.6104
  292SOL    HW1  875   2.897   1.309  -0.058  0.4269 -0.8942 -0.3501
  292SOL    HW2  876   3.024   1.203  -0.018  1.6428  0.2997  4.1385
  293SOL     OW  877   0.543   2.045   0.221  0.3795 -0.1362 -0.3753
  293SOL    HW1  878   0.503   2.102   0.297  2.0162 -0.1672 -1.8076
  293SOL    HW2  879   0.647   2.030   0.232 -2.4787 -1.8090 -2.4818
  294SOL     OW  880   1.896   2.390   1.811  0.6176  0.2508 -0.5023
  294SOL    HW1  881   1.939   2.378   1.904 -0.2643 -0.6897 -0.3514
  294SOL    HW2  882   1.820   2.462   1.810 -0.8611  0.5533  0.1101
  295SOL     OW  883   0.935   1.044   0.441  0.3632 -0.5004  0.1596
  295SOL    HW1  884   1.031   1.080   0.466 -0.5254  0.2053 -1.4449
  295SOL    HW2  885   0.898   0.981   0.515 -1.5661  2.1899 -0.7312
  296SOL     OW  886   1.122   2.135   2.693 -0.7446  0.5915 -0.3909
  296SOL    HW1  887   1.044   2.195   2.655 -3.7952 -0.9148  0.6379
  296SOL    HW2  888   1.160   2.066   2.626 -0.0771 -2.1614  0.7464
  297SOL     OW  889   1.331   0.622   1.245 -0.1340  0.3980 -0.1781
  297SOL    HW1  890   1.348   0.542   1.310  0.0371 -0.5700 -0.5048
  297SOL    HW2  891   1.393   0.618   1.165  1.7084  1.7090  1.5609
  298SOL     OW  892   0.502   1.329   2.968  0.4960  0.0013  0.3884
  298SOL    HW1  893   0.510   1.279   3.055  0.0424  2.2849 -0.4647
  298SOL    HW2  894   0.559   1.280   2.892  1.2844 -2.4385 -0.3709
  299SOL     OW  895   0.433   0.189   1.212 -0.1098 -0.4409 -0.0542
  299SOL    HW1  896   0.389   0.260   1.150 -0.1781 -0.7054 -0.6235
  299SOL    HW2  897   0.413   0.210   1.306  0.8763 -0.0450 -0.9319
  300SOL     OW  898   1.227   1.744   2.604 -1.1133 -0.8260  0.0667
  300SOL    HW1  899   1.217   1.642   2.577 -1.6000  0.8607 -0.8537
  300SOL    HW2  900   1.326   1.760   2.635  0.1246  0.4229  1.3338
  301SOL     OW  901   0.318   0.294   0.376  0.0789 -0.1650  0.0158
  301SOL    HW1  902   0.220   0.260   0.382 -1.4285  0.5533 -1.8621
  301SOL    HW2  903   0.389   0.225   0.342  0.2466 -3.2292  0.4811
  302SOL     OW  904   1.256   2.401   2.317 -0.6420  0.0433  0.1908
  302SOL    HW1  905   1.161   2.395   2.355 -0.4944  0.8538  2.3061
  302SOL    HW2  906   1.321   2.331   2.361  0.3267 -0.6093  0.8513
  303SOL     OW  907   0.883   2.458   0.714 -0.1091  0.3556 -0.5609
  303SOL    HW1  908   0.935   2.442   0.625  1.4016  2.4727  2.2568
  303SOL    HW2  909   0.934   2.514   0.786  0.3058 -0.4344  1.3688
  304SOL     OW  910   0.109   1.919   0.697 -0.2191 -0.0736 -0.3883
  304SOL    HW1  911   0.201   1.901   0.646  0.1883 -0.3197  2.1135
  304SOL    HW2  912   0.026   1.942   0.640 -0.3872  0.9148  0.8865
  305SOL     OW  913   1.646   0.782   0.700 -0.4126  0.2695  0.2844
  305SOL    HW1  914   1.561   0.763   0.648 -0.3055  1.3251  1.8027
  305SOL    HW2  915   1.711   0.701   0.704 -0.7306  1.6295  0.6513
  306SOL     OW  916   0.440   1.942   1.969  0.4915  0.1522 -0.8311
  306SOL    HW1  917   0.490   1.862   1.934  2.3117  0.8566  2.1437
  306SOL    HW2  918   0.438   1.945   2.072 -0.3254  1.3103  1.9933
  307SOL     OW  919   3.032   0.897   2.583 -0.1250 -0.2233 -0.3800
  307SOL    HW1  920   3.033   0.989   2.633  2.2432  1.0814 -1.3227
  307SOL    HW2  921   3.047   0.816   2.645  0.9804 -1.4789  2.5760
  308SOL     OW  922   1.495   2.747   2.814 -0.0209 -0.3041 -0.0370
  308SOL    HW1  923   1.467   2.735   2.713  0.8651  1.2250 -1.5908
  308SOL    HW2  924   1.471   2.659   2.867 -2.5711  0.1467 -2.1152
  309SOL     OW  925   1.167   0.204   1.828  0.3372  0.1439  0.2704
  309SOL    HW1  926   1.262   0.160   1.817  2.1310 -1.3432  4.9139
  309SOL    HW2  927   1.103   0.187   1.749  1.0787 -0.2295 -0.9489
  310SOL     OW  928   1.412   2.588   0.658  0.2807  0.1384  0.1577
  310SOL    HW1  929   1.435   2.583   0.758  0.2020 -0.0902 -1.0591
  310SOL    HW2  930   1.488   2.629   0.602 -0.9345  1.6132 -0.8370
  311SOL     OW  931   1.100   0.912   1.697 -0.5117 -0.8527 -0.4040
  311SOL    HW1  932   1.089   0.837   1.765  0.1489 -1.5300 -0.6334
  311SOL    HW2  933   1.151   0.881   1.614 -1.1133 -0.0802 -0.5398
  312SOL     OW  934   1.487   0.618   0.990 -0.3944 -0.3597 -0.1802
  312SOL    HW1  935   1.534   0.709   0.989  1.8400 -3.4535  1.2910
  312SOL    HW2  936   1.430   0.599   0.907  0.7456  1.2854  1.9761
  313SOL     OW  937   1.653   1.320   0.703  0.3320 -0.5402  0.3219
  313SOL    HW1  938   1.577   1.382   0.742 -2.3048 -0.4680  1.6467
  313SOL    HW2  939   1.621   1.223   0.686 -2.7775 -0.9705 -1.3752
  314SOL     OW  940   2.979   0.013   3.076  0.2614  0.5825  0.1295
  314SOL    HW1  941   3.004  -0.015   3.173  0.9137 -0.6145 -3.0884
  314SOL    HW2  942   2.918  -0.056   3.034  0.0614 -1.4474 -0.5197
  315SOL     OW  943   1.108   0.219   2.750 -0.4495  0.0249 -0.2289
  315SOL    HW1  944   1.091   0.172   2.660  1.7042 -0.6103 -0.3490
  315SOL    HW2  945   1.049   0.191   2.829  1.5422 -0.2937  0.5818
  316SOL     OW  946   1.775   2.081   0.869 -0.0669  0.3307  0.1024
  316SOL    HW1  947   1.744   2.065   0.966  0.5215  0.9381  2.2119
  316SOL    HW2  948   1.768   2.185   0.849 -0.9002 -0.9995  0.0180
  317SOL     OW  949   1.179   0.682   2.738  0.4983  0.0016  0.2079
  317SOL    HW1  950   1.144   0.738   2.816 -0.1250  1.0429  0.5670
  317SOL    HW2  951   1.110   0.621   2.688 -1.1504 -0.7248 -0.4948
  318SOL     OW  952   1.444   3.028   2.255  0.6288 -0.0935 -0.3859
  318SOL    HW1  953   1.401   3.122   2.270  0.6491 -0.1980 -0.5550
  318SOL    HW2  954   1.424   2.998   2.158  0.7585  0.6779  2.6583
  319SOL     OW  955   0.651   2.357   3.065  0.1728 -0.1619  0.3930
  319SOL    HW1  956   0.573   2.288   3.062 -0.7163 -0.2150 -2.3553
  319SOL    HW2  957   0.748   2.325   3.041  0.6768 -1.0446  1.8072
  320SOL     OW  958   1.704   2.214   0.394 -0.3626 -0.3358  0.1786
  320SOL    HW1  959   1.781   2.147   0.380  1.2697  0.7400  1.7611
  320SOL    HW2  960   1.614   2.164   0.412  0.6940 -0.9623 -0.8126
  321SOL     OW  961   1.618   2.708   0.515  0.6174  0.4899  0.0503
  321SOL    HW1  962   1.545   2.761   0.468 -0.3902 -0.8440 -1.3795
  321SOL    HW2  963   1.713   2.740   0.492 -1.0986 -2.3019  1.5077
  322SOL     OW  964   2.552   1.032   2.367 -0.2101 -0.4955  0.3381
  322SOL    HW1  965   2.626   1.020   2.439  3.2679  1.8386  1.0211
  322SOL    HW2  966   2.488   0.948   2.352  1.9753  0.0010 -1.0045
  323SOL     OW  967   1.176   2.729   0.811 -0.0143  0.4958  0.5708
  323SOL    HW1  968   1.244   2.712   0.731  0.3653  0.7187  0.6489
  323SOL    HW2  969   1.161   2.831   0.831  4.7744 -0.7663 -1.9691
  324SOL     OW  970   0.078   2.522   2.391  0.5174  0.2537 -0.1940
  324SOL    HW1  971   0.055   2.441   2.453 -0.3934  0.8756  1.1830
  324SOL    HW2  972   0.043   2.612   2.427  1.3616 -2.0679  0.4994
  325SOL     OW  973   1.252   3.055   0.432  0.3328  0.5894 -0.0150
  325SOL    HW1  974   1.203   3.081   0.341 -0.2890 -1.0286  0.7282
  325SOL    HW2  975   1.266   3.141   0.496  1.5177  3.7041 -1.6227
  326SOL     OW  976   2.499   0.822   0.023  0.6165 -0.8693 -0.0499
  326SOL    HW1  977   2.421   0.778  -0.032 -0.5871 -2.4976 -0.6080
  326SOL    HW2  978   2.565   0.755   0.074 -0.7212  0.2445  1.7489
  327SOL     OW  979   2.864   0.185   0.576  0.1585 -0.0781  0.1336
  327SOL    HW1  980   2.864   0.153   0.476 -0.7709  1.1047  1.8065
  327SOL    HW2  981   2.848   0.110   0.646 -0.3456  0.6510 -2.0243
  328SOL     OW  982   2.662   0.583   0.433  0.0867 -0.4146  1.1037
  328SOL    HW1  983   2.733   0.625   0.495 -0.2126 -0.3756  0.1416
  328SOL    HW2  984   2.643   0.482   0.454 -0.8303 -1.3031 -1.8692
  329SOL     OW  985   2.944   3.064   2.204  0.0963  0.1447 -0.5225
  329SOL    HW1  986   3.011   2.984   2.214  1.2966 -0.8555 -0.6158
  329SOL    HW2  987   2.994   3.152   2.175  0.5251 -0.0829 -0.8835
  330SOL     OW  988   0.625   0.316   1.993  0.0134 -0.1738 -0.2705
  330SOL    HW1  989   0.694   0.300   1.918 -0.1169  0.4777  2.6354
  330SOL    HW2  990   0.612   0.239   2.059  0.0645  0.0061 -1.1018
  331SOL     OW  991   3.095   1.932   1.116 -0.3742 -0.1311 -0.0109
  331SOL    HW1  992   3.101   2.017   1.054 -1.1026 -1.1044 -1.8386
  331SOL    HW2  993   3.004   1.927   1.163 -1.4928  2.0037 -0.3960
  332SOL     OW  994   0.440   1.177   0.082 -0.3368  0.5058 -0.5072
  332SOL    HW1  995   0.362   1.126   0.028  0.6133 -1.5136 -1.0161
  332SOL    HW2  996   0.417   1.192   0.181 -1.1727  0.8689  0.6021
  333SOL     OW  997   2.902   0.949   0.371 -0.0178  0.4525  0.0146
  333SOL    HW1  998   2.954   1.012   0.424 -3.2588 -1.0413 -3.6309
  333SOL    HW2  999   2.960   0.885   0.312 -0.5866  0.7334 -0.9207
  334SOL     OW 1000   1.698   1.182   1.711  0.3687  0.0086 -0.2538
  334SOL    HW1 1001   1.744   1.209   1.619 -3.6256  2.3542  0.5904
  334SOL    HW2 1002   1.756   1.200   1.797 -2.4728  0.5494  1.7183
  335SOL     OW 1003   1.933   2.763   2.605 -0.4887  0.2452 -0.0589
  335SOL    HW1 1004   1.864   2.764   2.685 -0.0439  0.9953  2.8970
  335SOL    HW2 1005   2.006   2.831   2.622 -2.5472  0.3260 -1.1879
  336SOL     OW 1006   0.288   0.091   2.772  0.8794  0.2048  0.1503
  336SOL    HW1 1007   0.368   0.113   2.831 -0.8196 -1.5616  0.7701
  336SOL    HW2 1008   0.216   0.023   2.815  2.1238  0.3178 -2.0016
  337SOL     OW 1009   0.786   2.798   3.047 -0.0459  0.1459  0.5612
  337SOL    HW1 1010   0.850   2.718   3.066  3.6485 -0.0847 -2.5344
  337SOL    HW2 1011   0.728   2.830   3.121  2.4440  1.6395 -3.2223
  338SOL     OW 1012   0.069   0.929   0.714  0.0752 -0.6345 -0.3529
  338SOL    HW1 1013  -0.034   0.916   0.730 -1.3373  0.8751 -0.2987
  338SOL    HW2 1014   0.095   1.032   0.730  0.0024  1.4652  2.4592
  339SOL     OW 1015   1.758   1.361   2.137  0.1695 -0.2194 -0.1780
  339SOL    HW1 1016   1.657   1.375   2.133 -0.8753 -2.4655 -0.1800
  339SOL    HW2 1017   1.806   1.436   2.184 -0.5681  1.3298 -0.5925
  340SOL     OW 1018   2.319   0.786   1.190 -0.0072 -0.4340  0.3854
  340SOL    HW1 1019   2.232   0.841   1.161 -0.8821  1.9561  1.4359
  340SOL    HW2 1020   2.310   0.689   1.168  0.9396 -0.7499  2.1639
  341SOL     OW 1021   1.930   2.070   0.305  0.2131  0.0389  0.3889
  341SOL    HW1 1022   1.986   2.129   0.243  1.2767 -0.9405 -1.8913
  341SOL    HW2 1023   1.985   2.026   0.381  1.3714 -3.8194 -1.6698
  342SOL     OW 1024   2.106   2.145   2.767 -0.6454  0.2987 -0.0564
  342SOL    HW1 1025   2.169   2.064   2.789  0.0408 -0.8329  1.1444
  342SOL    HW2 1026   2.010   2.112   2.735 -0.5785  1.1290 -1.2611
  343SOL     OW 1027   0.366   0.839   2.890 -0.1325 -0.0232  0.2059
  343SOL    HW1 1028   0.357   0.888   2.799  0.4414  0.4614 -1.0720
  343SOL    HW2 1029   0.469   0.826   2.914  4.5786  4.0438  0.0353
  344SOL     OW 1030   1.914   1.406   0.397 -0.3179  0.2203  0.4030
  344SOL    HW1 1031   1.926   1.327   0.326  0.3966  0.3172  1.5244
  344SOL    HW2 1032   1.821   1.417   0.439 -0.8815  1.8855 -0.0585
  345SOL     OW 1033   1.371   2.200   2.813 -0.0982  0.5613 -0.2632
  345SOL    HW1 1034   1.281   2.200   2.765  1.6725 -0.4389 -2.9881
  345SOL    HW2 1035   1.418   2.110   2.782 -1.3485 -2.1381 -0.1912
  346SOL     OW 1036   2.277   0.821   1.455  0.0726  0.0880  0.9795
  346SOL    HW1 1037   2.181   0.848   1.491 -2.6816  2.1868 -0.4076
  346SOL    HW2 1038   2.290   0.822   1.351 -0.0700 -1.1951 -0.9015
  347SOL     OW 1039   0.721   2.801   1.728 -0.0691  0.0259  0.6598
  347SOL    HW1 1040   0.814   2.843   1.709  4.0959 -1.8306 -1.6438
  347SOL    HW2 1041   0.645   2.833   1.672  0.1504 -0.8316  1.0673
  348SOL     OW 1042   0.183   0.616   2.857 -0.1813 -0.2333  0.4488
  348SOL    HW1 1043   0.089   0.633   2.819 -0.8108 -0.2807  2.0378
  348SOL    HW2 1044   0.234   0.704   2.881  2.7403  0.0395 -3.3205
  349SOL     OW 1045   1.826   0.447   2.819  0.6797  0.5953  0.0262
  349SOL    HW1 1046   1.780   0.528   2.764  0.9636  0.5341 -0.9785
  349SOL    HW2 1047   1.806   0.443   2.923  0.8309  0.5244  0.8375
  350SOL     OW 1048   1.761   0.357   0.422  0.4250  0.3044  0.3290
  350SOL    HW1 1049   1.842   0.309   0.468 -3.8149 -4.2896 -1.6544
  350SOL    HW2 1050   1.783   0.449   0.397 -2.8809 -1.4673 -0.2059
  351SOL     OW 1051   0.927   0.805   2.045  0.4284 -0.1633 -0.3207
  351SOL    HW1 1052   0.951   0.906   2.065  1.5849  2.7907 -0.8805
  351SOL    HW2 1053   0.986   0.770   1.965  0.5528  0.1210  1.9847
  352SOL     OW 1054   2.082   1.478   0.610 -0.0776  0.5521  0.6969
  352SOL    HW1 1055   2.021   1.443   0.536 -0.3920 -1.4235  0.7501
  352SOL    HW2 1056   2.023   1.489   0.695 -1.8815  1.7482 -1.0205
  353SOL     OW 1057   2.172   2.739   1.144 -0.0571  0.7109 -0.7525
  353SOL    HW1 1058   2.233   2.679   1.203  0.3734  2.6475  0.8100
  353SOL    HW2 1059   2.081   2.756   1.192  1.4838 -0.1439  3.0116
  354SOL     OW 1060   0.237   1.403   2.882  0.3013 -0.1448  0.0953
  354SOL    HW1 1061   0.237   1.460   2.793 -0.8196 -1.4208 -1.0378
  354SOL    HW2 1062   0.335   1.388   2.910 -1.2692 -1.1799 -0.6351
  355SOL     OW 1063   0.739   1.572   0.545 -0.1522 -0.7619  0.7656
  355SOL    HW1 1064   0.754   1.536   0.641  0.6255 -0.7770 -2.4469
  355SOL    HW2 1065   0.702   1.495   0.486  0.9180  0.9069 -0.1620
  356SOL     OW 1066   0.973   0.341   2.083 -0.6369 -0.5711  0.0669
  356SOL    HW1 1067   1.045   0.270   2.101 -1.6809  0.4335  0.0559
  356SOL    HW2 1068   0.913   0.321   2.002 -0.8500 -2.4353  2.2608
  357SOL     OW 1069   1.017   1.533   0.128 -0.1015 -0.2854 -0.9889
  357SOL    HW1 1070   1.055   1.452   0.074  2.1994  1.9404  1.8557
  357SOL    HW2 1071   1.097   1.594   0.147 -1.4952 -0.4128  0.8669
  358SOL     OW 1072   1.664   1.484   0.496  0.0821  0.3107 -0.1140
  358SOL    HW1 1073   1.651   1.410   0.570 -2.0822  0.8293 -0.3752
  358SOL    HW2 1074   1.599   1.464   0.417  0.3965  0.7709 -0.8000
  359SOL     OW 1075   1.656   2.607   0.187  0.7595  0.2562 -0.1302
  359SOL    HW1 1076   1.658   2.504   0.187  1.3215  0.7439 -2.4220
  359SOL    HW2 1077   1.569   2.647   0.154  0.8557  1.9110  1.0188
  360SOL     OW 1078   0.708   0.486   0.565  0.3843 -1.2173 -0.0857
  360SOL    HW1 1079   0.621   0.487   0.515  0.9857 -2.3175 -1.1024
  360SOL    HW2 1080   0.750   0.398   0.559 -1.0963  1.1887 -1.2176
  361SOL     OW 1081   1.339   1.328   0.565 -0.4304  0.0620  0.0594
  361SOL    HW1 1082   1.402   1.367   0.643  0.1714  0.9761  0.9094
  361SOL    HW2 1083   1.236   1.347   0.587 -0.0184 -1.0478 -1.8902
  362SOL     OW 1084   1.390   1.861   0.733 -0.2160 -0.1285 -0.0145
  362SOL    HW1 1085   1.436   1.788   0.789  0.1971 -0.6520 -1.0382
  362SOL    HW2 1086   1.464   1.918   0.689  2.1898 -1.2274  2.8205
  363SOL     OW 1087   1.283   1.303   1.960  0.5447 -0.4356  0.4579
  363SOL    HW1 1088   1.352   1.338   2.030  1.5444 -2.0699  1.4219
  363SOL    HW2 1089   1.254   1.375   1.896  2.2471  0.1110  1.4017
  364SOL     OW 1090   0.537   2.396   2.024 -0.5664  0.2098  0.3936
  364SOL    HW1 1091   0.436   2.419   2.006  1.3321 -0.5571 -0.4703
  364SOL    HW2 1092   0.601   2.477   2.023  0.5945 -1.5837 -2.8187
  365SOL     OW 1093   0.917   1.991   1.384 -0.1609  0.8387 -0.4105
  365SOL    HW1 1094   0.820   1.993   1.424 -0.8147 -0.2481 -1.6940
  365SOL    HW2 1095   0.928   2.014   1.284 -0.2757  0.4078 -1.0843
  366SOL     OW 1096   2.703   1.853   0.235  0.2858  0.5784 -0.4153
  366SOL    HW1 1097   2.624   1.805   0.194  2.0337  0.4779 -1.2778
  366SOL    HW2 1098   2.771   1.783   0.273  0.9818  0.7145 -1.0278
  367SOL     OW 1099   0.954   1.126   3.072  0.2161  0.4313  0.5420
  367SOL    HW1 1100   0.984   1.061   3.145  0.8805  1.0628  0.9851
  367SOL    HW2 1101   1.000   1.221   3.078 -4.0371  4.3429 -0.4327
  368SOL     OW 1102   1.478   0.461   0.525  0.0887  0.1186  0.5202
  368SOL    HW1 1103   1.410   0.404   0.461  0.3063 -1.0420  1.8035
  368SOL    HW2 1104   1.520   0.549   0.486  0.7495 -2.1859  1.5723
  369SOL     OW 1105   0.296   1.644   0.136  0.0512  0.7128 -0.0113
  369SOL    HW1 1106   0.358   1.697   0.201 -1.8684 -0.5770 -3.3328
  369SOL    HW2 1107   0.240   1.568   0.178 -2.3177  1.6811  0.5506
  370SOL     OW 1108   0.478   2.118   1.016 -0.1088 -0.0027 -0.0430
  370SOL    HW1 1109   0.500   2.218   1.004 -1.0798 -0.6001 -1.0025
  370SOL    HW2 1110   0.383   2.093   0.983  2.4522 -0.1708 -0.6028
  371SOL     OW 1111   2.933   2.176   2.684 -0.4501  0.1586  0.2286
  371SOL    HW1 1112   3.024   2.123   2.676  2.2511 -1.7350 -2.3641
  371SOL    HW2 1113   2.927   2.241   2.763  1.1859 -2.3883  2.1640
  372SOL     OW 1114   0.975   2.135   1.117  0.5123 -0.3520 -0.1155
  372SOL    HW1 1115   0.929   2.214   1.072 -1.0476  0.6468  1.8475
  372SOL    HW2 1116   1.062   2.161   1.170 -0.7784 -1.0524 -0.9355
  373SOL     OW 1117   1.920   1.857   0.964 -0.6523 -0.7088 -0.3807
  373SOL    HW1 1118   1.994   1.917   0.998  0.5363  1.5359 -3.3965
  373SOL    HW2 1119   1.883   1.896   0.875 -0.2641 -0.4256  0.8171
  374SOL     OW 1120   1.967   0.275   0.560  0.4222 -0.0447 -0.0538
  374SOL    HW1 1121   1.922   0.245   0.652 -1.0010 -2.0158  0.1996
  374SOL    HW2 1122   2.067   0.302   0.563 -2.0476  0.9310 -1.1924
  375SOL     OW 1123   2.392   2.083   1.075  0.0168 -0.9001  0.2868
  375SOL    HW1 1124   2.421   2.056   0.977  0.8224 -0.0594  0.3713
  375SOL    HW2 1125   2.477   2.099   1.136 -1.4039  1.6314 -1.8912
  376SOL     OW 1126   0.016   0.575   1.469  0.5460 -0.6123 -0.1947
  376SOL    HW1 1127   0.030   0.625   1.558 -1.7973  1.2538  0.3758
  376SOL    HW2 1128  -0.059   0.506   1.488 -1.2736  0.9508  2.5928
  377SOL     OW 1129   2.307   2.944   0.170  0.3155  0.0358  0.2018
  377SOL    HW1 1130   2.303   3.035   0.217  1.8280  0.5277  1.6417
  377SOL    HW2 1131   2.330   2.865   0.234 -1.6526 -2.2269 -2.3118
  378SOL     OW 1132   1.908   1.876   2.468 -0.0510 -0.3084 -0.2634
  378SOL    HW1 1133   1.996   1.849   2.420 -0.1522 -1.0980  0.1883
  378SOL    HW2 1134   1.834   1.805   2.464 -0.8790 -0.6332 -0.7520
  379SOL     OW 1135   0.786   0.155   2.777 -0.5960 -0.0623 -0.1322
  379SOL    HW1 1136   0.821   0.051   2.770  2.7311 -2.3267 -0.5410
  379SOL    HW2 1137   0.806   0.209   2.686 -0.2148 -0.2718  0.1026
  380SOL     OW 1138   1.509   1.101   0.573 -0.3778  0.1976 -0.0397
  380SOL    HW1 1139   1.445   1.175   0.542 -1.7538 -0.6607  0.4277
  380SOL    HW2 1140   1.476   0.999   0.570  1.5138 -0.5959 -0.2555
  381SOL     OW 1141   1.273   1.304   1.422  0.0706  0.2894 -0.2949
  381SOL    HW1 1142   1.303   1.203   1.433  2.7320  2.7036 -1.1047
  381SOL    HW2 1143   1.334   1.375   1.465 -1.9936  0.5622  1.3633
  382SOL     OW 1144   1.808   0.846   0.269 -0.1419  0.2946  0.0847
  382SOL    HW1 1145   1.787   0.816   0.168  1.3212 -1.8156 -0.0058
  382SOL    HW2 1146   1.903   0.822   0.301 -1.8575 -2.3332  0.9993
  383SOL     OW 1147   2.533   0.962   1.490  0.1469 -0.2332 -0.0991
  383SOL    HW1 1148   2.443   0.911   1.477 -0.2765  1.7495  0.8268
  383SOL    HW2 1149   2.587   0.967   1.405 -0.0491 -0.0461  2.4741
  384SOL     OW 1150   0.954   2.247   0.203 -0.1629 -0.4353  0.4147
  384SOL    HW1 1151   0.880   2.323   0.207  0.0990 -0.7352 -0.9187
  384SOL    HW2 1152   1.002   2.220   0.288 -0.3979  0.1678  1.1512
  385SOL     OW 1153   2.885   2.018   1.619 -0.3880 -0.1076 -0.4328
  385SOL    HW1 1154   2.949   2.064   1.684 -1.8787  1.0954 -1.1620
  385SOL    HW2 1155   2.856   1.920   1.647  0.3494  1.0514 -1.6932
  386SOL     OW 1156   0.506   1.042   0.417 -0.5078 -0.1621 -0.8909
  386SOL    HW1 1157   0.489   0.939   0.424  0.2039  2.0816 -0.6962
  386SOL    HW2 1158   0.427   1.104   0.405  0.1020 -0.7126 -4.4599
  387SOL     OW 1159   0.939   0.286   1.665  0.2251  0.5382  0.0023
  387SOL    HW1 1160   1.001   0.369   1.661 -1.2687  0.4212 -1.4555
  387SOL    HW2 1161   0.898   0.274   1.572 -1.2228 -1.4676  0.2585
  388SOL     OW 1162   1.270   2.725   1.818  0.4421 -0.2119  0.5067
  388SOL    HW1 1163   1.336   2.732   1.739  1.6971  2.2638  0.8429
  388SOL    HW2 1164   1.293   2.638   1.869  1.7378 -0.5444 -1.1935
  389SOL     OW 1165   0.111   2.891   1.369 -0.1748 -0.0782  0.0264
  389SOL    HW1 1166   0.033   2.924   1.315 -0.1429  0.0749  1.3150
  389SOL    HW2 1167   0.171   2.822   1.324 -1.1005  0.2742  0.8246
  390SOL     OW 1168   1.033   0.921   1.330  0.0298 -0.5950 -0.6157
  390SOL    HW1 1169   1.114   0.886   1.386  1.7920  1.9968 -0.3614
  390SOL    HW2 1170   0.966   0.984   1.375 -0.6132 -0.1667  1.5450
  391SOL     OW 1171   2.175   1.112   1.098  0.7266  0.1412 -0.0346
  391SOL    HW1 1172   2.114   1.030   1.112 -0.1895  1.2185 -2.6686
  391SOL    HW2 1173   2.229   1.105   1.010 -1.8604 -1.7049 -1.6525
  392SOL     OW 1174   0.944   2.574   0.026  0.6261  0.0980 -0.2757
  392SOL    HW1 1175   1.039   2.534   0.021 -2.2761 -0.7103  0.2970
  392SOL    HW2 1176   0.884   2.521   0.095 -0.9810  1.1319 -0.2272
  393SOL     OW 1177   0.323   0.675   1.992 -0.3984 -0.4712  0.7384
  393SOL    HW1 1178   0.299   0.573   1.988 -1.6512  0.4249 -0.3716
  393SOL    HW2 1179   0.342   0.712   1.901  0.1474  0.1288  2.8108
  394SOL     OW 1180   0.010   1.943   2.660  0.2309  0.2886 -0.5666
  394SOL    HW1 1181   0.076   1.891   2.717  0.6803 -1.9575 -2.3761
  394SOL    HW2 1182  -0.085   1.904   2.646 -0.0810  2.2720 -0.0955
  395SOL     OW 1183   1.623   1.961   0.619 -0.1725 -0.3329 -0.3395
  395SOL    HW1 1184   1.674   1.889   0.568  0.3720  3.9521  0.6326
  395SOL    HW2 1185   1.685   2.009   0.687  0.8392  0.5166 -0.9115
  396SOL     OW 1186   2.914   1.923   1.356  0.0181  0.1642  0.5616
  396SOL    HW1 1187   2.909   1.821   1.365  2.4352  2.0581 -0.5922
  396SOL    HW2 1188   2.927   1.970   1.446  1.4822 -1.6811  2.3787
  397SOL     OW 1189   1.053   2.215   0.493 -0.3787 -0.4320 -0.0039
  397SOL    HW1 1190   0.957   2.195   0.527 -0.5245 -1.3344  0.1556
  397SOL    HW2 1191   1.069   2.316   0.475  0.1509 -1.8047 -1.7048
  398SOL     OW 1192   2.159   3.090   1.170 -0.4915  0.6994 -0.2569
  398SOL    HW1 1193   2.077   3.033   1.188  2.2245 -0.0955  1.3709
  398SOL    HW2 1194   2.128   3.179   1.125 -0.2997 -1.0717 -1.3057
  399SOL     OW 1195   3.093   2.407   2.603  0.7624  0.1093 -0.1403
  399SOL    HW1 1196   2.995   2.383   2.633  0.4178  1.2916 -2.1619
  399SOL    HW2 1197   3.156   2.336   2.641  0.0783 -0.1027 -1.3411
  400SOL     OW 1198   0.707   1.716   1.378  0.9720 -0.6595  0.1817
  400SOL    HW1 1199   0.660   1.753   1.460  1.7069 -1.9970 -1.0878
  400SOL    HW2 1200   0.707   1.776   1.297  0.0538 -0.4581  2.1574
  401SOL     OW 1201   1.861   0.333   1.146  0.2057  0.3551  0.3013
  401SOL    HW1 1202   1.839   0.344   1.248 -3.3205  0.5489 -0.3906
  401SOL    HW2 1203   1.774   0.335   1.088 -2.2415  1.1781 -1.6888
  402SOL     OW 1204   1.350   0.265   3.071  0.4609  0.2919  0.1014
  402SOL    HW1 1205   1.409   0.212   3.001 -0.1215  1.7910  1.3198
  402SOL    HW2 1206   1.289   0.336   3.024  1.3482 -0.7142  0.6762
  403SOL     OW 1207   2.209   1.896   0.832  0.4347  0.3782  0.0865
  403SOL    HW1 1208   2.301   1.950   0.829  3.2616 -0.1520  0.2425
  403SOL    HW2 1209   2.158   1.908   0.925 -1.5351 -0.4799  0.0154
  404SOL     OW 1210   0.308   2.523   2.762 -0.0613  0.0185 -0.6550
  404SOL    HW1 1211   0.363   2.491   2.682 -1.1325 -0.7807  0.5220
  404SOL    HW2 1212   0.258   2.610   2.746 -0.1806 -0.2169 -2.1304
  405SOL     OW 1213   0.160   2.407   0.653  0.4739 -0.1505 -0.3709
  405SOL    HW1 1214   0.138   2.322   0.591  1.6595  1.2948  1.1384
  405SOL    HW2 1215   0.244   2.470   0.623  1.6622  0.0187 -1.5995
  406SOL     OW 1216   0.070   1.557   3.045  0.0442  0.0128 -0.0714
  406SOL    HW1 1217   0.125   1.508   2.970 -2.5037  1.8885  0.5449
  406SOL    HW2 1218   0.100   1.535   3.144  1.9355 -2.1439 -0.9763
  407SOL     OW 1219   1.617   0.866   0.950  0.3002  0.2885 -0.0947
  407SOL    HW1 1220   1.618   0.837   0.848  0.3600 -0.7148 -1.0452
  407SOL    HW2 1221   1.563   0.952   0.968 -0.5321  2.5514  0.7163
  408SOL     OW 1222   1.607   2.436   0.976  0.3596  0.5978 -0.3916
  408SOL    HW1 1223   1.675   2.440   0.899  1.1794  0.2693  2.9562
  408SOL    HW2 1224   1.532   2.503   0.976  0.2136  1.1521  0.5825
  409SOL     OW 1225   0.595   0.806   0.679 -0.2414  0.0773  0.2828
  409SOL    HW1 1226   0.559   0.760   0.594 -0.5238  0.4098  0.7845
  409SOL    HW2 1227   0.617   0.739   0.752  0.5718 -1.4418 -2.3311
  410SOL     OW 1228   1.197   2.055   1.422  0.4538  0.4375  0.1390
  410SOL    HW1 1229   1.263   1.991   1.474  0.1894 -2.6603  0.0701
  410SOL    HW2 1230   1.102   2.028   1.435  1.4641  1.8043 -0.1319
  411SOL     OW 1231   2.553   1.812   2.968 -0.1407 -0.5680 -0.9191
  411SOL    HW1 1232   2.559   1.912   2.931  1.8215  1.1149 -0.0403
  411SOL    HW2 1233   2.506   1.741   2.909  2.4288 -0.5201 -2.0435
  412SOL     OW 1234   1.497   2.450   2.168  0.2083  0.3068  0.0166
  412SOL    HW1 1235   1.566   2.446   2.243  0.3736 -1.0571 -2.1121
  412SOL    HW2 1236   1.400   2.433   2.203  1.8672 -0.0854  2.4272
  413SOL     OW 1237   0.037   0.287   3.018 -0.4095  0.4683 -0.0388
  413SOL    HW1 1238  -0.023   0.204   3.032 -1.9335 -1.9917 -2.3969
  413SOL    HW2 1239   0.136   0.260   2.993  0.5826  0.7979 -1.8691
  414SOL     OW 1240   1.737   1.521   1.104  0.1533  0.4188 -0.2681
  414SOL    HW1 1241   1.715   1.612   1.147  0.2775 -1.2923  0.1837
  414SOL    HW2 1242   1.754   1.528   1.007 -0.0380 -0.1635  1.1175
  415SOL     OW 1243   0.371   2.186   0.650 -0.6065  0.3483 -0.1085
  415SOL    HW1 1244   0.385   2.232   0.742  2.2826  0.4603 -3.1653
  415SOL    HW2 1245   0.271   2.187   0.611  0.8271  0.3301  0.1241
  416SOL     OW 1246   0.357   1.091   1.060 -0.0706 -0.2405 -0.2001
  416SOL    HW1 1247   0.345   1.000   1.010 -0.7255  1.2254  1.0557
  416SOL    HW2 1248   0.447   1.139   1.035 -1.9003  0.0044 -1.8887
  417SOL     OW 1249   2.319   2.433   2.139 -0.6059 -0.1200  0.4906
  417SOL    HW1 1250   2.330   2.327   2.157 -0.6976 -2.0236  2.1141
  417SOL    HW2 1251   2.273   2.485   2.221 -1.2325  1.0430  1.8301
  418SOL     OW 1252   1.045   0.519   1.337  0.2826 -0.4559  0.1006
  418SOL    HW1 1253   0.962   0.477   1.283  0.2092  2.5165 -2.7251
  418SOL    HW2 1254   1.132   0.534   1.283 -0.2627 -2.1131 -0.0786
  419SOL     OW 1255   0.891   0.563   2.971  0.2493 -0.1861  0.3820
  419SOL    HW1 1256   0.793   0.582   2.954 -0.1563  0.6340 -1.7293
  419SOL    HW2 1257   0.956   0.644   2.980  0.4004 -3.2203 -0.7439
  420SOL     OW 1258   0.090   2.188   0.514 -0.3121 -0.1291 -0.2438
  420SOL    HW1 1259   0.124   2.186   0.410  2.8465 -1.1526 -0.0413
  420SOL    HW2 1260   0.026   2.105   0.536  0.5329  0.0501 -0.7077
  421SOL     OW 1261   0.349   2.972   0.552  0.6007 -0.1735  0.3489
  421SOL    HW1 1262   0.318   2.908   0.624  0.7442  1.5652 -0.0843
  421SOL    HW2 1263   0.430   3.032   0.583  0.6349 -0.1651 -0.6216
  422SOL     OW 1264   1.013   2.559   0.952 -0.0310 -0.4347  0.2356
  422SOL    HW1 1265   1.079   2.617   0.892  3.1782 -0.5530  1.5447
  422SOL    HW2 1266   1.064   2.515   1.035 -1.0718 -0.4273  1.1499
  423SOL     OW 1267   0.153   0.664   1.241  0.5277 -0.6864 -0.6539
  423SOL    HW1 1268   0.100   0.613   1.316  1.6097 -0.0501  2.6581
  423SOL    HW2 1269   0.107   0.752   1.205  1.0925 -1.3971  1.8392
  424SOL     OW 1270   1.133   2.181   2.055 -0.1851 -0.1659  0.3883
  424SOL    HW1 1271   1.123   2.278   2.023  0.9576  0.0501  0.4948
  424SOL    HW2 1272   1.069   2.151   2.132  0.8719 -4.2633  0.4337
  425SOL     OW 1273   1.964   1.257   1.001  0.9441 -0.1672 -0.3125
  425SOL    HW1 1274   2.037   1.200   1.045 -3.0024 -0.2198 -0.0143
  425SOL    HW2 1275   1.978   1.359   0.993  2.8366 -2.0690 -0.2664
  426SOL     OW 1276   1.471   1.647   1.244  0.3311  0.4500  0.1933
  426SOL    HW1 1277   1.458   1.739   1.199  0.0072 -3.8725 -3.1018
  426SOL    HW2 1278   1.391   1.628   1.308  0.0153 -0.2814 -1.6199
  427SOL     OW 1279   1.954   2.434   2.092  0.5419 -0.0130  0.2666
  427SOL    HW1 1280   2.018   2.393   2.156 -0.5007  0.3817  0.0964
  427SOL    HW2 1281   1.932   2.536   2.101  0.0685  2.6073 -0.0406
  428SOL     OW 1282   0.874   0.014   0.030  0.2223 -0.6461  0.0390
  428SOL    HW1 1283   0.880   0.100  -0.032  0.2613 -0.8098 -1.0982
  428SOL    HW2 1284   0.959  -0.012   0.081 -2.6255 -1.7608 -0.0119
  429SOL     OW 1285   1.292   0.183   0.232  0.1019  0.3931 -0.2023
  429SOL    HW1 1286   1.383   0.161   0.277  1.6593 -0.4880 -1.4825
  429SOL    HW2 1287   1.306   0.223   0.141  2.5465 -0.9817  2.5694
  430SOL     OW 1288   2.931   1.438   0.292  0.5897  0.5750  0.1247
  430SOL    HW1 1289   2.902   1.489   0.207  0.8720  0.8997  1.0830
  430SOL    HW2 1290   2.870   1.419   0.367  1.5446 -0.9066  3.8376
  431SOL     OW 1291   2.076   1.549   0.898  0.1360 -0.3468 -0.1006
  431SOL    HW1 1292   2.162   1.592   0.934  1.5987  0.4061 -0.5522
  431SOL    HW2 1293   1.994   1.611   0.908  1.2715  0.6188  1.6756
  432SOL     OW 1294   2.941   2.170   1.199  0.0602  0.0031 -0.1692
  432SOL    HW1 1295   2.927   2.075   1.236  1.8968  3.0534  0.6384
  432SOL    HW2 1296   2.952   2.235   1.280 -2.4050  1.9330 -1.1477
  433SOL     OW 1297   1.868   0.247   0.828  0.0154 -0.3882  0.2017
  433SOL    HW1 1298   1.786   0.296   0.860  2.8392 -0.0676 -0.1586
  433SOL    HW2 1299   1.936   0.238   0.904 -0.6586  1.7901  4.6849
  434SOL     OW 1300   1.569   0.272   0.717 -0.1548 -0.3300  0.1367
  434SOL    HW1 1301   1.579   0.354   0.653 -0.5544 -1.0633  2.9535
  434SOL    HW2 1302   1.584   0.305   0.815 -0.0668  3.5644  0.0913
  435SOL     OW 1303   1.487   1.461   2.105  0.3673  0.9339  0.0973
  435SOL    HW1 1304   1.494   1.506   2.194 -1.2057 -0.3126 -1.9085
  435SOL    HW2 1305   1.513   1.522   2.024 -0.4925 -0.3911  1.4573
  436SOL     OW 1306   1.718   2.723   2.269  0.2123 -0.2502  0.2228
  436SOL    HW1 1307   1.686   2.794   2.339 -1.0785  0.6830  2.3651
  436SOL    HW2 1308   1.701   2.626   2.302 -1.3153  1.0959 -2.5544
  437SOL     OW 1309   1.139   2.965   0.894  0.1970  0.3501 -0.0253
  437SOL    HW1 1310   1.094   3.057   0.896  1.3340 -0.3054  2.2903
  437SOL    HW2 1311   1.153   2.933   0.993 -0.4158 -0.7014  0.3730
  438SOL     OW 1312   1.012   2.694   1.526  0.3648  0.1487  0.2287
  438SOL    HW1 1313   1.103   2.734   1.488  0.4237  1.3393 -0.3687
  438SOL    HW2 1314   0.976   2.607   1.472  0.4388  1.6325 -1.7985
  439SOL     OW 1315   0.708   1.875   1.118 -0.4232 -0.0732 -0.2292
  439SOL    HW1 1316   0.748   1.933   1.044  0.3589  3.0057  2.7588
  439SOL    HW2 1317   0.605   1.884   1.123  1.1279  2.2564  0.7503
  440SOL     OW 1318   1.026   2.455   1.976 -0.5450 -0.3366 -0.1973
  440SOL    HW1 1319   0.988   2.506   1.892 -0.1199  0.8332  1.7632
  440SOL    HW2 1320   1.119   2.490   2.013  2.1068 -0.8307 -1.8502
  441SOL     OW 1321   0.404   2.710   1.522  0.3485 -0.0679 -0.4051
  441SOL    HW1 1322   0.460   2.624   1.521  1.7357 -0.9474 -0.2286
  441SOL    HW2 1323   0.327   2.710   1.457 -0.3492 -3.5012  1.4623
  442SOL     OW 1324   2.256   0.692   2.528 -0.4873  0.3362  0.1955
  442SOL    HW1 1325   2.261   0.589   2.530  3.6465  1.3829 -0.6358
  442SOL    HW2 1326   2.156   0.725   2.546  0.1436  0.4188  0.7760
  443SOL     OW 1327   1.210   2.670   2.219 -0.1414  0.0258  0.6074
  443SOL    HW1 1328   1.197   2.724   2.308 -0.1467  1.6330  1.1892
  443SOL    HW2 1329   1.215   2.570   2.239  1.0191 -1.1809  0.4834
  444SOL     OW 1330   1.026   1.318   1.549 -0.3570 -0.0250 -0.0035
  444SOL    HW1 1331   1.117   1.308   1.499  1.6975  2.1305  2.5639
  444SOL    HW2 1332   0.977   1.402   1.511 -1.8196 -2.2341 -0.6828
  445SOL     OW 1333   3.090   2.377   1.928 -0.0687 -0.3702 -0.7088
  445SOL    HW1 1334   3.094   2.459   1.862  0.3919  1.7735  0.1353
  445SOL    HW2 1335   2.999   2.365   1.973 -0.5051  1.7271  1.5236
  446SOL     OW 1336   0.184   1.901   2.408 -0.4014  0.5332  0.5637
  446SOL    HW1 1337   0.167   1.997   2.444 -0.7526  3.5435 -3.0552
  446SOL    HW2 1338   0.132   1.890   2.318 -1.3190 -1.4394 -1.6018
  447SOL     OW 1339   1.228   1.611   1.944 -0.1188 -0.3618 -0.0997
  447SOL    HW1 1340   1.161   1.690   1.921 -1.1715 -0.9965 -1.0735
  447SOL    HW2 1341   1.318   1.652   1.969 -1.8957 -0.0227  2.0807
  448SOL     OW 1342   0.134   1.566   1.922  0.6480  0.3230  0.2794
  448SOL    HW1 1343   0.143   1.666   1.897 -0.7801 -1.8599  1.7146
  448SOL    HW2 1344   0.178   1.554   2.010  5.1771  0.6872 -2.9763
  449SOL     OW 1345   2.008   2.914   0.910 -0.5089 -0.7684  0.1737
  449SOL    HW1 1346   2.070   2.926   0.996  0.2255 -2.0798 -1.0110
  449SOL    HW2 1347   1.968   2.818   0.900  0.5691 -1.2868 -2.1965
  450SOL     OW 1348   2.266   1.324   0.936  0.3554  0.3541  0.3033
  450SOL    HW1 1349   2.279   1.229   0.893 -1.0026  0.2646 -1.9801
  450SOL    HW2 1350   2.186   1.384   0.910 -0.7819 -4.0933  2.6955
  451SOL     OW 1351   1.429   0.015   1.436 -0.4186 -0.1730 -0.4348
  451SOL    HW1 1352   1.350   0.074   1.470 -0.2060 -0.4948 -1.4524
  451SOL    HW2 1353   1.450  -0.059   1.505  0.1487 -0.0263 -0.7808
  452SOL     OW 1354   2.672   2.372   2.244  0.0124  0.5228  0.0126
  452SOL    HW1 1355   2.613   2.453   2.269  3.7151 -3.0959 -1.7736
  452SOL    HW2 1356   2.695   2.310   2.325  0.2912 -0.3286  0.6623
  453SOL     OW 1357   2.458   2.628   3.060  0.7340  0.1927  0.1216
  453SOL    HW1 1358   2.373   2.684   3.051 -0.5796  0.7186 -0.1562
  453SOL    HW2 1359   2.456   2.545   2.994  0.3615  0.3684 -0.0241
  454SOL     OW 1360   0.985   1.113   2.048  0.5157  1.0314  0.0314
  454SOL    HW1 1361   0.954   1.129   1.949 -1.7256  0.0974 -2.0838
  454SOL    HW2 1362   1.082   1.131   2.070 -0.0363  0.5229  1.7758
  455SOL     OW 1363   0.637   2.593   2.906  0.1553 -1.1434  0.2321
  455SOL    HW1 1364   0.700   2.663   2.947 -1.6204  0.7916 -2.0429
  455SOL    HW2 1365   0.616   2.509   2.966  0.7327  0.5963 -0.3184
  456SOL     OW 1366   0.466   1.773   0.277 -0.1078  0.2958 -0.8606
  456SOL    HW1 1367   0.557   1.723   0.302 -0.8928 -1.8207  2.5374
  456SOL    HW2 1368   0.487   1.871   0.263  3.6650 -0.1738 -1.5663
  457SOL     OW 1369   0.373   2.583   0.583  0.3141  0.4289 -0.3964
  457SOL    HW1 1370   0.351   2.642   0.501  1.4178  1.5297  1.6209
  457SOL    HW2 1371   0.461   2.528   0.568  0.7132  0.7767 -2.0639
  458SOL     OW 1372   2.991   2.969   1.195 -0.2375 -0.2168 -0.6069
  458SOL    HW1 1373   2.995   3.072   1.194  1.1188 -0.6876  1.2846
  458SOL    HW2 1374   2.975   2.918   1.106  2.7727  0.2309  0.4737
  459SOL     OW 1375   2.183   2.604   0.846 -0.3756  0.7577  0.4292
  459SOL    HW1 1376   2.207   2.694   0.885  0.4522 -1.5448 -2.3058
  459SOL    HW2 1377   2.265   2.561   0.799  0.9757  1.6774  0.7073
  460SOL     OW 1378   1.086   1.957   2.902  0.3560  0.3475  0.1372
  460SOL    HW1 1379   1.112   2.036   2.840 -0.5508  0.5784 -0.3620
  460SOL    HW2 1380   1.165   1.887   2.922  1.4087 -2.0483 -1.1178
  461SOL     OW 1381   0.548   2.137   2.670 -0.3438 -0.6258  0.0563
  461SOL    HW1 1382   0.455   2.090   2.669 -2.1030 -1.7210 -1.6571
  461SOL    HW2 1383   0.612   2.100   2.743 -2.3952  3.0897  1.0451
  462SOL     OW 1384   0.943   1.157   1.766 -0.3553  0.3920  0.3790
  462SOL    HW1 1385   0.955   1.055   1.740  2.8695 -3.4384 -0.5988
  462SOL    HW2 1386   0.963   1.222   1.683  1.4544 -1.0221 -0.8182
  463SOL     OW 1387   0.464   0.753   0.451 -0.1324 -0.0699 -0.0148
  463SOL    HW1 1388   0.473   0.654   0.416 -1.0550  0.6532  1.9290
  463SOL    HW2 1389   0.367   0.769   0.488 -0.3106  2.1565  0.9436
  464SOL     OW 1390   0.528   2.241   2.252  0.3895 -0.0703 -0.0382
  464SOL    HW1 1391   0.453   2.268   2.320  0.4411 -2.2344  0.5556
  464SOL    HW2 1392   0.516   2.288   2.159 -0.3514 -0.7714  0.4487
  465SOL     OW 1393   0.326   0.885   0.881  0.0757  0.0987  0.2130
  465SOL    HW1 1394   0.238   0.891   0.831  2.6190  0.4892  0.5711
  465SOL    HW2 1395   0.356   0.789   0.909  1.6662  0.2500 -1.7569
  466SOL     OW 1396   1.391   1.107   1.141 -0.1432 -0.3413  0.4622
  466SOL    HW1 1397   1.452   1.191   1.126 -0.2713  0.6891 -1.1947
  466SOL    HW2 1398   1.295   1.137   1.124 -0.1887 -1.2055 -0.0445
  467SOL     OW 1399   0.484   0.374   2.418  0.6042 -0.5598  0.1398
  467SOL    HW1 1400   0.455   0.458   2.465  2.5720 -1.0438  2.0113
  467SOL    HW2 1401   0.524   0.291   2.470  0.8499 -2.2293 -2.1625
  468SOL     OW 1402   0.488   2.264   1.739 -0.3781  0.1455 -0.1043
  468SOL    HW1 1403   0.492   2.348   1.799 -0.3993 -0.9256  0.6235
  468SOL    HW2 1404   0.460   2.283   1.642  2.2270  1.1961  1.7069
  469SOL     OW 1405   1.577   1.299   1.116  0.2964 -0.2372  0.1766
  469SOL    HW1 1406   1.642   1.223   1.147 -0.8711  0.7380  1.5051
  469SOL    HW2 1407   1.618   1.394   1.115  0.9320 -1.3095  1.4844
  470SOL     OW 1408   3.002   1.613   0.765 -0.0466  0.1397  0.0336
  470SOL    HW1 1409   3.082   1.605   0.827  2.6692 -0.2060 -0.1379
  470SOL    HW2 1410   2.944   1.697   0.787  0.3165  0.2284  1.0029
  471SOL     OW 1411   2.586   1.304   2.195 -0.2900 -0.2963  0.1693
  471SOL    HW1 1412   2.569   1.206   2.219  1.4691  2.0408 -1.4853
  471SOL    HW2 1413   2.611   1.366   2.279 -1.9435  1.2349 -1.4723
  472SOL     OW 1414   1.188   2.458   3.060  1.1800 -0.2136 -0.3318
  472SOL    HW1 1415   1.232   2.438   3.154 -1.3257  0.2844  0.3315
  472SOL    HW2 1416   1.125   2.382   3.025 -0.4494 -1.2848  0.7285
  473SOL     OW 1417   1.061   1.510   0.889  0.8460 -0.6167 -0.2595
  473SOL    HW1 1418   0.972   1.536   0.939 -0.9115  1.2146 -0.4907
  473SOL    HW2 1419   1.134   1.488   0.955 -1.4549 -0.5575  0.8613
  474SOL     OW 1420   0.744   1.260   0.779 -0.2100 -0.2813 -0.2599
  474SOL    HW1 1421   0.704   1.235   0.683 -1.6719 -1.6492 -2.6162
  474SOL    HW2 1422   0.838   1.215   0.793  0.7674 -0.5920  0.4852
  475SOL     OW 1423   2.862   0.027   0.835 -0.5085 -0.1645  0.1573
  475SOL    HW1 1424   2.945   0.048   0.888 -0.1818  2.2729 -1.1103
  475SOL    HW2 1425   2.779   0.060   0.884  2.0572 -0.0525 -2.6576
  476SOL     OW 1426   0.965   3.043   1.951 -0.3233  0.3165 -0.5645
  476SOL    HW1 1427   1.019   2.960   1.988 -2.6208 -0.8784 -1.1141
  476SOL    HW2 1428   0.997   3.063   1.852 -1.5879 -2.2903 -0.9790
  477SOL     OW 1429   1.488   0.378   2.425 -0.3766 -0.8243 -0.3192
  477SOL    HW1 1430   1.436   0.363   2.514  2.0285  1.2488  0.5981
  477SOL    HW2 1431   1.581   0.336   2.435 -2.1460  0.1890 -1.1577
  478SOL     OW 1432   2.214   1.845   0.245 -0.6156  0.1106  0.2815
  478SOL    HW1 1433   2.181   1.747   0.218 -0.2328 -1.1104  0.0918
  478SOL    HW2 1434   2.311   1.854   0.212  1.0376 -1.3293  1.4559
  479SOL     OW 1435   1.281   1.144   2.902  0.4977 -0.7363  0.9735
  479SOL    HW1 1436   1.346   1.206   2.845  0.7871  2.4884  1.5669
  479SOL    HW2 1437   1.216   1.087   2.844  1.9518 -0.3528  3.7249
  480SOL     OW 1438   2.498   2.349   0.430  0.1157  0.0193  0.6744
  480SOL    HW1 1439   2.471   2.253   0.440 -0.3109  0.6542 -0.2894
  480SOL    HW2 1440   2.429   2.401   0.365  1.6138  2.4477  0.0365
  481SOL     OW 1441   1.061   1.163   0.847 -0.1367 -0.5499  0.5331
  481SOL    HW1 1442   1.074   1.240   0.781  1.5931 -0.3341  0.2526
  481SOL    HW2 1443   1.073   1.191   0.944  1.9336  2.6768 -1.4668
  482SOL     OW 1444   1.594   0.291   2.016 -0.2115 -0.4461 -0.0932
  482SOL    HW1 1445   1.612   0.393   1.992 -0.4573  1.1310 -1.3378
  482SOL    HW2 1446   1.683   0.235   2.035 -0.2268 -0.4386 -0.0190
  483SOL     OW 1447   0.144   2.357   1.345  0.7872 -0.1696  0.3585
  483SOL    HW1 1448   0.046   2.378   1.370  3.0042  0.6047  2.3154
  483SOL    HW2 1449   0.165   2.400   1.256  1.8583 -0.0434  0.4781
  484SOL     OW 1450   1.703   0.958   1.385  0.3153  0.0963  0.0866
  484SOL    HW1 1451   1.798   0.958   1.431  1.3286 -1.2559  0.6977
  484SOL    HW2 1452   1.694   1.030   1.307 -2.8646 -0.5216  1.0032
  485SOL     OW 1453   0.668   1.117   1.803 -0.1543 -0.6274 -0.3429
  485SOL    HW1 1454   0.671   1.038   1.738 -1.1852  1.2060  0.3165
  485SOL    HW2 1455   0.752   1.178   1.800  2.4825 -3.0592 -1.1554
  486SOL     OW 1456   0.868   1.921   2.460 -0.2552  0.4256 -0.4919
  486SOL    HW1 1457   0.896   1.876   2.552 -0.2927  0.0250  2.6194
  486SOL    HW2 1458   0.791   1.996   2.469 -1.4058  2.9533  0.2636
  487SOL     OW 1459   1.771   1.564   0.849 -0.2077  0.7394 -0.3667
  487SOL    HW1 1460   1.744   1.486   0.781 -2.9697 -0.4957 -0.4788
  487SOL    HW2 1461   1.812   1.650   0.801  2.2267  2.2724 -1.6566
  488SOL     OW 1462   2.989   0.969   2.210  0.2781  0.5096  0.1591
  488SOL    HW1 1463   2.997   0.868   2.192 -3.8819 -1.3715  0.3372
  488SOL    HW2 1464   3.061   1.001   2.274 -1.1111  0.7544 -4.1647
  489SOL     OW 1465   2.767   0.218   1.370  0.4920  0.1515 -0.2446
  489SOL    HW1 1466   2.757   0.199   1.470 -0.1230  0.5087  0.0020
  489SOL    HW2 1467   2.853   0.177   1.331 -0.4422 -0.0706  1.6662
  490SOL     OW 1468   1.384   2.995   2.798 -0.3558  0.3598 -0.2015
  490SOL    HW1 1469   1.429   2.905   2.813 -2.2624 -1.5274  2.6666
  490SOL    HW2 1470   1.372   3.014   2.699  0.1100  1.7940 -0.8500
  491SOL     OW 1471   1.874   1.539   2.678 -0.3020 -0.3487 -0.0359
  491SOL    HW1 1472   1.795   1.558   2.741 -4.1522 -1.9471 -0.0885
  491SOL    HW2 1473   1.970   1.530   2.715 -0.2225  0.2958 -1.9681
  492SOL     OW 1474   0.495   1.931   0.702 -0.1664  0.0559 -0.5194
  492SOL    HW1 1475   0.581   1.972   0.739  1.1028 -1.6637 -1.1283
  492SOL    HW2 1476   0.420   2.007   0.677 -0.2064  1.6443  1.7777
  493SOL     OW 1477   0.499   1.413   2.137  0.5184  0.5825 -0.6204
  493SOL    HW1 1478   0.402   1.451   2.138  0.0808  0.2344  1.2695
  493SOL    HW2 1479   0.505   1.322   2.187  0.6503  1.5690 -0.4727
  494SOL     OW 1480   2.593   2.558   0.198  0.5950 -0.3610 -0.0291
  494SOL    HW1 1481   2.664   2.478   0.193  0.8970  0.5917 -0.5824
  494SOL    HW2 1482   2.560   2.585   0.105  0.6352 -0.5796  1.7609
  495SOL     OW 1483   2.743   2.687   2.696 -0.4243  0.6713  0.1064
  495SOL    HW1 1484   2.771   2.600   2.648  0.3845 -0.9800 -2.1485
  495SOL    HW2 1485   2.710   2.760   2.626 -0.0665  0.5222  1.2447
  496SOL     OW 1486   2.100   2.203   0.702 -0.0509 -0.1388 -0.0982
  496SOL    HW1 1487   2.138   2.246   0.780 -0.8477  1.0790 -3.0343
  496SOL    HW2 1488   2.096   2.097   0.705 -1.2350  0.4583  0.6322
  497SOL     OW 1489   0.248   2.963   2.390 -0.0497 -0.0201 -0.3706
  497SOL    HW1 1490   0.207   3.034   2.454 -1.9182 -1.4361  2.4843
  497SOL    HW2 1491   0.320   2.999   2.327  0.0486 -2.3918 -2.3851
  498SOL     OW 1492   1.257   1.499   1.110  0.1570  0.1597  0.3821
  498SOL    HW1 1493   1.349   1.544   1.125  0.4220  2.8552 -0.2275
  498SOL    HW2 1494   1.184   1.540   1.165  1.2141 -4.1623 -3.2838
  499SOL     OW 1495   0.842   1.809   0.479 -0.1614  0.5049 -0.2524
  499SOL    HW1 1496   0.788   1.724   0.510 -0.7154 -0.9693 -2.0403
  499SOL    HW2 1497   0.863   1.873   0.553 -0.2993  1.4669  1.3558
  500SOL     OW 1498   1.441   2.960   1.652 -0.1648 -0.1055  0.5028
  500SOL    HW1 1499   1.363   2.975   1.717  0.6427  0.1852 -1.5514
  500SOL    HW2 1500   1.488   2.867   1.660  2.6861 -0.7144  0.0831
  501SOL     OW 1501   0.829   1.125   2.266  0.7330 -0.0117 -0.2031
  501SOL    HW1 1502   0.752   1.060   2.272  2.2430  5.3561 -2.2020
  501SOL    HW2 1503   0.877   1.125   2.172  3.9922 -0.3920 -0.7865
  502SOL     OW 1504   2.571   0.954   1.745 -0.0023 -0.4030  0.6479
  502SOL    HW1 1505   2.550   0.969   1.643 -1.3299 -2.7335 -1.8914
  502SOL    HW2 1506   2.528   0.871   1.786  0.0058 -0.0979 -0.8809
  503SOL     OW 1507   1.312   0.169   0.578  0.0966  0.6772 -0.3293
  503SOL    HW1 1508   1.229   0.232   0.573 -1.1911 -1.2893 -0.1725
  503SOL    HW2 1509   1.402   0.216   0.605  1.1445  1.6136 -1.8697
  504SOL     OW 1510   2.961   2.315   1.430 -0.0845 -0.3864 -0.6663
  504SOL    HW1 1511   2.966   2.404   1.480 -0.7200 -0.0199  2.1227
  504SOL    HW2 1512   2.872   2.264   1.447  0.7185  1.2042  0.0503
  505SOL     OW 1513   2.282   1.287   1.455  0.0858 -0.4152 -0.4893
  505SOL    HW1 1514   2.270   1.382   1.493 -0.2261 -0.1128  0.5882
  505SOL    HW2 1515   2.384   1.253   1.462  2.0145 -0.8242 -0.4872
  506SOL     OW 1516   1.876   0.329   1.747  0.1595  0.5151  0.2954
  506SOL    HW1 1517   1.958   0.272   1.734 -1.1648 -1.1328  0.4281
  506SOL    HW2 1518   1.894   0.415   1.798 -0.2904 -1.5030 -0.6536
  507SOL     OW 1519   0.519   0.742   2.164  0.0611 -0.3605 -0.1380
  507SOL    HW1 1520   0.446   0.732   2.089 -0.4422  1.5756 -0.4572
  507SOL    HW2 1521   0.578   0.658   2.173  1.1141  1.9852  0.7097
  508SOL     OW 1522   0.152   1.622   0.855 -0.5775  0.6446 -0.6046
  508SOL    HW1 1523   0.241   1.638   0.806 -1.9456  0.3273  0.1144
  508SOL    HW2 1524   0.168   1.621   0.961  1.7803  0.7242 -1.7315
  509SOL     OW 1525   1.367   1.154   2.565  0.8125 -0.7329 -0.7240
  509SOL    HW1 1526   1.276   1.207   2.582  0.2555  0.8969  0.1992
  509SOL    HW2 1527   1.349   1.055   2.549 -2.2868  3.6688 -0.2009
  510SOL     OW 1528   1.341   2.005   2.044 -0.1052 -0.7384 -0.1617
  510SOL    HW1 1529   1.275   2.073   2.072  1.7699  0.0581 -2.5452
  510SOL    HW2 1530   1.333   1.909   2.088 -1.7089 -1.0429 -1.1933
  511SOL     OW 1531   3.044   2.630   1.295  0.7977 -0.3683 -0.1878
  511SOL    HW1 1532   3.001   2.603   1.208  1.5429 -1.5352  1.4206
  511SOL    HW2 1533   2.975   2.670   1.357 -0.7881 -0.6662  0.7514
  512SOL     OW 1534   2.415   0.362   1.456  0.1985 -0.0024 -0.1563
  512SOL    HW1 1535   2.314   0.382   1.425 -0.4776  0.9368  0.2762
  512SOL    HW2 1536   2.454   0.272   1.430 -1.7088 -0.2807  0.8217
  513SOL     OW 1537   2.483   2.041   0.817 -0.7471  0.0379 -0.4345
  513SOL    HW1 1538   2.444   2.128   0.773 -0.7695  0.6639  0.4582
  513SOL    HW2 1539   2.583   2.029   0.785 -0.7590 -0.3872 -1.2587
  514SOL     OW 1540   0.712   2.808   0.336  0.7568 -0.4519 -0.1928
  514SOL    HW1 1541   0.694   2.884   0.271  1.1594  1.4784 -0.2254
  514SOL    HW2 1542   0.707   2.837   0.437 -2.7596 -2.2913  1.6298
  515SOL     OW 1543   1.954   1.246   2.343  0.4309  0.3177  0.2243
  515SOL    HW1 1544   1.914   1.276   2.249  3.9870  0.1210 -3.5751
  515SOL    HW2 1545   1.885   1.225   2.417 -0.8686 -1.1181  2.6478
  516SOL     OW 1546   0.318   0.385   1.997  0.8005 -0.3785 -0.4294
  516SOL    HW1 1547   0.415   0.361   1.975 -1.3855 -0.3916 -0.3408
  516SOL    HW2 1548   0.242   0.338   1.936  1.8496  1.1320 -1.0209
  517SOL     OW 1549   0.346   2.977   1.189  0.1026  0.5853  0.3978
  517SOL    HW1 1550   0.370   3.074   1.212 -1.7195  1.4036 -1.3524
  517SOL    HW2 1551   0.265   2.936   1.246 -1.9477 -3.0446 -0.1857
  518SOL     OW 1552   2.111   0.160   1.715  0.1610 -0.5653  0.6034
  518SOL    HW1 1553   2.168   0.199   1.795  1.5535  0.4185  0.1946
  518SOL    HW2 1554   2.158   0.082   1.668  0.2160  1.4651  0.5901
  519SOL     OW 1555   2.368   2.222   2.637  0.4176  0.2780  0.2501
  519SOL    HW1 1556   2.271   2.200   2.653  0.8606  2.9127 -2.1595
  519SOL    HW2 1557   2.384   2.320   2.610 -0.3226  1.8992  0.2037
  520SOL     OW 1558   1.735   2.881   1.811 -0.0610  0.0644 -0.3882
  520SOL    HW1 1559   1.673   2.847   1.887 -0.0226 -0.0093 -1.1367
  520SOL    HW2 1560   1.820   2.826   1.788 -0.8217  1.3979  0.5324
  521SOL     OW 1561   0.607   0.080   2.149 -0.0053 -0.7848  0.2275
  521SOL    HW1 1562   0.514   0.036   2.149  1.1872 -0.9680  0.7283
  521SOL    HW2 1563   0.673   0.046   2.220  0.2864 -0.6653 -2.5823
  522SOL     OW 1564   0.197   1.920   1.523 -0.3817  0.6046  0.2526
  522SOL    HW1 1565   0.259   1.962   1.595 -2.7214 -0.1898 -0.2286
  522SOL    HW2 1566   0.194   1.969   1.432 -2.0577  0.8175  0.1957
  523SOL     OW 1567   2.265   3.022   1.641  0.0544  0.0340  0.9062
  523SOL    HW1 1568   2.298   2.951   1.570  2.9876  3.2236 -0.1955
  523SOL    HW2 1569   2.217   2.967   1.713 -1.2748 -3.2861  0.1471
  524SOL     OW 1570   0.209   2.777   2.800 -0.6095  0.4494 -0.0791
  524SOL    HW1 1571   0.157   2.859   2.836  0.3089 -0.9253 -3.3526
  524SOL    HW2 1572   0.309   2.770   2.810 -2.7932 -0.8551 -0.2886
  525SOL     OW 1573   2.084   1.919   0.470  0.4429 -0.1213 -0.3272
  525SOL    HW1 1574   2.131   1.866   0.549 -0.4848 -3.8389 -0.4236
  525SOL    HW2 1575   2.113   1.881   0.381  0.6454  0.7888  1.4745
  526SOL     OW 1576   0.380   1.526   1.527  0.0826  0.1376  0.6066
  526SOL    HW1 1577   0.329   1.489   1.610 -1.2618 -0.7854  0.8669
  526SOL    HW2 1578   0.471   1.478   1.516  0.9954 -0.8247 -2.3955
  527SOL     OW 1579   1.147   2.893   1.161  0.2204 -0.1229 -0.2334
  527SOL    HW1 1580   1.223   2.855   1.219 -0.0659 -0.7051 -4.9343
  527SOL    HW2 1581   1.141   2.999   1.169 -0.3565  1.4506 -0.9287
  528SOL     OW 1582   1.301   2.405   0.476 -0.2534  0.2845  0.2895
  528SOL    HW1 1583   1.341   2.309   0.474 -0.5996 -1.6275  0.7171
  528SOL    HW2 1584   1.341   2.471   0.546  0.3364 -1.5786  1.2380
  529SOL     OW 1585   1.906   1.748   0.699  0.1351  0.1051 -0.4489
  529SOL    HW1 1586   1.861   1.753   0.606  1.5061 -0.9004 -0.7661
  529SOL    HW2 1587   2.008   1.740   0.689  2.0497 -1.3476  0.5219
  530SOL     OW 1588   0.338   2.493   0.228 -0.2683  0.1605  0.2859
  530SOL    HW1 1589   0.368   2.598   0.237  0.6285  5.4902 -0.0059
  530SOL    HW2 1590   0.410   2.436   0.274  1.4230  0.2682 -0.7289
  531SOL     OW 1591   1.902   0.803   0.944  0.0069  0.0842  0.3162
  531SOL    HW1 1592   1.934   0.857   0.865 -2.5536  0.8794  0.7293
  531SOL    HW2 1593   1.795   0.805   0.949  1.7442 -1.5071 -2.3163
  532SOL     OW 1594   0.454   1.098   0.735 -0.1058 -0.3567  0.1184
  532SOL    HW1 1595   0.540   1.063   0.688 -2.5615 -2.0564  0.0257
  532SOL    HW2 1596   0.397   1.017   0.767  1.7487 -1.9141 -1.6413
  533SOL     OW 1597   1.724   0.023   2.577  0.4280  0.4569  0.2220
  533SOL    HW1 1598   1.825   0.033   2.606  1.4569  2.5101  0.8162
  533SOL    HW2 1599   1.661   0.070   2.642  1.6640 -1.4995 -0.6269
  534SOL     OW 1600   0.373   0.231   1.488  0.3479  0.0922 -0.3221
  534SOL    HW1 1601   0.471   0.214   1.527 -0.4457  2.2864 -1.7516
  534SOL    HW2 1602   0.352   0.334   1.489  1.9591  1.1469  2.1777
  535SOL     OW 1603   1.985   0.312   0.165  0.3449 -0.6227  0.6327
  535SOL    HW1 1604   1.977   0.390   0.228 -0.4549  0.3389 -2.1881
  535SOL    HW2 1605   1.974   0.223   0.220  1.0872 -0.6696 -0.9439
  536SOL     OW 1606   1.385   2.604   0.973  0.2448  0.0772  0.1048
  536SOL    HW1 1607   1.344   2.547   1.043  1.3663 -0.5582  2.9359
  536SOL    HW2 1608   1.317   2.671   0.934  0.7927  3.3001 -0.0233
  537SOL     OW 1609   0.894   0.232   2.333  0.3497  0.2675 -0.6444
  537SOL    HW1 1610   0.910   0.277   2.240  1.2518  2.5737  1.5622
  537SOL    HW2 1611   0.839   0.137   2.324 -0.5615  1.3020  0.8660
  538SOL     OW 1612   1.631   2.356   1.407  0.1425 -0.4934  0.1366
  538SOL    HW1 1613   1.640   2.252   1.413 -2.0416  0.8090 -1.5889
  538SOL    HW2 1614   1.722   2.403   1.404 -0.9983 -1.9621 -2.2480
  539SOL     OW 1615   0.183   1.580   2.661 -0.7500 -0.3748 -0.3915
  539SOL    HW1 1616   0.084   1.564   2.652 -0.1516  2.8191 -1.2575
  539SOL    HW2 1617   0.206   1.666   2.715  0.7731  0.9440 -0.4317
  540SOL     OW 1618   2.675   1.759   1.955  0.4175  0.4881  0.0447
  540SOL    HW1 1619   2.603   1.683   1.960  0.8347  2.1799  0.4117
  540SOL    HW2 1620   2.625   1.850   1.927  0.7595 -2.3884 -0.3090
  541SOL     OW 1621   0.467   2.134   3.049 -0.2798 -0.2461 -0.4023
  541SOL    HW1 1622   0.501   2.095   3.143 -0.2602 -0.9989  0.5818
  541SOL    HW2 1623   0.361   2.129   3.041 -0.4729  0.0151  0.2756
  542SOL     OW 1624   2.258   2.602   0.494 -0.4572 -0.3514 -0.3857
  542SOL    HW1 1625   2.251   2.691   0.551  3.4759  0.2861 -0.8188
  542SOL    HW2 1626   2.184   2.530   0.518  0.5067 -2.1699  0.1009
  543SOL     OW 1627   0.998   1.781   1.586 -0.8320  0.4605  0.1877
  543SOL    HW1 1628   1.016   1.807   1.680 -0.0450 -0.2133 -2.4890
  543SOL    HW2 1629   0.968   1.857   1.524  0.9835 -2.4275 -1.5365
  544SOL     OW 1630   1.130   0.536   0.145  0.1887  0.2736 -0.5784
  544SOL    HW1 1631   1.102   0.450   0.199  2.1016  2.9733  1.1498
  544SOL    HW2 1632   1.158   0.522   0.049 -0.2021 -0.3398  0.7234
  545SOL     OW 1633   1.146   1.777   0.813 -0.1693 -0.2186  0.2432
  545SOL    HW1 1634   1.237   1.797   0.768 -0.4700 -0.0597 -0.5953
  545SOL    HW2 1635   1.130   1.678   0.837  1.2711  1.9565 -1.3000
  546SOL     OW 1636   2.720   1.586   3.019 -0.0214 -0.1861  0.1792
  546SOL    HW1 1637   2.691   1.664   2.959  1.0883  0.3137  2.0613
  546SOL    HW2 1638   2.637   1.523   3.047 -1.0479 -1.9637  1.5918
  547SOL     OW 1639   0.733   3.018   2.600  0.6082  0.1368  0.1904
  547SOL    HW1 1640   0.796   3.001   2.686  1.3051  0.8520 -3.0937
  547SOL    HW2 1641   0.679   2.940   2.579  0.7432  0.6424  2.8692
  548SOL     OW 1642   2.025   0.811   3.080 -0.1769  0.1719  0.6208
  548SOL    HW1 1643   1.922   0.792   3.070 -2.0131 -1.1865  3.2898
  548SOL    HW2 1644   2.043   0.913   3.105 -2.6205  2.5096  1.1727
  549SOL     OW 1645   0.663   0.503   0.183  0.6318 -0.8125 -0.0313
  549SOL    HW1 1646   0.618   0.535   0.095  0.9902 -0.2338  0.7847
  549SOL    HW2 1647   0.748   0.557   0.199 -1.2175 -3.3739 -2.1376
  550SOL     OW 1648   2.614   2.808   2.894 -0.0153  0.4366  0.2260
  550SOL    HW1 1649   2.575   2.755   2.971  1.9615 -0.4516  1.3184
  550SOL    HW2 1650   2.644   2.746   2.815  0.6809 -0.4218  1.4700
  551SOL     OW 1651   0.240   0.859   0.240 -0.4198 -0.1471  0.1802
  551SOL    HW1 1652   0.332   0.829   0.202 -0.3462 -0.2229 -1.1432
  551SOL    HW2 1653   0.245   0.856   0.350  0.1109 -1.0413  2.8457
  552SOL     OW 1654   0.615   3.048   1.910 -0.3516  0.5465 -0.3558
  552SOL    HW1 1655   0.628   3.099   2.003  0.3988  0.0965 -0.6639
  552SOL    HW2 1656   0.697   2.992   1.884  2.4792  0.2768  0.3930
  553SOL     OW 1657   3.068   2.401   0.375  0.2473 -0.3599  0.4424
  553SOL    HW1 1658   3.097   2.327   0.441  1.2489 -0.0581 -1.8988
  553SOL    HW2 1659   2.966   2.430   0.393 -2.8221 -0.4070  1.0969
  554SOL     OW 1660   2.234   0.330   0.594  0.4266 -0.1597 -0.0038
  554SOL    HW1 1661   2.284   0.311   0.503  0.0947 -1.8334  0.4907
  554SOL    HW2 1662   2.236   0.247   0.658 -0.8460  1.5414  2.4672
  555SOL     OW 1663   0.470   2.812   2.505  0.2808 -0.1709  0.8238
  555SOL    HW1 1664   0.382   2.857   2.467 -0.8716 -0.4474  2.1021
  555SOL    HW2 1665   0.507   2.741   2.448 -3.6150 -0.5072  3.2558
  556SOL     OW 1666   0.836   2.358   1.595 -0.6333  0.0035  0.1005
  556SOL    HW1 1667   0.852   2.450   1.647  0.4557 -0.1002 -1.3962
  556SOL    HW2 1668   0.885   2.354   1.505 -1.2982 -1.3845 -1.6007
  557SOL     OW 1669   0.120   2.183   0.255 -1.2180  0.2063 -0.1195
  557SOL    HW1 1670   0.047   2.114   0.217  0.0326 -0.9671 -0.7930
  557SOL    HW2 1671   0.191   2.227   0.186  2.0779  1.8246  0.0430
  558SOL     OW 1672   2.824   2.175   0.392 -0.1333 -1.2075 -0.2417
  558SOL    HW1 1673   2.831   2.273   0.399  2.8187  0.5975 -2.5458
  558SOL    HW2 1674   2.767   2.153   0.312 -0.0505  1.4514 -0.6555
  559SOL     OW 1675   0.436   2.275   1.440 -0.1529  0.1155 -0.2066
  559SOL    HW1 1676   0.341   2.279   1.398 -1.5958  3.1999 -3.6643
  559SOL    HW2 1677   0.493   2.218   1.375  0.0187  2.4944  1.9526
  560SOL     OW 1678   2.171   1.055   0.031 -0.1622  0.4765  0.2828
  560SOL    HW1 1679   2.216   1.089   0.120 -0.9079 -4.1638  0.4663
  560SOL    HW2 1680   2.237   0.999  -0.031  1.2718  1.6531  1.2458
  561SOL     OW 1681   3.025   1.988   0.137 -0.1907 -0.3435 -0.3674
  561SOL    HW1 1682   2.961   1.943   0.200 -2.0817  2.9204 -0.0327
  561SOL    HW2 1683   2.983   2.025   0.051 -0.1461 -0.5955 -0.8915
  562SOL     OW 1684   1.020   2.101   2.291 -0.2272  0.7498  0.1222
  562SOL    HW1 1685   0.999   2.200   2.305  0.6435 -1.2117  0.1690
  562SOL    HW2 1686   0.972   2.036   2.354 -1.4482 -0.0112  1.8675
  563SOL     OW 1687   0.677   2.496   2.639  0.7243 -0.6439 -0.0918
  563SOL    HW1 1688   0.764   2.447   2.642  0.0879 -1.0615  2.4684
  563SOL    HW2 1689   0.655   2.536   2.732  0.4670 -2.1869 -0.4377
  564SOL     OW 1690   2.873   1.395   2.891  0.0734 -0.8661  0.0250
  564SOL    HW1 1691   2.813   1.467   2.934  0.2741  2.1285  1.9075
  564SOL    HW2 1692   2.965   1.428   2.866 -1.0467 -2.2186  1.1959
  565SOL     OW 1693   2.499   1.952   2.643  0.0918  0.5144 -0.0091
  565SOL    HW1 1694   2.501   2.054   2.638  0.6190 -1.7875  0.8114
  565SOL    HW2 1695   2.580   1.924   2.698 -0.6065  1.8662  0.5124
  566SOL     OW 1696   2.020   2.924   1.522  0.4342 -0.2178  0.8267
  566SOL    HW1 1697   2.015   2.818   1.520 -1.1451  2.3224  0.4827
  566SOL    HW2 1698   2.083   2.968   1.453 -1.1499  0.5009  3.0832
  567SOL     OW 1699   2.377   0.043   2.301  0.1298 -0.0593 -0.0079
  567SOL    HW1 1700   2.282   0.070   2.335  0.9462  0.6295  2.2097
  567SOL    HW2 1701   2.370   0.017   2.203  0.7051 -1.5755  0.2857
  568SOL     OW 1702   1.477   1.750   0.187  0.0615 -0.0836 -0.5012
  568SOL    HW1 1703   1.411   1.824   0.170 -0.6223  0.2119  1.2734
  568SOL    HW2 1704   1.573   1.770   0.162  0.9507  0.0456 -0.7093
  569SOL     OW 1705   0.207   0.533   0.837 -0.6684  0.3342 -0.2202
  569SOL    HW1 1706   0.220   0.436   0.792  1.6848 -1.9985  0.1240
  569SOL    HW2 1707   0.108   0.560   0.858 -0.6312 -1.7158  1.8487
  570SOL     OW 1708   0.651   0.817   2.913 -0.0884 -0.7149 -0.0814
  570SOL    HW1 1709   0.679   0.850   2.817 -2.3300 -3.2374 -0.6789
  570SOL    HW2 1710   0.671   0.882   2.989  2.1839 -0.5672 -1.6640
  571SOL     OW 1711   0.805   3.036   1.100 -0.2807  0.4454  0.6581
  571SOL    HW1 1712   0.850   3.084   1.017 -1.7385 -1.9556 -0.9538
  571SOL    HW2 1713   0.844   2.942   1.125 -2.6587 -0.9485  0.4508
  572SOL     OW 1714   1.670   2.731   1.402  0.1637 -0.1683 -0.2694
  572SOL    HW1 1715   1.657   2.709   1.299  0.3807  1.7220 -3.3230
  572SOL    HW2 1716   1.621   2.815   1.430 -2.2647 -2.7297 -0.2398
  573SOL     OW 1717   3.046   0.470   1.944  0.4093 -0.0693 -0.5164
  573SOL    HW1 1718   2.964   0.420   1.910  2.1616  1.5747 -0.7819
  573SOL    HW2 1719   3.134   0.442   1.892 -0.8845  0.0727  1.8255
  574SOL     OW 1720   0.111   1.684   1.115  0.1199  0.0155  0.5609
  574SOL    HW1 1721   0.179   1.689   1.191  0.5603 -1.6477 -1.1254
  574SOL    HW2 1722   0.076   1.780   1.089  2.8668  2.4906 -0.2239
  575SOL     OW 1723   0.839   2.306   0.930 -0.1174  0.5647  0.0211
  575SOL    HW1 1724   0.809   2.380   0.990 -1.6569 -1.3507  0.2836
  575SOL    HW2 1725   0.886   2.343   0.843  4.7126 -0.6464 -0.4235
  576SOL     OW 1726   2.934   3.037   1.672 -0.1118  0.3556 -0.0505
  576SOL    HW1 1727   2.841   3.052   1.645  0.9984 -0.8031 -1.2816
  576SOL    HW2 1728   2.987   3.127   1.684 -1.1599 -0.2802  0.9266
  577SOL     OW 1729   2.643   1.204   3.058 -0.4544  0.0564 -0.3661
  577SOL    HW1 1730   2.618   1.118   3.000  0.0160  0.0149  1.2331
  577SOL    HW2 1731   2.685   1.187   3.152 -0.9483 -1.5957 -0.4910
  578SOL     OW 1732   1.366   2.735   2.559  0.4377  0.5223  0.2633
  578SOL    HW1 1733   1.268   2.751   2.524 -1.1770 -0.5960 -0.5390
  578SOL    HW2 1734   1.443   2.779   2.505  0.3490 -0.4864 -0.0919
  579SOL     OW 1735   0.069   2.461   0.136 -0.0790  0.1390  0.2778
  579SOL    HW1 1736   0.027   2.423   0.220 -0.8318 -1.1336 -2.2800
  579SOL    HW2 1737   0.157   2.513   0.147 -3.4407  1.5673  1.0741
  580SOL     OW 1738   0.981   2.703   0.343  0.1391  0.6973 -0.0726
  580SOL    HW1 1739   1.045   2.711   0.260  0.3160  0.1527 -0.7456
  580SOL    HW2 1740   0.886   2.744   0.328 -1.0725 -0.3407 -0.6135
  581SOL     OW 1741   1.278   2.717   1.400 -0.3152  0.0897 -0.6056
  581SOL    HW1 1742   1.322   2.639   1.448  0.4664 -1.1747  0.0338
  581SOL    HW2 1743   1.340   2.769   1.334 -0.6235 -0.1711 -0.8663
  582SOL     OW 1744   1.417   0.109   1.839 -0.1112  0.4155 -0.1832
  582SOL    HW1 1745   1.469   0.161   1.913  0.6250  1.8081  1.3204
  582SOL    HW2 1746   1.468   0.103   1.751 -1.3438  2.2009 -1.4272
  583SOL     OW 1747   2.497   2.988   0.498  0.4508 -0.1349  0.5469
  583SOL    HW1 1748   2.554   2.919   0.446 -1.3100  1.4159  0.4413
  583SOL    HW2 1749   2.431   2.944   0.568 -2.8847  1.3190  0.2689
  584SOL     OW 1750   1.472   1.033   2.268 -0.5669 -0.4010 -0.3670
  584SOL    HW1 1751   1.468   1.119   2.328 -0.1435 -2.3764  3.4468
  584SOL    HW2 1752   1.569   0.994   2.274 -0.4648  2.9310  1.3153
  585SOL     OW 1753   2.056   2.660   2.865  0.1218 -0.5723 -0.0932
  585SOL    HW1 1754   2.088   2.560   2.854  1.5383  2.2345 -2.7685
  585SOL    HW2 1755   1.953   2.682   2.871 -0.6017  2.8120 -1.1217
  586SOL     OW 1756   2.870   0.390   1.609  0.1455 -0.0525  0.5087
  586SOL    HW1 1757   2.857   0.477   1.653  0.1002 -0.3781 -2.4539
  586SOL    HW2 1758   2.786   0.321   1.604 -2.7480  0.1691  1.9160
  587SOL     OW 1759   2.143   1.474   2.738 -0.3049 -0.0407 -0.5753
  587SOL    HW1 1760   2.157   1.436   2.643 -0.8116  2.5082 -2.3894
  587SOL    HW2 1761   2.217   1.531   2.769 -4.4509  1.3770  0.2840
  588SOL     OW 1762   0.433   2.653   2.216 -0.4999  0.7574 -1.2922
  588SOL    HW1 1763   0.433   2.725   2.143  1.0562 -0.5357 -0.6332
  588SOL    HW2 1764   0.360   2.574   2.205 -2.6142 -1.3875  0.2824
  589SOL     OW 1765   2.162   1.378   2.477  0.0443 -0.1110 -0.3418
  589SOL    HW1 1766   2.085   1.320   2.435 -0.9267  2.0139  0.5903
  589SOL    HW2 1767   2.243   1.320   2.496 -0.3518 -0.2472 -1.1072
  590SOL     OW 1768   2.325   1.680   2.044 -0.4053  0.3486 -0.0788
  590SOL    HW1 1769   2.390   1.600   2.031 -0.1878  1.9334  2.3172
  590SOL    HW2 1770   2.341   1.740   2.132 -0.4873  0.4634 -0.6806
  591SOL     OW 1771   1.277   2.420   0.205  0.0642  0.3432 -0.5877
  591SOL    HW1 1772   1.351   2.352   0.172 -0.4379  1.8227 -0.0426
  591SOL    HW2 1773   1.266   2.420   0.307  0.0468  2.3767  1.5704
  592SOL     OW 1774   1.791   2.338   0.784 -0.1725 -0.1246 -0.1721
  592SOL    HW1 1775   1.772   2.393   0.697 -0.2879 -2.3242  1.3593
  592SOL    HW2 1776   1.887   2.305   0.783 -1.0340  1.7850 -1.8560
  593SOL     OW 1777   0.792   0.253   0.218  0.2706 -1.0063  0.5225
  593SOL    HW1 1778   0.828   0.207   0.132  1.6447 -1.2494 -0.1283
  593SOL    HW2 1779   0.760   0.349   0.200  2.0253 -1.5198  0.1067
  594SOL     OW 1780   0.961   1.809   2.693 -0.4997  0.1558  0.8003
  594SOL    HW1 1781   1.053   1.781   2.645 -1.6496  0.3007 -0.2807
  594SOL    HW2 1782   0.981   1.867   2.778  0.2752 -1.9894 -1.8809
  595SOL     OW 1783   1.570   0.105   1.020 -0.3375 -0.6515  0.7833
  595SOL    HW1 1784   1.658   0.057   0.987 -1.9983 -1.8801 -3.9296
  595SOL    HW2 1785   1.488   0.071   0.964 -0.3024  0.6526  0.3202
  596SOL     OW 1786   0.238   1.494   2.182  0.1526  0.1952  0.4090
  596SOL    HW1 1787   0.148   1.451   2.186  0.5260  3.3589 -0.9081
  596SOL    HW2 1788   0.272   1.517   2.279  0.8321  0.1289  3.4276
  597SOL     OW 1789   1.955   2.698   1.813  0.0830  0.0467 -0.3927
  597SOL    HW1 1790   1.936   2.667   1.712 -0.6043 -2.3839  2.0394
  597SOL    HW2 1791   2.036   2.649   1.859  0.9288  0.0382  0.8412
  598SOL     OW 1792   2.525   2.770   1.248 -0.3893 -0.1435  0.6006
  598SOL    HW1 1793   2.627   2.761   1.227 -1.3720  0.9278 -0.4364
  598SOL    HW2 1794   2.470   2.685   1.223 -0.7221  1.3460 -1.4457
  599SOL     OW 1795   2.895   0.309   2.509  0.2556 -0.4338  0.2517
  599SOL    HW1 1796   2.984   0.332   2.456  1.3208  2.9425 -1.6447
  599SOL    HW2 1797   2.818   0.364   2.463 -1.9413 -0.5634 -0.1602
  600SOL     OW 1798   2.737   1.208   2.736 -0.0946  0.1173 -0.0397
  600SOL    HW1 1799   2.646   1.169   2.768 -0.8853 -0.5841 -0.3961
  600SOL    HW2 1800   2.768   1.292   2.785 -1.1024 -1.5220  1.7286
  601SOL     OW 1801   3.033   1.380   1.881 -0.2551 -0.0114 -0.2769
  601SOL    HW1 1802   2.935   1.415   1.886 -2.0954 -1.5150  0.0371
  601SOL    HW2 1803   3.106   1.451   1.906  0.1638 -0.7419 -2.4159
  602SOL     OW 1804   1.484   1.586   2.363 -0.4924 -0.4178 -0.2735
  602SOL    HW1 1805   1.392   1.552   2.400 -1.9496 -0.2807  0.2730
  602SOL    HW2 1806   1.565   1.564   2.422  1.6974  1.5322 -0.3988
  603SOL     OW 1807   0.580   1.159   2.758  0.4088 -0.2746  0.2002
  603SOL    HW1 1808   0.505   1.198   2.693 -1.1895  0.9192 -0.9300
  603SOL    HW2 1809   0.606   1.061   2.741  0.4071  0.3908  1.2710
  604SOL     OW 1810   2.530   0.998   0.256  0.3635 -0.0543 -0.5910
  604SOL    HW1 1811   2.613   1.056   0.246  1.2751  0.0125 -1.2132
  604SOL    HW2 1812   2.526   0.927   0.182  2.9098 -2.1022 -0.5539
  605SOL     OW 1813   2.564   1.171   1.910 -0.4624 -0.2495  0.0679
  605SOL    HW1 1814   2.574   1.070   1.882  1.0880  0.8410 -1.0959
  605SOL    HW2 1815   2.577   1.191   2.011  0.7730 -0.7325 -1.4104
  606SOL     OW 1816   1.469   2.460   2.549 -0.1953 -0.0719  0.1202
  606SOL    HW1 1817   1.392   2.530   2.560  1.5516  0.2321 -1.0222
  606SOL    HW2 1818   1.427   2.366   2.530 -4.2871 -0.6133 -1.9092
  607SOL     OW 1819   1.275   1.595   0.258  0.1381  1.1332 -0.1196
  607SOL    HW1 1820   1.202   1.655   0.304 -0.6586 -1.6912 -1.0213
  607SOL    HW2 1821   1.370   1.640   0.234 -0.3935 -1.0316  0.9195
  608SOL     OW 1822   1.449   2.860   0.354 -0.0680  0.5448  0.1758
  608SOL    HW1 1823   1.523   2.893   0.289  1.2483  2.3315  2.6875
  608SOL    HW2 1824   1.384   2.938   0.377 -0.0794 -1.6916 -0.6462
  609SOL     OW 1825   1.253   1.307   0.199 -0.4107  0.4513  0.3626
  609SOL    HW1 1826   1.245   1.405   0.232 -1.5961 -3.4407  0.1146
  609SOL    HW2 1827   1.212   1.289   0.105 -2.5271 -0.2358  1.1726
  610SOL     OW 1828   3.077   1.222   2.104 -0.4417 -0.1350 -0.2311
  610SOL    HW1 1829   3.012   1.141   2.132 -2.9313 -2.8509 -1.6831
  610SOL    HW2 1830   3.063   1.266   2.010 -2.2916 -0.6458 -2.1370
  611SOL     OW 1831   2.585   0.186   1.175  0.4326  0.2428  0.2854
  611SOL    HW1 1832   2.526   0.102   1.195  0.8175  1.6922 -1.0319
  611SOL    HW2 1833   2.669   0.186   1.236 -1.3705  1.3626  0.3455
  612SOL     OW 1834   0.755   2.390   1.189  0.1525  0.4245 -0.6306
  612SOL    HW1 1835   0.719   2.293   1.197 -0.2828 -1.7658 -1.0929
  612SOL    HW2 1836   0.691   2.459   1.235  1.4711  2.8526 -0.3218
  613SOL     OW 1837   0.789   1.349   2.391  0.0450 -0.2678  0.4420
  613SOL    HW1 1838   0.804   1.427   2.320 -1.8827 -1.5686 -1.3283
  613SOL    HW2 1839   0.799   1.255   2.343 -0.1131 -0.7663  0.0865
  614SOL     OW 1840   1.508   1.683   1.954  0.0721  0.2610 -0.4659
  614SOL    HW1 1841   1.513   1.747   1.869 -0.3534  1.6072 -2.5297
  614SOL    HW2 1842   1.575   1.707   2.024  1.0807 -0.5624 -0.2623
  615SOL     OW 1843   0.718   1.437   1.687  0.2354 -0.2694 -0.0184
  615SOL    HW1 1844   0.677   1.399   1.603  0.3156 -0.3414 -1.1700
  615SOL    HW2 1845   0.824   1.428   1.697  1.4927  0.2805  0.8758
  616SOL     OW 1846   1.098   1.645   2.173  0.1195  0.3266 -0.4071
  616SOL    HW1 1847   0.995   1.624   2.179  0.8988  0.3401 -0.8741
  616SOL    HW2 1848   1.131   1.635   2.070 -0.6754 -0.4702 -0.2841
  617SOL     OW 1849   2.918   1.566   1.596  0.5544  0.1519  0.2659
  617SOL    HW1 1850   2.873   1.512   1.674 -0.8682 -2.3764 -1.1540
  617SOL    HW2 1851   2.940   1.500   1.519  0.7208  1.1956  0.5567
  618SOL     OW 1852   1.878   2.019   1.533  0.0460  0.5383  0.1584
  618SOL    HW1 1853   1.938   1.995   1.455 -1.4893 -0.7052  0.4121
  618SOL    HW2 1854   1.820   1.933   1.561 -1.4182  1.7783 -0.1158
  619SOL     OW 1855   1.790   0.511   2.409  0.2170 -0.0990  0.4091
  619SOL    HW1 1856   1.705   0.551   2.370  2.8487  1.8555  0.0907
  619SOL    HW2 1857   1.787   0.409   2.411 -0.4181  0.0617  1.3161
  620SOL     OW 1858   2.234   2.835   0.687 -0.0087  0.0893  0.6297
  620SOL    HW1 1859   2.135   2.850   0.695  0.2305  0.8598 -1.5377
  620SOL    HW2 1860   2.288   2.839   0.777  0.3041  0.1372  3.6701
  621SOL     OW 1861   2.127   1.932   1.341 -0.0168 -0.1836 -0.3126
  621SOL    HW1 1862   2.147   1.917   1.448  0.7165 -0.1645  0.7705
  621SOL    HW2 1863   2.098   1.839   1.299  0.0456  2.5397 -1.2840
  622SOL     OW 1864   2.188   0.932   1.740 -0.3903 -0.2067  0.1467
  622SOL    HW1 1865   2.234   0.836   1.742 -1.3549 -4.7227 -1.2987
  622SOL    HW2 1866   2.117   0.932   1.817  1.2824  1.7545  0.9248
  623SOL     OW 1867   1.282   0.887   2.541 -0.0142 -0.7450  0.2382
  623SOL    HW1 1868   1.224   0.848   2.614  1.7521 -1.9040 -1.0138
  623SOL    HW2 1869   1.241   0.872   2.447 -4.2667  0.1181  1.3783
  624SOL     OW 1870   0.539   0.637   3.082 -0.6272 -0.1792 -0.0871
  624SOL    HW1 1871   0.585   0.688   3.010 -3.0592  1.2693 -0.3709
  624SOL    HW2 1872   0.528   0.695   3.162  0.0681 -0.1166 -1.6536
  625SOL     OW 1873   2.826   1.794   0.822 -0.0338 -0.0848 -0.4563
  625SOL    HW1 1874   2.800   1.861   0.896  1.5160  0.2574 -1.1312
  625SOL    HW2 1875   2.743   1.734   0.794  1.3355 -1.6824 -2.2656
  626SOL     OW 1876   0.460   2.832   2.016 -0.2420 -0.1766 -0.5964
  626SOL    HW1 1877   0.531   2.906   1.991  1.4628  0.2279  1.2048
  626SOL    HW2 1878   0.374   2.848   1.955 -2.6035  1.2395  0.5062
  627SOL     OW 1879   0.705   0.953   1.569 -0.1534 -0.2373  0.7004
  627SOL    HW1 1880   0.756   0.862   1.594  0.8476 -2.5877  2.9378
  627SOL    HW2 1881   0.757   1.016   1.513 -0.1888 -1.8327 -0.5004
  628SOL     OW 1882   2.438   0.120   0.657 -0.1796 -0.0755 -0.2154
  628SOL    HW1 1883   2.487   0.057   0.594 -2.0697  0.4716  0.1227
  628SOL    HW2 1884   2.345   0.084   0.684 -0.0220 -2.5566 -2.1205
  629SOL     OW 1885   2.025   0.947   1.966  0.1506 -0.3681 -0.3164
  629SOL    HW1 1886   2.074   0.955   2.058 -0.6197 -0.6778 -2.8995
  629SOL    HW2 1887   1.986   1.039   1.942 -1.8022 -0.5661  0.6373
  630SOL     OW 1888   2.841   2.252   0.801  0.4725  0.5780  0.6059
  630SOL    HW1 1889   2.765   2.290   0.850  3.8090 -2.1936 -0.0047
  630SOL    HW2 1890   2.810   2.166   0.750  1.1079  1.0466  1.7999
  631SOL     OW 1891   3.049   0.209   2.145  0.3466  0.3373  0.4392
  631SOL    HW1 1892   3.077   0.240   2.240 -1.5988 -0.0321  0.6182
  631SOL    HW2 1893   3.120   0.236   2.070 -0.5480  1.8845  2.9912
  632SOL     OW 1894   2.414   2.529   0.723  0.3226 -0.1027 -0.5925
  632SOL    HW1 1895   2.509   2.554   0.769  1.3258  0.0676 -0.0741
  632SOL    HW2 1896   2.417   2.529   0.621 -1.7486 -0.7680 -0.3668
  633SOL     OW 1897   1.560   1.236   2.721  0.7949  0.2479 -0.2181
  633SOL    HW1 1898   1.515   1.329   2.748  0.6829  1.7272  0.5070
  633SOL    HW2 1899   1.496   1.189   2.649 -1.3357 -0.4751  0.3221
  634SOL     OW 1900   0.701   2.070   0.876  0.3438 -0.5039  0.3191
  634SOL    HW1 1901   0.606   2.084   0.929 -0.9108 -0.7795 -0.4036
  634SOL    HW2 1902   0.754   2.159   0.871  1.3403  0.3468 -1.7900
  635SOL     OW 1903   3.063   2.254   3.052 -0.4807  0.1758  0.0376
  635SOL    HW1 1904   2.989   2.294   2.989  0.0836 -0.1367  3.1888
  635SOL    HW2 1905   3.092   2.322   3.126 -0.4955 -3.4581  1.2932
  636SOL     OW 1906   2.324   2.818   1.960 -0.1713  0.3129  0.0194
  636SOL    HW1 1907   2.325   2.921   1.965 -3.3452 -0.4063  0.7226
  636SOL    HW2 1908   2.277   2.776   2.047  0.7651  0.6539  1.7726
  637SOL     OW 1909   2.557   0.733   2.083 -0.1404 -0.3422  0.2891
  637SOL    HW1 1910   2.523   0.733   1.986  1.0238  0.0475 -0.6311
  637SOL    HW2 1911   2.610   0.818   2.112 -1.4404  0.1920 -1.9840
  638SOL     OW 1912   2.420   1.911   1.358 -0.2403 -0.3584  0.4221
  638SOL    HW1 1913   2.322   1.936   1.335 -0.3109 -2.2338  0.8291
  638SOL    HW2 1914   2.449   1.822   1.319  1.0049 -2.4240 -2.8069
  639SOL     OW 1915   1.270   2.246   1.632 -0.6251 -0.6224 -0.0785
  639SOL    HW1 1916   1.258   2.207   1.538  0.2400  0.9972  1.9100
  639SOL    HW2 1917   1.214   2.194   1.702  0.4053 -0.7028  0.0344
  640SOL     OW 1918   0.245   1.143   1.546 -0.5838 -0.4421 -0.0435
  640SOL    HW1 1919   0.228   1.218   1.617 -0.7929 -2.8402 -0.2891
  640SOL    HW2 1920   0.343   1.143   1.508  0.7987  0.1126  1.7817
  641SOL     OW 1921   1.874   0.313   1.428  0.0841  0.0360 -0.4882
  641SOL    HW1 1922   1.839   0.404   1.471  1.5392  0.0577 -0.0415
  641SOL    HW2 1923   1.816   0.234   1.460 -1.9771 -2.5471 -1.2848
  642SOL     OW 1924   1.985   0.090   0.327  0.2531 -0.1721  0.0629
  642SOL    HW1 1925   2.086   0.076   0.331 -0.7189  0.8278  1.0023
  642SOL    HW2 1926   1.946   0.112   0.421 -0.5299 -0.0800  2.5939
  643SOL     OW 1927   2.867   1.884   2.103  0.4546  0.2254 -0.4542
  643SOL    HW1 1928   2.793   1.822   2.062  0.9369 -1.8595  0.2946
  643SOL    HW2 1929   2.874   1.981   2.066  2.4564 -1.0649 -2.6056
  644SOL     OW 1930   2.206   2.265   1.147 -0.2751  0.2780 -0.4045
  644SOL    HW1 1931   2.286   2.211   1.113 -1.7407  0.2472  2.4120
  644SOL    HW2 1932   2.188   2.272   1.248 -0.1022  2.0933 -1.9661
  645SOL     OW 1933   0.644   0.890   1.134 -0.9458  0.5599  0.4604
  645SOL    HW1 1934   0.559   0.836   1.112  1.2217 -1.0445  2.4269
  645SOL    HW2 1935   0.631   0.990   1.124  2.0052 -0.0233  0.1307
  646SOL     OW 1936   1.453   1.930   1.785 -0.3599 -0.0618  0.5496
  646SOL    HW1 1937   1.550   1.971   1.769 -0.0479 -0.6862 -0.1479
  646SOL    HW2 1938   1.392   1.959   1.862  0.1748  0.0843 -0.0336
  647SOL     OW 1939   0.870   0.858   0.670  0.3253  0.0264 -0.3176
  647SOL    HW1 1940   0.934   0.848   0.755  1.3520 -1.2577  0.8230
  647SOL    HW2 1941   0.767   0.854   0.682 -0.2362  2.6929 -2.5677
  648SOL     OW 1942   0.057   0.215   0.348  0.4371 -0.0902 -0.1312
  648SOL    HW1 1943   0.018   0.131   0.295  2.4540 -0.0985  0.2868
  648SOL    HW2 1944   0.051   0.303   0.296 -0.2993  0.9487 -1.2978
  649SOL     OW 1945   0.014   0.050   0.986 -1.2217 -0.1007 -0.4967
  649SOL    HW1 1946   0.103   0.000   0.970 -2.6598  0.6688  1.8297
  649SOL    HW2 1947   0.014   0.107   1.070  1.1597 -0.0398 -2.8801
  650SOL     OW 1948   2.703   0.700   1.463 -1.0031  0.1065 -0.0249
  650SOL    HW1 1949   2.610   0.701   1.505  1.2635 -0.7004 -1.0592
  650SOL    HW2 1950   2.712   0.779   1.398 -0.9442 -1.0708 -0.2957
  651SOL     OW 1951   0.917   1.546   1.468 -0.4054 -0.8209 -0.1719
  651SOL    HW1 1952   0.989   1.608   1.514 -0.4699  2.7880  1.8425
  651SOL    HW2 1953   0.836   1.594   1.431  0.0588 -1.2524  2.7945
  652SOL     OW 1954   2.212   2.552   2.373 -0.8235  0.5824 -0.0981
  652SOL    HW1 1955   2.148   2.548   2.449  1.8972 -0.8587 -2.7850
  652SOL    HW2 1956   2.181   2.626   2.304 -1.5806 -0.3114  0.8087
  653SOL     OW 1957   2.754   1.123   0.208 -0.1899 -0.0299  0.4651
  653SOL    HW1 1958   2.825   1.182   0.155  4.2620 -1.1487 -0.6513
  653SOL    HW2 1959   2.806   1.061   0.274 -2.3659  3.4795 -1.6055
  654SOL     OW 1960   1.217   2.234   1.240  0.2950 -0.0975  0.1657
  654SOL    HW1 1961   1.212   2.162   1.316 -3.2317  1.1217  1.4805
  654SOL    HW2 1962   1.282   2.220   1.160  0.6118  0.9346 -0.0370
  655SOL     OW 1963   0.219   1.037   1.919 -0.0492  0.3544 -0.1164
  655SOL    HW1 1964   0.257   0.967   1.854 -2.0439 -2.4748  1.6600
  655SOL    HW2 1965   0.287   1.109   1.943 -3.7934 -2.2444 -1.6916
  656SOL     OW 1966   2.438   2.475   2.534  0.0566  0.4123  0.1004
  656SOL    HW1 1967   2.539   2.487   2.514 -0.8598 -2.5158 -1.7951
  656SOL    HW2 1968   2.367   2.515   2.473  0.6302  1.1382  0.2146
  657SOL     OW 1969   3.039   1.092   1.835  0.0171 -0.2798 -0.5160
  657SOL    HW1 1970   3.039   1.196   1.816  0.3674  0.3766 -2.2944
  657SOL    HW2 1971   3.135   1.054   1.856 -1.1610  0.0086  0.1538
  658SOL     OW 1972   1.735   0.254   2.395  0.1856 -0.3044 -0.6970
  658SOL    HW1 1973   1.719   0.164   2.449 -1.1739 -3.0623  3.6536
  658SOL    HW2 1974   1.777   0.245   2.302 -0.5866  0.6997  2.5637
  659SOL     OW 1975   1.439   0.618   2.806 -0.2130  0.3523  0.2012
  659SOL    HW1 1976   1.525   0.671   2.828  3.1234 -2.5633 -1.6356
  659SOL    HW2 1977   1.358   0.672   2.763 -1.3364  1.6325 -0.0625
  660SOL     OW 1978   1.365   0.392   1.416  0.4998 -0.1178 -0.0862
  660SOL    HW1 1979   1.409   0.421   1.505 -0.1223 -1.7716 -2.6724
  660SOL    HW2 1980   1.429   0.341   1.358 -0.5125  0.7084 -0.1457
  661SOL     OW 1981   2.422   1.127   0.627  0.1519 -0.4170  0.1489
  661SOL    HW1 1982   2.478   1.057   0.575  0.0810 -0.6389 -0.4158
  661SOL    HW2 1983   2.354   1.180   0.567 -0.6649 -0.6689 -1.7524
  662SOL     OW 1984   1.312   0.456   1.878  0.3933  0.1608  0.4076
  662SOL    HW1 1985   1.251   0.367   1.874  0.8045 -1.3198 -1.6033
  662SOL    HW2 1986   1.307   0.510   1.973  0.7188  4.0520  0.7877
  663SOL     OW 1987   0.822   1.564   2.210 -0.4441  0.5449 -0.6276
  663SOL    HW1 1988   0.793   1.656   2.235 -1.4962 -4.7674 -2.5380
  663SOL    HW2 1989   0.791   1.540   2.113  0.7903  2.9196 -0.9298
  664SOL     OW 1990   1.597   2.092   1.426  0.2140 -0.1474  0.2449
  664SOL    HW1 1991   1.508   2.038   1.442 -0.4464 -0.0457 -1.7066
  664SOL    HW2 1992   1.673   2.057   1.486  0.8475 -1.8062  1.2439
  665SOL     OW 1993   2.189   0.628   2.000 -0.6110  0.6820  0.4083
  665SOL    HW1 1994   2.208   0.541   2.057  0.2265 -1.7950 -1.5998
  665SOL    HW2 1995   2.096   0.676   2.007 -1.6458 -1.3355 -0.9105
  666SOL     OW 1996   0.570   2.244   0.435 -0.1784  0.3054 -0.6518
  666SOL    HW1 1997   0.633   2.327   0.420 -0.4773  2.3739  1.1593
  666SOL    HW2 1998   0.522   2.241   0.524  1.8347  0.1899  0.6681
  667SOL     OW 1999   2.088   0.217   1.024  0.6090  0.3210  0.5419
  667SOL    HW1 2000   2.154   0.285   0.993  0.6795 -3.5240 -1.1642
  667SOL    HW2 2001   2.015   0.254   1.094  0.3473  0.0303  1.6692
  668SOL     OW 2002   2.026   0.578   1.253  0.2975 -0.5511 -0.0359
  668SOL    HW1 2003   2.070   0.552   1.167 -1.6623 -2.6079  0.0068
  668SOL    HW2 2004   2.064   0.528   1.337 -2.0034  0.4431  1.2915
  669SOL     OW 2005   3.041   2.275   0.973  0.5806  0.2779  0.0881
  669SOL    HW1 2006   2.967   2.274   0.899  3.1319  3.3004 -1.6614
  669SOL    HW2 2007   2.998   2.254   1.060 -0.0344  1.2435 -2.8885
  670SOL     OW 2008   2.809   2.387   2.015  0.1880  0.4534 -0.6466
  670SOL    HW1 2009   2.756   2.375   2.103  0.8618 -0.7782 -1.2543
  670SOL    HW2 2010   2.784   2.480   1.971 -2.3634  0.6792 -0.1093
  671SOL     OW 2011   1.651   1.756   1.456 -0.6123 -0.2036 -0.3754
  671SOL    HW1 2012   1.690   1.778   1.363 -0.1169 -1.6895  2.1074
  671SOL    HW2 2013   1.545   1.771   1.469 -0.9370  0.5891  0.7130
  672SOL     OW 2014   0.422   0.691   2.445 -0.1324  0.8560  0.3410
  672SOL    HW1 2015   0.427   0.694   2.343 -0.7446 -0.8172  0.6244
  672SOL    HW2 2016   0.341   0.731   2.487  2.4208 -0.6930 -1.1753
  673SOL     OW 2017   0.128   1.225   1.137  0.2434 -0.3242  0.0070
  673SOL    HW1 2018   0.128   1.287   1.219  1.3147 -2.1016  3.6401
  673SOL    HW2 2019   0.224   1.190   1.116  0.5254 -0.7748  0.2514
  674SOL     OW 2020   1.605   2.945   0.120  0.0773 -0.1948 -0.4242
  674SOL    HW1 2021   1.616   3.050   0.109  0.1944  2.3114 -0.0999
  674SOL    HW2 2022   1.676   2.896   0.064  0.4404  1.3916 -0.8135
  675SOL     OW 2023   1.727   0.868   2.332  0.1027  0.3662 -0.3790
  675SOL    HW1 2024   1.833   0.859   2.331  0.1614  0.5632 -1.4498
  675SOL    HW2 2025   1.675   0.789   2.284 -3.1506 -0.4287 -1.1698
  676SOL     OW 2026   2.530   1.511   1.970 -0.3575  0.2486 -0.5109
  676SOL    HW1 2027   2.491   1.474   1.883  2.3589 -3.8613 -0.8224
  676SOL    HW2 2028   2.554   1.435   2.039  1.0160  1.6635 -0.4424
  677SOL     OW 2029   1.929   0.535   0.951 -0.2498 -0.3602 -0.2643
  677SOL    HW1 2030   1.905   0.641   0.963  1.2757  1.4549  1.6803
  677SOL    HW2 2031   1.898   0.477   1.031  0.1871  0.8456  5.1328
  678SOL     OW 2032   0.085   0.719   1.713  0.1809  0.3530  0.6493
  678SOL    HW1 2033   0.158   0.787   1.735  0.2200 -0.2455 -0.4743
  678SOL    HW2 2034   0.007   0.723   1.777  0.8958  1.5195 -1.4155
  679SOL     OW 2035   2.509   1.119   1.138  0.3925 -0.0794 -0.1931
  679SOL    HW1 2036   2.403   1.117   1.140 -1.9250  0.5905 -0.1412
  679SOL    HW2 2037   2.543   1.033   1.090 -0.4728  0.6215  0.2167
  680SOL     OW 2038   2.836   0.647   1.703 -0.8098  0.0399  0.0051
  680SOL    HW1 2039   2.790   0.687   1.615 -1.0331  1.3124  0.1813
  680SOL    HW2 2040   2.868   0.726   1.765 -0.9390 -0.4869  4.0329
  681SOL     OW 2041   3.084   0.194   1.667  0.2327 -0.0363  0.3482
  681SOL    HW1 2042   3.138   0.153   1.587  0.8782  0.5173  0.5802
  681SOL    HW2 2043   3.023   0.268   1.638  1.9295 -1.7928  0.1636
  682SOL     OW 2044   0.738   3.066   1.377  0.3157  0.0205  0.4283
  682SOL    HW1 2045   0.671   3.011   1.430 -1.0644 -0.1386 -0.0760
  682SOL    HW2 2046   0.741   3.053   1.275 -2.3656 -0.9696 -1.4228
  683SOL     OW 2047   1.392   0.232   2.204 -0.8141 -0.2131  0.2679
  683SOL    HW1 2048   1.407   0.317   2.259 -1.0529  1.0137  1.6478
  683SOL    HW2 2049   1.473   0.216   2.136  1.9062  0.2191  0.0815
  684SOL     OW 2050   1.455   2.122   0.478  0.6053  0.1130  0.0859
  684SOL    HW1 2051   1.506   2.068   0.551 -0.3153 -1.4166 -0.9594
  684SOL    HW2 2052   1.367   2.077   0.445  1.2576 -1.0502  0.1420
  685SOL     OW 2053   2.131   1.943   2.001 -0.0392  0.2716 -0.8041
  685SOL    HW1 2054   2.182   2.004   1.934 -0.1161 -0.0491  0.2420
  685SOL    HW2 2055   2.195   1.877   2.048 -1.3891 -0.0739  0.0795
  686SOL     OW 2056   1.501   1.738   2.707  0.3417  0.3769  0.5521
  686SOL    HW1 2057   1.473   1.638   2.691  1.5923  0.2960  1.1208
  686SOL    HW2 2058   1.516   1.753   2.809 -0.4525 -2.3673 -2.0956
  687SOL     OW 2059   1.354   2.493   1.939  0.2120  0.0315  0.1606
  687SOL    HW1 2060   1.381   2.394   1.910  3.4016  0.9567  0.9557
  687SOL    HW2 2061   1.420   2.518   2.014  0.5923 -1.7995  1.6873
  688SOL     OW 2062   2.056   1.502   1.539 -0.5323  0.2806 -0.2590
  688SOL    HW1 2063   2.145   1.554   1.537 -0.5731 -1.5647  0.8320
  688SOL    HW2 2064   2.019   1.476   1.446 -3.9394 -0.0945  0.3107
  689SOL     OW 2065   2.453   1.080   2.775  0.4517 -0.5395  0.9777
  689SOL    HW1 2066   2.354   1.055   2.807  0.4674 -2.0169  0.9688
  689SOL    HW2 2067   2.530   1.033   2.829  0.0448  3.3485 -2.4958
  690SOL     OW 2068   2.227   2.790   3.053  0.4313 -0.3382  0.1231
  690SOL    HW1 2069   2.147   2.743   3.004 -3.7961 -1.9880  2.4419
  690SOL    HW2 2070   2.199   2.846   3.137 -0.8604 -1.0677 -1.3102
  691SOL     OW 2071   2.610   0.484   2.175 -0.0183  0.3656  0.3667
  691SOL    HW1 2072   2.681   0.433   2.121  0.2348 -0.6305 -0.0271
  691SOL    HW2 2073   2.584   0.575   2.132  0.3454  0.9285  1.2515
  692SOL     OW 2074   2.712   1.157   0.698  0.1320 -0.4219 -0.0818
  692SOL    HW1 2075   2.622   1.172   0.640 -1.8004  0.6406  0.7780
  692SOL    HW2 2076   2.721   1.223   0.776 -3.3289 -4.1260  1.6398
  693SOL     OW 2077   2.829   2.923   0.617 -0.2636  0.2086 -0.3692
  693SOL    HW1 2078   2.845   2.980   0.701  0.8347 -0.9176  0.0847
  693SOL    HW2 2079   2.760   2.969   0.551 -0.1775 -0.3854 -1.2817
  694SOL     OW 2080   2.416   2.206   0.074 -0.3613  0.0218  0.3068
  694SOL    HW1 2081   2.381   2.274   0.139  0.1046  1.4106  0.9536
  694SOL    HW2 2082   2.349   2.123   0.066 -0.3009 -0.4884 -2.7675
  695SOL     OW 2083   0.542   2.939   1.533  0.4332  0.5056  0.3325
  695SOL    HW1 2084   0.488   2.851   1.521 -0.1777 -1.0176  2.2804
  695SOL    HW2 2085   0.481   3.015   1.576  0.9449 -0.4192  0.2199
  696SOL     OW 2086   2.720   2.017   0.696  0.3513 -0.4923  0.3048
  696SOL    HW1 2087   2.787   1.946   0.732  2.3775 -1.1968 -1.3631
  696SOL    HW2 2088   2.670   1.996   0.604  2.2711 -0.0476 -0.9972
  697SOL     OW 2089   1.690   2.077   1.769  0.6441  0.3993  0.3717
  697SOL    HW1 2090   1.756   2.005   1.802 -2.0083  0.1536  0.3222
  697SOL    HW2 2091   1.735   2.171   1.776  0.3158  1.3520  3.0216
  698SOL     OW 2092   2.904   0.365   2.824 -0.2045  0.1217  0.1340
  698SOL    HW1 2093   2.910   0.368   2.718  0.8478 -2.1648  0.8509
  698SOL    HW2 2094   2.985   0.315   2.859  1.8553  0.2170 -2.5341
  699SOL     OW 2095   1.527   0.115   2.943 -0.8680 -0.4752 -0.0734
  699SOL    HW1 2096   1.482   0.029   2.904 -0.9556  0.1383  1.1413
  699SOL    HW2 2097   1.587   0.157   2.867  2.3216 -1.4780  1.0379
  700SOL     OW 2098   0.971   2.462   1.377 -0.3659 -0.1427 -0.2601
  700SOL    HW1 2099   1.071   2.477   1.347 -0.2915  1.7534  1.7649
  700SOL    HW2 2100   0.910   2.467   1.296 -0.4928 -0.7469  1.2718
  701SOL     OW 2101   1.834   2.870   3.068 -0.1340  0.5627 -0.2337
  701SOL    HW1 2102   1.866   2.791   3.129  0.6319  0.7344 -1.2262
  701SOL    HW2 2103   1.854   2.962   3.113  2.2480 -0.1783 -0.0041
  702SOL     OW 2104   2.116   1.366   1.816 -0.1116  0.3257  0.2192
  702SOL    HW1 2105   2.207   1.307   1.814 -0.0358 -2.0986 -1.6096
  702SOL    HW2 2106   2.096   1.403   1.723  0.5075 -2.1462 -1.0874
  703SOL     OW 2107   2.007   0.888   1.465  0.1632 -0.2341 -0.2977
  703SOL    HW1 2108   1.980   0.808   1.531 -2.2198 -0.1253  0.4371
  703SOL    HW2 2109   2.023   0.976   1.519  0.0004  0.5905 -0.2332
  704SOL     OW 2110   0.335   2.029   1.738  0.5939 -0.0723  0.0607
  704SOL    HW1 2111   0.358   1.979   1.824  2.1957  0.1523 -3.2026
  704SOL    HW2 2112   0.390   2.113   1.724  0.8121  0.9508  1.1408
  705SOL     OW 2113   2.518   1.464   0.868 -0.4310 -0.2483  0.5404
  705SOL    HW1 2114   2.456   1.390   0.906 -1.2043 -0.3965  0.8905
  705SOL    HW2 2115   2.614   1.435   0.880 -0.3290  1.2818 -1.8609
  706SOL     OW 2116   0.651   1.747   1.871  0.1014 -0.3939  0.0857
  706SOL    HW1 2117   0.675   1.658   1.914 -0.2206 -1.0498 -0.5431
  706SOL    HW2 2118   0.723   1.821   1.890  1.7126 -3.5625 -0.7113
  707SOL     OW 2119   2.353   1.196   1.745 -0.5062 -0.2224  0.4609
  707SOL    HW1 2120   2.432   1.201   1.813 -1.9744 -1.2402 -0.3461
  707SOL    HW2 2121   2.309   1.104   1.747  1.5108  1.5617 -1.2106
  708SOL     OW 2122   3.009   0.528   3.051  0.1797  0.3887 -0.1947
  708SOL    HW1 2123   3.044   0.593   2.981 -1.1100  0.4424 -1.4892
  708SOL    HW2 2124   3.035   0.425   3.041  0.3861 -4.0438 -3.1913
  709SOL     OW 2125   1.749   1.868   0.196  0.1811  0.5002 -0.0597
  709SOL    HW1 2126   1.811   1.918   0.261 -3.3593  2.4463 -2.1519
  709SOL    HW2 2127   1.755   1.896   0.097 -1.2074 -1.0410 -2.4200
  710SOL     OW 2128   1.742   1.650   2.483  0.3553 -0.8001  0.7386
  710SOL    HW1 2129   1.783   1.625   2.386 -0.9585  0.5375 -2.4365
  710SOL    HW2 2130   1.806   1.633   2.566 -2.0350  0.4162  2.7741
  711SOL     OW 2131   2.637   2.865   0.947  0.5298  0.1337 -0.6023
  711SOL    HW1 2132   2.632   2.969   0.959  2.4393 -1.1315  0.9706
  711SOL    HW2 2133   2.724   2.827   0.994  0.6793 -2.5788 -1.9303
  712SOL     OW 2134   1.488   2.281   1.808 -0.1649 -0.1469  1.0653
  712SOL    HW1 2135   1.544   2.195   1.804  0.3094  1.0661  0.4136
  712SOL    HW2 2136   1.434   2.298   1.719 -0.5090  1.6043  2.6316
  713SOL     OW 2137   2.868   1.278   2.485  0.5668 -0.4988 -0.8943
  713SOL    HW1 2138   2.892   1.178   2.461 -2.4724  0.6503  0.0960
  713SOL    HW2 2139   2.810   1.283   2.572  0.3488  0.8901 -0.5987
  714SOL     OW 2140   2.652   0.438   2.434  0.5072  0.2541  0.1088
  714SOL    HW1 2141   2.573   0.390   2.480 -0.4463 -0.3456 -0.2625
  714SOL    HW2 2142   2.636   0.453   2.332  0.1936  1.4777 -0.3244
  715SOL     OW 2143   1.614   2.109   1.138  0.0144 -0.3391  0.6410
  715SOL    HW1 2144   1.555   2.181   1.097 -0.9840 -2.7506  1.3764
  715SOL    HW2 2145   1.612   2.101   1.244 -1.9781  0.4446 -0.9456
  716SOL     OW 2146   1.162   0.151   1.454  0.1507 -0.1288  0.1656
  716SOL    HW1 2147   1.060   0.175   1.468 -1.6173  3.8856 -0.8018
  716SOL    HW2 2148   1.218   0.239   1.451  3.5139  0.5354 -1.7605
  717SOL     OW 2149   1.091   0.530   1.598  0.3422  0.3328 -0.1496
  717SOL    HW1 2150   1.182   0.573   1.623  1.5426 -2.5850 -1.6467
  717SOL    HW2 2151   1.075   0.519   1.495 -0.2844  1.6074  1.9261
  718SOL     OW 2152   0.608   1.165   1.021 -0.3285  0.3265  0.0195
  718SOL    HW1 2153   0.635   1.174   0.921 -0.5327  2.4802 -0.3129
  718SOL    HW2 2154   0.669   1.219   1.082 -0.4149  1.0609 -0.2109
  719SOL     OW 2155   0.699   1.825   2.237  0.5558 -0.4929  0.1046
  719SOL    HW1 2156   0.758   1.863   2.313  0.0124  0.0572 -3.3025
  719SOL    HW2 2157   0.600   1.859   2.233 -2.2015 -1.7400 -1.8657
  720SOL     OW 2158   2.307   1.143   0.258 -0.0695  0.6029  0.1891
  720SOL    HW1 2159   2.389   1.083   0.264 -2.2875 -3.1954  1.8815
  720SOL    HW2 2160   2.263   1.167   0.347  3.3402  2.1117  2.7000
  721SOL     OW 2161   2.311   3.079   2.050  0.1465 -0.4007  0.3719
  721SOL    HW1 2162   2.314   3.165   1.988  1.8141  1.3329  1.0602
  721SOL    HW2 2163   2.212   3.046   2.061 -1.2470 -1.6097 -0.0635
  722SOL     OW 2164   2.446   1.709   0.506  0.2644  0.2929  0.2871
  722SOL    HW1 2165   2.447   1.632   0.432 -1.4488  0.7277  1.5472
  722SOL    HW2 2166   2.356   1.703   0.560  1.0043  2.3355  0.1646
  723SOL     OW 2167   2.605   2.864   1.886 -0.2448 -0.3560 -0.3799
  723SOL    HW1 2168   2.647   2.920   1.967  0.4113  0.9225  0.8402
  723SOL    HW2 2169   2.503   2.854   1.902  1.6678 -4.8838  0.7471
  724SOL     OW 2170   0.315   2.372   2.359 -0.0925  0.1404  0.0249
  724SOL    HW1 2171   0.236   2.440   2.356 -3.0855  0.0005 -2.0767
  724SOL    HW2 2172   0.373   2.373   2.453 -0.0842  0.4896  1.4773
  725SOL     OW 2173   2.349   2.796   1.479  0.5438 -0.5854  0.3485
  725SOL    HW1 2174   2.430   2.799   1.412 -1.5334  1.3677  1.8374
  725SOL    HW2 2175   2.323   2.698   1.508 -2.5459  3.5453 -2.8755
  726SOL     OW 2176   2.377   2.262   0.724  0.2275  0.7942 -0.9963
  726SOL    HW1 2177   2.384   2.366   0.711 -0.4087  3.7707 -1.5213
  726SOL    HW2 2178   2.332   2.217   0.645 -0.1058 -0.0048  0.4814
  727SOL     OW 2179   0.237   0.007   0.117  0.0785 -0.2344 -0.1308
  727SOL    HW1 2180   0.317  -0.056   0.137  0.0989 -0.7655 -0.5452
  727SOL    HW2 2181   0.259   0.097   0.070 -0.7442 -0.5887 -2.2237
  728SOL     OW 2182   2.799   0.661   1.058  0.4119  0.3173 -0.3037
  728SOL    HW1 2183   2.756   0.619   0.973 -0.7620 -2.0393 -1.0489
  728SOL    HW2 2184   2.779   0.601   1.141 -1.9444 -0.2984 -1.6620
  729SOL     OW 2185   2.989   2.455   0.722 -0.4397 -0.1881  0.4552
  729SOL    HW1 2186   2.933   2.372   0.743 -2.6315  0.9851 -2.4397
  729SOL    HW2 2187   3.096   2.436   0.715 -1.4177  0.3839  2.0106
  730SOL     OW 2188   2.631   0.589   0.843 -0.0428  0.0535  0.0457
  730SOL    HW1 2189   2.578   0.676   0.807 -1.2128  1.7393  1.5801
  730SOL    HW2 2190   2.677   0.538   0.762 -1.3964 -0.5572  1.4936
  731SOL     OW 2191   0.202   2.178   2.485  0.0223 -0.2454 -0.3263
  731SOL    HW1 2192   0.215   2.186   2.588  3.4054  0.9597  3.5577
  731SOL    HW2 2193   0.244   2.260   2.430  2.1758 -2.1718  1.2353
  732SOL     OW 2194   1.114   2.851   2.035  0.0261 -0.2508 -0.4687
  732SOL    HW1 2195   1.140   2.797   2.118  2.7460 -2.0044 -1.4929
  732SOL    HW2 2196   1.166   2.818   1.952 -1.3900 -0.7793 -1.7818
  733SOL     OW 2197   3.023   0.704   2.114  0.0005  0.5624  0.0583
  733SOL    HW1 2198   3.112   0.758   2.112  0.5406 -0.7099  1.1130
  733SOL    HW2 2199   3.027   0.613   2.065  0.7630  2.7129 -0.4262
  734SOL     OW 2200   1.383   0.360   2.693 -0.0160 -0.2438 -0.0204
  734SOL    HW1 2201   1.380   0.451   2.738 -0.7080 -2.1771 -1.3016
  734SOL    HW2 2202   1.301   0.300   2.729 -1.3772  0.6358  1.5949
  735SOL     OW 2203   2.809   2.669   2.301  0.1959  0.3122  0.2454
  735SOL    HW1 2204   2.710   2.662   2.264  0.6347 -1.3471  2.1857
  735SOL    HW2 2205   2.884   2.674   2.231  0.2182  1.5500  2.6708
  736SOL     OW 2206   0.801   0.354   2.563 -0.2859  0.0516  0.2592
  736SOL    HW1 2207   0.752   0.441   2.552 -0.5411 -2.3868  1.3585
  736SOL    HW2 2208   0.849   0.321   2.477  2.7751 -0.7130  1.4954
  737SOL     OW 2209   2.653   0.407   2.911 -0.2973  0.0056 -0.1831
  737SOL    HW1 2210   2.617   0.444   2.999 -0.2959 -1.0356 -1.7722
  737SOL    HW2 2211   2.754   0.391   2.906 -2.4286  0.0965  0.7602
  738SOL     OW 2212   1.661   1.115   0.041  0.1953 -0.4568 -0.0768
  738SOL    HW1 2213   1.761   1.089   0.017 -1.2288 -1.7989  0.0190
  738SOL    HW2 2214   1.598   1.031   0.031  1.8084  0.4746  0.8511
  739SOL     OW 2215   1.823   0.556   0.697 -0.2056  0.2220 -0.0876
  739SOL    HW1 2216   1.870   0.532   0.788  2.3304  1.8925 -0.3603
  739SOL    HW2 2217   1.862   0.509   0.611  2.9173 -1.4455 -0.8974
  740SOL     OW 2218   1.918   2.066   2.161  0.0437 -0.0286  0.2365
  740SOL    HW1 2219   1.986   2.002   2.112  3.0756 -0.9515 -0.1320
  740SOL    HW2 2220   1.820   2.053   2.131  0.8018 -0.7156 -1.7514
  741SOL     OW 2221   2.561   0.020   2.567  0.1761  0.0020 -0.3450
  741SOL    HW1 2222   2.662   0.037   2.562  0.0002  0.8746 -0.5230
  741SOL    HW2 2223   2.504   0.040   2.477 -0.2690 -4.2495 -3.0543
  742SOL     OW 2224   2.259   1.409   0.093 -0.1010 -0.3064  0.7277
  742SOL    HW1 2225   2.187   1.471   0.129  0.1923  0.5032 -0.3798
  742SOL    HW2 2226   2.269   1.312   0.127 -1.0613 -0.5543  0.3439
  743SOL     OW 2227   1.737   0.649   2.660 -0.3148 -0.0937 -0.4860
  743SOL    HW1 2228   1.765   0.595   2.578 -2.7566 -0.0397  2.6635
  743SOL    HW2 2229   1.659   0.721   2.646 -0.5082  0.4157  0.8774
  744SOL     OW 2230   2.680   2.140   0.148  0.0326  0.2570  0.9140
  744SOL    HW1 2231   2.578   2.164   0.131  2.6302 -3.9698 -0.9643
  744SOL    HW2 2232   2.694   2.038   0.138  1.1298  2.3557 -0.0530
  745SOL     OW 2233   2.195   2.755   2.194 -0.1537 -0.0894  0.3355
  745SOL    HW1 2234   2.090   2.756   2.164  0.8141 -2.1310 -0.8332
  745SOL    HW2 2235   2.211   2.790   2.287 -1.5088 -0.5692 -1.5121
  746SOL     OW 2236   3.089   2.628   1.804  0.4980  0.5369  0.0044
  746SOL    HW1 2237   3.187   2.627   1.776 -0.5260 -0.8001 -0.7375
  746SOL    HW2 2238   3.059   2.720   1.827  3.1996  0.3523 -0.3686
  747SOL     OW 2239   3.083   1.769   1.682 -0.6298 -0.0148 -0.3730
  747SOL    HW1 2240   3.032   1.689   1.640  2.0738 -0.6858 -0.1114
  747SOL    HW2 2241   3.160   1.805   1.622  1.0027 -0.6484 -2.1148
  748SOL     OW 2242   1.772   2.740   2.830  0.4763  0.4838 -0.4779
  748SOL    HW1 2243   1.805   2.784   2.916  0.1390 -0.0492 -0.5205
  748SOL    HW2 2244   1.672   2.762   2.825  2.9722 -0.9839  1.6971
  749SOL     OW 2245   1.342   0.065   0.847 -0.2614 -0.2163 -0.8728
  749SOL    HW1 2246   1.297  -0.027   0.842  1.5919  0.8389 -0.3288
  749SOL    HW2 2247   1.341   0.111   0.751 -0.2554  0.1738 -0.3786
  750SOL     OW 2248   2.303   0.234   1.916  0.5667  0.2456  0.2342
  750SOL    HW1 2249   2.339   0.281   1.826  3.0217 -0.6619 -2.2576
  750SOL    HW2 2250   2.326   0.292   1.999 -0.7438 -1.4780 -0.9994
  751SOL     OW 2251   0.849   2.232   2.922  0.2472 -0.3365 -0.3574
  751SOL    HW1 2252   0.942   2.210   2.962  2.5246 -0.6273  0.2140
  751SOL    HW2 2253   0.781   2.151   2.928 -1.4871  0.4589  2.0250
  752SOL     OW 2254   1.256   0.841   1.473  0.4599 -0.1623 -0.1568
  752SOL    HW1 2255   1.307   0.931   1.470  0.1427 -1.3754 -0.6536
  752SOL    HW2 2256   1.314   0.763   1.506 -2.2124 -1.8319 -0.3290
  753SOL     OW 2257   0.907   2.572   1.757  0.0891 -0.4005  0.4505
  753SOL    HW1 2258   0.973   2.600   1.682 -1.0376 -1.3506 -0.1683
  753SOL    HW2 2259   0.826   2.635   1.772  1.3770  1.6268  2.6580
  754SOL     OW 2260   1.134   1.346   3.046  0.0425 -0.4908  0.2045
  754SOL    HW1 2261   1.169   1.267   2.984 -0.2783  1.1733 -1.6172
  754SOL    HW2 2262   1.144   1.436   2.995  1.3008  2.0843  1.2966
  755SOL     OW 2263   2.042   0.544   2.307  0.1743  0.0838  0.6679
  755SOL    HW1 2264   2.105   0.466   2.338 -1.8225 -1.0692 -0.9659
  755SOL    HW2 2265   1.943   0.535   2.348 -0.4581  0.2946  0.3603
  756SOL     OW 2266   2.634   0.954   2.924 -0.1367 -0.4118 -0.1877
  756SOL    HW1 2267   2.685   0.891   2.864 -2.5585 -0.1341 -1.4077
  756SOL    HW2 2268   2.595   0.908   3.007  1.9555 -1.5074  0.6068
  757SOL     OW 2269   0.138   0.457   1.748 -0.4273  0.1445  0.3898
  757SOL    HW1 2270   0.119   0.562   1.726  0.9493  1.1184  2.0462
  757SOL    HW2 2271   0.207   0.420   1.685  0.0677 -1.2290  2.4617
  758SOL     OW 2272   2.478   0.056   1.502  0.1960 -0.2605 -0.0657
  758SOL    HW1 2273   2.397   0.018   1.556  3.4604 -3.1153  1.6496
  758SOL    HW2 2274   2.482   0.017   1.403  0.4906 -0.5611 -0.7990
  759SOL     OW 2275   1.682   0.146   0.078  0.3302  0.1690  0.5208
  759SOL    HW1 2276   1.629   0.152  -0.013  0.6241 -0.0057  0.9509
  759SOL    HW2 2277   1.772   0.091   0.058 -1.3702 -1.9685 -0.9551
  760SOL     OW 2278   2.745   1.972   2.766 -0.0481  0.4256  0.0832
  760SOL    HW1 2279   2.752   1.877   2.721  2.2936 -0.4213 -2.1327
  760SOL    HW2 2280   2.793   2.042   2.709 -0.5897 -0.4475 -0.1913
  761SOL     OW 2281   1.839   1.696   1.659 -0.0618 -0.5362  0.1853
  761SOL    HW1 2282   1.897   1.615   1.638  1.5319  0.2671  0.7049
  761SOL    HW2 2283   1.756   1.701   1.592 -2.7819 -0.4483 -1.4243
  762SOL     OW 2284   0.500   2.400   1.021 -0.2337  0.1180  0.3085
  762SOL    HW1 2285   0.534   2.443   0.929 -1.1266 -0.3082 -0.8481
  762SOL    HW2 2286   0.474   2.474   1.083  1.2544  1.4689 -0.9058
  763SOL     OW 2287   1.995   1.556   2.961  0.0235  0.1274  0.4621
  763SOL    HW1 2288   2.061   1.506   2.898 -0.5219 -1.9768 -0.0520
  763SOL    HW2 2289   1.923   1.490   3.004 -1.6515 -2.1760 -0.8594
  764SOL     OW 2290   0.699   0.602   0.817 -0.4683 -0.0296  0.2274
  764SOL    HW1 2291   0.699   0.567   0.718  3.8450  1.5393  1.8165
  764SOL    HW2 2292   0.778   0.567   0.876 -0.6096  1.8439 -0.7576
  765SOL     OW 2293   0.614   0.203   0.779 -0.0309 -0.4640  0.1488
  765SOL    HW1 2294   0.707   0.212   0.737  0.5223 -1.0060 -0.7072
  765SOL    HW2 2295   0.613   0.189   0.885  0.1672 -2.3461 -0.4956
  766SOL     OW 2296   2.930   1.998   2.953 -1.2044  0.4826  0.4175
  766SOL    HW1 2297   2.850   2.009   2.887 -0.8349 -0.9332  0.4329
  766SOL    HW2 2298   2.984   2.086   2.975 -0.7983  3.4815 -0.7759
  767SOL     OW 2299   2.744   1.549   0.502  1.0319 -0.3535  0.0985
  767SOL    HW1 2300   2.701   1.579   0.593 -1.1413  0.4447  1.5563
  767SOL    HW2 2301   2.788   1.629   0.452 -2.0380  1.0134 -0.3151
  768SOL     OW 2302   1.037   0.303   0.278 -0.1015 -0.1101  0.0151
  768SOL    HW1 2303   0.946   0.260   0.266 -1.3268  0.6829 -0.2463
  768SOL    HW2 2304   1.120   0.243   0.268 -1.4549  0.6197  1.3946
  769SOL     OW 2305   1.353   1.784   2.183 -0.0824  0.1429 -0.6898
  769SOL    HW1 2306   1.434   1.739   2.227 -3.3503  1.0032  0.2978
  769SOL    HW2 2307   1.265   1.735   2.205 -2.8165  0.2145 -1.2450
  770SOL     OW 2308   0.187   1.172   2.269  0.2945  0.5357 -0.0582
  770SOL    HW1 2309   0.158   1.209   2.360 -0.2863  0.8340 -0.0878
  770SOL    HW2 2310   0.117   1.196   2.195  1.0605 -2.5307  2.9995
  771SOL     OW 2311   2.963   2.865   1.869  0.0139  0.2342 -0.0743
  771SOL    HW1 2312   2.942   2.941   1.801 -0.8764  1.2207 -0.2164
  771SOL    HW2 2313   2.969   2.904   1.969 -2.3299  0.0243  2.0506
  772SOL     OW 2314   2.160   0.038   3.023 -0.2090 -0.6173 -0.0441
  772SOL    HW1 2315   2.239  -0.012   2.978  2.2919 -3.9891  0.3105
  772SOL    HW2 2316   2.177   0.144   3.038 -1.1619  3.0231 -0.6597
  773SOL     OW 2317   0.685   2.155   2.445 -0.5186  0.3905 -0.1418
  773SOL    HW1 2318   0.649   2.210   2.367  2.2755  3.2252 -0.4188
  773SOL    HW2 2319   0.620   2.145   2.527 -1.4549 -0.6571  2.8699
  774SOL     OW 2320   1.993   0.013   2.651  0.3267  0.5024 -0.1620
  774SOL    HW1 2321   2.007   0.105   2.693  1.9641 -1.0864 -3.2528
  774SOL    HW2 2322   2.044  -0.063   2.699  0.3945 -2.8395 -0.8818
  775SOL     OW 2323   2.478   2.890   2.325 -0.2466  0.2031  0.1325
  775SOL    HW1 2324   2.438   2.981   2.299  1.8532 -1.2558  1.8344
  775SOL    HW2 2325   2.549   2.899   2.400 -2.0145  0.4039 -1.6933
  776SOL     OW 2326   0.026   1.208   0.274 -0.3124  0.6444  0.4393
  776SOL    HW1 2327  -0.037   1.252   0.207 -0.2813 -0.5271  1.5308
  776SOL    HW2 2328  -0.011   1.221   0.370 -1.1296  1.3948  1.3054
  777SOL     OW 2329   0.339   2.738   0.362  0.5336  0.5715 -0.5745
  777SOL    HW1 2330   0.240   2.713   0.373  1.8687  0.7511  0.5853
  777SOL    HW2 2331   0.367   2.827   0.399 -1.2236 -2.5159 -0.1289
  778SOL     OW 2332   1.286   1.997   0.139  0.1109 -0.0308 -0.3474
  778SOL    HW1 2333   1.229   2.008   0.229 -2.4019 -1.2724  0.3577
  778SOL    HW2 2334   1.338   2.086   0.118 -1.9325  0.3999  0.2191
  779SOL     OW 2335   0.192   0.793   0.506 -0.3963  0.1085  0.4539
  779SOL    HW1 2336   0.113   0.723   0.497  1.3630 -1.5181  0.1222
  779SOL    HW2 2337   0.168   0.858   0.584 -0.7927 -3.0104  1.4497
  780SOL     OW 2338   0.060   0.321   2.393 -0.1866 -0.6058  0.1837
  780SOL    HW1 2339   0.025   0.418   2.401 -2.7509  0.4746 -0.5813
  780SOL    HW2 2340   0.143   0.320   2.335  1.0176 -1.2513  2.8175
  781SOL     OW 2341   0.521   1.790   1.613 -0.4641 -0.0190  0.4974
  781SOL    HW1 2342   0.556   1.761   1.707  1.3892 -1.1365  1.2203
  781SOL    HW2 2343   0.458   1.728   1.566  0.3598 -0.5809  0.3560
  782SOL     OW 2344   2.621   0.091   0.921  0.4367 -0.4678  0.1689
  782SOL    HW1 2345   2.548   0.097   0.842 -0.2387 -1.9143  0.6484
  782SOL    HW2 2346   2.605   0.156   1.003  3.6892  0.3207  1.0046
  783SOL     OW 2347   2.836   0.623   2.550 -0.2725 -0.2365 -0.4108
  783SOL    HW1 2348   2.800   0.660   2.636  1.2039 -0.3201 -1.8946
  783SOL    HW2 2349   2.766   0.554   2.509 -2.3514 -1.1213 -0.0013
  784SOL     OW 2350   1.434   2.218   0.070  0.3382  0.0282  0.0892
  784SOL    HW1 2351   1.528   2.256   0.097  2.8666  0.2733  0.7790
  784SOL    HW2 2352   1.398   2.254  -0.017  0.2791 -2.1671  2.3626
  785SOL     OW 2353   2.184   0.331   3.067  0.0272 -0.2141 -0.4033
  785SOL    HW1 2354   2.104   0.304   3.130 -0.6920  1.5764 -0.2759
  785SOL    HW2 2355   2.199   0.437   3.083 -0.1333  0.0817 -0.4135
  786SOL     OW 2356   2.124   2.243   2.242  0.3107  0.9928  0.1128
  786SOL    HW1 2357   2.046   2.170   2.224 -0.7802 -1.8054  1.6185
  786SOL    HW2 2358   2.199   2.216   2.308  0.4585  0.4537 -0.8687
  787SOL     OW 2359   1.350   0.574   0.765 -0.2277 -0.9991  0.1999
  787SOL    HW1 2360   1.297   0.661   0.752  0.9733 -3.3582  4.9631
  787SOL    HW2 2361   1.397   0.536   0.685  3.1130 -0.6728  2.2427
  788SOL     OW 2362   1.213   0.466   2.967 -0.7297  0.3504 -0.3253
  788SOL    HW1 2363   1.118   0.471   2.931 -2.3136  0.9230 -0.2631
  788SOL    HW2 2364   1.285   0.502   2.902 -0.1427 -3.1448 -0.1906
  789SOL     OW 2365   2.620   0.126   1.939  0.0737  0.6930  0.7135
  789SOL    HW1 2366   2.520   0.136   1.911 -3.0922 -0.0416 -0.8303
  789SOL    HW2 2367   2.633   0.064   2.019  1.8619 -0.4317 -4.0993
  790SOL     OW 2368   2.643   2.626   0.841 -0.9531  0.4742  0.5747
  790SOL    HW1 2369   2.720   2.625   0.768  1.5607 -1.4438  1.0039
  790SOL    HW2 2370   2.637   2.721   0.890  2.7645 -0.4195 -1.2010
  791SOL     OW 2371   1.914   1.196   0.208 -0.5457  0.2276 -0.1795
  791SOL    HW1 2372   1.820   1.160   0.230  0.0830 -0.8132 -2.1250
  791SOL    HW2 2373   1.983   1.118   0.189  1.2570  0.1431 -0.9647
  792SOL     OW 2374   0.461   1.959   2.273 -0.7363 -0.0165  0.4648
  792SOL    HW1 2375   0.510   2.053   2.259  1.0841  0.0455  2.0559
  792SOL    HW2 2376   0.392   1.958   2.347  0.1857 -0.7729 -0.6535
  793SOL     OW 2377   2.066   1.570   2.017 -0.1262  0.0287 -0.3795
  793SOL    HW1 2378   2.158   1.608   2.041 -1.4998 -1.6524 -0.1230
  793SOL    HW2 2379   2.079   1.515   1.929  1.1444  0.5264  3.6654
  794SOL     OW 2380   0.557   1.547   2.489  0.0184 -0.5931 -0.1774
  794SOL    HW1 2381   0.623   1.468   2.475  1.0644 -0.9652 -1.5660
  794SOL    HW2 2382   0.465   1.536   2.439 -2.0315  3.1019  0.5906
  795SOL     OW 2383   2.373   2.335   1.855 -0.0583 -0.3264  0.1693
  795SOL    HW1 2384   2.352   2.364   1.951  3.1376 -0.6622 -2.5659
  795SOL    HW2 2385   2.325   2.249   1.819 -1.3200 -0.4111 -2.6665
  796SOL     OW 2386   3.016   1.141   2.724 -0.4396 -0.2684  0.3728
  796SOL    HW1 2387   2.926   1.191   2.735 -0.3813  1.0824  1.3431
  796SOL    HW2 2388   3.078   1.149   2.806  1.2564 -1.2069 -2.0363
  797SOL     OW 2389   0.709   0.644   1.311  0.6204  0.2254 -0.5692
  797SOL    HW1 2390   0.784   0.672   1.370 -0.4568 -0.5776 -5.0346
  797SOL    HW2 2391   0.679   0.733   1.265 -0.3684 -0.2435  2.6250
  798SOL     OW 2392   1.196   0.503   0.973 -0.1924 -0.9051 -0.2354
  798SOL    HW1 2393   1.209   0.584   1.033  0.7904 -0.3623 -2.8013
  798SOL    HW2 2394   1.251   0.521   0.885 -0.4411  0.9917  1.2167
  799SOL     OW 2395   1.801   2.703   1.097  0.4886 -0.1303  0.5193
  799SOL    HW1 2396   1.825   2.608   1.130  2.7537  3.0481 -1.3225
  799SOL    HW2 2397   1.811   2.702   0.995  1.1943  0.3875  3.3951
  800SOL     OW 2398   2.947   0.821   1.873  0.0070 -0.1812  0.2768
  800SOL    HW1 2399   2.975   0.917   1.864 -0.7073  0.5168 -0.8194
  800SOL    HW2 2400   2.956   0.790   1.970 -0.1835  3.7590  1.7732
  801SOL     OW 2401   1.991   2.290   0.073 -0.1614  0.4038 -0.5740
  801SOL    HW1 2402   1.973   2.361  -0.001  0.1661  1.7182 -1.7593
  801SOL    HW2 2403   2.062   2.217   0.049 -0.0877  2.2363  2.1488
  802SOL     OW 2404   0.680   0.622   2.493  0.1120  0.5171 -0.6046
  802SOL    HW1 2405   0.739   0.662   2.417 -0.2507 -0.5287 -0.6266
  802SOL    HW2 2406   0.575   0.629   2.483 -0.7600  1.9995  0.3669
  803SOL     OW 2407   0.951   0.095   0.916  0.0763  0.0088 -0.1016
  803SOL    HW1 2408   1.026   0.158   0.957 -2.4765  1.1188 -1.9008
  803SOL    HW2 2409   0.900   0.142   0.838  2.6498  2.1387  2.0738
  804SOL     OW 2410   0.336   0.027   2.164 -0.2562 -0.0599 -0.6740
  804SOL    HW1 2411   0.300   0.111   2.210 -1.4127 -1.5984 -2.9661
  804SOL    HW2 2412   0.271  -0.007   2.094 -0.4859 -0.0734  0.1741
  805SOL     OW 2413   2.404   0.300   0.327  0.1980 -0.6014  0.3732
  805SOL    HW1 2414   2.484   0.294   0.390 -1.7818 -0.1787  1.0904
  805SOL    HW2 2415   2.415   0.275   0.228  1.3885 -1.2250 -1.4129
  806SOL     OW 2416   0.680   2.647   1.989  0.5379 -0.2776 -0.3274
  806SOL    HW1 2417   0.627   2.671   2.077 -0.1394  0.2253  1.5090
  806SOL    HW2 2418   0.656   2.707   1.912  2.7336  0.5528  0.9136
  807SOL     OW 2419   2.591   0.928   0.510 -0.0353  0.2670  0.2240
  807SOL    HW1 2420   2.674   0.868   0.522 -3.1503  1.8480  0.4412
  807SOL    HW2 2421   2.572   0.941   0.409  2.0414 -0.0763 -0.1382
  808SOL     OW 2422   0.671   2.045   2.902 -0.4903  0.4006  0.0172
  808SOL    HW1 2423   0.603   2.086   2.971  0.3641 -0.9005 -0.3604
  808SOL    HW2 2424   0.676   1.940   2.901 -1.5866  0.6720  2.0430
  809SOL     OW 2425   2.573   2.031   1.919  0.6460 -0.1995 -0.0783
  809SOL    HW1 2426   2.664   2.073   1.938 -1.0953  0.2995 -1.6303
  809SOL    HW2 2427   2.553   2.056   1.824 -0.0530 -2.0026  0.2631
  810SOL     OW 2428   2.184   1.246   0.508 -0.3105  0.4223  0.1747
  810SOL    HW1 2429   2.147   1.204   0.595  0.4696 -0.2677  2.9678
  810SOL    HW2 2430   2.179   1.349   0.522  2.3471  1.5989  2.2827
  811SOL     OW 2431   1.226   2.494   1.184 -0.4469  0.4421  0.0752
  811SOL    HW1 2432   1.213   2.396   1.216 -0.2240 -3.7552 -0.6841
  811SOL    HW2 2433   1.284   2.547   1.255  0.5613 -0.2381  3.6624
  812SOL     OW 2434   1.433   0.760   1.992 -0.5062  0.1095 -0.1238
  812SOL    HW1 2435   1.347   0.798   2.037 -2.7640  1.5996 -2.5956
  812SOL    HW2 2436   1.466   0.824   1.922  0.9303 -1.6363 -2.6683
  813SOL     OW 2437   1.637   2.074   2.422  0.4058  0.1042  0.1219
  813SOL    HW1 2438   1.720   2.135   2.449 -0.8822  3.0973  2.9670
  813SOL    HW2 2439   1.636   2.055   2.318  0.3742  0.8694  0.3619
  814SOL     OW 2440   2.988   1.710   2.871  0.3835  0.6647 -0.5221
  814SOL    HW1 2441   3.057   1.667   2.934  2.3611  0.5181 -1.5877
  814SOL    HW2 2442   2.962   1.803   2.907  0.9253 -0.4571 -1.8101
  815SOL     OW 2443   2.125   2.906   2.775 -0.0670  0.2497  0.1784
  815SOL    HW1 2444   2.104   2.820   2.827 -2.0802  2.7123  0.2541
  815SOL    HW2 2445   2.225   2.938   2.789 -2.3212  0.1594  2.7210
  816SOL     OW 2446   1.547   0.456   1.683  0.4571 -0.0315 -0.0998
  816SOL    HW1 2447   1.603   0.374   1.702  2.3451  0.2209 -2.0897
  816SOL    HW2 2448   1.492   0.481   1.769 -0.6823 -2.2420 -0.1523
  817SOL     OW 2449   0.403   1.221   2.549 -0.2052 -0.2194 -0.5428
  817SOL    HW1 2450   0.306   1.257   2.542  1.0824 -2.2295 -0.8155
  817SOL    HW2 2451   0.465   1.238   2.465  2.6555 -3.0530  0.9721
  818SOL     OW 2452   2.005   0.777   0.474  0.4163  0.1333  0.1090
  818SOL    HW1 2453   2.109   0.791   0.484 -1.3148  1.2234 -0.7041
  818SOL    HW2 2454   1.952   0.812   0.559  2.1027  1.8121  0.8662
  819SOL     OW 2455   2.835   2.892   3.028 -0.5252  0.1480  0.0382
  819SOL    HW1 2456   2.908   2.827   2.992  2.8600 -3.3030 -1.3071
  819SOL    HW2 2457   2.734   2.864   3.010 -3.0978  1.3128  0.1940
  820SOL     OW 2458   1.217   1.029   0.536 -0.0000 -0.5041  0.2749
  820SOL    HW1 2459   1.278   1.112   0.567 -1.2836 -0.6622 -0.1321
  820SOL    HW2 2460   1.180   0.968   0.618  0.2670  0.8003 -1.0068
  821SOL     OW 2461   0.052   1.213   0.757 -0.1376 -0.4926  0.1056
  821SOL    HW1 2462   0.002   1.224   0.851 -1.1924 -1.9802  2.5124
  821SOL    HW2 2463   0.090   1.302   0.715  0.0506 -0.1583 -0.0056
  822SOL     OW 2464   2.551   1.768   2.441 -0.1585 -0.2102 -0.5243
  822SOL    HW1 2465   2.531   1.826   2.523  0.7300 -1.5764 -0.3714
  822SOL    HW2 2466   2.485   1.791   2.364 -0.4283  0.1427  3.4411
  823SOL     OW 2467   2.024   0.884   1.162  0.5117 -0.3517 -0.4561
  823SOL    HW1 2468   2.012   0.818   1.238 -0.2065  1.3559 -2.4500
  823SOL    HW2 2469   1.987   0.846   1.068  0.5630  0.0626  1.2443
  824SOL     OW 2470   0.198   1.807   2.828 -0.0211  0.3359 -0.7515
  824SOL    HW1 2471   0.181   1.828   2.928 -0.7186  1.8001 -1.2451
  824SOL    HW2 2472   0.273   1.861   2.781  0.7720 -0.1045 -0.2258
  825SOL     OW 2473   1.270   1.041   0.240  0.5132 -0.0116 -0.9716
  825SOL    HW1 2474   1.253   1.143   0.230  1.2651  1.5784  0.6038
  825SOL    HW2 2475   1.258   1.015   0.341 -1.8662  0.6489 -1.5017
  826SOL     OW 2476   1.966   0.663   1.629 -0.6355  0.1438  0.2683
  826SOL    HW1 2477   2.057   0.609   1.620 -1.8490 -1.1580  0.5478
  826SOL    HW2 2478   1.889   0.606   1.580 -1.5721 -1.9135  1.2447
  827SOL     OW 2479   0.707   1.195   0.482 -0.1884  0.5825  0.0960
  827SOL    HW1 2480   0.793   1.160   0.428 -0.7671 -0.9739 -1.0138
  827SOL    HW2 2481   0.621   1.136   0.457  1.0908 -0.1531  1.9683
  828SOL     OW 2482   2.695   0.160   1.646 -1.1623 -0.0755  0.0145
  828SOL    HW1 2483   2.599   0.178   1.622 -0.5009 -1.7547 -0.4401
  828SOL    HW2 2484   2.709   0.140   1.745 -1.5028  1.8990  1.6724
  829SOL     OW 2485   2.875   2.381   2.872 -0.1447  0.3423 -0.5113
  829SOL    HW1 2486   2.776   2.354   2.895 -0.6726 -0.0968 -0.6690
  829SOL    HW2 2487   2.888   2.483   2.866  1.9807 -2.0197 -1.4584
  830SOL     OW 2488   3.005   0.938   2.946 -0.0072 -0.0182 -0.3834
  830SOL    HW1 2489   3.048   1.020   2.988  1.1546 -1.1299 -1.7949
  830SOL    HW2 2490   2.935   0.902   3.009  0.3350  0.8768 -0.2527
  831SOL     OW 2491   3.081   0.564   0.458  0.1592  0.6785 -0.1800
  831SOL    HW1 2492   3.066   0.489   0.530  0.6996  0.1359 -0.6163
  831SOL    HW2 2493   3.107   0.527   0.365  0.7660  2.9983 -1.6720
  832SOL     OW 2494   1.758   0.731   0.016 -0.2955  1.0999 -0.3977
  832SOL    HW1 2495   1.669   0.769  -0.025 -0.2267  0.2727 -0.4692
  832SOL    HW2 2496   1.759   0.625  -0.000 -0.9047 -3.1696 -1.0269
  833SOL     OW 2497   2.335   2.101   0.485 -0.5112 -0.4459 -0.1651
  833SOL    HW1 2498   2.245   2.056   0.476 -1.5516  0.4397 -1.5382
  833SOL    HW2 2499   2.413   2.033   0.474  0.9052  0.8851 -1.2505
  834SOL     OW 2500   0.033   0.048   0.576 -0.0473 -0.6462  0.4772
  834SOL    HW1 2501   0.127   0.015   0.574 -0.1449 -2.6159  1.0854
  834SOL    HW2 2502   0.010   0.112   0.497 -0.7588 -1.9667 -1.4645
  835SOL     OW 2503   2.549   1.743   1.112  0.3393  0.6387  0.6087
  835SOL    HW1 2504   2.612   1.676   1.160 -0.4163  0.8853 -0.4650
  835SOL    HW2 2505   2.603   1.804   1.054 -1.0042  0.8844 -2.2095
  836SOL     OW 2506   1.542   0.843   2.579 -0.0599 -0.8055 -0.5538
  836SOL    HW1 2507   1.439   0.857   2.557 -1.3155 -1.3198 -2.0534
  836SOL    HW2 2508   1.597   0.853   2.492  1.8811 -0.9219  2.6010
  837SOL     OW 2509   1.654  -0.001   0.660 -0.3586 -0.4872  0.4794
  837SOL    HW1 2510   1.637   0.084   0.719 -0.2870 -0.6390  1.4063
  837SOL    HW2 2511   1.612   0.006   0.564 -2.0319  2.3152 -1.1419
  838SOL     OW 2512   1.168   1.387   2.682 -0.7552 -0.8181  0.0433
  838SOL    HW1 2513   1.136   1.458   2.752  0.7396  2.4657  1.2513
  838SOL    HW2 2514   1.106   1.373   2.603  0.5422 -2.6710 -1.3195
  839SOL     OW 2515   1.620   0.369   0.981  0.2003 -0.2199 -0.1624
  839SOL    HW1 2516   1.591   0.462   1.010  2.7248 -0.5530 -2.3582
  839SOL    HW2 2517   1.582   0.284   1.031  0.4318 -3.2629  0.6029
  840SOL     OW 2518   2.652   2.930   1.617 -0.1216 -0.0658 -0.3910
  840SOL    HW1 2519   2.617   3.018   1.574 -1.0922 -0.3798 -2.5145
  840SOL    HW2 2520   2.626   2.916   1.719 -0.4428  0.1064  0.6461
  841SOL     OW 2521   1.535   0.851   3.056 -0.0090 -0.1121  0.2722
  841SOL    HW1 2522   1.440   0.860   3.099 -2.5550  1.1250 -2.5998
  841SOL    HW2 2523   1.527   0.900   2.964 -1.8336  1.1674  2.9036
  842SOL     OW 2524   0.827   1.607   1.030  0.0128  0.3748 -0.4477
  842SOL    HW1 2525   0.795   1.696   1.067 -2.1257 -3.4256  1.3392
  842SOL    HW2 2526   0.762   1.571   0.959 -0.5053 -1.3597 -1.4220
  843SOL     OW 2527   0.138   0.088   1.433 -0.0284  0.4115  0.2455
  843SOL    HW1 2528   0.223   0.145   1.443  0.4547  0.4259 -1.8040
  843SOL    HW2 2529   0.152  -0.015   1.449  1.0999 -1.1082  0.2205
  844SOL     OW 2530   0.785   2.452   0.204  0.3374  0.1221  0.1040
  844SOL    HW1 2531   0.747   2.490   0.295  0.6860 -1.1295 -0.8398
  844SOL    HW2 2532   0.715   2.430   0.132 -0.0094 -2.8854  2.0854
  845SOL     OW 2533   1.742   0.011   1.304  0.3617 -0.2649 -0.2852
  845SOL    HW1 2534   1.740  -0.021   1.401  0.3652 -0.4937  0.7829
  845SOL    HW2 2535   1.660   0.074   1.283  1.3395  0.1816  0.5835
  846SOL     OW 2536   1.723   2.985   0.894  0.7132 -0.5193  0.3845
  846SOL    HW1 2537   1.689   3.015   0.798 -0.3919  0.4965  3.0404
  846SOL    HW2 2538   1.819   2.952   0.893 -1.4684 -1.6373 -0.0392
  847SOL     OW 2539   2.053   1.581   0.192 -0.3972  0.3083 -0.0458
  847SOL    HW1 2540   2.014   1.546   0.278  0.2791  0.2163 -0.1535
  847SOL    HW2 2541   1.989   1.563   0.107 -1.4153 -0.1750 -0.7060
  848SOL     OW 2542   2.450   0.790   2.679 -0.2358 -0.0731  0.4497
  848SOL    HW1 2543   2.427   0.888   2.677 -1.6042  0.8493 -1.6737
  848SOL    HW2 2544   2.389   0.735   2.622  1.3384  0.4208 -1.7154
  849SOL     OW 2545   2.352   0.854   2.322  0.2040  0.2951  0.5087
  849SOL    HW1 2546   2.407   0.796   2.253  1.2014  0.6274  0.8849
  849SOL    HW2 2547   2.306   0.798   2.390 -0.3523  1.0625 -2.0629
  850SOL     OW 2548   1.535   0.204   1.275  0.1482 -0.5270  0.1159
  850SOL    HW1 2549   1.569   0.159   1.184  1.3459 -0.7783  0.1186
  850SOL    HW2 2550   1.497   0.141   1.349  1.0218 -0.2570  3.5311
  851SOL     OW 2551   0.407   1.685   0.658 -0.5341  0.0346  0.3608
  851SOL    HW1 2552   0.432   1.784   0.656  1.0333 -0.6574 -3.8612
  851SOL    HW2 2553   0.487   1.622   0.671 -1.9229  0.7022  1.8255
  852SOL     OW 2554   0.842   2.139   1.756 -0.3104 -0.4868 -0.5780
  852SOL    HW1 2555   0.851   2.218   1.698  0.7542 -2.3954  2.7133
  852SOL    HW2 2556   0.760   2.149   1.824  0.6947 -0.5838 -1.6192
  853SOL     OW 2557   2.507   1.516   2.610 -0.4964  0.3647  0.2031
  853SOL    HW1 2558   2.495   1.422   2.575 -0.2408  0.5015  1.7825
  853SOL    HW2 2559   2.550   1.583   2.546  2.6059  1.1220  0.1517
  854SOL     OW 2560   2.425   1.455   1.708  0.1417 -0.5016  0.1549
  854SOL    HW1 2561   2.504   1.467   1.641  2.6545 -1.4837  0.6892
  854SOL    HW2 2562   2.379   1.362   1.704 -0.3711  0.7383 -3.0677
  855SOL     OW 2563   2.048   2.387   0.945 -0.2933  0.3632  0.0951
  855SOL    HW1 2564   2.091   2.475   0.912 -0.6459 -4.4899 -0.8746
  855SOL    HW2 2565   2.099   2.353   1.029 -1.1963 -0.7126 -0.8401
  856SOL     OW 2566   1.444   1.427   0.823 -0.2003 -0.1816  0.1260
  856SOL    HW1 2567   1.428   1.526   0.855  0.5915 -1.6692 -0.5109
  856SOL    HW2 2568   1.432   1.365   0.905  2.5600  1.8083  2.5236
  857SOL     OW 2569   2.931   2.529   1.045  0.5415  0.0807 -0.3825
  857SOL    HW1 2570   2.871   2.469   1.107  1.2582 -1.5317  1.6029
  857SOL    HW2 2571   2.968   2.476   0.962 -1.2985  2.5402 -2.8142
  858SOL     OW 2572   2.268   2.097   1.774 -0.7132 -0.3985  0.5178
  858SOL    HW1 2573   2.194   2.132   1.709  0.1553  2.9657  0.5171
  858SOL    HW2 2574   2.354   2.058   1.732  0.2541 -3.1265 -2.3251
  859SOL     OW 2575   2.492   0.451   1.039  0.5413 -0.2258  0.6030
  859SOL    HW1 2576   2.546   0.505   0.971  1.2035 -1.3779  0.3896
  859SOL    HW2 2577   2.548   0.390   1.101  0.7946  0.9976 -2.3058
  860SOL     OW 2578   1.904   2.795   0.509  0.0177 -0.3102 -0.0851
  860SOL    HW1 2579   1.964   2.758   0.432 -1.2975  2.3553 -2.0258
  860SOL    HW2 2580   1.926   2.885   0.552  1.0719 -1.9086  0.5749
  861SOL     OW 2581   0.963   2.623   2.850 -0.4689  0.5395 -0.5221
  861SOL    HW1 2582   1.025   2.696   2.886 -1.4263 -0.4206 -0.0350
  861SOL    HW2 2583   0.938   2.566   2.934 -2.8062  2.2976  1.1582
  862SOL     OW 2584   2.929   2.513   1.600 -0.1033  0.2037  0.8228
  862SOL    HW1 2585   3.012   2.537   1.654 -1.3965 -1.0653  1.2666
  862SOL    HW2 2586   2.862   2.593   1.593  1.4909  0.3317  0.5528
  863SOL     OW 2587   1.913   2.685   0.184  0.0602 -0.4727  0.0529
  863SOL    HW1 2588   1.972   2.605   0.202  1.5828  0.1610  1.2681
  863SOL    HW2 2589   1.814   2.659   0.214 -0.5732  2.4367  1.1535
  864SOL     OW 2590   1.927   1.087   3.005 -0.2491 -0.0158  0.5152
  864SOL    HW1 2591   1.932   1.061   2.904 -0.7753 -1.5436  0.9299
  864SOL    HW2 2592   2.018   1.125   3.032 -2.1075  1.9949  0.5019
  865SOL     OW 2593   2.208   1.728   0.630 -0.0956  0.2429 -0.4526
  865SOL    HW1 2594   2.214   1.773   0.725 -0.7269 -0.2032  1.0468
  865SOL    HW2 2595   2.180   1.632   0.625  0.7355  0.7835  5.6174
  866SOL     OW 2596   2.977   2.811   0.969  0.0445  0.1572 -0.2600
  866SOL    HW1 2597   3.010   2.848   0.874  0.9534  3.0973  1.0778
  866SOL    HW2 2598   2.974   2.707   0.979  2.7442  1.1125  0.6752
  867SOL     OW 2599   0.365   1.379   0.851  0.3393 -0.1880 -0.0606
  867SOL    HW1 2600   0.385   1.286   0.797  2.1225 -1.3961 -1.5776
  867SOL    HW2 2601   0.284   1.428   0.814 -1.9315 -1.6632 -1.0758
  868SOL     OW 2602   0.803   1.913   2.017 -0.4869  0.5579 -0.3571
  868SOL    HW1 2603   0.779   1.879   2.115  1.4093  0.3793 -2.2101
  868SOL    HW2 2604   0.782   2.008   1.991  0.3431 -2.8487 -0.7234
  869SOL     OW 2605   2.490   1.981   1.648 -0.6797  0.3437  0.0588
  869SOL    HW1 2606   2.549   1.903   1.695 -0.4091  2.3092  1.7569
  869SOL    HW2 2607   2.456   1.956   1.551 -0.2299  0.7097  1.4361
  870SOL     OW 2608   2.338   2.554   1.265 -0.1165 -0.0497 -0.1811
  870SOL    HW1 2609   2.302   2.463   1.222 -1.6008  0.5234 -0.9706
  870SOL    HW2 2610   2.425   2.539   1.321 -3.3180  0.9586 -0.5293
  871SOL     OW 2611   3.003   1.979   0.533 -0.2317 -0.0859 -0.0484
  871SOL    HW1 2612   2.937   2.039   0.475 -1.1397 -2.4450 -2.3160
  871SOL    HW2 2613   2.999   1.878   0.510 -0.8542  0.5565 -0.6505
  872SOL     OW 2614   2.207   0.526   1.715  0.4111 -0.6397  0.4816
  872SOL    HW1 2615   2.158   0.547   1.798  0.0384  0.1814 -1.9580
  872SOL    HW2 2616   2.292   0.463   1.720  1.0573  0.5753 -0.6683
  873SOL     OW 2617   1.718   2.119   2.893  0.5036 -0.1798 -0.1007
  873SOL    HW1 2618   1.720   2.215   2.924 -0.8245  0.1194  2.2660
  873SOL    HW2 2619   1.628   2.098   2.851 -2.6180  2.3965  1.3558
  874SOL     OW 2620   0.618   2.465   0.723  0.5564 -0.3677 -0.3200
  874SOL    HW1 2621   0.603   2.568   0.742 -0.4568 -0.4623 -1.2306
  874SOL    HW2 2622   0.719   2.452   0.707 -0.8670  0.0070 -0.3231
  875SOL     OW 2623   2.288   1.611   1.479 -0.3459  1.2610  0.2389
  875SOL    HW1 2624   2.385   1.628   1.513 -1.5654 -1.9685 -1.4823
  875SOL    HW2 2625   2.273   1.631   1.378 -1.3815  0.9544 -0.6573
  876SOL     OW 2626   0.181   2.270   2.778  0.1196  0.3717  0.1075
  876SOL    HW1 2627   0.226   2.202   2.845  3.2821  0.5092  1.7650
  876SOL    HW2 2628   0.212   2.370   2.779  1.6145  0.2997  1.7987
  877SOL     OW 2629   2.819   2.652   0.653  0.2282  0.0763 -0.2187
  877SOL    HW1 2630   2.837   2.751   0.631  0.2673  1.6741 -2.2657
  877SOL    HW2 2631   2.911   2.600   0.664  1.1968 -0.1954  2.3734
  878SOL     OW 2632   2.681   1.482   2.380 -1.0074 -0.2462  0.3461
  878SOL    HW1 2633   2.680   1.580   2.344 -1.3048  1.0200 -0.7449
  878SOL    HW2 2634   2.780   1.455   2.396  1.8230  0.7811 -1.1982
  879SOL     OW 2635   2.445   3.042   1.215 -0.7817 -0.3099 -0.3950
  879SOL    HW1 2636   2.481   2.942   1.227  1.3444 -1.8546 -0.8305
  879SOL    HW2 2637   2.342   3.052   1.195  1.9685  0.4222 -0.1304
  880SOL     OW 2638   0.626   0.495   2.212  0.5329 -0.1637 -0.1354
  880SOL    HW1 2639   0.590   0.439   2.292  1.5510  0.3366 -0.6119
  880SOL    HW2 2640   0.654   0.435   2.133 -0.6840 -2.8410 -2.1383
  881SOL     OW 2641   0.915   0.083   0.448  0.3189  0.4999 -0.2312
  881SOL    HW1 2642   0.953  -0.009   0.472 -1.2771  1.9577  0.1898
  881SOL    HW2 2643   0.856   0.081   0.362 -1.1802 -0.1154  0.7813
  882SOL     OW 2644   2.756   1.775   1.688 -0.1424 -0.3740  0.3870
  882SOL    HW1 2645   2.827   1.722   1.629  0.9576 -0.3350  1.4849
  882SOL    HW2 2646   2.763   1.742   1.785 -1.2235 -1.3888  0.4966
  883SOL     OW 2647   0.922   0.569   0.966 -0.1532  0.2381  0.4077
  883SOL    HW1 2648   0.911   0.662   1.014  0.6161  1.6724 -0.9548
  883SOL    HW2 2649   1.022   0.541   0.954  0.1406 -1.3870 -1.3446
  884SOL     OW 2650   1.132   1.905   1.058 -0.5515  0.0687  0.1523
  884SOL    HW1 2651   1.126   1.858   0.963 -2.7895 -2.2222  0.4352
  884SOL    HW2 2652   1.065   1.980   1.073 -1.0688 -0.0411 -0.7960
  885SOL     OW 2653   2.318   1.804   2.293 -0.1214  0.0656 -0.1981
  885SOL    HW1 2654   2.250   1.741   2.343  0.8313  1.7924 -1.0197
  885SOL    HW2 2655   2.321   1.901   2.338 -2.8491 -0.6944  0.1122
  886SOL     OW 2656   2.674   0.460   1.836 -0.5522  0.2496  0.0451
  886SOL    HW1 2657   2.744   0.397   1.888  1.9866 -0.5229  1.4342
  886SOL    HW2 2658   2.720   0.542   1.796  1.8308  1.6085 -0.3588
  887SOL     OW 2659   0.219   2.046   1.273  0.3192  0.2129 -0.1194
  887SOL    HW1 2660   0.148   1.984   1.231  1.8052 -2.8155 -0.5530
  887SOL    HW2 2661   0.213   2.139   1.234  0.1977 -0.2985  0.3248
  888SOL     OW 2662   0.571   1.345   1.463  0.1961  0.2137 -0.3597
  888SOL    HW1 2663   0.583   1.395   1.375 -1.6546 -2.6858 -0.8975
  888SOL    HW2 2664   0.518   1.255   1.447 -1.8681 -1.4538 -0.2448
  889SOL     OW 2665   0.837   2.407   2.169 -0.2547 -0.1486  0.2890
  889SOL    HW1 2666   0.766   2.334   2.162 -0.3814 -2.5902  0.3109
  889SOL    HW2 2667   0.908   2.411   2.095  0.2000 -0.8034 -0.0185
  890SOL     OW 2668   2.343   2.433   0.223 -0.1737  0.3476  0.3524
  890SOL    HW1 2669   2.413   2.508   0.199  0.9018 -0.0404  0.6249
  890SOL    HW2 2670   2.259   2.474   0.267  0.4226  0.6228 -0.5976
  891SOL     OW 2671   2.604   1.667   0.712  0.5712  0.7449 -0.1939
  891SOL    HW1 2672   2.562   1.593   0.776 -0.3751  1.7103 -0.8681
  891SOL    HW2 2673   2.528   1.709   0.653  0.6681  0.7924 -0.6579
  892SOL     OW 2674   0.303   0.284   2.244 -0.4087 -0.1470  0.1076
  892SOL    HW1 2675   0.315   0.339   2.150  2.9450  2.3790 -1.4105
  892SOL    HW2 2676   0.378   0.320   2.314 -0.4122  0.3622  0.1294
  893SOL     OW 2677   1.640   0.257   2.743  0.5850  0.1542  0.2601
  893SOL    HW1 2678   1.711   0.321   2.769  1.8849 -1.9453  1.0342
  893SOL    HW2 2679   1.547   0.301   2.724 -1.0643 -1.2428  2.8217
  894SOL     OW 2680   2.180   2.033   0.040  0.4041  0.0641 -0.0974
  894SOL    HW1 2681   2.143   1.993  -0.047  0.1387 -0.0179  1.5110
  894SOL    HW2 2682   2.165   1.967   0.118 -1.8741  0.6214 -1.7471
  895SOL     OW 2683   2.788   1.374   0.848 -0.5520  0.0774  0.5029
  895SOL    HW1 2684   2.853   1.342   0.923 -1.5502 -0.7769 -1.3428
  895SOL    HW2 2685   2.832   1.405   0.759  0.5844  0.5408 -2.6672
  896SOL     OW 2686   1.728   1.827   1.169  0.7052  0.8380 -0.0207
  896SOL    HW1 2687   1.802   1.850   1.099  1.3276  1.9793  0.1849
  896SOL    HW2 2688   1.660   1.905   1.175  0.9265  1.2847 -1.2948
  897SOL     OW 2689   0.303   0.507   3.061 -0.4197  0.1352  0.1210
  897SOL    HW1 2690   0.249   0.559   2.993  0.5424  0.1268  3.0340
  897SOL    HW2 2691   0.400   0.546   3.066 -2.3328  0.1210  0.9733
  898SOL     OW 2692   0.542   2.918   0.993 -0.2485 -0.2410  0.2034
  898SOL    HW1 2693   0.480   2.960   1.066 -0.2724 -1.6970  0.5531
  898SOL    HW2 2694   0.637   2.958   0.990 -0.3922 -1.8151 -0.7673
  899SOL     OW 2695   2.701   0.933   1.280  0.3471 -0.4381  0.9695
  899SOL    HW1 2696   2.661   0.890   1.187  0.5605 -0.5493 -1.4834
  899SOL    HW2 2697   2.800   0.967   1.277  2.3442  1.6431 -3.2386
  900SOL     OW 2698   0.999   2.371   2.385  0.4412 -0.1725 -0.1831
  900SOL    HW1 2699   0.931   2.396   2.312  2.8140  5.1934 -0.0435
  900SOL    HW2 2700   0.974   2.412   2.479 -2.3280 -0.9521  0.8967
  901SOL     OW 2701   1.987   2.491   1.338  0.1691 -0.2654 -0.1153
  901SOL    HW1 2702   1.912   2.459   1.271 -2.6348 -0.0539 -1.1875
  901SOL    HW2 2703   2.062   2.422   1.347 -2.3098  0.8388 -0.1584
  902SOL     OW 2704   2.581   1.667   1.491 -0.1185 -0.1416  0.6086
  902SOL    HW1 2705   2.637   1.671   1.579  1.7175  2.6616 -3.0806
  902SOL    HW2 2706   2.638   1.647   1.402  1.5737  3.1200  0.8311
  903SOL     OW 2707   0.280   2.478   1.956  0.3337  0.0642 -0.3116
  903SOL    HW1 2708   0.185   2.448   1.971 -0.3714  0.0930  1.6818
  903SOL    HW2 2709   0.292   2.539   1.866 -1.7071  4.6114 -1.1645
  904SOL     OW 2710   1.985   0.809   2.604 -0.0779  0.2171 -0.2340
  904SOL    HW1 2711   1.938   0.750   2.676  1.3920 -1.2884 -0.3849
  904SOL    HW2 2712   1.960   0.786   2.512  1.4360  0.9902  4.3429
  905SOL     OW 2713   2.840   0.046   2.583  0.1996  0.3927  0.2745
  905SOL    HW1 2714   2.919  -0.003   2.629 -0.0591  1.4411  1.0996
  905SOL    HW2 2715   2.867   0.142   2.572 -0.0066 -1.7634  1.5861
  906SOL     OW 2716   0.121   1.849   1.905 -0.0238 -0.3849 -0.1645
  906SOL    HW1 2717   0.057   1.825   1.828  0.4532  1.6299 -1.5810
  906SOL    HW2 2718   0.130   1.949   1.930 -1.2076 -1.1296 -0.9870
  907SOL     OW 2719   0.185   2.408   1.068 -0.5446  0.1896  0.1422
  907SOL    HW1 2720   0.266   2.452   1.013 -0.7146  1.8276  0.8605
  907SOL    HW2 2721   0.125   2.343   1.017  0.8301  0.2092 -0.0322
  908SOL     OW 2722   2.689   2.793   0.356  0.0966 -0.1802 -0.5983
  908SOL    HW1 2723   2.697   2.849   0.268 -1.2685 -0.3102  0.3541
  908SOL    HW2 2724   2.639   2.699   0.343 -3.0019  0.4987  1.5585
  909SOL     OW 2725   0.660   0.900   2.642 -0.2792 -0.5453  0.0137
  909SOL    HW1 2726   0.647   0.798   2.632 -0.4208  2.8870  0.0828
  909SOL    HW2 2727   0.742   0.931   2.584  1.7100  0.6671  0.5693
  910SOL     OW 2728   1.719   1.767   2.117 -0.2506 -0.0068  0.0572
  910SOL    HW1 2729   1.788   1.767   2.038  0.6005 -1.2384  0.1442
  910SOL    HW2 2730   1.686   1.860   2.142  0.1352 -0.9565  1.1457
  911SOL     OW 2731   1.782   3.030   1.578  0.3484 -0.5069  0.2005
  911SOL    HW1 2732   1.874   2.987   1.570  1.1475 -0.6476  0.4164
  911SOL    HW2 2733   1.720   2.982   1.642  2.3659  1.0256  0.0447
  912SOL     OW 2734   2.888   0.958   0.752  0.5379 -0.2919 -0.3152
  912SOL    HW1 2735   2.898   0.943   0.855 -1.1031 -2.2314  0.8643
  912SOL    HW2 2736   2.842   1.049   0.729 -0.0092 -1.1620 -0.5490
  913SOL     OW 2737   2.584   1.284   1.544  0.4955 -0.1225 -0.6059
  913SOL    HW1 2738   2.583   1.196   1.598 -2.2361  0.3317  1.6363
  913SOL    HW2 2739   2.650   1.291   1.460  2.2146  1.8521 -1.1422
  914SOL     OW 2740   2.769   0.499   1.273 -0.5495  0.4131  0.1286
  914SOL    HW1 2741   2.743   0.397   1.276  1.2017 -3.4741 -3.2831
  914SOL    HW2 2742   2.716   0.551   1.345  0.7882 -1.6194  1.7529
  915SOL     OW 2743   1.194   0.791   1.035  0.6895 -0.0880  0.1286
  915SOL    HW1 2744   1.259   0.776   1.119  0.0814  0.8092 -0.0983
  915SOL    HW2 2745   1.093   0.789   1.061 -1.4540 -0.7782  0.1279
  916SOL     OW 2746   0.595   0.019   0.576 -0.5320 -0.1652 -0.4208
  916SOL    HW1 2747   0.612   0.076   0.660  0.5714 -0.1844 -0.2833
  916SOL    HW2 2748   0.585   0.071   0.486 -1.1626 -2.0874 -0.9267
  917SOL     OW 2749   2.747   2.614   1.866  0.1149 -0.2277  0.3390
  917SOL    HW1 2750   2.673   2.682   1.876  2.8302  1.3444 -0.7614
  917SOL    HW2 2751   2.843   2.661   1.845 -0.1913  2.0121  1.1528
  918SOL     OW 2752   1.082   2.188   3.078  0.5833 -0.1194 -0.9244
  918SOL    HW1 2753   1.030   2.215   3.164 -1.0647  0.2206 -2.5994
  918SOL    HW2 2754   1.132   2.104   3.100 -1.5848  1.0387  0.8278
  919SOL     OW 2755   0.909   1.564   2.779 -0.1606 -0.7208  0.3155
  919SOL    HW1 2756   0.924   1.647   2.716 -0.6723 -0.1756  1.0501
  919SOL    HW2 2757   0.851   1.488   2.736  0.1418 -1.7796  2.7634
  920SOL     OW 2758   1.205   2.004   2.462 -0.2473 -0.6146  0.1471
  920SOL    HW1 2759   1.159   2.035   2.372 -0.5270  1.3622  0.5395
  920SOL    HW2 2760   1.219   1.901   2.457 -0.2448  1.3830  0.2237
  921SOL     OW 2761   1.063   0.104   2.513  0.3967 -0.3615 -0.3611
  921SOL    HW1 2762   1.031   0.008   2.500  2.7150  1.1161 -0.2466
  921SOL    HW2 2763   1.037   0.164   2.427  0.5191  0.1593 -5.0212
  922SOL     OW 2764   2.149   2.403   2.809  0.3381 -0.8934  0.1363
  922SOL    HW1 2765   2.137   2.301   2.815  2.1175  0.8012  0.8386
  922SOL    HW2 2766   2.140   2.434   2.713 -1.4365 -0.5316  0.5055
  923SOL     OW 2767   1.234   2.706   0.201  0.3075  0.0938 -0.3917
  923SOL    HW1 2768   1.312   2.738   0.260  0.6732  0.1889  2.1394
  923SOL    HW2 2769   1.249   2.605   0.170 -0.0124 -4.0925  3.0406
  924SOL     OW 2770   2.927   1.618   0.078  0.2987 -0.0673  0.1998
  924SOL    HW1 2771   2.843   1.602   0.017  2.4191  0.8634 -1.4036
  924SOL    HW2 2772   3.018   1.610   0.028  1.1832  2.4619  0.0457
  925SOL     OW 2773   0.057   2.874   1.638 -0.2871 -0.3489  0.0965
  925SOL    HW1 2774  -0.039   2.897   1.626  2.0642 -0.9843  1.1530
  925SOL    HW2 2775   0.104   2.871   1.543 -3.6535  0.6511  0.6122
  926SOL     OW 2776   1.417   2.890   1.256  0.4768 -0.2697  0.1454
  926SOL    HW1 2777   1.440   2.914   1.161  1.9909 -1.1694  3.0836
  926SOL    HW2 2778   1.421   2.973   1.319  0.6855 -0.8489  1.9922
  927SOL     OW 2779   0.247   2.596   1.706 -0.3186 -0.2370 -0.6050
  927SOL    HW1 2780   0.227   2.499   1.667  0.9853 -1.6042  0.7015
  927SOL    HW2 2781   0.317   2.652   1.653 -0.0388 -1.5533 -0.8218
  928SOL     OW 2782   1.614   2.041   2.125  0.1952  0.1708 -0.0516
  928SOL    HW1 2783   1.647   2.136   2.125  0.8740  0.3896  1.7061
  928SOL    HW2 2784   1.517   2.023   2.089 -0.0452 -1.1063  0.8644
  929SOL     OW 2785   2.442   2.401   2.873  0.6410  0.0197  0.3300
  929SOL    HW1 2786   2.339   2.411   2.888  0.3008  0.3444  1.6711
  929SOL    HW2 2787   2.458   2.365   2.778 -0.0015 -0.1831 -0.2500
  930SOL     OW 2788   2.125   1.994   1.069 -0.4660  0.4407  0.9864
  930SOL    HW1 2789   2.108   1.978   1.168 -2.1016 -0.1029  0.2034
  930SOL    HW2 2790   2.207   2.057   1.070 -1.1194  2.2566  2.3112
  931SOL     OW 2791   0.546   1.756   2.668  0.2875  0.1524  0.3838
  931SOL    HW1 2792   0.599   1.752   2.753  2.2902 -0.8061  0.9835
  931SOL    HW2 2793   0.560   1.684   2.595  1.2447  1.7137  1.8910
  932SOL     OW 2794   0.528   0.120   2.943  0.5400  0.4001 -0.5668
  932SOL    HW1 2795   0.610   0.131   2.880  0.7118 -1.2187  0.1437
  932SOL    HW2 2796   0.515   0.027   2.985  0.6748  1.4245  2.4760
  933SOL     OW 2797   1.054   0.797   2.988 -0.2047  0.7314 -0.4679
  933SOL    HW1 2798   1.141   0.833   3.037 -2.0893  3.1389 -0.8461
  933SOL    HW2 2799   1.010   0.871   2.930  0.8261 -1.2037 -0.4318
  934SOL     OW 2800   0.868   2.963   2.827 -0.0188 -0.5236  0.2885
  934SOL    HW1 2801   0.966   2.944   2.845 -1.2139  0.1823  1.2110
  934SOL    HW2 2802   0.815   2.903   2.900  2.9700  0.6938  0.5339
  935SOL     OW 2803   3.041   0.535   0.852 -0.0826  0.2302 -0.7482
  935SOL    HW1 2804   3.056   0.470   0.775 -0.6199 -2.9014  4.1634
  935SOL    HW2 2805   2.950   0.582   0.855  1.4359 -1.2359  3.2151
  936SOL     OW 2806   1.124   2.989   0.151 -0.4201 -0.5866 -0.3723
  936SOL    HW1 2807   1.164   3.036   0.068  1.3900  1.9064  0.5150
  936SOL    HW2 2808   1.160   2.892   0.170 -0.0785  0.6605  1.2147
  937SOL     OW 2809   1.952   2.707   2.105 -0.3757  0.0604  0.3335
  937SOL    HW1 2810   1.875   2.737   2.167  0.8500  0.0658  0.5061
  937SOL    HW2 2811   1.925   2.731   2.009  0.4395  0.6368 -1.6950
  938SOL     OW 2812   2.719   2.194   1.505 -0.0960 -0.4948  0.3437
  938SOL    HW1 2813   2.676   2.256   1.574  2.8308 -0.3226  0.0705
  938SOL    HW2 2814   2.763   2.107   1.547 -0.2468 -1.7981  1.9134
  939SOL     OW 2815   2.758   0.990   2.537 -0.1925  0.2821  0.4105
  939SOL    HW1 2816   2.851   0.953   2.522 -0.9796  3.6084 -0.8404
  939SOL    HW2 2817   2.753   1.054   2.624  1.5203  0.3045  1.7796
  940SOL     OW 2818   1.034   0.464   2.648 -0.7674  0.4060 -0.2966
  940SOL    HW1 2819   1.073   0.371   2.682  0.6140 -0.9004 -0.4289
  940SOL    HW2 2820   0.926   0.456   2.645 -2.0811  1.0216 -1.5999
  941SOL     OW 2821   0.028   2.882   2.195 -0.4101  0.0315  0.2658
  941SOL    HW1 2822   0.011   2.786   2.153  0.0979 -2.6661  1.0084
  941SOL    HW2 2823   0.081   2.872   2.284 -1.3743 -1.3536  1.2827
  942SOL     OW 2824   0.150   0.082   2.537  0.4499  0.1641  0.8083
  942SOL    HW1 2825   0.212   0.107   2.618 -0.4703 -2.3830 -0.4265
  942SOL    HW2 2826   0.102   0.170   2.501 -0.7366 -1.6896  2.3969
  943SOL     OW 2827   2.110   1.663   2.401  0.7964 -0.1540 -0.2445
  943SOL    HW1 2828   2.112   1.568   2.443 -3.3435  0.3089 -1.8879
  943SOL    HW2 2829   2.051   1.667   2.319 -0.2337 -3.8392  4.5976
  944SOL     OW 2830   2.190   2.304   1.416  0.0595  0.8274  0.0801
  944SOL    HW1 2831   2.252   2.376   1.464  1.7150 -1.8623  1.3927
  944SOL    HW2 2832   2.139   2.242   1.479 -1.1542 -1.0613  0.4858
  945SOL     OW 2833   0.621   1.416   0.344 -1.0918 -0.3329 -0.5746
  945SOL    HW1 2834   0.676   1.473   0.274  0.8193 -0.2612  1.8616
  945SOL    HW2 2835   0.652   1.317   0.360 -4.0380 -2.1978  2.1493
  946SOL     OW 2836   0.315   0.971   2.646 -0.2042 -0.4201 -0.4017
  946SOL    HW1 2837   0.251   0.930   2.573 -1.1580  1.6936 -0.7216
  946SOL    HW2 2838   0.349   1.069   2.625  0.3156  1.8464 -1.5358
  947SOL     OW 2839   1.527   0.446   0.144  0.3370  0.4207 -0.6612
  947SOL    HW1 2840   1.527   0.378   0.222 -1.9068 -0.2031  0.6058
  947SOL    HW2 2841   1.450   0.422   0.075  1.6873  0.2860 -0.5093
  948SOL     OW 2842   2.030   3.050   2.127  0.8071 -0.4869 -0.2018
  948SOL    HW1 2843   1.960   3.072   2.054 -0.3172  0.9857  2.0437
  948SOL    HW2 2844   1.990   2.995   2.204 -1.2422 -1.3193  0.5891
  949SOL     OW 2845   0.684   2.542   0.433  0.4101  0.0119 -0.5315
  949SOL    HW1 2846   0.695   2.637   0.392  0.1147  0.0676  0.5681
  949SOL    HW2 2847   0.723   2.550   0.529 -0.1709 -0.1971 -0.7603
  950SOL     OW 2848   0.207   2.118   3.002 -0.0325  0.5386 -0.5408
  950SOL    HW1 2849   0.122   2.169   3.042  0.1321 -1.2009  2.0794
  950SOL    HW2 2850   0.203   2.017   3.025 -0.8227  1.5811  1.0271
  951SOL     OW 2851   1.127   2.855   2.807 -0.4636  0.6833  0.0828
  951SOL    HW1 2852   1.138   2.780   2.731 -1.1766  1.1499 -3.4842
  951SOL    HW2 2853   1.206   2.923   2.810 -2.2595  4.3683  0.4208
  952SOL     OW 2854   0.043   1.681   0.478 -0.4839 -0.1792 -0.1969
  952SOL    HW1 2855   0.123   1.748   0.451 -1.1826 -2.6737  1.2955
  952SOL    HW2 2856   0.047   1.673   0.582 -1.2827  0.7711  2.6048
  953SOL     OW 2857   2.443   1.774   0.152 -0.0598  0.3363 -0.5267
  953SOL    HW1 2858   2.450   1.681   0.204  1.4652 -0.2053 -1.5490
  953SOL    HW2 2859   2.460   1.755   0.053 -1.4775 -1.1134  1.3188
  954SOL     OW 2860   2.234   0.491   1.044  0.5450 -0.1195  0.6126
  954SOL    HW1 2861   2.220   0.501   0.939  0.0691  0.9919 -2.7538
  954SOL    HW2 2862   2.330   0.459   1.072 -1.8473  1.1166 -1.3875
  955SOL     OW 2863   0.217   2.687   1.237  0.1753 -0.5008 -0.4419
  955SOL    HW1 2864   0.118   2.647   1.247 -2.8307 -0.3016 -4.1251
  955SOL    HW2 2865   0.256   2.670   1.143  3.1502  0.4524  1.6506
  956SOL     OW 2866   2.763   2.481   2.498  0.5117  0.0812 -0.1351
  956SOL    HW1 2867   2.788   2.384   2.469  0.2068  1.7691  2.0947
  956SOL    HW2 2868   2.794   2.551   2.430  1.7378 -1.5776 -0.4832
  957SOL     OW 2869   1.552   1.991   2.680 -0.1322  0.6274  0.5720
  957SOL    HW1 2870   1.536   1.886   2.693  0.2715  2.6012 -3.0274
  957SOL    HW2 2871   1.590   2.012   2.584  0.9434  0.0794  0.7385
  958SOL     OW 2872   2.658   2.277   2.975 -0.0086 -0.3964 -0.2839
  958SOL    HW1 2873   2.568   2.319   2.936 -1.2734 -2.0349  0.5412
  958SOL    HW2 2874   2.633   2.212   3.052 -1.2468  2.2537  1.7105
  959SOL     OW 2875   0.262   2.801   0.036 -0.1270  0.5199  0.0497
  959SOL    HW1 2876   0.167   2.815   0.076 -0.0134  2.4619  3.6533
  959SOL    HW2 2877   0.280   2.701   0.014  0.9912 -0.5657  0.0703
  960SOL     OW 2878   1.926   0.450   2.054 -0.1625  0.0262  0.4671
  960SOL    HW1 2879   1.935   0.533   1.994  0.3623  0.6601  2.6684
  960SOL    HW2 2880   1.975   0.467   2.146 -1.5701  0.0284 -0.6614
  961SOL     OW 2881   2.748   1.985   1.035  0.6323  0.6277  0.5754
  961SOL    HW1 2882   2.798   2.074   1.010  1.6649  0.9399  1.9764
  961SOL    HW2 2883   2.683   1.995   1.115  2.2117  2.8555  0.0752
  962SOL     OW 2884   1.250   0.944   3.088 -0.0358 -0.2710 -0.1195
  962SOL    HW1 2885   1.276   1.025   3.024  2.6867  1.4229 -0.9408
  962SOL    HW2 2886   1.256   0.979   3.186 -0.0975  0.2220 -0.1383
  963SOL     OW 2887   2.175   2.585   1.920 -0.6837  0.0564 -0.5595
  963SOL    HW1 2888   2.173   2.509   1.995  0.6099  0.7724  0.5444
  963SOL    HW2 2889   2.254   2.654   1.932 -0.3036 -0.7722 -1.6363
  964SOL     OW 2890   2.427   0.363   1.719  0.1374 -0.3412  0.0253
  964SOL    HW1 2891   2.513   0.395   1.769 -0.5450 -0.9783  1.3944
  964SOL    HW2 2892   2.442   0.383   1.619 -0.7283  2.5189  0.8654
  965SOL     OW 2893   2.669   3.004   0.138  0.4177  0.3546 -0.1466
  965SOL    HW1 2894   2.749   2.998   0.080 -3.6379 -2.8527 -0.9557
  965SOL    HW2 2895   2.581   3.034   0.089  2.0147 -0.2256 -0.1393
  966SOL     OW 2896   2.522   2.622   2.225 -0.3277 -0.6550  0.1394
  966SOL    HW1 2897   2.457   2.565   2.169 -1.4138 -1.0976  0.7696
  966SOL    HW2 2898   2.514   2.724   2.203  0.6745  0.3830  0.8346
  967SOL     OW 2899   2.719   2.856   2.476  0.4654 -0.0907  0.0613
  967SOL    HW1 2900   2.754   2.794   2.399  0.0065  1.0016 -0.1448
  967SOL    HW2 2901   2.777   2.941   2.498 -1.6181  2.9028  1.9947
  968SOL     OW 2902   1.965   1.046   2.718 -0.3816  0.4723  0.1149
  968SOL    HW1 2903   1.930   1.130   2.679  1.1867  0.0891 -0.7636
  968SOL    HW2 2904   1.942   0.961   2.666  1.3239 -1.2365  3.8750
  969SOL     OW 2905   2.740   2.384   1.179 -0.4226  0.1463  0.2812
  969SOL    HW1 2906   2.673   2.385   1.099  0.5743  0.7055 -2.3038
  969SOL    HW2 2907   2.782   2.293   1.196  0.0041  1.8443  1.5295
  970SOL     OW 2908   1.111   2.099   1.791 -0.8518 -0.5551  0.4070
  970SOL    HW1 2909   1.023   2.115   1.747  1.2723 -2.7021  1.3737
  970SOL    HW2 2910   1.115   2.127   1.888  1.5740 -0.1374  0.7571
  971SOL     OW 2911   2.835   2.136   1.916  0.3124  0.8228 -0.1168
  971SOL    HW1 2912   2.827   2.236   1.947  0.5498 -2.1428  2.5579
  971SOL    HW2 2913   2.912   2.106   1.853 -0.5303 -0.7040  0.9352
  972SOL     OW 2914   2.061   2.474   0.283 -0.4871  0.4990 -0.5282
  972SOL    HW1 2915   2.054   2.407   0.200  0.8564  1.5282 -0.2729
  972SOL    HW2 2916   2.022   2.430   0.367  0.9472 -0.4523 -1.9990
  973SOL     OW 2917   1.309   1.039   1.853  0.1422  0.3896 -0.5242
  973SOL    HW1 2918   1.235   1.017   1.780 -1.1988 -0.3324 -1.8160
  973SOL    HW2 2919   1.309   1.133   1.887 -1.3605 -0.7837  0.1825
  974SOL     OW 2920   1.638   0.555   2.008 -0.1863  0.5597  0.4931
  974SOL    HW1 2921   1.729   0.603   1.994 -2.4130 -0.5308  0.9606
  974SOL    HW2 2922   1.554   0.610   1.988  3.1435 -0.1407  3.2546
  975SOL     OW 2923   2.462   3.052   3.083 -0.0907 -0.0388  0.0160
  975SOL    HW1 2924   2.402   2.993   3.144  2.8159 -0.6228  0.3111
  975SOL    HW2 2925   2.490   2.999   2.995 -0.2548 -2.8659 -2.3406
  976SOL     OW 2926   1.970   2.921   2.361  0.5137  0.0879  0.2605
  976SOL    HW1 2927   1.921   2.861   2.439 -1.5967  0.0016  0.4656
  976SOL    HW2 2928   2.073   2.910   2.371 -0.7451  1.4791  1.1554
  977SOL     OW 2929   0.487   0.556   0.984 -0.3251 -0.5921 -0.6528
  977SOL    HW1 2930   0.410   0.545   0.919 -0.8330 -0.4997  1.9225
  977SOL    HW2 2931   0.579   0.568   0.926  1.8435 -3.1175 -0.5251
   3.10000   3.10000   3.10000
