1000 SPC/Fw water molecules t=   0.76000 step= 760
 2931
    1SOL     OW    1   2.488   0.402   2.604 -0.0728 -0.4448 -0.2335
    1SOL    HW1    2   2.474   0.301   2.587 -1.1036 -0.7880 -0.3513
    1SOL    HW2    3   2.553   0.428   2.681  0.3008  2.0275  0.6115
    2SOL     OW    4   2.760   3.055   1.409  0.0788  0.9816  0.2424
    2SOL    HW1    5   2.820   3.084   1.328  1.4043  1.1644 -1.5872
    2SOL    HW2    6   2.711   3.132   1.457  0.5088 -0.2623 -0.0139
    3SOL     OW    7   2.740   2.624   0.341  0.3651  0.3202 -0.3240
    3SOL    HW1    8   2.700   2.527   0.355 -0.2967 -0.3074  2.0575
    3SOL    HW2    9   2.813   2.649   0.414  0.8183 -0.0861 -0.5823
    4SOL     OW   10   1.276   1.482   2.363  0.1998  0.1061  0.0610
    4SOL    HW1   11   1.184   1.530   2.336 -1.8933  0.7107 -0.4545
    4SOL    HW2   12   1.260   1.386   2.397 -0.4133 -4.4868 -1.4922
    5SOL     OW   13   1.150   1.519   3.089 -0.7309 -0.1215  0.0257
    5SOL    HW1   14   1.214   1.596   3.109  0.4412 -2.8354  1.9736
    5SOL    HW2   15   1.054   1.535   3.130 -0.9936 -0.1100 -0.0845
    6SOL     OW   16   0.088   1.885   2.947  0.4626 -0.3713 -0.0769
    6SOL    HW1   17   0.008   1.913   3.014 -1.0618  0.7781  0.6058
    6SOL    HW2   18   0.147   1.822   3.006  0.3403  0.7580 -1.5584
    7SOL     OW   19   2.562   0.961   1.155  0.8365 -0.1248  0.1853
    7SOL    HW1   20   2.500   0.890   1.196 -1.9434 -1.9220 -3.4327
    7SOL    HW2   21   2.556   0.963   1.051 -0.6180 -0.5541  0.7572
    8SOL     OW   22   0.377   0.591   1.507  0.1600  0.7268 -0.0605
    8SOL    HW1   23   0.458   0.533   1.535  0.1357  1.2843 -2.0664
    8SOL    HW2   24   0.354   0.576   1.404 -1.0928 -1.7563 -0.2306
    9SOL     OW   25   1.176   0.883   2.383 -0.0775 -0.1524  0.7282
    9SOL    HW1   26   1.265   0.907   2.331 -0.6263 -1.9332 -1.5927
    9SOL    HW2   27   1.112   0.822   2.330  0.8680 -0.1401  1.0336
   10SOL     OW   28   0.634   1.323   1.301  0.3460 -0.5465 -0.3172
   10SOL    HW1   29   0.547   1.348   1.250 -0.7950  0.3106 -1.2646
   10SOL    HW2   30   0.694   1.412   1.302 -1.0973 -1.5959  0.8454
   11SOL     OW   31   2.377   2.732   0.868 -0.3926  0.1749  0.0777
   11SOL    HW1   32   2.352   2.801   0.938 -0.4328  2.7213 -1.9780
   11SOL    HW2   33   2.469   2.690   0.880  0.2353 -0.9505 -2.0527
   12SOL     OW   34   1.470   0.897   0.362  0.2384  0.4177 -0.0304
   12SOL    HW1   35   1.420   0.981   0.320 -2.2504 -1.8770 -0.9660
   12SOL    HW2   36   1.496   0.815   0.300  0.3362  1.1809 -0.4120
   13SOL     OW   37   2.462   0.664   1.784 -0.1247 -0.0540 -0.1417
   13SOL    HW1   38   2.373   0.633   1.826 -1.4399 -1.4516 -1.6693
   13SOL    HW2   39   2.463   0.643   1.680  0.4891 -1.1576 -0.4623
   14SOL     OW   40   1.903   0.065   0.735 -0.2474 -0.4555  0.1687
   14SOL    HW1   41   1.825   0.064   0.665  1.9328  0.6657  0.1707
   14SOL    HW2   42   1.881   0.002   0.810 -1.3659  0.8796 -0.6628
   15SOL     OW   43   1.982   2.062   2.729  0.1196  0.4631  0.0020
   15SOL    HW1   44   1.955   2.148   2.782  0.3328  2.2230  0.1342
   15SOL    HW2   45   1.898   2.010   2.694  0.3169 -0.4136  0.4881
   16SOL     OW   46   1.603   1.705   2.955  0.4596  0.1634 -0.2169
   16SOL    HW1   47   1.610   1.607   2.994  0.2396 -0.3643  3.3608
   16SOL    HW2   48   1.686   1.764   2.979 -1.5275  2.1944  2.8891
   17SOL     OW   49   0.148   0.530   0.178  0.3526 -0.2743  0.4658
   17SOL    HW1   50   0.237   0.531   0.120 -3.2088 -1.4643 -1.8459
   17SOL    HW2   51   0.067   0.546   0.118 -0.2727 -0.0398  0.9733
   18SOL     OW   52   0.929   2.964   2.096  0.2843 -0.3678  0.3163
   18SOL    HW1   53   0.866   2.888   2.126  1.3488  1.4210 -0.7234
   18SOL    HW2   54   0.991   2.931   2.018  2.7627 -1.1549 -2.4973
   19SOL     OW   55   0.519   0.825   1.889  0.2745  0.1047  0.0287
   19SOL    HW1   56   0.542   0.770   1.972  0.4023  0.0555  0.4494
   19SOL    HW2   57   0.596   0.868   1.842  0.4901 -2.9751 -0.3416
   20SOL     OW   58   0.222   2.717   0.822  0.2533 -0.4963  0.8131
   20SOL    HW1   59   0.176   2.809   0.806 -0.1802 -0.4855  0.4432
   20SOL    HW2   60   0.305   2.707   0.759  1.3469 -1.5469  2.1285
   21SOL     OW   61   2.757   0.217   2.091 -0.4499  0.1565  0.0548
   21SOL    HW1   62   2.694   0.154   2.042 -0.1617  0.1321  0.4570
   21SOL    HW2   63   2.847   0.174   2.112 -1.4373 -1.5754  1.8022
   22SOL     OW   64   2.369   0.225   0.081  0.4084  0.1689  0.8208
   22SOL    HW1   65   2.374   0.122   0.089 -0.4735  0.4976  0.5879
   22SOL    HW2   66   2.270   0.261   0.097 -3.1483  0.8641  1.4751
   23SOL     OW   67   2.768   0.647   0.633  0.3881 -0.3351  0.1057
   23SOL    HW1   68   2.806   0.552   0.641 -3.3694  0.4236 -0.6278
   23SOL    HW2   69   2.755   0.683   0.535 -1.0717 -0.1661  2.8211
   24SOL     OW   70   0.164   1.907   0.384  0.2035  0.4935  0.1777
   24SOL    HW1   71   0.097   1.936   0.307  3.3531  1.6593 -1.3394
   24SOL    HW2   72   0.259   1.931   0.350  1.0786  1.1387 -0.9633
   25SOL     OW   73   2.210   0.544   0.325 -0.2657 -0.0600  0.5718
   25SOL    HW1   74   2.230   0.642   0.293  3.3210  0.8385 -2.6977
   25SOL    HW2   75   2.298   0.494   0.331 -0.1914  1.2617 -1.8996
   26SOL     OW   76   2.533   2.103   2.100 -0.2542  0.1442 -0.3844
   26SOL    HW1   77   2.585   2.172   2.162  1.6323 -2.2683 -0.6976
   26SOL    HW2   78   2.596   2.053   2.035  1.8606 -1.5906 -1.1214
   27SOL     OW   79   0.602   2.976   0.212  0.1057 -0.1258  0.4253
   27SOL    HW1   80   0.701   2.943   0.195 -1.8860  0.0463 -0.8981
   27SOL    HW2   81   0.539   2.969   0.129  0.1101 -0.1056  1.1580
   28SOL     OW   82   1.594   0.157   0.293 -0.3255  0.1243 -0.4848
   28SOL    HW1   83   1.626   0.142   0.192 -1.7871 -0.0455 -0.4038
   28SOL    HW2   84   1.588   0.258   0.312  3.3900 -1.3382  0.3764
   29SOL     OW   85   1.950   0.593   0.419  0.0435  0.5096  0.1669
   29SOL    HW1   86   1.936   0.691   0.433  0.3895 -2.3812  0.9723
   29SOL    HW2   87   2.039   0.568   0.367  1.8810  3.6447  0.4358
   30SOL     OW   88   0.200   1.995   0.905 -0.5464 -0.0230  0.0850
   30SOL    HW1   89   0.207   2.014   0.805  1.8152 -0.1789  1.6650
   30SOL    HW2   90   0.136   2.054   0.950 -0.3176 -3.0207 -1.1376
   31SOL     OW   91   2.114   3.068   2.320  0.0099 -0.0028 -0.2145
   31SOL    HW1   92   2.128   3.046   2.420  3.5342  0.9797 -0.2448
   31SOL    HW2   93   2.029   3.013   2.289 -0.2994 -0.8585  0.9488
   32SOL     OW   94   2.962   0.109   0.215  0.0599 -0.2255 -0.7788
   32SOL    HW1   95   2.942   0.015   0.258  0.0796 -1.9368 -1.7325
   32SOL    HW2   96   3.049   0.152   0.239 -0.7381 -1.8717 -3.1349
   33SOL     OW   97   0.944   0.296   0.615 -0.0410 -0.5948  0.0357
   33SOL    HW1   98   0.946   0.197   0.581  1.9200 -3.5415  0.5143
   33SOL    HW2   99   1.039   0.342   0.630 -0.1605 -0.3810  1.8513
   34SOL     OW  100   0.315   2.796   1.092 -0.3883 -0.7848 -0.4612
   34SOL    HW1  101   0.277   2.748   1.011 -1.0495  1.7519  0.5709
   34SOL    HW2  102   0.411   2.836   1.084  0.4626  0.9437  0.3249
   35SOL     OW  103   0.028   0.174   1.857  0.2560 -0.0891  0.0441
   35SOL    HW1  104   0.063   0.077   1.886  0.3098 -1.2659  1.6020
   35SOL    HW2  105  -0.032   0.165   1.771 -1.0849 -0.0231 -0.2065
   36SOL     OW  106   1.966   1.158   1.760  0.1646  0.1104 -0.7858
   36SOL    HW1  107   2.008   1.104   1.681 -0.8922 -0.4183 -1.2137
   36SOL    HW2  108   2.030   1.215   1.810  2.9665  0.6836  0.1500
   37SOL     OW  109   1.202   0.153   0.904  0.2826 -0.1115  0.3710
   37SOL    HW1  110   1.251   0.205   0.979  0.4934  0.6593 -1.5035
   37SOL    HW2  111   1.260   0.082   0.862 -1.3595 -0.4657  2.2109
   38SOL     OW  112   1.089   2.815   2.457 -0.6731 -0.1909  0.3031
   38SOL    HW1  113   1.022   2.733   2.474 -2.2823 -0.4105  2.7262
   38SOL    HW2  114   1.040   2.902   2.446  0.4129 -1.3641  0.2069
   39SOL     OW  115   2.310   1.401   3.026  0.0128 -0.4684 -0.3351
   39SOL    HW1  116   2.409   1.373   3.022 -0.8216  2.6680  4.9094
   39SOL    HW2  117   2.269   1.373   3.117 -1.1208 -1.4793 -1.0876
   40SOL     OW  118   2.091   2.488   2.564  0.3492  0.1247 -0.1528
   40SOL    HW1  119   2.078   2.593   2.560 -1.0703 -0.6681  1.4924
   40SOL    HW2  120   2.031   2.434   2.500  0.9416 -2.2958  2.2971
   41SOL     OW  121   2.997   0.694   2.814 -0.1043 -0.3929  0.2704
   41SOL    HW1  122   2.924   0.754   2.766  3.0943  4.8068  1.4585
   41SOL    HW2  123   2.972   0.593   2.808  0.1807  3.1703  0.2469
   42SOL     OW  124   1.750   1.755   0.523 -0.2134  0.2079 -0.3216
   42SOL    HW1  125   1.714   1.657   0.507 -0.0797 -2.9781  0.4255
   42SOL    HW2  126   1.790   1.797   0.434  0.5489 -1.0523 -1.3816
   43SOL     OW  127   0.466   1.690   1.086 -0.6316  0.0346 -0.1137
   43SOL    HW1  128   0.475   1.631   1.174  0.5703 -2.7162  2.2422
   43SOL    HW2  129   0.370   1.709   1.057 -0.5663  2.4952  1.4190
   44SOL     OW  130   1.840   2.494   3.066 -0.1911  0.0054  0.1296
   44SOL    HW1  131   1.839   2.579   3.008 -1.4069  1.0364 -1.6974
   44SOL    HW2  132   1.926   2.441   3.041  1.3896 -1.0784 -2.8550
   45SOL     OW  133   0.406   1.947   2.589  1.0432 -0.1337  0.4009
   45SOL    HW1  134   0.330   1.915   2.523  0.2406 -2.3281  0.7832
   45SOL    HW2  135   0.461   1.864   2.619 -1.9034 -0.4307 -2.0328
   46SOL     OW  136   1.253   0.694   0.211 -0.2784  0.2644 -0.2054
   46SOL    HW1  137   1.278   0.766   0.144  1.7809  0.8723  2.4483
   46SOL    HW2  138   1.157   0.698   0.248  0.6407 -0.1027 -4.6013
   47SOL     OW  139   0.226   2.483   1.594  0.1441  0.1617  0.2723
   47SOL    HW1  140   0.206   2.387   1.629  3.0171  1.5367 -1.2483
   47SOL    HW2  141   0.199   2.504   1.492 -1.5341  1.0563 -1.3479
   48SOL     OW  142   2.631   0.633   0.127  0.9432  0.5593  0.0499
   48SOL    HW1  143   2.592   0.605   0.217 -2.3155 -1.7039  0.5441
   48SOL    HW2  144   2.710   0.697   0.141  0.5772 -2.7488  2.1860
   49SOL     OW  145   0.321   0.782   1.701 -0.2629  0.3009  0.1631
   49SOL    HW1  146   0.391   0.815   1.771  0.5528 -0.0112  0.7525
   49SOL    HW2  147   0.368   0.714   1.635  1.3314 -0.2148 -1.2414
   50SOL     OW  148   1.681   1.109   0.276 -0.1790  0.6768  0.0269
   50SOL    HW1  149   1.712   1.019   0.240  0.0223 -0.8725  0.3649
   50SOL    HW2  150   1.630   1.104   0.362  0.0622  2.6066  0.4783
   51SOL     OW  151   2.903   1.884   0.325  0.1655  0.0577 -0.4261
   51SOL    HW1  152   2.848   1.825   0.264 -0.8085  2.9615  1.2161
   51SOL    HW2  153   2.975   1.826   0.377 -1.2324 -0.0567 -1.0798
   52SOL     OW  154   0.788   2.010   0.484 -0.2298 -0.2914  0.2321
   52SOL    HW1  155   0.703   2.054   0.514  1.1416  0.7976  0.5559
   52SOL    HW2  156   0.812   1.942   0.560  1.6280  0.5421  1.2613
   53SOL     OW  157   0.186   0.421   1.600 -0.2332 -0.2200  0.3546
   53SOL    HW1  158   0.256   0.496   1.604  0.6569  0.9189  1.1902
   53SOL    HW2  159   0.092   0.462   1.595 -1.0735  0.2805  0.5981
   54SOL     OW  160   1.779   0.480   3.058  0.2014  0.3150 -0.0445
   54SOL    HW1  161   1.826   0.459   3.147  0.3101  0.3427 -1.0425
   54SOL    HW2  162   1.674   0.475   3.055 -0.8491  0.3252 -1.4899
   55SOL     OW  163   0.782   2.897   0.684  0.2860 -0.6803 -0.0837
   55SOL    HW1  164   0.729   2.985   0.678 -0.0544  0.4685 -0.3345
   55SOL    HW2  165   0.882   2.917   0.663 -0.6969  4.2078  0.7489
   56SOL     OW  166   0.474   1.608   0.036  0.6039  0.3279 -0.0146
   56SOL    HW1  167   0.381   1.662   0.029  1.1821 -0.2647 -1.0092
   56SOL    HW2  168   0.477   1.528  -0.026 -0.0325  0.5851  2.3592
   57SOL     OW  169   1.738   2.524   2.546 -0.7766 -0.3488 -0.5254
   57SOL    HW1  170   1.785   2.433   2.520  0.6372  0.8730 -0.3745
   57SOL    HW2  171   1.659   2.506   2.602  1.5134  2.3943  0.0734
   58SOL     OW  172   0.637   0.307   1.038  0.0925 -0.3783  0.2750
   58SOL    HW1  173   0.538   0.295   1.015 -1.9215 -1.0235 -1.4333
   58SOL    HW2  174   0.675   0.215   1.065  2.0370  1.0037  1.3799
   59SOL     OW  175   0.454   2.430   2.751 -0.0741  0.8508 -0.0990
   59SOL    HW1  176   0.484   2.351   2.681  0.5539 -0.5888  0.4887
   59SOL    HW2  177   0.516   2.437   2.832  1.1463 -0.9929 -1.9929
   60SOL     OW  178   2.291   2.057   2.196 -0.2568  0.1471 -0.1877
   60SOL    HW1  179   2.386   2.066   2.153  2.7534 -0.3489  0.5141
   60SOL    HW2  180   2.298   2.058   2.300  0.0570 -0.2424  4.4230
   61SOL     OW  181   1.327   0.636   0.500 -0.2000 -0.1098  0.8028
   61SOL    HW1  182   1.253   0.699   0.547 -0.3667  2.8907  0.7001
   61SOL    HW2  183   1.340   0.662   0.397  1.9341  0.7691 -1.1311
   62SOL     OW  184   2.773   1.810   2.911 -0.1242  0.1683  0.1885
   62SOL    HW1  185   2.776   1.710   2.915  0.7333  1.9063 -2.8924
   62SOL    HW2  186   2.860   1.844   2.863 -0.8499  0.4408 -2.4215
   63SOL     OW  187   0.620   0.918   0.171 -0.3909  0.1050 -0.0849
   63SOL    HW1  188   0.616   0.968   0.076 -0.2113  0.1019 -2.5734
   63SOL    HW2  189   0.701   0.959   0.226  1.4131  1.3036 -1.7993
   64SOL     OW  190   0.127   0.505   2.470 -0.4244 -0.7571 -0.1290
   64SOL    HW1  191   0.191   0.465   2.535 -1.3802 -0.5523 -3.3686
   64SOL    HW2  192   0.138   0.606   2.443 -1.9731  0.4994  1.9446
   65SOL     OW  193   0.187   1.485   0.556 -0.7253 -0.1635 -0.0115
   65SOL    HW1  194   0.208   1.549   0.636 -1.6205  1.5392  0.6631
   65SOL    HW2  195   0.252   1.507   0.478 -0.6155 -3.1285 -2.7774
   66SOL     OW  196   2.546   0.387   0.591  0.3243  0.0062  0.3681
   66SOL    HW1  197   2.645   0.392   0.614  0.5515  0.5197  2.2374
   66SOL    HW2  198   2.496   0.313   0.649 -2.8543 -0.4086  1.7949
   67SOL     OW  199   0.528   2.534   1.366  0.0832 -0.3216 -0.2195
   67SOL    HW1  200   0.620   2.533   1.413 -0.5781 -1.8904 -0.9812
   67SOL    HW2  201   0.467   2.450   1.366  0.4840  1.5114  1.4815
   68SOL     OW  202   1.007   1.093   2.447  0.3679 -0.4448 -0.1158
   68SOL    HW1  203   1.053   1.000   2.427  0.8684 -0.5102  1.7965
   68SOL    HW2  204   0.929   1.123   2.383  0.1367  0.0342  0.8254
   69SOL     OW  205   0.749   2.780   2.164 -0.1978 -0.5535 -0.2527
   69SOL    HW1  206   0.798   2.692   2.143  1.8720 -1.5357 -2.5214
   69SOL    HW2  207   0.648   2.760   2.183  1.3677  0.1994 -0.2359
   70SOL     OW  208   0.547   0.331   2.691 -0.3932  0.0461  0.2632
   70SOL    HW1  209   0.466   0.381   2.733 -3.0096 -0.2256  1.2502
   70SOL    HW2  210   0.557   0.229   2.713 -1.5484 -0.6775  1.7768
   71SOL     OW  211   1.072   1.731   0.380  0.3292  0.5799  0.4228
   71SOL    HW1  212   0.985   1.673   0.411 -1.6040 -0.9874  1.7651
   71SOL    HW2  213   1.067   1.773   0.287 -1.3273 -0.1320  1.3483
   72SOL     OW  214   1.828   0.172   2.124  0.4731  0.0974  0.2463
   72SOL    HW1  215   1.911   0.200   2.170  1.7378 -0.2040 -0.1949
   72SOL    HW2  216   1.825   0.067   2.116  1.6484  0.5664 -0.1430
   73SOL     OW  217   2.823   2.166   2.420 -0.1995 -0.1020 -0.5734
   73SOL    HW1  218   2.821   2.075   2.372  0.2918  1.2590  1.1853
   73SOL    HW2  219   2.861   2.157   2.523 -0.1625 -4.5579  5.2989
   74SOL     OW  220   2.724   2.901   2.104 -0.0198  0.4905  0.5423
   74SOL    HW1  221   2.667   2.911   2.185 -0.0460  0.1370 -0.4120
   74SOL    HW2  222   2.813   2.951   2.109 -2.9152 -1.0254  0.0600
   75SOL     OW  223   0.905   0.753   1.094  0.3283  0.1001  0.1180
   75SOL    HW1  224   0.832   0.796   1.036  1.4644  0.4619  1.6909
   75SOL    HW2  225   0.921   0.813   1.178 -3.5017  0.3160 -1.3769
   76SOL     OW  226   1.697   1.237   2.497  0.2500 -0.3728  0.0350
   76SOL    HW1  227   1.612   1.182   2.516  0.0238 -2.6575 -0.5198
   76SOL    HW2  228   1.697   1.327   2.554  2.2242 -1.0407 -3.3388
   77SOL     OW  229   2.996   0.914   0.976  0.0337 -0.0627 -0.3470
   77SOL    HW1  230   2.962   0.821   1.001 -1.1728  2.1039  1.8236
   77SOL    HW2  231   3.061   0.952   1.046  1.2838 -0.6183  1.5973
   78SOL     OW  232   2.097   1.432   1.531 -0.0375  0.6067 -0.7977
   78SOL    HW1  233   2.202   1.448   1.523  1.1934  1.7664  0.9352
   78SOL    HW2  234   2.045   1.443   1.444  1.3803 -1.4101 -0.7981
   79SOL     OW  235   0.613   1.332   0.871 -0.4408  0.7755 -0.1757
   79SOL    HW1  236   0.533   1.392   0.905 -1.3075  0.4439  0.7153
   79SOL    HW2  237   0.598   1.289   0.780 -0.7765  0.2611  0.0167
   80SOL     OW  238   0.622   0.480   1.573 -0.2198 -0.2703  0.3152
   80SOL    HW1  239   0.674   0.551   1.519  0.4184 -2.2700 -1.3392
   80SOL    HW2  240   0.652   0.381   1.545 -0.9163 -2.0703 -1.0996
   81SOL     OW  241   1.041   1.381   2.622  0.2290  0.2301  0.4630
   81SOL    HW1  242   1.055   1.295   2.567 -0.9200  0.4767 -1.4426
   81SOL    HW2  243   0.969   1.449   2.580 -0.8278  1.1704 -0.8697
   82SOL     OW  244   1.007   2.940   1.498  0.4984 -0.0370  0.1204
   82SOL    HW1  245   1.029   2.995   1.415  0.2667 -0.0686 -0.2594
   82SOL    HW2  246   0.937   2.867   1.479 -1.5866  1.0752  2.6612
   83SOL     OW  247   2.743   2.493   0.842 -0.0531 -0.3006  0.1867
   83SOL    HW1  248   2.667   2.433   0.799 -1.0260 -0.4318 -2.9278
   83SOL    HW2  249   2.723   2.597   0.831  1.2839 -2.2916 -1.0107
   84SOL     OW  250   0.658   3.056   2.351 -0.5647  0.3305  0.3472
   84SOL    HW1  251   0.586   3.063   2.424 -0.6703  1.5616  0.7105
   84SOL    HW2  252   0.722   2.970   2.365  0.2244 -1.6381  0.2854
   85SOL     OW  253   0.311   1.582   1.509 -0.1625 -0.2809  0.1796
   85SOL    HW1  254   0.263   1.670   1.535  0.8640  0.0516 -2.4258
   85SOL    HW2  255   0.360   1.553   1.595  0.1423  0.6206  1.0601
   86SOL     OW  256   0.382   0.984   1.516 -0.1034  0.3874  0.1861
   86SOL    HW1  257   0.378   0.945   1.416 -0.9127 -0.5347  0.6623
   86SOL    HW2  258   0.384   0.906   1.587 -0.6154  0.8637  2.7892
   87SOL     OW  259   1.614   0.660   0.216  0.0230 -0.4286  0.0854
   87SOL    HW1  260   1.671   0.748   0.196  1.5993  1.3155  1.3451
   87SOL    HW2  261   1.572   0.617   0.134  1.1083 -0.8888  2.2061
   88SOL     OW  262   1.605   1.360   0.202  0.1903 -0.0906  0.1707
   88SOL    HW1  263   1.628   1.261   0.230 -2.9545 -0.6732  3.3650
   88SOL    HW2  264   1.500   1.370   0.207 -1.5205 -1.2050  1.4271
   89SOL     OW  265   0.033   0.424   0.581 -0.2378  0.2158 -0.6084
   89SOL    HW1  266   0.101   0.344   0.584 -0.4945 -1.7572  3.1701
   89SOL    HW2  267  -0.063   0.396   0.557  0.4407 -0.4359  0.1922
   90SOL     OW  268   0.900   1.624   0.035  0.1556  0.0151  0.7952
   90SOL    HW1  269   0.833   1.573   0.095  1.1210  2.0524  0.7966
   90SOL    HW2  270   0.876   1.628  -0.067  0.1797 -2.3263 -0.3339
   91SOL     OW  271   1.222   1.445   1.759 -0.1423 -0.2815 -0.0028
   91SOL    HW1  272   1.191   1.514   1.826  1.2773 -3.0262  0.8169
   91SOL    HW2  273   1.325   1.436   1.751 -2.2248 -0.8838  2.7151
   92SOL     OW  274   0.038   0.977   1.205 -0.2924  0.1923  0.6760
   92SOL    HW1  275   0.074   1.071   1.173 -0.7533  0.5371 -1.1258
   92SOL    HW2  276   0.045   0.968   1.308  0.4762  0.3737 -0.8317
   93SOL     OW  277   0.017   2.739   3.094 -0.2634 -0.5010 -0.2354
   93SOL    HW1  278  -0.060   2.756   3.025 -2.4933  2.2461 -0.3985
   93SOL    HW2  279   0.041   2.639   3.119 -1.6099 -1.6080  1.9046
   94SOL     OW  280   1.515   1.453   1.761 -0.3160  0.7015  0.2992
   94SOL    HW1  281   1.585   1.374   1.760  0.5091  0.4348  0.1780
   94SOL    HW2  282   1.545   1.541   1.808 -1.0544  3.7949 -0.8895
   95SOL     OW  283   1.389   2.537   3.024 -0.0336  0.8631 -0.3988
   95SOL    HW1  284   1.300   2.514   3.077 -0.3696  0.1982 -1.3504
   95SOL    HW2  285   1.408   2.464   2.955  0.9662  0.2773  0.2548
   96SOL     OW  286   0.527   2.086   1.290 -0.2683  0.0000 -0.8330
   96SOL    HW1  287   0.506   2.074   1.189  2.4262  1.9384 -2.2164
   96SOL    HW2  288   0.580   2.012   1.335 -2.7501  0.0450 -2.0218
   97SOL     OW  289   0.382   1.652   2.446 -0.0892 -0.1111 -0.4071
   97SOL    HW1  290   0.299   1.701   2.416 -1.0703 -1.3837  0.5995
   97SOL    HW2  291   0.398   1.661   2.551  1.6363 -0.4566  1.6515
   98SOL     OW  292   1.982   1.602   1.239  0.3090  0.0656  0.0257
   98SOL    HW1  293   1.912   1.579   1.314 -0.3594 -0.4303  1.6038
   98SOL    HW2  294   1.967   1.543   1.155 -0.6469  1.1068  0.5810
   99SOL     OW  295   2.445   2.088   1.394 -0.1629 -0.5588 -0.2736
   99SOL    HW1  296   2.421   2.088   1.494 -2.4920  0.1726  0.0552
   99SOL    HW2  297   2.469   1.994   1.359 -0.3209 -0.8823 -0.8900
  100SOL     OW  298   2.331   0.310   2.092 -0.0512 -0.3469 -0.1037
  100SOL    HW1  299   2.266   0.286   2.176  1.2500 -0.7946  2.0590
  100SOL    HW2  300   2.429   0.327   2.123 -0.4894  2.2993  0.6615
  101SOL     OW  301   0.350   1.508   0.299 -0.0565  0.2764  0.6763
  101SOL    HW1  302   0.416   1.516   0.382  0.9193  0.7237  2.2826
  101SOL    HW2  303   0.365   1.581   0.225  2.4317 -0.1795 -0.8904
  102SOL     OW  304   2.269   1.015   0.850 -0.5374  0.7490 -0.8838
  102SOL    HW1  305   2.207   0.934   0.836 -0.4330 -2.7859 -0.7308
  102SOL    HW2  306   2.299   1.059   0.763 -2.6296  1.6982  1.2830
  103SOL     OW  307   2.283   0.034   0.396 -0.4934  0.2643 -0.0019
  103SOL    HW1  308   2.288   0.133   0.378 -0.1550 -2.1850 -0.8842
  103SOL    HW2  309   2.368  -0.005   0.443  3.3748  2.2459 -0.6516
  104SOL     OW  310   0.131   1.776   2.181 -0.1271 -0.2529 -0.0090
  104SOL    HW1  311   0.182   1.747   2.095  3.8835 -0.4844 -0.6715
  104SOL    HW2  312   0.026   1.779   2.170 -0.0874  0.7463  2.4526
  105SOL     OW  313   1.249   2.126   0.797 -0.6222 -0.0817  0.2082
  105SOL    HW1  314   1.170   2.132   0.732  0.2751  1.3248 -1.6735
  105SOL    HW2  315   1.294   2.032   0.796  0.4392 -0.6586 -1.0877
  106SOL     OW  316   2.155   0.437   1.430 -0.2862 -0.3836 -0.0982
  106SOL    HW1  317   2.093   0.354   1.418  0.0830 -2.0840  1.7509
  106SOL    HW2  318   2.140   0.479   1.526 -0.4250  0.4419  0.8132
  107SOL     OW  319   1.750   3.052   1.162  0.7222 -0.3050  0.6724
  107SOL    HW1  320   1.784   3.130   1.226 -0.5194 -0.0234  0.7423
  107SOL    HW2  321   1.713   2.971   1.215  1.5774 -1.2289 -0.9825
  108SOL     OW  322   0.797   2.778   1.198 -0.2308  0.0066  0.0886
  108SOL    HW1  323   0.794   2.762   1.300  1.5613  0.0181  0.9961
  108SOL    HW2  324   0.891   2.803   1.159 -1.3646 -0.0345 -1.3388
  109SOL     OW  325   2.189   0.126   0.718 -1.1409  0.3573 -0.4253
  109SOL    HW1  326   2.090   0.108   0.693 -0.4559  0.4990 -2.5268
  109SOL    HW2  327   2.202   0.123   0.821 -0.6238 -2.0416 -0.1995
  110SOL     OW  328   0.473   2.859   2.772  0.3211  0.0369 -0.2774
  110SOL    HW1  329   0.452   2.896   2.681 -0.7327 -0.7565  2.9754
  110SOL    HW2  330   0.554   2.794   2.772  1.2497  0.6265 -1.2523
  111SOL     OW  331   1.300   0.544   2.319 -0.0766  0.6123  0.4413
  111SOL    HW1  332   1.209   0.556   2.375 -2.6606  1.4000  0.8207
  111SOL    HW2  333   1.367   0.478   2.365  0.4477  1.5708  0.8437
  112SOL     OW  334   1.714   0.558   1.485  0.0952 -0.2741 -0.3738
  112SOL    HW1  335   1.759   0.543   1.397 -1.7796 -0.9128 -0.7782
  112SOL    HW2  336   1.695   0.465   1.528  1.9122 -0.8477 -0.9399
  113SOL     OW  337   2.255   1.671   1.772  0.4427 -0.3597  0.2086
  113SOL    HW1  338   2.291   1.586   1.724 -1.3620 -0.2027  1.8358
  113SOL    HW2  339   2.286   1.680   1.871  0.8257  0.5299  0.2232
  114SOL     OW  340   0.362   0.537   1.262 -0.1146  0.2128 -0.2831
  114SOL    HW1  341   0.424   0.572   1.189 -1.5355  1.4329  0.5169
  114SOL    HW2  342   0.263   0.554   1.246 -0.4568  0.5412  1.8380
  115SOL     OW  343   2.780   1.584   1.292 -0.9257 -0.1927  0.0422
  115SOL    HW1  344   2.806   1.484   1.293  0.2594  0.1385 -1.3383
  115SOL    HW2  345   2.780   1.628   1.193 -3.4356  0.9335  1.3142
  116SOL     OW  346   1.858   1.049   0.725  0.6219 -0.6268  0.3982
  116SOL    HW1  347   1.781   1.004   0.673 -1.2675 -0.2689  0.2215
  116SOL    HW2  348   1.823   1.128   0.785 -1.3700  1.4074  0.0817
  117SOL     OW  349   1.187   0.419   0.621 -0.0752 -0.2679 -1.4245
  117SOL    HW1  350   1.238   0.434   0.713  2.2557  1.0117  1.1544
  117SOL    HW2  351   1.217   0.494   0.560  0.7539 -0.3628  0.3530
  118SOL     OW  352   1.120   1.113   1.069 -0.4114 -0.7576 -0.4112
  118SOL    HW1  353   1.096   1.044   1.138  0.3513  0.0114  1.2155
  118SOL    HW2  354   1.164   1.198   1.121  0.6244  0.2782  2.3480
  119SOL     OW  355   1.808   1.618   2.159 -0.1289 -0.1383 -0.1922
  119SOL    HW1  356   1.814   1.718   2.165  1.9618 -1.6284  0.3773
  119SOL    HW2  357   1.907   1.581   2.138 -1.6190  0.9732  1.9343
  120SOL     OW  358   2.940   2.851   0.156  0.3444  1.2492 -0.0718
  120SOL    HW1  359   3.016   2.807   0.105 -0.9034 -0.4326  2.4236
  120SOL    HW2  360   2.850   2.797   0.131 -1.9459 -0.9420 -0.1796
  121SOL     OW  361   2.005   0.759   2.295 -0.1270 -0.0195 -0.2773
  121SOL    HW1  362   2.006   0.824   2.212 -1.0096 -0.2993  0.1893
  121SOL    HW2  363   2.040   0.665   2.279 -0.9571 -0.5355 -1.9599
  122SOL     OW  364   2.635   2.680   1.220 -0.3001 -0.5200 -0.0129
  122SOL    HW1  365   2.701   2.608   1.179  1.8485  1.4098  0.8819
  122SOL    HW2  366   2.583   2.733   1.148  3.4974 -2.0171  1.2373
  123SOL     OW  367   1.765   0.094   1.704 -0.1202 -0.0031  0.3178
  123SOL    HW1  368   1.779  -0.006   1.668 -1.3261  0.2302  0.8680
  123SOL    HW2  369   1.840   0.130   1.764 -1.6633 -0.3562  0.3623
  124SOL     OW  370   0.123   0.449   1.081 -0.0086  0.4380  0.1750
  124SOL    HW1  371   0.091   0.516   1.148  0.9445 -4.1434 -1.9162
  124SOL    HW2  372   0.088   0.479   0.984  0.5402  2.2192  1.1277
  125SOL     OW  373   0.848   1.856   0.701  0.1966  0.0878  0.0677
  125SOL    HW1  374   0.939   1.812   0.711  0.7765 -1.0013 -1.4158
  125SOL    HW2  375   0.808   1.888   0.790  0.7502  1.2683  0.9724
  126SOL     OW  376   1.876   2.291   2.467 -0.2344  0.0424 -0.4677
  126SOL    HW1  377   1.939   2.269   2.389 -0.8959 -0.3687 -0.0448
  126SOL    HW2  378   1.814   2.212   2.492  0.3000 -0.6368 -0.1440
  127SOL     OW  379   0.915   0.896   0.286  0.8805  0.0350  0.1299
  127SOL    HW1  380   0.914   0.950   0.374  2.1061  1.4779 -1.1170
  127SOL    HW2  381   0.951   0.797   0.298  1.6777  1.0795  1.2570
  128SOL     OW  382   0.910   0.257   1.396 -0.3221  0.2175 -0.3028
  128SOL    HW1  383   0.897   0.329   1.317  1.3853  0.0867 -0.7639
  128SOL    HW2  384   0.885   0.159   1.359 -2.2426 -4.6728 -1.0817
  129SOL     OW  385   1.818   0.724   1.893  0.6623  0.2498  0.0025
  129SOL    HW1  386   1.837   0.734   1.788  0.6628  1.0110 -0.2554
  129SOL    HW2  387   1.881   0.782   1.941 -0.4239  0.0083 -2.3944
  130SOL     OW  388   1.361   2.212   1.021 -0.1122  0.4797 -0.3884
  130SOL    HW1  389   1.318   2.182   0.932 -0.2435 -1.5331 -0.6689
  130SOL    HW2  390   1.445   2.272   1.005 -0.5039  2.0421  0.2045
  131SOL     OW  391   3.028   1.426   1.352  0.0389  0.7462  0.2758
  131SOL    HW1  392   2.954   1.356   1.371 -0.6338 -1.8717 -1.2073
  131SOL    HW2  393   3.125   1.393   1.362  2.0469  0.3413 -3.0574
  132SOL     OW  394   2.046   2.446   0.521 -0.6692  0.0669 -0.2138
  132SOL    HW1  395   1.941   2.463   0.522  0.3376 -1.0243 -0.9203
  132SOL    HW2  396   2.072   2.361   0.568  0.2361  0.5418 -0.6294
  133SOL     OW  397   1.891   2.331   2.822  0.0644  0.1900  0.8394
  133SOL    HW1  398   1.806   2.372   2.870 -2.8021  1.9808 -0.8993
  133SOL    HW2  399   1.913   2.365   2.728 -0.0330  0.3852  0.6411
  134SOL     OW  400   2.687   2.334   1.675 -0.2348  0.3982 -0.4027
  134SOL    HW1  401   2.612   2.336   1.745 -1.4434 -0.9325 -0.1492
  134SOL    HW2  402   2.737   2.425   1.661  1.7209  0.1563  0.8588
  135SOL     OW  403   0.697   1.474   2.662 -0.3392  0.4503  0.4087
  135SOL    HW1  404   0.661   1.373   2.688 -1.0191 -0.5033  3.0551
  135SOL    HW2  405   0.737   1.478   2.567 -2.3608 -2.2210  4.0504
  136SOL     OW  406   1.221   1.972   0.419  0.4665  0.3875 -0.2752
  136SOL    HW1  407   1.177   2.028   0.493 -0.7589  1.4072 -1.4553
  136SOL    HW2  408   1.167   1.887   0.408  1.8053 -1.4127 -0.4749
  137SOL     OW  409   0.432   1.140   2.150  0.1523  0.4192  0.2759
  137SOL    HW1  410   0.343   1.126   2.207 -2.5173  0.1423  0.6975
  137SOL    HW2  411   0.506   1.065   2.171 -0.3854 -1.2322 -0.3488
  138SOL     OW  412   2.420   1.537   0.260  0.6403  0.9086 -0.3861
  138SOL    HW1  413   2.329   1.493   0.232 -0.1117  1.4322  0.7489
  138SOL    HW2  414   2.486   1.458   0.277 -1.0446  1.4832 -1.3096
  139SOL     OW  415   1.863   2.624   1.286  0.1211 -0.3511 -0.2960
  139SOL    HW1  416   1.765   2.629   1.254 -3.0057  1.8259 -1.8294
  139SOL    HW2  417   1.896   2.530   1.318 -0.0831 -1.5248 -0.8582
  140SOL     OW  418   3.010   2.958   2.553  0.0924  0.3709 -0.4741
  140SOL    HW1  419   3.041   2.857   2.560  1.2096  0.5554 -0.1271
  140SOL    HW2  420   3.092   3.022   2.576 -0.1882  2.2772  0.4163
  141SOL     OW  421   1.321   1.685   1.638 -0.3034 -0.4432 -0.2530
  141SOL    HW1  422   1.221   1.702   1.661  0.5534  1.3744  2.3899
  141SOL    HW2  423   1.367   1.620   1.707  2.7828  0.9794  1.7735
  142SOL     OW  424   1.579   0.583   2.245  0.1554  0.1580  0.6209
  142SOL    HW1  425   1.581   0.561   2.143  1.6809  0.6859  1.5933
  142SOL    HW2  426   1.485   0.594   2.281  0.0472  1.4840  1.3866
  143SOL     OW  427   2.751   0.906   0.484  0.0410 -0.0409  0.2615
  143SOL    HW1  428   2.817   0.956   0.415  0.8654 -0.3985 -1.6291
  143SOL    HW2  429   2.780   0.928   0.582 -2.0751  1.2397  1.4862
  144SOL     OW  430   2.917   1.187   1.475  0.3996 -0.0820 -0.0741
  144SOL    HW1  431   2.881   1.154   1.566  0.3734 -2.9689 -0.8417
  144SOL    HW2  432   2.961   1.110   1.428 -2.1238  0.1290 -0.4277
  145SOL     OW  433   1.030   1.852   0.139 -0.3598 -0.6402  0.7548
  145SOL    HW1  434   1.067   1.919   0.069  0.9047  0.2364  1.4744
  145SOL    HW2  435   0.982   1.770   0.098  0.1294 -2.1913  1.1612
  146SOL     OW  436   2.502   0.678   1.507  0.3583 -0.1439 -0.1504
  146SOL    HW1  437   2.494   0.592   1.450  1.4260  0.0577 -0.3474
  146SOL    HW2  438   2.455   0.760   1.469  2.4978  3.4783  2.8088
  147SOL     OW  439   1.120   2.469   0.619 -0.4744 -0.4327 -0.5177
  147SOL    HW1  440   1.096   2.533   0.540 -0.7151  1.6656  0.6271
  147SOL    HW2  441   1.190   2.393   0.592 -2.4830 -2.1308  3.7581
  148SOL     OW  442   1.686   1.459   3.038  0.0762 -0.3873 -0.3850
  148SOL    HW1  443   1.678   1.385   2.968 -0.0786  0.3621 -1.3481
  148SOL    HW2  444   1.650   1.425   3.130 -0.3709  1.6914  0.8230
  149SOL     OW  445   0.704   1.421   1.962  0.5238 -0.3274 -0.0352
  149SOL    HW1  446   0.611   1.397   1.995  1.6037  0.4780  0.1291
  149SOL    HW2  447   0.741   1.358   1.888 -1.7488  0.7628 -2.4582
  150SOL     OW  448   3.039   1.256   0.946 -0.1682 -0.3161 -0.6932
  150SOL    HW1  449   3.119   1.272   1.014 -0.2562  1.0959  1.3484
  150SOL    HW2  450   2.971   1.187   0.979 -0.8184  0.1781  0.6522
  151SOL     OW  451   0.229   0.725   2.141 -0.2992 -0.0714  0.4562
  151SOL    HW1  452   0.228   0.804   2.074 -0.4354 -1.6625  0.0361
  151SOL    HW2  453   0.249   0.634   2.094 -0.8981  1.3790 -0.0404
  152SOL     OW  454   1.406   1.763   1.285  0.0365  0.2781  0.0584
  152SOL    HW1  455   1.439   1.858   1.311  1.0443 -0.5530 -1.2732
  152SOL    HW2  456   1.310   1.760   1.252  1.3965  1.6958  1.5996
  153SOL     OW  457   3.092   1.511   0.159  0.3106 -0.2639 -0.4507
  153SOL    HW1  458   3.109   1.408   0.165  1.5774 -0.1134  0.4652
  153SOL    HW2  459   3.108   1.564   0.246 -0.6255 -0.2346 -0.2121
  154SOL     OW  460   2.370   1.863   2.758  0.1591 -0.3452  0.6282
  154SOL    HW1  461   2.361   1.761   2.773 -0.1895 -0.3806  0.4153
  154SOL    HW2  462   2.427   1.889   2.679 -1.3094 -0.6002  0.0836
  155SOL     OW  463   2.438   1.214   0.401  0.3554 -0.1551  0.4196
  155SOL    HW1  464   2.534   1.191   0.361  0.1642  0.3693  1.1789
  155SOL    HW2  465   2.357   1.189   0.339  1.2749 -0.8435 -1.8607
  156SOL     OW  466   2.537   0.967   0.870 -0.4116 -0.0901  0.1895
  156SOL    HW1  467   2.436   1.002   0.864 -2.9188  3.0826 -0.6998
  156SOL    HW2  468   2.601   1.018   0.806  0.5690 -1.6599 -0.2252
  157SOL     OW  469   1.294   2.943   3.047  0.0969 -0.2210 -0.5204
  157SOL    HW1  470   1.335   2.922   2.951 -0.2301 -4.0160 -0.2032
  157SOL    HW2  471   1.336   3.026   3.098  0.8749 -2.0561 -0.5567
  158SOL     OW  472   1.036   1.832   1.914 -0.3410 -0.5846 -0.2507
  158SOL    HW1  473   1.071   1.926   1.878  0.8546  1.7295  0.1374
  158SOL    HW2  474   0.954   1.843   1.977 -1.4498  0.4246 -0.7292
  159SOL     OW  475   0.822   0.440   1.208 -0.1393  0.0148 -0.3658
  159SOL    HW1  476   0.790   0.505   1.287 -0.4127  0.7090  0.8577
  159SOL    HW2  477   0.751   0.424   1.138  0.4514  3.2302 -2.1191
  160SOL     OW  478   1.398   2.319   1.593 -0.1753 -0.4181 -0.2301
  160SOL    HW1  479   1.381   2.370   1.680  1.6385  1.4694 -2.3372
  160SOL    HW2  480   1.498   2.288   1.576  1.2094 -0.4350 -2.1027
  161SOL     OW  481   0.080   2.932   0.302  0.4106  0.3003 -0.2506
  161SOL    HW1  482  -0.016   2.890   0.295  0.5044 -3.6189  1.1191
  161SOL    HW2  483   0.115   2.978   0.217  1.0489 -1.5441  3.7116
  162SOL     OW  484   2.491   1.904   0.470  0.0588 -0.2126 -0.0728
  162SOL    HW1  485   2.504   1.855   0.381  0.6151 -1.8752 -0.9704
  162SOL    HW2  486   2.497   1.848   0.559 -1.0365  0.2183  3.6039
  163SOL     OW  487   1.884   2.811   0.720  0.2352  0.6569 -0.7089
  163SOL    HW1  488   1.888   2.796   0.618 -1.8817  0.8082  0.5139
  163SOL    HW2  489   1.956   2.754   0.766 -1.6345 -1.3285 -1.2050
  164SOL     OW  490   3.081   0.226   1.180 -0.2077  0.1071  0.3720
  164SOL    HW1  491   3.136   0.316   1.165 -1.8034 -1.2970  2.4819
  164SOL    HW2  492   3.117   0.178   1.266  0.3674  0.3990 -0.6149
  165SOL     OW  493   0.938   1.429   0.733  0.0827  0.7177  0.8649
  165SOL    HW1  494   0.888   1.490   0.797  0.3927 -1.0662  1.8401
  165SOL    HW2  495   0.908   1.455   0.634  0.2904 -1.3398 -2.6829
  166SOL     OW  496   1.493   1.098   1.724 -0.1032  0.2220 -0.5634
  166SOL    HW1  497   1.438   1.064   1.804  2.5564 -2.4795 -1.1953
  166SOL    HW2  498   1.565   1.161   1.763 -1.2205 -0.3290  1.8565
  167SOL     OW  499   0.728   1.935   1.442 -0.0135  0.3682  0.2419
  167SOL    HW1  500   0.748   1.997   1.521 -0.3360 -1.7518 -0.1574
  167SOL    HW2  501   0.695   1.838   1.471  2.5846 -1.3838 -0.4763
  168SOL     OW  502   1.632   2.377   0.159 -0.0877  0.0387  0.2190
  168SOL    HW1  503   1.714   2.413   0.107  2.9162  1.8796  0.5537
  168SOL    HW2  504   1.671   2.334   0.246  2.8148 -0.2601 -0.0682
  169SOL     OW  505   0.160   2.554   2.226  0.4007 -0.3540 -0.1807
  169SOL    HW1  506   0.195   2.518   2.135  2.6397 -1.5547  0.4233
  169SOL    HW2  507   0.198   2.495   2.299 -1.4727  0.8545 -0.6737
  170SOL     OW  508   1.143   0.228   1.990 -0.4464 -0.0655 -0.2046
  170SOL    HW1  509   1.207   0.228   2.069 -2.6574  1.8249  0.4678
  170SOL    HW2  510   1.172   0.167   1.912  0.6175  1.0744 -0.0543
  171SOL     OW  511   0.206   0.784   2.429  0.1506 -0.3562 -0.2243
  171SOL    HW1  512   0.114   0.833   2.445  1.3016 -1.6332  2.5649
  171SOL    HW2  513   0.235   0.785   2.326  0.2847 -0.9520 -0.4718
  172SOL     OW  514   0.925   1.052   2.906  0.5854  0.2048 -0.2366
  172SOL    HW1  515   1.008   1.115   2.919  0.1993  0.7755  0.0730
  172SOL    HW2  516   0.889   1.054   2.811 -0.5013 -0.6404 -0.3943
  173SOL     OW  517   0.650   2.676   0.093  0.0072  0.4563  0.3011
  173SOL    HW1  518   0.632   2.745   0.021  1.7958  1.0137  1.1788
  173SOL    HW2  519   0.566   2.641   0.136 -3.3896 -0.1451 -0.1241
  174SOL     OW  520   1.443   2.836   1.099  0.4199  0.1467 -0.0859
  174SOL    HW1  521   1.415   2.911   1.036 -1.0165 -0.7086  2.4328
  174SOL    HW2  522   1.439   2.745   1.048  0.9947 -2.0245 -2.7765
  175SOL     OW  523   0.383   0.049   1.687 -0.0611 -0.8053 -0.2503
  175SOL    HW1  524   0.445   0.065   1.768 -0.5326 -0.8796 -1.1501
  175SOL    HW2  525   0.370   0.129   1.623  1.7362 -2.5611 -2.3033
  176SOL     OW  526   2.582   0.383   0.003  0.5195  0.0876  0.2412
  176SOL    HW1  527   2.577   0.459   0.071 -1.2361  0.8423 -0.0351
  176SOL    HW2  528   2.509   0.301   0.008 -0.5073 -0.6845  0.6633
  177SOL     OW  529   0.359   0.315   0.998  0.1129 -0.1192  0.4432
  177SOL    HW1  530   0.334   0.225   1.037 -2.4575  1.0160 -0.7971
  177SOL    HW2  531   0.313   0.395   1.039  1.7464 -1.3118 -0.6963
  178SOL     OW  532   3.078   2.657   2.639 -0.0745  0.2997 -0.3521
  178SOL    HW1  533   3.008   2.603   2.693 -0.2003 -0.6365 -0.6177
  178SOL    HW2  534   3.164   2.682   2.694 -1.5220  1.8695 -1.1133
  179SOL     OW  535   0.013   1.671   1.192 -0.0636 -1.0685  0.0055
  179SOL    HW1  536  -0.028   1.762   1.173 -1.7031  0.6784 -0.7543
  179SOL    HW2  537  -0.044   1.596   1.242 -1.3066 -3.4255 -1.8402
  180SOL     OW  538   0.235   1.199   1.844 -0.6860  0.4967  0.2962
  180SOL    HW1  539   0.342   1.210   1.838  3.1559  0.2577  0.7595
  180SOL    HW2  540   0.189   1.278   1.881  0.4475 -1.1224 -1.4133
  181SOL     OW  541   3.013   1.848   2.493 -0.4610 -0.3922 -0.2686
  181SOL    HW1  542   3.059   1.940   2.462 -1.0489  3.1885  1.3321
  181SOL    HW2  543   2.913   1.835   2.457 -0.7855 -2.2855  1.8341
  182SOL     OW  544   2.245   1.313   1.162  0.1902 -0.0104  0.4201
  182SOL    HW1  545   2.174   1.269   1.096 -1.3437  1.5131  1.3218
  182SOL    HW2  546   2.268   1.411   1.135  0.6538 -1.0982 -1.3664
  183SOL     OW  547   1.520   2.234   2.551 -0.1081  0.0078  0.1779
  183SOL    HW1  548   1.426   2.209   2.519  0.9559  1.3171  0.6350
  183SOL    HW2  549   1.591   2.155   2.533  0.0614  1.2642  1.1112
  184SOL     OW  550   2.037   0.856   0.783 -0.0660 -0.1086  0.5315
  184SOL    HW1  551   1.975   0.936   0.760 -0.7700  0.9308  1.9685
  184SOL    HW2  552   1.992   0.786   0.846 -0.3282 -1.1335 -1.6293
  185SOL     OW  553   1.592   2.762   2.098  0.3602  0.3400 -0.2938
  185SOL    HW1  554   1.536   2.849   2.088 -0.1955 -0.0341  1.0952
  185SOL    HW2  555   1.606   2.730   2.198 -1.1887  0.3568 -1.3188
  186SOL     OW  556   0.103   2.221   1.666 -0.0734  0.2470  0.0454
  186SOL    HW1  557   0.068   2.270   1.754 -0.0615  1.9354  1.2159
  186SOL    HW2  558   0.191   2.166   1.672  0.5838 -3.5827 -1.0074
  187SOL     OW  559   1.337   0.758   1.655 -0.8022  0.1952  0.1809
  187SOL    HW1  560   1.430   0.790   1.615  0.4179  0.9909  1.6415
  187SOL    HW2  561   1.339   0.717   1.753 -1.6609 -2.0222  0.5076
  188SOL     OW  562   2.752   2.774   1.434 -0.4427 -0.0307 -0.1261
  188SOL    HW1  563   2.764   2.879   1.423 -1.0275 -0.3064 -3.2859
  188SOL    HW2  564   2.685   2.732   1.363  0.4025 -1.1885 -1.4559
  189SOL     OW  565   0.893   1.199   1.396  0.5359  1.3271  0.1321
  189SOL    HW1  566   0.975   1.240   1.447 -1.4475 -0.6507  1.0758
  189SOL    HW2  567   0.820   1.270   1.384  2.9732 -0.6189 -0.4263
  190SOL     OW  568   1.481   1.904   1.566 -0.3838  0.4498  0.3501
  190SOL    HW1  569   1.417   1.820   1.571 -0.0874 -0.0843 -1.3331
  190SOL    HW2  570   1.475   1.949   1.659 -0.6692 -0.0582  1.5659
  191SOL     OW  571   0.981   0.761   1.536  0.0041 -0.3132  0.3293
  191SOL    HW1  572   1.043   0.674   1.537  0.7340 -1.1380 -0.3573
  191SOL    HW2  573   1.026   0.850   1.569  0.8140  1.3161 -0.1186
  192SOL     OW  574   1.854   2.246   1.118 -0.2154  0.6341 -0.3806
  192SOL    HW1  575   1.752   2.255   1.094 -0.2589  1.0111 -1.0434
  192SOL    HW2  576   1.912   2.313   1.065 -1.1320 -1.5528 -2.3255
  193SOL     OW  577   0.554   0.578   0.461  0.6816  0.4051 -0.2043
  193SOL    HW1  578   0.541   0.471   0.472 -1.5551 -1.3238 -2.0664
  193SOL    HW2  579   0.602   0.595   0.374  0.6756  0.3493  0.5858
  194SOL     OW  580   0.334   0.863   1.280  0.6775 -0.5577  0.5783
  194SOL    HW1  581   0.288   0.774   1.298  1.6527 -1.9360 -2.3786
  194SOL    HW2  582   0.307   0.901   1.185  1.2240  2.3745  0.0252
  195SOL     OW  583   1.019   2.886   0.555 -0.2206 -0.0554 -0.4696
  195SOL    HW1  584   1.022   2.790   0.516 -1.9199 -0.1239 -0.1940
  195SOL    HW2  585   1.114   2.923   0.555  2.6032 -0.3392  0.3660
  196SOL     OW  586   0.203   1.353   1.377  0.6009 -0.5295  0.1665
  196SOL    HW1  587   0.234   1.449   1.403  0.1549 -0.0568  0.9508
  196SOL    HW2  588   0.209   1.290   1.460 -1.3948  0.2617 -0.1796
  197SOL     OW  589   0.827   2.054   0.221 -0.0366 -0.1113  0.3034
  197SOL    HW1  590   0.810   2.038   0.323  1.4307 -2.0127  0.0154
  197SOL    HW2  591   0.892   1.979   0.184  0.9943 -1.0470 -0.1916
  198SOL     OW  592   0.320   1.255   0.232 -0.2615 -0.3589 -0.3209
  198SOL    HW1  593   0.214   1.241   0.222 -1.9830 -0.1531  0.9327
  198SOL    HW2  594   0.343   1.350   0.263  1.6614  0.2505  3.4602
  199SOL     OW  595   2.189   0.371   2.553  0.7759  0.7524 -0.0081
  199SOL    HW1  596   2.124   0.313   2.616  0.2456 -0.8265 -0.3723
  199SOL    HW2  597   2.280   0.381   2.595 -0.6603 -1.6096 -1.9524
  200SOL     OW  598   0.042   2.927   0.742 -0.5866  0.5530 -0.0034
  200SOL    HW1  599  -0.052   2.912   0.701  0.8489  2.3719  0.7469
  200SOL    HW2  600   0.074   3.024   0.736  1.1718 -1.8136  0.6192
  201SOL     OW  601   1.131   0.747   0.623  0.3545  0.2518 -0.0076
  201SOL    HW1  602   1.128   0.821   0.693 -1.1727 -0.8100  0.0113
  201SOL    HW2  603   1.052   0.685   0.619  1.5529  1.8556 -0.2014
  202SOL     OW  604   0.510   1.193   1.800 -0.1246 -0.3348  0.0882
  202SOL    HW1  605   0.526   1.187   1.693 -2.7077  2.8067  0.1388
  202SOL    HW2  606   0.522   1.107   1.855 -0.4193 -1.6200  1.2467
  203SOL     OW  607   0.696   0.209   1.557 -0.5144  0.0495 -0.2290
  203SOL    HW1  608   0.752   0.176   1.473 -0.7575  1.2357 -0.1084
  203SOL    HW2  609   0.748   0.189   1.648 -0.1385  1.1257  1.5982
  204SOL     OW  610   2.058   1.868   2.928  0.1244 -0.3067 -0.3850
  204SOL    HW1  611   2.098   1.776   2.907 -1.2897 -1.4880  1.9631
  204SOL    HW2  612   2.024   1.922   2.843 -2.8642  3.1792 -0.7641
  205SOL     OW  613   1.817   1.870   3.094  0.4588 -0.1434 -0.4181
  205SOL    HW1  614   1.905   1.870   3.037 -0.1011 -1.4169 -1.3012
  205SOL    HW2  615   1.769   1.961   3.089 -2.2182  1.2503 -0.1579
  206SOL     OW  616   2.514   2.800   0.312 -0.4562 -0.1948  0.1742
  206SOL    HW1  617   2.585   2.724   0.331 -0.5318 -0.8449 -1.4825
  206SOL    HW2  618   2.558   2.871   0.247 -0.4260 -2.3380  1.3563
  207SOL     OW  619   0.617   1.793   2.960  0.3217 -0.2666 -0.0387
  207SOL    HW1  620   0.702   1.751   2.918  1.9039  2.6151  2.2342
  207SOL    HW2  621   0.573   1.732   3.033  1.9763  0.7076 -0.2990
  208SOL     OW  622   1.144   1.582   1.413 -0.5836  0.1389 -0.1066
  208SOL    HW1  623   1.140   1.646   1.329 -2.1425 -0.3304  2.1141
  208SOL    HW2  624   1.217   1.609   1.485 -0.0244 -0.3909  1.5692
  209SOL     OW  625   0.260   0.952   3.026 -0.2519  0.1582  0.7574
  209SOL    HW1  626   0.260   0.900   2.938 -2.8194  0.9346  1.3879
  209SOL    HW2  627   0.284   0.895   3.108  1.5460  2.2600  1.3660
  210SOL     OW  628   1.780   0.521   1.201  0.1658  0.6248 -0.5709
  210SOL    HW1  629   1.728   0.577   1.132  1.0738 -0.6382  1.2668
  210SOL    HW2  630   1.880   0.511   1.174  1.3129  0.6190 -0.8357
  211SOL     OW  631   2.131   1.061   1.576 -0.2653 -0.3799 -0.2647
  211SOL    HW1  632   2.171   0.990   1.639  0.8820  0.7437 -2.7095
  211SOL    HW2  633   2.208   1.101   1.521 -0.0197 -0.3617 -1.0436
  212SOL     OW  634   0.028   0.971   1.473  0.0227 -0.3070 -0.2697
  212SOL    HW1  635   0.075   1.056   1.509 -0.5124 -2.6371 -1.6755
  212SOL    HW2  636   0.026   0.888   1.537 -1.2201  0.7338  1.4979
  213SOL     OW  637   2.794   0.350   0.359  0.7709 -0.9830  0.4508
  213SOL    HW1  638   2.812   0.284   0.278 -1.8167  2.9201  1.2661
  213SOL    HW2  639   2.729   0.427   0.325 -0.6495 -1.5116 -0.8221
  214SOL     OW  640   2.167   0.260   2.312  0.1554 -0.1692  0.1973
  214SOL    HW1  641   2.166   0.305   2.406 -0.2270 -0.7076  1.4970
  214SOL    HW2  642   2.157   0.157   2.328  2.7652 -1.8295  0.5629
  215SOL     OW  643   1.635   2.296   2.094  0.2567 -0.2521  0.6207
  215SOL    HW1  644   1.736   2.320   2.073  1.7689 -0.6741  0.4042
  215SOL    HW2  645   1.601   2.355   2.171  0.7099 -0.5734 -1.8342
  216SOL     OW  646   2.208   0.624   0.636 -0.3278  0.4820  0.1944
  216SOL    HW1  647   2.208   0.520   0.610 -1.8953 -1.9183  0.9924
  216SOL    HW2  648   2.112   0.655   0.652  1.8144 -0.5518  0.4773
  217SOL     OW  649   0.746   2.775   2.471  0.2395  0.3991 -0.0983
  217SOL    HW1  650   0.709   2.679   2.495  1.3879 -0.8108 -0.2574
  217SOL    HW2  651   0.790   2.786   2.377  1.4554  1.0327 -0.9716
  218SOL     OW  652   1.928   1.457   0.066 -0.4488 -0.4485 -0.4095
  218SOL    HW1  653   1.838   1.477   0.014  0.7639  2.8461  1.6740
  218SOL    HW2  654   1.923   1.364   0.123  0.2892 -1.2091  1.9831
  219SOL     OW  655   2.364   1.257   2.556  0.1499 -0.3485 -0.0339
  219SOL    HW1  656   2.450   1.238   2.504 -2.4596 -1.5768  0.9752
  219SOL    HW2  657   2.352   1.194   2.636 -1.5225  0.0322  1.4376
  220SOL     OW  658   1.523   1.033   1.265 -0.0515  0.1262 -0.9036
  220SOL    HW1  659   1.612   1.088   1.284  1.2959  1.5997  1.1241
  220SOL    HW2  660   1.463   1.057   1.183 -0.4490  0.7587 -0.9570
  221SOL     OW  661   1.362   0.988   2.200  0.1353 -0.6537  0.4176
  221SOL    HW1  662   1.327   1.042   2.120  2.2771  2.6136 -0.6573
  221SOL    HW2  663   1.467   0.972   2.191  1.5172 -2.4193 -0.2518
  222SOL     OW  664   1.190   0.028   1.222 -0.2803 -0.1608  0.3457
  222SOL    HW1  665   1.247   0.007   1.305  1.2684 -3.2262 -2.9253
  222SOL    HW2  666   1.216   0.118   1.174 -1.6081 -0.1827 -2.1914
  223SOL     OW  667   2.733   0.886   2.018 -0.2040  0.1180 -0.1697
  223SOL    HW1  668   2.708   0.918   2.112 -1.5008  1.5144  0.1686
  223SOL    HW2  669   2.813   0.934   1.974 -0.7333 -0.2358  0.8953
  224SOL     OW  670   1.581   1.014   2.764 -0.1853  0.0392  0.0445
  224SOL    HW1  671   1.620   0.951   2.692  2.7409 -0.2191  0.5187
  224SOL    HW2  672   1.493   1.070   2.735 -0.3193 -0.5403 -0.8574
  225SOL     OW  673   2.926   2.800   2.901 -0.4265 -0.0967 -0.5140
  225SOL    HW1  674   2.872   2.719   2.864 -1.5696  0.1413  2.2332
  225SOL    HW2  675   2.983   2.856   2.833  4.0731 -1.0880 -0.4717
  226SOL     OW  676   2.390   1.589   2.802  0.1311  0.6498 -0.3329
  226SOL    HW1  677   2.424   1.525   2.728  1.2718 -0.8845 -2.6231
  226SOL    HW2  678   2.332   1.540   2.873  3.1880  0.9978  0.0224
  227SOL     OW  679   0.823   0.157   3.030 -0.2795 -0.5210  0.1454
  227SOL    HW1  680   0.852   0.076   3.087  0.8459  2.6802  0.3205
  227SOL    HW2  681   0.847   0.153   2.931 -2.8220  1.8567  2.8337
  228SOL     OW  682   2.384   0.585   2.881  0.6457 -0.1342  0.0680
  228SOL    HW1  683   2.339   0.610   2.791 -0.5391  0.2246 -0.9046
  228SOL    HW2  684   2.476   0.531   2.869  0.7298  0.4231  1.0388
  229SOL     OW  685   0.639   0.452   1.892  0.1045 -0.4031  0.1008
  229SOL    HW1  686   0.622   0.357   1.853  0.4285  1.0978 -1.0354
  229SOL    HW2  687   0.672   0.527   1.828 -0.0875 -4.0694 -3.5913
  230SOL     OW  688   1.926   1.148   2.146 -0.0198 -0.7460 -0.3512
  230SOL    HW1  689   2.012   1.201   2.122 -0.7694  3.7322  1.1704
  230SOL    HW2  690   1.847   1.218   2.146  0.8438  1.6100  0.8509
  231SOL     OW  691   0.654   1.001   2.992  0.1168 -0.2063  0.7989
  231SOL    HW1  692   0.753   1.026   2.962  0.1036  0.4310  0.8739
  231SOL    HW2  693   0.597   1.085   3.024 -1.3169  0.2644  0.5475
  232SOL     OW  694   2.424   3.099   2.805 -0.1434 -0.9357  0.4403
  232SOL    HW1  695   2.468   3.005   2.829 -2.7761 -1.6641 -0.4791
  232SOL    HW2  696   2.465   3.147   2.723  0.8552 -0.1986  1.5951
  233SOL     OW  697   1.733   1.288   1.155  0.5023 -0.1067  0.5387
  233SOL    HW1  698   1.746   1.256   1.061 -1.7274  0.3636  2.3957
  233SOL    HW2  699   1.776   1.224   1.224 -1.4941  1.1293 -0.9231
  234SOL     OW  700   1.603   2.598   1.886 -0.0775  0.2245  0.0483
  234SOL    HW1  701   1.589   2.671   1.961  1.7807  0.9896  0.1240
  234SOL    HW2  702   1.525   2.532   1.883  3.1249 -0.0189  0.3052
  235SOL     OW  703   0.046   2.999   2.860 -0.5317 -0.1705  0.2230
  235SOL    HW1  704   0.107   3.069   2.812  0.7419 -0.5241  1.9870
  235SOL    HW2  705  -0.018   3.032   2.936  0.9401 -1.2674  2.2759
  236SOL     OW  706   2.885   0.751   0.112 -0.1849 -0.4515  0.0062
  236SOL    HW1  707   2.948   0.814   0.168 -2.2850  1.1668  1.3051
  236SOL    HW2  708   2.934   0.664   0.081 -0.6587  0.3400 -0.9704
  237SOL     OW  709   1.488   1.710   0.983  0.1516  0.2328  0.2595
  237SOL    HW1  710   1.583   1.705   0.943 -1.0378 -2.1820  1.4387
  237SOL    HW2  711   1.487   1.731   1.085 -1.2139 -0.1252  3.1307
  238SOL     OW  712   1.767   1.262   0.870 -0.3460  0.3780  0.1064
  238SOL    HW1  713   1.837   1.337   0.876 -0.9543 -2.0866  0.7993
  238SOL    HW2  714   1.683   1.287   0.819  2.2387  1.5451 -0.4921
  239SOL     OW  715   2.047   0.231   2.740 -0.2698 -0.0335 -0.1892
  239SOL    HW1  716   2.092   0.209   2.827 -0.5604 -0.4741 -1.8974
  239SOL    HW2  717   1.968   0.294   2.744  2.2382  0.5561 -1.5882
  240SOL     OW  718   0.969   0.623   0.335 -0.5008  0.1892  0.5176
  240SOL    HW1  719   0.998   0.536   0.286  1.2270  1.6248 -0.8469
  240SOL    HW2  720   0.923   0.597   0.428 -2.9044  3.5239  1.1392
  241SOL     OW  721   0.626   0.110   0.377 -0.2792 -0.1284 -0.4451
  241SOL    HW1  722   0.675   0.188   0.324 -0.2459  1.5950  1.8375
  241SOL    HW2  723   0.604   0.028   0.322 -0.5672 -1.5651  1.3504
  242SOL     OW  724   0.673   2.487   1.120 -0.4587  0.8049  0.3315
  242SOL    HW1  725   0.618   2.538   1.195  1.2855  2.9195 -0.6773
  242SOL    HW2  726   0.753   2.545   1.081  0.9579  1.1587 -0.8903
  243SOL     OW  727   1.081   0.574   2.492 -0.6010  0.2996 -0.2779
  243SOL    HW1  728   1.007   0.610   2.431  2.7152 -1.1084  0.2322
  243SOL    HW2  729   1.046   0.548   2.586  0.8848 -3.3218  0.4767
  244SOL     OW  730   2.774   1.891   2.338  0.3391  0.5514  0.0389
  244SOL    HW1  731   2.822   1.841   2.261  3.7789 -1.9641 -1.5978
  244SOL    HW2  732   2.683   1.846   2.364 -0.3403  0.3278  0.2634
  245SOL     OW  733   2.419   0.644   2.188 -0.2288  0.2341  0.5509
  245SOL    HW1  734   2.483   0.718   2.215 -0.6556  1.3173 -1.8444
  245SOL    HW2  735   2.456   0.545   2.176 -1.9729 -2.3981  1.1803
  246SOL     OW  736   0.222   2.902   1.667 -0.1438 -0.0070  0.3307
  246SOL    HW1  737   0.161   2.887   1.582  0.6948  0.0594 -1.2332
  246SOL    HW2  738   0.294   2.978   1.655  1.1483  0.8974 -1.8838
  247SOL     OW  739   2.164   0.573   3.021 -0.3187 -0.2084  0.2406
  247SOL    HW1  740   2.243   0.587   2.950  0.1574 -1.9126 -0.2149
  247SOL    HW2  741   2.139   0.661   3.081 -1.0817  3.2869  1.2243
  248SOL     OW  742   2.120   1.819   1.574  0.1076  0.5703 -0.3376
  248SOL    HW1  743   2.200   1.779   1.633  1.8023 -0.1805  1.1193
  248SOL    HW2  744   2.035   1.827   1.633  0.1018  0.2794 -1.1890
  249SOL     OW  745   1.917   1.891   1.937 -1.1501 -0.2752 -0.4955
  249SOL    HW1  746   1.901   1.823   1.860 -0.4130 -0.5965 -1.4179
  249SOL    HW2  747   1.999   1.953   1.921  1.6040 -0.4220  1.5999
  250SOL     OW  748   1.119   0.721   1.902  0.1394 -0.2269  0.1900
  250SOL    HW1  749   1.145   0.626   1.929 -0.3481 -0.7023  0.4320
  250SOL    HW2  750   1.060   0.719   1.818 -0.5579 -0.8895  0.1359
  251SOL     OW  751   3.083   1.577   2.534  0.3923 -0.3024 -0.3328
  251SOL    HW1  752   3.053   1.679   2.544 -2.0473 -1.1279  1.7917
  251SOL    HW2  753   3.002   1.509   2.533 -0.0500  1.5422 -0.7340
  252SOL     OW  754   1.564   0.881   1.562 -0.3642 -0.2286 -0.3127
  252SOL    HW1  755   1.575   0.916   1.465  0.0839 -0.8348  0.3380
  252SOL    HW2  756   1.547   0.960   1.634 -3.0125 -0.3727  4.0062
  253SOL     OW  757   0.849   1.534   0.460 -0.3412  0.6694  0.4815
  253SOL    HW1  758   0.912   1.450   0.436  1.5748 -2.4064 -1.5592
  253SOL    HW2  759   0.753   1.522   0.428  3.2513  1.3654  2.6570
  254SOL     OW  760   2.044   2.126   1.582 -0.5190  0.3653  0.3480
  254SOL    HW1  761   2.008   2.063   1.504  1.5948  0.5005 -1.6805
  254SOL    HW2  762   2.003   2.107   1.676  0.0053 -1.5746  2.6547
  255SOL     OW  763   0.119   1.172   2.915  0.1019 -0.1437 -0.2758
  255SOL    HW1  764   0.185   1.243   2.878 -0.5151 -1.7106  0.8491
  255SOL    HW2  765   0.170   1.098   2.970  2.8374 -0.0916  0.2743
  256SOL     OW  766   2.775   1.379   1.726  0.5400  0.2627 -0.0250
  256SOL    HW1  767   2.698   1.421   1.781 -0.0232 -1.5273 -0.8776
  256SOL    HW2  768   2.743   1.290   1.678  0.8748 -0.2442  0.2859
  257SOL     OW  769   0.842   0.175   1.789  0.2344  0.5979  0.4486
  257SOL    HW1  770   0.904   0.248   1.746 -1.0766 -1.1560  0.8431
  257SOL    HW2  771   0.891   0.085   1.798 -1.8761  3.2136  0.9807
  258SOL     OW  772   2.900   1.300   0.444  0.2855  0.0384  0.6640
  258SOL    HW1  773   2.847   1.392   0.433 -1.4157  1.2261 -0.5582
  258SOL    HW2  774   2.960   1.312   0.528 -0.2848  0.6647 -2.5510
  259SOL     OW  775   0.470   2.963   3.030 -0.1424 -0.0632 -0.1809
  259SOL    HW1  776   0.403   2.894   3.075 -0.8916 -1.6058  2.0128
  259SOL    HW2  777   0.496   2.933   2.934 -1.8126 -1.1024  3.1435
  260SOL     OW  778   2.761   0.828   2.754  0.5914 -0.0023  0.6404
  260SOL    HW1  779   2.663   0.795   2.781  0.5042  0.1597 -0.7326
  260SOL    HW2  780   2.804   0.869   2.843  2.0474  3.7012  0.1702
  261SOL     OW  781   2.751   1.317   1.302 -0.0224 -0.6547  0.0683
  261SOL    HW1  782   2.660   1.284   1.268 -0.9571  1.8131 -0.8753
  261SOL    HW2  783   2.807   1.254   1.361 -0.7507  0.0173 -3.6456
  262SOL     OW  784   1.433   3.000   2.033  0.2002 -0.0778  0.7343
  262SOL    HW1  785   1.477   3.058   1.955  0.5205  1.4224  1.1986
  262SOL    HW2  786   1.348   2.949   2.003 -1.8238 -1.0159  1.6343
  263SOL     OW  787   0.869   0.706   2.346  0.4610 -0.5211 -0.1496
  263SOL    HW1  788   0.853   0.612   2.305  1.6215 -2.4416  3.0171
  263SOL    HW2  789   0.908   0.775   2.279 -0.1767  3.7271  2.0184
  264SOL     OW  790   2.200   0.816   0.294 -0.2298  0.3191  0.3229
  264SOL    HW1  791   2.108   0.819   0.332  0.9097 -1.5736  0.9367
  264SOL    HW2  792   2.268   0.835   0.359 -1.3221 -0.8828 -2.0035
  265SOL     OW  793   0.899   2.296   2.673 -0.1359  1.0502  0.0497
  265SOL    HW1  794   0.937   2.361   2.746  2.4957  1.0785 -0.8352
  265SOL    HW2  795   0.889   2.199   2.710  0.8725 -2.9001  1.8270
  266SOL     OW  796   1.323   1.733   0.024  0.1885 -0.2578  0.1082
  266SOL    HW1  797   1.317   1.820   0.079 -1.1447  0.8047  0.3259
  266SOL    HW2  798   1.420   1.725  -0.013  0.0849 -0.7773 -1.2733
  267SOL     OW  799   0.964   3.037   2.358  0.0704 -0.5217 -0.2420
  267SOL    HW1  800   0.952   3.003   2.261  0.3674  1.3444 -0.0912
  267SOL    HW2  801   0.942   3.140   2.362 -0.7147 -1.4613  2.1477
  268SOL     OW  802   0.691   1.147   1.105 -0.2271  0.2101  0.4914
  268SOL    HW1  803   0.671   1.209   1.181  1.1184 -2.3405 -1.4805
  268SOL    HW2  804   0.683   1.197   1.013  0.2761 -0.0035 -1.4813
  269SOL     OW  805   2.385   2.494   1.549 -0.1034  0.4016  0.1454
  269SOL    HW1  806   2.485   2.472   1.535  0.2144  1.5541  0.5169
  269SOL    HW2  807   2.359   2.523   1.645  1.9478 -0.1123  1.4616
  270SOL     OW  808   0.136   3.043   1.917  0.3400 -0.7891  0.4201
  270SOL    HW1  809   0.153   2.994   1.827 -0.1367 -1.3549 -0.4082
  270SOL    HW2  810   0.104   2.975   1.989  2.8290 -1.2281  1.2435
  271SOL     OW  811   0.400   1.383   1.155 -0.1837 -0.3784  0.3383
  271SOL    HW1  812   0.379   1.399   1.056 -2.8564 -1.8318 -1.4011
  271SOL    HW2  813   0.321   1.388   1.219  0.1413 -0.6559  0.7480
  272SOL     OW  814   1.950   2.874   1.923 -0.5652 -0.4354  0.5076
  272SOL    HW1  815   1.917   2.809   1.856 -3.1115  1.9671  2.9840
  272SOL    HW2  816   2.025   2.931   1.879  3.1134 -0.9720 -0.8149
  273SOL     OW  817   1.445   1.468   2.782 -0.1080 -0.1635 -0.1118
  273SOL    HW1  818   1.357   1.520   2.776  0.6531 -2.5930 -1.0960
  273SOL    HW2  819   1.472   1.438   2.877  0.9507  0.2883 -2.1424
  274SOL     OW  820   1.274   0.502   2.002  0.2651 -0.0323  0.1780
  274SOL    HW1  821   1.234   0.408   2.003 -2.0531 -1.4184  2.3075
  274SOL    HW2  822   1.294   0.542   2.095 -1.3427 -3.0233 -0.4827
  275SOL     OW  823   0.619   2.083   1.864 -0.1846  0.3770 -0.1559
  275SOL    HW1  824   0.579   2.177   1.889 -3.8358  1.0880 -2.4924
  275SOL    HW2  825   0.553   2.006   1.861  0.7380  1.8824 -0.4188
  276SOL     OW  826   2.152   0.919   2.805  0.2896 -0.3475  0.0959
  276SOL    HW1  827   2.115   0.887   2.716  1.5310  1.7159  0.6881
  276SOL    HW2  828   2.123   0.861   2.889 -2.3950 -1.7466  1.7484
  277SOL     OW  829   3.085   0.849   0.256  0.0667  0.0430 -0.4056
  277SOL    HW1  830   3.181   0.866   0.217  1.1411 -1.7821 -0.0717
  277SOL    HW2  831   3.076   0.776   0.330 -1.3673  0.4382  0.4246
  278SOL     OW  832   0.242   0.275   3.094 -0.1032 -0.2857  0.6949
  278SOL    HW1  833   0.314   0.204   3.066 -1.0974 -1.0544 -0.5005
  278SOL    HW2  834   0.283   0.368   3.097 -1.0433  2.5521 -0.6974
  279SOL     OW  835   0.151   0.113   0.909  0.0457 -0.0045 -0.1097
  279SOL    HW1  836   0.166   0.053   0.992 -0.9357 -1.8403 -2.0408
  279SOL    HW2  837   0.209   0.086   0.830  0.2382 -1.7606 -0.6689
  280SOL     OW  838   1.553   2.914   2.515 -0.4648  0.4386 -0.2973
  280SOL    HW1  839   1.630   2.971   2.555  1.8091 -0.5462 -2.1693
  280SOL    HW2  840   1.459   2.962   2.518 -0.2100  1.5296 -1.1936
  281SOL     OW  841   0.593   0.932   2.253 -0.7361 -0.2196 -0.5264
  281SOL    HW1  842   0.628   0.843   2.219 -1.8478  2.0190  1.2409
  281SOL    HW2  843   0.539   0.922   2.341  1.2122  2.0372 -0.1938
  282SOL     OW  844   1.782   2.473   0.518  0.4616  0.8078 -0.3662
  282SOL    HW1  845   1.735   2.401   0.457 -1.3024 -0.5173  1.5061
  282SOL    HW2  846   1.735   2.565   0.501  1.2569  1.9948  3.5502
  283SOL     OW  847   1.130   0.909   0.859  0.0297  0.1143 -0.1158
  283SOL    HW1  848   1.152   0.827   0.928 -1.7855 -1.0336  0.8327
  283SOL    HW2  849   1.062   0.981   0.897 -1.6810  0.8574  0.4472
  284SOL     OW  850   2.347   2.708   2.388 -0.0378 -0.5962  0.7841
  284SOL    HW1  851   2.414   2.778   2.350 -0.1447 -2.1881  0.3879
  284SOL    HW2  852   2.360   2.693   2.493  3.7830 -1.3238  5.1864
  285SOL     OW  853   1.307   3.050   2.544  0.2182 -0.5439  0.2554
  285SOL    HW1  854   1.298   3.046   2.440 -1.2346  0.1468  1.2719
  285SOL    HW2  855   1.217   3.080   2.592 -4.2569  0.7032  1.3588
  286SOL     OW  856   0.459   0.424   0.770 -0.1892  0.7241  0.3498
  286SOL    HW1  857   0.401   0.371   0.835  1.2407  0.2820 -1.2678
  286SOL    HW2  858   0.453   0.388   0.674 -0.8843 -0.5153  2.3691
  287SOL     OW  859   0.121   1.299   2.544 -0.0355 -0.5530  0.1501
  287SOL    HW1  860   0.055   1.241   2.598  1.5865 -2.4281 -1.2404
  287SOL    HW2  861   0.108   1.402   2.544  0.8631  4.2069  0.4640
  288SOL     OW  862   1.574   2.686   1.566  0.2272  0.2427 -0.4546
  288SOL    HW1  863   1.586   2.609   1.643 -0.2538 -0.0123  2.3093
  288SOL    HW2  864   1.655   2.686   1.506  1.4793 -0.7907  0.7134
  289SOL     OW  865   0.578   2.733   0.826  0.5652 -0.0160  0.8309
  289SOL    HW1  866   0.637   2.810   0.789  0.1354  1.7865  0.5404
  289SOL    HW2  867   0.537   2.756   0.918  1.6404 -1.5411 -1.0607
  290SOL     OW  868   2.815   1.097   1.707 -0.3893 -0.2078  0.0428
  290SOL    HW1  869   2.722   1.061   1.738 -3.7354  3.3687  0.6255
  290SOL    HW2  870   2.891   1.079   1.779  0.6620 -1.0907 -0.3707
  291SOL     OW  871   1.970   0.086   0.090  0.2161  0.0830 -0.1326
  291SOL    HW1  872   1.986   0.032   0.178  3.5679  0.4523 -1.5551
  291SOL    HW2  873   2.047   0.154   0.065  0.6299 -1.5150  1.6120
  292SOL     OW  874   2.980   1.184   3.081  0.6855  0.3413  0.0293
  292SOL    HW1  875   2.920   1.256   3.044 -0.9654 -2.5441 -0.2420
  292SOL    HW2  876   3.070   1.187   3.032 -1.1313  1.4129 -0.7001
  293SOL     OW  877   0.576   2.140   0.131 -0.2169  0.4792 -0.1922
  293SOL    HW1  878   0.530   2.192   0.207 -0.8096 -2.0109  1.9042
  293SOL    HW2  879   0.681   2.117   0.153  0.2449 -1.3090  0.0890
  294SOL     OW  880   1.772   2.230   1.765  0.3064 -0.6686  0.2424
  294SOL    HW1  881   1.838   2.294   1.809 -1.1605 -0.1499 -0.5097
  294SOL    HW2  882   1.742   2.262   1.675  2.4156  2.8344  0.7501
  295SOL     OW  883   0.994   1.020   0.506 -0.3394 -0.0445 -0.8336
  295SOL    HW1  884   1.096   1.016   0.543  3.0091 -1.2813  3.7333
  295SOL    HW2  885   0.925   1.033   0.582 -0.6222  0.3102 -1.3392
  296SOL     OW  886   1.243   2.107   2.525 -0.1046  0.3217 -0.1315
  296SOL    HW1  887   1.241   2.133   2.424 -2.6632 -2.8730  1.2494
  296SOL    HW2  888   1.264   2.004   2.537  2.3883 -2.3755 -0.7653
  297SOL     OW  889   1.441   0.624   1.363 -0.1149  0.2917 -0.1612
  297SOL    HW1  890   1.429   0.522   1.379  0.5853 -0.9381 -0.4982
  297SOL    HW2  891   1.527   0.661   1.400  0.3580 -3.2388 -0.0406
  298SOL     OW  892   0.499   1.391   2.984  0.7529  0.0562  0.3388
  298SOL    HW1  893   0.479   1.296   3.023  0.6984 -2.8128 -1.3626
  298SOL    HW2  894   0.578   1.390   2.914 -1.1802 -3.5397  1.5336
  299SOL     OW  895   0.511   0.251   1.348  0.4570  0.3497 -0.8883
  299SOL    HW1  896   0.534   0.349   1.320 -0.1992  3.5904 -1.4437
  299SOL    HW2  897   0.575   0.208   1.419 -1.9576 -1.1499  0.6281
  300SOL     OW  898   1.218   1.841   2.822  0.5663 -0.1719 -0.6272
  300SOL    HW1  899   1.198   1.741   2.854  0.0521 -0.3637  2.4571
  300SOL    HW2  900   1.318   1.868   2.830  2.5425  2.3733 -0.5666
  301SOL     OW  901   0.475   0.306   0.520 -0.2330  0.3083 -0.3250
  301SOL    HW1  902   0.375   0.274   0.514  0.3017  3.2263 -1.8555
  301SOL    HW2  903   0.531   0.234   0.472 -2.0860  1.3103 -0.1537
  302SOL     OW  904   1.217   2.389   2.327  0.4719  0.4698  0.2345
  302SOL    HW1  905   1.133   2.431   2.364  1.2885  2.9253  0.8623
  302SOL    HW2  906   1.198   2.297   2.277 -0.1837  1.0660  0.7430
  303SOL     OW  907   0.971   2.343   0.825  0.0403  0.6251 -0.0977
  303SOL    HW1  908   1.033   2.380   0.745  0.7001 -3.3689 -1.2592
  303SOL    HW2  909   0.964   2.407   0.908  0.4648  0.8749  0.8365
  304SOL     OW  910   0.135   2.031   0.616 -0.2038 -0.0803  0.1012
  304SOL    HW1  911   0.162   1.959   0.544  0.3672 -0.8800 -0.8757
  304SOL    HW2  912   0.053   2.088   0.596  0.8768  1.0762 -2.0085
  305SOL     OW  913   1.642   0.922   0.573  0.0610 -0.3189 -0.0796
  305SOL    HW1  914   1.572   0.909   0.494 -2.9344 -0.2017 -0.4477
  305SOL    HW2  915   1.675   0.828   0.615 -0.6281  0.2512  3.3001
  306SOL     OW  916   0.451   1.877   1.904 -0.0501 -0.0587 -0.6223
  306SOL    HW1  917   0.506   1.785   1.880 -0.6706 -1.3957 -0.8231
  306SOL    HW2  918   0.448   1.889   2.010 -0.9209 -0.8799 -1.1182
  307SOL     OW  919   3.078   0.922   2.511 -0.5211  0.1874 -0.0438
  307SOL    HW1  920   3.091   0.995   2.581  1.2887 -0.4423  0.0553
  307SOL    HW2  921   3.002   0.862   2.536 -0.0258 -0.5997 -1.6622
  308SOL     OW  922   1.557   2.672   2.841 -0.0624 -0.4138 -0.4213
  308SOL    HW1  923   1.523   2.622   2.760 -0.3955  1.3292  0.5809
  308SOL    HW2  924   1.512   2.639   2.930 -1.7264 -1.3411  2.2807
  309SOL     OW  925   1.217   0.081   1.764  0.3455  0.6133  0.0626
  309SOL    HW1  926   1.318   0.076   1.782 -0.1426 -0.1072 -0.2173
  309SOL    HW2  927   1.186   0.115   1.671 -0.1842 -0.5476 -1.5161
  310SOL     OW  928   1.494   2.530   0.650  0.0246  0.1864 -0.0011
  310SOL    HW1  929   1.490   2.555   0.752  1.4663 -1.4622  2.2006
  310SOL    HW2  930   1.549   2.601   0.595  1.6125  2.0972 -1.0346
  311SOL     OW  931   1.161   0.961   1.599  0.3940  0.7262  0.7463
  311SOL    HW1  932   1.221   0.876   1.622 -0.6478 -0.3455 -0.3995
  311SOL    HW2  933   1.218   1.033   1.545 -0.6654  0.1289 -4.2148
  312SOL     OW  934   1.605   0.687   1.006 -0.4711 -0.0066  1.1176
  312SOL    HW1  935   1.599   0.784   0.974  0.2980  1.0825  0.5862
  312SOL    HW2  936   1.513   0.638   0.997 -2.3009 -0.7501 -1.5488
  313SOL     OW  937   1.577   1.397   0.709 -0.7077 -0.3325  0.0141
  313SOL    HW1  938   1.509   1.472   0.739  3.1131  1.1089  1.8186
  313SOL    HW2  939   1.535   1.325   0.647 -0.6272 -2.5385  0.3494
  314SOL     OW  940   2.969   0.052   3.041 -0.2638  0.3495  0.5302
  314SOL    HW1  941   2.969   0.084   3.139 -0.1823 -1.7479 -0.1016
  314SOL    HW2  942   2.879   0.003   3.023 -0.8281 -1.3635  0.7048
  315SOL     OW  943   1.237   0.218   2.809  0.4753  0.2629 -0.5605
  315SOL    HW1  944   1.236   0.133   2.751 -0.6414 -0.1007  2.6568
  315SOL    HW2  945   1.275   0.200   2.907  2.5637 -0.2953  2.9229
  316SOL     OW  946   1.718   2.052   0.862 -0.0753 -0.0427  0.5009
  316SOL    HW1  947   1.682   2.048   0.960  1.6878 -1.5757 -1.3477
  316SOL    HW2  948   1.701   2.141   0.812 -0.2684  0.0719  0.8748
  317SOL     OW  949   1.125   0.663   2.881 -0.2701 -0.4506 -0.0398
  317SOL    HW1  950   1.077   0.713   2.955 -1.5412 -0.8622 -1.8885
  317SOL    HW2  951   1.073   0.580   2.842 -0.8464  2.8520 -0.4798
  318SOL     OW  952   1.343   3.071   2.285  0.4264  0.2937 -0.0422
  318SOL    HW1  953   1.339   3.177   2.286  0.0211 -0.0602  2.7802
  318SOL    HW2  954   1.374   3.037   2.189 -0.2356 -1.4686 -0.8317
  319SOL     OW  955   0.720   2.435   2.942  0.9614 -0.6258 -0.0180
  319SOL    HW1  956   0.648   2.394   3.007 -0.1406  0.2312  0.8093
  319SOL    HW2  957   0.804   2.474   2.989 -0.6577 -1.1851 -0.1357
  320SOL     OW  958   1.707   2.239   0.382  0.2390  1.0784  0.0238
  320SOL    HW1  959   1.777   2.171   0.355  0.3120 -0.9653  0.8185
  320SOL    HW2  960   1.624   2.191   0.431 -0.4945  0.9977 -0.0003
  321SOL     OW  961   1.679   2.738   0.470  0.0664  0.4713  0.0572
  321SOL    HW1  962   1.589   2.778   0.439 -2.1721  0.0715  0.4170
  321SOL    HW2  963   1.765   2.787   0.440  1.5315  0.0034 -1.9753
  322SOL     OW  964   2.578   1.159   2.425  0.8193  0.4715 -0.1220
  322SOL    HW1  965   2.682   1.181   2.434  1.9416 -1.4807 -0.6280
  322SOL    HW2  966   2.556   1.060   2.396 -1.0338 -2.0712  2.8209
  323SOL     OW  967   1.138   2.635   0.840  0.4206  0.3495  0.2420
  323SOL    HW1  968   1.127   2.584   0.750 -1.0709  0.0999  0.4551
  323SOL    HW2  969   1.131   2.738   0.830 -1.3092  0.1726  1.4375
  324SOL     OW  970   0.248   2.517   2.539 -0.0066 -0.2059  0.0730
  324SOL    HW1  971   0.290   2.535   2.628  0.8775 -2.0881 -2.3560
  324SOL    HW2  972   0.159   2.563   2.531  0.8193  0.3092  1.3254
  325SOL     OW  973   1.264   3.016   0.486 -0.3717 -0.1594  0.4000
  325SOL    HW1  974   1.236   3.045   0.393 -2.6214 -2.2240  1.9165
  325SOL    HW2  975   1.288   3.099   0.545 -2.1687  0.1474  0.6371
  326SOL     OW  976   2.423   0.784   3.086 -0.2699  0.1510  0.1278
  326SOL    HW1  977   2.368   0.732   3.018  1.7591 -0.9407 -0.9264
  326SOL    HW2  978   2.486   0.717   3.136  2.1621  1.0563 -1.8771
  327SOL     OW  979   2.830   0.385   0.633 -0.1627  0.2119  0.3096
  327SOL    HW1  980   2.807   0.353   0.535  1.6794 -0.0138  0.0349
  327SOL    HW2  981   2.888   0.315   0.690  2.1783  0.6241 -0.8124
  328SOL     OW  982   2.544   0.587   0.379  0.0249  0.3289  0.0404
  328SOL    HW1  983   2.519   0.687   0.384 -0.2491 -3.5318  0.6286
  328SOL    HW2  984   2.543   0.532   0.467  2.3432  0.7814 -3.1538
  329SOL     OW  985   2.966   2.981   2.155 -0.1130 -0.0191 -0.0378
  329SOL    HW1  986   3.023   2.903   2.198 -2.1552  2.1436  1.1660
  329SOL    HW2  987   2.973   3.073   2.200 -1.0667  1.4364 -3.1404
  330SOL     OW  988   0.572   0.157   1.872 -0.1053  0.0872  0.4454
  330SOL    HW1  989   0.670   0.160   1.833  0.0146 -0.7882  1.9515
  330SOL    HW2  990   0.576   0.104   1.963  1.4803 -0.5769  1.0336
  331SOL     OW  991   2.980   1.914   1.153 -0.1246 -0.0757 -0.4079
  331SOL    HW1  992   2.999   1.994   1.087  1.2592  0.4362  0.0576
  331SOL    HW2  993   2.896   1.926   1.210  0.6969 -1.2451  1.6213
  332SOL     OW  994   0.450   1.142   0.013 -0.1666  0.1086 -0.4306
  332SOL    HW1  995   0.381   1.069  -0.016  0.4306  0.2868  0.0265
  332SOL    HW2  996   0.422   1.195   0.100  1.7846  1.9242  1.1509
  333SOL     OW  997   2.897   1.048   0.317 -0.2543 -0.4361  0.4894
  333SOL    HW1  998   2.902   1.144   0.360  0.1665  1.0924  2.5711
  333SOL    HW2  999   2.988   1.000   0.302 -0.2351  1.3948  0.2537
  334SOL     OW 1000   1.705   1.233   1.833 -0.7473  0.2547  0.3133
  334SOL    HW1 1001   1.798   1.201   1.794 -1.9660 -2.0365 -0.5181
  334SOL    HW2 1002   1.712   1.281   1.925 -1.6307 -1.6101 -0.2885
  335SOL     OW 1003   1.974   2.777   2.596  0.5581 -0.1464 -0.1452
  335SOL    HW1 1004   1.893   2.770   2.661 -0.1629 -0.8315  3.2412
  335SOL    HW2 1005   2.053   2.826   2.643  2.5988  0.0122  1.1081
  336SOL     OW 1006   0.275   0.134   2.793 -0.2183  0.7191 -0.6714
  336SOL    HW1 1007   0.376   0.128   2.828  2.1790 -0.1659 -1.6802
  336SOL    HW2 1008   0.211   0.183   2.860  0.8328  0.7741  2.8103
  337SOL     OW 1009   0.933   2.759   2.833  0.4618 -0.1929  0.6207
  337SOL    HW1 1010   0.922   2.710   2.926  1.0806 -2.7009 -0.5694
  337SOL    HW2 1011   1.033   2.766   2.807 -0.3302  0.5909 -3.0564
  338SOL     OW 1012   0.015   1.049   0.640 -0.0320 -0.0211 -0.2524
  338SOL    HW1 1013  -0.083   1.017   0.652 -1.2866  0.9152 -1.0050
  338SOL    HW2 1014   0.034   1.151   0.639  3.0414 -2.0011 -1.9803
  339SOL     OW 1015   1.714   1.347   2.085  0.3129 -0.2058  0.0633
  339SOL    HW1 1016   1.615   1.349   2.121 -0.0913  1.6169  1.2645
  339SOL    HW2 1017   1.766   1.432   2.112 -2.2144 -0.0970 -1.6155
  340SOL     OW 1018   2.335   0.763   1.171  0.2578  0.9113 -0.2633
  340SOL    HW1 1019   2.236   0.800   1.192  0.9774  2.2213  0.3695
  340SOL    HW2 1020   2.341   0.687   1.102 -0.8734 -1.8918 -0.3643
  341SOL     OW 1021   1.964   2.086   0.330  0.6394  0.1309 -0.3564
  341SOL    HW1 1022   1.958   2.158   0.256 -0.5826  0.6232 -0.0185
  341SOL    HW2 1023   2.063   2.064   0.363  0.8503  1.5263 -0.6946
  342SOL     OW 1024   2.247   2.109   2.716  0.6034  0.5341 -0.2490
  342SOL    HW1 1025   2.291   2.020   2.751 -0.7875 -0.8362  2.1160
  342SOL    HW2 1026   2.144   2.100   2.707  0.1664 -1.1471 -0.3277
  343SOL     OW 1027   0.388   0.878   2.773 -0.2748 -0.3386 -0.4376
  343SOL    HW1 1028   0.420   0.965   2.734  0.9233  2.1825  0.2501
  343SOL    HW2 1029   0.459   0.803   2.756  0.4848 -1.8931 -1.4293
  344SOL     OW 1030   1.934   1.400   0.386  0.0683  0.2267 -0.2345
  344SOL    HW1 1031   1.926   1.345   0.300 -2.4199  0.5160  0.1233
  344SOL    HW2 1032   1.843   1.432   0.429 -0.3214  0.8654 -0.4846
  345SOL     OW 1033   1.426   2.259   2.896  0.2498 -0.6363  0.2068
  345SOL    HW1 1034   1.332   2.223   2.872  1.8730  0.5736 -0.3077
  345SOL    HW2 1035   1.494   2.238   2.823 -1.6269  0.3527  0.7653
  346SOL     OW 1036   2.395   0.911   1.396  0.1044 -0.5944  0.0603
  346SOL    HW1 1037   2.366   1.011   1.399  0.1511 -0.7142 -0.8048
  346SOL    HW2 1038   2.354   0.862   1.313 -0.0094  2.4739 -0.1580
  347SOL     OW 1039   0.753   2.797   1.487  0.2411  0.4998  0.4252
  347SOL    HW1 1040   0.723   2.725   1.551 -0.0987  1.4589  1.6514
  347SOL    HW2 1041   0.696   2.883   1.500 -0.6019  1.5926  1.8328
  348SOL     OW 1042   0.191   0.666   2.841  0.1965  0.1439 -0.1104
  348SOL    HW1 1043   0.097   0.694   2.831  4.4692 -0.0836 -1.8999
  348SOL    HW2 1044   0.261   0.737   2.809  1.7570  2.8957  1.5537
  349SOL     OW 1045   1.854   0.438   2.779  0.3142  0.1188  0.2243
  349SOL    HW1 1046   1.870   0.525   2.729  1.2948 -0.3058 -1.4020
  349SOL    HW2 1047   1.872   0.448   2.880  0.2607 -2.2724 -0.1197
  350SOL     OW 1048   1.628   0.421   0.345  0.7284  0.0803 -0.9097
  350SOL    HW1 1049   1.672   0.423   0.439 -1.8331  1.6286 -1.3234
  350SOL    HW2 1050   1.611   0.518   0.311  0.5604 -0.4058  2.8364
  351SOL     OW 1051   0.992   0.873   2.160  0.2424  0.3271  0.1818
  351SOL    HW1 1052   0.996   0.980   2.162  1.8576  0.9053  1.1826
  351SOL    HW2 1053   1.021   0.826   2.071 -0.1540 -1.6312  0.0020
  352SOL     OW 1054   2.041   1.332   0.616 -0.1731  0.4505  0.1961
  352SOL    HW1 1055   1.991   1.374   0.529 -3.1161 -0.9373  2.7060
  352SOL    HW2 1056   2.142   1.345   0.616 -0.1797  0.8103 -3.3413
  353SOL     OW 1057   2.196   2.854   1.051  0.3867 -0.9343 -0.1810
  353SOL    HW1 1058   2.212   2.813   1.146 -0.2572 -3.2535 -0.5697
  353SOL    HW2 1059   2.097   2.831   1.026 -0.5814  3.9794 -0.2564
  354SOL     OW 1060   0.255   1.409   2.824  0.2761  0.2829 -0.4821
  354SOL    HW1 1061   0.249   1.507   2.782  0.6009 -1.0718  1.8508
  354SOL    HW2 1062   0.341   1.389   2.876 -0.8094  0.8126  0.1078
  355SOL     OW 1063   0.501   1.507   0.518  0.8729  0.1824  0.7534
  355SOL    HW1 1064   0.476   1.584   0.582  1.9362  0.7163 -0.0600
  355SOL    HW2 1065   0.558   1.434   0.565 -2.8633 -1.0364  2.7544
  356SOL     OW 1066   0.847   0.246   2.056 -0.1568  0.1396  0.5172
  356SOL    HW1 1067   0.953   0.236   2.062  1.4333 -0.1222 -2.9495
  356SOL    HW2 1068   0.817   0.227   1.961  0.6499 -0.8141 -1.3082
  357SOL     OW 1069   0.980   1.276   0.378  0.3320 -0.2730 -0.3958
  357SOL    HW1 1070   0.946   1.243   0.286  1.4581 -2.2975 -0.6155
  357SOL    HW2 1071   0.984   1.196   0.444 -0.4237 -1.7687 -0.2452
  358SOL     OW 1072   1.699   1.473   0.463 -0.7532 -0.4047 -0.0539
  358SOL    HW1 1073   1.646   1.439   0.548 -2.5758 -0.4927  0.6522
  358SOL    HW2 1074   1.672   1.430   0.374 -0.4556 -2.0174  0.0221
  359SOL     OW 1075   1.583   2.699   0.123 -0.1116 -1.1519  0.2120
  359SOL    HW1 1076   1.555   2.605   0.096  0.3339  1.3039  2.5473
  359SOL    HW2 1077   1.502   2.764   0.120 -0.9120  1.9400  1.1916
  360SOL     OW 1078   0.874   0.564   0.584 -0.1329 -0.3934  0.4712
  360SOL    HW1 1079   0.799   0.602   0.641 -2.1780 -0.1337 -2.2962
  360SOL    HW2 1080   0.885   0.462   0.594 -2.6091 -0.3012 -1.0894
  361SOL     OW 1081   1.208   1.344   0.763 -0.0034 -0.5638  0.0068
  361SOL    HW1 1082   1.264   1.409   0.828  0.4296 -3.4134  4.0565
  361SOL    HW2 1083   1.115   1.378   0.740 -0.9520  2.4204  1.6173
  362SOL     OW 1084   1.347   1.863   0.807  0.1559  0.0352 -0.2607
  362SOL    HW1 1085   1.385   1.793   0.873 -1.9178 -1.9828 -1.0053
  362SOL    HW2 1086   1.417   1.878   0.730 -0.7732 -1.7635  0.4665
  363SOL     OW 1087   1.209   1.295   2.017  0.4669  0.4833 -0.1274
  363SOL    HW1 1088   1.287   1.348   2.065 -1.4971  2.7338  0.7319
  363SOL    HW2 1089   1.187   1.338   1.926  1.9451 -2.4952 -0.3995
  364SOL     OW 1090   0.488   2.313   1.956 -0.3427  0.0028  0.3704
  364SOL    HW1 1091   0.399   2.343   1.997  2.9819  2.0896 -0.7335
  364SOL    HW2 1092   0.530   2.385   1.894  1.3592 -1.1582  0.2485
  365SOL     OW 1093   0.995   1.863   1.433  0.0634 -0.0242 -0.6650
  365SOL    HW1 1094   0.909   1.919   1.442 -1.4968 -1.0995  0.7491
  365SOL    HW2 1095   1.022   1.838   1.336  3.0500  3.1631 -0.1733
  366SOL     OW 1096   2.744   2.083   0.440 -0.0127  0.2174 -0.1033
  366SOL    HW1 1097   2.646   2.049   0.438  1.7570 -0.5583 -0.1808
  366SOL    HW2 1098   2.804   2.024   0.380 -1.2127 -0.0874 -3.3155
  367SOL     OW 1099   0.915   1.123   0.132 -0.0627 -0.0567 -0.8031
  367SOL    HW1 1100   0.916   1.025   0.168  0.5736  1.3812 -0.1089
  367SOL    HW2 1101   0.968   1.130   0.043 -0.9916  0.7264 -1.2039
  368SOL     OW 1102   1.456   0.534   0.718  0.1952 -0.4173  0.7770
  368SOL    HW1 1103   1.393   0.560   0.637 -1.1347 -0.8838  2.0423
  368SOL    HW2 1104   1.548   0.586   0.724  2.9096 -0.4686  2.7968
  369SOL     OW 1105   0.215   1.728   0.051  0.0277  0.3682  0.0055
  369SOL    HW1 1106   0.280   1.769   0.122  1.9246  1.0976  0.6216
  369SOL    HW2 1107   0.125   1.692   0.092  0.2526 -0.1220  1.3098
  370SOL     OW 1108   0.468   2.080   1.024 -0.0626 -0.2395 -0.2336
  370SOL    HW1 1109   0.467   2.181   0.997  0.2636 -0.0292 -1.8224
  370SOL    HW2 1110   0.390   2.023   0.980  0.3879  0.6653  0.8212
  371SOL     OW 1111   2.902   2.173   2.672 -0.1049 -0.3103 -0.0165
  371SOL    HW1 1112   2.843   2.145   2.750  0.1376  1.0304 -0.6696
  371SOL    HW2 1113   2.994   2.208   2.706  2.2074  0.9246  3.3163
  372SOL     OW 1114   1.126   1.985   1.140 -0.0335  0.4163 -0.4622
  372SOL    HW1 1115   1.054   2.041   1.084  1.5679  0.4858  2.7652
  372SOL    HW2 1116   1.206   2.045   1.175 -1.5859  1.4111  0.3397
  373SOL     OW 1117   1.982   2.002   0.870  0.3391 -0.5720  0.2572
  373SOL    HW1 1118   2.035   2.042   0.952 -0.7877  3.6699  1.0655
  373SOL    HW2 1119   1.879   2.029   0.871 -1.4601 -0.3046 -0.2701
  374SOL     OW 1120   1.774   0.466   0.575  0.5816 -0.6135  0.5588
  374SOL    HW1 1121   1.814   0.430   0.660 -0.8449 -0.2533 -3.3364
  374SOL    HW2 1122   1.836   0.498   0.496  0.7398  0.3774 -2.6307
  375SOL     OW 1123   2.417   2.204   1.140  0.0956  0.4132  0.8573
  375SOL    HW1 1124   2.494   2.181   1.076 -0.6999  2.1618 -1.6633
  375SOL    HW2 1125   2.442   2.181   1.240  0.0130 -1.8187  0.3466
  376SOL     OW 1126   3.036   0.569   1.470  0.3867 -0.3060 -0.1429
  376SOL    HW1 1127   3.089   0.637   1.530  2.2500 -3.0024  0.9644
  376SOL    HW2 1128   2.935   0.585   1.477  0.9043  0.7350 -0.4284
  377SOL     OW 1129   2.233   2.848   0.362 -0.0146  0.4845 -0.0250
  377SOL    HW1 1130   2.217   2.947   0.369 -1.0812 -1.2293  0.8170
  377SOL    HW2 1131   2.335   2.826   0.362  0.6046 -1.5183 -0.7866
  378SOL     OW 1132   1.845   1.808   2.646  0.0565  0.3838 -0.4524
  378SOL    HW1 1133   1.771   1.741   2.666  0.9664 -0.7111  0.5634
  378SOL    HW2 1134   1.933   1.763   2.648  0.8035  0.5771 -0.4603
  379SOL     OW 1135   0.847   0.139   2.754 -0.2977  0.2065  0.4833
  379SOL    HW1 1136   0.832   0.033   2.729 -2.6217  0.8932  1.4159
  379SOL    HW2 1137   0.819   0.210   2.681  0.4337  1.9683 -0.1750
  380SOL     OW 1138   1.510   1.153   0.569 -0.1928 -0.3252  0.3361
  380SOL    HW1 1139   1.419   1.144   0.620 -1.8188 -0.3468  0.3177
  380SOL    HW2 1140   1.566   1.073   0.583 -1.4591  1.5244 -0.9742
  381SOL     OW 1141   1.345   1.171   1.489  0.8833 -0.1503  0.7694
  381SOL    HW1 1142   1.394   1.149   1.404 -2.6222 -0.4890  1.2456
  381SOL    HW2 1143   1.403   1.167   1.573  1.3236 -2.7702  0.0777
  382SOL     OW 1144   1.785   0.872   0.207  0.1586 -0.6541 -0.7502
  382SOL    HW1 1145   1.843   0.838   0.126  0.0243  0.1946  2.4081
  382SOL    HW2 1146   1.842   0.860   0.296  0.8596  0.0784 -0.9008
  383SOL     OW 1147   2.621   1.030   1.452 -0.1665 -0.1496 -0.2598
  383SOL    HW1 1148   2.534   0.979   1.416 -2.9319 -2.4157  1.1296
  383SOL    HW2 1149   2.712   0.990   1.422 -2.4969  1.8724 -1.4164
  384SOL     OW 1150   0.936   2.287   0.133 -0.3748  0.4771 -0.1193
  384SOL    HW1 1151   0.894   2.367   0.189 -1.9165 -0.5598 -1.0959
  384SOL    HW2 1152   0.889   2.196   0.144  2.2315 -2.4641  0.0327
  385SOL     OW 1153   2.999   2.020   1.736 -0.2650 -0.4384 -0.1801
  385SOL    HW1 1154   3.066   2.075   1.676 -0.1663  0.0316  1.1058
  385SOL    HW2 1155   3.039   1.920   1.740  3.1778 -1.2894 -2.7240
  386SOL     OW 1156   0.445   1.120   0.435 -0.4434 -0.3642 -0.2432
  386SOL    HW1 1157   0.456   1.017   0.441  2.2417 -2.0304 -0.8711
  386SOL    HW2 1158   0.377   1.150   0.368  2.3911 -2.5312 -0.3857
  387SOL     OW 1159   0.996   0.376   1.628 -0.5290  0.3048  0.0283
  387SOL    HW1 1160   1.070   0.442   1.622 -2.0459 -0.5222  0.1122
  387SOL    HW2 1161   0.955   0.350   1.536 -2.5232  1.0031 -0.1900
  388SOL     OW 1162   1.198   2.649   1.767  0.0786 -0.3384 -0.0671
  388SOL    HW1 1163   1.228   2.630   1.670 -1.5590 -1.4847 -1.4316
  388SOL    HW2 1164   1.237   2.581   1.840 -1.5925 -0.8301  3.5855
  389SOL     OW 1165   0.209   3.075   1.167 -0.0170  0.4516  0.7621
  389SOL    HW1 1166   0.136   3.099   1.238  0.0836 -1.3122 -0.1552
  389SOL    HW2 1167   0.226   2.973   1.150  0.1514 -0.8548  2.1254
  390SOL     OW 1168   1.046   0.951   1.293 -0.5160  0.0240  0.4346
  390SOL    HW1 1169   1.116   0.904   1.351  0.6572  0.3135  0.6585
  390SOL    HW2 1170   0.992   1.023   1.350 -0.5287  2.0407 -1.2137
  391SOL     OW 1171   2.090   1.181   0.970  0.1353 -0.2609 -0.4062
  391SOL    HW1 1172   2.004   1.131   0.975  2.4008  1.5623 -1.6129
  391SOL    HW2 1173   2.162   1.116   0.924  2.7539  0.6016 -1.8477
  392SOL     OW 1174   0.881   2.655   3.066 -0.2341  0.0358 -0.4427
  392SOL    HW1 1175   0.793   2.673   3.118 -1.7087  1.3122  2.1705
  392SOL    HW2 1176   0.966   2.692   3.112  2.2176 -0.3470 -0.3437
  393SOL     OW 1177   0.400   0.456   2.062 -0.0233 -0.3014 -0.3781
  393SOL    HW1 1178   0.322   0.398   2.024 -0.9903 -2.6699  0.5139
  393SOL    HW2 1179   0.493   0.446   2.010  3.1634  2.2671 -0.2819
  394SOL     OW 1180   3.017   1.773   2.749  0.5283 -0.0104  0.1655
  394SOL    HW1 1181   3.078   1.820   2.817 -0.8291  0.1137 -1.3887
  394SOL    HW2 1182   3.023   1.814   2.654  2.7550  0.4868 -1.7458
  395SOL     OW 1183   1.581   1.919   0.646  0.1954 -0.3399 -0.7113
  395SOL    HW1 1184   1.625   1.837   0.597 -0.0574  0.9170 -1.1457
  395SOL    HW2 1185   1.653   1.949   0.718  0.3696 -1.2837 -2.0764
  396SOL     OW 1186   2.750   1.971   1.330 -0.3398 -0.1066 -0.2591
  396SOL    HW1 1187   2.747   2.026   1.417 -0.9997  1.0357 -2.6808
  396SOL    HW2 1188   2.737   1.868   1.336  2.2778 -1.9739 -0.0965
  397SOL     OW 1189   1.039   2.127   0.615  0.2274  0.4880 -0.5441
  397SOL    HW1 1190   0.956   2.095   0.564 -0.4437  2.1564  2.9089
  397SOL    HW2 1191   1.010   2.185   0.698 -1.0084  1.1884  3.8422
  398SOL     OW 1192   2.246   0.037   0.989 -0.1823  0.4303  0.3390
  398SOL    HW1 1193   2.235  -0.061   1.003  2.1019 -0.9338  0.0657
  398SOL    HW2 1194   2.186   0.095   1.053  0.7201 -1.1247 -0.9077
  399SOL     OW 1195   2.867   2.551   2.773  0.4525 -0.1402 -0.1785
  399SOL    HW1 1196   2.857   2.474   2.697  0.1450  0.0186 -2.1782
  399SOL    HW2 1197   2.823   2.521   2.862  1.6555 -0.6586  1.3118
  400SOL     OW 1198   0.762   1.573   1.267  0.1830  0.3307  0.1604
  400SOL    HW1 1199   0.708   1.619   1.340  2.0381 -1.7293 -0.3907
  400SOL    HW2 1200   0.769   1.630   1.182 -2.1135 -1.8928 -3.7095
  401SOL     OW 1201   1.835   0.160   1.316 -0.0702 -0.0134  0.9052
  401SOL    HW1 1202   1.875   0.189   1.407  0.7649 -0.8970 -0.5654
  401SOL    HW2 1203   1.736   0.147   1.326  0.6496 -2.5110  1.0688
  402SOL     OW 1204   1.328   0.147   3.077  0.0700 -0.0301 -0.0848
  402SOL    HW1 1205   1.417   0.130   3.018  0.4024  0.2009 -2.3427
  402SOL    HW2 1206   1.325   0.244   3.111 -1.2541  0.3502  0.7741
  403SOL     OW 1207   2.309   1.846   0.899  0.2579 -0.4662 -0.4806
  403SOL    HW1 1208   2.410   1.851   0.907 -1.7243  1.8766 -0.9853
  403SOL    HW2 1209   2.257   1.905   0.969  0.6894  0.0665 -1.1899
  404SOL     OW 1210   0.194   2.474   2.885 -0.2161  0.0591 -0.2383
  404SOL    HW1 1211   0.289   2.459   2.846 -0.5726  1.0641  2.8816
  404SOL    HW2 1212   0.174   2.577   2.899  0.9079 -1.3419 -1.2500
  405SOL     OW 1213   0.194   2.512   0.591 -0.0476 -0.6455 -0.7022
  405SOL    HW1 1214   0.141   2.530   0.503 -1.3330 -1.2365 -0.4241
  405SOL    HW2 1215   0.272   2.584   0.599  2.1235 -3.0807  0.0048
  406SOL     OW 1216   0.043   1.472   2.974 -0.9288 -0.1381 -0.6100
  406SOL    HW1 1217   0.135   1.469   2.923  2.7967 -0.1709 -2.3825
  406SOL    HW2 1218   0.049   1.485   3.081  1.8497 -0.4189  0.4354
  407SOL     OW 1219   1.565   0.930   0.888  0.2838  0.0617 -0.0962
  407SOL    HW1 1220   1.559   0.931   0.786  1.1548  1.1552 -0.8314
  407SOL    HW2 1221   1.492   0.994   0.927 -0.9320 -0.8140 -2.4262
  408SOL     OW 1222   1.601   2.335   1.015  0.5959 -1.1778 -0.3454
  408SOL    HW1 1223   1.654   2.328   0.927  0.4810  0.5044  2.6070
  408SOL    HW2 1224   1.613   2.426   1.060  0.8634  2.9024  1.9334
  409SOL     OW 1225   0.541   0.874   0.776  0.6552  0.5897 -0.1719
  409SOL    HW1 1226   0.490   0.880   0.687 -0.7369 -0.7280  2.6433
  409SOL    HW2 1227   0.593   0.784   0.783 -0.1910 -2.3725  0.7276
  410SOL     OW 1228   1.244   2.004   1.401  0.0172 -0.1510 -0.3138
  410SOL    HW1 1229   1.310   1.985   1.488  1.6754 -1.5292  4.1329
  410SOL    HW2 1230   1.154   1.953   1.412 -0.0277 -1.2920  4.0521
  411SOL     OW 1231   2.447   1.860   3.056  0.1604  0.6221 -0.4956
  411SOL    HW1 1232   2.371   1.917   3.018  0.0708  2.0798  1.9580
  411SOL    HW2 1233   2.529   1.859   2.998  0.3216  2.5277  0.6407
  412SOL     OW 1234   1.482   2.499   2.240 -0.2570  0.0271  0.3786
  412SOL    HW1 1235   1.524   2.588   2.270  0.4115 -0.3045 -1.8001
  412SOL    HW2 1236   1.409   2.455   2.302 -1.6895 -0.0885 -1.6719
  413SOL     OW 1237   0.020   0.248   2.946  0.2070 -0.1539 -0.5890
  413SOL    HW1 1238  -0.055   0.176   2.954 -2.4982 -0.3150 -2.6671
  413SOL    HW2 1239   0.086   0.251   3.029  0.9617 -0.7425 -0.1245
  414SOL     OW 1240   1.767   1.455   1.373  0.1715 -0.2614 -0.6316
  414SOL    HW1 1241   1.690   1.512   1.417 -0.4145 -0.4044 -1.0037
  414SOL    HW2 1242   1.744   1.420   1.280 -0.5372  2.0515  2.2840
  415SOL     OW 1243   0.342   2.237   0.664 -0.3997 -0.7778  0.4393
  415SOL    HW1 1244   0.310   2.338   0.663  1.5226 -0.5703  2.1266
  415SOL    HW2 1245   0.270   2.165   0.647 -1.4349 -1.0775  1.0042
  416SOL     OW 1246   0.331   1.032   1.053  0.2030  0.6329 -0.2867
  416SOL    HW1 1247   0.277   0.999   0.970 -3.8218  1.1280  0.7695
  416SOL    HW2 1248   0.417   1.080   1.036 -0.6612 -1.1887  2.0258
  417SOL     OW 1249   2.112   2.334   1.873 -0.2148 -0.5057 -0.0159
  417SOL    HW1 1250   2.141   2.236   1.875  0.0411  1.9122 -1.5410
  417SOL    HW2 1251   2.050   2.355   1.951  0.7375 -1.2638  0.9810
  418SOL     OW 1252   1.086   0.502   1.269  0.0497  0.1933  0.3108
  418SOL    HW1 1253   0.983   0.496   1.252  1.9851 -2.8057 -2.6862
  418SOL    HW2 1254   1.137   0.468   1.189  0.5852  1.1926 -0.4840
  419SOL     OW 1255   1.048   0.332   3.050 -0.0872  0.2757  0.0407
  419SOL    HW1 1256   1.032   0.395   2.965 -0.3888  1.7607 -1.4995
  419SOL    HW2 1257   0.979   0.249   3.059 -0.7383 -0.6838  1.5658
  420SOL     OW 1258   0.192   2.241   0.376 -0.3435 -0.3296  0.2809
  420SOL    HW1 1259   0.124   2.193   0.313 -0.2476  0.7477 -1.7821
  420SOL    HW2 1260   0.147   2.271   0.463  0.3198 -0.7588  0.4830
  421SOL     OW 1261   0.313   3.101   0.667 -0.1430 -0.1453 -0.0292
  421SOL    HW1 1262   0.284   3.002   0.660  1.4845 -1.4446  0.3124
  421SOL    HW2 1263   0.420   3.103   0.658  2.8910  0.8031  0.1402
  422SOL     OW 1264   0.984   2.547   1.056 -0.5472 -0.1339  0.4146
  422SOL    HW1 1265   1.042   2.598   0.987  0.4520  1.2615  1.1983
  422SOL    HW2 1266   0.994   2.574   1.155  1.7213  1.0197  1.1144
  423SOL     OW 1267   0.087   0.665   1.239  0.5067  0.0066  0.4693
  423SOL    HW1 1268   0.043   0.630   1.328  1.1014  1.2900 -0.5972
  423SOL    HW2 1269   0.033   0.747   1.198 -4.0131  2.3509  1.2914
  424SOL     OW 1270   1.005   2.206   2.053  0.2894  0.1022 -0.0005
  424SOL    HW1 1271   1.020   2.303   2.023 -1.1670 -0.5989  1.1255
  424SOL    HW2 1272   0.960   2.201   2.147 -0.2942  0.2844 -0.2386
  425SOL     OW 1273   1.968   1.439   0.992  0.4094 -0.0714 -0.6770
  425SOL    HW1 1274   2.008   1.342   0.985 -1.8838  0.9325 -0.6351
  425SOL    HW2 1275   2.042   1.506   0.961 -1.3645 -1.9564  0.9703
  426SOL     OW 1276   1.525   1.563   1.439 -0.3354 -0.6004 -0.1505
  426SOL    HW1 1277   1.481   1.623   1.362  1.3891 -1.5470 -2.4986
  426SOL    HW2 1278   1.486   1.572   1.533 -0.0282 -0.1125  0.1178
  427SOL     OW 1279   1.898   2.376   2.078 -0.6818 -0.2010 -0.4267
  427SOL    HW1 1280   1.971   2.326   2.137 -1.6003 -0.2921  0.2308
  427SOL    HW2 1281   1.889   2.480   2.097 -1.7338 -0.7010 -3.5368
  428SOL     OW 1282   0.867   2.922   0.152 -0.0190 -0.2269  0.2524
  428SOL    HW1 1283   0.872   3.021   0.166 -0.3077 -2.1581 -1.1238
  428SOL    HW2 1284   0.960   2.876   0.151 -1.9856 -1.0778 -0.1299
  429SOL     OW 1285   1.296   0.075   0.251  0.1460  0.3876  0.4977
  429SOL    HW1 1286   1.365   0.120   0.315 -0.4622  1.1331 -2.3192
  429SOL    HW2 1287   1.317   0.088   0.151 -0.2488 -0.7629 -1.6089
  430SOL     OW 1288   2.711   1.492   0.382 -0.5643 -0.5777  0.1845
  430SOL    HW1 1289   2.729   1.536   0.290  1.3336 -0.9861  2.6336
  430SOL    HW2 1290   2.738   1.557   0.459  0.5501  0.6162  0.4685
  431SOL     OW 1291   2.107   1.640   0.877  0.0442 -0.0076 -0.2907
  431SOL    HW1 1292   2.188   1.705   0.894 -1.6649  0.3719  4.9548
  431SOL    HW2 1293   2.032   1.687   0.821  0.5144 -1.2522 -1.9789
  432SOL     OW 1294   2.901   2.256   1.250 -0.2062 -0.5203  0.4207
  432SOL    HW1 1295   2.845   2.171   1.230  2.0489 -1.7291  0.9965
  432SOL    HW2 1296   2.924   2.281   1.344  0.4977 -1.6451  1.7425
  433SOL     OW 1297   1.854   0.397   0.833  0.2282  0.0929  0.4887
  433SOL    HW1 1298   1.792   0.356   0.909  0.9965 -1.6718  2.2874
  433SOL    HW2 1299   1.908   0.321   0.790 -1.7338 -0.8285 -1.7418
  434SOL     OW 1300   1.573   0.287   0.725  0.5514  0.1364  0.1888
  434SOL    HW1 1301   1.522   0.380   0.706 -4.0597  0.2005 -0.4442
  434SOL    HW2 1302   1.616   0.288   0.815 -1.5865  1.8975  0.8591
  435SOL     OW 1303   1.435   1.446   2.129 -0.1960  0.7711 -0.2926
  435SOL    HW1 1304   1.390   1.472   2.214 -0.9675 -1.1137 -1.6376
  435SOL    HW2 1305   1.483   1.521   2.070 -1.5904 -0.9048 -2.1733
  436SOL     OW 1306   1.632   2.697   2.351  0.4272  0.0867 -0.6729
  436SOL    HW1 1307   1.622   2.780   2.421  1.0954  1.1394 -1.2159
  436SOL    HW2 1308   1.667   2.613   2.400 -0.8308  1.0006  0.7584
  437SOL     OW 1309   1.104   2.910   0.859  0.0670 -0.2925  0.3083
  437SOL    HW1 1310   1.040   2.990   0.835 -0.4239 -0.6621 -0.0906
  437SOL    HW2 1311   1.094   2.872   0.956  0.3116  0.4686 -1.3391
  438SOL     OW 1312   1.045   2.602   1.338  0.1961  0.1377 -0.0120
  438SOL    HW1 1313   1.101   2.634   1.420  2.5447  0.0225 -1.2203
  438SOL    HW2 1314   1.017   2.498   1.352 -0.7953  1.7228 -2.8038
  439SOL     OW 1315   0.725   1.799   1.099  0.0956  0.3170  0.1834
  439SOL    HW1 1316   0.747   1.897   1.117  1.4486  1.0927 -0.2442
  439SOL    HW2 1317   0.623   1.780   1.090 -1.2491  0.1330  0.5325
  440SOL     OW 1318   1.004   2.478   1.964 -0.4635  0.5536  0.4170
  440SOL    HW1 1319   0.960   2.516   1.879  0.2369 -2.9672 -1.9725
  440SOL    HW2 1320   1.101   2.513   1.971 -1.1775 -1.4257 -2.9648
  441SOL     OW 1321   0.407   2.787   1.337 -0.5365  0.4825 -0.0738
  441SOL    HW1 1322   0.457   2.702   1.353  1.7341  0.2820  0.6988
  441SOL    HW2 1323   0.345   2.785   1.251  0.1239 -4.0401 -1.3328
  442SOL     OW 1324   2.274   0.659   2.612 -0.5802 -0.3695 -0.1914
  442SOL    HW1 1325   2.279   0.570   2.555 -0.6905  0.4261 -1.9182
  442SOL    HW2 1326   2.179   0.700   2.618  1.7638  0.5729 -0.9858
  443SOL     OW 1327   1.219   2.702   2.202 -0.2183 -0.0109 -0.2054
  443SOL    HW1 1328   1.265   2.611   2.225 -0.3864  3.7419  1.4396
  443SOL    HW2 1329   1.190   2.754   2.283  4.2972  2.5967 -1.7814
  444SOL     OW 1330   1.110   1.297   1.521  0.2768  0.9778  0.7246
  444SOL    HW1 1331   1.200   1.244   1.499  3.8092  1.5304  1.3204
  444SOL    HW2 1332   1.116   1.380   1.581  0.7435  3.4547 -1.6042
  445SOL     OW 1333   3.096   2.393   1.848  0.4250 -0.7486 -0.6478
  445SOL    HW1 1334   3.067   2.484   1.808  2.0687 -1.5893 -1.9777
  445SOL    HW2 1335   3.038   2.364   1.931 -2.2061 -1.0154  1.1143
  446SOL     OW 1336   0.203   1.891   2.408  0.7318 -0.7423 -0.2706
  446SOL    HW1 1337   0.143   1.972   2.445 -2.1364  2.9293  0.4749
  446SOL    HW2 1338   0.171   1.866   2.314  0.3490 -0.6485 -0.2822
  447SOL     OW 1339   1.233   1.660   1.971  0.0264 -0.0389  0.4628
  447SOL    HW1 1340   1.148   1.718   1.961  0.7833  1.3668  0.0346
  447SOL    HW2 1341   1.302   1.716   2.022 -0.3474 -0.4451 -0.5009
  448SOL     OW 1342   0.088   1.438   1.982 -0.0273  0.7688 -0.4918
  448SOL    HW1 1343   0.144   1.519   1.945 -1.1414 -0.3971 -2.3287
  448SOL    HW2 1344   0.061   1.446   2.082  0.5480  2.4259  1.1485
  449SOL     OW 1345   1.729   2.932   0.899 -0.3041 -0.2956  0.1057
  449SOL    HW1 1346   1.777   2.964   0.990  0.4766  1.8440  0.6946
  449SOL    HW2 1347   1.790   2.872   0.842 -0.3429  0.1537  1.0283
  450SOL     OW 1348   2.305   1.453   0.756  0.1694 -0.4085 -0.0083
  450SOL    HW1 1349   2.219   1.464   0.807  1.3506 -0.5590 -3.9145
  450SOL    HW2 1350   2.304   1.504   0.666 -1.0969 -1.5232 -2.6903
  451SOL     OW 1351   1.319   3.056   1.437 -0.9197 -0.7653 -0.1927
  451SOL    HW1 1352   1.264   3.136   1.473  0.7355  2.6034  1.1934
  451SOL    HW2 1353   1.346   2.988   1.513  0.5947  0.5758 -2.0739
  452SOL     OW 1354   2.658   2.283   2.248 -0.3923  0.4089 -0.8911
  452SOL    HW1 1355   2.625   2.378   2.270 -0.9196 -0.2766  0.0847
  452SOL    HW2 1356   2.716   2.247   2.331 -0.8650 -2.0653  0.8193
  453SOL     OW 1357   2.460   2.680   3.086  0.4599 -0.2521 -0.4353
  453SOL    HW1 1358   2.382   2.725   3.135  0.3307  1.1512 -0.2739
  453SOL    HW2 1359   2.436   2.607   3.018 -1.7628  3.8792  1.0316
  454SOL     OW 1360   0.980   1.166   2.048  0.0519 -0.1301 -0.0432
  454SOL    HW1 1361   0.962   1.120   1.960  0.2027  2.4892 -0.8303
  454SOL    HW2 1362   1.065   1.224   2.037  1.2801 -0.0518  1.5975
  455SOL     OW 1363   0.674   2.689   2.797  0.1131  0.5781 -0.2688
  455SOL    HW1 1364   0.768   2.740   2.817  3.2106 -1.1754  0.4266
  455SOL    HW2 1365   0.665   2.604   2.853  3.0762 -3.0332  0.8640
  456SOL     OW 1366   0.418   1.858   0.188  0.7552 -0.1885  0.0007
  456SOL    HW1 1367   0.489   1.819   0.251 -0.3598 -1.5820 -0.2063
  456SOL    HW2 1368   0.438   1.950   0.145 -1.4947  0.0928  0.4278
  457SOL     OW 1369   0.393   2.702   0.612 -0.0266 -0.5273 -0.1756
  457SOL    HW1 1370   0.390   2.727   0.506 -0.6888 -2.2864 -2.4806
  457SOL    HW2 1371   0.487   2.707   0.657  0.4093  2.3303 -2.7773
  458SOL     OW 1372   2.895   0.027   1.196  0.9619 -0.5245  0.9373
  458SOL    HW1 1373   2.975   0.086   1.170  0.8637 -0.7353 -0.3240
  458SOL    HW2 1374   2.890  -0.066   1.148 -1.3687  0.8212 -1.8027
  459SOL     OW 1375   2.102   2.617   0.788 -0.6506  0.1011 -0.1953
  459SOL    HW1 1376   2.183   2.663   0.824  0.6844 -0.7353 -0.0065
  459SOL    HW2 1377   2.125   2.535   0.731 -1.5718  0.7467  0.1810
  460SOL     OW 1378   1.193   2.128   2.820 -0.1095  0.1793  0.1667
  460SOL    HW1 1379   1.158   2.164   2.729 -0.1622 -4.8829 -2.4197
  460SOL    HW2 1380   1.206   2.026   2.806  1.4251  0.7664  0.4808
  461SOL     OW 1381   0.554   2.189   2.657  0.6625 -0.1858 -0.5740
  461SOL    HW1 1382   0.512   2.117   2.593  1.6431  0.5476  1.1802
  461SOL    HW2 1383   0.554   2.153   2.755  0.3878  0.1627  0.1655
  462SOL     OW 1384   0.938   1.081   1.766 -0.2403 -0.3141 -0.7596
  462SOL    HW1 1385   1.000   1.062   1.686 -0.4332 -1.2666  0.9167
  462SOL    HW2 1386   0.903   1.178   1.758 -1.6335 -1.7776 -1.3916
  463SOL     OW 1387   0.466   0.845   0.507  0.2509 -0.5951 -0.1628
  463SOL    HW1 1388   0.508   0.751   0.502 -1.2059  0.5692  0.4052
  463SOL    HW2 1389   0.362   0.849   0.516 -2.0088  0.1612  1.0322
  464SOL     OW 1390   0.598   2.271   2.218  0.3251  0.1009 -0.1089
  464SOL    HW1 1391   0.567   2.359   2.256  2.1357  1.1335 -0.6773
  464SOL    HW2 1392   0.574   2.250   2.120  0.4526 -1.1919  0.6895
  465SOL     OW 1393   0.214   0.940   0.841 -0.1305  0.0960  0.0215
  465SOL    HW1 1394   0.138   0.967   0.782 -2.3005  0.6332 -1.4979
  465SOL    HW2 1395   0.245   0.843   0.824  0.3347  0.4407 -0.2245
  466SOL     OW 1396   1.400   1.112   0.997  0.0515 -0.2336  0.1368
  466SOL    HW1 1397   1.398   1.210   0.964  1.2821 -0.4943 -1.5172
  466SOL    HW2 1398   1.304   1.078   0.990  0.2047 -0.4580 -2.7088
  467SOL     OW 1399   0.619   0.430   2.455 -0.0410  0.2212 -0.8022
  467SOL    HW1 1400   0.574   0.520   2.440 -0.2461  1.9868  1.4993
  467SOL    HW2 1401   0.578   0.379   2.537 -0.7524 -2.0961  0.8830
  468SOL     OW 1402   0.435   2.266   1.611 -0.1579 -0.5298 -0.1742
  468SOL    HW1 1403   0.485   2.339   1.666 -2.1207 -0.2636  1.6162
  468SOL    HW2 1404   0.409   2.287   1.515  1.6441  0.9304 -0.2671
  469SOL     OW 1405   1.481   1.351   1.256 -0.2760  0.2967 -0.3031
  469SOL    HW1 1406   1.567   1.321   1.201  1.4504 -0.3239  0.3462
  469SOL    HW2 1407   1.491   1.434   1.311 -0.4848 -2.3706 -1.1233
  470SOL     OW 1408   3.037   1.853   0.768  0.0931 -0.2350  0.3701
  470SOL    HW1 1409   3.119   1.916   0.735  0.1618 -0.8684 -0.7997
  470SOL    HW2 1410   3.068   1.778   0.831  0.4918 -1.0897 -0.9138
  471SOL     OW 1411   2.581   1.322   2.150  0.3272 -0.2990  0.0472
  471SOL    HW1 1412   2.523   1.290   2.226  0.0226  0.7643 -2.8346
  471SOL    HW2 1413   2.676   1.350   2.180  0.4693 -2.9901  0.6188
  472SOL     OW 1414   1.161   2.398   0.043 -0.3081  0.6476  0.3123
  472SOL    HW1 1415   1.220   2.412   0.127  1.2506 -2.5274  0.2380
  472SOL    HW2 1416   1.067   2.363   0.068  1.4329  0.5680  0.0678
  473SOL     OW 1417   1.069   1.511   1.040  0.1416  0.1860 -0.4208
  473SOL    HW1 1418   0.972   1.527   1.002 -0.7067  0.4370 -1.4903
  473SOL    HW2 1419   1.073   1.426   1.094 -0.8935 -1.0112 -2.3073
  474SOL     OW 1420   0.668   1.250   0.558  0.4776 -0.1733 -0.4242
  474SOL    HW1 1421   0.622   1.213   0.474 -0.0254  1.2842 -0.8097
  474SOL    HW2 1422   0.729   1.182   0.601 -2.3367 -0.5193 -1.7344
  475SOL     OW 1423   2.838   0.032   0.821  0.4118  0.4101  0.4420
  475SOL    HW1 1424   2.900   0.115   0.820 -3.0930  0.1419 -1.5638
  475SOL    HW2 1425   2.754   0.064   0.865  1.3850 -0.2026 -3.3476
  476SOL     OW 1426   0.968   3.039   1.751 -0.2393  0.6796 -0.1391
  476SOL    HW1 1427   1.065   3.072   1.767  1.2929  1.1351 -1.7628
  476SOL    HW2 1428   0.953   3.016   1.648 -1.3639 -1.9081  0.2340
  477SOL     OW 1429   1.447   0.334   2.429 -0.6474  0.0378 -0.8349
  477SOL    HW1 1430   1.430   0.352   2.531 -0.7404  1.1502  1.0839
  477SOL    HW2 1431   1.520   0.265   2.414 -1.1650 -0.2120  1.6654
  478SOL     OW 1432   2.246   1.809   0.176  0.1225 -0.4291 -0.2748
  478SOL    HW1 1433   2.177   1.752   0.228 -1.7752  1.9524  2.2024
  478SOL    HW2 1434   2.292   1.758   0.097 -1.6043  2.5597 -0.6422
  479SOL     OW 1435   1.220   0.984   2.811 -0.6279  0.1462  0.0367
  479SOL    HW1 1436   1.274   0.949   2.726  0.7452 -0.3081  2.5411
  479SOL    HW2 1437   1.140   0.921   2.838 -2.5050  0.1664 -1.1114
  480SOL     OW 1438   2.664   2.358   0.366  0.0838 -0.3640 -0.0189
  480SOL    HW1 1439   2.676   2.257   0.392  0.6969 -0.7329 -3.9836
  480SOL    HW2 1440   2.572   2.373   0.316 -0.4699 -0.9017  1.1740
  481SOL     OW 1441   0.950   1.181   0.860  0.6591 -0.0490  0.0192
  481SOL    HW1 1442   0.952   1.276   0.817  1.4033 -1.7850  1.3385
  481SOL    HW2 1443   1.017   1.168   0.942  0.4979 -0.7476 -0.9829
  482SOL     OW 1444   1.603   0.288   2.005 -0.1591  0.1569  0.0150
  482SOL    HW1 1445   1.607   0.385   1.984  0.4175 -2.6571 -0.2040
  482SOL    HW2 1446   1.693   0.244   2.040  0.4707  0.1084 -0.6607
  483SOL     OW 1447   0.124   2.268   1.199 -0.2476  0.1318 -0.0585
  483SOL    HW1 1448   0.047   2.327   1.237 -1.5498 -1.0695  0.2172
  483SOL    HW2 1449   0.180   2.330   1.132  1.5386  3.1968  0.5323
  484SOL     OW 1450   1.776   1.120   1.370  0.1147  0.0821 -0.1971
  484SOL    HW1 1451   1.809   1.028   1.410 -1.1531  0.8550 -0.8213
  484SOL    HW2 1452   1.793   1.196   1.436  1.6076 -0.0746 -0.1903
  485SOL     OW 1453   0.749   0.876   1.764  0.1589  1.0620  0.4130
  485SOL    HW1 1454   0.734   0.865   1.662 -1.1304 -2.1006 -1.6821
  485SOL    HW2 1455   0.813   0.954   1.782  0.7703 -1.0865 -0.8043
  486SOL     OW 1456   0.799   1.869   2.473 -0.3724  0.3827 -0.6474
  486SOL    HW1 1457   0.863   1.863   2.555 -0.7933  0.5482 -0.1573
  486SOL    HW2 1458   0.768   1.963   2.459  1.0301 -0.2578  2.2567
  487SOL     OW 1459   1.771   1.666   0.932  0.2338  0.2686 -0.2024
  487SOL    HW1 1460   1.831   1.581   0.948  4.9975 -0.7856  0.1415
  487SOL    HW2 1461   1.817   1.727   0.861  0.0817 -1.3454  0.0197
  488SOL     OW 1462   2.955   0.873   2.256  0.2948 -0.1803  0.4778
  488SOL    HW1 1463   2.955   0.769   2.261  2.9404 -0.4007 -0.0051
  488SOL    HW2 1464   2.976   0.911   2.350  0.4306  0.6726 -0.0906
  489SOL     OW 1465   2.819   0.335   1.301 -0.5269  0.2701 -0.2869
  489SOL    HW1 1466   2.808   0.305   1.399  1.1413  0.7787 -1.9716
  489SOL    HW2 1467   2.892   0.279   1.253 -0.8292  0.8922  1.4512
  490SOL     OW 1468   1.424   2.924   2.800  0.0426  0.3905  0.0478
  490SOL    HW1 1469   1.499   2.852   2.785  2.4823  1.0000 -0.6267
  490SOL    HW2 1470   1.394   2.965   2.709  1.7427 -4.1062 -1.4937
  491SOL     OW 1471   1.678   1.495   2.632  0.5222 -0.5242  0.0020
  491SOL    HW1 1472   1.596   1.503   2.693  2.4386 -2.5611  1.1353
  491SOL    HW2 1473   1.764   1.493   2.686 -1.2488 -1.0653 -3.7782
  492SOL     OW 1474   0.557   2.083   0.620 -0.1748  0.9493  0.2627
  492SOL    HW1 1475   0.626   2.083   0.700  5.3678  0.7448  0.2541
  492SOL    HW2 1476   0.483   2.157   0.630  1.8229 -0.6792  1.5642
  493SOL     OW 1477   0.425   1.401   2.044 -0.3327 -0.5788  0.0386
  493SOL    HW1 1478   0.346   1.461   2.054  0.0932  2.1335 -2.1762
  493SOL    HW2 1479   0.405   1.300   2.057 -1.5704  0.0702 -2.6343
  494SOL     OW 1480   2.706   2.704   0.093 -0.2373  0.2569  0.3821
  494SOL    HW1 1481   2.721   2.657   0.184  0.3176  0.1171  2.2245
  494SOL    HW2 1482   2.609   2.698   0.064  0.5101  0.4933 -2.5769
  495SOL     OW 1483   2.579   2.707   2.646 -0.7374 -0.0553  0.4126
  495SOL    HW1 1484   2.572   2.598   2.631 -0.5045  0.8379  2.1494
  495SOL    HW2 1485   2.666   2.753   2.602  0.6080  1.9222  0.7056
  496SOL     OW 1486   2.082   2.270   0.744  0.3531 -0.2956 -0.6696
  496SOL    HW1 1487   2.108   2.314   0.833 -0.3098  0.0789 -2.1618
  496SOL    HW2 1488   2.057   2.168   0.758  1.7247 -1.2711 -1.0285
  497SOL     OW 1489   0.205   2.990   2.346 -0.0239  0.0397  0.5581
  497SOL    HW1 1490   0.175   3.062   2.413  0.8099 -1.5630 -1.3474
  497SOL    HW2 1491   0.243   3.033   2.258  3.7218  0.0257  0.7279
  498SOL     OW 1492   1.201   1.338   1.233 -0.1934  0.2815  0.0228
  498SOL    HW1 1493   1.307   1.336   1.244 -0.3828 -1.2523  0.9330
  498SOL    HW2 1494   1.151   1.399   1.304 -1.9077  3.6327 -3.3229
  499SOL     OW 1495   0.619   1.749   0.356 -0.1490 -0.3507  0.0070
  499SOL    HW1 1496   0.646   1.649   0.349 -0.2122  0.2256  1.6543
  499SOL    HW2 1497   0.699   1.816   0.379  2.2731  1.3717  4.0092
  500SOL     OW 1498   1.380   2.901   1.633  0.3861 -0.2496 -0.4058
  500SOL    HW1 1499   1.342   2.930   1.728 -1.6112  1.5833  0.5272
  500SOL    HW2 1500   1.439   2.816   1.617  2.2081  2.6145 -1.4699
  501SOL     OW 1501   0.801   1.124   2.266  0.6439  0.2061 -0.0532
  501SOL    HW1 1502   0.726   1.060   2.256 -0.5244  0.4107  1.2332
  501SOL    HW2 1503   0.851   1.153   2.179 -3.0843  0.8228  1.2921
  502SOL     OW 1504   2.574   0.928   1.722 -0.2345 -0.2360 -0.2590
  502SOL    HW1 1505   2.577   0.938   1.615 -1.8756 -1.0895 -0.9026
  502SOL    HW2 1506   2.563   0.828   1.751  0.5071  0.3800 -1.4160
  503SOL     OW 1507   1.339   0.142   0.633 -0.2572  0.0421  0.7295
  503SOL    HW1 1508   1.271   0.216   0.664  1.0001  1.7407  0.2475
  503SOL    HW2 1509   1.438   0.160   0.667  0.3180  1.6896 -0.5148
  504SOL     OW 1510   3.010   2.332   1.499  0.3859  0.0007 -0.0083
  504SOL    HW1 1511   2.955   2.400   1.553 -0.8684 -0.5521 -1.7847
  504SOL    HW2 1512   3.094   2.308   1.549 -2.7365 -0.3570  0.7292
  505SOL     OW 1513   2.301   1.172   1.408  0.5134 -0.1715 -0.1093
  505SOL    HW1 1514   2.256   1.197   1.311 -0.0525 -0.0444  0.8793
  505SOL    HW2 1515   2.378   1.240   1.427 -0.9876 -1.4472 -0.7447
  506SOL     OW 1516   1.975   0.213   1.845  0.5026  0.6081  0.1961
  506SOL    HW1 1517   2.024   0.156   1.916  0.5311 -2.5153 -0.3103
  506SOL    HW2 1518   1.957   0.311   1.876  0.5517  1.7677 -3.2393
  507SOL     OW 1519   0.595   0.670   2.138 -0.3858 -0.5403 -0.2690
  507SOL    HW1 1520   0.517   0.606   2.107  0.6280 -0.1782 -0.1628
  507SOL    HW2 1521   0.677   0.614   2.146 -4.9051 -1.0195  0.4322
  508SOL     OW 1522   0.291   1.653   0.744 -0.2621  0.0597  0.5005
  508SOL    HW1 1523   0.347   1.723   0.692  0.9655 -0.5930 -2.1552
  508SOL    HW2 1524   0.273   1.690   0.841 -2.4215  2.5533  0.9691
  509SOL     OW 1525   1.284   1.181   2.406 -0.2449  0.3939 -0.0985
  509SOL    HW1 1526   1.318   1.138   2.315 -2.4642 -0.1599  1.6267
  509SOL    HW2 1527   1.193   1.147   2.436 -3.7403 -1.0393 -0.8143
  510SOL     OW 1528   1.297   2.126   2.231  0.5465  0.1397 -0.0622
  510SOL    HW1 1529   1.294   2.162   2.134 -3.6989 -0.8229  2.6310
  510SOL    HW2 1530   1.231   2.049   2.237  2.6340 -0.5363 -1.0312
  511SOL     OW 1531   3.006   2.660   1.291 -0.1372 -0.0259 -0.1984
  511SOL    HW1 1532   2.985   2.673   1.189 -0.3264 -1.1582 -2.8215
  511SOL    HW2 1533   2.923   2.664   1.348  4.4391  0.1219  3.7247
  512SOL     OW 1534   2.414   0.441   1.372 -0.3453  0.4304 -0.0968
  512SOL    HW1 1535   2.309   0.412   1.376 -1.9214 -0.5067  2.0661
  512SOL    HW2 1536   2.466   0.396   1.295  3.1796 -0.9907  0.9252
  513SOL     OW 1537   2.575   2.112   0.897 -0.1369 -0.0453 -0.4790
  513SOL    HW1 1538   2.547   2.194   0.842  0.9471 -1.3824  2.0462
  513SOL    HW2 1539   2.644   2.057   0.849  0.1321 -0.2811 -0.4046
  514SOL     OW 1540   0.673   2.756   0.471 -0.0288 -0.3401  0.2888
  514SOL    HW1 1541   0.702   2.803   0.383  0.4966  0.2954 -0.5496
  514SOL    HW2 1542   0.712   2.808   0.551 -1.8307 -0.2182 -0.7094
  515SOL     OW 1543   1.925   1.303   2.381  0.3152 -0.2415 -0.4654
  515SOL    HW1 1544   1.915   1.240   2.298 -2.2138 -1.8886  1.9557
  515SOL    HW2 1545   1.846   1.292   2.448 -0.8546 -0.0742 -0.8559
  516SOL     OW 1546   0.267   0.281   1.905 -0.3210 -0.3287  0.4670
  516SOL    HW1 1547   0.358   0.254   1.853  1.3091 -1.3007 -2.0265
  516SOL    HW2 1548   0.187   0.226   1.869 -0.3775  1.6790 -0.7097
  517SOL     OW 1549   0.456   0.058   1.150 -0.5355 -0.8136  0.6016
  517SOL    HW1 1550   0.471   0.121   1.231  1.4656  0.7490 -1.3735
  517SOL    HW2 1551   0.374  -0.007   1.167 -1.2802  0.0884 -3.2291
  518SOL     OW 1552   2.166   3.075   1.830  0.1575 -0.5143  0.3497
  518SOL    HW1 1553   2.213   3.167   1.852 -2.8894  1.1805 -1.3191
  518SOL    HW2 1554   2.170   3.047   1.727 -1.6379  0.3362 -3.3105
  519SOL     OW 1555   2.338   2.129   2.451  0.1535 -0.0085 -0.2550
  519SOL    HW1 1556   2.295   2.114   2.547 -0.1022 -0.8015  2.2235
  519SOL    HW2 1557   2.343   2.234   2.433 -1.0246 -0.9212 -2.6927
  520SOL     OW 1558   1.847   2.691   1.744  0.4044 -0.5733  0.3443
  520SOL    HW1 1559   1.761   2.640   1.771 -1.9681  0.5512 -0.3720
  520SOL    HW2 1560   1.926   2.636   1.701 -0.7512  0.5029  1.2283
  521SOL     OW 1561   0.553   3.061   2.087  0.3779 -0.0738  0.1943
  521SOL    HW1 1562   0.453   3.065   2.117 -0.4433 -1.2783  2.2590
  521SOL    HW2 1563   0.613   3.084   2.170  0.0419 -0.5804 -0.5336
  522SOL     OW 1564   0.189   1.821   1.574  0.8439  0.1868  0.2783
  522SOL    HW1 1565   0.237   1.897   1.617 -2.4064  0.4456 -1.7711
  522SOL    HW2 1566   0.140   1.851   1.488 -0.1422 -0.4911  0.9050
  523SOL     OW 1567   2.181   2.980   1.577 -0.1089 -0.6356 -0.3770
  523SOL    HW1 1568   2.258   2.912   1.555 -2.1424  0.9358  1.9876
  523SOL    HW2 1569   2.101   2.939   1.533  3.7322  0.2477 -1.5051
  524SOL     OW 1570   0.173   2.739   2.801 -0.1387 -0.3641 -0.5034
  524SOL    HW1 1571   0.109   2.806   2.842  0.2583 -1.8982 -1.2938
  524SOL    HW2 1572   0.273   2.772   2.813 -0.8557  0.2258  1.3047
  525SOL     OW 1573   2.213   1.994   0.401 -1.0077 -0.4982 -0.2568
  525SOL    HW1 1574   2.226   1.952   0.498  1.6185  0.6253 -1.2097
  525SOL    HW2 1575   2.279   1.948   0.341 -0.3881  2.8701 -0.7125
  526SOL     OW 1576   0.478   1.486   1.706 -0.0620  0.4529 -1.0640
  526SOL    HW1 1577   0.520   1.533   1.786 -0.3475  2.0787 -1.5654
  526SOL    HW2 1578   0.494   1.385   1.703  0.2655 -2.7460 -2.2931
  527SOL     OW 1579   1.066   2.876   1.132 -0.3640 -0.1633  0.2680
  527SOL    HW1 1580   1.108   2.797   1.185  0.9912  1.1419 -0.8008
  527SOL    HW2 1581   1.104   2.973   1.144 -0.8605  1.1525  0.9172
  528SOL     OW 1582   1.370   2.332   0.527 -0.0112 -0.0679 -0.1906
  528SOL    HW1 1583   1.411   2.235   0.507 -1.7606 -2.8039 -2.0147
  528SOL    HW2 1584   1.429   2.397   0.581 -0.7839 -3.3625  0.2727
  529SOL     OW 1585   1.925   1.779   0.740  0.2300  0.2544 -0.2730
  529SOL    HW1 1586   1.864   1.775   0.655  0.3111 -1.5441 -1.9765
  529SOL    HW2 1587   1.939   1.875   0.779 -1.4854 -1.5306  1.5599
  530SOL     OW 1588   0.410   2.589   0.221 -0.1761 -0.2257  0.8797
  530SOL    HW1 1589   0.390   2.654   0.295  0.8364 -0.2699 -0.2780
  530SOL    HW2 1590   0.413   2.489   0.255 -1.0256  0.2843 -1.5696
  531SOL     OW 1591   1.873   0.996   1.040  0.1631  0.4317 -0.8811
  531SOL    HW1 1592   1.796   0.995   0.968  0.8426  3.0211  1.8595
  531SOL    HW2 1593   1.840   0.990   1.138  0.4446 -2.6700 -1.7010
  532SOL     OW 1594   0.377   1.183   0.724  0.1679  0.0542  0.1088
  532SOL    HW1 1595   0.433   1.160   0.643 -1.2484 -1.1315  1.7383
  532SOL    HW2 1596   0.319   1.107   0.762  0.1800  1.7266 -1.7257
  533SOL     OW 1597   1.755   0.016   2.582  0.5701 -0.6450 -0.2326
  533SOL    HW1 1598   1.857  -0.004   2.584  1.2957  0.8159 -0.7046
  533SOL    HW2 1599   1.725   0.104   2.633  0.6020  3.1909  1.5913
  534SOL     OW 1600   0.260   0.216   1.443  0.0148  0.3521  0.0632
  534SOL    HW1 1601   0.344   0.251   1.389  1.7251 -4.6914  0.8847
  534SOL    HW2 1602   0.218   0.283   1.510  1.1562 -1.6281 -2.1263
  535SOL     OW 1603   1.897   0.378   0.222 -0.4033  0.1780 -0.5416
  535SOL    HW1 1604   1.901   0.432   0.310  1.5485 -0.3031  4.2885
  535SOL    HW2 1605   1.816   0.317   0.231  0.0734 -1.2135  0.8092
  536SOL     OW 1606   1.433   2.575   0.928  0.5959 -0.2047 -0.0172
  536SOL    HW1 1607   1.412   2.536   1.021 -1.6256  0.6864  1.9749
  536SOL    HW2 1608   1.352   2.587   0.870  1.5660  2.5389  2.3838
  537SOL     OW 1609   0.823   0.175   2.348 -0.5928 -0.7316 -0.0088
  537SOL    HW1 1610   0.822   0.207   2.247 -1.2928 -3.6351 -1.2670
  537SOL    HW2 1611   0.755   0.095   2.359 -1.4444 -0.0338  0.0056
  538SOL     OW 1612   1.660   2.298   1.502  0.1676 -0.5696 -0.3419
  538SOL    HW1 1613   1.644   2.209   1.451 -1.3187 -1.9157 -1.0042
  538SOL    HW2 1614   1.751   2.345   1.485  0.6552  2.3220  1.0245
  539SOL     OW 1615   0.212   1.657   2.718 -0.4572  0.0949  0.4762
  539SOL    HW1 1616   0.127   1.629   2.665  1.1098  0.7825  1.6376
  539SOL    HW2 1617   0.198   1.756   2.753 -2.3705 -1.1302 -0.7033
  540SOL     OW 1618   2.724   1.703   1.979 -0.4311  0.0492  0.1142
  540SOL    HW1 1619   2.649   1.636   1.960  1.8136  0.6171 -0.4660
  540SOL    HW2 1620   2.706   1.790   1.929 -0.6156 -1.1666 -0.2399
  541SOL     OW 1621   0.480   2.328   3.060 -0.2366 -0.4232 -0.4652
  541SOL    HW1 1622   0.528   2.256   3.126  5.5885 -0.4953 -0.0036
  541SOL    HW2 1623   0.380   2.311   3.046  1.3268  1.1399  0.2582
  542SOL     OW 1624   2.247   2.571   0.410  0.0845 -0.4718 -0.1932
  542SOL    HW1 1625   2.228   2.672   0.393  0.6051  1.1380  1.5483
  542SOL    HW2 1626   2.157   2.521   0.440 -0.1272 -0.0780 -1.2841
  543SOL     OW 1627   1.010   1.707   1.664  0.1863 -0.4189 -0.5602
  543SOL    HW1 1628   1.025   1.765   1.749  3.6608 -2.1905  1.5502
  543SOL    HW2 1629   1.009   1.767   1.581  3.8474 -0.4334  1.9349
  544SOL     OW 1630   0.989   0.392   0.202  0.1530 -0.0998 -0.0106
  544SOL    HW1 1631   0.887   0.371   0.207 -1.8303  0.5039 -2.7744
  544SOL    HW2 1632   1.033   0.380   0.107  2.2602  1.5503 -2.6183
  545SOL     OW 1633   1.088   1.732   0.734 -0.3151  0.7215  0.5891
  545SOL    HW1 1634   1.166   1.796   0.757 -1.2444 -1.0345 -0.1132
  545SOL    HW2 1635   1.102   1.675   0.650  1.5956 -0.0403  2.8245
  546SOL     OW 1636   2.615   1.547   3.054  0.0346  0.4272  0.5615
  546SOL    HW1 1637   2.594   1.561   2.954  1.3360  0.7878 -1.5496
  546SOL    HW2 1638   2.531   1.534   3.120  1.3291 -2.5685 -1.3112
  547SOL     OW 1639   0.571   0.055   2.688 -0.3186 -0.2002 -0.7443
  547SOL    HW1 1640   0.640  -0.027   2.699 -1.2480  2.1677 -1.4015
  547SOL    HW2 1641   0.475   0.032   2.664  1.4235 -0.3237 -0.0522
  548SOL     OW 1642   2.025   0.839   3.043  0.2283 -0.1604 -0.3523
  548SOL    HW1 1643   1.927   0.807   3.018 -1.8184  0.4104 -1.8808
  548SOL    HW2 1644   2.039   0.945   3.058  2.0788 -0.1795 -0.8064
  549SOL     OW 1645   0.672   0.582   0.201 -0.5457 -0.2735 -0.1270
  549SOL    HW1 1646   0.625   0.606   0.115 -1.8799  0.0266  2.2626
  549SOL    HW2 1647   0.765   0.631   0.215  1.0106 -2.8237  0.9056
  550SOL     OW 1648   2.496   2.863   2.860  0.3094  0.3756 -0.3349
  550SOL    HW1 1649   2.471   2.792   2.930 -1.4930 -0.5740 -2.1029
  550SOL    HW2 1650   2.513   2.831   2.766  3.6557  1.0341  2.2922
  551SOL     OW 1651   0.290   0.864   0.217  0.0582 -0.3076  0.3108
  551SOL    HW1 1652   0.389   0.841   0.186 -0.7849 -1.6550 -2.5159
  551SOL    HW2 1653   0.268   0.844   0.316 -2.0674  0.1884  1.3520
  552SOL     OW 1654   0.710   2.930   1.874 -0.1519  0.9410  0.3155
  552SOL    HW1 1655   0.664   2.962   1.962 -0.8460 -1.3927  2.8925
  552SOL    HW2 1656   0.802   2.970   1.851 -2.7436 -2.3652 -3.5098
  553SOL     OW 1657   3.093   2.541   0.380 -0.9552  0.7805 -0.4642
  553SOL    HW1 1658   3.043   2.453   0.350  0.5726 -2.1086  2.3024
  553SOL    HW2 1659   3.029   2.606   0.433  1.2193  1.3635  0.2303
  554SOL     OW 1660   2.174   0.367   0.573 -0.1706  0.1386 -0.3539
  554SOL    HW1 1661   2.232   0.364   0.486  1.1861 -1.5741 -0.1837
  554SOL    HW2 1662   2.181   0.278   0.625 -2.4282 -0.9200  1.6042
  555SOL     OW 1663   0.433   2.919   2.495  0.1026  0.6158 -0.0689
  555SOL    HW1 1664   0.333   2.919   2.460 -1.6975  1.7320  0.0371
  555SOL    HW2 1665   0.490   2.883   2.419  1.0022 -1.3340  0.9855
  556SOL     OW 1666   0.848   2.393   1.556 -0.3700 -0.0460 -0.4730
  556SOL    HW1 1667   0.877   2.491   1.584  0.1255  0.6362 -0.3547
  556SOL    HW2 1668   0.899   2.356   1.473 -1.2120 -2.3017  0.0745
  557SOL     OW 1669   0.100   2.076   0.155 -0.2530 -0.1172  0.0987
  557SOL    HW1 1670   0.038   2.009   0.107 -0.2310 -2.5265  1.4137
  557SOL    HW2 1671   0.106   2.171   0.109  0.9648  0.5226 -1.0266
  558SOL     OW 1672   2.918   2.343   0.290 -0.0688 -0.1273 -0.4081
  558SOL    HW1 1673   2.819   2.353   0.327 -0.1413  1.9036 -0.2299
  558SOL    HW2 1674   2.925   2.332   0.188 -1.0439 -0.4617  0.5675
  559SOL     OW 1675   0.372   2.310   1.350 -0.0633 -0.1106  0.1883
  559SOL    HW1 1676   0.275   2.313   1.310 -2.1491  3.5964 -1.0710
  559SOL    HW2 1677   0.425   2.221   1.333 -1.6378  2.3561 -1.7307
  560SOL     OW 1678   2.074   1.116   3.077 -0.0814  0.5869 -0.3384
  560SOL    HW1 1679   2.019   1.171   3.145 -0.2168  0.6637  0.0823
  560SOL    HW2 1680   2.153   1.163   3.028  0.1836 -0.2229  0.7088
  561SOL     OW 1681   3.000   1.888   0.047  0.2944 -0.6843 -0.0016
  561SOL    HW1 1682   2.948   1.810   0.093  0.1128 -0.4375  3.3004
  561SOL    HW2 1683   2.936   1.961   0.006 -0.5730  2.9302 -0.4854
  562SOL     OW 1684   0.949   2.226   2.340  0.2462  0.3638  0.3099
  562SOL    HW1 1685   0.863   2.201   2.392 -2.0216  0.0053  2.3164
  562SOL    HW2 1686   1.015   2.270   2.404 -0.7559 -2.5244 -1.5017
  563SOL     OW 1687   0.720   2.507   2.583 -0.0428  0.2042  0.3391
  563SOL    HW1 1688   0.787   2.435   2.621  0.2839  4.3303 -0.0842
  563SOL    HW2 1689   0.691   2.578   2.654 -2.2274  2.1945 -2.4299
  564SOL     OW 1690   2.770   1.313   2.917  0.4371  0.6793  0.1856
  564SOL    HW1 1691   2.707   1.333   2.997  1.9009  0.3711  0.9207
  564SOL    HW2 1692   2.823   1.397   2.883  0.1427  3.2942 -0.0777
  565SOL     OW 1693   2.573   1.971   2.563  0.4068 -0.5211  0.0682
  565SOL    HW1 1694   2.522   2.035   2.497  1.6349  0.3956 -1.5547
  565SOL    HW2 1695   2.616   2.021   2.644  2.1146 -0.3445 -0.3148
  566SOL     OW 1696   2.005   2.853   1.412 -0.1105  0.3574  0.0010
  566SOL    HW1 1697   1.986   2.758   1.383 -1.4852 -0.6527 -0.2752
  566SOL    HW2 1698   2.017   2.909   1.328 -1.8096 -1.9889  1.0429
  567SOL     OW 1699   2.481   0.079   2.221  0.3279 -0.3716 -0.2432
  567SOL    HW1 1700   2.545   0.163   2.215  0.6190 -0.1815 -1.1367
  567SOL    HW2 1701   2.442   0.045   2.134  0.1376 -3.3146  2.9237
  568SOL     OW 1702   1.552   1.762   0.241  0.1127 -0.0906  0.4605
  568SOL    HW1 1703   1.501   1.835   0.191  2.2940  0.0808  0.6531
  568SOL    HW2 1704   1.644   1.743   0.197 -1.0346  0.6336  1.4577
  569SOL     OW 1705   0.305   0.656   0.853  0.0383  0.2865 -0.8470
  569SOL    HW1 1706   0.354   0.582   0.792 -0.0871 -0.6067 -3.0227
  569SOL    HW2 1707   0.201   0.635   0.873 -1.8528  1.1007  2.3007
  570SOL     OW 1708   0.652   0.765   2.828 -0.1345  0.9479 -0.4897
  570SOL    HW1 1709   0.696   0.760   2.734 -0.1571 -1.7946 -1.0591
  570SOL    HW2 1710   0.656   0.863   2.871 -2.3372  0.6192 -0.2149
  571SOL     OW 1711   0.780   3.063   1.046 -0.8141 -0.0499 -0.1530
  571SOL    HW1 1712   0.846   3.069   0.965  2.4843  0.0663 -0.4569
  571SOL    HW2 1713   0.793   2.973   1.092 -0.5042  0.3582 -0.5947
  572SOL     OW 1714   1.593   2.618   1.222 -0.0535  0.0499  0.2734
  572SOL    HW1 1715   1.500   2.574   1.229 -0.1307 -1.3842  0.0726
  572SOL    HW2 1716   1.589   2.720   1.207 -0.9046  2.5564  1.3027
  573SOL     OW 1717   2.927   0.428   2.015 -0.4241  0.0865  0.0924
  573SOL    HW1 1718   2.884   0.334   2.026 -0.9970 -0.5984 -1.0063
  573SOL    HW2 1719   2.854   0.497   1.998 -0.4088  0.3683 -2.0399
  574SOL     OW 1720   0.210   1.721   0.996  0.4546 -0.4301 -0.3128
  574SOL    HW1 1721   0.212   1.825   0.985  3.8383 -0.1752  1.2720
  574SOL    HW2 1722   0.144   1.685   1.069  0.7337  0.4076  0.6135
  575SOL     OW 1723   0.932   2.111   0.995  1.1592 -0.1235 -0.1775
  575SOL    HW1 1724   0.876   2.145   1.074  0.8053  1.1226 -0.6274
  575SOL    HW2 1725   0.965   2.187   0.932  3.2586  0.3079  0.0006
  576SOL     OW 1726   2.891   2.970   1.651 -0.6841  0.1602  0.0566
  576SOL    HW1 1727   2.816   2.960   1.579 -1.2264 -2.5500 -0.0237
  576SOL    HW2 1728   2.930   3.069   1.666  2.4574  1.0416  1.1680
  577SOL     OW 1729   2.530   1.230   0.003 -0.2752 -0.1088  0.2227
  577SOL    HW1 1730   2.533   1.141  -0.056  0.3630 -1.2850  0.9076
  577SOL    HW2 1731   2.585   1.230   0.091 -2.0609 -0.7299 -0.7678
  578SOL     OW 1732   1.347   2.729   2.545  0.1346  0.5680 -0.4399
  578SOL    HW1 1733   1.266   2.778   2.502  1.1350  0.3871 -2.4163
  578SOL    HW2 1734   1.441   2.754   2.513  1.0838 -0.9500 -1.6082
  579SOL     OW 1735   0.096   2.496   0.111 -0.0342  0.0964  0.4034
  579SOL    HW1 1736   0.068   2.501   0.208 -0.8689 -0.6703 -1.9803
  579SOL    HW2 1737   0.174   2.428   0.100 -0.5721 -0.0152  0.1162
  580SOL     OW 1738   1.026   2.655   0.430  0.2647  0.3321  0.4566
  580SOL    HW1 1739   1.122   2.663   0.385  3.0356 -0.7705  1.5167
  580SOL    HW2 1740   0.961   2.610   0.366  2.2328  0.3564  1.8005
  581SOL     OW 1741   1.278   2.580   1.517  0.1481  0.2031 -0.1253
  581SOL    HW1 1742   1.326   2.488   1.504  0.4725  1.0542  3.3576
  581SOL    HW2 1743   1.298   2.642   1.438 -0.9754 -1.5424 -0.3686
  582SOL     OW 1744   1.502   0.086   1.819 -0.2689 -0.1217  0.0197
  582SOL    HW1 1745   1.524   0.174   1.873  0.2865 -0.2832  1.0581
  582SOL    HW2 1746   1.580   0.055   1.758  0.6496  2.5336  1.6210
  583SOL     OW 1747   2.525   3.019   0.492 -0.4894  0.3194  0.5271
  583SOL    HW1 1748   2.555   2.942   0.428 -1.1119 -1.3864  0.5024
  583SOL    HW2 1749   2.471   2.989   0.571  1.9391 -1.3197 -2.6807
  584SOL     OW 1750   1.613   0.946   2.099  0.4883 -0.3675  0.2609
  584SOL    HW1 1751   1.680   1.009   2.048 -0.0433  1.8224  1.1954
  584SOL    HW2 1752   1.654   0.889   2.173 -0.3552 -1.8778 -1.2535
  585SOL     OW 1753   2.095   2.676   2.964  0.0414 -0.3083 -0.0477
  585SOL    HW1 1754   2.158   2.603   2.937  0.9667 -0.1586 -0.2050
  585SOL    HW2 1755   2.008   2.692   2.906 -0.6402 -1.1038  0.6989
  586SOL     OW 1756   2.755   0.272   1.540  0.1788  0.5998  0.0271
  586SOL    HW1 1757   2.763   0.349   1.609 -1.1312 -1.0335 -0.2730
  586SOL    HW2 1758   2.672   0.219   1.563 -0.9341  1.6139 -1.3911
  587SOL     OW 1759   1.915   1.531   2.751  0.2628 -0.2031 -0.0325
  587SOL    HW1 1760   1.966   1.457   2.697 -0.1460  0.3168  0.1226
  587SOL    HW2 1761   1.956   1.550   2.843 -1.1036 -0.2424 -2.3587
  588SOL     OW 1762   0.476   2.745   2.266 -0.2808 -0.5553 -0.1149
  588SOL    HW1 1763   0.381   2.734   2.228 -1.5323  0.3183 -1.3139
  588SOL    HW2 1764   0.499   2.669   2.330 -0.4094  0.6509 -0.5459
  589SOL     OW 1765   2.101   1.413   2.550  0.0918 -0.3923 -0.0219
  589SOL    HW1 1766   2.040   1.363   2.483  1.0011  3.9545 -2.1861
  589SOL    HW2 1767   2.195   1.367   2.568 -0.4225 -0.4953  0.1359
  590SOL     OW 1768   2.345   1.645   2.044 -0.2117  0.2610  0.4797
  590SOL    HW1 1769   2.433   1.597   2.017 -0.3860  0.4149  0.4498
  590SOL    HW2 1770   2.348   1.676   2.144 -1.6102  0.7195  0.0912
  591SOL     OW 1771   1.324   2.396   0.257  0.0131 -0.0773 -0.1130
  591SOL    HW1 1772   1.355   2.317   0.195  1.7912  0.0796  0.6639
  591SOL    HW2 1773   1.339   2.378   0.358 -0.7432  1.7647 -0.5531
  592SOL     OW 1774   1.764   2.312   0.765  0.2232 -0.1697  0.7959
  592SOL    HW1 1775   1.747   2.372   0.681 -0.5517  1.2442 -0.4564
  592SOL    HW2 1776   1.860   2.314   0.797 -0.6581 -1.7225 -1.7427
  593SOL     OW 1777   0.686   0.305   0.126  0.1730  0.1266  0.5811
  593SOL    HW1 1778   0.758   0.270   0.059  0.0917 -2.2090  0.3037
  593SOL    HW2 1779   0.653   0.398   0.113  2.5118 -0.6301 -1.4086
  594SOL     OW 1780   0.954   1.830   2.716 -0.8687  0.2718  0.2065
  594SOL    HW1 1781   1.045   1.848   2.759  1.4393  0.3170 -1.0910
  594SOL    HW2 1782   0.890   1.909   2.727  0.3427 -0.4991  0.7125
  595SOL     OW 1783   1.553   0.082   1.038 -0.0783 -0.2642  0.0492
  595SOL    HW1 1784   1.633   0.020   1.063 -2.0888 -1.4534 -2.1312
  595SOL    HW2 1785   1.475   0.030   0.993 -2.2184 -0.0009  0.1896
  596SOL     OW 1786   3.079   1.468   2.261  0.6721 -0.3518  0.2633
  596SOL    HW1 1787   2.977   1.479   2.247 -1.7626 -2.5045 -0.6563
  596SOL    HW2 1788   3.116   1.515   2.342  1.7990  1.8115 -3.9839
  597SOL     OW 1789   2.040   2.553   1.601 -0.0613 -0.0233  0.4538
  597SOL    HW1 1790   2.037   2.470   1.539 -2.4718 -1.0368  0.2553
  597SOL    HW2 1791   2.133   2.558   1.657 -0.7372  0.1923  0.6991
  598SOL     OW 1792   2.511   2.973   1.322  0.1188  0.0521 -0.0537
  598SOL    HW1 1793   2.613   2.989   1.351  1.0489  1.7188  0.1825
  598SOL    HW2 1794   2.502   2.920   1.233  2.2170  0.1772  0.1493
  599SOL     OW 1795   2.946   0.399   2.496  0.2538 -0.3792 -0.1600
  599SOL    HW1 1796   3.001   0.480   2.473  0.2645  0.2933  1.0675
  599SOL    HW2 1797   2.843   0.411   2.486  0.3101  0.6988  1.7031
  600SOL     OW 1798   2.759   1.130   2.682 -0.3683 -0.1843 -0.1451
  600SOL    HW1 1799   2.750   1.031   2.710  0.8718 -2.5014  0.3086
  600SOL    HW2 1800   2.713   1.194   2.748 -0.8638  0.8488  1.7206
  601SOL     OW 1801   2.970   1.273   1.919 -0.2202  0.0650  0.2244
  601SOL    HW1 1802   2.905   1.330   1.861 -0.4182 -0.1200  0.7620
  601SOL    HW2 1803   3.059   1.332   1.940  0.8295  2.0673 -1.0546
  602SOL     OW 1804   1.420   1.705   2.329  0.1126  0.3851  0.3110
  602SOL    HW1 1805   1.356   1.627   2.365 -0.4876  1.3534 -1.6288
  602SOL    HW2 1806   1.520   1.681   2.333 -1.7638 -0.2649  0.0375
  603SOL     OW 1807   0.619   1.224   2.729 -0.7361 -0.1244  0.2903
  603SOL    HW1 1808   0.543   1.181   2.668 -0.1751 -2.8868  0.1416
  603SOL    HW2 1809   0.711   1.182   2.709  0.2958 -1.0698  2.1030
  604SOL     OW 1810   2.394   1.005   0.150 -0.6663  0.0518  0.1672
  604SOL    HW1 1811   2.431   1.085   0.100  2.3251 -2.1951 -3.3277
  604SOL    HW2 1812   2.379   0.919   0.091 -1.7114  2.0209  0.1469
  605SOL     OW 1813   2.550   1.169   1.879  0.4761  0.2005  0.1050
  605SOL    HW1 1814   2.543   1.069   1.850 -3.2706 -0.1572  1.3190
  605SOL    HW2 1815   2.603   1.189   1.963 -1.5152  0.8716 -3.2936
  606SOL     OW 1816   1.482   2.495   2.623 -0.1395  0.3009 -0.9233
  606SOL    HW1 1817   1.389   2.534   2.588 -0.5382  2.1939  1.0998
  606SOL    HW2 1818   1.489   2.392   2.620 -3.6934 -0.3647 -1.4127
  607SOL     OW 1819   1.387   1.641   0.439 -0.0792 -0.3041 -0.5222
  607SOL    HW1 1820   1.292   1.672   0.434  2.1850 -1.2795 -1.1285
  607SOL    HW2 1821   1.454   1.694   0.378 -0.9539  2.0820  0.4814
  608SOL     OW 1822   1.465   2.874   0.380  0.0181 -0.4530 -0.3733
  608SOL    HW1 1823   1.542   2.918   0.324 -0.5867 -0.9281 -2.2269
  608SOL    HW2 1824   1.409   2.940   0.438 -1.1755 -0.5177 -0.3259
  609SOL     OW 1825   1.333   1.402   0.259  0.6942  0.0563  0.0912
  609SOL    HW1 1826   1.342   1.474   0.338 -1.0741 -0.9930 -2.7784
  609SOL    HW2 1827   1.250   1.414   0.198  0.5811 -1.4698 -0.8833
  610SOL     OW 1828   3.015   1.139   2.191  0.3024 -0.1525 -0.7123
  610SOL    HW1 1829   2.998   1.036   2.181  1.5024  1.7819 -0.4518
  610SOL    HW2 1830   2.952   1.200   2.133 -2.5713 -1.5171 -0.2132
  611SOL     OW 1831   2.606   0.294   1.116 -0.3234 -0.1603 -0.1236
  611SOL    HW1 1832   2.534   0.235   1.164 -0.4814 -1.1419  0.1195
  611SOL    HW2 1833   2.686   0.319   1.177  0.8186  1.6090 -1.7068
  612SOL     OW 1834   0.768   2.249   1.186 -0.0815 -0.1675 -0.2248
  612SOL    HW1 1835   0.695   2.193   1.225 -0.2548  0.5350  0.9487
  612SOL    HW2 1836   0.735   2.345   1.162  1.5895  1.0894  0.1240
  613SOL     OW 1837   0.793   1.417   2.427  0.0526 -0.7132 -0.2876
  613SOL    HW1 1838   0.818   1.453   2.331 -0.0335 -0.8600  0.4485
  613SOL    HW2 1839   0.708   1.355   2.420 -0.6732 -0.5371  0.2178
  614SOL     OW 1840   1.576   1.652   1.962 -0.4211 -0.3324  0.3320
  614SOL    HW1 1841   1.521   1.730   2.010 -0.6638 -0.4906  1.3028
  614SOL    HW2 1842   1.672   1.637   1.995 -0.5029 -0.8590 -0.0300
  615SOL     OW 1843   0.783   1.313   1.712 -0.7285  0.2460 -0.0392
  615SOL    HW1 1844   0.704   1.267   1.667 -0.1446  0.5795  1.8483
  615SOL    HW2 1845   0.837   1.385   1.660  2.4846 -1.2879 -2.6229
  616SOL     OW 1846   1.075   1.640   2.301  0.2003  0.4871 -0.8836
  616SOL    HW1 1847   0.986   1.590   2.305 -1.5512  1.0070  0.2062
  616SOL    HW2 1848   1.070   1.727   2.249 -1.3394  2.5131 -2.1710
  617SOL     OW 1849   2.941   1.555   1.600  0.0198  0.3508  0.0610
  617SOL    HW1 1850   2.922   1.467   1.657 -0.5466 -2.1144  1.1150
  617SOL    HW2 1851   2.964   1.528   1.502 -2.7183 -1.2300  1.4718
  618SOL     OW 1852   1.916   1.996   1.383 -0.4988 -0.0762  0.1267
  618SOL    HW1 1853   1.918   2.041   1.292 -0.1914 -1.4358  1.7567
  618SOL    HW2 1854   1.961   1.904   1.385 -1.8583 -1.2644  0.4265
  619SOL     OW 1855   1.778   0.445   2.377  0.4367  0.4616  0.3982
  619SOL    HW1 1856   1.707   0.491   2.316 -0.7424 -2.5122  0.9106
  619SOL    HW2 1857   1.742   0.360   2.425 -2.0580  0.6420 -1.1124
  620SOL     OW 1858   2.323   2.934   0.661  0.4448 -0.3355 -0.7065
  620SOL    HW1 1859   2.225   2.973   0.649 -3.3601  0.1677 -1.9718
  620SOL    HW2 1860   2.325   2.861   0.729  0.2530  0.1124 -2.5269
  621SOL     OW 1861   2.168   1.792   1.297  0.0186  0.5488 -0.2802
  621SOL    HW1 1862   2.171   1.772   1.404  2.5648  0.1101  0.6257
  621SOL    HW2 1863   2.098   1.734   1.249  0.2323  1.3422  1.3738
  622SOL     OW 1864   2.280   0.905   1.785  0.2540 -0.0845  0.0952
  622SOL    HW1 1865   2.376   0.897   1.748  2.6900 -0.1687  0.1847
  622SOL    HW2 1866   2.252   0.825   1.850 -1.3539  1.0963  1.8053
  623SOL     OW 1867   1.324   0.826   2.592 -0.0715  0.2363 -0.0379
  623SOL    HW1 1868   1.283   0.743   2.641  0.5258 -0.9947  1.7025
  623SOL    HW2 1869   1.273   0.858   2.506  1.6461  1.6482 -0.9006
  624SOL     OW 1870   0.526   0.706   3.076  0.5472 -0.3175  0.5803
  624SOL    HW1 1871   0.557   0.715   2.978 -3.1277 -1.5314  1.2245
  624SOL    HW2 1872   0.548   0.788   3.138  0.2703  3.8299  0.4530
  625SOL     OW 1873   2.794   1.693   1.041 -0.2450  0.3472  0.1747
  625SOL    HW1 1874   2.703   1.740   1.013  1.0830 -1.5045 -0.5624
  625SOL    HW2 1875   2.868   1.759   1.065  0.1675  0.5582 -0.9662
  626SOL     OW 1876   0.577   2.709   1.718 -0.1246 -0.1505 -0.5161
  626SOL    HW1 1877   0.616   2.790   1.770 -1.2019  0.8927 -0.4377
  626SOL    HW2 1878   0.484   2.686   1.757 -0.4579  0.0720  1.0237
  627SOL     OW 1879   0.728   0.973   1.506  0.4210 -0.6472 -0.3653
  627SOL    HW1 1880   0.671   0.942   1.421 -0.9984 -1.0886 -0.1595
  627SOL    HW2 1881   0.783   1.056   1.490  3.4304 -1.7622 -1.9407
  628SOL     OW 1882   2.488   0.135   0.688  0.0487  0.2842 -0.3360
  628SOL    HW1 1883   2.529   0.073   0.616  0.0059  0.9853  0.5063
  628SOL    HW2 1884   2.382   0.135   0.705 -3.7532  0.9402  1.2631
  629SOL     OW 1885   1.998   0.931   1.989 -0.0696  0.1824 -0.2442
  629SOL    HW1 1886   1.994   0.966   1.894 -2.2486 -0.6088  1.3256
  629SOL    HW2 1887   1.974   1.003   2.061 -3.0818 -0.2565 -0.4207
  630SOL     OW 1888   2.926   2.295   0.825  0.3601 -0.9650  0.5787
  630SOL    HW1 1889   2.849   2.366   0.819  0.4298 -0.9914  0.6941
  630SOL    HW2 1890   2.881   2.206   0.795  1.5659  0.3242 -1.5284
  631SOL     OW 1891   3.030   0.141   2.121 -0.4560 -0.7816  0.0164
  631SOL    HW1 1892   3.073   0.180   2.207 -1.6795 -0.8614 -1.0219
  631SOL    HW2 1893   3.071   0.170   2.028 -1.6341  1.8799 -3.5405
  632SOL     OW 1894   2.410   2.561   0.648 -0.0955 -0.6121  0.0121
  632SOL    HW1 1895   2.418   2.643   0.715 -0.7528 -1.6219 -0.7999
  632SOL    HW2 1896   2.343   2.579   0.570  2.9880  0.1772  1.3306
  633SOL     OW 1897   1.395   1.209   2.660  0.1294 -0.2814 -0.0219
  633SOL    HW1 1898   1.401   1.303   2.700 -1.4469 -0.5108  1.2017
  633SOL    HW2 1899   1.356   1.202   2.565 -0.0784  3.1659  2.6993
  634SOL     OW 1900   0.684   2.051   0.875 -0.1851 -0.1935  0.0312
  634SOL    HW1 1901   0.601   2.051   0.939  0.2979  2.1311  1.4855
  634SOL    HW2 1902   0.770   2.086   0.921  1.4584 -1.3754 -1.2420
  635SOL     OW 1903   2.971   2.338   0.017  0.2897  0.0702 -0.1042
  635SOL    HW1 1904   2.895   2.394  -0.025 -0.4512  1.3885  0.6489
  635SOL    HW2 1905   3.061   2.387   0.021 -0.7433 -0.8977 -1.9025
  636SOL     OW 1906   2.335   2.746   1.993  0.2296 -0.1278  0.4863
  636SOL    HW1 1907   2.330   2.851   2.010 -1.7160  1.8041 -1.5342
  636SOL    HW2 1908   2.275   2.695   2.058  3.8532 -1.5455 -0.2396
  637SOL     OW 1909   2.674   0.598   1.965 -0.4657  0.3583 -0.4208
  637SOL    HW1 1910   2.593   0.617   1.899 -0.4770  0.1156  0.6599
  637SOL    HW2 1911   2.709   0.684   2.000  0.0319  0.2224 -0.8143
  638SOL     OW 1912   2.423   1.825   1.268  0.3527  0.2132 -0.1702
  638SOL    HW1 1913   2.318   1.818   1.278  2.1923  0.1738 -0.6923
  638SOL    HW2 1914   2.473   1.749   1.316 -0.5674  0.7635  0.9861
  639SOL     OW 1915   1.275   2.065   1.712 -0.6041 -0.1521 -0.2578
  639SOL    HW1 1916   1.305   2.145   1.649 -0.5246 -0.7639 -1.9069
  639SOL    HW2 1917   1.179   2.080   1.750  1.3869 -0.9087 -1.3570
  640SOL     OW 1918   0.189   1.165   1.570 -0.3142 -0.5472  0.0336
  640SOL    HW1 1919   0.208   1.167   1.675 -0.1635  1.3976 -0.8265
  640SOL    HW2 1920   0.260   1.099   1.525 -0.4371  2.2766  0.3393
  641SOL     OW 1921   2.010   0.224   1.549 -0.1513 -0.4525  0.5483
  641SOL    HW1 1922   1.999   0.217   1.651  0.3486 -4.8284 -0.9989
  641SOL    HW2 1923   2.101   0.189   1.517  0.1885  0.2010 -0.8056
  642SOL     OW 1924   2.014   3.076   0.325 -0.0180  0.0765  0.4242
  642SOL    HW1 1925   2.102   3.091   0.377 -0.0632  0.5520 -0.2207
  642SOL    HW2 1926   1.934   3.066   0.390  0.7482 -2.4529  0.8557
  643SOL     OW 1927   2.927   1.803   2.141 -0.0515  0.4821 -0.4849
  643SOL    HW1 1928   2.862   1.754   2.071  0.7699 -1.5503 -1.6167
  643SOL    HW2 1929   2.944   1.902   2.112  2.5654  0.0580 -0.1982
  644SOL     OW 1930   2.196   2.363   1.173  0.4823 -0.4968 -0.1286
  644SOL    HW1 1931   2.288   2.323   1.147  0.8504 -0.5071 -0.1993
  644SOL    HW2 1932   2.161   2.321   1.261 -1.2634 -1.5958 -2.3583
  645SOL     OW 1933   0.612   0.829   1.279 -0.2986  0.1936 -0.2060
  645SOL    HW1 1934   0.509   0.806   1.279 -0.3530 -1.4465  3.0271
  645SOL    HW2 1935   0.650   0.851   1.181  0.9997  3.0201 -2.4500
  646SOL     OW 1936   1.434   1.822   2.102  0.3194  0.1128 -0.1849
  646SOL    HW1 1937   1.497   1.901   2.125  2.3927 -1.4895  0.5318
  646SOL    HW2 1938   1.410   1.766   2.189  0.0037 -0.3317 -0.4236
  647SOL     OW 1939   0.786   1.050   0.702 -0.3404  0.0656  1.0844
  647SOL    HW1 1940   0.847   1.082   0.777 -2.6413 -1.7942 -0.2624
  647SOL    HW2 1941   0.698   1.006   0.732  1.2526  1.3753 -1.3583
  648SOL     OW 1942   0.098   0.252   0.272 -0.3283 -0.0980 -0.0361
  648SOL    HW1 1943   0.126   0.198   0.189 -1.5596  1.5363 -2.5936
  648SOL    HW2 1944   0.108   0.351   0.250 -3.3179 -3.5240  0.8230
  649SOL     OW 1945   3.012   0.234   0.831 -0.4676 -0.2985 -0.6025
  649SOL    HW1 1946   3.090   0.184   0.880  1.2578  0.6600  2.2490
  649SOL    HW2 1947   3.024   0.336   0.844 -0.4423  0.6937  0.6813
  650SOL     OW 1948   2.769   0.719   1.518 -0.0292  0.1814  0.3731
  650SOL    HW1 1949   2.665   0.702   1.522 -2.0700  2.2156  1.3428
  650SOL    HW2 1950   2.792   0.792   1.446 -1.1464  1.5750  0.4749
  651SOL     OW 1951   0.896   1.494   1.542 -0.6738  0.4457  0.5268
  651SOL    HW1 1952   0.950   1.568   1.598  1.0615  0.1371 -0.9357
  651SOL    HW2 1953   0.946   1.487   1.455 -2.4080  0.3916  0.3478
  652SOL     OW 1954   2.347   2.391   2.427 -0.3166  0.7176  0.7445
  652SOL    HW1 1955   2.256   2.432   2.455 -1.8749  0.3922 -1.2553
  652SOL    HW2 1956   2.409   2.463   2.389 -1.4644  2.0421 -0.1909
  653SOL     OW 1957   2.685   1.231   0.242  0.3943  0.3462  0.2016
  653SOL    HW1 1958   2.730   1.302   0.308  0.5031  0.5085  0.6200
  653SOL    HW2 1959   2.746   1.145   0.223  0.7294 -1.3855 -0.6717
  654SOL     OW 1960   1.229   2.232   1.245 -0.3601  0.0800 -0.1996
  654SOL    HW1 1961   1.244   2.153   1.314  0.5029  0.7172  1.0402
  654SOL    HW2 1962   1.289   2.227   1.161  0.1148  1.4664 -0.7629
  655SOL     OW 1963   0.165   0.928   1.884  0.6348 -0.1568  0.5944
  655SOL    HW1 1964   0.209   0.869   1.808 -1.1650 -0.2002 -0.4831
  655SOL    HW2 1965   0.189   1.028   1.883 -1.0954  1.1939  1.3374
  656SOL     OW 1966   2.573   2.450   2.608 -0.1550 -0.0767  0.2203
  656SOL    HW1 1967   2.672   2.427   2.575  2.4125 -0.2342  0.6697
  656SOL    HW2 1968   2.499   2.387   2.579  0.6418 -1.4206  0.5476
  657SOL     OW 1969   2.982   0.992   1.906 -0.0359  0.2272 -0.2587
  657SOL    HW1 1970   2.971   1.093   1.933  1.3125 -1.5086 -0.1642
  657SOL    HW2 1971   3.083   0.970   1.903  1.4240  2.8677  0.6358
  658SOL     OW 1972   1.668   0.170   2.373 -0.6596 -0.4222  0.3496
  658SOL    HW1 1973   1.700   0.106   2.447 -1.9591  0.9379 -0.4196
  658SOL    HW2 1974   1.714   0.155   2.282 -1.5492 -0.5127 -1.3099
  659SOL     OW 1975   1.388   0.623   2.836  0.3981 -0.1724 -0.1878
  659SOL    HW1 1976   1.445   0.707   2.862  0.0010  0.8473 -0.8760
  659SOL    HW2 1977   1.288   0.644   2.843 -1.0758 -1.2336 -1.6152
  660SOL     OW 1978   1.395   0.320   1.429 -0.2056 -0.3174 -0.8814
  660SOL    HW1 1979   1.394   0.351   1.527 -1.1630  0.6376  0.6154
  660SOL    HW2 1980   1.471   0.254   1.405  0.1971 -1.1564  2.5352
  661SOL     OW 1981   2.345   1.196   0.662  0.4950 -0.3512  0.2395
  661SOL    HW1 1982   2.384   1.201   0.563  0.5873  1.9073 -1.5914
  661SOL    HW2 1983   2.338   1.293   0.706  0.9434 -1.1407  0.6887
  662SOL     OW 1984   1.386   0.369   1.719  0.4968 -0.0236  0.0891
  662SOL    HW1 1985   1.320   0.308   1.769  0.0433 -2.3824 -2.0951
  662SOL    HW2 1986   1.405   0.453   1.777 -0.1734 -0.2367  1.1756
  663SOL     OW 1987   0.820   1.553   2.194 -1.3543  0.0888  0.2938
  663SOL    HW1 1988   0.742   1.595   2.232  1.1010 -0.8654  1.6854
  663SOL    HW2 1989   0.802   1.503   2.106  0.8444  1.1595  3.5614
  664SOL     OW 1990   1.612   2.045   1.384  0.3357 -0.2514  0.3272
  664SOL    HW1 1991   1.552   1.997   1.458  0.4534 -1.8487  1.0694
  664SOL    HW2 1992   1.698   1.995   1.367 -0.4621  3.4313  1.7598
  665SOL     OW 1993   2.243   0.688   1.990  0.1053 -0.1551 -0.7028
  665SOL    HW1 1994   2.157   0.731   2.024 -1.5780  2.0989 -1.7902
  665SOL    HW2 1995   2.307   0.669   2.067 -1.5946  0.0700 -1.4264
  666SOL     OW 1996   0.438   2.339   0.302 -0.2970  0.1013 -0.2415
  666SOL    HW1 1997   0.496   2.335   0.387 -0.4792 -3.1418  1.7336
  666SOL    HW2 1998   0.340   2.318   0.322  0.4814  0.9451  0.0635
  667SOL     OW 1999   2.071   0.193   1.144  0.4086 -0.1882  0.5779
  667SOL    HW1 2000   2.075   0.297   1.128  2.4475  0.7765  0.5792
  667SOL    HW2 2001   1.977   0.170   1.182 -0.6800 -0.5025 -0.6930
  668SOL     OW 2002   2.061   0.465   1.115 -0.3528  0.1893 -0.3548
  668SOL    HW1 2003   2.105   0.493   1.022  0.8073  0.7109 -0.3639
  668SOL    HW2 2004   2.108   0.514   1.197  1.7926  0.4934  3.1878
  669SOL     OW 2005   3.069   2.137   1.017  0.0244  0.2722 -0.0195
  669SOL    HW1 2006   3.003   2.190   0.951  0.1611 -3.0226 -0.1173
  669SOL    HW2 2007   3.108   2.196   1.094  0.1783 -0.2026 -0.6883
  670SOL     OW 2008   2.871   2.334   2.062 -0.3678  0.3412 -0.1368
  670SOL    HW1 2009   2.790   2.308   2.118 -0.0439  1.8827 -0.5342
  670SOL    HW2 2010   2.853   2.431   2.020 -0.4364 -2.6088 -0.9027
  671SOL     OW 2011   1.720   1.778   1.466 -0.2843  0.2436  0.5662
  671SOL    HW1 2012   1.709   1.785   1.364 -1.7256 -4.0750  1.7635
  671SOL    HW2 2013   1.644   1.823   1.521  0.5583 -0.1592  0.9360
  672SOL     OW 2014   0.437   0.607   2.358  0.2301  0.2364 -0.3465
  672SOL    HW1 2015   0.473   0.660   2.279 -1.3558 -0.6548  0.6728
  672SOL    HW2 2016   0.342   0.635   2.390 -1.4354  1.5469 -0.1872
  673SOL     OW 2017   0.138   1.219   1.143 -0.0053  0.2210 -0.5268
  673SOL    HW1 2018   0.148   1.267   1.237  0.7440  0.3764 -0.0923
  673SOL    HW2 2019   0.226   1.180   1.109 -0.6255  0.8632  1.6132
  674SOL     OW 2020   1.687   2.986   0.295  0.6776 -0.4125 -0.4779
  674SOL    HW1 2021   1.641   3.078   0.315  0.8967  0.0643 -0.6705
  674SOL    HW2 2022   1.761   2.989   0.228  1.0936 -1.5095 -1.9449
  675SOL     OW 2023   1.721   0.809   2.308 -0.7264 -0.2005  0.6704
  675SOL    HW1 2024   1.820   0.788   2.339  2.3352  0.1218  0.6645
  675SOL    HW2 2025   1.670   0.727   2.268 -0.7733  1.4624 -1.0172
  676SOL     OW 2026   2.556   1.491   1.929  0.1578 -0.0244 -0.0829
  676SOL    HW1 2027   2.480   1.479   1.862  3.1731 -1.1571  1.7915
  676SOL    HW2 2028   2.566   1.401   1.985  0.2565 -2.8444 -1.6858
  677SOL     OW 2029   1.897   0.655   0.916  0.4113 -0.0590 -0.2788
  677SOL    HW1 2030   1.814   0.677   0.980 -2.4398 -0.1945  2.1431
  677SOL    HW2 2031   1.919   0.553   0.915 -1.8025 -1.4320 -0.4717
  678SOL     OW 2032   0.066   0.744   1.635 -0.2055  0.5815  0.0192
  678SOL    HW1 2033   0.165   0.763   1.654 -1.2403  2.8199 -1.4644
  678SOL    HW2 2034   0.005   0.744   1.723 -1.0732 -0.4468  0.0018
  679SOL     OW 2035   2.508   1.220   1.195  0.2644  0.0735 -0.6088
  679SOL    HW1 2036   2.417   1.245   1.154 -1.6525  0.8563  1.3237
  679SOL    HW2 2037   2.522   1.117   1.179 -2.7854  1.7024 -1.0096
  680SOL     OW 2038   2.800   0.510   1.696 -0.1094  0.1458 -0.1870
  680SOL    HW1 2039   2.779   0.587   1.625  2.2679 -0.0777  0.1630
  680SOL    HW2 2040   2.877   0.531   1.762  0.9552  1.3630  0.9038
  681SOL     OW 2041   2.994   0.129   1.598  0.5575  0.5083  0.8930
  681SOL    HW1 2042   3.044   0.085   1.514  1.5235 -0.0503 -3.5976
  681SOL    HW2 2043   2.921   0.200   1.580  0.5483 -0.4370 -2.4147
  682SOL     OW 2044   0.776   0.032   1.334  0.3483 -0.5745  0.4120
  682SOL    HW1 2045   0.704  -0.031   1.379 -2.7603 -0.7116  1.1713
  682SOL    HW2 2046   0.788   0.031   1.231 -0.6510 -0.6709 -1.3491
  683SOL     OW 2047   1.356   0.227   2.176  0.1761  0.0768 -0.1572
  683SOL    HW1 2048   1.371   0.293   2.254 -2.5599  0.3091  0.9676
  683SOL    HW2 2049   1.451   0.197   2.148  0.3823 -0.1844 -0.5031
  684SOL     OW 2050   1.465   2.090   0.461 -0.6288  0.2422  0.2471
  684SOL    HW1 2051   1.510   2.042   0.541  1.0521  0.8747 -1.3979
  684SOL    HW2 2052   1.378   2.041   0.433 -1.5489 -2.2947 -2.5240
  685SOL     OW 2053   2.173   2.071   1.921  0.3880 -0.0702  0.3952
  685SOL    HW1 2054   2.253   2.031   1.861 -1.1962  0.7630 -1.9936
  685SOL    HW2 2055   2.189   2.065   2.020 -1.2952 -1.7459 -1.8937
  686SOL     OW 2056   1.488   1.836   2.741 -0.4263 -0.4197 -0.5328
  686SOL    HW1 2057   1.517   1.781   2.825 -2.8400  0.9626  0.0695
  686SOL    HW2 2058   1.451   1.774   2.668  0.4190  0.5166 -0.8904
  687SOL     OW 2059   1.328   2.470   1.941 -0.2822  0.3791 -0.1383
  687SOL    HW1 2060   1.332   2.368   1.959 -1.6235 -2.0596  2.2776
  687SOL    HW2 2061   1.368   2.524   2.019 -0.4714 -0.8750 -0.7512
  688SOL     OW 2062   2.019   1.496   1.787  0.4909  0.0915  0.4852
  688SOL    HW1 2063   2.073   1.584   1.797 -1.9076  3.3191  4.6996
  688SOL    HW2 2064   2.002   1.471   1.687  0.7002 -1.9313  1.4858
  689SOL     OW 2065   2.362   1.082   2.751 -0.4063  0.3895 -0.6315
  689SOL    HW1 2066   2.293   1.008   2.768  0.1455  1.3907  1.5434
  689SOL    HW2 2067   2.450   1.063   2.800 -2.6411 -1.9474 -0.4088
  690SOL     OW 2068   2.222   2.783   0.078 -0.3908 -0.2599  0.2806
  690SOL    HW1 2069   2.171   2.756  -0.015 -1.4549 -1.4744 -2.2126
  690SOL    HW2 2070   2.175   2.752   0.164 -1.4084 -0.6576  0.2962
  691SOL     OW 2071   2.582   0.423   2.155 -0.0066 -0.2513  0.5921
  691SOL    HW1 2072   2.653   0.350   2.173  1.3085  1.8208 -0.0667
  691SOL    HW2 2073   2.600   0.487   2.080 -1.6484  1.4460  1.9370
  692SOL     OW 2074   2.710   1.269   0.744  0.1329 -0.4553 -0.2189
  692SOL    HW1 2075   2.734   1.274   0.642 -1.2177  0.4371 -1.6119
  692SOL    HW2 2076   2.743   1.349   0.797  2.7383 -3.1424 -1.6080
  693SOL     OW 2077   2.845   2.934   0.639  0.2103  0.4662 -0.1577
  693SOL    HW1 2078   2.839   3.014   0.709 -0.5004  0.2050  2.0808
  693SOL    HW2 2079   2.824   2.955   0.537  1.5882 -0.1089 -2.1743
  694SOL     OW 2080   2.397   2.201   0.089 -0.8495  0.1494  0.3260
  694SOL    HW1 2081   2.387   2.268   0.164 -1.6011 -0.5452 -0.1652
  694SOL    HW2 2082   2.307   2.163   0.055 -0.1063  1.2042 -2.2278
  695SOL     OW 2083   0.558   3.015   1.461  0.3471  0.0518 -0.7042
  695SOL    HW1 2084   0.497   2.944   1.422  1.1523  1.1873  0.7028
  695SOL    HW2 2085   0.512   3.079   1.527 -0.2472 -1.6147  0.6625
  696SOL     OW 2086   2.819   2.062   0.713 -0.2478 -0.7446 -0.2054
  696SOL    HW1 2087   2.885   1.984   0.731 -1.6705 -1.1878 -0.2746
  696SOL    HW2 2088   2.785   2.072   0.616 -1.3073  0.1059 -0.5183
  697SOL     OW 2089   1.598   2.001   1.854  0.0818  0.3483 -0.1512
  697SOL    HW1 2090   1.662   1.917   1.854  4.3641 -0.6408 -0.8260
  697SOL    HW2 2091   1.645   2.082   1.812  0.5880  1.0994 -0.5937
  698SOL     OW 2092   2.917   0.418   2.785 -0.2514  0.6187  0.5385
  698SOL    HW1 2093   2.947   0.402   2.686  1.4318  1.0632  0.3426
  698SOL    HW2 2094   2.986   0.365   2.843 -0.5639  2.0573 -1.8082
  699SOL     OW 2095   1.544   0.090   2.912 -0.3924  0.2722  0.1312
  699SOL    HW1 2096   1.525  -0.000   2.871  1.8537 -0.3906  1.2739
  699SOL    HW2 2097   1.600   0.157   2.852 -0.0529 -1.2551  1.3382
  700SOL     OW 2098   1.005   2.338   1.346 -0.1676 -0.1393  0.2545
  700SOL    HW1 2099   1.093   2.299   1.305 -0.0297  1.5723 -2.2330
  700SOL    HW2 2100   0.916   2.312   1.293 -1.0251  0.4370 -0.4050
  701SOL     OW 2101   1.867   2.928   3.063  0.0459  0.5692 -0.0498
  701SOL    HW1 2102   1.890   2.890   3.154 -2.1829  0.7961  0.3363
  701SOL    HW2 2103   1.843   3.026   3.068 -0.4773 -1.0489  0.8414
  702SOL     OW 2104   2.095   1.302   1.971 -0.4450  0.0906  0.2281
  702SOL    HW1 2105   2.175   1.244   1.942 -0.4519  0.8002  0.4307
  702SOL    HW2 2106   2.072   1.371   1.895  0.1460 -1.3776  1.6651
  703SOL     OW 2107   1.924   0.911   1.440  0.2894 -0.1215  0.6128
  703SOL    HW1 2108   1.882   0.840   1.503  0.9516  1.0535 -0.4305
  703SOL    HW2 2109   1.988   0.971   1.493 -0.9384  0.2500 -0.7417
  704SOL     OW 2110   0.317   2.034   1.728  0.5473  0.2453  0.2803
  704SOL    HW1 2111   0.367   1.958   1.787  1.5949 -1.6038 -1.9639
  704SOL    HW2 2112   0.384   2.092   1.677  0.3303 -2.1974  1.7971
  705SOL     OW 2113   2.557   1.547   0.903  0.7626 -0.5716  0.0013
  705SOL    HW1 2114   2.493   1.488   0.852 -1.4568  0.7689  0.8989
  705SOL    HW2 2115   2.652   1.503   0.918  0.6853 -0.4164  0.5410
  706SOL     OW 2116   0.604   1.663   1.886 -0.2055 -0.3257 -0.3768
  706SOL    HW1 2117   0.628   1.584   1.946 -0.3212  1.5668  1.7552
  706SOL    HW2 2118   0.685   1.726   1.875 -2.8420  0.5119  0.3358
  707SOL     OW 2119   2.270   1.156   1.853 -0.8881  0.1608 -0.3538
  707SOL    HW1 2120   2.374   1.163   1.861 -0.6104 -1.7918  1.4408
  707SOL    HW2 2121   2.247   1.061   1.817  0.4684  1.2378 -0.7164
  708SOL     OW 2122   3.059   0.553   3.080  0.6091 -0.2575  0.1735
  708SOL    HW1 2123   3.057   0.620   3.004 -1.2668 -0.0518 -0.5820
  708SOL    HW2 2124   3.105   0.466   3.052 -0.4081 -0.1702 -0.5809
  709SOL     OW 2125   1.852   1.836   0.256  0.1044 -0.1765 -0.5344
  709SOL    HW1 2126   1.897   1.920   0.298  2.6310 -2.0161  0.5352
  709SOL    HW2 2127   1.834   1.848   0.151 -0.3655 -0.1900  0.4092
  710SOL     OW 2128   1.668   1.624   2.404 -0.0646  0.4868  0.5063
  710SOL    HW1 2129   1.735   1.602   2.327 -0.4746  0.3432 -2.1687
  710SOL    HW2 2130   1.670   1.554   2.483  2.2402 -1.6198 -2.5254
  711SOL     OW 2131   2.559   2.899   1.059  0.1528  0.0640 -0.1081
  711SOL    HW1 2132   2.514   2.976   1.010  0.0394 -1.5162 -0.7134
  711SOL    HW2 2133   2.657   2.919   1.081  0.8390 -1.4948 -0.6869
  712SOL     OW 2134   1.390   2.206   1.952  0.1421  0.1837  0.2401
  712SOL    HW1 2135   1.472   2.208   2.020  1.6859 -0.5181  0.8799
  712SOL    HW2 2136   1.399   2.129   1.880  0.2466 -0.7075 -1.9733
  713SOL     OW 2137   2.832   1.460   2.522 -0.0451  0.5143 -0.1723
  713SOL    HW1 2138   2.842   1.361   2.488 -1.1131 -0.8290 -0.2934
  713SOL    HW2 2139   2.774   1.463   2.607  2.0165  0.1159  2.9582
  714SOL     OW 2140   2.679   0.490   2.439  0.2490  0.4201  0.8291
  714SOL    HW1 2141   2.590   0.467   2.492 -2.1322 -1.1003  0.2146
  714SOL    HW2 2142   2.664   0.498   2.337  0.8253  2.2664 -0.0271
  715SOL     OW 2143   1.584   2.051   1.095  0.5696  0.3857 -0.2317
  715SOL    HW1 2144   1.487   2.070   1.056  0.3723  0.2777 -0.2181
  715SOL    HW2 2145   1.604   2.100   1.183  1.8095  1.8532 -0.2714
  716SOL     OW 2146   1.178   0.194   1.489  0.0728  0.2350  0.1830
  716SOL    HW1 2147   1.080   0.229   1.479  0.8518 -2.6686 -0.4378
  716SOL    HW2 2148   1.253   0.268   1.460  5.2115 -1.7901 -0.8541
  717SOL     OW 2149   1.160   0.569   1.530  0.2446  0.4421 -0.2507
  717SOL    HW1 2150   1.238   0.636   1.538 -2.5197 -2.6336 -0.5318
  717SOL    HW2 2151   1.130   0.554   1.430 -0.8117 -3.2413  1.5038
  718SOL     OW 2152   0.676   0.887   1.003 -0.1413  0.3587  0.6227
  718SOL    HW1 2153   0.627   0.885   0.908 -1.2238  0.3473 -0.7572
  718SOL    HW2 2154   0.705   0.983   1.036 -1.2657 -0.9442 -0.0275
  719SOL     OW 2155   0.634   1.695   2.325 -0.0112  0.2201 -0.2926
  719SOL    HW1 2156   0.699   1.743   2.387  1.8580  3.3269 -0.6536
  719SOL    HW2 2157   0.541   1.684   2.370 -1.0702 -0.1717 -2.0064
  720SOL     OW 2158   2.186   1.124   0.287  0.4996 -0.2806  0.0894
  720SOL    HW1 2159   2.233   1.056   0.218 -0.2103 -1.2351  0.2781
  720SOL    HW2 2160   2.147   1.075   0.376 -1.2410 -0.7241  2.0369
  721SOL     OW 2161   2.291   3.013   2.078 -0.1253  0.0599  0.7118
  721SOL    HW1 2162   2.205   3.009   2.021 -0.3605  2.7784 -2.5695
  721SOL    HW2 2163   2.261   3.012   2.177 -1.2261 -0.5872 -0.7660
  722SOL     OW 2164   2.315   1.591   0.509  0.8259 -0.0665  0.7113
  722SOL    HW1 2165   2.380   1.547   0.443  1.9055  1.0371 -0.1314
  722SOL    HW2 2166   2.240   1.648   0.466 -0.3931  1.9200  2.6687
  723SOL     OW 2167   2.598   2.739   1.943 -0.1592 -0.2332  0.4016
  723SOL    HW1 2168   2.644   2.803   2.011 -1.2443  0.3967  0.8869
  723SOL    HW2 2169   2.499   2.721   1.960 -0.2538  0.2566 -0.3949
  724SOL     OW 2170   0.492   2.501   2.384 -0.0722  0.0138  0.1359
  724SOL    HW1 2171   0.395   2.477   2.412 -0.5313 -1.6981 -1.9203
  724SOL    HW2 2172   0.559   2.490   2.461  0.0988  1.7087 -0.8197
  725SOL     OW 2173   2.355   2.792   1.510  0.6431  0.6031  0.5386
  725SOL    HW1 2174   2.438   2.839   1.466  2.8498 -0.8308 -3.5333
  725SOL    HW2 2175   2.371   2.693   1.519 -1.0962 -1.5513 -0.7399
  726SOL     OW 2176   2.558   2.338   0.749 -0.3824 -0.3270 -0.3483
  726SOL    HW1 2177   2.488   2.415   0.718 -1.2397  1.5268 -2.8567
  726SOL    HW2 2178   2.555   2.266   0.678  2.2690  0.7896  0.9978
  727SOL     OW 2179   0.122   3.072   0.035 -0.2725  0.1897  0.1621
  727SOL    HW1 2180   0.199   3.025  -0.021 -0.3650  0.5346  0.6220
  727SOL    HW2 2181   0.029   3.032   0.015 -2.8515 -0.3843  0.7411
  728SOL     OW 2182   2.912   0.642   0.952 -0.0475 -0.1269 -0.2003
  728SOL    HW1 2183   2.828   0.652   0.892  0.9324 -2.2674  1.9494
  728SOL    HW2 2184   2.880   0.632   1.047  0.6367 -0.6330 -1.0744
  729SOL     OW 2185   3.043   2.511   0.743 -0.9783 -0.3497  1.0224
  729SOL    HW1 2186   2.991   2.423   0.759  0.3376  1.5199 -3.2617
  729SOL    HW2 2187   3.137   2.497   0.716 -0.8212 -1.6256  0.4979
  730SOL     OW 2188   2.636   0.699   0.870  0.2887  0.1234 -0.0293
  730SOL    HW1 2189   2.594   0.790   0.878  1.9367 -0.2173 -2.2682
  730SOL    HW2 2190   2.680   0.686   0.775  0.3256  1.2454  2.1492
  731SOL     OW 2191   0.030   2.100   2.439  0.4523  0.3249  0.7052
  731SOL    HW1 2192   0.052   2.165   2.516  0.6239  1.1183 -0.0550
  731SOL    HW2 2193  -0.025   2.148   2.367  1.0397  1.4051  1.2424
  732SOL     OW 2194   1.214   2.845   1.961 -0.6663  0.3996  0.0710
  732SOL    HW1 2195   1.202   2.798   2.052 -0.8613 -2.0396 -0.9163
  732SOL    HW2 2196   1.212   2.780   1.882  0.9101 -0.1938 -0.4249
  733SOL     OW 2197   3.042   0.588   2.226  0.3934 -0.5167 -0.3428
  733SOL    HW1 2198   3.141   0.621   2.209  2.7871  1.6992  0.1697
  733SOL    HW2 2199   2.999   0.534   2.153  2.4268  1.8202 -0.5047
  734SOL     OW 2200   1.420   0.391   2.692  0.3699 -0.1228  0.3098
  734SOL    HW1 2201   1.423   0.476   2.752 -1.5444 -0.4037 -0.8970
  734SOL    HW2 2202   1.344   0.326   2.729 -1.1396  1.4146  0.3870
  735SOL     OW 2203   2.890   2.645   2.298 -0.0914  0.3204 -0.1281
  735SOL    HW1 2204   2.862   2.574   2.229  2.4081  0.5130  2.3293
  735SOL    HW2 2205   2.979   2.695   2.283 -0.9481  1.7027  2.0693
  736SOL     OW 2206   0.857   0.342   2.582 -0.2124 -0.5021 -0.0440
  736SOL    HW1 2207   0.777   0.410   2.589 -2.7232  1.0389  3.6619
  736SOL    HW2 2208   0.860   0.295   2.487  1.9550 -1.0707 -0.8150
  737SOL     OW 2209   2.629   0.448   2.831  0.1777  0.4480  0.0519
  737SOL    HW1 2210   2.593   0.406   2.919 -0.5331 -1.2266 -0.7119
  737SOL    HW2 2211   2.732   0.469   2.832 -0.1982 -0.0778 -1.1411
  738SOL     OW 2212   1.656   1.233   2.890 -0.1720  0.3373 -0.1611
  738SOL    HW1 2213   1.759   1.221   2.898  1.9545 -0.4174  3.3593
  738SOL    HW2 2214   1.614   1.148   2.843 -2.5164 -2.0316 -0.1696
  739SOL     OW 2215   1.738   0.711   0.690 -0.4906 -0.0404 -0.3978
  739SOL    HW1 2216   1.814   0.714   0.759  0.2262 -0.1056 -2.6408
  739SOL    HW2 2217   1.735   0.620   0.642 -0.2034  3.9725 -0.3342
  740SOL     OW 2218   1.975   1.932   2.380 -0.0480  0.0897 -0.1108
  740SOL    HW1 2219   1.993   1.839   2.426 -0.6440  0.5651 -1.7636
  740SOL    HW2 2220   1.903   1.917   2.304 -1.8030 -2.6646 -2.1249
  741SOL     OW 2221   2.556   0.094   2.579  0.4137  0.0172 -0.2754
  741SOL    HW1 2222   2.659   0.108   2.588 -0.8062  1.3210  0.4571
  741SOL    HW2 2223   2.528   0.102   2.477  0.1619 -0.2261  0.1157
  742SOL     OW 2224   2.204   1.386   0.216 -0.6959 -0.0797  0.0971
  742SOL    HW1 2225   2.123   1.448   0.242  1.6551 -0.6651  0.0700
  742SOL    HW2 2226   2.204   1.283   0.248  1.4414  0.6045 -0.0828
  743SOL     OW 2227   1.790   0.628   2.570  0.0763  0.4738  0.2159
  743SOL    HW1 2228   1.793   0.568   2.481  1.7666 -3.5013 -1.5233
  743SOL    HW2 2229   1.707   0.700   2.565  0.6405 -0.4346 -2.8924
  744SOL     OW 2230   2.638   2.055   0.113 -0.1976 -0.3098  0.7594
  744SOL    HW1 2231   2.566   2.133   0.120  2.2090  0.0168 -1.8637
  744SOL    HW2 2232   2.596   1.969   0.138  2.4347  3.3301  1.6086
  745SOL     OW 2233   2.153   2.658   2.201 -0.8903 -0.0102  0.3741
  745SOL    HW1 2234   2.055   2.697   2.195 -2.3391  1.1625  1.9511
  745SOL    HW2 2235   2.182   2.652   2.302 -0.6827 -2.2783  1.9651
  746SOL     OW 2236   3.095   2.631   1.715  0.2335  0.2248  0.3006
  746SOL    HW1 2237   3.192   2.633   1.678 -0.5644 -0.9168 -0.3235
  746SOL    HW2 2238   3.074   2.711   1.782 -2.3041 -1.1111  2.0499
  747SOL     OW 2239   3.094   1.750   1.761  0.3339  0.4275 -0.0824
  747SOL    HW1 2240   3.035   1.673   1.725 -1.5720 -2.3929 -0.3596
  747SOL    HW2 2241   3.163   1.784   1.689  1.5964  0.1910  1.3102
  748SOL     OW 2242   1.824   2.715   2.878 -0.1150  0.0963 -0.4223
  748SOL    HW1 2243   1.841   2.790   2.950  0.6547 -1.1798 -0.9298
  748SOL    HW2 2244   1.726   2.695   2.857  1.9166 -1.2769  1.3250
  749SOL     OW 2245   1.371   3.007   0.861  0.5691  0.5764  0.8701
  749SOL    HW1 2246   1.275   2.994   0.821 -1.4548  0.1840 -2.5345
  749SOL    HW2 2247   1.448   2.958   0.801 -0.3810  1.0823  0.4572
  750SOL     OW 2248   2.303   0.204   1.840 -0.2597  0.6315  0.1420
  750SOL    HW1 2249   2.294   0.271   1.765  0.5161  1.3743  0.7751
  750SOL    HW2 2250   2.310   0.259   1.929  2.0246 -1.1133 -0.3796
  751SOL     OW 2251   0.848   2.061   2.810 -0.1891  0.1308  0.4105
  751SOL    HW1 2252   0.902   2.080   2.900 -0.0348  0.9189  1.5398
  751SOL    HW2 2253   0.749   2.089   2.819  0.1759  0.8882 -3.0983
  752SOL     OW 2254   1.322   0.835   1.245 -0.1927  0.9703 -0.1007
  752SOL    HW1 2255   1.392   0.911   1.253  0.5497  0.5952 -0.8094
  752SOL    HW2 2256   1.352   0.745   1.284  2.1526  2.2667 -0.9382
  753SOL     OW 2257   0.934   2.632   1.686 -0.1783 -0.1970 -0.7485
  753SOL    HW1 2258   1.036   2.662   1.689  0.0986  0.5828  0.9996
  753SOL    HW2 2259   0.872   2.700   1.733 -2.2265  2.2725 -0.7638
  754SOL     OW 2260   1.128   1.198   2.984 -0.1910  0.3951  0.0125
  754SOL    HW1 2261   1.194   1.144   2.923 -3.5885 -0.7520  0.1975
  754SOL    HW2 2262   1.166   1.289   3.018 -2.0235 -1.0467 -3.0625
  755SOL     OW 2263   2.014   0.468   2.222  0.1762 -0.3027 -0.4016
  755SOL    HW1 2264   2.083   0.388   2.215 -0.0325  0.2688 -1.0366
  755SOL    HW2 2265   1.932   0.450   2.283 -0.4918  2.7188 -0.2815
  756SOL     OW 2266   2.569   0.984   2.975 -0.4833  0.5541  0.0420
  756SOL    HW1 2267   2.673   0.975   2.982  2.5965  2.9993 -0.5564
  756SOL    HW2 2268   2.518   0.912   3.024 -1.1274  0.8228 -0.7833
  757SOL     OW 2269   0.110   0.496   1.970 -0.1945  0.3389 -0.4283
  757SOL    HW1 2270   0.165   0.430   1.912 -0.7642  2.0164  1.3485
  757SOL    HW2 2271   0.031   0.448   2.026 -1.0625  2.5019  1.4385
  758SOL     OW 2272   2.272   0.113   1.484  0.8607 -0.0043  0.1910
  758SOL    HW1 2273   2.240   0.014   1.502 -0.4935  1.8620 -0.2164
  758SOL    HW2 2274   2.321   0.129   1.394  0.9545  0.6472  2.2236
  759SOL     OW 2275   1.702   0.115   0.060  0.3653 -0.0583 -0.2305
  759SOL    HW1 2276   1.666   0.121  -0.039 -0.1563  1.4757 -1.9464
  759SOL    HW2 2277   1.803   0.140   0.065 -0.4003  1.5389  0.0263
  760SOL     OW 2278   2.659   2.054   2.822  0.9089 -0.1695  0.1002
  760SOL    HW1 2279   2.688   1.960   2.854  0.6304  0.0109 -1.7047
  760SOL    HW2 2280   2.667   2.127   2.897  1.2863 -0.6149  3.8783
  761SOL     OW 2281   1.855   1.759   1.689 -0.2080 -0.3505  0.2517
  761SOL    HW1 2282   1.877   1.661   1.709  0.4338 -0.1573 -1.7009
  761SOL    HW2 2283   1.806   1.758   1.600 -0.5615  0.6713  0.1021
  762SOL     OW 2284   0.511   2.333   0.949 -0.0483 -0.0153 -0.3292
  762SOL    HW1 2285   0.529   2.366   0.853 -0.4581 -2.3932  1.2399
  762SOL    HW2 2286   0.579   2.377   1.014  0.9064  0.3258  1.1318
  763SOL     OW 2287   2.078   1.584   2.983 -0.0526  0.4304  0.1262
  763SOL    HW1 2288   2.176   1.550   2.990  0.6206 -2.9963  0.1277
  763SOL    HW2 2289   2.013   1.544   3.052 -1.4391 -0.0008  0.6753
  764SOL     OW 2290   0.654   0.609   0.807  0.3557  0.5541  0.2673
  764SOL    HW1 2291   0.581   0.542   0.778 -1.1398  2.7624  1.5112
  764SOL    HW2 2292   0.721   0.560   0.871 -1.8294  0.4024 -1.1387
  765SOL     OW 2293   0.735   0.219   0.772 -0.2625 -0.5253 -0.2970
  765SOL    HW1 2294   0.801   0.261   0.702  3.6505  1.3878 -0.5023
  765SOL    HW2 2295   0.715   0.281   0.855  1.3220  0.2033 -3.0371
  766SOL     OW 2296   2.848   2.103   3.075 -0.0335  0.2449  0.0861
  766SOL    HW1 2297   2.763   2.081   3.134  1.2415  0.4787  0.7990
  766SOL    HW2 2298   2.890   2.191   3.098 -3.3928 -0.6986  0.1012
  767SOL     OW 2299   2.783   1.653   0.600 -0.3713 -0.4819 -0.2791
  767SOL    HW1 2300   2.697   1.667   0.661 -0.2944 -1.6271  1.5192
  767SOL    HW2 2301   2.853   1.724   0.628  1.6384  2.3443  1.8603
  768SOL     OW 2302   0.958   0.058   0.237  0.7071 -0.0271  0.0607
  768SOL    HW1 2303   0.940   0.079   0.340  1.0917 -1.7748  3.4018
  768SOL    HW2 2304   1.041   0.110   0.208 -1.0714  0.4057  3.1749
  769SOL     OW 2305   1.100   1.936   2.309 -0.6749  0.6502 -0.3027
  769SOL    HW1 2306   1.009   1.971   2.335  0.1161 -1.2228  0.3053
  769SOL    HW2 2307   1.140   1.877   2.387 -0.3290  1.3192  1.2884
  770SOL     OW 2308   0.181   1.196   2.278  0.0689 -0.3857  0.0623
  770SOL    HW1 2309   0.170   1.243   2.370  0.0870 -2.1740 -1.1300
  770SOL    HW2 2310   0.089   1.195   2.228 -0.9075  2.4868 -1.1490
  771SOL     OW 2311   3.007   2.850   1.867 -0.4562 -0.0512 -0.2139
  771SOL    HW1 2312   2.962   2.886   1.781 -0.2936 -1.4844  1.3773
  771SOL    HW2 2313   2.983   2.909   1.948 -0.7203 -2.1571  1.5509
  772SOL     OW 2314   2.228   0.141   2.941 -0.2260  0.6684  0.3098
  772SOL    HW1 2315   2.291   0.096   2.867 -2.8985 -1.3686  0.0602
  772SOL    HW2 2316   2.272   0.201   3.009 -1.8401 -0.2917 -0.1209
  773SOL     OW 2317   0.713   2.133   2.450  0.5289 -0.3847  0.3436
  773SOL    HW1 2318   0.650   2.148   2.371  0.6993  1.1353  2.7668
  773SOL    HW2 2319   0.672   2.189   2.532 -2.9582  1.0749 -1.1623
  774SOL     OW 2320   2.043   0.010   2.593 -0.7005  0.4252  0.1201
  774SOL    HW1 2321   2.040   0.106   2.648 -2.5019  2.1683  0.2967
  774SOL    HW2 2322   2.064  -0.071   2.654  0.1045 -0.9750 -1.1586
  775SOL     OW 2323   2.541   2.921   2.337  0.2946 -0.0237  0.6579
  775SOL    HW1 2324   2.521   3.020   2.311  0.8791 -0.6803  1.6435
  775SOL    HW2 2325   2.609   2.913   2.415 -2.8910 -2.3076 -0.2162
  776SOL     OW 2326   0.045   1.238   0.226 -0.2966 -0.1992 -0.3506
  776SOL    HW1 2327  -0.011   1.172   0.171  1.3034  2.1507 -2.4057
  776SOL    HW2 2328   0.025   1.244   0.327  0.5609 -0.7395  2.0289
  777SOL     OW 2329   0.346   2.799   0.355 -0.8710  0.1601  0.0678
  777SOL    HW1 2330   0.255   2.847   0.353 -1.7592  2.8798 -1.4798
  777SOL    HW2 2331   0.428   2.848   0.311  1.9294  1.4088  0.6594
  778SOL     OW 2332   1.352   1.960   0.162 -0.0804  0.0512  0.1813
  778SOL    HW1 2333   1.287   1.998   0.238  1.9167 -2.1940  1.7679
  778SOL    HW2 2334   1.395   2.036   0.108  2.2753 -0.2582  1.3244
  779SOL     OW 2335   0.183   0.854   0.487 -0.4125  0.1639 -0.6439
  779SOL    HW1 2336   0.137   0.760   0.494  0.3142 -1.0300  2.3279
  779SOL    HW2 2337   0.123   0.923   0.529  1.9053 -3.0702  1.7031
  780SOL     OW 2338   0.067   0.230   2.384  0.4894 -0.0942 -0.5366
  780SOL    HW1 2339   0.021   0.312   2.422 -0.9654 -2.5868  1.1823
  780SOL    HW2 2340   0.167   0.249   2.364  0.4907  2.1058  0.5449
  781SOL     OW 2341   0.656   1.665   1.524  0.3375  0.1526  0.2752
  781SOL    HW1 2342   0.741   1.607   1.537 -1.0501 -0.9383  0.4323
  781SOL    HW2 2343   0.574   1.617   1.567 -0.8877 -1.3340  2.2087
  782SOL     OW 2344   2.582   0.066   0.939  0.6125 -0.2887 -0.1568
  782SOL    HW1 2345   2.541   0.088   0.843 -0.8264  2.5161  1.7975
  782SOL    HW2 2346   2.598   0.152   0.986 -0.2915  0.7899  0.6145
  783SOL     OW 2347   2.829   0.713   2.519  0.4149  0.4674  0.3866
  783SOL    HW1 2348   2.804   0.768   2.605  2.7594 -0.5449 -1.7469
  783SOL    HW2 2349   2.770   0.630   2.503  2.6346  0.8060  0.9539
  784SOL     OW 2350   1.441   2.207   0.061 -0.6432 -0.4741  0.5552
  784SOL    HW1 2351   1.514   2.278   0.100  1.1186  0.1723  2.4838
  784SOL    HW2 2352   1.420   2.227  -0.036  0.0450  1.9356  1.2160
  785SOL     OW 2353   2.136   0.336   0.089 -0.1900  0.2348 -0.1202
  785SOL    HW1 2354   2.071   0.346   0.165  3.0047 -1.2435 -2.6343
  785SOL    HW2 2355   2.137   0.421   0.028 -1.6207  0.6956  1.9306
  786SOL     OW 2356   2.049   2.202   2.240  0.0095 -0.2271 -0.4300
  786SOL    HW1 2357   2.025   2.100   2.264 -3.0421 -2.0378  1.9371
  786SOL    HW2 2358   2.155   2.220   2.222 -0.1321  2.0253  1.6472
  787SOL     OW 2359   1.360   0.502   0.970  0.2685  0.3202 -0.1586
  787SOL    HW1 2360   1.298   0.583   0.992  2.8705  1.8457 -0.0338
  787SOL    HW2 2361   1.388   0.493   0.865  1.6057 -0.9350 -0.1908
  788SOL     OW 2362   1.291   0.424   0.064  0.7060 -0.3854 -0.4372
  788SOL    HW1 2363   1.202   0.404   0.013  1.2857  1.2543  0.2097
  788SOL    HW2 2364   1.261   0.453   0.156 -1.3386 -2.5684 -0.9350
  789SOL     OW 2365   2.558   0.086   1.948  0.2071  0.1317 -0.1710
  789SOL    HW1 2366   2.460   0.110   1.926  2.7140  1.8608  0.0634
  789SOL    HW2 2367   2.596  -0.000   1.901  3.4198 -3.1987 -2.3911
  790SOL     OW 2368   2.672   2.743   0.829  0.1828  0.2305  0.0811
  790SOL    HW1 2369   2.709   2.785   0.737 -0.0015  2.8354 -1.2333
  790SOL    HW2 2370   2.676   2.803   0.912  0.7165  0.1344 -1.5831
  791SOL     OW 2371   1.920   1.201   0.204 -0.5246  0.1361  0.0438
  791SOL    HW1 2372   1.825   1.169   0.231  0.9942  1.5977  2.4075
  791SOL    HW2 2373   1.999   1.154   0.247  2.3530  0.6128 -0.2535
  792SOL     OW 2374   0.429   1.859   2.191 -0.4403  1.1365  0.0644
  792SOL    HW1 2375   0.525   1.829   2.216  0.3563  0.8023  1.2708
  792SOL    HW2 2376   0.365   1.852   2.268  0.1977  1.2516  1.0291
  793SOL     OW 2377   2.082   1.546   2.115  0.0858  0.3647  0.0195
  793SOL    HW1 2378   2.157   1.606   2.083 -3.4487 -1.2984 -1.1933
  793SOL    HW2 2379   2.105   1.446   2.106  1.5625  1.4811 -0.5010
  794SOL     OW 2380   0.511   1.371   2.371 -0.3464 -0.1960  0.1041
  794SOL    HW1 2381   0.481   1.350   2.272  1.2850  0.2319  1.1824
  794SOL    HW2 2382   0.484   1.468   2.399  2.0464 -2.2277  1.5411
  795SOL     OW 2383   2.504   2.251   1.868  0.0742  0.0435  0.5357
  795SOL    HW1 2384   2.501   2.207   1.963 -1.0776  0.8875  0.3915
  795SOL    HW2 2385   2.450   2.197   1.796 -0.1206 -1.0146  1.2845
  796SOL     OW 2386   3.049   1.134   2.696 -0.4322  0.1011 -0.2071
  796SOL    HW1 2387   2.952   1.147   2.719  0.6539 -0.3152  0.7212
  796SOL    HW2 2388   3.107   1.132   2.779  0.1027 -0.0188 -4.5611
  797SOL     OW 2389   0.766   0.641   1.386  0.4756  0.1491 -0.2173
  797SOL    HW1 2390   0.851   0.677   1.431 -0.1210  1.4219 -0.6580
  797SOL    HW2 2391   0.703   0.714   1.348 -0.9747 -2.3212 -1.4368
  798SOL     OW 2392   1.307   0.294   1.162  0.4805  0.0716 -0.3000
  798SOL    HW1 2393   1.334   0.308   1.264 -3.1912 -1.2618 -1.8260
  798SOL    HW2 2394   1.347   0.364   1.101  0.7981 -0.6934  2.9055
  799SOL     OW 2395   1.931   2.739   1.033 -0.7867 -0.1997  0.1844
  799SOL    HW1 2396   1.933   2.676   1.118 -2.3138  1.3701 -0.6219
  799SOL    HW2 2397   1.887   2.695   0.952  0.5570  1.0689 -1.7508
  800SOL     OW 2398   2.999   0.676   1.849 -0.5564  0.4605  0.4686
  800SOL    HW1 2399   2.973   0.763   1.902  0.2236  2.3730 -1.0244
  800SOL    HW2 2400   3.073   0.620   1.897 -0.4213  0.0597 -2.7614
  801SOL     OW 2401   1.958   2.240   0.103 -0.4026 -0.1596  0.0145
  801SOL    HW1 2402   1.873   2.195   0.063 -2.2860 -1.3117  2.7603
  801SOL    HW2 2403   2.045   2.200   0.072 -0.8260 -1.3548  4.0208
  802SOL     OW 2404   0.694   0.827   2.570 -0.6186 -0.5615  0.3716
  802SOL    HW1 2405   0.751   0.775   2.500 -0.8012 -2.1618 -1.1900
  802SOL    HW2 2406   0.596   0.843   2.539  1.7734 -0.5552  0.0278
  803SOL     OW 2407   0.940   0.041   0.832  0.0572  0.5132 -0.8378
  803SOL    HW1 2408   1.024   0.099   0.859 -1.2470 -1.6788  0.2752
  803SOL    HW2 2409   0.853   0.092   0.806 -1.4297 -1.3675  1.3070
  804SOL     OW 2410   0.306   0.044   2.130  0.2136 -0.1514 -0.1160
  804SOL    HW1 2411   0.327   0.137   2.173  1.0771  0.4743  0.3247
  804SOL    HW2 2412   0.265   0.058   2.036  1.4555  1.0277 -0.8992
  805SOL     OW 2413   2.383   0.320   0.360 -0.2469  0.5515 -0.2285
  805SOL    HW1 2414   2.477   0.337   0.404 -0.1637  1.2487  0.7962
  805SOL    HW2 2415   2.389   0.300   0.257 -0.5864  0.8024 -0.0329
  806SOL     OW 2416   0.612   2.456   1.768  0.0655  0.2454  0.6651
  806SOL    HW1 2417   0.613   2.559   1.769  1.8503 -1.0342 -1.6627
  806SOL    HW2 2418   0.677   2.417   1.698 -0.6420 -1.4629  0.7666
  807SOL     OW 2419   2.484   0.848   0.379  0.4274 -0.3460 -0.3566
  807SOL    HW1 2420   2.554   0.877   0.450  0.1084  1.1453  2.0885
  807SOL    HW2 2421   2.477   0.915   0.298 -2.7213 -3.1451 -1.1898
  808SOL     OW 2422   0.559   2.069   2.913  0.5100  0.4062 -0.1386
  808SOL    HW1 2423   0.539   2.140   2.982  0.2864 -0.4392 -1.2725
  808SOL    HW2 2424   0.558   1.973   2.950  0.6196  0.8508 -1.4092
  809SOL     OW 2425   2.689   1.978   1.914 -0.0126  0.4575  0.0857
  809SOL    HW1 2426   2.784   2.009   1.939 -0.3649  1.5306 -2.3459
  809SOL    HW2 2427   2.658   2.022   1.825  1.6076  0.1824 -1.2305
  810SOL     OW 2428   2.081   1.035   0.530  0.0384 -0.3449 -0.3619
  810SOL    HW1 2429   2.118   0.959   0.590  0.0730 -0.7961  1.8997
  810SOL    HW2 2430   2.050   1.122   0.582  2.3859  0.2477 -0.6474
  811SOL     OW 2431   1.342   2.509   1.217 -0.1183  0.0585 -0.6556
  811SOL    HW1 2432   1.321   2.409   1.190 -0.3452 -1.4268 -0.9158
  811SOL    HW2 2433   1.258   2.562   1.236 -0.1645 -2.1909  0.2263
  812SOL     OW 2434   1.427   0.781   1.971 -0.0661 -0.9576  0.1889
  812SOL    HW1 2435   1.501   0.848   2.002 -2.0369 -1.6837 -3.3063
  812SOL    HW2 2436   1.334   0.821   1.953  3.8149 -1.7751  0.6330
  813SOL     OW 2437   1.721   2.037   2.501 -0.1944 -0.0171 -0.1883
  813SOL    HW1 2438   1.764   1.944   2.516 -0.4668 -3.3441  1.5392
  813SOL    HW2 2439   1.691   2.057   2.400 -1.7132 -0.2435 -2.4095
  814SOL     OW 2440   2.919   1.525   2.856 -0.0531 -0.4051  0.2724
  814SOL    HW1 2441   3.004   1.484   2.901 -1.4384 -1.7692 -0.2618
  814SOL    HW2 2442   2.942   1.605   2.793 -0.0284 -1.7563  0.2623
  815SOL     OW 2443   2.139   2.917   2.781 -0.3641 -0.1044  0.2007
  815SOL    HW1 2444   2.124   2.884   2.881  1.3210 -3.2749 -0.6184
  815SOL    HW2 2445   2.209   2.989   2.772 -0.2346 -1.3135 -3.7725
  816SOL     OW 2446   1.654   0.324   1.616 -0.1856  0.4577 -0.4952
  816SOL    HW1 2447   1.714   0.244   1.651  1.3298 -0.8167  1.9457
  816SOL    HW2 2448   1.576   0.339   1.681  1.9055  1.2319 -0.4566
  817SOL     OW 2449   0.398   1.210   2.557 -0.4880 -0.3990 -0.0356
  817SOL    HW1 2450   0.305   1.250   2.585  0.3089 -1.6049  1.1950
  817SOL    HW2 2451   0.453   1.271   2.493  1.4942 -3.1316 -0.5822
  818SOL     OW 2452   1.911   0.855   0.448 -0.1516  0.5841  0.0897
  818SOL    HW1 2453   1.978   0.931   0.487  1.3898  1.8637 -0.7646
  818SOL    HW2 2454   1.826   0.847   0.504 -1.4466  0.3917 -2.5532
  819SOL     OW 2455   2.726   2.977   2.999 -0.3748 -0.0591 -0.2040
  819SOL    HW1 2456   2.806   2.910   2.979 -0.9131 -1.3592 -0.6528
  819SOL    HW2 2457   2.651   2.976   2.923  2.5708 -0.8125 -1.2156
  820SOL     OW 2458   1.269   1.089   0.688  0.3431 -0.6471 -0.4299
  820SOL    HW1 2459   1.233   1.190   0.711  0.1751  1.4649  1.5166
  820SOL    HW2 2460   1.233   1.015   0.749 -0.0382  2.2123 -2.0666
  821SOL     OW 2461   3.080   1.315   0.678  0.3721 -0.0149 -0.0579
  821SOL    HW1 2462   3.036   1.321   0.776 -1.8447  0.1313  0.6180
  821SOL    HW2 2463   3.149   1.394   0.669 -2.0571 -1.2723  1.2022
  822SOL     OW 2464   2.577   1.725   2.444  0.0417 -0.4380 -0.3050
  822SOL    HW1 2465   2.573   1.795   2.520 -1.5512 -0.9749  0.0546
  822SOL    HW2 2466   2.489   1.727   2.385 -1.7398  1.0535 -2.2772
  823SOL     OW 2467   2.107   0.894   1.221 -0.2873  0.0433  0.1564
  823SOL    HW1 2468   2.064   0.915   1.312  3.7804  0.4356 -1.2332
  823SOL    HW2 2469   2.081   0.961   1.143 -0.5877  1.0830  0.2300
  824SOL     OW 2470   0.225   2.064   2.784  0.3552 -0.3625  0.0287
  824SOL    HW1 2471   0.186   1.979   2.832  0.2675 -1.6262  0.0828
  824SOL    HW2 2472   0.323   2.044   2.742  1.7576 -2.1497 -1.8134
  825SOL     OW 2473   1.296   1.101   0.261 -0.1077  0.7938  0.3012
  825SOL    HW1 2474   1.347   1.186   0.280 -1.4977  0.9185 -0.1040
  825SOL    HW2 2475   1.204   1.100   0.304  3.3920 -1.6578  0.3049
  826SOL     OW 2476   1.892   0.708   1.630  0.1804  0.3090  0.4291
  826SOL    HW1 2477   1.983   0.658   1.630  0.0082 -0.0652 -0.1847
  826SOL    HW2 2478   1.821   0.647   1.587  1.7729 -0.9633 -0.7675
  827SOL     OW 2479   0.684   1.217   0.240  0.5919 -1.5097 -0.7313
  827SOL    HW1 2480   0.769   1.184   0.188  0.3372 -1.3531 -1.7927
  827SOL    HW2 2481   0.597   1.154   0.234 -4.0348  1.2514  0.5639
  828SOL     OW 2482   2.540   0.091   1.592  0.6891  0.3329 -0.4533
  828SOL    HW1 2483   2.443   0.109   1.557  0.4772  0.3923 -0.1441
  828SOL    HW2 2484   2.535   0.030   1.674  1.9571  0.3635 -0.2584
  829SOL     OW 2485   2.764   2.483   3.023 -0.5752  0.6864  0.5417
  829SOL    HW1 2486   2.683   2.419   3.012 -0.4813  2.0171  0.4909
  829SOL    HW2 2487   2.740   2.564   3.085  1.3682 -0.8291  2.5451
  830SOL     OW 2488   2.856   0.959   2.980 -0.5460 -0.7076 -0.3159
  830SOL    HW1 2489   2.904   1.052   3.003  1.3002  0.0771 -0.6281
  830SOL    HW2 2490   2.875   0.884   3.056 -0.7994 -1.1332  1.6691
  831SOL     OW 2491   0.043   0.628   0.409 -0.8482  0.5572 -0.2503
  831SOL    HW1 2492   0.041   0.549   0.479 -0.4202  0.0388  2.0481
  831SOL    HW2 2493   0.105   0.599   0.328 -0.4564 -1.2486  0.1652
  832SOL     OW 2494   1.784   0.743   2.996  0.1746 -0.0716 -0.1544
  832SOL    HW1 2495   1.689   0.777   2.967  0.7855 -1.5695  1.1575
  832SOL    HW2 2496   1.791   0.640   3.001 -0.4414  1.0812 -1.0262
  833SOL     OW 2497   2.464   2.166   0.546  0.5254 -0.1577  0.4944
  833SOL    HW1 2498   2.366   2.199   0.525  2.1660  1.9946 -0.4817
  833SOL    HW2 2499   2.476   2.064   0.519  1.2487 -1.1821 -3.7725
  834SOL     OW 2500   0.204   0.214   0.548  0.2178 -0.3492 -0.3503
  834SOL    HW1 2501   0.222   0.124   0.587  2.1387 -0.0910 -3.8060
  834SOL    HW2 2502   0.151   0.218   0.457 -3.0740  3.5854 -1.0868
  835SOL     OW 2503   2.364   1.546   1.111 -0.8207  0.3159 -0.0968
  835SOL    HW1 2504   2.358   1.615   1.183 -0.8835 -0.6278 -1.1739
  835SOL    HW2 2505   2.442   1.551   1.040 -1.9669  0.1425 -0.1912
  836SOL     OW 2506   1.595   0.829   2.561  0.2164  0.2327  0.5254
  836SOL    HW1 2507   1.493   0.830   2.580 -1.6946 -1.9659 -0.1713
  836SOL    HW2 2508   1.620   0.841   2.462 -0.1432  2.1613 -1.5902
  837SOL     OW 2509   1.708   0.116   0.552  0.1039 -0.0346 -0.1524
  837SOL    HW1 2510   1.655   0.180   0.621 -0.4165  2.6089  1.2832
  837SOL    HW2 2511   1.676   0.129   0.455  0.2089 -0.6772  0.9904
  838SOL     OW 2512   1.198   1.552   2.803 -0.2577 -0.0028 -0.0176
  838SOL    HW1 2513   1.184   1.537   2.906  1.6925  0.6504  0.0486
  838SOL    HW2 2514   1.135   1.494   2.743  0.1015 -0.6394 -0.5253
  839SOL     OW 2515   1.677   0.315   1.015  0.4578  0.3323  0.1948
  839SOL    HW1 2516   1.711   0.349   1.110  1.7097 -0.6548  0.7694
  839SOL    HW2 2517   1.626   0.223   1.025 -1.0169 -0.3211  1.9463
  840SOL     OW 2518   2.505   2.972   1.745 -0.2346  0.2628  0.0224
  840SOL    HW1 2519   2.425   2.935   1.697  0.1206  0.4228 -2.2889
  840SOL    HW2 2520   2.561   2.893   1.789  1.1612  0.4050  0.8681
  841SOL     OW 2521   1.535   0.833   2.957  0.5419 -0.4141  0.1343
  841SOL    HW1 2522   1.452   0.851   3.011 -0.2387  2.1511  0.1336
  841SOL    HW2 2523   1.564   0.915   2.898 -0.0467  2.2490 -4.3705
  842SOL     OW 2524   0.815   1.553   0.945 -0.3343 -0.1363 -0.1274
  842SOL    HW1 2525   0.802   1.652   0.964  0.3461 -1.4149 -0.8059
  842SOL    HW2 2526   0.729   1.496   0.946  0.7483 -2.6463  3.3464
  843SOL     OW 2527   0.066   0.040   1.389 -0.1989 -0.3750 -0.8084
  843SOL    HW1 2528   0.145   0.100   1.421  0.6020 -1.3458 -0.7760
  843SOL    HW2 2529   0.064  -0.062   1.422 -2.3602  1.2414 -0.4470
  844SOL     OW 2530   0.825   2.514   0.270 -0.0343  0.6800  0.4529
  844SOL    HW1 2531   0.772   2.482   0.356  1.6082 -3.6062  0.8295
  844SOL    HW2 2532   0.776   2.582   0.206 -0.2544  0.8666 -2.7073
  845SOL     OW 2533   1.624   2.890   1.375  0.4167 -0.4141  0.0040
  845SOL    HW1 2534   1.653   2.952   1.453 -0.9779  2.2066 -1.0340
  845SOL    HW2 2535   1.550   2.820   1.406 -2.1983  3.0038 -0.0265
  846SOL     OW 2536   1.565   2.902   0.683  0.2261 -0.2453 -0.3684
  846SOL    HW1 2537   1.607   2.850   0.606  1.2668 -0.9951  0.9237
  846SOL    HW2 2538   1.616   2.906   0.771 -1.2402  2.9437 -1.4785
  847SOL     OW 2539   2.069   1.636   0.319 -0.2801  0.5995 -0.5509
  847SOL    HW1 2540   2.038   1.561   0.382  0.7152 -0.6269  0.9754
  847SOL    HW2 2541   1.993   1.676   0.266  5.1747 -0.4603  0.2258
  848SOL     OW 2542   2.437   0.876   2.582 -0.2087 -0.0639  0.0144
  848SOL    HW1 2543   2.385   0.966   2.591  1.7188 -0.2206  1.0100
  848SOL    HW2 2544   2.368   0.797   2.594  0.7711  0.3892  2.2885
  849SOL     OW 2545   2.594   0.826   2.361 -0.0611 -0.5138 -0.1847
  849SOL    HW1 2546   2.686   0.780   2.375 -0.8805  1.6189 -0.7793
  849SOL    HW2 2547   2.536   0.839   2.446 -1.1562 -1.0217 -0.0627
  850SOL     OW 2548   1.557   0.102   1.330  0.1158 -0.5414  0.0958
  850SOL    HW1 2549   1.534   0.105   1.227  0.9781  1.2796  1.2013
  850SOL    HW2 2550   1.492   0.029   1.365  0.5891  2.2566  3.1135
  851SOL     OW 2551   0.477   1.817   0.589 -0.2034 -0.3528  0.1380
  851SOL    HW1 2552   0.504   1.905   0.634 -2.7798  0.1503  0.0875
  851SOL    HW2 2553   0.517   1.804   0.493  1.6242  0.6926 -0.6678
  852SOL     OW 2554   0.800   2.111   1.647 -0.1125 -0.2589  0.2309
  852SOL    HW1 2555   0.802   2.205   1.611 -2.7550 -0.6142  0.8064
  852SOL    HW2 2556   0.738   2.105   1.729 -0.2518  2.9227  2.3056
  853SOL     OW 2557   2.537   1.481   2.608  0.9516 -0.1469 -0.0965
  853SOL    HW1 2558   2.483   1.406   2.551 -1.9777 -1.4198  0.9337
  853SOL    HW2 2559   2.571   1.561   2.548  0.6839  2.2343  1.0876
  854SOL     OW 2560   2.375   1.423   1.734 -0.2693  0.3727  0.3144
  854SOL    HW1 2561   2.405   1.374   1.643  2.4630 -0.2234 -0.4937
  854SOL    HW2 2562   2.333   1.352   1.795  2.2697 -0.7826 -0.7169
  855SOL     OW 2563   2.021   2.434   0.982 -0.1856  0.0177  0.1060
  855SOL    HW1 2564   2.039   2.522   0.930 -0.2202  3.2531  1.3344
  855SOL    HW2 2565   2.081   2.411   1.066  0.8510  3.3808  1.4155
  856SOL     OW 2566   1.328   1.489   0.941  0.3978  0.1045 -0.2948
  856SOL    HW1 2567   1.389   1.573   0.960  3.1712  1.8684  0.5450
  856SOL    HW2 2568   1.231   1.502   0.975  1.7863  1.1911 -1.0272
  857SOL     OW 2569   3.088   2.690   0.962 -0.0476  0.0413  0.7825
  857SOL    HW1 2570   3.036   2.610   0.919 -2.3083 -2.9657  1.2257
  857SOL    HW2 2571   3.170   2.720   0.902 -1.1406 -0.4274  1.2146
  858SOL     OW 2572   2.345   2.084   1.691 -0.0339 -0.5182  0.0301
  858SOL    HW1 2573   2.251   2.078   1.641 -1.5352 -1.8743  0.3267
  858SOL    HW2 2574   2.411   2.005   1.682  0.7863  1.4484  1.3963
  859SOL     OW 2575   2.476   0.537   1.013  0.1185  0.2994 -0.0947
  859SOL    HW1 2576   2.527   0.604   0.952 -1.0714  1.2502 -2.3544
  859SOL    HW2 2577   2.531   0.453   1.032 -0.9499 -1.0929 -0.6262
  860SOL     OW 2578   1.942   2.797   0.436 -0.8187  0.0936  0.2679
  860SOL    HW1 2579   1.915   2.765   0.340 -3.6382 -0.9227  2.8940
  860SOL    HW2 2580   2.045   2.834   0.433  3.7584 -0.0759  1.2492
  861SOL     OW 2581   1.022   2.430   2.886  0.7701 -0.0214 -0.0940
  861SOL    HW1 2582   1.083   2.497   2.840 -1.6573  0.9405  1.0282
  861SOL    HW2 2583   1.064   2.392   2.972  1.0481  2.9945 -0.5857
  862SOL     OW 2584   2.822   2.565   1.608 -0.5411  0.1340 -0.1371
  862SOL    HW1 2585   2.905   2.614   1.647 -1.2940  0.4826 -1.6770
  862SOL    HW2 2586   2.774   2.627   1.542  0.9155  0.4895 -0.0228
  863SOL     OW 2587   1.854   2.745   0.183 -0.0173  0.1368  0.2366
  863SOL    HW1 2588   1.891   2.648   0.178 -0.8840  1.7014 -2.1078
  863SOL    HW2 2589   1.752   2.744   0.161 -0.9508  0.0832  0.3402
  864SOL     OW 2590   1.915   1.193   2.854 -0.2135  0.0314  0.6060
  864SOL    HW1 2591   1.924   1.150   2.758  0.2394  1.5473  0.5562
  864SOL    HW2 2592   1.983   1.150   2.922 -0.6973 -3.0946  0.7983
  865SOL     OW 2593   2.203   1.852   0.634  0.3060 -0.6090  0.0129
  865SOL    HW1 2594   2.255   1.864   0.725 -0.3509  2.3281  0.9525
  865SOL    HW2 2595   2.115   1.802   0.644  0.4890 -0.8472 -0.6083
  866SOL     OW 2596   2.878   2.909   1.020  0.2449  0.0520  0.7443
  866SOL    HW1 2597   2.883   2.976   0.938 -1.0048  1.7542 -1.4330
  866SOL    HW2 2598   2.926   2.820   0.997 -0.1319 -1.0274 -1.3937
  867SOL     OW 2599   0.344   1.402   0.868 -0.3319 -1.0973 -0.0083
  867SOL    HW1 2600   0.357   1.325   0.804 -0.6343  0.5363 -3.1553
  867SOL    HW2 2601   0.347   1.497   0.819 -1.4970  0.0241  1.0289
  868SOL     OW 2602   0.784   1.900   2.012 -0.0761 -0.4624 -0.5339
  868SOL    HW1 2603   0.788   1.898   2.118  0.7657  2.1123 -0.5843
  868SOL    HW2 2604   0.747   1.988   1.974 -0.2572  0.2841  1.4458
  869SOL     OW 2605   2.558   1.912   1.656  0.4977 -0.1488 -0.4238
  869SOL    HW1 2606   2.623   1.982   1.614 -1.6618  0.9408 -2.5221
  869SOL    HW2 2607   2.601   1.820   1.665  2.2841 -1.9176  1.5679
  870SOL     OW 2608   2.230   2.667   1.238 -0.6382 -0.3310 -0.3179
  870SOL    HW1 2609   2.235   2.572   1.213  1.6592 -0.0145  1.1347
  870SOL    HW2 2610   2.243   2.678   1.340  1.5982 -0.0557  3.2261
  871SOL     OW 2611   3.052   2.209   0.527 -0.2965 -0.3768 -0.6241
  871SOL    HW1 2612   2.988   2.229   0.605  0.4150  2.8713  1.0187
  871SOL    HW2 2613   2.996   2.214   0.440 -2.5774  0.2828 -0.0121
  872SOL     OW 2614   2.121   0.534   1.703  0.2084 -0.2258 -0.2454
  872SOL    HW1 2615   2.072   0.522   1.794 -1.4665  0.5069 -0.6051
  872SOL    HW2 2616   2.221   0.499   1.698 -0.4860  1.9316  1.6597
  873SOL     OW 2617   1.690   2.129   3.062  0.3197  0.0996  0.2470
  873SOL    HW1 2618   1.601   2.155   3.108  1.7974 -0.3496  0.3059
  873SOL    HW2 2619   1.684   2.116   2.956 -1.4007  0.5668  0.7952
  874SOL     OW 2620   0.675   2.464   0.758  0.2410  0.1372  0.0537
  874SOL    HW1 2621   0.688   2.556   0.808 -0.0399  1.9282  1.2051
  874SOL    HW2 2622   0.764   2.413   0.750 -1.8036  0.5623  0.6254
  875SOL     OW 2623   2.344   1.478   1.402 -0.2494 -0.0972  0.1685
  875SOL    HW1 2624   2.437   1.535   1.415  4.4150 -1.6153 -0.4927
  875SOL    HW2 2625   2.317   1.466   1.305 -0.9470 -0.2468 -0.9456
  876SOL     OW 2626   0.047   2.265   2.739  0.2105 -0.1491  0.4672
  876SOL    HW1 2627   0.112   2.189   2.749  1.3001  0.9072  1.3161
  876SOL    HW2 2628   0.089   2.356   2.762  1.5284 -0.4174  0.5359
  877SOL     OW 2629   2.905   2.683   0.554 -0.2435 -0.5619  0.1874
  877SOL    HW1 2630   2.884   2.779   0.595  0.2082  1.2809  0.0107
  877SOL    HW2 2631   2.956   2.622   0.626 -2.0130 -1.4242  0.6121
  878SOL     OW 2632   2.796   1.489   2.254 -0.4120  0.0456  0.4460
  878SOL    HW1 2633   2.746   1.566   2.213  0.6464 -2.5099  1.5235
  878SOL    HW2 2634   2.807   1.497   2.357  0.0217 -1.6273  0.1794
  879SOL     OW 2635   2.412   0.126   1.247 -0.5387 -0.0886 -0.0683
  879SOL    HW1 2636   2.469   0.044   1.285  1.3397  1.1010  1.1344
  879SOL    HW2 2637   2.351   0.099   1.168 -0.9435 -2.6822  2.1459
  880SOL     OW 2638   0.768   0.474   2.226 -0.1334  0.0916  0.1900
  880SOL    HW1 2639   0.701   0.455   2.307  0.3370 -0.9589  0.4799
  880SOL    HW2 2640   0.783   0.390   2.167 -2.9480  1.2385 -0.4271
  881SOL     OW 2641   0.898   0.038   0.512  0.1344 -0.1406  0.8740
  881SOL    HW1 2642   0.938  -0.055   0.518  2.8802 -0.1122 -2.1521
  881SOL    HW2 2643   0.794   0.038   0.506  0.1340  2.2668 -0.9199
  882SOL     OW 2644   2.707   1.675   1.680 -0.1239  0.2450  0.1287
  882SOL    HW1 2645   2.795   1.636   1.649 -1.2693 -1.2764  1.5033
  882SOL    HW2 2646   2.706   1.663   1.784  0.8908 -1.3295 -0.6938
  883SOL     OW 2647   0.898   0.505   0.923  0.1676 -0.0070  0.1829
  883SOL    HW1 2648   0.931   0.600   0.954 -0.8764  1.5292  2.0185
  883SOL    HW2 2649   0.915   0.433   0.992 -0.5495  0.2090  0.2349
  884SOL     OW 2650   1.155   1.730   1.191  0.4372 -0.2125  0.1551
  884SOL    HW1 2651   1.119   1.655   1.120 -0.8596  0.4846  2.1055
  884SOL    HW2 2652   1.145   1.825   1.148 -1.0774  1.1931  1.5580
  885SOL     OW 2653   2.326   1.775   2.300 -0.2506  0.0223 -0.3031
  885SOL    HW1 2654   2.246   1.750   2.357 -0.4556 -2.5080 -1.6169
  885SOL    HW2 2655   2.330   1.871   2.260  4.4410  0.6928 -1.5776
  886SOL     OW 2656   2.597   0.341   1.792  0.3123  0.3893  0.1124
  886SOL    HW1 2657   2.595   0.285   1.881  1.0764 -1.3237  0.4335
  886SOL    HW2 2658   2.685   0.389   1.781 -0.7248  0.2374 -1.3641
  887SOL     OW 2659   0.107   1.948   1.347 -0.0846  0.4740  0.2648
  887SOL    HW1 2660   0.023   1.907   1.302  2.2770 -1.8804 -2.2139
  887SOL    HW2 2661   0.139   2.038   1.303 -0.0029  0.0844 -1.1805
  888SOL     OW 2662   0.552   1.213   1.548  0.3613  0.0424  0.6008
  888SOL    HW1 2663   0.575   1.263   1.458  0.5820 -1.4291 -1.9601
  888SOL    HW2 2664   0.532   1.115   1.535 -0.0754 -0.8728  1.3604
  889SOL     OW 2665   0.815   2.491   2.185  0.2947 -0.2048  0.5411
  889SOL    HW1 2666   0.761   2.406   2.220 -0.3164 -1.1485  4.3351
  889SOL    HW2 2667   0.856   2.481   2.090 -0.1659 -1.5083 -2.9776
  890SOL     OW 2668   2.417   2.445   0.245  0.1864 -0.8964 -0.5348
  890SOL    HW1 2669   2.381   2.491   0.161  1.4267  0.7239  0.1043
  890SOL    HW2 2670   2.366   2.481   0.329  1.6058 -3.6821  1.7548
  891SOL     OW 2671   2.521   1.719   0.679 -0.0868  0.0793  0.2452
  891SOL    HW1 2672   2.520   1.715   0.783 -0.8073  0.0209 -2.5431
  891SOL    HW2 2673   2.430   1.678   0.648  1.4643  1.5246  0.8812
  892SOL     OW 2674   0.368   0.282   2.274 -0.2243  0.4634 -0.6873
  892SOL    HW1 2675   0.346   0.366   2.219 -0.4123  0.4833 -2.0904
  892SOL    HW2 2676   0.453   0.298   2.333  1.3458  0.5429 -0.8107
  893SOL     OW 2677   1.668   0.251   2.707  0.2774  0.2120  0.1962
  893SOL    HW1 2678   1.748   0.320   2.721 -0.8153  1.8229  2.3655
  893SOL    HW2 2679   1.578   0.298   2.689  1.6475  3.2926  1.1176
  894SOL     OW 2680   2.174   2.040   0.035 -0.1030  0.0867 -0.0419
  894SOL    HW1 2681   2.140   1.999  -0.050 -1.2551  0.1656  0.7378
  894SOL    HW2 2682   2.204   1.965   0.100  1.4468 -1.2091  0.1325
  895SOL     OW 2683   2.808   1.453   0.928 -0.0327  0.1575  0.7443
  895SOL    HW1 2684   2.888   1.390   0.955 -2.6147 -1.6077 -0.6168
  895SOL    HW2 2685   2.820   1.551   0.965  1.9220  2.9853  0.0357
  896SOL     OW 2686   1.702   1.809   1.196  0.2840  0.1390  0.0602
  896SOL    HW1 2687   1.757   1.754   1.127  0.0554 -0.1423  2.9411
  896SOL    HW2 2688   1.649   1.889   1.151 -0.6984 -1.6362 -2.9338
  897SOL     OW 2689   0.318   0.552   3.059  0.5534  0.6359 -0.1154
  897SOL    HW1 2690   0.265   0.586   2.978 -1.8622  0.0664 -0.5284
  897SOL    HW2 2691   0.409   0.601   3.073 -0.4475 -1.4340  0.2764
  898SOL     OW 2692   0.572   2.873   1.070 -0.3086  0.1318 -0.1455
  898SOL    HW1 2693   0.582   2.978   1.076  1.2632  2.2261 -0.5189
  898SOL    HW2 2694   0.653   2.827   1.122  1.3628 -1.2141  2.0710
  899SOL     OW 2695   2.829   0.892   1.316  0.4193  0.0782 -0.6086
  899SOL    HW1 2696   2.773   0.898   1.224 -1.1313  2.7305  0.2717
  899SOL    HW2 2697   2.932   0.912   1.308 -0.3714 -0.9877 -4.0756
  900SOL     OW 2698   0.970   2.523   2.437  0.0515  0.0010 -1.0581
  900SOL    HW1 2699   0.930   2.517   2.336 -0.9461  1.6802 -0.0717
  900SOL    HW2 2700   0.896   2.514   2.509 -3.3816  1.1337 -0.3043
  901SOL     OW 2701   1.903   2.351   1.363 -0.0312 -0.3288  0.2903
  901SOL    HW1 2702   1.879   2.298   1.278 -0.8753 -0.5848  1.5652
  901SOL    HW2 2703   2.004   2.340   1.389 -1.6040 -2.6813 -1.2365
  902SOL     OW 2704   2.559   1.632   1.424  0.7975  0.0630 -0.4621
  902SOL    HW1 2705   2.580   1.665   1.521 -0.1935  0.3144 -0.5234
  902SOL    HW2 2706   2.646   1.610   1.371  2.3843  0.0504  0.6603
  903SOL     OW 2707   0.233   2.475   1.958 -0.0062  0.2045  0.4506
  903SOL    HW1 2708   0.149   2.425   1.915  0.1615  1.0484  0.3229
  903SOL    HW2 2709   0.276   2.550   1.894  0.3128  0.2419 -0.9477
  904SOL     OW 2710   2.021   0.791   2.584  0.8350  0.1411 -0.4402
  904SOL    HW1 2711   1.937   0.730   2.598 -1.7070 -1.6423 -0.4221
  904SOL    HW2 2712   2.047   0.785   2.482 -1.8556 -2.0494 -0.8334
  905SOL     OW 2713   2.850   0.139   2.560 -0.1714 -0.1365  0.1195
  905SOL    HW1 2714   2.926   0.064   2.575 -0.1829 -0.2032  0.2851
  905SOL    HW2 2715   2.889   0.230   2.524 -2.0175  1.2863 -0.3774
  906SOL     OW 2716   0.222   1.701   1.933  0.3107 -0.1500 -0.0869
  906SOL    HW1 2717   0.142   1.714   1.868  0.0059 -3.1517  1.3365
  906SOL    HW2 2718   0.302   1.767   1.926  1.0798 -2.2037  4.4225
  907SOL     OW 2719   0.257   2.441   1.024  0.2204 -0.1191  0.3877
  907SOL    HW1 2720   0.355   2.413   1.003  0.3365 -0.4498 -0.0447
  907SOL    HW2 2721   0.218   2.500   0.949 -0.0224 -1.0240 -1.6698
  908SOL     OW 2722   2.820   2.995   0.375  0.0865 -0.7517 -0.4177
  908SOL    HW1 2723   2.740   3.024   0.316  1.6543 -1.6379 -2.7791
  908SOL    HW2 2724   2.875   2.919   0.328 -0.5785  0.8669  0.2040
  909SOL     OW 2725   0.828   1.042   2.644  0.2388  0.1109  0.0572
  909SOL    HW1 2726   0.780   0.956   2.612 -0.7582  0.8307 -0.1834
  909SOL    HW2 2727   0.907   1.071   2.587  1.3980 -1.9746  3.1744
  910SOL     OW 2728   1.799   1.905   2.173 -0.3613  0.3102  0.5506
  910SOL    HW1 2729   1.829   1.927   2.074  0.0669  0.2913 -3.2507
  910SOL    HW2 2730   1.710   1.954   2.200 -1.7604  0.4962 -0.6058
  911SOL     OW 2731   1.810   2.933   1.604 -0.1541  0.1581 -0.2584
  911SOL    HW1 2732   1.877   2.915   1.528  1.3719 -1.1618  0.9347
  911SOL    HW2 2733   1.791   2.846   1.661 -0.7800  2.0495 -2.3654
  912SOL     OW 2734   2.857   1.019   0.740 -0.1606  0.1364  0.0005
  912SOL    HW1 2735   2.912   0.956   0.805  1.2095  1.7435  2.4202
  912SOL    HW2 2736   2.840   1.108   0.787 -0.2706 -2.1257  0.7741
  913SOL     OW 2737   2.538   1.285   1.545  0.5294 -0.2474 -0.5430
  913SOL    HW1 2738   2.564   1.192   1.510 -0.8786  1.0141  1.1128
  913SOL    HW2 2739   2.585   1.362   1.491 -1.6943  0.3840  0.3273
  914SOL     OW 2740   2.784   0.589   1.185  0.1366 -0.2361  0.4626
  914SOL    HW1 2741   2.798   0.512   1.252  1.0584 -2.0220  0.4605
  914SOL    HW2 2742   2.689   0.616   1.163 -1.9681  1.8933  0.0134
  915SOL     OW 2743   1.175   0.725   1.045 -0.5422 -0.0383  0.6000
  915SOL    HW1 2744   1.233   0.771   1.122  1.4810  0.9125  0.0015
  915SOL    HW2 2745   1.071   0.731   1.075  1.1945 -1.7414 -1.8993
  916SOL     OW 2746   0.598   0.025   0.649 -0.1756  0.2581  0.0854
  916SOL    HW1 2747   0.629   0.099   0.715  1.2636 -0.1793 -0.1873
  916SOL    HW2 2748   0.598   0.047   0.547 -1.8639 -1.4963  3.2102
  917SOL     OW 2749   2.829   2.613   2.019  0.0636  0.2708 -0.7048
  917SOL    HW1 2750   2.730   2.635   1.988 -0.8910 -0.7075  0.1810
  917SOL    HW2 2751   2.891   2.693   2.004 -1.0957  1.5499  0.7792
  918SOL     OW 2752   1.019   2.098   3.025 -0.1942  0.2034 -0.0865
  918SOL    HW1 2753   0.976   2.168   3.090  0.4559  1.0447  3.4470
  918SOL    HW2 2754   1.096   2.130   2.962  3.1933 -2.4976  0.0843
  919SOL     OW 2755   0.830   1.615   2.855  0.3567  0.0590 -0.5520
  919SOL    HW1 2756   0.889   1.687   2.805  1.0839 -0.7688 -1.2127
  919SOL    HW2 2757   0.797   1.541   2.785 -1.5575  0.6774 -0.5333
  920SOL     OW 2758   1.245   1.834   2.511  0.1438  0.1265 -0.5620
  920SOL    HW1 2759   1.324   1.808   2.452 -0.1447  2.8273 -0.1544
  920SOL    HW2 2760   1.212   1.755   2.566 -2.0515  1.1897 -0.9371
  921SOL     OW 2761   1.062   0.025   2.628 -0.8525  0.3506 -0.0154
  921SOL    HW1 2762   1.020  -0.016   2.541 -0.7693 -0.4530 -2.0504
  921SOL    HW2 2763   1.009   0.104   2.661  0.5900 -0.0524 -0.8614
  922SOL     OW 2764   2.219   2.362   2.795 -0.7561 -0.3252 -0.4155
  922SOL    HW1 2765   2.232   2.259   2.780  2.9216  2.7266  1.0009
  922SOL    HW2 2766   2.157   2.403   2.718  0.7869  0.3474  0.8172
  923SOL     OW 2767   1.284   2.669   0.286  0.0260 -0.0846  0.2635
  923SOL    HW1 2768   1.359   2.721   0.339 -1.2936 -1.3271 -0.0368
  923SOL    HW2 2769   1.307   2.567   0.272 -0.3362  2.9361 -0.0458
  924SOL     OW 2770   2.830   1.651   0.137  0.3379 -0.8577  0.6639
  924SOL    HW1 2771   2.766   1.623   0.059 -0.7495 -0.3272  2.0839
  924SOL    HW2 2772   2.921   1.602   0.133 -0.2651 -1.1513  0.6857
  925SOL     OW 2773   0.011   2.884   1.469  0.3619 -0.0195  0.5396
  925SOL    HW1 2774  -0.080   2.908   1.514 -1.7859 -3.2829 -0.1947
  925SOL    HW2 2775  -0.002   2.821   1.385 -1.1528 -1.2292 -1.9751
  926SOL     OW 2776   1.280   2.789   1.325 -0.1821 -0.1393 -0.3765
  926SOL    HW1 2777   1.345   2.806   1.245  0.4461  2.0864  1.4666
  926SOL    HW2 2778   1.252   2.878   1.369  0.2044 -0.5299 -3.3033
  927SOL     OW 2779   0.312   2.668   1.791  0.0839 -0.0793  0.1657
  927SOL    HW1 2780   0.314   2.603   1.709 -1.5662 -0.3436  0.0008
  927SOL    HW2 2781   0.285   2.767   1.764  1.5877 -0.4600 -0.9586
  928SOL     OW 2782   1.571   2.066   2.241 -0.3789 -0.3889  0.4203
  928SOL    HW1 2783   1.602   2.136   2.169  1.2764  0.5952 -0.1405
  928SOL    HW2 2784   1.473   2.088   2.263  2.6835 -2.1010  2.7375
  929SOL     OW 2785   2.423   2.520   2.854 -0.7570  0.2954  0.2771
  929SOL    HW1 2786   2.350   2.451   2.822 -1.5730 -1.4097 -0.8432
  929SOL    HW2 2787   2.507   2.527   2.791  0.5783  1.3862 -2.2171
  930SOL     OW 2788   2.178   2.030   1.073  0.0237  0.2820  0.1418
  930SOL    HW1 2789   2.151   1.959   1.142 -0.8772 -2.6273 -1.9444
  930SOL    HW2 2790   2.244   2.099   1.102 -0.5042 -3.9975 -1.3990
  931SOL     OW 2791   0.527   1.699   2.699 -0.2017  0.1929  0.6836
  931SOL    HW1 2792   0.538   1.759   2.787  1.4395  0.3463  0.3669
  931SOL    HW2 2793   0.596   1.619   2.685  1.4736  1.5602 -2.0124
  932SOL     OW 2794   0.470   0.138   3.051  0.2272  0.3877 -0.2961
  932SOL    HW1 2795   0.544   0.160   3.124  2.3906  0.4039 -0.6830
  932SOL    HW2 2796   0.469   0.039   3.040 -0.1955 -0.2037  0.3915
  933SOL     OW 2797   0.972   0.801   3.087  0.1189  0.0167  0.5592
  933SOL    HW1 2798   0.959   0.816   3.190  0.3830 -0.8206  1.2430
  933SOL    HW2 2799   0.942   0.877   3.027  4.5198 -1.0176  1.6809
  934SOL     OW 2800   0.788   2.950   2.686  0.0112 -0.6790 -0.0890
  934SOL    HW1 2801   0.759   2.881   2.612 -0.7231  0.8671  0.2466
  934SOL    HW2 2802   0.872   2.913   2.733  0.9161  0.6134  0.1486
  935SOL     OW 2803   0.039   0.529   0.831 -0.1108  0.4163  0.2856
  935SOL    HW1 2804   0.037   0.497   0.732  0.3607  0.6418  0.2022
  935SOL    HW2 2805  -0.048   0.587   0.857 -3.4155  1.5055  1.8557
  936SOL     OW 2806   1.123   2.770   0.073  0.3132  0.0062  0.0188
  936SOL    HW1 2807   1.177   2.842   0.013  1.4889 -0.6850 -2.8114
  936SOL    HW2 2808   1.190   2.729   0.138  1.0453  1.5703 -0.6063
  937SOL     OW 2809   1.836   2.660   2.096  1.1737 -0.0280  0.1945
  937SOL    HW1 2810   1.731   2.686   2.092 -1.6161 -0.1430 -0.0657
  937SOL    HW2 2811   1.875   2.698   2.008 -0.1356  2.3909  0.9285
  938SOL     OW 2812   2.756   2.081   1.599  0.1166  0.1618  0.4282
  938SOL    HW1 2813   2.730   2.181   1.619  2.8408  0.8294  0.7482
  938SOL    HW2 2814   2.841   2.053   1.650  2.4899  0.3862 -1.4467
  939SOL     OW 2815   2.851   1.189   2.428  0.5378  0.1185  0.3114
  939SOL    HW1 2816   2.935   1.154   2.377 -1.6464  0.6089  1.4263
  939SOL    HW2 2817   2.832   1.153   2.525 -3.9795  1.1564 -2.2008
  940SOL     OW 2818   1.053   0.423   2.749 -0.5110 -0.1851 -0.3938
  940SOL    HW1 2819   1.116   0.344   2.777 -0.0433  1.3173  1.3616
  940SOL    HW2 2820   1.000   0.390   2.668  0.9304 -0.3501  1.5294
  941SOL     OW 2821   0.026   2.790   2.253  0.2902 -0.3069 -0.1484
  941SOL    HW1 2822   0.072   2.692   2.239 -0.6844  0.4225  0.1121
  941SOL    HW2 2823   0.097   2.857   2.284  0.0766 -1.6060  0.7000
  942SOL     OW 2824   0.110   0.046   2.577  0.4954 -0.0037  0.2549
  942SOL    HW1 2825   0.182   0.081   2.643  2.3039  1.9430  0.7241
  942SOL    HW2 2826   0.084   0.122   2.509 -0.2257 -0.1615 -3.2745
  943SOL     OW 2827   2.095   1.648   2.387 -0.0629  0.0586  0.1855
  943SOL    HW1 2828   2.073   1.592   2.305  1.0098 -1.4756  0.2948
  943SOL    HW2 2829   2.092   1.591   2.471 -0.2491 -3.4924  1.6256
  944SOL     OW 2830   2.163   2.343   1.451  0.2303 -0.3176 -0.1102
  944SOL    HW1 2831   2.252   2.383   1.494  1.0412  1.8986 -3.1277
  944SOL    HW2 2832   2.130   2.261   1.514 -1.3963 -2.3988  0.5018
  945SOL     OW 2833   0.678   1.502   0.182 -0.2001 -0.1753  0.4035
  945SOL    HW1 2834   0.602   1.548   0.127 -0.4535  2.9163 -0.6552
  945SOL    HW2 2835   0.656   1.407   0.215 -0.4866  0.3569  0.8591
  946SOL     OW 2836   0.441   0.946   2.483 -0.2596  0.0715 -0.1948
  946SOL    HW1 2837   0.355   0.882   2.476 -1.2011 -2.5953 -0.0761
  946SOL    HW2 2838   0.414   1.048   2.475  0.5608  0.8285  0.5544
  947SOL     OW 2839   1.514   0.498   3.064 -0.0493  0.1695  0.6282
  947SOL    HW1 2840   1.485   0.550   2.976  0.6751 -0.6553  0.8902
  947SOL    HW2 2841   1.428   0.467   3.107  1.0608  1.3650 -0.2315
  948SOL     OW 2842   1.828   3.013   2.117  0.1691 -0.1078 -0.3648
  948SOL    HW1 2843   1.881   2.972   2.038 -2.4359  2.1879  0.9773
  948SOL    HW2 2844   1.854   2.967   2.205  1.4907  0.2877  0.1011
  949SOL     OW 2845   0.632   2.494   0.488 -0.2427  0.1509  0.3180
  949SOL    HW1 2846   0.633   2.593   0.468 -1.4385  0.4866  1.5720
  949SOL    HW2 2847   0.624   2.485   0.590 -2.6280  2.3083  0.2960
  950SOL     OW 2848   0.216   2.241   3.014 -0.3988  0.3949  0.3670
  950SOL    HW1 2849   0.186   2.329   2.971  4.6967 -0.5774  0.2363
  950SOL    HW2 2850   0.208   2.162   2.946 -2.7938  0.7319 -2.1756
  951SOL     OW 2851   1.227   2.683   2.795 -0.2083  0.3219 -0.3599
  951SOL    HW1 2852   1.290   2.690   2.876 -1.0702 -1.0094  3.2803
  951SOL    HW2 2853   1.274   2.691   2.705  0.9399  3.0339  1.0061
  952SOL     OW 2854   0.047   1.654   0.389 -0.3838 -0.0596  0.4028
  952SOL    HW1 2855   0.090   1.741   0.403  0.4385 -3.1477 -0.4390
  952SOL    HW2 2856   0.058   1.576   0.458 -0.0466 -0.0322  1.8110
  953SOL     OW 2857   2.527   1.781   0.223 -0.6330  0.1126  0.1715
  953SOL    HW1 2858   2.499   1.684   0.250  1.0820  0.1125  1.3964
  953SOL    HW2 2859   2.497   1.801   0.125  3.0774  1.4891  2.2364
  954SOL     OW 2860   2.219   0.533   0.897  0.0857  0.1274 -0.4357
  954SOL    HW1 2861   2.225   0.579   0.801  2.5840 -1.0430 -2.9190
  954SOL    HW2 2862   2.316   0.523   0.939  0.7660  0.1430  0.1261
  955SOL     OW 2863   0.163   2.595   1.361  0.4524  0.4135 -0.7355
  955SOL    HW1 2864   0.063   2.610   1.327 -1.2866 -0.3445 -0.6816
  955SOL    HW2 2865   0.231   2.640   1.303  0.2391 -1.8833  0.8762
  956SOL     OW 2866   2.835   2.446   2.478  0.6279  0.1036  0.1046
  956SOL    HW1 2867   2.841   2.346   2.445 -0.1624  1.3231  1.6552
  956SOL    HW2 2868   2.892   2.514   2.427 -0.6229  0.7107  1.6313
  957SOL     OW 2869   1.681   2.057   2.798  0.3414 -0.3274 -0.4807
  957SOL    HW1 2870   1.626   1.970   2.800  1.6304  0.5880  1.1339
  957SOL    HW2 2871   1.686   2.093   2.699  2.8151  0.7160 -3.6068
  958SOL     OW 2872   2.566   2.297   2.989 -0.1743 -0.5036  0.4397
  958SOL    HW1 2873   2.490   2.329   2.925 -0.8413  0.6632  2.8637
  958SOL    HW2 2874   2.521   2.243   3.063 -1.5779  0.2369 -0.8229
  959SOL     OW 2875   0.278   2.804   0.029 -0.0909  0.4765  0.1087
  959SOL    HW1 2876   0.177   2.792   0.009 -0.7364 -0.3492 -2.3935
  959SOL    HW2 2877   0.309   2.727   0.090  0.4754  1.7709 -0.6299
  960SOL     OW 2878   1.943   0.470   1.930  0.3910 -0.3191  0.0477
  960SOL    HW1 2879   1.897   0.562   1.908 -1.7138  0.5556 -0.5725
  960SOL    HW2 2880   1.973   0.463   2.031 -2.1543  2.4218 -0.3451
  961SOL     OW 2881   2.571   1.854   1.028  0.3361  0.1926 -0.6523
  961SOL    HW1 2882   2.570   1.956   1.000  1.6650  1.2209  0.7592
  961SOL    HW2 2883   2.532   1.831   1.122  1.3628  0.1935 -2.2146
  962SOL     OW 2884   1.310   0.922   0.036 -0.0989 -0.3124 -0.1587
  962SOL    HW1 2885   1.281   0.961  -0.053 -0.0371  0.9940  0.0356
  962SOL    HW2 2886   1.313   0.987   0.120  1.6007  1.1256  1.2561
  963SOL     OW 2887   2.278   2.572   1.780 -0.7907  0.4421  0.1769
  963SOL    HW1 2888   2.243   2.487   1.820  0.4071  1.8446 -0.9417
  963SOL    HW2 2889   2.308   2.644   1.848  0.5718 -1.8908 -2.5684
  964SOL     OW 2890   2.362   0.419   1.667 -0.2999 -0.1450  0.1764
  964SOL    HW1 2891   2.439   0.385   1.733  0.0786  3.5125  0.8140
  964SOL    HW2 2892   2.401   0.432   1.574  0.4442 -3.3332  1.4855
  965SOL     OW 2893   2.602   2.982   0.148  0.7051  1.0307 -0.8408
  965SOL    HW1 2894   2.673   2.959   0.072  1.1104 -1.0199  1.1385
  965SOL    HW2 2895   2.514   3.018   0.107 -0.1645 -1.4974  0.3208
  966SOL     OW 2896   2.585   2.556   2.273  0.3735  0.3358 -1.0776
  966SOL    HW1 2897   2.648   2.630   2.308  1.5148 -0.1743 -1.1096
  966SOL    HW2 2898   2.494   2.593   2.239 -0.0607 -1.2056 -0.1970
  967SOL     OW 2899   2.787   2.831   2.497 -0.0618  0.1344 -0.3826
  967SOL    HW1 2900   2.821   2.775   2.416  1.1783 -0.6927  1.9311
  967SOL    HW2 2901   2.857   2.902   2.529 -0.1384  0.9316  0.2013
  968SOL     OW 2902   1.922   1.068   2.615 -0.3036 -0.3468 -0.1574
  968SOL    HW1 2903   1.839   1.108   2.570 -1.6102  1.2231 -0.7128
  968SOL    HW2 2904   1.955   0.981   2.585 -0.7390  1.3085  0.2972
  969SOL     OW 2905   2.797   2.510   1.118  0.1342  0.6413 -0.4194
  969SOL    HW1 2906   2.778   2.508   1.012  0.9384  2.2423 -1.0606
  969SOL    HW2 2907   2.814   2.418   1.157  0.6818  1.4026  0.2388
  970SOL     OW 2908   1.030   2.092   1.803  0.1493  0.0961 -0.5910
  970SOL    HW1 2909   0.950   2.116   1.740  0.8854  0.3031 -2.6177
  970SOL    HW2 2910   1.015   2.109   1.905  0.2435  0.9333 -1.0614
  971SOL     OW 2911   2.959   2.057   2.013 -0.4487  0.3777 -0.8358
  971SOL    HW1 2912   2.960   2.155   2.055 -4.3137 -2.4202 -0.4373
  971SOL    HW2 2913   2.996   2.054   1.914 -0.6823 -1.1236  0.1841
  972SOL     OW 2914   1.966   2.491   0.230 -0.0019 -0.5050 -0.0400
  972SOL    HW1 2915   1.947   2.401   0.179  1.5354  1.6078  0.2088
  972SOL    HW2 2916   1.983   2.467   0.327 -0.2158 -2.5965  0.6968
  973SOL     OW 2917   1.266   1.055   1.913 -0.4001  0.0320 -0.3790
  973SOL    HW1 2918   1.185   1.016   1.860 -0.2416  1.2750 -1.6067
  973SOL    HW2 2919   1.247   1.147   1.953  1.2074  0.1803  0.0363
  974SOL     OW 2920   1.605   0.571   1.974 -0.2101 -0.4504  0.1626
  974SOL    HW1 2921   1.686   0.629   1.936 -0.8444  1.5679 -2.5475
  974SOL    HW2 2922   1.511   0.624   1.980 -1.0195  1.3220 -1.9556
  975SOL     OW 2923   2.372   3.058   0.020 -0.2505  0.1864  0.4539
  975SOL    HW1 2924   2.295   2.994   0.052  0.3759 -1.0284  0.6787
  975SOL    HW2 2925   2.393   3.063  -0.081  0.7030  1.4116  0.6858
  976SOL     OW 2926   1.901   2.859   2.343  0.0235  0.1961  0.3116
  976SOL    HW1 2927   1.863   2.791   2.271 -0.2783 -0.1299 -2.7535
  976SOL    HW2 2928   1.916   2.816   2.437  2.2996 -0.3516 -2.0816
  977SOL     OW 2929   0.476   0.679   1.063 -0.0521 -0.6893  0.2066
  977SOL    HW1 2930   0.414   0.660   0.974 -0.3605  1.7864 -3.1079
  977SOL    HW2 2931   0.544   0.761   1.051 -0.2500  2.1481 -0.5064
   3.10000   3.10000   3.10000
