1000 SPC/Fw water molecules t=   1.89000 step= 1890
 2931
    1SOL     OW    1   2.521   0.298   2.692  0.4870 -1.1386  0.4266
    1SOL    HW1    2   2.510   0.197   2.701  1.1986  1.9457  2.5879
    1SOL    HW2    3   2.585   0.332   2.765  0.2395  0.9578  1.1023
    2SOL     OW    4   2.778   2.823   1.306  0.4447 -0.9551 -0.9300
    2SOL    HW1    5   2.879   2.835   1.276  2.8827  1.0954 -1.9997
    2SOL    HW2    6   2.755   2.874   1.394 -0.4882  0.0657  1.0546
    3SOL     OW    7   2.745   2.455   0.461  0.5486 -0.0732  0.1087
    3SOL    HW1    8   2.657   2.402   0.465  0.7598 -0.1567  4.8913
    3SOL    HW2    9   2.733   2.549   0.506 -2.9146 -1.5244  1.9818
    4SOL     OW   10   1.228   1.567   2.440 -0.9700 -0.4368 -0.6831
    4SOL    HW1   11   1.185   1.566   2.345  0.4120 -1.9312 -0.2543
    4SOL    HW2   12   1.195   1.480   2.489 -0.2595 -2.2270 -0.9717
    5SOL     OW   13   1.154   1.583   2.908 -0.2400 -0.1876 -0.1545
    5SOL    HW1   14   1.189   1.664   2.964 -0.5195 -2.3430 -2.2167
    5SOL    HW2   15   1.056   1.594   2.879  3.4954  0.0634 -0.3512
    6SOL     OW   16   0.182   1.850   0.024  0.2432  0.4053 -0.3615
    6SOL    HW1   17   0.094   1.853   0.083 -3.5274  1.8850 -1.5048
    6SOL    HW2   18   0.254   1.781   0.061  3.4603 -1.6244  1.2258
    7SOL     OW   19   2.540   0.861   1.037  0.4007 -0.2516  1.0030
    7SOL    HW1   20   2.448   0.826   1.062  1.0090 -1.0029 -0.6315
    7SOL    HW2   21   2.560   0.874   0.936 -1.9804  1.6247 -1.8136
    8SOL     OW   22   0.455   0.734   1.506  0.4439 -0.0139 -0.3672
    8SOL    HW1   23   0.550   0.717   1.539  0.5327  0.4804 -1.6572
    8SOL    HW2   24   0.448   0.748   1.402  1.5119 -2.3157 -0.0178
    9SOL     OW   25   1.115   0.877   2.337  0.7784 -0.5625 -0.1534
    9SOL    HW1   26   1.173   0.904   2.257 -1.5954 -3.2927 -2.1384
    9SOL    HW2   27   1.082   0.777   2.323  4.3463 -0.3965 -3.3108
   10SOL     OW   28   0.601   1.481   1.258 -0.0143  0.2356 -0.1514
   10SOL    HW1   29   0.516   1.464   1.202 -2.0429 -0.0105 -0.9972
   10SOL    HW2   30   0.618   1.583   1.272 -1.6982 -0.3905 -1.1014
   11SOL     OW   31   2.346   2.828   0.940  0.4506  0.0149  0.2737
   11SOL    HW1   32   2.305   2.801   1.033 -0.8977  1.9858 -4.0993
   11SOL    HW2   33   2.443   2.863   0.947  1.7085 -0.8189 -0.4061
   12SOL     OW   34   1.444   0.833   0.503 -0.7893  0.0263  0.5431
   12SOL    HW1   35   1.344   0.812   0.490 -1.6650  1.1053  0.7754
   12SOL    HW2   36   1.518   0.776   0.451  1.7661 -0.9616 -0.2460
   13SOL     OW   37   2.439   0.726   1.833  0.1200 -0.7162  0.9249
   13SOL    HW1   38   2.357   0.678   1.881 -1.6194 -1.0866 -0.6004
   13SOL    HW2   39   2.472   0.669   1.753 -0.8440 -0.7570 -3.9563
   14SOL     OW   40   1.925   3.036   0.639 -0.1358 -0.2317  0.2102
   14SOL    HW1   41   1.833   3.080   0.620 -2.6491  2.1907 -0.3758
   14SOL    HW2   42   1.954   3.048   0.738 -1.5237 -1.2219  0.7960
   15SOL     OW   43   1.891   2.113   2.648 -0.5764 -0.0290 -0.7375
   15SOL    HW1   44   1.839   2.100   2.737 -1.4813 -2.1911  3.0853
   15SOL    HW2   45   1.884   2.030   2.585 -1.9562 -0.6641 -3.1834
   16SOL     OW   46   1.557   1.754   2.993  0.1074 -0.2715 -0.0433
   16SOL    HW1   47   1.528   1.734   3.090 -1.5180 -0.5561 -1.1507
   16SOL    HW2   48   1.650   1.808   2.996  0.1301  0.2784 -1.9899
   17SOL     OW   49   0.063   0.463   0.208 -0.3014  0.4036  0.4067
   17SOL    HW1   50   0.166   0.452   0.195  0.1438  0.0867  2.2347
   17SOL    HW2   51   0.013   0.493   0.117 -2.5952 -2.5513  0.7515
   18SOL     OW   52   0.845   2.832   2.230  0.1359  0.2675  0.5910
   18SOL    HW1   53   0.798   2.753   2.279 -0.9576  0.0974 -1.8744
   18SOL    HW2   54   0.906   2.799   2.157 -1.5886  0.1133  1.2485
   19SOL     OW   55   0.496   0.922   1.928 -0.3359 -0.3539 -0.0334
   19SOL    HW1   56   0.535   0.848   1.993  0.6066 -1.3518 -0.6750
   19SOL    HW2   57   0.565   1.002   1.919  1.5435  0.2990 -2.5703
   20SOL     OW   58   0.221   2.786   0.742 -0.6343  0.2727  0.6377
   20SOL    HW1   59   0.122   2.807   0.741  3.7789  1.8512  2.5077
   20SOL    HW2   60   0.248   2.699   0.692 -0.3959 -2.3779 -0.6937
   21SOL     OW   61   2.823   0.274   1.987  0.6978  0.2297 -0.1706
   21SOL    HW1   62   2.755   0.193   1.968  0.7905 -1.8235 -0.4865
   21SOL    HW2   63   2.912   0.244   2.035  0.8026  1.5308 -0.1719
   22SOL     OW   64   2.424   0.205   0.088 -0.0565 -0.0012 -0.9524
   22SOL    HW1   65   2.467   0.134   0.026  0.7570  1.8058  1.1501
   22SOL    HW2   66   2.330   0.237   0.045  1.9808 -0.0419  0.7956
   23SOL     OW   67   2.819   0.499   0.662  0.0195  0.4542 -0.0062
   23SOL    HW1   68   2.861   0.401   0.661 -2.0996 -1.5206  0.4470
   23SOL    HW2   69   2.878   0.573   0.609  1.5440 -0.8029 -0.3822
   24SOL     OW   70   0.271   1.920   0.460  0.1028 -0.3621 -0.2611
   24SOL    HW1   71   0.236   1.982   0.384 -0.4796  0.3756 -1.8178
   24SOL    HW2   72   0.359   1.873   0.434 -3.0500 -1.8990  0.2513
   25SOL     OW   73   2.289   0.588   0.251  0.4306 -0.3179  0.1769
   25SOL    HW1   74   2.279   0.620   0.152 -0.5643 -0.7284  0.5215
   25SOL    HW2   75   2.330   0.490   0.260  2.2241 -1.5149 -1.5044
   26SOL     OW   76   2.478   2.165   2.146 -0.1824 -0.3282 -0.2118
   26SOL    HW1   77   2.554   2.235   2.179 -0.4660  1.2644  3.4311
   26SOL    HW2   78   2.501   2.121   2.052  1.5868 -0.4201 -0.1949
   27SOL     OW   79   0.643   3.009   0.167 -0.2729 -0.1197  0.8104
   27SOL    HW1   80   0.706   3.078   0.118  3.7313  1.4883 -0.7229
   27SOL    HW2   81   0.577   2.975   0.099 -0.2028  2.9198 -0.5478
   28SOL     OW   82   1.553   0.184   0.322  0.3111 -0.3204  0.6695
   28SOL    HW1   83   1.594   0.141   0.234 -1.4188 -0.0927 -1.7476
   28SOL    HW2   84   1.620   0.232   0.380 -1.2691  1.4181 -2.3139
   29SOL     OW   85   2.021   0.549   0.305 -0.3349  0.0280  0.0436
   29SOL    HW1   86   1.994   0.621   0.375 -0.7192 -1.6439  0.8401
   29SOL    HW2   87   2.124   0.564   0.288 -2.9780 -0.1172  0.0156
   30SOL     OW   88   0.203   2.131   0.888 -0.4239 -0.5763 -0.0751
   30SOL    HW1   89   0.170   2.044   0.838 -1.9024 -2.3952  2.2921
   30SOL    HW2   90   0.123   2.177   0.938 -1.1944  2.6382  0.4923
   31SOL     OW   91   2.100   0.108   2.373 -0.2319  0.0693 -0.0337
   31SOL    HW1   92   2.040   0.092   2.455  0.5455 -0.7683  0.0772
   31SOL    HW2   93   2.074   0.045   2.297  1.9456 -0.5463 -1.7243
   32SOL     OW   94   3.080   3.052   0.228  0.1037  0.0574 -0.2799
   32SOL    HW1   95   3.065   2.953   0.263  0.4502 -2.4717 -0.5515
   32SOL    HW2   96   3.185   3.077   0.217  3.2913 -0.7087  0.8167
   33SOL     OW   97   0.865   0.283   0.649  0.4452 -0.4922  0.5729
   33SOL    HW1   98   0.852   0.206   0.578 -0.3845 -1.3804 -1.2637
   33SOL    HW2   99   0.959   0.334   0.629  0.7717  1.8922 -1.5849
   34SOL     OW  100   0.338   2.656   1.019 -0.0220 -0.1022 -0.2824
   34SOL    HW1  101   0.277   2.673   0.941  1.8585  0.7450 -1.4375
   34SOL    HW2  102   0.436   2.683   1.000  0.7997  0.5262 -0.8350
   35SOL     OW  103   0.102   0.212   1.887 -0.1401 -0.1926  0.1390
   35SOL    HW1  104   0.110   0.111   1.900  0.8285 -0.3158  3.9838
   35SOL    HW2  105   0.081   0.238   1.790  3.7699  0.2754  1.0391
   36SOL     OW  106   1.868   1.225   1.466 -0.4008  0.3328  0.0464
   36SOL    HW1  107   1.959   1.206   1.510 -1.5791  0.0921 -0.4322
   36SOL    HW2  108   1.876   1.262   1.367 -0.5682  0.3624 -1.5249
   37SOL     OW  109   1.167   0.247   1.005 -0.0800 -0.1930 -0.4095
   37SOL    HW1  110   1.185   0.352   1.003  1.2533 -0.3251  0.8189
   37SOL    HW2  111   1.244   0.192   0.963  2.4968  1.0742 -1.5050
   38SOL     OW  112   1.109   2.809   2.450  0.2285  0.3363  0.4592
   38SOL    HW1  113   1.021   2.778   2.499 -1.3773  0.0159 -1.1483
   38SOL    HW2  114   1.112   2.909   2.417 -1.8639  0.5201 -2.4459
   39SOL     OW  115   2.469   1.415   2.999 -0.0622  0.2078  0.3511
   39SOL    HW1  116   2.518   1.324   2.997  0.5479  0.7779  1.6538
   39SOL    HW2  117   2.398   1.423   3.079 -0.6988 -0.4582  1.9984
   40SOL     OW  118   2.042   2.492   2.542 -0.3827  0.0753  0.6387
   40SOL    HW1  119   2.006   2.583   2.585  3.1028  2.4450 -0.3636
   40SOL    HW2  120   1.969   2.430   2.511  0.2081 -0.8629  0.5283
   41SOL     OW  121   3.017   0.706   2.809 -0.0404 -0.0997 -0.3432
   41SOL    HW1  122   2.979   0.780   2.870  0.6297 -0.6053 -0.2657
   41SOL    HW2  123   2.949   0.661   2.744  1.4023 -0.2361  1.8191
   42SOL     OW  124   1.727   1.762   0.481  0.4959 -0.5611 -0.2384
   42SOL    HW1  125   1.689   1.666   0.477  0.5541 -1.2996 -0.9912
   42SOL    HW2  126   1.745   1.795   0.383  1.9614 -0.9082 -1.4410
   43SOL     OW  127   0.438   1.756   1.127 -0.5465  1.0171 -0.2604
   43SOL    HW1  128   0.408   1.679   1.064 -1.8536  0.9242  2.3812
   43SOL    HW2  129   0.400   1.758   1.224  0.9200 -0.2587  2.2943
   44SOL     OW  130   1.704   2.362   2.953  0.2939  0.3869  0.4814
   44SOL    HW1  131   1.623   2.419   2.982 -1.2980  0.7237  0.8742
   44SOL    HW2  132   1.750   2.402   2.869 -1.8894 -0.0603 -0.5406
   45SOL     OW  133   0.363   1.943   2.615 -0.1375 -0.4245 -0.2202
   45SOL    HW1  134   0.288   1.919   2.547  1.7397  0.8564 -0.8229
   45SOL    HW2  135   0.440   1.870   2.626 -1.8431  0.1471 -3.0487
   46SOL     OW  136   1.310   0.713   0.254 -0.3504  0.1766  0.1515
   46SOL    HW1  137   1.325   0.819   0.242  0.0286 -0.0210 -0.8960
   46SOL    HW2  138   1.246   0.669   0.180 -2.0760  0.1674 -1.9406
   47SOL     OW  139   0.152   2.345   1.603  0.3751 -0.0298  0.4664
   47SOL    HW1  140   0.061   2.306   1.624 -0.0726  0.2682  0.3826
   47SOL    HW2  141   0.151   2.368   1.502  0.9287 -3.7981  0.0391
   48SOL     OW  142   2.645   0.705   0.135  0.4169 -0.5182  0.4510
   48SOL    HW1  143   2.642   0.666   0.231  0.5497 -0.2986  1.4604
   48SOL    HW2  144   2.742   0.726   0.105 -0.9184  2.2633  0.0913
   49SOL     OW  145   0.336   0.842   1.732  0.2227  0.1523  0.1779
   49SOL    HW1  146   0.421   0.864   1.792 -0.5039 -1.0585  0.9142
   49SOL    HW2  147   0.353   0.838   1.630  1.3686  2.4501  0.4090
   50SOL     OW  148   1.681   1.102   0.322 -0.1129 -0.4805  0.4592
   50SOL    HW1  149   1.716   1.004   0.315 -1.8083  1.3719 -0.9928
   50SOL    HW2  150   1.647   1.130   0.414  0.6764  1.0500 -1.3126
   51SOL     OW  151   2.947   1.731   0.312 -0.8419 -0.5593  0.2695
   51SOL    HW1  152   2.928   1.695   0.215 -1.1137 -0.6137  0.8256
   51SOL    HW2  153   3.036   1.692   0.352  0.6897 -3.3534  0.4221
   52SOL     OW  154   0.802   2.177   0.567  0.0448  0.2458 -0.3056
   52SOL    HW1  155   0.715   2.206   0.518  1.6512 -1.2340 -0.4912
   52SOL    HW2  156   0.781   2.115   0.646  0.7740  1.5017  0.2122
   53SOL     OW  157   0.292   0.474   1.479  0.3294  0.4541  0.3106
   53SOL    HW1  158   0.357   0.556   1.480  1.8309 -0.6526 -0.9525
   53SOL    HW2  159   0.207   0.487   1.418 -1.0310 -0.9961  1.7215
   54SOL     OW  160   1.770   0.439   0.002  1.0223  0.4278  0.1167
   54SOL    HW1  161   1.852   0.396   0.049  0.1292  0.4659  0.1756
   54SOL    HW2  162   1.684   0.421   0.059  1.1444 -1.5373 -1.5019
   55SOL     OW  163   0.788   2.903   0.636  0.4045 -0.1080 -0.5588
   55SOL    HW1  164   0.735   2.992   0.634 -3.1717 -0.7456  3.2986
   55SOL    HW2  165   0.887   2.920   0.608  0.5668  2.1265 -1.4210
   56SOL     OW  166   0.521   1.593   3.040 -0.1532  0.6957  0.8752
   56SOL    HW1  167   0.441   1.631   3.090 -3.7032 -2.0729 -0.4845
   56SOL    HW2  168   0.492   1.508   2.992  0.7404  2.2162  1.9378
   57SOL     OW  169   1.690   2.480   2.369 -0.4224  0.0566  0.4506
   57SOL    HW1  170   1.757   2.402   2.357  0.2144  0.8594  1.1203
   57SOL    HW2  171   1.621   2.470   2.447 -1.6204  0.1848  0.4563
   58SOL     OW  172   0.642   0.184   1.064  0.4001 -0.3203  0.1542
   58SOL    HW1  173   0.559   0.181   1.122  1.7594  0.3039 -1.1963
   58SOL    HW2  174   0.716   0.114   1.092 -1.3967 -0.4176  2.7328
   59SOL     OW  175   0.458   2.370   2.580 -0.0730 -0.2953  0.2648
   59SOL    HW1  176   0.469   2.285   2.637  0.7470 -0.9936  2.1280
   59SOL    HW2  177   0.545   2.432   2.587 -0.5375  0.5508 -1.6504
   60SOL     OW  178   2.318   2.070   2.355  0.0967 -0.2310  0.4796
   60SOL    HW1  179   2.391   2.104   2.284  0.5980 -0.5157  2.1420
   60SOL    HW2  180   2.330   2.124   2.446 -0.1857  1.8080 -0.0925
   61SOL     OW  181   1.205   0.643   0.475  0.2116 -0.0860 -0.3797
   61SOL    HW1  182   1.102   0.652   0.490 -0.0723  0.9044  2.0845
   61SOL    HW2  183   1.235   0.667   0.377 -2.3289  1.7330  1.6672
   62SOL     OW  184   2.798   1.692   2.690 -0.4771  0.4653 -0.2179
   62SOL    HW1  185   2.703   1.662   2.716  0.7375  0.8369 -2.0430
   62SOL    HW2  186   2.861   1.701   2.775 -1.0004  1.9858  2.7733
   63SOL     OW  187   0.540   0.828   0.203 -0.5451 -0.3653  0.2773
   63SOL    HW1  188   0.600   0.912   0.183  0.5551  0.6548  0.9598
   63SOL    HW2  189   0.556   0.782   0.292 -0.6263 -1.3991  0.8116
   64SOL     OW  190   3.037   0.566   2.378  0.7243 -0.0077 -0.0078
   64SOL    HW1  191   2.985   0.625   2.451  1.0962 -0.8203  0.3741
   64SOL    HW2  192   3.018   0.595   2.279  1.7517  0.0799 -0.1551
   65SOL     OW  193   0.158   1.448   0.639 -0.4745 -0.0103 -0.0357
   65SOL    HW1  194   0.179   1.520   0.708 -0.1366 -0.4639  2.9093
   65SOL    HW2  195   0.187   1.474   0.544 -2.0339  1.1536  0.3350
   66SOL     OW  196   2.602   0.309   0.519  0.1621  0.0375 -0.0557
   66SOL    HW1  197   2.701   0.289   0.544  3.3361  1.7663 -0.8812
   66SOL    HW2  198   2.537   0.262   0.592 -2.1597 -1.8593  4.1933
   67SOL     OW  199   0.569   2.500   1.531 -0.2249 -0.4139  0.0289
   67SOL    HW1  200   0.662   2.481   1.571  1.9543 -0.9031  1.5781
   67SOL    HW2  201   0.522   2.419   1.486  0.4600  1.0299  1.1627
   68SOL     OW  202   0.904   1.011   2.524 -0.0614 -0.5845  0.5125
   68SOL    HW1  203   0.994   0.984   2.476 -1.6379  0.3358 -1.0005
   68SOL    HW2  204   0.840   1.064   2.462 -0.7289  0.2536  1.1745
   69SOL     OW  205   0.735   2.609   2.313 -1.1509 -0.2881 -0.5559
   69SOL    HW1  206   0.741   2.542   2.235 -0.4912  0.2242  0.5519
   69SOL    HW2  207   0.647   2.667   2.318  2.4596  0.9015 -1.8204
   70SOL     OW  208   0.541   0.166   2.569  0.3064 -0.3733  0.2614
   70SOL    HW1  209   0.456   0.147   2.625 -1.5749 -0.5280 -0.7804
   70SOL    HW2  210   0.604   0.085   2.559  0.8893  1.2442 -2.0481
   71SOL     OW  211   1.071   1.767   0.321  0.1711  0.7541  0.4700
   71SOL    HW1  212   0.996   1.781   0.394 -2.0754 -1.1762  0.0280
   71SOL    HW2  213   1.043   1.794   0.225 -1.1537  0.8470 -0.6510
   72SOL     OW  214   1.849   0.212   2.146 -0.4306 -0.2181 -0.2497
   72SOL    HW1  215   1.886   0.299   2.109 -0.4577 -1.4101  1.1316
   72SOL    HW2  216   1.923   0.142   2.148  0.8484 -1.0822 -2.9627
   73SOL     OW  217   2.761   2.202   2.449  0.0166  0.0800 -0.4035
   73SOL    HW1  218   2.750   2.112   2.394  3.0366  1.4527 -1.5828
   73SOL    HW2  219   2.814   2.186   2.540  3.2874 -1.4000 -1.0094
   74SOL     OW  220   2.679   2.981   2.133  0.5821  0.4089 -0.2309
   74SOL    HW1  221   2.611   2.968   2.216 -1.8930  0.3503  1.1968
   74SOL    HW2  222   2.767   3.033   2.160  1.4936  3.8341 -0.6598
   75SOL     OW  223   0.934   0.805   1.157 -0.1249  0.2265 -0.6412
   75SOL    HW1  224   0.835   0.833   1.154  2.1470 -0.5842  0.8451
   75SOL    HW2  225   0.979   0.869   1.230 -0.8745  1.9751 -1.2036
   76SOL     OW  226   1.838   1.269   2.597 -0.2390  0.3480 -0.3875
   76SOL    HW1  227   1.747   1.250   2.635  1.6915 -1.3439 -1.8031
   76SOL    HW2  228   1.899   1.326   2.654 -1.3838 -2.2731 -0.1327
   77SOL     OW  229   2.947   0.903   1.028 -0.0511  0.3383 -0.1204
   77SOL    HW1  230   2.901   0.815   1.063 -0.5943  0.9212  1.2127
   77SOL    HW2  231   3.042   0.920   1.066 -0.5473 -1.5435 -2.4374
   78SOL     OW  232   1.945   1.461   1.299 -0.3401  0.3215 -0.8348
   78SOL    HW1  233   2.026   1.444   1.240 -0.5489 -2.0154  0.0059
   78SOL    HW2  234   1.861   1.495   1.242  0.9514  0.1702 -1.7528
   79SOL     OW  235   0.645   1.492   0.844 -0.2513  0.2976 -0.1024
   79SOL    HW1  236   0.546   1.499   0.856  1.1041 -0.3997 -0.5641
   79SOL    HW2  237   0.674   1.397   0.816 -0.1167  1.9078  0.7393
   80SOL     OW  238   0.699   0.468   1.572  0.2537 -0.1179  0.1199
   80SOL    HW1  239   0.717   0.512   1.481 -1.3820 -1.6166 -1.5499
   80SOL    HW2  240   0.688   0.364   1.556 -0.4129 -2.3146 -2.3789
   81SOL     OW  241   1.056   1.296   2.463  0.0743  0.0104 -0.5294
   81SOL    HW1  242   0.954   1.306   2.447 -1.3817  2.5651 -1.8720
   81SOL    HW2  243   1.101   1.229   2.400 -0.1234 -1.6122 -1.3931
   82SOL     OW  244   0.945   2.936   1.645  0.2774 -0.0127  0.3684
   82SOL    HW1  245   0.975   2.849   1.589  1.1993  1.1299  2.1789
   82SOL    HW2  246   0.970   3.027   1.605 -2.2064  1.5673  0.7735
   83SOL     OW  247   2.629   2.355   0.905  0.3619  0.3459 -0.2938
   83SOL    HW1  248   2.538   2.312   0.875  1.6829  0.7214  2.4800
   83SOL    HW2  249   2.630   2.458   0.884 -1.1909  2.9601  0.8190
   84SOL     OW  250   0.766   3.066   2.333  0.6935 -0.1922  0.0958
   84SOL    HW1  251   0.729   3.044   2.431  1.2521  3.0837  0.9800
   84SOL    HW2  252   0.829   2.992   2.301 -0.9864 -0.0959  3.1742
   85SOL     OW  253   0.264   1.693   1.344 -0.3805  0.2163  0.2076
   85SOL    HW1  254   0.260   1.787   1.391 -1.6966  1.8984  0.9377
   85SOL    HW2  255   0.291   1.617   1.406 -1.8151 -0.6392  1.9862
   86SOL     OW  256   0.466   1.064   1.401 -0.2994  0.1591  0.2935
   86SOL    HW1  257   0.447   1.028   1.304  1.0449  0.7206 -2.4327
   86SOL    HW2  258   0.558   1.032   1.439 -0.1568 -0.9667 -3.3568
   87SOL     OW  259   1.618   0.663   0.359  0.0784  0.1753  0.1062
   87SOL    HW1  260   1.679   0.726   0.305 -1.9755  1.5792 -2.0486
   87SOL    HW2  261   1.533   0.634   0.304 -2.9817  1.0151 -0.4526
   88SOL     OW  262   1.545   1.343   0.283 -0.2737  0.9053  0.6338
   88SOL    HW1  263   1.592   1.250   0.304  2.4058 -4.2086  0.6863
   88SOL    HW2  264   1.444   1.331   0.256 -0.2911 -0.3936  2.1613
   89SOL     OW  265   3.059   0.351   0.659 -0.3593  0.0958 -0.3064
   89SOL    HW1  266   3.163   0.354   0.649 -0.2809 -0.7746 -3.2699
   89SOL    HW2  267   3.022   0.257   0.641  1.2012  0.3323 -4.8982
   90SOL     OW  268   0.759   1.569   0.126 -0.2899  0.3312  0.4009
   90SOL    HW1  269   0.861   1.549   0.107  1.9314  3.1370  2.7400
   90SOL    HW2  270   0.701   1.584   0.042  0.6510 -3.0679 -0.4724
   91SOL     OW  271   1.274   1.535   1.665 -0.2971  0.0535 -0.2593
   91SOL    HW1  272   1.225   1.543   1.755  0.8479 -0.8799 -2.0009
   91SOL    HW2  273   1.349   1.463   1.666 -1.2431  3.0842 -2.1206
   92SOL     OW  274   0.070   0.970   1.147  0.2870 -0.0014 -0.1858
   92SOL    HW1  275   0.101   1.059   1.114 -1.0931 -1.8748  0.1483
   92SOL    HW2  276   0.083   0.960   1.246  0.0325  1.3168 -3.3156
   93SOL     OW  277   3.031   2.669   0.059 -0.3596  0.4559  0.2264
   93SOL    HW1  278   2.966   2.668  -0.024  1.7118 -1.2744 -0.4606
   93SOL    HW2  279   3.069   2.573   0.079 -0.6213  3.1381 -0.4318
   94SOL     OW  280   1.549   1.418   1.630  0.2373  0.5723 -0.5176
   94SOL    HW1  281   1.571   1.321   1.660  0.0162  3.5611  0.5183
   94SOL    HW2  282   1.638   1.465   1.601  0.2300  0.0056 -0.4691
   95SOL     OW  283   1.403   2.473   2.933  0.8708 -0.2284 -0.2493
   95SOL    HW1  284   1.319   2.482   2.990 -0.9811 -1.3881 -1.3613
   95SOL    HW2  285   1.405   2.390   2.870  1.8226  1.9146 -1.0724
   96SOL     OW  286   0.598   2.162   1.268  0.0374 -0.4206  0.1721
   96SOL    HW1  287   0.533   2.121   1.197  1.1904 -0.9430  0.2184
   96SOL    HW2  288   0.639   2.091   1.334  0.9710 -1.3874 -0.3567
   97SOL     OW  289   0.279   1.614   2.408  0.2477  0.4427  0.1600
   97SOL    HW1  290   0.241   1.709   2.406  0.2962 -3.1241  3.0312
   97SOL    HW2  291   0.274   1.564   2.499  1.1936 -1.7378 -2.4585
   98SOL     OW  292   2.269   1.676   1.218  0.3348  0.0373 -0.0874
   98SOL    HW1  293   2.253   1.575   1.190 -1.9258 -2.0847 -1.3453
   98SOL    HW2  294   2.360   1.704   1.178  0.2678  1.0917  0.8072
   99SOL     OW  295   2.625   2.084   1.257 -0.7041  0.2188  0.7494
   99SOL    HW1  296   2.686   2.124   1.326 -1.5554 -0.0106  0.0362
   99SOL    HW2  297   2.543   2.030   1.296  0.9369  1.6133 -3.0450
  100SOL     OW  298   2.337   0.387   2.116 -0.2332  0.0495  0.0877
  100SOL    HW1  299   2.283   0.381   2.206  1.0130  0.7310  3.3106
  100SOL    HW2  300   2.439   0.417   2.134  0.8619 -0.6584 -0.9917
  101SOL     OW  301   0.330   1.500   0.404  0.0382 -0.6907  0.3179
  101SOL    HW1  302   0.348   1.566   0.481  2.3268  1.7407  1.4809
  101SOL    HW2  303   0.414   1.494   0.345  3.6006 -2.0533  1.6198
  102SOL     OW  304   2.291   1.043   0.891 -0.0227 -0.1596  0.0785
  102SOL    HW1  305   2.285   0.939   0.891  0.6885  2.5256 -0.1001
  102SOL    HW2  306   2.347   1.072   0.811  1.5255  1.0362 -1.3486
  103SOL     OW  307   2.253   0.053   0.356 -0.1598  0.2676 -0.8040
  103SOL    HW1  308   2.262   0.144   0.310 -1.5023 -3.5923  1.8493
  103SOL    HW2  309   2.336   0.025   0.417  0.3445 -0.3084 -0.7183
  104SOL     OW  310   0.030   1.818   2.185  0.6943  0.2818 -0.0155
  104SOL    HW1  311   0.084   1.824   2.099  0.9207  0.0189 -0.7701
  104SOL    HW2  312  -0.072   1.836   2.158  0.0365 -1.6795  2.4090
  105SOL     OW  313   1.271   2.090   0.794 -0.3946 -0.0230  0.2675
  105SOL    HW1  314   1.195   2.091   0.721 -0.2035 -3.0181  1.0083
  105SOL    HW2  315   1.341   2.016   0.770  2.1572  3.4906 -1.1519
  106SOL     OW  316   2.134   0.403   1.446 -0.0779 -0.2377  0.3142
  106SOL    HW1  317   2.059   0.339   1.419 -0.3262 -0.5242  2.8068
  106SOL    HW2  318   2.132   0.434   1.544  0.7911  1.6768 -2.8094
  107SOL     OW  319   1.926   2.916   1.179  0.1940  0.1611  0.4142
  107SOL    HW1  320   1.864   2.981   1.232 -0.1559  3.5875  1.8118
  107SOL    HW2  321   1.873   2.838   1.136  2.1625 -0.5469 -0.6144
  108SOL     OW  322   0.906   2.777   1.077  0.0605  0.2480  0.1912
  108SOL    HW1  323   0.902   2.690   1.021  2.1396 -0.9121 -0.4906
  108SOL    HW2  324   0.991   2.776   1.134  0.9968  2.4444 -1.5297
  109SOL     OW  325   2.196   0.118   0.747 -0.0317 -0.1363  0.0534
  109SOL    HW1  326   2.146   0.044   0.695  0.0162 -1.9921 -0.3953
  109SOL    HW2  327   2.152   0.132   0.840  1.2006 -1.7399  0.2890
  110SOL     OW  328   0.503   2.831   2.769 -0.1864 -0.2392  1.1826
  110SOL    HW1  329   0.503   2.828   2.665  1.7722  1.5020  0.2496
  110SOL    HW2  330   0.553   2.748   2.810  0.0959 -3.2936  1.8169
  111SOL     OW  331   1.318   0.627   2.367  0.0292 -0.0578  0.1875
  111SOL    HW1  332   1.216   0.628   2.384 -1.5528  3.6629  0.8718
  111SOL    HW2  333   1.363   0.541   2.408 -1.0832 -0.2972  0.3498
  112SOL     OW  334   1.754   0.533   1.520  0.0433  0.0008  0.0277
  112SOL    HW1  335   1.705   0.548   1.426 -1.3870 -0.3625 -2.4582
  112SOL    HW2  336   1.698   0.564   1.604  1.5468 -0.2731 -3.3550
  113SOL     OW  337   2.273   1.690   1.775  0.2728  0.3061 -0.3010
  113SOL    HW1  338   2.325   1.606   1.748  1.9635 -0.2310 -1.1657
  113SOL    HW2  339   2.271   1.699   1.879  0.1621  0.5055 -1.8035
  114SOL     OW  340   0.307   0.435   1.175  0.5999  0.6679  0.1647
  114SOL    HW1  341   0.207   0.453   1.153 -0.9443 -0.2692  0.5973
  114SOL    HW2  342   0.367   0.502   1.128 -0.8020 -2.3486  2.4804
  115SOL     OW  343   2.701   1.568   1.270  0.3815  0.9592  0.1478
  115SOL    HW1  344   2.667   1.469   1.276 -0.1631  0.2086  1.9094
  115SOL    HW2  345   2.809   1.576   1.259  0.7055  1.5618 -0.9131
  116SOL     OW  346   1.885   0.928   0.657 -0.1341 -0.0501  0.1668
  116SOL    HW1  347   1.780   0.903   0.655 -2.0027  1.8065 -1.6238
  116SOL    HW2  348   1.904   1.032   0.656 -3.0137 -0.0669  3.4757
  117SOL     OW  349   1.105   0.373   0.542 -0.3830 -0.0441 -0.3389
  117SOL    HW1  350   1.167   0.452   0.546  0.2859  0.5282 -4.0300
  117SOL    HW2  351   1.083   0.354   0.441  0.7896  2.5121 -1.7501
  118SOL     OW  352   1.142   1.230   1.115 -0.2430 -0.3341  0.4198
  118SOL    HW1  353   1.139   1.223   1.217  1.4579 -1.6551  1.6590
  118SOL    HW2  354   1.197   1.318   1.083  0.5570  0.1541 -0.7851
  119SOL     OW  355   1.898   1.604   2.227  0.3735  0.5222  0.7644
  119SOL    HW1  356   1.841   1.678   2.183  1.1706 -2.5972 -2.1851
  119SOL    HW2  357   1.963   1.565   2.152  1.4503 -2.1450  0.9052
  120SOL     OW  358   2.978   2.814   0.296  0.2035  0.3371 -0.0906
  120SOL    HW1  359   2.994   2.753   0.212  0.4750 -2.4096  0.1989
  120SOL    HW2  360   2.876   2.810   0.328 -4.7297  0.2667 -0.9222
  121SOL     OW  361   2.005   0.794   2.328 -0.2432 -0.2456  0.3489
  121SOL    HW1  362   2.045   0.878   2.276 -1.9158 -2.3714 -1.4902
  121SOL    HW2  363   2.025   0.705   2.281  0.8479  0.4060  1.8464
  122SOL     OW  364   2.589   2.471   1.394 -0.6064 -0.0403  0.2118
  122SOL    HW1  365   2.654   2.403   1.350  0.2078 -3.1545  0.2365
  122SOL    HW2  366   2.569   2.446   1.494 -0.6278  0.0920  0.0989
  123SOL     OW  367   1.647   0.197   1.644  0.1724 -0.2840  0.3494
  123SOL    HW1  368   1.678   0.099   1.616  2.2557 -0.5427 -0.0018
  123SOL    HW2  369   1.726   0.249   1.686  0.7265  2.5817 -1.0598
  124SOL     OW  370   3.027   0.400   1.159 -0.3226  0.4583  0.4701
  124SOL    HW1  371   2.971   0.468   1.210 -1.1196 -0.4974 -0.9874
  124SOL    HW2  372   3.067   0.445   1.074  2.4334  2.2751 -1.2439
  125SOL     OW  373   0.919   1.934   0.725  0.2263 -0.1090  0.4113
  125SOL    HW1  374   0.996   1.872   0.762 -0.4818 -2.0420  0.0214
  125SOL    HW2  375   0.849   1.949   0.797  1.5616  0.2032 -3.2748
  126SOL     OW  376   1.915   2.280   2.424 -0.1766 -0.4813  0.7681
  126SOL    HW1  377   1.992   2.261   2.353  1.7846  1.8041 -1.2253
  126SOL    HW2  378   1.915   2.215   2.505 -0.1445 -1.6335  0.2755
  127SOL     OW  379   0.950   0.942   0.182  0.6707  0.1557  0.2311
  127SOL    HW1  380   0.973   0.975   0.280 -0.0825  0.6553 -0.1086
  127SOL    HW2  381   0.910   0.847   0.178  0.0136  0.2532 -0.5750
  128SOL     OW  382   0.893   0.183   1.396 -0.3832  0.0870  0.1477
  128SOL    HW1  383   0.871   0.263   1.332  1.8791 -0.1313  2.7272
  128SOL    HW2  384   0.843   0.091   1.379  1.4171  0.7755 -0.7752
  129SOL     OW  385   1.900   0.687   1.872  0.3174 -0.2840 -0.1008
  129SOL    HW1  386   1.929   0.703   1.776 -2.3619 -0.6908  2.3917
  129SOL    HW2  387   1.903   0.774   1.931 -0.9179  0.7955  1.0535
  130SOL     OW  388   1.396   2.190   1.017 -0.0807  0.4665 -0.4752
  130SOL    HW1  389   1.347   2.154   0.930 -0.7987 -1.1803 -1.4153
  130SOL    HW2  390   1.455   2.274   1.000 -0.4934  1.0169  0.6497
  131SOL     OW  391   3.045   1.390   1.413 -0.6325 -0.2035 -0.4426
  131SOL    HW1  392   3.008   1.296   1.429  1.3379  4.4462 -4.1497
  131SOL    HW2  393   3.149   1.389   1.407 -0.7021  2.9050 -0.6600
  132SOL     OW  394   2.042   2.437   0.550 -0.5780  0.0069 -0.3674
  132SOL    HW1  395   1.943   2.470   0.534  1.0652 -0.1467 -2.4203
  132SOL    HW2  396   2.052   2.366   0.620  1.1188  0.3713  0.7893
  133SOL     OW  397   1.748   2.483   2.711 -0.0353 -0.5390  0.0175
  133SOL    HW1  398   1.667   2.461   2.655  1.8523  0.6280  2.0561
  133SOL    HW2  399   1.739   2.572   2.763 -0.2126  1.4407 -2.3840
  134SOL     OW  400   2.578   2.404   1.663 -0.1598  0.2457 -0.0543
  134SOL    HW1  401   2.504   2.380   1.734  0.9301 -2.1666  3.7380
  134SOL    HW2  402   2.634   2.489   1.690  0.2852  1.7081  1.4508
  135SOL     OW  403   0.790   1.321   2.663 -0.2390 -0.0969 -0.3204
  135SOL    HW1  404   0.700   1.281   2.697 -1.4651  2.2221  2.4169
  135SOL    HW2  405   0.778   1.351   2.558 -2.9582  1.4337 -2.1524
  136SOL     OW  406   1.206   2.012   0.419  0.1033  0.3573 -0.1686
  136SOL    HW1  407   1.138   2.083   0.446  1.1985  0.4961  1.1923
  136SOL    HW2  408   1.167   1.918   0.427 -0.6149 -0.2419  0.5891
  137SOL     OW  409   0.456   1.150   2.263 -0.0530  0.2239 -0.4072
  137SOL    HW1  410   0.351   1.153   2.277  0.2830 -0.1588 -1.4621
  137SOL    HW2  411   0.496   1.057   2.292 -0.0190  2.1939  0.1544
  138SOL     OW  412   2.426   1.495   0.294 -0.2287  0.5688  0.3861
  138SOL    HW1  413   2.358   1.470   0.220 -3.1063  2.4103  3.2734
  138SOL    HW2  414   2.501   1.426   0.307  3.6625 -0.3233 -0.5773
  139SOL     OW  415   1.915   2.631   1.564  0.0707  0.0498 -0.5838
  139SOL    HW1  416   1.829   2.665   1.524  0.3033 -2.2821  1.0985
  139SOL    HW2  417   1.973   2.574   1.497  0.0938 -1.6603  0.3856
  140SOL     OW  418   3.044   3.016   2.641  0.0123  0.2229  0.2821
  140SOL    HW1  419   3.057   2.919   2.626 -2.6835 -0.3270 -1.3259
  140SOL    HW2  420   3.116   3.074   2.596 -0.2615  0.5532 -3.5812
  141SOL     OW  421   1.269   1.629   1.433 -0.0735 -0.5389 -0.1669
  141SOL    HW1  422   1.183   1.662   1.393 -0.5124  0.1787 -0.1415
  141SOL    HW2  423   1.257   1.585   1.528 -2.4581 -0.0122 -0.5702
  142SOL     OW  424   1.590   0.648   2.236  0.0212  0.4323 -0.3075
  142SOL    HW1  425   1.600   0.608   2.140  0.1694 -0.3394  1.4670
  142SOL    HW2  426   1.489   0.645   2.268 -0.0080 -2.0543  0.0630
  143SOL     OW  427   2.818   0.787   0.562  0.2882 -0.2592 -0.0183
  143SOL    HW1  428   2.843   0.862   0.491 -0.6623  0.7803  0.9082
  143SOL    HW2  429   2.819   0.824   0.659  0.0431 -0.3404  1.5231
  144SOL     OW  430   2.934   1.101   1.412  0.2184 -0.2451 -0.2851
  144SOL    HW1  431   2.895   1.080   1.504  3.1395 -0.8405  0.2731
  144SOL    HW2  432   3.027   1.052   1.403  0.0262  0.3499 -0.8485
  145SOL     OW  433   0.960   1.836   0.046 -0.0975  1.0095  0.1225
  145SOL    HW1  434   0.989   1.873  -0.045  0.3054 -1.3382  1.4086
  145SOL    HW2  435   0.868   1.791   0.041 -0.0633 -0.4354 -0.4129
  146SOL     OW  436   2.473   0.627   1.536 -0.8495  0.0939 -0.2052
  146SOL    HW1  437   2.448   0.526   1.506  0.4647 -2.9706 -0.6816
  146SOL    HW2  438   2.414   0.698   1.496  0.8463  0.4240  4.1731
  147SOL     OW  439   1.071   2.509   0.533 -0.7554 -0.4743 -0.2554
  147SOL    HW1  440   1.030   2.586   0.478 -1.3651 -2.1096 -0.3101
  147SOL    HW2  441   1.175   2.498   0.520  0.3007  1.0638 -3.1222
  148SOL     OW  442   1.571   1.394   0.001 -0.2000 -0.5876 -0.2356
  148SOL    HW1  443   1.607   1.296  -0.006 -1.6980 -0.3368  2.0884
  148SOL    HW2  444   1.564   1.419   0.103  0.2694  0.3954  2.5291
  149SOL     OW  445   0.697   1.466   1.984  0.2499 -0.0272 -0.6434
  149SOL    HW1  446   0.618   1.429   2.043 -0.8672  0.3363  0.3839
  149SOL    HW2  447   0.695   1.441   1.882  0.1954 -1.5285  1.0502
  150SOL     OW  448   2.947   1.220   1.009 -0.0409  0.3900 -0.1815
  150SOL    HW1  449   3.017   1.286   1.050 -0.8312 -1.3755 -0.0690
  150SOL    HW2  450   2.946   1.138   1.063  1.1328  0.4168 -0.7045
  151SOL     OW  451   0.142   0.830   2.112 -0.4630  0.0482  0.2439
  151SOL    HW1  452   0.159   0.924   2.073  0.7109 -0.5150 -0.6978
  151SOL    HW2  453   0.225   0.774   2.084  1.3020  0.5863 -0.4889
  152SOL     OW  454   1.424   1.876   1.112 -0.7264 -0.1273  0.1597
  152SOL    HW1  455   1.477   1.966   1.109  2.3488 -0.3400 -0.4075
  152SOL    HW2  456   1.319   1.893   1.102 -1.3450 -0.5190 -0.4663
  153SOL     OW  457   0.066   1.509   0.257  0.2340  0.1508 -0.4608
  153SOL    HW1  458  -0.021   1.450   0.256  0.2515 -0.2170  1.2507
  153SOL    HW2  459   0.086   1.567   0.340  0.0906  0.1688  1.2865
  154SOL     OW  460   2.256   1.879   2.790 -0.2958  0.3000  0.0364
  154SOL    HW1  461   2.254   1.778   2.767 -0.2481  2.6422  1.2538
  154SOL    HW2  462   2.341   1.917   2.747 -0.4033 -0.8133  1.8130
  155SOL     OW  463   2.628   1.344   0.358 -0.0568  0.3599  0.3269
  155SOL    HW1  464   2.645   1.424   0.422 -0.2921  0.6608 -1.9206
  155SOL    HW2  465   2.711   1.299   0.315  1.1283 -0.5687  0.2436
  156SOL     OW  466   2.517   0.816   0.759  0.3503 -0.0273 -0.7796
  156SOL    HW1  467   2.412   0.797   0.761 -0.9228  0.7869 -3.4991
  156SOL    HW2  468   2.545   0.856   0.663  0.3812 -1.8194 -0.1016
  157SOL     OW  469   1.223   0.004   3.022  0.0227  0.5191  0.3032
  157SOL    HW1  470   1.278  -0.053   2.951 -1.9287 -0.6789 -1.9307
  157SOL    HW2  471   1.269   0.089   3.061  1.8340  2.9714 -0.2004
  158SOL     OW  472   1.062   1.839   1.861 -0.6120 -1.0351  0.0492
  158SOL    HW1  473   1.123   1.925   1.853  0.1328 -0.2472 -0.9019
  158SOL    HW2  474   0.988   1.856   1.923  0.9282 -1.1923  1.5937
  159SOL     OW  475   0.806   0.370   1.201 -0.1130 -0.1059 -0.6366
  159SOL    HW1  476   0.771   0.465   1.227  3.2116 -0.1595 -1.1504
  159SOL    HW2  477   0.740   0.313   1.147  0.4523 -2.8217  1.3827
  160SOL     OW  478   1.375   2.466   1.442 -0.0532 -0.3113  0.2627
  160SOL    HW1  479   1.318   2.401   1.500  1.8317 -0.9666  2.6251
  160SOL    HW2  480   1.479   2.451   1.451  1.3996 -1.0860 -2.0139
  161SOL     OW  481   0.058   2.661   0.400  0.1860 -0.1057 -0.0840
  161SOL    HW1  482   0.012   2.566   0.402 -0.2170  1.5071  0.9749
  161SOL    HW2  483  -0.016   2.738   0.389  1.2912 -1.0693 -0.6041
  162SOL     OW  484   2.559   1.938   0.463  0.7197  0.0829 -0.0274
  162SOL    HW1  485   2.621   1.915   0.384  2.5491  0.2266  0.8633
  162SOL    HW2  486   2.505   1.861   0.497  0.2300  1.4081  1.8332
  163SOL     OW  487   1.909   2.694   0.815 -0.8371 -0.1403 -0.1502
  163SOL    HW1  488   1.861   2.713   0.725 -0.3156  1.2810 -0.6980
  163SOL    HW2  489   2.000   2.641   0.799  1.4212 -1.8800  1.5948
  164SOL     OW  490   3.037   0.151   1.247 -0.1205 -0.1740  0.1915
  164SOL    HW1  491   3.034   0.249   1.211 -1.7905  1.5817 -0.9278
  164SOL    HW2  492   3.110   0.127   1.318 -1.9064 -2.6698  0.8773
  165SOL     OW  493   1.103   1.393   0.650 -0.6457 -0.3291 -0.4064
  165SOL    HW1  494   1.067   1.453   0.729  2.2973 -1.7233  0.6279
  165SOL    HW2  495   1.064   1.426   0.560  0.9945 -0.9973 -0.8826
  166SOL     OW  496   1.555   0.925   1.816 -0.0825 -0.4067 -0.3319
  166SOL    HW1  497   1.463   0.971   1.845 -0.2776 -1.5759 -0.7937
  166SOL    HW2  498   1.633   0.992   1.794  0.3591  2.2491 -0.1078
  167SOL     OW  499   0.675   2.024   1.514 -0.2062  0.1150 -0.0259
  167SOL    HW1  500   0.641   2.097   1.580 -1.8228  0.7070  0.4578
  167SOL    HW2  501   0.632   1.933   1.539 -0.8612  0.9454  0.5772
  168SOL     OW  502   1.676   2.307   0.136  0.3980  0.3439  0.3539
  168SOL    HW1  503   1.754   2.295   0.068  2.6808 -1.6616 -0.8396
  168SOL    HW2  504   1.703   2.279   0.237 -0.1645 -0.8887  0.5803
  169SOL     OW  505   3.047   2.592   2.157  0.0718 -0.1879  0.2914
  169SOL    HW1  506   3.082   2.528   2.081  1.2336  1.4961 -2.6828
  169SOL    HW2  507   3.079   2.565   2.252  1.0033  0.5928  2.0231
  170SOL     OW  508   1.166   0.143   2.108 -0.3482  0.1478  0.1374
  170SOL    HW1  509   1.258   0.171   2.143  0.6647 -0.8240 -1.0460
  170SOL    HW2  510   1.158   0.161   2.007 -1.2112 -3.5802  1.6986
  171SOL     OW  511   0.177   0.875   2.439 -0.4925  0.3931  0.1809
  171SOL    HW1  512   0.079   0.874   2.469  0.9925  0.2631 -0.4461
  171SOL    HW2  513   0.180   0.912   2.342 -1.1277 -1.1059 -3.0209
  172SOL     OW  514   0.994   0.998   2.782 -0.0212  0.3786  0.2345
  172SOL    HW1  515   0.935   1.037   2.857  1.7883 -2.1641  1.3598
  172SOL    HW2  516   0.958   1.014   2.689  0.9395  1.9002  0.2412
  173SOL     OW  517   0.351   2.554   3.042 -0.6573  0.2485 -0.2889
  173SOL    HW1  518   0.328   2.517   2.949  0.2870 -0.9776  0.5683
  173SOL    HW2  519   0.398   2.483   3.097 -1.9958  0.0989 -2.7018
  174SOL     OW  520   1.460   2.857   0.984  0.0818  0.5436 -0.0399
  174SOL    HW1  521   1.553   2.888   0.944 -0.4779  0.2860 -0.3270
  174SOL    HW2  522   1.432   2.760   0.954  0.5769 -0.4528 -1.4931
  175SOL     OW  523   0.447   3.085   1.704 -0.6213  0.3690 -0.3575
  175SOL    HW1  524   0.512   3.093   1.785 -0.4557  0.4759  2.2652
  175SOL    HW2  525   0.423   3.171   1.650 -1.6405  1.3318 -0.7891
  176SOL     OW  526   2.529   0.481   0.055  0.0644 -0.4152  0.1004
  176SOL    HW1  527   2.580   0.571   0.079  0.5289 -0.4036 -0.4582
  176SOL    HW2  528   2.461   0.443   0.126 -0.6342 -0.9210  0.4440
  177SOL     OW  529   0.340   0.121   0.805 -0.6253 -0.6081  0.1267
  177SOL    HW1  530   0.315   0.038   0.858 -0.6097  2.0916 -3.6650
  177SOL    HW2  531   0.437   0.150   0.808 -1.4754 -2.6971 -0.5711
  178SOL     OW  532   0.012   2.712   2.630 -0.4685  0.1005 -0.5047
  178SOL    HW1  533  -0.017   2.614   2.640 -1.5525 -0.2871  0.1344
  178SOL    HW2  534   0.093   2.735   2.694  0.7123 -1.8529 -0.8127
  179SOL     OW  535   2.969   1.591   1.242  0.1647 -0.3706  0.2565
  179SOL    HW1  536   3.038   1.624   1.172 -0.8031 -0.1681 -0.5697
  179SOL    HW2  537   3.005   1.513   1.306  2.3349 -2.2018 -1.3687
  180SOL     OW  538   0.281   1.382   1.740 -0.0595 -0.3420 -0.1813
  180SOL    HW1  539   0.351   1.329   1.800  2.0267 -1.4036 -1.6191
  180SOL    HW2  540   0.224   1.442   1.795 -2.0721 -3.1530 -2.6436
  181SOL     OW  541   3.005   1.753   2.475  0.1936  0.0739 -0.5705
  181SOL    HW1  542   3.014   1.743   2.372  4.7100 -2.0335 -1.0493
  181SOL    HW2  543   2.925   1.815   2.507 -0.1738 -0.7307 -0.1748
  182SOL     OW  544   2.205   1.407   1.192  0.3428  0.1179  0.6239
  182SOL    HW1  545   2.209   1.325   1.252  1.0604 -1.1752  2.0363
  182SOL    HW2  546   2.217   1.379   1.090 -1.1315  1.3883  0.5921
  183SOL     OW  547   1.397   2.223   2.450 -0.4698  0.0465  0.2732
  183SOL    HW1  548   1.318   2.156   2.452 -0.7338 -2.2682  0.1783
  183SOL    HW2  549   1.492   2.176   2.445  1.5505  0.1768  1.4153
  184SOL     OW  550   2.234   0.787   0.821  0.3449  0.0757 -0.1359
  184SOL    HW1  551   2.141   0.801   0.785  0.5799 -1.7222 -0.5929
  184SOL    HW2  552   2.255   0.689   0.809 -0.0748  1.7165  1.0741
  185SOL     OW  553   1.583   2.737   2.022  0.2940  0.0029  0.1792
  185SOL    HW1  554   1.509   2.809   2.013  0.7016 -0.0394  0.8359
  185SOL    HW2  555   1.624   2.725   2.115  1.4227  1.6945 -1.4946
  186SOL     OW  556   0.012   2.142   1.804 -0.3241 -0.5769  0.1443
  186SOL    HW1  557   0.015   2.200   1.889 -0.4147  1.6170 -3.4377
  186SOL    HW2  558   0.111   2.142   1.773 -0.5524  2.9032  0.4795
  187SOL     OW  559   1.311   0.668   1.663 -0.5244 -0.5588  0.5755
  187SOL    HW1  560   1.397   0.691   1.608  0.7577  0.9375 -0.9388
  187SOL    HW2  561   1.327   0.593   1.736  1.2351  0.9130 -0.0600
  188SOL     OW  562   2.702   2.666   1.570  0.3330 -0.2198  0.1880
  188SOL    HW1  563   2.671   2.754   1.614  0.3714  1.0605  0.4368
  188SOL    HW2  564   2.645   2.639   1.484  1.1762 -0.6964 -0.0109
  189SOL     OW  565   0.867   1.155   1.406 -0.0341 -0.9850  0.3605
  189SOL    HW1  566   0.923   1.214   1.472  2.1839 -1.8117 -0.0219
  189SOL    HW2  567   0.838   1.211   1.323  0.7459  1.9913  1.9217
  190SOL     OW  568   1.417   1.839   1.519 -0.6038  0.0591  0.2562
  190SOL    HW1  569   1.370   1.746   1.498  1.8147  0.2825 -0.0561
  190SOL    HW2  570   1.413   1.856   1.622 -0.7208  2.2365  1.1176
  191SOL     OW  571   0.876   0.760   1.498 -0.2244 -0.1093 -0.0540
  191SOL    HW1  572   0.907   0.685   1.568  0.9198 -0.1732 -0.5714
  191SOL    HW2  573   0.963   0.790   1.449  1.2779 -0.6474 -0.1893
  192SOL     OW  574   1.838   2.432   1.129  0.0305 -0.0445  0.2187
  192SOL    HW1  575   1.743   2.384   1.119  1.8836 -2.5765 -1.2638
  192SOL    HW2  576   1.918   2.397   1.074 -2.1996 -2.0995  1.4128
  193SOL     OW  577   0.493   0.496   0.387 -0.0938 -0.2287 -0.0632
  193SOL    HW1  578   0.438   0.404   0.390  0.6451 -0.9160 -0.3506
  193SOL    HW2  579   0.564   0.493   0.308  1.0366  0.2445 -2.3168
  194SOL     OW  580   0.406   0.748   1.216  0.0127 -0.7558 -0.1787
  194SOL    HW1  581   0.306   0.725   1.223  2.8245 -0.8809 -1.5268
  194SOL    HW2  582   0.447   0.706   1.129  0.2340  0.4461 -1.3086
  195SOL     OW  583   1.028   2.922   0.516 -0.3113  0.5839  0.0648
  195SOL    HW1  584   0.997   2.851   0.445 -1.4962  0.5024 -0.7378
  195SOL    HW2  585   1.132   2.933   0.518  0.0774  1.1115 -0.2666
  196SOL     OW  586   0.211   1.364   1.354 -0.1164  0.3563  0.2250
  196SOL    HW1  587   0.225   1.455   1.401 -0.0467  1.7154 -2.0068
  196SOL    HW2  588   0.230   1.282   1.414  2.4124  1.6417  0.3510
  197SOL     OW  589   0.785   1.975   0.239  0.4779 -0.3447  0.0926
  197SOL    HW1  590   0.828   1.961   0.335  1.7132  2.2427  1.5585
  197SOL    HW2  591   0.858   1.961   0.167 -0.2844  2.3333  2.0818
  198SOL     OW  592   0.297   1.220   0.310  0.1417  0.1847  0.3413
  198SOL    HW1  593   0.215   1.156   0.292  0.6945 -0.8639 -1.3034
  198SOL    HW2  594   0.266   1.311   0.351 -1.6573 -0.0902 -1.2903
  199SOL     OW  595   2.263   0.406   2.645 -0.2409  0.1437 -0.3266
  199SOL    HW1  596   2.191   0.378   2.715 -1.0759  1.2417  2.3735
  199SOL    HW2  597   2.362   0.378   2.671  2.1001 -0.5539  0.3541
  200SOL     OW  598   3.072   2.889   0.756  0.2314 -0.0473 -0.4904
  200SOL    HW1  599   3.098   2.982   0.791 -0.5638  0.5584  0.2329
  200SOL    HW2  600   2.992   2.894   0.687 -2.7628  0.4629  2.1209
  201SOL     OW  601   0.942   0.660   0.507 -0.5884 -0.1664 -0.4913
  201SOL    HW1  602   0.932   0.747   0.572  0.5246  1.7324 -0.4616
  201SOL    HW2  603   0.860   0.597   0.502  0.9207  0.6675 -0.4930
  202SOL     OW  604   0.456   1.284   1.906 -0.0921  0.0672  0.0260
  202SOL    HW1  605   0.549   1.254   1.868  1.1267  0.9214 -0.4647
  202SOL    HW2  606   0.465   1.317   2.004 -0.9716  1.4263  0.1086
  203SOL     OW  607   0.632   0.176   1.577 -0.3303  0.3865  0.4936
  203SOL    HW1  608   0.669   0.125   1.492  0.9304  0.3335 -1.7641
  203SOL    HW2  609   0.692   0.166   1.663 -0.4139  0.9073  1.5169
  204SOL     OW  610   2.074   1.846   2.984 -0.2198 -0.0532  0.0680
  204SOL    HW1  611   2.033   1.753   2.974  2.7969 -0.1121 -2.2257
  204SOL    HW2  612   2.137   1.866   2.907  0.5444 -0.4390 -0.3499
  205SOL     OW  613   1.790   1.891   3.007 -0.6241  0.2895 -0.0457
  205SOL    HW1  614   1.895   1.880   2.992 -1.2837 -2.1204  1.7016
  205SOL    HW2  615   1.751   1.973   2.954  1.1984 -0.4098 -0.9782
  206SOL     OW  616   2.381   2.725   0.305  0.5389  0.0596 -0.1011
  206SOL    HW1  617   2.353   2.666   0.387  1.8735 -0.2375  1.8170
  206SOL    HW2  618   2.462   2.685   0.250  2.8004 -3.1760  0.8448
  207SOL     OW  619   0.719   1.737   2.908 -0.0696  0.8188  0.0840
  207SOL    HW1  620   0.799   1.679   2.872  1.6759  1.7079  2.2575
  207SOL    HW2  621   0.655   1.673   2.966 -0.6980 -1.3580 -0.8443
  208SOL     OW  622   1.030   1.582   1.215  0.0183  0.2624 -0.1498
  208SOL    HW1  623   0.970   1.615   1.134 -1.0160 -0.6831 -2.3090
  208SOL    HW2  624   0.983   1.579   1.306  0.4400  1.3053  0.8625
  209SOL     OW  625   0.240   1.014   3.065  0.3889 -0.2860 -0.0520
  209SOL    HW1  626   0.252   0.943   2.993  0.0383  1.5809  1.4153
  209SOL    HW2  627   0.230   0.985   3.166 -2.9544 -0.5336  1.0615
  210SOL     OW  628   1.738   0.634   1.251  0.4637  0.3844 -0.2984
  210SOL    HW1  629   1.720   0.712   1.190  1.7095  0.3965  0.1456
  210SOL    HW2  630   1.840   0.615   1.270  1.1091 -0.4284  2.0251
  211SOL     OW  631   2.111   1.126   1.586 -0.2716 -0.0757  0.3244
  211SOL    HW1  632   2.153   1.073   1.668 -1.8831 -4.0708  1.2292
  211SOL    HW2  633   2.172   1.191   1.541 -0.9093 -0.5048 -2.1233
  212SOL     OW  634   0.074   0.970   1.430 -0.5619 -0.4403 -0.0713
  212SOL    HW1  635   0.132   1.043   1.475 -1.2552  0.6536 -1.0580
  212SOL    HW2  636   0.120   0.878   1.439  0.9643  0.8475 -0.7761
  213SOL     OW  637   2.840   0.056   0.321  0.5047  0.0465  0.1464
  213SOL    HW1  638   2.937   0.020   0.302 -0.9725  1.2346 -3.3139
  213SOL    HW2  639   2.766   0.018   0.256  0.7798 -0.0556 -2.9772
  214SOL     OW  640   2.217   0.355   2.361  0.2863  0.1120 -0.0383
  214SOL    HW1  641   2.219   0.389   2.457 -2.0906 -1.5057  0.3065
  214SOL    HW2  642   2.180   0.256   2.362  0.2266 -2.4676  2.0333
  215SOL     OW  643   1.693   2.277   2.074  0.2094  0.2961  0.0597
  215SOL    HW1  644   1.794   2.311   2.082 -0.3327 -0.0447 -2.4638
  215SOL    HW2  645   1.621   2.352   2.073 -0.0457 -2.3804  0.5438
  216SOL     OW  646   2.295   0.526   0.772  0.0345  0.1378  0.3483
  216SOL    HW1  647   2.278   0.491   0.680 -0.2109 -1.8841  1.3876
  216SOL    HW2  648   2.395   0.517   0.798 -1.9287  1.2024 -0.9107
  217SOL     OW  649   0.896   2.692   2.571 -0.6095 -0.0904 -0.7062
  217SOL    HW1  650   0.921   2.640   2.658 -0.2685 -1.6617  3.2944
  217SOL    HW2  651   0.811   2.650   2.520 -0.4039  1.0778  0.4996
  218SOL     OW  652   1.848   1.399   0.019 -0.0373 -0.4865 -0.0729
  218SOL    HW1  653   1.749   1.413  -0.012 -2.4413  1.8320 -1.4835
  218SOL    HW2  654   1.857   1.316   0.080  0.3647 -1.2406  0.2615
  219SOL     OW  655   2.421   1.244   2.520  0.1339 -0.1487  0.4167
  219SOL    HW1  656   2.445   1.193   2.434 -1.6223 -1.4587 -0.3589
  219SOL    HW2  657   2.437   1.189   2.610 -1.0050  0.4688  2.9373
  220SOL     OW  658   1.438   1.069   1.402 -0.6466  0.3547  0.7430
  220SOL    HW1  659   1.532   1.034   1.415 -2.2717 -0.2130  1.7667
  220SOL    HW2  660   1.405   1.065   1.305  0.4272  0.9847  1.6849
  221SOL     OW  661   1.284   0.974   2.141 -0.5950  0.3811 -0.4996
  221SOL    HW1  662   1.292   0.998   2.035 -0.8134  0.1311 -2.6042
  221SOL    HW2  663   1.366   1.005   2.195 -0.2200  0.7888 -1.2823
  222SOL     OW  664   1.161   0.057   1.199 -0.1091 -0.0769  0.1266
  222SOL    HW1  665   1.165   0.087   1.298  1.0462  2.0947  0.4868
  222SOL    HW2  666   1.168   0.140   1.138 -1.8855 -0.2378 -0.5519
  223SOL     OW  667   2.730   0.964   2.138  0.0533 -0.4547  0.5765
  223SOL    HW1  668   2.685   1.037   2.195 -0.6889  0.8182 -0.6820
  223SOL    HW2  669   2.833   0.964   2.148  1.1087  1.3031  0.0235
  224SOL     OW  670   1.502   0.983   2.823  0.3842 -0.3173  0.2029
  224SOL    HW1  671   1.511   0.953   2.719 -1.3226 -0.1401 -1.6275
  224SOL    HW2  672   1.535   1.080   2.827  1.7777 -0.4821 -2.5191
  225SOL     OW  673   2.960   2.681   2.869 -0.1732  0.0134 -0.2522
  225SOL    HW1  674   2.876   2.690   2.803 -0.5468 -0.8516  0.3083
  225SOL    HW2  675   3.044   2.732   2.840  2.1134 -0.3622 -1.3429
  226SOL     OW  676   2.409   1.628   2.828 -0.1791 -0.5212  0.7472
  226SOL    HW1  677   2.443   1.593   2.734  0.1940 -1.9464 -2.1723
  226SOL    HW2  678   2.448   1.566   2.904  1.3768 -2.5226 -0.1266
  227SOL     OW  679   0.918   0.276   2.996 -0.3749 -0.3447 -0.3248
  227SOL    HW1  680   0.906   0.378   2.981 -3.2930  0.4650 -2.2815
  227SOL    HW2  681   0.877   0.212   2.926 -1.3316 -0.6534  0.2096
  228SOL     OW  682   2.413   0.671   2.906 -0.5163  0.0841  0.0572
  228SOL    HW1  683   2.454   0.718   2.825 -3.0351 -0.3893 -0.1521
  228SOL    HW2  684   2.457   0.582   2.931 -3.0306  2.5514  0.4124
  229SOL     OW  685   0.728   0.677   1.804  0.3280  0.2772 -0.6544
  229SOL    HW1  686   0.821   0.692   1.840  3.1031 -0.5255 -2.3046
  229SOL    HW2  687   0.716   0.590   1.749  2.4291  0.2329  0.6046
  230SOL     OW  688   1.894   1.217   1.923  0.7266 -0.4115  0.2692
  230SOL    HW1  689   1.959   1.275   1.868 -1.5008  0.2875  1.0163
  230SOL    HW2  690   1.855   1.273   2.006  1.6654  1.6552  3.1582
  231SOL     OW  691   0.667   1.030   0.018 -1.2987 -0.6446  0.3144
  231SOL    HW1  692   0.760   1.071   0.039  1.2904 -0.8374  1.1666
  231SOL    HW2  693   0.594   1.082   0.063  1.9967 -1.1733 -0.5541
  232SOL     OW  694   2.410   2.964   2.772 -0.4309 -0.0929  0.1874
  232SOL    HW1  695   2.465   2.902   2.836  0.3251 -0.5720 -0.5236
  232SOL    HW2  696   2.470   3.028   2.712  0.5962 -2.5552  0.8534
  233SOL     OW  697   1.802   1.116   1.185  0.2858 -0.3131  0.0179
  233SOL    HW1  698   1.829   1.171   1.101  1.5107 -1.3407  0.1136
  233SOL    HW2  699   1.879   1.057   1.221  0.8488  1.2975  1.0211
  234SOL     OW  700   1.648   2.523   1.839  0.2790  0.3861  0.3435
  234SOL    HW1  701   1.612   2.588   1.909  0.8277 -0.7270 -0.1071
  234SOL    HW2  702   1.594   2.439   1.833 -1.9972  1.1551  1.7918
  235SOL     OW  703   0.084   3.021   2.892  0.6216  0.2904  0.0664
  235SOL    HW1  704   0.026   3.023   2.807  1.9181 -0.7781 -0.5774
  235SOL    HW2  705   0.025   3.027   2.978  1.5843  1.0348  0.8877
  236SOL     OW  706   2.889   0.761   0.053 -0.3749  0.3988 -0.5732
  236SOL    HW1  707   2.949   0.798   0.130 -0.4999 -1.6532 -1.2952
  236SOL    HW2  708   2.929   0.670   0.012 -0.4279  1.5116  0.3166
  237SOL     OW  709   1.527   1.690   0.915 -0.2114 -0.4575 -0.3454
  237SOL    HW1  710   1.624   1.690   0.892 -3.0391  0.9475 -0.1650
  237SOL    HW2  711   1.500   1.755   0.994  0.6620  3.2499  1.0171
  238SOL     OW  712   1.920   1.201   0.725 -0.4793  0.2752 -0.3451
  238SOL    HW1  713   1.953   1.219   0.823 -0.1387  1.1077 -0.3442
  238SOL    HW2  714   1.822   1.220   0.715  2.1030  0.3328 -0.3549
  239SOL     OW  715   2.061   0.337   2.832  0.7330  0.1808 -0.3988
  239SOL    HW1  716   2.083   0.371   2.932 -0.4772  0.6748  1.9046
  239SOL    HW2  717   1.969   0.374   2.802  0.1209 -0.1995  0.0352
  240SOL     OW  718   0.906   0.677   0.222 -0.4460 -0.1961 -0.2022
  240SOL    HW1  719   0.989   0.642   0.167 -0.6366  1.6800  0.0170
  240SOL    HW2  720   0.925   0.704   0.321  1.4064  0.0682 -1.6982
  241SOL     OW  721   0.541   0.162   0.299  0.2163  0.0990 -0.2711
  241SOL    HW1  722   0.615   0.225   0.259 -2.0162 -0.1839 -2.0103
  241SOL    HW2  723   0.541   0.070   0.260 -0.4166  0.4197  0.7584
  242SOL     OW  724   0.611   2.615   1.272 -0.0156  0.3150  0.4124
  242SOL    HW1  725   0.590   2.574   1.361  1.4398 -1.2719  0.1806
  242SOL    HW2  726   0.617   2.719   1.266 -0.9921  2.3712 -0.4747
  243SOL     OW  727   1.044   0.591   2.397 -0.3827 -0.1183  0.0422
  243SOL    HW1  728   0.955   0.613   2.345 -0.4039  0.9450 -0.1339
  243SOL    HW2  729   1.026   0.526   2.480 -0.4450 -1.2954  2.4812
  244SOL     OW  730   2.793   1.920   2.398  0.4219 -0.7092 -0.4175
  244SOL    HW1  731   2.828   1.932   2.301 -0.8010 -0.2047 -0.6949
  244SOL    HW2  732   2.705   1.857   2.408  0.0993 -0.9070 -0.9297
  245SOL     OW  733   2.110   1.026   2.220  0.3092  0.3732 -0.5022
  245SOL    HW1  734   2.199   1.017   2.273  1.3964  1.5456 -1.3970
  245SOL    HW2  735   2.047   1.098   2.259  0.6224 -4.0578  1.4681
  246SOL     OW  736   0.256   2.925   1.824 -0.0452  0.5887  0.2047
  246SOL    HW1  737   0.173   2.894   1.766  0.8245 -1.3618 -1.1257
  246SOL    HW2  738   0.319   2.987   1.770 -0.3316 -4.8956 -0.7933
  247SOL     OW  739   2.208   0.587   3.079 -0.3538  0.1590  0.0036
  247SOL    HW1  740   2.284   0.601   3.009 -1.4835  0.2414  0.0127
  247SOL    HW2  741   2.134   0.655   3.062  2.1015  1.2921 -0.1801
  248SOL     OW  742   2.159   1.886   1.628  0.3048 -0.0863  0.2496
  248SOL    HW1  743   2.216   1.810   1.680 -1.2481 -0.3266 -1.7770
  248SOL    HW2  744   2.106   1.947   1.688  1.2892  0.5381  0.1916
  249SOL     OW  745   1.880   1.871   1.874 -0.0177 -0.5563  0.2520
  249SOL    HW1  746   1.874   1.814   1.782 -0.8094  2.4566 -1.1542
  249SOL    HW2  747   1.977   1.874   1.909 -0.2984 -2.2864 -0.7647
  250SOL     OW  748   1.045   0.693   1.861  0.3921 -0.3276  0.3066
  250SOL    HW1  749   1.089   0.652   1.942  2.5332 -1.2465 -2.5274
  250SOL    HW2  750   1.063   0.635   1.780  1.2858  0.7992  1.9419
  251SOL     OW  751   3.044   1.480   2.593 -0.4284 -0.3408 -0.6126
  251SOL    HW1  752   3.025   1.584   2.579 -0.9303  1.4027 -0.0706
  251SOL    HW2  753   2.968   1.426   2.544 -0.9210 -0.4179 -0.9240
  252SOL     OW  754   1.559   0.777   1.580  0.4996 -0.7362 -0.1775
  252SOL    HW1  755   1.619   0.804   1.500 -1.8219 -1.0070 -1.1772
  252SOL    HW2  756   1.559   0.837   1.665 -0.1876  0.9071 -0.1031
  253SOL     OW  757   0.964   1.465   0.429  0.8607 -0.2396 -0.6466
  253SOL    HW1  758   0.958   1.498   0.332 -1.3422  1.1797 -0.1401
  253SOL    HW2  759   0.891   1.500   0.490  0.6942 -0.7270  2.7997
  254SOL     OW  760   2.016   2.202   1.663  0.4935 -0.0626 -0.0439
  254SOL    HW1  761   1.957   2.132   1.620 -1.1524 -0.7587 -0.4560
  254SOL    HW2  762   1.958   2.275   1.713 -0.4685 -0.6665  1.7625
  255SOL     OW  763   0.062   1.211   2.958 -0.1529 -0.2406  0.1910
  255SOL    HW1  764   0.119   1.297   2.929 -0.4584 -2.3770  0.9954
  255SOL    HW2  765   0.125   1.127   2.985  0.1670 -4.2011  1.5236
  256SOL     OW  766   2.768   1.434   1.801  0.3352  0.3539  0.1101
  256SOL    HW1  767   2.745   1.452   1.901  1.0711 -0.7357 -1.1900
  256SOL    HW2  768   2.696   1.384   1.757 -0.4299  1.1113 -0.7431
  257SOL     OW  769   0.809   0.189   1.868 -0.3928  0.0232  0.1166
  257SOL    HW1  770   0.863   0.232   1.787  0.6943  0.4603  2.5074
  257SOL    HW2  771   0.857   0.105   1.906  3.1248 -4.8369 -0.4976
  258SOL     OW  772   2.960   1.176   0.515 -0.0230 -0.2449 -0.0276
  258SOL    HW1  773   2.871   1.195   0.564  0.7584  0.0934  1.0148
  258SOL    HW2  774   3.034   1.179   0.587  3.4259 -0.1402  1.0483
  259SOL     OW  775   0.441   2.958   3.029 -0.0047  0.2898 -0.1871
  259SOL    HW1  776   0.370   2.889   3.070 -0.1190 -0.9043 -0.1900
  259SOL    HW2  777   0.479   2.931   2.942 -0.1189  2.8165  1.7837
  260SOL     OW  778   2.702   0.692   2.784 -0.3913 -0.4105 -0.0189
  260SOL    HW1  779   2.624   0.741   2.728 -0.4403  3.0444  1.3023
  260SOL    HW2  780   2.688   0.594   2.818 -2.3572 -0.6125  0.4632
  261SOL     OW  781   2.687   1.267   1.293  0.8476 -0.0214 -0.5445
  261SOL    HW1  782   2.619   1.228   1.220  1.1597 -1.1591 -1.7727
  261SOL    HW2  783   2.751   1.190   1.326  0.6909 -1.3538  1.5583
  262SOL     OW  784   1.421   2.954   2.003 -0.0688  0.3415 -0.3970
  262SOL    HW1  785   1.451   3.037   1.946  0.4829  3.0114  1.7290
  262SOL    HW2  786   1.321   2.944   2.001  1.0272  2.1927  0.0228
  263SOL     OW  787   0.796   0.668   2.269  0.0913 -0.1609 -0.3732
  263SOL    HW1  788   0.724   0.596   2.242  0.6347 -0.8287 -1.3299
  263SOL    HW2  789   0.835   0.719   2.191  0.7163  3.0057 -2.8208
  264SOL     OW  790   2.274   0.820   0.450  0.2957  0.1502  0.4767
  264SOL    HW1  791   2.283   0.747   0.375 -2.4553  2.6852 -1.2002
  264SOL    HW2  792   2.360   0.872   0.476 -0.6902  0.3363 -0.5849
  265SOL     OW  793   0.862   2.309   2.634  0.3505 -0.0022  0.0541
  265SOL    HW1  794   0.844   2.329   2.733 -0.7784 -2.6491  0.9815
  265SOL    HW2  795   0.815   2.217   2.602  1.9130 -1.5292 -0.5538
  266SOL     OW  796   1.280   1.812   3.052  0.2217  0.1364  0.1330
  266SOL    HW1  797   1.279   1.883   3.129  0.2631  1.5843  1.7554
  266SOL    HW2  798   1.376   1.791   3.025  2.8078  0.1583  1.0969
  267SOL     OW  799   1.069   3.027   2.288  0.6547 -0.6991 -0.0823
  267SOL    HW1  800   1.015   2.969   2.226  1.2636  1.6411 -2.0303
  267SOL    HW2  801   1.081   3.113   2.240  0.5369  1.6622 -0.1845
  268SOL     OW  802   0.806   1.302   1.171 -1.0254 -0.1801  0.5047
  268SOL    HW1  803   0.737   1.379   1.183 -1.2624 -0.7336  0.9953
  268SOL    HW2  804   0.880   1.328   1.111 -0.9062  0.8036  2.7345
  269SOL     OW  805   2.324   2.521   1.609 -0.4837  0.0497  0.0579
  269SOL    HW1  806   2.421   2.488   1.632  1.6145 -2.9503  1.5523
  269SOL    HW2  807   2.254   2.501   1.685 -2.0813 -2.1338  2.1424
  270SOL     OW  808   0.116   3.048   2.004 -0.4914  0.0748 -0.0870
  270SOL    HW1  809   0.168   2.999   1.927  3.8593  1.7961 -2.0527
  270SOL    HW2  810   0.092   2.988   2.087  0.0467  1.6240 -0.8406
  271SOL     OW  811   0.386   1.419   1.112 -0.4405 -0.1798  0.3708
  271SOL    HW1  812   0.407   1.385   1.015  0.3745  0.8757  0.0769
  271SOL    HW2  813   0.343   1.354   1.175  0.9896  0.8641 -2.2035
  272SOL     OW  814   1.868   0.026   1.894 -0.0318 -0.2767  0.0029
  272SOL    HW1  815   1.826  -0.066   1.870  0.7087  1.1942 -1.5384
  272SOL    HW2  816   1.853   0.103   1.828  0.5970 -0.6997 -0.0897
  273SOL     OW  817   1.435   1.465   2.850 -0.1068  0.4367  0.0646
  273SOL    HW1  818   1.339   1.428   2.837  0.7551  0.8028 -1.4005
  273SOL    HW2  819   1.464   1.477   2.947  0.8927  2.2667 -0.6071
  274SOL     OW  820   1.177   0.566   2.088 -0.1563 -0.4344  0.3733
  274SOL    HW1  821   1.093   0.502   2.109 -2.0130 -4.0792 -0.0548
  274SOL    HW2  822   1.239   0.590   2.167 -0.2157 -1.2551  0.2856
  275SOL     OW  823   0.637   2.120   1.978  0.1810  0.7575 -0.1229
  275SOL    HW1  824   0.563   2.045   1.974  0.5204 -1.2579  0.4371
  275SOL    HW2  825   0.589   2.210   1.974 -1.7671 -0.5602  1.2631
  276SOL     OW  826   2.256   0.943   2.875 -0.4552 -0.1577  0.1542
  276SOL    HW1  827   2.156   0.945   2.847 -0.7063 -1.4237  1.9785
  276SOL    HW2  828   2.287   0.843   2.889 -0.0288 -1.2127  1.4167
  277SOL     OW  829   3.083   0.771   0.248 -0.2496  0.2729 -0.1826
  277SOL    HW1  830   3.179   0.799   0.220  0.0970  1.5119  1.3850
  277SOL    HW2  831   3.085   0.705   0.329  1.1984  0.6550  1.1975
  278SOL     OW  832   0.333   0.236   0.011  0.8258  0.1318 -0.1581
  278SOL    HW1  833   0.411   0.195  -0.044  0.6635  1.8639 -0.4255
  278SOL    HW2  834   0.325   0.342  -0.004 -1.1389  1.6559 -0.3018
  279SOL     OW  835   0.255   2.987   0.924 -0.3100  0.1615 -0.3668
  279SOL    HW1  836   0.266   2.947   1.022 -0.9043  0.2233  2.3364
  279SOL    HW2  837   0.264   2.917   0.848  0.2451 -1.8666  2.2724
  280SOL     OW  838   1.593   2.892   2.449  0.4073  0.0167  0.4546
  280SOL    HW1  839   1.651   2.967   2.490 -1.8228  1.2361 -1.9873
  280SOL    HW2  840   1.536   2.931   2.366  0.5455  0.3339 -0.5003
  281SOL     OW  841   0.590   0.941   2.360  0.8806  0.2712 -0.5241
  281SOL    HW1  842   0.554   0.881   2.279  0.7847 -1.0569 -1.4663
  281SOL    HW2  843   0.596   0.904   2.455  0.9486  1.2512 -0.2302
  282SOL     OW  844   1.780   2.461   0.534 -0.5442  0.2202  0.1290
  282SOL    HW1  845   1.741   2.382   0.473 -1.0197 -1.7892 -2.4405
  282SOL    HW2  846   1.709   2.539   0.541 -0.5891 -0.0115  1.2520
  283SOL     OW  847   1.172   0.926   0.782 -0.4256 -0.2282 -0.0188
  283SOL    HW1  848   1.167   0.872   0.872 -0.4262 -2.8971 -0.9252
  283SOL    HW2  849   1.124   1.017   0.784 -2.5775 -0.7478  1.5121
  284SOL     OW  850   2.253   2.834   2.456 -0.3393  0.1459  0.0901
  284SOL    HW1  851   2.345   2.849   2.410  1.2654  1.3532  0.9606
  284SOL    HW2  852   2.251   2.854   2.558 -2.5119 -2.1108  0.5884
  285SOL     OW  853   1.328   3.063   2.561  0.2409 -0.2393 -0.4080
  285SOL    HW1  854   1.365   3.054   2.461  2.4793  0.5307  0.5275
  285SOL    HW2  855   1.241   3.124   2.567 -1.9618  2.3876 -0.6734
  286SOL     OW  856   0.249   0.338   0.647 -0.3380 -0.6796  0.3717
  286SOL    HW1  857   0.249   0.249   0.707 -0.5406  1.9783 -0.8174
  286SOL    HW2  858   0.289   0.334   0.552  0.4066  1.0801 -1.0466
  287SOL     OW  859   0.105   1.249   2.517  0.2072 -0.0550 -0.1993
  287SOL    HW1  860   0.055   1.203   2.599 -0.0075  2.8852  0.3043
  287SOL    HW2  861   0.063   1.345   2.505 -1.8238  1.1196  0.8467
  288SOL     OW  862   1.510   2.680   1.645 -0.1217  0.3275  0.0624
  288SOL    HW1  863   1.547   2.620   1.715 -0.4446  0.6075 -1.1153
  288SOL    HW2  864   1.570   2.683   1.558  1.3895  1.7908  0.4103
  289SOL     OW  865   0.620   2.759   0.792 -1.1545 -0.6165  0.1065
  289SOL    HW1  866   0.689   2.811   0.728  1.6271 -0.2857 -0.3948
  289SOL    HW2  867   0.590   2.830   0.863  0.9910 -2.9844  2.6175
  290SOL     OW  868   2.834   1.101   1.686 -0.3419 -0.2328 -0.4426
  290SOL    HW1  869   2.745   1.046   1.696  0.8786 -0.2135  0.2861
  290SOL    HW2  870   2.883   1.111   1.776  0.2396 -1.0642  2.2644
  291SOL     OW  871   1.927   0.017   0.080  0.3197  0.2587  0.0300
  291SOL    HW1  872   1.963   0.031   0.176 -2.9535  0.1699  1.5527
  291SOL    HW2  873   1.996   0.019   0.003 -1.5101  0.2226  0.3318
  292SOL     OW  874   2.976   1.288   0.036 -0.3872 -0.0819  0.0658
  292SOL    HW1  875   2.885   1.288  -0.009 -1.6677 -0.2300  0.4063
  292SOL    HW2  876   3.057   1.267  -0.027  0.4456 -0.3748  3.1764
  293SOL     OW  877   0.517   2.062   0.248 -0.1745 -0.1737 -0.5442
  293SOL    HW1  878   0.487   2.117   0.329  1.4281  0.2985  0.6983
  293SOL    HW2  879   0.617   2.054   0.238 -0.4605 -0.7279 -2.1136
  294SOL     OW  880   1.875   2.358   1.819  0.2871  0.5014  0.0314
  294SOL    HW1  881   1.939   2.360   1.901 -0.4057  1.1777 -0.2661
  294SOL    HW2  882   1.799   2.430   1.831  0.4044  0.6114  0.3942
  295SOL     OW  883   0.955   1.029   0.459 -0.5247  0.7359 -0.1876
  295SOL    HW1  884   1.050   1.057   0.480 -0.0944 -1.3719 -2.0763
  295SOL    HW2  885   0.905   0.992   0.539 -0.8098  1.5610 -0.4819
  296SOL     OW  886   1.153   2.124   2.714 -0.1505 -0.1226 -0.5402
  296SOL    HW1  887   1.089   2.204   2.686 -0.1940  1.0826  2.0317
  296SOL    HW2  888   1.185   2.062   2.635  0.0324  0.7108 -3.2810
  297SOL     OW  889   1.321   0.599   1.236  0.4368  0.3703  0.1690
  297SOL    HW1  890   1.347   0.525   1.308 -0.7624 -2.3708 -1.0801
  297SOL    HW2  891   1.387   0.599   1.155  1.3276  1.3734 -1.3444
  298SOL     OW  892   0.473   1.331   2.959  0.1238  0.2503 -0.1437
  298SOL    HW1  893   0.457   1.269   3.037 -0.7326  0.9044  0.6558
  298SOL    HW2  894   0.506   1.276   2.873 -0.6686  0.0862 -0.8873
  299SOL     OW  895   0.417   0.188   1.244  0.5529  0.1505 -0.6252
  299SOL    HW1  896   0.383   0.271   1.185 -0.1770  1.6937 -0.5097
  299SOL    HW2  897   0.393   0.198   1.345  0.2353 -0.6513  3.3858
  300SOL     OW  898   1.264   1.783   2.584 -1.0479 -0.1759  0.5858
  300SOL    HW1  899   1.254   1.700   2.523 -1.8014  3.5020  0.7173
  300SOL    HW2  900   1.359   1.776   2.629  0.2473  1.6384  1.7138
  301SOL     OW  901   0.308   0.281   0.388  0.2862  0.4571 -0.0969
  301SOL    HW1  902   0.208   0.251   0.371  0.7117  2.1713 -2.8923
  301SOL    HW2  903   0.383   0.213   0.351 -1.3555 -1.5503  1.1948
  302SOL     OW  904   1.261   2.396   2.301  0.7342  0.0754  0.1903
  302SOL    HW1  905   1.166   2.392   2.345 -0.0970  1.2966 -0.9072
  302SOL    HW2  906   1.323   2.319   2.340 -2.5067 -2.2854 -1.0054
  303SOL     OW  907   0.878   2.456   0.739  0.4528 -0.3438 -0.4593
  303SOL    HW1  908   0.937   2.438   0.659 -0.5785  2.9662 -0.2584
  303SOL    HW2  909   0.908   2.541   0.792  0.3877  0.6835 -2.0768
  304SOL     OW  910   0.139   1.918   0.699 -0.0849 -0.0185 -0.1461
  304SOL    HW1  911   0.226   1.947   0.649 -2.5487  1.3963  0.4100
  304SOL    HW2  912   0.051   1.933   0.651 -1.2136 -0.2773 -0.2585
  305SOL     OW  913   1.659   0.773   0.681  0.2296 -0.3683  0.0373
  305SOL    HW1  914   1.565   0.752   0.642 -0.8903  0.5588 -0.9535
  305SOL    HW2  915   1.723   0.693   0.675  1.3266  0.3916 -0.4280
  306SOL     OW  916   0.427   1.923   1.992 -0.1382  0.3196  0.0544
  306SOL    HW1  917   0.497   1.847   1.972  1.4352  0.2795  1.8777
  306SOL    HW2  918   0.419   1.939   2.100  0.1962  1.2881  2.0833
  307SOL     OW  919   3.027   0.900   2.599 -0.1402  0.1486 -0.1096
  307SOL    HW1  920   3.038   0.997   2.642 -0.4032 -0.1673 -0.3667
  307SOL    HW2  921   3.053   0.822   2.667 -1.4827 -0.6528  2.5343
  308SOL     OW  922   1.484   2.717   2.806  0.4079  0.6467  0.0817
  308SOL    HW1  923   1.463   2.710   2.703  1.6186  0.8449  0.0404
  308SOL    HW2  924   1.437   2.642   2.859 -0.1382  3.6888 -0.6891
  309SOL     OW  925   1.147   0.203   1.818 -0.0225  0.1740 -0.2981
  309SOL    HW1  926   1.202   0.118   1.792  0.0587 -0.8421  1.9516
  309SOL    HW2  927   1.067   0.225   1.752  0.0874  1.3222 -0.2995
  310SOL     OW  928   1.406   2.576   0.656 -0.4566  0.1232  0.1588
  310SOL    HW1  929   1.415   2.595   0.757  0.1162 -1.3193 -0.9883
  310SOL    HW2  930   1.478   2.624   0.595 -0.0205  1.0421 -2.3914
  311SOL     OW  931   1.120   0.938   1.724  0.0708  0.0123 -0.2302
  311SOL    HW1  932   1.101   0.849   1.775 -0.6508 -2.1022 -2.5953
  311SOL    HW2  933   1.162   0.923   1.629 -1.4828  1.6649 -1.3663
  312SOL     OW  934   1.484   0.626   1.010  0.4178 -0.1575 -0.4456
  312SOL    HW1  935   1.555   0.702   0.997  2.2532  0.1561  0.5812
  312SOL    HW2  936   1.409   0.630   0.941 -1.7892  2.5022 -0.4706
  313SOL     OW  937   1.655   1.308   0.706  0.1834  0.7053 -0.1652
  313SOL    HW1  938   1.588   1.333   0.786 -2.5854 -2.7550 -0.9131
  313SOL    HW2  939   1.630   1.213   0.667 -1.0979  1.8468 -0.4798
  314SOL     OW  940   3.006   0.023   3.075 -0.6330 -0.1910  0.3980
  314SOL    HW1  941   3.023  -0.002   3.175 -1.9990 -0.4496 -1.7861
  314SOL    HW2  942   2.928  -0.034   3.034 -2.4571 -0.6748 -1.0394
  315SOL     OW  943   1.157   0.219   2.784 -0.8605  0.0296 -0.5379
  315SOL    HW1  944   1.105   0.176   2.703 -2.4870  1.4077 -3.4274
  315SOL    HW2  945   1.122   0.194   2.879 -2.1226  0.1668 -0.6674
  316SOL     OW  946   1.755   2.063   0.852  0.2964  0.3183 -0.1182
  316SOL    HW1  947   1.696   2.094   0.933  0.8986  0.6456  2.4193
  316SOL    HW2  948   1.796   2.145   0.805  1.2917 -2.4832  0.0269
  317SOL     OW  949   1.169   0.699   2.731 -0.3005 -0.4337  0.0220
  317SOL    HW1  950   1.136   0.745   2.819 -0.6479  0.2259  0.6486
  317SOL    HW2  951   1.111   0.615   2.704 -1.3912  0.0945  1.5839
  318SOL     OW  952   1.414   3.043   2.292  0.0539 -0.4477 -0.9296
  318SOL    HW1  953   1.422   3.141   2.260  0.8536 -0.5535  0.1997
  318SOL    HW2  954   1.406   2.984   2.211  0.6398 -0.6179  0.4279
  319SOL     OW  955   0.626   2.387   3.044  0.5330 -0.2939  0.4617
  319SOL    HW1  956   0.565   2.301   3.049  1.2813 -1.3422 -1.8480
  319SOL    HW2  957   0.725   2.367   3.016 -1.3968 -0.9174  0.4127
  320SOL     OW  958   1.705   2.237   0.409  0.0444 -0.6065 -0.3344
  320SOL    HW1  959   1.778   2.167   0.380  2.3647  0.5340  0.9895
  320SOL    HW2  960   1.609   2.196   0.415  0.7978 -0.1656 -1.3218
  321SOL     OW  961   1.608   2.704   0.511  0.2377 -0.0273 -0.0196
  321SOL    HW1  962   1.533   2.746   0.449 -2.6996  0.0614 -2.6116
  321SOL    HW2  963   1.693   2.760   0.522 -1.6258  0.7711  2.7569
  322SOL     OW  964   2.543   1.069   2.349 -0.0142 -0.7040  0.1971
  322SOL    HW1  965   2.619   1.051   2.421  2.4166  1.5981  2.2859
  322SOL    HW2  966   2.487   0.987   2.320  1.0062  0.4972  1.3284
  323SOL     OW  967   1.184   2.701   0.773  0.0954  0.0107  0.7213
  323SOL    HW1  968   1.188   2.642   0.688 -0.7605  1.9025  0.2957
  323SOL    HW2  969   1.154   2.792   0.749  4.3393 -1.1702  0.4715
  324SOL     OW  970   0.070   2.522   2.398 -0.0484  0.1005 -0.7642
  324SOL    HW1  971   0.012   2.474   2.470  1.7837 -0.4138  1.8041
  324SOL    HW2  972   0.126   2.596   2.440 -0.3359 -1.8385 -0.4451
  325SOL     OW  973   1.273   3.033   0.415 -0.7754  0.3322  0.0335
  325SOL    HW1  974   1.223   3.045   0.327  0.1221 -0.0181  3.0554
  325SOL    HW2  975   1.296   3.125   0.456 -1.2423 -1.0429 -0.0906
  326SOL     OW  976   2.468   0.873   0.031  0.7119 -0.6750  0.4497
  326SOL    HW1  977   2.381   0.853  -0.022  2.1787 -1.9447 -3.1757
  326SOL    HW2  978   2.525   0.792   0.063 -0.6262  1.8037 -0.1383
  327SOL     OW  979   2.846   0.187   0.568  0.1211  0.1343  0.4300
  327SOL    HW1  980   2.841   0.155   0.470  1.8845  0.0304  0.2153
  327SOL    HW2  981   2.872   0.114   0.635  1.6699 -0.9318 -1.0406
  328SOL     OW  982   2.657   0.592   0.407  0.1842 -0.2350  0.5610
  328SOL    HW1  983   2.703   0.648   0.479 -2.5673  1.7380 -0.6722
  328SOL    HW2  984   2.640   0.493   0.434  1.3077 -0.5531 -0.1194
  329SOL     OW  985   2.926   3.066   2.237 -0.0788  0.1057 -0.5995
  329SOL    HW1  986   3.003   3.000   2.263  1.4223  0.1822 -1.3867
  329SOL    HW2  987   2.963   3.158   2.206 -1.4295 -0.6324  0.5232
  330SOL     OW  988   0.585   0.340   2.015  0.8271  0.0164  0.2406
  330SOL    HW1  989   0.653   0.342   1.938  2.7804 -1.8428  2.0741
  330SOL    HW2  990   0.594   0.255   2.079  0.7607 -1.8127 -0.3940
  331SOL     OW  991   0.012   1.938   1.128  0.0942  0.0675 -0.1735
  331SOL    HW1  992  -0.037   1.952   1.037 -0.5459  0.6591  1.8363
  331SOL    HW2  993  -0.059   1.948   1.204  1.3736 -0.8660  1.2328
  332SOL     OW  994   0.446   1.147   0.109  0.4396 -0.0981 -0.2169
  332SOL    HW1  995   0.390   1.111   0.028  1.7642 -0.3372  0.7587
  332SOL    HW2  996   0.388   1.194   0.183 -0.2529  2.1022  0.6268
  333SOL     OW  997   2.908   0.959   0.379 -0.2340 -0.1096  0.1766
  333SOL    HW1  998   2.955   1.033   0.429  3.2193  1.1040  1.9841
  333SOL    HW2  999   2.971   0.897   0.317  0.6351 -5.1799 -0.0179
  334SOL     OW 1000   1.706   1.175   1.721 -0.2096  0.2033 -0.1873
  334SOL    HW1 1001   1.758   1.164   1.636 -1.8080  0.6662  0.4892
  334SOL    HW2 1002   1.755   1.201   1.807 -0.2778  0.4980  0.2062
  335SOL     OW 1003   1.946   2.757   2.604  0.1142  0.0940 -0.1355
  335SOL    HW1 1004   1.862   2.772   2.666 -0.8800  0.5326  0.8686
  335SOL    HW2 1005   2.030   2.793   2.649 -0.8055 -0.0686  1.1439
  336SOL     OW 1006   0.274   0.100   2.751 -0.4166 -0.3688  0.4884
  336SOL    HW1 1007   0.359   0.135   2.793  1.3904  0.0720  0.5503
  336SOL    HW2 1008   0.214   0.047   2.814  2.5846  0.2163  1.5960
  337SOL     OW 1009   0.782   2.798   3.046 -0.1826 -0.6134  0.0096
  337SOL    HW1 1010   0.858   2.725   3.068  3.2005 -4.9067 -1.5663
  337SOL    HW2 1011   0.737   2.840   3.124 -2.3029  0.0755 -1.6236
  338SOL     OW 1012   0.082   0.945   0.722  0.0328  0.3868  0.2783
  338SOL    HW1 1013  -0.014   0.915   0.745 -0.2911  1.4739 -1.1709
  338SOL    HW2 1014   0.085   1.050   0.736 -1.3423 -1.7672  0.6308
  339SOL     OW 1015   1.766   1.371   2.146 -0.2314 -0.0130  0.0096
  339SOL    HW1 1016   1.660   1.371   2.139 -1.6483 -0.2288  0.4262
  339SOL    HW2 1017   1.805   1.464   2.180  1.0740  1.2783 -2.0217
  340SOL     OW 1018   2.294   0.781   1.132  0.8086  0.3814  0.9163
  340SOL    HW1 1019   2.203   0.833   1.146  1.6672  2.2305  2.0391
  340SOL    HW2 1020   2.287   0.688   1.092  1.3960 -0.9860  1.9260
  341SOL     OW 1021   1.899   2.074   0.292  0.6895  0.1677 -0.0754
  341SOL    HW1 1022   1.945   2.120   0.206  2.2208 -0.4655 -1.1881
  341SOL    HW2 1023   1.966   2.021   0.355  0.0766 -1.2642  0.8573
  342SOL     OW 1024   2.137   2.130   2.766 -0.4534 -0.3085 -0.0256
  342SOL    HW1 1025   2.180   2.038   2.783 -0.1498  0.5115  0.5283
  342SOL    HW2 1026   2.038   2.123   2.734  1.2941  0.4536  0.9850
  343SOL     OW 1027   0.355   0.831   2.876 -0.2655 -0.1756 -0.0031
  343SOL    HW1 1028   0.356   0.882   2.785  0.7068  0.4803  1.8621
  343SOL    HW2 1029   0.446   0.857   2.926  2.4051 -0.4200 -1.8508
  344SOL     OW 1030   1.932   1.411   0.368 -0.1782 -0.5206  0.3647
  344SOL    HW1 1031   1.928   1.323   0.310 -1.1030  0.0343  2.2924
  344SOL    HW2 1032   1.843   1.442   0.413 -1.4096  0.2780  1.4282
  345SOL     OW 1033   1.396   2.186   2.845 -0.6597  0.0898 -0.3673
  345SOL    HW1 1034   1.300   2.167   2.806 -2.0344 -0.8378 -0.4490
  345SOL    HW2 1035   1.462   2.148   2.771  0.6856  1.4199 -2.1404
  346SOL     OW 1036   2.283   0.822   1.414  0.0524 -0.0633  0.6198
  346SOL    HW1 1037   2.189   0.855   1.446  0.9269 -1.1133 -0.2701
  346SOL    HW2 1038   2.297   0.830   1.310 -1.4078  1.5672  1.6856
  347SOL     OW 1039   0.712   2.798   1.704 -0.2668  0.1050  0.3325
  347SOL    HW1 1040   0.795   2.859   1.661  2.9474 -0.1770  0.0272
  347SOL    HW2 1041   0.616   2.830   1.680 -0.3860  1.3665 -1.8430
  348SOL     OW 1042   0.185   0.626   2.832  0.0849  0.2552  0.1353
  348SOL    HW1 1043   0.090   0.657   2.803 -1.2779 -0.3409  2.4265
  348SOL    HW2 1044   0.251   0.707   2.850  0.5619 -0.2986 -1.5632
  349SOL     OW 1045   1.796   0.421   2.825  0.1864  0.1511 -0.1273
  349SOL    HW1 1046   1.780   0.510   2.773  2.3974 -1.7830 -0.5006
  349SOL    HW2 1047   1.784   0.426   2.929  1.4942  1.3809 -0.5019
  350SOL     OW 1048   1.751   0.366   0.396  0.4373 -0.0202  0.4080
  350SOL    HW1 1049   1.822   0.324   0.456 -2.3643 -2.2784  3.9228
  350SOL    HW2 1050   1.777   0.454   0.359 -1.5662  0.7828 -2.2251
  351SOL     OW 1051   0.903   0.811   2.045  1.1296  0.4728 -0.7841
  351SOL    HW1 1052   0.924   0.917   2.055  1.0657  2.1719 -0.5437
  351SOL    HW2 1053   0.962   0.775   1.970  1.5116  0.3629  2.3277
  352SOL     OW 1054   2.084   1.457   0.585  0.3516  1.1086  0.2316
  352SOL    HW1 1055   2.043   1.465   0.488 -1.5562  0.7034 -1.3799
  352SOL    HW2 1056   2.007   1.429   0.652  0.9621 -1.4146  0.5565
  353SOL     OW 1057   2.176   2.713   1.155 -0.2077  0.5851  0.0005
  353SOL    HW1 1058   2.233   2.630   1.173 -0.2027 -0.2648  1.2117
  353SOL    HW2 1059   2.087   2.699   1.205  0.5552 -1.0093  1.1137
  354SOL     OW 1060   0.222   1.409   2.886  0.7767 -0.1088 -0.1519
  354SOL    HW1 1061   0.221   1.458   2.793 -1.1178  1.2106  0.8605
  354SOL    HW2 1062   0.319   1.391   2.913  0.1436  0.4495  1.2903
  355SOL     OW 1063   0.735   1.590   0.567  0.0553 -0.5149 -1.0904
  355SOL    HW1 1064   0.734   1.555   0.662  0.5639  1.1767 -1.7943
  355SOL    HW2 1065   0.693   1.520   0.503 -0.3450 -1.4738 -2.8098
  356SOL     OW 1066   1.000   0.361   2.088 -0.1522  0.2784 -0.1540
  356SOL    HW1 1067   1.060   0.281   2.116  0.2009 -1.2012 -1.2365
  356SOL    HW2 1068   0.935   0.341   2.009  1.6017 -0.7701 -2.4495
  357SOL     OW 1069   1.029   1.522   0.148  0.0222  0.4201  0.1642
  357SOL    HW1 1070   1.059   1.450   0.083 -1.5132  0.8856 -0.8957
  357SOL    HW2 1071   1.114   1.557   0.197  1.4271  2.1785  0.7532
  358SOL     OW 1072   1.681   1.491   0.464 -0.6689 -0.5430  0.4273
  358SOL    HW1 1073   1.680   1.440   0.554  0.1229  0.3773 -0.7849
  358SOL    HW2 1074   1.600   1.461   0.403 -1.3357 -0.3800  0.6565
  359SOL     OW 1075   1.624   2.580   0.190  0.1931  0.1877  0.1468
  359SOL    HW1 1076   1.631   2.483   0.152 -0.0774  0.7857 -3.2171
  359SOL    HW2 1077   1.530   2.605   0.225 -1.0600  2.2000 -1.9461
  360SOL     OW 1078   0.704   0.517   0.556 -0.1262  0.3754  0.1559
  360SOL    HW1 1079   0.608   0.519   0.506 -5.3795 -0.7147 -0.0313
  360SOL    HW2 1080   0.732   0.418   0.573 -1.5035 -3.1124  1.4150
  361SOL     OW 1081   1.358   1.309   0.575 -0.2680  0.5967 -0.3132
  361SOL    HW1 1082   1.404   1.332   0.664  0.8069 -0.1909 -1.9481
  361SOL    HW2 1083   1.268   1.351   0.567  2.1937 -1.4433 -0.3837
  362SOL     OW 1084   1.401   1.855   0.730 -0.6710  0.5468  0.0319
  362SOL    HW1 1085   1.414   1.773   0.794 -0.6133 -0.2858  1.3105
  362SOL    HW2 1086   1.495   1.877   0.687  1.4820 -0.3621  1.7593
  363SOL     OW 1087   1.254   1.317   1.923  0.1398 -0.2259  0.3852
  363SOL    HW1 1088   1.349   1.312   1.970  1.3868  1.0105  0.4911
  363SOL    HW2 1089   1.206   1.407   1.940 -0.0409  0.1528  0.4325
  364SOL     OW 1090   0.554   2.404   1.995 -0.0401  0.0902  0.4846
  364SOL    HW1 1091   0.452   2.418   1.990  0.3271  0.0300 -1.3781
  364SOL    HW2 1092   0.610   2.492   1.991  1.1791  1.5248  2.7323
  365SOL     OW 1093   0.918   1.954   1.416  0.2057  0.3227 -0.2711
  365SOL    HW1 1094   0.826   1.980   1.461  0.3851 -1.7781 -1.3419
  365SOL    HW2 1095   0.930   1.991   1.319 -3.2085 -0.1508 -1.3978
  366SOL     OW 1096   2.705   1.863   0.259 -0.9024 -0.7317  0.0871
  366SOL    HW1 1097   2.625   1.813   0.213 -2.8741 -0.8274 -0.0001
  366SOL    HW2 1098   2.785   1.795   0.275  0.4840  0.3484 -0.2025
  367SOL     OW 1099   0.937   1.094   3.045  0.3479  0.5125  0.4350
  367SOL    HW1 1100   0.961   1.033   3.126  3.3240 -1.1352 -0.6895
  367SOL    HW2 1101   0.975   1.192   3.047 -0.1877  1.0372 -1.1520
  368SOL     OW 1102   1.468   0.474   0.495 -0.1683  0.0315  0.0334
  368SOL    HW1 1103   1.405   0.427   0.426  2.3511 -0.6579  0.0140
  368SOL    HW2 1104   1.560   0.507   0.468 -1.1991 -0.0404  0.5363
  369SOL     OW 1105   0.308   1.622   0.142  0.0381  0.2320 -0.4253
  369SOL    HW1 1106   0.378   1.674   0.193 -0.6556 -1.8444  0.2066
  369SOL    HW2 1107   0.257   1.551   0.202 -1.9197 -2.1861  0.6666
  370SOL     OW 1108   0.448   2.125   1.018  0.6677 -0.0484 -0.2775
  370SOL    HW1 1109   0.464   2.224   1.041 -1.8481  1.7842  1.3573
  370SOL    HW2 1110   0.354   2.111   0.979  1.0983 -1.7631  1.0403
  371SOL     OW 1111   2.912   2.160   2.678  0.2035  0.7278  0.2359
  371SOL    HW1 1112   2.987   2.081   2.683  1.1173 -0.4657 -2.7906
  371SOL    HW2 1113   2.931   2.237   2.747  2.6015 -0.9523  0.9764
  372SOL     OW 1114   0.970   2.119   1.133 -0.1624  1.0322 -0.4988
  372SOL    HW1 1115   0.917   2.191   1.077 -1.6378  2.4682 -1.7566
  372SOL    HW2 1116   1.067   2.152   1.156 -1.1976  0.5090 -2.6602
  373SOL     OW 1117   1.909   1.857   1.009  0.2769 -0.1453 -0.8377
  373SOL    HW1 1118   2.003   1.903   1.026  2.3576  2.8420 -2.0459
  373SOL    HW2 1119   1.846   1.930   0.969  0.4218 -0.6481  0.4712
  374SOL     OW 1120   1.952   0.274   0.566  0.5866  0.0592  0.4046
  374SOL    HW1 1121   1.919   0.263   0.668 -1.8941 -0.4076  0.4643
  374SOL    HW2 1122   2.046   0.306   0.550  0.4133 -0.6795  1.5144
  375SOL     OW 1123   2.418   2.123   1.086 -0.4189 -0.6058 -0.6366
  375SOL    HW1 1124   2.428   2.074   0.996 -0.5704 -1.1423 -0.9551
  375SOL    HW2 1125   2.507   2.138   1.130 -2.1225 -0.8184 -3.2087
  376SOL     OW 1126   3.079   0.600   1.461  0.4783 -0.1292  0.2612
  376SOL    HW1 1127   3.095   0.639   1.560  0.1151 -0.8403  3.1092
  376SOL    HW2 1128   3.007   0.524   1.470  1.1661 -0.6687  0.4276
  377SOL     OW 1129   2.272   2.940   0.159  0.4667  0.1289 -0.1100
  377SOL    HW1 1130   2.275   3.030   0.210 -2.0080  1.2906  0.2464
  377SOL    HW2 1131   2.325   2.862   0.205 -0.0476 -0.5591  0.0038
  378SOL     OW 1132   1.905   1.896   2.491  0.1017 -0.1847 -0.2139
  378SOL    HW1 1133   2.002   1.858   2.475  0.2416 -1.2697 -1.0420
  378SOL    HW2 1134   1.831   1.832   2.451 -0.9659 -0.2499 -1.6285
  379SOL     OW 1135   0.797   0.164   2.777  0.4241  0.3039  0.4216
  379SOL    HW1 1136   0.821   0.065   2.752  0.4496  2.2067  1.1242
  379SOL    HW2 1137   0.779   0.218   2.693 -0.5529 -2.2491  4.1981
  380SOL     OW 1138   1.538   1.098   0.570 -0.5435 -0.0429  0.3627
  380SOL    HW1 1139   1.462   1.166   0.553 -1.9577 -0.3026 -0.0760
  380SOL    HW2 1140   1.515   0.997   0.550  0.5801  1.8288 -1.3455
  381SOL     OW 1141   1.271   1.276   1.437  0.3374 -0.4025  0.0938
  381SOL    HW1 1142   1.329   1.191   1.431  1.5189  3.1365 -1.6106
  381SOL    HW2 1143   1.322   1.361   1.414 -0.4476  0.4895 -2.7736
  382SOL     OW 1144   1.808   0.843   0.268  0.1252 -0.2223 -0.4280
  382SOL    HW1 1145   1.810   0.803   0.173  2.1195  0.6028  1.2748
  382SOL    HW2 1146   1.892   0.823   0.322 -1.6680 -2.9967  0.2898
  383SOL     OW 1147   2.504   0.979   1.470  0.3471 -0.6472 -0.0138
  383SOL    HW1 1148   2.418   0.930   1.437 -0.4814  2.9190 -1.0187
  383SOL    HW2 1149   2.576   0.977   1.400  1.3492  1.4902 -0.7025
  384SOL     OW 1150   0.959   2.274   0.235 -0.2505 -0.5322 -0.5867
  384SOL    HW1 1151   0.870   2.330   0.249  1.0410  0.8744 -0.8825
  384SOL    HW2 1152   1.021   2.261   0.319  1.3538  2.1393  1.2293
  385SOL     OW 1153   2.902   2.029   1.622 -0.1945 -0.4602  0.1481
  385SOL    HW1 1154   2.985   2.068   1.667 -0.4413  0.1420  2.9836
  385SOL    HW2 1155   2.876   1.934   1.653 -0.0626  0.7171 -0.8163
  386SOL     OW 1156   0.492   1.033   0.466  0.4155 -0.2816 -0.4540
  386SOL    HW1 1157   0.503   0.929   0.463  1.3498  0.5194 -2.3358
  386SOL    HW2 1158   0.446   1.077   0.387 -1.7200 -0.5775 -3.4248
  387SOL     OW 1159   0.955   0.268   1.640  0.0488  0.2997  0.4328
  387SOL    HW1 1160   0.987   0.368   1.630 -1.5189  0.8327  0.0301
  387SOL    HW2 1161   0.916   0.237   1.547  1.8568 -3.9464 -0.9196
  388SOL     OW 1162   1.238   2.738   1.804  0.4443 -0.3484  0.3568
  388SOL    HW1 1163   1.297   2.743   1.718  0.5067  2.2419 -1.1359
  388SOL    HW2 1164   1.256   2.648   1.855  2.0468 -0.4165  0.3069
  389SOL     OW 1165   0.123   2.929   1.347 -0.3029  0.1563  0.4238
  389SOL    HW1 1166   0.037   2.958   1.292 -2.3322 -0.0968 -1.5979
  389SOL    HW2 1167   0.136   2.824   1.348 -0.7510 -1.2523  0.2572
  390SOL     OW 1168   1.035   0.959   1.354  0.0981 -0.4721 -0.1101
  390SOL    HW1 1169   1.116   0.944   1.422 -0.6697  2.3973 -0.3136
  390SOL    HW2 1170   0.971   1.041   1.377 -1.9125 -2.4356  1.8985
  391SOL     OW 1171   2.145   1.113   1.121  0.0545 -0.4597 -0.3369
  391SOL    HW1 1172   2.109   1.026   1.168  2.9749 -3.1695 -0.0100
  391SOL    HW2 1173   2.223   1.092   1.056  1.7675 -1.0054  0.3621
  392SOL     OW 1174   0.916   2.594   0.043  0.5492 -0.3069 -0.3206
  392SOL    HW1 1175   1.012   2.567   0.030 -0.5730 -0.4703 -0.9364
  392SOL    HW2 1176   0.861   2.523   0.100 -0.7667  0.0548 -0.3294
  393SOL     OW 1177   0.335   0.677   1.948  0.2903  0.2029 -0.0044
  393SOL    HW1 1178   0.317   0.574   1.963 -1.3595 -0.7226  0.4028
  393SOL    HW2 1179   0.342   0.703   1.850  1.1848  1.4205 -0.7615
  394SOL     OW 1180   3.089   1.930   2.699  0.1938  0.2329 -0.0587
  394SOL    HW1 1181   3.138   1.869   2.769  1.3011 -1.3358  0.5998
  394SOL    HW2 1182   3.074   1.887   2.602  3.2256 -0.3836  0.8115
  395SOL     OW 1183   1.633   1.970   0.629  0.1028 -0.3696 -0.1306
  395SOL    HW1 1184   1.679   1.895   0.578  3.0072  1.2413  0.5924
  395SOL    HW2 1185   1.691   2.004   0.711  0.0704  1.1269  1.6044
  396SOL     OW 1186   2.906   1.906   1.317 -0.1502  0.6229  0.3181
  396SOL    HW1 1187   2.885   1.814   1.275  0.6187  0.9081  0.7594
  396SOL    HW2 1188   2.925   1.899   1.420  0.9951 -0.2528  3.5662
  397SOL     OW 1189   1.051   2.227   0.486  0.1603  0.4564  0.0512
  397SOL    HW1 1190   0.956   2.194   0.518 -1.0819 -1.0934  1.4815
  397SOL    HW2 1191   1.065   2.330   0.493  1.1628 -0.2924 -1.7759
  398SOL     OW 1192   2.187   3.055   1.175 -0.4342  0.6648  0.1001
  398SOL    HW1 1193   2.107   2.993   1.194 -0.5552 -2.1054  1.5042
  398SOL    HW2 1194   2.157   3.147   1.139  1.4077 -0.2442 -1.7630
  399SOL     OW 1195   3.063   2.424   2.637  0.1516 -0.9641 -0.2922
  399SOL    HW1 1196   2.997   2.351   2.602  1.6813 -0.2534 -0.8279
  399SOL    HW2 1197   3.132   2.385   2.702  1.4895  2.4486  1.2849
  400SOL     OW 1198   0.659   1.743   1.355  0.3010  0.2222  0.2633
  400SOL    HW1 1199   0.617   1.755   1.451  0.5715  0.5784  1.9262
  400SOL    HW2 1200   0.728   1.815   1.329  2.4405  2.0898  2.6159
  401SOL     OW 1201   1.852   0.307   1.145  0.4370  0.1973 -0.1348
  401SOL    HW1 1202   1.831   0.308   1.246  0.3271 -1.4593 -2.4223
  401SOL    HW2 1203   1.764   0.341   1.094 -0.9199  1.0931  0.7436
  402SOL     OW 1204   1.338   0.242   3.086 -0.3358 -0.1860  0.0090
  402SOL    HW1 1205   1.419   0.218   3.027 -1.3407 -1.7126 -0.6495
  402SOL    HW2 1206   1.303   0.335   3.058  0.2045  0.7763 -1.4634
  403SOL     OW 1207   2.213   1.885   0.812 -0.1405 -0.0172  0.2122
  403SOL    HW1 1208   2.313   1.868   0.789 -1.4042  0.0648  0.9002
  403SOL    HW2 1209   2.190   1.930   0.900 -3.1783 -1.7416 -2.5253
  404SOL     OW 1210   0.294   2.487   2.760  0.5617  0.3625  0.4192
  404SOL    HW1 1211   0.361   2.443   2.691  0.1853  1.8251 -1.4476
  404SOL    HW2 1212   0.278   2.589   2.738 -1.9618  2.4659 -0.8316
  405SOL     OW 1213   0.154   2.407   0.687  0.3021  0.5669 -0.9905
  405SOL    HW1 1214   0.152   2.325   0.634 -0.3962  3.5582 -0.0439
  405SOL    HW2 1215   0.236   2.468   0.675  1.0613 -0.7910 -1.9576
  406SOL     OW 1216   0.053   1.553   3.048  0.1246  0.0652 -0.1956
  406SOL    HW1 1217   0.111   1.514   2.975 -0.7459  0.1626  2.0222
  406SOL    HW2 1218   0.088   1.533   3.144  2.9122  1.1558 -1.3789
  407SOL     OW 1219   1.618   0.868   0.958 -0.0100 -0.2951 -0.1007
  407SOL    HW1 1220   1.619   0.860   0.853 -0.1016 -2.1675  1.0962
  407SOL    HW2 1221   1.552   0.941   0.997 -2.3578 -0.4287  0.5449
  408SOL     OW 1222   1.575   2.385   0.982  0.5861  0.7264  0.1973
  408SOL    HW1 1223   1.652   2.391   0.912  1.2229  0.6144  0.3946
  408SOL    HW2 1224   1.511   2.470   0.983 -1.7527  2.2625 -1.1676
  409SOL     OW 1225   0.603   0.828   0.687 -0.2863 -0.2294 -0.5901
  409SOL    HW1 1226   0.551   0.770   0.616 -0.4592 -1.0940 -0.7064
  409SOL    HW2 1227   0.619   0.771   0.772  1.0813 -2.9489  1.1839
  410SOL     OW 1228   1.192   2.029   1.431 -0.4731  0.1626 -0.0467
  410SOL    HW1 1229   1.245   1.942   1.468  0.9111 -1.2620 -0.2170
  410SOL    HW2 1230   1.091   2.012   1.438 -1.0135 -0.2253  2.5876
  411SOL     OW 1231   2.531   1.826   3.013  0.2569 -0.0165 -0.2455
  411SOL    HW1 1232   2.607   1.897   2.997  1.0580 -1.0541 -0.7158
  411SOL    HW2 1233   2.486   1.784   2.929  1.4923 -2.3683  0.3146
  412SOL     OW 1234   1.496   2.450   2.167 -0.2411 -0.0780  0.1939
  412SOL    HW1 1235   1.568   2.470   2.238  0.5913  2.2452  0.4776
  412SOL    HW2 1236   1.402   2.438   2.210  0.6116 -0.1117  2.3717
  413SOL     OW 1237   0.035   0.255   3.030  0.4009  0.2689 -0.1904
  413SOL    HW1 1238  -0.025   0.167   3.034  1.4595 -1.0134 -2.4454
  413SOL    HW2 1239   0.135   0.233   3.057 -1.6556  2.1770  0.5816
  414SOL     OW 1240   1.732   1.527   1.134 -0.0853  0.3080 -0.0059
  414SOL    HW1 1241   1.686   1.615   1.168 -0.9299 -0.0960  1.4060
  414SOL    HW2 1242   1.747   1.524   1.031  0.0504 -0.6633 -3.0824
  415SOL     OW 1243   0.373   2.168   0.655  0.5125  0.4217 -0.3116
  415SOL    HW1 1244   0.356   2.192   0.749  0.4693 -1.5352 -0.8918
  415SOL    HW2 1245   0.296   2.173   0.588  0.8206  0.9567  2.9923
  416SOL     OW 1246   0.357   1.101   1.076 -0.2133 -0.0763 -0.4031
  416SOL    HW1 1247   0.330   1.008   1.047  0.2489 -0.2126  1.7947
  416SOL    HW2 1248   0.451   1.126   1.045  0.3141 -0.7273  0.3629
  417SOL     OW 1249   2.352   2.437   2.120 -0.3790 -0.1972  0.1139
  417SOL    HW1 1250   2.396   2.342   2.112 -1.8001  1.9929  0.0869
  417SOL    HW2 1251   2.298   2.447   2.208  0.4019 -1.7879 -1.8520
  418SOL     OW 1252   1.034   0.529   1.326 -0.1986 -0.0465  0.1368
  418SOL    HW1 1253   0.972   0.496   1.250  2.5026  0.1619  0.4235
  418SOL    HW2 1254   1.127   0.547   1.291 -1.3895  0.2884  0.1004
  419SOL     OW 1255   0.881   0.557   2.961  0.3980  0.3281 -0.1472
  419SOL    HW1 1256   0.795   0.617   2.956 -1.6846  3.4570  2.5095
  419SOL    HW2 1257   0.967   0.609   2.986 -0.8255  1.9235 -0.6133
  420SOL     OW 1258   0.116   2.187   0.522 -0.7078 -0.0566  0.3584
  420SOL    HW1 1259   0.133   2.193   0.423 -0.0446  2.3770  2.7729
  420SOL    HW2 1260   0.038   2.130   0.542  1.0280  0.0712 -2.6286
  421SOL     OW 1261   0.318   2.970   0.536  0.3659  0.0673  0.1434
  421SOL    HW1 1262   0.294   2.917   0.620 -0.3890  1.6981  1.3551
  421SOL    HW2 1263   0.407   3.023   0.547  0.7138 -0.3606 -0.7093
  422SOL     OW 1264   1.013   2.563   0.944 -0.0526  0.0772 -0.0893
  422SOL    HW1 1265   1.069   2.627   0.885  0.9706 -0.8882  0.2258
  422SOL    HW2 1266   1.064   2.544   1.031 -1.9478  0.3940 -1.9437
  423SOL     OW 1267   0.142   0.710   1.254  0.2845 -0.5301 -0.2858
  423SOL    HW1 1268   0.086   0.643   1.311  0.0705 -2.1158 -1.0709
  423SOL    HW2 1269   0.087   0.779   1.204  0.1056 -4.2306  1.8401
  424SOL     OW 1270   1.130   2.211   2.042 -0.2516 -0.3721 -0.3231
  424SOL    HW1 1271   1.100   2.306   2.014  2.0124  0.4574 -0.3009
  424SOL    HW2 1272   1.072   2.163   2.115  1.5124 -1.6462  0.6638
  425SOL     OW 1273   1.928   1.291   0.993 -0.1252 -0.6296  0.2501
  425SOL    HW1 1274   1.998   1.254   1.057  1.4065  0.4406  0.2609
  425SOL    HW2 1275   1.949   1.384   0.954  2.1060 -0.5006  2.9299
  426SOL     OW 1276   1.463   1.613   1.226  0.0321  0.7310  0.4981
  426SOL    HW1 1277   1.464   1.713   1.209  2.7407 -0.1992 -1.7153
  426SOL    HW2 1278   1.404   1.589   1.307  0.1717  0.7168  2.5903
  427SOL     OW 1279   1.938   2.407   2.088 -0.1547  0.3277 -0.1573
  427SOL    HW1 1280   2.009   2.352   2.139  0.3189  1.0963  0.4443
  427SOL    HW2 1281   1.946   2.516   2.097  0.9304  2.1410  0.3992
  428SOL     OW 1282   0.873   0.055   0.059 -0.0776 -0.4002 -0.6187
  428SOL    HW1 1283   0.883   0.136  -0.007 -0.1188  0.4170 -0.4362
  428SOL    HW2 1284   0.959   0.015   0.094 -0.1181 -1.2676 -3.0155
  429SOL     OW 1285   1.294   0.165   0.246 -0.4954  0.1002 -0.1241
  429SOL    HW1 1286   1.386   0.139   0.294  3.0368 -0.1135 -0.9210
  429SOL    HW2 1287   1.312   0.182   0.147  0.3832  0.0347 -1.7397
  430SOL     OW 1288   2.889   1.391   0.278  0.8258  0.2913 -0.1861
  430SOL    HW1 1289   2.907   1.408   0.173 -1.6068  1.6807 -0.7037
  430SOL    HW2 1290   2.810   1.449   0.323 -4.0898  1.9871  0.9217
  431SOL     OW 1291   2.061   1.566   0.902  0.1288 -0.2903 -0.2197
  431SOL    HW1 1292   2.098   1.631   0.975  0.7649 -0.0146  0.5583
  431SOL    HW2 1293   2.002   1.616   0.834  0.0410  0.1077  1.1481
  432SOL     OW 1294   2.926   2.157   1.219  0.3122  0.2619 -0.0527
  432SOL    HW1 1295   2.901   2.066   1.259  2.6915 -0.4888 -0.8741
  432SOL    HW2 1296   2.964   2.218   1.298  1.5900  0.9638  0.6337
  433SOL     OW 1297   1.858   0.259   0.819  0.1466 -0.3485 -0.5536
  433SOL    HW1 1298   1.788   0.315   0.868  2.0158  0.0535  0.6653
  433SOL    HW2 1299   1.945   0.257   0.882  3.4898  3.7426  1.5067
  434SOL     OW 1300   1.560   0.284   0.678  0.3532 -0.4907  0.7089
  434SOL    HW1 1301   1.541   0.358   0.613  1.0611 -0.4602  2.0547
  434SOL    HW2 1302   1.599   0.331   0.762  2.5507  0.7438  2.0391
  435SOL     OW 1303   1.479   1.417   2.114 -0.0498  0.4086 -0.4105
  435SOL    HW1 1304   1.461   1.455   2.207  0.9764 -0.6886  2.2032
  435SOL    HW2 1305   1.470   1.488   2.039  1.1059  2.5991  2.0924
  436SOL     OW 1306   1.714   2.720   2.257 -0.1883 -0.3740 -0.4412
  436SOL    HW1 1307   1.676   2.793   2.326  0.1414  1.1180  0.9959
  436SOL    HW2 1308   1.714   2.627   2.300  1.3286  1.2828 -0.9524
  437SOL     OW 1309   1.124   2.969   0.904 -0.0122  0.0220 -0.2555
  437SOL    HW1 1310   1.073   3.058   0.905 -0.6137  1.2783 -2.0729
  437SOL    HW2 1311   1.118   2.922   0.999  0.9898 -0.7412  0.8319
  438SOL     OW 1312   1.030   2.701   1.515 -0.6081 -0.3348  0.1079
  438SOL    HW1 1313   1.131   2.715   1.493 -1.6897 -1.0680  1.7984
  438SOL    HW2 1314   0.983   2.641   1.448  3.5521  2.1742  0.5695
  439SOL     OW 1315   0.708   1.856   1.104  0.2466  0.1291  0.5059
  439SOL    HW1 1316   0.730   1.956   1.107 -1.1591  1.9832  0.5527
  439SOL    HW2 1317   0.605   1.835   1.104  0.4126 -0.9398  3.6929
  440SOL     OW 1318   1.053   2.477   1.987 -0.5789 -0.4660  0.1257
  440SOL    HW1 1319   0.999   2.529   1.917  2.5802 -2.8260 -0.8090
  440SOL    HW2 1320   1.152   2.460   1.956 -0.8960 -0.2228  0.6015
  441SOL     OW 1321   0.379   2.701   1.501  0.5638  0.7030  0.5907
  441SOL    HW1 1322   0.458   2.628   1.502  0.3130 -1.7698  2.2680
  441SOL    HW2 1323   0.301   2.670   1.439 -0.0159 -1.9704  1.8140
  442SOL     OW 1324   2.249   0.663   2.528 -0.1006  0.3770 -0.0357
  442SOL    HW1 1325   2.267   0.568   2.557  3.4436  1.1688 -2.1342
  442SOL    HW2 1326   2.167   0.709   2.573  1.1559 -0.2755 -1.2201
  443SOL     OW 1327   1.213   2.654   2.225  0.0500  0.2096 -0.5253
  443SOL    HW1 1328   1.148   2.685   2.304 -1.0929 -0.2268 -1.8248
  443SOL    HW2 1329   1.254   2.559   2.241  2.1366  0.6227 -0.4958
  444SOL     OW 1330   1.031   1.329   1.547  0.2534 -0.1592  0.1299
  444SOL    HW1 1331   1.130   1.315   1.514  1.5717 -1.1342 -0.3387
  444SOL    HW2 1332   1.003   1.427   1.532 -0.5394 -0.8471  0.2252
  445SOL     OW 1333   3.087   2.390   1.967  0.2677  0.0258 -0.5019
  445SOL    HW1 1334   3.091   2.471   1.895 -0.2190 -1.6411 -2.4892
  445SOL    HW2 1335   2.989   2.376   2.004 -0.2848  1.4831 -0.0656
  446SOL     OW 1336   0.209   1.891   2.380 -0.3497 -0.5664  0.5627
  446SOL    HW1 1337   0.161   1.975   2.423  0.6384  1.2958 -0.7305
  446SOL    HW2 1338   0.151   1.864   2.292 -0.4714  0.8851 -0.7786
  447SOL     OW 1339   1.233   1.640   1.932  0.3335  0.1032 -0.0292
  447SOL    HW1 1340   1.186   1.722   1.885 -1.2319 -1.2941 -1.3645
  447SOL    HW2 1341   1.335   1.656   1.936  0.6479  0.3295  1.6457
  448SOL     OW 1342   0.119   1.564   1.920 -0.2249  0.0870 -0.3096
  448SOL    HW1 1343   0.091   1.664   1.924 -0.6859  0.2526  0.1628
  448SOL    HW2 1344   0.153   1.534   2.015  3.7379 -1.8113  2.5363
  449SOL     OW 1345   2.020   2.969   0.888  0.2733 -0.8022  0.7739
  449SOL    HW1 1346   2.077   2.968   0.973 -1.0906 -0.0068 -0.9372
  449SOL    HW2 1347   1.996   2.877   0.850 -1.1060 -1.0152  2.0410
  450SOL     OW 1348   2.272   1.338   0.921 -0.1650  0.0423 -0.1743
  450SOL    HW1 1349   2.275   1.240   0.891 -1.7660  1.4731  1.0304
  450SOL    HW2 1350   2.210   1.397   0.868  1.1065 -6.2083 -2.0250
  451SOL     OW 1351   1.419   0.046   1.434  0.3500 -0.2752 -0.0991
  451SOL    HW1 1352   1.321   0.080   1.444  2.4169  1.0593  0.5444
  451SOL    HW2 1353   1.443  -0.024   1.508  1.1771 -0.5848  0.3528
  452SOL     OW 1354   2.634   2.332   2.246  0.2079  0.6734 -0.2229
  452SOL    HW1 1355   2.593   2.422   2.250  1.5152 -3.3849  1.6774
  452SOL    HW2 1356   2.682   2.300   2.333  2.4250 -1.3296  0.3203
  453SOL     OW 1357   2.435   2.610   3.040  0.0827  0.3665  0.0563
  453SOL    HW1 1358   2.347   2.670   3.036 -2.2087  0.5012 -0.4203
  453SOL    HW2 1359   2.421   2.517   2.990  0.7970  0.9305  1.5900
  454SOL     OW 1360   0.967   1.063   2.033 -0.0801  0.0112  0.1643
  454SOL    HW1 1361   0.960   1.124   1.944  0.4642  0.2343 -0.3252
  454SOL    HW2 1362   1.061   1.035   2.067 -0.3584 -2.5289  0.4074
  455SOL     OW 1363   0.636   2.622   2.902  0.0169 -0.3757 -0.0694
  455SOL    HW1 1364   0.704   2.686   2.948  1.5741  2.1023 -0.8575
  455SOL    HW2 1365   0.623   2.532   2.951  0.3493  1.6152 -0.0405
  456SOL     OW 1366   0.504   1.775   0.324 -0.5764 -0.0434 -0.7067
  456SOL    HW1 1367   0.592   1.715   0.320 -1.7516 -0.6525 -0.5165
  456SOL    HW2 1368   0.529   1.875   0.320 -0.2720  2.5417  0.5560
  457SOL     OW 1369   0.356   2.553   0.614 -0.5980 -0.1090 -0.3055
  457SOL    HW1 1370   0.362   2.619   0.534  1.1331  0.5654  0.2530
  457SOL    HW2 1371   0.450   2.522   0.649 -0.2363 -0.7065 -0.6245
  458SOL     OW 1372   2.997   2.972   1.225  0.1424 -0.3078  0.0007
  458SOL    HW1 1373   3.025   3.072   1.205  1.9912  1.5059  0.0750
  458SOL    HW2 1374   2.962   2.917   1.142  0.9050  1.1296 -1.4205
  459SOL     OW 1375   2.166   2.586   0.853  0.2590 -0.0649 -0.6132
  459SOL    HW1 1376   2.178   2.655   0.927  1.6970 -0.5041 -0.2442
  459SOL    HW2 1377   2.260   2.566   0.807  4.1818  0.7152 -0.5851
  460SOL     OW 1378   1.056   1.928   2.905  0.0318  0.5815 -0.5210
  460SOL    HW1 1379   1.076   2.015   2.853  0.5997  0.5686  0.9447
  460SOL    HW2 1380   1.141   1.879   2.947 -0.5246  0.9511  2.0449
  461SOL     OW 1381   0.553   2.124   2.680  0.2186  0.8378  0.1013
  461SOL    HW1 1382   0.460   2.071   2.674 -0.3101 -2.0536 -1.6945
  461SOL    HW2 1383   0.616   2.088   2.753 -0.7584  2.4321  0.0655
  462SOL     OW 1384   0.970   1.156   1.767 -0.3236  0.1619 -0.5859
  462SOL    HW1 1385   1.046   1.085   1.745  0.0164  0.5422 -1.6653
  462SOL    HW2 1386   0.960   1.223   1.689 -1.8592 -4.7405  1.8700
  463SOL     OW 1387   0.454   0.755   0.464  0.0634  0.2433 -0.7184
  463SOL    HW1 1388   0.462   0.658   0.430  2.3135  0.2100  1.2009
  463SOL    HW2 1389   0.356   0.777   0.497 -0.8782 -0.2215  0.4527
  464SOL     OW 1390   0.509   2.240   2.236  0.1648 -0.6025 -0.0123
  464SOL    HW1 1391   0.431   2.283   2.288  1.4840  0.3422  0.7329
  464SOL    HW2 1392   0.534   2.289   2.150  0.6594  0.4858  1.9477
  465SOL     OW 1393   0.294   0.890   0.871  0.4359 -0.1253  0.2092
  465SOL    HW1 1394   0.207   0.925   0.830  0.2595 -1.8631 -2.5060
  465SOL    HW2 1395   0.320   0.794   0.840 -0.3045 -1.8214  0.9744
  466SOL     OW 1396   1.387   1.105   1.129 -0.0281  0.5996  0.0139
  466SOL    HW1 1397   1.447   1.192   1.119 -0.6022  1.7899 -1.1312
  466SOL    HW2 1398   1.286   1.129   1.127 -0.5448 -2.1061  1.7170
  467SOL     OW 1399   0.463   0.398   2.431 -0.0384  0.1041 -0.5387
  467SOL    HW1 1400   0.437   0.496   2.460  0.9512  1.4702  2.0686
  467SOL    HW2 1401   0.502   0.332   2.507  0.4554  1.7717  0.9669
  468SOL     OW 1402   0.493   2.247   1.718 -0.0389  0.5816 -0.2676
  468SOL    HW1 1403   0.507   2.335   1.772  0.1631 -0.1041  2.3011
  468SOL    HW2 1404   0.465   2.264   1.619 -0.1479  1.7560 -0.2171
  469SOL     OW 1405   1.586   1.293   1.105 -0.4968  0.2657  0.1958
  469SOL    HW1 1406   1.642   1.221   1.153 -0.4046  2.2798 -1.8526
  469SOL    HW2 1407   1.632   1.385   1.107  1.7727 -0.4336 -0.2879
  470SOL     OW 1408   2.998   1.608   0.751 -0.0159 -0.2271  0.0069
  470SOL    HW1 1409   3.089   1.585   0.802  2.2148 -0.6521  1.6107
  470SOL    HW2 1410   2.954   1.699   0.786  0.3381 -0.7242  0.5507
  471SOL     OW 1411   2.597   1.295   2.186 -0.2422  0.1904  0.1038
  471SOL    HW1 1412   2.554   1.219   2.233  0.6314  0.0686 -0.0855
  471SOL    HW2 1413   2.653   1.360   2.243 -1.4052  1.6326 -0.7482
  472SOL     OW 1414   1.152   2.452   3.076  0.0759  0.6432 -0.3194
  472SOL    HW1 1415   1.202   2.460   3.168  1.3582 -2.1214 -1.5933
  472SOL    HW2 1416   1.107   2.355   3.069  2.2626 -1.1027  0.9102
  473SOL     OW 1417   1.044   1.535   0.887 -0.0960 -0.2739  0.2687
  473SOL    HW1 1418   0.961   1.578   0.939 -0.5104 -0.5676  1.2996
  473SOL    HW2 1419   1.124   1.520   0.951  0.3127  0.0500  1.4927
  474SOL     OW 1420   0.776   1.259   0.779 -0.6318  0.2935  0.0119
  474SOL    HW1 1421   0.756   1.225   0.682 -0.4142 -0.9430  1.2401
  474SOL    HW2 1422   0.867   1.224   0.816 -3.5960  1.2778  1.4672
  475SOL     OW 1423   2.889   0.032   0.818 -0.3833 -0.3399  0.3080
  475SOL    HW1 1424   2.972   0.070   0.873  3.0072  1.3738  2.6930
  475SOL    HW2 1425   2.800   0.060   0.862 -2.3644 -0.7546 -1.1903
  476SOL     OW 1426   0.954   3.069   1.951  0.4585 -0.2887  0.7033
  476SOL    HW1 1427   1.035   3.033   2.004  0.0501 -0.8830 -0.1153
  476SOL    HW2 1428   0.945   3.013   1.864 -0.9680  1.8889  1.0869
  477SOL     OW 1429   1.491   0.415   2.440  0.1491 -0.2945 -0.2093
  477SOL    HW1 1430   1.439   0.395   2.529 -0.8662  0.9560  0.8185
  477SOL    HW2 1431   1.573   0.354   2.435  1.3057 -0.3250  0.3229
  478SOL     OW 1432   2.195   1.838   0.247  0.0539  0.3180 -0.1910
  478SOL    HW1 1433   2.142   1.747   0.230  0.5705  1.7749 -0.7509
  478SOL    HW2 1434   2.297   1.821   0.230  1.0559  0.0809 -0.4272
  479SOL     OW 1435   1.220   1.160   2.852  1.0768  0.6514  0.2683
  479SOL    HW1 1436   1.306   1.162   2.794  2.8460 -1.6804  2.1468
  479SOL    HW2 1437   1.145   1.105   2.816  2.2106  3.1911  1.4392
  480SOL     OW 1438   2.493   2.332   0.403  0.0103  0.1945  0.1925
  480SOL    HW1 1439   2.448   2.248   0.443 -0.0512  0.0679  2.7567
  480SOL    HW2 1440   2.435   2.377   0.329  1.6220 -0.7753  1.2486
  481SOL     OW 1441   1.051   1.184   0.833  0.2719 -0.5134 -0.0417
  481SOL    HW1 1442   1.069   1.270   0.774  0.3029  1.8672  0.7772
  481SOL    HW2 1443   1.079   1.199   0.932  0.5080  2.6667  0.1930
  482SOL     OW 1444   1.600   0.284   2.002 -0.0984  0.1962  0.4950
  482SOL    HW1 1445   1.607   0.387   1.992 -0.8667 -0.1446  1.8263
  482SOL    HW2 1446   1.684   0.243   2.042 -3.9561  1.1433 -0.6078
  483SOL     OW 1447   0.108   2.365   1.320 -0.4380  0.1413  0.1634
  483SOL    HW1 1448   0.006   2.349   1.335  0.2474 -0.2205  2.5098
  483SOL    HW2 1449   0.133   2.385   1.219  2.6341 -1.5718 -2.7499
  484SOL     OW 1450   1.697   0.947   1.387  0.0824  0.4065 -0.5133
  484SOL    HW1 1451   1.793   0.924   1.420 -0.2980  0.4107  0.3488
  484SOL    HW2 1452   1.690   1.015   1.312 -0.2015  0.8682  1.6078
  485SOL     OW 1453   0.671   1.148   1.800 -0.2771  0.1036  0.3765
  485SOL    HW1 1454   0.643   1.096   1.717  1.2376  1.0527  0.9413
  485SOL    HW2 1455   0.773   1.139   1.815  0.3965 -1.0668 -0.5701
  486SOL     OW 1456   0.867   1.910   2.444 -0.5263  0.1131 -0.0612
  486SOL    HW1 1457   0.922   1.874   2.526 -0.9917  0.9731 -1.4464
  486SOL    HW2 1458   0.815   2.000   2.464  1.7857 -2.0445 -0.0146
  487SOL     OW 1459   1.773   1.534   0.850  0.5199  0.3212 -0.1480
  487SOL    HW1 1460   1.724   1.451   0.807  0.5889  1.6180  2.7075
  487SOL    HW2 1461   1.816   1.602   0.782 -1.6485 -0.5202  0.4055
  488SOL     OW 1462   2.979   0.950   2.221 -0.0302  0.4350 -0.0517
  488SOL    HW1 1463   3.014   0.861   2.180 -0.0202 -1.4034 -4.7196
  488SOL    HW2 1464   2.966   0.948   2.320 -0.6069  0.9326 -2.5354
  489SOL     OW 1465   2.762   0.206   1.360 -0.1555  0.0984  0.4162
  489SOL    HW1 1466   2.764   0.219   1.465  0.4458  0.7903  2.8999
  489SOL    HW2 1467   2.839   0.143   1.330  0.5032  0.3334  1.2104
  490SOL     OW 1468   1.399   3.003   2.830  0.0368 -0.3439 -0.8128
  490SOL    HW1 1469   1.462   2.919   2.847  0.1396 -0.9854  3.0451
  490SOL    HW2 1470   1.383   3.026   2.726 -2.7846  0.7140 -0.6963
  491SOL     OW 1471   1.894   1.551   2.685 -0.3725 -0.0645 -0.0947
  491SOL    HW1 1472   1.892   1.569   2.791  0.3369 -0.6585  3.5218
  491SOL    HW2 1473   1.986   1.525   2.643 -0.0619 -2.4016  0.0148
  492SOL     OW 1474   0.508   1.934   0.732 -0.0458  0.5536 -0.3339
  492SOL    HW1 1475   0.590   1.965   0.783 -0.0992 -1.7093  1.2554
  492SOL    HW2 1476   0.449   2.015   0.701  2.4217 -0.0607  2.4943
  493SOL     OW 1477   0.492   1.407   2.142 -0.0403 -0.2661 -0.1322
  493SOL    HW1 1478   0.428   1.479   2.181  0.0808  0.1343 -0.0610
  493SOL    HW2 1479   0.499   1.324   2.203  0.0808 -0.1928 -0.5013
  494SOL     OW 1480   2.582   2.591   0.180 -0.0287 -0.4848  0.4697
  494SOL    HW1 1481   2.618   2.498   0.208 -3.1021 -0.1239  0.2027
  494SOL    HW2 1482   2.530   2.590   0.093 -2.0546  1.5735  1.5096
  495SOL     OW 1483   2.745   2.667   2.685  0.0452  0.0666 -0.0789
  495SOL    HW1 1484   2.745   2.576   2.628  1.0223 -1.7960 -2.2393
  495SOL    HW2 1485   2.712   2.747   2.628  2.0909 -2.6562  0.8998
  496SOL     OW 1486   2.069   2.208   0.705  0.9468 -0.1901 -0.0969
  496SOL    HW1 1487   2.066   2.245   0.799  0.4518  0.7677  3.3731
  496SOL    HW2 1488   2.096   2.105   0.696 -1.0826 -1.3277  0.3195
  497SOL     OW 1489   0.258   2.970   2.394  0.0657  0.3625 -0.1998
  497SOL    HW1 1490   0.186   3.034   2.437 -2.1373 -1.3017  1.2942
  497SOL    HW2 1491   0.308   3.007   2.309  3.0005 -2.3256 -0.5642
  498SOL     OW 1492   1.240   1.485   1.083 -0.0287  0.3337  0.6911
  498SOL    HW1 1493   1.335   1.533   1.080  2.9554  1.9161 -0.6740
  498SOL    HW2 1494   1.180   1.525   1.154 -1.1836 -0.7976  0.4689
  499SOL     OW 1495   0.877   1.833   0.490 -0.4792 -0.8162 -0.3426
  499SOL    HW1 1496   0.812   1.759   0.532 -0.4223 -1.0283 -1.0121
  499SOL    HW2 1497   0.918   1.898   0.564  1.4885  1.1375  0.5480
  500SOL     OW 1498   1.442   2.960   1.660 -0.2473  0.3010 -0.1092
  500SOL    HW1 1499   1.400   3.000   1.744 -1.9095 -1.1169 -2.5584
  500SOL    HW2 1500   1.468   2.857   1.660  3.2127 -1.1562 -0.2632
  501SOL     OW 1501   0.791   1.106   2.284 -0.2757 -0.2366 -0.0931
  501SOL    HW1 1502   0.718   1.037   2.296  0.6992 -1.1939  0.5790
  501SOL    HW2 1503   0.834   1.102   2.186  3.2113 -1.7506 -2.2562
  502SOL     OW 1504   2.586   0.955   1.751 -0.2505  0.1853  0.1099
  502SOL    HW1 1505   2.551   0.963   1.650 -2.5745 -1.5857  0.1128
  502SOL    HW2 1506   2.534   0.880   1.800 -0.0401 -0.0124 -2.2133
  503SOL     OW 1507   1.312   0.153   0.619  0.0047  0.1531 -0.9475
  503SOL    HW1 1508   1.228   0.215   0.616 -0.2305 -0.3290  2.4676
  503SOL    HW2 1509   1.401   0.201   0.644  0.1790 -1.0568  1.6298
  504SOL     OW 1510   2.971   2.305   1.435 -0.0256 -0.6425 -0.4948
  504SOL    HW1 1511   2.972   2.406   1.472 -0.5921  1.2321  1.2156
  504SOL    HW2 1512   2.883   2.257   1.461  0.8879  2.9250 -0.8487
  505SOL     OW 1513   2.282   1.307   1.476 -0.4447  0.2826 -0.0112
  505SOL    HW1 1514   2.286   1.403   1.434  0.0964 -0.5762 -2.7382
  505SOL    HW2 1515   2.377   1.276   1.515 -0.6968  0.7973 -0.4295
  506SOL     OW 1516   1.876   0.297   1.746  0.0495  0.5897 -0.5035
  506SOL    HW1 1517   1.962   0.247   1.707  1.7476 -3.6329 -1.4388
  506SOL    HW2 1518   1.898   0.344   1.837 -0.7974  1.0893 -0.5373
  507SOL     OW 1519   0.500   0.751   2.173  0.8207 -0.1725 -0.0583
  507SOL    HW1 1520   0.429   0.732   2.098 -1.1976  0.2900  1.7762
  507SOL    HW2 1521   0.568   0.675   2.185  0.0302 -0.2529  1.3566
  508SOL     OW 1522   0.190   1.594   0.858 -0.0910 -0.1633  0.3119
  508SOL    HW1 1523   0.251   1.665   0.821 -0.8936  0.6124  0.6579
  508SOL    HW2 1524   0.180   1.614   0.960  0.2464 -0.9433 -0.6820
  509SOL     OW 1525   1.319   1.189   2.583 -0.0496 -0.5259 -0.0522
  509SOL    HW1 1526   1.245   1.261   2.605 -1.1344  0.7624 -1.7907
  509SOL    HW2 1527   1.280   1.099   2.564  0.3215 -0.6200 -0.0370
  510SOL     OW 1528   1.358   2.027   2.043  0.2483 -0.0750  0.1977
  510SOL    HW1 1529   1.293   2.104   2.062 -1.0626  2.6070  0.7011
  510SOL    HW2 1530   1.359   1.949   2.117 -2.2201 -1.0412  0.4761
  511SOL     OW 1531   3.029   2.636   1.291 -0.1929 -0.1287 -0.1162
  511SOL    HW1 1532   2.983   2.610   1.201 -0.4099  3.0468 -1.2337
  511SOL    HW2 1533   2.966   2.624   1.375 -2.9758  1.3079  1.6607
  512SOL     OW 1534   2.403   0.363   1.438  0.0588 -0.4381  0.3941
  512SOL    HW1 1535   2.299   0.365   1.422  1.4561 -1.7713  1.7960
  512SOL    HW2 1536   2.456   0.286   1.398  0.1182  0.6374 -1.9552
  513SOL     OW 1537   2.503   2.010   0.844 -0.0132  0.7180  0.2678
  513SOL    HW1 1538   2.465   2.104   0.826 -0.5261 -0.0543  0.6866
  513SOL    HW2 1539   2.584   1.993   0.781 -3.1948  1.0049 -2.5803
  514SOL     OW 1540   0.692   2.814   0.374  0.0156  0.3025 -1.0146
  514SOL    HW1 1541   0.669   2.884   0.297  1.6612  1.5424 -2.1198
  514SOL    HW2 1542   0.701   2.858   0.471  0.7009  0.4098 -1.1544
  515SOL     OW 1543   1.935   1.227   2.328 -0.0463  0.5311  0.0121
  515SOL    HW1 1544   1.900   1.300   2.259  0.4387 -1.4641 -1.5749
  515SOL    HW2 1545   1.890   1.219   2.421  0.2570 -2.3588  2.1708
  516SOL     OW 1546   0.293   0.412   2.000  0.0917 -0.2328  0.2602
  516SOL    HW1 1547   0.390   0.387   1.997 -0.6550 -2.0523 -0.9398
  516SOL    HW2 1548   0.233   0.358   1.937  0.4371  1.2803  1.8472
  517SOL     OW 1549   0.360   2.979   1.202 -0.3686 -0.4910  0.1756
  517SOL    HW1 1550   0.363   3.078   1.229  0.2641 -1.5061 -1.0611
  517SOL    HW2 1551   0.289   2.916   1.251  0.0573 -0.9067  0.3308
  518SOL     OW 1552   2.102   0.181   1.682 -0.2048 -0.0912  0.8434
  518SOL    HW1 1553   2.158   0.202   1.770  2.3953  0.9527 -0.9436
  518SOL    HW2 1554   2.152   0.122   1.617 -1.9165  1.6101 -0.6844
  519SOL     OW 1555   2.355   2.179   2.599  0.3306  0.2743  1.0208
  519SOL    HW1 1556   2.265   2.166   2.649 -0.0963  2.7963  0.6571
  519SOL    HW2 1557   2.375   2.285   2.590 -0.9427  2.8029  2.8282
  520SOL     OW 1558   1.756   2.886   1.826 -0.2179  0.0496  0.0195
  520SOL    HW1 1559   1.685   2.831   1.881 -0.5784 -2.7713 -1.1459
  520SOL    HW2 1560   1.834   2.830   1.790 -0.9062 -1.1229  0.5792
  521SOL     OW 1561   0.601   0.104   2.155  0.1036  0.3156 -0.5037
  521SOL    HW1 1562   0.504   0.104   2.193 -1.1272 -1.5148  1.3839
  521SOL    HW2 1563   0.667   0.051   2.215  1.4997  1.2786 -0.4860
  522SOL     OW 1564   0.212   1.901   1.523  0.1465 -0.2234 -0.0295
  522SOL    HW1 1565   0.255   1.936   1.610  1.0740  0.1208 -1.4907
  522SOL    HW2 1566   0.209   1.972   1.444 -0.6720  0.1468 -1.8939
  523SOL     OW 1567   2.267   3.031   1.609  0.0944 -0.3810  0.1516
  523SOL    HW1 1568   2.292   2.957   1.539  0.5528  3.3282 -1.4067
  523SOL    HW2 1569   2.199   2.995   1.679  0.3611 -0.9653  2.4064
  524SOL     OW 1570   0.242   2.783   2.801 -0.3064 -0.2957  0.1326
  524SOL    HW1 1571   0.186   2.858   2.851  1.3192  0.4828  1.9540
  524SOL    HW2 1572   0.350   2.790   2.803  2.6502  0.8135  1.4546
  525SOL     OW 1573   2.096   1.937   0.481 -0.5844 -0.2547  0.2767
  525SOL    HW1 1574   2.108   1.871   0.564 -1.4258 -2.6262 -0.4166
  525SOL    HW2 1575   2.146   1.898   0.401  2.2935  1.2106  0.1467
  526SOL     OW 1576   0.387   1.520   1.543 -0.4021 -0.6404 -0.1775
  526SOL    HW1 1577   0.339   1.472   1.626 -2.4648  2.6083  0.6311
  526SOL    HW2 1578   0.488   1.491   1.533  0.3312 -0.5403 -0.4176
  527SOL     OW 1579   1.122   2.876   1.186  0.2376  0.0057 -0.3750
  527SOL    HW1 1580   1.217   2.843   1.192 -2.4460 -1.6931  0.4304
  527SOL    HW2 1581   1.111   2.978   1.207  0.4650  1.1951 -0.1349
  528SOL     OW 1582   1.328   2.395   0.483 -0.4936  0.5821  0.0258
  528SOL    HW1 1583   1.384   2.305   0.494 -1.2159  0.5839  1.5501
  528SOL    HW2 1584   1.349   2.466   0.557  0.2123 -1.2821 -0.4920
  529SOL     OW 1585   1.887   1.735   0.701  0.1997  0.0551 -0.1383
  529SOL    HW1 1586   1.829   1.747   0.615  1.9083  0.3279 -0.3032
  529SOL    HW2 1587   1.875   1.819   0.764  2.8673  3.8623 -0.8979
  530SOL     OW 1588   0.349   2.464   0.211 -0.0558  0.3686  0.1665
  530SOL    HW1 1589   0.399   2.560   0.230 -0.2582  0.4049 -0.3655
  530SOL    HW2 1590   0.391   2.388   0.264 -2.6763  1.9022 -0.7633
  531SOL     OW 1591   1.875   0.816   0.934  0.2188 -0.1826  0.1237
  531SOL    HW1 1592   1.906   0.860   0.850 -0.3890 -0.5908 -2.2833
  531SOL    HW2 1593   1.777   0.839   0.952  2.0239  0.7975 -1.7358
  532SOL     OW 1594   0.456   1.125   0.746  0.1509 -0.3334 -0.2298
  532SOL    HW1 1595   0.452   1.115   0.645  2.6514 -1.1415  0.5919
  532SOL    HW2 1596   0.409   1.042   0.783 -0.2284 -1.3420 -2.1029
  533SOL     OW 1597   1.701   0.013   2.575 -0.0619 -0.0692 -0.0460
  533SOL    HW1 1598   1.796   0.024   2.620 -0.2446  1.9199 -0.4251
  533SOL    HW2 1599   1.635   0.077   2.617  1.1715 -2.0490 -1.0951
  534SOL     OW 1600   0.359   0.210   1.507 -0.3545  0.5220 -0.6221
  534SOL    HW1 1601   0.454   0.209   1.542 -1.7208  1.3205 -1.1388
  534SOL    HW2 1602   0.333   0.309   1.490  1.6751  1.2013  0.3860
  535SOL     OW 1603   1.968   0.336   0.158 -0.0704 -0.0908 -0.2608
  535SOL    HW1 1604   1.971   0.422   0.216 -0.5029  2.2506 -1.8745
  535SOL    HW2 1605   1.945   0.253   0.219  2.7902 -1.0101 -2.0316
  536SOL     OW 1606   1.364   2.600   0.937 -0.2409  0.1979  0.6951
  536SOL    HW1 1607   1.320   2.564   1.029  1.3581 -2.2807  3.0605
  536SOL    HW2 1608   1.294   2.654   0.873  1.0815  0.5311 -0.0450
  537SOL     OW 1609   0.892   0.256   2.331 -0.2559 -0.6689  0.1523
  537SOL    HW1 1610   0.909   0.302   2.244  2.0562 -0.3085  1.5747
  537SOL    HW2 1611   0.852   0.164   2.327  1.4377  3.1882  1.1395
  538SOL     OW 1612   1.635   2.394   1.408 -0.1574 -0.3503 -0.0793
  538SOL    HW1 1613   1.600   2.300   1.395 -2.6464  0.9728  0.3246
  538SOL    HW2 1614   1.729   2.397   1.445 -1.0413 -1.5025  0.5258
  539SOL     OW 1615   0.197   1.588   2.687  0.0425  0.0177 -0.1455
  539SOL    HW1 1616   0.098   1.586   2.664 -0.5283  2.3187 -0.9403
  539SOL    HW2 1617   0.223   1.666   2.756  1.0833 -0.3217  0.9376
  540SOL     OW 1618   2.651   1.746   1.946  0.0920  0.2761  0.2594
  540SOL    HW1 1619   2.590   1.665   1.942  1.5703 -1.1601 -1.2132
  540SOL    HW2 1620   2.593   1.830   1.950  1.1731 -1.9495  2.8038
  541SOL     OW 1621   0.493   2.145   3.092 -0.1914 -0.2078 -0.5886
  541SOL    HW1 1622   0.505   2.108   3.189 -0.5878  1.0378 -1.1334
  541SOL    HW2 1623   0.396   2.128   3.063  0.1902  1.1771  0.8116
  542SOL     OW 1624   2.261   2.613   0.539 -0.2927  0.3625 -0.3562
  542SOL    HW1 1625   2.245   2.705   0.585  2.7086 -0.3026 -0.2542
  542SOL    HW2 1626   2.184   2.544   0.540  0.9127 -0.7528  1.7393
  543SOL     OW 1627   1.055   1.782   1.591 -1.2549 -0.1275 -0.1834
  543SOL    HW1 1628   1.068   1.781   1.692  3.4038 -0.4795  2.5972
  543SOL    HW2 1629   1.014   1.870   1.556  2.3215  1.8274 -0.6507
  544SOL     OW 1630   1.127   0.535   0.142 -0.3218 -0.3716  0.7812
  544SOL    HW1 1631   1.086   0.457   0.197  1.1343  0.5784  1.4085
  544SOL    HW2 1632   1.136   0.519   0.041 -0.9418 -3.0485 -0.3058
  545SOL     OW 1633   1.125   1.791   0.811  0.1709 -0.3065 -0.0650
  545SOL    HW1 1634   1.215   1.832   0.777  2.4091  0.5041  0.2889
  545SOL    HW2 1635   1.128   1.690   0.829  1.0263  1.1783 -1.8820
  546SOL     OW 1636   2.671   1.590   2.997  0.7674 -0.0017  0.1984
  546SOL    HW1 1637   2.627   1.680   3.011  1.5236 -1.7480 -0.4339
  546SOL    HW2 1638   2.603   1.507   2.992  1.8360  0.5441 -1.5973
  547SOL     OW 1639   0.677   3.003   2.581  1.3261  0.3492  0.4083
  547SOL    HW1 1640   0.738   2.978   2.662 -0.0423 -0.0562 -0.4925
  547SOL    HW2 1641   0.634   2.923   2.536 -2.2101 -3.5592  0.6639
  548SOL     OW 1642   2.042   0.789   3.043  0.0584  0.3341  0.4046
  548SOL    HW1 1643   1.942   0.779   3.073  1.6013  1.7118  1.4003
  548SOL    HW2 1644   2.074   0.887   3.058 -0.0913 -0.7196  0.0135
  549SOL     OW 1645   0.683   0.551   0.183 -0.2162 -1.0206  0.3940
  549SOL    HW1 1646   0.645   0.573   0.085 -1.1988 -1.6724 -2.0397
  549SOL    HW2 1647   0.771   0.604   0.200 -0.3222  0.8235 -0.7703
  550SOL     OW 1648   2.590   2.779   2.893  0.3834  0.4971 -0.0743
  550SOL    HW1 1649   2.545   2.729   2.971  2.3183  0.2107  2.4963
  550SOL    HW2 1650   2.631   2.710   2.826 -0.8228  0.2747  0.9265
  551SOL     OW 1651   0.260   0.870   0.209  0.1413 -0.2841  0.6475
  551SOL    HW1 1652   0.348   0.826   0.179 -0.3635  1.6700  0.5494
  551SOL    HW2 1653   0.243   0.846   0.310  0.7525  0.3241 -2.3348
  552SOL     OW 1654   0.621   3.033   1.925 -0.0590 -0.2408 -0.3285
  552SOL    HW1 1655   0.630   3.110   1.995 -0.8785 -0.4433 -2.8374
  552SOL    HW2 1656   0.714   2.996   1.898  2.3319  0.7812  0.2610
  553SOL     OW 1657   3.030   2.422   0.373  0.8729 -0.0305  0.2560
  553SOL    HW1 1658   3.091   2.358   0.421  0.4697  1.8776 -3.4339
  553SOL    HW2 1659   2.931   2.421   0.413  0.1656 -2.3292 -1.0895
  554SOL     OW 1660   2.226   0.350   0.572 -0.0561 -0.5528  0.5400
  554SOL    HW1 1661   2.282   0.347   0.483 -0.0890  2.6932  1.0879
  554SOL    HW2 1662   2.233   0.267   0.633  1.8144 -1.4275 -0.1171
  555SOL     OW 1663   0.482   2.825   2.473 -0.3333 -0.2908  0.2274
  555SOL    HW1 1664   0.414   2.903   2.441 -0.1464  0.1172 -0.7214
  555SOL    HW2 1665   0.476   2.742   2.416 -2.3435 -0.7238 -1.3625
  556SOL     OW 1666   0.851   2.371   1.591  0.1141 -0.1985  0.2265
  556SOL    HW1 1667   0.857   2.461   1.646 -0.0247 -1.5729 -2.1030
  556SOL    HW2 1668   0.900   2.378   1.498  0.6475 -0.3955 -2.0182
  557SOL     OW 1669   0.177   2.138   0.244 -0.9515  0.7945 -0.0751
  557SOL    HW1 1670   0.106   2.075   0.204  2.4614  2.2147 -0.0638
  557SOL    HW2 1671   0.214   2.219   0.188 -1.9006 -0.1161  0.4200
  558SOL     OW 1672   2.847   2.183   0.405 -0.0753 -0.1717  0.0286
  558SOL    HW1 1673   2.779   2.264   0.430 -4.3250  3.9650  0.1590
  558SOL    HW2 1674   2.826   2.150   0.307 -0.9067  1.4797 -2.2838
  559SOL     OW 1675   0.431   2.266   1.467  0.5200 -0.1758 -0.2361
  559SOL    HW1 1676   0.324   2.261   1.455 -2.8702 -0.7132  2.2740
  559SOL    HW2 1677   0.481   2.223   1.389  0.7068  1.8908  0.5661
  560SOL     OW 1678   2.168   1.029   0.013  0.6486  0.1459  0.1304
  560SOL    HW1 1679   2.213   1.076   0.089  0.8310 -1.0911 -1.3897
  560SOL    HW2 1680   2.232   1.012  -0.064 -0.3656  3.0980  0.7038
  561SOL     OW 1681   3.056   1.986   0.171 -0.3915  0.4512 -0.6770
  561SOL    HW1 1682   3.003   1.911   0.220 -1.7412 -1.0035 -0.6389
  561SOL    HW2 1683   2.996   2.033   0.097 -4.5594  0.5458  0.4737
  562SOL     OW 1684   1.015   2.086   2.271  0.3181 -0.0594  0.6041
  562SOL    HW1 1685   1.002   2.185   2.300 -1.2540 -1.6357  0.7648
  562SOL    HW2 1686   0.947   2.019   2.318 -4.9497 -0.3392 -1.1412
  563SOL     OW 1687   0.663   2.541   2.654 -0.1778 -0.2063 -0.0768
  563SOL    HW1 1688   0.757   2.502   2.635  2.3789 -2.2708  1.4799
  563SOL    HW2 1689   0.655   2.574   2.754  0.4917  1.3220  0.2077
  564SOL     OW 1690   2.869   1.430   2.858  0.3930 -0.1499  0.7714
  564SOL    HW1 1691   2.811   1.504   2.910  0.7502  1.9393  2.6856
  564SOL    HW2 1692   2.947   1.470   2.804 -1.2799  0.8141  1.1723
  565SOL     OW 1693   2.476   1.955   2.654  0.0817 -0.2037 -0.4822
  565SOL    HW1 1694   2.446   2.050   2.622 -1.4377 -0.4310 -2.8901
  565SOL    HW2 1695   2.566   1.964   2.709  1.5783  1.6087  2.0233
  566SOL     OW 1696   1.978   2.914   1.468  1.1836  0.4223  0.5099
  566SOL    HW1 1697   1.978   2.832   1.527  0.0466  1.5740 -0.7254
  566SOL    HW2 1698   2.048   2.918   1.395  0.7178 -1.5668  1.4539
  567SOL     OW 1699   2.360   0.041   2.306 -0.1233  0.4650 -0.0454
  567SOL    HW1 1700   2.278   0.089   2.351  0.3972 -0.5005  0.3611
  567SOL    HW2 1701   2.346   0.028   2.205  3.5324 -0.9175 -1.2856
  568SOL     OW 1702   1.477   1.765   0.207  0.0364 -0.3947 -0.2771
  568SOL    HW1 1703   1.415   1.851   0.199 -1.1160  1.5371 -0.7836
  568SOL    HW2 1704   1.578   1.785   0.237  2.1673  0.4355  1.2297
  569SOL     OW 1705   0.272   0.537   0.860 -0.6846 -0.1001 -0.0932
  569SOL    HW1 1706   0.291   0.460   0.787 -0.4161  1.6078 -0.5645
  569SOL    HW2 1707   0.173   0.557   0.879 -1.1122 -2.3345  0.3464
  570SOL     OW 1708   0.661   0.841   2.903 -0.0745 -0.4554  0.4661
  570SOL    HW1 1709   0.680   0.883   2.808 -2.1951 -1.0411  1.3111
  570SOL    HW2 1710   0.652   0.912   2.979  0.5962  1.0329  1.6468
  571SOL     OW 1711   0.798   3.033   1.077  0.4466 -0.1738 -0.0479
  571SOL    HW1 1712   0.838   3.091   1.000  0.2999 -0.4301 -0.3507
  571SOL    HW2 1713   0.843   2.939   1.093  3.1528  0.3742  0.7888
  572SOL     OW 1714   1.663   2.747   1.429 -0.1371  0.0746 -0.3933
  572SOL    HW1 1715   1.629   2.671   1.362  0.6308 -0.4537 -1.4620
  572SOL    HW2 1716   1.695   2.826   1.375  0.3801 -1.2779  0.1558
  573SOL     OW 1717   3.029   0.466   1.947  0.3275  0.6348  0.5220
  573SOL    HW1 1718   2.945   0.410   1.948 -1.1931 -1.0580  1.9543
  573SOL    HW2 1719   3.108   0.425   1.896 -1.2242  1.3477 -0.0928
  574SOL     OW 1720   0.123   1.683   1.121 -0.0752  0.3247 -0.3877
  574SOL    HW1 1721   0.178   1.700   1.208 -1.0457 -0.0012  1.0546
  574SOL    HW2 1722   0.062   1.767   1.101 -2.4663  0.0438  1.2117
  575SOL     OW 1723   0.839   2.277   0.961  0.0318 -0.0222 -0.5908
  575SOL    HW1 1724   0.772   2.334   1.015  0.3157 -0.4748  0.7404
  575SOL    HW2 1725   0.868   2.324   0.868  2.0900 -0.4554 -1.4867
  576SOL     OW 1726   2.942   3.034   1.666  0.0719  0.5304  0.1307
  576SOL    HW1 1727   2.843   3.030   1.639 -1.8427 -2.5888 -3.4207
  576SOL    HW2 1728   2.977   3.135   1.674 -1.0507  1.4311 -1.4974
  577SOL     OW 1729   2.662   1.202   3.069 -0.2396 -0.4259 -0.2985
  577SOL    HW1 1730   2.632   1.125   3.006  1.4771 -0.2676  3.2740
  577SOL    HW2 1731   2.712   1.169   3.151  0.2759 -1.0698 -2.2109
  578SOL     OW 1732   1.374   2.713   2.560 -0.2386 -0.1575  0.0460
  578SOL    HW1 1733   1.272   2.729   2.534 -0.7227  1.4408  1.1488
  578SOL    HW2 1734   1.439   2.778   2.513 -0.7726  0.9681  1.9336
  579SOL     OW 1735   0.083   2.437   0.123  0.0463  0.4858 -0.2832
  579SOL    HW1 1736   0.028   2.425   0.210 -1.2269 -0.9549  2.7477
  579SOL    HW2 1737   0.186   2.451   0.136 -0.5889  2.7916  0.6366
  580SOL     OW 1738   0.971   2.695   0.345  0.1834 -0.0369 -0.2967
  580SOL    HW1 1739   1.042   2.718   0.272 -0.3669 -1.3762  0.8822
  580SOL    HW2 1740   0.876   2.681   0.308  0.3553 -0.7003 -0.2628
  581SOL     OW 1741   1.275   2.709   1.436 -0.1504 -0.0852 -0.4952
  581SOL    HW1 1742   1.326   2.618   1.464  1.4677 -1.4447  1.5703
  581SOL    HW2 1743   1.328   2.769   1.368  1.5018 -1.8658  0.1910
  582SOL     OW 1744   1.456   0.086   1.848 -0.9500 -0.0829 -0.2564
  582SOL    HW1 1745   1.503   0.150   1.920 -0.9386  1.4370  0.2920
  582SOL    HW2 1746   1.484   0.110   1.751  1.2450 -1.2808 -0.8611
  583SOL     OW 1747   2.467   2.989   0.480  0.8604 -0.2316  0.1275
  583SOL    HW1 1748   2.551   2.939   0.458 -0.6736  0.7099 -0.7224
  583SOL    HW2 1749   2.381   2.933   0.495  0.3848 -0.0691  0.5666
  584SOL     OW 1750   1.511   1.053   2.271 -0.6051 -0.5289  0.2477
  584SOL    HW1 1751   1.548   1.142   2.236  0.2539  0.4959 -0.6098
  584SOL    HW2 1752   1.592   1.002   2.310 -1.0809  0.5077  2.1669
  585SOL     OW 1753   2.029   2.675   2.897  0.7046 -0.1027 -0.5808
  585SOL    HW1 1754   2.073   2.587   2.863  2.1720  0.3549 -0.7003
  585SOL    HW2 1755   1.927   2.695   2.876 -2.2621 -0.1816 -0.5374
  586SOL     OW 1756   2.907   0.391   1.577 -0.5404 -0.3789  0.4878
  586SOL    HW1 1757   2.899   0.478   1.632 -1.6106  0.0040  2.5238
  586SOL    HW2 1758   2.837   0.314   1.610 -1.1395  2.2041  1.2199
  587SOL     OW 1759   2.182   1.473   2.765 -0.8134 -0.0854 -0.3136
  587SOL    HW1 1760   2.204   1.420   2.675  1.1620 -2.1456 -1.7155
  587SOL    HW2 1761   2.255   1.539   2.795  0.5203  1.1048  1.4387
  588SOL     OW 1762   0.443   2.634   2.270  0.0658 -0.0796 -0.7074
  588SOL    HW1 1763   0.433   2.684   2.184  2.4740 -0.4287 -0.4934
  588SOL    HW2 1764   0.384   2.545   2.284  0.0928  0.1782 -1.4916
  589SOL     OW 1765   2.169   1.380   2.497 -0.1797 -0.1602 -0.3193
  589SOL    HW1 1766   2.086   1.335   2.452  0.2995  3.1097 -1.6196
  589SOL    HW2 1767   2.246   1.312   2.512  0.5259 -2.0004  1.8224
  590SOL     OW 1768   2.337   1.675   2.056 -0.2207 -0.0469  0.1227
  590SOL    HW1 1769   2.404   1.600   2.033  0.1168  1.4642 -0.8280
  590SOL    HW2 1770   2.355   1.720   2.148  3.5241 -0.7531 -1.1455
  591SOL     OW 1771   1.286   2.405   0.203 -0.2311 -0.4836 -0.1368
  591SOL    HW1 1772   1.346   2.337   0.154 -1.3085  2.4625  1.0269
  591SOL    HW2 1773   1.287   2.394   0.308  0.8833 -0.5997  2.5265
  592SOL     OW 1774   1.800   2.355   0.802 -0.1220 -0.6378 -0.4269
  592SOL    HW1 1775   1.802   2.382   0.701 -1.2554  1.2034 -1.3542
  592SOL    HW2 1776   1.895   2.367   0.837  1.8687  3.1396 -0.0153
  593SOL     OW 1777   0.763   0.298   0.180  0.1057  0.0434  0.6530
  593SOL    HW1 1778   0.767   0.254   0.085  0.7097 -1.5201  0.1478
  593SOL    HW2 1779   0.740   0.400   0.174 -2.6788 -0.9484 -0.7953
  594SOL     OW 1780   1.020   1.824   2.656 -0.3401 -0.3127  0.7046
  594SOL    HW1 1781   1.113   1.818   2.613 -1.5185  2.0557 -1.4785
  594SOL    HW2 1782   1.025   1.867   2.745 -0.4473  0.4445 -2.4725
  595SOL     OW 1783   1.569   0.130   1.001  0.2812 -0.2708 -0.1143
  595SOL    HW1 1784   1.623   0.043   0.979 -2.6995 -2.4013  1.9861
  595SOL    HW2 1785   1.477   0.116   0.957  1.3113  1.9366 -2.5912
  596SOL     OW 1786   0.209   1.465   2.157  0.2685  0.4530  0.1502
  596SOL    HW1 1787   0.189   1.366   2.174  3.3184 -0.1456 -0.5998
  596SOL    HW2 1788   0.222   1.524   2.248 -0.7045  2.6925  1.4058
  597SOL     OW 1789   1.961   2.697   1.824 -0.5223  0.3358 -0.3290
  597SOL    HW1 1790   1.948   2.677   1.724 -1.4262 -1.1328  3.0602
  597SOL    HW2 1791   2.043   2.648   1.864 -0.0633 -0.4719 -0.5815
  598SOL     OW 1792   2.508   2.781   1.230  0.6496 -0.1077 -0.2041
  598SOL    HW1 1793   2.607   2.779   1.259  1.0588  1.1120 -0.2816
  598SOL    HW2 1794   2.463   2.688   1.226  1.3360  0.3396  0.3545
  599SOL     OW 1795   2.891   0.301   2.519  0.1491  0.3940 -0.4502
  599SOL    HW1 1796   2.976   0.361   2.490 -0.0949 -0.4810 -0.4256
  599SOL    HW2 1797   2.803   0.355   2.493  0.3732 -0.5402  1.2342
  600SOL     OW 1798   2.751   1.204   2.746 -0.0802 -0.1705 -0.3418
  600SOL    HW1 1799   2.659   1.222   2.699 -1.5328 -0.1267  0.4660
  600SOL    HW2 1800   2.775   1.276   2.816 -1.3225  1.7101 -2.2988
  601SOL     OW 1801   3.021   1.367   1.892  0.6878 -0.0044 -0.0129
  601SOL    HW1 1802   2.930   1.390   1.845 -1.3713  1.2637  2.0401
  601SOL    HW2 1803   3.095   1.438   1.880  0.5214 -0.8011  3.0399
  602SOL     OW 1804   1.488   1.587   2.360 -0.2290  0.1605  0.3047
  602SOL    HW1 1805   1.415   1.563   2.434  0.0591 -0.0990  0.4416
  602SOL    HW2 1806   1.583   1.614   2.394  0.4179  5.7559 -1.9632
  603SOL     OW 1807   0.573   1.165   2.742  0.3300 -0.1582  0.0755
  603SOL    HW1 1808   0.501   1.212   2.678 -0.3921  0.8434  1.2330
  603SOL    HW2 1809   0.605   1.071   2.711 -3.3515 -0.5316 -0.3663
  604SOL     OW 1810   2.521   0.999   0.262 -0.1418 -0.4622  0.5003
  604SOL    HW1 1811   2.600   1.069   0.259  0.9434  0.6743 -3.1856
  604SOL    HW2 1812   2.515   0.948   0.167 -0.9244 -0.7510 -0.5513
  605SOL     OW 1813   2.592   1.202   1.921 -0.3981 -0.5258  0.0121
  605SOL    HW1 1814   2.614   1.107   1.888  1.0829  0.2241 -0.8965
  605SOL    HW2 1815   2.608   1.222   2.020  0.6287 -1.5266 -0.3431
  606SOL     OW 1816   1.501   2.460   2.578 -0.5235  0.0370 -0.7720
  606SOL    HW1 1817   1.431   2.535   2.595  3.2336  0.4107  0.5980
  606SOL    HW2 1818   1.449   2.379   2.533 -4.8319 -0.7767 -0.0108
  607SOL     OW 1819   1.268   1.563   0.275 -0.2630 -0.4041 -0.5941
  607SOL    HW1 1820   1.208   1.619   0.337  1.1667  0.9792  0.6465
  607SOL    HW2 1821   1.360   1.600   0.246 -0.7841 -0.7962 -0.7464
  608SOL     OW 1822   1.433   2.835   0.326  0.2552  0.4806  0.5568
  608SOL    HW1 1823   1.491   2.862   0.242  0.9436  0.3432 -0.6814
  608SOL    HW2 1824   1.387   2.919   0.364  0.9388 -0.5193  1.0567
  609SOL     OW 1825   1.278   1.302   0.184 -0.5948  0.5297  0.3681
  609SOL    HW1 1826   1.278   1.399   0.211  2.1826  0.1245 -3.4958
  609SOL    HW2 1827   1.228   1.283   0.094 -0.9656  1.0632 -1.0609
  610SOL     OW 1828   3.092   1.243   2.134  0.1367 -0.1522 -0.4280
  610SOL    HW1 1829   3.052   1.147   2.110 -0.6183  2.4344 -4.2761
  610SOL    HW2 1830   3.077   1.306   2.053 -0.1960 -1.5623  0.4725
  611SOL     OW 1831   2.551   0.195   1.165  0.2684 -0.5834  0.2212
  611SOL    HW1 1832   2.504   0.104   1.173 -0.5357 -0.7932 -0.3296
  611SOL    HW2 1833   2.642   0.193   1.215  1.9082 -0.5107  0.8570
  612SOL     OW 1834   0.761   2.375   1.234 -0.2289 -0.1700 -0.2990
  612SOL    HW1 1835   0.716   2.280   1.226 -0.1151 -0.3441 -1.2693
  612SOL    HW2 1836   0.699   2.457   1.257  2.8713  2.0693 -0.7373
  613SOL     OW 1837   0.774   1.372   2.402  0.2368  0.1113  0.2803
  613SOL    HW1 1838   0.803   1.454   2.345  0.0836 -1.1114  0.4454
  613SOL    HW2 1839   0.762   1.289   2.341  2.9979  0.2924  0.4161
  614SOL     OW 1840   1.510   1.675   1.956 -0.1608  0.0548 -0.0008
  614SOL    HW1 1841   1.496   1.730   1.863 -1.7437 -0.7663  0.8695
  614SOL    HW2 1842   1.568   1.723   2.027  1.1900 -0.8421  1.6802
  615SOL     OW 1843   0.709   1.449   1.707  0.2266 -0.2310 -0.2624
  615SOL    HW1 1844   0.668   1.368   1.655 -1.9362 -1.3474 -0.0149
  615SOL    HW2 1845   0.784   1.503   1.651 -1.4301 -1.1062 -2.2821
  616SOL     OW 1846   1.107   1.623   2.211 -0.3957  0.1290 -0.1698
  616SOL    HW1 1847   1.009   1.609   2.234 -0.0801  2.1795  1.5147
  616SOL    HW2 1848   1.117   1.616   2.110 -2.1369  0.0269  2.1432
  617SOL     OW 1849   2.901   1.572   1.577  0.1374 -0.2043 -0.1244
  617SOL    HW1 1850   2.848   1.516   1.649 -2.5125 -1.2527 -0.2982
  617SOL    HW2 1851   2.951   1.507   1.515  1.6537  0.0193  0.9125
  618SOL     OW 1852   1.876   1.980   1.503 -0.1318  0.1437  0.4431
  618SOL    HW1 1853   1.940   1.944   1.434 -1.2324  0.1927 -1.7256
  618SOL    HW2 1854   1.853   1.903   1.573  1.0452  1.4649  0.7396
  619SOL     OW 1855   1.784   0.539   2.397  0.0058 -0.2363  0.1135
  619SOL    HW1 1856   1.698   0.583   2.356 -0.1678  2.1019 -1.9254
  619SOL    HW2 1857   1.773   0.436   2.417 -0.6027 -3.4193  0.1970
  620SOL     OW 1858   2.236   2.853   0.652 -0.1178 -1.1513 -0.0964
  620SOL    HW1 1859   2.159   2.917   0.625 -0.3198 -0.3070  1.5232
  620SOL    HW2 1860   2.244   2.834   0.758  0.1775 -1.1417  1.1207
  621SOL     OW 1861   2.128   1.909   1.359  0.0193  0.5151 -0.0498
  621SOL    HW1 1862   2.146   1.902   1.459 -0.8334  1.0410 -2.1705
  621SOL    HW2 1863   2.151   1.825   1.309 -0.9013  4.5746  0.0116
  622SOL     OW 1864   2.225   0.957   1.757 -1.2617  0.0727 -0.9817
  622SOL    HW1 1865   2.252   0.853   1.763  1.4326  0.1519 -0.5885
  622SOL    HW2 1866   2.145   0.973   1.821  2.4875  0.4486 -1.3729
  623SOL     OW 1867   1.273   0.912   2.551  0.2844  0.1849 -0.4958
  623SOL    HW1 1868   1.284   0.832   2.614  1.6482 -0.7176 -1.0965
  623SOL    HW2 1869   1.229   0.881   2.460 -2.0729 -3.6375 -1.0684
  624SOL     OW 1870   0.567   0.651   3.060 -0.2254 -0.8186  0.0428
  624SOL    HW1 1871   0.600   0.712   2.974  0.8585  2.3735 -2.7755
  624SOL    HW2 1872   0.547   0.715   3.144  0.9185  2.2529  3.0069
  625SOL     OW 1873   2.799   1.793   0.831 -0.2338  0.3694  0.4291
  625SOL    HW1 1874   2.768   1.845   0.913  1.0450  0.5589  0.2332
  625SOL    HW2 1875   2.724   1.736   0.788  2.4904  0.2363 -1.5801
  626SOL     OW 1876   0.447   2.840   2.043  0.5053  0.3428 -0.3060
  626SOL    HW1 1877   0.522   2.903   2.010  0.4728 -2.1543 -0.6655
  626SOL    HW2 1878   0.354   2.867   2.004  1.1804 -2.7106 -0.7677
  627SOL     OW 1879   0.702   0.972   1.547  0.1946 -0.8737  0.2663
  627SOL    HW1 1880   0.746   0.871   1.553  0.4612 -0.0874  1.6984
  627SOL    HW2 1881   0.765   1.040   1.498  1.6012  0.7498 -0.9891
  628SOL     OW 1882   2.463   0.122   0.663 -0.1086  0.3340  0.2009
  628SOL    HW1 1883   2.503   0.041   0.617 -1.4642 -1.8749  1.2125
  628SOL    HW2 1884   2.359   0.108   0.678 -0.3352 -2.3474  0.2553
  629SOL     OW 1885   2.012   0.952   1.966  0.4812 -0.0701  0.6314
  629SOL    HW1 1886   2.048   0.961   2.060 -0.5832  1.0311 -0.5048
  629SOL    HW2 1887   1.963   1.040   1.938 -1.8826  1.1866 -2.0805
  630SOL     OW 1888   2.838   2.229   0.778 -0.6327 -0.1721  0.4992
  630SOL    HW1 1889   2.767   2.295   0.807 -2.7539  3.3123  0.0531
  630SOL    HW2 1890   2.793   2.152   0.718 -0.5226 -0.3153 -1.9292
  631SOL     OW 1891   3.035   0.203   2.132  0.0701 -0.0368 -0.4490
  631SOL    HW1 1892   3.072   0.235   2.222 -1.0634  0.8984 -0.2868
  631SOL    HW2 1893   3.092   0.230   2.053 -0.4865 -2.0357  1.5851
  632SOL     OW 1894   2.415   2.508   0.732  0.0747  0.7062  0.1260
  632SOL    HW1 1895   2.495   2.558   0.776 -0.0699 -3.8828 -0.6456
  632SOL    HW2 1896   2.386   2.539   0.639  0.2468  0.2364 -0.9001
  633SOL     OW 1897   1.544   1.237   2.741 -0.0224 -0.2204 -0.0586
  633SOL    HW1 1898   1.501   1.318   2.793  0.9215 -0.7122 -0.8942
  633SOL    HW2 1899   1.479   1.209   2.664  0.7427 -0.8110  1.3362
  634SOL     OW 1900   0.686   2.074   0.868 -0.2355  0.4323  0.0470
  634SOL    HW1 1901   0.601   2.066   0.927  3.2974  0.2139 -1.5622
  634SOL    HW2 1902   0.757   2.140   0.907  2.1919 -0.1910 -1.2735
  635SOL     OW 1903   3.090   2.259   3.037 -0.5237  0.0954 -0.1163
  635SOL    HW1 1904   3.007   2.288   2.987 -0.2622 -0.1952  0.1756
  635SOL    HW2 1905   3.134   2.336   3.089 -0.7928  1.1191  0.7379
  636SOL     OW 1906   2.347   2.829   1.970 -0.4257 -0.3975 -0.1650
  636SOL    HW1 1907   2.336   2.929   1.959 -3.8046 -0.8674  0.1669
  636SOL    HW2 1908   2.301   2.798   2.060  2.6412  0.8616  1.1827
  637SOL     OW 1909   2.557   0.739   2.100 -0.0691 -0.1719 -0.4707
  637SOL    HW1 1910   2.510   0.740   2.005  2.4167  0.8496 -2.7148
  637SOL    HW2 1911   2.640   0.801   2.104 -1.6534  0.5117 -1.5869
  638SOL     OW 1912   2.418   1.932   1.370 -0.0619  0.3429 -0.7171
  638SOL    HW1 1913   2.316   1.952   1.381  0.6671 -2.3162 -1.4978
  638SOL    HW2 1914   2.441   1.829   1.379  1.9828 -3.2453  1.4836
  639SOL     OW 1915   1.285   2.252   1.593 -0.0675  0.5454  0.6871
  639SOL    HW1 1916   1.282   2.192   1.512  2.3339  1.9187  0.3803
  639SOL    HW2 1917   1.235   2.206   1.674 -1.4488 -1.2465  1.3431
  640SOL     OW 1918   0.258   1.173   1.532  0.4030 -0.5587  0.1699
  640SOL    HW1 1919   0.276   1.243   1.604 -2.8842 -0.1287 -0.7336
  640SOL    HW2 1920   0.347   1.134   1.491  2.3749  1.0604  0.5806
  641SOL     OW 1921   1.878   0.311   1.433 -0.2034  0.8876  0.4851
  641SOL    HW1 1922   1.834   0.398   1.470  2.2581 -1.4697 -2.3254
  641SOL    HW2 1923   1.875   0.233   1.502 -1.2506 -1.4804  0.6468
  642SOL     OW 1924   1.979   0.110   0.328  0.0275 -0.6065 -0.7577
  642SOL    HW1 1925   2.069   0.064   0.345 -1.0524 -1.2669 -1.5008
  642SOL    HW2 1926   1.938   0.139   0.423 -0.1794 -1.7162  2.2083
  643SOL     OW 1927   2.846   1.889   2.104  0.2807  0.1370 -0.0276
  643SOL    HW1 1928   2.781   1.813   2.071 -0.2298 -1.8891  0.4780
  643SOL    HW2 1929   2.856   1.975   2.044 -0.2420 -0.4570 -1.9792
  644SOL     OW 1930   2.218   2.298   1.165 -0.6276 -0.8337 -0.8292
  644SOL    HW1 1931   2.290   2.243   1.114  1.5222 -2.1258  0.4970
  644SOL    HW2 1932   2.206   2.275   1.268  2.5676 -1.3554  0.0295
  645SOL     OW 1933   0.679   0.867   1.101 -0.1564  0.5044  0.4658
  645SOL    HW1 1934   0.602   0.838   1.160  1.8227 -1.2500  2.0101
  645SOL    HW2 1935   0.664   0.955   1.052 -0.2422 -0.1386 -3.6547
  646SOL     OW 1936   1.450   1.913   1.782  0.4475  0.3635 -0.7739
  646SOL    HW1 1937   1.541   1.967   1.758 -0.2770  0.6388 -0.4913
  646SOL    HW2 1938   1.389   1.949   1.861  0.7673  2.1387  0.9956
  647SOL     OW 1939   0.877   0.884   0.671 -0.0939 -0.7563  0.3315
  647SOL    HW1 1940   0.928   0.877   0.764 -1.0816  0.7880  0.5720
  647SOL    HW2 1941   0.774   0.862   0.669 -1.2130  1.3664  0.3270
  648SOL     OW 1942   0.031   0.230   0.336  0.2241 -0.3005  0.5079
  648SOL    HW1 1943   0.014   0.148   0.272 -0.1075  2.2825  2.2011
  648SOL    HW2 1944   0.026   0.323   0.288  0.2422  0.3968 -0.3711
  649SOL     OW 1945   0.047   0.053   0.999  0.0763  0.0695  0.1097
  649SOL    HW1 1946   0.132  -0.002   0.976  0.5780 -0.8483  0.7129
  649SOL    HW2 1947   0.056   0.097   1.089  1.4643 -0.4368  1.4747
  650SOL     OW 1948   2.737   0.709   1.455 -0.1633 -0.3858  0.1050
  650SOL    HW1 1949   2.644   0.711   1.497 -0.2597 -3.1253  2.3390
  650SOL    HW2 1950   2.752   0.791   1.394 -0.2134  1.1584  0.0649
  651SOL     OW 1951   0.901   1.585   1.467  0.6984 -0.4430 -0.1271
  651SOL    HW1 1952   0.955   1.627   1.552 -0.7040  1.7210  2.1953
  651SOL    HW2 1953   0.831   1.650   1.431  0.4310 -1.2229  1.3485
  652SOL     OW 1954   2.262   2.518   2.360 -0.3932  0.5850  0.3599
  652SOL    HW1 1955   2.180   2.501   2.417 -2.0050 -2.4063  1.4146
  652SOL    HW2 1956   2.256   2.614   2.315  1.4673  1.4488  0.9841
  653SOL     OW 1957   2.793   1.123   0.203 -0.7642 -0.3576  0.1499
  653SOL    HW1 1958   2.857   1.206   0.188  0.6464  1.6205 -2.2727
  653SOL    HW2 1959   2.834   1.067   0.276  0.9521  2.8130 -1.3996
  654SOL     OW 1960   1.212   2.225   1.206  0.0881  0.2375  0.3546
  654SOL    HW1 1961   1.212   2.152   1.282 -0.4647  1.0526  2.7755
  654SOL    HW2 1962   1.281   2.216   1.126  0.1115 -0.1664 -0.2699
  655SOL     OW 1963   0.216   1.045   1.918  0.5499  0.0577  0.1555
  655SOL    HW1 1964   0.222   0.961   1.859 -0.5011 -2.6943 -0.9538
  655SOL    HW2 1965   0.301   1.096   1.921 -0.8479 -1.3708  0.8898
  656SOL     OW 1966   2.440   2.436   2.546 -0.2905  0.7013 -0.5904
  656SOL    HW1 1967   2.530   2.490   2.551 -3.2268  3.8675  0.1981
  656SOL    HW2 1968   2.377   2.459   2.462  1.3474  2.0146 -3.2132
  657SOL     OW 1969   3.058   1.102   1.864 -0.4456  0.2123 -0.4306
  657SOL    HW1 1970   3.043   1.205   1.853  1.6446 -0.3978 -0.5427
  657SOL    HW2 1971   3.156   1.078   1.885 -2.1952 -1.8197 -1.9235
  658SOL     OW 1972   1.728   0.242   2.397  0.2740  0.1640  0.0161
  658SOL    HW1 1973   1.698   0.154   2.456 -0.7899 -2.7864  2.7691
  658SOL    HW2 1974   1.779   0.226   2.310  1.4762  0.7438  1.7957
  659SOL     OW 1975   1.425   0.614   2.804  0.5124 -0.3057 -0.2463
  659SOL    HW1 1976   1.503   0.651   2.860 -0.3801 -0.4613  2.0113
  659SOL    HW2 1977   1.345   0.678   2.778 -0.1666 -1.7575 -0.0541
  660SOL     OW 1978   1.359   0.396   1.438 -0.2515  0.3354 -0.2292
  660SOL    HW1 1979   1.411   0.442   1.514 -1.0700 -0.7229 -0.7067
  660SOL    HW2 1980   1.424   0.354   1.370  1.7799 -1.8117 -2.0525
  661SOL     OW 1981   2.430   1.141   0.635 -0.3178  0.1893 -0.4085
  661SOL    HW1 1982   2.499   1.068   0.608  0.6851  2.2654 -3.4526
  661SOL    HW2 1983   2.345   1.141   0.571  0.2913 -1.4204  0.4730
  662SOL     OW 1984   1.287   0.431   1.866  0.1478  0.1688  0.5756
  662SOL    HW1 1985   1.227   0.350   1.857  2.2649  1.7897 -1.2995
  662SOL    HW2 1986   1.290   0.492   1.948 -0.4409  0.5089 -2.1525
  663SOL     OW 1987   0.835   1.577   2.221  0.5849 -0.6611  0.5244
  663SOL    HW1 1988   0.796   1.664   2.249 -2.3001 -1.3271  1.6338
  663SOL    HW2 1989   0.789   1.545   2.133  0.1232 -0.0425 -2.8810
  664SOL     OW 1990   1.606   2.081   1.417 -0.4083  0.2065  0.3224
  664SOL    HW1 1991   1.514   2.037   1.444  0.0987  1.1314 -1.0736
  664SOL    HW2 1992   1.688   2.037   1.462  0.5421 -0.4568  1.4690
  665SOL     OW 1993   2.240   0.601   1.972 -0.6463  0.4776 -0.0010
  665SOL    HW1 1994   2.268   0.501   1.991 -5.0153 -0.8038 -0.1736
  665SOL    HW2 1995   2.192   0.649   2.051 -0.3785 -1.0125 -1.0411
  666SOL     OW 1996   0.539   2.241   0.457  0.9871 -0.3610 -0.4026
  666SOL    HW1 1997   0.535   2.347   0.457 -2.0783 -1.2464  0.6920
  666SOL    HW2 1998   0.483   2.204   0.536 -1.3761  0.1163  0.0318
  667SOL     OW 1999   2.072   0.227   0.990 -0.3005 -0.1655  0.4979
  667SOL    HW1 2000   2.151   0.288   0.987  0.2837  0.0483  0.2838
  667SOL    HW2 2001   1.999   0.248   1.065 -0.9980  0.1631 -0.5879
  668SOL     OW 2002   2.072   0.606   1.254 -0.4893 -0.6451 -0.3885
  668SOL    HW1 2003   2.128   0.555   1.183  3.3207 -0.1210 -0.4979
  668SOL    HW2 2004   2.094   0.575   1.352 -2.6169  1.9766  0.9420
  669SOL     OW 2005   3.026   2.246   0.975 -0.0172  0.4310  0.1340
  669SOL    HW1 2006   2.949   2.229   0.902  0.4629  1.4222 -3.2209
  669SOL    HW2 2007   2.994   2.222   1.071  0.2383 -2.1455  2.2059
  670SOL     OW 2008   2.817   2.374   2.019  0.0250  0.1312  0.1357
  670SOL    HW1 2009   2.747   2.371   2.096 -1.0232  0.8867  1.4139
  670SOL    HW2 2010   2.804   2.463   1.962 -0.1156 -0.5061 -0.6411
  671SOL     OW 2011   1.685   1.772   1.454 -0.0339 -0.0703  0.2322
  671SOL    HW1 2012   1.699   1.755   1.357 -1.6671 -0.8430  1.5250
  671SOL    HW2 2013   1.588   1.783   1.490  1.8168  2.0171  1.0041
  672SOL     OW 2014   0.413   0.662   2.428  0.4265 -0.0609  0.0737
  672SOL    HW1 2015   0.426   0.649   2.324 -1.9838 -0.6474 -3.2549
  672SOL    HW2 2016   0.320   0.694   2.453 -0.1717 -1.4758  0.2855
  673SOL     OW 2017   0.125   1.246   1.112 -0.0387 -0.4160  0.3096
  673SOL    HW1 2018   0.146   1.318   1.187  0.3711 -0.4281  4.0200
  673SOL    HW2 2019   0.212   1.191   1.088  0.2496  0.1214  0.7018
  674SOL     OW 2020   1.598   2.951   0.147 -0.0683 -0.1851 -0.2340
  674SOL    HW1 2021   1.598   3.053   0.115 -0.1382 -0.6214 -0.5420
  674SOL    HW2 2022   1.654   2.894   0.084  0.0966  0.1814  0.4960
  675SOL     OW 2023   1.698   0.880   2.363 -0.0404 -0.0820 -0.1548
  675SOL    HW1 2024   1.799   0.870   2.365 -2.3015  0.0148  1.3585
  675SOL    HW2 2025   1.645   0.809   2.305 -0.7294 -1.6178  1.7179
  676SOL     OW 2026   2.546   1.488   1.986  0.0927  0.4416  0.2135
  676SOL    HW1 2027   2.503   1.473   1.891 -0.5844  0.4167 -1.7469
  676SOL    HW2 2028   2.545   1.399   2.041 -3.1901 -0.4730 -1.5719
  677SOL     OW 2029   1.945   0.534   0.945 -0.0408  0.0608  0.1820
  677SOL    HW1 2030   1.915   0.630   0.975  1.4900 -4.1242  1.1563
  677SOL    HW2 2031   1.915   0.465   1.017 -2.2795  0.5443  0.3807
  678SOL     OW 2032   0.067   0.727   1.693  0.0562 -0.6781  0.0906
  678SOL    HW1 2033   0.160   0.771   1.714  1.6116  1.1530 -0.4945
  678SOL    HW2 2034  -0.005   0.753   1.762 -1.8609  1.2546 -0.6151
  679SOL     OW 2035   2.491   1.152   1.151  0.3702 -0.8393 -0.1771
  679SOL    HW1 2036   2.388   1.171   1.168  0.5708  1.2022  0.8876
  679SOL    HW2 2037   2.508   1.067   1.095 -0.3004  1.0799 -0.6134
  680SOL     OW 2038   2.854   0.629   1.691 -0.0893  0.4078 -0.2722
  680SOL    HW1 2039   2.828   0.675   1.599 -1.5784  0.1638  3.3156
  680SOL    HW2 2040   2.901   0.699   1.756  1.1760 -2.3064  1.2885
  681SOL     OW 2041   3.057   0.184   1.637 -0.0093  0.5952  0.7164
  681SOL    HW1 2042   3.105   0.131   1.560  2.0616 -0.0704  1.5759
  681SOL    HW2 2043   3.018   0.272   1.600 -0.9525  1.1931 -1.1369
  682SOL     OW 2044   0.730   3.069   1.362  0.1373  0.2039  0.3945
  682SOL    HW1 2045   0.671   3.003   1.420 -0.0309 -1.7746 -2.8337
  682SOL    HW2 2046   0.739   3.033   1.262  0.6402 -2.5777  1.1117
  683SOL     OW 2047   1.425   0.226   2.216  0.0040  0.3651 -0.6782
  683SOL    HW1 2048   1.418   0.322   2.255  0.1720  0.8660  0.8667
  683SOL    HW2 2049   1.484   0.224   2.128 -0.4588  1.7843  0.9627
  684SOL     OW 2050   1.448   2.142   0.478 -0.4779 -0.0863 -0.1288
  684SOL    HW1 2051   1.502   2.096   0.553 -0.5185 -1.8966 -1.4533
  684SOL    HW2 2052   1.369   2.082   0.445  1.2711 -1.8894 -1.4656
  685SOL     OW 2053   2.133   1.929   2.019  0.1391  0.2930 -0.0575
  685SOL    HW1 2054   2.197   2.006   1.996 -1.1274  0.2378 -0.7349
  685SOL    HW2 2055   2.177   1.856   2.078 -0.2575 -0.0378  0.2175
  686SOL     OW 2056   1.489   1.693   2.727 -0.5672 -0.0542 -0.2753
  686SOL    HW1 2057   1.517   1.596   2.705  3.2938  0.5163 -2.0987
  686SOL    HW2 2058   1.500   1.704   2.825  1.0469 -0.3370 -1.2658
  687SOL     OW 2059   1.325   2.497   1.926  0.2959  0.2078  0.0474
  687SOL    HW1 2060   1.382   2.447   1.854  0.2803  2.0106  0.2161
  687SOL    HW2 2061   1.380   2.488   2.015 -0.2148 -4.3464  2.8490
  688SOL     OW 2062   2.055   1.497   1.569  0.5652 -0.6557 -0.3676
  688SOL    HW1 2063   2.152   1.532   1.565  0.3200  2.3755  1.4647
  688SOL    HW2 2064   2.016   1.463   1.477 -1.8562  1.6319 -2.9550
  689SOL     OW 2065   2.449   1.088   2.746 -0.2057  0.5441 -0.1881
  689SOL    HW1 2066   2.360   1.043   2.779  0.7614 -2.3962 -1.2421
  689SOL    HW2 2067   2.530   1.074   2.802 -1.5113  1.9236 -0.9289
  690SOL     OW 2068   2.243   2.797   3.039 -0.2187  0.1201  0.4060
  690SOL    HW1 2069   2.158   2.737   3.030 -1.3695 -1.2795  4.1023
  690SOL    HW2 2070   2.232   2.852   3.125 -0.9909 -0.0519 -3.2424
  691SOL     OW 2071   2.596   0.459   2.139  0.3010  0.4732  0.6227
  691SOL    HW1 2072   2.671   0.408   2.086  0.4591 -0.3298 -0.2895
  691SOL    HW2 2073   2.584   0.561   2.111 -0.2158  0.4128 -0.1258
  692SOL     OW 2074   2.716   1.194   0.679 -0.2206 -0.7657  0.4982
  692SOL    HW1 2075   2.618   1.198   0.643  0.4963 -0.9313  3.0275
  692SOL    HW2 2076   2.745   1.279   0.726 -0.1724  0.3879 -3.1155
  693SOL     OW 2077   2.836   2.922   0.644  0.3652  0.1100 -0.2134
  693SOL    HW1 2078   2.857   2.999   0.709  0.6759  0.2175 -0.1031
  693SOL    HW2 2079   2.799   2.949   0.551  0.2294 -2.2205  1.4336
  694SOL     OW 2080   2.414   2.194   0.066  0.0463  0.3696  0.0481
  694SOL    HW1 2081   2.387   2.280   0.120  1.1435  0.5566  4.8173
  694SOL    HW2 2082   2.334   2.155   0.010  3.2983  0.1887 -0.2558
  695SOL     OW 2083   0.541   2.932   1.507 -0.3343  0.4404  0.9118
  695SOL    HW1 2084   0.481   2.851   1.476 -1.4211  0.4617  0.5070
  695SOL    HW2 2085   0.503   2.979   1.591  0.4672 -0.6302 -1.7051
  696SOL     OW 2086   2.714   2.006   0.659 -0.2487  0.7704  0.4221
  696SOL    HW1 2087   2.785   1.937   0.690 -0.7911 -0.5095 -0.0764
  696SOL    HW2 2088   2.652   1.979   0.577  1.2162  0.5913  1.1853
  697SOL     OW 2089   1.689   2.061   1.763 -0.2891  0.1150  0.1675
  697SOL    HW1 2090   1.748   2.008   1.826 -0.9472  0.1075 -0.7088
  697SOL    HW2 2091   1.731   2.073   1.668 -1.0661  2.6001 -0.1812
  698SOL     OW 2092   2.928   0.351   2.804 -0.8419  0.4676  0.4032
  698SOL    HW1 2093   2.923   0.339   2.701 -0.0561  0.3582  1.5718
  698SOL    HW2 2094   3.025   0.328   2.830  2.0184 -0.6537  0.2284
  699SOL     OW 2095   1.549   0.112   2.929  0.1972  0.1589  0.1277
  699SOL    HW1 2096   1.496   0.031   2.895  0.1665  1.7809  2.8188
  699SOL    HW2 2097   1.598   0.159   2.849  1.3110 -0.3859  0.8555
  700SOL     OW 2098   0.978   2.452   1.354 -0.1301  0.1567  0.4542
  700SOL    HW1 2099   1.070   2.407   1.339  0.2354  3.0116  1.1477
  700SOL    HW2 2100   0.907   2.416   1.290 -0.0119  2.5179 -0.1272
  701SOL     OW 2101   1.830   2.842   3.080  0.2220 -0.3006  0.0341
  701SOL    HW1 2102   1.859   2.768   3.148 -0.8659  0.3512 -0.2797
  701SOL    HW2 2103   1.855   2.936   3.116  1.3129  0.2784  0.0169
  702SOL     OW 2104   2.111   1.362   1.800  0.2371 -0.0330  0.1735
  702SOL    HW1 2105   2.193   1.300   1.777 -0.7047  1.5790 -0.3204
  702SOL    HW2 2106   2.095   1.424   1.720  2.2198  2.0644  0.0516
  703SOL     OW 2107   1.986   0.894   1.467  0.6958 -0.2038  0.3132
  703SOL    HW1 2108   1.982   0.812   1.531  0.0395  0.6066 -2.7216
  703SOL    HW2 2109   1.998   0.982   1.520 -2.2365 -0.3180  1.2977
  704SOL     OW 2110   0.291   2.045   1.756  0.2206 -0.7001 -0.6178
  704SOL    HW1 2111   0.341   1.976   1.815  2.6363  0.9013 -1.8103
  704SOL    HW2 2112   0.350   2.132   1.744  2.8119  2.3699  1.8772
  705SOL     OW 2113   2.531   1.428   0.875 -0.3111  0.4550 -0.0130
  705SOL    HW1 2114   2.452   1.375   0.920 -1.9355  2.4760  1.2218
  705SOL    HW2 2115   2.626   1.392   0.891  0.8546  1.2521 -3.9121
  706SOL     OW 2116   0.625   1.773   1.860  0.2656 -0.0160  0.1070
  706SOL    HW1 2117   0.614   1.671   1.864  2.1565 -1.6278 -0.0410
  706SOL    HW2 2118   0.718   1.800   1.896 -0.7334 -2.5229  0.6918
  707SOL     OW 2119   2.351   1.203   1.753  0.3300 -0.2006 -0.7548
  707SOL    HW1 2120   2.425   1.222   1.821 -1.5197 -0.4983  2.7262
  707SOL    HW2 2121   2.326   1.106   1.754 -0.9075  0.0094 -1.2726
  708SOL     OW 2122   3.019   0.524   3.068 -0.5115  0.3292 -0.0262
  708SOL    HW1 2123   3.041   0.570   2.978  0.5613 -2.0092  2.0660
  708SOL    HW2 2124   3.049   0.420   3.066  0.1413  1.7324 -1.8485
  709SOL     OW 2125   1.757   1.837   0.221  0.0840  0.5195  0.1450
  709SOL    HW1 2126   1.784   1.936   0.238 -3.4009  0.7761 -3.8016
  709SOL    HW2 2127   1.781   1.804   0.123 -2.4649 -0.8403 -3.2135
  710SOL     OW 2128   1.748   1.678   2.444  0.1249 -0.3140  0.2926
  710SOL    HW1 2129   1.807   1.647   2.363 -1.6598 -0.3074 -0.5797
  710SOL    HW2 2130   1.776   1.671   2.542 -1.4508 -0.3001 -0.3699
  711SOL     OW 2131   2.612   2.895   0.977 -0.1729 -0.6177 -0.0149
  711SOL    HW1 2132   2.610   2.989   0.941 -0.0829 -3.7013 -1.4819
  711SOL    HW2 2133   2.683   2.884   1.049  0.0004 -0.4366 -0.8700
  712SOL     OW 2134   1.509   2.305   1.764 -0.5687 -0.7918  0.2490
  712SOL    HW1 2135   1.572   2.225   1.769  0.8883 -0.8673  1.7001
  712SOL    HW2 2136   1.426   2.293   1.703  0.5074  0.9858 -0.7699
  713SOL     OW 2137   2.836   1.312   2.516  0.3011 -0.2885 -0.2009
  713SOL    HW1 2138   2.867   1.237   2.456  1.0255  2.8414  2.1861
  713SOL    HW2 2139   2.807   1.277   2.609  0.1736 -0.9451 -0.3446
  714SOL     OW 2140   2.652   0.431   2.444 -0.4308  0.0823 -0.3718
  714SOL    HW1 2141   2.574   0.402   2.507  0.4348  0.9523  0.2573
  714SOL    HW2 2142   2.625   0.433   2.343 -0.8833 -1.5878 -0.2757
  715SOL     OW 2143   1.630   2.093   1.115 -0.0717  0.5820  0.3087
  715SOL    HW1 2144   1.574   2.168   1.073 -3.0307 -0.5275  0.3954
  715SOL    HW2 2145   1.648   2.104   1.217 -3.4168  3.5318 -0.9834
  716SOL     OW 2146   1.175   0.165   1.455 -0.8169 -0.7507  0.0643
  716SOL    HW1 2147   1.079   0.204   1.427  1.5283  0.0880 -0.2047
  716SOL    HW2 2148   1.243   0.245   1.474  0.9231 -1.2127 -0.4494
  717SOL     OW 2149   1.058   0.521   1.606  0.3407 -0.1747 -0.0114
  717SOL    HW1 2150   1.155   0.529   1.641  2.1608 -0.0912  0.9408
  717SOL    HW2 2151   1.053   0.522   1.503  3.0845 -2.6404  0.3602
  718SOL     OW 2152   0.643   1.135   1.027 -0.4300  0.6716  0.2948
  718SOL    HW1 2153   0.647   1.166   0.926  0.4749  2.3542  0.3436
  718SOL    HW2 2154   0.716   1.182   1.086  2.3216 -0.9083  1.0030
  719SOL     OW 2155   0.708   1.815   2.272  0.4004  0.8882  0.3662
  719SOL    HW1 2156   0.773   1.838   2.348 -1.2738  0.7599  0.3916
  719SOL    HW2 2157   0.610   1.856   2.279 -4.0408  1.3385 -2.6236
  720SOL     OW 2158   2.275   1.158   0.226  0.2071 -0.5126  0.0982
  720SOL    HW1 2159   2.352   1.088   0.242  0.8667  0.0682  3.6580
  720SOL    HW2 2160   2.238   1.185   0.321  4.4794  0.2799  2.6322
  721SOL     OW 2161   2.277   3.093   2.019  0.8700  0.4086  0.2040
  721SOL    HW1 2162   2.289   3.178   1.959  2.2602 -1.4886  0.8146
  721SOL    HW2 2163   2.175   3.074   2.037  0.9357 -1.6217 -1.8077
  722SOL     OW 2164   2.431   1.701   0.496 -0.0026 -0.1694 -0.0146
  722SOL    HW1 2165   2.457   1.655   0.407  1.3949  0.1989  0.9788
  722SOL    HW2 2166   2.329   1.692   0.513 -0.7762 -0.6475 -0.1838
  723SOL     OW 2167   2.610   2.877   1.900 -0.3390  0.2195 -0.4737
  723SOL    HW1 2168   2.642   2.910   1.997  1.5293  1.3760 -1.8513
  723SOL    HW2 2169   2.509   2.863   1.901  2.4179 -4.1076  1.1180
  724SOL     OW 2170   0.305   2.407   2.335  0.1239 -0.3306  0.3397
  724SOL    HW1 2171   0.208   2.443   2.330 -0.8597 -0.4416  0.3280
  724SOL    HW2 2172   0.361   2.422   2.421 -0.4612 -0.1080 -2.7084
  725SOL     OW 2173   2.326   2.799   1.468  0.4085  0.0225  0.4210
  725SOL    HW1 2174   2.386   2.806   1.391 -1.9727  1.2243 -1.0204
  725SOL    HW2 2175   2.307   2.708   1.500  0.5071  1.5781 -1.7058
  726SOL     OW 2176   2.378   2.244   0.767 -0.3523  0.1761 -0.7356
  726SOL    HW1 2177   2.394   2.351   0.759  0.3039  1.0406 -2.4623
  726SOL    HW2 2178   2.339   2.204   0.680 -0.2059 -2.3395  0.5306
  727SOL     OW 2179   0.222   0.005   0.144 -0.2846  0.0947 -0.0931
  727SOL    HW1 2180   0.254  -0.068   0.076 -0.7656 -0.6123  0.8942
  727SOL    HW2 2181   0.266   0.100   0.129 -0.4794  0.2919 -3.8544
  728SOL     OW 2182   2.799   0.671   1.066 -0.2385 -0.3455 -0.2537
  728SOL    HW1 2183   2.722   0.664   0.996 -2.5333  0.7805  0.4593
  728SOL    HW2 2184   2.787   0.595   1.135 -2.4155  0.3879 -1.8806
  729SOL     OW 2185   2.993   2.474   0.706  0.4793  0.0453 -0.0250
  729SOL    HW1 2186   2.936   2.392   0.691 -1.9789 -0.8794 -1.5068
  729SOL    HW2 2187   3.092   2.453   0.715 -1.3198  0.7129 -1.4847
  730SOL     OW 2188   2.624   0.578   0.851  0.3719 -0.0985  0.0482
  730SOL    HW1 2189   2.583   0.667   0.819 -0.2484 -0.8553  3.0575
  730SOL    HW2 2190   2.697   0.549   0.788 -2.5546  0.4082  2.4068
  731SOL     OW 2191   0.165   2.145   2.492  0.7168  1.0819  0.0830
  731SOL    HW1 2192   0.155   2.155   2.597  2.0266  0.7144  1.7087
  731SOL    HW2 2193   0.237   2.209   2.460 -1.2893 -2.8510  2.3722
  732SOL     OW 2194   1.135   2.838   2.027 -0.3296  0.1452  0.6620
  732SOL    HW1 2195   1.145   2.767   2.105 -0.1587 -2.3239 -0.1588
  732SOL    HW2 2196   1.178   2.799   1.937 -0.9051  0.9360 -0.9496
  733SOL     OW 2197   3.022   0.677   2.126 -0.1400 -0.2686 -0.5349
  733SOL    HW1 2198   3.119   0.719   2.121  0.1439  0.0438 -1.3770
  733SOL    HW2 2199   3.010   0.590   2.068  2.1218 -1.6522 -0.4024
  734SOL     OW 2200   1.381   0.372   2.687  0.2483  0.0500  0.1965
  734SOL    HW1 2201   1.374   0.459   2.737 -1.0780  0.5207 -1.1073
  734SOL    HW2 2202   1.294   0.315   2.707  0.1015 -0.2713 -1.1076
  735SOL     OW 2203   2.798   2.648   2.280 -0.1809  0.4694  0.0688
  735SOL    HW1 2204   2.697   2.654   2.259  0.4527 -1.0107  1.4139
  735SOL    HW2 2205   2.860   2.640   2.200  0.3801  0.2657 -0.7378
  736SOL     OW 2206   0.803   0.374   2.570 -0.1029 -0.2073 -0.6576
  736SOL    HW1 2207   0.752   0.464   2.564 -1.3790  0.4413  1.1736
  736SOL    HW2 2208   0.815   0.328   2.477  0.6638 -1.9675 -2.3961
  737SOL     OW 2209   2.670   0.438   2.893 -0.0345 -0.5917  0.4078
  737SOL    HW1 2210   2.626   0.407   2.982 -0.5265 -3.2989  1.4055
  737SOL    HW2 2211   2.772   0.418   2.887  2.1094 -1.2595  2.5050
  738SOL     OW 2212   1.663   1.136   0.002 -0.3635 -0.1091  1.2020
  738SOL    HW1 2213   1.745   1.111  -0.051 -0.9008  1.7771  0.9959
  738SOL    HW2 2214   1.623   1.055   0.046  0.0764  1.3521 -0.5910
  739SOL     OW 2215   1.814   0.543   0.695  0.1909  0.5516  0.0202
  739SOL    HW1 2216   1.863   0.543   0.785 -1.5106 -0.6630 -1.3271
  739SOL    HW2 2217   1.824   0.450   0.648 -0.0556  0.1875  1.9166
  740SOL     OW 2218   1.900   2.061   2.148  0.2866  0.7121  0.4555
  740SOL    HW1 2219   1.970   2.013   2.086  1.2800  0.1859  1.0942
  740SOL    HW2 2220   1.802   2.052   2.117  2.2625  0.0539  1.1755
  741SOL     OW 2221   2.537   0.020   2.605  0.7528 -0.1062 -0.6754
  741SOL    HW1 2222   2.635   0.052   2.594  0.7342  0.5787  0.8958
  741SOL    HW2 2223   2.484   0.014   2.514  1.6796  3.0708 -0.2925
  742SOL     OW 2224   2.265   1.407   0.088  0.3297  0.2770 -0.2268
  742SOL    HW1 2225   2.187   1.469   0.128 -1.5351  0.2688  0.8805
  742SOL    HW2 2226   2.253   1.302   0.106 -2.4415  0.4992 -0.4246
  743SOL     OW 2227   1.757   0.654   2.651  0.0007  0.1543  0.3754
  743SOL    HW1 2228   1.758   0.608   2.560 -1.6497  0.2882  0.2444
  743SOL    HW2 2229   1.687   0.730   2.667 -0.6363  0.4818 -0.2631
  744SOL     OW 2230   2.678   2.104   0.112 -0.5045  0.9883  0.1883
  744SOL    HW1 2231   2.581   2.132   0.107  0.1960 -1.4798  1.4371
  744SOL    HW2 2232   2.680   2.016   0.163  3.8004  0.3587  1.8341
  745SOL     OW 2233   2.209   2.759   2.198 -0.1772  0.1774 -0.4336
  745SOL    HW1 2234   2.112   2.749   2.163  1.1084  0.1165  1.4475
  745SOL    HW2 2235   2.212   2.784   2.295  1.5909  1.0944  0.9104
  746SOL     OW 2236   3.071   2.606   1.805 -0.2343  0.1049  0.1897
  746SOL    HW1 2237   3.172   2.629   1.778  0.7596  1.4125 -3.9240
  746SOL    HW2 2238   3.024   2.695   1.838 -0.4530  3.3674 -0.6181
  747SOL     OW 2239   0.014   1.781   1.685 -0.6101 -0.1878  0.3350
  747SOL    HW1 2240  -0.024   1.688   1.661  0.0196  0.6556  1.1226
  747SOL    HW2 2241   0.099   1.806   1.626 -0.2862 -1.6012 -1.6718
  748SOL     OW 2242   1.763   2.715   2.849 -0.0887 -0.0465 -0.3785
  748SOL    HW1 2243   1.785   2.782   2.928  2.0077  1.3559  2.2824
  748SOL    HW2 2244   1.660   2.713   2.840 -0.0670  1.4744 -0.7031
  749SOL     OW 2245   1.336   0.073   0.888  0.4999 -0.1231 -0.2986
  749SOL    HW1 2246   1.304  -0.021   0.908 -0.1800  0.6044 -0.0799
  749SOL    HW2 2247   1.338   0.091   0.785 -0.0297  1.2530  0.8570
  750SOL     OW 2248   2.276   0.231   1.887  0.0850 -0.4868  1.1047
  750SOL    HW1 2249   2.338   0.280   1.816 -1.2966 -1.7546 -0.6081
  750SOL    HW2 2250   2.294   0.263   1.980  0.2163 -1.5178 -1.3677
  751SOL     OW 2251   0.859   2.256   2.921 -0.2623 -0.3132  0.4891
  751SOL    HW1 2252   0.963   2.239   2.941  2.6455  0.5589 -2.0885
  751SOL    HW2 2253   0.805   2.167   2.899  0.9397  0.8485 -0.8647
  752SOL     OW 2254   1.248   0.879   1.491 -0.0206 -0.6462 -0.6624
  752SOL    HW1 2255   1.326   0.935   1.455  1.7794 -1.3460  0.8649
  752SOL    HW2 2256   1.273   0.802   1.558 -3.0739 -1.3025  1.0754
  753SOL     OW 2257   0.901   2.597   1.747  0.0408 -0.6361  0.0779
  753SOL    HW1 2258   0.986   2.632   1.699 -1.0560 -0.9409 -2.9577
  753SOL    HW2 2259   0.824   2.668   1.751  0.8252  1.0477  0.3790
  754SOL     OW 2260   1.137   1.326   3.041  0.0641 -0.0091 -0.2068
  754SOL    HW1 2261   1.183   1.250   2.986 -0.2502  0.9717  2.4322
  754SOL    HW2 2262   1.153   1.418   2.994  1.8314  1.3752 -0.3866
  755SOL     OW 2263   2.031   0.525   2.264  0.0860  0.5698  0.2424
  755SOL    HW1 2264   2.104   0.464   2.301  0.3395  0.3442  0.2081
  755SOL    HW2 2265   1.945   0.530   2.325  0.7600 -0.7882  0.2332
  756SOL     OW 2266   2.641   0.966   2.928  0.0084  0.1066 -0.1034
  756SOL    HW1 2267   2.722   0.906   2.904  1.6184 -0.9012  2.6407
  756SOL    HW2 2268   2.577   0.921   3.000 -1.6107 -1.0420  1.4012
  757SOL     OW 2269   0.164   0.453   1.717 -0.3440  0.0419  0.2506
  757SOL    HW1 2270   0.100   0.533   1.703  0.8503 -1.6138  1.5454
  757SOL    HW2 2271   0.230   0.443   1.641 -0.3904 -1.4277 -0.8446
  758SOL     OW 2272   2.474   0.066   1.499 -0.5518 -0.1616 -0.0467
  758SOL    HW1 2273   2.389   0.048   1.552  0.3658  0.4087  0.4633
  758SOL    HW2 2274   2.469   0.034   1.399 -0.7318  3.0428  0.0991
  759SOL     OW 2275   1.659   0.119   0.082  0.2941  0.8094 -0.4307
  759SOL    HW1 2276   1.631   0.142  -0.014 -0.5360  2.1758  0.9188
  759SOL    HW2 2277   1.759   0.093   0.076 -1.3972 -0.7690 -3.2606
  760SOL     OW 2278   2.742   1.960   2.757 -0.1145  0.2805  0.0807
  760SOL    HW1 2279   2.794   1.889   2.697  0.6734 -1.5210 -0.2141
  760SOL    HW2 2280   2.784   2.053   2.736  2.8498 -1.3470  0.0619
  761SOL     OW 2281   1.865   1.733   1.654 -0.9177 -0.6620  0.2346
  761SOL    HW1 2282   1.939   1.663   1.648  0.8204  2.3079  0.4974
  761SOL    HW2 2283   1.792   1.725   1.576 -0.2634  0.4226  0.8953
  762SOL     OW 2284   0.508   2.392   0.995 -0.0903 -0.1908  0.4676
  762SOL    HW1 2285   0.528   2.404   0.891  1.0732 -2.7707  1.4886
  762SOL    HW2 2286   0.523   2.480   1.044 -2.2985  1.7260  0.4606
  763SOL     OW 2287   2.003   1.586   2.955  0.0153 -0.2617 -0.2687
  763SOL    HW1 2288   2.067   1.527   2.898 -1.2789 -1.1508  2.0923
  763SOL    HW2 2289   1.960   1.526   3.030  0.3989 -0.1628 -1.9672
  764SOL     OW 2290   0.698   0.591   0.827  0.3876  0.2171 -0.3424
  764SOL    HW1 2291   0.684   0.562   0.729  1.0028 -0.6725  0.1400
  764SOL    HW2 2292   0.785   0.558   0.874 -1.3785 -3.1986 -0.5073
  765SOL     OW 2293   0.629   0.229   0.797 -0.4975 -0.2284 -0.3890
  765SOL    HW1 2294   0.707   0.289   0.765  0.9832  0.0877  1.0698
  765SOL    HW2 2295   0.626   0.213   0.900 -0.5607 -0.3233 -3.0791
  766SOL     OW 2296   3.003   1.964   2.962 -0.8045  0.2399 -0.7487
  766SOL    HW1 2297   2.920   1.968   2.902  0.2672 -1.0776  1.2530
  766SOL    HW2 2298   3.046   2.060   2.977 -2.1979  2.0409 -1.4523
  767SOL     OW 2299   2.726   1.558   0.485 -0.1743 -0.2335  0.1307
  767SOL    HW1 2300   2.657   1.586   0.560 -1.0839 -0.0790  0.8294
  767SOL    HW2 2301   2.819   1.604   0.498 -1.2993 -0.6929  0.2570
  768SOL     OW 2302   1.065   0.307   0.292  0.1176  0.4362  0.3915
  768SOL    HW1 2303   0.981   0.280   0.234 -2.5563  0.1641 -2.6012
  768SOL    HW2 2304   1.149   0.242   0.280  1.2356  0.6855 -1.9048
  769SOL     OW 2305   1.352   1.785   2.237  1.0080 -0.4474 -0.4689
  769SOL    HW1 2306   1.418   1.717   2.274 -2.4100 -1.0730 -1.1108
  769SOL    HW2 2307   1.253   1.748   2.239 -3.2459  1.1297 -3.2377
  770SOL     OW 2308   0.194   1.150   2.291 -0.0819  0.3486 -0.5692
  770SOL    HW1 2309   0.159   1.168   2.389 -0.8147  1.0068  1.7915
  770SOL    HW2 2310   0.117   1.153   2.227  0.0710  1.6055  1.5346
  771SOL     OW 2311   2.962   2.839   1.888  0.2295  0.1055 -0.2151
  771SOL    HW1 2312   2.965   2.917   1.820 -2.5101 -1.2535 -0.7560
  771SOL    HW2 2313   2.984   2.875   1.986  0.0184  0.4018 -2.5399
  772SOL     OW 2314   2.156   0.070   3.018  0.5940 -0.0205  0.1573
  772SOL    HW1 2315   2.211   0.031   2.940 -1.0800 -1.3898 -0.2655
  772SOL    HW2 2316   2.166   0.175   3.039 -1.0359 -2.1737 -0.5204
  773SOL     OW 2317   0.734   2.132   2.460 -0.7010 -0.1062 -0.6446
  773SOL    HW1 2318   0.705   2.205   2.394 -0.0824  0.2369 -0.7627
  773SOL    HW2 2319   0.661   2.103   2.534  1.3560  0.0744  1.2465
  774SOL     OW 2320   1.972   0.011   2.665  0.2231  0.1447  0.0146
  774SOL    HW1 2321   1.993   0.087   2.730 -1.9195 -0.4778 -1.5507
  774SOL    HW2 2322   2.016  -0.084   2.687  3.6444 -2.8038 -0.9607
  775SOL     OW 2323   2.496   2.900   2.333 -0.0772 -0.6131 -0.2387
  775SOL    HW1 2324   2.443   2.988   2.329 -0.4224  0.4837 -1.4472
  775SOL    HW2 2325   2.560   2.896   2.414 -0.7784  0.4184  1.6540
  776SOL     OW 2326   0.023   1.166   0.254  0.5526  0.7061  0.1321
  776SOL    HW1 2327  -0.032   1.209   0.178 -1.2113 -0.4712  0.0658
  776SOL    HW2 2328  -0.010   1.203   0.347 -1.0604  0.5723  1.0062
  777SOL     OW 2329   0.320   2.723   0.391  0.3400  0.1022 -0.6517
  777SOL    HW1 2330   0.218   2.700   0.379 -1.1618  1.2975  1.1148
  777SOL    HW2 2331   0.338   2.818   0.423 -2.3035  1.5286 -0.3437
  778SOL     OW 2332   1.301   2.001   0.161 -0.4273  0.2524 -0.5674
  778SOL    HW1 2333   1.258   2.009   0.257 -0.7536 -0.9602 -0.9990
  778SOL    HW2 2334   1.358   2.084   0.141 -0.0378 -1.2880  1.2852
  779SOL     OW 2335   0.194   0.797   0.493  0.3203  0.0291  0.1629
  779SOL    HW1 2336   0.136   0.712   0.481  4.1721 -1.1043 -0.6449
  779SOL    HW2 2337   0.154   0.857   0.563 -0.5694 -1.0430 -1.7791
  780SOL     OW 2338   0.070   0.317   2.366  0.6948  0.3532  0.3534
  780SOL    HW1 2339   0.075   0.419   2.404  0.4446  1.5922  0.4270
  780SOL    HW2 2340   0.158   0.290   2.317  0.5060 -0.9494 -1.9218
  781SOL     OW 2341   0.555   1.789   1.594 -0.2253  0.1661 -0.6398
  781SOL    HW1 2342   0.575   1.801   1.699 -0.1870  1.0853  0.0196
  781SOL    HW2 2343   0.470   1.731   1.576 -1.0670 -1.1184  2.3147
  782SOL     OW 2344   2.602   0.096   0.896 -0.5488  0.4211  0.0860
  782SOL    HW1 2345   2.544   0.096   0.811  0.2978  1.5280  2.5288
  782SOL    HW2 2346   2.568   0.142   0.980  2.2788 -0.8817  1.2282
  783SOL     OW 2347   2.844   0.635   2.568  0.0003 -0.0248  0.1272
  783SOL    HW1 2348   2.788   0.677   2.643  0.4494 -0.6695  1.0012
  783SOL    HW2 2349   2.783   0.569   2.510  1.1878 -0.3089 -1.3400
  784SOL     OW 2350   1.421   2.224   0.038 -0.4279 -0.0370  0.5111
  784SOL    HW1 2351   1.524   2.243   0.063  1.4288  2.0924  3.2871
  784SOL    HW2 2352   1.404   2.195  -0.057  1.0199 -0.9575  1.6841
  785SOL     OW 2353   2.187   0.324  -0.001 -0.0846  0.3520 -0.4291
  785SOL    HW1 2354   2.106   0.311   0.060  0.0352  0.5031 -2.1663
  785SOL    HW2 2355   2.205   0.425   0.001  1.0871 -2.7025  1.2724
  786SOL     OW 2356   2.104   2.201   2.248  0.0774  0.0122 -0.2231
  786SOL    HW1 2357   2.035   2.138   2.200  2.7347  0.1848  0.2799
  786SOL    HW2 2358   2.192   2.156   2.276 -1.2852  1.9540 -2.3633
  787SOL     OW 2359   1.353   0.628   0.722 -0.2284 -0.4010  0.6061
  787SOL    HW1 2360   1.262   0.665   0.690  0.4283  1.4246 -0.2501
  787SOL    HW2 2361   1.406   0.573   0.652  3.4617 -3.7137 -1.9094
  788SOL     OW 2362   1.227   0.487   2.981  0.3830 -0.3249 -0.2460
  788SOL    HW1 2363   1.167   0.457   2.900 -1.9271 -0.2733 -2.8410
  788SOL    HW2 2364   1.308   0.547   2.951 -2.0379  2.9874 -0.0305
  789SOL     OW 2365   2.624   0.097   1.911 -0.1342  0.1134  0.3847
  789SOL    HW1 2366   2.522   0.103   1.943 -2.4695  1.8677  1.4944
  789SOL    HW2 2367   2.670   0.010   1.932 -1.1786  2.5148  0.8476
  790SOL     OW 2368   2.648   2.630   0.846 -0.1977 -0.7691  0.1536
  790SOL    HW1 2369   2.723   2.636   0.774 -1.4595  0.1146 -1.7385
  790SOL    HW2 2370   2.633   2.717   0.896  3.5473 -4.1411 -0.6893
  791SOL     OW 2371   1.927   1.179   0.223 -0.0153  0.3689  0.1415
  791SOL    HW1 2372   1.843   1.136   0.258  0.2947 -0.1901 -0.9816
  791SOL    HW2 2373   1.969   1.127   0.141 -0.4984  1.3397 -1.0167
  792SOL     OW 2374   0.456   1.979   2.252  0.4449  0.2261 -0.0456
  792SOL    HW1 2375   0.477   2.083   2.245 -0.5308 -0.3137  2.7942
  792SOL    HW2 2376   0.371   1.956   2.303  2.0118 -1.1855 -0.5576
  793SOL     OW 2377   2.090   1.555   2.013 -0.4193  0.4040 -0.2030
  793SOL    HW1 2378   2.176   1.608   2.031  2.1311  2.4009 -0.1769
  793SOL    HW2 2379   2.106   1.507   1.924 -2.7105 -1.5565  1.7481
  794SOL     OW 2380   0.577   1.542   2.483 -0.2645  0.1510  0.3386
  794SOL    HW1 2381   0.645   1.474   2.444  0.0596  0.3805 -0.9070
  794SOL    HW2 2382   0.496   1.571   2.428 -0.2208  1.8806  3.2192
  795SOL     OW 2383   2.409   2.367   1.854 -0.9820  0.0733  0.2233
  795SOL    HW1 2384   2.340   2.410   1.912 -0.1910 -1.2854 -0.7664
  795SOL    HW2 2385   2.399   2.262   1.835  0.5784 -2.7118  0.4547
  796SOL     OW 2386   3.050   1.154   2.722 -0.3566 -0.1528 -0.0136
  796SOL    HW1 2387   2.948   1.164   2.746 -1.0202  0.8436 -0.1283
  796SOL    HW2 2388   3.110   1.171   2.804 -0.0034  0.7848 -1.3571
  797SOL     OW 2389   0.703   0.629   1.345  0.2142  0.6613 -0.1867
  797SOL    HW1 2390   0.761   0.698   1.398  2.3650  1.0843  2.6964
  797SOL    HW2 2391   0.659   0.677   1.263 -0.3021  0.0272 -2.4360
  798SOL     OW 2392   1.207   0.530   0.966 -0.4690  0.0986  0.8376
  798SOL    HW1 2393   1.206   0.620   1.014  1.6005  1.6963  1.4133
  798SOL    HW2 2394   1.266   0.541   0.882  0.7475  0.6854  0.4793
  799SOL     OW 2395   1.786   2.709   1.059 -0.2608 -0.2089  0.5266
  799SOL    HW1 2396   1.803   2.614   1.090  4.1975 -0.1946  0.1878
  799SOL    HW2 2397   1.800   2.707   0.958  0.5767  2.6916 -0.3010
  800SOL     OW 2398   2.969   0.834   1.858 -0.7495 -0.3136  0.1217
  800SOL    HW1 2399   2.994   0.938   1.856  1.3908  1.9160 -0.1580
  800SOL    HW2 2400   2.975   0.797   1.958  1.0734  0.0022  2.6340
  801SOL     OW 2401   2.004   2.245   0.106 -0.0447  0.5302 -0.2136
  801SOL    HW1 2402   1.987   2.294   0.016 -0.5655  0.7182 -1.7998
  801SOL    HW2 2403   2.073   2.167   0.100 -0.1466  2.6362  0.3468
  802SOL     OW 2404   0.688   0.615   2.526  0.1980 -0.7038 -0.2008
  802SOL    HW1 2405   0.740   0.657   2.445 -0.3148 -0.9984 -0.8548
  802SOL    HW2 2406   0.585   0.635   2.531 -0.3588  0.1547 -1.0815
  803SOL     OW 2407   0.951   0.096   0.902 -0.1300 -0.4644  0.5677
  803SOL    HW1 2408   1.019   0.149   0.954 -0.8003  0.9789 -1.3517
  803SOL    HW2 2409   0.906   0.154   0.835  0.8632 -0.0368  1.7827
  804SOL     OW 2410   0.342   0.022   2.199  0.1599  0.0971  0.1526
  804SOL    HW1 2411   0.319   0.122   2.218 -2.0426  0.9741 -0.4530
  804SOL    HW2 2412   0.287  -0.013   2.118 -0.8348 -0.5539 -1.8264
  805SOL     OW 2413   2.391   0.334   0.316 -0.1746 -0.4045 -0.1701
  805SOL    HW1 2414   2.469   0.329   0.389  1.5251 -0.5559 -0.6270
  805SOL    HW2 2415   2.405   0.269   0.229  1.0345 -1.0041 -1.0392
  806SOL     OW 2416   0.646   2.656   1.986  0.4260 -0.2669  0.3933
  806SOL    HW1 2417   0.555   2.714   1.980  0.2217  0.3422  0.3675
  806SOL    HW2 2418   0.720   2.693   1.927  0.3288 -1.3148 -0.6767
  807SOL     OW 2419   2.567   0.911   0.518  0.4629 -0.0663  0.2874
  807SOL    HW1 2420   2.662   0.880   0.515 -0.9321  1.7921  2.1980
  807SOL    HW2 2421   2.537   0.929   0.418  0.7040 -0.5129 -1.8393
  808SOL     OW 2422   0.690   2.021   2.894 -0.3353  0.2571 -0.2775
  808SOL    HW1 2423   0.647   2.046   2.982  1.2772 -3.6833 -0.0602
  808SOL    HW2 2424   0.705   1.920   2.885 -0.9310  0.4598 -0.3944
  809SOL     OW 2425   2.553   2.023   1.915  0.3300  0.5526  0.2316
  809SOL    HW1 2426   2.654   2.053   1.918  1.6973  1.3030  0.1786
  809SOL    HW2 2427   2.516   2.023   1.818 -4.5819 -1.9336 -0.2097
  810SOL     OW 2428   2.199   1.200   0.487 -0.0376  0.6052  0.2989
  810SOL    HW1 2429   2.101   1.159   0.486 -1.0590  0.5264  0.9302
  810SOL    HW2 2430   2.197   1.290   0.542  1.1336  0.8999 -0.2484
  811SOL     OW 2431   1.242   2.511   1.165  0.1084 -0.2871  0.1999
  811SOL    HW1 2432   1.240   2.403   1.178  0.3291 -0.6008 -1.5843
  811SOL    HW2 2433   1.272   2.561   1.256 -3.8358 -1.7299  0.9652
  812SOL     OW 2434   1.463   0.747   1.999 -0.0551 -0.0957  0.1270
  812SOL    HW1 2435   1.429   0.818   2.071  1.5932 -0.9488  2.1183
  812SOL    HW2 2436   1.506   0.796   1.915 -0.1553 -0.8794 -2.1919
  813SOL     OW 2437   1.616   2.062   2.397  0.1026  0.3247  0.1827
  813SOL    HW1 2438   1.712   2.036   2.427 -1.7020 -1.0926  0.3394
  813SOL    HW2 2439   1.605   2.062   2.295 -0.6361  0.7045  3.2503
  814SOL     OW 2440   2.974   1.697   2.898 -0.2057 -0.1343 -0.2091
  814SOL    HW1 2441   3.021   1.636   2.971  0.6299 -0.4740  1.0267
  814SOL    HW2 2442   2.997   1.796   2.915 -1.0375 -0.0568 -3.1736
  815SOL     OW 2443   2.149   2.884   2.738 -0.4738  0.4696  0.6976
  815SOL    HW1 2444   2.121   2.824   2.817 -0.7316 -1.1691  1.8877
  815SOL    HW2 2445   2.243   2.925   2.753 -0.3302 -0.7587  0.3434
  816SOL     OW 2446   1.515   0.437   1.682  0.6427  0.6909  0.5239
  816SOL    HW1 2447   1.577   0.355   1.664  3.4220  1.1885 -2.9677
  816SOL    HW2 2448   1.438   0.413   1.749  0.8194  0.3804 -0.9759
  817SOL     OW 2449   0.382   1.250   2.560  0.5772 -0.2796  0.1095
  817SOL    HW1 2450   0.283   1.266   2.560  1.8581  0.0872  2.3158
  817SOL    HW2 2451   0.429   1.236   2.470 -1.0631 -2.1117  0.3187
  818SOL     OW 2452   1.989   0.775   0.466  0.0565 -0.1479  0.0643
  818SOL    HW1 2453   2.088   0.776   0.482 -1.2996 -1.3238 -0.2571
  818SOL    HW2 2454   1.940   0.831   0.539  1.8903 -0.2825 -0.0315
  819SOL     OW 2455   2.831   2.888   3.019  0.6065  0.0047  0.1803
  819SOL    HW1 2456   2.889   2.812   2.965  0.3932 -3.2207 -0.2243
  819SOL    HW2 2457   2.731   2.903   2.983  2.4030  0.6745  3.1614
  820SOL     OW 2458   1.200   1.064   0.550  0.1446 -0.6312 -0.5381
  820SOL    HW1 2459   1.241   1.152   0.570 -1.5304 -3.1345 -0.5008
  820SOL    HW2 2460   1.186   1.002   0.626  3.5265  0.1977 -3.1355
  821SOL     OW 2461   0.038   1.213   0.762  0.3914 -0.5231  0.1397
  821SOL    HW1 2462  -0.020   1.224   0.851  0.9881 -0.9718 -0.2381
  821SOL    HW2 2463   0.083   1.297   0.723  0.0851 -1.4075 -1.6639
  822SOL     OW 2464   2.565   1.771   2.450 -0.1939 -0.1335 -0.2580
  822SOL    HW1 2465   2.516   1.812   2.532 -0.6349  0.7233  1.4134
  822SOL    HW2 2466   2.499   1.761   2.373  0.3560  2.8754  0.3639
  823SOL     OW 2467   2.010   0.898   1.198  0.1732 -0.0321 -0.5043
  823SOL    HW1 2468   1.991   0.871   1.292 -1.6640 -1.0842 -0.6279
  823SOL    HW2 2469   1.955   0.847   1.128  1.6449  0.3122 -0.8334
  824SOL     OW 2470   0.204   1.802   2.853 -0.2660 -0.4605 -0.1194
  824SOL    HW1 2471   0.194   1.808   2.958 -0.2323  3.3751 -0.3107
  824SOL    HW2 2472   0.277   1.866   2.816 -0.3159 -1.0437 -0.1635
  825SOL     OW 2473   1.257   1.030   0.284 -0.4228 -0.1553  0.0340
  825SOL    HW1 2474   1.264   1.131   0.256  3.3869  2.3042  1.7500
  825SOL    HW2 2475   1.239   1.029   0.385  2.1536  0.8909 -0.9680
  826SOL     OW 2476   1.982   0.675   1.619  0.3084 -0.1301  0.6071
  826SOL    HW1 2477   2.064   0.618   1.638 -0.0004  0.8237 -1.0629
  826SOL    HW2 2478   1.913   0.609   1.578  0.8520  0.7471 -0.0456
  827SOL     OW 2479   0.727   1.206   0.500 -0.1267 -0.4542 -0.3813
  827SOL    HW1 2480   0.820   1.169   0.475 -1.2390  0.4427 -2.0505
  827SOL    HW2 2481   0.658   1.133   0.509  1.4967  0.4936 -1.4214
  828SOL     OW 2482   2.736   0.159   1.646  0.1163 -0.0138 -0.0801
  828SOL    HW1 2483   2.672   0.096   1.595 -0.5556 -0.3424  0.6398
  828SOL    HW2 2484   2.709   0.167   1.748 -0.1367  0.1283  1.9977
  829SOL     OW 2485   2.910   2.372   2.890 -0.4807  0.1933  0.0318
  829SOL    HW1 2486   2.813   2.361   2.929 -2.1931 -0.7256 -1.1339
  829SOL    HW2 2487   2.920   2.451   2.827  3.6371 -0.9368  0.6142
  830SOL     OW 2488   2.995   0.936   2.961  0.2916  0.0308  0.2504
  830SOL    HW1 2489   3.042   1.025   2.987  3.6718 -0.6807 -2.0298
  830SOL    HW2 2490   2.947   0.889   3.042 -1.8326 -0.1972  0.6874
  831SOL     OW 2491   3.089   0.568   0.439 -0.3000 -0.6964 -0.4287
  831SOL    HW1 2492   3.057   0.505   0.515 -0.4071  1.7185  1.6958
  831SOL    HW2 2493   3.106   0.521   0.345  1.1502 -3.3525  0.4521
  832SOL     OW 2494   1.789   0.704   0.040 -0.6324 -0.4709 -0.1896
  832SOL    HW1 2495   1.699   0.745   0.011  1.9738 -0.0809 -1.2487
  832SOL    HW2 2496   1.776   0.597   0.043 -1.9458  0.3104  0.7874
  833SOL     OW 2497   2.362   2.126   0.514 -0.3216 -0.3723 -0.7442
  833SOL    HW1 2498   2.264   2.094   0.495 -1.8734  1.5158 -2.4902
  833SOL    HW2 2499   2.437   2.052   0.498  1.5772  1.0733  0.6991
  834SOL     OW 2500   0.056   0.074   0.571 -0.6134  0.0317 -0.2293
  834SOL    HW1 2501   0.123  -0.006   0.568  1.0228 -2.2401  1.8656
  834SOL    HW2 2502   0.059   0.139   0.487  1.6637 -0.0296 -0.4681
  835SOL     OW 2503   2.521   1.712   1.098  0.9917  0.2764  0.0995
  835SOL    HW1 2504   2.592   1.651   1.148  0.3683  0.7180  0.0199
  835SOL    HW2 2505   2.565   1.780   1.034 -1.5479  3.2240 -2.9185
  836SOL     OW 2506   1.563   0.866   2.584  0.0011 -0.1902 -0.6123
  836SOL    HW1 2507   1.467   0.884   2.545  1.5359  1.4124 -2.0914
  836SOL    HW2 2508   1.627   0.844   2.509  0.9562  0.2043  3.7308
  837SOL     OW 2509   1.675   0.042   0.613  0.2065 -0.8301  0.9024
  837SOL    HW1 2510   1.648   0.131   0.663 -2.4795 -3.0467  0.9023
  837SOL    HW2 2511   1.599   0.013   0.547 -0.6682 -1.5560  1.1476
  838SOL     OW 2512   1.200   1.408   2.679  0.0384 -0.4558 -0.2285
  838SOL    HW1 2513   1.170   1.497   2.728  0.3815 -0.4755  1.5336
  838SOL    HW2 2514   1.126   1.341   2.649  1.3456 -3.4642 -1.1015
  839SOL     OW 2515   1.637   0.397   0.975 -0.9227  0.0075  0.3967
  839SOL    HW1 2516   1.587   0.487   0.983 -2.2986  0.2818  0.7674
  839SOL    HW2 2517   1.587   0.304   1.004  0.8397 -2.5466  2.8929
  840SOL     OW 2518   2.663   2.954   1.643 -0.1788 -0.0546  0.1174
  840SOL    HW1 2519   2.581   2.962   1.578  0.1034 -4.2798 -0.2263
  840SOL    HW2 2520   2.639   2.943   1.744  1.0419  0.6007 -1.1689
  841SOL     OW 2521   1.535   0.846   3.062  0.1393  0.1588 -0.3945
  841SOL    HW1 2522   1.441   0.867   3.105 -2.4911  1.6024  0.1911
  841SOL    HW2 2523   1.528   0.899   2.972  0.8764  0.8078 -2.2850
  842SOL     OW 2524   0.808   1.614   1.030  0.6065 -0.1425  0.4197
  842SOL    HW1 2525   0.767   1.706   1.057 -1.2972 -1.4854  0.2744
  842SOL    HW2 2526   0.758   1.570   0.947  0.4413 -2.6417 -1.4951
  843SOL     OW 2527   0.123   0.081   1.438  0.4627 -0.4397 -0.4159
  843SOL    HW1 2528   0.216   0.116   1.467 -0.1655 -0.2696 -1.0681
  843SOL    HW2 2529   0.122  -0.023   1.410 -0.3265 -1.2133  1.4899
  844SOL     OW 2530   0.739   2.447   0.202  0.9412  0.1111 -0.2036
  844SOL    HW1 2531   0.706   2.461   0.299  1.1377  1.0746 -0.4980
  844SOL    HW2 2532   0.671   2.407   0.135 -0.7267 -1.4248  1.1793
  845SOL     OW 2533   1.731   0.015   1.307 -0.0391  0.2633  0.3666
  845SOL    HW1 2534   1.717  -0.003   1.409 -1.7345 -0.1768  2.0405
  845SOL    HW2 2535   1.739   0.117   1.287 -1.2940 -2.3300  0.8196
  846SOL     OW 2536   1.698   3.002   0.888  0.2935 -0.3195 -0.2321
  846SOL    HW1 2537   1.686   3.021   0.789 -1.0362  3.6072  2.2731
  846SOL    HW2 2538   1.794   2.993   0.916  1.6993  1.2941 -0.2949
  847SOL     OW 2539   2.072   1.568   0.193 -0.1241  0.0885  0.0336
  847SOL    HW1 2540   2.037   1.512   0.271  1.0059 -2.4201 -0.8703
  847SOL    HW2 2541   1.996   1.589   0.121  0.4248 -0.3180  1.1607
  848SOL     OW 2542   2.479   0.796   2.664 -0.0730 -0.5389  0.6276
  848SOL    HW1 2543   2.482   0.901   2.647 -1.3846  2.4828 -0.1693
  848SOL    HW2 2544   2.401   0.751   2.608 -1.8916  2.1449 -3.0023
  849SOL     OW 2545   2.350   0.836   2.291 -0.2783  0.1829  0.6236
  849SOL    HW1 2546   2.418   0.765   2.251  0.0936  0.5146 -0.9849
  849SOL    HW2 2547   2.284   0.794   2.354 -2.5943 -1.7139 -0.2519
  850SOL     OW 2548   1.512   0.234   1.266  0.4054 -0.6073 -0.0468
  850SOL    HW1 2549   1.546   0.181   1.182 -0.4842 -0.4606  1.8925
  850SOL    HW2 2550   1.467   0.174   1.341  0.2189  0.3522  1.9863
  851SOL     OW 2551   0.432   1.674   0.639 -0.5627 -0.1760  0.5171
  851SOL    HW1 2552   0.429   1.744   0.716  1.1112  2.6753  1.5305
  851SOL    HW2 2553   0.529   1.655   0.607 -0.0400  1.0898 -0.5607
  852SOL     OW 2554   0.853   2.167   1.785 -0.1559 -0.4277 -0.0572
  852SOL    HW1 2555   0.854   2.244   1.718  0.6382  1.6389 -4.2312
  852SOL    HW2 2556   0.759   2.149   1.828 -0.4286 -1.4910 -1.9796
  853SOL     OW 2557   2.525   1.503   2.596 -0.3024  0.0885  0.3123
  853SOL    HW1 2558   2.485   1.407   2.574  0.9043 -2.3803  0.8859
  853SOL    HW2 2559   2.580   1.547   2.514  1.1316  1.3841 -2.7475
  854SOL     OW 2560   2.422   1.475   1.734 -0.5865  0.0533 -0.4458
  854SOL    HW1 2561   2.477   1.525   1.659 -1.1588 -0.4821 -2.8853
  854SOL    HW2 2562   2.396   1.377   1.702  1.9497 -0.1826 -1.9235
  855SOL     OW 2563   2.057   2.357   0.963  0.3525  0.6977 -0.2053
  855SOL    HW1 2564   2.097   2.438   0.914 -0.9868  1.4367 -1.5364
  855SOL    HW2 2565   2.128   2.324   1.036  1.8360  0.1816  1.7128
  856SOL     OW 2566   1.421   1.444   0.821  0.5931 -0.4056 -0.1236
  856SOL    HW1 2567   1.470   1.530   0.848  0.4708 -1.6510 -2.3044
  856SOL    HW2 2568   1.369   1.411   0.903 -1.4714  0.9928  0.3762
  857SOL     OW 2569   2.926   2.533   1.061 -0.0100  0.2357 -0.3144
  857SOL    HW1 2570   2.844   2.491   1.113 -1.2880  4.1898  0.6322
  857SOL    HW2 2571   2.945   2.486   0.970  0.8537 -1.2499  2.5525
  858SOL     OW 2572   2.296   2.117   1.775  0.0155 -0.0403  0.1158
  858SOL    HW1 2573   2.198   2.136   1.739  1.7877  0.2663 -1.6868
  858SOL    HW2 2574   2.341   2.034   1.726 -1.8971 -2.3320 -2.0589
  859SOL     OW 2575   2.471   0.437   1.036  0.3710  0.5271 -0.0410
  859SOL    HW1 2576   2.542   0.493   0.984  3.4393  2.0022  0.1103
  859SOL    HW2 2577   2.510   0.359   1.090  2.9725  0.4089 -3.8608
  860SOL     OW 2578   1.885   2.786   0.527  0.4791 -0.0388 -0.4346
  860SOL    HW1 2579   1.893   2.793   0.423  3.6385  4.2640  0.7414
  860SOL    HW2 2580   1.897   2.877   0.576  0.7433  0.5058 -0.4002
  861SOL     OW 2581   0.987   2.595   2.832  0.1771  0.2775  0.7789
  861SOL    HW1 2582   1.058   2.671   2.842 -3.7840  3.4345  0.5224
  861SOL    HW2 2583   0.969   2.556   2.929 -1.6864 -0.9149  1.3217
  862SOL     OW 2584   2.951   2.541   1.577 -0.8151 -0.4348  0.3929
  862SOL    HW1 2585   3.011   2.550   1.663  1.5004 -1.8310  0.8393
  862SOL    HW2 2586   2.874   2.612   1.578  1.8350  2.0012  0.5371
  863SOL     OW 2587   1.905   2.686   0.190  0.0031  0.4999 -0.7120
  863SOL    HW1 2588   1.978   2.614   0.197  2.1645  1.5465  0.3985
  863SOL    HW2 2589   1.811   2.651   0.221  0.6395  4.6471 -1.7450
  864SOL     OW 2590   1.926   1.099   2.986  0.5003 -0.4020 -0.2800
  864SOL    HW1 2591   1.935   1.083   2.882 -2.8000 -0.3299 -0.2786
  864SOL    HW2 2592   2.018   1.086   3.030  0.3834  0.3305  0.1564
  865SOL     OW 2593   2.191   1.703   0.611  0.8851  0.1883  0.5131
  865SOL    HW1 2594   2.175   1.757   0.700 -3.1509 -0.5985 -0.5875
  865SOL    HW2 2595   2.130   1.621   0.605 -2.0440  1.6978  2.5189
  866SOL     OW 2596   2.944   2.795   1.012  0.5372 -0.4081 -0.7102
  866SOL    HW1 2597   2.963   2.816   0.913  0.0613 -0.8381 -0.4355
  866SOL    HW2 2598   2.928   2.698   1.036  2.6342  0.4815  1.4176
  867SOL     OW 2599   0.383   1.375   0.835 -1.0632  0.6843  0.3886
  867SOL    HW1 2600   0.413   1.284   0.787 -1.1327  2.4923  1.9468
  867SOL    HW2 2601   0.294   1.410   0.800 -1.7476 -0.8526  0.0428
  868SOL     OW 2602   0.839   1.906   2.021 -0.3419  0.1073 -0.0277
  868SOL    HW1 2603   0.801   1.872   2.111 -0.0903  1.6174  1.6088
  868SOL    HW2 2604   0.796   1.988   1.982 -1.6652  2.4926  0.3309
  869SOL     OW 2605   2.527   1.953   1.628 -0.3841  0.0777  0.1513
  869SOL    HW1 2606   2.627   1.929   1.635 -2.9266  1.6985 -0.6450
  869SOL    HW2 2607   2.480   1.940   1.540  0.2858  2.4481  1.7492
  870SOL     OW 2608   2.356   2.527   1.263 -0.2052  0.2573  0.6452
  870SOL    HW1 2609   2.317   2.436   1.230  1.7095  0.5969 -1.4531
  870SOL    HW2 2610   2.438   2.520   1.320  0.2985  1.5647  0.2647
  871SOL     OW 2611   2.993   1.994   0.529  0.2530 -0.3049  0.2827
  871SOL    HW1 2612   2.926   2.065   0.491  1.2402 -0.5867  0.3299
  871SOL    HW2 2613   2.991   1.910   0.472 -2.6113  2.0692 -1.6051
  872SOL     OW 2614   2.196   0.533   1.719 -0.1407  0.5228  0.1347
  872SOL    HW1 2615   2.172   0.569   1.812 -2.3311 -0.9906  3.8388
  872SOL    HW2 2616   2.283   0.474   1.715  0.3309 -1.0099 -0.3535
  873SOL     OW 2617   1.688   2.103   2.881  0.3933  0.1442  0.6060
  873SOL    HW1 2618   1.687   2.211   2.894  1.6296  2.9506 -2.6179
  873SOL    HW2 2619   1.616   2.073   2.806 -4.0100  1.5257  0.7503
  874SOL     OW 2620   0.587   2.498   0.752  0.1497 -0.1359 -0.2921
  874SOL    HW1 2621   0.591   2.604   0.768  0.2374 -0.4845 -0.0300
  874SOL    HW2 2622   0.685   2.469   0.758  0.0445 -3.1160 -1.4666
  875SOL     OW 2623   2.333   1.565   1.444 -0.3244  0.4491  0.6127
  875SOL    HW1 2624   2.427   1.603   1.458 -0.6350 -1.4074 -0.1473
  875SOL    HW2 2625   2.270   1.623   1.380  0.2480  2.5895 -1.0663
  876SOL     OW 2626   0.162   2.256   2.742  0.3275  0.3751  0.0306
  876SOL    HW1 2627   0.176   2.194   2.826  0.1734  3.5464  0.3685
  876SOL    HW2 2628   0.200   2.352   2.760 -2.1846 -3.0478  2.1456
  877SOL     OW 2629   2.819   2.649   0.618  0.6770 -0.8990  0.6170
  877SOL    HW1 2630   2.854   2.750   0.616 -2.1196  0.7632  0.4060
  877SOL    HW2 2631   2.900   2.583   0.644  0.0970  0.5386 -2.3556
  878SOL     OW 2632   2.736   1.492   2.346 -0.6602 -0.3550  0.7105
  878SOL    HW1 2633   2.759   1.591   2.376  1.2504 -0.9549  2.8783
  878SOL    HW2 2634   2.806   1.426   2.390 -1.9032 -2.6255  0.7176
  879SOL     OW 2635   2.448   3.047   1.254  0.4582  0.2398 -0.6851
  879SOL    HW1 2636   2.489   2.950   1.247  0.6229 -1.5700 -0.2266
  879SOL    HW2 2637   2.352   3.056   1.221  1.7181  0.9645  1.5695
  880SOL     OW 2638   0.602   0.500   2.214  0.7342  0.4969  0.0345
  880SOL    HW1 2639   0.540   0.448   2.281  0.9302  0.6659 -2.0809
  880SOL    HW2 2640   0.606   0.446   2.120  0.2203 -2.3483 -1.1145
  881SOL     OW 2641   0.878   0.077   0.460  0.5224 -0.1630 -0.2464
  881SOL    HW1 2642   0.926  -0.010   0.482  1.1737 -0.1360  1.1171
  881SOL    HW2 2643   0.886   0.105   0.360  1.4676 -0.5617 -0.7152
  882SOL     OW 2644   2.753   1.794   1.675  0.4423 -0.1995  0.1073
  882SOL    HW1 2645   2.815   1.718   1.635  1.1342  1.8290  0.4974
  882SOL    HW2 2646   2.719   1.764   1.767 -3.8705 -0.7727  0.1513
  883SOL     OW 2647   0.936   0.571   0.963 -0.1458 -0.2624 -0.1973
  883SOL    HW1 2648   0.931   0.659   1.016  1.3131 -0.8234 -0.7249
  883SOL    HW2 2649   1.033   0.535   0.947 -0.7469 -1.2463 -2.0502
  884SOL     OW 2650   1.163   1.916   1.063 -0.0459 -0.3595 -0.1293
  884SOL    HW1 2651   1.152   1.874   0.967 -2.0622 -0.5539  0.7192
  884SOL    HW2 2652   1.095   1.993   1.080  0.3467  1.0196 -1.3366
  885SOL     OW 2653   2.318   1.788   2.302 -0.0037 -0.1485 -0.3473
  885SOL    HW1 2654   2.249   1.729   2.346 -2.5179  1.1438 -1.4623
  885SOL    HW2 2655   2.294   1.886   2.315  1.7773 -0.7815  1.5152
  886SOL     OW 2656   2.677   0.459   1.812 -0.2939 -0.0734  0.3680
  886SOL    HW1 2657   2.743   0.407   1.877 -1.2335  1.6345 -1.9996
  886SOL    HW2 2658   2.729   0.530   1.756  0.2821 -1.2874 -0.5978
  887SOL     OW 2659   0.200   2.047   1.291 -0.1513 -0.1613 -0.5516
  887SOL    HW1 2660   0.133   1.991   1.230  0.6479 -2.5979 -0.8312
  887SOL    HW2 2661   0.215   2.143   1.256  2.6055 -0.1766 -0.2189
  888SOL     OW 2662   0.580   1.319   1.490 -0.0895  1.0548 -0.4238
  888SOL    HW1 2663   0.588   1.370   1.401 -1.7557 -2.5610 -2.8945
  888SOL    HW2 2664   0.544   1.219   1.468  1.5274 -1.2696  2.0090
  889SOL     OW 2665   0.836   2.404   2.142  0.1276  0.1626  0.7890
  889SOL    HW1 2666   0.752   2.361   2.092 -0.2042 -0.7052 -2.5255
  889SOL    HW2 2667   0.910   2.441   2.075 -0.9582  0.7405 -0.3804
  890SOL     OW 2668   2.324   2.420   0.193  0.0227  0.0525  0.1870
  890SOL    HW1 2669   2.346   2.518   0.165  1.0639  0.2893  4.7047
  890SOL    HW2 2670   2.233   2.420   0.241  1.1603 -2.6343  2.3840
  891SOL     OW 2671   2.602   1.667   0.716  0.2338 -0.1903  0.1104
  891SOL    HW1 2672   2.558   1.586   0.762 -0.0604  0.6644 -1.5638
  891SOL    HW2 2673   2.534   1.706   0.649  0.5297  0.7711  1.5079
  892SOL     OW 2674   0.304   0.285   2.247 -0.3684 -0.1687  0.5337
  892SOL    HW1 2675   0.299   0.344   2.161  1.6028 -0.9257 -0.1693
  892SOL    HW2 2676   0.365   0.338   2.309 -1.3382  0.3576 -3.3227
  893SOL     OW 2677   1.625   0.244   2.693  0.0301  0.5418  0.9273
  893SOL    HW1 2678   1.704   0.302   2.730  2.4477  1.9069  1.2203
  893SOL    HW2 2679   1.535   0.299   2.674 -2.5441 -2.6602  0.2523
  894SOL     OW 2680   2.159   2.048   0.055  0.1814 -0.0499 -0.3042
  894SOL    HW1 2681   2.111   2.005  -0.025 -1.4544 -2.9080  0.0136
  894SOL    HW2 2682   2.178   1.976   0.125  1.5605 -0.6516 -0.6357
  895SOL     OW 2683   2.835   1.389   0.842 -0.4316 -1.0107  0.5395
  895SOL    HW1 2684   2.875   1.339   0.924  0.1097  0.7960 -0.2379
  895SOL    HW2 2685   2.898   1.466   0.799 -0.9519  4.0555  0.9852
  896SOL     OW 2686   1.700   1.790   1.173  0.2182 -0.1686 -0.2023
  896SOL    HW1 2687   1.790   1.792   1.118  0.7937 -0.2554  0.3254
  896SOL    HW2 2688   1.642   1.871   1.147  0.6402  0.6865 -0.2969
  897SOL     OW 2689   0.326   0.498   3.059 -0.1459 -0.6013  0.2297
  897SOL    HW1 2690   0.266   0.544   2.990 -1.0114  1.1465  0.5992
  897SOL    HW2 2691   0.426   0.524   3.043  0.2435 -0.7036 -0.0037
  898SOL     OW 2692   0.566   2.927   0.996 -0.3470  0.0366 -0.2706
  898SOL    HW1 2693   0.503   2.975   1.062 -1.6131  1.3511 -3.1378
  898SOL    HW2 2694   0.665   2.956   1.000  0.6734 -1.0184  1.0768
  899SOL     OW 2695   2.710   0.934   1.282 -0.4734  0.3473 -0.1769
  899SOL    HW1 2696   2.670   0.905   1.188  2.6374 -1.2482  2.7512
  899SOL    HW2 2697   2.789   1.000   1.268 -2.1408  0.9813 -3.0014
  900SOL     OW 2698   0.994   2.356   2.384  0.1260  0.4110  0.2251
  900SOL    HW1 2699   0.922   2.389   2.318  0.4106  1.2720  0.7449
  900SOL    HW2 2700   0.951   2.343   2.480 -2.9634  1.0173 -0.8711
  901SOL     OW 2701   2.000   2.485   1.349 -0.2120  0.4431 -0.0691
  901SOL    HW1 2702   1.947   2.459   1.260 -2.3023 -0.4144  0.3018
  901SOL    HW2 2703   2.073   2.419   1.367 -4.1117 -0.8111  0.6533
  902SOL     OW 2704   2.567   1.676   1.478  0.0060 -0.6334 -0.2540
  902SOL    HW1 2705   2.624   1.719   1.547  0.6442 -1.6873 -3.9931
  902SOL    HW2 2706   2.619   1.629   1.403 -1.1105 -0.3671  2.0818
  903SOL     OW 2707   0.276   2.452   1.989 -0.0754  0.6378 -0.7066
  903SOL    HW1 2708   0.189   2.397   1.993 -0.5040  0.0723 -1.4799
  903SOL    HW2 2709   0.276   2.518   1.905 -1.5339 -0.2283  1.5963
  904SOL     OW 2710   1.997   0.771   2.600 -0.4067  0.5075 -0.1626
  904SOL    HW1 2711   1.921   0.707   2.637 -1.4205 -1.6611  1.1204
  904SOL    HW2 2712   1.979   0.797   2.505 -1.8843  1.5440 -1.0587
  905SOL     OW 2713   2.797   0.035   2.549  0.5370  0.0673  0.6164
  905SOL    HW1 2714   2.876  -0.021   2.595  2.1586 -1.9991  1.5831
  905SOL    HW2 2715   2.838   0.125   2.517  1.8355  1.3807  0.3376
  906SOL     OW 2716   0.120   1.850   1.933  0.1180  0.1044 -0.2057
  906SOL    HW1 2717   0.067   1.837   1.842  1.8706  0.1201 -3.0244
  906SOL    HW2 2718   0.200   1.917   1.923 -3.1578  2.1211 -2.1158
  907SOL     OW 2719   0.194   2.386   1.062  0.2872  0.2948  0.1636
  907SOL    HW1 2720   0.274   2.453   1.051 -0.4580 -0.7467 -0.9568
  907SOL    HW2 2721   0.138   2.371   0.978 -1.2452  2.1763  0.7776
  908SOL     OW 2722   2.695   2.821   0.362 -0.4659 -0.2776 -0.5063
  908SOL    HW1 2723   2.683   2.896   0.292  1.3642 -3.5235 -2.8462
  908SOL    HW2 2724   2.636   2.738   0.349  1.4116  0.3269  0.6317
  909SOL     OW 2725   0.681   0.912   2.638 -0.1809 -0.0422  0.1047
  909SOL    HW1 2726   0.681   0.813   2.627 -1.6103  2.5311 -0.9219
  909SOL    HW2 2727   0.777   0.948   2.608 -0.7757  2.9283 -2.5806
  910SOL     OW 2728   1.723   1.803   2.093 -0.3656 -0.3015  0.6594
  910SOL    HW1 2729   1.785   1.821   2.009  1.0444 -0.5982  0.3777
  910SOL    HW2 2730   1.672   1.888   2.129 -2.3789  0.0100  0.0106
  911SOL     OW 2731   1.754   3.050   1.579  0.0198  0.1685 -0.3090
  911SOL    HW1 2732   1.837   3.011   1.522  2.9290 -2.1960 -1.9672
  911SOL    HW2 2733   1.710   2.976   1.639  0.9663 -0.6578 -0.2103
  912SOL     OW 2734   2.866   0.960   0.775  0.1561  0.3279 -0.1543
  912SOL    HW1 2735   2.894   0.948   0.877  0.2590 -0.8124  0.1207
  912SOL    HW2 2736   2.820   1.049   0.754  1.7749  0.4033 -1.2984
  913SOL     OW 2737   2.580   1.282   1.542 -0.0609 -0.0533  0.2422
  913SOL    HW1 2738   2.589   1.186   1.579  1.4918 -0.6859  0.1263
  913SOL    HW2 2739   2.615   1.303   1.444 -0.8559  1.6531  1.5507
  914SOL     OW 2740   2.790   0.484   1.301 -0.6683  0.2702 -0.1981
  914SOL    HW1 2741   2.753   0.386   1.318 -0.4231 -0.4787 -1.2998
  914SOL    HW2 2742   2.768   0.552   1.377  3.0698  0.9813 -2.5500
  915SOL     OW 2743   1.172   0.802   1.042 -0.1203 -0.2849  0.0535
  915SOL    HW1 2744   1.246   0.835   1.106 -2.2235 -2.2391 -2.5121
  915SOL    HW2 2745   1.077   0.817   1.081 -0.4103  0.3859 -0.8707
  916SOL     OW 2746   0.608   0.031   0.587  0.1458 -0.1786 -0.2184
  916SOL    HW1 2747   0.589   0.098   0.666  1.7644  0.7252  1.4888
  916SOL    HW2 2748   0.621   0.073   0.493 -1.5958  0.3680 -0.1941
  917SOL     OW 2749   2.734   2.605   1.873  0.0866  0.2846 -0.3862
  917SOL    HW1 2750   2.709   2.698   1.893  1.1323  0.5954 -1.0609
  917SOL    HW2 2751   2.788   2.607   1.784  0.1319  2.8456  2.0515
  918SOL     OW 2752   1.084   2.195   3.085 -0.1852 -0.0887 -0.1174
  918SOL    HW1 2753   1.038   2.209   3.180 -1.0701  1.1430  1.0069
  918SOL    HW2 2754   1.098   2.094   3.071  2.2285 -0.5573  0.7957
  919SOL     OW 2755   0.900   1.580   2.778  0.3023 -0.0146 -0.2329
  919SOL    HW1 2756   0.927   1.644   2.703  0.7874  0.7270 -0.3044
  919SOL    HW2 2757   0.861   1.488   2.751 -1.2428 -0.0163  1.7831
  920SOL     OW 2758   1.219   2.010   2.468 -0.0908 -0.8886 -0.1276
  920SOL    HW1 2759   1.160   2.009   2.382 -0.6195  0.7998  0.4855
  920SOL    HW2 2760   1.257   1.916   2.484  0.1169  2.2969  1.1256
  921SOL     OW 2761   1.040   0.102   2.544  0.1324  0.0606 -0.1954
  921SOL    HW1 2762   1.060   0.015   2.496  1.0990  3.1655  0.0142
  921SOL    HW2 2763   0.960   0.156   2.496  0.8772  0.3366 -3.0598
  922SOL     OW 2764   2.136   2.432   2.796  0.4446 -0.2362  0.5465
  922SOL    HW1 2765   2.133   2.332   2.826  0.9822  0.1703  2.1983
  922SOL    HW2 2766   2.105   2.444   2.696 -0.6714  0.6559 -2.7850
  923SOL     OW 2767   1.210   2.731   0.220  0.3847 -0.3197 -0.2806
  923SOL    HW1 2768   1.305   2.774   0.235  0.2838 -0.2616 -0.4294
  923SOL    HW2 2769   1.216   2.624   0.219  0.2270  0.1344 -0.8587
  924SOL     OW 2770   2.912   1.600   0.072  0.4376  0.3944  0.3179
  924SOL    HW1 2771   2.838   1.590   0.001  1.0417 -0.0121 -0.0105
  924SOL    HW2 2772   3.011   1.596   0.034  1.0544  2.8600 -1.7134
  925SOL     OW 2773   0.077   2.887   1.626  0.0121 -0.2268  0.0896
  925SOL    HW1 2774  -0.014   2.931   1.633 -1.7413  1.2388  0.2003
  925SOL    HW2 2775   0.117   2.906   1.533 -1.6621 -2.0123 -1.1067
  926SOL     OW 2776   1.416   2.913   1.254 -0.2151 -0.0841 -0.4732
  926SOL    HW1 2777   1.426   2.918   1.153  0.8637 -0.3537 -1.1369
  926SOL    HW2 2778   1.436   3.005   1.302  2.0173 -0.0677  2.6329
  927SOL     OW 2779   0.240   2.590   1.745  0.3138  0.2330 -0.4300
  927SOL    HW1 2780   0.259   2.496   1.704  2.3684  1.8944  0.6597
  927SOL    HW2 2781   0.269   2.668   1.684 -0.7430 -1.0641 -1.6778
  928SOL     OW 2782   1.607   2.041   2.131 -0.1285 -0.1475 -0.0947
  928SOL    HW1 2783   1.651   2.138   2.115  2.0112  1.7023 -1.3419
  928SOL    HW2 2784   1.506   2.031   2.096 -0.1795 -1.6774 -0.4387
  929SOL     OW 2785   2.394   2.415   2.858  0.3736 -0.4070  0.0770
  929SOL    HW1 2786   2.294   2.437   2.834  1.3372  1.7165  0.0946
  929SOL    HW2 2787   2.454   2.411   2.774  2.2149 -0.6873  1.0116
  930SOL     OW 2788   2.176   1.986   1.085 -0.5772  0.0979 -0.4654
  930SOL    HW1 2789   2.128   1.993   1.177 -3.7740  0.7864 -1.7791
  930SOL    HW2 2790   2.270   2.036   1.090  0.3808 -0.0424 -2.2157
  931SOL     OW 2791   0.547   1.756   2.664 -0.9814  0.0508 -0.5545
  931SOL    HW1 2792   0.613   1.773   2.746  2.5396 -0.8305 -0.0367
  931SOL    HW2 2793   0.558   1.663   2.618  3.7963  2.0473  0.2964
  932SOL     OW 2794   0.501   0.112   2.948 -0.0718  0.3055  0.4988
  932SOL    HW1 2795   0.591   0.123   2.897  0.3289 -0.9817  2.0427
  932SOL    HW2 2796   0.480   0.014   2.980  0.0137 -1.6944 -0.9321
  933SOL     OW 2797   1.066   0.767   2.986 -0.2675 -0.3140  0.3651
  933SOL    HW1 2798   1.137   0.808   3.048 -2.6450  0.9785  1.0422
  933SOL    HW2 2799   1.012   0.840   2.942  1.4354 -0.5924 -0.1892
  934SOL     OW 2800   0.872   2.981   2.810 -0.3721 -0.1490  0.4369
  934SOL    HW1 2801   0.954   2.931   2.785  1.7560  0.3773  0.0259
  934SOL    HW2 2802   0.830   2.926   2.886  2.2054  1.7811  0.8372
  935SOL     OW 2803   3.042   0.530   0.889 -0.2623  0.2712 -0.8398
  935SOL    HW1 2804   3.036   0.485   0.797 -0.4645 -1.9437 -2.8941
  935SOL    HW2 2805   2.963   0.587   0.922 -0.7538  0.9990 -1.5713
  936SOL     OW 2806   1.136   3.002   0.163  0.0793 -0.1818  0.0174
  936SOL    HW1 2807   1.160   3.049   0.071 -0.5818  2.0292 -1.5547
  936SOL    HW2 2808   1.148   2.899   0.166  0.1339  2.0458 -1.2571
  937SOL     OW 2809   1.941   2.708   2.096 -0.1408  0.0758 -0.1660
  937SOL    HW1 2810   1.854   2.710   2.154  3.9444  1.4238  2.4171
  937SOL    HW2 2811   1.920   2.715   1.993  0.0772  0.8076 -0.8563
  938SOL     OW 2812   2.726   2.219   1.513 -0.2363  0.2173 -0.5353
  938SOL    HW1 2813   2.690   2.280   1.587  0.3680 -1.5447  0.9414
  938SOL    HW2 2814   2.774   2.133   1.551  0.3153 -0.5271 -1.1083
  939SOL     OW 2815   2.754   0.973   2.520  0.1959 -0.1758  0.1731
  939SOL    HW1 2816   2.843   0.928   2.513  0.7060  1.7834  0.8026
  939SOL    HW2 2817   2.738   1.003   2.619  1.6067  1.3297 -1.6515
  940SOL     OW 2818   1.053   0.449   2.660  0.0199 -0.3046 -0.0149
  940SOL    HW1 2819   1.097   0.366   2.699 -0.8874  2.7743  0.9533
  940SOL    HW2 2820   0.948   0.446   2.663  3.7700  3.6201 -0.5164
  941SOL     OW 2821   0.060   2.864   2.201 -0.3103  0.4432 -0.3579
  941SOL    HW1 2822   0.048   2.762   2.179 -1.2901  0.6464  1.4946
  941SOL    HW2 2823   0.115   2.872   2.288 -0.4489 -1.1348 -1.0392
  942SOL     OW 2824   0.115   0.084   2.511  0.7643  0.2311  0.1242
  942SOL    HW1 2825   0.183   0.116   2.577  0.8737 -0.1041 -0.8627
  942SOL    HW2 2826   0.083   0.161   2.450 -0.9727 -3.3065 -0.0673
  943SOL     OW 2827   2.110   1.675   2.432 -0.0027  0.3655 -0.6981
  943SOL    HW1 2828   2.133   1.581   2.467 -1.9751 -1.1821 -1.0738
  943SOL    HW2 2829   2.039   1.672   2.362 -0.2873 -5.1120 -0.2839
  944SOL     OW 2830   2.183   2.289   1.450  0.4242  0.2389 -0.9753
  944SOL    HW1 2831   2.266   2.341   1.490 -1.6643 -3.0939  0.2978
  944SOL    HW2 2832   2.118   2.251   1.524 -0.7761 -1.6700 -0.3269
  945SOL     OW 2833   0.657   1.433   0.356  0.1943  0.1381  0.0358
  945SOL    HW1 2834   0.693   1.470   0.266 -0.3746 -0.3457  0.6300
  945SOL    HW2 2835   0.690   1.339   0.389 -1.8219 -1.4078  0.5025
  946SOL     OW 2836   0.328   0.986   2.664 -0.0359 -0.5658  0.3004
  946SOL    HW1 2837   0.282   0.948   2.580  0.6431  3.3724  1.2193
  946SOL    HW2 2838   0.327   1.091   2.663  1.7064 -0.1057 -0.1038
  947SOL     OW 2839   1.527   0.414   0.174 -0.3383  0.5784 -0.3919
  947SOL    HW1 2840   1.553   0.341   0.243  1.7892 -0.3985 -0.4803
  947SOL    HW2 2841   1.432   0.398   0.140  2.1201  0.7366  1.3557
  948SOL     OW 2842   2.008   3.080   2.122  0.1206 -0.2818  0.0389
  948SOL    HW1 2843   1.948   3.085   2.035 -0.4739 -0.4571  1.1092
  948SOL    HW2 2844   1.969   3.007   2.190 -0.7676 -3.5822  0.0172
  949SOL     OW 2845   0.650   2.546   0.452  0.8098  0.0038 -0.0241
  949SOL    HW1 2846   0.665   2.642   0.414  1.8367  0.0583 -0.7126
  949SOL    HW2 2847   0.624   2.557   0.553  0.0775 -1.7505 -0.3066
  950SOL     OW 2848   0.211   2.114   3.015 -0.4360 -0.0643  0.1788
  950SOL    HW1 2849   0.128   2.176   3.015 -1.3227 -2.8687 -0.7151
  950SOL    HW2 2850   0.183   2.020   3.046 -1.7089 -0.3598 -2.1052
  951SOL     OW 2851   1.157   2.821   2.804 -0.1864  0.1153  0.0822
  951SOL    HW1 2852   1.182   2.737   2.748 -2.1342  1.0241  1.2909
  951SOL    HW2 2853   1.225   2.899   2.797 -1.0374 -0.4295  0.0771
  952SOL     OW 2854   0.099   1.701   0.477 -0.2128  0.0848  0.0324
  952SOL    HW1 2855   0.172   1.775   0.484 -2.8475 -3.8803  0.1846
  952SOL    HW2 2856   0.050   1.701   0.570 -5.0462  0.0489 -0.1785
  953SOL     OW 2857   2.475   1.738   0.156 -0.2230  0.5972 -0.0660
  953SOL    HW1 2858   2.496   1.636   0.178  2.8520 -0.0010 -0.5783
  953SOL    HW2 2859   2.470   1.746   0.054 -0.8522  1.5857 -0.4728
  954SOL     OW 2860   2.194   0.486   1.060  0.3674  0.3208 -0.3104
  954SOL    HW1 2861   2.120   0.499   0.982 -0.4895  0.9457 -2.8438
  954SOL    HW2 2862   2.290   0.475   1.029 -2.4127  1.1837  0.0182
  955SOL     OW 2863   0.217   2.667   1.273  0.0837  0.5108 -0.9228
  955SOL    HW1 2864   0.110   2.653   1.267 -0.5496  0.8287 -1.4139
  955SOL    HW2 2865   0.263   2.658   1.181  0.4057  0.2625 -0.1021
  956SOL     OW 2866   2.742   2.473   2.500  0.1788  0.1495  0.3048
  956SOL    HW1 2867   2.732   2.373   2.483  0.0021  1.3709  0.3647
  956SOL    HW2 2868   2.779   2.524   2.417  0.7035  1.2666 -1.0702
  957SOL     OW 2869   1.565   2.000   2.663 -0.0039 -0.4158  0.2348
  957SOL    HW1 2870   1.554   1.904   2.683 -0.3084  1.5662 -2.2266
  957SOL    HW2 2871   1.578   2.016   2.563  2.1432 -1.7740  0.3423
  958SOL     OW 2872   2.650   2.293   2.991  0.0685 -0.3825 -0.4140
  958SOL    HW1 2873   2.548   2.276   2.987  1.1300  0.2497  0.2293
  958SOL    HW2 2874   2.683   2.247   3.077  0.2015  1.4316  1.6666
  959SOL     OW 2875   0.253   2.789   0.027  0.4606 -0.6129  0.1574
  959SOL    HW1 2876   0.163   2.780   0.079 -0.0019  1.3167 -1.9810
  959SOL    HW2 2877   0.283   2.697  -0.016  0.8696  1.5832 -1.9692
  960SOL     OW 2878   1.950   0.448   2.026 -0.2752 -0.0141  1.1187
  960SOL    HW1 2879   1.925   0.530   1.970  1.8726  2.9928  1.0605
  960SOL    HW2 2880   1.983   0.479   2.119 -1.3256 -2.5839  1.3802
  961SOL     OW 2881   2.698   1.960   1.033  1.1638  0.1018 -0.2303
  961SOL    HW1 2882   2.603   1.968   0.992  1.6726  1.1743 -0.1239
  961SOL    HW2 2883   2.705   2.007   1.123 -1.2434  0.9627 -2.0402
  962SOL     OW 2884   1.271   0.954   0.009 -0.4653  0.0064 -0.5352
  962SOL    HW1 2885   1.294   1.038  -0.052 -0.0823  0.0495 -1.3620
  962SOL    HW2 2886   1.259   0.986   0.108  0.5893 -0.3222 -0.6565
  963SOL     OW 2887   2.208   2.578   1.918 -0.4583 -0.1679  0.4368
  963SOL    HW1 2888   2.247   2.530   2.000  0.4966  2.7124 -1.4763
  963SOL    HW2 2889   2.257   2.666   1.906 -2.0711 -1.2920 -1.1737
  964SOL     OW 2890   2.431   0.383   1.736  0.3481 -0.1561 -0.1218
  964SOL    HW1 2891   2.515   0.421   1.787 -1.9254 -0.8491  2.0570
  964SOL    HW2 2892   2.456   0.363   1.638 -0.2905  0.6063 -0.6854
  965SOL     OW 2893   2.679   2.985   0.165 -0.4584  0.0184  0.7084
  965SOL    HW1 2894   2.734   2.928   0.104 -0.3998 -0.1981 -1.2824
  965SOL    HW2 2895   2.624   3.058   0.114  1.7595  0.3141 -2.0451
  966SOL     OW 2896   2.540   2.642   2.202 -0.0711 -0.0568  0.3375
  966SOL    HW1 2897   2.472   2.583   2.152  0.5156 -0.6973  0.3016
  966SOL    HW2 2898   2.516   2.744   2.204  0.0028  0.1244  3.6901
  967SOL     OW 2899   2.724   2.856   2.470 -0.6061 -0.2845 -0.1011
  967SOL    HW1 2900   2.772   2.783   2.417  0.0915  0.4592 -0.7033
  967SOL    HW2 2901   2.771   2.951   2.477 -1.6798  1.8019 -0.3871
  968SOL     OW 2902   1.985   1.052   2.724 -0.2085  0.1223 -0.0549
  968SOL    HW1 2903   1.951   1.138   2.678 -2.8741  2.6533  0.3614
  968SOL    HW2 2904   1.954   0.962   2.680 -1.0613 -3.5956  2.7839
  969SOL     OW 2905   2.733   2.360   1.183  0.4149  0.4702  0.0864
  969SOL    HW1 2906   2.684   2.353   1.089  0.9609 -1.8939 -1.2180
  969SOL    HW2 2907   2.781   2.273   1.212  1.7287  1.5251  2.3460
  970SOL     OW 2908   1.121   2.123   1.786  0.1938 -0.1952 -0.0400
  970SOL    HW1 2909   1.020   2.119   1.762 -1.0788  0.3614 -2.2756
  970SOL    HW2 2910   1.138   2.137   1.890  1.3135  1.0235  2.9498
  971SOL     OW 2911   2.826   2.099   1.937 -0.0895  0.2469 -0.2258
  971SOL    HW1 2912   2.834   2.200   1.961 -0.3594  1.6713 -0.0928
  971SOL    HW2 2913   2.867   2.063   1.849  1.7387  1.5385 -1.5871
  972SOL     OW 2914   2.077   2.448   0.270  0.2981  0.0817  0.6768
  972SOL    HW1 2915   2.032   2.366   0.223  0.6988  2.6912 -1.3162
  972SOL    HW2 2916   2.071   2.438   0.371 -0.9550 -0.5823  2.0388
  973SOL     OW 2917   1.305   1.053   1.877 -0.3075 -0.6687 -0.2828
  973SOL    HW1 2918   1.229   1.002   1.818  0.6789 -0.3411 -0.0231
  973SOL    HW2 2919   1.288   1.156   1.885 -0.9072  0.0897  0.2926
  974SOL     OW 2920   1.641   0.565   1.950 -0.2495 -0.1261  0.9663
  974SOL    HW1 2921   1.717   0.622   1.913 -3.1173  1.6762  0.5649
  974SOL    HW2 2922   1.556   0.612   1.975 -0.1306  1.6482  1.4458
  975SOL     OW 2923   2.450   3.047   3.059  0.1832  0.3724  0.6004
  975SOL    HW1 2924   2.376   3.013   3.121  1.4650  0.1764 -0.1772
  975SOL    HW2 2925   2.432   3.008   2.962 -1.0174 -0.7089 -0.3431
  976SOL     OW 2926   1.956   2.909   2.349  0.0458 -0.0002  0.6071
  976SOL    HW1 2927   1.882   2.844   2.315  1.8960  1.2054  2.0788
  976SOL    HW2 2928   2.006   2.874   2.427  1.3342  2.9164 -3.6660
  977SOL     OW 2929   0.480   0.592   0.995  0.2729 -0.7960 -0.4389
  977SOL    HW1 2930   0.404   0.558   0.939 -0.7188  2.4752 -0.5563
  977SOL    HW2 2931   0.568   0.593   0.939 -0.3521  0.5032  2.5144
   3.10000   3.10000   3.10000
