1000 SPC/Fw water molecules t=   0.47000 step= 470
 2931
    1SOL     OW    1   2.488   0.325   2.619 -0.7478  0.3147 -0.2623
    1SOL    HW1    2   2.489   0.223   2.628  1.2622  0.5390  0.6637
    1SOL    HW2    3   2.504   0.380   2.706 -1.4867  2.9881  0.5129
    2SOL     OW    4   2.717   3.039   1.452 -0.2234 -0.3257  0.2234
    2SOL    HW1    5   2.749   3.082   1.361  0.6615 -3.0444 -1.9043
    2SOL    HW2    6   2.695   3.114   1.524 -2.1337 -0.0849 -1.2351
    3SOL     OW    7   2.733   2.600   0.386 -0.3779 -0.0928  0.2003
    3SOL    HW1    8   2.704   2.498   0.393 -0.9132 -0.2482  0.4412
    3SOL    HW2    9   2.806   2.618   0.461  0.1719  0.7810 -2.0025
    4SOL     OW   10   1.321   1.499   2.351  0.3062 -0.1757  0.1655
    4SOL    HW1   11   1.241   1.548   2.302 -3.5207  1.2820 -0.1974
    4SOL    HW2   12   1.300   1.403   2.382 -2.1713 -0.4883  2.5193
    5SOL     OW   13   1.194   1.517   3.036 -0.1283  0.0441  0.0816
    5SOL    HW1   14   1.248   1.581   3.093 -2.5018  1.2959 -0.3643
    5SOL    HW2   15   1.095   1.505   3.064 -0.0628 -0.4966 -1.5025
    6SOL     OW   16   0.044   1.785   2.914  0.4842  0.3427  0.4483
    6SOL    HW1   17   0.035   1.840   3.007 -0.5597  0.4063  2.0763
    6SOL    HW2   18   0.030   1.682   2.937 -2.2258  1.5241 -1.2065
    7SOL     OW   19   2.574   0.892   1.161  0.9333  0.4315  0.0467
    7SOL    HW1   20   2.477   0.870   1.193 -0.9194 -1.4939  0.3666
    7SOL    HW2   21   2.585   0.868   1.058 -2.9129  0.3926  1.0481
    8SOL     OW   22   0.438   0.615   1.527  0.5628 -0.3442 -0.1638
    8SOL    HW1   23   0.536   0.584   1.529 -1.3030 -0.3461  1.1985
    8SOL    HW2   24   0.384   0.589   1.442  1.5427  0.3614 -0.7875
    9SOL     OW   25   1.155   0.956   2.273  0.2377 -0.5918  0.3652
    9SOL    HW1   26   1.248   1.003   2.243  3.1038  0.2480 -0.7422
    9SOL    HW2   27   1.098   0.932   2.190  1.0151 -2.3081  3.0979
   10SOL     OW   28   0.718   1.344   1.271  0.2573 -0.4793 -0.1263
   10SOL    HW1   29   0.645   1.388   1.216 -1.3856  1.1166  1.7451
   10SOL    HW2   30   0.791   1.420   1.292 -1.4543  0.9287 -1.4068
   11SOL     OW   31   2.373   2.694   0.946  0.1170  0.4070 -0.5929
   11SOL    HW1   32   2.330   2.693   1.042  1.4590 -0.6620  1.1564
   11SOL    HW2   33   2.473   2.674   0.942  3.5644  1.2493 -0.4379
   12SOL     OW   34   1.454   0.899   0.377  0.3892 -0.3862 -0.7912
   12SOL    HW1   35   1.401   0.975   0.330  0.8822  0.1405 -1.3871
   12SOL    HW2   36   1.453   0.811   0.319  1.3858  0.1325 -1.3370
   13SOL     OW   37   2.529   0.660   1.803 -0.0596 -0.0105  0.4489
   13SOL    HW1   38   2.457   0.622   1.868  0.7227 -1.8067  1.5407
   13SOL    HW2   39   2.489   0.654   1.706  1.2478 -0.1221 -0.7338
   14SOL     OW   40   1.959   0.048   0.691 -0.4093  0.4360  0.2926
   14SOL    HW1   41   1.892   0.085   0.615 -0.2029  0.3332 -0.3245
   14SOL    HW2   42   1.920  -0.037   0.743  0.7049  1.0003  0.8831
   15SOL     OW   43   1.956   2.010   2.845 -0.0806  0.0109 -0.4799
   15SOL    HW1   44   1.934   2.112   2.843 -1.3847  2.0794  0.7696
   15SOL    HW2   45   1.899   1.954   2.773 -0.6627  0.6624 -1.0948
   16SOL     OW   46   1.605   1.738   3.085 -0.4983  0.1964 -0.7165
   16SOL    HW1   47   1.632   1.636   3.091 -0.5130 -1.4129  3.5866
   16SOL    HW2   48   1.686   1.804   3.098  0.4156 -0.1037 -0.4115
   17SOL     OW   49   0.088   0.497   0.126  0.2191 -0.0641  0.4624
   17SOL    HW1   50   0.162   0.530   0.059  0.4576  2.4874  1.0502
   17SOL    HW2   51   0.002   0.466   0.079  0.4219 -2.1194 -0.8038
   18SOL     OW   52   0.988   2.917   2.182 -0.5371 -0.1644 -0.2067
   18SOL    HW1   53   0.900   2.860   2.181  0.1282  1.3178 -0.7675
   18SOL    HW2   54   1.048   2.905   2.101  1.8685  0.0814 -0.8426
   19SOL     OW   55   0.546   0.844   1.924  0.0731 -0.1499 -0.4435
   19SOL    HW1   56   0.528   0.836   2.025  0.7892 -2.7788  1.4228
   19SOL    HW2   57   0.639   0.816   1.893  0.7434  3.9057 -0.0092
   20SOL     OW   58   0.163   2.807   0.833  0.0439  0.1680 -0.4016
   20SOL    HW1   59   0.106   2.878   0.783 -1.5016 -3.3797  0.0823
   20SOL    HW2   60   0.228   2.762   0.767 -0.6613  2.4108  0.6664
   21SOL     OW   61   2.784   0.185   2.116  0.1352  0.4083 -0.3644
   21SOL    HW1   62   2.754   0.139   2.031 -4.7081  0.8048 -0.5727
   21SOL    HW2   63   2.803   0.115   2.189 -1.1346 -1.3339 -0.3659
   22SOL     OW   64   2.315   0.225   0.038  0.1045 -0.4841  0.8613
   22SOL    HW1   65   2.326   0.124   0.057 -0.2299  1.6835  1.9825
   22SOL    HW2   66   2.214   0.256   0.042 -2.9908  0.1104 -1.0078
   23SOL     OW   67   2.778   0.634   0.648 -0.2781 -0.4776  0.3397
   23SOL    HW1   68   2.804   0.557   0.582 -1.4083  2.2007 -1.1528
   23SOL    HW2   69   2.761   0.723   0.589 -4.6714  0.6838 -0.0144
   24SOL     OW   70   0.151   1.925   0.393 -0.0072  0.0442 -0.1078
   24SOL    HW1   71   0.048   1.937   0.373 -2.2930 -0.5888 -5.0262
   24SOL    HW2   72   0.202   1.942   0.305  0.4358 -1.9260 -3.3463
   25SOL     OW   73   2.243   0.498   0.218 -0.4796  0.0577 -0.0597
   25SOL    HW1   74   2.321   0.556   0.262  0.3856  5.8436  0.3989
   25SOL    HW2   75   2.222   0.543   0.125  1.6060  0.7495  1.0266
   26SOL     OW   76   2.511   2.194   2.082  0.3477 -0.2992 -0.0472
   26SOL    HW1   77   2.565   2.236   2.164 -1.8206 -0.2511  0.4490
   26SOL    HW2   78   2.558   2.110   2.043  2.1910 -1.5408 -1.5282
   27SOL     OW   79   0.633   2.960   0.128 -0.3609 -0.8006  0.6451
   27SOL    HW1   80   0.732   2.987   0.137 -0.8978  2.2258 -0.1192
   27SOL    HW2   81   0.588   3.006   0.048 -0.3684 -2.0817 -1.4687
   28SOL     OW   82   1.578   0.181   0.285  0.2203  0.1690  0.4308
   28SOL    HW1   83   1.618   0.158   0.190 -1.4385 -0.1892  0.6162
   28SOL    HW2   84   1.594   0.282   0.305  1.4678  0.8532 -0.2742
   29SOL     OW   85   2.030   0.528   0.379 -0.2729 -0.1945  0.2409
   29SOL    HW1   86   1.993   0.621   0.382  1.6853 -2.0909  0.5212
   29SOL    HW2   87   2.117   0.514   0.316  0.9179  0.6046 -3.8372
   30SOL     OW   88   0.155   2.045   0.931  0.1642  0.7299  0.2200
   30SOL    HW1   89   0.170   2.046   0.829  1.2002 -3.6095  1.0588
   30SOL    HW2   90   0.072   2.095   0.956  1.6531 -2.4547  0.1483
   31SOL     OW   91   2.117   0.002   2.298  0.2586 -0.5374  0.1591
   31SOL    HW1   92   2.128  -0.008   2.400  2.5194 -1.6541 -0.6100
   31SOL    HW2   93   2.015  -0.006   2.271 -0.8826  1.3350 -0.1060
   32SOL     OW   94   2.942   0.189   0.193  0.4862  0.2648  0.9845
   32SOL    HW1   95   2.893   0.105   0.234 -0.7521 -1.5824  0.6538
   32SOL    HW2   96   3.028   0.219   0.237 -0.2286 -1.3769 -1.2179
   33SOL     OW   97   0.919   0.324   0.514 -0.1672  0.6779  0.4980
   33SOL    HW1   98   0.875   0.236   0.480 -2.4186 -1.8385  0.7531
   33SOL    HW2   99   0.989   0.314   0.595  0.6054 -2.4604  0.1579
   34SOL     OW  100   0.379   2.839   1.011 -0.2742  0.2149 -0.1313
   34SOL    HW1  101   0.330   2.902   0.943 -0.2273 -0.6168  0.0150
   34SOL    HW2  102   0.482   2.823   0.997  0.5705  1.3215  1.6783
   35SOL     OW  103   0.040   0.147   1.867 -0.1363  1.0332  0.2019
   35SOL    HW1  104   0.058   0.050   1.907  0.5664 -0.4708  1.6399
   35SOL    HW2  105  -0.016   0.144   1.779 -0.1332  0.3199 -1.6003
   36SOL     OW  106   1.937   1.107   1.825  0.2984 -0.5153 -0.0145
   36SOL    HW1  107   2.001   1.074   1.748  0.9188 -2.0786 -1.6902
   36SOL    HW2  108   1.986   1.178   1.876 -0.4225  2.1730 -0.0469
   37SOL     OW  109   1.189   0.195   0.956  0.3935 -0.3327  0.3085
   37SOL    HW1  110   1.224   0.263   1.024 -1.1665 -2.6794 -1.0418
   37SOL    HW2  111   1.262   0.130   0.926 -0.5669  1.0257 -1.8024
   38SOL     OW  112   1.071   2.721   2.405 -0.2833  1.1719 -0.3546
   38SOL    HW1  113   1.027   2.640   2.461 -0.6203 -0.5023 -0.3208
   38SOL    HW2  114   0.998   2.785   2.378  1.1515 -1.7149  1.3968
   39SOL     OW  115   2.322   1.357   3.004 -0.4715 -0.4406  0.1048
   39SOL    HW1  116   2.408   1.307   3.039 -0.4031 -0.7449  0.3321
   39SOL    HW2  117   2.256   1.365   3.081  2.1921 -0.9569  1.3936
   40SOL     OW  118   2.142   2.509   2.519  0.5471  0.2897 -0.6405
   40SOL    HW1  119   2.116   2.604   2.543  1.4087 -0.4698  2.2156
   40SOL    HW2  120   2.072   2.454   2.471  1.6651 -3.8409  2.4747
   41SOL     OW  121   2.932   0.716   2.749  0.1317 -0.1528 -0.0775
   41SOL    HW1  122   2.860   0.789   2.773  0.0798  1.0241 -0.3057
   41SOL    HW2  123   2.906   0.616   2.767  4.5942  0.8003 -1.6281
   42SOL     OW  124   1.745   1.780   0.558 -0.2281  0.0306 -0.2484
   42SOL    HW1  125   1.686   1.708   0.517 -0.3069  0.2673  0.9160
   42SOL    HW2  126   1.798   1.829   0.481 -1.0568  1.4809  1.2358
   43SOL     OW  127   0.477   1.734   1.159  0.1352 -0.3227 -1.0253
   43SOL    HW1  128   0.469   1.677   1.243  0.6325 -0.6077  1.2273
   43SOL    HW2  129   0.386   1.762   1.113 -0.0451 -0.9795 -0.2049
   44SOL     OW  130   1.805   2.499   3.058  0.5514 -0.6367 -1.0632
   44SOL    HW1  131   1.806   2.578   2.999 -0.8491 -0.5475  1.7468
   44SOL    HW2  132   1.870   2.504   3.137 -0.8362 -1.5124  1.2418
   45SOL     OW  133   0.287   1.891   2.600  0.2222  0.1631 -0.1532
   45SOL    HW1  134   0.243   1.900   2.504  0.2187 -0.1480  0.6873
   45SOL    HW2  135   0.376   1.836   2.594 -0.2318  3.3807 -0.0562
   46SOL     OW  136   1.199   0.675   0.200  0.7487  0.4245 -0.8717
   46SOL    HW1  137   1.241   0.739   0.129 -0.9996 -0.9409 -1.3288
   46SOL    HW2  138   1.108   0.705   0.244  1.1694 -0.9886  0.1590
   47SOL     OW  139   0.206   2.438   1.640 -0.0528 -0.4788  0.3188
   47SOL    HW1  140   0.283   2.364   1.639 -1.1309  2.2928  0.0166
   47SOL    HW2  141   0.193   2.486   1.549 -0.8267  1.1488 -0.8405
   48SOL     OW  142   2.600   0.611   0.158  0.5193  0.1576  0.0111
   48SOL    HW1  143   2.568   0.594   0.254 -4.1926 -1.0753  3.6084
   48SOL    HW2  144   2.676   0.687   0.151  2.1266  0.8262 -1.7162
   49SOL     OW  145   0.370   0.799   1.717  0.1544 -0.2614 -0.4681
   49SOL    HW1  146   0.445   0.817   1.788  0.9868 -2.4197 -0.5681
   49SOL    HW2  147   0.395   0.712   1.660  2.7419 -1.3619 -0.3366
   50SOL     OW  148   1.674   1.116   0.337 -0.3650  0.7597 -0.6939
   50SOL    HW1  149   1.652   1.024   0.307  0.8695 -1.2982  0.1674
   50SOL    HW2  150   1.639   1.131   0.430  2.1431  0.1499 -3.1863
   51SOL     OW  151   2.978   1.920   0.298 -0.4066  0.3974 -0.6357
   51SOL    HW1  152   2.961   1.877   0.204  0.1507 -1.2482  0.0728
   51SOL    HW2  153   2.963   1.846   0.373  2.6453 -1.1831 -0.1327
   52SOL     OW  154   0.780   1.949   0.514 -0.1962  0.1551 -0.3104
   52SOL    HW1  155   0.694   1.995   0.546  0.1047 -0.7350  0.4554
   52SOL    HW2  156   0.802   1.859   0.565 -0.6088 -1.0955 -0.0165
   53SOL     OW  157   3.090   0.358   1.547  0.2422  0.1287  0.2949
   53SOL    HW1  158   3.011   0.370   1.608  1.4876 -1.2130 -3.5465
   53SOL    HW2  159   3.096   0.419   1.465 -0.2187 -2.4747 -1.9735
   54SOL     OW  160   1.762   0.452   3.077  0.4290 -0.4795  0.1671
   54SOL    HW1  161   1.785   0.392   3.160  0.4973  0.7672  1.1109
   54SOL    HW2  162   1.662   0.482   3.072 -4.0134 -0.2118 -1.4456
   55SOL     OW  163   0.741   2.914   0.588  0.7087  0.4054  0.1546
   55SOL    HW1  164   0.701   3.003   0.621 -2.4841  0.6948 -1.9057
   55SOL    HW2  165   0.819   2.941   0.521 -0.1038  1.9766 -1.8293
   56SOL     OW  166   0.456   1.567   3.026  0.1390 -0.1566 -0.1246
   56SOL    HW1  167   0.378   1.633   3.055  0.4724 -0.6295 -1.4379
   56SOL    HW2  168   0.417   1.487   2.984  1.0549  3.0296  1.7613
   57SOL     OW  169   1.808   2.477   2.652 -0.3081  0.8102 -0.1043
   57SOL    HW1  170   1.827   2.443   2.555  0.9932  1.1158 -0.2737
   57SOL    HW2  171   1.707   2.482   2.672  0.8802 -1.6312  0.3930
   58SOL     OW  172   0.655   0.383   1.124  0.3506 -0.1212 -0.1195
   58SOL    HW1  173   0.586   0.453   1.091  1.1334  3.3345  1.2595
   58SOL    HW2  174   0.625   0.280   1.115  1.9424 -1.9806  1.1771
   59SOL     OW  175   0.404   2.373   2.756 -0.7097  0.0476  0.5093
   59SOL    HW1  176   0.393   2.272   2.737 -0.0901 -0.6459 -0.7343
   59SOL    HW2  177   0.499   2.398   2.779 -2.6402 -1.7924 -0.3948
   60SOL     OW  178   2.303   2.092   2.252  0.6034 -0.4850 -0.0066
   60SOL    HW1  179   2.374   2.144   2.196 -0.4944 -0.4777  0.7108
   60SOL    HW2  180   2.302   2.106   2.356  1.5353  1.5735  0.8938
   61SOL     OW  181   1.351   0.632   0.515 -0.3389 -0.5716  0.1858
   61SOL    HW1  182   1.263   0.675   0.554 -1.9644  2.4910  1.6492
   61SOL    HW2  183   1.371   0.652   0.413 -2.9236 -1.0587 -2.5614
   62SOL     OW  184   2.671   1.810   2.991 -0.1136  0.1506 -0.0043
   62SOL    HW1  185   2.660   1.715   3.025 -0.1477  1.5916 -1.4795
   62SOL    HW2  186   2.735   1.804   2.905  2.8688 -2.4821 -1.3422
   63SOL     OW  187   0.541   0.886   0.168  0.8456 -0.0338 -0.0497
   63SOL    HW1  188   0.497   0.979   0.152  0.2799 -1.3178 -0.2984
   63SOL    HW2  189   0.628   0.900   0.224 -0.7841 -1.3163  0.0577
   64SOL     OW  190   0.065   0.526   2.542 -0.3314  0.2767 -0.1011
   64SOL    HW1  191   0.034   0.581   2.621  4.5767 -2.4516  0.5313
   64SOL    HW2  192   0.119   0.585   2.485 -1.5049  0.6160  1.6390
   65SOL     OW  193   0.192   1.498   0.615 -0.0829 -0.0104 -0.5670
   65SOL    HW1  194   0.230   1.574   0.679  2.8929  1.6206  1.4667
   65SOL    HW2  195   0.262   1.417   0.606  3.7012  1.7246 -0.2648
   66SOL     OW  196   2.515   0.436   0.629 -0.1027  0.7222 -0.4013
   66SOL    HW1  197   2.499   0.503   0.702  1.3848 -0.9160 -2.3215
   66SOL    HW2  198   2.507   0.338   0.662 -0.8590 -0.8593  1.7431
   67SOL     OW  199   0.515   2.488   1.435  0.1511  0.3855 -0.2790
   67SOL    HW1  200   0.593   2.459   1.497 -1.0961 -2.2672  1.4609
   67SOL    HW2  201   0.473   2.408   1.382 -1.3062  2.1772  0.9314
   68SOL     OW  202   0.995   1.095   2.435 -0.1500  0.3958 -0.2187
   68SOL    HW1  203   1.059   1.036   2.371  1.6296 -3.8594  0.9572
   68SOL    HW2  204   0.904   1.126   2.391 -1.9941  1.2377 -0.0227
   69SOL     OW  205   0.759   2.770   2.158  0.2430  0.7386 -0.3919
   69SOL    HW1  206   0.817   2.682   2.168  3.1188 -3.3915 -1.5473
   69SOL    HW2  207   0.652   2.749   2.161  0.7108 -0.4248 -0.5441
   70SOL     OW  208   0.649   0.291   2.720  0.0337  0.2896 -0.7284
   70SOL    HW1  209   0.650   0.355   2.804 -1.3333  3.3813  1.4480
   70SOL    HW2  210   0.606   0.197   2.745  1.0741 -3.3067 -0.3214
   71SOL     OW  211   1.112   1.796   0.323 -0.2538 -0.2100 -0.1881
   71SOL    HW1  212   1.041   1.719   0.352 -4.5183  0.3007  0.7452
   71SOL    HW2  213   1.125   1.808   0.220 -1.6943  0.6135  0.6393
   72SOL     OW  214   1.779   0.132   2.041 -0.2513 -0.2288 -0.7342
   72SOL    HW1  215   1.818   0.139   1.949 -0.6063 -2.0020  0.3687
   72SOL    HW2  216   1.823   0.048   2.086 -1.2437 -0.2762 -0.4742
   73SOL     OW  217   2.738   2.170   2.518  0.2044 -0.5193 -0.6134
   73SOL    HW1  218   2.735   2.068   2.496  0.8071  2.8210  1.5707
   73SOL    HW2  219   2.760   2.193   2.621 -0.7251  0.3381  4.1459
   74SOL     OW  220   2.719   2.964   1.993 -0.0279 -0.7969 -0.0696
   74SOL    HW1  221   2.657   2.995   2.067  2.0986  0.8796 -1.3512
   74SOL    HW2  222   2.817   2.984   2.019 -3.2760 -3.5794  0.3157
   75SOL     OW  223   0.907   0.770   1.011  0.8083  0.2657  0.1247
   75SOL    HW1  224   0.815   0.808   0.987  1.7090 -1.3136 -1.6905
   75SOL    HW2  225   0.959   0.825   1.084 -0.4532 -1.4720 -2.3964
   76SOL     OW  226   1.726   1.235   2.571  0.1631  0.5230 -0.3062
   76SOL    HW1  227   1.630   1.206   2.588 -1.5987  0.6728  1.0273
   76SOL    HW2  228   1.744   1.332   2.610  3.2654 -1.7160  0.5443
   77SOL     OW  229   2.904   0.966   0.970 -0.4088  0.2595 -0.1120
   77SOL    HW1  230   2.910   0.868   0.939  2.6720  1.6902  1.7120
   77SOL    HW2  231   2.934   0.987   1.066  2.7747 -1.6588  0.7612
   78SOL     OW  232   2.040   1.425   1.530  0.4430  0.0064  0.9136
   78SOL    HW1  233   2.124   1.459   1.472  0.1300  1.1381 -3.3187
   78SOL    HW2  234   1.973   1.368   1.473  0.8051 -0.6073  1.2256
   79SOL     OW  235   0.605   1.340   0.825  0.5599 -0.3013  0.3630
   79SOL    HW1  236   0.513   1.369   0.864 -1.0148  1.4938 -1.3317
   79SOL    HW2  237   0.598   1.311   0.729  2.5308 -0.4917  2.1274
   80SOL     OW  238   0.667   0.489   1.589  0.2065 -0.3732  0.2013
   80SOL    HW1  239   0.721   0.558   1.532 -2.4184 -0.1226  1.2729
   80SOL    HW2  240   0.716   0.396   1.595  2.0059  0.6839 -1.9575
   81SOL     OW  241   1.044   1.369   2.597  0.4831 -0.6984  0.1871
   81SOL    HW1  242   0.984   1.319   2.660  2.1436 -0.0772 -2.3705
   81SOL    HW2  243   0.999   1.387   2.504 -2.5964  2.1508 -1.8106
   82SOL     OW  244   0.989   2.955   1.499  0.0993  0.0797 -0.1433
   82SOL    HW1  245   1.021   2.977   1.405  3.0781 -2.6472 -1.1238
   82SOL    HW2  246   0.888   2.928   1.503 -3.1428  1.4920 -0.3732
   83SOL     OW  247   2.669   2.479   0.830  0.1453  0.4018  0.8385
   83SOL    HW1  248   2.583   2.434   0.786 -0.2782 -0.6275  0.4279
   83SOL    HW2  249   2.691   2.576   0.793  0.7014 -3.0355 -0.6578
   84SOL     OW  250   0.731   3.075   2.361  0.0321 -0.0088 -0.2842
   84SOL    HW1  251   0.642   3.060   2.409  2.6306 -0.5577 -0.7361
   84SOL    HW2  252   0.767   2.988   2.322 -3.1347 -1.6589 -2.3809
   85SOL     OW  253   0.417   1.642   1.558  0.2545 -0.4948  0.6415
   85SOL    HW1  254   0.366   1.731   1.541  0.8687 -0.3440 -1.8933
   85SOL    HW2  255   0.400   1.615   1.658  0.2469 -0.5591  1.7094
   86SOL     OW  256   0.353   0.966   1.507 -0.3198 -0.1712 -0.5603
   86SOL    HW1  257   0.327   0.913   1.420  1.0578  0.1075  0.3475
   86SOL    HW2  258   0.361   0.901   1.590 -1.4753 -0.2727 -0.4446
   87SOL     OW  259   1.515   0.663   0.267 -0.4851  0.8846 -0.4225
   87SOL    HW1  260   1.610   0.712   0.264 -1.1048  3.5407  0.1759
   87SOL    HW2  261   1.489   0.600   0.188  1.0945  1.6008  1.3223
   88SOL     OW  262   1.552   1.353   0.205 -0.4079  0.6055 -0.0186
   88SOL    HW1  263   1.605   1.272   0.249 -1.9035 -0.5551  4.1566
   88SOL    HW2  264   1.454   1.353   0.237 -0.1927 -2.0622  2.5691
   89SOL     OW  265   0.042   0.413   0.579 -0.3919 -0.0050  0.3370
   89SOL    HW1  266   0.103   0.325   0.573  0.4135 -2.5633  1.2655
   89SOL    HW2  267  -0.053   0.396   0.534  0.6498 -1.3318  0.6952
   90SOL     OW  268   0.924   1.588   3.024 -0.3939 -0.4387  0.2545
   90SOL    HW1  269   0.839   1.571   3.082 -0.4907 -1.7127 -2.2890
   90SOL    HW2  270   0.896   1.625   2.933  2.1134  1.4849  0.2680
   91SOL     OW  271   1.279   1.461   1.817 -0.1122  0.0845  0.7166
   91SOL    HW1  272   1.282   1.536   1.887  0.9072 -1.0601  1.6477
   91SOL    HW2  273   1.368   1.446   1.765 -2.3467  1.5706  2.2165
   92SOL     OW  274   3.049   1.043   1.221  0.0089 -0.6874 -0.1222
   92SOL    HW1  275   3.116   1.096   1.161 -0.0998 -1.0082 -2.5809
   92SOL    HW2  276   3.096   1.010   1.307 -3.0610  1.9457  0.5851
   93SOL     OW  277   3.096   2.753   0.056 -0.0762 -0.2811 -0.5503
   93SOL    HW1  278   3.029   2.755  -0.019  1.2715  1.8651 -1.8955
   93SOL    HW2  279   3.153   2.669   0.062  3.0422 -0.1884  1.6612
   94SOL     OW  280   1.530   1.427   1.691  0.3967  0.3563  0.0816
   94SOL    HW1  281   1.560   1.326   1.678  2.4501  1.1016 -3.1413
   94SOL    HW2  282   1.591   1.490   1.745  0.3406 -0.1020  0.9806
   95SOL     OW  283   1.311   2.518   2.983  0.1511 -0.3683  0.3938
   95SOL    HW1  284   1.250   2.504   3.067 -2.0373 -0.7166  1.7087
   95SOL    HW2  285   1.339   2.427   2.946 -0.2543  0.0215 -0.4424
   96SOL     OW  286   0.561   2.018   1.242 -0.2525  0.2246  0.9712
   96SOL    HW1  287   0.513   2.032   1.153 -0.9765 -1.7753 -1.6132
   96SOL    HW2  288   0.589   1.918   1.245 -3.3925 -2.2515  1.7710
   97SOL     OW  289   0.366   1.550   2.499 -0.2798  0.6560 -0.3046
   97SOL    HW1  290   0.284   1.559   2.560  1.1355 -1.3371 -2.0609
   97SOL    HW2  291   0.439   1.618   2.522 -2.2863  2.6362  1.6959
   98SOL     OW  292   1.955   1.599   1.263 -0.4472 -0.6242 -0.3530
   98SOL    HW1  293   1.896   1.548   1.330  0.9267 -2.1411  3.3123
   98SOL    HW2  294   1.962   1.555   1.173 -3.4246  1.3048  1.6152
   99SOL     OW  295   2.477   2.095   1.419 -0.1125  0.1190  0.1113
   99SOL    HW1  296   2.501   2.076   1.519 -0.3639 -1.0064  0.0159
   99SOL    HW2  297   2.469   2.009   1.359 -0.3313  0.6855  0.0307
  100SOL     OW  298   2.303   0.378   2.059  0.3761  0.2926 -0.3912
  100SOL    HW1  299   2.244   0.338   2.143 -1.0644 -1.0564  2.9979
  100SOL    HW2  300   2.403   0.402   2.086  1.1902  0.8013 -0.7098
  101SOL     OW  301   0.408   1.494   0.270 -0.3364  0.0018 -0.5108
  101SOL    HW1  302   0.443   1.484   0.370  1.1483 -2.9029  0.5540
  101SOL    HW2  303   0.478   1.552   0.218  1.7097  0.3165 -1.4361
  102SOL     OW  304   2.317   1.036   0.825  0.1257  0.1655 -0.0058
  102SOL    HW1  305   2.222   0.998   0.804 -2.2707  0.1015 -0.4833
  102SOL    HW2  306   2.338   1.123   0.771  1.4705 -1.8960  2.8875
  103SOL     OW  307   2.311   0.039   0.405 -0.2920 -0.4099 -0.1658
  103SOL    HW1  308   2.369   0.112   0.360  0.2901 -1.1694  3.1776
  103SOL    HW2  309   2.367  -0.021   0.467  1.5920  2.0234  2.6699
  104SOL     OW  310   0.096   1.772   2.156 -0.4322 -0.4346  1.1855
  104SOL    HW1  311   0.135   1.756   2.061  4.5232 -1.1817 -0.4045
  104SOL    HW2  312  -0.011   1.777   2.161 -1.6230 -0.6055  2.0565
  105SOL     OW  313   1.242   2.012   0.802 -0.1582  0.5050  0.5838
  105SOL    HW1  314   1.173   2.038   0.729 -0.0226  1.8800  1.5249
  105SOL    HW2  315   1.277   1.915   0.790 -0.8549  0.5151 -0.8021
  106SOL     OW  316   2.128   0.538   1.377  0.2172  0.4888 -0.4645
  106SOL    HW1  317   2.086   0.461   1.428  2.6781  1.4135  0.3462
  106SOL    HW2  318   2.113   0.630   1.421  1.2983  0.4587  1.4907
  107SOL     OW  319   1.803   2.994   1.097 -0.4943 -0.3205  0.1113
  107SOL    HW1  320   1.858   3.079   1.130 -1.1149  2.1689 -0.1478
  107SOL    HW2  321   1.752   2.944   1.172  1.1814  0.0379 -0.1334
  108SOL     OW  322   0.824   2.740   1.247 -0.0260  0.3971 -0.5569
  108SOL    HW1  323   0.802   2.747   1.350 -0.7637 -2.3092  1.5744
  108SOL    HW2  324   0.928   2.752   1.230  1.1710  0.6630 -0.3637
  109SOL     OW  325   2.218   0.133   0.804  0.2119  0.5904  0.2169
  109SOL    HW1  326   2.130   0.103   0.754 -0.2492 -1.3696 -1.0735
  109SOL    HW2  327   2.211   0.126   0.910  0.3094 -1.9155  1.6015
  110SOL     OW  328   0.444   2.790   2.695 -0.1484 -0.0061  0.2140
  110SOL    HW1  329   0.426   2.817   2.596  0.2959 -1.7839  1.9768
  110SOL    HW2  330   0.538   2.747   2.713 -1.5930  0.4332  1.6835
  111SOL     OW  331   1.344   0.513   2.262  0.4851 -0.0589  0.4258
  111SOL    HW1  332   1.281   0.574   2.319 -1.5396  2.0185 -1.8795
  111SOL    HW2  333   1.371   0.422   2.302  0.1510  1.7541  0.7577
  112SOL     OW  334   1.738   0.524   1.458 -0.2945 -0.2535  0.3143
  112SOL    HW1  335   1.733   0.512   1.356 -0.4307  3.2709 -0.6078
  112SOL    HW2  336   1.704   0.437   1.507 -0.4074 -1.2951 -0.6965
  113SOL     OW  337   2.278   1.618   1.750 -0.5176 -0.3264  0.6358
  113SOL    HW1  338   2.308   1.522   1.716 -0.1000  2.1879 -0.9576
  113SOL    HW2  339   2.319   1.655   1.838  2.3343  1.2379 -0.5427
  114SOL     OW  340   0.316   0.538   1.279  0.3505 -0.0672 -0.1134
  114SOL    HW1  341   0.325   0.640   1.264 -0.4197 -3.4240 -0.5557
  114SOL    HW2  342   0.241   0.501   1.216  2.4492 -1.4481  0.2750
  115SOL     OW  343   2.643   1.631   1.223  0.6847  0.6142  0.8028
  115SOL    HW1  344   2.698   1.552   1.259  1.6741 -0.4818  1.7870
  115SOL    HW2  345   2.697   1.689   1.152  1.7281  1.4637  2.0122
  116SOL     OW  346   1.808   1.049   0.748 -0.3592  0.0242 -0.8303
  116SOL    HW1  347   1.756   0.983   0.685 -2.1173  1.2801  0.4319
  116SOL    HW2  348   1.766   1.144   0.762 -3.1033 -0.3677 -0.3602
  117SOL     OW  349   1.132   0.352   0.692  0.4413  0.4849 -0.3102
  117SOL    HW1  350   1.155   0.312   0.784 -0.4430 -0.0835  1.1470
  117SOL    HW2  351   1.156   0.454   0.683  0.1034 -0.2196 -1.4692
  118SOL     OW  352   1.102   1.131   1.093  0.0516  0.4785 -0.6181
  118SOL    HW1  353   1.083   1.044   1.138 -0.4999  0.5475  1.3889
  118SOL    HW2  354   1.121   1.208   1.166  1.1102 -1.3230  0.3699
  119SOL     OW  355   1.840   1.610   2.125  0.0425  0.0112  0.1980
  119SOL    HW1  356   1.812   1.697   2.162  2.6850 -0.3889 -2.9369
  119SOL    HW2  357   1.947   1.613   2.120  0.3189  2.3086  0.6426
  120SOL     OW  358   2.963   2.830   0.297  0.2277  0.1589 -0.2475
  120SOL    HW1  359   3.002   2.806   0.204 -2.5375  2.1581  2.0504
  120SOL    HW2  360   2.893   2.758   0.327 -2.9807  0.4561 -0.0616
  121SOL     OW  361   1.971   0.735   2.253 -0.2797  0.5550  0.6397
  121SOL    HW1  362   2.014   0.783   2.168  2.3346  0.2533  1.2915
  121SOL    HW2  363   1.966   0.634   2.246 -2.3320  0.4461 -1.3906
  122SOL     OW  364   2.702   2.652   1.269 -0.2493  0.0825 -0.5714
  122SOL    HW1  365   2.711   2.601   1.180  0.4350 -1.0568  1.0046
  122SOL    HW2  366   2.655   2.589   1.343  0.0908  2.2185 -0.4268
  123SOL     OW  367   1.732   0.076   1.715 -0.2483 -0.1943 -0.0853
  123SOL    HW1  368   1.759  -0.001   1.648 -0.3087  2.8625  0.5066
  123SOL    HW2  369   1.817   0.121   1.752 -0.9011 -0.8825 -2.6944
  124SOL     OW  370   0.115   0.473   1.074 -0.0486 -0.2750 -0.0939
  124SOL    HW1  371   0.088   0.553   1.124  1.4999 -5.5583  1.0308
  124SOL    HW2  372   0.086   0.473   0.976  0.3125 -0.3792 -0.5845
  125SOL     OW  373   0.879   1.722   0.636  0.0632 -0.7857  0.3800
  125SOL    HW1  374   0.979   1.733   0.629 -1.1676 -1.3588  1.0511
  125SOL    HW2  375   0.848   1.678   0.725 -1.0996 -3.4457 -0.5497
  126SOL     OW  376   1.910   2.363   2.418 -0.2519 -0.3861 -0.2540
  126SOL    HW1  377   1.963   2.313   2.345 -0.5296 -0.9769  2.0929
  126SOL    HW2  378   1.828   2.307   2.446  0.2389  0.1663  0.6151
  127SOL     OW  379   0.786   0.934   0.264  0.2583 -0.5523  0.2537
  127SOL    HW1  380   0.873   0.977   0.300 -1.5324 -1.0201  1.5101
  127SOL    HW2  381   0.802   0.831   0.265  2.6722  1.8758  1.6512
  128SOL     OW  382   0.956   0.198   1.374 -0.3456  0.3167 -0.7552
  128SOL    HW1  383   0.933   0.291   1.328  0.7019  1.3610 -0.4897
  128SOL    HW2  384   0.877   0.129   1.359 -2.7098 -1.8568 -1.3256
  129SOL     OW  385   1.869   0.666   1.873 -0.1796 -0.1556  0.1987
  129SOL    HW1  386   1.895   0.700   1.771  0.9430  2.6177 -2.3407
  129SOL    HW2  387   1.890   0.746   1.933 -0.2132 -2.1753 -1.1386
  130SOL     OW  388   1.317   2.205   0.995  0.3167  0.4593 -0.2921
  130SOL    HW1  389   1.311   2.132   0.923  1.2226 -2.0234  0.2481
  130SOL    HW2  390   1.375   2.291   0.965  2.5933  1.8269  0.6115
  131SOL     OW  391   0.031   1.520   1.403 -0.0894  0.1369  0.2539
  131SOL    HW1  392  -0.016   1.427   1.387 -0.7327  0.2489 -1.1350
  131SOL    HW2  393   0.133   1.524   1.390  0.1002 -1.4941 -1.9338
  132SOL     OW  394   1.993   2.391   0.524  0.3340 -0.1205 -0.4099
  132SOL    HW1  395   1.889   2.381   0.532 -0.2325 -0.3971 -3.8578
  132SOL    HW2  396   2.053   2.342   0.589  2.0394  1.2106  1.2851
  133SOL     OW  397   1.889   2.278   2.871  0.2593 -0.0612 -0.1036
  133SOL    HW1  398   1.876   2.330   2.961 -1.3716  3.1566  1.4635
  133SOL    HW2  399   1.889   2.339   2.785  2.0655 -0.9685  0.0256
  134SOL     OW  400   2.719   2.343   1.637 -0.5024  0.0013  0.4009
  134SOL    HW1  401   2.676   2.326   1.731 -0.8324 -1.3246  1.1772
  134SOL    HW2  402   2.779   2.427   1.622 -0.2726  0.3727 -1.7665
  135SOL     OW  403   0.721   1.558   2.600  0.3103  0.0088  0.6166
  135SOL    HW1  404   0.684   1.463   2.625  0.7760 -0.1307 -1.7665
  135SOL    HW2  405   0.797   1.552   2.542 -6.1782 -0.9281  4.0509
  136SOL     OW  406   1.216   2.045   0.430  0.0268 -0.3252 -0.1724
  136SOL    HW1  407   1.162   2.101   0.499  3.0039  2.6988 -0.8818
  136SOL    HW2  408   1.170   1.957   0.410  1.4244  0.2670  2.4350
  137SOL     OW  409   0.422   1.117   2.116 -0.1164  0.4156 -0.2167
  137SOL    HW1  410   0.332   1.075   2.136 -1.5290 -0.5131  1.0278
  137SOL    HW2  411   0.501   1.074   2.169 -0.2143  1.7395 -0.2650
  138SOL     OW  412   2.438   1.507   0.203  0.1994  0.1891  0.1463
  138SOL    HW1  413   2.354   1.478   0.153  1.5827  1.5062 -0.7293
  138SOL    HW2  414   2.468   1.440   0.275 -2.0505  0.3945  2.2855
  139SOL     OW  415   1.819   2.650   1.237 -0.0049  0.3237  0.7648
  139SOL    HW1  416   1.721   2.631   1.207 -2.2318 -0.4819 -3.4345
  139SOL    HW2  417   1.852   2.569   1.301 -0.4085 -1.7021  1.0531
  140SOL     OW  418   3.029   2.982   2.587  0.7305  0.2157  1.0480
  140SOL    HW1  419   3.072   2.891   2.560 -1.4767  0.3804 -2.5086
  140SOL    HW2  420   3.100   3.054   2.616  0.3667  0.9483  3.3464
  141SOL     OW  421   1.212   1.695   1.608  0.2649  0.4763  0.1534
  141SOL    HW1  422   1.138   1.749   1.655  1.0723 -0.4045  0.4262
  141SOL    HW2  423   1.257   1.631   1.670 -0.8170  0.6546 -0.8911
  142SOL     OW  424   1.586   0.619   2.191 -0.4683 -0.4096 -0.6832
  142SOL    HW1  425   1.618   0.611   2.090  0.0293 -0.9407  2.3204
  142SOL    HW2  426   1.487   0.588   2.208  0.2321 -0.5922 -0.0058
  143SOL     OW  427   2.742   0.878   0.518  0.4962  0.6324  0.1004
  143SOL    HW1  428   2.742   0.929   0.429 -0.7830 -2.5940 -2.1767
  143SOL    HW2  429   2.799   0.927   0.588 -0.2738 -1.4911 -0.2641
  144SOL     OW  430   2.984   1.260   1.395 -0.4375 -0.1841  0.6753
  144SOL    HW1  431   2.949   1.222   1.486  0.4152  1.1151  1.7074
  144SOL    HW2  432   3.006   1.178   1.335 -0.6215 -0.7679  2.0434
  145SOL     OW  433   1.016   1.810   0.056  0.0627 -0.0329 -0.5152
  145SOL    HW1  434   1.008   1.884  -0.020 -2.0879  0.0049 -0.6590
  145SOL    HW2  435   0.998   1.714   0.022  0.7182 -1.1832 -0.0134
  146SOL     OW  436   2.427   0.648   1.554 -0.1143  0.2014 -0.6268
  146SOL    HW1  437   2.396   0.560   1.507  0.3681  0.6762  1.3993
  146SOL    HW2  438   2.375   0.726   1.523  1.7343  1.9725  1.6607
  147SOL     OW  439   1.086   2.468   0.579  0.2332 -0.5289 -0.0194
  147SOL    HW1  440   1.059   2.523   0.495 -1.3730 -0.6923  0.8364
  147SOL    HW2  441   1.176   2.412   0.570 -1.7699  1.0591  1.5077
  148SOL     OW  442   1.648   1.460   3.081 -0.0191 -0.6476  0.2740
  148SOL    HW1  443   1.667   1.383   3.012  1.8745 -0.7951  1.2014
  148SOL    HW2  444   1.603   1.430   3.174  1.0518  3.8096  4.3285
  149SOL     OW  445   0.701   1.444   1.923  0.7720  0.1446 -0.0772
  149SOL    HW1  446   0.612   1.426   1.969  2.1088  1.4287 -0.2388
  149SOL    HW2  447   0.742   1.365   1.877 -0.1222 -1.2017 -0.4331
  150SOL     OW  448   2.996   1.239   0.925  0.1943 -0.2136 -0.2093
  150SOL    HW1  449   3.078   1.244   0.990  1.4008  2.3195  0.6478
  150SOL    HW2  450   2.935   1.158   0.948  1.6873 -0.7024 -0.7414
  151SOL     OW  451   0.172   0.777   2.106  0.0824  0.0121 -0.2599
  151SOL    HW1  452   0.158   0.834   2.015 -1.8402 -1.0592  2.2229
  151SOL    HW2  453   0.261   0.719   2.104 -1.1450 -0.7259  0.9028
  152SOL     OW  454   1.363   1.713   1.265  0.1458 -0.2600  0.3922
  152SOL    HW1  455   1.386   1.781   1.343 -0.0475  1.3700 -0.1029
  152SOL    HW2  456   1.261   1.712   1.252  2.8282  0.6499 -0.2621
  153SOL     OW  457   0.023   1.525   0.149  0.2981 -0.6352  0.4404
  153SOL    HW1  458   0.022   1.418   0.163  1.2488 -3.4024  0.4817
  153SOL    HW2  459   0.039   1.580   0.237 -1.9214  0.7570  0.5355
  154SOL     OW  460   2.360   1.857   2.826  0.0418  0.1184  0.0600
  154SOL    HW1  461   2.374   1.758   2.841  0.2583  1.3577  1.1984
  154SOL    HW2  462   2.447   1.902   2.802 -0.3060  0.9561  1.9962
  155SOL     OW  463   2.477   1.259   0.371 -0.0334 -0.6094 -0.2011
  155SOL    HW1  464   2.576   1.238   0.333  0.0373  0.9330  0.1784
  155SOL    HW2  465   2.414   1.175   0.370 -0.1757 -0.1829 -0.1686
  156SOL     OW  466   2.575   0.935   0.880  0.5284  0.2979  0.4747
  156SOL    HW1  467   2.477   0.960   0.863 -0.8209 -1.5771 -0.5695
  156SOL    HW2  468   2.629   1.025   0.893  1.0748 -0.3878  1.9810
  157SOL     OW  469   1.195   2.984   2.967  0.1927 -0.0503  0.2061
  157SOL    HW1  470   1.261   2.936   2.905  0.9392  3.4758  0.0614
  157SOL    HW2  471   1.228   3.080   2.981  0.2022 -2.8933  2.2399
  158SOL     OW  472   1.012   1.863   1.968 -0.7053  0.7126  0.3933
  158SOL    HW1  473   1.064   1.952   1.948  0.5400  1.0738 -2.3559
  158SOL    HW2  474   0.927   1.886   2.022 -0.1798 -1.1879 -0.6299
  159SOL     OW  475   0.851   0.439   1.306 -0.8121  0.0427 -0.4594
  159SOL    HW1  476   0.829   0.532   1.348 -0.3069  0.3206  0.3363
  159SOL    HW2  477   0.771   0.408   1.250 -0.3834 -2.5859  0.6594
  160SOL     OW  478   1.452   2.477   1.645 -0.4627 -0.6273  0.5695
  160SOL    HW1  479   1.461   2.581   1.628  0.3301 -1.8176 -1.5021
  160SOL    HW2  480   1.511   2.418   1.581 -2.1981  0.8937  0.6197
  161SOL     OW  481   0.178   2.893   0.310 -0.3600  0.2765 -0.2625
  161SOL    HW1  482   0.096   2.859   0.363 -0.4175 -4.2976  1.2454
  161SOL    HW2  483   0.164   2.973   0.238  2.7459 -3.1153 -0.4536
  162SOL     OW  484   2.585   1.889   0.464  0.0412 -0.4496 -0.1445
  162SOL    HW1  485   2.585   1.843   0.371  0.7013  2.8183 -1.6672
  162SOL    HW2  486   2.554   1.832   0.547 -3.4405 -1.0124  3.2314
  163SOL     OW  487   1.969   2.666   0.719  0.5809 -0.2165  0.4888
  163SOL    HW1  488   1.926   2.679   0.625 -0.5440 -1.5173  1.7044
  163SOL    HW2  489   2.052   2.603   0.719  0.2423  0.7876  1.1600
  164SOL     OW  490   3.041   0.275   1.276 -0.1394 -0.4314 -0.1406
  164SOL    HW1  491   3.108   0.332   1.225 -2.2955 -1.0215 -0.5422
  164SOL    HW2  492   3.085   0.201   1.330 -0.4901  1.7086 -1.4081
  165SOL     OW  493   0.973   1.420   0.670 -0.0807 -0.0189 -0.0935
  165SOL    HW1  494   0.902   1.417   0.748 -0.6361 -1.0620  1.7072
  165SOL    HW2  495   0.935   1.459   0.581 -1.1711 -0.0190 -3.1057
  166SOL     OW  496   1.489   1.065   1.735  0.3585  0.3354 -0.3049
  166SOL    HW1  497   1.415   1.030   1.800  1.1047  0.7427 -2.9900
  166SOL    HW2  498   1.569   1.110   1.778 -2.5611  1.3759 -1.7978
  167SOL     OW  499   0.820   1.922   1.537 -0.4727 -0.0413 -0.3103
  167SOL    HW1  500   0.786   1.981   1.615 -0.5988  2.3627 -3.0237
  167SOL    HW2  501   0.752   1.851   1.502 -1.6399 -1.1795 -0.9175
  168SOL     OW  502   1.615   2.385   0.159 -0.3519  0.2793 -0.1515
  168SOL    HW1  503   1.681   2.391   0.081  0.3389 -0.3402 -1.0795
  168SOL    HW2  504   1.650   2.314   0.230  0.9975 -1.4874  0.8381
  169SOL     OW  505   0.234   2.618   2.213 -0.1184  0.3415  0.3155
  169SOL    HW1  506   0.254   2.555   2.137 -1.0534  2.9625 -0.3883
  169SOL    HW2  507   0.281   2.588   2.299 -0.3184 -0.1880 -1.8981
  170SOL     OW  508   1.232   0.310   1.932  0.0854 -0.2484  0.1821
  170SOL    HW1  509   1.280   0.273   2.018  1.7097  0.5612  1.0559
  170SOL    HW2  510   1.213   0.237   1.859  1.2756  1.3823 -0.2722
  171SOL     OW  511   0.214   0.781   2.412 -0.4837  0.7645 -0.2160
  171SOL    HW1  512   0.129   0.813   2.468  3.0724  1.9031  0.8527
  171SOL    HW2  513   0.197   0.777   2.309  1.5842 -0.4854 -0.3263
  172SOL     OW  514   0.873   1.129   2.981 -0.1486 -0.5123 -0.2022
  172SOL    HW1  515   0.959   1.182   2.994 -1.2626 -0.8898 -1.4444
  172SOL    HW2  516   0.848   1.117   2.884 -0.9209 -0.0628  2.3447
  173SOL     OW  517   0.653   2.699   0.117  0.2461  0.1997 -0.2939
  173SOL    HW1  518   0.630   2.802   0.115  0.3800 -0.6719 -1.4416
  173SOL    HW2  519   0.571   2.641   0.126 -1.2253  0.8321 -2.3875
  174SOL     OW  520   1.397   2.824   1.068  0.0004  0.1895  0.5795
  174SOL    HW1  521   1.461   2.875   1.004  1.3164 -0.8853  1.7238
  174SOL    HW2  522   1.343   2.755   1.013 -0.6663 -1.7607 -1.6508
  175SOL     OW  523   0.450   0.036   1.650 -0.2939  0.5227 -0.2218
  175SOL    HW1  524   0.516   0.081   1.714 -0.4669  1.6841 -3.3046
  175SOL    HW2  525   0.383   0.106   1.618 -0.4503 -1.8642 -1.0901
  176SOL     OW  526   2.519   0.416   3.064  0.4786 -0.4074  0.4150
  176SOL    HW1  527   2.555   0.486   3.134  1.2479  0.9244 -0.3086
  176SOL    HW2  528   2.440   0.342   3.084 -2.0685 -0.6774 -1.3839
  177SOL     OW  529   0.354   0.292   0.935 -0.1275 -0.3556 -0.1273
  177SOL    HW1  530   0.409   0.268   1.016 -0.8651 -1.1947  1.6075
  177SOL    HW2  531   0.265   0.321   0.971 -0.1323  0.3908 -0.9185
  178SOL     OW  532   0.035   2.714   2.590 -0.0821 -0.0623  0.9488
  178SOL    HW1  533  -0.026   2.645   2.633 -2.0269 -0.1170 -2.5704
  178SOL    HW2  534   0.108   2.747   2.659 -0.4587 -0.5861 -0.5564
  179SOL     OW  535   0.007   1.704   1.180  0.0961 -0.2147 -0.0332
  179SOL    HW1  536  -0.045   1.787   1.172  0.5471 -1.9282  0.2246
  179SOL    HW2  537  -0.010   1.652   1.269 -2.8641 -0.2381  3.2405
  180SOL     OW  538   0.246   1.207   1.827  0.2706  0.1968  0.6109
  180SOL    HW1  539   0.342   1.226   1.786  2.8329 -0.0030 -0.0409
  180SOL    HW2  540   0.227   1.271   1.901 -0.4313 -0.4652 -2.8597
  181SOL     OW  541   3.054   1.852   2.547  0.6906  0.4722  0.0068
  181SOL    HW1  542   3.133   1.894   2.497 -0.6461  1.3476 -2.4452
  181SOL    HW2  543   2.949   1.886   2.524 -1.5912 -2.2143  0.5845
  182SOL     OW  544   2.313   1.262   1.154 -0.0989  0.3478  0.3758
  182SOL    HW1  545   2.218   1.243   1.113 -2.2854 -0.9208 -1.4431
  182SOL    HW2  546   2.341   1.363   1.141 -2.3804  1.3458  0.5898
  183SOL     OW  547   1.480   2.270   2.495  0.2951 -0.2835 -0.1545
  183SOL    HW1  548   1.404   2.199   2.501  0.8160  0.3994 -2.2282
  183SOL    HW2  549   1.581   2.226   2.503 -0.3922 -1.3146  0.6238
  184SOL     OW  550   2.044   0.937   0.820 -0.2282 -0.3785  0.6130
  184SOL    HW1  551   1.961   0.985   0.777 -0.4109  0.1338 -1.4907
  184SOL    HW2  552   2.023   0.836   0.842  0.8219  1.0974  2.9811
  185SOL     OW  553   1.600   2.681   2.085 -0.4596  0.3888 -0.5311
  185SOL    HW1  554   1.568   2.775   2.057  0.3119 -0.9046  2.8477
  185SOL    HW2  555   1.575   2.658   2.186  0.2036 -0.0977 -0.3401
  186SOL     OW  556   0.067   2.215   1.723 -0.0839 -0.1362  0.2004
  186SOL    HW1  557   0.106   2.311   1.707 -2.6687  2.9473 -1.0026
  186SOL    HW2  558   0.131   2.138   1.713  0.6500  1.2043 -2.3496
  187SOL     OW  559   1.377   0.725   1.685  0.1909 -0.4049 -0.1219
  187SOL    HW1  560   1.423   0.779   1.605 -1.0819 -0.8548  1.0871
  187SOL    HW2  561   1.419   0.743   1.777  1.1507  3.4151 -1.4359
  188SOL     OW  562   2.803   2.806   1.503 -0.0177 -0.2235 -0.4774
  188SOL    HW1  563   2.777   2.908   1.497  1.7063  0.6685 -0.4982
  188SOL    HW2  564   2.744   2.761   1.430 -2.4624  1.6805 -1.1403
  189SOL     OW  565   0.844   1.026   1.391 -0.1393  0.3279 -0.2671
  189SOL    HW1  566   0.899   1.090   1.446 -0.5199 -0.6371  1.8631
  189SOL    HW2  567   0.814   1.057   1.295 -0.4051 -1.1558 -2.0232
  190SOL     OW  568   1.511   1.854   1.587  0.1882  0.7288 -0.3854
  190SOL    HW1  569   1.443   1.933   1.568 -0.3196  2.5988  1.0705
  190SOL    HW2  570   1.532   1.843   1.687  2.1225 -1.5067 -1.2605
  191SOL     OW  571   0.983   0.759   1.562 -0.8379 -0.3194 -0.0033
  191SOL    HW1  572   1.039   0.674   1.544 -0.0402  0.5444 -1.7622
  191SOL    HW2  573   1.044   0.845   1.557  2.0772 -1.1454  2.3458
  192SOL     OW  574   1.844   2.308   1.138  0.3461 -0.1695 -0.5771
  192SOL    HW1  575   1.741   2.308   1.118 -1.4076 -0.9953 -4.2005
  192SOL    HW2  576   1.896   2.362   1.064  0.2324 -0.1153 -0.0861
  193SOL     OW  577   0.503   0.603   0.400  0.1767  0.4924  0.0285
  193SOL    HW1  578   0.483   0.564   0.494 -1.6270 -2.3409  0.6425
  193SOL    HW2  579   0.521   0.526   0.331 -0.2194  1.9626 -0.2004
  194SOL     OW  580   0.287   0.823   1.271  0.0354  0.7200  0.4452
  194SOL    HW1  581   0.191   0.787   1.258  2.4420 -0.1138 -0.2591
  194SOL    HW2  582   0.309   0.893   1.197 -1.3388  2.0375 -0.2545
  195SOL     OW  583   0.969   2.934   0.423  0.1705  0.2699  0.0267
  195SOL    HW1  584   0.961   2.831   0.406 -0.2754 -2.0547 -1.2683
  195SOL    HW2  585   1.063   2.969   0.450  4.6681 -0.6860  2.0857
  196SOL     OW  586   0.296   1.425   1.410  0.1771 -0.8098 -0.5264
  196SOL    HW1  587   0.345   1.494   1.473 -0.7562  1.0103 -0.5712
  196SOL    HW2  588   0.254   1.341   1.463  0.4520  0.0281  1.6687
  197SOL     OW  589   0.937   2.052   0.215 -0.0139  0.0121  0.5359
  197SOL    HW1  590   0.926   2.029   0.315 -0.2697 -1.3083  0.6857
  197SOL    HW2  591   0.968   1.966   0.161 -0.1640 -0.5810 -0.8268
  198SOL     OW  592   0.253   1.248   0.286  0.3210 -0.3636  0.1330
  198SOL    HW1  593   0.151   1.249   0.248 -1.2614  0.8076  0.1469
  198SOL    HW2  594   0.311   1.329   0.256  2.3362  2.1327  1.3617
  199SOL     OW  595   2.245   0.384   2.525 -0.4045  0.2069  0.2976
  199SOL    HW1  596   2.176   0.326   2.581 -3.0200 -1.6836  1.4152
  199SOL    HW2  597   2.339   0.364   2.557 -2.7779 -1.0778 -0.9974
  200SOL     OW  598   0.008   2.981   0.706 -0.2290 -0.2209 -0.6004
  200SOL    HW1  599  -0.081   2.969   0.658  1.8766 -1.6681 -1.9701
  200SOL    HW2  600   0.032   3.078   0.733  2.9811 -0.7281  1.3020
  201SOL     OW  601   1.119   0.746   0.638 -0.4787 -0.2522  0.2955
  201SOL    HW1  602   1.134   0.823   0.706 -2.2036 -1.3168 -1.1257
  201SOL    HW2  603   1.031   0.752   0.589  0.9279  0.6226  1.0605
  202SOL     OW  604   0.496   1.253   1.739 -0.2739 -0.2459  0.6313
  202SOL    HW1  605   0.538   1.264   1.641 -0.6943  0.6279  1.0286
  202SOL    HW2  606   0.515   1.161   1.771  2.7406  2.2982 -4.0304
  203SOL     OW  607   0.711   0.194   1.611  0.4599  0.3068  0.0205
  203SOL    HW1  608   0.716   0.120   1.538  3.2944  1.8063  2.9082
  203SOL    HW2  609   0.774   0.183   1.692  2.2522 -0.2613 -1.6137
  204SOL     OW  610   2.095   1.847   3.017  0.1820 -0.6531 -0.7478
  204SOL    HW1  611   2.116   1.748   2.994 -1.8067 -0.7955  2.8493
  204SOL    HW2  612   2.045   1.898   2.941 -0.8299  5.0943  2.7484
  205SOL     OW  613   1.841   1.866   0.037  0.0684 -0.0746 -0.5237
  205SOL    HW1  614   1.942   1.833   0.020  0.5888  1.0826  1.9278
  205SOL    HW2  615   1.824   1.960   0.004 -0.9010 -1.5121 -0.8497
  206SOL     OW  616   2.552   2.799   0.366  0.3551 -0.5815 -0.6618
  206SOL    HW1  617   2.626   2.728   0.376  0.4586  1.0787 -1.6865
  206SOL    HW2  618   2.580   2.874   0.299 -0.7586 -3.8275  0.9204
  207SOL     OW  619   0.605   1.777   2.906 -0.2254 -0.3004  0.5517
  207SOL    HW1  620   0.694   1.747   2.867 -1.1496  3.0851  0.9272
  207SOL    HW2  621   0.548   1.704   2.946 -1.2413  0.5365 -2.4422
  208SOL     OW  622   1.057   1.541   1.450  0.3035 -0.0143 -0.3602
  208SOL    HW1  623   0.993   1.589   1.377  2.7213 -0.1868 -1.3164
  208SOL    HW2  624   1.134   1.607   1.483  0.7394  0.2143 -1.3931
  209SOL     OW  625   0.307   0.943   2.995 -0.2407 -0.4249  0.0034
  209SOL    HW1  626   0.323   0.880   2.913  0.0020 -0.8016  0.0762
  209SOL    HW2  627   0.263   0.897   3.079  0.7667 -0.5753  1.9573
  210SOL     OW  628   1.719   0.469   1.184 -0.1869 -0.0768 -0.0318
  210SOL    HW1  629   1.678   0.563   1.160 -1.5093 -1.6018  0.4292
  210SOL    HW2  630   1.822   0.465   1.163  1.9472  0.7497  1.8365
  211SOL     OW  631   2.124   1.057   1.615 -0.1931  0.5050 -0.3044
  211SOL    HW1  632   2.183   0.992   1.676 -2.2058  1.1254  2.8921
  211SOL    HW2  633   2.180   1.130   1.577 -2.1573 -0.2037  0.2813
  212SOL     OW  634   0.008   0.977   1.493  0.0245  0.9687 -0.1890
  212SOL    HW1  635   0.059   1.063   1.514 -0.8188 -2.0698  2.4876
  212SOL    HW2  636   0.054   0.897   1.540  2.0655  0.6032 -3.2738
  213SOL     OW  637   2.712   0.351   0.271  0.8256  0.2206 -0.1504
  213SOL    HW1  638   2.775   0.289   0.221  1.5073  0.8172 -0.5915
  213SOL    HW2  639   2.670   0.421   0.220  0.9539  0.1692  0.7184
  214SOL     OW  640   2.173   0.268   2.266  0.1272  0.4424  0.5826
  214SOL    HW1  641   2.225   0.296   2.350  0.7931 -2.9165 -0.7333
  214SOL    HW2  642   2.145   0.168   2.277  0.0938  0.3419  1.2194
  215SOL     OW  643   1.657   2.280   2.007  0.3585  0.9344  0.3841
  215SOL    HW1  644   1.754   2.302   2.036  0.1474 -0.4886  1.4337
  215SOL    HW2  645   1.591   2.333   2.068  3.7627  0.3223 -1.7490
  216SOL     OW  646   2.202   0.554   0.671  0.1132  0.1585  0.7384
  216SOL    HW1  647   2.222   0.460   0.634 -0.1977 -0.2007  0.2012
  216SOL    HW2  648   2.248   0.632   0.616 -2.4707  0.1183  2.7835
  217SOL     OW  649   0.744   2.781   2.429 -0.0884  0.0157  0.0891
  217SOL    HW1  650   0.740   2.700   2.487  1.4904  0.6885 -1.6891
  217SOL    HW2  651   0.718   2.758   2.336 -3.6431 -0.8793  1.9690
  218SOL     OW  652   1.896   1.389   0.067  0.1072  0.3647 -0.3937
  218SOL    HW1  653   1.804   1.412   0.019 -2.2363 -0.8185  2.3767
  218SOL    HW2  654   1.884   1.312   0.137 -2.1014 -2.0736  0.7122
  219SOL     OW  655   2.355   1.260   2.518 -0.2540  0.0877  0.0309
  219SOL    HW1  656   2.373   1.231   2.418 -1.6984  0.3025  1.9416
  219SOL    HW2  657   2.392   1.191   2.582  2.0614  1.3344 -0.8900
  220SOL     OW  658   1.518   1.031   1.233  0.4808 -0.1125 -0.4723
  220SOL    HW1  659   1.614   1.056   1.272  2.1202  1.9052  0.5799
  220SOL    HW2  660   1.494   1.057   1.135 -2.2779 -1.4195 -2.6029
  221SOL     OW  661   1.352   1.122   2.222 -0.1583 -0.5324  0.3337
  221SOL    HW1  662   1.319   1.179   2.141 -1.3925  0.3507 -0.0132
  221SOL    HW2  663   1.444   1.073   2.208  1.5198  0.2691 -0.1871
  222SOL     OW  664   1.228   0.042   1.218  0.2699 -0.2532  0.3346
  222SOL    HW1  665   1.266   0.009   1.312 -1.2199 -0.2169  2.1092
  222SOL    HW2  666   1.269   0.134   1.196  1.2337  0.4217 -0.7209
  223SOL     OW  667   2.912   0.853   2.022 -0.9736  0.2340  0.0123
  223SOL    HW1  668   2.978   0.866   2.101  0.4045 -1.7252 -0.1727
  223SOL    HW2  669   2.913   0.921   1.943 -1.2809  1.7425  2.2757
  224SOL     OW  670   1.486   0.951   2.791 -0.0223  0.2334 -0.5691
  224SOL    HW1  671   1.537   0.883   2.723  0.0239 -1.6375 -2.0713
  224SOL    HW2  672   1.467   1.047   2.749  0.7878 -1.8129  0.4691
  225SOL     OW  673   2.982   2.756   2.880  0.0742 -0.4098 -0.3228
  225SOL    HW1  674   2.990   2.673   2.815  0.0375  1.0462  1.3683
  225SOL    HW2  675   3.045   2.837   2.853 -1.7115  1.2217 -1.1918
  226SOL     OW  676   2.444   1.579   2.865 -0.2577  0.1628 -0.9826
  226SOL    HW1  677   2.464   1.559   2.768  1.2705 -2.7029  0.7476
  226SOL    HW2  678   2.414   1.496   2.919 -1.0599  2.1100 -1.4686
  227SOL     OW  679   0.900   0.116   3.020  0.0071  0.3646  0.0519
  227SOL    HW1  680   0.908   0.039   3.092  0.3178 -1.5498 -1.6173
  227SOL    HW2  681   0.891   0.075   2.920  2.8738 -1.3335  0.6538
  228SOL     OW  682   2.383   0.628   2.831  0.2634  0.3509 -0.4327
  228SOL    HW1  683   2.321   0.621   2.748 -0.7538  1.0721  0.3301
  228SOL    HW2  684   2.485   0.606   2.812 -0.7405 -0.8877  0.4098
  229SOL     OW  685   0.544   0.518   1.863  0.0997  0.2445 -0.0359
  229SOL    HW1  686   0.563   0.485   1.769 -1.2712 -0.3158  1.1218
  229SOL    HW2  687   0.590   0.602   1.899 -1.7372 -3.0692  3.7981
  230SOL     OW  688   1.900   1.240   2.158  0.7814 -0.4330 -0.3903
  230SOL    HW1  689   1.969   1.269   2.087 -0.3921  0.2515  2.4221
  230SOL    HW2  690   1.807   1.290   2.134 -0.1733  0.1841  0.0261
  231SOL     OW  691   0.631   0.994   3.006 -0.1848 -0.3893 -0.2560
  231SOL    HW1  692   0.721   1.048   2.996  1.2063 -2.1019  1.3547
  231SOL    HW2  693   0.610   0.975   3.104  3.5997 -1.2164 -0.0099
  232SOL     OW  694   2.465   3.093   2.759  0.1417 -0.2707  0.1287
  232SOL    HW1  695   2.508   3.018   2.815 -0.4993 -2.7706 -3.0833
  232SOL    HW2  696   2.512   3.111   2.671 -2.6414 -1.6645  0.1267
  233SOL     OW  697   1.699   1.267   1.086 -0.2143  1.0947  0.2689
  233SOL    HW1  698   1.670   1.318   1.004 -1.2600 -1.9934  2.0885
  233SOL    HW2  699   1.750   1.176   1.067  1.8520  0.8327  0.7060
  234SOL     OW  700   1.672   2.557   1.837 -0.9105 -0.6565  0.5071
  234SOL    HW1  701   1.635   2.588   1.929  0.2445 -0.2131  2.0080
  234SOL    HW2  702   1.612   2.486   1.793  0.0806 -0.0300 -0.4151
  235SOL     OW  703   0.072   2.997   2.898 -1.0129  0.4263  0.1821
  235SOL    HW1  704   0.126   3.071   2.850  0.1460  1.4464 -3.0890
  235SOL    HW2  705  -0.013   3.022   2.951 -1.4790 -0.4723 -0.3859
  236SOL     OW  706   2.876   0.698   0.107 -0.2836  0.5829  0.0546
  236SOL    HW1  707   2.968   0.742   0.142  2.9807  0.5876 -1.5213
  236SOL    HW2  708   2.890   0.618   0.035 -2.0802  0.1317 -0.2509
  237SOL     OW  709   1.489   1.629   1.012  0.5571 -0.0003  0.5878
  237SOL    HW1  710   1.592   1.612   1.002 -0.7190 -1.5099 -2.1585
  237SOL    HW2  711   1.459   1.701   1.076  1.3990  1.7220  0.5364
  238SOL     OW  712   1.748   1.305   0.789 -0.3085 -0.3944 -0.2314
  238SOL    HW1  713   1.834   1.323   0.735 -1.3054  1.1457  1.1539
  238SOL    HW2  714   1.670   1.362   0.759  1.5018 -0.8380 -1.9427
  239SOL     OW  715   2.062   0.267   2.683 -0.4942  0.6481 -0.6665
  239SOL    HW1  716   2.117   0.274   2.768 -0.1852  0.8852 -3.6066
  239SOL    HW2  717   1.974   0.316   2.693  1.7378 -0.1890 -0.5145
  240SOL     OW  718   0.890   0.694   0.252  0.3559 -0.2502 -0.1511
  240SOL    HW1  719   0.897   0.596   0.222  2.7293  1.1134  0.7359
  240SOL    HW2  720   0.884   0.683   0.362  0.4116 -0.0526  2.7893
  241SOL     OW  721   0.584   0.088   0.316 -0.0328  0.4293  0.7560
  241SOL    HW1  722   0.609   0.086   0.211  1.1064  3.0194 -0.8571
  241SOL    HW2  723   0.538   0.008   0.356  2.1682 -0.3743 -3.5142
  242SOL     OW  724   0.655   2.455   1.162 -0.4255  0.5716 -0.0234
  242SOL    HW1  725   0.623   2.545   1.210 -2.6945 -0.8863 -1.1249
  242SOL    HW2  726   0.743   2.467   1.106  2.0595  0.0650 -0.8760
  243SOL     OW  727   1.114   0.646   2.439  0.1725 -0.3018  0.1138
  243SOL    HW1  728   1.059   0.733   2.406  1.7406 -2.4392  1.2509
  243SOL    HW2  729   1.049   0.566   2.459  0.5287  1.5352  0.0817
  244SOL     OW  730   2.802   1.866   2.423 -0.3413 -0.1655 -0.9488
  244SOL    HW1  731   2.866   1.853   2.346  0.0232 -2.6633 -0.7091
  244SOL    HW2  732   2.715   1.816   2.401  2.0206 -0.8733 -0.0179
  245SOL     OW  733   2.479   0.726   2.146  0.0773 -0.3882 -0.3026
  245SOL    HW1  734   2.497   0.808   2.206  2.1243 -1.4290 -1.2099
  245SOL    HW2  735   2.507   0.632   2.186 -0.0741 -3.9069  1.5991
  246SOL     OW  736   0.304   2.909   1.675  0.4700 -0.3777  0.2678
  246SOL    HW1  737   0.241   2.916   1.589 -2.7657  1.5429  0.0562
  246SOL    HW2  738   0.375   2.984   1.681 -1.0849  0.2566  1.0848
  247SOL     OW  739   2.187   0.589   3.037  0.3979  0.3285  0.1786
  247SOL    HW1  740   2.265   0.573   2.968 -1.8130  2.1292 -0.7746
  247SOL    HW2  741   2.148   0.685   3.036 -0.1477  2.6366 -0.1647
  248SOL     OW  742   2.175   1.873   1.614 -0.7126 -0.2790  0.1053
  248SOL    HW1  743   2.208   1.777   1.642  1.4373 -0.8356  0.2310
  248SOL    HW2  744   2.107   1.907   1.683 -1.2458 -0.1156 -0.9076
  249SOL     OW  745   1.929   2.007   1.955 -0.0304 -0.2014  0.0123
  249SOL    HW1  746   1.917   1.955   1.865 -1.3794  1.1100 -1.3587
  249SOL    HW2  747   2.023   2.054   1.966  2.5354  1.2307 -0.9742
  250SOL     OW  748   1.044   0.712   1.871  0.7696  1.0590  0.3064
  250SOL    HW1  749   1.094   0.637   1.921  0.0105  0.3793 -0.1409
  250SOL    HW2  750   1.032   0.680   1.774 -0.9344 -0.9120  1.1525
  251SOL     OW  751   3.070   1.585   2.550 -0.0969 -0.3164 -0.3075
  251SOL    HW1  752   3.054   1.686   2.526  1.2317  1.0128  1.8184
  251SOL    HW2  753   2.982   1.535   2.576 -2.2546  3.0406 -0.2002
  252SOL     OW  754   1.507   0.902   1.523  0.0576 -0.1729 -0.1112
  252SOL    HW1  755   1.528   0.943   1.428  2.0109  2.4414  1.3480
  252SOL    HW2  756   1.537   0.964   1.601 -0.2104  2.7542  0.6466
  253SOL     OW  757   0.939   1.576   0.372 -0.1814 -0.2379  0.5410
  253SOL    HW1  758   0.961   1.485   0.332 -0.5083  1.3039  1.9766
  253SOL    HW2  759   0.833   1.595   0.381  1.7690 -2.1068 -3.6136
  254SOL     OW  760   2.044   2.181   1.600  0.6343 -0.1036  0.1739
  254SOL    HW1  761   1.960   2.138   1.550  1.1086 -2.0323 -0.5350
  254SOL    HW2  762   2.047   2.180   1.703 -0.0657  1.4365 -1.0404
  255SOL     OW  763   0.137   1.151   2.924 -0.0072  0.5668 -0.0719
  255SOL    HW1  764   0.168   1.239   2.889 -0.2853 -3.0148  0.6440
  255SOL    HW2  765   0.217   1.092   2.950  0.6964 -3.1066  0.2427
  256SOL     OW  766   2.828   1.367   1.857 -0.1508 -0.2917  0.1056
  256SOL    HW1  767   2.765   1.448   1.846 -0.4382  0.2649 -0.5672
  256SOL    HW2  768   2.779   1.281   1.895 -0.6290 -0.0628 -1.1995
  257SOL     OW  769   0.902   0.175   1.889 -0.0202 -0.4926 -0.6745
  257SOL    HW1  770   0.957   0.235   1.822 -0.6980 -3.2819 -1.1471
  257SOL    HW2  771   0.898   0.078   1.856 -2.1234  1.7265 -0.1387
  258SOL     OW  772   2.973   1.278   0.426  0.6633  0.1059  0.0161
  258SOL    HW1  773   2.919   1.366   0.442 -1.2314  0.3963  3.3324
  258SOL    HW2  774   3.026   1.258   0.512 -0.9624  0.1779 -3.7947
  259SOL     OW  775   0.446   2.914   2.981 -0.0774  0.2708 -0.0933
  259SOL    HW1  776   0.403   2.872   3.069 -2.0948 -1.0735  2.1511
  259SOL    HW2  777   0.476   2.837   2.916  3.4376 -0.4333  3.4829
  260SOL     OW  778   2.706   0.859   2.753  0.2941  0.8931 -0.3509
  260SOL    HW1  779   2.618   0.872   2.698  1.4057 -0.3455 -2.3606
  260SOL    HW2  780   2.690   0.817   2.846  0.9877  0.7503 -0.1391
  261SOL     OW  781   2.731   1.356   1.317  0.1042  0.1914 -0.1963
  261SOL    HW1  782   2.675   1.298   1.256  1.6668 -0.7020 -0.5872
  261SOL    HW2  783   2.824   1.317   1.338 -1.4493  2.4278  3.6592
  262SOL     OW  784   1.466   2.903   1.987 -0.7025  0.0744 -0.7948
  262SOL    HW1  785   1.475   3.003   1.952 -0.9591  0.5916 -1.8928
  262SOL    HW2  786   1.367   2.880   2.005 -0.9362  3.1717 -0.4089
  263SOL     OW  787   0.847   0.781   2.303  0.1301 -0.1333 -0.3465
  263SOL    HW1  788   0.851   0.678   2.285  1.4587 -0.2356  2.5191
  263SOL    HW2  789   0.881   0.842   2.223  0.3272 -0.5143  0.0758
  264SOL     OW  790   2.255   0.700   0.453 -0.2397 -0.0690 -1.0419
  264SOL    HW1  791   2.164   0.670   0.487 -0.0376 -2.2657 -0.9205
  264SOL    HW2  792   2.277   0.796   0.459  1.5137  0.9627  0.0501
  265SOL     OW  793   0.900   2.269   2.672  0.0158  0.1861  0.0415
  265SOL    HW1  794   0.941   2.339   2.740  0.7100 -0.5131  0.5503
  265SOL    HW2  795   0.836   2.208   2.721  2.3785 -3.8806  1.6685
  266SOL     OW  796   1.339   1.709   0.052  0.0600  0.1419 -0.4574
  266SOL    HW1  797   1.326   1.797   0.110 -2.0388  0.1868  2.7986
  266SOL    HW2  798   1.438   1.700   0.012  1.0242 -0.6275 -2.9651
  267SOL     OW  799   1.042   3.059   2.389 -0.3329 -0.0183  0.5453
  267SOL    HW1  800   1.021   2.994   2.311 -1.3150  3.0664 -0.0627
  267SOL    HW2  801   1.074   3.154   2.355  2.2337 -0.5353  1.0388
  268SOL     OW  802   0.676   1.158   1.032 -0.0249  0.0577  0.8845
  268SOL    HW1  803   0.699   1.208   1.118 -2.1238 -1.3033 -1.5086
  268SOL    HW2  804   0.667   1.223   0.952  2.9380  1.0300 -0.2365
  269SOL     OW  805   2.442   2.435   1.595  0.2286 -0.6394 -0.6954
  269SOL    HW1  806   2.539   2.395   1.605  2.7685  0.4766  0.4750
  269SOL    HW2  807   2.396   2.442   1.689 -0.8959  0.7194  1.4464
  270SOL     OW  808   0.170   3.014   1.937 -0.1285  0.7169 -0.2090
  270SOL    HW1  809   0.231   2.998   1.855 -2.8391  0.0498 -2.6520
  270SOL    HW2  810   0.092   2.944   1.945 -3.9634  4.2819  1.6901
  271SOL     OW  811   0.445   1.418   1.190 -0.5289  0.5277  0.2269
  271SOL    HW1  812   0.384   1.394   1.108  0.1144 -1.8365 -1.9151
  271SOL    HW2  813   0.383   1.423   1.274  0.2763 -0.3100 -1.0394
  272SOL     OW  814   1.917   2.917   1.918  0.7100 -0.0929  0.5699
  272SOL    HW1  815   1.865   2.860   1.851  0.3212  0.2547  1.7358
  272SOL    HW2  816   1.974   2.992   1.877  0.9523  4.4483 -0.7801
  273SOL     OW  817   1.403   1.416   2.826 -0.3907  0.3239  0.3653
  273SOL    HW1  818   1.323   1.438   2.765  1.8298 -1.0077  2.1673
  273SOL    HW2  819   1.385   1.461   2.917 -1.0421 -0.2044 -1.5844
  274SOL     OW  820   1.145   0.535   2.045 -0.1555  0.8769  0.4818
  274SOL    HW1  821   1.168   0.453   1.981  1.8916 -1.7600 -1.7044
  274SOL    HW2  822   1.228   0.555   2.106 -1.5263 -0.2619 -0.7434
  275SOL     OW  823   0.622   2.081   1.962  0.1539 -0.3094 -0.4537
  275SOL    HW1  824   0.588   2.180   1.972 -1.8146  1.0497  2.8974
  275SOL    HW2  825   0.546   2.014   1.953  0.7060  0.8909  2.4906
  276SOL     OW  826   2.170   0.924   2.743 -0.0871 -0.6186 -0.3370
  276SOL    HW1  827   2.100   0.910   2.666  1.0686 -0.3909 -1.6012
  276SOL    HW2  828   2.139   0.904   2.835 -0.3206  0.1384 -0.0045
  277SOL     OW  829   3.057   0.866   0.209  0.1330 -0.0477  0.3402
  277SOL    HW1  830   3.138   0.917   0.170  0.1480 -0.5393 -0.3598
  277SOL    HW2  831   3.086   0.810   0.288 -0.2322  4.2457  1.0975
  278SOL     OW  832   0.205   0.292   2.968  0.4063  0.2787  0.4834
  278SOL    HW1  833   0.265   0.222   3.024  0.5419 -2.0735 -0.2237
  278SOL    HW2  834   0.238   0.392   2.976  1.3209  4.8893 -1.3610
  279SOL     OW  835   0.161   0.060   0.861 -0.2338  0.5610 -0.0941
  279SOL    HW1  836   0.205   0.065   0.956  2.5517 -0.9863 -0.2085
  279SOL    HW2  837   0.227   0.025   0.790  0.1243  0.1124  1.5886
  280SOL     OW  838   1.625   2.914   2.561  0.6750 -0.5807 -0.0899
  280SOL    HW1  839   1.705   2.978   2.573  0.7227 -2.1707  1.5343
  280SOL    HW2  840   1.543   2.952   2.505  0.8529 -4.0181 -1.3494
  281SOL     OW  841   0.563   0.987   2.290 -0.0284 -0.0678 -0.5409
  281SOL    HW1  842   0.574   0.892   2.252  0.9031  2.3014  1.3860
  281SOL    HW2  843   0.536   0.990   2.391  1.1400  0.6694 -1.3739
  282SOL     OW  844   1.716   2.397   0.509 -0.9767 -0.3366 -0.3014
  282SOL    HW1  845   1.693   2.336   0.429 -1.9230 -2.7589  2.1892
  282SOL    HW2  846   1.664   2.487   0.499  3.3143 -1.1802  1.1291
  283SOL     OW  847   1.190   0.957   0.812  0.1853 -0.2920  0.5961
  283SOL    HW1  848   1.207   0.903   0.904 -1.0363 -3.3232 -0.2284
  283SOL    HW2  849   1.138   1.046   0.829 -0.6931  2.3802  3.2089
  284SOL     OW  850   2.378   2.790   2.321  0.4856 -0.1381 -0.5580
  284SOL    HW1  851   2.456   2.854   2.295 -1.7961  0.4947 -0.9523
  284SOL    HW2  852   2.340   2.818   2.411 -2.8487  2.6126  0.2547
  285SOL     OW  853   1.329   2.964   2.534 -0.0189 -0.0804 -0.6456
  285SOL    HW1  854   1.360   2.979   2.435 -0.2582  0.2820  2.1613
  285SOL    HW2  855   1.263   3.039   2.571 -1.8297  1.4682 -1.9332
  286SOL     OW  856   0.459   0.413   0.703 -0.2492 -0.2125 -0.0056
  286SOL    HW1  857   0.440   0.354   0.785 -0.6282 -1.6359 -0.6751
  286SOL    HW2  858   0.464   0.359   0.614  1.3303 -0.1937 -1.2819
  287SOL     OW  859   0.128   1.301   2.545  0.0591 -0.3239 -0.3049
  287SOL    HW1  860   0.077   1.224   2.593  4.0471 -0.5170  1.6224
  287SOL    HW2  861   0.106   1.392   2.582  1.0514  0.7949  2.1848
  288SOL     OW  862   1.570   2.687   1.518 -1.1158 -0.1553  0.4941
  288SOL    HW1  863   1.665   2.666   1.548  4.3597  3.5791 -0.0193
  288SOL    HW2  864   1.560   2.736   1.429  0.7151 -3.5659  0.6340
  289SOL     OW  865   0.680   2.719   0.781  0.2767 -0.9140  1.2089
  289SOL    HW1  866   0.724   2.783   0.709  1.0256  0.7366 -0.3111
  289SOL    HW2  867   0.690   2.757   0.876  0.5972  0.2505 -0.8106
  290SOL     OW  868   2.857   1.111   1.603 -0.5339 -1.0088 -0.1196
  290SOL    HW1  869   2.764   1.141   1.634  1.2968  2.0816  2.3121
  290SOL    HW2  870   2.915   1.060   1.675  1.3088 -1.8116  2.0395
  291SOL     OW  871   1.959   0.032   0.092 -0.1477 -0.1207 -0.3306
  291SOL    HW1  872   1.979   0.035   0.193 -0.3231  2.5023 -0.5549
  291SOL    HW2  873   2.002   0.112   0.043  1.6761  0.7912  0.9231
  292SOL     OW  874   2.987   1.166   3.027  0.2660  0.2639 -0.0266
  292SOL    HW1  875   2.924   1.199   2.955  2.0838  0.8354  0.2221
  292SOL    HW2  876   3.084   1.177   2.991 -0.7529 -0.4938 -2.1878
  293SOL     OW  877   0.613   2.142   0.136  0.1025 -0.1136 -0.0769
  293SOL    HW1  878   0.562   2.187   0.215 -1.6693 -0.5053  0.2026
  293SOL    HW2  879   0.717   2.131   0.158  1.1547  1.7978  2.6347
  294SOL     OW  880   1.684   2.160   1.762  0.1333  0.3147 -0.4089
  294SOL    HW1  881   1.694   2.208   1.856 -0.1859  2.5143 -1.8150
  294SOL    HW2  882   1.679   2.234   1.691  0.4275  3.4464  0.4799
  295SOL     OW  883   1.024   0.997   0.450  0.4182 -0.1377 -0.3131
  295SOL    HW1  884   1.123   1.002   0.475  3.3891 -0.4741  1.9438
  295SOL    HW2  885   0.970   1.035   0.530 -0.5370 -1.1100 -2.7170
  296SOL     OW  886   1.337   2.044   2.512 -0.2822 -0.1559  0.3158
  296SOL    HW1  887   1.319   2.061   2.410 -1.6164  0.9520  1.4741
  296SOL    HW2  888   1.342   1.949   2.538 -0.6816 -0.0337 -0.0541
  297SOL     OW  889   1.485   0.611   1.361 -0.0589  0.5050 -0.1109
  297SOL    HW1  890   1.481   0.523   1.416  2.2083 -0.0248  2.4241
  297SOL    HW2  891   1.539   0.686   1.408 -1.2726  1.0702  2.0413
  298SOL     OW  892   0.437   1.215   2.887  0.0187  0.4755 -0.0503
  298SOL    HW1  893   0.468   1.176   2.975  3.0401  1.2654 -0.4389
  298SOL    HW2  894   0.517   1.226   2.824  0.4796 -0.2657  1.2178
  299SOL     OW  895   0.477   0.289   1.447  0.2287 -0.0097 -0.6309
  299SOL    HW1  896   0.459   0.350   1.364  2.7851 -2.3563 -2.2576
  299SOL    HW2  897   0.570   0.296   1.499 -1.8317 -1.2648 -0.7979
  300SOL     OW  898   1.193   1.796   2.896  0.6767  0.2319 -0.0526
  300SOL    HW1  899   1.187   1.720   2.821 -0.0139 -2.0459 -0.5033
  300SOL    HW2  900   1.226   1.756   2.983 -0.0289  1.3046  2.7555
  301SOL     OW  901   0.452   0.273   0.466  0.6180  0.1529  0.4586
  301SOL    HW1  902   0.352   0.273   0.443 -2.0610  0.4272  2.9607
  301SOL    HW2  903   0.499   0.209   0.395 -1.7834 -3.0735 -1.3533
  302SOL     OW  904   1.247   2.328   2.311 -0.1960  0.7520 -0.4666
  302SOL    HW1  905   1.169   2.358   2.362  2.8383 -1.5241 -1.3409
  302SOL    HW2  906   1.239   2.227   2.278  1.5633 -0.6238 -1.8946
  303SOL     OW  907   0.955   2.329   0.787  0.5076  0.1853 -0.1070
  303SOL    HW1  908   1.006   2.368   0.702 -0.1113 -0.0814 -0.6732
  303SOL    HW2  909   0.974   2.379   0.876 -2.6796  1.1656 -0.5820
  304SOL     OW  910   0.137   2.058   0.651  0.2645 -0.0817 -0.3006
  304SOL    HW1  911   0.164   1.994   0.570  0.2478 -0.4495 -2.9849
  304SOL    HW2  912   0.095   2.147   0.624  3.0572  1.9155  1.5809
  305SOL     OW  913   1.589   0.884   0.607 -0.3187  0.0616 -0.4168
  305SOL    HW1  914   1.534   0.862   0.522 -2.5537  1.5953 -2.0629
  305SOL    HW2  915   1.655   0.807   0.639  0.9819  1.2337  1.8922
  306SOL     OW  916   0.477   1.850   1.898 -0.1955 -0.4133 -0.3339
  306SOL    HW1  917   0.570   1.796   1.884  3.8611  0.8197  0.2364
  306SOL    HW2  918   0.431   1.808   1.984  2.3242 -0.4024  1.9664
  307SOL     OW  919   0.022   0.842   2.602  0.1637  0.1142 -0.1752
  307SOL    HW1  920   0.044   0.945   2.595  0.3620  1.9162 -1.0012
  307SOL    HW2  921  -0.054   0.812   2.671  0.8552 -1.5716  0.2280
  308SOL     OW  922   1.517   2.668   2.870  0.6442  0.4572 -0.6642
  308SOL    HW1  923   1.561   2.604   2.802 -2.0028  1.1907  2.1921
  308SOL    HW2  924   1.441   2.624   2.922 -2.5345  1.1161  0.4889
  309SOL     OW  925   1.236   0.082   1.756  0.3172 -0.2183  0.3526
  309SOL    HW1  926   1.335   0.079   1.782 -0.8207 -2.4909  2.0527
  309SOL    HW2  927   1.216   0.086   1.658  0.1838  0.7711  1.4997
  310SOL     OW  928   1.449   2.556   0.710  0.7123 -0.6339 -0.8395
  310SOL    HW1  929   1.375   2.595   0.767  2.2698  1.1194 -1.5883
  310SOL    HW2  930   1.516   2.621   0.669  2.1894  0.6219 -1.4451
  311SOL     OW  931   1.164   0.951   1.561  0.3430 -0.8199  0.0426
  311SOL    HW1  932   1.232   0.885   1.611  1.9281  0.2577  2.3625
  311SOL    HW2  933   1.207   1.038   1.528  1.4003  1.4909  0.1479
  312SOL     OW  934   1.644   0.707   1.013  0.4868 -0.0167  0.4449
  312SOL    HW1  935   1.607   0.802   1.003  0.2980 -1.7577 -2.1761
  312SOL    HW2  936   1.573   0.636   1.013  0.8770 -0.5537  0.4565
  313SOL     OW  937   1.539   1.404   0.689 -0.0527  0.3450  0.2977
  313SOL    HW1  938   1.442   1.445   0.688 -2.7617  1.0734  1.2546
  313SOL    HW2  939   1.537   1.303   0.661 -0.7232  0.3218 -0.8546
  314SOL     OW  940   2.981   3.068   0.005 -0.0550 -0.7880  0.9061
  314SOL    HW1  941   2.958   3.123   0.091 -0.4601 -0.9456 -0.1944
  314SOL    HW2  942   2.894   3.029  -0.035 -1.1722  1.2465  0.4456
  315SOL     OW  943   1.219   0.221   2.779  0.0013 -0.3468 -0.3173
  315SOL    HW1  944   1.209   0.138   2.717 -0.9598  2.0419  0.9631
  315SOL    HW2  945   1.260   0.197   2.869 -1.3261  0.9355  2.4723
  316SOL     OW  946   1.700   2.105   0.911 -1.3692  0.6131  0.1791
  316SOL    HW1  947   1.664   2.118   1.006 -1.3607 -1.0434 -3.0608
  316SOL    HW2  948   1.699   2.192   0.851  1.3258  1.4102 -0.5670
  317SOL     OW  949   1.123   0.719   2.847 -0.4340 -0.1209  0.0978
  317SOL    HW1  950   1.046   0.769   2.897 -0.7215  3.1740 -2.0332
  317SOL    HW2  951   1.103   0.621   2.814  0.0524  0.6186  2.1526
  318SOL     OW  952   1.436   3.020   2.253 -0.8698 -0.1277  0.3381
  318SOL    HW1  953   1.405   3.096   2.181  0.0570 -0.8696 -5.7915
  318SOL    HW2  954   1.500   2.954   2.206  0.6967 -0.9045 -1.5186
  319SOL     OW  955   0.656   2.406   2.907 -0.1398 -0.0315 -0.3048
  319SOL    HW1  956   0.572   2.373   2.963  2.1270 -0.6335  2.6514
  319SOL    HW2  957   0.733   2.337   2.927  0.5679  0.7266  1.2440
  320SOL     OW  958   1.634   2.181   0.342  0.6435  0.1158 -0.1770
  320SOL    HW1  959   1.730   2.149   0.363  0.4494 -1.2167 -0.0158
  320SOL    HW2  960   1.556   2.147   0.412 -3.0595 -0.5278  1.1231
  321SOL     OW  961   1.607   2.645   0.490  0.3112 -0.3027 -0.2723
  321SOL    HW1  962   1.527   2.698   0.455  0.5793  1.6232 -0.3011
  321SOL    HW2  963   1.703   2.688   0.473  0.9176 -0.6601  2.0681
  322SOL     OW  964   2.551   1.123   2.264  0.2701 -0.0157  0.4247
  322SOL    HW1  965   2.646   1.134   2.297  1.0366  0.2642  0.2595
  322SOL    HW2  966   2.512   1.032   2.291  0.8595 -0.9524  2.8751
  323SOL     OW  967   1.017   2.649   0.796  0.0395 -0.3416  0.2112
  323SOL    HW1  968   1.032   2.583   0.718  3.2821 -1.0642 -0.5825
  323SOL    HW2  969   1.030   2.748   0.770  0.3418 -2.0723  1.5970
  324SOL     OW  970   0.233   2.466   2.475  0.1179 -0.1237  0.4390
  324SOL    HW1  971   0.197   2.396   2.542  2.7761  0.3026  1.3810
  324SOL    HW2  972   0.162   2.527   2.436 -0.7316 -0.1679  0.3511
  325SOL     OW  973   1.210   3.050   0.463  0.0751 -0.0313 -0.1456
  325SOL    HW1  974   1.248   3.067   0.366 -0.5236 -2.0287 -0.7389
  325SOL    HW2  975   1.240   3.127   0.533 -0.2748  1.2389  0.4610
  326SOL     OW  976   2.470   0.753   3.054  0.3673  0.0729  0.0874
  326SOL    HW1  977   2.449   0.719   2.957 -1.8713 -2.6434  0.3957
  326SOL    HW2  978   2.491   0.670   3.114 -0.3808 -0.0795  0.5937
  327SOL     OW  979   2.880   0.383   0.500  0.7246 -0.2898 -0.3788
  327SOL    HW1  980   2.814   0.392   0.420 -0.4591  1.7671  1.2096
  327SOL    HW2  981   2.846   0.310   0.568 -1.9719 -2.6397  0.2422
  328SOL     OW  982   2.492   0.573   0.394  0.2669  0.4566  0.0222
  328SOL    HW1  983   2.408   0.631   0.419  1.3583  1.0702  2.8560
  328SOL    HW2  984   2.515   0.500   0.469  0.5173  1.1023  1.4908
  329SOL     OW  985   2.934   2.975   2.166  0.1511 -0.3099  0.0986
  329SOL    HW1  986   2.968   2.901   2.232 -0.3607 -0.7342 -0.7399
  329SOL    HW2  987   2.992   3.061   2.168  1.6145 -0.5338 -1.4286
  330SOL     OW  988   0.530   0.183   1.894  0.1072  0.2945 -0.1034
  330SOL    HW1  989   0.582   0.275   1.892 -0.3654 -0.4520  0.7609
  330SOL    HW2  990   0.568   0.124   1.974 -0.2701  0.7669 -0.7704
  331SOL     OW  991   2.929   1.941   1.122 -0.6434 -0.1171 -0.0931
  331SOL    HW1  992   2.978   2.021   1.073  2.5428 -0.8606  1.4366
  331SOL    HW2  993   2.861   1.972   1.195 -0.4334 -0.2992  2.2851
  332SOL     OW  994   0.423   1.125   0.071 -0.2420  0.0218 -0.0140
  332SOL    HW1  995   0.368   1.075  -0.003  2.6497  0.4864 -0.9660
  332SOL    HW2  996   0.367   1.197   0.125 -0.7913  2.9926 -2.6894
  333SOL     OW  997   2.873   1.057   0.311 -0.2742 -0.4159 -0.1091
  333SOL    HW1  998   2.927   1.120   0.376 -0.8858  1.8670  0.2189
  333SOL    HW2  999   2.927   0.973   0.278  0.2217 -0.0818  2.9536
  334SOL     OW 1000   1.685   1.186   1.884 -0.3230 -0.2718 -0.2879
  334SOL    HW1 1001   1.775   1.163   1.829  1.8139  0.3535  0.0859
  334SOL    HW2 1002   1.698   1.256   1.958 -0.1803 -0.9044 -1.1701
  335SOL     OW 1003   1.986   2.764   2.615 -0.1502 -0.0807  0.0664
  335SOL    HW1 1004   1.929   2.710   2.675  0.5771  2.8070  0.5212
  335SOL    HW2 1005   2.052   2.824   2.657 -0.6063 -1.5553 -0.6576
  336SOL     OW 1006   0.262   0.086   2.780 -0.0574 -0.7659  0.6911
  336SOL    HW1 1007   0.359   0.107   2.746  2.4760 -0.0594  1.7242
  336SOL    HW2 1008   0.226   0.165   2.836  0.5661  1.7250  0.2816
  337SOL     OW 1009   0.929   2.797   2.796 -0.2131  0.4986  0.2165
  337SOL    HW1 1010   0.924   2.772   2.901 -0.3977  0.9519  2.7538
  337SOL    HW2 1011   1.026   2.786   2.756  0.5245  0.8359 -1.5540
  338SOL     OW 1012   0.028   0.991   0.686  0.2217  0.2565  0.6220
  338SOL    HW1 1013  -0.072   0.978   0.700 -0.3320  2.2875 -1.0666
  338SOL    HW2 1014   0.063   1.088   0.684  0.1172 -0.9578  0.6312
  339SOL     OW 1015   1.678   1.390   2.088  0.2158  0.1702 -0.0166
  339SOL    HW1 1016   1.577   1.415   2.090 -0.0917  0.3640  0.1716
  339SOL    HW2 1017   1.724   1.476   2.114 -1.6776 -1.4903 -0.1779
  340SOL     OW 1018   2.324   0.794   1.219  0.9246 -0.7546  0.0871
  340SOL    HW1 1019   2.221   0.797   1.194  0.1808  0.4091  0.7981
  340SOL    HW2 1020   2.373   0.708   1.192  1.0103 -1.5102  1.0855
  341SOL     OW 1021   1.912   2.154   0.339 -0.4017  0.6937 -0.4147
  341SOL    HW1 1022   1.938   2.174   0.243 -0.1615 -1.3929 -0.7851
  341SOL    HW2 1023   1.979   2.185   0.415 -1.3852  0.4314 -1.5173
  342SOL     OW 1024   2.200   2.099   2.766  0.0674 -0.3746 -0.0262
  342SOL    HW1 1025   2.261   2.014   2.788  0.4525 -1.5811  0.4790
  342SOL    HW2 1026   2.111   2.091   2.818  0.6462  1.1408 -2.7310
  343SOL     OW 1027   0.323   0.792   2.774 -0.0149  0.1168 -0.1338
  343SOL    HW1 1028   0.304   0.858   2.702  1.0420 -0.4614  0.3974
  343SOL    HW2 1029   0.423   0.773   2.802  3.1968 -5.0133 -1.3371
  344SOL     OW 1030   1.922   1.444   0.458  0.7233 -0.5531  0.5521
  344SOL    HW1 1031   1.926   1.357   0.400  0.7158 -1.8221 -0.5820
  344SOL    HW2 1032   1.823   1.486   0.448 -1.4120  0.0603  0.3911
  345SOL     OW 1033   1.392   2.279   2.898  0.0861  0.1872  0.7794
  345SOL    HW1 1034   1.306   2.231   2.866  1.1592 -0.2384 -1.3501
  345SOL    HW2 1035   1.471   2.236   2.845 -0.3915  2.1307 -0.9623
  346SOL     OW 1036   2.307   0.881   1.474  0.0231  0.6623  0.1354
  346SOL    HW1 1037   2.261   0.972   1.474  0.3971 -0.5510 -1.3515
  346SOL    HW2 1038   2.316   0.847   1.375 -1.8342  1.1747  0.5550
  347SOL     OW 1039   0.732   2.844   1.511  0.1526 -0.5684  0.0137
  347SOL    HW1 1040   0.705   2.774   1.583 -0.6110 -2.0174 -1.8592
  347SOL    HW2 1041   0.645   2.885   1.470 -0.9234 -1.4716 -3.4220
  348SOL     OW 1042   0.098   0.654   2.853  0.6060  0.0827 -0.3793
  348SOL    HW1 1043   0.013   0.697   2.817  2.8297 -1.2694  4.0502
  348SOL    HW2 1044   0.180   0.694   2.805 -2.2490  3.0203 -2.3049
  349SOL     OW 1045   1.840   0.425   2.795 -0.5616 -0.0504 -0.0663
  349SOL    HW1 1046   1.804   0.498   2.732  2.4134 -1.2522 -1.7955
  349SOL    HW2 1047   1.824   0.452   2.895  0.1004 -1.9198 -0.0305
  350SOL     OW 1048   1.621   0.431   0.374 -0.4916 -0.4361 -0.3115
  350SOL    HW1 1049   1.697   0.452   0.439 -2.1561  3.0854  1.1355
  350SOL    HW2 1050   1.577   0.516   0.334  2.6778 -0.5432  1.7482
  351SOL     OW 1051   0.969   0.889   2.066  0.2279 -0.7324  0.1138
  351SOL    HW1 1052   0.940   0.991   2.040 -0.2772 -0.0800  0.2016
  351SOL    HW2 1053   0.985   0.821   1.986 -3.1262  0.3493  0.6808
  352SOL     OW 1054   2.006   1.297   0.662  0.4201 -0.0158  0.2455
  352SOL    HW1 1055   1.969   1.358   0.577  0.5304  1.9978  1.1234
  352SOL    HW2 1056   2.095   1.335   0.696  0.5010  1.6067 -0.4400
  353SOL     OW 1057   2.141   2.906   1.127  0.0957  0.5425 -0.4785
  353SOL    HW1 1058   2.211   2.840   1.164  0.5090 -0.7331 -1.6110
  353SOL    HW2 1059   2.060   2.857   1.089 -2.0105  2.8261  3.0996
  354SOL     OW 1060   0.243   1.407   2.858  0.0892 -0.0652  0.3891
  354SOL    HW1 1061   0.238   1.499   2.801  2.3207 -0.8767  0.1016
  354SOL    HW2 1062   0.313   1.338   2.828 -2.4070 -0.9754  1.5224
  355SOL     OW 1063   0.532   1.524   0.508  0.4026 -0.2722  0.1181
  355SOL    HW1 1064   0.555   1.608   0.567 -1.0706  0.9303 -0.4818
  355SOL    HW2 1065   0.596   1.442   0.522  1.2023  1.0066 -1.0991
  356SOL     OW 1066   0.933   0.331   2.111  0.1933 -0.8046 -0.5033
  356SOL    HW1 1067   1.020   0.396   2.103  3.5230 -0.5344 -1.7079
  356SOL    HW2 1068   0.925   0.277   2.023 -0.0254 -0.0290 -0.5492
  357SOL     OW 1069   1.029   1.303   0.355 -0.1819  0.0617  0.6916
  357SOL    HW1 1070   0.999   1.234   0.282  1.9698  0.6645  0.2551
  357SOL    HW2 1071   1.024   1.276   0.456  1.6923  2.8558 -0.9309
  358SOL     OW 1072   1.649   1.513   0.459  0.1091 -0.3841  0.6742
  358SOL    HW1 1073   1.612   1.470   0.548 -3.0550 -0.5555 -1.8003
  358SOL    HW2 1074   1.592   1.489   0.377  1.1370 -0.2409  1.1816
  359SOL     OW 1075   1.573   2.701   0.087  0.0595  0.3550 -0.2878
  359SOL    HW1 1076   1.609   2.619   0.029 -0.3881  0.8344 -1.2375
  359SOL    HW2 1077   1.483   2.734   0.057  1.4054  1.5009 -1.8894
  360SOL     OW 1078   0.868   0.619   0.513 -0.7465  0.1908  0.8128
  360SOL    HW1 1079   0.795   0.610   0.584  0.7186 -1.1855  1.1513
  360SOL    HW2 1080   0.917   0.527   0.498 -0.2627  1.7489  1.2480
  361SOL     OW 1081   1.243   1.390   0.674 -0.2882 -0.1817 -0.2575
  361SOL    HW1 1082   1.269   1.403   0.776 -0.4872 -1.3443  0.9870
  361SOL    HW2 1083   1.145   1.408   0.655  3.4132  1.7190  1.1641
  362SOL     OW 1084   1.386   1.753   0.767  0.3106  0.2483 -0.2255
  362SOL    HW1 1085   1.402   1.707   0.855 -0.9113  0.7658  0.5771
  362SOL    HW2 1086   1.464   1.821   0.744 -1.2856  0.4869  1.2405
  363SOL     OW 1087   1.221   1.293   2.040  0.3680 -0.6179  0.3315
  363SOL    HW1 1088   1.163   1.349   2.106  0.3737  1.4126  2.3748
  363SOL    HW2 1089   1.259   1.348   1.960  0.3222 -0.8712 -0.0497
  364SOL     OW 1090   0.539   2.352   1.914  0.0904  0.1487 -0.0874
  364SOL    HW1 1091   0.454   2.398   1.958  1.0205 -1.9847  0.3298
  364SOL    HW2 1092   0.549   2.375   1.814  0.3563  0.6169 -0.7954
  365SOL     OW 1093   1.059   1.938   1.396 -0.2422 -0.3779  0.3091
  365SOL    HW1 1094   0.980   1.935   1.463 -0.5465 -1.2703 -1.8725
  365SOL    HW2 1095   1.053   1.861   1.326 -1.2074  2.9714 -1.2658
  366SOL     OW 1096   2.819   2.048   0.487  0.0678  0.0068  0.4117
  366SOL    HW1 1097   2.742   1.978   0.465 -1.1614  2.2148  1.0699
  366SOL    HW2 1098   2.889   2.055   0.414  0.2668 -0.7764 -1.0863
  367SOL     OW 1099   0.810   1.186   0.139  0.1278 -0.9823  0.0996
  367SOL    HW1 1100   0.778   1.106   0.195 -1.0555  1.3368  3.9281
  367SOL    HW2 1101   0.832   1.170   0.040  0.6311 -2.1637 -1.5004
  368SOL     OW 1102   1.514   0.579   0.709 -0.1517  0.1492  0.2353
  368SOL    HW1 1103   1.464   0.594   0.617  3.2034 -1.3905  1.0046
  368SOL    HW2 1104   1.591   0.644   0.730 -1.7763  0.1236 -0.3085
  369SOL     OW 1105   0.266   1.736   0.048 -0.3898  0.4926 -0.1017
  369SOL    HW1 1106   0.300   1.790   0.125 -1.6976 -4.0117 -0.2143
  369SOL    HW2 1107   0.168   1.703   0.057 -0.9228 -1.2875  1.6191
  370SOL     OW 1108   0.391   2.119   1.044  0.5691 -0.1530  0.2172
  370SOL    HW1 1109   0.423   2.216   1.022  1.5681  0.6422  1.6916
  370SOL    HW2 1110   0.297   2.091   1.004  0.0108 -0.1736  0.8904
  371SOL     OW 1111   2.896   2.225   2.743 -0.3865  0.1664 -0.0849
  371SOL    HW1 1112   2.901   2.198   2.844 -1.7294  1.4789 -2.0429
  371SOL    HW2 1113   2.984   2.273   2.715  2.5288  0.6442 -1.3032
  372SOL     OW 1114   1.008   1.907   0.946  1.4044 -0.2711  0.7695
  372SOL    HW1 1115   0.940   1.989   0.955 -0.5511 -0.1893 -2.4532
  372SOL    HW2 1116   1.097   1.941   0.904  0.3408  5.1621 -0.4214
  373SOL     OW 1117   1.961   2.006   0.884  0.7375 -0.3124 -0.3424
  373SOL    HW1 1118   2.012   1.990   0.972  1.4509 -2.1698  0.5856
  373SOL    HW2 1119   1.871   2.055   0.898 -0.1720 -0.3004  0.1895
  374SOL     OW 1120   1.832   0.459   0.548 -0.9013  0.1440  0.6264
  374SOL    HW1 1121   1.818   0.418   0.642 -0.9617  1.0267 -0.8564
  374SOL    HW2 1122   1.925   0.467   0.508  3.1347 -2.0148 -3.2357
  375SOL     OW 1123   2.368   2.159   1.133 -0.3607  0.3295  0.2788
  375SOL    HW1 1124   2.445   2.170   1.068  0.0264  0.1056 -2.0971
  375SOL    HW2 1125   2.396   2.136   1.231  1.5675  0.0230  1.7656
  376SOL     OW 1126   3.018   0.607   1.407 -0.3392  0.1732  0.0456
  376SOL    HW1 1127   3.088   0.646   1.474  0.5167 -1.6328 -0.3348
  376SOL    HW2 1128   2.920   0.604   1.442 -1.8186 -0.5405 -0.1019
  377SOL     OW 1129   2.272   2.823   0.337 -0.1617  0.0384  0.7054
  377SOL    HW1 1130   2.244   2.913   0.376 -1.2601 -0.7191 -1.0378
  377SOL    HW2 1131   2.371   2.806   0.343  0.0587  0.1321 -2.5323
  378SOL     OW 1132   1.786   1.916   2.634 -0.1907 -0.5689  0.0768
  378SOL    HW1 1133   1.773   1.820   2.666 -2.7838  2.0441  0.5053
  378SOL    HW2 1134   1.794   1.912   2.534 -1.2149 -1.3373  2.7956
  379SOL     OW 1135   0.878   0.082   2.740 -0.1848  0.9003  0.6365
  379SOL    HW1 1136   0.824  -0.006   2.709 -3.3019  1.1255  1.9257
  379SOL    HW2 1137   0.847   0.164   2.688 -0.6957 -0.3660  0.5790
  380SOL     OW 1138   1.519   1.157   0.576  0.1029 -0.1139 -0.4942
  380SOL    HW1 1139   1.430   1.141   0.528  0.1551 -1.1381  0.7955
  380SOL    HW2 1140   1.550   1.066   0.618  0.6067  3.0645 -2.8912
  381SOL     OW 1141   1.302   1.196   1.532 -0.4017 -0.0005  0.5422
  381SOL    HW1 1142   1.348   1.215   1.440 -1.4575 -1.7352  0.4403
  381SOL    HW2 1143   1.367   1.158   1.601 -0.1864 -0.5718  1.8201
  382SOL     OW 1144   1.765   0.795   0.265  0.3810 -0.0007 -0.1151
  382SOL    HW1 1145   1.787   0.773   0.166 -0.2149 -0.0501  1.1706
  382SOL    HW2 1146   1.846   0.824   0.323 -1.5981  0.3153  0.5807
  383SOL     OW 1147   2.571   0.968   1.504 -0.1451  0.0033  0.0263
  383SOL    HW1 1148   2.482   0.954   1.459  1.4443 -0.0836  0.4049
  383SOL    HW2 1149   2.642   0.900   1.465 -1.5781  0.7940 -0.9907
  384SOL     OW 1150   0.880   2.283   0.073 -0.0464  0.4742 -0.4954
  384SOL    HW1 1151   0.848   2.347   0.150  0.4254 -0.2769 -2.6989
  384SOL    HW2 1152   0.929   2.200   0.107  1.2732 -1.0680 -3.6281
  385SOL     OW 1153   2.997   2.013   1.774  0.0677 -0.0503  0.5309
  385SOL    HW1 1154   3.068   2.088   1.756  2.2062 -2.5731  0.1908
  385SOL    HW2 1155   3.037   1.923   1.750  3.7461  1.0026  1.0134
  386SOL     OW 1156   0.429   1.141   0.465 -0.1888 -0.0561  0.1861
  386SOL    HW1 1157   0.455   1.041   0.440 -0.3629 -3.3034  0.6518
  386SOL    HW2 1158   0.360   1.181   0.400  1.5985  0.0634  2.3694
  387SOL     OW 1159   0.992   0.284   1.643  0.6928  0.5225 -0.2825
  387SOL    HW1 1160   1.049   0.364   1.633 -3.2513 -0.0932  2.5090
  387SOL    HW2 1161   0.962   0.233   1.555  1.2863  0.1562 -2.3297
  388SOL     OW 1162   1.189   2.622   1.785  0.8110 -0.1228 -0.1083
  388SOL    HW1 1163   1.227   2.636   1.688 -0.0791  2.3098  0.2531
  388SOL    HW2 1164   1.252   2.554   1.840 -2.0150 -1.9870  2.4455
  389SOL     OW 1165   0.239   0.011   1.137 -0.4874 -0.4821  0.2839
  389SOL    HW1 1166   0.187   0.004   1.228 -0.6829  2.0599 -2.6977
  389SOL    HW2 1167   0.268  -0.083   1.102  0.0474 -2.5019  0.9743
  390SOL     OW 1168   1.047   0.883   1.234  0.6413  0.0716 -0.0599
  390SOL    HW1 1169   1.147   0.864   1.258  2.7689  2.7846 -2.0699
  390SOL    HW2 1170   0.982   0.917   1.311 -2.4654  0.5010  1.1832
  391SOL     OW 1171   2.094   1.143   1.061 -0.3648 -0.6711 -0.1253
  391SOL    HW1 1172   2.007   1.098   1.087  0.5705 -0.5904  0.8889
  391SOL    HW2 1173   2.152   1.092   0.995  0.9245 -0.4756 -3.7232
  392SOL     OW 1174   0.885   2.705   3.055  0.3751 -0.0385 -0.2462
  392SOL    HW1 1175   0.794   2.735   3.092 -1.1333 -1.0509  0.7717
  392SOL    HW2 1176   0.962   2.735   3.118  1.9210 -0.0233  0.8516
  393SOL     OW 1177   0.379   0.563   2.087  0.0986 -0.4554  0.7326
  393SOL    HW1 1178   0.279   0.555   2.057  0.3939 -0.9768  2.5226
  393SOL    HW2 1179   0.446   0.549   2.008  0.4047  1.6471  0.3339
  394SOL     OW 1180   2.870   1.833   2.809  0.7248  0.5431 -0.2596
  394SOL    HW1 1181   2.941   1.894   2.853  0.6811 -0.8385 -2.0650
  394SOL    HW2 1182   2.893   1.828   2.711  3.8634 -1.6629  0.5735
  395SOL     OW 1183   1.575   1.932   0.741 -0.1163 -0.1582  0.0645
  395SOL    HW1 1184   1.644   1.907   0.672 -3.5560  1.9237  0.0780
  395SOL    HW2 1185   1.616   1.971   0.826 -0.7202 -1.3247 -1.9346
  396SOL     OW 1186   2.778   2.052   1.309  0.5141 -0.0340  0.0280
  396SOL    HW1 1187   2.838   2.053   1.396 -0.9395 -1.4264  0.7761
  396SOL    HW2 1188   2.678   2.065   1.330 -0.2873  3.5047 -0.4286
  397SOL     OW 1189   1.018   2.089   0.644  0.1772  0.0110 -0.4848
  397SOL    HW1 1190   0.949   2.016   0.610  2.3163  1.8286 -1.7715
  397SOL    HW2 1191   0.972   2.151   0.712 -0.4130  0.1273  3.0077
  398SOL     OW 1192   2.163   0.086   1.080 -0.8026  0.7550  0.0586
  398SOL    HW1 1193   2.156  -0.017   1.095 -0.2667 -1.5520 -1.2529
  398SOL    HW2 1194   2.071   0.136   1.081  2.1790 -0.8295 -1.5555
  399SOL     OW 1195   2.972   2.534   2.710 -0.2475 -0.1248 -0.2867
  399SOL    HW1 1196   2.908   2.508   2.629 -0.0911 -1.3536 -1.1863
  399SOL    HW2 1197   2.938   2.497   2.797  1.8335 -0.6799 -0.3127
  400SOL     OW 1198   0.850   1.606   1.280 -0.0457 -0.2293  0.7221
  400SOL    HW1 1199   0.787   1.620   1.360  0.0956 -1.8850  0.6015
  400SOL    HW2 1200   0.819   1.648   1.192  0.2085 -0.6660 -1.2719
  401SOL     OW 1201   1.817   0.139   1.273 -0.4186  0.1043 -0.1825
  401SOL    HW1 1202   1.883   0.201   1.331  2.0727  0.4398  1.3732
  401SOL    HW2 1203   1.720   0.124   1.303 -0.4221 -0.9936 -1.2024
  402SOL     OW 1204   1.315   0.128   3.043 -0.4396  0.2283  0.1674
  402SOL    HW1 1205   1.408   0.093   3.013  2.6739 -2.5291 -2.0207
  402SOL    HW2 1206   1.321   0.230   3.065  2.0567 -0.8259  3.1994
  403SOL     OW 1207   2.317   1.802   0.954  0.6222  0.1616  0.3385
  403SOL    HW1 1208   2.410   1.840   0.960 -0.2097 -1.6821 -0.9677
  403SOL    HW2 1209   2.244   1.853   1.011 -0.3338  0.2647  1.3290
  404SOL     OW 1210   0.191   2.503   2.833  0.2534 -0.1484 -0.2164
  404SOL    HW1 1211   0.284   2.472   2.806 -0.2860  1.4362 -0.3362
  404SOL    HW2 1212   0.189   2.608   2.839  3.0759 -1.4909  2.9987
  405SOL     OW 1213   0.232   2.569   0.547  0.0500 -0.0950 -0.7201
  405SOL    HW1 1214   0.210   2.538   0.448 -1.1811  1.3359  0.5452
  405SOL    HW2 1215   0.304   2.647   0.550 -0.0093 -1.6367 -0.2489
  406SOL     OW 1216   0.030   1.518   2.987 -0.3100  0.1911 -0.0940
  406SOL    HW1 1217   0.101   1.449   2.957  0.1320 -0.7124 -1.4628
  406SOL    HW2 1218   0.009   1.512   3.090 -2.4759 -0.2788 -0.4332
  407SOL     OW 1219   1.509   0.924   0.902 -0.1178 -0.4877  0.2617
  407SOL    HW1 1220   1.475   0.865   0.825 -0.7656 -0.4667  3.2674
  407SOL    HW2 1221   1.455   1.016   0.907 -0.4265 -0.2624  2.2292
  408SOL     OW 1222   1.510   2.406   0.960  0.1068 -0.1223  0.0334
  408SOL    HW1 1223   1.575   2.396   0.877  0.8547  1.3468  1.0218
  408SOL    HW2 1224   1.533   2.487   1.017  2.0701  3.0946 -0.8863
  409SOL     OW 1225   0.667   0.857   0.670  0.0507  0.0373 -0.3837
  409SOL    HW1 1226   0.581   0.866   0.614  0.8327 -0.6816 -1.0470
  409SOL    HW2 1227   0.683   0.757   0.694  0.0028 -2.1222  1.7775
  410SOL     OW 1228   1.308   2.023   1.489 -0.3916  0.1967 -0.6827
  410SOL    HW1 1229   1.304   2.077   1.579 -3.5943  0.3379  1.9307
  410SOL    HW2 1230   1.213   1.992   1.462  1.4623  0.7603  3.7427
  411SOL     OW 1231   2.378   1.833   0.035  0.1303  0.1050 -0.3946
  411SOL    HW1 1232   2.291   1.802  -0.009  0.5094  0.5404 -0.5631
  411SOL    HW2 1233   2.443   1.879  -0.033  1.1635 -2.2328  1.7039
  412SOL     OW 1234   1.512   2.406   2.207  0.0779 -0.1615 -0.1733
  412SOL    HW1 1235   1.595   2.417   2.265 -0.3224 -1.7574 -2.7240
  412SOL    HW2 1236   1.420   2.383   2.252 -1.1149  0.4105 -1.4011
  413SOL     OW 1237   3.014   0.262   2.969  0.0999 -0.0107  0.5559
  413SOL    HW1 1238   2.974   0.188   3.027 -0.5822 -0.5132 -1.0922
  413SOL    HW2 1239   3.118   0.251   2.943  1.7044 -1.6838 -0.5508
  414SOL     OW 1240   1.772   1.382   1.331 -0.0293  0.5094 -0.2130
  414SOL    HW1 1241   1.685   1.418   1.377  0.5454  0.3971  0.8561
  414SOL    HW2 1242   1.756   1.348   1.236  0.0846 -1.8722  3.0094
  415SOL     OW 1243   0.367   2.273   0.662 -0.1757 -0.0682 -0.2850
  415SOL    HW1 1244   0.334   2.374   0.643  1.5832  0.3308 -0.1772
  415SOL    HW2 1245   0.297   2.204   0.695 -0.4345 -0.3018 -0.6918
  416SOL     OW 1246   0.372   1.018   1.052  0.2093 -0.2196  0.0607
  416SOL    HW1 1247   0.331   0.970   0.969 -1.5647 -0.2721 -2.3214
  416SOL    HW2 1248   0.471   1.052   1.045 -0.4888 -0.4907  2.6392
  417SOL     OW 1249   2.141   2.331   1.900 -0.4998  0.7125  0.6339
  417SOL    HW1 1250   2.205   2.262   1.937 -2.5960  3.1565  0.1081
  417SOL    HW2 1251   2.052   2.336   1.948 -0.1044 -0.6481 -3.9582
  418SOL     OW 1252   1.131   0.477   1.328  0.5492  0.8841 -0.3254
  418SOL    HW1 1253   1.031   0.449   1.315  0.3663 -1.2183  1.8129
  418SOL    HW2 1254   1.189   0.447   1.257 -2.5442 -0.3451  1.0118
  419SOL     OW 1255   0.977   0.374   3.028  0.3284 -0.1523  0.1284
  419SOL    HW1 1256   0.956   0.428   2.943 -1.3898 -1.8807  0.9989
  419SOL    HW2 1257   0.939   0.275   3.031  0.0552  1.5708  0.3841
  420SOL     OW 1258   0.225   2.254   0.345 -0.5705 -0.1265 -0.0920
  420SOL    HW1 1259   0.196   2.193   0.264  1.3876 -3.4564 -1.4707
  420SOL    HW2 1260   0.157   2.258   0.424  1.8576  1.0897  1.8437
  421SOL     OW 1261   0.319   3.093   0.657 -0.0663  0.2593  0.3771
  421SOL    HW1 1262   0.342   2.998   0.622 -1.9809 -0.6400  2.7454
  421SOL    HW2 1263   0.409   3.144   0.666 -1.3929  1.5042 -1.1597
  422SOL     OW 1264   0.925   2.499   1.030 -0.2084 -0.1808 -0.1002
  422SOL    HW1 1265   0.939   2.572   0.959  2.8191 -1.6779  3.5004
  422SOL    HW2 1266   0.975   2.516   1.118 -0.8717  1.0899 -0.8266
  423SOL     OW 1267   0.049   0.720   1.199  0.3072 -0.1279  0.0571
  423SOL    HW1 1268  -0.013   0.667   1.269 -0.0462 -0.3464 -0.2845
  423SOL    HW2 1269   0.005   0.809   1.178 -3.1083  0.2399 -0.2457
  424SOL     OW 1270   1.021   2.161   2.117  0.0648  0.5341 -1.1567
  424SOL    HW1 1271   1.036   2.257   2.087 -3.0410 -0.6006 -0.3833
  424SOL    HW2 1272   0.970   2.159   2.208  0.5509 -1.5465 -2.0158
  425SOL     OW 1273   1.996   1.403   1.067  0.0393  0.4065 -0.4574
  425SOL    HW1 1274   1.999   1.303   1.083 -1.0824 -0.5987  0.6552
  425SOL    HW2 1275   2.066   1.420   0.990 -0.2020 -1.0800 -0.6964
  426SOL     OW 1276   1.550   1.541   1.379 -0.4129  0.3965  0.2369
  426SOL    HW1 1277   1.473   1.592   1.337  0.7323  0.6480  1.0399
  426SOL    HW2 1278   1.564   1.564   1.477 -1.9634  1.0643 -2.4640
  427SOL     OW 1279   1.918   2.367   2.063 -0.1063 -0.2244  0.6306
  427SOL    HW1 1280   1.969   2.310   2.137 -2.0748 -0.7947  1.1493
  427SOL    HW2 1281   1.925   2.470   2.070 -0.0818  0.6353 -2.7335
  428SOL     OW 1282   0.900   3.045   0.129 -0.0870 -0.5903  0.1969
  428SOL    HW1 1283   0.950   3.115   0.180 -1.1287 -3.2716 -2.3762
  428SOL    HW2 1284   0.964   2.967   0.098 -1.4696  0.6546 -0.2191
  429SOL     OW 1285   1.320   0.062   0.228  0.0032  0.4145 -0.4632
  429SOL    HW1 1286   1.415   0.107   0.252  0.9018 -0.2813  0.9999
  429SOL    HW2 1287   1.296   0.067   0.129 -0.8335 -1.7162 -2.4666
  430SOL     OW 1288   2.805   1.517   0.357 -0.1326  0.0031 -0.2085
  430SOL    HW1 1289   2.861   1.574   0.284  1.2694 -1.7050  1.0893
  430SOL    HW2 1290   2.794   1.566   0.448  0.5726  0.8190  0.1138
  431SOL     OW 1291   2.146   1.597   0.905  0.1164 -0.1307 -0.2754
  431SOL    HW1 1292   2.215   1.669   0.929  2.0772 -1.4201 -2.9495
  431SOL    HW2 1293   2.062   1.636   0.859 -0.9373 -0.8156  0.1051
  432SOL     OW 1294   2.932   2.292   1.248 -0.1729 -0.3223 -0.7677
  432SOL    HW1 1295   2.859   2.220   1.262 -1.8770 -0.4318  2.0722
  432SOL    HW2 1296   2.993   2.307   1.326  2.4521 -2.9112  0.2394
  433SOL     OW 1297   1.823   0.360   0.793  0.1059  0.3541 -0.0115
  433SOL    HW1 1298   1.745   0.330   0.858  0.2689  1.0018  0.4179
  433SOL    HW2 1299   1.902   0.297   0.802 -0.6547  1.1977 -2.4615
  434SOL     OW 1300   1.527   0.281   0.700 -0.7041  0.1166  0.1010
  434SOL    HW1 1301   1.520   0.380   0.657  1.6051  3.2559 -0.2326
  434SOL    HW2 1302   1.520   0.284   0.801  0.6019  1.0543 -3.4881
  435SOL     OW 1303   1.441   1.500   2.098  0.1432 -0.8844 -0.3119
  435SOL    HW1 1304   1.396   1.466   2.185  0.8958 -0.2446 -1.6584
  435SOL    HW2 1305   1.385   1.582   2.057 -2.2338 -2.7275 -0.0413
  436SOL     OW 1306   1.659   2.646   2.417 -0.2079 -0.3862  0.8263
  436SOL    HW1 1307   1.636   2.748   2.441  0.0572 -0.4553 -0.2260
  436SOL    HW2 1308   1.626   2.582   2.492  1.6345  2.4137  1.8210
  437SOL     OW 1309   1.092   2.922   0.899 -0.1903  0.3526  0.6352
  437SOL    HW1 1310   1.043   3.009   0.883 -1.4086  0.2458  4.4189
  437SOL    HW2 1311   1.125   2.908   0.995 -1.3550  1.2487  0.2723
  438SOL     OW 1312   1.080   2.521   1.291  0.4113  0.1188  0.0823
  438SOL    HW1 1313   1.101   2.606   1.348  2.6722  3.9650 -3.0457
  438SOL    HW2 1314   1.043   2.437   1.343  0.0422 -0.4171 -0.9073
  439SOL     OW 1315   0.719   1.722   1.046  0.2347  0.9983 -0.1213
  439SOL    HW1 1316   0.750   1.759   0.954  0.3870 -0.4317 -2.0267
  439SOL    HW2 1317   0.615   1.712   1.064 -2.3651  1.1710 -2.4669
  440SOL     OW 1318   1.040   2.414   2.046 -0.2425 -0.2788 -0.1885
  440SOL    HW1 1319   0.973   2.441   1.971  1.7770 -1.4630  0.0558
  440SOL    HW2 1320   1.143   2.415   2.014  2.0153  2.4340  0.5329
  441SOL     OW 1321   0.343   2.700   1.396 -0.2051 -0.6280  1.2226
  441SOL    HW1 1322   0.417   2.627   1.413  2.4015 -0.8556  2.0196
  441SOL    HW2 1323   0.344   2.726   1.292  0.3651  0.8610 -2.8394
  442SOL     OW 1324   2.233   0.653   2.610 -0.3740 -0.3827 -0.0645
  442SOL    HW1 1325   2.212   0.569   2.552  0.3125  0.4372 -1.1092
  442SOL    HW2 1326   2.148   0.710   2.640 -0.8707 -4.1548  0.9583
  443SOL     OW 1327   1.270   2.658   2.235 -0.2647  0.5328 -0.2499
  443SOL    HW1 1328   1.303   2.568   2.283  1.9442 -0.4625  1.1760
  443SOL    HW2 1329   1.213   2.717   2.300 -0.2463 -1.3229 -0.7579
  444SOL     OW 1330   1.017   1.222   1.494 -0.0611  0.5537  0.6334
  444SOL    HW1 1331   1.118   1.231   1.500  1.4991  1.0940  1.9365
  444SOL    HW2 1332   0.974   1.220   1.584  0.7509 -1.2088 -1.1362
  445SOL     OW 1333   0.139   2.301   2.006 -1.0683  0.2352 -1.0210
  445SOL    HW1 1334   0.084   2.237   1.945  0.3704 -0.1775 -2.2971
  445SOL    HW2 1335   0.162   2.268   2.097 -0.5587  0.6938  0.0530
  446SOL     OW 1336   0.150   1.952   2.376 -0.1282 -0.0801  0.3403
  446SOL    HW1 1337   0.083   2.031   2.381 -0.2025  1.9312  1.0809
  446SOL    HW2 1338   0.140   1.905   2.287  3.2067 -0.0511  1.8839
  447SOL     OW 1339   1.257   1.687   1.980  0.0320 -0.4007 -0.3997
  447SOL    HW1 1340   1.170   1.737   2.007  0.9596  0.8036  0.0344
  447SOL    HW2 1341   1.334   1.754   1.998  0.1013 -0.1231 -0.5332
  448SOL     OW 1342   0.204   1.443   2.046 -0.7235 -0.0018 -0.6749
  448SOL    HW1 1343   0.171   1.525   1.994  0.2369 -1.2875 -0.0718
  448SOL    HW2 1344   0.152   1.432   2.132 -1.9649  2.6309  2.8357
  449SOL     OW 1345   1.871   2.920   0.799 -0.4123 -0.0101  0.1381
  449SOL    HW1 1346   1.869   2.942   0.903 -2.0083  0.2178  2.5567
  449SOL    HW2 1347   1.913   2.833   0.778 -2.5946  1.1530  0.0573
  450SOL     OW 1348   2.251   1.474   0.690 -0.6115  0.2038  0.4015
  450SOL    HW1 1349   2.206   1.519   0.771  2.2855  0.4801  0.1102
  450SOL    HW2 1350   2.285   1.540   0.619  3.7793  3.2412  3.0432
  451SOL     OW 1351   1.377   3.038   1.497 -0.1602 -0.0536  0.5024
  451SOL    HW1 1352   1.322   3.121   1.516 -0.0229  1.8798 -0.5739
  451SOL    HW2 1353   1.407   2.994   1.582 -0.5235  1.4014 -5.7017
  452SOL     OW 1354   2.662   2.289   2.283 -0.2042  0.3277  0.8640
  452SOL    HW1 1355   2.611   2.377   2.287  2.4217 -0.9157 -0.1198
  452SOL    HW2 1356   2.669   2.235   2.374 -1.8558 -2.0119  0.6307
  453SOL     OW 1357   2.478   2.659   3.063 -0.1740 -0.5289  0.5412
  453SOL    HW1 1358   2.403   2.729   3.084 -2.9546  2.4214 -2.2990
  453SOL    HW2 1359   2.440   2.567   3.018 -1.9867 -0.7739  1.9488
  454SOL     OW 1360   0.917   1.156   2.012 -0.1611 -0.3599  0.2078
  454SOL    HW1 1361   0.891   1.129   1.918 -1.0250 -1.4854  1.1884
  454SOL    HW2 1362   1.005   1.204   2.011 -0.2928 -2.4344  0.3606
  455SOL     OW 1363   0.657   2.668   2.820  0.3076  0.0488  0.5982
  455SOL    HW1 1364   0.743   2.727   2.841  1.9410  4.9204 -0.1181
  455SOL    HW2 1365   0.661   2.576   2.868 -1.9444 -0.5308 -0.7261
  456SOL     OW 1366   0.353   1.932   0.225  0.0908 -0.4394 -0.1122
  456SOL    HW1 1367   0.453   1.912   0.251  0.1567 -1.8493 -0.0331
  456SOL    HW2 1368   0.333   2.018   0.166 -1.4115 -0.1730 -0.7634
  457SOL     OW 1369   0.417   2.782   0.654 -0.4828 -0.0577  0.1589
  457SOL    HW1 1370   0.442   2.827   0.562  2.9560  0.8629 -2.2635
  457SOL    HW2 1371   0.503   2.754   0.705 -0.3739  2.1054 -1.3071
  458SOL     OW 1372   2.839   0.025   1.229 -0.5207  0.0662 -0.3991
  458SOL    HW1 1373   2.899   0.106   1.218 -1.7810 -1.4566  1.0517
  458SOL    HW2 1374   2.856  -0.050   1.158  0.9661  2.7680 -3.4302
  459SOL     OW 1375   2.229   2.504   0.797 -0.4079  0.6777  0.0868
  459SOL    HW1 1376   2.264   2.578   0.858  0.1254  0.5399 -2.2730
  459SOL    HW2 1377   2.286   2.499   0.713 -1.7793 -2.3142  1.2485
  460SOL     OW 1378   1.195   2.072   2.780 -0.0868 -0.3648  0.3768
  460SOL    HW1 1379   1.237   2.080   2.686  0.8102  2.4549  1.8247
  460SOL    HW2 1380   1.225   1.985   2.825  1.5559  0.8594 -0.8013
  461SOL     OW 1381   0.412   2.102   2.718  0.1748 -0.7015  0.4306
  461SOL    HW1 1382   0.376   2.020   2.674  0.7579  1.5577  0.0912
  461SOL    HW2 1383   0.450   2.075   2.809 -1.0920 -1.1616  0.9662
  462SOL     OW 1384   0.947   1.025   1.760 -0.0195  0.1080  0.5397
  462SOL    HW1 1385   0.978   0.953   1.692  3.2012  0.4120 -0.7850
  462SOL    HW2 1386   0.894   1.105   1.719 -1.6609  2.2347  0.2456
  463SOL     OW 1387   0.463   0.856   0.492  0.0205  0.5379  0.1279
  463SOL    HW1 1388   0.495   0.775   0.436  1.9662  2.5678 -2.1644
  463SOL    HW2 1389   0.358   0.858   0.504 -3.1384 -1.2936  2.8179
  464SOL     OW 1390   0.595   2.340   2.200 -0.0214 -0.2217  0.2083
  464SOL    HW1 1391   0.528   2.402   2.241  2.0715 -0.6342  0.8394
  464SOL    HW2 1392   0.588   2.330   2.098 -1.0886 -1.7529  2.7567
  465SOL     OW 1393   0.252   0.898   0.845  0.3315  0.2441  0.3123
  465SOL    HW1 1394   0.177   0.922   0.782 -0.8266 -1.1512  0.7104
  465SOL    HW2 1395   0.281   0.800   0.841  0.5533 -0.0239 -0.4462
  466SOL     OW 1396   1.382   1.133   1.004 -0.2325  0.1441  0.2395
  466SOL    HW1 1397   1.389   1.235   0.991 -0.8969  0.9532  0.3665
  466SOL    HW2 1398   1.288   1.103   1.033  1.3994 -2.7347  0.1100
  467SOL     OW 1399   0.575   0.401   2.473  0.2126  0.0612 -0.2354
  467SOL    HW1 1400   0.530   0.491   2.491  0.9053  0.1686  1.0755
  467SOL    HW2 1401   0.602   0.347   2.560 -0.6963 -0.3078  0.3008
  468SOL     OW 1402   0.414   2.260   1.618 -0.7056 -0.2128  0.0200
  468SOL    HW1 1403   0.512   2.274   1.649 -0.7866  0.1742  1.8489
  468SOL    HW2 1404   0.402   2.251   1.516  1.5610  0.9300  0.3512
  469SOL     OW 1405   1.416   1.304   1.292  0.5641  0.1410  0.7178
  469SOL    HW1 1406   1.469   1.264   1.211  0.5666 -0.5184 -2.4031
  469SOL    HW2 1407   1.461   1.382   1.336  0.4451 -3.8628 -2.8516
  470SOL     OW 1408   3.014   1.783   0.729 -0.5940  0.0814 -0.1558
  470SOL    HW1 1409   3.092   1.843   0.691  3.3198  2.5955 -0.0262
  470SOL    HW2 1410   3.049   1.694   0.763  2.2803  1.3960 -0.0590
  471SOL     OW 1411   2.564   1.365   2.164  0.1483  0.0642  0.0070
  471SOL    HW1 1412   2.538   1.281   2.220  0.7820  0.5419 -0.6484
  471SOL    HW2 1413   2.655   1.403   2.192  1.4675 -3.4148 -0.6886
  472SOL     OW 1414   1.143   2.414   0.067  0.1361 -0.6647  0.1978
  472SOL    HW1 1415   1.197   2.384   0.149  0.3101 -0.4105  0.4768
  472SOL    HW2 1416   1.042   2.392   0.076  1.5220  1.2777  1.5251
  473SOL     OW 1417   1.100   1.490   1.021  0.4795 -0.3544  0.6151
  473SOL    HW1 1418   1.009   1.509   0.972 -0.3756 -1.1852  1.3071
  473SOL    HW2 1419   1.094   1.449   1.114  0.6761 -1.2019 -0.2318
  474SOL     OW 1420   0.661   1.288   0.544  0.3561 -0.1741 -0.0111
  474SOL    HW1 1421   0.576   1.234   0.514 -2.4992 -0.1053  0.2226
  474SOL    HW2 1422   0.748   1.235   0.550  0.7686  0.3373  0.3723
  475SOL     OW 1423   2.795   0.017   0.799  0.3593 -0.3413 -0.0016
  475SOL    HW1 1424   2.864   0.091   0.825 -1.2523 -0.1866  1.4840
  475SOL    HW2 1425   2.707   0.046   0.851  0.2959 -0.4995 -0.4110
  476SOL     OW 1426   0.996   3.013   1.773  0.2044 -0.5162 -0.0996
  476SOL    HW1 1427   1.086   3.041   1.806  0.6539 -2.3269 -2.1268
  476SOL    HW2 1428   0.998   2.995   1.670 -1.8944 -0.9054 -1.1485
  477SOL     OW 1429   1.462   0.317   2.393  0.2010  0.3486 -0.0302
  477SOL    HW1 1430   1.461   0.364   2.487  0.1910 -1.0378  0.9139
  477SOL    HW2 1431   1.552   0.273   2.372 -0.5285 -0.4515  1.2066
  478SOL     OW 1432   2.215   1.870   0.263 -0.1768 -0.2001 -0.5536
  478SOL    HW1 1433   2.160   1.794   0.295 -0.7586  1.4259 -0.2977
  478SOL    HW2 1434   2.290   1.839   0.191  0.9823  2.0744 -2.0904
  479SOL     OW 1435   1.246   0.965   2.923  0.1495  0.1506  0.4344
  479SOL    HW1 1436   1.339   0.965   2.871  1.6822 -2.2006  1.9831
  479SOL    HW2 1437   1.186   0.888   2.887  1.4557 -1.8807  1.5550
  480SOL     OW 1438   2.675   2.332   0.387 -0.9448  0.5314  0.0213
  480SOL    HW1 1439   2.642   2.258   0.457 -0.4117 -0.8525 -0.5084
  480SOL    HW2 1440   2.627   2.328   0.294  0.2687  1.3147 -0.6157
  481SOL     OW 1441   1.035   1.209   0.829 -0.9111  0.2953 -0.8249
  481SOL    HW1 1442   1.020   1.302   0.789  1.3645 -2.5814  0.5717
  481SOL    HW2 1443   1.053   1.207   0.934  0.1014  0.3496 -1.3000
  482SOL     OW 1444   1.579   0.299   1.993 -0.0884  0.5729 -0.0000
  482SOL    HW1 1445   1.588   0.400   1.971 -1.4897 -2.1178 -3.3845
  482SOL    HW2 1446   1.672   0.249   2.009  1.4407  1.6925 -1.8770
  483SOL     OW 1447   0.193   2.335   1.230 -0.6157 -0.5295  0.2589
  483SOL    HW1 1448   0.162   2.418   1.287  3.8842  0.4524  1.6123
  483SOL    HW2 1449   0.186   2.367   1.128 -3.2428  0.4417 -2.1721
  484SOL     OW 1450   1.766   1.069   1.349  0.2045  0.4483  0.2453
  484SOL    HW1 1451   1.839   1.010   1.396  0.0516  0.2136  0.3721
  484SOL    HW2 1452   1.776   1.164   1.382 -0.0260 -0.8562  2.3100
  485SOL     OW 1453   0.764   0.747   1.808  0.3404 -0.2351 -0.5864
  485SOL    HW1 1454   0.752   0.814   1.731 -0.4072  3.6264 -0.0949
  485SOL    HW2 1455   0.859   0.709   1.818  1.6138  0.5816 -2.1749
  486SOL     OW 1456   0.829   1.855   2.418  0.3538 -0.1860  0.1404
  486SOL    HW1 1457   0.838   1.847   2.523 -1.1662 -1.6550  2.1832
  486SOL    HW2 1458   0.845   1.951   2.390  0.1691 -1.8365  2.0338
  487SOL     OW 1459   1.777   1.574   1.014 -0.8849  0.5357 -1.0062
  487SOL    HW1 1460   1.850   1.508   1.040 -0.4563  0.6165 -0.4217
  487SOL    HW2 1461   1.803   1.640   0.938 -0.3716 -1.2313  0.3967
  488SOL     OW 1462   2.992   0.854   2.301  0.2537  0.5261  0.3728
  488SOL    HW1 1463   3.044   0.768   2.273  0.7365  0.5336 -1.8683
  488SOL    HW2 1464   2.899   0.824   2.338 -1.5401 -1.1906 -0.1212
  489SOL     OW 1465   2.775   0.365   1.238  0.5099  0.3994  0.0084
  489SOL    HW1 1466   2.764   0.365   1.340  0.2059  2.2547 -1.0123
  489SOL    HW2 1467   2.871   0.339   1.216 -0.4941  1.3760 -0.6066
  490SOL     OW 1468   1.440   2.917   2.826 -0.2988  0.5630  0.1763
  490SOL    HW1 1469   1.491   2.828   2.851  3.4244  1.5485 -3.1423
  490SOL    HW2 1470   1.439   2.920   2.721  0.5427  1.7387  0.3542
  491SOL     OW 1471   1.729   1.493   2.690 -0.0844 -0.1605 -0.3671
  491SOL    HW1 1472   1.706   1.442   2.775  0.1762  1.2915 -1.9850
  491SOL    HW2 1473   1.821   1.541   2.696 -2.4943 -3.6430 -2.0467
  492SOL     OW 1474   0.584   2.071   0.628  0.0867  0.2331 -1.1199
  492SOL    HW1 1475   0.602   2.059   0.729  0.8722  0.2144  1.4883
  492SOL    HW2 1476   0.507   2.140   0.604  2.7709 -1.6649 -0.1081
  493SOL     OW 1477   0.472   1.379   2.089  0.5760 -0.2662 -0.2637
  493SOL    HW1 1478   0.389   1.437   2.069 -0.6132 -1.0254  2.4417
  493SOL    HW2 1479   0.450   1.275   2.102  1.1260  0.2483  2.3948
  494SOL     OW 1480   2.698   2.552   0.112 -0.0036 -0.2798  0.2198
  494SOL    HW1 1481   2.722   2.595   0.203  2.5001  1.3027  0.2785
  494SOL    HW2 1482   2.622   2.596   0.058 -0.6935 -0.2270  0.2229
  495SOL     OW 1483   2.526   2.810   2.596 -0.2009 -0.5423  0.2413
  495SOL    HW1 1484   2.542   2.707   2.619 -1.0796 -0.3491 -0.3888
  495SOL    HW2 1485   2.612   2.862   2.565  1.3828 -0.9547  0.9397
  496SOL     OW 1486   1.985   2.310   0.818  0.8252  0.0927  0.2922
  496SOL    HW1 1487   2.049   2.374   0.870  0.1268 -1.8579  0.5820
  496SOL    HW2 1488   2.017   2.209   0.827  0.2864 -3.8293 -0.4587
  497SOL     OW 1489   0.148   3.000   2.363 -0.6121 -0.2618 -0.1409
  497SOL    HW1 1490   0.106   3.063   2.439 -0.6798  0.3094 -0.6512
  497SOL    HW2 1491   0.197   3.058   2.286  0.0471  1.0544 -2.1581
  498SOL     OW 1492   1.157   1.374   1.251  0.6498  0.1510 -0.4456
  498SOL    HW1 1493   1.259   1.365   1.257 -0.5125 -1.9268  0.7614
  498SOL    HW2 1494   1.111   1.408   1.343 -1.0907 -3.3485  1.6847
  499SOL     OW 1495   0.634   1.776   0.302 -0.1670 -0.1925 -0.5145
  499SOL    HW1 1496   0.674   1.732   0.218  1.1849 -0.3140  0.4067
  499SOL    HW2 1497   0.699   1.824   0.361  2.9896  0.4428 -1.1062
  500SOL     OW 1498   1.483   2.866   1.709 -0.7574 -0.1765  0.3056
  500SOL    HW1 1499   1.472   2.882   1.811  0.6202  1.8039  1.1221
  500SOL    HW2 1500   1.527   2.774   1.678 -0.2835 -0.6859  2.8287
  501SOL     OW 1501   0.792   1.125   2.282  0.1748  0.0348 -0.7010
  501SOL    HW1 1502   0.722   1.056   2.274  1.1620 -0.9568 -1.4543
  501SOL    HW2 1503   0.821   1.165   2.193 -0.0651 -0.3555  0.3181
  502SOL     OW 1504   2.614   0.941   1.774  0.1145  0.5051 -0.1950
  502SOL    HW1 1505   2.597   0.960   1.673  0.3447 -0.1670  2.2416
  502SOL    HW2 1506   2.621   0.839   1.793 -1.3941  0.4928  1.1557
  503SOL     OW 1507   1.293   0.142   0.624  0.1341  0.1356 -0.4146
  503SOL    HW1 1508   1.220   0.219   0.637 -1.5868  1.7144 -0.1061
  503SOL    HW2 1509   1.390   0.184   0.630  2.2378  0.7899  1.5391
  504SOL     OW 1510   3.009   2.327   1.487 -0.1471  0.5181 -0.0610
  504SOL    HW1 1511   2.983   2.408   1.545  0.0912  2.4263 -0.1668
  504SOL    HW2 1512   3.069   2.255   1.538  0.7977  0.3123 -0.6553
  505SOL     OW 1513   2.275   1.171   1.410 -0.5328 -0.1621 -0.4619
  505SOL    HW1 1514   2.268   1.186   1.303 -2.2363 -0.7901 -0.1827
  505SOL    HW2 1515   2.343   1.240   1.445 -2.1100 -3.1161 -0.2408
  506SOL     OW 1516   1.949   0.182   1.828 -0.1792  0.4639 -0.3843
  506SOL    HW1 1517   2.039   0.128   1.817 -0.7306 -2.9226 -1.6980
  506SOL    HW2 1518   1.957   0.279   1.868  0.2827  0.1685  0.2901
  507SOL     OW 1519   0.572   0.728   2.208 -0.3235 -0.1241 -0.1591
  507SOL    HW1 1520   0.482   0.682   2.176 -0.1521 -1.0016 -0.9133
  507SOL    HW2 1521   0.647   0.658   2.217 -2.8412  3.2606 -2.3969
  508SOL     OW 1522   0.328   1.659   0.766  0.1619 -0.3656 -0.5450
  508SOL    HW1 1523   0.376   1.712   0.687  0.3209 -0.3265 -1.7812
  508SOL    HW2 1524   0.293   1.725   0.844 -1.7888  1.4443  1.0074
  509SOL     OW 1525   1.302   1.194   2.474  0.4917 -0.3121 -0.2891
  509SOL    HW1 1526   1.325   1.161   2.375 -1.1012  1.6697 -1.2937
  509SOL    HW2 1527   1.203   1.186   2.501 -0.7319 -1.6209 -2.0296
  510SOL     OW 1528   1.321   2.069   2.220 -0.7191 -0.0494 -0.2731
  510SOL    HW1 1529   1.352   2.071   2.120 -1.1580 -0.0945  1.4494
  510SOL    HW2 1530   1.270   1.985   2.240 -0.6668  3.1685  0.4185
  511SOL     OW 1531   3.023   2.734   1.267 -0.0848 -0.2106 -0.7496
  511SOL    HW1 1532   3.045   2.745   1.162  0.5774 -0.9432 -1.7855
  511SOL    HW2 1533   2.919   2.722   1.290  1.5964 -0.8284  1.3760
  512SOL     OW 1534   2.377   0.418   1.399 -0.0539  0.2596 -0.2742
  512SOL    HW1 1535   2.278   0.424   1.359  1.0007 -1.2459 -1.5134
  512SOL    HW2 1536   2.450   0.380   1.335 -1.7801  1.4827  1.1336
  513SOL     OW 1537   2.588   2.153   0.942 -0.4406  0.1719  0.0848
  513SOL    HW1 1538   2.530   2.181   0.859  2.1923  0.0291  0.9820
  513SOL    HW2 1539   2.686   2.132   0.915 -0.0525 -0.7657 -0.1990
  514SOL     OW 1540   0.673   2.717   0.401  0.0499 -0.0127 -0.2531
  514SOL    HW1 1541   0.698   2.697   0.304 -1.5445  0.6420 -1.9082
  514SOL    HW2 1542   0.706   2.810   0.436  0.8591 -0.8354 -0.1415
  515SOL     OW 1543   1.924   1.367   2.410 -0.1619  0.2511 -0.3126
  515SOL    HW1 1544   1.916   1.317   2.315  0.0371 -0.6889  1.7480
  515SOL    HW2 1545   1.873   1.311   2.479  0.8793  2.4230  1.9015
  516SOL     OW 1546   0.271   0.291   1.888  0.0314  0.5384  0.2648
  516SOL    HW1 1547   0.368   0.253   1.887  1.6924 -1.0512  0.5023
  516SOL    HW2 1548   0.203   0.219   1.862  1.5402  1.9832  1.2156
  517SOL     OW 1549   0.498   0.176   1.157 -0.0116  0.2144 -0.4505
  517SOL    HW1 1550   0.569   0.155   1.232  0.5996 -0.8006  0.1024
  517SOL    HW2 1551   0.416   0.104   1.155 -2.4239 -3.2932 -1.2196
  518SOL     OW 1552   2.149   3.067   1.789 -0.0156  0.1060  0.2188
  518SOL    HW1 1553   2.233   3.126   1.827 -1.1550  2.7520  0.5524
  518SOL    HW2 1554   2.164   3.030   1.689 -0.3449  0.8351 -3.2281
  519SOL     OW 1555   2.339   2.154   2.517 -0.0998 -0.6144 -0.3074
  519SOL    HW1 1556   2.323   2.149   2.621 -0.5909  1.3556  0.9871
  519SOL    HW2 1557   2.357   2.258   2.493  0.9772 -0.8867  1.4941
  520SOL     OW 1558   1.844   2.751   1.718 -0.1758 -0.0171  0.1264
  520SOL    HW1 1559   1.759   2.704   1.753 -1.1174  2.4258  3.1246
  520SOL    HW2 1560   1.926   2.686   1.692 -2.4187  0.5560  2.5939
  521SOL     OW 1561   0.553   0.027   2.107  0.0857 -0.4896 -0.2130
  521SOL    HW1 1562   0.456   0.019   2.138 -0.5517 -0.4690 -0.1619
  521SOL    HW2 1563   0.615   0.059   2.189  1.4860 -0.3552 -0.5286
  522SOL     OW 1564   0.234   1.872   1.468 -0.1208 -0.0278  0.4806
  522SOL    HW1 1565   0.272   1.925   1.546 -1.3998 -1.8299 -1.3159
  522SOL    HW2 1566   0.183   1.930   1.398  2.8866  1.7993 -0.1590
  523SOL     OW 1567   2.160   2.920   1.537  0.6416 -0.1940 -0.6820
  523SOL    HW1 1568   2.221   2.834   1.536  1.5460 -3.0214 -0.7512
  523SOL    HW2 1569   2.066   2.904   1.502  1.6697  4.2435  1.8500
  524SOL     OW 1570   0.192   2.783   2.815 -0.6473  0.1158 -0.0207
  524SOL    HW1 1571   0.152   2.858   2.866 -0.0617 -3.5582  1.1712
  524SOL    HW2 1572   0.292   2.799   2.782 -0.6427  1.9279  0.3972
  525SOL     OW 1573   2.136   2.048   0.479  0.5713 -0.1482  0.2475
  525SOL    HW1 1574   2.141   1.995   0.573  4.2824  1.1993  0.3751
  525SOL    HW2 1575   2.174   1.989   0.405 -0.2803  0.2005  0.7462
  526SOL     OW 1576   0.413   1.536   1.823 -0.8177  0.4851  0.2515
  526SOL    HW1 1577   0.504   1.597   1.826  2.8932  1.5201 -1.2390
  526SOL    HW2 1578   0.427   1.432   1.825 -1.7452 -2.4646  1.1576
  527SOL     OW 1579   1.062   2.937   1.238 -0.5657 -0.0847 -0.1492
  527SOL    HW1 1580   1.130   2.870   1.279  0.4441  0.8428 -2.8507
  527SOL    HW2 1581   1.101   3.031   1.225  2.3622 -0.9584  1.6226
  528SOL     OW 1582   1.358   2.361   0.557  0.6883  0.5159  0.0551
  528SOL    HW1 1583   1.398   2.264   0.571  1.7615 -2.0112  0.0962
  528SOL    HW2 1584   1.400   2.432   0.617 -1.6953 -2.9343 -0.6546
  529SOL     OW 1585   1.888   1.732   0.816  0.1913 -0.2867  0.3229
  529SOL    HW1 1586   1.824   1.734   0.731 -1.8728 -2.0451 -0.9809
  529SOL    HW2 1587   1.917   1.829   0.847 -0.9338 -0.5422  1.8274
  530SOL     OW 1588   0.443   2.494   0.175  0.2572  0.3448 -0.5762
  530SOL    HW1 1589   0.465   2.450   0.261  1.2553  2.6445 -0.3304
  530SOL    HW2 1590   0.440   2.428   0.093 -1.7555 -1.0651 -2.1601
  531SOL     OW 1591   1.851   1.017   1.077  0.0069 -0.7154 -0.1095
  531SOL    HW1 1592   1.820   1.004   0.974 -3.0281  0.0495 -0.4235
  531SOL    HW2 1593   1.775   0.996   1.145 -1.3265 -0.5972  1.3492
  532SOL     OW 1594   0.322   1.223   0.709 -1.0769  0.7326  0.0137
  532SOL    HW1 1595   0.371   1.195   0.620  1.2837 -1.6982 -0.6974
  532SOL    HW2 1596   0.296   1.133   0.758  0.0614 -0.0162  0.4950
  533SOL     OW 1597   1.818   0.034   2.525 -0.3509 -0.2099 -0.1476
  533SOL    HW1 1598   1.921   0.009   2.527 -1.1805 -0.2833  0.4224
  533SOL    HW2 1599   1.788   0.088   2.609 -2.1584  2.1722  0.4322
  534SOL     OW 1600   0.215   0.178   1.523 -0.8348  0.1288 -0.1832
  534SOL    HW1 1601   0.309   0.217   1.511  0.5864 -2.4999  2.2572
  534SOL    HW2 1602   0.144   0.244   1.550 -0.0388 -0.4466 -0.1989
  535SOL     OW 1603   1.862   0.329   0.199 -0.7168 -0.7908  0.6608
  535SOL    HW1 1604   1.935   0.382   0.239 -2.7951 -0.9814 -2.2873
  535SOL    HW2 1605   1.804   0.294   0.278 -1.4596 -0.2017  0.2620
  536SOL     OW 1606   1.240   2.624   0.928  0.2161 -0.1404 -0.4220
  536SOL    HW1 1607   1.207   2.532   0.957 -2.4574  2.2968  2.5972
  536SOL    HW2 1608   1.163   2.678   0.877  2.6657 -0.0086 -3.4892
  537SOL     OW 1609   0.911   0.214   2.363  0.0699  0.0315  0.4054
  537SOL    HW1 1610   0.920   0.229   2.257  2.0890 -3.2926  0.7276
  537SOL    HW2 1611   0.861   0.122   2.379 -2.1288  1.1505 -0.7394
  538SOL     OW 1612   1.677   2.364   1.524 -0.1815 -0.0471 -0.3708
  538SOL    HW1 1613   1.649   2.272   1.492 -1.7146 -0.1384  1.8667
  538SOL    HW2 1614   1.777   2.388   1.502  1.4271  1.8110  1.5346
  539SOL     OW 1615   0.180   1.623   2.709 -0.3073 -0.3173 -0.1970
  539SOL    HW1 1616   0.091   1.609   2.665  4.9888  0.4850  1.0210
  539SOL    HW2 1617   0.199   1.718   2.746  1.8965 -2.7211 -0.8172
  540SOL     OW 1618   2.709   1.701   2.010  0.0851 -0.2042 -0.3971
  540SOL    HW1 1619   2.662   1.615   1.983 -1.4045 -1.1876 -1.5771
  540SOL    HW2 1620   2.653   1.783   1.999  1.7197  3.0759  2.3784
  541SOL     OW 1621   0.447   2.305   3.079 -0.6036  0.6094  0.1898
  541SOL    HW1 1622   0.505   2.231   3.131  2.5196 -0.3996 -0.3590
  541SOL    HW2 1623   0.352   2.277   3.044  1.8466  2.7299  1.4566
  542SOL     OW 1624   2.214   2.591   0.485  0.4524 -0.2477 -0.2059
  542SOL    HW1 1625   2.204   2.678   0.433  0.3961  1.3680  1.5641
  542SOL    HW2 1626   2.127   2.533   0.485  3.2525 -0.8108 -0.9157
  543SOL     OW 1627   0.987   1.799   1.712 -0.0578  0.0438 -0.2183
  543SOL    HW1 1628   0.993   1.834   1.810  2.7379  0.3189  1.5520
  543SOL    HW2 1629   0.918   1.852   1.651  0.0990 -0.4575  0.2339
  544SOL     OW 1630   0.903   0.417   0.219  0.1304  0.0158  0.6669
  544SOL    HW1 1631   0.896   0.338   0.285  3.8631  0.1950 -0.4065
  544SOL    HW2 1632   0.938   0.386   0.127  3.4184  1.0424  2.4605
  545SOL     OW 1633   1.165   1.704   0.604 -0.6470  0.3974 -0.0660
  545SOL    HW1 1634   1.243   1.722   0.672 -0.7820  0.4151  0.5812
  545SOL    HW2 1635   1.182   1.735   0.506 -1.9574  1.4451  0.9221
  546SOL     OW 1636   2.671   1.544   0.026 -0.4728 -0.3641 -0.0638
  546SOL    HW1 1637   2.669   1.517  -0.068 -1.2783  2.7283  1.7453
  546SOL    HW2 1638   2.573   1.550   0.063 -1.6706 -1.0386  0.7686
  547SOL     OW 1639   0.539   0.037   2.791 -0.3370 -0.1354 -0.3117
  547SOL    HW1 1640   0.620  -0.012   2.752 -2.4373 -1.0621 -1.0705
  547SOL    HW2 1641   0.472  -0.027   2.835  5.4178  1.1162 -1.4099
  548SOL     OW 1642   2.092   0.850   3.034  0.4838 -0.7750 -0.0665
  548SOL    HW1 1643   1.993   0.831   3.066 -0.6168 -3.8658 -0.1767
  548SOL    HW2 1644   2.126   0.947   3.063 -0.2086 -2.1286 -0.5162
  549SOL     OW 1645   0.617   0.424   0.161 -0.0566  0.7830  0.3802
  549SOL    HW1 1646   0.620   0.510   0.102 -2.8760 -0.0473 -0.3416
  549SOL    HW2 1647   0.693   0.407   0.230  0.2853 -1.4539  3.1779
  550SOL     OW 1648   2.562   2.870   2.884  0.5213  0.6688 -0.5733
  550SOL    HW1 1649   2.519   2.803   2.947  1.3729 -0.5732  0.2083
  550SOL    HW2 1650   2.572   2.827   2.797  0.8571  1.5964  1.9611
  551SOL     OW 1651   0.242   0.866   0.151  0.3721  1.2992 -0.0590
  551SOL    HW1 1652   0.340   0.825   0.149 -1.2545 -0.6916 -1.4232
  551SOL    HW2 1653   0.224   0.912   0.242  1.7769  0.2328  0.0492
  552SOL     OW 1654   0.786   2.803   1.900 -0.2962  0.3007  0.6596
  552SOL    HW1 1655   0.784   2.803   2.007 -1.5618  1.7796  1.5552
  552SOL    HW2 1656   0.831   2.892   1.857 -1.7580  0.1034  1.7581
  553SOL     OW 1657   3.059   2.553   0.369  0.0762 -0.3991 -0.2283
  553SOL    HW1 1658   3.033   2.454   0.340  0.3066 -0.0884 -2.2011
  553SOL    HW2 1659   3.024   2.592   0.459 -0.4124  2.4455 -0.7775
  554SOL     OW 1660   2.190   0.289   0.562  0.6085  0.1437 -0.0287
  554SOL    HW1 1661   2.242   0.261   0.473 -0.7540 -0.5787 -1.5363
  554SOL    HW2 1662   2.210   0.232   0.642 -0.7907 -1.1336 -2.3834
  555SOL     OW 1663   0.409   2.919   2.430 -0.1131 -0.1570  0.0193
  555SOL    HW1 1664   0.320   2.971   2.421 -0.8181  1.4308 -0.7192
  555SOL    HW2 1665   0.453   2.886   2.342  1.4656  1.7024 -1.4439
  556SOL     OW 1666   0.894   2.306   1.673 -0.2302  0.5700  0.3001
  556SOL    HW1 1667   0.938   2.399   1.692  0.9623  1.6055 -0.5583
  556SOL    HW2 1668   0.931   2.266   1.584 -0.8796 -0.2930  0.4828
  557SOL     OW 1669   0.147   2.109   0.128 -0.6220 -0.1612 -0.5732
  557SOL    HW1 1670   0.107   2.012   0.119 -1.6191 -0.0805  2.8024
  557SOL    HW2 1671   0.159   2.162   0.036 -0.0330 -0.6716 -0.1744
  558SOL     OW 1672   2.970   2.282   0.328  0.4086 -0.4401  0.0689
  558SOL    HW1 1673   2.867   2.286   0.331  0.8313  0.1321 -0.9160
  558SOL    HW2 1674   3.009   2.294   0.231 -1.0932 -0.2782  0.2347
  559SOL     OW 1675   0.431   2.224   1.342  0.1785  0.5762  0.0716
  559SOL    HW1 1676   0.337   2.239   1.301 -2.2148 -1.1299 -0.1875
  559SOL    HW2 1677   0.476   2.132   1.310  0.6321  1.1194 -0.4933
  560SOL     OW 1678   2.086   1.118   3.100  0.4177  0.4264 -0.0058
  560SOL    HW1 1679   2.050   1.162   3.012 -4.8205 -0.6777  0.7728
  560SOL    HW2 1680   2.084   1.189   3.177  1.8911  1.9679  0.5295
  561SOL     OW 1681   3.055   1.948   0.006 -0.1501 -0.0305  0.1436
  561SOL    HW1 1682   2.968   1.890   0.032 -2.3498 -0.3984  1.1797
  561SOL    HW2 1683   3.037   2.050  -0.017  1.0405  2.5625 -2.4172
  562SOL     OW 1684   0.890   2.162   2.366  0.4546 -0.0740 -0.4911
  562SOL    HW1 1685   0.789   2.151   2.358 -0.8374  0.7245 -0.0269
  562SOL    HW2 1686   0.923   2.203   2.455 -2.6972 -2.8980 -1.6277
  563SOL     OW 1687   0.677   2.499   2.594  0.0523 -0.8129  0.1999
  563SOL    HW1 1688   0.700   2.397   2.623 -0.0697 -3.6895  0.2833
  563SOL    HW2 1689   0.648   2.557   2.675  0.8386 -2.7048  2.2400
  564SOL     OW 1690   2.710   1.304   2.847  0.3852 -0.0106  0.0893
  564SOL    HW1 1691   2.642   1.293   2.926 -1.2245 -2.5125 -1.5368
  564SOL    HW2 1692   2.721   1.405   2.825 -0.5564  2.0922  0.1248
  565SOL     OW 1693   2.527   1.962   2.569 -0.2737  0.3961 -0.2618
  565SOL    HW1 1694   2.472   2.032   2.511  0.8694  1.1385  0.0599
  565SOL    HW2 1695   2.560   2.010   2.654  0.0513  1.8086 -1.2460
  566SOL     OW 1696   1.959   2.866   1.332  0.0593 -0.3155 -0.3798
  566SOL    HW1 1697   1.899   2.787   1.303 -0.9769 -1.2655 -0.4140
  566SOL    HW2 1698   2.027   2.896   1.261 -2.5220  3.5540 -0.5332
  567SOL     OW 1699   2.429   0.122   2.207 -0.8527 -0.3580 -0.4481
  567SOL    HW1 1700   2.457   0.127   2.109  0.9036  1.9775  0.2912
  567SOL    HW2 1701   2.337   0.169   2.222  1.8010 -1.8085 -1.7635
  568SOL     OW 1702   1.499   1.829   0.360 -0.0234 -0.0272 -0.8043
  568SOL    HW1 1703   1.423   1.856   0.299  3.2801 -0.8332  2.2704
  568SOL    HW2 1704   1.593   1.860   0.326  1.1939 -0.8970  0.4371
  569SOL     OW 1705   0.280   0.626   0.792 -0.7839 -0.0577  0.0727
  569SOL    HW1 1706   0.350   0.557   0.746 -0.7235 -3.3708  1.5621
  569SOL    HW2 1707   0.177   0.587   0.800 -1.1933 -1.2338 -2.7862
  570SOL     OW 1708   0.629   0.770   2.838  0.2809  0.2731 -0.1185
  570SOL    HW1 1709   0.693   0.789   2.758  1.6135  0.9569  2.4356
  570SOL    HW2 1710   0.611   0.855   2.901 -0.0014  0.9514  0.1542
  571SOL     OW 1711   0.833   3.059   1.109  0.5133  0.4903  0.5783
  571SOL    HW1 1712   0.870   3.117   1.032  0.2131 -1.6323 -1.7601
  571SOL    HW2 1713   0.901   2.995   1.156  0.6671 -0.3236 -0.0245
  572SOL     OW 1714   1.552   2.619   1.163  0.1430  0.5660  0.2507
  572SOL    HW1 1715   1.506   2.553   1.231  1.3294 -0.6782  1.8276
  572SOL    HW2 1716   1.502   2.711   1.150 -1.6046  1.8176 -0.4063
  573SOL     OW 1717   2.945   0.420   2.077  0.2968  0.6818 -0.1311
  573SOL    HW1 1718   2.888   0.332   2.096 -2.1325 -1.5448 -0.9034
  573SOL    HW2 1719   2.881   0.497   2.057  0.8812  0.8497 -0.4130
  574SOL     OW 1720   0.222   1.781   1.003 -0.2761  0.1123 -0.0452
  574SOL    HW1 1721   0.190   1.876   0.966 -1.0367  1.4864  0.8048
  574SOL    HW2 1722   0.154   1.732   1.069  0.8385  1.2578  1.2935
  575SOL     OW 1723   0.853   2.154   0.980 -0.8313  0.4572 -0.2819
  575SOL    HW1 1724   0.856   2.172   1.082 -0.2140 -0.0621 -0.3247
  575SOL    HW2 1725   0.895   2.227   0.922 -0.9072  0.5702  1.6112
  576SOL     OW 1726   2.916   2.903   1.720  0.3643 -0.3399 -0.1971
  576SOL    HW1 1727   2.877   2.844   1.643  2.8155  1.4820  1.1875
  576SOL    HW2 1728   2.932   3.001   1.685  1.2938 -1.4742  0.0139
  577SOL     OW 1729   2.557   1.257   3.083  0.0248 -0.6052  0.1352
  577SOL    HW1 1730   2.559   1.159   3.038 -0.3448  1.9078 -0.6037
  577SOL    HW2 1731   2.621   1.266   3.166 -0.3853  0.0912 -0.7009
  578SOL     OW 1732   1.307   2.694   2.552  0.6482 -0.0416  0.8341
  578SOL    HW1 1733   1.228   2.670   2.492  2.4718  2.2227 -0.1198
  578SOL    HW2 1734   1.314   2.792   2.570 -2.3623 -0.1551  4.3490
  579SOL     OW 1735   0.123   2.485   0.168 -0.2291  0.2348 -0.6166
  579SOL    HW1 1736   0.067   2.541   0.235  0.8136 -0.1900 -1.7392
  579SOL    HW2 1737   0.187   2.416   0.213  1.1876 -0.1287 -1.5505
  580SOL     OW 1738   1.017   2.668   0.386 -0.0334 -0.2436  0.0961
  580SOL    HW1 1739   1.103   2.691   0.334  0.6607  0.4370  2.7822
  580SOL    HW2 1740   0.955   2.600   0.344  1.5079  1.4824  0.1619
  581SOL     OW 1741   1.226   2.638   1.494  0.4885  0.0655  0.5485
  581SOL    HW1 1742   1.282   2.559   1.456  0.8192 -1.4018  1.3286
  581SOL    HW2 1743   1.257   2.736   1.475 -1.8798  2.0023  1.3944
  582SOL     OW 1744   1.501   0.072   1.851  0.2290  0.3712  0.0005
  582SOL    HW1 1745   1.498   0.167   1.894  2.0195  0.1122 -0.4713
  582SOL    HW2 1746   1.590   0.052   1.807 -0.2639  0.4489 -1.2149
  583SOL     OW 1747   2.465   2.984   0.558  0.2254 -0.0831 -0.4701
  583SOL    HW1 1748   2.508   2.907   0.503 -0.0734 -1.8553 -0.0887
  583SOL    HW2 1749   2.416   2.957   0.642  3.1526 -2.3354 -2.5383
  584SOL     OW 1750   1.594   1.009   2.137  0.5546  0.2242 -0.2005
  584SOL    HW1 1751   1.642   1.069   2.067  1.0989 -0.7034 -0.4616
  584SOL    HW2 1752   1.643   1.010   2.228  0.2845  0.2102 -2.5177
  585SOL     OW 1753   2.080   2.634   2.885 -0.1593 -0.4712 -0.5534
  585SOL    HW1 1754   2.079   2.549   2.842  0.6660  2.6988  0.2942
  585SOL    HW2 1755   1.984   2.673   2.896 -0.8758 -1.2932 -0.1568
  586SOL     OW 1756   2.745   0.261   1.558  0.1009 -0.1886 -0.5332
  586SOL    HW1 1757   2.756   0.337   1.631 -1.4160 -2.5641 -0.4199
  586SOL    HW2 1758   2.653   0.221   1.574 -2.8409  1.6629 -0.9995
  587SOL     OW 1759   1.965   1.641   2.728  0.1151 -0.4692  0.1240
  587SOL    HW1 1760   2.025   1.578   2.679  0.7773 -0.1735  1.9707
  587SOL    HW2 1761   1.983   1.637   2.831 -0.2801  4.1111 -1.1558
  588SOL     OW 1762   0.492   2.706   2.224  0.1066 -0.2260 -0.2274
  588SOL    HW1 1763   0.398   2.728   2.189 -0.5797 -1.1398 -0.6784
  588SOL    HW2 1764   0.498   2.650   2.314  2.0885  2.5814  0.6488
  589SOL     OW 1765   2.120   1.448   2.587 -0.5760  0.0660 -0.0281
  589SOL    HW1 1766   2.053   1.398   2.530 -0.9181  0.5988  1.9229
  589SOL    HW2 1767   2.211   1.400   2.604 -0.0701 -1.2797  2.2034
  590SOL     OW 1768   2.362   1.698   1.998 -0.2170 -0.4143 -0.1596
  590SOL    HW1 1769   2.430   1.621   1.989 -2.5010 -0.7346  1.1446
  590SOL    HW2 1770   2.357   1.745   2.089 -0.4169  2.5301 -1.3689
  591SOL     OW 1771   1.384   2.444   0.300  0.3890 -0.6669 -0.2385
  591SOL    HW1 1772   1.472   2.443   0.246  0.9330 -2.8031  0.9881
  591SOL    HW2 1773   1.390   2.395   0.390 -0.3477  0.4872 -2.1677
  592SOL     OW 1774   1.723   2.329   0.770  0.2890  0.2970 -0.0499
  592SOL    HW1 1775   1.696   2.338   0.668 -0.9593  0.3020 -2.5126
  592SOL    HW2 1776   1.826   2.342   0.787 -2.4365 -1.0747  0.0960
  593SOL     OW 1777   0.654   0.152   0.051  0.3558  0.7250  0.2766
  593SOL    HW1 1778   0.723   0.154  -0.023 -0.5699  2.0547 -1.8615
  593SOL    HW2 1779   0.634   0.242   0.090 -0.5840 -2.0679 -2.3066
  594SOL     OW 1780   0.921   1.939   2.682 -0.0949 -0.3045 -0.0635
  594SOL    HW1 1781   1.010   1.986   2.704  1.0218 -1.8326  1.3351
  594SOL    HW2 1782   0.837   1.987   2.720  0.1465 -2.4567  0.7208
  595SOL     OW 1783   1.526   0.031   1.065  0.1925  0.2667 -0.2998
  595SOL    HW1 1784   1.609  -0.034   1.063 -0.8049  2.2273 -1.0026
  595SOL    HW2 1785   1.458   0.008   0.985  0.0766  1.1997 -1.0483
  596SOL     OW 1786   0.005   1.417   2.242 -0.0613  0.4077 -0.1010
  596SOL    HW1 1787  -0.089   1.455   2.253 -3.4237  1.2078 -1.4796
  596SOL    HW2 1788   0.044   1.352   2.319  0.9845 -0.9586 -0.3218
  597SOL     OW 1789   2.061   2.599   1.626 -0.0487 -0.3355 -0.6410
  597SOL    HW1 1790   2.099   2.536   1.558 -1.4684 -0.5721 -1.9973
  597SOL    HW2 1791   2.133   2.632   1.693  2.8844  0.2040  1.7406
  598SOL     OW 1792   2.503   2.919   1.327 -0.2208  0.5585  1.1885
  598SOL    HW1 1793   2.599   2.944   1.363  2.7892 -0.6236  1.0516
  598SOL    HW2 1794   2.506   2.883   1.228 -1.6989  0.4353  0.2532
  599SOL     OW 1795   2.899   0.379   2.466  0.0233  0.0785  0.0086
  599SOL    HW1 1796   2.995   0.414   2.458 -0.9687 -1.2675 -2.2554
  599SOL    HW2 1797   2.832   0.426   2.403 -1.9581 -0.5499 -1.0564
  600SOL     OW 1798   2.822   1.090   2.709 -0.6610  0.3742 -0.4797
  600SOL    HW1 1799   2.774   0.999   2.718 -2.5265 -1.4326  1.5023
  600SOL    HW2 1800   2.776   1.169   2.757 -1.5869  0.5760 -0.9003
  601SOL     OW 1801   2.991   1.243   2.018  0.5262 -0.1288  0.0587
  601SOL    HW1 1802   2.918   1.289   1.966  1.8072 -2.5457  0.9489
  601SOL    HW2 1803   3.045   1.316   2.072 -0.1827  0.3844 -0.2863
  602SOL     OW 1804   1.495   1.716   2.347 -0.3072 -0.3484  0.0090
  602SOL    HW1 1805   1.439   1.622   2.346 -1.3686  1.3080  2.7782
  602SOL    HW2 1806   1.599   1.702   2.363  0.7445 -0.3196 -1.5567
  603SOL     OW 1807   0.639   1.245   2.704  0.4871 -0.0114  0.1025
  603SOL    HW1 1808   0.558   1.233   2.638 -1.0496 -1.4340  0.7053
  603SOL    HW2 1809   0.714   1.177   2.698 -1.9630 -1.7606  1.1940
  604SOL     OW 1810   2.414   0.965   0.147 -0.2560  0.2909  0.0191
  604SOL    HW1 1811   2.461   1.023   0.078  0.7517  0.4103  1.5160
  604SOL    HW2 1812   2.405   0.864   0.111 -0.3137 -0.6262 -3.3514
  605SOL     OW 1813   2.691   1.159   1.957 -0.3019  0.0445 -0.2521
  605SOL    HW1 1814   2.663   1.073   1.908 -0.2810  2.9996  1.3854
  605SOL    HW2 1815   2.647   1.169   2.051 -0.4128 -0.6679 -1.9123
  606SOL     OW 1816   1.528   2.533   2.626 -0.2097 -0.0773 -0.0662
  606SOL    HW1 1817   1.444   2.592   2.594 -0.1290  4.0927  0.2242
  606SOL    HW2 1818   1.518   2.433   2.605 -1.7843  1.0106 -0.2586
  607SOL     OW 1819   1.374   1.588   0.403  0.3548 -0.5597 -0.5665
  607SOL    HW1 1820   1.319   1.583   0.489  2.1769  3.0479 -2.4097
  607SOL    HW2 1821   1.397   1.686   0.381  0.9122 -1.1442 -2.5257
  608SOL     OW 1822   1.427   2.852   0.449  0.6464 -0.9139 -0.6938
  608SOL    HW1 1823   1.504   2.903   0.402  1.7818  0.0302  0.8914
  608SOL    HW2 1824   1.358   2.912   0.495  0.6248 -1.8099  0.8275
  609SOL     OW 1825   1.287   1.365   0.281  0.1142 -0.2048 -0.0680
  609SOL    HW1 1826   1.318   1.461   0.322  0.3258 -0.1001 -0.4346
  609SOL    HW2 1827   1.193   1.339   0.314  1.1504  1.1571  1.7011
  610SOL     OW 1828   2.966   1.118   2.256 -0.0096 -0.1815 -0.4175
  610SOL    HW1 1829   2.977   1.016   2.267  0.6366  1.8895 -1.0211
  610SOL    HW2 1830   2.941   1.148   2.159  2.0028  1.1185 -0.0229
  611SOL     OW 1831   2.517   0.291   1.145  0.0272 -0.0171  0.0721
  611SOL    HW1 1832   2.467   0.210   1.190 -1.0973  0.3477 -0.6062
  611SOL    HW2 1833   2.616   0.302   1.175  1.1143  0.8431  0.7488
  612SOL     OW 1834   0.799   2.232   1.258  0.7181  0.3716  0.1027
  612SOL    HW1 1835   0.738   2.151   1.278 -0.5463 -0.4020 -0.1904
  612SOL    HW2 1836   0.752   2.316   1.222  1.6014 -1.9510 -3.9098
  613SOL     OW 1837   0.879   1.472   2.398 -0.2885 -0.3124 -0.0502
  613SOL    HW1 1838   0.940   1.471   2.315 -0.1984  0.4648 -0.9202
  613SOL    HW2 1839   0.782   1.440   2.370 -1.0190  1.2422  0.1475
  614SOL     OW 1840   1.664   1.611   1.863 -0.3532 -0.0422  0.6022
  614SOL    HW1 1841   1.670   1.713   1.858  1.4939 -0.1978  1.2538
  614SOL    HW2 1842   1.713   1.572   1.946  1.6253 -1.1733 -0.7536
  615SOL     OW 1843   0.847   1.274   1.688 -0.3393 -0.7045 -0.4413
  615SOL    HW1 1844   0.771   1.250   1.622 -3.1518  2.3602 -0.6980
  615SOL    HW2 1845   0.875   1.373   1.687  2.1342  2.9722 -0.2154
  616SOL     OW 1846   1.107   1.598   2.219 -0.3352  0.3487  0.4355
  616SOL    HW1 1847   1.022   1.574   2.163 -4.1741  1.4229  1.2256
  616SOL    HW2 1848   1.114   1.697   2.246 -1.0357  1.7665  2.2554
  617SOL     OW 1849   2.926   1.528   1.608 -0.6124  0.2659 -0.3905
  617SOL    HW1 1850   2.888   1.442   1.651 -0.4607 -0.8397  2.6143
  617SOL    HW2 1851   2.988   1.504   1.524 -0.2234 -1.3128 -0.3829
  618SOL     OW 1852   1.893   2.091   1.359  0.1375  0.0192  0.0056
  618SOL    HW1 1853   1.905   2.161   1.284 -0.8371 -2.9859 -2.0746
  618SOL    HW2 1854   1.895   2.002   1.313  1.1581 -0.0458 -0.6320
  619SOL     OW 1855   1.757   0.481   2.383 -0.3227  0.9116  0.3787
  619SOL    HW1 1856   1.706   0.523   2.302  2.1386 -0.9547  0.2532
  619SOL    HW2 1857   1.756   0.378   2.382 -0.2816  2.2096 -1.8786
  620SOL     OW 1858   2.304   2.898   0.772  0.2919  0.4936  0.1424
  620SOL    HW1 1859   2.211   2.928   0.793 -1.3536  0.6790 -1.2599
  620SOL    HW2 1860   2.336   2.823   0.838 -0.9221  0.2522 -1.1840
  621SOL     OW 1861   2.141   1.803   1.350  0.8344 -0.1250 -0.4518
  621SOL    HW1 1862   2.133   1.845   1.448 -1.4423  2.5672 -0.0848
  621SOL    HW2 1863   2.073   1.730   1.332  0.6357  2.7940 -1.0386
  622SOL     OW 1864   2.274   0.926   1.840 -0.3129 -0.1292 -0.2832
  622SOL    HW1 1865   2.369   0.911   1.806 -1.4876 -2.1903  0.3933
  622SOL    HW2 1866   2.230   0.837   1.882  0.4967 -1.7882  0.6827
  623SOL     OW 1867   1.350   0.799   2.410 -0.4073  0.1348 -0.5191
  623SOL    HW1 1868   1.276   0.744   2.449 -0.2507  4.3607 -0.9637
  623SOL    HW2 1869   1.301   0.866   2.351  1.9484 -0.6691  1.2524
  624SOL     OW 1870   0.546   0.660   3.081  0.6990  0.8337  0.0539
  624SOL    HW1 1871   0.580   0.689   2.987 -0.2508  0.8892  2.1472
  624SOL    HW2 1872   0.566   0.721   3.161  1.6497 -2.2600  0.9095
  625SOL     OW 1873   2.783   1.732   1.002 -0.0193  0.5166 -0.2249
  625SOL    HW1 1874   2.687   1.774   0.997  0.9247 -0.1314  1.8467
  625SOL    HW2 1875   2.850   1.804   1.033 -0.6635 -0.8575  0.2657
  626SOL     OW 1876   0.616   2.669   1.703  0.1303  0.4992  0.0901
  626SOL    HW1 1877   0.658   2.709   1.788 -3.2687  1.8530  0.3530
  626SOL    HW2 1878   0.515   2.667   1.708  0.0697  0.3515 -0.3219
  627SOL     OW 1879   0.666   0.902   1.576  0.5084  0.5293  0.2098
  627SOL    HW1 1880   0.575   0.905   1.515 -0.4522 -1.0301 -1.4381
  627SOL    HW2 1881   0.754   0.912   1.522  0.3708  2.7013 -0.1425
  628SOL     OW 1882   2.471   0.184   0.688  1.1871  0.0048 -0.6461
  628SOL    HW1 1883   2.502   0.102   0.632 -2.5803  1.7129 -3.3355
  628SOL    HW2 1884   2.374   0.173   0.728 -1.0928  0.0775  0.4179
  629SOL     OW 1885   1.903   0.916   2.016  0.0418  0.5688  0.8248
  629SOL    HW1 1886   1.927   0.976   1.936  0.7790 -1.4686  0.8456
  629SOL    HW2 1887   1.862   0.972   2.094 -0.0784 -0.5643  2.7542
  630SOL     OW 1888   2.940   2.331   0.787  0.4083  0.0114  0.5087
  630SOL    HW1 1889   2.862   2.398   0.792  0.4329 -0.5788 -1.7549
  630SOL    HW2 1890   2.905   2.235   0.770 -1.0770  3.5152 -0.6571
  631SOL     OW 1891   3.081   0.164   2.183  0.3563  0.1848  0.3780
  631SOL    HW1 1892   3.064   0.202   2.281 -1.8980  0.1022 -1.3234
  631SOL    HW2 1893   3.086   0.233   2.109 -0.0629  0.4688  1.0040
  632SOL     OW 1894   2.461   2.590   0.619  0.2084  0.6633  0.4201
  632SOL    HW1 1895   2.515   2.671   0.667  0.2203  2.8557  1.5952
  632SOL    HW2 1896   2.378   2.616   0.560  0.1866 -2.1745  1.1424
  633SOL     OW 1897   1.479   1.201   2.674 -0.3489 -0.4770 -0.1132
  633SOL    HW1 1898   1.466   1.277   2.740 -0.4240  1.2698 -1.7551
  633SOL    HW2 1899   1.418   1.210   2.595 -0.1956  0.7582  2.6052
  634SOL     OW 1900   0.630   2.011   0.906 -0.1780 -0.3649  0.1718
  634SOL    HW1 1901   0.549   2.041   0.966 -0.9998 -1.6130  0.0088
  634SOL    HW2 1902   0.713   2.073   0.923  1.2427 -1.3217 -0.9502
  635SOL     OW 1903   2.995   2.367   0.060 -0.0261 -0.6639  0.2774
  635SOL    HW1 1904   2.949   2.420  -0.013 -2.3860  0.3779  0.3795
  635SOL    HW2 1905   3.089   2.407   0.074 -1.1700  0.8080  2.3351
  636SOL     OW 1906   2.360   2.768   1.991  0.1607 -0.4802 -0.7124
  636SOL    HW1 1907   2.347   2.870   2.012 -1.5785  2.3648 -0.6626
  636SOL    HW2 1908   2.290   2.711   2.044 -1.3409  2.5303 -1.7141
  637SOL     OW 1909   2.772   0.627   1.978 -0.0882  0.2897 -0.0623
  637SOL    HW1 1910   2.694   0.633   1.904 -0.7901 -1.4357 -2.3572
  637SOL    HW2 1911   2.804   0.720   2.005  1.0927  2.5281  0.9955
  638SOL     OW 1912   2.417   1.844   1.315 -0.9558 -0.6601  0.1925
  638SOL    HW1 1913   2.312   1.853   1.329 -0.0342  0.6782  2.4040
  638SOL    HW2 1914   2.454   1.781   1.388 -1.1707 -0.2686  1.7359
  639SOL     OW 1915   1.307   2.201   1.707 -0.2228 -0.0862  0.5926
  639SOL    HW1 1916   1.308   2.297   1.662 -1.1073  0.1932  0.9284
  639SOL    HW2 1917   1.215   2.175   1.752  1.2697 -1.9277 -3.0565
  640SOL     OW 1918   0.202   1.198   1.538  0.4618 -0.4934  0.0817
  640SOL    HW1 1919   0.200   1.206   1.638  1.6120  2.0216 -3.7974
  640SOL    HW2 1920   0.267   1.120   1.512 -1.3029  2.2449 -1.8080
  641SOL     OW 1921   1.989   0.270   1.440  0.9836 -0.0204 -0.3358
  641SOL    HW1 1922   1.932   0.290   1.525  1.8827  0.8359 -1.4281
  641SOL    HW2 1923   2.068   0.211   1.459 -0.7162  0.5028 -1.6794
  642SOL     OW 1924   2.022   0.086   0.375  0.1548 -0.0890 -0.3841
  642SOL    HW1 1925   2.126   0.084   0.391  0.9926  4.0730 -0.9649
  642SOL    HW2 1926   1.961   0.099   0.459 -1.9761 -1.6825 -0.2282
  643SOL     OW 1927   2.919   1.819   2.159 -0.0271 -0.5331  0.1707
  643SOL    HW1 1928   2.845   1.758   2.119 -0.3030 -1.1289 -0.6699
  643SOL    HW2 1929   2.908   1.917   2.122  0.5742 -0.3991  2.0497
  644SOL     OW 1930   2.299   2.416   1.219 -0.0318 -0.4517 -0.3131
  644SOL    HW1 1931   2.352   2.330   1.182  2.1239 -2.8504  0.8313
  644SOL    HW2 1932   2.253   2.391   1.313  0.6453  0.0699 -0.5163
  645SOL     OW 1933   0.584   0.830   1.279 -0.1536  0.2653  0.5043
  645SOL    HW1 1934   0.480   0.829   1.300  1.8937 -1.9335 -1.6639
  645SOL    HW2 1935   0.603   0.821   1.178 -2.9739 -0.5634  2.5281
  646SOL     OW 1936   1.483   1.822   2.044 -0.5229  0.1174 -0.2852
  646SOL    HW1 1937   1.535   1.850   1.961  0.9427 -0.8825  0.0244
  646SOL    HW2 1938   1.547   1.798   2.122 -1.0344  3.3424  1.6310
  647SOL     OW 1939   0.861   1.098   0.632 -0.4941  0.2162  0.3488
  647SOL    HW1 1940   0.912   1.117   0.719 -1.2258  0.1034  0.7486
  647SOL    HW2 1941   0.797   1.018   0.644  1.0010 -0.1419  0.9041
  648SOL     OW 1942   0.143   0.266   0.276 -0.0255 -0.2155 -0.7122
  648SOL    HW1 1943   0.162   0.190   0.212 -1.6852 -1.3452  0.2256
  648SOL    HW2 1944   0.143   0.361   0.230 -1.3228  0.1950  0.4823
  649SOL     OW 1945   3.027   0.193   0.815 -0.1288  0.4883  0.7089
  649SOL    HW1 1946   3.105   0.128   0.840 -0.7195 -3.0136 -0.6484
  649SOL    HW2 1947   3.061   0.282   0.783  2.1354 -0.8003 -0.2054
  650SOL     OW 1948   2.710   0.653   1.550  0.0863  0.2202 -0.2859
  650SOL    HW1 1949   2.607   0.645   1.560 -0.9274  3.2472 -1.8969
  650SOL    HW2 1950   2.734   0.737   1.490 -2.1377 -0.5640 -0.3706
  651SOL     OW 1951   0.890   1.548   1.659  0.4769 -0.3626 -0.3967
  651SOL    HW1 1952   0.942   1.629   1.701  0.7023  0.6345  0.6687
  651SOL    HW2 1953   0.945   1.517   1.578 -2.5503  1.7671 -1.5496
  652SOL     OW 1954   2.388   2.431   2.464 -0.5724 -0.3157 -0.4426
  652SOL    HW1 1955   2.296   2.457   2.502  1.6976  1.0947 -0.7475
  652SOL    HW2 1956   2.411   2.489   2.382  2.3706 -1.7150  1.5230
  653SOL     OW 1957   2.720   1.253   0.188 -0.3796  0.7021  0.8867
  653SOL    HW1 1958   2.726   1.354   0.213 -1.4153  1.0577 -0.0803
  653SOL    HW2 1959   2.788   1.190   0.238  0.8464 -0.8255 -0.0933
  654SOL     OW 1960   1.274   2.216   1.297  0.1108 -0.0988  0.0692
  654SOL    HW1 1961   1.304   2.132   1.354 -2.9489  1.4030 -1.5940
  654SOL    HW2 1962   1.286   2.202   1.194  0.3498  4.4711  0.5567
  655SOL     OW 1963   0.174   0.929   1.885 -0.3885 -0.1908  0.0082
  655SOL    HW1 1964   0.249   0.895   1.817 -2.4994 -0.8760 -2.6027
  655SOL    HW2 1965   0.192   1.028   1.904  0.6528 -0.1472  0.9434
  656SOL     OW 1966   2.567   2.528   2.656 -0.4131 -0.3427 -0.3575
  656SOL    HW1 1967   2.664   2.513   2.623  1.1341 -1.2277 -0.6589
  656SOL    HW2 1968   2.500   2.494   2.587  0.2041 -2.0169  2.6246
  657SOL     OW 1969   3.007   1.018   1.812  0.1178 -0.3176  0.4425
  657SOL    HW1 1970   3.001   1.099   1.875  0.3413 -3.6455 -1.2168
  657SOL    HW2 1971   3.090   0.957   1.830  3.2004  0.9079  3.8797
  658SOL     OW 1972   1.707   0.207   2.321 -0.0510 -0.0612  1.1701
  658SOL    HW1 1973   1.762   0.149   2.395 -2.7078 -2.1635  0.7689
  658SOL    HW2 1974   1.710   0.159   2.229  0.1363  0.4606 -1.7244
  659SOL     OW 1975   1.388   0.637   2.776 -0.1558  0.0068  0.4794
  659SOL    HW1 1976   1.393   0.677   2.680 -0.2824  0.4478 -1.5885
  659SOL    HW2 1977   1.303   0.667   2.820  0.0805 -2.8667  0.9544
  660SOL     OW 1978   1.412   0.338   1.446 -0.5324 -0.4453  0.5808
  660SOL    HW1 1979   1.384   0.371   1.544  1.1320  0.5592  2.9121
  660SOL    HW2 1980   1.497   0.284   1.430 -1.9315  1.2620  2.3154
  661SOL     OW 1981   2.429   1.254   0.630 -0.2622  0.0412  0.8693
  661SOL    HW1 1982   2.445   1.273   0.527  1.6380  0.9215 -0.5849
  661SOL    HW2 1983   2.378   1.338   0.673 -2.4988 -1.7164 -1.6536
  662SOL     OW 1984   1.419   0.413   1.706 -0.1510 -0.7645 -0.1528
  662SOL    HW1 1985   1.365   0.402   1.792 -2.6444  0.4919 -1.5646
  662SOL    HW2 1986   1.464   0.508   1.701  0.0913  3.4530  0.1498
  663SOL     OW 1987   0.858   1.521   2.121 -0.3576 -0.3049 -0.1613
  663SOL    HW1 1988   0.830   1.616   2.121  3.0157 -2.6265  1.0065
  663SOL    HW2 1989   0.818   1.468   2.037  0.2319 -1.1518 -0.0509
  664SOL     OW 1990   1.610   2.089   1.428  0.4429 -0.5684 -0.2360
  664SOL    HW1 1991   1.599   2.032   1.515 -0.6514 -0.2201  2.5922
  664SOL    HW2 1992   1.711   2.096   1.396 -0.7888  1.8353  1.8727
  665SOL     OW 1993   2.300   0.641   1.958  0.7010  0.1386  0.1356
  665SOL    HW1 1994   2.274   0.544   1.983  1.1384 -2.0304  0.6888
  665SOL    HW2 1995   2.368   0.689   2.024 -0.9127 -0.2578 -0.7337
  666SOL     OW 1996   0.497   2.252   0.348  0.8200  0.2539  1.2446
  666SOL    HW1 1997   0.546   2.325   0.407 -0.2482  3.4581  2.1401
  666SOL    HW2 1998   0.393   2.263   0.356  1.1457 -0.0387  1.6008
  667SOL     OW 1999   1.929   0.235   1.051  0.8212  0.2478  0.4480
  667SOL    HW1 2000   1.956   0.334   1.040  3.0688 -0.1233  0.8721
  667SOL    HW2 2001   1.857   0.220   1.125 -2.4909 -0.3143  1.2527
  668SOL     OW 2002   1.999   0.521   1.129  0.4599 -0.3320 -0.4874
  668SOL    HW1 2003   2.063   0.554   1.049 -3.9970  0.5075  0.3518
  668SOL    HW2 2004   2.046   0.529   1.223 -1.4181 -2.0590  2.7086
  669SOL     OW 2005   3.024   2.191   1.018  0.3636  0.0031 -0.1655
  669SOL    HW1 2006   3.020   2.240   0.921  2.1863  1.8106 -2.4935
  669SOL    HW2 2007   3.007   2.259   1.097  1.3294  3.3036 -2.1815
  670SOL     OW 2008   2.885   2.315   2.109 -0.2970  0.3751  0.5914
  670SOL    HW1 2009   2.798   2.324   2.160 -0.5214  2.4360 -2.2437
  670SOL    HW2 2010   2.893   2.399   2.046  0.8019 -0.8900  2.1856
  671SOL     OW 2011   1.789   1.770   1.533 -0.0867  0.3656 -0.5527
  671SOL    HW1 2012   1.809   1.798   1.435  2.9900 -2.2924 -0.3749
  671SOL    HW2 2013   1.690   1.777   1.562 -0.5367 -0.3445  0.8104
  672SOL     OW 2014   0.470   0.662   2.527  0.0037 -0.4649 -0.2873
  672SOL    HW1 2015   0.454   0.676   2.424  0.8939 -1.0868  0.0599
  672SOL    HW2 2016   0.417   0.731   2.578  0.2156  1.5694 -1.2343
  673SOL     OW 2017   0.093   1.255   1.121  0.7782 -0.5617  0.2622
  673SOL    HW1 2018   0.035   1.330   1.170  1.8418  1.2841  0.9856
  673SOL    HW2 2019   0.193   1.278   1.124 -1.2979 -1.7354  0.0515
  674SOL     OW 2020   1.630   2.989   0.312 -0.3380  0.0010 -0.0705
  674SOL    HW1 2021   1.664   3.085   0.326 -1.3597  1.0170  1.7750
  674SOL    HW2 2022   1.621   2.965   0.217 -1.1825  2.6121  2.9602
  675SOL     OW 2023   1.734   0.849   2.309 -0.2087 -0.0138 -0.3086
  675SOL    HW1 2024   1.830   0.804   2.301  2.8211  0.3197 -2.6356
  675SOL    HW2 2025   1.663   0.810   2.243  1.1245  0.1215  0.1063
  676SOL     OW 2026   2.557   1.484   1.921  0.1168 -0.0184 -0.4571
  676SOL    HW1 2027   2.510   1.465   1.833  1.5651 -3.8180  3.0835
  676SOL    HW2 2028   2.539   1.411   1.995 -1.4303 -1.6869  1.5830
  677SOL     OW 2029   1.932   0.696   0.889  0.1572 -1.0471  0.5945
  677SOL    HW1 2030   1.871   0.690   0.973 -1.7245  1.5326 -0.4777
  677SOL    HW2 2031   2.025   0.654   0.912  0.9451  4.2882 -0.9559
  678SOL     OW 2032   0.089   0.745   1.629 -0.4631 -0.2853  0.3188
  678SOL    HW1 2033   0.179   0.756   1.675 -1.0321 -0.4207 -1.8940
  678SOL    HW2 2034   0.020   0.691   1.686  0.4097  0.3550  0.5255
  679SOL     OW 2035   2.570   1.186   1.176  0.1123 -0.7110  0.3281
  679SOL    HW1 2036   2.477   1.222   1.155  0.2132  1.1119  0.9535
  679SOL    HW2 2037   2.567   1.084   1.193 -0.8254  1.1709 -2.8922
  680SOL     OW 2038   2.833   0.464   1.715  0.0798 -0.3280  0.3659
  680SOL    HW1 2039   2.799   0.546   1.657  0.8805  1.0195 -2.5221
  680SOL    HW2 2040   2.922   0.483   1.761  1.2962  1.9586 -0.3660
  681SOL     OW 2041   2.965   0.060   1.585 -0.3579 -0.0335 -0.0093
  681SOL    HW1 2042   3.030   0.042   1.511  1.2058 -1.7436 -1.9503
  681SOL    HW2 2043   2.879   0.102   1.548 -0.9653  0.1551 -0.9079
  682SOL     OW 2044   0.684   0.046   1.333  0.8321 -0.6046 -0.1728
  682SOL    HW1 2045   0.600  -0.007   1.370 -1.9682 -0.8293  0.1277
  682SOL    HW2 2046   0.723   0.007   1.243  1.6293 -0.0228 -0.2168
  683SOL     OW 2047   1.378   0.186   2.152  0.0698 -0.4999  0.0172
  683SOL    HW1 2048   1.380   0.224   2.250 -2.1480  0.9265 -0.1757
  683SOL    HW2 2049   1.460   0.216   2.094 -0.0530 -1.2969 -3.3663
  684SOL     OW 2050   1.458   2.098   0.553 -0.0473 -0.5440  0.1967
  684SOL    HW1 2051   1.493   2.021   0.613  2.6138  1.9951 -0.9987
  684SOL    HW2 2052   1.384   2.072   0.486 -1.2328 -0.3151 -1.8058
  685SOL     OW 2053   2.222   2.075   1.973 -0.4367 -0.4118 -0.1244
  685SOL    HW1 2054   2.286   2.094   1.888  0.9160 -0.9930 -1.1957
  685SOL    HW2 2055   2.269   2.011   2.040  1.8004  1.7669 -2.5185
  686SOL     OW 2056   1.458   1.815   2.833 -0.7205  0.1255 -0.0830
  686SOL    HW1 2057   1.522   1.761   2.896  0.2932 -2.2523 -0.9074
  686SOL    HW2 2058   1.358   1.808   2.858 -0.7685  0.1370 -2.0498
  687SOL     OW 2059   1.306   2.427   1.970 -0.3920  0.4523  0.0448
  687SOL    HW1 2060   1.375   2.377   1.917 -0.0233  3.6685 -0.9035
  687SOL    HW2 2061   1.347   2.453   2.064  1.3869  1.7747 -0.7232
  688SOL     OW 2062   2.024   1.522   1.782 -0.3153 -0.2131 -0.2360
  688SOL    HW1 2063   2.117   1.564   1.762  2.1889  0.3510 -3.1096
  688SOL    HW2 2064   1.992   1.469   1.697 -0.9733 -3.8252  1.1905
  689SOL     OW 2065   2.389   1.088   2.752  0.0436  0.2649  0.4565
  689SOL    HW1 2066   2.297   1.047   2.762  2.4755 -1.6766  2.0537
  689SOL    HW2 2067   2.454   1.067   2.828 -1.0633  0.1765  0.3758
  690SOL     OW 2068   2.243   2.800   0.035  0.1617  0.2329 -0.4811
  690SOL    HW1 2069   2.174   2.798  -0.037 -2.8982 -0.7298 -1.1861
  690SOL    HW2 2070   2.208   2.781   0.128 -0.9143  0.0297 -2.5330
  691SOL     OW 2071   2.580   0.402   2.086 -0.3489 -0.2549  0.2726
  691SOL    HW1 2072   2.642   0.318   2.089 -0.6457 -2.1697 -1.2586
  691SOL    HW2 2073   2.611   0.465   2.012 -1.1816 -0.1258  0.8110
  692SOL     OW 2074   2.669   1.204   0.817  0.7292  0.1089 -0.1565
  692SOL    HW1 2075   2.572   1.215   0.778  0.9318 -0.6103 -1.2040
  692SOL    HW2 2076   2.703   1.296   0.855 -0.8615 -0.1618 -2.4295
  693SOL     OW 2077   2.854   3.011   0.557 -0.1577 -0.1050 -0.5985
  693SOL    HW1 2078   2.826   3.057   0.646  1.1960 -2.2916 -0.2933
  693SOL    HW2 2079   2.809   3.046   0.473  1.2157 -0.5656 -1.3718
  694SOL     OW 2080   2.428   2.196   0.124 -0.4763  0.0366 -0.4283
  694SOL    HW1 2081   2.381   2.265   0.178  1.7872 -0.1126 -1.7998
  694SOL    HW2 2082   2.366   2.124   0.083 -0.3658  0.8141 -0.1296
  695SOL     OW 2083   0.475   2.963   1.431  0.3266  0.6576 -0.0967
  695SOL    HW1 2084   0.412   2.880   1.417  1.1258 -0.0282 -0.6357
  695SOL    HW2 2085   0.443   3.033   1.502  0.6796 -0.7518  0.5673
  696SOL     OW 2086   2.868   2.074   0.750  0.3202  0.0625  0.5993
  696SOL    HW1 2087   2.918   1.994   0.789  1.6780  1.4417 -1.5591
  696SOL    HW2 2088   2.839   2.062   0.650 -0.7100  1.8305 -0.1743
  697SOL     OW 2089   1.652   1.909   1.815  0.2915  0.4198  0.2980
  697SOL    HW1 2090   1.746   1.867   1.797  2.5468  0.5314  2.7786
  697SOL    HW2 2091   1.664   2.013   1.798 -2.3190  0.2021  2.0175
  698SOL     OW 2092   2.873   0.431   2.734  0.2471 -0.5430 -0.4947
  698SOL    HW1 2093   2.859   0.395   2.640  0.1098 -0.1542  2.3726
  698SOL    HW2 2094   2.919   0.362   2.798 -0.2691  2.2039 -1.8923
  699SOL     OW 2095   1.562   0.040   2.926  0.3991 -0.3256 -0.0971
  699SOL    HW1 2096   1.522  -0.044   2.884  4.1613  0.6163 -0.6632
  699SOL    HW2 2097   1.605   0.101   2.853 -2.3113 -0.9166 -0.4352
  700SOL     OW 2098   1.006   2.279   1.440  0.7145  0.6257 -0.1518
  700SOL    HW1 2099   1.101   2.267   1.404 -1.5983 -0.2359  0.5755
  700SOL    HW2 2100   0.927   2.240   1.376  1.6780 -0.7179  0.0322
  701SOL     OW 2101   1.924   2.887  -0.006 -0.0942  0.0105 -0.0289
  701SOL    HW1 2102   1.918   2.839   0.085  2.2510  0.7837 -1.2561
  701SOL    HW2 2103   1.925   2.987   0.021 -0.7941 -1.6583 -0.5528
  702SOL     OW 2104   2.068   1.307   1.959  0.0150  0.0242 -0.1512
  702SOL    HW1 2105   2.166   1.272   1.953 -0.8901 -0.4511 -2.0322
  702SOL    HW2 2106   2.050   1.371   1.879  0.7799  1.1008  0.7948
  703SOL     OW 2107   1.954   0.896   1.480  0.1228 -0.4564 -0.2622
  703SOL    HW1 2108   1.952   0.812   1.539 -2.2572  0.5831  0.8279
  703SOL    HW2 2109   2.032   0.957   1.509 -0.6183 -2.0104 -0.9726
  704SOL     OW 2110   0.293   2.035   1.674  0.2423  0.3949  0.2758
  704SOL    HW1 2111   0.336   1.987   1.760 -0.4470  0.1184  1.5497
  704SOL    HW2 2112   0.337   2.125   1.651  1.1925 -2.3489 -0.0815
  705SOL     OW 2113   2.465   1.528   0.860  0.4159  0.6066  0.4085
  705SOL    HW1 2114   2.407   1.501   0.783  1.4990  1.9676  0.2981
  705SOL    HW2 2115   2.551   1.472   0.877  0.5229 -0.3816 -0.8287
  706SOL     OW 2116   0.703   1.702   1.855  0.2492  0.3463  0.5864
  706SOL    HW1 2117   0.712   1.601   1.869  0.3821  0.6328  1.8394
  706SOL    HW2 2118   0.783   1.757   1.898 -2.7723 -0.0646 -1.6949
  707SOL     OW 2119   2.316   1.201   1.970 -0.6150  0.0337 -0.2835
  707SOL    HW1 2120   2.354   1.235   2.060  0.5739 -0.6881 -0.7876
  707SOL    HW2 2121   2.320   1.095   1.967 -0.0257 -0.7139 -1.6932
  708SOL     OW 2122   2.978   0.522   3.026 -0.4033 -0.2462 -0.6542
  708SOL    HW1 2123   3.037   0.579   2.964 -3.7684  1.1636  0.7663
  708SOL    HW2 2124   2.963   0.417   3.014  0.6174  0.0167  1.4925
  709SOL     OW 2125   1.893   1.890   0.355 -0.3874 -0.1176 -0.0551
  709SOL    HW1 2126   1.908   1.991   0.373  1.6737 -0.8175  0.1606
  709SOL    HW2 2127   1.899   1.870   0.252  1.8036  1.3782 -0.8667
  710SOL     OW 2128   1.743   1.623   2.440 -0.6306 -0.0993 -0.9084
  710SOL    HW1 2129   1.820   1.568   2.400  1.9237  1.2700 -0.0669
  710SOL    HW2 2130   1.730   1.582   2.538 -0.6330  0.2750  1.0295
  711SOL     OW 2131   2.581   2.909   0.993 -0.1701 -0.1320  0.7538
  711SOL    HW1 2132   2.509   2.982   0.982  0.0422 -2.0269  1.6050
  711SOL    HW2 2133   2.674   2.940   1.031  0.1794  0.1995 -0.5200
  712SOL     OW 2134   1.413   2.132   1.962 -0.4215 -0.1767 -0.0975
  712SOL    HW1 2135   1.507   2.166   1.950  0.6109  0.7503 -0.7310
  712SOL    HW2 2136   1.363   2.120   1.876 -0.1468 -1.5840 -0.5247
  713SOL     OW 2137   2.782   1.495   2.532 -0.3921 -0.5439  0.1562
  713SOL    HW1 2138   2.760   1.402   2.495 -0.8484 -0.5177  1.1962
  713SOL    HW2 2139   2.697   1.528   2.577 -0.0211 -1.5825 -0.1148
  714SOL     OW 2140   2.612   0.429   2.401  0.4762  0.1868  0.5647
  714SOL    HW1 2141   2.558   0.373   2.474 -1.9859 -0.0899  2.1010
  714SOL    HW2 2142   2.586   0.406   2.308 -0.0503 -1.7869 -0.9214
  715SOL     OW 2143   1.559   2.117   1.152 -0.4434 -0.4705  0.1688
  715SOL    HW1 2144   1.473   2.164   1.112  0.5331  1.3122  1.5914
  715SOL    HW2 2145   1.557   2.112   1.252 -0.7790 -1.3951  0.0761
  716SOL     OW 2146   1.210   0.169   1.468 -0.3971  0.0754  0.2981
  716SOL    HW1 2147   1.114   0.181   1.418 -0.3851  0.8248  1.9173
  716SOL    HW2 2148   1.284   0.251   1.448  3.5446 -1.0947 -0.0965
  717SOL     OW 2149   1.146   0.531   1.589 -0.2496 -0.3429  0.2424
  717SOL    HW1 2150   1.243   0.546   1.620 -2.8983  1.6747  1.0189
  717SOL    HW2 2151   1.143   0.505   1.490 -1.7990 -0.3149  0.3393
  718SOL     OW 2152   0.676   0.885   0.966 -0.2130  0.4899  0.3807
  718SOL    HW1 2153   0.667   0.859   0.865  0.5209 -3.4477  0.2029
  718SOL    HW2 2154   0.687   0.987   0.981 -0.7826 -3.0485 -0.0517
  719SOL     OW 2155   0.598   1.722   2.298 -0.1511 -0.3567  0.3227
  719SOL    HW1 2156   0.629   1.786   2.368  1.8724 -1.4548  1.5714
  719SOL    HW2 2157   0.623   1.619   2.312  1.4236 -0.1045 -0.5157
  720SOL     OW 2158   2.214   1.128   0.281 -0.0240  0.0631  0.0867
  720SOL    HW1 2159   2.266   1.070   0.206 -0.0661  0.1676 -2.6290
  720SOL    HW2 2160   2.239   1.095   0.378 -0.1605 -2.3983 -0.8216
  721SOL     OW 2161   2.242   3.012   2.050 -0.0465  0.8795  0.0016
  721SOL    HW1 2162   2.186   3.029   1.965 -3.3813 -1.0960  2.5295
  721SOL    HW2 2163   2.196   3.029   2.145 -1.1173  1.6677  1.4630
  722SOL     OW 2164   2.331   1.643   0.475 -0.6765  0.0043 -0.5701
  722SOL    HW1 2165   2.374   1.622   0.388 -0.1138 -2.0411  1.3843
  722SOL    HW2 2166   2.233   1.670   0.468 -0.4115  0.8428 -2.0733
  723SOL     OW 2167   2.668   2.710   1.913  0.3867  0.0348  0.0543
  723SOL    HW1 2168   2.689   2.807   1.937  1.7717  1.4876 -0.8022
  723SOL    HW2 2169   2.568   2.691   1.913 -0.3483 -0.5814 -0.3456
  724SOL     OW 2170   0.485   2.497   2.389  0.3088 -0.2914 -0.7544
  724SOL    HW1 2171   0.397   2.481   2.442 -1.3377  0.1537 -0.3677
  724SOL    HW2 2172   0.568   2.457   2.430  0.6506  1.7521 -1.0306
  725SOL     OW 2173   2.361   2.722   1.564 -0.4637 -0.0346 -0.3114
  725SOL    HW1 2174   2.436   2.783   1.531  2.2020 -1.2979 -0.9856
  725SOL    HW2 2175   2.388   2.623   1.582  2.5673 -0.3379 -0.3574
  726SOL     OW 2176   2.452   2.317   0.708  0.0935 -0.5197  0.2829
  726SOL    HW1 2177   2.441   2.402   0.645 -2.3816 -1.0539 -1.8385
  726SOL    HW2 2178   2.458   2.232   0.658  2.4217  2.8884  2.7192
  727SOL     OW 2179   0.128   3.078   0.127  1.0063 -0.1210 -0.6024
  727SOL    HW1 2180   0.198   3.134   0.071  0.7170  3.8026  0.0011
  727SOL    HW2 2181   0.055   3.033   0.072  1.1282  0.1729  0.8948
  728SOL     OW 2182   2.892   0.695   0.894 -0.1511 -0.6304 -0.9070
  728SOL    HW1 2183   2.846   0.657   0.808 -0.0031  2.1335 -1.7396
  728SOL    HW2 2184   2.837   0.681   0.978  1.5283  2.8299 -1.6869
  729SOL     OW 2185   0.039   2.536   0.740 -0.1028 -0.2796  0.1900
  729SOL    HW1 2186   0.053   2.454   0.802 -0.0011  1.8061 -0.8695
  729SOL    HW2 2187   0.108   2.533   0.666 -2.4451 -0.6313 -0.4262
  730SOL     OW 2188   2.525   0.666   0.826 -0.2458 -0.1743 -0.6674
  730SOL    HW1 2189   2.552   0.763   0.846  3.5305 -3.3586 -1.2585
  730SOL    HW2 2190   2.600   0.631   0.761 -0.4210 -2.1969  0.4647
  731SOL     OW 2191   3.100   2.181   2.421  0.3757 -0.3714  0.2221
  731SOL    HW1 2192   3.133   2.214   2.514  3.0905  0.8837 -2.4165
  731SOL    HW2 2193   3.005   2.219   2.402  0.5382 -0.4153  0.1870
  732SOL     OW 2194   1.186   2.800   2.006  0.4350  0.1322 -0.8191
  732SOL    HW1 2195   1.197   2.743   2.090 -0.1259  1.6065 -0.4422
  732SOL    HW2 2196   1.163   2.743   1.923  0.3416 -2.2043 -0.2731
  733SOL     OW 2197   3.078   0.609   2.250 -0.5428  0.3057 -0.2126
  733SOL    HW1 2198   3.150   0.648   2.184  0.4731  3.3079 -1.6531
  733SOL    HW2 2199   3.024   0.534   2.203 -0.0344  0.9550 -2.1478
  734SOL     OW 2200   1.458   0.367   2.679 -0.4209 -0.2107  0.0099
  734SOL    HW1 2201   1.475   0.444   2.749  0.0415  0.0450 -1.0098
  734SOL    HW2 2202   1.361   0.324   2.693  2.0081 -3.1959  1.7104
  735SOL     OW 2203   2.892   2.617   2.269  0.6619  0.2505 -0.0563
  735SOL    HW1 2204   2.880   2.575   2.174 -0.2336  0.4452  0.5518
  735SOL    HW2 2205   2.975   2.671   2.286 -2.5033 -2.2772  0.4042
  736SOL     OW 2206   0.919   0.438   2.510 -0.0019  0.4065 -0.0812
  736SOL    HW1 2207   0.818   0.463   2.520 -0.7649 -0.4480  0.8183
  736SOL    HW2 2208   0.942   0.358   2.440  0.8864 -0.9331 -1.4083
  737SOL     OW 2209   2.618   0.484   2.829 -0.2020  0.9109  0.1612
  737SOL    HW1 2210   2.612   0.463   2.930 -0.8719 -0.5099 -0.8911
  737SOL    HW2 2211   2.713   0.469   2.782 -0.0069 -1.3998  0.8295
  738SOL     OW 2212   1.730   1.276   2.895  0.4510 -0.2523 -0.1626
  738SOL    HW1 2213   1.830   1.245   2.887  2.8062 -1.4236  3.3623
  738SOL    HW2 2214   1.662   1.222   2.841 -0.9774 -0.9913 -1.3133
  739SOL     OW 2215   1.787   0.705   0.668  0.0208 -0.1237 -0.3165
  739SOL    HW1 2216   1.827   0.697   0.765 -0.6215  0.6035  0.3452
  739SOL    HW2 2217   1.809   0.621   0.610 -1.5724  1.0203  2.1548
  740SOL     OW 2218   1.927   1.951   2.367 -0.6115  0.1977  0.2190
  740SOL    HW1 2219   2.000   1.871   2.384 -0.2676 -1.8969  0.1399
  740SOL    HW2 2220   1.868   1.917   2.287  1.5506 -2.4343 -1.0914
  741SOL     OW 2221   2.614   0.089   2.474  0.1865  0.2174  0.5914
  741SOL    HW1 2222   2.714   0.077   2.446  0.2929  4.0350  2.3447
  741SOL    HW2 2223   2.547   0.092   2.392 -0.8421 -0.1559 -0.8822
  742SOL     OW 2224   2.171   1.376   0.129 -0.7273 -0.0752 -0.0351
  742SOL    HW1 2225   2.076   1.414   0.119  1.6433 -0.7843  1.4713
  742SOL    HW2 2226   2.176   1.304   0.201  0.5644  3.4042 -3.3953
  743SOL     OW 2227   1.775   0.634   2.621 -0.2748 -0.3251 -0.0422
  743SOL    HW1 2228   1.771   0.572   2.534  1.7978 -1.9368 -1.9699
  743SOL    HW2 2229   1.702   0.717   2.611  0.2031  1.4618  0.3607
  744SOL     OW 2230   2.695   2.026   0.032  0.4218 -1.2020 -0.0883
  744SOL    HW1 2231   2.605   2.076   0.047 -1.4567 -1.8730 -0.4804
  744SOL    HW2 2232   2.684   1.929  -0.011 -2.0210  2.7115 -0.2559
  745SOL     OW 2233   2.196   2.659   2.166 -0.9649 -0.1410  0.0427
  745SOL    HW1 2234   2.092   2.670   2.172  0.0740 -0.5243  0.7347
  745SOL    HW2 2235   2.246   2.725   2.235  1.0217 -0.4150 -0.3235
  746SOL     OW 2236   0.028   2.661   1.731 -0.6680 -0.0028  0.0817
  746SOL    HW1 2237   0.104   2.592   1.747 -0.6838 -0.8393 -3.5503
  746SOL    HW2 2238   0.006   2.726   1.810 -1.9461  1.5931  0.7662
  747SOL     OW 2239   0.020   1.794   1.648 -0.6619 -0.6561 -0.1510
  747SOL    HW1 2240  -0.025   1.708   1.627 -2.2170 -0.6502 -0.2787
  747SOL    HW2 2241   0.093   1.827   1.582  0.4073 -0.3677 -0.8321
  748SOL     OW 2242   1.829   2.733   2.885  0.2674 -0.2839  0.4678
  748SOL    HW1 2243   1.844   2.810   2.958  0.5600  2.7179  2.3605
  748SOL    HW2 2244   1.739   2.736   2.838  0.8250  2.1254 -0.9106
  749SOL     OW 2245   1.369   3.048   0.859 -0.1772 -0.0062 -0.2995
  749SOL    HW1 2246   1.289   3.036   0.803 -0.6389 -0.4837 -0.6487
  749SOL    HW2 2247   1.449   2.987   0.818  1.1272 -0.7024  1.4793
  750SOL     OW 2248   2.290   0.198   1.867  0.1469  0.1153  0.7824
  750SOL    HW1 2249   2.325   0.252   1.791  0.0739 -0.5710  3.8902
  750SOL    HW2 2250   2.286   0.255   1.955 -0.8303 -2.2744 -1.6606
  751SOL     OW 2251   0.789   2.122   2.865 -0.1365 -0.3376 -0.8230
  751SOL    HW1 2252   0.882   2.110   2.913  2.6797 -0.4272  0.4662
  751SOL    HW2 2253   0.709   2.130   2.930 -1.6117  0.6451 -1.5973
  752SOL     OW 2254   1.316   0.818   1.279 -0.3926 -0.6172 -0.2505
  752SOL    HW1 2255   1.363   0.911   1.290  0.5484  0.0430 -2.3993
  752SOL    HW2 2256   1.378   0.740   1.306  0.0075 -0.5142 -0.3544
  753SOL     OW 2257   0.919   2.574   1.820  0.7869  0.1088  0.5256
  753SOL    HW1 2258   1.022   2.593   1.810 -0.3909  1.9344 -0.0566
  753SOL    HW2 2259   0.869   2.659   1.850 -0.1314  0.5736 -1.7853
  754SOL     OW 2260   1.137   1.240   3.051  0.8066  0.3012  0.2029
  754SOL    HW1 2261   1.197   1.169   3.002  0.2818 -0.6515 -0.9658
  754SOL    HW2 2262   1.179   1.339   3.050  0.2918  0.1971 -0.4296
  755SOL     OW 2263   1.977   0.456   2.212 -0.0690  0.2569  0.3531
  755SOL    HW1 2264   2.053   0.383   2.241  3.1901 -0.0032  2.1022
  755SOL    HW2 2265   1.887   0.443   2.258  0.8784  2.2801  0.0693
  756SOL     OW 2266   2.580   1.011   2.989  0.1245  0.2010 -0.0700
  756SOL    HW1 2267   2.678   0.993   3.025  2.6754  0.9502  0.7796
  756SOL    HW2 2268   2.527   0.927   3.011  0.2652  0.3555 -1.1518
  757SOL     OW 2269   0.119   0.488   1.974  1.0555 -0.1091  0.1255
  757SOL    HW1 2270   0.183   0.420   1.931 -3.0113  0.2351  1.6372
  757SOL    HW2 2271   0.036   0.433   2.018 -1.4509 -1.9284 -0.5159
  758SOL     OW 2272   2.218   0.090   1.493 -0.4917 -0.0329  0.5404
  758SOL    HW1 2273   2.217  -0.012   1.498  1.0488 -0.2230 -1.8291
  758SOL    HW2 2274   2.299   0.122   1.433 -0.3950  0.3158  1.3601
  759SOL     OW 2275   1.698   0.090   0.064 -0.3544  0.7680  0.1289
  759SOL    HW1 2276   1.654   0.059  -0.026 -1.1405 -0.8758 -1.8698
  759SOL    HW2 2277   1.798   0.066   0.067  0.0209 -0.0610 -1.7867
  760SOL     OW 2278   2.578   2.064   2.830 -0.8578  0.7573  0.2967
  760SOL    HW1 2279   2.619   2.006   2.905 -2.5558 -0.2012 -0.3851
  760SOL    HW2 2280   2.592   2.165   2.852 -0.6989  1.9464 -0.5957
  761SOL     OW 2281   1.916   1.796   1.765 -0.0752  0.0320 -0.3718
  761SOL    HW1 2282   1.961   1.710   1.800 -1.5787 -0.8095  0.6984
  761SOL    HW2 2283   1.882   1.784   1.669  0.0268  2.3942 -1.2212
  762SOL     OW 2284   0.489   2.363   0.949  0.2038  0.2677 -0.2068
  762SOL    HW1 2285   0.536   2.404   0.863 -0.1805 -0.3717  1.2932
  762SOL    HW2 2286   0.541   2.381   1.039 -0.2189 -1.2125  0.5458
  763SOL     OW 2287   2.096   1.558   2.979  0.3237  0.3228  0.3990
  763SOL    HW1 2288   2.160   1.488   2.938 -0.2154 -1.4479 -0.1132
  763SOL    HW2 2289   2.037   1.508   3.042  1.8107  1.1398 -0.7892
  764SOL     OW 2290   0.690   0.581   0.712  0.1643 -0.6717 -0.1049
  764SOL    HW1 2291   0.599   0.534   0.719 -1.3676 -3.9825  1.1690
  764SOL    HW2 2292   0.753   0.559   0.794  1.0915 -0.8023 -0.8991
  765SOL     OW 2293   0.788   0.263   0.772 -0.5386 -0.0472  0.2807
  765SOL    HW1 2294   0.808   0.312   0.685  0.2243 -0.4426 -0.0677
  765SOL    HW2 2295   0.790   0.332   0.860 -0.7354 -1.8214  1.9686
  766SOL     OW 2296   2.898   2.154   3.011 -0.2395  0.3367 -0.0686
  766SOL    HW1 2297   2.818   2.096   3.047 -0.7059 -0.0757  0.6619
  766SOL    HW2 2298   2.912   2.235   3.069 -2.0087 -0.5698 -1.3989
  767SOL     OW 2299   2.807   1.661   0.578 -0.1737  0.0390 -0.1886
  767SOL    HW1 2300   2.721   1.692   0.627  0.5395  1.0994 -1.1795
  767SOL    HW2 2301   2.887   1.690   0.632  1.5459  2.3041 -1.6188
  768SOL     OW 2302   1.033   0.156   0.241 -0.2653  0.4932 -0.2169
  768SOL    HW1 2303   0.985   0.114   0.322 -0.9378 -4.1626  0.6466
  768SOL    HW2 2304   1.135   0.139   0.249  0.5753  0.3528  1.2175
  769SOL     OW 2305   1.127   1.847   2.321 -0.2090  0.7495 -0.0004
  769SOL    HW1 2306   1.030   1.880   2.338  1.1232 -0.1894 -1.0036
  769SOL    HW2 2307   1.174   1.817   2.410  1.0602 -1.6845  1.1720
  770SOL     OW 2308   0.164   1.128   2.309  0.0713  0.1997  0.1509
  770SOL    HW1 2309   0.156   1.191   2.394  1.9807  0.6168 -0.5029
  770SOL    HW2 2310   0.073   1.110   2.263 -0.7292 -1.4564  1.7340
  771SOL     OW 2311   3.059   2.823   1.933 -0.3223 -0.0536 -0.1450
  771SOL    HW1 2312   2.979   2.827   1.871  2.6277 -0.0803  2.0494
  771SOL    HW2 2313   3.025   2.807   2.026  0.2766  0.1358 -0.6231
  772SOL     OW 2314   2.308   0.214   2.847 -0.4407 -0.0431  0.3409
  772SOL    HW1 2315   2.359   0.129   2.816  0.9485  0.4123  1.4339
  772SOL    HW2 2316   2.323   0.231   2.944  1.0282 -0.6986 -0.9917
  773SOL     OW 2317   0.606   2.122   2.381  0.4912  0.4439 -0.4877
  773SOL    HW1 2318   0.563   2.177   2.303 -1.8215  0.3246  1.7871
  773SOL    HW2 2319   0.548   2.142   2.465 -1.3787  1.3501  0.1922
  774SOL     OW 2320   2.120   3.096   2.601  0.1572 -0.3410 -0.2002
  774SOL    HW1 2321   2.100   3.199   2.627 -1.0569  1.5721  1.0775
  774SOL    HW2 2322   2.189   3.048   2.662 -0.4708 -2.4738 -0.4414
  775SOL     OW 2323   2.562   2.976   2.224 -0.2300  0.2327 -0.0183
  775SOL    HW1 2324   2.509   3.066   2.228 -0.4486  1.6304  3.1661
  775SOL    HW2 2325   2.633   2.975   2.301 -2.5810 -1.6761  0.8943
  776SOL     OW 2326   3.082   1.260   0.178 -0.2904  0.4356  0.3369
  776SOL    HW1 2327   3.025   1.210   0.106  1.1351  0.2387  1.0945
  776SOL    HW2 2328   3.040   1.259   0.270  2.1078  1.1724  2.4357
  777SOL     OW 2329   0.432   2.942   0.417 -0.3150  0.0050 -0.3929
  777SOL    HW1 2330   0.333   2.922   0.389 -1.3741  0.6368 -0.9493
  777SOL    HW2 2331   0.495   2.885   0.360 -0.1797 -0.9864 -0.7024
  778SOL     OW 2332   1.339   1.953   0.179 -0.2026  0.0367  0.1807
  778SOL    HW1 2333   1.266   1.985   0.251 -0.5807  1.0834  0.6140
  778SOL    HW2 2334   1.389   2.034   0.133  2.4192 -0.3562  2.0365
  779SOL     OW 2335   0.180   0.895   0.455  0.4468  0.5617  0.2205
  779SOL    HW1 2336   0.152   0.793   0.435 -1.4020 -1.5948  0.6111
  779SOL    HW2 2337   0.122   0.926   0.531  1.0227  0.0462 -2.5622
  780SOL     OW 2338   0.167   0.299   2.412 -0.5377  0.8307  0.3685
  780SOL    HW1 2339   0.134   0.375   2.473 -0.0382  1.0450 -0.6731
  780SOL    HW2 2340   0.256   0.321   2.359  2.4207 -1.0164 -1.0695
  781SOL     OW 2341   0.686   1.652   1.503 -0.6837 -0.1530  0.4092
  781SOL    HW1 2342   0.752   1.617   1.577  0.3980  0.2346 -0.4549
  781SOL    HW2 2343   0.586   1.630   1.521 -1.4337 -1.7558 -0.3302
  782SOL     OW 2344   2.595   0.132   0.925  0.5635  0.4349  0.3233
  782SOL    HW1 2345   2.546   0.133   0.831 -0.6053  0.3234 -2.4477
  782SOL    HW2 2346   2.549   0.201   0.985 -1.8272  1.6735 -0.6792
  783SOL     OW 2347   2.753   0.680   2.458 -0.3681  0.1812 -0.1309
  783SOL    HW1 2348   2.791   0.679   2.557 -0.4481 -1.3647 -2.5216
  783SOL    HW2 2349   2.706   0.585   2.436  3.0342 -0.7070 -1.2564
  784SOL     OW 2350   1.412   2.181   0.067  0.5827  0.1337 -0.3625
  784SOL    HW1 2351   1.464   2.241   0.139  2.3446  2.6695  0.1952
  784SOL    HW2 2352   1.399   2.231  -0.020 -3.3086 -3.1596  2.5022
  785SOL     OW 2353   2.048   0.312   3.081  0.4887 -0.5143  0.4246
  785SOL    HW1 2354   1.963   0.331   3.141  2.6841  0.4360 -0.6817
  785SOL    HW2 2355   2.086   0.408   3.062  0.1534  1.5444  1.8788
  786SOL     OW 2356   2.024   2.178   2.243 -0.3226  0.8333 -0.3368
  786SOL    HW1 2357   1.985   2.097   2.286  3.3963  4.4742  1.1673
  786SOL    HW2 2358   2.128   2.157   2.231 -0.5931 -2.0612 -0.4353
  787SOL     OW 2359   1.327   0.542   0.921 -0.2946  0.2362 -0.0215
  787SOL    HW1 2360   1.291   0.631   0.945 -1.6056 -3.5284 -2.7482
  787SOL    HW2 2361   1.388   0.539   0.836  2.0899 -0.3395  1.3855
  788SOL     OW 2362   1.239   0.415   0.062  0.0187 -0.4841  0.3719
  788SOL    HW1 2363   1.147   0.405   0.021  0.0350  2.1251  0.5893
  788SOL    HW2 2364   1.226   0.475   0.141 -1.5511  0.5200 -1.6708
  789SOL     OW 2365   2.552   0.071   1.928 -0.0045  0.4814 -1.1804
  789SOL    HW1 2366   2.448   0.064   1.900 -0.4801  2.0748  1.3752
  789SOL    HW2 2367   2.614  -0.010   1.917 -1.0050 -1.6203 -0.9895
  790SOL     OW 2368   2.637   2.758   0.775 -0.7334  0.2142 -0.1428
  790SOL    HW1 2369   2.705   2.812   0.722  2.3224 -0.8391 -1.4873
  790SOL    HW2 2370   2.611   2.812   0.862 -0.2116 -1.0803  1.5288
  791SOL     OW 2371   1.939   1.199   0.277 -0.0627 -0.0112 -0.3682
  791SOL    HW1 2372   1.844   1.161   0.284 -1.7925 -0.8491  0.8460
  791SOL    HW2 2373   2.008   1.125   0.282  0.7624 -1.5367 -0.5176
  792SOL     OW 2374   0.375   1.754   2.130  0.6943  0.2422 -0.0614
  792SOL    HW1 2375   0.430   1.738   2.220 -0.1933  1.2067  2.1245
  792SOL    HW2 2376   0.276   1.721   2.141  1.1740 -1.4735 -0.6142
  793SOL     OW 2377   2.105   1.540   2.091  0.4315  0.2047  0.1651
  793SOL    HW1 2378   2.187   1.572   2.039 -0.7867 -1.2543  0.1513
  793SOL    HW2 2379   2.068   1.450   2.055  1.6884 -0.2370 -0.2842
  794SOL     OW 2380   0.571   1.456   2.345  0.0175 -0.0785 -0.1577
  794SOL    HW1 2381   0.540   1.444   2.246  0.7894 -0.6968  1.1596
  794SOL    HW2 2382   0.487   1.486   2.398 -1.1353 -3.3394 -2.8636
  795SOL     OW 2383   2.538   2.260   1.820 -0.1101 -0.1968 -0.6932
  795SOL    HW1 2384   2.516   2.263   1.925  1.2087  0.0699 -1.1738
  795SOL    HW2 2385   2.463   2.210   1.765 -1.1369  2.3263  0.1683
  796SOL     OW 2386   3.092   1.106   2.698  0.2826 -0.1322 -0.0831
  796SOL    HW1 2387   2.987   1.095   2.699 -2.1359  0.6007  2.9764
  796SOL    HW2 2388   3.122   1.124   2.796  0.7672  0.9814  0.8761
  797SOL     OW 2389   0.775   0.676   1.404 -0.1064  0.3303 -0.4655
  797SOL    HW1 2390   0.847   0.724   1.460 -0.2716 -3.3399  1.9288
  797SOL    HW2 2391   0.705   0.738   1.359  0.1239 -0.0962  0.9117
  798SOL     OW 2392   1.342   0.376   1.147  0.0604 -0.1529 -0.5350
  798SOL    HW1 2393   1.412   0.383   1.227 -0.5284 -1.6654 -0.0269
  798SOL    HW2 2394   1.358   0.436   1.070 -1.0543 -2.3803  1.0406
  799SOL     OW 2395   1.977   2.723   0.992 -0.1423  0.0656  0.4128
  799SOL    HW1 2396   1.891   2.704   1.056 -0.6229  0.0492  3.9397
  799SOL    HW2 2397   1.964   2.692   0.891 -0.8898  0.2954 -0.5759
  800SOL     OW 2398   3.052   0.599   1.802 -0.5286 -0.4092 -0.3518
  800SOL    HW1 2399   2.989   0.675   1.837  1.4928  0.3218 -0.5730
  800SOL    HW2 2400   3.133   0.588   1.868 -0.0695  2.5951 -2.6480
  801SOL     OW 2401   1.961   2.254   0.089  0.0758 -0.1158  0.2445
  801SOL    HW1 2402   1.871   2.206   0.075 -0.2092  0.0840 -1.9080
  801SOL    HW2 2403   2.038   2.197   0.052  2.0725  3.4756 -1.5269
  802SOL     OW 2404   0.710   0.814   2.564 -0.4521 -0.0891  0.3797
  802SOL    HW1 2405   0.772   0.814   2.480 -0.6704 -1.3908 -2.2395
  802SOL    HW2 2406   0.620   0.771   2.537  1.6787  3.4266  0.3207
  803SOL     OW 2407   0.955   0.068   0.888  0.3474 -0.6345 -0.0112
  803SOL    HW1 2408   1.050   0.106   0.907 -1.2685 -2.5429 -1.4542
  803SOL    HW2 2409   0.889   0.130   0.840 -0.3888 -2.8120  0.3609
  804SOL     OW 2410   0.270   0.034   2.175 -0.1970 -0.0722 -0.0979
  804SOL    HW1 2411   0.269   0.135   2.185 -1.1530  0.8206 -0.1103
  804SOL    HW2 2412   0.240  -0.003   2.084 -0.1538 -0.8938 -0.4290
  805SOL     OW 2413   2.448   0.247   0.309 -0.4164 -0.4166  0.6717
  805SOL    HW1 2414   2.537   0.290   0.341  0.8502  0.8803  1.2888
  805SOL    HW2 2415   2.416   0.280   0.215 -0.8651  4.0071 -1.8235
  806SOL     OW 2416   0.649   2.393   1.666 -0.5247 -0.6577 -0.3792
  806SOL    HW1 2417   0.657   2.494   1.690  0.2225 -0.0658 -2.3223
  806SOL    HW2 2418   0.744   2.353   1.653  1.5046 -0.0212  1.2310
  807SOL     OW 2419   2.386   0.949   0.451  0.5761 -0.5080 -0.1556
  807SOL    HW1 2420   2.447   0.977   0.528 -0.0737  2.1405  0.5304
  807SOL    HW2 2421   2.434   0.911   0.363  0.6400 -1.2940 -3.2772
  808SOL     OW 2422   0.527   2.024   2.979 -0.2954  0.4934 -0.3648
  808SOL    HW1 2423   0.574   2.032   3.068 -2.6031 -0.2072 -1.8618
  808SOL    HW2 2424   0.546   1.929   2.938 -0.3686  1.8610 -1.2201
  809SOL     OW 2425   2.622   1.979   1.925  1.0781  0.0708 -0.4751
  809SOL    HW1 2426   2.710   2.025   1.942 -0.6605 -1.8910 -2.3302
  809SOL    HW2 2427   2.581   1.992   1.833 -0.6707 -2.3615 -0.7658
  810SOL     OW 2428   2.107   1.043   0.555  0.2667  0.0420 -0.5054
  810SOL    HW1 2429   2.129   0.988   0.642  2.3512  0.8755 -0.8297
  810SOL    HW2 2430   2.051   1.133   0.582 -3.4795 -0.2907  0.4005
  811SOL     OW 2431   1.357   2.463   1.313  0.5679  0.7399 -0.6017
  811SOL    HW1 2432   1.332   2.360   1.316 -1.0005 -0.6513  0.1288
  811SOL    HW2 2433   1.287   2.517   1.257 -1.5090 -1.2562  1.4409
  812SOL     OW 2434   1.469   0.823   1.957 -0.2811  0.4649 -0.0608
  812SOL    HW1 2435   1.528   0.879   2.019  0.2354 -1.0639 -0.5521
  812SOL    HW2 2436   1.372   0.856   1.934  1.1428  2.8282  1.5532
  813SOL     OW 2437   1.738   2.141   2.465  0.4439 -0.0293  0.3356
  813SOL    HW1 2438   1.827   2.085   2.471  0.3193  0.9106  0.6755
  813SOL    HW2 2439   1.669   2.117   2.386 -1.8313 -1.6004 -1.2410
  814SOL     OW 2440   2.865   1.561   2.845  0.1488 -0.0757 -0.3786
  814SOL    HW1 2441   2.958   1.513   2.866 -0.5039 -0.1921 -0.6611
  814SOL    HW2 2442   2.872   1.667   2.842  0.5241 -0.7694 -1.2186
  815SOL     OW 2443   2.245   2.829   2.734 -0.5651  0.0834  0.4025
  815SOL    HW1 2444   2.207   2.737   2.777 -2.5127 -2.3408  0.2402
  815SOL    HW2 2445   2.348   2.853   2.746 -1.4633  0.8865  2.1735
  816SOL     OW 2446   1.657   0.302   1.585 -0.4731  0.4532  0.5255
  816SOL    HW1 2447   1.695   0.206   1.611  1.0498 -2.2590 -0.5254
  816SOL    HW2 2448   1.568   0.325   1.628 -0.7729  0.0437  1.0344
  817SOL     OW 2449   0.433   1.238   2.518 -0.4590 -0.5316  0.1972
  817SOL    HW1 2450   0.331   1.260   2.519  0.6191 -1.7404  1.4749
  817SOL    HW2 2451   0.486   1.278   2.441 -0.5356 -0.8871  1.6164
  818SOL     OW 2452   1.956   0.824   0.480 -0.1657 -0.6277  0.3668
  818SOL    HW1 2453   2.006   0.908   0.526 -0.5146  2.9421 -0.4137
  818SOL    HW2 2454   1.879   0.781   0.533 -0.7622 -1.2376 -0.1122
  819SOL     OW 2455   2.787   2.908   3.015 -0.1195  0.5450 -0.0027
  819SOL    HW1 2456   2.854   2.839   2.970  1.4639  0.1437  1.5972
  819SOL    HW2 2457   2.691   2.904   2.971 -1.6296 -1.0126 -0.5355
  820SOL     OW 2458   1.231   1.118   0.572 -0.0171  0.1550  1.1415
  820SOL    HW1 2459   1.238   1.218   0.614 -1.6998  0.3389  4.6530
  820SOL    HW2 2460   1.264   1.044   0.638  2.4428  3.3977 -1.4794
  821SOL     OW 2461   0.028   1.268   0.671 -0.0146  0.1159  0.3494
  821SOL    HW1 2462  -0.038   1.275   0.753  0.0479  0.4363  0.4979
  821SOL    HW2 2463   0.085   1.354   0.657 -0.3019 -3.4485 -1.2970
  822SOL     OW 2464   2.538   1.746   2.410  0.3446 -0.2755  0.1250
  822SOL    HW1 2465   2.524   1.817   2.487 -0.6787 -3.8374  0.5263
  822SOL    HW2 2466   2.466   1.763   2.334 -0.5836  0.9243 -1.0944
  823SOL     OW 2467   2.020   0.818   1.225  0.1614 -0.9572  0.1791
  823SOL    HW1 2468   1.982   0.844   1.321 -2.5296 -2.9371 -0.3967
  823SOL    HW2 2469   1.977   0.872   1.147  1.2845  1.6960  0.4539
  824SOL     OW 2470   0.134   2.052   2.787  0.1268  0.4222 -0.2154
  824SOL    HW1 2471   0.091   1.962   2.827  0.2512 -0.0146 -0.5805
  824SOL    HW2 2472   0.212   2.020   2.720  2.6633 -0.9527 -1.5704
  825SOL     OW 2473   1.284   1.098   0.236 -0.0722 -0.2147  0.1255
  825SOL    HW1 2474   1.298   1.203   0.224  1.1568  0.1947  0.0705
  825SOL    HW2 2475   1.208   1.089   0.311 -0.8916  4.4768  2.0903
  826SOL     OW 2476   1.940   0.644   1.593  0.2007  0.4634  0.0340
  826SOL    HW1 2477   2.006   0.568   1.619  2.1687  0.2769 -2.2309
  826SOL    HW2 2478   1.858   0.602   1.545 -1.2283  0.8508  0.6804
  827SOL     OW 2479   0.700   1.405   0.289 -0.5136 -0.0260 -0.2766
  827SOL    HW1 2480   0.740   1.325   0.237  3.0384  1.1090  4.3003
  827SOL    HW2 2481   0.698   1.388   0.390 -3.4146 -2.0609 -0.3645
  828SOL     OW 2482   2.476   0.094   1.617 -0.2833  0.2727  0.4360
  828SOL    HW1 2483   2.403   0.167   1.617 -0.1546  3.9256  1.3375
  828SOL    HW2 2484   2.452   0.004   1.653  0.9026 -1.1328  0.5041
  829SOL     OW 2485   2.804   2.479   2.950  0.3736 -0.5912 -0.3006
  829SOL    HW1 2486   2.751   2.391   2.930 -0.9372 -1.7627 -1.2574
  829SOL    HW2 2487   2.776   2.530   3.039 -1.1526  1.6922  0.4671
  830SOL     OW 2488   2.820   0.888   3.044  0.1528 -0.7012  0.0456
  830SOL    HW1 2489   2.903   0.949   3.031  1.6366  1.6745  1.3991
  830SOL    HW2 2490   2.830   0.820   3.125  0.6426 -0.8024  0.7628
  831SOL     OW 2491   0.029   0.651   0.373  0.5589  0.2323 -0.1867
  831SOL    HW1 2492   0.032   0.589   0.458 -2.5045  1.1503 -0.2816
  831SOL    HW2 2493   0.038   0.590   0.283  4.1379  1.7166 -2.4145
  832SOL     OW 2494   1.820   0.735   0.006 -0.1954  0.2225 -0.2215
  832SOL    HW1 2495   1.736   0.775  -0.048  0.6166  1.6844  0.0935
  832SOL    HW2 2496   1.831   0.632  -0.014 -2.9026  0.2422 -0.0031
  833SOL     OW 2497   2.424   2.112   0.528 -0.4269  0.5973  0.0740
  833SOL    HW1 2498   2.322   2.091   0.545 -0.3395 -0.0005 -0.5080
  833SOL    HW2 2499   2.484   2.032   0.491  0.7766 -1.5804 -1.4636
  834SOL     OW 2500   0.176   0.192   0.542  0.2940 -0.4550 -0.6135
  834SOL    HW1 2501   0.231   0.119   0.578 -1.5656  1.7837 -3.8695
  834SOL    HW2 2502   0.161   0.186   0.442  0.8235 -0.1022 -1.8456
  835SOL     OW 2503   2.362   1.546   1.156  0.0622  0.7013 -0.3317
  835SOL    HW1 2504   2.454   1.585   1.167 -1.7437 -1.4569 -1.9731
  835SOL    HW2 2505   2.331   1.566   1.060 -1.8717 -0.5913 -2.0827
  836SOL     OW 2506   1.575   0.832   2.558 -0.0316  0.2913 -0.2761
  836SOL    HW1 2507   1.489   0.814   2.507  0.3373  0.3014  1.1290
  836SOL    HW2 2508   1.642   0.884   2.500 -1.2216  1.2226 -1.7179
  837SOL     OW 2509   1.759   0.138   0.551 -0.0288  0.0239 -0.2551
  837SOL    HW1 2510   1.720   0.156   0.645  2.1567 -2.0196  2.6367
  837SOL    HW2 2511   1.692   0.165   0.480  0.5537  2.5238  2.7942
  838SOL     OW 2512   1.140   1.562   2.754 -0.5385  0.2812  0.8141
  838SOL    HW1 2513   1.112   1.527   2.850 -1.3652 -0.2554  1.8506
  838SOL    HW2 2514   1.126   1.497   2.672  2.7438  1.0258 -1.8499
  839SOL     OW 2515   1.588   0.304   0.984  0.3965 -0.3747  0.3062
  839SOL    HW1 2516   1.616   0.378   1.049 -1.8248  0.8031  0.5274
  839SOL    HW2 2517   1.571   0.211   1.030 -1.4185 -2.3022 -1.2920
  840SOL     OW 2518   2.480   2.947   1.707 -0.8787  0.0356 -0.0610
  840SOL    HW1 2519   2.404   2.888   1.736  3.9275  0.2307  1.1572
  840SOL    HW2 2520   2.569   2.925   1.757 -0.2306 -1.1793  0.0934
  841SOL     OW 2521   1.562   0.827   3.027 -0.2170  0.2712 -0.6998
  841SOL    HW1 2522   1.489   0.837   3.096 -0.9518 -1.4024 -4.6327
  841SOL    HW2 2523   1.533   0.865   2.937 -2.2651  0.1449 -3.8942
  842SOL     OW 2524   0.802   1.494   0.911  0.1569  0.5469 -0.0205
  842SOL    HW1 2525   0.774   1.574   0.974 -0.0101 -0.5916 -0.0702
  842SOL    HW2 2526   0.724   1.428   0.885 -1.0117  1.3060 -0.6463
  843SOL     OW 2527   0.090   3.096   1.379  0.0366 -0.0617 -0.0726
  843SOL    HW1 2528   0.145   3.166   1.432 -2.5308  0.6767 -0.3835
  843SOL    HW2 2529   0.060   3.005   1.426 -0.2328  0.9932 -1.5110
  844SOL     OW 2530   0.798   2.470   0.254 -0.4785 -0.0470 -0.3418
  844SOL    HW1 2531   0.738   2.430   0.329  0.9831 -1.6676  2.0261
  844SOL    HW2 2532   0.749   2.527   0.183 -0.0947  3.4492 -1.0609
  845SOL     OW 2533   1.660   2.892   1.326  0.1605  0.0079  0.0319
  845SOL    HW1 2534   1.734   2.820   1.319  0.3324 -0.9751  1.6949
  845SOL    HW2 2535   1.683   2.967   1.400  0.2867  0.5436  2.4127
  846SOL     OW 2536   1.597   2.933   0.746  0.1664 -0.1249  0.5930
  846SOL    HW1 2537   1.584   2.947   0.645 -0.8493 -1.1805  1.1728
  846SOL    HW2 2538   1.694   2.954   0.774 -1.5581  0.9398 -0.9209
  847SOL     OW 2539   2.073   1.666   0.369 -0.5980  0.1914 -0.0790
  847SOL    HW1 2540   2.036   1.590   0.423  1.4972 -3.8008 -2.5062
  847SOL    HW2 2541   2.003   1.747   0.359  1.1462  0.3046  1.0835
  848SOL     OW 2542   2.450   0.849   2.622 -0.1317 -0.6201  0.6239
  848SOL    HW1 2543   2.400   0.933   2.660  1.1465  0.3818  0.2430
  848SOL    HW2 2544   2.388   0.764   2.625 -0.0678  1.4049  0.0559
  849SOL     OW 2545   2.557   0.866   2.377  0.5786  0.0613 -0.1043
  849SOL    HW1 2546   2.643   0.809   2.376 -1.3568  1.0967 -1.2156
  849SOL    HW2 2547   2.499   0.863   2.462 -0.6393  1.7374  0.7249
  850SOL     OW 2548   1.560   0.090   1.319 -0.4283 -0.0641 -0.8352
  850SOL    HW1 2549   1.528   0.070   1.220  1.1840  0.6406  0.1131
  850SOL    HW2 2550   1.514   0.026   1.385 -0.9901  1.7618 -0.0318
  851SOL     OW 2551   0.432   1.800   0.562  0.1563  0.1090  0.2895
  851SOL    HW1 2552   0.492   1.881   0.590 -0.2767  1.2128 -0.1827
  851SOL    HW2 2553   0.427   1.798   0.459 -1.0590  2.2566 -1.7933
  852SOL     OW 2554   0.802   2.078   1.749 -0.1755  0.3699 -0.8092
  852SOL    HW1 2555   0.830   2.179   1.737 -0.7864  1.3639  2.1322
  852SOL    HW2 2556   0.732   2.074   1.830 -1.7087  0.3870  1.3790
  853SOL     OW 2557   2.505   1.542   2.604  0.1026  0.0231  0.0575
  853SOL    HW1 2558   2.447   1.453   2.581  0.0559 -0.7356 -1.5069
  853SOL    HW2 2559   2.513   1.614   2.526 -0.4733 -1.8376  1.2150
  854SOL     OW 2560   2.396   1.362   1.710 -0.0191 -0.0910 -0.3047
  854SOL    HW1 2561   2.442   1.317   1.625 -2.3610 -2.3626 -2.1082
  854SOL    HW2 2562   2.378   1.293   1.785 -2.4962  1.2545 -1.2372
  855SOL     OW 2563   2.076   2.459   1.070 -0.6095 -0.3385  0.6034
  855SOL    HW1 2564   2.070   2.557   1.043  0.0145  1.3277  1.0280
  855SOL    HW2 2565   2.167   2.427   1.110 -0.3098  0.1290  0.4005
  856SOL     OW 2566   1.352   1.404   0.941  0.1834  0.0519 -0.1551
  856SOL    HW1 2567   1.431   1.471   0.960  1.4336  0.8573 -0.2320
  856SOL    HW2 2568   1.261   1.445   0.978 -1.6699  0.9053  1.8921
  857SOL     OW 2569   3.041   2.729   0.987 -0.6516 -0.4606  0.3502
  857SOL    HW1 2570   3.003   2.643   0.952  0.0894  0.3445 -2.2794
  857SOL    HW2 2571   3.120   2.767   0.924  0.7137 -1.7046  1.8033
  858SOL     OW 2572   2.338   2.101   1.709  0.2163  0.0411  0.0183
  858SOL    HW1 2573   2.248   2.089   1.655 -2.2037  1.3241  0.4863
  858SOL    HW2 2574   2.416   2.036   1.690 -1.3956  0.6657  2.7003
  859SOL     OW 2575   2.468   0.584   1.093  0.8360 -0.0130 -0.1680
  859SOL    HW1 2576   2.479   0.612   0.992  4.7239  1.2817 -1.5065
  859SOL    HW2 2577   2.485   0.485   1.112 -0.3910  0.3891 -0.6870
  860SOL     OW 2578   1.857   2.800   0.490  0.4919 -0.1321 -0.8471
  860SOL    HW1 2579   1.857   2.781   0.386 -0.6178 -1.4237 -0.9646
  860SOL    HW2 2580   1.876   2.904   0.514  1.1868  4.3784  0.0873
  861SOL     OW 2581   1.005   2.421   2.880  0.1291 -0.8700 -0.3047
  861SOL    HW1 2582   1.056   2.500   2.835 -0.9383  2.0854  1.4754
  861SOL    HW2 2583   0.990   2.446   2.977  0.7777  1.5024 -0.0348
  862SOL     OW 2584   2.919   2.561   1.591 -0.3629  0.1277 -0.2034
  862SOL    HW1 2585   3.005   2.597   1.640 -1.8680 -0.0594  0.4403
  862SOL    HW2 2586   2.861   2.632   1.548  2.1386  0.4137  1.8637
  863SOL     OW 2587   1.810   2.728   0.220  0.7183 -0.4117 -0.3424
  863SOL    HW1 2588   1.848   2.633   0.218 -3.4083  0.2454 -1.2356
  863SOL    HW2 2589   1.719   2.733   0.168 -0.3847 -1.0194  1.6749
  864SOL     OW 2590   2.008   1.215   2.834 -0.7212  0.0647 -0.5120
  864SOL    HW1 2591   1.974   1.150   2.752  1.1383 -2.6979 -1.9354
  864SOL    HW2 2592   2.101   1.254   2.806  4.1072 -1.1161  1.5357
  865SOL     OW 2593   2.153   1.933   0.720 -0.0873 -0.1508 -0.6754
  865SOL    HW1 2594   2.238   1.886   0.754  1.2744  0.1980 -1.7901
  865SOL    HW2 2595   2.088   1.952   0.797  0.3029 -1.4714  0.2019
  866SOL     OW 2596   2.860   2.945   1.008 -0.6481 -0.2765  0.4191
  866SOL    HW1 2597   2.850   3.003   0.918  0.9254 -0.4782 -4.9633
  866SOL    HW2 2598   2.938   2.880   1.009 -0.2761 -0.4609 -0.9442
  867SOL     OW 2599   0.347   1.430   0.928 -0.4865 -0.9532 -0.2463
  867SOL    HW1 2600   0.325   1.345   0.874 -1.0107 -1.3623 -3.6724
  867SOL    HW2 2601   0.357   1.518   0.862  2.4832 -0.0182 -1.8277
  868SOL     OW 2602   0.765   1.882   2.103  0.1337  0.9439 -0.3338
  868SOL    HW1 2603   0.712   1.824   2.180 -0.9901 -0.5432  1.7603
  868SOL    HW2 2604   0.719   1.974   2.083  0.4247  2.2068 -1.0345
  869SOL     OW 2605   2.571   1.953   1.629 -0.0972  0.2436  0.4959
  869SOL    HW1 2606   2.667   2.005   1.618  0.7481  1.8104 -1.1791
  869SOL    HW2 2607   2.560   1.867   1.576 -2.0308 -1.2062  0.3376
  870SOL     OW 2608   2.285   2.700   1.231  0.0917 -0.1731  0.3332
  870SOL    HW1 2609   2.313   2.599   1.218  0.1552 -1.4941 -0.6504
  870SOL    HW2 2610   2.293   2.720   1.333 -2.2165  0.0335  5.4701
  871SOL     OW 2611   0.029   2.294   0.535 -0.0567  0.4499 -0.4099
  871SOL    HW1 2612  -0.009   2.352   0.611 -0.5571  1.4237  2.7132
  871SOL    HW2 2613  -0.043   2.282   0.459  0.2591  1.4985 -2.2512
  872SOL     OW 2614   2.120   0.448   1.672  0.1445  0.3652  0.1424
  872SOL    HW1 2615   2.089   0.452   1.771 -0.4102  0.8620  0.9736
  872SOL    HW2 2616   2.222   0.418   1.662 -0.8755  0.8233  1.3230
  873SOL     OW 2617   1.726   2.109   3.095  0.4806  0.5987 -0.2597
  873SOL    HW1 2618   1.626   2.079   3.098  1.1951  1.1437 -1.0770
  873SOL    HW2 2619   1.746   2.181   3.020 -2.3689  0.1090 -1.6373
  874SOL     OW 2620   0.677   2.449   0.744  0.0481 -0.8060 -0.2209
  874SOL    HW1 2621   0.692   2.549   0.770 -1.4979  2.4878  0.1657
  874SOL    HW2 2622   0.748   2.384   0.781 -1.0998 -0.7767 -2.0942
  875SOL     OW 2623   2.266   1.541   1.407  0.0536  0.2671 -0.1937
  875SOL    HW1 2624   2.348   1.579   1.459  3.6392  1.5561  0.9683
  875SOL    HW2 2625   2.266   1.569   1.309 -2.6867  3.0479  0.9943
  876SOL     OW 2626   0.073   2.292   2.669 -0.0814  0.4700  0.6550
  876SOL    HW1 2627   0.120   2.210   2.701  1.4455  2.4976 -1.4490
  876SOL    HW2 2628   0.098   2.380   2.725  2.9329 -0.2175  0.4698
  877SOL     OW 2629   2.914   2.639   0.591  0.0393  0.3807 -0.2941
  877SOL    HW1 2630   2.916   2.742   0.593  0.5034  2.3172 -0.8588
  877SOL    HW2 2631   2.987   2.593   0.651 -2.1066  0.2251 -0.0088
  878SOL     OW 2632   2.815   1.491   2.246 -0.0222  0.2253 -0.4634
  878SOL    HW1 2633   2.800   1.575   2.188  0.9752 -1.0249 -0.4872
  878SOL    HW2 2634   2.812   1.508   2.349 -1.5521  0.5786 -0.0139
  879SOL     OW 2635   2.381   0.087   1.285  0.1013 -0.0741 -0.0467
  879SOL    HW1 2636   2.407  -0.013   1.311  0.8836 -0.8766 -0.2005
  879SOL    HW2 2637   2.293   0.099   1.230  1.7978 -0.1685  0.9496
  880SOL     OW 2638   0.751   0.511   2.254  0.3133 -0.1051  0.2650
  880SOL    HW1 2639   0.728   0.442   2.332 -2.0938 -0.2061  1.0340
  880SOL    HW2 2640   0.787   0.455   2.172  1.6885 -2.0866  2.4384
  881SOL     OW 2641   0.844   0.076   0.432 -0.0167 -0.5040  0.7095
  881SOL    HW1 2642   0.870  -0.025   0.433 -2.7065  1.4429 -0.2580
  881SOL    HW2 2643   0.780   0.104   0.351  0.5850 -2.1648 -1.1275
  882SOL     OW 2644   2.711   1.664   1.690  0.4821 -0.0790  0.1419
  882SOL    HW1 2645   2.801   1.625   1.660 -1.0535 -1.5352  2.0476
  882SOL    HW2 2646   2.717   1.725   1.775  0.0337  0.7639  2.9096
  883SOL     OW 2647   0.845   0.510   0.936  0.5767 -0.4084 -0.2023
  883SOL    HW1 2648   0.879   0.608   0.949  0.2746  1.7420 -0.3267
  883SOL    HW2 2649   0.814   0.474   1.028 -0.7996 -0.8313 -1.1551
  884SOL     OW 2650   1.091   1.752   1.169 -0.1659  0.0419 -0.2021
  884SOL    HW1 2651   1.101   1.651   1.136 -0.6740  1.6800 -0.3027
  884SOL    HW2 2652   1.062   1.809   1.092  0.1924  0.7657  0.7086
  885SOL     OW 2653   2.328   1.819   2.254 -0.2812  0.1168  0.7169
  885SOL    HW1 2654   2.242   1.775   2.291  1.8092 -1.6295 -1.3918
  885SOL    HW2 2655   2.319   1.923   2.265  2.8755 -1.5423  0.0879
  886SOL     OW 2656   2.607   0.341   1.805  0.4186 -0.1969  0.3104
  886SOL    HW1 2657   2.614   0.242   1.834 -2.3594 -1.9407 -2.0611
  886SOL    HW2 2658   2.697   0.385   1.785 -0.5256 -0.3711  0.2968
  887SOL     OW 2659   0.137   2.066   1.291 -0.3463 -0.0001  0.2005
  887SOL    HW1 2660   0.147   2.023   1.199  1.1132 -0.6281 -0.5069
  887SOL    HW2 2661   0.159   2.166   1.287 -2.9942  2.2268 -0.5246
  888SOL     OW 2662   0.630   1.222   1.513 -0.3821 -0.3406  0.7166
  888SOL    HW1 2663   0.668   1.280   1.432  3.2206  3.0715  0.8105
  888SOL    HW2 2664   0.632   1.124   1.497  0.8795  1.3020 -0.0829
  889SOL     OW 2665   0.833   2.524   2.214 -0.2138  0.1689 -0.2968
  889SOL    HW1 2666   0.753   2.456   2.223 -2.3072  0.5101 -1.7827
  889SOL    HW2 2667   0.922   2.478   2.186  0.5520 -1.2825 -0.6904
  890SOL     OW 2668   2.364   2.510   0.257  0.5390  0.2724  0.3313
  890SOL    HW1 2669   2.400   2.590   0.212  0.4865 -0.7122  0.7141
  890SOL    HW2 2670   2.306   2.525   0.341 -2.5704 -3.9114 -1.5169
  891SOL     OW 2671   2.509   1.730   0.661  0.0789 -0.2163 -0.6131
  891SOL    HW1 2672   2.500   1.674   0.751 -1.5971  1.9272  0.6058
  891SOL    HW2 2673   2.440   1.704   0.588  2.4242  0.8311 -1.3305
  892SOL     OW 2674   0.427   0.331   2.258 -0.2572 -0.6281  0.6481
  892SOL    HW1 2675   0.399   0.415   2.208  0.9465 -1.8094  2.9484
  892SOL    HW2 2676   0.484   0.347   2.343  1.2257 -1.5394  1.4206
  893SOL     OW 2677   1.677   0.207   2.732 -0.6744 -0.4436  0.3059
  893SOL    HW1 2678   1.748   0.268   2.779 -1.7944  0.5553  0.3234
  893SOL    HW2 2679   1.593   0.261   2.707  2.1625  0.9260  2.8262
  894SOL     OW 2680   2.171   2.065   0.083  0.1642 -0.6031  0.4377
  894SOL    HW1 2681   2.189   1.997   0.010  1.1027  0.0421  0.4111
  894SOL    HW2 2682   2.162   2.013   0.170  0.1327 -0.4741 -0.2440
  895SOL     OW 2683   2.788   1.436   0.906  0.3707 -0.7159 -0.4980
  895SOL    HW1 2684   2.874   1.378   0.900 -0.1263  0.3694 -0.3533
  895SOL    HW2 2685   2.803   1.527   0.950 -1.0656  2.7137 -1.2507
  896SOL     OW 2686   1.854   1.857   1.203  0.0617 -0.4532 -0.1910
  896SOL    HW1 2687   1.886   1.756   1.216 -1.5782 -0.7332  1.0851
  896SOL    HW2 2688   1.781   1.865   1.129 -0.9174  2.4949 -1.3282
  897SOL     OW 2689   0.291   0.565   3.050 -0.2086  0.3756  0.0894
  897SOL    HW1 2690   0.259   0.616   2.969 -0.5602  0.7193 -1.1685
  897SOL    HW2 2691   0.388   0.588   3.078 -2.9029 -1.0081  2.4049
  898SOL     OW 2692   0.665   2.822   1.038 -0.0763  0.4081 -0.0682
  898SOL    HW1 2693   0.712   2.912   1.021 -1.6796  2.2823  0.5844
  898SOL    HW2 2694   0.706   2.778   1.123 -0.9772 -2.8656  0.6926
  899SOL     OW 2695   2.812   0.868   1.397 -0.8382 -0.6384 -0.1807
  899SOL    HW1 2696   2.795   0.900   1.301 -1.6700  2.2728 -1.7714
  899SOL    HW2 2697   2.906   0.894   1.434  1.2431 -1.7622  0.1625
  900SOL     OW 2698   1.000   2.472   2.515 -0.2745  0.0523 -0.0777
  900SOL    HW1 2699   0.937   2.460   2.428 -0.8751  2.0300 -2.1090
  900SOL    HW2 2700   0.973   2.409   2.591  1.9230  1.6512  2.1736
  901SOL     OW 2701   1.917   2.437   1.376 -0.2922  0.2149 -0.1546
  901SOL    HW1 2702   1.898   2.385   1.286  1.3256  1.0830 -1.6679
  901SOL    HW2 2703   2.019   2.417   1.402 -2.1302 -2.3670 -2.1695
  902SOL     OW 2704   2.526   1.674   1.503  0.2429 -0.2272 -0.3578
  902SOL    HW1 2705   2.589   1.675   1.586 -0.6966  1.7136 -1.8222
  902SOL    HW2 2706   2.561   1.610   1.429  0.8382  0.8438 -1.7009
  903SOL     OW 2707   0.325   2.484   1.991  0.1402 -0.1750  0.1887
  903SOL    HW1 2708   0.235   2.429   1.995 -0.4608  0.6600  0.8333
  903SOL    HW2 2709   0.330   2.555   1.914 -2.3451 -1.5802 -0.0844
  904SOL     OW 2710   1.990   0.783   2.561  0.2859  0.1084  0.3207
  904SOL    HW1 2711   1.902   0.738   2.589 -0.1344 -1.9896 -0.4376
  904SOL    HW2 2712   2.010   0.767   2.459 -1.3724 -1.9265  0.8973
  905SOL     OW 2713   2.871   0.093   2.425  0.6709  0.4601  0.5854
  905SOL    HW1 2714   2.932   0.023   2.473  1.8677  2.7176  0.2923
  905SOL    HW2 2715   2.885   0.188   2.463  0.9103 -2.9954  3.2861
  906SOL     OW 2716   0.158   1.666   1.882  0.5715 -0.6877 -0.1155
  906SOL    HW1 2717   0.117   1.728   1.811  2.6404 -2.1582  0.7546
  906SOL    HW2 2718   0.257   1.642   1.854 -3.4836  0.6839 -3.5143
  907SOL     OW 2719   0.197   2.435   0.973  0.0958 -0.5645  0.1554
  907SOL    HW1 2720   0.287   2.388   0.953 -1.4424 -1.3112 -2.0458
  907SOL    HW2 2721   0.204   2.536   0.959  0.3936  0.5445  0.7388
  908SOL     OW 2722   2.833   3.065   0.281 -0.1240  0.7344  0.4048
  908SOL    HW1 2723   2.731   3.055   0.260 -0.5165 -1.6208  0.4865
  908SOL    HW2 2724   2.880   2.969   0.293 -3.3731 -0.2638  0.8933
  909SOL     OW 2725   0.846   1.064   2.683 -0.1232  0.3531 -0.0560
  909SOL    HW1 2726   0.796   0.976   2.683 -1.8573 -0.2864  0.8235
  909SOL    HW2 2727   0.912   1.078   2.605 -1.2822 -0.2725  0.3260
  910SOL     OW 2728   1.766   1.864   2.169  0.2522 -0.2971 -0.0776
  910SOL    HW1 2729   1.814   1.912   2.088 -1.1621  0.1665 -2.4725
  910SOL    HW2 2730   1.697   1.934   2.210 -0.5894  0.3980  0.3868
  911SOL     OW 2731   1.801   2.976   1.548  0.4776 -0.1326  0.0321
  911SOL    HW1 2732   1.852   2.972   1.462  0.1556  0.7015  0.1235
  911SOL    HW2 2733   1.810   2.886   1.601  1.3300 -0.4135 -2.6165
  912SOL     OW 2734   2.847   1.029   0.707 -0.3907  0.1787 -0.0381
  912SOL    HW1 2735   2.886   1.005   0.801  0.8236 -0.2640  0.4358
  912SOL    HW2 2736   2.765   1.094   0.720  0.6609 -0.7155 -0.0506
  913SOL     OW 2737   2.560   1.240   1.519 -0.0445 -0.7809  0.1002
  913SOL    HW1 2738   2.572   1.141   1.499 -1.1793  1.2413  2.3161
  913SOL    HW2 2739   2.630   1.295   1.465 -0.0122  1.1362  1.6173
  914SOL     OW 2740   2.753   0.622   1.145 -0.7047  0.2867  0.5833
  914SOL    HW1 2741   2.788   0.530   1.188  0.3441 -0.9357  2.0402
  914SOL    HW2 2742   2.653   0.646   1.148 -1.9436 -0.7833  0.4990
  915SOL     OW 2743   1.226   0.760   1.017  0.2755  0.1182  1.0378
  915SOL    HW1 2744   1.269   0.779   1.107 -0.4202  0.9007 -0.4651
  915SOL    HW2 2745   1.136   0.705   1.028  3.1287 -0.9311  0.2319
  916SOL     OW 2746   0.571   0.097   0.645  0.9920 -0.1938 -0.3533
  916SOL    HW1 2747   0.648   0.146   0.692 -2.0577 -0.6507  1.1349
  916SOL    HW2 2748   0.532   0.138   0.555 -2.1129 -0.0117  0.6614
  917SOL     OW 2749   2.894   2.571   1.988  0.3601  0.5478 -0.3902
  917SOL    HW1 2750   2.808   2.614   1.950 -1.2117 -0.3575 -3.5642
  917SOL    HW2 2751   2.967   2.559   1.921 -1.6815 -0.3778  0.9528
  918SOL     OW 2752   1.023   2.061   3.004  0.6828 -0.1126 -0.2997
  918SOL    HW1 2753   1.010   2.133   3.076  0.1747 -0.5083  1.6445
  918SOL    HW2 2754   1.105   2.077   2.938  2.7814  0.7401  1.0763
  919SOL     OW 2755   0.847   1.702   2.793 -0.5031 -0.4038  0.7819
  919SOL    HW1 2756   0.897   1.790   2.765  1.1092  0.3831 -0.0301
  919SOL    HW2 2757   0.816   1.645   2.710 -2.9348 -1.8448  1.7485
  920SOL     OW 2758   1.268   1.768   2.549 -0.2303 -0.0072  0.4215
  920SOL    HW1 2759   1.348   1.729   2.499 -0.1345  3.0295 -1.1637
  920SOL    HW2 2760   1.230   1.701   2.617  0.4985  1.7854  2.9680
  921SOL     OW 2761   1.118   0.005   2.638  0.5314 -0.1971 -0.3185
  921SOL    HW1 2762   1.070  -0.028   2.547  0.5366 -0.6406 -1.3779
  921SOL    HW2 2763   1.049   0.017   2.710  0.6566  0.3921 -4.0172
  922SOL     OW 2764   2.175   2.381   2.763 -0.4243 -0.2552  0.7973
  922SOL    HW1 2765   2.185   2.280   2.778 -0.7439  4.1266  2.2543
  922SOL    HW2 2766   2.169   2.412   2.663 -2.0278  1.4828  0.3004
  923SOL     OW 2767   1.269   2.702   0.273 -0.0742  0.0151  0.0994
  923SOL    HW1 2768   1.313   2.769   0.343 -0.2434  0.1207  0.8322
  923SOL    HW2 2769   1.312   2.604   0.285 -0.4108  0.3336  1.0472
  924SOL     OW 2770   2.896   1.663   0.143 -0.0062  0.1817 -0.3782
  924SOL    HW1 2771   2.808   1.631   0.095  2.1335  1.0182 -0.1623
  924SOL    HW2 2772   2.984   1.616   0.114  2.2046  1.6718  2.7590
  925SOL     OW 2773   0.043   2.869   1.511 -0.2310  0.1343 -0.3937
  925SOL    HW1 2774  -0.002   2.831   1.598  0.9607 -2.8071 -1.2296
  925SOL    HW2 2775   0.008   2.821   1.425 -0.1546 -2.0017  0.0985
  926SOL     OW 2776   1.298   2.833   1.337  0.1255  0.0135 -0.1581
  926SOL    HW1 2777   1.337   2.829   1.245  0.9840  3.4669  1.7338
  926SOL    HW2 2778   1.352   2.894   1.400  2.1635 -1.1061 -1.5519
  927SOL     OW 2779   0.337   2.638   1.749 -0.1594  0.3741 -0.6397
  927SOL    HW1 2780   0.288   2.566   1.689  0.3333  0.9911 -1.2878
  927SOL    HW2 2781   0.338   2.737   1.706  1.5974  1.2975  2.1480
  928SOL     OW 2782   1.589   2.075   2.237  0.5176  0.2510 -0.0049
  928SOL    HW1 2783   1.606   2.147   2.166  0.1983  2.7302  0.0968
  928SOL    HW2 2784   1.486   2.062   2.263 -0.9482 -0.5169 -3.3107
  929SOL     OW 2785   2.409   2.485   2.874  0.4373  0.3381  0.4005
  929SOL    HW1 2786   2.331   2.425   2.844  2.5097  0.2597  0.4732
  929SOL    HW2 2787   2.463   2.514   2.788  2.5127  0.9606 -1.9262
  930SOL     OW 2788   2.149   1.958   1.101 -0.0332 -0.2456 -0.2741
  930SOL    HW1 2789   2.127   1.920   1.195  0.4175  0.3731 -0.1453
  930SOL    HW2 2790   2.218   2.032   1.110 -3.6480 -2.1249 -0.4842
  931SOL     OW 2791   0.527   1.738   2.628  0.1546  0.3887 -0.1834
  931SOL    HW1 2792   0.541   1.789   2.718 -0.8109  0.3068  0.0317
  931SOL    HW2 2793   0.599   1.674   2.597 -0.7822  2.5761 -1.5915
  932SOL     OW 2794   0.352   0.091   3.096 -0.3082 -0.4752  0.1112
  932SOL    HW1 2795   0.447   0.113   3.138  1.7143  1.5545 -0.4803
  932SOL    HW2 2796   0.355  -0.005   3.054 -1.2606 -1.2611  1.1688
  933SOL     OW 2797   0.943   0.837   2.997 -0.3288  0.0125 -0.3432
  933SOL    HW1 2798   0.916   0.813   3.092  2.1171 -0.3848  1.7090
  933SOL    HW2 2799   0.951   0.938   2.976 -3.3516 -1.2243 -0.7609
  934SOL     OW 2800   0.739   2.961   2.700  0.8126  0.3793 -0.1752
  934SOL    HW1 2801   0.712   2.928   2.602 -1.7099  2.5021  3.0333
  934SOL    HW2 2802   0.811   2.894   2.739 -1.0898 -1.8718  0.1033
  935SOL     OW 2803   0.036   0.537   0.830  0.6503 -0.2156  0.4148
  935SOL    HW1 2804   0.027   0.506   0.732  0.3471  1.9070  0.6717
  935SOL    HW2 2805  -0.048   0.598   0.858 -0.6329  0.3914  3.7178
  936SOL     OW 2806   1.087   2.830   0.094 -0.4351 -0.1203 -0.0947
  936SOL    HW1 2807   1.143   2.882   0.023 -1.8948  1.0694  1.1766
  936SOL    HW2 2808   1.152   2.777   0.151  1.0558  0.1648 -3.0048
  937SOL     OW 2809   1.889   2.658   2.084  0.0384  0.3935  0.4736
  937SOL    HW1 2810   1.787   2.647   2.100  0.6535 -1.4520  1.2409
  937SOL    HW2 2811   1.908   2.743   2.026 -2.5673 -0.8626 -2.4744
  938SOL     OW 2812   2.808   2.087   1.582 -0.5291 -0.1388  0.1866
  938SOL    HW1 2813   2.782   2.189   1.572 -0.7348  1.6510  0.9860
  938SOL    HW2 2814   2.895   2.072   1.635  2.7332  0.4026 -3.5269
  939SOL     OW 2815   2.784   1.234   2.446 -0.0046 -0.3099 -0.3563
  939SOL    HW1 2816   2.849   1.219   2.368 -0.8912 -0.0054  2.0705
  939SOL    HW2 2817   2.819   1.191   2.535  0.5915  0.4605 -0.6264
  940SOL     OW 2818   1.040   0.469   2.763  0.5396  0.2606 -0.0461
  940SOL    HW1 2819   1.101   0.385   2.771  2.6491  1.4432  2.3500
  940SOL    HW2 2820   1.005   0.471   2.665 -0.1057 -0.2260  2.6122
  941SOL     OW 2821   0.022   2.761   2.287  0.4879 -0.1753  0.2573
  941SOL    HW1 2822   0.090   2.698   2.244 -0.9373  1.6767  0.2368
  941SOL    HW2 2823   0.067   2.844   2.328  2.3580  0.8448 -0.9491
  942SOL     OW 2824   0.095   0.092   2.559  0.3598 -0.3649  0.1581
  942SOL    HW1 2825   0.161   0.080   2.638 -0.0761  0.0974  0.9962
  942SOL    HW2 2826   0.137   0.162   2.493 -0.5661  0.3743 -0.9185
  943SOL     OW 2827   2.094   1.690   2.343 -0.3881 -0.5946  0.5213
  943SOL    HW1 2828   2.113   1.631   2.259  1.8999 -0.7183 -2.5021
  943SOL    HW2 2829   2.112   1.634   2.426  0.1110 -1.0023  1.4447
  944SOL     OW 2830   2.163   2.386   1.467  0.0597  0.2962 -0.1023
  944SOL    HW1 2831   2.258   2.409   1.507 -1.8487 -0.7237 -1.7105
  944SOL    HW2 2832   2.120   2.313   1.532 -0.1349  0.5834  0.3711
  945SOL     OW 2833   0.706   1.576   0.072 -0.2292 -0.3039  0.4346
  945SOL    HW1 2834   0.609   1.600   0.050 -0.9122  2.7550  2.7514
  945SOL    HW2 2835   0.716   1.510   0.152  0.1481  0.2678 -0.5804
  946SOL     OW 2836   0.415   0.963   2.523 -0.1633 -0.1215  0.1443
  946SOL    HW1 2837   0.341   0.915   2.467 -0.7666  0.3119 -2.5844
  946SOL    HW2 2838   0.403   1.070   2.528 -0.4316  1.9747 -1.1197
  947SOL     OW 2839   1.470   0.503   3.084  0.1612 -0.2071  0.1693
  947SOL    HW1 2840   1.457   0.544   2.992  1.0475 -0.9437 -0.2789
  947SOL    HW2 2841   1.389   0.462   3.126  0.5232 -1.4351 -1.4458
  948SOL     OW 2842   1.874   3.018   2.172 -0.2528 -0.7484  0.3066
  948SOL    HW1 2843   1.865   2.967   2.078  0.1640 -2.0093  2.3918
  948SOL    HW2 2844   1.875   2.952   2.254 -1.8001 -0.9180  2.1115
  949SOL     OW 2845   0.603   2.458   0.473  0.3375  0.2412  0.0558
  949SOL    HW1 2846   0.629   2.555   0.453 -1.4882  0.2714  1.4058
  949SOL    HW2 2847   0.614   2.428   0.574  1.6808  1.5597  2.5088
  950SOL     OW 2848   0.173   2.254   2.985  0.0665  0.2746  0.2885
  950SOL    HW1 2849   0.178   2.345   2.935 -2.3338 -1.6072  2.8957
  950SOL    HW2 2850   0.155   2.175   2.922  0.2391  2.2215  1.0700
  951SOL     OW 2851   1.163   2.635   2.784  0.4228 -0.2582 -0.2316
  951SOL    HW1 2852   1.216   2.604   2.866  0.1723 -0.7014 -0.7990
  951SOL    HW2 2853   1.226   2.651   2.701 -0.9353  0.0682 -1.1973
  952SOL     OW 2854   0.044   1.653   0.413 -0.6608  0.1152  0.1487
  952SOL    HW1 2855   0.085   1.742   0.415 -1.6313 -2.8649  0.9350
  952SOL    HW2 2856   0.094   1.578   0.469  1.3352 -0.5306  0.9823
  953SOL     OW 2857   2.556   1.770   0.243  0.2595 -0.8194 -1.2120
  953SOL    HW1 2858   2.569   1.671   0.248 -1.2455 -0.9241  2.4535
  953SOL    HW2 2859   2.502   1.799   0.158 -0.7248 -0.5926 -0.4045
  954SOL     OW 2860   2.178   0.599   0.938  0.1075  0.0579  0.5039
  954SOL    HW1 2861   2.192   0.581   0.833  2.6330 -0.2506  1.0276
  954SOL    HW2 2862   2.269   0.610   0.988 -0.2973 -1.1490 -2.2517
  955SOL     OW 2863   0.105   2.557   1.373  0.4936  0.4420  0.5793
  955SOL    HW1 2864   0.011   2.601   1.357 -0.9444  0.1741  1.1636
  955SOL    HW2 2865   0.189   2.623   1.376 -0.6464 -1.0548  0.7471
  956SOL     OW 2866   2.795   2.468   2.516  0.0832 -0.0678  0.0983
  956SOL    HW1 2867   2.790   2.364   2.494 -0.2460  0.0971 -1.0559
  956SOL    HW2 2868   2.806   2.524   2.428 -1.6572 -1.5367  0.9745
  957SOL     OW 2869   1.562   2.086   2.743 -0.2207  0.3483  0.6968
  957SOL    HW1 2870   1.504   2.004   2.771 -0.6030  1.8922  2.7055
  957SOL    HW2 2871   1.657   2.061   2.714  1.9883  0.8192  1.0396
  958SOL     OW 2872   2.594   2.308   2.961 -0.0375 -0.5511  0.0013
  958SOL    HW1 2873   2.543   2.393   2.918 -0.9702  1.5811  2.0623
  958SOL    HW2 2874   2.544   2.280   3.047  2.1478  0.9860  1.9605
  959SOL     OW 2875   0.309   2.799   0.091  0.0437  0.0640 -0.3838
  959SOL    HW1 2876   0.252   2.836   0.174 -3.8052  1.8809 -1.3899
  959SOL    HW2 2877   0.284   2.702   0.072  0.1062  1.4271  1.2143
  960SOL     OW 2878   1.989   0.439   1.944  0.6905  0.3819 -0.1336
  960SOL    HW1 2879   1.940   0.524   1.910 -0.0784  0.5608 -0.3423
  960SOL    HW2 2880   2.007   0.442   2.046 -1.1570  1.0514 -1.9830
  961SOL     OW 2881   2.575   1.899   1.056  0.3916  0.8296 -0.0448
  961SOL    HW1 2882   2.581   1.996   1.021  0.1555  2.0084 -1.7012
  961SOL    HW2 2883   2.538   1.900   1.152  0.1445  1.6736 -0.3944
  962SOL     OW 2884   1.341   0.893   0.076 -0.7330  0.4614  0.6617
  962SOL    HW1 2885   1.301   0.913  -0.015 -1.1469  0.7619  0.8316
  962SOL    HW2 2886   1.336   0.979   0.138 -0.2172  4.3194  1.6316
  963SOL     OW 2887   2.299   2.542   1.823 -0.0420 -0.0284  0.4018
  963SOL    HW1 2888   2.242   2.477   1.874  3.0447 -2.2453 -0.8566
  963SOL    HW2 2889   2.312   2.641   1.856 -0.7418 -0.9973  0.3579
  964SOL     OW 2890   2.370   0.368   1.652  0.1983  0.1127 -0.2518
  964SOL    HW1 2891   2.461   0.374   1.706 -1.5443 -1.4293  1.2438
  964SOL    HW2 2892   2.374   0.374   1.549  1.2149 -0.5887  1.7693
  965SOL     OW 2893   2.577   2.984   0.180  0.1501 -0.1821 -0.1104
  965SOL    HW1 2894   2.639   2.962   0.099  1.9432  3.0968  2.1019
  965SOL    HW2 2895   2.482   3.012   0.150  1.5267 -1.2116  0.5019
  966SOL     OW 2896   2.525   2.544   2.212  0.1507 -0.2776  0.7110
  966SOL    HW1 2897   2.572   2.636   2.211 -0.6368 -0.5609  2.3221
  966SOL    HW2 2898   2.427   2.550   2.170 -0.6421  2.4088  0.6211
  967SOL     OW 2899   2.787   2.822   2.453  0.3397 -0.6622 -0.1846
  967SOL    HW1 2900   2.822   2.791   2.360 -0.1577 -0.0962  0.9882
  967SOL    HW2 2901   2.857   2.855   2.520 -0.7557  0.1885  0.4240
  968SOL     OW 2902   1.949   1.064   2.620 -0.0315  0.1558  0.3038
  968SOL    HW1 2903   1.872   1.120   2.587 -0.9674  1.2470 -0.7147
  968SOL    HW2 2904   1.934   0.966   2.586 -0.5998  1.6587 -1.3304
  969SOL     OW 2905   2.743   2.457   1.096 -0.0928 -0.1233  0.5202
  969SOL    HW1 2906   2.727   2.473   0.992  1.3055  1.6030  0.3530
  969SOL    HW2 2907   2.821   2.395   1.121 -0.3436  0.1554  1.6500
  970SOL     OW 2908   1.091   2.107   1.853  0.3474  0.1093  0.7481
  970SOL    HW1 2909   1.003   2.123   1.795 -0.1651 -2.7521 -1.0698
  970SOL    HW2 2910   1.082   2.130   1.954 -3.2429  0.8875  0.0876
  971SOL     OW 2911   2.899   2.062   2.021 -0.0397 -0.0331  0.4280
  971SOL    HW1 2912   2.906   2.162   2.050  0.4776 -3.0050  0.0156
  971SOL    HW2 2913   2.939   2.039   1.927 -0.6616 -0.5821  3.2893
  972SOL     OW 2914   1.974   2.487   0.245  0.3239  0.0897 -0.4685
  972SOL    HW1 2915   2.005   2.408   0.187 -1.5117  0.1833  1.3236
  972SOL    HW2 2916   1.985   2.465   0.344 -1.5594  3.8938  1.4159
  973SOL     OW 2917   1.238   0.925   1.857  0.1836  0.4845  0.3080
  973SOL    HW1 2918   1.166   0.851   1.848  2.1944 -1.1348  0.4616
  973SOL    HW2 2919   1.200   1.017   1.863  0.5520 -0.8516 -0.3541
  974SOL     OW 2920   1.612   0.586   1.908 -1.1006  0.0733 -0.1482
  974SOL    HW1 2921   1.711   0.617   1.882  1.1555  0.4695 -0.0495
  974SOL    HW2 2922   1.544   0.669   1.908 -3.4424  3.4444  0.7999
  975SOL     OW 2923   2.346   3.052   0.016  0.2654  0.4043  0.4289
  975SOL    HW1 2924   2.306   2.962   0.043 -0.0496  0.5602 -1.2460
  975SOL    HW2 2925   2.326   3.073  -0.082 -2.9034  0.7689  0.2866
  976SOL     OW 2926   1.871   2.840   2.375 -0.2355  0.2421 -0.4249
  976SOL    HW1 2927   1.802   2.767   2.343 -3.1494  0.3985 -0.8943
  976SOL    HW2 2928   1.937   2.805   2.452  0.3304 -0.3807 -0.6029
  977SOL     OW 2929   0.531   0.595   0.969  0.4341 -0.1816 -0.0247
  977SOL    HW1 2930   0.435   0.601   0.913 -4.4586  0.8666 -1.2425
  977SOL    HW2 2931   0.573   0.690   0.987  2.7730  0.2234 -0.0664
   3.10000   3.10000   3.10000
