1000 SPC/Fw water molecules t=   0.46000 step= 460
 2931
    1SOL     OW    1   2.495   0.321   2.621 -0.7105  0.4389 -0.3066
    1SOL    HW1    2   2.485   0.219   2.623  0.2102  1.0988  1.7761
    1SOL    HW2    3   2.526   0.358   2.711 -2.9464 -0.0573 -0.9126
    2SOL     OW    4   2.718   3.046   1.451  0.1370 -0.8209 -0.0433
    2SOL    HW1    5   2.758   3.096   1.368 -2.3734 -1.3239 -1.1907
    2SOL    HW2    6   2.702   3.100   1.538 -0.1083  1.4525  1.6164
    3SOL     OW    7   2.738   2.601   0.386 -0.4816 -0.0444 -0.0867
    3SOL    HW1    8   2.704   2.503   0.376 -1.1166 -1.2252  0.8166
    3SOL    HW2    9   2.796   2.617   0.474  1.9947  1.4022  0.4835
    4SOL     OW   10   1.321   1.500   2.350 -0.0912 -0.0267  0.2364
    4SOL    HW1   11   1.242   1.536   2.300  1.8142  0.2864 -0.5703
    4SOL    HW2   12   1.309   1.401   2.368 -1.0306  1.5586 -0.9234
    5SOL     OW   13   1.196   1.514   3.035 -0.0987  0.3879 -0.0940
    5SOL    HW1   14   1.262   1.570   3.095 -2.6151 -0.2175 -0.3247
    5SOL    HW2   15   1.098   1.527   3.069 -0.0545 -2.8495  1.9669
    6SOL     OW   16   0.040   1.781   2.910  0.2765  0.3132  0.5584
    6SOL    HW1   17   0.034   1.847   2.988  0.7573  2.8529  1.6469
    6SOL    HW2   18   0.057   1.678   2.934 -1.3942 -2.5826 -0.6998
    7SOL     OW   19   2.567   0.889   1.161  0.3814  0.2370  0.0253
    7SOL    HW1   20   2.467   0.872   1.172  1.6885  0.6623  3.4240
    7SOL    HW2   21   2.595   0.875   1.060  1.4896 -2.0378 -2.8624
    8SOL     OW   22   0.432   0.620   1.528  0.6448 -0.4334  0.0358
    8SOL    HW1   23   0.530   0.579   1.530  1.8622  0.3246 -2.3765
    8SOL    HW2   24   0.374   0.577   1.453  1.0824  0.8847 -1.5039
    9SOL     OW   25   1.151   0.960   2.267  0.2750 -0.3470  0.7396
    9SOL    HW1   26   1.228   1.024   2.251  3.8431 -2.5988  0.5860
    9SOL    HW2   27   1.084   0.945   2.184  0.5243 -0.4779 -0.9346
   10SOL     OW   28   0.717   1.347   1.272 -0.0685 -0.0765 -0.2042
   10SOL    HW1   29   0.645   1.388   1.210  1.0900 -3.1481 -0.3395
   10SOL    HW2   30   0.795   1.412   1.295  3.3224  0.1144  2.5338
   11SOL     OW   31   2.369   2.690   0.951  0.6192  0.3750 -0.6040
   11SOL    HW1   32   2.331   2.701   1.045  0.0926 -1.7353 -0.3681
   11SOL    HW2   33   2.462   2.657   0.958 -2.1600  2.6037 -0.9714
   12SOL     OW   34   1.449   0.903   0.384  0.5406 -0.4271 -0.6953
   12SOL    HW1   35   1.391   0.977   0.341  0.9942  0.1641  0.0033
   12SOL    HW2   36   1.451   0.812   0.333 -0.6892 -1.4025 -0.5400
   13SOL     OW   37   2.529   0.659   1.799 -0.0874  0.0218  0.2556
   13SOL    HW1   38   2.455   0.648   1.871  0.7795 -2.9748  0.3814
   13SOL    HW2   39   2.494   0.662   1.701 -0.2883 -0.2599 -0.3746
   14SOL     OW   40   1.964   0.043   0.688 -0.4274  0.4521  0.2995
   14SOL    HW1   41   1.890   0.091   0.631 -1.4074 -0.5821 -3.7049
   14SOL    HW2   42   1.927  -0.046   0.732 -2.9957 -0.6618  1.3836
   15SOL     OW   43   1.957   2.009   2.849  0.1064  0.1661 -0.2418
   15SOL    HW1   44   1.932   2.108   2.845  1.2118 -0.6576 -2.0988
   15SOL    HW2   45   1.903   1.956   2.778 -1.3861 -1.2596 -1.6087
   16SOL     OW   46   1.609   1.736   3.091 -0.4653  0.2028 -0.3625
   16SOL    HW1   47   1.639   1.642   3.065  0.5844  0.3056  0.8858
   16SOL    HW2   48   1.691   1.796   3.112  0.0431  1.2894 -2.5510
   17SOL     OW   49   0.086   0.497   0.123  0.2211  0.0927  0.2986
   17SOL    HW1   50   0.164   0.514   0.056 -0.9077  0.3546 -1.0708
   17SOL    HW2   51  -0.006   0.494   0.078  1.2622 -3.4449  1.3878
   18SOL     OW   52   0.991   2.916   2.183 -0.0244  0.3567 -0.0581
   18SOL    HW1   53   0.901   2.860   2.181 -0.2931 -1.5906  0.6644
   18SOL    HW2   54   1.049   2.902   2.101 -3.7062  0.8025  1.8840
   19SOL     OW   55   0.544   0.846   1.927  0.4482 -0.1261 -0.3030
   19SOL    HW1   56   0.539   0.858   2.027 -2.0113 -2.7920 -1.9450
   19SOL    HW2   57   0.629   0.792   1.902 -0.5955  0.4806  0.8179
   20SOL     OW   58   0.162   2.806   0.835 -0.0030  0.1881 -0.2077
   20SOL    HW1   59   0.126   2.895   0.788 -1.5447 -0.3033  0.6835
   20SOL    HW2   60   0.229   2.749   0.775  0.5278 -1.0888 -0.7565
   21SOL     OW   61   2.782   0.181   2.120  0.2496  0.1573 -0.3627
   21SOL    HW1   62   2.795   0.130   2.033 -4.1177  2.3334  0.1923
   21SOL    HW2   63   2.821   0.135   2.202 -2.4650 -1.6730 -2.0572
   22SOL     OW   64   2.316   0.229   0.030 -0.2967 -0.3055  0.7971
   22SOL    HW1   65   2.324   0.122   0.034  0.7437 -0.5012  2.1194
   22SOL    HW2   66   2.223   0.261   0.049  0.6436 -1.1644 -0.3938
   23SOL     OW   67   2.782   0.637   0.644 -0.4478 -0.1944  0.0824
   23SOL    HW1   68   2.814   0.547   0.600 -0.1778 -1.4690 -0.0220
   23SOL    HW2   69   2.795   0.721   0.587 -1.5318  2.4604  1.1519
   24SOL     OW   70   0.150   1.923   0.399  0.3235  0.3304 -1.1492
   24SOL    HW1   71   0.055   1.955   0.389 -0.7107 -2.6546  3.4643
   24SOL    HW2   72   0.211   1.960   0.327 -1.2992 -1.7717 -0.9266
   25SOL     OW   73   2.246   0.496   0.218 -0.0288  0.2963  0.1328
   25SOL    HW1   74   2.337   0.515   0.252 -2.8904  2.6123  3.9480
   25SOL    HW2   75   2.228   0.537   0.121 -4.1718  0.3398 -1.9871
   26SOL     OW   76   2.507   2.197   2.084  0.3625 -0.3766 -0.4452
   26SOL    HW1   77   2.579   2.240   2.151  0.3392  1.0159  2.7495
   26SOL    HW2   78   2.534   2.108   2.043  2.3403  1.7417  1.0048
   27SOL     OW   79   0.637   2.968   0.122 -0.3148 -0.6949  0.4122
   27SOL    HW1   80   0.740   2.981   0.128 -1.7959 -0.6323  0.9608
   27SOL    HW2   81   0.599   3.029   0.050 -0.7795 -2.1880  1.3158
   28SOL     OW   82   1.576   0.179   0.281  0.2522  0.4390  0.3535
   28SOL    HW1   83   1.629   0.158   0.191 -0.2307 -2.2174 -1.0542
   28SOL    HW2   84   1.576   0.277   0.314  0.4269 -1.1092  0.3741
   29SOL     OW   85   2.030   0.530   0.378 -0.1082 -0.4009  0.1608
   29SOL    HW1   86   1.997   0.630   0.361 -0.1864 -0.5375  2.4877
   29SOL    HW2   87   2.122   0.518   0.338 -0.0195  0.4807 -1.3530
   30SOL     OW   88   0.151   2.040   0.927  0.4284  0.3809  0.3028
   30SOL    HW1   89   0.163   2.058   0.823  2.3455  0.0258  1.6728
   30SOL    HW2   90   0.076   2.098   0.978 -0.0572  0.1500 -1.9082
   31SOL     OW   91   2.113   0.008   2.298  0.4700 -0.6111  0.0088
   31SOL    HW1   92   2.120  -0.001   2.402  1.2179  0.9971  0.2529
   31SOL    HW2   93   2.026  -0.026   2.253 -1.6472  2.3074  0.5054
   32SOL     OW   94   2.939   0.188   0.184  0.3203  0.0807  0.7250
   32SOL    HW1   95   2.898   0.108   0.234  1.1303  1.0346  1.2105
   32SOL    HW2   96   3.019   0.229   0.238 -0.0925 -2.3929  1.5755
   33SOL     OW   97   0.920   0.320   0.509 -0.2390  0.2065  0.1849
   33SOL    HW1   98   0.906   0.222   0.489 -1.6705  3.0959 -0.4709
   33SOL    HW2   99   0.993   0.325   0.583  0.3020 -2.9716  4.0636
   34SOL     OW  100   0.382   2.838   1.013 -0.3692 -0.0638 -0.1594
   34SOL    HW1  101   0.333   2.887   0.935  0.8152  4.3914 -0.1834
   34SOL    HW2  102   0.479   2.814   0.988  0.1202  1.0217 -1.9557
   35SOL     OW  103   0.041   0.137   1.864  0.0529  0.9318  0.2357
   35SOL    HW1  104   0.067   0.044   1.897 -1.6441  0.1880  1.5658
   35SOL    HW2  105  -0.019   0.138   1.782  0.3599  1.4885  0.3692
   36SOL     OW  106   1.936   1.112   1.824  0.2966 -0.1758  0.2865
   36SOL    HW1  107   1.987   1.085   1.741 -0.0631 -2.5342  0.6493
   36SOL    HW2  108   1.983   1.173   1.891 -2.7267 -2.1226 -2.2218
   37SOL     OW  109   1.187   0.199   0.953  0.1123 -0.5616  0.2524
   37SOL    HW1  110   1.221   0.279   1.017  0.2498 -0.6592  1.7397
   37SOL    HW2  111   1.257   0.121   0.942 -0.1307  1.0009 -1.5113
   38SOL     OW  112   1.072   2.711   2.408 -0.1137  1.0227 -0.3885
   38SOL    HW1  113   1.029   2.638   2.467  1.0658 -1.1175  0.4418
   38SOL    HW2  114   1.005   2.789   2.376  0.0326  0.8320 -1.4409
   39SOL     OW  115   2.325   1.362   3.002 -0.3222 -0.6078  0.4451
   39SOL    HW1  116   2.412   1.318   3.039 -0.0488 -1.6006  0.1627
   39SOL    HW2  117   2.252   1.365   3.077  0.0436  0.7448 -2.2541
   40SOL     OW  118   2.134   2.508   2.523  0.8800 -0.0948 -0.3097
   40SOL    HW1  119   2.120   2.609   2.542 -2.0393 -1.9138 -2.5779
   40SOL    HW2  120   2.062   2.467   2.460  2.7695  3.1160  1.2938
   41SOL     OW  121   2.930   0.715   2.751  0.4224  0.3211 -0.3593
   41SOL    HW1  122   2.861   0.792   2.763 -0.6060 -1.1596  2.1216
   41SOL    HW2  123   2.889   0.617   2.768 -2.4595 -0.6923  1.1057
   42SOL     OW  124   1.747   1.780   0.559 -0.3384 -0.0122 -0.2646
   42SOL    HW1  125   1.685   1.702   0.526 -0.0169  1.1294  0.5586
   42SOL    HW2  126   1.814   1.821   0.489 -0.0251  1.8905 -1.0046
   43SOL     OW  127   0.475   1.738   1.168  0.3845 -0.4813 -0.7288
   43SOL    HW1  128   0.455   1.673   1.242  0.8418  2.0613 -1.6385
   43SOL    HW2  129   0.387   1.765   1.119 -1.8827 -0.4051 -0.3101
   44SOL     OW  130   1.800   2.506   3.069  0.5375 -0.7376 -1.0333
   44SOL    HW1  131   1.809   2.570   2.985  0.5745  0.0695  3.2062
   44SOL    HW2  132   1.880   2.511   3.131 -1.8979  0.1353 -1.0405
   45SOL     OW  133   0.287   1.889   2.601 -0.1016  0.2201 -0.1116
   45SOL    HW1  134   0.240   1.907   2.508 -1.0393 -0.0740 -0.7719
   45SOL    HW2  135   0.357   1.808   2.600  3.4104  0.9420  0.0299
   46SOL     OW  136   1.192   0.672   0.208  0.7704  0.1268 -0.8032
   46SOL    HW1  137   1.250   0.743   0.156 -1.5310  1.2223 -2.9556
   46SOL    HW2  138   1.098   0.708   0.235  0.6801  2.2950  0.7872
   47SOL     OW  139   0.208   2.441   1.637 -0.4321  0.0955  0.3010
   47SOL    HW1  140   0.288   2.367   1.634  0.9523 -3.6332  0.7257
   47SOL    HW2  141   0.185   2.475   1.543  3.1371  0.7048  1.9914
   48SOL     OW  142   2.597   0.610   0.156  0.1259  0.0933  0.4409
   48SOL    HW1  143   2.569   0.590   0.249  3.1333  0.7366 -4.0551
   48SOL    HW2  144   2.673   0.676   0.143  0.2454  3.4845  1.7214
   49SOL     OW  145   0.367   0.803   1.723  0.4761 -0.3737 -0.6094
   49SOL    HW1  146   0.446   0.822   1.789 -0.5723  0.9176 -0.0511
   49SOL    HW2  147   0.391   0.721   1.664 -1.0733 -1.8168 -0.7011
   50SOL     OW  148   1.677   1.110   0.345 -0.3927  0.3698 -0.8311
   50SOL    HW1  149   1.646   1.023   0.303  1.6671  4.1372  1.0406
   50SOL    HW2  150   1.627   1.132   0.438  1.1401  0.2717 -0.5359
   51SOL     OW  151   2.982   1.915   0.305 -0.3970  0.5351 -0.8010
   51SOL    HW1  152   2.958   1.888   0.209 -0.4149 -0.8825 -1.5986
   51SOL    HW2  153   2.934   1.855   0.373  1.5452 -1.5467  1.4085
   52SOL     OW  154   0.783   1.948   0.515 -0.4877  0.2557  0.1018
   52SOL    HW1  155   0.702   2.001   0.556 -0.3784 -1.5432 -2.1894
   52SOL    HW2  156   0.806   1.864   0.571 -0.8954 -0.4362  0.2710
   53SOL     OW  157   3.087   0.357   1.546  0.2814 -0.0948 -0.1374
   53SOL    HW1  158   3.015   0.374   1.623 -1.0133  2.1734 -1.6253
   53SOL    HW2  159   3.088   0.439   1.483 -0.1466 -1.1782  0.6383
   54SOL     OW  160   1.759   0.457   3.075  0.2534 -0.4306  0.2564
   54SOL    HW1  161   1.784   0.391   3.151 -1.0433 -0.8341  0.6924
   54SOL    HW2  162   1.666   0.488   3.083  2.4310 -1.1343 -0.2853
   55SOL     OW  163   0.735   2.912   0.586  0.4677  0.2724  0.2684
   55SOL    HW1  164   0.712   2.994   0.644 -2.1830 -0.1993 -0.9664
   55SOL    HW2  165   0.829   2.910   0.544  0.8144  0.6302 -4.4206
   56SOL     OW  166   0.454   1.568   3.027  0.1236 -0.3706 -0.1717
   56SOL    HW1  167   0.379   1.627   3.073 -0.6882  2.6829 -0.9545
   56SOL    HW2  168   0.414   1.479   2.981  1.7303  0.8404  0.1064
   57SOL     OW  169   1.809   2.468   2.655 -0.1330  0.8984 -0.4268
   57SOL    HW1  170   1.839   2.442   2.559 -1.9014 -1.1043 -0.8925
   57SOL    HW2  171   1.711   2.506   2.663 -1.5159 -2.4010  2.9306
   58SOL     OW  172   0.651   0.385   1.124  0.3753 -0.1842  0.1774
   58SOL    HW1  173   0.593   0.457   1.078 -2.5921 -3.9210  1.3695
   58SOL    HW2  174   0.613   0.288   1.123  0.1172 -1.7690 -3.3080
   59SOL     OW  175   0.412   2.374   2.751 -0.8430 -0.2135  0.4042
   59SOL    HW1  176   0.405   2.272   2.738 -2.0066  1.3225  1.0840
   59SOL    HW2  177   0.510   2.405   2.777 -1.0496 -0.2700  0.4689
   60SOL     OW  178   2.296   2.096   2.251  0.4683 -0.4730 -0.0788
   60SOL    HW1  179   2.375   2.148   2.204  1.4355  0.6004  1.0560
   60SOL    HW2  180   2.306   2.111   2.353  0.4833 -0.3486 -0.2165
   61SOL     OW  181   1.356   0.636   0.514 -0.3653 -0.5003  0.2369
   61SOL    HW1  182   1.262   0.669   0.532  0.9744 -0.1407  1.6385
   61SOL    HW2  183   1.387   0.666   0.422 -1.1625 -0.1566 -0.5420
   62SOL     OW  184   2.670   1.808   2.992  0.3394  0.0187 -0.3805
   62SOL    HW1  185   2.667   1.708   3.028 -1.5716  1.1530  1.6170
   62SOL    HW2  186   2.725   1.816   2.909 -1.1691  2.1628  0.0606
   63SOL     OW  187   0.533   0.888   0.169  0.9329 -0.2187  0.0643
   63SOL    HW1  188   0.482   0.978   0.148 -0.0745  0.2513 -0.3156
   63SOL    HW2  189   0.628   0.897   0.217  1.3116 -1.2149  0.7807
   64SOL     OW  190   0.068   0.524   2.543 -0.1466  0.3958 -0.2985
   64SOL    HW1  191  -0.003   0.585   2.595  1.7556 -0.6056  3.7927
   64SOL    HW2  192   0.124   0.577   2.472 -1.0479 -2.2523  2.5307
   65SOL     OW  193   0.189   1.495   0.618  0.4924  0.5199 -0.2911
   65SOL    HW1  194   0.238   1.561   0.677 -2.2745  0.8595  0.9388
   65SOL    HW2  195   0.245   1.410   0.617  1.8941 -1.2170 -0.4876
   66SOL     OW  196   2.517   0.432   0.633 -0.2177  0.1177 -0.3507
   66SOL    HW1  197   2.483   0.492   0.714  1.2902  1.6465 -0.9204
   66SOL    HW2  198   2.504   0.333   0.651  1.6804  2.5364  0.7671
   67SOL     OW  199   0.512   2.484   1.435  0.2295  0.4887  0.1730
   67SOL    HW1  200   0.596   2.481   1.495  1.0839 -2.9717 -1.3677
   67SOL    HW2  201   0.497   2.393   1.383 -2.0101  0.0315 -0.8752
   68SOL     OW  202   0.997   1.093   2.439 -0.3042  0.1182 -0.4199
   68SOL    HW1  203   1.065   1.052   2.374 -2.1017  0.8159 -3.2769
   68SOL    HW2  204   0.907   1.112   2.394  0.6661  1.7527 -1.6592
   69SOL     OW  205   0.755   2.765   2.162  0.6610  0.5029 -0.3800
   69SOL    HW1  206   0.792   2.675   2.185  2.3180  3.3166 -1.3664
   69SOL    HW2  207   0.650   2.759   2.164 -3.1581 -2.5943 -0.2377
   70SOL     OW  208   0.648   0.288   2.726  0.1266  0.2614 -0.4934
   70SOL    HW1  209   0.671   0.345   2.804 -2.1010  1.2513 -0.6463
   70SOL    HW2  210   0.594   0.205   2.745  0.2287 -0.2065 -1.1668
   71SOL     OW  211   1.116   1.799   0.325 -0.4350  0.0183 -0.0283
   71SOL    HW1  212   1.072   1.711   0.349 -2.1060 -1.6385 -2.0461
   71SOL    HW2  213   1.129   1.801   0.221  0.1632 -1.3678 -1.1237
   72SOL     OW  214   1.782   0.134   2.047 -0.0842 -0.3771 -0.8254
   72SOL    HW1  215   1.831   0.159   1.957 -4.3854 -0.4843 -0.2379
   72SOL    HW2  216   1.826   0.055   2.100 -0.6288 -0.7764 -0.1118
   73SOL     OW  217   2.735   2.174   2.521  0.1418 -0.1019 -0.2406
   73SOL    HW1  218   2.731   2.067   2.499  1.2092 -3.9516 -0.4791
   73SOL    HW2  219   2.782   2.185   2.608 -2.8712 -0.4087  0.9674
   74SOL     OW  220   2.720   2.974   1.993 -0.1387 -0.9306  0.0665
   74SOL    HW1  221   2.656   2.964   2.078 -0.8753  4.0486 -1.7325
   74SOL    HW2  222   2.821   2.996   2.026  1.9275  1.2173 -1.6398
   75SOL     OW  223   0.901   0.769   1.012  0.1669  0.0791 -0.4453
   75SOL    HW1  224   0.806   0.814   0.998  1.9920 -0.3174  0.7530
   75SOL    HW2  225   0.958   0.814   1.093  1.2892  3.3484  1.3857
   76SOL     OW  226   1.726   1.232   2.574 -0.2562 -0.0712 -0.2932
   76SOL    HW1  227   1.637   1.185   2.582  1.6681  4.2488 -0.3208
   76SOL    HW2  228   1.718   1.335   2.594  0.8649  1.9755  1.8558
   77SOL     OW  229   2.907   0.965   0.969 -0.2533  0.3038  0.0767
   77SOL    HW1  230   2.891   0.860   0.956  1.1224 -0.1293  0.5622
   77SOL    HW2  231   2.917   0.974   1.069  0.4439 -0.7852 -1.6740
   78SOL     OW  232   2.035   1.424   1.522  0.6363  0.1800  0.7699
   78SOL    HW1  233   2.124   1.453   1.485  0.9870 -0.0977 -0.6011
   78SOL    HW2  234   1.976   1.383   1.447 -1.4198 -3.0405  1.6081
   79SOL     OW  235   0.599   1.341   0.821  0.5458 -0.0412  0.1821
   79SOL    HW1  236   0.516   1.365   0.875  1.4317 -1.1028 -0.1914
   79SOL    HW2  237   0.580   1.322   0.719  1.7503 -0.9875  1.9264
   80SOL     OW  238   0.666   0.492   1.587 -0.0388 -0.1853  0.1821
   80SOL    HW1  239   0.738   0.546   1.529 -0.1937  2.2844 -0.7955
   80SOL    HW2  240   0.698   0.396   1.612  0.8236 -1.4813 -0.6613
   81SOL     OW  241   1.040   1.374   2.598  0.4218 -0.3117 -0.2726
   81SOL    HW1  242   0.972   1.325   2.663  0.6663 -0.1238 -0.0098
   81SOL    HW2  243   1.003   1.378   2.506  1.0379 -0.6465  2.0765
   82SOL     OW  244   0.988   2.955   1.502  0.1242 -0.1271 -0.5204
   82SOL    HW1  245   1.000   2.994   1.409  1.4574 -0.9149  1.6095
   82SOL    HW2  246   0.903   2.903   1.514 -0.2792  3.3946 -1.2733
   83SOL     OW  247   2.669   2.476   0.821  0.0256 -0.1257  0.9054
   83SOL    HW1  248   2.585   2.431   0.782 -1.5650  1.9336 -0.4310
   83SOL    HW2  249   2.667   2.583   0.806  1.5140  3.4844 -1.9482
   84SOL     OW  250   0.729   3.077   2.365  0.2374 -0.4079 -0.3484
   84SOL    HW1  251   0.635   3.050   2.406 -0.4664  1.6402  1.0031
   84SOL    HW2  252   0.787   2.994   2.353 -1.8320  0.7323 -3.8259
   85SOL     OW  253   0.413   1.648   1.553  0.2503 -0.4236  0.5380
   85SOL    HW1  254   0.359   1.734   1.531  1.4647  0.7989 -0.1766
   85SOL    HW2  255   0.407   1.603   1.646  0.9173 -1.4042  1.2606
   86SOL     OW  256   0.356   0.968   1.511 -0.3397 -0.1523 -0.2636
   86SOL    HW1  257   0.317   0.914   1.428  0.4333 -0.2974 -2.6824
   86SOL    HW2  258   0.372   0.906   1.594  0.2458 -1.0939  0.5703
   87SOL     OW  259   1.519   0.653   0.270 -0.5266  1.1306  0.0705
   87SOL    HW1  260   1.618   0.684   0.261  0.3070  0.6823 -1.6277
   87SOL    HW2  261   1.485   0.608   0.180  1.0752 -2.3059 -1.3761
   88SOL     OW  262   1.558   1.349   0.203 -0.5927  0.3969  0.2389
   88SOL    HW1  263   1.597   1.259   0.231  2.4541  1.4259  0.2190
   88SOL    HW2  264   1.457   1.346   0.227  0.0934  1.7269 -0.1265
   89SOL     OW  265   0.044   0.417   0.576  0.1018 -0.6403  0.2810
   89SOL    HW1  266   0.103   0.335   0.559  0.7569 -0.3709  0.9329
   89SOL    HW2  267  -0.051   0.407   0.531 -2.2131 -0.7001 -0.6183
   90SOL     OW  268   0.927   1.592   3.022 -0.4552 -0.2190 -0.0451
   90SOL    HW1  269   0.854   1.589   3.098 -0.1987 -1.5716  0.7991
   90SOL    HW2  270   0.891   1.618   2.927  0.8202 -0.7775  1.6897
   91SOL     OW  271   1.281   1.459   1.810 -0.3018  0.1376  0.7431
   91SOL    HW1  272   1.279   1.550   1.861  0.6457 -2.1389  1.9306
   91SOL    HW2  273   1.375   1.445   1.760  1.1121 -0.0528 -0.0084
   92SOL     OW  274   3.051   1.048   1.223 -0.1321 -0.3378 -0.2106
   92SOL    HW1  275   3.110   1.118   1.174 -1.1933 -2.0780 -1.8007
   92SOL    HW2  276   3.093   0.991   1.302  0.7721 -0.2941  0.4195
   93SOL     OW  277   3.095   2.754   0.060  0.2984 -0.0983 -0.5615
   93SOL    HW1  278   3.017   2.760  -0.008  1.7627 -2.0032  0.7255
   93SOL    HW2  279   3.148   2.668   0.062 -2.1976  1.6062 -1.1795
   94SOL     OW  280   1.525   1.423   1.689  0.2613  0.5215 -0.0365
   94SOL    HW1  281   1.543   1.326   1.718  3.0604 -1.4605 -2.4232
   94SOL    HW2  282   1.590   1.486   1.742  0.9318 -1.8314  0.4886
   95SOL     OW  283   1.311   2.522   2.979 -0.1049 -0.5174  0.3650
   95SOL    HW1  284   1.252   2.510   3.060  1.6281  1.0836 -0.1831
   95SOL    HW2  285   1.348   2.433   2.940 -0.9291  0.5161  1.0662
   96SOL     OW  286   0.566   2.016   1.234 -0.6815  0.0273  0.5405
   96SOL    HW1  287   0.507   2.045   1.157  2.3248  0.6033  2.2514
   96SOL    HW2  288   0.614   1.928   1.219 -0.4466  0.1943  5.3447
   97SOL     OW  289   0.368   1.543   2.502 -0.1028  0.5272 -0.5115
   97SOL    HW1  290   0.290   1.573   2.568 -0.0527  0.4379  0.5796
   97SOL    HW2  291   0.448   1.606   2.522 -1.4732 -0.8169 -0.9719
   98SOL     OW  292   1.960   1.606   1.265 -0.5622 -0.6922  0.0268
   98SOL    HW1  293   1.883   1.559   1.308  3.0183 -0.2376  0.3425
   98SOL    HW2  294   2.005   1.545   1.189 -4.4312  0.5579 -3.2059
   99SOL     OW  295   2.478   2.095   1.416 -0.1567  0.2711  0.6044
   99SOL    HW1  296   2.506   2.084   1.515 -0.7419 -2.2517  0.8949
   99SOL    HW2  297   2.459   1.999   1.375  2.4781 -1.1444 -1.6132
  100SOL     OW  298   2.300   0.377   2.061  0.2290  0.0078 -0.3061
  100SOL    HW1  299   2.242   0.341   2.135 -1.5751 -0.4264  1.0741
  100SOL    HW2  300   2.400   0.387   2.087  1.4836  2.4809  0.8371
  101SOL     OW  301   0.410   1.494   0.274 -0.0498  0.1333 -0.4300
  101SOL    HW1  302   0.430   1.511   0.374 -0.1407 -2.8271  1.0461
  101SOL    HW2  303   0.460   1.554   0.212  1.9964 -0.1547  0.4535
  102SOL     OW  304   2.316   1.037   0.824 -0.0496 -0.2166  0.2613
  102SOL    HW1  305   2.229   0.986   0.821  0.8955  1.3213 -2.2565
  102SOL    HW2  306   2.326   1.117   0.753  1.2360  3.3871  0.2071
  103SOL     OW  307   2.311   0.043   0.405  0.2115 -0.2851  0.1831
  103SOL    HW1  308   2.371   0.114   0.352  0.2821 -1.2537 -0.8146
  103SOL    HW2  309   2.375  -0.024   0.448 -2.2980 -0.4294 -0.4776
  104SOL     OW  310   0.098   1.777   2.144  0.1684 -0.6144  1.2640
  104SOL    HW1  311   0.117   1.757   2.047 -0.2997  1.4353  3.4320
  104SOL    HW2  312  -0.002   1.785   2.169 -2.6567 -0.5815 -2.1733
  105SOL     OW  313   1.243   2.006   0.796 -0.1297  0.5883  0.4229
  105SOL    HW1  314   1.174   2.022   0.720  0.1629  1.8844  0.5442
  105SOL    HW2  315   1.292   1.915   0.792 -1.5873 -0.1750  1.0822
  106SOL     OW  316   2.125   0.532   1.381  0.3726  0.6686 -0.3233
  106SOL    HW1  317   2.062   0.459   1.422  1.5325  1.2285  0.8409
  106SOL    HW2  318   2.094   0.625   1.412  1.3101 -0.4290  0.7285
  107SOL     OW  319   1.807   2.996   1.095 -0.3405 -0.2226  0.0544
  107SOL    HW1  320   1.866   3.068   1.138 -0.1394  0.6448  0.5230
  107SOL    HW2  321   1.744   2.954   1.169  0.6819 -0.8366  1.6580
  108SOL     OW  322   0.825   2.736   1.253  0.0120  0.4145 -0.6321
  108SOL    HW1  323   0.798   2.774   1.343  0.2845 -2.6013  1.4012
  108SOL    HW2  324   0.923   2.749   1.228  1.6137 -0.2148 -0.8689
  109SOL     OW  325   2.216   0.128   0.801  0.4255  0.4016  0.2469
  109SOL    HW1  326   2.124   0.107   0.761 -0.3047  0.6615  0.3102
  109SOL    HW2  327   2.210   0.138   0.903 -1.1481 -0.0281  1.1028
  110SOL     OW  328   0.445   2.791   2.691 -0.0095 -0.1581  0.5188
  110SOL    HW1  329   0.434   2.836   2.594 -1.6143 -1.7170 -1.3044
  110SOL    HW2  330   0.541   2.749   2.708  1.7586 -1.1070 -1.3147
  111SOL     OW  331   1.338   0.513   2.258  0.6583 -0.0447  0.3145
  111SOL    HW1  332   1.289   0.560   2.334  0.8744 -0.6367  0.3263
  111SOL    HW2  333   1.378   0.420   2.289 -1.9766 -0.2221  2.8733
  112SOL     OW  334   1.741   0.525   1.455 -0.3501 -0.0774  0.1811
  112SOL    HW1  335   1.740   0.494   1.356 -0.1447  1.6875  1.1907
  112SOL    HW2  336   1.714   0.452   1.523 -1.5597 -1.2874  0.0090
  113SOL     OW  337   2.282   1.620   1.743 -0.4448  0.1060  0.5127
  113SOL    HW1  338   2.316   1.520   1.727 -0.1615 -2.6241  1.1731
  113SOL    HW2  339   2.302   1.653   1.839  1.1748 -2.8843  0.3342
  114SOL     OW  340   0.312   0.540   1.279  0.3727 -0.2796 -0.1947
  114SOL    HW1  341   0.330   0.647   1.276  1.3803  1.4613  0.1154
  114SOL    HW2  342   0.234   0.506   1.217 -0.9644 -1.4773  0.3362
  115SOL     OW  343   2.635   1.625   1.215  0.8093  0.6026  0.8174
  115SOL    HW1  344   2.685   1.541   1.245  0.5849  2.8781  0.7800
  115SOL    HW2  345   2.681   1.670   1.133  2.0207  2.9021  0.0656
  116SOL     OW  346   1.813   1.047   0.757 -0.4028  0.4572 -0.7090
  116SOL    HW1  347   1.755   0.997   0.686 -0.3948 -1.7451 -2.4259
  116SOL    HW2  348   1.783   1.145   0.757 -2.1857 -0.9692 -1.3245
  117SOL     OW  349   1.128   0.348   0.696  0.3958  0.2252 -0.4116
  117SOL    HW1  350   1.154   0.306   0.786  0.6139  1.5409 -1.6971
  117SOL    HW2  351   1.149   0.450   0.691  1.4018  1.7541  0.1265
  118SOL     OW  352   1.102   1.127   1.098 -0.1279 -0.0560 -0.4395
  118SOL    HW1  353   1.084   1.038   1.145  0.4511  2.5396 -3.7010
  118SOL    HW2  354   1.105   1.207   1.166  1.5766  3.6633  0.5603
  119SOL     OW  355   1.838   1.609   2.123  0.4013  0.6068  0.2879
  119SOL    HW1  356   1.809   1.698   2.175 -1.9345 -3.5575 -1.2998
  119SOL    HW2  357   1.940   1.599   2.116  1.4858 -1.0239 -0.4182
  120SOL     OW  358   2.962   2.827   0.297  0.0079  0.3106  0.3161
  120SOL    HW1  359   3.030   2.802   0.215 -1.0063 -0.4909 -3.5483
  120SOL    HW2  360   2.919   2.745   0.338 -3.0459  2.2348 -1.0999
  121SOL     OW  361   1.975   0.730   2.248 -0.4060  0.4259  0.5301
  121SOL    HW1  362   1.986   0.772   2.155  3.5789  1.2938 -0.6843
  121SOL    HW2  363   1.994   0.628   2.245 -2.7468  2.0309  0.6852
  122SOL     OW  364   2.704   2.651   1.277 -0.0299  0.2809 -1.0663
  122SOL    HW1  365   2.719   2.612   1.180 -2.0965 -0.6630 -0.1693
  122SOL    HW2  366   2.660   2.578   1.339 -2.2395 -2.5867  2.6858
  123SOL     OW  367   1.735   0.077   1.715 -0.3280 -0.0119  0.0397
  123SOL    HW1  368   1.759  -0.012   1.658  0.3046 -1.6716 -1.7478
  123SOL    HW2  369   1.822   0.113   1.766 -1.3277  2.0354 -0.2193
  124SOL     OW  370   0.114   0.479   1.077  0.1192 -0.6428 -0.4070
  124SOL    HW1  371   0.090   0.579   1.112 -0.6790 -2.8153 -1.3741
  124SOL    HW2  372   0.090   0.467   0.978 -0.2013  2.2714  2.2181
  125SOL     OW  373   0.879   1.731   0.633 -0.0182 -0.8108  0.1264
  125SOL    HW1  374   0.983   1.732   0.612 -1.2828  1.1666  2.7795
  125SOL    HW2  375   0.860   1.709   0.732 -0.9281 -3.0481 -0.5858
  126SOL     OW  376   1.912   2.366   2.419 -0.1266 -0.2054  0.0216
  126SOL    HW1  377   1.967   2.326   2.338 -0.6691 -0.8652 -0.0919
  126SOL    HW2  378   1.833   2.302   2.444 -1.3090  1.0728 -0.2414
  127SOL     OW  379   0.784   0.940   0.262  0.1625 -0.7410  0.3318
  127SOL    HW1  380   0.877   0.975   0.297  0.5629  0.9941 -1.5950
  127SOL    HW2  381   0.792   0.834   0.248 -1.0809 -1.2810  1.1886
  128SOL     OW  382   0.959   0.195   1.381 -0.1816  0.3052 -0.5232
  128SOL    HW1  383   0.928   0.288   1.345  0.2580  1.4931 -3.5726
  128SOL    HW2  384   0.890   0.123   1.375 -0.3187  0.7476 -1.4408
  129SOL     OW  385   1.871   0.669   1.872 -0.1909 -0.1895  0.0305
  129SOL    HW1  386   1.890   0.676   1.774 -0.3110 -1.0227 -2.2194
  129SOL    HW2  387   1.885   0.758   1.931 -0.0138 -2.2070  4.2909
  130SOL     OW  388   1.314   2.201   0.998  0.2031  0.4005 -0.3179
  130SOL    HW1  389   1.285   2.137   0.922  3.5812  0.6754  0.2936
  130SOL    HW2  390   1.363   2.285   0.968  0.2009  1.5640 -1.7336
  131SOL     OW  391   0.030   1.520   1.400  0.0694  0.3091  0.2682
  131SOL    HW1  392   0.002   1.420   1.400  0.7027 -0.6908 -1.4168
  131SOL    HW2  393   0.133   1.520   1.410 -0.4187 -1.0265 -1.9936
  132SOL     OW  394   1.990   2.393   0.527  0.2362 -0.1094 -0.3913
  132SOL    HW1  395   1.890   2.400   0.556  0.9219 -4.3705  0.8069
  132SOL    HW2  396   2.043   2.330   0.587 -1.9311  1.7280 -0.8118
  133SOL     OW  397   1.886   2.278   2.871  0.3853 -0.1076  0.2016
  133SOL    HW1  398   1.892   2.324   2.959 -2.7154  0.1816 -1.7882
  133SOL    HW2  399   1.866   2.348   2.796  2.1148  1.6833 -0.8763
  134SOL     OW  400   2.725   2.344   1.633 -0.5709 -0.2920  0.3118
  134SOL    HW1  401   2.673   2.329   1.721  1.9447  1.6606  1.7193
  134SOL    HW2  402   2.789   2.424   1.636 -1.8115  0.3834  0.3427
  135SOL     OW  403   0.721   1.558   2.594  0.0196  0.0810  0.5672
  135SOL    HW1  404   0.689   1.467   2.633 -0.7248 -0.5295 -0.5983
  135SOL    HW2  405   0.804   1.538   2.519  0.5137  2.0543  3.4992
  136SOL     OW  406   1.213   2.046   0.432  0.4515 -0.0436 -0.1889
  136SOL    HW1  407   1.149   2.085   0.505  0.9242  1.6955 -0.0869
  136SOL    HW2  408   1.178   1.960   0.381 -0.2656  0.4077  1.4784
  137SOL     OW  409   0.423   1.113   2.116 -0.1374  0.4198  0.1497
  137SOL    HW1  410   0.329   1.083   2.137  3.2070 -1.9684 -0.8191
  137SOL    HW2  411   0.492   1.066   2.181  0.8469 -0.7180 -1.5811
  138SOL     OW  412   2.435   1.505   0.201  0.2020  0.3118  0.1815
  138SOL    HW1  413   2.343   1.470   0.167  2.1826 -0.0287 -0.9467
  138SOL    HW2  414   2.485   1.433   0.254 -1.7441  1.1021  0.8734
  139SOL     OW  415   1.819   2.648   1.231 -0.1926 -0.0478  0.4536
  139SOL    HW1  416   1.721   2.632   1.219  1.7554  2.2424  0.0124
  139SOL    HW2  417   1.869   2.579   1.289  0.3712 -0.3252  2.9224
  140SOL     OW  418   3.022   2.978   2.576  0.7077  0.3723  1.1707
  140SOL    HW1  419   3.068   2.884   2.587  0.3067  0.1292 -2.6747
  140SOL    HW2  420   3.081   3.063   2.580  2.9162  0.7544  3.5296
  141SOL     OW  421   1.210   1.690   1.607  0.0659  0.4424  0.2641
  141SOL    HW1  422   1.131   1.746   1.649  1.2188  0.0196 -0.0333
  141SOL    HW2  423   1.258   1.630   1.677 -0.3794  1.1284 -1.8245
  142SOL     OW  424   1.591   0.623   2.195 -0.5303 -0.2842 -0.1963
  142SOL    HW1  425   1.609   0.622   2.089  0.6939 -1.1550 -3.5049
  142SOL    HW2  426   1.492   0.596   2.219 -0.9015 -1.0276 -2.4112
  143SOL     OW  427   2.739   0.875   0.517  0.2574  0.2922  0.2034
  143SOL    HW1  428   2.740   0.933   0.432 -0.3694 -0.2540  0.9589
  143SOL    HW2  429   2.779   0.917   0.606  2.7623  0.7301 -1.8567
  144SOL     OW  430   2.989   1.261   1.388 -0.4566 -0.1637  0.7508
  144SOL    HW1  431   2.944   1.217   1.472  0.2061  1.3385  1.8159
  144SOL    HW2  432   3.012   1.193   1.313  0.0975 -0.2187  0.4594
  145SOL     OW  433   1.016   1.812   0.061 -0.0379 -0.3901 -0.3036
  145SOL    HW1  434   1.034   1.885  -0.011 -2.4728  0.3057 -2.9318
  145SOL    HW2  435   0.985   1.724   0.017  1.9675 -0.6049  0.0560
  146SOL     OW  436   2.426   0.644   1.558 -0.1768  0.5377 -0.2968
  146SOL    HW1  437   2.411   0.553   1.506 -0.6611 -1.0486  0.4401
  146SOL    HW2  438   2.370   0.729   1.531  2.4750 -2.9623 -0.2143
  147SOL     OW  439   1.085   2.472   0.578 -0.2030 -0.1648  0.1561
  147SOL    HW1  440   1.068   2.541   0.501  0.2775 -2.9706 -2.0847
  147SOL    HW2  441   1.178   2.418   0.565  2.3304 -2.3846 -1.3775
  148SOL     OW  442   1.647   1.464   3.077  0.2231 -0.2579  0.6552
  148SOL    HW1  443   1.660   1.409   2.988 -0.7554 -3.5147  2.2221
  148SOL    HW2  444   1.597   1.417   3.154 -0.5847 -1.5919 -0.3565
  149SOL     OW  445   0.692   1.442   1.924  0.9674  0.3708 -0.0346
  149SOL    HW1  446   0.607   1.407   1.976  0.5487  1.2777 -2.3235
  149SOL    HW2  447   0.738   1.366   1.873 -0.5928  1.5549  2.4174
  150SOL     OW  448   2.993   1.241   0.927  0.4331 -0.2757 -0.0836
  150SOL    HW1  449   3.077   1.232   0.984  0.0485  1.2891  0.2968
  150SOL    HW2  450   2.920   1.167   0.941 -0.1628  0.0207  0.8046
  151SOL     OW  451   0.173   0.777   2.107 -0.3400  0.0506  0.0107
  151SOL    HW1  452   0.161   0.844   2.022  0.4389  1.1679 -4.0629
  151SOL    HW2  453   0.264   0.724   2.109  1.9679 -1.3396 -0.7647
  152SOL     OW  454   1.360   1.716   1.262  0.1948 -0.1435  0.2547
  152SOL    HW1  455   1.389   1.771   1.343  1.5130  0.2936  0.4488
  152SOL    HW2  456   1.254   1.715   1.245 -0.2440 -2.3546  0.5954
  153SOL     OW  457   0.022   1.532   0.146 -0.0729 -0.4715  0.0391
  153SOL    HW1  458   0.005   1.433   0.157  1.6013 -1.8631  1.4721
  153SOL    HW2  459   0.053   1.577   0.234 -0.3244 -0.7462  0.4233
  154SOL     OW  460   2.361   1.855   2.825  0.1040  0.1360  0.0114
  154SOL    HW1  461   2.367   1.751   2.832 -0.3456  1.4146  0.3199
  154SOL    HW2  462   2.443   1.900   2.783 -1.2979 -0.2738  2.3634
  155SOL     OW  463   2.478   1.264   0.371 -0.3692 -0.2739  0.3062
  155SOL    HW1  464   2.572   1.241   0.330  3.2187 -1.9320 -0.6873
  155SOL    HW2  465   2.409   1.185   0.364  0.1011 -2.6766  1.6532
  156SOL     OW  466   2.568   0.934   0.875  0.5052  0.0877  0.3177
  156SOL    HW1  467   2.469   0.961   0.864  2.3373 -2.2516  0.6438
  156SOL    HW2  468   2.638   1.011   0.871  0.7848  2.2829  2.6798
  157SOL     OW  469   1.193   2.984   2.966  0.3726  0.1262  0.0063
  157SOL    HW1  470   1.252   2.922   2.906 -0.9230 -1.3060  0.8301
  157SOL    HW2  471   1.223   3.087   2.962 -0.8048  0.8760  1.5688
  158SOL     OW  472   1.017   1.858   1.967 -0.3862  0.7217 -0.1283
  158SOL    HW1  473   1.078   1.938   1.951 -0.6095  0.2522  0.0247
  158SOL    HW2  474   0.931   1.869   2.028 -1.3196  0.6983 -0.9661
  159SOL     OW  475   0.857   0.440   1.309 -0.6871  0.0401 -0.1973
  159SOL    HW1  476   0.846   0.533   1.354 -0.8092 -0.5282 -0.6780
  159SOL    HW2  477   0.785   0.415   1.237 -0.4495 -0.2045  1.7577
  160SOL     OW  478   1.455   2.481   1.640 -0.5383 -0.4461  0.4802
  160SOL    HW1  479   1.467   2.584   1.621  1.4394  2.1053  0.7268
  160SOL    HW2  480   1.533   2.434   1.584 -0.1275 -0.7057 -2.2488
  161SOL     OW  481   0.180   2.893   0.312  0.0377 -0.5530 -0.2475
  161SOL    HW1  482   0.098   2.870   0.367 -0.0037  3.4231 -3.0644
  161SOL    HW2  483   0.163   2.979   0.246 -3.8355  3.5078 -0.7040
  162SOL     OW  484   2.586   1.895   0.466 -0.2726 -0.7362 -0.5555
  162SOL    HW1  485   2.572   1.843   0.376  1.7903 -1.9992  1.8001
  162SOL    HW2  486   2.579   1.841   0.550 -1.4435 -1.0848 -3.4837
  163SOL     OW  487   1.964   2.668   0.714  0.3118 -0.1494  0.4953
  163SOL    HW1  488   1.927   2.699   0.620  0.5137 -1.9973 -0.9991
  163SOL    HW2  489   2.042   2.597   0.708  1.9115 -0.0172  1.3154
  164SOL     OW  490   3.043   0.278   1.276 -0.2536 -0.2197  0.2222
  164SOL    HW1  491   3.119   0.336   1.232 -0.8550 -0.6677 -0.3109
  164SOL    HW2  492   3.081   0.200   1.336  0.4114 -0.4561 -0.7272
  165SOL     OW  493   0.973   1.420   0.671  0.3051  0.0342 -0.2177
  165SOL    HW1  494   0.904   1.437   0.745 -0.7781 -2.6887 -0.2676
  165SOL    HW2  495   0.956   1.475   0.589 -3.9240 -3.1355  0.7265
  166SOL     OW  496   1.486   1.063   1.740  0.3499  0.1767 -0.8208
  166SOL    HW1  497   1.413   1.022   1.806  0.2319  0.9367  2.9151
  166SOL    HW2  498   1.574   1.093   1.792 -1.1616  0.1227 -1.0348
  167SOL     OW  499   0.825   1.923   1.540 -0.4287  0.0830 -0.2319
  167SOL    HW1  500   0.802   1.966   1.634 -1.6570 -0.5429 -1.2406
  167SOL    HW2  501   0.759   1.851   1.509  0.0595  0.6267 -0.8267
  168SOL     OW  502   1.618   2.383   0.160 -0.0273  0.0361 -0.1477
  168SOL    HW1  503   1.686   2.401   0.087 -2.9559 -0.6255 -0.7156
  168SOL    HW2  504   1.639   2.309   0.227  0.5285  1.5037  2.4162
  169SOL     OW  505   0.235   2.613   2.211  0.0921  0.4466 -0.0026
  169SOL    HW1  506   0.268   2.546   2.136 -2.4297  0.8880  2.0286
  169SOL    HW2  507   0.277   2.594   2.306 -0.0679  0.7226 -0.4167
  170SOL     OW  508   1.232   0.310   1.929  0.0122  0.4336  0.4630
  170SOL    HW1  509   1.266   0.271   2.018  0.8261 -0.8988 -0.8356
  170SOL    HW2  510   1.198   0.235   1.863  0.9285 -2.1465 -0.1830
  171SOL     OW  511   0.215   0.774   2.413  0.1349  0.6604 -0.1069
  171SOL    HW1  512   0.129   0.785   2.476 -4.0141  2.3905 -0.1763
  171SOL    HW2  513   0.200   0.784   2.310 -0.8180 -1.3010 -0.3690
  172SOL     OW  514   0.875   1.134   2.981 -0.3041 -0.6010  0.1021
  172SOL    HW1  515   0.965   1.182   3.008 -1.5051  0.0650 -1.7720
  172SOL    HW2  516   0.868   1.122   2.876 -1.9823 -0.0860  1.4505
  173SOL     OW  517   0.650   2.696   0.121  0.1683  0.2584 -0.4137
  173SOL    HW1  518   0.625   2.798   0.128 -0.1850  0.8202 -0.1877
  173SOL    HW2  519   0.569   2.638   0.144  3.0646  2.1619 -1.7475
  174SOL     OW  520   1.398   2.822   1.062 -0.1866  0.1421  0.3937
  174SOL    HW1  521   1.439   2.889   0.995  4.0433 -0.7358  0.4984
  174SOL    HW2  522   1.335   2.756   1.020  2.0686  1.2780  1.4542
  175SOL     OW  523   0.453   0.032   1.653 -0.2893  0.4069 -0.2921
  175SOL    HW1  524   0.511   0.053   1.740  1.4338  1.2144 -2.1949
  175SOL    HW2  525   0.388   0.110   1.626 -1.0951 -0.2569 -1.1391
  176SOL     OW  526   2.515   0.420   3.062  0.6041 -0.1884 -0.5877
  176SOL    HW1  527   2.540   0.483   3.140 -1.1599 -2.6950  2.1014
  176SOL    HW2  528   2.451   0.347   3.096 -1.2799 -0.3179  5.1345
  177SOL     OW  529   0.355   0.297   0.937 -0.2370 -0.5403  0.2590
  177SOL    HW1  530   0.425   0.267   1.005 -1.4443  1.6258 -2.9504
  177SOL    HW2  531   0.262   0.321   0.973  0.9424 -0.0638 -3.4636
  178SOL     OW  532   0.037   2.715   2.584 -0.3200 -0.3030  0.4593
  178SOL    HW1  533  -0.019   2.638   2.627 -0.3928  1.5325  0.9218
  178SOL    HW2  534   0.116   2.757   2.641  0.2760  1.0228  2.2446
  179SOL     OW  535   0.007   1.708   1.178 -0.1672 -0.3524  0.4585
  179SOL    HW1  536  -0.056   1.791   1.186  2.7634 -1.5008 -1.3084
  179SOL    HW2  537   0.005   1.655   1.262 -1.4765  1.0435 -1.5131
  180SOL     OW  538   0.242   1.206   1.823  0.5898  0.1325  0.2995
  180SOL    HW1  539   0.329   1.228   1.777  0.1090 -1.4972  1.2086
  180SOL    HW2  540   0.224   1.262   1.912  0.2112 -0.1869 -0.8816
  181SOL     OW  541   3.046   1.849   2.548  0.9418 -0.1649  0.1186
  181SOL    HW1  542   3.139   1.881   2.515 -2.6490  2.9730 -2.3055
  181SOL    HW2  543   2.971   1.905   2.508 -3.2451  3.6795 -1.3515
  182SOL     OW  544   2.316   1.260   1.151 -0.6146  0.0484  0.2846
  182SOL    HW1  545   2.223   1.242   1.118  0.5849  0.5875  0.3008
  182SOL    HW2  546   2.346   1.359   1.142  2.4004  0.5061 -0.5954
  183SOL     OW  547   1.478   2.274   2.497 -0.4058 -0.2743 -0.3784
  183SOL    HW1  548   1.410   2.198   2.526 -0.4339 -1.4868 -1.7952
  183SOL    HW2  549   1.575   2.234   2.501  4.8072 -3.3120  0.2843
  184SOL     OW  550   2.047   0.939   0.813 -0.3644 -0.1034  0.8891
  184SOL    HW1  551   1.964   1.001   0.800 -1.1219 -1.5934 -2.9527
  184SOL    HW2  552   2.021   0.837   0.825 -0.1048 -2.5117 -0.0582
  185SOL     OW  553   1.606   2.678   2.090 -0.5864  0.2444 -0.4789
  185SOL    HW1  554   1.557   2.762   2.042  0.9687  1.8945  0.5633
  185SOL    HW2  555   1.565   2.664   2.184  0.1832 -0.4039  2.1053
  186SOL     OW  556   0.068   2.214   1.721 -0.2894  0.1107  0.1173
  186SOL    HW1  557   0.123   2.299   1.711  0.5133 -1.6637  0.3583
  186SOL    HW2  558   0.128   2.130   1.727 -0.7166  2.9407 -0.6669
  187SOL     OW  559   1.375   0.727   1.684 -0.0211 -0.2050  0.1740
  187SOL    HW1  560   1.435   0.791   1.623  1.7502  0.5680 -2.9565
  187SOL    HW2  561   1.412   0.730   1.781  1.7758  0.2140 -0.6858
  188SOL     OW  562   2.802   2.805   1.507  0.1034  0.5140 -0.4459
  188SOL    HW1  563   2.767   2.903   1.494  1.2695  1.0369  3.1783
  188SOL    HW2  564   2.772   2.741   1.432 -1.7350  0.1793  1.9434
  189SOL     OW  565   0.847   1.023   1.393 -0.2813  0.0588 -0.0500
  189SOL    HW1  566   0.915   1.091   1.433 -4.1694 -0.1746 -1.4486
  189SOL    HW2  567   0.805   1.058   1.307  2.6697  2.6864 -1.2977
  190SOL     OW  568   1.510   1.847   1.590  0.1635  0.6737 -0.1437
  190SOL    HW1  569   1.432   1.897   1.545  1.1196  5.4482  1.3583
  190SOL    HW2  570   1.516   1.861   1.693  1.2455 -2.5860 -0.1570
  191SOL     OW  571   0.989   0.761   1.562 -0.4297 -0.2360  0.0061
  191SOL    HW1  572   1.049   0.677   1.565 -1.3537 -0.2937 -2.4618
  191SOL    HW2  573   1.047   0.843   1.533 -1.7299  0.9747  1.1969
  192SOL     OW  574   1.842   2.309   1.145  0.1363 -0.0418 -0.9526
  192SOL    HW1  575   1.742   2.320   1.142  0.5032 -1.8828  0.3868
  192SOL    HW2  576   1.894   2.360   1.071  1.6950  0.7049 -1.7225
  193SOL     OW  577   0.502   0.598   0.399  0.1117  0.6045  0.2564
  193SOL    HW1  578   0.497   0.574   0.497 -1.7863  1.4013 -1.0675
  193SOL    HW2  579   0.520   0.516   0.336  0.8489 -0.8664 -1.9394
  194SOL     OW  580   0.287   0.817   1.267 -0.1932  0.4907  0.2834
  194SOL    HW1  581   0.186   0.785   1.254 -0.7469  0.9720  1.6116
  194SOL    HW2  582   0.318   0.879   1.191  0.2668  0.4916  2.0738
  195SOL     OW  583   0.963   2.932   0.423  0.6339  0.2544 -0.1417
  195SOL    HW1  584   0.983   2.834   0.415 -1.2035  1.4933 -0.0139
  195SOL    HW2  585   1.051   2.977   0.434 -1.0580 -4.3298  1.2525
  196SOL     OW  586   0.293   1.433   1.415  0.2323 -0.7330 -0.5540
  196SOL    HW1  587   0.352   1.485   1.483  0.1226  0.6964 -0.0447
  196SOL    HW2  588   0.257   1.343   1.454 -1.4651 -1.5909  0.6258
  197SOL     OW  589   0.938   2.052   0.210 -0.0228  0.0596  0.5602
  197SOL    HW1  590   0.924   2.044   0.311  0.3166 -0.4777  0.4059
  197SOL    HW2  591   0.969   1.965   0.165  0.6241 -0.1585 -1.4756
  198SOL     OW  592   0.250   1.250   0.283  0.3720 -0.1738  0.5054
  198SOL    HW1  593   0.154   1.242   0.247 -1.6685  0.6768 -1.3522
  198SOL    HW2  594   0.295   1.337   0.255  0.7680 -3.0624 -2.1091
  199SOL     OW  595   2.251   0.381   2.521 -0.5456  0.1835  0.6981
  199SOL    HW1  596   2.184   0.339   2.582  0.0497 -1.0278 -1.7555
  199SOL    HW2  597   2.349   0.382   2.562 -0.7262 -1.0983 -0.7478
  200SOL     OW  598   0.007   2.985   0.710  0.4425 -0.4141 -0.2973
  200SOL    HW1  599  -0.088   2.970   0.668  0.4994  0.7684  0.5814
  200SOL    HW2  600   0.033   3.082   0.733 -2.8354 -0.1582 -1.3580
  201SOL     OW  601   1.124   0.749   0.635 -0.6828 -0.1731  0.3575
  201SOL    HW1  602   1.141   0.828   0.704 -0.3018  0.4135  0.7248
  201SOL    HW2  603   1.028   0.753   0.594  0.9929 -0.1024 -0.7163
  202SOL     OW  604   0.497   1.255   1.734 -0.0804 -0.2541  0.3618
  202SOL    HW1  605   0.548   1.243   1.642 -0.6614  3.1528 -2.4736
  202SOL    HW2  606   0.498   1.164   1.792 -0.3791 -0.2310 -0.5636
  203SOL     OW  607   0.705   0.193   1.610  0.5444  0.2155  0.2349
  203SOL    HW1  608   0.697   0.109   1.544  2.2652 -1.9299 -1.8002
  203SOL    HW2  609   0.759   0.161   1.692  1.3850  1.4810  0.3940
  204SOL     OW  610   2.094   1.849   3.021 -0.0447  0.1062 -0.2111
  204SOL    HW1  611   2.140   1.755   3.007 -0.4639 -1.2156 -1.7463
  204SOL    HW2  612   2.045   1.900   2.942  0.3905 -2.6723 -1.1723
  205SOL     OW  613   1.842   1.867   0.042 -0.3604  0.1263 -0.5984
  205SOL    HW1  614   1.929   1.832  -0.004  2.9764 -1.8072  1.2301
  205SOL    HW2  615   1.820   1.968   0.019  2.1996 -1.1733 -1.8512
  206SOL     OW  616   2.548   2.806   0.373  0.4724 -0.6339 -0.8830
  206SOL    HW1  617   2.617   2.726   0.381 -0.1144 -0.1319  0.7386
  206SOL    HW2  618   2.580   2.880   0.300  0.6687  1.9707 -0.8321
  207SOL     OW  619   0.608   1.777   2.900 -0.2608  0.1859  0.6243
  207SOL    HW1  620   0.700   1.738   2.863 -2.1935 -1.0310  0.9002
  207SOL    HW2  621   0.557   1.711   2.965  1.0353 -0.7000 -2.2012
  208SOL     OW  622   1.054   1.541   1.452  0.3888  0.0253  0.0588
  208SOL    HW1  623   0.977   1.588   1.397 -2.0781  1.3389 -3.1668
  208SOL    HW2  624   1.116   1.609   1.504  3.2933  0.5500 -1.5074
  209SOL     OW  625   0.309   0.948   2.996 -0.0737 -0.3688 -0.1384
  209SOL    HW1  626   0.313   0.891   2.909  1.5490 -2.3142  0.3937
  209SOL    HW2  627   0.256   0.900   3.070  0.1723 -0.6628 -0.5042
  210SOL     OW  628   1.721   0.472   1.183 -0.1878 -0.4337  0.2766
  210SOL    HW1  629   1.688   0.569   1.162 -0.4032  1.1558 -0.7717
  210SOL    HW2  630   1.817   0.455   1.153 -0.5599  0.8421 -0.2117
  211SOL     OW  631   2.129   1.053   1.619 -0.4280  0.5285 -0.5248
  211SOL    HW1  632   2.190   0.979   1.660 -0.6022 -1.1223  0.8127
  211SOL    HW2  633   2.174   1.131   1.561 -0.1138 -0.3512  2.5060
  212SOL     OW  634   0.009   0.968   1.494  0.0426  0.8777  0.2587
  212SOL    HW1  635   0.060   1.061   1.503 -0.6936  0.8773 -0.9407
  212SOL    HW2  636   0.034   0.902   1.570  0.6689 -0.5726 -3.0221
  213SOL     OW  637   2.704   0.349   0.273  0.7287  0.3718 -0.2799
  213SOL    HW1  638   2.767   0.286   0.224 -1.1235  1.6086 -0.2557
  213SOL    HW2  639   2.670   0.424   0.211  0.7235 -4.3972  2.3590
  214SOL     OW  640   2.173   0.264   2.261 -0.0373  0.1696  0.4393
  214SOL    HW1  641   2.194   0.314   2.353  4.1157  0.6826 -0.7660
  214SOL    HW2  642   2.146   0.164   2.275 -0.6370  0.3259 -1.8353
  215SOL     OW  643   1.653   2.271   2.005  0.6171  0.8602 -0.0333
  215SOL    HW1  644   1.749   2.311   2.013  1.0358 -1.8397  1.7767
  215SOL    HW2  645   1.581   2.323   2.070 -3.0186  0.5115  0.7735
  216SOL     OW  646   2.203   0.553   0.665 -0.3008  0.2011  0.5536
  216SOL    HW1  647   2.200   0.453   0.633  4.7914  1.3975  0.0102
  216SOL    HW2  648   2.262   0.615   0.600  1.2838  2.9794 -0.2622
  217SOL     OW  649   0.745   2.781   2.430 -0.1765 -0.2375 -0.4926
  217SOL    HW1  650   0.724   2.694   2.485  2.0201  2.6147  1.6140
  217SOL    HW2  651   0.754   2.763   2.328 -3.0562  0.7684  2.1955
  218SOL     OW  652   1.899   1.388   0.069 -0.5613 -0.0189 -0.0574
  218SOL    HW1  653   1.809   1.409   0.021 -0.1347  0.8081 -2.7674
  218SOL    HW2  654   1.882   1.319   0.140  1.3075 -0.2184 -0.7555
  219SOL     OW  655   2.358   1.259   2.517 -0.2822 -0.1493  0.2930
  219SOL    HW1  656   2.390   1.228   2.421 -1.3619  0.8883 -4.4644
  219SOL    HW2  657   2.368   1.186   2.592  1.7579  1.3784 -1.5884
  220SOL     OW  658   1.513   1.031   1.239  0.2849  0.0481 -0.6203
  220SOL    HW1  659   1.607   1.043   1.277  0.5819  1.3714 -2.3355
  220SOL    HW2  660   1.500   1.070   1.147  2.7273 -0.5734 -0.1514
  221SOL     OW  661   1.354   1.127   2.218 -0.3599 -0.3795  0.4884
  221SOL    HW1  662   1.326   1.186   2.139  1.0572 -2.3400 -0.3329
  221SOL    HW2  663   1.439   1.073   2.196  0.0206 -0.3836  1.0592
  222SOL     OW  664   1.226   0.045   1.215  0.1625 -0.2107  0.4089
  222SOL    HW1  665   1.275   0.004   1.295 -1.2880 -2.0966  2.7332
  222SOL    HW2  666   1.253   0.140   1.189  0.6578 -0.8210 -0.1609
  223SOL     OW  667   2.920   0.850   2.021 -0.9621  0.1238  0.3077
  223SOL    HW1  668   2.973   0.888   2.101  1.5861  0.0688 -1.4535
  223SOL    HW2  669   2.938   0.909   1.936 -1.4783  1.5404  0.5650
  224SOL     OW  670   1.486   0.951   2.797 -0.1018 -0.3361 -0.1730
  224SOL    HW1  671   1.534   0.890   2.730  1.9586  0.1456 -2.3285
  224SOL    HW2  672   1.472   1.048   2.751 -1.2518  2.2998 -3.0758
  225SOL     OW  673   2.981   2.760   2.883 -0.0579 -0.3987 -0.1436
  225SOL    HW1  674   2.980   2.675   2.816  1.2026 -2.6172 -2.3517
  225SOL    HW2  675   3.063   2.822   2.870 -0.3644  2.9189 -2.4791
  226SOL     OW  676   2.446   1.578   2.876 -0.1477  0.0530 -1.1399
  226SOL    HW1  677   2.459   1.574   2.772 -1.2142 -0.5520  1.0795
  226SOL    HW2  678   2.420   1.483   2.914  0.3956  0.7252  0.7649
  227SOL     OW  679   0.899   0.115   3.018  0.3003 -0.0072  0.3462
  227SOL    HW1  680   0.903   0.039   3.091  0.2993  0.6535  2.4164
  227SOL    HW2  681   0.874   0.076   2.924 -0.5936  0.1682 -3.3924
  228SOL     OW  682   2.381   0.625   2.835 -0.1945  0.3758 -0.1841
  228SOL    HW1  683   2.319   0.618   2.750  1.5334 -0.7748 -0.4957
  228SOL    HW2  684   2.480   0.591   2.817  3.7392  3.4834 -2.0362
  229SOL     OW  685   0.545   0.518   1.862 -0.4954 -0.2528  0.3600
  229SOL    HW1  686   0.559   0.478   1.765  3.5256  4.7939  0.4805
  229SOL    HW2  687   0.593   0.612   1.865  0.9624 -0.9836 -0.8306
  230SOL     OW  688   1.893   1.245   2.161  0.7289 -0.4463 -0.3744
  230SOL    HW1  689   1.967   1.251   2.083  2.7943  0.6712 -0.0435
  230SOL    HW2  690   1.800   1.289   2.143 -1.5932 -0.0283  0.7536
  231SOL     OW  691   0.632   0.996   3.007 -0.2035 -0.1638  0.0481
  231SOL    HW1  692   0.707   1.069   3.003  1.8461 -0.5952 -1.5992
  231SOL    HW2  693   0.585   1.000   3.100  2.3374 -3.2740  0.6126
  232SOL     OW  694   2.464   3.097   2.757 -0.0232 -0.5500  0.1367
  232SOL    HW1  695   2.510   3.043   2.833  1.0957 -0.9907 -1.6032
  232SOL    HW2  696   2.533   3.116   2.680 -0.9425 -0.2151  0.3199
  233SOL     OW  697   1.699   1.258   1.083 -0.0065  0.9382  0.5542
  233SOL    HW1  698   1.701   1.323   0.998 -3.2666 -0.2425 -0.9070
  233SOL    HW2  699   1.742   1.168   1.057  0.3149 -0.4520 -1.0516
  234SOL     OW  700   1.679   2.564   1.831 -0.6665 -0.7070  0.7359
  234SOL    HW1  701   1.647   2.600   1.922 -1.0577 -0.7305 -0.8751
  234SOL    HW2  702   1.623   2.489   1.787 -0.8367 -0.7431 -0.1373
  235SOL     OW  703   0.080   2.993   2.898 -0.6114 -0.0400 -0.0388
  235SOL    HW1  704   0.139   3.068   2.868 -4.0017  0.1052  0.1458
  235SOL    HW2  705   0.005   3.026   2.962 -0.8832  1.3042 -2.2855
  236SOL     OW  706   2.877   0.690   0.107 -0.1495  0.9770  0.0071
  236SOL    HW1  707   2.945   0.747   0.158  3.7381 -1.6063 -1.2044
  236SOL    HW2  708   2.923   0.623   0.041 -0.7580 -2.9118 -2.4308
  237SOL     OW  709   1.485   1.630   1.006 -0.0136 -0.2255  0.5546
  237SOL    HW1  710   1.587   1.621   1.026  1.3645  1.1358 -0.2888
  237SOL    HW2  711   1.436   1.677   1.083  5.5151  2.8993 -2.0617
  238SOL     OW  712   1.754   1.308   0.793 -0.8570 -0.1182 -0.7026
  238SOL    HW1  713   1.836   1.321   0.729 -0.9835 -0.3163 -0.1089
  238SOL    HW2  714   1.673   1.368   0.762  1.0693 -1.5382  1.5334
  239SOL     OW  715   2.066   0.261   2.691 -0.3280  0.6215 -0.8015
  239SOL    HW1  716   2.121   0.257   2.783 -1.3099  1.9900 -0.9862
  239SOL    HW2  717   1.974   0.313   2.701 -0.3183 -0.2483 -2.0621
  240SOL     OW  718   0.887   0.694   0.253  0.3901 -0.1090  0.1286
  240SOL    HW1  719   0.880   0.600   0.204  0.2542  0.6026 -1.3293
  240SOL    HW2  720   0.882   0.692   0.354 -0.3377  2.9886  2.3680
  241SOL     OW  721   0.583   0.084   0.310  0.1082  0.6164  0.5375
  241SOL    HW1  722   0.597   0.045   0.218 -0.4714  1.3801 -1.1223
  241SOL    HW2  723   0.526   0.013   0.365  1.4028 -0.7659 -2.4500
  242SOL     OW  724   0.660   2.452   1.162 -0.4180  0.0950 -0.1114
  242SOL    HW1  725   0.643   2.534   1.225 -1.5253  4.2063 -0.2982
  242SOL    HW2  726   0.741   2.461   1.102 -1.5425  1.2319  1.3392
  243SOL     OW  727   1.111   0.650   2.437  0.4625 -0.3664  0.2747
  243SOL    HW1  728   1.052   0.733   2.402 -1.7204  3.7486 -1.1146
  243SOL    HW2  729   1.050   0.565   2.458 -0.9438 -2.0275  0.2020
  244SOL     OW  730   2.805   1.868   2.431 -0.0721 -0.4036 -1.0033
  244SOL    HW1  731   2.862   1.873   2.346  0.9195 -0.4180  3.6417
  244SOL    HW2  732   2.708   1.829   2.415 -0.9718 -0.5895 -1.0639
  245SOL     OW  733   2.477   0.732   2.147  0.2228 -0.5987 -0.3193
  245SOL    HW1  734   2.481   0.806   2.222  1.6094  0.6643 -0.2153
  245SOL    HW2  735   2.520   0.650   2.182 -1.9755  0.0301  1.9346
  246SOL     OW  736   0.300   2.911   1.673  0.3677 -0.1374  0.1416
  246SOL    HW1  737   0.250   2.898   1.586  0.6989  1.9914 -0.7414
  246SOL    HW2  738   0.375   2.985   1.669  0.6998 -1.0990  1.1869
  247SOL     OW  739   2.184   0.583   3.037  0.1161  0.7172  0.1335
  247SOL    HW1  740   2.271   0.574   2.976  1.7098  0.3337 -1.9331
  247SOL    HW2  741   2.153   0.679   3.028  1.5077 -0.9871 -0.1332
  248SOL     OW  742   2.181   1.874   1.614 -0.6122 -0.1206 -0.0072
  248SOL    HW1  743   2.214   1.779   1.632 -0.9650 -0.8378 -0.6829
  248SOL    HW2  744   2.115   1.916   1.682 -0.6578  0.6596  0.4124
  249SOL     OW  745   1.928   2.008   1.955  0.0154 -0.0259 -0.0755
  249SOL    HW1  746   1.933   1.936   1.882 -0.2365  1.8452 -2.6333
  249SOL    HW2  747   2.017   2.048   1.976  0.0844 -0.0365 -1.1957
  250SOL     OW  748   1.037   0.702   1.866  0.9035  0.6248  0.5227
  250SOL    HW1  749   1.084   0.636   1.931  0.9559  2.3105  0.0721
  250SOL    HW2  750   1.050   0.685   1.765 -3.8805  2.4059  0.1497
  251SOL     OW  751   3.071   1.584   2.554  0.0142  0.3652 -0.2606
  251SOL    HW1  752   3.040   1.679   2.523 -0.1210  0.0338 -1.8252
  251SOL    HW2  753   2.988   1.525   2.569  0.6431 -0.3280  0.8445
  252SOL     OW  754   1.506   0.900   1.522  0.0615  0.4122  0.4505
  252SOL    HW1  755   1.520   0.942   1.428  0.5342 -0.2049 -2.6183
  252SOL    HW2  756   1.536   0.967   1.592  1.1901 -2.4759  0.2101
  253SOL     OW  757   0.941   1.579   0.367  0.0322 -0.3924  0.3892
  253SOL    HW1  758   0.948   1.481   0.325  1.7721  0.0312  0.0843
  253SOL    HW2  759   0.843   1.596   0.406 -5.9509  1.0703  0.6587
  254SOL     OW  760   2.038   2.183   1.599  0.6752 -0.0481 -0.0815
  254SOL    HW1  761   1.951   2.153   1.554 -1.2687 -1.4675  1.0720
  254SOL    HW2  762   2.034   2.170   1.704  0.7592 -0.6400  0.5417
  255SOL     OW  763   0.137   1.149   2.924  0.2260 -0.1497 -0.0084
  255SOL    HW1  764   0.163   1.249   2.892 -1.3058 -0.5679 -0.4822
  255SOL    HW2  765   0.216   1.091   2.948 -2.2704  2.7006  0.4473
  256SOL     OW  766   2.828   1.370   1.856  0.2794 -0.2592  0.1778
  256SOL    HW1  767   2.766   1.451   1.850 -0.2233 -1.9249  0.1988
  256SOL    HW2  768   2.776   1.285   1.891 -0.1178 -0.5290  1.9805
  257SOL     OW  769   0.903   0.180   1.895 -0.2171 -0.4519 -0.4125
  257SOL    HW1  770   0.950   0.249   1.829  2.4687  1.1042 -0.1609
  257SOL    HW2  771   0.926   0.080   1.867 -2.3247 -1.6789 -1.7599
  258SOL     OW  772   2.968   1.277   0.429  0.2703  0.2127 -0.3389
  258SOL    HW1  773   2.926   1.367   0.408 -0.4241 -1.5640  1.5920
  258SOL    HW2  774   3.022   1.272   0.524  2.0405 -3.8587  0.9859
  259SOL     OW  775   0.448   2.913   2.980 -0.1059  0.0686  0.2431
  259SOL    HW1  776   0.408   2.867   3.061  0.4026  1.9947  1.6054
  259SOL    HW2  777   0.440   2.855   2.893  2.8620 -2.8397 -0.9160
  260SOL     OW  778   2.701   0.849   2.757  0.7820  0.9687 -0.3920
  260SOL    HW1  779   2.610   0.871   2.709  0.2336  1.1887 -0.5375
  260SOL    HW2  780   2.691   0.818   2.856 -0.4323 -1.4110 -1.1043
  261SOL     OW  781   2.730   1.353   1.319 -0.0086  0.1404 -0.2102
  261SOL    HW1  782   2.658   1.307   1.260  3.0361  0.7148  1.4918
  261SOL    HW2  783   2.826   1.312   1.309 -0.1952 -0.7834  1.2689
  262SOL     OW  784   1.473   2.901   1.994 -0.7908  0.1965 -0.7304
  262SOL    HW1  785   1.473   3.001   1.968  1.5417  1.6638 -1.0811
  262SOL    HW2  786   1.376   2.864   2.006  0.1501 -0.4172  0.0294
  263SOL     OW  787   0.847   0.782   2.306 -0.1826 -0.0020 -0.1087
  263SOL    HW1  788   0.826   0.686   2.271  2.7876 -1.7932 -0.8422
  263SOL    HW2  789   0.877   0.847   2.229  0.5975 -0.0512 -2.4207
  264SOL     OW  790   2.258   0.702   0.463 -0.2692 -0.3297 -0.9251
  264SOL    HW1  791   2.159   0.682   0.483  2.3938  0.7613  1.4065
  264SOL    HW2  792   2.277   0.801   0.454 -2.8545 -4.7542  1.6006
  265SOL     OW  793   0.899   2.270   2.671 -0.0099 -0.4463  0.1751
  265SOL    HW1  794   0.946   2.331   2.742 -1.2218  2.6976 -0.5595
  265SOL    HW2  795   0.819   2.224   2.711  2.5325  1.5663 -0.5392
  266SOL     OW  796   1.340   1.709   0.055 -0.2843 -0.1285 -0.3152
  266SOL    HW1  797   1.323   1.802   0.094  2.2881  0.1753  0.8176
  266SOL    HW2  798   1.439   1.691   0.038  0.5493  1.9012 -2.7814
  267SOL     OW  799   1.046   3.060   2.385 -0.4658 -0.2571  0.3050
  267SOL    HW1  800   1.038   2.989   2.305 -1.3374 -0.1588  0.6022
  267SOL    HW2  801   1.046   3.154   2.342  2.9216  0.7884 -0.8848
  268SOL     OW  802   0.676   1.157   1.025 -0.0547  0.1716  0.5684
  268SOL    HW1  803   0.713   1.212   1.110 -0.5517 -0.3209  2.3628
  268SOL    HW2  804   0.640   1.218   0.951  2.2405 -0.7639  1.0026
  269SOL     OW  805   2.439   2.442   1.601  0.3913 -0.7949 -0.3570
  269SOL    HW1  806   2.522   2.385   1.594  1.7514  1.0736  0.5499
  269SOL    HW2  807   2.395   2.443   1.692  0.0827 -0.5720 -2.2218
  270SOL     OW  808   0.172   3.005   1.938 -0.3632  0.9853 -0.0611
  270SOL    HW1  809   0.258   3.004   1.882 -2.1832 -1.2364 -2.6280
  270SOL    HW2  810   0.122   2.914   1.938 -0.7701  2.0058 -0.4777
  271SOL     OW  811   0.449   1.412   1.189 -0.6894  0.6635  0.0260
  271SOL    HW1  812   0.398   1.427   1.101 -1.0535 -5.3571 -0.4171
  271SOL    HW2  813   0.399   1.426   1.282  0.2961  0.0226  2.2602
  272SOL     OW  814   1.909   2.917   1.913  0.8659 -0.0121  0.5177
  272SOL    HW1  815   1.870   2.853   1.839  0.4250  2.6061  0.0100
  272SOL    HW2  816   1.984   2.968   1.877 -3.9897 -0.0620 -0.5401
  273SOL     OW  817   1.405   1.413   2.823 -0.1944  0.3296  0.3684
  273SOL    HW1  818   1.327   1.449   2.757 -1.3745 -2.1506 -1.8200
  273SOL    HW2  819   1.401   1.455   2.920 -0.0512  0.1081  0.9880
  274SOL     OW  820   1.147   0.528   2.042 -0.2282  0.4431  0.1484
  274SOL    HW1  821   1.166   0.444   1.991 -1.7290  2.0927 -0.8846
  274SOL    HW2  822   1.226   0.547   2.112  2.5068  2.1041  0.1989
  275SOL     OW  823   0.621   2.084   1.967  0.1489 -0.2763 -0.3718
  275SOL    HW1  824   0.594   2.177   1.939  0.1578  0.3007  2.7131
  275SOL    HW2  825   0.552   2.012   1.929 -1.2391  1.0067  1.3054
  276SOL     OW  826   2.171   0.930   2.747  0.0178 -0.5316 -0.4120
  276SOL    HW1  827   2.093   0.920   2.681 -0.6482 -2.0345 -0.7354
  276SOL    HW2  828   2.145   0.899   2.842 -1.0207  1.5864 -4.1155
  277SOL     OW  829   3.056   0.867   0.207  0.1754  0.0025  0.0635
  277SOL    HW1  830   3.138   0.914   0.166 -0.5306  1.3680  0.9378
  277SOL    HW2  831   3.084   0.779   0.262 -0.6667  1.8046  1.8481
  278SOL     OW  832   0.201   0.287   2.964  0.2371  0.5965  0.2238
  278SOL    HW1  833   0.255   0.221   3.023  2.4155  0.0151  1.8952
  278SOL    HW2  834   0.220   0.383   2.980  2.0858 -1.0065  0.2200
  279SOL     OW  835   0.161   0.055   0.862  0.1741  0.3366 -0.1790
  279SOL    HW1  836   0.201   0.066   0.956 -0.9923  0.6175 -0.0451
  279SOL    HW2  837   0.236   0.030   0.793 -1.3756 -0.7246 -1.1824
  280SOL     OW  838   1.618   2.922   2.560  0.7878 -1.0544  0.1781
  280SOL    HW1  839   1.707   2.979   2.556 -0.5924  1.7731  1.9379
  280SOL    HW2  840   1.530   2.972   2.531  0.3522  1.2722 -3.8637
  281SOL     OW  841   0.565   0.984   2.295 -0.0957  0.5042 -0.7423
  281SOL    HW1  842   0.571   0.884   2.257 -1.5221  0.8442 -0.3038
  281SOL    HW2  843   0.524   0.982   2.393  0.9489 -0.5783  0.8236
  282SOL     OW  844   1.723   2.402   0.509 -0.5495 -0.5570 -0.1862
  282SOL    HW1  845   1.722   2.344   0.422 -0.8743 -1.5438  0.9953
  282SOL    HW2  846   1.661   2.491   0.518 -1.7545  1.2031  0.0896
  283SOL     OW  847   1.188   0.959   0.806  0.0592 -0.1955  0.7507
  283SOL    HW1  848   1.217   0.926   0.899 -0.0663 -1.9748  2.8376
  283SOL    HW2  849   1.134   1.044   0.806  1.5405 -1.6390 -0.0770
  284SOL     OW  850   2.374   2.792   2.327  0.3973 -0.2567 -0.4407
  284SOL    HW1  851   2.460   2.841   2.292  1.6427  0.9089 -0.2697
  284SOL    HW2  852   2.365   2.793   2.427 -3.9040  1.8119 -4.3403
  285SOL     OW  853   1.332   2.964   2.539 -0.4246 -0.1710 -0.1689
  285SOL    HW1  854   1.339   2.987   2.434  1.9054  0.0876 -2.8610
  285SOL    HW2  855   1.264   3.027   2.582  0.8947  2.6673 -1.7058
  286SOL     OW  856   0.461   0.417   0.703 -0.2533 -0.4254  0.0230
  286SOL    HW1  857   0.436   0.369   0.791  1.1480 -1.7145 -1.3127
  286SOL    HW2  858   0.448   0.354   0.623  1.4618  0.5123 -0.2084
  287SOL     OW  859   0.126   1.302   2.547  0.2795  0.0588 -0.0734
  287SOL    HW1  860   0.054   1.235   2.581  0.3661 -1.0663 -0.5562
  287SOL    HW2  861   0.101   1.400   2.558  0.3147 -3.4225  2.5251
  288SOL     OW  862   1.577   2.689   1.514 -0.5914 -0.5051  0.5367
  288SOL    HW1  863   1.661   2.638   1.521 -2.4812  5.2359  3.7589
  288SOL    HW2  864   1.592   2.763   1.439 -3.2095 -1.6533 -3.1318
  289SOL     OW  865   0.677   2.727   0.771  0.3979 -0.5853  0.9686
  289SOL    HW1  866   0.716   2.794   0.705  1.3662 -2.4588 -0.0136
  289SOL    HW2  867   0.681   2.759   0.872  0.6647 -1.2475  1.0275
  290SOL     OW  868   2.861   1.123   1.602 -0.2631 -1.2235  0.1754
  290SOL    HW1  869   2.759   1.115   1.619  0.5177  1.9218  2.1733
  290SOL    HW2  870   2.911   1.075   1.675 -1.7358 -2.2379 -0.5588
  291SOL     OW  871   1.960   0.032   0.095 -0.2238 -0.1037 -0.3471
  291SOL    HW1  872   1.990   0.035   0.195 -1.2422 -1.5990 -0.5106
  291SOL    HW2  873   1.996   0.116   0.048 -0.2039 -1.4977 -0.8137
  292SOL     OW  874   2.984   1.163   3.028  0.5278  0.4191 -0.4662
  292SOL    HW1  875   2.916   1.194   2.955 -1.3260 -0.7392  1.7439
  292SOL    HW2  876   3.084   1.173   3.002  0.7253  0.4459  2.7532
  293SOL     OW  877   0.612   2.142   0.135 -0.0809  0.2073  0.3376
  293SOL    HW1  878   0.580   2.185   0.225 -0.9267  0.9697 -1.4723
  293SOL    HW2  879   0.710   2.116   0.139  2.1956  0.5335  1.3991
  294SOL     OW  880   1.683   2.156   1.766  0.0679  0.5062 -0.2999
  294SOL    HW1  881   1.693   2.201   1.860  0.5549 -1.1285  1.8070
  294SOL    HW2  882   1.677   2.227   1.693 -0.0618 -2.3416 -0.6628
  295SOL     OW  883   1.019   0.998   0.452  0.8081  0.1082  0.3143
  295SOL    HW1  884   1.116   1.009   0.465 -2.8778 -2.3220 -2.3214
  295SOL    HW2  885   0.958   1.037   0.531  1.3914  0.2974  1.2101
  296SOL     OW  886   1.338   2.045   2.508  0.0112 -0.1231  0.5372
  296SOL    HW1  887   1.336   2.052   2.404 -1.4833 -0.5034 -0.3767
  296SOL    HW2  888   1.345   1.946   2.539 -0.2765  3.8154 -2.1065
  297SOL     OW  889   1.483   0.608   1.359  0.2168  0.0586  0.2257
  297SOL    HW1  890   1.468   0.518   1.404  1.6758  1.6248  1.4510
  297SOL    HW2  891   1.561   0.655   1.406 -2.3470  4.8441 -0.1613
  298SOL     OW  892   0.436   1.211   2.887  0.2135  0.2553  0.1427
  298SOL    HW1  893   0.459   1.161   2.974 -0.8290  2.4161 -0.9815
  298SOL    HW2  894   0.521   1.219   2.827 -1.3322  1.3426 -0.6698
  299SOL     OW  895   0.474   0.289   1.454  0.2015 -0.4070 -0.5743
  299SOL    HW1  896   0.444   0.371   1.397  2.5562  0.8180 -3.4152
  299SOL    HW2  897   0.570   0.309   1.494  3.3620  2.4302  0.2253
  300SOL     OW  898   1.188   1.794   2.896  0.3810 -0.0281  0.2380
  300SOL    HW1  899   1.167   1.732   2.818  2.9106 -0.5259 -1.7755
  300SOL    HW2  900   1.216   1.748   2.982  1.7499  2.2059 -2.1283
  301SOL     OW  901   0.447   0.271   0.461  0.3186 -0.0144  0.3566
  301SOL    HW1  902   0.354   0.275   0.421  0.6109  0.3327  3.6306
  301SOL    HW2  903   0.520   0.238   0.398  0.2823 -2.5027  2.1934
  302SOL     OW  904   1.247   2.323   2.316 -0.0413  0.3891 -0.3516
  302SOL    HW1  905   1.164   2.367   2.369  1.0874  0.0604 -1.5833
  302SOL    HW2  906   1.236   2.226   2.287 -0.0714 -0.2554 -1.2713
  303SOL     OW  907   0.951   2.328   0.789  0.1711 -0.0127 -0.1488
  303SOL    HW1  908   0.997   2.366   0.704  2.9564  0.9200 -0.6927
  303SOL    HW2  909   0.990   2.369   0.877  0.0452  0.5248 -0.3048
  304SOL     OW  910   0.135   2.060   0.654  0.2153 -0.0395 -0.2299
  304SOL    HW1  911   0.170   1.994   0.586 -1.8796  0.3549 -2.3776
  304SOL    HW2  912   0.070   2.127   0.609  3.2197 -0.5570  0.2830
  305SOL     OW  913   1.594   0.882   0.612 -0.5103  0.2611 -0.6995
  305SOL    HW1  914   1.538   0.876   0.526  0.9932 -3.4371  1.2917
  305SOL    HW2  915   1.662   0.806   0.634 -1.4801 -1.2276  0.4424
  306SOL     OW  916   0.477   1.855   1.901  0.1945 -0.5832 -0.0901
  306SOL    HW1  917   0.552   1.792   1.874  1.6991 -0.0258 -0.9160
  306SOL    HW2  918   0.413   1.820   1.975 -1.6996 -0.4749  0.0773
  307SOL     OW  919   0.021   0.841   2.603  0.2079 -0.0915 -0.2564
  307SOL    HW1  920   0.037   0.941   2.611 -0.5963  0.5286 -0.8929
  307SOL    HW2  921  -0.065   0.813   2.657 -0.3485  3.2871  3.3058
  308SOL     OW  922   1.514   2.662   2.877 -0.1002  0.7414 -0.4436
  308SOL    HW1  923   1.550   2.614   2.786  3.9895 -3.1794 -0.0713
  308SOL    HW2  924   1.445   2.604   2.923  2.7692  3.4931 -1.6197
  309SOL     OW  925   1.234   0.084   1.752  0.2887 -0.3017  0.3406
  309SOL    HW1  926   1.337   0.091   1.768 -1.3634  0.5057  0.3245
  309SOL    HW2  927   1.204   0.091   1.652  2.2010 -1.9457  1.5424
  310SOL     OW  928   1.440   2.561   0.718  0.9680 -0.3412 -0.8777
  310SOL    HW1  929   1.370   2.600   0.784  0.9706 -0.7453 -3.1111
  310SOL    HW2  930   1.497   2.635   0.682 -0.4882 -3.1976  0.7878
  311SOL     OW  931   1.160   0.958   1.559  0.2394 -0.4918  0.1823
  311SOL    HW1  932   1.227   0.889   1.592  1.2716 -1.5047  1.6868
  311SOL    HW2  933   1.207   1.042   1.531 -0.4469 -3.3434 -0.4850
  312SOL     OW  934   1.639   0.707   1.010  0.4245 -0.0187  0.0872
  312SOL    HW1  935   1.604   0.807   1.007  0.0416 -1.1039  1.6106
  312SOL    HW2  936   1.560   0.643   0.997  1.9143  1.0420  3.0439
  313SOL     OW  937   1.539   1.401   0.685  0.1999  0.0682  0.5784
  313SOL    HW1  938   1.447   1.440   0.678  0.4052  0.4341  0.4504
  313SOL    HW2  939   1.538   1.300   0.660  0.3247 -0.0388  0.9264
  314SOL     OW  940   2.982   3.077   3.095 -0.1649 -0.9840  1.1605
  314SOL    HW1  941   2.963   3.127   3.185  0.6057  0.3033  2.1410
  314SOL    HW2  942   2.907   3.007   3.072 -0.4754  2.4560 -2.1445
  315SOL     OW  943   1.220   0.223   2.780 -0.0864 -0.3045  0.0992
  315SOL    HW1  944   1.196   0.145   2.710  2.3274 -1.7492 -0.7272
  315SOL    HW2  945   1.268   0.194   2.864 -1.3350  1.6662 -1.6027
  316SOL     OW  946   1.713   2.099   0.912 -1.1326  0.5666 -0.3361
  316SOL    HW1  947   1.677   2.113   1.014 -0.8804  1.8768  0.3958
  316SOL    HW2  948   1.694   2.181   0.852 -0.8360  0.6451  0.4849
  317SOL     OW  949   1.128   0.719   2.845 -0.3485  0.3506  0.2768
  317SOL    HW1  950   1.057   0.740   2.918 -1.7750 -0.0590 -2.9581
  317SOL    HW2  951   1.102   0.628   2.795 -1.9247 -1.7953  2.0924
  318SOL     OW  952   1.443   3.021   2.255 -0.6428 -0.1359 -0.5096
  318SOL    HW1  953   1.413   3.107   2.214 -2.3755  0.6798 -1.4497
  318SOL    HW2  954   1.497   2.968   2.187  1.5797 -3.5851  4.0727
  319SOL     OW  955   0.656   2.406   2.909  0.0757 -0.1039 -0.0322
  319SOL    HW1  956   0.564   2.377   2.950 -2.1970  1.5425 -1.4833
  319SOL    HW2  957   0.730   2.334   2.919  2.2317  0.2299 -0.8255
  320SOL     OW  958   1.628   2.180   0.343  0.4000  0.1116 -0.3290
  320SOL    HW1  959   1.729   2.157   0.355  0.1262 -0.5572  2.1315
  320SOL    HW2  960   1.571   2.146   0.418 -1.3592 -0.9506  0.6835
  321SOL     OW  961   1.605   2.647   0.492  0.0779 -0.3197 -0.0422
  321SOL    HW1  962   1.519   2.696   0.463  3.1348 -0.4472 -1.9097
  321SOL    HW2  963   1.688   2.701   0.461  1.5116  0.2974 -1.4283
  322SOL     OW  964   2.548   1.123   2.260  0.4001  0.0553  0.4434
  322SOL    HW1  965   2.638   1.132   2.308 -1.2246 -1.2338 -3.0733
  322SOL    HW2  966   2.513   1.028   2.275  0.4339  2.2315  1.0231
  323SOL     OW  967   1.014   2.654   0.793  0.4802 -0.6358  0.3571
  323SOL    HW1  968   1.006   2.591   0.713  1.5300  0.0092  1.7439
  323SOL    HW2  969   1.021   2.756   0.765  0.7995  0.0891 -1.1004
  324SOL     OW  970   0.230   2.466   2.471  0.5105 -0.0228  0.3510
  324SOL    HW1  971   0.182   2.393   2.527 -0.1999  1.3660  0.7727
  324SOL    HW2  972   0.165   2.538   2.437  0.4853 -2.8222 -0.2197
  325SOL     OW  973   1.210   3.050   0.463 -0.1712 -0.1100  0.0616
  325SOL    HW1  974   1.248   3.083   0.371  0.8602 -0.5672 -0.8438
  325SOL    HW2  975   1.236   3.115   0.541  1.5850  2.3410 -0.2234
  326SOL     OW  976   2.467   0.754   3.053  0.1818 -0.4410 -0.0238
  326SOL    HW1  977   2.444   0.727   2.956  2.9345  2.5058 -0.9393
  326SOL    HW2  978   2.500   0.675   3.111 -1.1576 -0.8221  1.0636
  327SOL     OW  979   2.873   0.388   0.503  0.6494 -0.4849 -0.2313
  327SOL    HW1  980   2.820   0.368   0.415 -0.2568  2.0475 -0.9287
  327SOL    HW2  981   2.854   0.320   0.574  0.3807 -0.1085 -0.4592
  328SOL     OW  982   2.489   0.568   0.393  0.5010  0.6497  0.0344
  328SOL    HW1  983   2.397   0.615   0.409  0.2967  0.1521  0.4774
  328SOL    HW2  984   2.503   0.501   0.470 -0.4823 -1.8957  0.2500
  329SOL     OW  985   2.934   2.978   2.166 -0.1061 -0.4513 -0.1577
  329SOL    HW1  986   2.974   2.907   2.231 -0.5022 -0.3175  1.1364
  329SOL    HW2  987   2.979   3.071   2.178  0.9827 -1.4949 -0.1318
  330SOL     OW  988   0.530   0.181   1.894  0.0673  0.1414  0.2455
  330SOL    HW1  989   0.582   0.272   1.889 -0.2855  2.5207 -1.8488
  330SOL    HW2  990   0.553   0.119   1.978  1.5170 -2.1542  0.2540
  331SOL     OW  991   2.936   1.942   1.121 -0.6463 -0.2825  0.2399
  331SOL    HW1  992   2.963   2.022   1.060 -0.4490  1.3369  0.8051
  331SOL    HW2  993   2.863   1.967   1.189 -0.3797  1.7555 -1.1303
  332SOL     OW  994   0.424   1.125   0.071  0.1011  0.0952 -0.2356
  332SOL    HW1  995   0.358   1.066   0.013 -1.3134  0.8866 -1.2215
  332SOL    HW2  996   0.378   1.167   0.153 -2.2802  2.8583 -1.7754
  333SOL     OW  997   2.875   1.059   0.311 -0.1009  0.1165  0.1115
  333SOL    HW1  998   2.936   1.111   0.375  0.2175 -0.1808  0.1064
  333SOL    HW2  999   2.928   0.988   0.254 -0.2688 -2.5086  0.9605
  334SOL     OW 1000   1.686   1.188   1.888 -0.1409 -0.1942 -0.3089
  334SOL    HW1 1001   1.776   1.163   1.844  0.7493  0.0369 -3.4368
  334SOL    HW2 1002   1.700   1.269   1.954  1.2038 -2.1943  0.8437
  335SOL     OW 1003   1.988   2.764   2.613 -0.2540  0.0768  0.2870
  335SOL    HW1 1004   1.934   2.700   2.676  1.3799  1.9985 -0.4393
  335SOL    HW2 1005   2.049   2.824   2.673 -2.1067 -1.5852 -1.6500
  336SOL     OW 1006   0.260   0.093   2.772  0.4067 -0.5467  0.7431
  336SOL    HW1 1007   0.353   0.110   2.736 -0.9567 -0.1934  0.2499
  336SOL    HW2 1008   0.233   0.166   2.839 -1.9689 -2.1020 -0.6324
  337SOL     OW 1009   0.931   2.793   2.794 -0.2274  0.4487 -0.1015
  337SOL    HW1 1010   0.918   2.758   2.889  1.8382  0.7178  2.2344
  337SOL    HW2 1011   1.024   2.769   2.759  0.7844  2.3847  1.0431
  338SOL     OW 1012   0.028   0.988   0.680 -0.1134  0.0836  0.6033
  338SOL    HW1 1013  -0.072   0.971   0.700  1.0696  3.6244  0.9639
  338SOL    HW2 1014   0.035   1.093   0.673  0.4118  0.1627  2.4670
  339SOL     OW 1015   1.677   1.389   2.088 -0.1113  0.5046  0.0115
  339SOL    HW1 1016   1.577   1.416   2.083 -0.1974 -3.8121 -0.0182
  339SOL    HW2 1017   1.745   1.469   2.109 -0.9656 -1.6815  0.2229
  340SOL     OW 1018   2.315   0.801   1.217  1.0929 -0.6049  0.2611
  340SOL    HW1 1019   2.214   0.800   1.193  0.6445 -1.2748 -1.3612
  340SOL    HW2 1020   2.367   0.720   1.180 -0.4575  0.3360  1.3702
  341SOL     OW 1021   1.916   2.149   0.344 -0.4465  0.1320 -0.6079
  341SOL    HW1 1022   1.943   2.196   0.256  0.7314 -2.4583  0.3340
  341SOL    HW2 1023   1.990   2.166   0.417  1.2347  4.8591 -0.0139
  342SOL     OW 1024   2.200   2.103   2.769 -0.1698 -0.2927 -0.3348
  342SOL    HW1 1025   2.267   2.025   2.774  0.5776 -1.3767  1.0883
  342SOL    HW2 1026   2.108   2.081   2.819 -0.5652  1.3426  2.1271
  343SOL     OW 1027   0.323   0.791   2.775 -0.2077 -0.0829  0.0063
  343SOL    HW1 1028   0.298   0.860   2.700  3.4322 -0.1671  1.6975
  343SOL    HW2 1029   0.416   0.810   2.805 -1.6591 -0.2759 -1.2666
  344SOL     OW 1030   1.915   1.449   0.452  0.6479 -0.5254  0.5061
  344SOL    HW1 1031   1.925   1.368   0.390  1.0175 -1.3410  2.9693
  344SOL    HW2 1032   1.822   1.491   0.448  0.2262  1.1076  0.6248
  345SOL     OW 1033   1.392   2.276   2.890 -0.0139  0.3185  0.6690
  345SOL    HW1 1034   1.298   2.234   2.874 -0.2564  0.7473  0.7557
  345SOL    HW2 1035   1.468   2.216   2.850  1.7493  2.3769  1.0874
  346SOL     OW 1036   2.306   0.874   1.472 -0.0643  0.6294  0.1980
  346SOL    HW1 1037   2.262   0.970   1.476 -0.0200 -0.1020  0.7637
  346SOL    HW2 1038   2.318   0.845   1.371  1.6707 -0.2313  0.4331
  347SOL     OW 1039   0.730   2.849   1.511  0.1127 -0.4974 -0.0531
  347SOL    HW1 1040   0.719   2.791   1.597 -0.5324 -1.2491 -0.2480
  347SOL    HW2 1041   0.649   2.907   1.492  0.6016 -1.6230 -1.6484
  348SOL     OW 1042   0.091   0.654   2.856  0.9350  0.1274 -0.3494
  348SOL    HW1 1043   0.016   0.696   2.790 -1.7462  0.9952  0.6925
  348SOL    HW2 1044   0.186   0.676   2.822 -0.8631 -0.3416  0.4229
  349SOL     OW 1045   1.844   0.428   2.797 -0.3394 -0.1804 -0.2115
  349SOL    HW1 1046   1.802   0.500   2.733 -1.2584 -1.4109 -1.1065
  349SOL    HW2 1047   1.837   0.440   2.901 -0.9151  1.4097  0.9124
  350SOL     OW 1048   1.625   0.432   0.376 -0.2465 -0.0554  0.0068
  350SOL    HW1 1049   1.710   0.453   0.431 -2.0953 -0.7528 -0.8270
  350SOL    HW2 1050   1.581   0.527   0.352 -1.2814  0.3880 -3.3077
  351SOL     OW 1051   0.967   0.896   2.066  0.0192 -0.7501  0.2672
  351SOL    HW1 1052   0.939   0.988   2.027  0.3275  2.1040 -1.4121
  351SOL    HW2 1053   1.005   0.835   1.986  0.1396 -1.0140 -3.1242
  352SOL     OW 1054   2.001   1.296   0.659  0.4320  0.0239  0.4970
  352SOL    HW1 1055   1.973   1.348   0.573 -1.6566  1.4549 -3.8054
  352SOL    HW2 1056   2.093   1.329   0.694  0.2165 -0.2536  0.4757
  353SOL     OW 1057   2.139   2.900   1.131  0.2919  0.5413 -0.3310
  353SOL    HW1 1058   2.212   2.846   1.179 -1.0953  0.3399 -1.5286
  353SOL    HW2 1059   2.093   2.843   1.055 -2.7420  0.3966  3.3677
  354SOL     OW 1060   0.243   1.407   2.854  0.1514 -0.1315  0.4992
  354SOL    HW1 1061   0.220   1.493   2.797  1.4507  2.5710 -0.5721
  354SOL    HW2 1062   0.332   1.362   2.820 -1.8244 -0.8685 -0.6472
  355SOL     OW 1063   0.528   1.526   0.509  0.2954 -0.1134 -0.2739
  355SOL    HW1 1064   0.556   1.607   0.567  0.6117  0.7264  0.7629
  355SOL    HW2 1065   0.573   1.434   0.532  2.7111 -1.4105 -0.4891
  356SOL     OW 1066   0.930   0.339   2.116  0.4258 -0.8209 -0.7296
  356SOL    HW1 1067   0.999   0.412   2.111  2.0818  0.2033  2.2760
  356SOL    HW2 1068   0.924   0.275   2.032 -1.3028 -0.9544 -0.4942
  357SOL     OW 1069   1.030   1.300   0.350  0.2283  0.7140  0.4934
  357SOL    HW1 1070   0.979   1.245   0.276  0.6928 -4.7647  1.7986
  357SOL    HW2 1071   1.017   1.256   0.446 -1.5966 -1.1101  1.8746
  358SOL     OW 1072   1.650   1.518   0.452 -0.2104 -0.3794  0.5148
  358SOL    HW1 1073   1.624   1.477   0.546 -0.3881 -1.3120  1.9715
  358SOL    HW2 1074   1.575   1.492   0.384  1.2581 -1.3239 -0.9403
  359SOL     OW 1075   1.573   2.698   0.090 -0.0788  0.4477 -0.1461
  359SOL    HW1 1076   1.604   2.612   0.043  1.4375 -1.0590 -2.3836
  359SOL    HW2 1077   1.471   2.714   0.076  2.1016  1.7094 -2.0317
  360SOL     OW 1078   0.876   0.616   0.505 -0.8865  0.3775  0.7795
  360SOL    HW1 1079   0.795   0.617   0.572  0.2035 -0.2710  0.0656
  360SOL    HW2 1080   0.910   0.518   0.489  1.3641 -0.7976  0.6567
  361SOL     OW 1081   1.245   1.391   0.674 -0.2523 -0.1429 -0.0803
  361SOL    HW1 1082   1.271   1.411   0.772 -0.8412  0.5243  0.8887
  361SOL    HW2 1083   1.137   1.398   0.663 -0.4229 -0.0156 -1.0084
  362SOL     OW 1084   1.383   1.751   0.769  0.3773  0.1905 -0.1675
  362SOL    HW1 1085   1.411   1.693   0.850 -1.1351  2.8907 -0.9681
  362SOL    HW2 1086   1.464   1.812   0.737  1.1205  0.6189 -0.0382
  363SOL     OW 1087   1.218   1.298   2.036  0.3755 -0.5209  0.4852
  363SOL    HW1 1088   1.155   1.351   2.093  1.1611 -1.0113 -0.1520
  363SOL    HW2 1089   1.252   1.355   1.956  0.6561  0.6260  0.8713
  364SOL     OW 1090   0.537   2.350   1.917  0.2278  0.1990 -0.3650
  364SOL    HW1 1091   0.455   2.410   1.950 -1.8366  0.6920  1.6925
  364SOL    HW2 1092   0.565   2.364   1.818 -2.8564  1.0802 -0.3785
  365SOL     OW 1093   1.062   1.941   1.394 -0.4383 -0.2086  0.2508
  365SOL    HW1 1094   0.983   1.947   1.463  0.8455 -0.7949  1.7344
  365SOL    HW2 1095   1.065   1.849   1.341 -0.6777 -1.3914 -1.4406
  366SOL     OW 1096   2.817   2.048   0.483  0.2865  0.1860  0.2680
  366SOL    HW1 1097   2.747   1.973   0.461  0.1053 -2.2318 -0.6310
  366SOL    HW2 1098   2.889   2.060   0.412 -1.2089 -0.0996  2.4124
  367SOL     OW 1099   0.808   1.195   0.139  0.2220 -0.7282 -0.0916
  367SOL    HW1 1100   0.787   1.098   0.167 -0.0120  1.5580 -0.4562
  367SOL    HW2 1101   0.831   1.203   0.041 -0.8867 -6.0916  2.0803
  368SOL     OW 1102   1.515   0.577   0.708 -0.1193  0.1485  0.0688
  368SOL    HW1 1103   1.448   0.616   0.631 -0.0319 -0.0054 -3.2376
  368SOL    HW2 1104   1.602   0.635   0.714 -1.0008  2.5423  1.8439
  369SOL     OW 1105   0.272   1.732   0.049 -0.5774  0.3591 -0.0806
  369SOL    HW1 1106   0.296   1.815   0.114 -0.8092 -2.2846  0.7950
  369SOL    HW2 1107   0.173   1.714   0.056  0.2935  0.3242  0.0034
  370SOL     OW 1108   0.386   2.121   1.041  0.4866 -0.1531  0.4207
  370SOL    HW1 1109   0.415   2.212   1.002 -1.1522  0.0812  1.4412
  370SOL    HW2 1110   0.297   2.086   0.999 -0.4448  1.8744 -0.8655
  371SOL     OW 1111   2.899   2.223   2.746 -0.1308  0.3818 -0.3063
  371SOL    HW1 1112   2.905   2.185   2.846 -0.5161 -0.3978  1.4839
  371SOL    HW2 1113   2.979   2.273   2.713 -1.7085 -0.4934 -0.4121
  372SOL     OW 1114   0.993   1.908   0.939  1.4860  0.0156  0.5111
  372SOL    HW1 1115   0.959   2.000   0.971 -2.6714  0.1903  0.2023
  372SOL    HW2 1116   1.089   1.919   0.905  0.8409  0.2882  0.7443
  373SOL     OW 1117   1.954   2.009   0.888  0.5114 -0.2385 -0.4379
  373SOL    HW1 1118   2.004   2.010   0.977  0.3005 -1.8635 -2.3528
  373SOL    HW2 1119   1.861   2.054   0.892  2.7776  0.6634  0.1855
  374SOL     OW 1120   1.837   0.458   0.544 -0.3073  0.0650  0.0001
  374SOL    HW1 1121   1.836   0.409   0.638  0.8661  1.3479  0.6238
  374SOL    HW2 1122   1.929   0.476   0.515 -5.3559 -1.4297  5.4412
  375SOL     OW 1123   2.371   2.155   1.130 -0.1545  0.4028  0.1090
  375SOL    HW1 1124   2.456   2.169   1.077 -3.3794  0.0175  1.7261
  375SOL    HW2 1125   2.389   2.138   1.228  0.3129 -0.5264 -0.8342
  376SOL     OW 1126   3.022   0.606   1.408 -0.4999  0.0175 -0.3733
  376SOL    HW1 1127   3.085   0.660   1.472 -0.0360 -1.0559  1.1634
  376SOL    HW2 1128   2.924   0.607   1.436  0.5096  0.1703  1.9519
  377SOL     OW 1129   2.274   2.824   0.331 -0.0954 -0.0775  0.4828
  377SOL    HW1 1130   2.243   2.915   0.372  1.1201 -0.7122  1.2451
  377SOL    HW2 1131   2.372   2.797   0.355 -2.9503  1.3290 -0.3261
  378SOL     OW 1132   1.788   1.919   2.633 -0.2773 -0.1848 -0.0746
  378SOL    HW1 1133   1.801   1.819   2.666 -2.8069 -0.3092  2.2890
  378SOL    HW2 1134   1.808   1.936   2.530 -1.7771  0.1436 -0.0284
  379SOL     OW 1135   0.880   0.074   2.735 -0.1225  0.7016  0.3465
  379SOL    HW1 1136   0.844  -0.011   2.690 -0.4333 -1.4481  0.8074
  379SOL    HW2 1137   0.850   0.160   2.682  0.4233  0.5361  0.6227
  380SOL     OW 1138   1.519   1.155   0.582 -0.1155  0.2919 -0.6243
  380SOL    HW1 1139   1.430   1.158   0.527  0.7237 -0.0503 -0.7128
  380SOL    HW2 1140   1.538   1.059   0.629  2.4578 -1.0237  1.5579
  381SOL     OW 1141   1.307   1.195   1.525 -0.3592  0.1109  0.8752
  381SOL    HW1 1142   1.352   1.239   1.440  0.2749 -2.2033 -0.6234
  381SOL    HW2 1143   1.372   1.162   1.596 -2.0116 -0.3516 -1.0583
  382SOL     OW 1144   1.763   0.795   0.266  0.1757  0.0345  0.0028
  382SOL    HW1 1145   1.784   0.778   0.163  0.6063 -0.5409  0.2974
  382SOL    HW2 1146   1.848   0.819   0.323  1.2522  0.4284 -1.2398
  383SOL     OW 1147   2.573   0.968   1.504 -0.3168 -0.1847 -0.0874
  383SOL    HW1 1148   2.477   0.941   1.466  0.2122  4.0628 -0.3110
  383SOL    HW2 1149   2.653   0.910   1.468  1.3007 -2.7620  1.4810
  384SOL     OW 1150   0.881   2.278   0.081 -0.2884  0.1539 -0.9708
  384SOL    HW1 1151   0.839   2.357   0.141 -0.1275  0.5014  3.7880
  384SOL    HW2 1152   0.907   2.193   0.134  2.6955  3.3934 -2.8079
  385SOL     OW 1153   2.994   2.014   1.770  0.5844 -0.2010  0.2717
  385SOL    HW1 1154   3.057   2.092   1.742  0.2553  0.4254  1.7445
  385SOL    HW2 1155   3.031   1.929   1.722 -2.1264 -0.2230  4.2602
  386SOL     OW 1156   0.431   1.143   0.462 -0.1413 -0.3555  0.3744
  386SOL    HW1 1157   0.464   1.050   0.444 -0.4288  0.2374 -0.9646
  386SOL    HW2 1158   0.355   1.180   0.395 -0.3869  0.5805 -0.3560
  387SOL     OW 1159   0.987   0.281   1.647  0.4896  0.2453 -0.2836
  387SOL    HW1 1160   1.063   0.348   1.614 -2.3953 -0.6802 -0.5656
  387SOL    HW2 1161   0.952   0.231   1.566  2.2325  1.0989 -2.0029
  388SOL     OW 1162   1.184   2.622   1.785  0.4986  0.0560  0.0210
  388SOL    HW1 1163   1.193   2.630   1.680  3.2001  0.9091 -1.2746
  388SOL    HW2 1164   1.255   2.572   1.842  0.9691 -1.8538  1.9125
  389SOL     OW 1165   0.243   0.016   1.136 -0.5408 -0.3898  0.0087
  389SOL    HW1 1166   0.195  -0.002   1.231 -0.3902 -0.4109  1.9825
  389SOL    HW2 1167   0.272  -0.069   1.088 -0.5418 -0.8440  0.3574
  390SOL     OW 1168   1.042   0.882   1.235  0.5289  0.0586 -0.1993
  390SOL    HW1 1169   1.125   0.832   1.269  0.4433  3.4950  1.3338
  390SOL    HW2 1170   0.986   0.921   1.308  2.3421 -1.4706  1.1790
  391SOL     OW 1171   2.096   1.149   1.063  0.0730 -0.5035 -0.1803
  391SOL    HW1 1172   2.001   1.105   1.075  2.6248 -0.9337  0.3876
  391SOL    HW2 1173   2.157   1.088   1.015 -3.9697  1.4705 -0.0698
  392SOL     OW 1174   0.882   2.706   3.057  0.3106 -0.0902  0.0953
  392SOL    HW1 1175   0.789   2.729   3.093  1.2843  2.0631 -2.1517
  392SOL    HW2 1176   0.960   2.739   3.111 -0.5187 -1.5723 -0.6487
  393SOL     OW 1177   0.377   0.568   2.078  0.4673 -0.4499  1.0222
  393SOL    HW1 1178   0.279   0.553   2.041 -0.5131  0.4677 -0.0738
  393SOL    HW2 1179   0.447   0.530   2.012 -1.4866  1.1812 -0.6784
  394SOL     OW 1180   2.863   1.829   2.811  0.9002  0.3540 -0.3522
  394SOL    HW1 1181   2.932   1.890   2.862 -0.3199  0.9895  1.7263
  394SOL    HW2 1182   2.862   1.843   2.709  0.9884 -2.2208  1.5394
  395SOL     OW 1183   1.579   1.932   0.740 -0.4601 -0.0393  0.1283
  395SOL    HW1 1184   1.658   1.886   0.683 -1.1495  2.2396 -0.6753
  395SOL    HW2 1185   1.613   1.992   0.822 -0.3136 -2.4674  2.0004
  396SOL     OW 1186   2.773   2.053   1.308  0.4358 -0.1074 -0.0354
  396SOL    HW1 1187   2.833   2.066   1.393  1.6921 -0.7348  0.8357
  396SOL    HW2 1188   2.677   2.038   1.338  1.0238  1.8884  0.1249
  397SOL     OW 1189   1.015   2.086   0.648  0.2510  0.5176 -0.2221
  397SOL    HW1 1190   0.941   2.014   0.623 -0.0632 -2.8836 -1.4577
  397SOL    HW2 1191   0.982   2.170   0.692 -0.1255 -3.2550  1.4323
  398SOL     OW 1192   2.170   0.080   1.080 -0.4533  0.4204 -0.1400
  398SOL    HW1 1193   2.158  -0.019   1.104 -0.0727  2.3361 -0.3155
  398SOL    HW2 1194   2.077   0.136   1.088 -3.2243  0.9319  0.6536
  399SOL     OW 1195   2.973   2.535   2.715 -0.0512 -0.0795 -0.3840
  399SOL    HW1 1196   2.913   2.524   2.631 -0.9938 -1.2104 -0.4249
  399SOL    HW2 1197   2.923   2.509   2.803  2.3222 -0.8964 -2.4892
  400SOL     OW 1198   0.849   1.608   1.274  0.2357 -0.2576  0.4017
  400SOL    HW1 1199   0.791   1.635   1.357 -0.3884 -0.5425 -0.8825
  400SOL    HW2 1200   0.822   1.659   1.189 -0.8037 -1.4685  3.2815
  401SOL     OW 1201   1.821   0.138   1.274 -0.3440  0.0025 -0.2836
  401SOL    HW1 1202   1.876   0.199   1.333 -1.8810  1.7118  0.3608
  401SOL    HW2 1203   1.722   0.131   1.309  1.5589  1.3218  1.3973
  402SOL     OW 1204   1.318   0.128   3.041  0.0191 -0.0586  0.1567
  402SOL    HW1 1205   1.412   0.105   3.022 -4.3391 -2.2922 -0.1504
  402SOL    HW2 1206   1.295   0.229   3.046  0.6402  0.6994  0.4423
  403SOL     OW 1207   2.311   1.802   0.950  0.5511 -0.1750  0.2332
  403SOL    HW1 1208   2.409   1.837   0.969 -1.4058  2.2445 -0.0493
  403SOL    HW2 1209   2.241   1.855   1.004  1.3051 -0.4934  0.4863
  404SOL     OW 1210   0.187   2.505   2.836  0.6364 -0.0624 -0.3007
  404SOL    HW1 1211   0.280   2.470   2.801 -1.1121 -0.2684  1.9923
  404SOL    HW2 1212   0.173   2.606   2.809 -0.2311  1.3085  1.4815
  405SOL     OW 1213   0.232   2.570   0.553 -0.1699 -0.1294 -0.5569
  405SOL    HW1 1214   0.222   2.530   0.456 -1.7820 -1.2116 -3.3102
  405SOL    HW2 1215   0.297   2.653   0.562  2.0795  2.3461 -0.8117
  406SOL     OW 1216   0.032   1.515   2.988 -0.0662  0.2547 -0.0988
  406SOL    HW1 1217   0.112   1.464   2.948 -2.6095 -1.8239  2.8381
  406SOL    HW2 1218   0.035   1.525   3.093 -2.5517 -1.6823  1.0623
  407SOL     OW 1219   1.510   0.927   0.897 -0.2451 -0.1795  0.6022
  407SOL    HW1 1220   1.496   0.879   0.804 -2.1837 -3.6389  0.8701
  407SOL    HW2 1221   1.462   1.019   0.911 -0.5097  1.6180 -1.7792
  408SOL     OW 1222   1.507   2.404   0.960  0.2871  0.3912  0.1417
  408SOL    HW1 1223   1.572   2.403   0.878  1.3083 -1.2985 -1.9651
  408SOL    HW2 1224   1.533   2.481   1.019 -1.3235 -1.9258 -1.0014
  409SOL     OW 1225   0.666   0.858   0.675  0.0650 -0.3350 -0.6790
  409SOL    HW1 1226   0.583   0.877   0.614 -0.6169 -0.1431  1.4203
  409SOL    HW2 1227   0.692   0.761   0.677 -0.7659  0.9207  1.9695
  410SOL     OW 1228   1.313   2.019   1.493 -0.4997  0.4766 -0.2502
  410SOL    HW1 1229   1.307   2.084   1.572  1.9085 -1.3975 -0.3249
  410SOL    HW2 1230   1.212   2.000   1.458 -1.0216 -0.7460 -1.8135
  411SOL     OW 1231   2.377   1.833   0.038  0.0157 -0.1201 -0.0918
  411SOL    HW1 1232   2.287   1.795   0.004  0.5164  1.0857 -1.8208
  411SOL    HW2 1233   2.428   1.887  -0.037  1.7001  1.2870 -0.7396
  412SOL     OW 1234   1.511   2.407   2.210  0.1617 -0.0339 -0.6912
  412SOL    HW1 1235   1.585   2.440   2.278 -0.4780 -3.3394  1.7461
  412SOL    HW2 1236   1.430   2.369   2.262  0.4607  2.7810  1.4127
  413SOL     OW 1237   3.012   0.262   2.963  0.0689  0.0882  0.5942
  413SOL    HW1 1238   2.988   0.192   3.036  0.1686 -0.1951 -0.6302
  413SOL    HW2 1239   3.113   0.269   2.955  1.5421 -3.0458 -0.5541
  414SOL     OW 1240   1.772   1.375   1.332  0.1489  0.6377 -0.0415
  414SOL    HW1 1241   1.689   1.429   1.367 -1.9697 -1.7713  0.6562
  414SOL    HW2 1242   1.768   1.366   1.226 -2.3969 -0.0157  0.6987
  415SOL     OW 1243   0.368   2.274   0.665  0.1359 -0.2963 -0.2573
  415SOL    HW1 1244   0.323   2.365   0.642 -2.6085  3.3079  0.4080
  415SOL    HW2 1245   0.298   2.204   0.696 -1.1445  1.4285  0.6713
  416SOL     OW 1246   0.372   1.020   1.053 -0.2387 -0.1888 -0.0482
  416SOL    HW1 1247   0.327   0.969   0.978  3.4116  0.4108 -0.2555
  416SOL    HW2 1248   0.466   1.058   1.026  2.0046 -1.0048 -0.4463
  417SOL     OW 1249   2.145   2.323   1.896 -0.4870  0.6488  0.3248
  417SOL    HW1 1250   2.205   2.238   1.925  1.9112  2.5396  1.3455
  417SOL    HW2 1251   2.065   2.345   1.963  0.2172 -1.1210  0.0227
  418SOL     OW 1252   1.127   0.468   1.330  0.5081  0.8743 -0.3148
  418SOL    HW1 1253   1.031   0.465   1.292 -0.0195 -1.6871  2.1088
  418SOL    HW2 1254   1.201   0.450   1.256 -3.1870  0.7025  2.1169
  419SOL     OW 1255   0.973   0.376   3.029  0.4299 -0.0162  0.1044
  419SOL    HW1 1256   0.978   0.426   2.936 -3.2794 -0.5193 -0.6811
  419SOL    HW2 1257   0.950   0.274   3.009 -2.2318 -1.8076 -0.0995
  420SOL     OW 1258   0.228   2.256   0.346 -0.0275 -0.3098 -0.0456
  420SOL    HW1 1259   0.198   2.213   0.259 -1.3646 -0.2763  0.9377
  420SOL    HW2 1260   0.157   2.263   0.423 -1.5088 -1.6715 -1.3329
  421SOL     OW 1261   0.323   3.089   0.653 -0.2724  0.4097  0.3375
  421SOL    HW1 1262   0.335   3.003   0.595 -0.0605 -1.5934  1.9856
  421SOL    HW2 1263   0.410   3.140   0.683 -1.3439  1.5245  0.0075
  422SOL     OW 1264   0.926   2.500   1.029 -0.0371 -0.1021  0.1075
  422SOL    HW1 1265   0.929   2.582   0.960  0.1981 -0.0378 -1.0497
  422SOL    HW2 1266   0.988   2.524   1.110 -1.5298 -0.9171  0.1570
  423SOL     OW 1267   0.046   0.721   1.198  0.2126  0.1875 -0.0114
  423SOL    HW1 1268  -0.014   0.676   1.272 -0.0399 -2.5925  1.0747
  423SOL    HW2 1269   0.017   0.814   1.172  1.9992 -2.8352  1.5366
  424SOL     OW 1270   1.020   2.157   2.129 -0.0599  0.5453 -1.1544
  424SOL    HW1 1271   1.053   2.253   2.099 -0.2842 -1.4420 -1.7184
  424SOL    HW2 1272   0.967   2.158   2.220  0.4899  1.3840 -1.0538
  425SOL     OW 1273   1.996   1.400   1.070  0.1442 -0.2259 -0.3238
  425SOL    HW1 1274   2.010   1.299   1.083 -4.4238  2.3958  2.0838
  425SOL    HW2 1275   2.061   1.449   1.006  0.7436 -0.0572 -2.7696
  426SOL     OW 1276   1.554   1.536   1.378 -0.3091  0.6413 -0.0009
  426SOL    HW1 1277   1.479   1.597   1.336 -0.5717 -1.9474  0.8891
  426SOL    HW2 1278   1.566   1.559   1.482  0.6336  0.4694 -0.2564
  427SOL     OW 1279   1.920   2.370   2.058 -0.3835 -0.0872  0.3472
  427SOL    HW1 1280   1.975   2.306   2.120  2.2348  0.0520  2.3947
  427SOL    HW2 1281   1.913   2.470   2.084  2.1585 -1.2665 -0.6649
  428SOL     OW 1282   0.902   3.050   0.127 -0.3291 -0.2035  0.1559
  428SOL    HW1 1283   0.950   3.133   0.180 -0.4925 -1.7207  0.9492
  428SOL    HW2 1284   0.970   2.968   0.114  0.4558 -1.7129 -2.6700
  429SOL     OW 1285   1.320   0.059   0.233 -0.1429  0.1390 -0.5230
  429SOL    HW1 1286   1.409   0.105   0.261  2.0687  2.0957 -1.6659
  429SOL    HW2 1287   1.295   0.075   0.136  0.4528  0.0300  1.6702
  430SOL     OW 1288   2.806   1.516   0.357 -0.2218  0.0073  0.1936
  430SOL    HW1 1289   2.838   1.585   0.284  2.5980  2.6317 -1.7067
  430SOL    HW2 1290   2.797   1.566   0.448 -0.5723  0.4511 -1.4603
  431SOL     OW 1291   2.144   1.599   0.907  0.4554 -0.0836 -0.1362
  431SOL    HW1 1292   2.205   1.672   0.951 -1.2522 -0.8468 -1.1003
  431SOL    HW2 1293   2.058   1.637   0.864  1.8187 -0.2939 -0.9162
  432SOL     OW 1294   2.932   2.297   1.250  0.1268 -0.3339  0.2068
  432SOL    HW1 1295   2.874   2.215   1.262 -0.3422  1.8171  1.1745
  432SOL    HW2 1296   2.956   2.324   1.345  2.3286 -3.2650 -3.9917
  433SOL     OW 1297   1.822   0.354   0.795  0.0748  0.5196 -0.2197
  433SOL    HW1 1298   1.734   0.334   0.845 -0.2782 -0.3507  2.0776
  433SOL    HW2 1299   1.905   0.294   0.819  0.6562  1.4236 -2.6054
  434SOL     OW 1300   1.534   0.278   0.700 -0.5148  0.3289 -0.1249
  434SOL    HW1 1301   1.512   0.368   0.661 -0.7345  1.0002 -1.1822
  434SOL    HW2 1302   1.527   0.281   0.809 -1.8344 -0.1184  0.6294
  435SOL     OW 1303   1.439   1.509   2.102  0.2816 -0.9048 -0.3557
  435SOL    HW1 1304   1.390   1.488   2.194 -0.0947 -3.4333  0.4211
  435SOL    HW2 1305   1.406   1.600   2.063 -1.6416  0.8975 -1.2787
  436SOL     OW 1306   1.660   2.650   2.408  0.0534 -0.5719  0.7766
  436SOL    HW1 1307   1.644   2.745   2.450 -2.2843  2.1762  0.3007
  436SOL    HW2 1308   1.613   2.577   2.469  0.1930 -1.0592  2.9529
  437SOL     OW 1309   1.094   2.917   0.891 -0.3135  0.5254  0.7480
  437SOL    HW1 1310   1.052   3.009   0.870  1.4206 -1.2712  1.8360
  437SOL    HW2 1311   1.127   2.923   0.989 -0.2429 -0.6915  1.2148
  438SOL     OW 1312   1.074   2.519   1.292  0.9527  0.3192 -0.2485
  438SOL    HW1 1313   1.096   2.586   1.366 -2.0004 -0.6492 -0.6631
  438SOL    HW2 1314   1.040   2.427   1.326  0.0181  0.8240  5.1026
  439SOL     OW 1315   0.720   1.710   1.048  0.1140  1.0694  0.0345
  439SOL    HW1 1316   0.724   1.783   0.976  0.3454 -2.7531 -3.3762
  439SOL    HW2 1317   0.625   1.720   1.084 -1.9891  0.4168 -4.9381
  440SOL     OW 1318   1.041   2.417   2.047  0.0242 -0.3532  0.0720
  440SOL    HW1 1319   0.972   2.458   1.978 -1.5961 -1.2129 -1.9318
  440SOL    HW2 1320   1.134   2.406   2.006  0.6358 -1.1288  0.1596
  441SOL     OW 1321   0.345   2.707   1.384 -0.0493 -0.7010  1.0820
  441SOL    HW1 1322   0.403   2.626   1.408  0.7312  0.0211  1.4226
  441SOL    HW2 1323   0.339   2.730   1.289 -1.0468  0.4231  1.7638
  442SOL     OW 1324   2.238   0.657   2.611 -0.3175 -0.5602 -0.0358
  442SOL    HW1 1325   2.204   0.568   2.569 -0.4948  0.5064 -1.9567
  442SOL    HW2 1326   2.160   0.729   2.610 -3.2399  0.9157  3.3677
  443SOL     OW 1327   1.273   2.654   2.237 -0.3271  0.4579 -0.1102
  443SOL    HW1 1328   1.286   2.562   2.276  1.4927 -0.2076  1.3250
  443SOL    HW2 1329   1.213   2.714   2.301 -0.0698  2.1536  0.9385
  444SOL     OW 1330   1.017   1.215   1.488  0.1348  0.8345  0.7140
  444SOL    HW1 1331   1.117   1.225   1.486 -3.0513  0.0471  1.6732
  444SOL    HW2 1332   0.978   1.248   1.580 -0.1153 -4.2125 -0.0103
  445SOL     OW 1333   0.149   2.298   2.016 -0.7019  0.5139 -0.8278
  445SOL    HW1 1334   0.078   2.244   1.964  0.6361 -2.1475 -0.8092
  445SOL    HW2 1335   0.167   2.258   2.108 -1.5269  1.1802 -4.4172
  446SOL     OW 1336   0.150   1.952   2.370  0.0536  0.1102  0.4313
  446SOL    HW1 1337   0.096   2.038   2.385 -0.9447 -2.4155  2.0854
  446SOL    HW2 1338   0.133   1.889   2.286  1.0720  0.4723  0.3873
  447SOL     OW 1339   1.257   1.691   1.983 -0.0880 -0.1738 -0.1574
  447SOL    HW1 1340   1.161   1.729   1.997 -0.3212 -1.8625  1.1513
  447SOL    HW2 1341   1.334   1.757   2.005  1.7934 -2.5602 -1.7264
  448SOL     OW 1342   0.211   1.443   2.050 -0.8329 -0.0742 -0.1469
  448SOL    HW1 1343   0.170   1.526   1.999  0.0510 -0.0475 -0.2899
  448SOL    HW2 1344   0.152   1.414   2.124  3.4283  1.8469 -2.9324
  449SOL     OW 1345   1.876   2.920   0.798 -0.3899 -0.1030  0.0407
  449SOL    HW1 1346   1.882   2.941   0.897 -0.6522  0.9465 -0.1473
  449SOL    HW2 1347   1.923   2.829   0.768 -0.4843  2.0142  1.4254
  450SOL     OW 1348   2.257   1.470   0.686 -0.4475  0.5079  0.2837
  450SOL    HW1 1349   2.198   1.521   0.757 -0.8901 -0.3441  0.2770
  450SOL    HW2 1350   2.248   1.516   0.596  2.1203  1.8722  3.8849
  451SOL     OW 1351   1.380   3.038   1.496 -0.5627  0.2790  0.0886
  451SOL    HW1 1352   1.314   3.116   1.502  2.3297 -1.4829  0.2304
  451SOL    HW2 1353   1.411   2.985   1.589  0.5554 -0.9232  0.8991
  452SOL     OW 1354   2.663   2.287   2.275 -0.0928 -0.0150  0.6590
  452SOL    HW1 1355   2.602   2.376   2.282 -0.2868 -0.0763  1.5788
  452SOL    HW2 1356   2.693   2.252   2.368 -2.2776 -0.6332  1.0635
  453SOL     OW 1357   2.482   2.664   3.059 -0.2583 -0.4383  0.4388
  453SOL    HW1 1358   2.401   2.701   3.106  1.5062  2.8936 -2.3482
  453SOL    HW2 1359   2.451   2.590   2.992 -2.9063 -5.1772  0.9591
  454SOL     OW 1360   0.919   1.161   2.009 -0.1863 -0.5318  0.1967
  454SOL    HW1 1361   0.896   1.133   1.911 -1.3120  0.1616  2.2313
  454SOL    HW2 1362   1.001   1.224   2.019 -0.7117 -2.3498 -0.1828
  455SOL     OW 1363   0.655   2.665   2.816  0.0789  0.4806  0.4296
  455SOL    HW1 1364   0.738   2.720   2.825 -0.1690 -0.5335  2.3498
  455SOL    HW2 1365   0.648   2.572   2.865  1.5635 -0.2824  0.2947
  456SOL     OW 1366   0.355   1.936   0.224 -0.5325 -0.5869  0.2817
  456SOL    HW1 1367   0.452   1.924   0.256  1.0976  0.9532 -1.5532
  456SOL    HW2 1368   0.341   2.025   0.174  1.5985 -0.0748 -1.3484
  457SOL     OW 1369   0.420   2.781   0.655 -0.1816  0.2429 -0.0967
  457SOL    HW1 1370   0.443   2.830   0.571 -2.0923 -1.2364 -0.4110
  457SOL    HW2 1371   0.510   2.743   0.697 -0.2346  0.0769  2.0119
  458SOL     OW 1372   2.843   0.026   1.233 -0.5668 -0.0925 -0.3664
  458SOL    HW1 1373   2.914   0.097   1.199 -1.0874  0.9806  1.1609
  458SOL    HW2 1374   2.859  -0.062   1.180 -0.0323  0.6089 -1.2936
  459SOL     OW 1375   2.233   2.499   0.796 -0.1175  0.3778  0.1943
  459SOL    HW1 1376   2.263   2.558   0.877 -1.5707  1.6073 -1.6686
  459SOL    HW2 1377   2.294   2.509   0.711 -1.3572 -0.4828  0.0077
  460SOL     OW 1378   1.197   2.074   2.776 -0.1052 -0.0513  0.3090
  460SOL    HW1 1379   1.228   2.066   2.676 -0.1182  0.5336  0.7346
  460SOL    HW2 1380   1.200   1.982   2.828  2.1467  0.4972  0.8204
  461SOL     OW 1381   0.411   2.108   2.714  0.0167 -0.8041  0.4138
  461SOL    HW1 1382   0.373   2.022   2.665 -0.2217  2.2643  0.6158
  461SOL    HW2 1383   0.461   2.092   2.803 -1.0960  1.2537 -0.5977
  462SOL     OW 1384   0.947   1.023   1.756  0.0342  0.2470  0.2765
  462SOL    HW1 1385   0.955   0.943   1.695  1.6693  1.3649  0.2203
  462SOL    HW2 1386   0.903   1.103   1.715 -0.8854 -1.5161  0.5519
  463SOL     OW 1387   0.463   0.850   0.490  0.1002  0.4315  0.1389
  463SOL    HW1 1388   0.483   0.754   0.455  1.0022  2.1105 -0.4549
  463SOL    HW2 1389   0.368   0.880   0.480 -0.1674 -2.3499  2.5284
  464SOL     OW 1390   0.594   2.342   2.195 -0.1007 -0.1691  0.5911
  464SOL    HW1 1391   0.522   2.405   2.238  0.9899 -1.0808 -1.7736
  464SOL    HW2 1392   0.600   2.352   2.089 -1.0592 -1.3440  0.7164
  465SOL     OW 1393   0.249   0.896   0.842  0.1588  0.1890  0.3027
  465SOL    HW1 1394   0.174   0.924   0.777  3.1880 -2.3618  1.3071
  465SOL    HW2 1395   0.264   0.795   0.831  0.6182  1.7666  0.9311
  466SOL     OW 1396   1.382   1.134   1.002  0.1201 -0.2997  0.0678
  466SOL    HW1 1397   1.403   1.231   0.973 -1.7544 -0.4815  3.1523
  466SOL    HW2 1398   1.282   1.122   1.031  0.4846 -0.6387 -0.2916
  467SOL     OW 1399   0.573   0.401   2.475  0.0827  0.0127 -0.4230
  467SOL    HW1 1400   0.528   0.492   2.499  0.4347 -1.5865 -0.8479
  467SOL    HW2 1401   0.605   0.356   2.563 -0.0303 -0.0147  1.6195
  468SOL     OW 1402   0.420   2.261   1.617 -0.5312 -0.0689  0.2934
  468SOL    HW1 1403   0.519   2.288   1.629 -0.4842 -3.8083 -0.7147
  468SOL    HW2 1404   0.406   2.241   1.514  0.3483  1.4340  0.7671
  469SOL     OW 1405   1.410   1.306   1.288  0.4183 -0.3817  0.3123
  469SOL    HW1 1406   1.477   1.265   1.225 -1.0854  1.4046 -0.7328
  469SOL    HW2 1407   1.455   1.393   1.336  0.3483 -0.7238  0.5438
  470SOL     OW 1408   3.017   1.781   0.731 -0.1140  0.1978 -0.2595
  470SOL    HW1 1409   3.091   1.826   0.685 -2.0392  1.3801  1.1569
  470SOL    HW2 1410   3.045   1.688   0.764 -1.2762  0.4411 -0.7691
  471SOL     OW 1411   2.562   1.366   2.164  0.3012 -0.1538 -0.0031
  471SOL    HW1 1412   2.549   1.278   2.221 -1.9323  0.5550  1.2635
  471SOL    HW2 1413   2.638   1.424   2.204  0.8766 -1.6184 -1.4512
  472SOL     OW 1414   1.140   2.420   0.065  0.4300 -0.6663  0.1115
  472SOL    HW1 1415   1.196   2.388   0.146  0.0134 -0.1445 -0.4934
  472SOL    HW2 1416   1.043   2.378   0.062 -2.0314  1.4602  0.1646
  473SOL     OW 1417   1.095   1.495   1.014  0.5721 -0.5869  0.8216
  473SOL    HW1 1418   1.003   1.512   0.972  0.2350  0.0204  0.0899
  473SOL    HW2 1419   1.084   1.452   1.108 -0.5636  1.6538 -0.5166
  474SOL     OW 1420   0.658   1.289   0.544  0.1918  0.0990  0.0221
  474SOL    HW1 1421   0.581   1.235   0.505  1.6084 -0.9764  1.3580
  474SOL    HW2 1422   0.744   1.233   0.560 -0.6935 -0.1900 -3.0675
  475SOL     OW 1423   2.793   0.021   0.799  0.0379 -0.3044  0.0498
  475SOL    HW1 1424   2.878   0.083   0.799  0.9822 -0.3555  1.0079
  475SOL    HW2 1425   2.710   0.056   0.855 -3.5932 -3.6933 -0.6087
  476SOL     OW 1426   0.994   3.019   1.775  0.4020 -0.5234 -0.3086
  476SOL    HW1 1427   1.075   3.064   1.821 -1.1522 -3.0401 -0.7120
  476SOL    HW2 1428   1.010   2.997   1.676 -1.0388  0.2678  0.1050
  477SOL     OW 1429   1.460   0.313   2.393  0.1449  0.3620 -0.0474
  477SOL    HW1 1430   1.464   0.361   2.485 -0.0790  2.0930 -0.4322
  477SOL    HW2 1431   1.554   0.276   2.365 -0.6410  1.0511  0.9798
  478SOL     OW 1432   2.216   1.870   0.268 -0.3395 -0.1018 -0.4702
  478SOL    HW1 1433   2.164   1.789   0.312  0.5274  2.6061 -3.0391
  478SOL    HW2 1434   2.294   1.845   0.206  0.5194 -2.6633 -2.3121
  479SOL     OW 1435   1.244   0.965   2.919  0.3028 -0.0732  0.4519
  479SOL    HW1 1436   1.326   0.979   2.857  1.0500  0.3820 -0.0473
  479SOL    HW2 1437   1.176   0.899   2.876 -0.1124 -0.0222  0.5135
  480SOL     OW 1438   2.684   2.326   0.386 -0.7166  0.7091  0.1026
  480SOL    HW1 1439   2.651   2.267   0.464 -2.9606 -2.2604  0.6323
  480SOL    HW2 1440   2.625   2.316   0.301 -0.5252  0.7485 -0.8483
  481SOL     OW 1441   1.043   1.206   0.837 -0.7670  0.4030 -0.8281
  481SOL    HW1 1442   1.021   1.304   0.796 -1.1866  1.6160 -0.6797
  481SOL    HW2 1443   1.053   1.208   0.942 -0.3819  1.0570  0.5539
  482SOL     OW 1444   1.578   0.296   1.993 -0.0138  0.1399 -0.1725
  482SOL    HW1 1445   1.607   0.398   2.001 -0.8272  2.0274 -1.1019
  482SOL    HW2 1446   1.655   0.233   2.026  2.5712  1.4313 -0.3763
  483SOL     OW 1447   0.199   2.341   1.229 -0.7129 -0.3550 -0.1373
  483SOL    HW1 1448   0.129   2.400   1.278  1.4512  1.8120  2.9438
  483SOL    HW2 1449   0.210   2.360   1.131  0.5327 -1.5083  0.1991
  484SOL     OW 1450   1.763   1.065   1.347  0.3933  0.5457  0.2415
  484SOL    HW1 1451   1.834   1.006   1.395  0.6671 -1.9194 -0.8716
  484SOL    HW2 1452   1.778   1.168   1.351 -2.3167 -0.5813  2.3062
  485SOL     OW 1453   0.760   0.748   1.814  0.4737  0.0912 -0.8028
  485SOL    HW1 1454   0.755   0.784   1.720  0.6340  2.1183  3.0610
  485SOL    HW2 1455   0.853   0.713   1.838 -0.8583 -1.1047 -2.5226
  486SOL     OW 1456   0.827   1.859   2.416  0.2358 -0.4083  0.1583
  486SOL    HW1 1457   0.855   1.859   2.513 -2.1637 -3.0319  1.5623
  486SOL    HW2 1458   0.833   1.952   2.365  1.5571  0.0954  1.2585
  487SOL     OW 1459   1.785   1.570   1.023 -0.6889  0.1792 -0.7007
  487SOL    HW1 1460   1.855   1.496   1.038 -0.5596  3.2899 -0.9547
  487SOL    HW2 1461   1.817   1.633   0.944 -0.4361  1.0334 -1.3191
  488SOL     OW 1462   2.988   0.849   2.297  0.3789  0.3463  0.3476
  488SOL    HW1 1463   3.041   0.760   2.293  0.6098  1.2264 -1.2922
  488SOL    HW2 1464   2.904   0.839   2.351  0.2147 -1.1600 -2.1199
  489SOL     OW 1465   2.771   0.360   1.240  0.4048  0.4812 -0.2765
  489SOL    HW1 1466   2.748   0.344   1.341  1.3631  2.4959  0.0523
  489SOL    HW2 1467   2.868   0.327   1.214 -0.5904  1.2568 -0.7395
  490SOL     OW 1468   1.443   2.912   2.825 -0.1028  0.2987  0.1957
  490SOL    HW1 1469   1.451   2.818   2.869  2.8066  1.2268  1.2796
  490SOL    HW2 1470   1.433   2.905   2.721 -0.2186  2.2157 -1.5747
  491SOL     OW 1471   1.733   1.494   2.695 -0.5518 -0.2581 -0.5329
  491SOL    HW1 1472   1.701   1.441   2.781  0.7127 -0.1539 -0.2447
  491SOL    HW2 1473   1.811   1.568   2.716  3.1830 -0.2144 -1.2065
  492SOL     OW 1474   0.580   2.069   0.637  0.8479 -0.1070 -0.9111
  492SOL    HW1 1475   0.595   2.055   0.736 -0.6097  1.6227 -2.7872
  492SOL    HW2 1476   0.503   2.145   0.621 -2.8540  1.7272 -1.8212
  493SOL     OW 1477   0.467   1.382   2.090  0.3779 -0.2087  0.0073
  493SOL    HW1 1478   0.386   1.437   2.054  1.2862 -0.6075 -0.0447
  493SOL    HW2 1479   0.445   1.279   2.086 -1.8122 -1.3290 -0.7373
  494SOL     OW 1480   2.699   2.555   0.109  0.0290 -0.4106  0.4785
  494SOL    HW1 1481   2.699   2.578   0.208  0.6604  2.4788 -1.6300
  494SOL    HW2 1482   2.621   2.599   0.058  0.3608  0.1683  0.9847
  495SOL     OW 1483   2.528   2.815   2.595 -0.4780 -0.2742 -0.0386
  495SOL    HW1 1484   2.553   2.715   2.612  1.0668 -2.7302  1.2174
  495SOL    HW2 1485   2.604   2.861   2.543  2.2952  0.5180  2.4656
  496SOL     OW 1486   1.979   2.311   0.816  0.4730 -0.3508  0.1589
  496SOL    HW1 1487   2.040   2.388   0.854  1.0420  0.8218  2.1184
  496SOL    HW2 1488   2.014   2.219   0.830 -0.0692  0.3438 -0.9038
  497SOL     OW 1489   0.153   3.001   2.367 -0.4438 -0.1577 -0.5323
  497SOL    HW1 1490   0.114   3.065   2.440 -2.0122  0.6889  2.0553
  497SOL    HW2 1491   0.197   3.053   2.290  0.9801  1.2326 -0.6428
  498SOL     OW 1492   1.151   1.373   1.256  0.7930 -0.0894 -0.5120
  498SOL    HW1 1493   1.256   1.367   1.253  0.0192  2.5888  0.3650
  498SOL    HW2 1494   1.117   1.438   1.328  0.0736 -0.7269  2.0163
  499SOL     OW 1495   0.632   1.778   0.307  0.2753 -0.1225 -0.2909
  499SOL    HW1 1496   0.683   1.743   0.224 -0.7586 -0.6358 -1.0850
  499SOL    HW2 1497   0.697   1.827   0.366 -2.1529 -2.4780 -2.7293
  500SOL     OW 1498   1.490   2.870   1.705 -0.6008 -0.2449  0.4425
  500SOL    HW1 1499   1.477   2.849   1.805 -1.2318  2.4220  0.5602
  500SOL    HW2 1500   1.528   2.787   1.654  0.7166 -4.2318  2.6300
  501SOL     OW 1501   0.790   1.126   2.288 -0.0239 -0.4230 -0.3552
  501SOL    HW1 1502   0.701   1.072   2.291  5.8206 -0.1975 -2.4277
  501SOL    HW2 1503   0.814   1.156   2.191  0.9433  1.6639  0.3288
  502SOL     OW 1504   2.613   0.936   1.775  0.1478  0.3807  0.0270
  502SOL    HW1 1505   2.597   0.963   1.672 -0.1153  0.6250 -2.0253
  502SOL    HW2 1506   2.626   0.834   1.789  0.5508  1.1012 -0.0339
  503SOL     OW 1507   1.292   0.140   0.628  0.1103  0.2136 -0.3578
  503SOL    HW1 1508   1.221   0.212   0.638 -1.0413 -0.2029 -0.2106
  503SOL    HW2 1509   1.387   0.175   0.624  0.4752  0.4294 -0.8498
  504SOL     OW 1510   3.012   2.320   1.490 -0.5063  0.8494 -0.6579
  504SOL    HW1 1511   2.977   2.403   1.540  0.5499 -1.3301  0.8279
  504SOL    HW2 1512   3.064   2.254   1.549  1.0578 -1.9995 -0.7836
  505SOL     OW 1513   2.283   1.175   1.414 -0.8311 -0.3951 -0.3818
  505SOL    HW1 1514   2.277   1.181   1.310 -1.6109 -0.4681 -3.7465
  505SOL    HW2 1515   2.346   1.247   1.463  0.5141  0.6968 -0.5297
  506SOL     OW 1516   1.951   0.179   1.832 -0.4414  0.0045 -0.5974
  506SOL    HW1 1517   2.046   0.142   1.824  0.1518  1.3057  0.7459
  506SOL    HW2 1518   1.951   0.278   1.865  1.5710  0.2774  0.4938
  507SOL     OW 1519   0.575   0.728   2.209 -0.1953  0.2012 -0.2037
  507SOL    HW1 1520   0.489   0.680   2.178 -2.0592  1.1506  0.8766
  507SOL    HW2 1521   0.651   0.655   2.241  1.2346 -1.4934 -1.3659
  508SOL     OW 1522   0.328   1.663   0.772  0.0675 -0.4806 -0.7436
  508SOL    HW1 1523   0.371   1.718   0.695  1.5839 -0.4904 -1.4893
  508SOL    HW2 1524   0.304   1.717   0.855 -1.3975  1.0897 -0.6645
  509SOL     OW 1525   1.299   1.198   2.478  0.3730 -0.3991 -0.2885
  509SOL    HW1 1526   1.313   1.147   2.389  0.4629 -0.7687 -2.1810
  509SOL    HW2 1527   1.199   1.192   2.503  1.5092 -0.8435 -0.8960
  510SOL     OW 1528   1.326   2.066   2.223 -0.3684  0.3374 -0.2240
  510SOL    HW1 1529   1.360   2.088   2.124  0.3029 -1.4144 -1.8258
  510SOL    HW2 1530   1.278   1.971   2.232  0.0823  1.6138  1.8812
  511SOL     OW 1531   3.022   2.737   1.274  0.5281 -0.3263 -0.5539
  511SOL    HW1 1532   3.054   2.750   1.176 -2.1826  0.0726 -2.9262
  511SOL    HW2 1533   2.917   2.729   1.282 -3.4904 -0.6573 -0.5446
  512SOL     OW 1534   2.379   0.415   1.401 -0.2069  0.3541  0.2609
  512SOL    HW1 1535   2.283   0.443   1.365 -2.3587 -2.7107 -2.7066
  512SOL    HW2 1536   2.434   0.372   1.319  2.9513 -0.0357 -0.5896
  513SOL     OW 1537   2.591   2.151   0.941 -0.1576  0.2329  0.2633
  513SOL    HW1 1538   2.528   2.186   0.862 -1.2938 -0.5482 -2.4926
  513SOL    HW2 1539   2.688   2.147   0.906 -0.2873 -1.6613  1.1427
  514SOL     OW 1540   0.672   2.717   0.404  0.1628  0.0441 -0.3795
  514SOL    HW1 1541   0.713   2.703   0.311 -1.7930 -1.6821  1.3667
  514SOL    HW2 1542   0.696   2.808   0.448  1.2346  2.3116 -1.9166
  515SOL     OW 1543   1.924   1.362   2.412 -0.1787  0.4443  0.0531
  515SOL    HW1 1544   1.930   1.344   2.308 -0.5650 -1.3448 -3.5310
  515SOL    HW2 1545   1.860   1.300   2.466  2.1444  1.3625  2.1277
  516SOL     OW 1546   0.270   0.286   1.885  0.2107  0.3236  0.2957
  516SOL    HW1 1547   0.365   0.249   1.882 -0.9939  2.9077  0.7458
  516SOL    HW2 1548   0.194   0.214   1.862  0.1505  0.1650 -0.6321
  517SOL     OW 1549   0.499   0.174   1.161  0.1256  0.5100 -0.4030
  517SOL    HW1 1550   0.561   0.156   1.241  1.9059 -0.0101 -0.3056
  517SOL    HW2 1551   0.415   0.121   1.166 -0.5083 -2.8353 -0.3828
  518SOL     OW 1552   2.150   3.065   1.788 -0.3185  0.2191 -0.0790
  518SOL    HW1 1553   2.235   3.121   1.812  3.8227 -0.4459  3.4832
  518SOL    HW2 1554   2.155   3.012   1.702  2.6163  1.2790 -1.4041
  519SOL     OW 1555   2.340   2.160   2.518 -0.2047 -0.6500  0.1357
  519SOL    HW1 1556   2.313   2.143   2.616  2.4912 -2.4378  1.4405
  519SOL    HW2 1557   2.352   2.263   2.496 -0.0671  2.0907 -4.3360
  520SOL     OW 1558   1.846   2.749   1.714 -0.3693  0.5010  0.7111
  520SOL    HW1 1559   1.778   2.676   1.741 -0.7552  2.0012 -2.2332
  520SOL    HW2 1560   1.933   2.701   1.671  1.5038 -4.9082  0.1943
  521SOL     OW 1561   0.553   0.032   2.111 -0.1378 -0.4533 -0.5057
  521SOL    HW1 1562   0.452   0.022   2.131  1.0192 -0.4176 -1.1743
  521SOL    HW2 1563   0.614   0.058   2.190  2.0178  1.5173  0.9145
  522SOL     OW 1564   0.235   1.871   1.465  0.0051 -0.0050  0.1493
  522SOL    HW1 1565   0.270   1.945   1.535 -0.0408 -0.6473  0.8966
  522SOL    HW2 1566   0.172   1.921   1.399 -0.4405  1.3174  1.9427
  523SOL     OW 1567   2.152   2.921   1.543  0.8143 -0.0078 -0.6023
  523SOL    HW1 1568   2.228   2.856   1.554 -1.8497 -1.9465 -2.5872
  523SOL    HW2 1569   2.068   2.884   1.487 -0.5499  0.2677  1.3902
  524SOL     OW 1570   0.198   2.781   2.814 -0.9049  0.5073  0.3458
  524SOL    HW1 1571   0.166   2.878   2.845  0.1266 -2.8407  0.5410
  524SOL    HW2 1572   0.296   2.783   2.778  0.4790  2.3214  0.6008
  525SOL     OW 1573   2.131   2.049   0.477  0.4552 -0.1901  0.0175
  525SOL    HW1 1574   2.101   1.995   0.562  0.8866 -0.6728  3.6634
  525SOL    HW2 1575   2.172   1.989   0.400  0.3752  1.8771  0.2378
  526SOL     OW 1576   0.420   1.532   1.819 -0.9228  0.1837  0.3933
  526SOL    HW1 1577   0.497   1.590   1.847  3.0478  0.7614 -2.3184
  526SOL    HW2 1578   0.449   1.437   1.809 -0.7462  0.9786  2.7849
  527SOL     OW 1579   1.064   2.936   1.238 -0.1830  0.1148 -0.0035
  527SOL    HW1 1580   1.137   2.890   1.299  0.6957 -0.9431 -0.8623
  527SOL    HW2 1581   1.111   3.027   1.213 -1.7983 -0.5212  2.7135
  528SOL     OW 1582   1.351   2.357   0.557  0.6799  0.2159 -0.1046
  528SOL    HW1 1583   1.391   2.267   0.576  0.1562  1.0757 -0.3325
  528SOL    HW2 1584   1.402   2.436   0.613  1.3442  0.4454  0.2786
  529SOL     OW 1585   1.886   1.737   0.813  0.0933 -0.6477  0.3704
  529SOL    HW1 1586   1.836   1.738   0.725 -1.3698  0.8828  0.5344
  529SOL    HW2 1587   1.929   1.829   0.838 -0.1301  1.5529  0.3232
  530SOL     OW 1588   0.442   2.491   0.182  0.0015  0.2080 -0.5676
  530SOL    HW1 1589   0.449   2.434   0.269  1.3766  2.4084 -2.4261
  530SOL    HW2 1590   0.449   2.438   0.096 -0.0462 -0.8201  0.5662
  531SOL     OW 1591   1.852   1.024   1.076 -0.2641 -0.6649  0.3344
  531SOL    HW1 1592   1.838   0.997   0.978 -0.5362  0.8042 -2.7216
  531SOL    HW2 1593   1.777   0.995   1.137  0.4120  0.5025  0.3790
  532SOL     OW 1594   0.333   1.216   0.711 -1.1093  0.5124 -0.2988
  532SOL    HW1 1595   0.361   1.202   0.614  1.3166  1.7301  0.6736
  532SOL    HW2 1596   0.293   1.131   0.752 -0.5127  0.0499  2.3477
  533SOL     OW 1597   1.823   0.037   2.526 -0.7257 -0.2770 -0.0706
  533SOL    HW1 1598   1.922   0.002   2.524  2.7924  0.5091 -1.2028
  533SOL    HW2 1599   1.792   0.077   2.614  0.4024  0.5784 -1.3161
  534SOL     OW 1600   0.225   0.179   1.525 -1.0722 -0.2409 -0.2650
  534SOL    HW1 1601   0.302   0.234   1.482 -0.6827 -0.7444  3.3459
  534SOL    HW2 1602   0.141   0.237   1.551  2.3605  0.4370 -0.6946
  535SOL     OW 1603   1.871   0.338   0.196 -0.8265 -0.8330  0.4691
  535SOL    HW1 1604   1.955   0.387   0.241 -2.2058 -1.1286 -2.5078
  535SOL    HW2 1605   1.806   0.288   0.258 -1.0576 -0.1807  1.5413
  536SOL     OW 1606   1.239   2.625   0.934  0.0077 -0.2307 -0.7228
  536SOL    HW1 1607   1.244   2.521   0.931 -4.2070  0.6816  2.7326
  536SOL    HW2 1608   1.144   2.664   0.910 -0.2389  3.6070 -2.0760
  537SOL     OW 1609   0.911   0.214   2.358 -0.0152 -0.1097  0.4188
  537SOL    HW1 1610   0.894   0.255   2.262  2.2637  0.8926 -2.5203
  537SOL    HW2 1611   0.875   0.116   2.370  0.1833 -1.0242  4.1019
  538SOL     OW 1612   1.680   2.361   1.527 -0.3588  0.3877 -0.2359
  538SOL    HW1 1613   1.641   2.278   1.478  2.2432 -0.2448  1.4786
  538SOL    HW2 1614   1.769   2.398   1.492  0.5430 -2.3353  0.9294
  539SOL     OW 1615   0.181   1.627   2.711  0.0507 -0.5707 -0.0967
  539SOL    HW1 1616   0.085   1.608   2.657 -1.8005  1.6827  1.9049
  539SOL    HW2 1617   0.179   1.726   2.749 -0.2343  0.5761 -0.9497
  540SOL     OW 1618   2.707   1.703   2.014  0.0347 -0.1348 -0.6245
  540SOL    HW1 1619   2.677   1.609   1.992 -0.5294  3.2991  0.5193
  540SOL    HW2 1620   2.648   1.778   1.981  1.6578 -3.5540  2.7684
  541SOL     OW 1621   0.450   2.299   3.076 -0.0712  0.8339  0.3555
  541SOL    HW1 1622   0.495   2.230   3.137 -1.3485 -1.7813 -0.2328
  541SOL    HW2 1623   0.357   2.264   3.035 -2.4926 -1.5777  0.5256
  542SOL     OW 1624   2.208   2.593   0.486  0.7302 -0.1064 -0.1961
  542SOL    HW1 1625   2.205   2.672   0.420  1.3499 -1.2805  2.4400
  542SOL    HW2 1626   2.117   2.541   0.502 -1.2715 -1.6922 -0.8417
  543SOL     OW 1627   0.986   1.798   1.713  0.1391  0.0928  0.1150
  543SOL    HW1 1628   0.982   1.830   1.811 -0.6365 -0.1794 -1.4838
  543SOL    HW2 1629   0.926   1.852   1.645 -2.5804  0.8017 -0.5896
  544SOL     OW 1630   0.900   0.417   0.211  0.5983 -0.0782  0.8695
  544SOL    HW1 1631   0.885   0.343   0.284 -1.9200 -0.3881  0.0961
  544SOL    HW2 1632   0.912   0.379   0.114  0.8139  0.6903  0.6575
  545SOL     OW 1633   1.171   1.700   0.604 -0.6928  0.2305  0.1169
  545SOL    HW1 1634   1.253   1.714   0.668 -0.3229  1.0752  0.0033
  545SOL    HW2 1635   1.192   1.721   0.503  0.4098  1.0856 -1.1300
  546SOL     OW 1636   2.675   1.549   0.024 -0.5322 -0.7158  0.0244
  546SOL    HW1 1637   2.686   1.490  -0.064 -0.9200  3.5864  0.2445
  546SOL    HW2 1638   2.581   1.547   0.064  0.4207  2.3606  0.5612
  547SOL     OW 1639   0.541   0.039   2.794 -0.1106 -0.0249 -0.3557
  547SOL    HW1 1640   0.624  -0.022   2.774 -0.0991  0.8806 -1.6800
  547SOL    HW2 1641   0.465  -0.030   2.833 -1.6256 -1.8187  0.4468
  548SOL     OW 1642   2.087   0.859   3.035  0.3985 -1.0327 -0.1098
  548SOL    HW1 1643   1.990   0.846   3.063  0.5038  0.8517  1.0439
  548SOL    HW2 1644   2.125   0.956   3.061  2.0860  1.5771  0.8981
  549SOL     OW 1645   0.619   0.417   0.156 -0.3569  0.4516  0.4340
  549SOL    HW1 1646   0.618   0.500   0.092  4.6598  2.2977  2.3806
  549SOL    HW2 1647   0.702   0.409   0.212 -2.1672  1.5500  0.2028
  550SOL     OW 1648   2.555   2.863   2.888  0.6487  0.3547 -0.3584
  550SOL    HW1 1649   2.513   2.798   2.955  0.6105  4.8538 -1.3827
  550SOL    HW2 1650   2.565   2.828   2.788  1.4290  1.3649  1.8448
  551SOL     OW 1651   0.240   0.854   0.153  0.0235  1.0890 -0.2667
  551SOL    HW1 1652   0.342   0.829   0.159  2.4334 -0.1839 -0.9056
  551SOL    HW2 1653   0.204   0.902   0.239  1.3358  2.1370 -0.2220
  552SOL     OW 1654   0.790   2.800   1.891 -0.6260  0.0449  1.0321
  552SOL    HW1 1655   0.790   2.797   1.995  1.5217  0.0477  2.5664
  552SOL    HW2 1656   0.847   2.882   1.855  0.9504  4.4325 -1.1758
  553SOL     OW 1657   3.058   2.555   0.372  0.2554  0.1038 -0.5455
  553SOL    HW1 1658   3.027   2.458   0.353 -0.3382 -1.1149  1.8500
  553SOL    HW2 1659   3.026   2.586   0.465 -0.9198 -3.5766  0.1348
  554SOL     OW 1660   2.185   0.289   0.563  0.3308  0.0083 -0.1046
  554SOL    HW1 1661   2.249   0.262   0.488  1.0643 -0.2241 -2.0276
  554SOL    HW2 1662   2.211   0.243   0.654  0.8698 -0.0688 -1.7512
  555SOL     OW 1663   0.412   2.920   2.431 -0.2001 -0.0809 -0.0989
  555SOL    HW1 1664   0.316   2.954   2.417  1.5902  1.1758 -0.7971
  555SOL    HW2 1665   0.440   2.867   2.349 -1.4608  3.3044 -0.7929
  556SOL     OW 1666   0.898   2.301   1.671 -0.5319  0.3500  0.0759
  556SOL    HW1 1667   0.922   2.392   1.709  2.1656  0.9561 -2.1254
  556SOL    HW2 1668   0.944   2.281   1.577 -1.7236 -3.2197  0.5014
  557SOL     OW 1669   0.154   2.110   0.131 -0.6945 -0.3249  0.1004
  557SOL    HW1 1670   0.112   2.020   0.101  0.5912 -1.1546 -0.5340
  557SOL    HW2 1671   0.158   2.180   0.052 -0.2316 -1.6045 -4.3909
  558SOL     OW 1672   2.966   2.286   0.327  0.4166 -0.4682  0.3184
  558SOL    HW1 1673   2.862   2.287   0.335  0.9201 -0.4094 -1.8981
  558SOL    HW2 1674   2.992   2.295   0.226  3.1419 -0.2989 -0.7285
  559SOL     OW 1675   0.430   2.219   1.343  0.2249  0.3839 -0.3318
  559SOL    HW1 1676   0.352   2.251   1.285 -1.2843 -2.0413  2.8675
  559SOL    HW2 1677   0.469   2.129   1.309  0.5650 -1.6733 -0.1400
  560SOL     OW 1678   2.082   1.114   3.099  0.2453  0.5003  0.1671
  560SOL    HW1 1679   2.091   1.161   3.007 -2.1375 -1.1705 -1.0580
  560SOL    HW2 1680   2.067   1.174   3.180  1.8233  0.0936  1.4040
  561SOL     OW 1681   3.057   1.947   0.005  0.0381  0.2344 -0.0906
  561SOL    HW1 1682   2.981   1.882   0.019 -4.2304  1.6752  1.8791
  561SOL    HW2 1683   3.021   2.041  -0.006  0.5759 -0.2697  0.5009
  562SOL     OW 1684   0.887   2.163   2.371  0.1259 -0.2437 -0.6990
  562SOL    HW1 1685   0.785   2.152   2.377  3.0977  0.5165 -1.5105
  562SOL    HW2 1686   0.919   2.214   2.459  0.8697  1.0392  1.0521
  563SOL     OW 1687   0.676   2.508   2.591  0.0024 -0.7882  0.3378
  563SOL    HW1 1688   0.710   2.425   2.636 -1.3322 -4.4111 -1.0140
  563SOL    HW2 1689   0.650   2.579   2.662 -1.3299 -1.5994  1.0277
  564SOL     OW 1690   2.706   1.304   2.847  0.3338  0.1289  0.0179
  564SOL    HW1 1691   2.656   1.304   2.939 -1.5304 -2.2591  0.1836
  564SOL    HW2 1692   2.742   1.392   2.812 -2.1273  0.5317 -0.2820
  565SOL     OW 1693   2.529   1.958   2.571 -0.2392  0.3781 -0.1919
  565SOL    HW1 1694   2.461   2.024   2.527  0.1518  0.5266 -3.8876
  565SOL    HW2 1695   2.559   1.993   2.665 -0.2159  0.6185 -1.2860
  566SOL     OW 1696   1.959   2.869   1.335 -0.0786 -0.1265 -0.3721
  566SOL    HW1 1697   1.910   2.784   1.308  0.0136  1.9576 -0.8226
  566SOL    HW2 1698   2.047   2.879   1.280 -1.9520 -1.7828 -1.7984
  567SOL     OW 1699   2.437   0.126   2.212 -0.7283 -0.4041 -0.5721
  567SOL    HW1 1700   2.450   0.110   2.110  0.6563  0.5503  0.6315
  567SOL    HW2 1701   2.342   0.171   2.236 -2.5206  1.0575  0.0033
  568SOL     OW 1702   1.497   1.831   0.366  0.2723 -0.2899 -0.3659
  568SOL    HW1 1703   1.418   1.863   0.298 -0.7320 -0.3739 -1.2569
  568SOL    HW2 1704   1.589   1.862   0.333 -0.3604  0.9836 -2.7991
  569SOL     OW 1705   0.290   0.629   0.792 -0.9576 -0.0554 -0.0191
  569SOL    HW1 1706   0.338   0.564   0.728  2.5202 -1.6663 -0.0658
  569SOL    HW2 1707   0.199   0.585   0.820 -5.2708 -2.2988 -0.6391
  570SOL     OW 1708   0.625   0.767   2.839  0.5046 -0.0163 -0.1621
  570SOL    HW1 1709   0.666   0.779   2.742  3.3387  2.0548  0.6202
  570SOL    HW2 1710   0.632   0.857   2.892 -3.3503  1.9344  1.8597
  571SOL     OW 1711   0.827   3.054   1.105  0.4395  0.5040  0.3271
  571SOL    HW1 1712   0.872   3.122   1.040  1.5161 -0.8762  1.8262
  571SOL    HW2 1713   0.901   3.000   1.152  1.0991  0.9915 -0.6303
  572SOL     OW 1714   1.551   2.612   1.162  0.1168  0.7533 -0.0090
  572SOL    HW1 1715   1.490   2.553   1.219  0.9514  0.2661  0.9033
  572SOL    HW2 1716   1.512   2.703   1.140 -1.2563  1.2721  2.6952
  573SOL     OW 1717   2.943   0.415   2.079  0.0293  0.5102 -0.3121
  573SOL    HW1 1718   2.900   0.328   2.105  1.1193  0.0173 -0.2284
  573SOL    HW2 1719   2.876   0.490   2.049  1.8880  1.4217  1.7651
  574SOL     OW 1720   0.225   1.779   1.003 -0.0695  0.2088 -0.0732
  574SOL    HW1 1721   0.194   1.871   0.968 -2.0931  0.1184 -0.6125
  574SOL    HW2 1722   0.144   1.734   1.053 -1.5005 -0.3693  1.3475
  575SOL     OW 1723   0.861   2.148   0.983 -0.8159  0.5898 -0.3639
  575SOL    HW1 1724   0.861   2.185   1.080  0.1829 -1.7138  0.1101
  575SOL    HW2 1725   0.901   2.219   0.916 -0.2342  0.8460  1.4870
  576SOL     OW 1726   2.912   2.906   1.721  0.4272 -0.4725 -0.1453
  576SOL    HW1 1727   2.857   2.847   1.648  0.5522 -2.5947 -1.3346
  576SOL    HW2 1728   2.925   3.006   1.690  0.3788  1.5363 -0.3043
  577SOL     OW 1729   2.557   1.261   3.081 -0.1328 -0.0829  0.2582
  577SOL    HW1 1730   2.559   1.160   3.042  0.6996 -3.7091  0.0505
  577SOL    HW2 1731   2.620   1.270   3.166  0.6680 -1.1236  0.5893
  578SOL     OW 1732   1.302   2.692   2.545  0.5425  0.3493  0.6636
  578SOL    HW1 1733   1.209   2.672   2.499  1.8923 -0.6944 -1.0475
  578SOL    HW2 1734   1.327   2.790   2.519 -2.6225 -1.7962  4.5659
  579SOL     OW 1735   0.124   2.483   0.174 -0.1825  0.1232 -0.6992
  579SOL    HW1 1736   0.062   2.535   0.243  0.7643  0.8337 -0.0136
  579SOL    HW2 1737   0.185   2.415   0.221 -1.3280  0.2794  0.1788
  580SOL     OW 1738   1.017   2.669   0.384  0.1953  0.1108  0.3705
  580SOL    HW1 1739   1.099   2.680   0.319 -1.3929  1.0141 -0.0436
  580SOL    HW2 1740   0.945   2.600   0.347  1.8017 -0.3741 -0.5399
  581SOL     OW 1741   1.222   2.636   1.491  0.1920  0.3175  0.2205
  581SOL    HW1 1742   1.272   2.557   1.448  2.1722  3.3538 -1.1305
  581SOL    HW2 1743   1.257   2.725   1.452  3.2800 -1.0603  2.0361
  582SOL     OW 1744   1.498   0.068   1.852  0.5598  0.3079 -0.1854
  582SOL    HW1 1745   1.494   0.160   1.901 -0.1364  1.3189 -1.1817
  582SOL    HW2 1746   1.592   0.055   1.810 -1.6423  0.6092  2.1740
  583SOL     OW 1747   2.462   2.988   0.564  0.2796 -0.3046 -0.7711
  583SOL    HW1 1748   2.500   2.905   0.517 -0.2341  0.4042 -0.0857
  583SOL    HW2 1749   2.399   2.951   0.642  1.9132  0.3211 -0.3963
  584SOL     OW 1750   1.588   1.008   2.139  0.7383  0.0088 -0.1760
  584SOL    HW1 1751   1.631   1.075   2.073  0.3571 -0.4661 -1.3979
  584SOL    HW2 1752   1.642   0.996   2.231 -0.8253  1.9407  2.1830
  585SOL     OW 1753   2.083   2.638   2.890 -0.4387 -0.5564 -0.5994
  585SOL    HW1 1754   2.083   2.538   2.851 -0.0569  3.3838  0.0501
  585SOL    HW2 1755   1.991   2.685   2.891  0.3141  0.1740  1.8646
  586SOL     OW 1756   2.745   0.262   1.562 -0.2770  0.0184  0.0239
  586SOL    HW1 1757   2.773   0.347   1.620  1.2782  2.5114  1.2789
  586SOL    HW2 1758   2.662   0.213   1.595  2.1239 -1.6780 -5.8468
  587SOL     OW 1759   1.964   1.643   2.729  0.1953 -0.1749 -0.2425
  587SOL    HW1 1760   2.015   1.592   2.653 -0.5401 -0.5697  3.7692
  587SOL    HW2 1761   1.985   1.609   2.826 -1.3550  1.4182  2.0173
  588SOL     OW 1762   0.492   2.710   2.227  0.0505 -0.3522 -0.4932
  588SOL    HW1 1763   0.400   2.731   2.188  0.0330 -0.7830  2.5469
  588SOL    HW2 1764   0.487   2.622   2.287 -2.6723  0.7893  4.0586
  589SOL     OW 1765   2.126   1.447   2.587 -0.6141  0.1573  0.1030
  589SOL    HW1 1766   2.062   1.408   2.513  2.0856 -2.4144  1.7283
  589SOL    HW2 1767   2.218   1.405   2.579 -1.7604 -0.6039  1.4925
  590SOL     OW 1768   2.365   1.700   2.000 -0.3732  0.1149 -0.1747
  590SOL    HW1 1769   2.451   1.642   1.980 -1.3572 -2.8462  1.2260
  590SOL    HW2 1770   2.359   1.730   2.099  0.7862 -0.9715 -1.6761
  591SOL     OW 1771   1.379   2.451   0.302  0.5658 -0.8442  0.0301
  591SOL    HW1 1772   1.470   2.456   0.250 -0.9454  0.2375 -0.6903
  591SOL    HW2 1773   1.393   2.405   0.397  0.9182 -1.4882 -1.0064
  592SOL     OW 1774   1.720   2.327   0.771  0.1751  0.0982 -0.2116
  592SOL    HW1 1775   1.698   2.345   0.674  0.4714 -1.6616  0.4633
  592SOL    HW2 1776   1.827   2.338   0.792  2.6728  2.2179 -1.2693
  593SOL     OW 1777   0.648   0.147   0.049  0.6976  0.4265  0.1523
  593SOL    HW1 1778   0.736   0.134  -0.003 -3.3841  2.9799 -1.0455
  593SOL    HW2 1779   0.645   0.245   0.093  0.2355 -0.8593 -0.1013
  594SOL     OW 1780   0.921   1.943   2.683 -0.0013 -0.7401 -0.1342
  594SOL    HW1 1781   1.010   1.995   2.687 -1.0593  0.4188  2.3830
  594SOL    HW2 1782   0.840   2.002   2.714 -0.3271  0.0624  0.3481
  595SOL     OW 1783   1.525   0.028   1.068 -0.0318  0.4306 -0.2140
  595SOL    HW1 1784   1.610  -0.037   1.074  2.1385 -1.8450  0.4934
  595SOL    HW2 1785   1.454  -0.001   0.996 -1.8000  0.7175 -1.7368
  596SOL     OW 1786   0.007   1.411   2.243 -0.2575  0.7931 -0.3444
  596SOL    HW1 1787  -0.081   1.456   2.260  2.3044 -2.7094  2.1454
  596SOL    HW2 1788   0.042   1.363   2.326 -1.6325 -1.8919  1.7997
  597SOL     OW 1789   2.061   2.603   1.631  0.1736 -0.6082 -0.5105
  597SOL    HW1 1790   2.100   2.530   1.571 -0.1983  3.2607  0.0345
  597SOL    HW2 1791   2.124   2.635   1.700 -1.5644 -0.1085 -2.9723
  598SOL     OW 1792   2.504   2.913   1.315  0.0508  0.5495  1.3011
  598SOL    HW1 1793   2.581   2.958   1.363  1.9065 -1.4602  0.2326
  598SOL    HW2 1794   2.528   2.873   1.223 -2.9606  0.4936 -1.4436
  599SOL     OW 1795   2.901   0.378   2.466 -0.4051  0.1660 -0.0357
  599SOL    HW1 1796   2.992   0.426   2.485  0.5693 -1.2890 -2.3320
  599SOL    HW2 1797   2.836   0.432   2.410  1.3406 -0.7509 -0.6601
  600SOL     OW 1798   2.830   1.088   2.713 -0.7342 -0.0388 -0.2573
  600SOL    HW1 1799   2.782   1.001   2.719  0.1603  2.5937 -0.5759
  600SOL    HW2 1800   2.778   1.159   2.768 -0.0755 -0.7551 -0.8489
  601SOL     OW 1801   2.986   1.245   2.018  0.2130 -0.0860 -0.0929
  601SOL    HW1 1802   2.927   1.306   1.951 -2.4134 -2.4075  2.0812
  601SOL    HW2 1803   3.051   1.299   2.079  1.2338  1.8784  0.2232
  602SOL     OW 1804   1.498   1.718   2.347 -0.3936  0.0480  0.0152
  602SOL    HW1 1805   1.451   1.627   2.318 -2.0378 -5.0239  0.3731
  602SOL    HW2 1806   1.593   1.706   2.386  2.3717 -0.5049 -2.0719
  603SOL     OW 1807   0.635   1.246   2.703  0.3355 -0.1567  0.2669
  603SOL    HW1 1808   0.570   1.240   2.624  0.9134 -1.7399  0.3070
  603SOL    HW2 1809   0.720   1.191   2.680 -1.8485 -0.0824 -0.1769
  604SOL     OW 1810   2.416   0.963   0.148 -0.1427  0.2240 -0.2419
  604SOL    HW1 1811   2.453   1.016   0.067  0.3685  1.0315  1.2768
  604SOL    HW2 1812   2.410   0.864   0.129 -0.9406 -1.4083  0.0723
  605SOL     OW 1813   2.694   1.157   1.959 -0.1505  0.2219 -0.2865
  605SOL    HW1 1814   2.668   1.065   1.908 -0.3558 -0.3735 -0.5792
  605SOL    HW2 1815   2.650   1.164   2.055 -0.6805  1.4519  1.7150
  606SOL     OW 1816   1.530   2.530   2.626 -0.1405  0.4756  0.0590
  606SOL    HW1 1817   1.443   2.575   2.598 -0.4528 -1.1160 -1.3751
  606SOL    HW2 1818   1.529   2.426   2.608 -0.4808  1.5788 -0.3046
  607SOL     OW 1819   1.367   1.593   0.410  0.8417 -0.2160 -0.6898
  607SOL    HW1 1820   1.315   1.561   0.498 -1.1026 -0.6677 -0.5141
  607SOL    HW2 1821   1.407   1.690   0.414 -2.4453  0.1380 -4.5334
  608SOL     OW 1822   1.421   2.861   0.455  0.7248 -0.9923 -0.5837
  608SOL    HW1 1823   1.492   2.905   0.394 -0.8078 -0.5953  1.4322
  608SOL    HW2 1824   1.348   2.929   0.483  2.3379 -1.5028  1.1542
  609SOL     OW 1825   1.286   1.367   0.281  0.0228 -0.3636 -0.0554
  609SOL    HW1 1826   1.311   1.459   0.326  0.6535  2.4879  1.3710
  609SOL    HW2 1827   1.184   1.345   0.299  1.5020 -1.5112  0.9134
  610SOL     OW 1828   2.965   1.119   2.260  0.1756  0.0076 -0.6235
  610SOL    HW1 1829   2.972   1.014   2.281 -0.0009 -0.7724 -0.8022
  610SOL    HW2 1830   2.939   1.143   2.161 -1.4758  0.0270 -0.1394
  611SOL     OW 1831   2.516   0.291   1.145  0.0582  0.0530 -0.1197
  611SOL    HW1 1832   2.472   0.209   1.193 -0.5085 -0.9536  0.2806
  611SOL    HW2 1833   2.616   0.304   1.165 -0.8611 -0.9847  0.7160
  612SOL     OW 1834   0.792   2.229   1.257  0.8124  0.2393 -0.0073
  612SOL    HW1 1835   0.732   2.149   1.278  0.1137  2.3931  0.5558
  612SOL    HW2 1836   0.735   2.317   1.262  0.2678 -0.3226 -2.1218
  613SOL     OW 1837   0.882   1.473   2.398 -0.2107  0.0436 -0.0819
  613SOL    HW1 1838   0.946   1.485   2.318  0.5648 -3.0532  0.9043
  613SOL    HW2 1839   0.789   1.434   2.375 -1.6702 -0.3159  0.8496
  614SOL     OW 1840   1.668   1.611   1.856 -0.3337  0.0120  0.6037
  614SOL    HW1 1841   1.651   1.713   1.848  2.4792  0.1287  0.9539
  614SOL    HW2 1842   1.699   1.586   1.951  1.1363 -1.3146  0.5963
  615SOL     OW 1843   0.849   1.278   1.694 -0.1569 -0.3023 -0.6233
  615SOL    HW1 1844   0.783   1.245   1.624  0.9653  0.9182  0.4021
  615SOL    HW2 1845   0.853   1.376   1.688  1.5151 -3.9408 -1.6764
  616SOL     OW 1846   1.112   1.592   2.215 -0.4943  0.7704  0.4824
  616SOL    HW1 1847   1.040   1.570   2.148  0.1594  0.7039  1.4350
  616SOL    HW2 1848   1.116   1.693   2.229 -0.7340 -1.0332 -0.3460
  617SOL     OW 1849   2.933   1.526   1.611 -0.7493 -0.0642 -0.1589
  617SOL    HW1 1850   2.894   1.438   1.641 -1.8348  2.0210  0.8381
  617SOL    HW2 1851   2.995   1.523   1.529  0.4457 -0.6603 -2.1581
  618SOL     OW 1852   1.891   2.091   1.359  0.4418 -0.2361 -0.3620
  618SOL    HW1 1853   1.914   2.174   1.301 -0.9885  0.8136  0.3560
  618SOL    HW2 1854   1.890   2.004   1.303 -0.4146  0.8979  4.8902
  619SOL     OW 1855   1.761   0.472   2.379 -0.0644  0.8463  0.4123
  619SOL    HW1 1856   1.685   0.519   2.320 -0.0028  0.0415 -3.2219
  619SOL    HW2 1857   1.738   0.369   2.385  1.7534  0.3264  0.7471
  620SOL     OW 1858   2.303   2.893   0.772 -0.1134  0.6712  0.1164
  620SOL    HW1 1859   2.214   2.931   0.801  2.2592 -1.7930 -1.7283
  620SOL    HW2 1860   2.344   2.823   0.839  0.8992 -0.4821  0.9021
  621SOL     OW 1861   2.132   1.805   1.354  0.8918 -0.1825 -0.3492
  621SOL    HW1 1862   2.152   1.822   1.453 -1.9278  0.8503  0.7336
  621SOL    HW2 1863   2.083   1.711   1.341 -1.2143  1.5630  0.3063
  622SOL     OW 1864   2.277   0.929   1.842 -0.3045 -0.1672 -0.2377
  622SOL    HW1 1865   2.377   0.916   1.812 -1.4218 -0.8392 -0.7591
  622SOL    HW2 1866   2.243   0.838   1.875 -2.1533 -1.3181  1.0054
  623SOL     OW 1867   1.351   0.798   2.415 -0.2913  0.1140 -0.5589
  623SOL    HW1 1868   1.296   0.713   2.449  0.8026  2.1663  0.6981
  623SOL    HW2 1869   1.294   0.861   2.350  2.0965  1.9528 -0.9552
  624SOL     OW 1870   0.540   0.652   3.081  0.3100  0.4977  0.1980
  624SOL    HW1 1871   0.582   0.673   2.984  0.6003  3.2881 -0.9699
  624SOL    HW2 1872   0.541   0.739   3.140  3.5853 -0.8866  0.6380
  625SOL     OW 1873   2.783   1.727   1.004  0.0591  0.4862 -0.1458
  625SOL    HW1 1874   2.691   1.772   0.979 -2.6431 -0.1733  0.8388
  625SOL    HW2 1875   2.858   1.798   1.030 -0.4307  1.0945 -0.1094
  626SOL     OW 1876   0.616   2.664   1.702 -0.2158  0.4441  0.0810
  626SOL    HW1 1877   0.676   2.696   1.782 -0.9194  0.0062  0.1126
  626SOL    HW2 1878   0.516   2.664   1.728  1.3313  0.2965 -3.1693
  627SOL     OW 1879   0.662   0.897   1.575  0.5574  0.3953  0.2144
  627SOL    HW1 1880   0.576   0.909   1.522 -1.5987  1.1379 -3.2068
  627SOL    HW2 1881   0.743   0.896   1.510  1.3338  0.4436  0.6888
  628SOL     OW 1882   2.461   0.182   0.694  0.9174  0.6148 -0.6574
  628SOL    HW1 1883   2.508   0.094   0.662  1.0763 -0.8347 -1.3940
  628SOL    HW2 1884   2.367   0.160   0.729  1.4289  1.4406 -0.2828
  629SOL     OW 1885   1.902   0.912   2.007  0.0234  0.4418  0.8486
  629SOL    HW1 1886   1.920   0.972   1.922  0.7971  0.2813  1.6471
  629SOL    HW2 1887   1.861   0.959   2.088 -0.0483  2.4123 -0.0285
  630SOL     OW 1888   2.937   2.330   0.783  0.3697  0.1770  0.2728
  630SOL    HW1 1889   2.852   2.387   0.802  1.7211  1.4656  0.4020
  630SOL    HW2 1890   2.908   2.226   0.768  0.2985 -0.2619  1.8670
  631SOL     OW 1891   3.077   0.161   2.180  0.4462  0.2919  0.0010
  631SOL    HW1 1892   3.093   0.205   2.274 -3.2347  1.6348  3.3713
  631SOL    HW2 1893   3.087   0.231   2.105 -0.4001  0.4436  2.1470
  632SOL     OW 1894   2.458   2.583   0.614  0.2489  0.4889  0.4345
  632SOL    HW1 1895   2.521   2.650   0.658  0.1312  3.9909  1.1114
  632SOL    HW2 1896   2.382   2.628   0.556 -0.5369  1.4312 -0.7691
  633SOL     OW 1897   1.483   1.204   2.675 -0.3854 -0.1092 -0.2056
  633SOL    HW1 1898   1.452   1.278   2.741  2.1906 -2.6312 -0.7504
  633SOL    HW2 1899   1.415   1.207   2.593  1.8236  0.8277  1.2059
  634SOL     OW 1900   0.631   2.016   0.905 -0.0277 -0.5956  0.1842
  634SOL    HW1 1901   0.543   2.041   0.955 -0.9007 -0.1294  1.4506
  634SOL    HW2 1902   0.719   2.068   0.928 -0.1315  1.1570 -1.7673
  635SOL     OW 1903   2.997   2.374   0.056 -0.1523 -0.3957  0.3355
  635SOL    HW1 1904   2.949   2.419  -0.021 -0.0343 -2.3385  2.0653
  635SOL    HW2 1905   3.099   2.391   0.069 -1.1733 -0.6903  1.1878
  636SOL     OW 1906   2.361   2.770   1.995 -0.2418 -0.0361 -0.3290
  636SOL    HW1 1907   2.346   2.864   2.028  1.3640 -0.8581 -0.6656
  636SOL    HW2 1908   2.310   2.707   2.065 -2.0397 -1.0115 -0.6399
  637SOL     OW 1909   2.772   0.624   1.978  0.2440  0.5843  0.1195
  637SOL    HW1 1910   2.691   0.636   1.918 -0.6459 -0.9058 -2.0689
  637SOL    HW2 1911   2.819   0.707   2.011 -3.2124 -1.0714 -1.3831
  638SOL     OW 1912   2.425   1.852   1.313 -0.7061 -0.8529  0.3158
  638SOL    HW1 1913   2.323   1.834   1.301 -3.0951  2.1640  2.0914
  638SOL    HW2 1914   2.469   1.778   1.370 -1.7920  0.6240  1.0860
  639SOL     OW 1915   1.308   2.202   1.702  0.0413 -0.1820  0.4338
  639SOL    HW1 1916   1.322   2.296   1.659 -1.6770  1.2205 -1.0013
  639SOL    HW2 1917   1.222   2.196   1.767 -2.3486 -1.0057  1.7957
  640SOL     OW 1918   0.199   1.199   1.540  0.2527 -0.0973 -0.2211
  640SOL    HW1 1919   0.167   1.208   1.644  2.0374  0.0833  0.4362
  640SOL    HW2 1920   0.265   1.118   1.514  0.9591 -0.7578 -2.0138
  641SOL     OW 1921   1.980   0.270   1.445  0.9097 -0.0575 -0.6829
  641SOL    HW1 1922   1.917   0.285   1.528  0.2095  0.5251  0.8725
  641SOL    HW2 1923   2.066   0.211   1.466 -0.3929  0.3685 -0.6442
  642SOL     OW 1924   2.021   0.085   0.378 -0.0322  0.2367 -0.3674
  642SOL    HW1 1925   2.115   0.049   0.397  1.2043  2.0136  1.0856
  642SOL    HW2 1926   1.977   0.125   0.462 -0.8278 -3.7765  0.9181
  643SOL     OW 1927   2.918   1.826   2.157  0.1085 -0.7812  0.1759
  643SOL    HW1 1928   2.849   1.761   2.117 -0.3687 -0.5700  1.5553
  643SOL    HW2 1929   2.920   1.919   2.108 -1.7752  0.6657  0.8934
  644SOL     OW 1930   2.299   2.421   1.223 -0.0024 -0.5551 -0.4632
  644SOL    HW1 1931   2.333   2.342   1.170  2.5678 -0.7243 -0.2435
  644SOL    HW2 1932   2.246   2.391   1.310 -1.0937 -0.6310  2.8618
  645SOL     OW 1933   0.586   0.828   1.274 -0.0850  0.2220  0.5456
  645SOL    HW1 1934   0.481   0.844   1.288 -3.1068 -0.0103  2.3017
  645SOL    HW2 1935   0.609   0.836   1.170  0.4029 -1.6261 -0.8148
  646SOL     OW 1936   1.488   1.821   2.046 -0.3453  0.2767 -0.1549
  646SOL    HW1 1937   1.532   1.868   1.965 -1.8311 -2.7903 -0.8431
  646SOL    HW2 1938   1.553   1.771   2.109 -1.0354  1.1383  1.4723
  647SOL     OW 1939   0.865   1.096   0.630 -0.1115  0.0108  0.2911
  647SOL    HW1 1940   0.922   1.116   0.714 -1.0538  0.0094 -1.5969
  647SOL    HW2 1941   0.795   1.020   0.644 -0.0440  0.8440 -1.9452
  648SOL     OW 1942   0.144   0.268   0.281 -0.1268 -0.3027 -0.4537
  648SOL    HW1 1943   0.173   0.190   0.220 -0.7616  1.6684  0.0492
  648SOL    HW2 1944   0.144   0.363   0.238  0.9564  0.9317 -1.5640
  649SOL     OW 1945   3.028   0.188   0.808 -0.0480  0.4442  0.6981
  649SOL    HW1 1946   3.115   0.152   0.847 -1.5479 -1.1304 -0.5375
  649SOL    HW2 1947   3.034   0.288   0.783  3.2748 -1.0807  0.4215
  650SOL     OW 1948   2.712   0.650   1.553 -0.4349  0.2741 -0.3104
  650SOL    HW1 1949   2.609   0.638   1.558  0.2247 -1.3601  1.9017
  650SOL    HW2 1950   2.735   0.736   1.496  1.3259  2.0890 -1.3709
  651SOL     OW 1951   0.887   1.550   1.663  0.3407  0.0537 -0.4538
  651SOL    HW1 1952   0.918   1.638   1.706  2.4436 -1.3560  0.3988
  651SOL    HW2 1953   0.956   1.507   1.595 -1.8041 -1.2305 -0.9281
  652SOL     OW 1954   2.392   2.436   2.467 -0.3512 -0.5266 -0.2149
  652SOL    HW1 1955   2.293   2.443   2.505  0.6117 -0.0590  0.1552
  652SOL    HW2 1956   2.407   2.489   2.377 -1.3353  0.7440 -0.1399
  653SOL     OW 1957   2.724   1.248   0.182 -0.4858  0.3547  0.3344
  653SOL    HW1 1958   2.744   1.346   0.210 -2.2019  1.0411  0.6956
  653SOL    HW2 1959   2.780   1.176   0.231  1.5271  2.6853  2.2697
  654SOL     OW 1960   1.274   2.213   1.295 -0.0359  0.6040  0.0841
  654SOL    HW1 1961   1.316   2.147   1.371  0.9150 -2.7438  1.2746
  654SOL    HW2 1962   1.266   2.175   1.197  2.0991  2.1112 -1.3701
  655SOL     OW 1963   0.179   0.932   1.884 -0.4691 -0.1807  0.0201
  655SOL    HW1 1964   0.264   0.889   1.841  0.3268 -1.0409 -2.1210
  655SOL    HW2 1965   0.177   1.035   1.891 -0.6272 -1.2277  3.4697
  656SOL     OW 1966   2.569   2.532   2.658 -0.0387 -0.6351 -0.1573
  656SOL    HW1 1967   2.667   2.520   2.632 -2.4174  0.4912 -0.4213
  656SOL    HW2 1968   2.503   2.509   2.578 -0.0092  0.1415  0.4895
  657SOL     OW 1969   3.003   1.022   1.808  0.3649 -0.5149  0.1144
  657SOL    HW1 1970   3.024   1.106   1.874 -0.7538  0.8459  2.0434
  657SOL    HW2 1971   3.087   0.965   1.809 -1.3372 -0.8502  2.4717
  658SOL     OW 1972   1.709   0.207   2.311 -0.3356 -0.0982  0.5612
  658SOL    HW1 1973   1.771   0.165   2.385  2.6526 -0.7502  3.5934
  658SOL    HW2 1974   1.710   0.155   2.225 -0.6255  0.9479  2.1718
  659SOL     OW 1975   1.389   0.637   2.772 -0.1264  0.1163  0.3301
  659SOL    HW1 1976   1.413   0.673   2.681 -2.0784 -0.8153  0.0046
  659SOL    HW2 1977   1.307   0.683   2.820  0.9478 -2.2826  0.3390
  660SOL     OW 1978   1.417   0.344   1.437 -0.8150 -0.4796  0.6534
  660SOL    HW1 1979   1.401   0.355   1.537  0.2915 -0.5903  1.4664
  660SOL    HW2 1980   1.502   0.279   1.435  0.8278 -0.0146  3.4750
  661SOL     OW 1981   2.431   1.254   0.625 -0.0678 -0.0601 -0.0726
  661SOL    HW1 1982   2.442   1.264   0.523 -0.9448 -0.2159  0.0984
  661SOL    HW2 1983   2.397   1.343   0.671 -1.1247  2.1438  4.3752
  662SOL     OW 1984   1.420   0.419   1.708 -0.0768 -0.5214 -0.0767
  662SOL    HW1 1985   1.390   0.393   1.804 -1.9075  1.5099 -1.0940
  662SOL    HW2 1986   1.473   0.502   1.708 -1.2428 -1.3193 -1.7422
  663SOL     OW 1987   0.861   1.527   2.120 -0.3390 -0.6792  0.2896
  663SOL    HW1 1988   0.815   1.622   2.135  0.9015 -0.4548 -3.2824
  663SOL    HW2 1989   0.813   1.469   2.048  0.4776 -0.3145 -2.6637
  664SOL     OW 1990   1.609   2.096   1.429 -0.3114 -0.6757 -0.0371
  664SOL    HW1 1991   1.588   2.025   1.498  3.2281  1.0239  1.4843
  664SOL    HW2 1992   1.701   2.077   1.379  3.2995  0.4860  0.0533
  665SOL     OW 1993   2.294   0.642   1.957  0.4132 -0.2160 -0.0994
  665SOL    HW1 1994   2.264   0.549   1.984  1.9563  1.4978  0.9259
  665SOL    HW2 1995   2.360   0.680   2.031  2.8516  0.2068  1.1392
  666SOL     OW 1996   0.489   2.249   0.334  0.7589  0.3186  1.3769
  666SOL    HW1 1997   0.538   2.306   0.403  2.1431  0.7071 -0.8126
  666SOL    HW2 1998   0.385   2.254   0.351  0.3166  2.1555 -0.3380
  667SOL     OW 1999   1.922   0.234   1.045  0.5374  0.0883  0.7783
  667SOL    HW1 2000   1.931   0.335   1.032  2.3571 -0.4538 -0.4301
  667SOL    HW2 2001   1.874   0.202   1.128 -1.6724  2.8796 -1.5631
  668SOL     OW 2002   1.998   0.525   1.132 -0.1247 -0.2254  0.0366
  668SOL    HW1 2003   2.067   0.533   1.048  3.4260  1.5005 -3.2978
  668SOL    HW2 2004   2.035   0.543   1.226  2.3008 -0.9084 -1.2452
  669SOL     OW 2005   3.022   2.189   1.020  0.2724  0.2612  0.0501
  669SOL    HW1 2006   2.989   2.248   0.945  1.9596 -0.3580 -4.5377
  669SOL    HW2 2007   2.993   2.229   1.112  0.1692  3.0947 -0.7641
  670SOL     OW 2008   2.888   2.312   2.103 -0.3768  0.3751  0.8211
  670SOL    HW1 2009   2.815   2.302   2.178 -0.1660 -0.0608 -1.7044
  670SOL    HW2 2010   2.881   2.403   2.047  2.6802  0.0161 -3.3988
  671SOL     OW 2011   1.787   1.768   1.536  0.3269  0.1018 -0.1440
  671SOL    HW1 2012   1.805   1.809   1.442 -2.3166  0.0404 -0.7082
  671SOL    HW2 2013   1.690   1.773   1.570  1.3066  0.9668 -2.0395
  672SOL     OW 2014   0.471   0.666   2.528 -0.2407 -0.2176  0.0914
  672SOL    HW1 2015   0.444   0.689   2.430  1.7417 -2.2108 -2.8383
  672SOL    HW2 2016   0.413   0.713   2.599  1.8157  1.2734 -2.8090
  673SOL     OW 2017   0.086   1.261   1.118  0.6235 -0.6131  0.2495
  673SOL    HW1 2018   0.023   1.327   1.165 -0.5687 -0.3270  0.7864
  673SOL    HW2 2019   0.188   1.292   1.124  2.6401 -0.6437 -0.0855
  674SOL     OW 2020   1.633   2.988   0.311 -0.2278  0.2696  0.0924
  674SOL    HW1 2021   1.671   3.082   0.311 -0.1422 -1.4599  1.6443
  674SOL    HW2 2022   1.636   2.942   0.214 -1.6367  2.4339 -0.1810
  675SOL     OW 2023   1.734   0.850   2.313  0.1155  0.0217 -0.3976
  675SOL    HW1 2024   1.818   0.795   2.314 -1.0972 -0.3633 -1.0559
  675SOL    HW2 2025   1.663   0.798   2.255 -0.1204  0.4337 -3.1599
  676SOL     OW 2026   2.556   1.488   1.923  0.1160 -0.7230 -0.0009
  676SOL    HW1 2027   2.501   1.473   1.832  0.1568  1.4022 -1.2200
  676SOL    HW2 2028   2.545   1.409   1.984 -0.6005  1.0037  0.0854
  677SOL     OW 2029   1.932   0.704   0.888 -0.0522 -0.7099  0.0699
  677SOL    HW1 2030   1.857   0.693   0.960  1.6453  0.1751  1.9193
  677SOL    HW2 2031   2.013   0.634   0.883  2.7332 -0.2335  1.8689
  678SOL     OW 2032   0.094   0.748   1.626 -0.3993 -0.2427  0.2416
  678SOL    HW1 2033   0.185   0.761   1.677 -1.8416 -1.2577  1.4229
  678SOL    HW2 2034   0.029   0.685   1.681 -1.9487  0.5090  0.3448
  679SOL     OW 2035   2.569   1.191   1.174 -0.2088 -0.3198  0.1331
  679SOL    HW1 2036   2.470   1.210   1.150  2.6063  1.3315  0.3334
  679SOL    HW2 2037   2.584   1.091   1.206 -1.5599 -1.8962  0.7784
  680SOL     OW 2038   2.832   0.465   1.712  0.1741 -0.0812  0.3040
  680SOL    HW1 2039   2.791   0.550   1.674  1.6040 -0.1496 -0.2522
  680SOL    HW2 2040   2.915   0.489   1.766 -1.2279 -2.2931 -1.6894
  681SOL     OW 2041   2.967   0.060   1.587 -0.0962  0.1355 -0.4598
  681SOL    HW1 2042   3.038   0.054   1.517 -3.2159 -1.3141  2.3199
  681SOL    HW2 2043   2.888   0.119   1.560 -1.6985 -3.9137 -0.6793
  682SOL     OW 2044   0.676   0.052   1.334  0.6777 -0.4328 -0.0517
  682SOL    HW1 2045   0.607  -0.009   1.376 -0.1064  0.2820 -0.8247
  682SOL    HW2 2046   0.716   0.012   1.246  0.0947 -1.6901 -1.0918
  683SOL     OW 2047   1.378   0.192   2.153 -0.0855 -0.5779 -0.2869
  683SOL    HW1 2048   1.382   0.205   2.256  0.7402  1.7766  0.4792
  683SOL    HW2 2049   1.459   0.227   2.099  0.0959 -1.5422  1.6618
  684SOL     OW 2050   1.459   2.102   0.551 -0.1309 -0.2266  0.1524
  684SOL    HW1 2051   1.478   2.031   0.628 -0.5001 -3.8386 -1.2153
  684SOL    HW2 2052   1.376   2.082   0.496  3.1489 -1.4899  0.1700
  685SOL     OW 2053   2.225   2.079   1.975 -0.2965 -0.3143 -0.0193
  685SOL    HW1 2054   2.289   2.083   1.894  0.8558  3.5492 -2.4961
  685SOL    HW2 2055   2.257   2.007   2.046  0.3134 -1.3739  1.2365
  686SOL     OW 2056   1.465   1.814   2.834 -0.7683  0.0478 -0.2476
  686SOL    HW1 2057   1.531   1.786   2.907 -1.0306 -3.1405 -0.8594
  686SOL    HW2 2058   1.365   1.813   2.864 -0.1626 -0.7014  0.4236
  687SOL     OW 2059   1.311   2.422   1.969 -0.3891  0.4104  0.0248
  687SOL    HW1 2060   1.363   2.341   1.929  0.7845  4.0531 -1.5850
  687SOL    HW2 2061   1.333   2.438   2.068  0.4139  1.5571  1.1648
  688SOL     OW 2062   2.027   1.524   1.784 -0.1152 -0.0950 -0.1158
  688SOL    HW1 2063   2.115   1.570   1.792 -2.0940 -1.3163 -2.4548
  688SOL    HW2 2064   2.001   1.507   1.686 -1.4073 -2.9608 -0.1734
  689SOL     OW 2065   2.389   1.087   2.746 -0.0316  0.0540  0.6400
  689SOL    HW1 2066   2.291   1.052   2.761  1.0906  0.5846  0.1792
  689SOL    HW2 2067   2.445   1.063   2.831  0.5444 -0.5899 -0.5219
  690SOL     OW 2068   2.245   2.798   0.041 -0.3553  0.2080 -0.7851
  690SOL    HW1 2069   2.170   2.792  -0.024  4.4693  1.8045  1.5801
  690SOL    HW2 2070   2.206   2.782   0.137 -0.3448 -0.4441 -1.2785
  691SOL     OW 2071   2.584   0.405   2.084 -0.3133 -0.3741 -0.1159
  691SOL    HW1 2072   2.647   0.328   2.108 -0.6334 -0.3154 -1.3735
  691SOL    HW2 2073   2.617   0.465   2.006 -1.0115  0.5274  1.0861
  692SOL     OW 2074   2.661   1.204   0.819  0.7494  0.1086 -0.2382
  692SOL    HW1 2075   2.567   1.224   0.781 -0.8908 -1.7138  0.1031
  692SOL    HW2 2076   2.706   1.285   0.870  1.9036  1.0043 -0.0126
  693SOL     OW 2077   2.854   3.013   0.565 -0.0276 -0.0419 -0.8792
  693SOL    HW1 2078   2.823   3.066   0.650  0.3321 -0.2168 -1.1425
  693SOL    HW2 2079   2.816   3.043   0.473 -1.8842  0.3253  1.8830
  694SOL     OW 2080   2.432   2.196   0.127 -0.3419  0.1344 -0.2388
  694SOL    HW1 2081   2.383   2.264   0.190 -1.8548 -2.0884 -1.9522
  694SOL    HW2 2082   2.366   2.123   0.094 -0.1188 -0.0656 -1.1800
  695SOL     OW 2083   0.473   2.957   1.431  0.2931  0.4765 -0.0671
  695SOL    HW1 2084   0.406   2.877   1.427 -1.5872  0.2282 -0.7309
  695SOL    HW2 2085   0.444   3.033   1.498 -1.2825  0.7017  0.4111
  696SOL     OW 2086   2.865   2.072   0.745  0.2392  0.3100  0.1970
  696SOL    HW1 2087   2.894   1.985   0.796  2.3021  0.8158 -0.2862
  696SOL    HW2 2088   2.844   2.055   0.645  0.1418 -1.0223  2.1085
  697SOL     OW 2089   1.651   1.904   1.812  0.2171  0.7777  0.1049
  697SOL    HW1 2090   1.727   1.846   1.778 -0.2385 -0.0301  1.6557
  697SOL    HW2 2091   1.657   2.008   1.790 -0.0264  2.0946  0.1887
  698SOL     OW 2092   2.870   0.435   2.739  0.1728 -0.2551 -0.5804
  698SOL    HW1 2093   2.872   0.408   2.635 -1.5151 -1.3018  0.1164
  698SOL    HW2 2094   2.913   0.358   2.801  1.3062 -1.3759  0.9790
  699SOL     OW 2095   1.558   0.043   2.928  0.4411 -0.4300 -0.2194
  699SOL    HW1 2096   1.501  -0.036   2.885  0.3549 -0.2445  0.9461
  699SOL    HW2 2097   1.616   0.091   2.854  0.2487  2.0133  0.5572
  700SOL     OW 2098   1.000   2.273   1.440  0.4321  0.6860  0.6943
  700SOL    HW1 2099   1.096   2.252   1.396  0.9820  2.4703 -0.8981
  700SOL    HW2 2100   0.926   2.247   1.370 -1.3104 -1.3635 -1.9661
  701SOL     OW 2101   1.924   2.887  -0.003 -0.0116  0.3600  0.0470
  701SOL    HW1 2102   1.891   2.827   0.078  2.6966 -2.7015 -0.3351
  701SOL    HW2 2103   1.942   2.991   0.014 -1.2524  0.9548 -3.2413
  702SOL     OW 2104   2.068   1.306   1.960  0.1612  0.0979 -0.0996
  702SOL    HW1 2105   2.169   1.275   1.967 -0.2930 -0.4838  1.1693
  702SOL    HW2 2106   2.048   1.368   1.877 -1.7624  0.0669 -0.0359
  703SOL     OW 2107   1.954   0.901   1.483  0.0849 -0.6036  0.0343
  703SOL    HW1 2108   1.959   0.805   1.524 -0.5945  1.2798  0.1973
  703SOL    HW2 2109   2.019   0.974   1.527  1.8311 -0.1272 -3.9944
  704SOL     OW 2110   0.290   2.032   1.672  0.1725  0.3588 -0.1892
  704SOL    HW1 2111   0.345   1.982   1.744  0.6456  0.8713  3.3052
  704SOL    HW2 2112   0.332   2.129   1.655 -0.2694 -0.0607  0.5863
  705SOL     OW 2113   2.461   1.523   0.856  0.1396  0.4392  0.2422
  705SOL    HW1 2114   2.396   1.475   0.790  2.7188  2.3549 -0.6985
  705SOL    HW2 2115   2.546   1.469   0.877  0.3769  0.2026  0.2221
  706SOL     OW 2116   0.702   1.700   1.850 -0.0355  0.0070  0.4182
  706SOL    HW1 2117   0.709   1.596   1.854  0.2013  1.6965  0.6877
  706SOL    HW2 2118   0.783   1.749   1.902  4.2985  1.8345  1.7185
  707SOL     OW 2119   2.322   1.201   1.974 -0.6103 -0.0817 -0.2804
  707SOL    HW1 2120   2.354   1.242   2.064 -1.3033  1.4471 -0.9651
  707SOL    HW2 2121   2.316   1.098   1.968 -0.0284 -1.8732 -0.3542
  708SOL     OW 2122   2.982   0.524   3.031 -0.8423  0.0524 -0.0473
  708SOL    HW1 2123   3.066   0.559   2.975 -1.3842 -2.7062 -3.6805
  708SOL    HW2 2124   2.964   0.425   3.000  2.5882 -1.3905 -2.7066
  709SOL     OW 2125   1.897   1.889   0.355 -0.2684  0.3710  0.2378
  709SOL    HW1 2126   1.897   1.994   0.364 -0.2479  0.0299  1.1092
  709SOL    HW2 2127   1.871   1.863   0.258  3.1502 -0.0235 -1.7475
  710SOL     OW 2128   1.750   1.624   2.449 -0.5927 -0.2969 -0.8630
  710SOL    HW1 2129   1.803   1.563   2.386  1.5439  2.6917 -0.2576
  710SOL    HW2 2130   1.718   1.584   2.538 -0.2337  1.9185  1.4425
  711SOL     OW 2131   2.582   2.911   0.986  0.0603 -0.4441  0.5509
  711SOL    HW1 2132   2.524   2.998   0.969 -2.2118 -0.1907  1.3632
  711SOL    HW2 2133   2.675   2.934   1.027 -0.9358  2.1215  1.7466
  712SOL     OW 2134   1.416   2.133   1.963 -0.1909 -0.1372 -0.2845
  712SOL    HW1 2135   1.513   2.161   1.956 -3.5977 -0.0721 -0.7405
  712SOL    HW2 2136   1.369   2.136   1.872  0.1245 -0.9669  3.0966
  713SOL     OW 2137   2.786   1.500   2.530 -0.6767 -0.7183  0.4049
  713SOL    HW1 2138   2.775   1.402   2.497  1.1584  1.5298 -2.4261
  713SOL    HW2 2139   2.704   1.541   2.580  1.1209  1.1979 -0.4602
  714SOL     OW 2140   2.609   0.430   2.395  0.0649 -0.3432  0.5087
  714SOL    HW1 2141   2.571   0.369   2.466 -1.0250  0.0860  0.7952
  714SOL    HW2 2142   2.577   0.409   2.302  2.6973  2.0303  3.7061
  715SOL     OW 2143   1.564   2.123   1.149 -0.4767 -0.6331  0.5064
  715SOL    HW1 2144   1.473   2.144   1.102 -1.3654  2.3686 -0.7993
  715SOL    HW2 2145   1.558   2.122   1.253  1.3964 -0.7746 -1.9003
  716SOL     OW 2146   1.213   0.168   1.466 -0.1631 -0.0326  0.3218
  716SOL    HW1 2147   1.119   0.162   1.415 -3.5673  2.0132 -3.2485
  716SOL    HW2 2148   1.263   0.257   1.449  2.0721  4.0890 -0.6255
  717SOL     OW 2149   1.151   0.534   1.586 -0.5299 -0.3210  0.0858
  717SOL    HW1 2150   1.248   0.540   1.627  0.8654  0.0438  0.0422
  717SOL    HW2 2151   1.142   0.511   1.484 -0.4226 -0.1860  2.6155
  718SOL     OW 2152   0.677   0.884   0.961  0.1937 -0.2385  0.4691
  718SOL    HW1 2153   0.662   0.880   0.859  0.2145 -1.2247  1.1802
  718SOL    HW2 2154   0.690   0.985   1.001  0.3096  2.6138 -1.3659
  719SOL     OW 2155   0.599   1.726   2.293 -0.0474 -0.1606  0.4557
  719SOL    HW1 2156   0.630   1.792   2.366 -1.8528 -3.4940 -0.9866
  719SOL    HW2 2157   0.612   1.630   2.329  1.8169 -2.5201  1.0023
  720SOL     OW 2158   2.215   1.128   0.281 -0.2185  0.0491 -0.0224
  720SOL    HW1 2159   2.270   1.062   0.225  0.5644 -0.3187 -3.1409
  720SOL    HW2 2160   2.222   1.110   0.384  3.1238  0.1771  0.8085
  721SOL     OW 2161   2.246   3.003   2.049 -0.1570  0.6938  0.0543
  721SOL    HW1 2162   2.195   3.039   1.964 -1.3262  0.2033  0.3763
  721SOL    HW2 2163   2.187   3.026   2.128 -1.3003  0.7948  0.6990
  722SOL     OW 2164   2.337   1.643   0.481 -0.4963  0.0957 -0.4750
  722SOL    HW1 2165   2.378   1.643   0.384 -3.2075 -1.4080  1.1060
  722SOL    HW2 2166   2.237   1.665   0.475  1.5746 -0.6577 -0.3226
  723SOL     OW 2167   2.663   2.710   1.913  0.4024  0.1478  0.0643
  723SOL    HW1 2168   2.689   2.802   1.947 -0.8897 -2.0394 -1.5776
  723SOL    HW2 2169   2.564   2.686   1.917  1.7781  0.7547 -0.8021
  724SOL     OW 2170   0.482   2.499   2.396  0.3587 -0.1739 -0.6640
  724SOL    HW1 2171   0.394   2.482   2.445  2.7570 -0.2730 -0.0883
  724SOL    HW2 2172   0.565   2.460   2.447 -1.4436 -2.2367 -3.3089
  725SOL     OW 2173   2.362   2.723   1.567  0.0415 -0.1256 -0.2147
  725SOL    HW1 2174   2.444   2.777   1.540 -2.2485 -0.6335 -0.5039
  725SOL    HW2 2175   2.396   2.628   1.580 -0.4482 -0.0019 -0.1188
  726SOL     OW 2176   2.453   2.319   0.705 -0.2241 -0.3296  0.3820
  726SOL    HW1 2177   2.464   2.410   0.658 -1.4921  0.0161 -1.9113
  726SOL    HW2 2178   2.427   2.243   0.631  3.0377 -0.8935  2.6614
  727SOL     OW 2179   0.118   3.080   0.132  0.7382 -0.3112 -0.4444
  727SOL    HW1 2180   0.202   3.099   0.076 -0.6283  3.3968 -1.6179
  727SOL    HW2 2181   0.038   3.037   0.078  3.4082 -0.3246 -1.0043
  728SOL     OW 2182   2.892   0.699   0.904  0.1168 -0.2884 -1.0663
  728SOL    HW1 2183   2.856   0.659   0.813 -0.3157 -1.9891  0.1834
  728SOL    HW2 2184   2.847   0.661   0.993 -1.6067  1.7131 -1.6038
  729SOL     OW 2185   0.040   2.537   0.737  0.1797 -0.1299  0.2553
  729SOL    HW1 2186   0.045   2.459   0.809 -1.4218 -1.7693  1.1446
  729SOL    HW2 2187   0.126   2.556   0.678 -3.3170 -0.8327 -1.6155
  730SOL     OW 2188   2.528   0.669   0.832 -0.3149 -0.1043 -0.5929
  730SOL    HW1 2189   2.510   0.772   0.852  1.5381 -0.5765  0.9453
  730SOL    HW2 2190   2.602   0.655   0.759  0.2613 -4.3221 -1.0011
  731SOL     OW 2191   3.095   2.185   2.421  0.5682 -0.2421  0.0466
  731SOL    HW1 2192   3.114   2.204   2.523  1.8951 -0.8195  0.7379
  731SOL    HW2 2193   3.004   2.216   2.382 -1.2608  0.1569  1.3170
  732SOL     OW 2194   1.182   2.799   2.014  0.4375 -0.0106 -0.8913
  732SOL    HW1 2195   1.208   2.729   2.087 -2.1087  1.6453  0.3912
  732SOL    HW2 2196   1.166   2.758   1.922 -0.9970 -0.2004  0.9961
  733SOL     OW 2197   3.083   0.605   2.252 -0.6071  0.6128 -0.2692
  733SOL    HW1 2198   3.157   0.627   2.188 -0.8453  1.5219  1.3002
  733SOL    HW2 2199   3.024   0.525   2.223 -0.5996  0.2830 -0.7267
  734SOL     OW 2200   1.460   0.369   2.680 -0.0216 -0.3491 -0.0864
  734SOL    HW1 2201   1.479   0.450   2.744  0.1877  0.0028  2.1022
  734SOL    HW2 2202   1.357   0.348   2.670 -2.8652 -1.4931  1.1155
  735SOL     OW 2203   2.887   2.615   2.270  0.4303  0.1114  0.0658
  735SOL    HW1 2204   2.883   2.577   2.173  1.9078  0.2861 -0.6417
  735SOL    HW2 2205   2.981   2.669   2.282 -0.7688 -0.0412 -2.2517
  736SOL     OW 2206   0.920   0.436   2.511  0.0143  0.2981  0.1239
  736SOL    HW1 2207   0.822   0.466   2.517 -1.0955 -1.7589 -1.3655
  736SOL    HW2 2208   0.927   0.349   2.456 -0.0318 -0.2206 -4.0074
  737SOL     OW 2209   2.620   0.477   2.825 -0.4877  0.5478  0.6474
  737SOL    HW1 2210   2.611   0.454   2.928  3.1893  2.0180  0.6112
  737SOL    HW2 2211   2.719   0.471   2.793  0.9871  0.9883 -1.8928
  738SOL     OW 2212   1.726   1.279   2.895  0.4529 -0.3599  0.0690
  738SOL    HW1 2213   1.821   1.261   2.867 -0.7597 -1.9947  0.1000
  738SOL    HW2 2214   1.656   1.222   2.851  2.4113  1.2906 -0.7114
  739SOL     OW 2215   1.786   0.704   0.669  0.0577  0.2105  0.1685
  739SOL    HW1 2216   1.838   0.700   0.760 -1.4388 -1.4384  0.2493
  739SOL    HW2 2217   1.806   0.618   0.607  2.1617 -0.2308 -1.3757
  740SOL     OW 2218   1.932   1.950   2.366 -0.6204  0.0999 -0.0311
  740SOL    HW1 2219   2.002   1.876   2.379  2.8321 -1.0592  2.1942
  740SOL    HW2 2220   1.859   1.919   2.298 -0.5620  3.0265 -1.1391
  741SOL     OW 2221   2.611   0.085   2.468  0.7476  0.5420  0.4881
  741SOL    HW1 2222   2.710   0.059   2.440  0.3093 -1.1399 -0.3121
  741SOL    HW2 2223   2.546   0.102   2.391 -0.6852 -1.3077  0.3998
  742SOL     OW 2224   2.177   1.376   0.132 -0.4778  0.0691 -0.3779
  742SOL    HW1 2225   2.077   1.410   0.112 -0.6188  1.2590 -0.2401
  742SOL    HW2 2226   2.179   1.297   0.208 -1.2411 -0.3753  0.6679
  743SOL     OW 2227   1.775   0.638   2.620  0.3766 -0.5280  0.1440
  743SOL    HW1 2228   1.771   0.570   2.544 -0.6601  0.3958 -0.6166
  743SOL    HW2 2229   1.696   0.704   2.627 -2.3196  4.3775 -1.5826
  744SOL     OW 2230   2.693   2.038   0.032  0.2232 -0.9525  0.0090
  744SOL    HW1 2231   2.604   2.079   0.061  0.0839  0.0595 -2.5366
  744SOL    HW2 2232   2.677   1.933   0.006  1.1601 -4.8075 -2.1802
  745SOL     OW 2233   2.203   2.660   2.167 -0.5403  0.1012 -0.1121
  745SOL    HW1 2234   2.098   2.667   2.159 -2.7147 -0.3586 -0.1840
  745SOL    HW2 2235   2.252   2.722   2.236  0.9551  1.6303  0.6985
  746SOL     OW 2236   0.036   2.660   1.732 -0.7575  0.2133 -0.2688
  746SOL    HW1 2237   0.112   2.595   1.756 -0.8753  0.4480  2.0191
  746SOL    HW2 2238   0.016   2.733   1.801  0.0354 -2.5132  1.0930
  747SOL     OW 2239   0.027   1.800   1.651 -0.8077 -0.6758 -0.2183
  747SOL    HW1 2240  -0.011   1.708   1.627  1.4891  3.3647 -0.6305
  747SOL    HW2 2241   0.095   1.830   1.581 -1.2829 -1.7412 -0.1312
  748SOL     OW 2242   1.826   2.733   2.880  0.4055  0.0601  0.4878
  748SOL    HW1 2243   1.841   2.805   2.948 -0.9029 -0.6282  0.3014
  748SOL    HW2 2244   1.727   2.731   2.852  1.6502 -0.3073 -1.1722
  749SOL     OW 2245   1.371   3.047   0.861 -0.6080  0.1909 -0.3417
  749SOL    HW1 2246   1.280   3.048   0.814  3.5788 -0.6508  1.6296
  749SOL    HW2 2247   1.451   3.007   0.808  2.4587 -3.9820  0.5778
  750SOL     OW 2248   2.289   0.198   1.859  0.0576  0.0098  0.6953
  750SOL    HW1 2249   2.313   0.249   1.768  0.8985  0.1555  3.0835
  750SOL    HW2 2250   2.294   0.268   1.942 -0.4179  0.7819  3.0076
  751SOL     OW 2251   0.788   2.126   2.874  0.1649 -0.4393 -0.8771
  751SOL    HW1 2252   0.877   2.103   2.915 -0.4305  1.7983 -0.5300
  751SOL    HW2 2253   0.709   2.114   2.939  1.8072  2.8601 -0.0190
  752SOL     OW 2254   1.319   0.824   1.281 -0.1764 -0.5801 -0.1636
  752SOL    HW1 2255   1.366   0.912   1.304 -0.9636  0.3863  0.2275
  752SOL    HW2 2256   1.374   0.740   1.311 -0.0145  0.6594 -1.0571
  753SOL     OW 2257   0.912   2.572   1.815  0.4581  0.5201  0.4109
  753SOL    HW1 2258   1.016   2.584   1.802  1.8097 -0.7434  1.4036
  753SOL    HW2 2259   0.868   2.656   1.858  0.3430 -0.7633  0.2670
  754SOL     OW 2260   1.129   1.237   3.048  0.7663  0.1949  0.3470
  754SOL    HW1 2261   1.194   1.165   3.014  0.9324  0.2756 -1.7689
  754SOL    HW2 2262   1.170   1.333   3.056  2.0149  2.9332  0.0290
  755SOL     OW 2263   1.977   0.453   2.210 -0.1118  0.4745  0.2003
  755SOL    HW1 2264   2.042   0.377   2.223  0.9127 -0.6157  1.6053
  755SOL    HW2 2265   1.883   0.440   2.257  0.4735 -1.6473 -0.6528
  756SOL     OW 2266   2.577   1.007   2.991  0.5078  0.2416 -0.2410
  756SOL    HW1 2267   2.676   0.989   3.006  0.0340  2.5302  2.3276
  756SOL    HW2 2268   2.513   0.926   3.009  0.5312  2.2751  0.0773
  757SOL     OW 2269   0.112   0.489   1.973  0.5212 -0.1187 -0.1708
  757SOL    HW1 2270   0.183   0.419   1.929  2.1028  1.5748 -0.4473
  757SOL    HW2 2271   0.037   0.442   2.021 -0.7643 -0.6196  1.0093
  758SOL     OW 2272   2.221   0.092   1.489 -0.2381 -0.3817  0.2908
  758SOL    HW1 2273   2.199  -0.008   1.510  2.3208  0.3622 -0.4204
  758SOL    HW2 2274   2.296   0.103   1.416  2.4367  3.8399  0.4837
  759SOL     OW 2275   1.700   0.083   0.064 -0.0899  0.6026 -0.2209
  759SOL    HW1 2276   1.664   0.062  -0.028 -1.1372  0.1904  2.0924
  759SOL    HW2 2277   1.801   0.063   0.074 -0.9584  1.1864  0.7863
  760SOL     OW 2278   2.588   2.056   2.828 -0.9599  0.8958  0.2128
  760SOL    HW1 2279   2.639   1.994   2.894 -1.5494  0.7826  1.4988
  760SOL    HW2 2280   2.591   2.157   2.849 -0.2695  0.4318 -0.3699
  761SOL     OW 2281   1.917   1.795   1.768 -0.2899  0.0622 -0.4805
  761SOL    HW1 2282   1.971   1.717   1.807  0.2279  0.1360 -0.9706
  761SOL    HW2 2283   1.873   1.776   1.676  1.4973  0.2599  1.3427
  762SOL     OW 2284   0.487   2.361   0.951  0.0899 -0.0091 -0.1487
  762SOL    HW1 2285   0.529   2.393   0.858  2.4423  3.2504 -1.8320
  762SOL    HW2 2286   0.543   2.396   1.032  0.5090 -0.8427  0.7629
  763SOL     OW 2287   2.092   1.554   2.975  0.6297 -0.0523  0.5072
  763SOL    HW1 2288   2.172   1.502   2.942 -1.8421  1.4608 -2.3484
  763SOL    HW2 2289   2.025   1.506   3.042 -0.0393  3.0379  0.0102
  764SOL     OW 2290   0.690   0.589   0.713 -0.1179 -0.8505 -0.2268
  764SOL    HW1 2291   0.598   0.549   0.713  2.6105  0.9471  1.2250
  764SOL    HW2 2292   0.738   0.562   0.801  1.1529 -1.0440  0.5484
  765SOL     OW 2293   0.794   0.266   0.769 -0.5133 -0.5792 -0.0466
  765SOL    HW1 2294   0.808   0.302   0.672 -0.4602  1.5199  2.8828
  765SOL    HW2 2295   0.795   0.338   0.844 -0.4325  3.6757  5.2414
  766SOL     OW 2296   2.901   2.152   3.011 -0.3749  0.2352 -0.0549
  766SOL    HW1 2297   2.817   2.105   3.051  0.6770 -2.2955 -1.2028
  766SOL    HW2 2298   2.935   2.229   3.075 -2.6565 -0.3869 -0.7521
  767SOL     OW 2299   2.807   1.661   0.582  0.2383  0.0957 -0.3064
  767SOL    HW1 2300   2.713   1.677   0.623 -0.1673  0.9213 -0.0848
  767SOL    HW2 2301   2.887   1.680   0.642 -1.1466 -1.6938 -2.7260
  768SOL     OW 2302   1.036   0.150   0.242 -0.2662  0.5649  0.0157
  768SOL    HW1 2303   0.997   0.152   0.335 -2.0917 -4.1188 -3.1332
  768SOL    HW2 2304   1.138   0.140   0.242 -1.3183 -0.1962 -0.5084
  769SOL     OW 2305   1.128   1.841   2.321  0.0662  0.3837  0.0473
  769SOL    HW1 2306   1.028   1.873   2.335 -1.7129  1.8650  0.3718
  769SOL    HW2 2307   1.181   1.824   2.407 -1.0977  0.0373 -0.4540
  770SOL     OW 2308   0.162   1.126   2.308  0.2101  0.0564  0.0054
  770SOL    HW1 2309   0.148   1.180   2.396 -0.6686  2.3033  1.5987
  770SOL    HW2 2310   0.079   1.122   2.247 -0.2953 -1.0004  0.7243
  771SOL     OW 2311   3.060   2.822   1.934 -0.3570  0.2026  0.0625
  771SOL    HW1 2312   2.987   2.852   1.859 -0.6689 -4.1921 -1.7989
  771SOL    HW2 2313   3.028   2.814   2.033  2.5818 -1.9958 -1.6638
  772SOL     OW 2314   2.311   0.215   2.843 -0.1555 -0.0736  0.5106
  772SOL    HW1 2315   2.358   0.128   2.812 -1.1891  0.0960 -0.8830
  772SOL    HW2 2316   2.317   0.230   2.947 -0.5124  0.6784 -1.7785
  773SOL     OW 2317   0.603   2.117   2.385 -0.0708  0.6026 -0.2779
  773SOL    HW1 2318   0.583   2.177   2.301  0.0474 -0.8317 -3.4416
  773SOL    HW2 2319   0.544   2.134   2.465  3.4267 -1.2168  1.7498
  774SOL     OW 2320   2.119  -0.000   2.602  0.0823 -0.5705 -0.0873
  774SOL    HW1 2321   2.102   0.098   2.624  0.6247  0.5643  0.0357
  774SOL    HW2 2322   2.191  -0.044   2.662  0.5823  1.0875  1.2665
  775SOL     OW 2323   2.566   2.974   2.224 -0.5397  0.4752 -0.0462
  775SOL    HW1 2324   2.509   3.056   2.204 -0.0620 -0.9473  0.1697
  775SOL    HW2 2325   2.649   2.993   2.284  1.0971 -2.9050  2.2732
  776SOL     OW 2326   3.084   1.255   0.174 -0.2502  0.5660  0.5564
  776SOL    HW1 2327   3.035   1.218   0.087 -1.6611 -1.2745  1.0809
  776SOL    HW2 2328   3.029   1.257   0.261  2.2628  0.1733 -1.4980
  777SOL     OW 2329   0.435   2.942   0.421 -0.3344  0.0544 -0.4458
  777SOL    HW1 2330   0.337   2.925   0.392 -0.5235 -0.0731  1.6879
  777SOL    HW2 2331   0.506   2.894   0.365 -0.5930 -0.1678  0.3278
  778SOL     OW 2332   1.341   1.953   0.178  0.1451 -0.0660  0.1435
  778SOL    HW1 2333   1.274   1.981   0.250 -2.4646  1.4814  0.3135
  778SOL    HW2 2334   1.358   2.034   0.114  1.9638  1.6586  1.4756
  779SOL     OW 2335   0.176   0.890   0.454  0.1909  0.4884  0.2228
  779SOL    HW1 2336   0.153   0.796   0.424  2.7007 -0.8591 -0.7749
  779SOL    HW2 2337   0.120   0.924   0.540  1.4958  1.5816 -0.5784
  780SOL     OW 2338   0.172   0.292   2.408 -0.4554  0.5210  0.3817
  780SOL    HW1 2339   0.132   0.363   2.475 -0.0475  0.6579  0.2393
  780SOL    HW2 2340   0.252   0.324   2.356 -0.7301  0.6960  0.8687
  781SOL     OW 2341   0.693   1.653   1.499 -0.8041 -0.2128  0.4007
  781SOL    HW1 2342   0.752   1.616   1.577 -0.4426  0.1871  0.8483
  781SOL    HW2 2343   0.592   1.654   1.519  0.9001 -2.8811  0.6869
  782SOL     OW 2344   2.589   0.127   0.923  0.6118  0.7431  0.1086
  782SOL    HW1 2345   2.537   0.149   0.840  1.8993 -4.4547 -1.5616
  782SOL    HW2 2346   2.567   0.191   1.000 -0.9513 -0.2399 -2.3304
  783SOL     OW 2347   2.756   0.677   2.460 -0.1997  0.3268 -0.3312
  783SOL    HW1 2348   2.788   0.697   2.559  1.9819 -0.2169  3.3819
  783SOL    HW2 2349   2.680   0.604   2.453 -1.3965 -4.0011 -2.8585
  784SOL     OW 2350   1.407   2.182   0.068  0.4204 -0.1789  0.0733
  784SOL    HW1 2351   1.448   2.221   0.150  1.3276  1.2205 -0.4279
  784SOL    HW2 2352   1.426   2.236  -0.025 -1.5856  0.2118 -0.8727
  785SOL     OW 2353   2.042   0.317   3.078  0.4224 -0.0385  0.3074
  785SOL    HW1 2354   1.955   0.327   3.138 -2.2532 -3.2420  1.5646
  785SOL    HW2 2355   2.081   0.404   3.041  3.3194 -2.0479  0.4234
  786SOL     OW 2356   2.026   2.170   2.246 -0.3127  0.3722 -0.1776
  786SOL    HW1 2357   1.980   2.074   2.268 -2.1269  2.2736  0.6094
  786SOL    HW2 2358   2.129   2.159   2.237  1.6023  3.0027 -1.2660
  787SOL     OW 2359   1.331   0.539   0.921 -0.6085  0.4230  0.0813
  787SOL    HW1 2360   1.306   0.637   0.960  0.8906 -1.2041 -1.5835
  787SOL    HW2 2361   1.372   0.546   0.827  0.2390  0.0511  0.7193
  788SOL     OW 2362   1.238   0.419   0.059 -0.0208 -0.1372  0.3393
  788SOL    HW1 2363   1.146   0.391   0.019  3.2606  0.1360 -0.6480
  788SOL    HW2 2364   1.227   0.473   0.147  3.2543 -1.4853 -1.2970
  789SOL     OW 2365   2.552   0.068   1.940  0.4333  0.3175 -0.9433
  789SOL    HW1 2366   2.467   0.045   1.884 -3.6159 -2.3523 -0.6363
  789SOL    HW2 2367   2.622  -0.007   1.929 -3.8456  0.4031 -3.5408
  790SOL     OW 2368   2.644   2.757   0.776 -0.5319  0.2646 -0.2579
  790SOL    HW1 2369   2.697   2.813   0.711 -0.7888 -2.0380  2.7317
  790SOL    HW2 2370   2.603   2.806   0.858 -0.9219  0.5675  1.2870
  791SOL     OW 2371   1.939   1.201   0.280  0.1349 -0.4881 -0.2259
  791SOL    HW1 2372   1.847   1.160   0.290  0.6964  2.6419 -2.5389
  791SOL    HW2 2373   2.016   1.137   0.292 -2.2135  0.6076 -1.8370
  792SOL     OW 2374   0.368   1.751   2.130  0.8260  0.3617  0.1742
  792SOL    HW1 2375   0.440   1.729   2.199 -0.1318  0.1307  2.1976
  792SOL    HW2 2376   0.269   1.744   2.164 -2.3448 -2.8699 -3.5350
  793SOL     OW 2377   2.102   1.540   2.091  0.3369 -0.1360 -0.1613
  793SOL    HW1 2378   2.184   1.578   2.037  0.1702 -1.2178 -0.0299
  793SOL    HW2 2379   2.067   1.453   2.046 -1.0747 -0.1421  1.1932
  794SOL     OW 2380   0.571   1.456   2.346 -0.2138  0.0136 -0.0564
  794SOL    HW1 2381   0.533   1.440   2.247  2.2347  0.6432 -1.9613
  794SOL    HW2 2382   0.499   1.500   2.411  1.5968  1.1350  1.5514
  795SOL     OW 2383   2.539   2.261   1.826  0.0408 -0.0954 -0.7442
  795SOL    HW1 2384   2.513   2.261   1.929 -0.9459  0.2434  2.4878
  795SOL    HW2 2385   2.475   2.200   1.768 -0.7539 -1.2498 -1.5983
  796SOL     OW 2386   3.090   1.108   2.696 -0.1305 -0.1568  0.5267
  796SOL    HW1 2387   2.990   1.092   2.687  1.2776 -0.5755 -3.0917
  796SOL    HW2 2388   3.124   1.109   2.793  0.5499  1.7446  0.4302
  797SOL     OW 2389   0.776   0.675   1.409 -0.1147  0.0723 -0.3596
  797SOL    HW1 2390   0.853   0.735   1.446 -1.6474  0.2271  0.0811
  797SOL    HW2 2391   0.701   0.725   1.352  1.0658  1.5530  0.4084
  798SOL     OW 2392   1.342   0.378   1.151  0.1515 -0.2435 -0.6186
  798SOL    HW1 2393   1.409   0.395   1.228  1.6088 -0.3517  0.5413
  798SOL    HW2 2394   1.354   0.441   1.065  0.7912 -0.8261  2.4776
  799SOL     OW 2395   1.979   2.722   0.988 -0.0809  0.2367  0.5128
  799SOL    HW1 2396   1.893   2.701   1.037 -2.3665 -0.3532  0.8898
  799SOL    HW2 2397   1.979   2.690   0.889 -1.7959 -0.5513 -0.4667
  800SOL     OW 2398   3.056   0.605   1.805 -0.1920 -0.6378 -0.4548
  800SOL    HW1 2399   2.979   0.659   1.852 -0.9160  2.4332 -2.2378
  800SOL    HW2 2400   3.113   0.551   1.878  3.1650  1.8458  1.6889
  801SOL     OW 2401   1.959   2.252   0.086  0.1062  0.1376  0.3147
  801SOL    HW1 2402   1.863   2.216   0.091  1.2039  0.3461 -0.3922
  801SOL    HW2 2403   2.037   2.183   0.075 -0.4019  1.1103 -2.2898
  802SOL     OW 2404   0.713   0.814   2.561 -0.2673 -0.0127  0.0043
  802SOL    HW1 2405   0.778   0.821   2.483  0.3685  0.3608  2.4587
  802SOL    HW2 2406   0.631   0.747   2.540 -3.5632  0.2958  0.2416
  803SOL     OW 2407   0.953   0.076   0.888 -0.0774 -1.0590 -0.0311
  803SOL    HW1 2408   1.041   0.126   0.925  1.5236 -0.0134 -1.9310
  803SOL    HW2 2409   0.890   0.145   0.837  2.4893 -0.0528  1.2382
  804SOL     OW 2410   0.274   0.035   2.175 -0.5055 -0.1288  0.1182
  804SOL    HW1 2411   0.278   0.136   2.182 -1.5457 -2.1418 -0.8076
  804SOL    HW2 2412   0.233   0.005   2.086  2.2848  1.2286  0.7523
  805SOL     OW 2413   2.451   0.249   0.304 -0.3502 -0.2127  0.4844
  805SOL    HW1 2414   2.543   0.292   0.315 -1.0006 -0.0473  3.0497
  805SOL    HW2 2415   2.420   0.257   0.211  1.0889  2.0252  1.6111
  806SOL     OW 2416   0.652   2.400   1.669 -0.1256 -0.6012 -0.2920
  806SOL    HW1 2417   0.659   2.498   1.704 -0.6964 -0.8305  0.4325
  806SOL    HW2 2418   0.745   2.358   1.656 -1.9048 -1.1051 -1.9270
  807SOL     OW 2419   2.382   0.954   0.453  0.3045 -0.4994 -0.1514
  807SOL    HW1 2420   2.442   0.959   0.535  0.6391  1.3192 -3.1069
  807SOL    HW2 2421   2.426   0.922   0.370  2.2044 -1.6116  0.7765
  808SOL     OW 2422   0.532   2.019   2.983 -0.4647  0.4244 -0.3904
  808SOL    HW1 2423   0.575   2.046   3.077  1.3599 -0.7448 -1.2140
  808SOL    HW2 2424   0.549   1.919   2.952 -1.3487  0.5472 -2.3252
  809SOL     OW 2425   2.612   1.979   1.931  0.7458 -0.1497 -0.7021
  809SOL    HW1 2426   2.704   2.024   1.963  0.6052  2.0159 -2.6450
  809SOL    HW2 2427   2.587   2.006   1.835  0.5575 -0.4367  1.6236
  810SOL     OW 2428   2.104   1.042   0.561  0.2704 -0.0973 -0.7155
  810SOL    HW1 2429   2.105   0.986   0.650  2.7336 -2.5492 -0.2681
  810SOL    HW2 2430   2.081   1.141   0.577 -2.6121  2.6894 -0.2681
  811SOL     OW 2431   1.354   2.459   1.319  0.2542  0.0771 -0.3257
  811SOL    HW1 2432   1.330   2.359   1.311  0.2435  0.5832 -0.2677
  811SOL    HW2 2433   1.294   2.510   1.250 -0.5496  1.7682 -1.5040
  812SOL     OW 2434   1.472   0.817   1.956 -0.1479  0.4408  0.0228
  812SOL    HW1 2435   1.504   0.891   2.023 -0.0794  0.8303 -1.0251
  812SOL    HW2 2436   1.374   0.844   1.929 -0.3759  2.6740  1.8440
  813SOL     OW 2437   1.735   2.143   2.462  0.2931 -0.1720  0.6277
  813SOL    HW1 2438   1.818   2.080   2.463  0.8503 -2.4545 -1.0894
  813SOL    HW2 2439   1.678   2.120   2.381  0.7050 -1.6250 -0.0065
  814SOL     OW 2440   2.864   1.561   2.850 -0.1069  0.0344 -0.6090
  814SOL    HW1 2441   2.958   1.523   2.876  2.7783 -1.9262 -0.8323
  814SOL    HW2 2442   2.866   1.667   2.843  1.5663  2.2185  1.2992
  815SOL     OW 2443   2.251   2.829   2.730 -0.8905  0.0982  0.2970
  815SOL    HW1 2444   2.226   2.750   2.787  0.0001 -2.8595 -0.6471
  815SOL    HW2 2445   2.354   2.839   2.715  2.9294  0.1914  4.5985
  816SOL     OW 2446   1.661   0.298   1.579 -0.3653  0.4780  0.3767
  816SOL    HW1 2447   1.693   0.212   1.623 -1.1303 -0.2908 -0.6818
  816SOL    HW2 2448   1.575   0.331   1.624  0.0589 -2.4704 -0.3151
  817SOL     OW 2449   0.437   1.243   2.514 -0.0918 -0.6705  0.4931
  817SOL    HW1 2450   0.338   1.280   2.514 -2.2423 -1.1962 -1.7128
  817SOL    HW2 2451   0.492   1.283   2.434 -2.0829 -0.4935  0.6775
  818SOL     OW 2452   1.957   0.828   0.476 -0.1367 -0.3342  0.3373
  818SOL    HW1 2453   2.019   0.899   0.515 -0.8313 -0.1180  4.8928
  818SOL    HW2 2454   1.884   0.796   0.541  0.1139 -1.0118 -0.9489
  819SOL     OW 2455   2.788   2.902   3.015 -0.1953  0.5988  0.0366
  819SOL    HW1 2456   2.851   2.840   2.961 -0.3440 -0.8417 -0.4376
  819SOL    HW2 2457   2.697   2.913   2.972 -0.3111 -0.1985  0.0150
  820SOL     OW 2458   1.233   1.115   0.560 -0.4174  0.3430  0.8835
  820SOL    HW1 2459   1.255   1.211   0.589 -0.5063  2.5624  1.9160
  820SOL    HW2 2460   1.226   1.052   0.649  3.3962 -4.2920  2.7381
  821SOL     OW 2461   0.028   1.269   0.668  0.1422 -0.2538  0.2569
  821SOL    HW1 2462  -0.036   1.259   0.750 -0.9980  1.5172  0.0543
  821SOL    HW2 2463   0.080   1.364   0.662  1.4905  1.1616  0.0239
  822SOL     OW 2464   2.535   1.749   2.411  0.1700 -0.3324 -0.1029
  822SOL    HW1 2465   2.542   1.838   2.470 -0.4685  0.4570  2.3744
  822SOL    HW2 2466   2.465   1.755   2.336  0.5179 -0.6322 -0.8401
  823SOL     OW 2467   2.020   0.828   1.223 -0.0921 -0.9867  0.1474
  823SOL    HW1 2468   2.003   0.873   1.315 -1.8009 -1.4555  1.8592
  823SOL    HW2 2469   1.957   0.865   1.151  2.0602  0.4340 -0.7764
  824SOL     OW 2470   0.132   2.047   2.791  0.4030  0.4812 -0.5349
  824SOL    HW1 2471   0.084   1.965   2.832 -1.0551 -1.1015  1.7469
  824SOL    HW2 2472   0.199   2.023   2.720  1.9274  1.7031 -0.5090
  825SOL     OW 2473   1.285   1.098   0.235 -0.2881  0.1954  0.1094
  825SOL    HW1 2474   1.280   1.203   0.233  3.4056  2.2913 -3.3187
  825SOL    HW2 2475   1.210   1.056   0.289 -0.1423 -1.1955  2.9648
  826SOL     OW 2476   1.938   0.639   1.593  0.1203  0.2046 -0.2131
  826SOL    HW1 2477   2.000   0.570   1.638 -0.0630  1.5703  0.0977
  826SOL    HW2 2478   1.862   0.603   1.532 -0.1338  1.4946  1.5046
  827SOL     OW 2479   0.706   1.407   0.289 -0.7436 -0.1597  0.3089
  827SOL    HW1 2480   0.708   1.320   0.227  2.1219 -0.0280 -1.2539
  827SOL    HW2 2481   0.727   1.379   0.386 -1.6146  2.9053  0.3129
  828SOL     OW 2482   2.480   0.093   1.612 -0.5729 -0.2084  0.5267
  828SOL    HW1 2483   2.395   0.145   1.599  2.1657  0.8550  2.7071
  828SOL    HW2 2484   2.470  -0.005   1.643 -4.1330  5.0272  0.6896
  829SOL     OW 2485   2.803   2.485   2.953  0.0484 -0.5046 -0.5396
  829SOL    HW1 2486   2.747   2.401   2.938  0.7756 -0.9182  1.2410
  829SOL    HW2 2487   2.781   2.523   3.045 -1.4255 -1.2707  0.0923
  830SOL     OW 2488   2.817   0.896   3.042  0.3107 -0.8182  0.1687
  830SOL    HW1 2489   2.902   0.946   3.023 -0.7891 -1.3477  0.8127
  830SOL    HW2 2490   2.833   0.821   3.112  0.1469 -0.2072  2.7589
  831SOL     OW 2491   0.024   0.646   0.376  0.4621  0.5634 -0.2356
  831SOL    HW1 2492   0.054   0.596   0.463 -0.8292 -0.9142  1.9425
  831SOL    HW2 2493   0.005   0.589   0.293  1.0672 -0.6526 -3.2288
  832SOL     OW 2494   1.823   0.733   0.008 -0.1791  0.1319  0.0085
  832SOL    HW1 2495   1.729   0.758  -0.035 -1.6817  3.0139 -3.1447
  832SOL    HW2 2496   1.852   0.634  -0.009  0.2624 -1.1814 -0.3979
  833SOL     OW 2497   2.428   2.108   0.528 -0.1598  0.4170 -0.1183
  833SOL    HW1 2498   2.328   2.082   0.536 -1.4073 -0.4862  1.6079
  833SOL    HW2 2499   2.482   2.027   0.500 -2.1639  0.6139 -0.6807
  834SOL     OW 2500   0.174   0.195   0.550  0.1528 -0.3697 -0.9663
  834SOL    HW1 2501   0.226   0.112   0.594 -0.0706  2.4908 -1.1868
  834SOL    HW2 2502   0.155   0.180   0.451  0.8384  1.3323  2.4195
  835SOL     OW 2503   2.364   1.540   1.158 -0.2709  0.7129 -0.3312
  835SOL    HW1 2504   2.453   1.585   1.197 -0.6532 -0.3774 -1.1300
  835SOL    HW2 2505   2.337   1.571   1.066 -1.6130 -2.0154  1.8007
  836SOL     OW 2506   1.576   0.829   2.561 -0.1981  0.3458 -0.3452
  836SOL    HW1 2507   1.492   0.815   2.499  1.0987 -0.3077  0.9713
  836SOL    HW2 2508   1.654   0.868   2.506 -1.5121  1.9591  0.4688
  837SOL     OW 2509   1.756   0.138   0.551  0.3919  0.0298  0.0806
  837SOL    HW1 2510   1.702   0.184   0.625  2.7611 -4.2413  2.2459
  837SOL    HW2 2511   1.707   0.135   0.458 -1.8986  2.2908  1.1756
  838SOL     OW 2512   1.147   1.559   2.745 -0.5775  0.3659  0.7133
  838SOL    HW1 2513   1.132   1.542   2.845 -4.0662 -3.8078  0.5689
  838SOL    HW2 2514   1.095   1.492   2.685  1.8457 -0.7150  0.7478
  839SOL     OW 2515   1.585   0.308   0.982  0.1363 -0.3211  0.1720
  839SOL    HW1 2516   1.636   0.378   1.038 -1.8803 -0.9139  0.5920
  839SOL    HW2 2517   1.573   0.217   1.027  1.0693  0.6284  1.7673
  840SOL     OW 2518   2.487   2.947   1.708 -0.5300  0.1068 -0.2068
  840SOL    HW1 2519   2.403   2.883   1.728 -1.5308  1.2346  0.5271
  840SOL    HW2 2520   2.566   2.916   1.764  0.5613  2.1231 -0.5408
  841SOL     OW 2521   1.566   0.823   3.036 -0.7215  0.5299 -1.0888
  841SOL    HW1 2522   1.503   0.850   3.118 -0.1811 -0.7767 -1.0934
  841SOL    HW2 2523   1.540   0.875   2.955  0.8689 -2.7484  1.6765
  842SOL     OW 2524   0.803   1.489   0.911 -0.1372  0.3556 -0.1126
  842SOL    HW1 2525   0.767   1.568   0.972 -1.0559  1.7653  1.3552
  842SOL    HW2 2526   0.725   1.424   0.889 -0.6912  0.1610  1.1177
  843SOL     OW 2527   0.089   3.097   1.380 -0.0477  0.1411 -0.4122
  843SOL    HW1 2528   0.159   3.155   1.434 -1.3303 -2.8350  1.4539
  843SOL    HW2 2529   0.073   3.007   1.435  0.3421 -0.4605  3.0139
  844SOL     OW 2530   0.802   2.470   0.257 -0.2943  0.0075 -0.3641
  844SOL    HW1 2531   0.737   2.442   0.331 -0.2970 -1.1288 -1.7526
  844SOL    HW2 2532   0.761   2.513   0.175 -1.4999 -0.8994  2.4183
  845SOL     OW 2533   1.657   2.891   1.324  0.3454  0.0583  0.3329
  845SOL    HW1 2534   1.733   2.824   1.306 -0.0209 -0.5214  0.8936
  845SOL    HW2 2535   1.682   2.963   1.391  0.1526  2.5381  1.0376
  846SOL     OW 2536   1.596   2.936   0.740  0.1073 -0.3146  0.4977
  846SOL    HW1 2537   1.592   2.949   0.637 -0.9083  0.4755  1.0566
  846SOL    HW2 2538   1.696   2.927   0.776  0.9572  3.4510  0.9787
  847SOL     OW 2539   2.076   1.666   0.371 -0.0419 -0.4692 -0.2948
  847SOL    HW1 2540   2.034   1.594   0.433  1.3375  4.2110 -0.7182
  847SOL    HW2 2541   2.010   1.744   0.344 -3.1839  2.7239  0.2885
  848SOL     OW 2542   2.450   0.853   2.616  0.0767 -0.2460  0.4423
  848SOL    HW1 2543   2.399   0.935   2.658 -0.5992 -0.3186  0.3711
  848SOL    HW2 2544   2.394   0.763   2.620 -0.2525 -2.0009  0.5715
  849SOL     OW 2545   2.553   0.864   2.377  0.1775  0.4281  0.0258
  849SOL    HW1 2546   2.644   0.810   2.388 -0.2413 -1.3266  1.6435
  849SOL    HW2 2547   2.500   0.858   2.465  3.0435 -2.7083 -1.5582
  850SOL     OW 2548   1.562   0.090   1.328 -0.1026 -0.0034 -0.9935
  850SOL    HW1 2549   1.537   0.077   1.225 -1.3880 -0.0922 -2.3798
  850SOL    HW2 2550   1.526   0.018   1.395 -0.0420  0.4267 -0.3039
  851SOL     OW 2551   0.431   1.799   0.561  0.0621  0.0494 -0.1291
  851SOL    HW1 2552   0.493   1.877   0.588  0.3146 -0.2394  2.9626
  851SOL    HW2 2553   0.436   1.774   0.463 -2.1626  1.4889  0.8184
  852SOL     OW 2554   0.804   2.073   1.758 -0.1326  0.8486 -0.8710
  852SOL    HW1 2555   0.830   2.166   1.718  1.5718  1.0808  0.0918
  852SOL    HW2 2556   0.739   2.078   1.836 -1.1202 -2.8456 -1.4151
  853SOL     OW 2557   2.505   1.542   2.604  0.2326 -0.0980  0.3403
  853SOL    HW1 2558   2.448   1.460   2.577 -2.3833 -1.6642 -0.3822
  853SOL    HW2 2559   2.509   1.612   2.521 -0.1408  1.3995 -2.6281
  854SOL     OW 2560   2.397   1.362   1.714 -0.2006  0.0677 -0.5467
  854SOL    HW1 2561   2.470   1.343   1.644 -1.7217 -2.7289 -1.9727
  854SOL    HW2 2562   2.397   1.290   1.791 -0.2374 -0.6653  0.2851
  855SOL     OW 2563   2.080   2.460   1.063 -0.4931 -0.1470  0.7961
  855SOL    HW1 2564   2.075   2.559   1.038  1.2644 -2.2855  0.7945
  855SOL    HW2 2565   2.170   2.441   1.112  0.5217 -0.8054 -1.0820
  856SOL     OW 2566   1.350   1.403   0.942  0.2025  0.1099 -0.0913
  856SOL    HW1 2567   1.422   1.473   0.963  2.0461 -0.8688 -0.3426
  856SOL    HW2 2568   1.256   1.434   0.966  0.8649  1.2618  0.3942
  857SOL     OW 2569   3.047   2.735   0.984 -0.6771 -0.8240  0.3498
  857SOL    HW1 2570   3.014   2.639   0.963 -0.6221  2.5099 -0.5817
  857SOL    HW2 2571   3.118   2.764   0.912  0.3638  1.6473 -1.8113
  858SOL     OW 2572   2.338   2.099   1.709 -0.1900  0.4989  0.3107
  858SOL    HW1 2573   2.258   2.084   1.648  1.5390 -2.5486 -1.2272
  858SOL    HW2 2574   2.418   2.037   1.674 -1.2938 -0.8896 -1.6854
  859SOL     OW 2575   2.458   0.584   1.095  1.0751  0.1508 -0.2213
  859SOL    HW1 2576   2.454   0.601   0.995 -0.2748 -0.5219  1.2830
  859SOL    HW2 2577   2.487   0.485   1.113  0.1776  0.3114 -1.2686
  860SOL     OW 2578   1.853   2.799   0.497  0.3467  0.0609 -0.4890
  860SOL    HW1 2579   1.853   2.788   0.393  1.5570 -0.7917 -2.0666
  860SOL    HW2 2580   1.865   2.891   0.529  1.6949  1.4432 -1.7117
  861SOL     OW 2581   1.003   2.428   2.881  0.3526 -0.3772  0.1712
  861SOL    HW1 2582   1.065   2.497   2.838 -0.9579 -2.0460 -1.7769
  861SOL    HW2 2583   0.990   2.450   2.980 -0.7031 -2.6880 -1.1546
  862SOL     OW 2584   2.922   2.559   1.594 -0.2938  0.0591 -0.2782
  862SOL    HW1 2585   3.010   2.605   1.629  0.0454  1.7178  0.1334
  862SOL    HW2 2586   2.866   2.635   1.545  0.0048 -0.2369 -0.1029
  863SOL     OW 2587   1.805   2.732   0.223  0.2056 -0.5163 -0.3346
  863SOL    HW1 2588   1.863   2.643   0.229 -0.0054 -0.5873 -1.1677
  863SOL    HW2 2589   1.721   2.720   0.162  0.1827  3.1516 -1.1925
  864SOL     OW 2590   2.014   1.215   2.839 -0.4718 -0.0223 -0.4875
  864SOL    HW1 2591   1.967   1.157   2.769 -2.3933 -0.0680 -2.3019
  864SOL    HW2 2592   2.082   1.277   2.799  1.4086 -2.9043  0.9648
  865SOL     OW 2593   2.155   1.934   0.726 -0.2621  0.0315 -0.3979
  865SOL    HW1 2594   2.229   1.883   0.777  0.9892  0.1451 -4.3537
  865SOL    HW2 2595   2.079   1.973   0.785  1.2015 -2.1416 -0.0789
  866SOL     OW 2596   2.865   2.948   1.008 -0.4965 -0.3314 -0.1613
  866SOL    HW1 2597   2.859   3.010   0.931 -0.4205 -0.7138 -0.6884
  866SOL    HW2 2598   2.944   2.884   0.989 -0.7786  1.2535  2.1325
  867SOL     OW 2599   0.353   1.439   0.931 -0.4784 -0.9128 -0.2655
  867SOL    HW1 2600   0.322   1.355   0.884  1.4226 -0.1120  0.8454
  867SOL    HW2 2601   0.327   1.521   0.876  1.3147  1.8068 -3.5267
  868SOL     OW 2602   0.765   1.872   2.106  0.0996  1.0135 -0.4064
  868SOL    HW1 2603   0.714   1.818   2.175 -0.8032 -0.7553  1.8882
  868SOL    HW2 2604   0.715   1.958   2.077 -0.0734  2.3998  1.5609
  869SOL     OW 2605   2.572   1.951   1.625 -0.4469  0.0400  0.2182
  869SOL    HW1 2606   2.667   1.992   1.625  2.2427  0.4655 -0.5156
  869SOL    HW2 2607   2.569   1.863   1.574  1.6299  3.2064  0.1396
  870SOL     OW 2608   2.286   2.700   1.226 -0.0625  0.0392  0.7007
  870SOL    HW1 2609   2.301   2.600   1.214  1.8657 -0.2375 -2.3655
  870SOL    HW2 2610   2.314   2.740   1.311 -4.1365 -1.5562 -0.5020
  871SOL     OW 2611   0.029   2.288   0.539 -0.1379  0.7247 -0.4753
  871SOL    HW1 2612  -0.004   2.349   0.611  0.8138 -0.7027 -1.9510
  871SOL    HW2 2613  -0.040   2.263   0.467  0.3014  0.6193 -0.1035
  872SOL     OW 2614   2.118   0.445   1.671  0.2887  0.3030 -0.0194
  872SOL    HW1 2615   2.095   0.438   1.771  0.3240  1.6273 -0.4895
  872SOL    HW2 2616   2.219   0.414   1.656  2.4506 -0.5998  0.6646
  873SOL     OW 2617   1.723   2.104   3.099  0.3647  0.2649 -0.2464
  873SOL    HW1 2618   1.620   2.084   3.097 -0.7181 -0.8757 -0.2424
  873SOL    HW2 2619   1.745   2.169   3.022  1.0478  3.4543 -0.2294
  874SOL     OW 2620   0.678   2.455   0.748 -0.0680 -0.2695 -0.4754
  874SOL    HW1 2621   0.692   2.554   0.757  0.8952 -3.2364  2.1214
  874SOL    HW2 2622   0.754   2.391   0.784 -0.5399 -1.7839  1.2263
  875SOL     OW 2623   2.264   1.537   1.408  0.2639  0.5200 -0.2520
  875SOL    HW1 2624   2.331   1.578   1.468  0.7816 -1.3299 -2.6848
  875SOL    HW2 2625   2.294   1.529   1.308 -3.1405  4.5554  0.4619
  876SOL     OW 2626   0.074   2.287   2.662 -0.0487  0.2733  0.5439
  876SOL    HW1 2627   0.094   2.203   2.723  2.6535  2.2750 -2.1393
  876SOL    HW2 2628   0.075   2.371   2.723  1.6245  1.3539  2.1324
  877SOL     OW 2629   2.915   2.635   0.594 -0.4114  0.4228 -0.5092
  877SOL    HW1 2630   2.911   2.735   0.602  1.2566 -1.0541 -0.6541
  877SOL    HW2 2631   2.994   2.595   0.653  1.4784  0.5031 -0.0854
  878SOL     OW 2632   2.815   1.489   2.250  0.0357 -0.0178 -0.4205
  878SOL    HW1 2633   2.794   1.577   2.198  0.0071  0.9995 -0.6087
  878SOL    HW2 2634   2.823   1.507   2.352 -0.3709  0.4901 -1.0799
  879SOL     OW 2635   2.380   0.089   1.283  0.2007 -0.0234  0.4277
  879SOL    HW1 2636   2.406  -0.008   1.309 -1.6694 -1.5915  0.6157
  879SOL    HW2 2637   2.293   0.091   1.220 -2.2429  0.0250  0.8943
  880SOL     OW 2638   0.748   0.513   2.250  0.3502 -0.3172  0.4091
  880SOL    HW1 2639   0.739   0.442   2.324 -0.4571  0.0505  3.1547
  880SOL    HW2 2640   0.777   0.473   2.158  0.4311 -0.3522 -1.3354
  881SOL     OW 2641   0.846   0.082   0.425 -0.0517 -0.3898  0.8142
  881SOL    HW1 2642   0.885  -0.018   0.412 -0.8293 -3.4970  1.4322
  881SOL    HW2 2643   0.760   0.088   0.366  1.1637  2.9732 -4.3173
  882SOL     OW 2644   2.707   1.664   1.688  0.2935 -0.1168  0.0481
  882SOL    HW1 2645   2.799   1.635   1.644  0.1213  0.6826  1.4002
  882SOL    HW2 2646   2.720   1.726   1.765 -0.4953 -0.4129 -0.2724
  883SOL     OW 2647   0.839   0.514   0.939  0.6026 -0.1795 -0.1165
  883SOL    HW1 2648   0.884   0.605   0.947 -0.4871 -0.7435 -1.7636
  883SOL    HW2 2649   0.810   0.468   1.028  1.2660 -0.2871  0.1366
  884SOL     OW 2650   1.094   1.750   1.170 -0.4173  0.4526 -0.2233
  884SOL    HW1 2651   1.102   1.649   1.144  1.3921 -3.1366  0.3619
  884SOL    HW2 2652   1.055   1.811   1.094  2.0585 -0.9688  1.3561
  885SOL     OW 2653   2.327   1.820   2.249  0.1451 -0.1412  0.6157
  885SOL    HW1 2654   2.244   1.767   2.292 -0.3656 -0.7646  0.5477
  885SOL    HW2 2655   2.324   1.927   2.241  0.0916  2.3434  2.0067
  886SOL     OW 2656   2.604   0.342   1.802  0.3212 -0.2541  0.3974
  886SOL    HW1 2657   2.614   0.257   1.858  1.0448 -0.5153 -3.2913
  886SOL    HW2 2658   2.690   0.399   1.782  0.1701 -1.1353  0.1097
  887SOL     OW 2659   0.141   2.066   1.289 -0.3420  0.2815  0.0382
  887SOL    HW1 2660   0.133   2.024   1.197  1.8187  0.2577  1.7799
  887SOL    HW2 2661   0.175   2.161   1.287 -0.7640 -2.5774  0.8794
  888SOL     OW 2662   0.634   1.224   1.505 -0.5228 -0.0959  0.8798
  888SOL    HW1 2663   0.639   1.265   1.413  2.3238  0.1705  1.4593
  888SOL    HW2 2664   0.622   1.120   1.503  0.9525  1.0018 -1.1091
  889SOL     OW 2665   0.836   2.521   2.219 -0.3866  0.3712 -0.5859
  889SOL    HW1 2666   0.766   2.447   2.233 -0.7571  1.0324  0.1085
  889SOL    HW2 2667   0.923   2.488   2.178 -0.2510 -0.4002  2.3486
  890SOL     OW 2668   2.358   2.509   0.255  0.5811  0.0658  0.1760
  890SOL    HW1 2669   2.400   2.581   0.192 -1.1407  0.8997  3.8527
  890SOL    HW2 2670   2.333   2.538   0.351 -1.8142  0.8666 -1.7796
  891SOL     OW 2671   2.508   1.730   0.668  0.0605  0.1648 -0.8017
  891SOL    HW1 2672   2.517   1.666   0.749 -0.6806 -1.0904  0.6956
  891SOL    HW2 2673   2.428   1.704   0.603 -0.2620 -0.4668 -1.2702
  892SOL     OW 2674   0.427   0.338   2.251  0.2784 -0.7842  0.7996
  892SOL    HW1 2675   0.410   0.419   2.183 -2.3227  0.6297  2.2198
  892SOL    HW2 2676   0.486   0.364   2.330 -1.9811 -1.0546  0.8475
  893SOL     OW 2677   1.683   0.209   2.729 -0.7570 -0.1851  0.3203
  893SOL    HW1 2678   1.748   0.283   2.766  1.3435 -1.3089  2.0986
  893SOL    HW2 2679   1.597   0.261   2.691 -0.6167 -0.0676  0.6217
  894SOL     OW 2680   2.169   2.071   0.078  0.1787 -0.8116  0.4832
  894SOL    HW1 2681   2.163   2.004  -0.002  4.2265  0.9663  0.9490
  894SOL    HW2 2682   2.170   2.026   0.172 -1.7167  0.9060  0.0639
  895SOL     OW 2683   2.785   1.442   0.911  0.2332 -0.2845 -0.4237
  895SOL    HW1 2684   2.867   1.375   0.906  1.1410 -0.7360 -1.0442
  895SOL    HW2 2685   2.803   1.526   0.963  0.4968 -3.4737 -2.1301
  896SOL     OW 2686   1.853   1.859   1.205 -0.0228 -0.1953 -0.3581
  896SOL    HW1 2687   1.910   1.773   1.217 -1.0865 -3.1516 -0.2629
  896SOL    HW2 2688   1.780   1.856   1.136  0.7618  0.9465  0.2586
  897SOL     OW 2689   0.295   0.561   3.049 -0.3921  0.6416  0.0663
  897SOL    HW1 2690   0.241   0.609   2.977  3.8741 -0.7921  0.4471
  897SOL    HW2 2691   0.398   0.589   3.060  0.0759 -0.0518  1.2791
  898SOL     OW 2692   0.668   2.819   1.039 -0.3485  0.3565  0.1215
  898SOL    HW1 2693   0.712   2.905   1.005  0.2181 -1.4527  0.6277
  898SOL    HW2 2694   0.706   2.780   1.125 -0.2606  0.6948 -1.1517
  899SOL     OW 2695   2.819   0.873   1.401 -0.7503 -0.3757 -0.5037
  899SOL    HW1 2696   2.807   0.882   1.301 -0.8493  1.9069  2.1317
  899SOL    HW2 2697   2.901   0.922   1.437  0.4716 -3.8562 -0.3976
  900SOL     OW 2698   1.001   2.469   2.515  0.0500  0.2923  0.3991
  900SOL    HW1 2699   0.950   2.466   2.427 -2.4693 -2.1429 -1.8914
  900SOL    HW2 2700   0.977   2.400   2.589 -0.8579  1.2332 -0.6648
  901SOL     OW 2701   1.919   2.435   1.378 -0.0181  0.0455 -0.3127
  901SOL    HW1 2702   1.902   2.373   1.296 -3.2353  0.6340 -0.9419
  901SOL    HW2 2703   2.022   2.432   1.410  2.1166  0.8494  1.7132
  902SOL     OW 2704   2.524   1.675   1.507  0.2351 -0.0530 -0.2810
  902SOL    HW1 2705   2.583   1.662   1.595  1.2159  0.3962  0.2412
  902SOL    HW2 2706   2.549   1.609   1.432  0.8473 -0.4948  0.9103
  903SOL     OW 2707   0.325   2.488   1.990 -0.0100 -0.5978  0.2382
  903SOL    HW1 2708   0.246   2.422   1.969 -2.5106  1.3371  1.3807
  903SOL    HW2 2709   0.334   2.559   1.912  0.3846  0.2599 -0.2591
  904SOL     OW 2710   1.989   0.785   2.558 -0.0104 -0.4719  0.4399
  904SOL    HW1 2711   1.904   0.731   2.583 -0.3640  3.2622  0.4893
  904SOL    HW2 2712   2.006   0.776   2.455  1.6324 -0.4102 -0.5782
  905SOL     OW 2713   2.865   0.088   2.417  0.4155  0.5843  0.9015
  905SOL    HW1 2714   2.920   0.025   2.481  1.2280 -2.1224 -0.8020
  905SOL    HW2 2715   2.890   0.190   2.439 -0.6844  1.0747  1.3315
  906SOL     OW 2716   0.153   1.673   1.885  0.4561 -0.7380 -0.4170
  906SOL    HW1 2717   0.117   1.730   1.801 -2.8822  1.4464  1.1336
  906SOL    HW2 2718   0.258   1.648   1.874  3.0860 -2.1825  0.8979
  907SOL     OW 2719   0.198   2.440   0.971 -0.2863 -0.3392  0.2272
  907SOL    HW1 2720   0.296   2.405   0.970 -0.5340 -2.9553 -0.4539
  907SOL    HW2 2721   0.189   2.540   0.953  2.0139 -2.1007  0.5968
  908SOL     OW 2722   2.834   3.060   0.278 -0.1343  0.4096  0.3079
  908SOL    HW1 2723   2.737   3.037   0.249 -1.6499  3.4783  1.6096
  908SOL    HW2 2724   2.890   2.970   0.279  1.5187 -1.4301  1.1736
  909SOL     OW 2725   0.848   1.061   2.684 -0.4154  0.2095  0.1170
  909SOL    HW1 2726   0.806   0.970   2.669  1.6321  2.7216  0.4505
  909SOL    HW2 2727   0.917   1.079   2.606 -0.8781 -1.5193 -0.5975
  910SOL     OW 2728   1.764   1.869   2.170  0.2009 -0.4597 -0.2214
  910SOL    HW1 2729   1.826   1.908   2.099  1.1977 -1.2094 -0.2747
  910SOL    HW2 2730   1.686   1.929   2.201  0.7639 -0.3863  3.7745
  911SOL     OW 2731   1.796   2.977   1.548  0.5004 -0.0452 -0.1634
  911SOL    HW1 2732   1.862   2.958   1.469 -3.3641  2.2117 -0.2216
  911SOL    HW2 2733   1.802   2.901   1.621  0.3285 -1.9306 -0.5950
  912SOL     OW 2734   2.851   1.028   0.709 -0.2464 -0.0446 -0.2626
  912SOL    HW1 2735   2.878   0.998   0.804  1.2502  1.3511 -1.1509
  912SOL    HW2 2736   2.772   1.099   0.711 -2.8408  0.5600  1.1370
  913SOL     OW 2737   2.562   1.247   1.516 -0.1069 -0.7224  0.1907
  913SOL    HW1 2738   2.562   1.140   1.503  0.4782 -0.3670 -0.3179
  913SOL    HW2 2739   2.622   1.305   1.454  0.0861  0.0342  1.8709
  914SOL     OW 2740   2.761   0.621   1.137 -0.6848  0.3687  0.6525
  914SOL    HW1 2741   2.771   0.526   1.173 -1.2285 -0.8603  2.5213
  914SOL    HW2 2742   2.663   0.646   1.148 -0.6595 -3.2950  1.2831
  915SOL     OW 2743   1.222   0.759   1.009  0.6320 -0.0287  0.7151
  915SOL    HW1 2744   1.269   0.778   1.102  0.6019 -0.9186 -1.0062
  915SOL    HW2 2745   1.119   0.734   1.014 -1.5002 -4.2569  1.4923
  916SOL     OW 2746   0.564   0.099   0.649  0.3288 -0.4649 -0.2496
  916SOL    HW1 2747   0.652   0.141   0.692  0.3299  1.7184 -3.1012
  916SOL    HW2 2748   0.542   0.140   0.557  1.8750  0.8407 -1.5739
  917SOL     OW 2749   2.892   2.564   1.993  0.1084  0.7464 -0.3715
  917SOL    HW1 2750   2.812   2.623   1.970  2.2838 -1.5582 -1.4523
  917SOL    HW2 2751   2.963   2.574   1.915  0.3144 -1.4576  0.1736
  918SOL     OW 2752   1.016   2.062   3.006  0.5615 -0.1687 -0.1059
  918SOL    HW1 2753   1.013   2.147   3.062  0.2916 -1.4985  0.3669
  918SOL    HW2 2754   1.077   2.073   2.925  3.8041  1.2313  0.4496
  919SOL     OW 2755   0.852   1.705   2.785 -0.4704 -0.3405  0.7318
  919SOL    HW1 2756   0.893   1.798   2.767  0.4892 -0.7324  0.5337
  919SOL    HW2 2757   0.831   1.650   2.700 -0.2610 -0.0953  0.4946
  920SOL     OW 2758   1.271   1.765   2.545 -0.2841  0.2628  0.3530
  920SOL    HW1 2759   1.355   1.725   2.496 -1.2420  0.2746  1.1476
  920SOL    HW2 2760   1.209   1.700   2.595  1.7149  0.5382  1.9929
  921SOL     OW 2761   1.114   0.006   2.643  0.0016 -0.0619 -0.4720
  921SOL    HW1 2762   1.069  -0.017   2.553 -0.9320 -1.7962 -1.3930
  921SOL    HW2 2763   1.043   0.017   2.723  2.3702 -0.5244  0.2364
  922SOL     OW 2764   2.180   2.380   2.755 -0.6269  0.4007  0.7769
  922SOL    HW1 2765   2.181   2.270   2.760  0.9872 -1.1721  0.8060
  922SOL    HW2 2766   2.172   2.420   2.660  2.0181 -2.7769 -0.6384
  923SOL     OW 2767   1.270   2.701   0.272 -0.0939  0.1123  0.0931
  923SOL    HW1 2768   1.323   2.767   0.333 -0.6368  1.6554  1.5588
  923SOL    HW2 2769   1.313   2.605   0.272  1.2526 -2.2043  0.7100
  924SOL     OW 2770   2.893   1.662   0.144  0.6988  0.0521  0.1273
  924SOL    HW1 2771   2.798   1.628   0.109 -0.9064 -0.9969 -1.8735
  924SOL    HW2 2772   2.973   1.604   0.110 -1.1575  0.2539 -2.5207
  925SOL     OW 2773   0.046   2.868   1.514 -0.2103 -0.0105 -0.3525
  925SOL    HW1 2774  -0.010   2.850   1.599 -0.8142 -1.6387  1.1426
  925SOL    HW2 2775  -0.002   2.827   1.432  1.3196  0.5343 -0.6777
  926SOL     OW 2776   1.297   2.832   1.338  0.1449  0.0188  0.0022
  926SOL    HW1 2777   1.344   2.826   1.243 -1.9538 -0.8449  1.6080
  926SOL    HW2 2778   1.339   2.915   1.387  0.7257 -3.0313  1.0609
  927SOL     OW 2779   0.340   2.636   1.755 -0.1906  0.0873 -0.4363
  927SOL    HW1 2780   0.292   2.551   1.714 -1.8047 -0.1197 -2.8356
  927SOL    HW2 2781   0.315   2.726   1.706  1.8575  2.2226 -2.9149
  928SOL     OW 2782   1.588   2.071   2.240  0.0281  0.2221 -0.3636
  928SOL    HW1 2783   1.592   2.126   2.154 -0.2080  2.0960  2.5301
  928SOL    HW2 2784   1.489   2.074   2.271 -1.2879  0.1600  0.5871
  929SOL     OW 2785   2.403   2.480   2.870  0.6715  0.4766  0.2284
  929SOL    HW1 2786   2.306   2.443   2.848  0.8078 -3.5486  1.5203
  929SOL    HW2 2787   2.457   2.512   2.791  1.0547  0.8569  1.9853
  930SOL     OW 2788   2.151   1.962   1.104 -0.2440 -0.4999 -0.1450
  930SOL    HW1 2789   2.123   1.914   1.193 -0.4759 -0.1531 -0.9108
  930SOL    HW2 2790   2.230   2.036   1.115  0.9138  0.6733 -2.0229
  931SOL     OW 2791   0.526   1.735   2.630 -0.1354  0.3330 -0.3562
  931SOL    HW1 2792   0.543   1.781   2.721  2.9727 -0.9431 -0.4501
  931SOL    HW2 2793   0.599   1.659   2.619 -0.0751  2.3672  0.9571
  932SOL     OW 2794   0.355   0.094   3.095 -0.2268 -0.1865  0.0498
  932SOL    HW1 2795   0.440   0.119   3.144  0.7128 -0.6217  1.4547
  932SOL    HW2 2796   0.361   0.010   3.034 -2.2990 -2.4813  1.3540
  933SOL     OW 2797   0.946   0.838   3.000 -0.3858 -0.3043 -0.3713
  933SOL    HW1 2798   0.893   0.817   3.083  3.6521  1.0624 -0.3974
  933SOL    HW2 2799   0.973   0.939   2.996 -1.2290  0.8675 -1.4350
  934SOL     OW 2800   0.731   2.954   2.698  0.6607  0.7441  0.5423
  934SOL    HW1 2801   0.724   2.920   2.596 -1.0658  0.0020 -3.5855
  934SOL    HW2 2802   0.814   2.917   2.751  1.0999 -0.8891 -0.5946
  935SOL     OW 2803   0.028   0.538   0.824  0.8184 -0.0603  0.6462
  935SOL    HW1 2804   0.036   0.485   0.732  0.1746  0.4551  0.4909
  935SOL    HW2 2805  -0.048   0.605   0.834 -0.6331  0.1684  3.3664
  936SOL     OW 2806   1.092   2.831   0.095 -0.2556 -0.2121  0.0668
  936SOL    HW1 2807   1.150   2.870   0.015 -1.0030  1.3023 -0.6860
  936SOL    HW2 2808   1.148   2.785   0.171 -3.2673 -1.1686 -1.1063
  937SOL     OW 2809   1.888   2.655   2.080 -0.1092  0.2606  0.3412
  937SOL    HW1 2810   1.784   2.660   2.082  0.3472 -1.2957  2.1779
  937SOL    HW2 2811   1.931   2.743   2.047 -1.0034  0.9020 -1.2976
  938SOL     OW 2812   2.813   2.087   1.580 -0.5359  0.0268  0.0720
  938SOL    HW1 2813   2.789   2.187   1.575 -0.1744 -0.5857 -0.9038
  938SOL    HW2 2814   2.863   2.067   1.669  2.9946  1.4998 -2.3885
  939SOL     OW 2815   2.785   1.237   2.449 -0.1694 -0.1827 -0.1963
  939SOL    HW1 2816   2.854   1.212   2.370 -0.4141  1.0443 -1.0424
  939SOL    HW2 2817   2.806   1.184   2.536  2.3134  0.3249  0.4963
  940SOL     OW 2818   1.035   0.464   2.760  0.4773  0.3053  0.2492
  940SOL    HW1 2819   1.081   0.373   2.774  1.5392  1.5107  0.9384
  940SOL    HW2 2820   0.991   0.486   2.665  0.8307  1.5695 -1.4936
  941SOL     OW 2821   0.016   2.763   2.284  0.6076 -0.0796  0.5256
  941SOL    HW1 2822   0.097   2.701   2.252  0.1125 -0.0942  0.0887
  941SOL    HW2 2823   0.056   2.841   2.337  0.9005 -2.3167 -2.0876
  942SOL     OW 2824   0.094   0.095   2.558  0.3540  0.0932  0.0859
  942SOL    HW1 2825   0.155   0.080   2.641 -0.5478 -2.1073 -0.7853
  942SOL    HW2 2826   0.121   0.170   2.493  1.0484 -1.7537 -1.2280
  943SOL     OW 2827   2.099   1.695   2.338 -0.6240 -0.7451  0.4954
  943SOL    HW1 2828   2.086   1.637   2.258  3.6900  1.0873  0.5596
  943SOL    HW2 2829   2.102   1.649   2.429  1.8850  0.3424 -1.4945
  944SOL     OW 2830   2.166   2.384   1.470 -0.5171  0.0570 -0.3710
  944SOL    HW1 2831   2.263   2.406   1.510  2.0921  3.1000 -0.4705
  944SOL    HW2 2832   2.118   2.301   1.514 -2.0434  0.8437  1.4410
  945SOL     OW 2833   0.707   1.579   0.069  0.0767 -0.2477  0.0506
  945SOL    HW1 2834   0.623   1.563   0.012 -1.9773  3.9250  5.2574
  945SOL    HW2 2835   0.709   1.513   0.152  0.3229 -1.1713 -0.2074
  946SOL     OW 2836   0.416   0.963   2.523 -0.0566  0.0758 -0.1023
  946SOL    HW1 2837   0.334   0.919   2.481  1.0660 -0.6231 -0.6383
  946SOL    HW2 2838   0.405   1.063   2.532 -1.1210  0.9338  0.0638
  947SOL     OW 2839   1.471   0.506   3.082 -0.2256 -0.4466  0.2958
  947SOL    HW1 2840   1.448   0.559   2.998 -1.4810 -3.1400  0.4698
  947SOL    HW2 2841   1.381   0.474   3.125  2.3581  1.4695 -1.4596
  948SOL     OW 2842   1.877   3.025   2.168 -0.4667 -0.5509  0.5536
  948SOL    HW1 2843   1.875   2.984   2.070 -1.6464 -2.1518 -2.3760
  948SOL    HW2 2844   1.880   2.951   2.240  1.2985  0.4279  0.3702
  949SOL     OW 2845   0.600   2.456   0.470  0.0784  0.2323  0.1248
  949SOL    HW1 2846   0.635   2.554   0.463  1.0496 -1.3253  0.9756
  949SOL    HW2 2847   0.607   2.433   0.569  1.2556  0.4506  0.2240
  950SOL     OW 2848   0.173   2.251   2.981 -0.1230  0.2495  0.4656
  950SOL    HW1 2849   0.192   2.343   2.927  0.0709  1.1813 -0.9171
  950SOL    HW2 2850   0.155   2.167   2.917 -0.2084  0.1415  0.9732
  951SOL     OW 2851   1.160   2.637   2.787  0.2083 -0.3214 -0.0652
  951SOL    HW1 2852   1.209   2.608   2.874 -1.0064  0.2213 -1.4023
  951SOL    HW2 2853   1.223   2.654   2.705  1.1711 -0.3111 -0.8893
  952SOL     OW 2854   0.050   1.653   0.410 -0.7875  0.0716  0.2560
  952SOL    HW1 2855   0.106   1.745   0.411 -1.8412 -1.8475  1.7111
  952SOL    HW2 2856   0.096   1.588   0.473  0.5861 -0.4687 -0.8284
  953SOL     OW 2857   2.553   1.775   0.251  0.3688 -0.4148 -0.3368
  953SOL    HW1 2858   2.584   1.678   0.237 -1.6753  2.0500  1.3392
  953SOL    HW2 2859   2.503   1.819   0.171  0.2500 -1.2652 -1.8773
  954SOL     OW 2860   2.176   0.598   0.934  0.0539  0.1582  0.3696
  954SOL    HW1 2861   2.191   0.582   0.831 -0.9423 -0.0549 -1.0312
  954SOL    HW2 2862   2.270   0.616   0.979  1.8799  0.0505  2.5214
  955SOL     OW 2863   0.102   2.553   1.368  0.0597  0.0638  0.4212
  955SOL    HW1 2864   0.017   2.602   1.337  0.4836  1.3974  2.5153
  955SOL    HW2 2865   0.183   2.623   1.375  1.2613  3.9574 -0.7478
  956SOL     OW 2866   2.794   2.469   2.514 -0.0792 -0.2409  0.2706
  956SOL    HW1 2867   2.791   2.366   2.500  0.1271 -1.9677  0.0070
  956SOL    HW2 2868   2.826   2.523   2.427 -1.3855  2.4494 -0.6449
  957SOL     OW 2869   1.564   2.081   2.738 -0.0410  0.7153  0.4019
  957SOL    HW1 2870   1.506   1.995   2.746  0.1475 -0.7394  1.6547
  957SOL    HW2 2871   1.652   2.064   2.691 -1.9027 -1.4773  3.9869
  958SOL     OW 2872   2.594   2.311   2.961  0.0622 -0.2554  0.1527
  958SOL    HW1 2873   2.545   2.379   2.901  0.2845  2.4534 -0.8715
  958SOL    HW2 2874   2.530   2.274   3.034  0.8757 -0.1923  0.2188
  959SOL     OW 2875   0.310   2.797   0.094 -0.2705  0.1891 -0.2897
  959SOL    HW1 2876   0.280   2.819   0.189 -1.3787  2.3588  0.5611
  959SOL    HW2 2877   0.287   2.698   0.066 -0.0768  0.2212 -0.2985
  960SOL     OW 2878   1.983   0.434   1.944  0.4828  0.5541 -0.0043
  960SOL    HW1 2879   1.936   0.523   1.919  0.9703 -0.3043  0.2674
  960SOL    HW2 2880   2.001   0.436   2.050  1.6573  1.3899  0.8576
  961SOL     OW 2881   2.570   1.891   1.057  0.6025  1.0814  0.0513
  961SOL    HW1 2882   2.581   1.988   1.029  0.6855 -1.5494 -2.3781
  961SOL    HW2 2883   2.534   1.871   1.153  0.7353  0.8853 -0.2248
  962SOL     OW 2884   1.348   0.887   0.069 -0.6171  0.7494  0.6067
  962SOL    HW1 2885   1.309   0.907  -0.026  0.0102  0.0793  2.6880
  962SOL    HW2 2886   1.330   0.960   0.133  1.4132 -0.1428  0.3763
  963SOL     OW 2887   2.300   2.543   1.819 -0.0571 -0.5368  0.2843
  963SOL    HW1 2888   2.219   2.495   1.866  3.1501  2.6260  2.1525
  963SOL    HW2 2889   2.321   2.636   1.863 -2.2963  1.6997 -0.0922
  964SOL     OW 2890   2.369   0.366   1.655 -0.2474  0.3012 -0.3994
  964SOL    HW1 2891   2.466   0.384   1.693  1.6193  0.7318 -1.5741
  964SOL    HW2 2892   2.368   0.382   1.549  1.7987 -0.1487  0.6344
  965SOL     OW 2893   2.576   2.986   0.178  0.1047 -0.2591  0.4041
  965SOL    HW1 2894   2.620   2.934   0.097  2.0462  1.7341 -1.1849
  965SOL    HW2 2895   2.481   3.028   0.155 -1.3623 -1.3955 -0.4762
  966SOL     OW 2896   2.524   2.545   2.206  0.2272 -0.1026  0.6116
  966SOL    HW1 2897   2.569   2.637   2.185  0.6330  0.9906  2.1451
  966SOL    HW2 2898   2.434   2.538   2.157 -2.0212  0.5785  0.9560
  967SOL     OW 2899   2.784   2.830   2.454  0.1629 -0.7829  0.0093
  967SOL    HW1 2900   2.815   2.780   2.367  3.0964  1.9632 -2.4125
  967SOL    HW2 2901   2.865   2.855   2.514 -0.0621 -1.2854 -0.5042
  968SOL     OW 2902   1.949   1.061   2.617 -0.0862  0.3117  0.2069
  968SOL    HW1 2903   1.866   1.113   2.588  4.3222  1.0927  1.7961
  968SOL    HW2 2904   1.946   0.959   2.598  0.6331 -0.8757  0.4736
  969SOL     OW 2905   2.744   2.459   1.089 -0.1202 -0.1362  0.9442
  969SOL    HW1 2906   2.708   2.447   0.992  1.6922  2.6968 -1.4297
  969SOL    HW2 2907   2.821   2.394   1.115  0.3953 -0.2378 -1.0952
  970SOL     OW 2908   1.089   2.107   1.846  0.2893 -0.2831  0.5900
  970SOL    HW1 2909   0.999   2.142   1.814 -1.1162  0.6803 -1.1137
  970SOL    HW2 2910   1.097   2.123   1.949 -1.1260  1.2489 -0.1411
  971SOL     OW 2911   2.899   2.063   2.016  0.0078 -0.0975  0.6549
  971SOL    HW1 2912   2.899   2.166   2.049  0.7757  1.2268 -0.4556
  971SOL    HW2 2913   2.937   2.052   1.915  0.6019 -0.3902 -0.8828
  972SOL     OW 2914   1.972   2.484   0.249  0.2333  0.1810 -0.1919
  972SOL    HW1 2915   2.004   2.426   0.167  0.9308 -1.4604  0.1346
  972SOL    HW2 2916   1.986   2.445   0.343  0.2052  2.6904 -2.1246
  973SOL     OW 2917   1.234   0.921   1.855  0.3935  0.2624 -0.0016
  973SOL    HW1 2918   1.156   0.854   1.844  0.0147  1.2637  0.8474
  973SOL    HW2 2919   1.201   1.021   1.860  0.0548 -1.6778  1.0260
  974SOL     OW 2920   1.623   0.584   1.910 -0.9111  0.3187 -0.2063
  974SOL    HW1 2921   1.719   0.608   1.884 -0.7044  0.9018 -1.0826
  974SOL    HW2 2922   1.560   0.661   1.912 -2.3251 -0.3813 -1.4270
  975SOL     OW 2923   2.344   3.049   0.013  0.1325  0.2020  0.2366
  975SOL    HW1 2924   2.302   2.956   0.039  1.0529  1.3372  1.1458
  975SOL    HW2 2925   2.351   3.056  -0.088 -2.5629  2.2803  1.6503
  976SOL     OW 2926   1.875   2.837   2.378 -0.6209  0.4172 -0.3139
  976SOL    HW1 2927   1.818   2.756   2.354 -0.2200  0.7639 -0.9628
  976SOL    HW2 2928   1.924   2.822   2.470  2.9814 -3.7510 -0.4608
  977SOL     OW 2929   0.527   0.597   0.970  0.4796 -0.2465 -0.1746
  977SOL    HW1 2930   0.448   0.588   0.912 -2.2000  0.8024 -1.2152
  977SOL    HW2 2931   0.556   0.693   0.988  1.5134  0.7975  0.8035
   3.10000   3.10000   3.10000
