1000 SPC/Fw water molecules t=   1.64000 step= 1640
 2931
    1SOL     OW    1   2.463   0.401   2.659  0.7121  0.0250 -0.1906
    1SOL    HW1    2   2.479   0.307   2.630  3.8249  1.5330  2.6507
    1SOL    HW2    3   2.550   0.430   2.714  0.9953 -0.4274  1.8228
    2SOL     OW    4   2.725   2.981   1.379 -0.5626  0.0030  0.3123
    2SOL    HW1    5   2.827   2.990   1.341  2.5630 -0.4395 -0.9961
    2SOL    HW2    6   2.712   3.026   1.470 -1.2426 -1.1665  1.2051
    3SOL     OW    7   2.697   2.490   0.376  0.4856 -0.0711  0.2471
    3SOL    HW1    8   2.611   2.431   0.385  0.1294  0.5845 -2.5774
    3SOL    HW2    9   2.720   2.544   0.461 -1.2159  0.8557  0.2984
    4SOL     OW   10   1.310   1.579   2.444  0.9956  0.5866 -0.2274
    4SOL    HW1   11   1.232   1.545   2.386 -0.6241 -0.4565  0.3440
    4SOL    HW2   12   1.310   1.536   2.540  0.0941 -0.1552  0.2677
    5SOL     OW   13   1.115   1.539   3.013 -0.1714 -0.0917  0.2939
    5SOL    HW1   14   1.179   1.608   3.058  0.3374 -2.2764  0.7583
    5SOL    HW2   15   1.031   1.576   2.966 -1.0381 -1.6630  2.9549
    6SOL     OW   16   0.269   1.825   3.076 -0.4158 -0.5950  0.9112
    6SOL    HW1   17   0.187   1.852   3.138  2.5741 -1.1524 -0.2436
    6SOL    HW2   18   0.299   1.724   3.085  2.0894 -1.4536 -4.1071
    7SOL     OW   19   2.494   0.928   0.997 -0.0311 -0.3003  0.4075
    7SOL    HW1   20   2.403   0.892   1.032 -0.8631 -0.9335  1.6173
    7SOL    HW2   21   2.509   0.903   0.893  0.5410 -0.2997 -1.2734
    8SOL     OW   22   0.383   0.685   1.542  0.7795 -0.2219 -0.2431
    8SOL    HW1   23   0.473   0.634   1.551 -0.1375 -0.2421 -0.2485
    8SOL    HW2   24   0.376   0.747   1.458  1.5428 -0.6716 -0.6852
    9SOL     OW   25   1.146   0.875   2.325 -0.3104 -0.2012  0.1189
    9SOL    HW1   26   1.238   0.885   2.281 -0.4491  1.8464  2.2455
    9SOL    HW2   27   1.112   0.783   2.343  0.3546  3.6874 -0.7071
   10SOL     OW   28   0.726   1.417   1.244  0.5363 -0.0301  0.2346
   10SOL    HW1   29   0.632   1.421   1.193 -2.4033  0.2506 -2.3695
   10SOL    HW2   30   0.756   1.505   1.281 -0.4948 -0.6699 -0.6728
   11SOL     OW   31   2.355   2.873   0.918 -0.7653  0.0606 -0.0953
   11SOL    HW1   32   2.286   2.841   0.987  1.7948  0.4065 -2.0632
   11SOL    HW2   33   2.444   2.916   0.962  0.4295  1.1930  0.4803
   12SOL     OW   34   1.501   0.902   0.439  0.0562 -0.6347  0.3497
   12SOL    HW1   35   1.410   0.901   0.394  0.6320 -1.5317  0.9077
   12SOL    HW2   36   1.555   0.822   0.404  3.3115  1.7163  0.7178
   13SOL     OW   37   2.475   0.740   1.808  0.0865 -0.3344  0.4932
   13SOL    HW1   38   2.406   0.688   1.859  1.4504  1.3346 -1.6368
   13SOL    HW2   39   2.487   0.709   1.710 -1.9699 -1.0254  1.2062
   14SOL     OW   40   1.961   0.004   0.610 -0.1684  0.4640  0.0496
   14SOL    HW1   41   1.867   0.048   0.578 -1.3564  2.1620 -0.3329
   14SOL    HW2   42   1.963  -0.034   0.706  1.2644  1.1237  0.6996
   15SOL     OW   43   1.914   2.080   2.668  0.4350  0.2673  0.2316
   15SOL    HW1   44   1.855   2.079   2.755  1.3261  0.0250  1.3347
   15SOL    HW2   45   1.898   2.000   2.601 -1.2526 -2.0737 -0.2977
   16SOL     OW   46   1.630   1.717   3.039 -0.3918  0.0541 -0.0053
   16SOL    HW1   47   1.615   1.625   3.088  0.9454 -0.2407 -0.2383
   16SOL    HW2   48   1.704   1.783   3.082 -0.3551  1.0521  1.0455
   17SOL     OW   49   0.121   0.464   0.180 -0.2124  0.2128 -0.1773
   17SOL    HW1   50   0.211   0.484   0.132 -0.8872  0.0804  1.7621
   17SOL    HW2   51   0.048   0.441   0.108  2.3428 -0.3611  2.8192
   18SOL     OW   52   0.914   2.918   2.136  0.3615 -0.1772 -0.3422
   18SOL    HW1   53   0.869   2.830   2.169  1.4944 -0.3861  1.9183
   18SOL    HW2   54   0.990   2.914   2.069 -0.1204  0.1754  2.2783
   19SOL     OW   55   0.599   0.894   1.927 -0.8420 -0.1545 -0.1974
   19SOL    HW1   56   0.647   0.865   2.013 -1.0300  0.6968 -0.0674
   19SOL    HW2   57   0.650   0.971   1.875 -0.3071  2.9728  1.5657
   20SOL     OW   58   0.197   2.836   0.814  0.7048 -0.2779 -0.8163
   20SOL    HW1   59   0.097   2.844   0.808  1.4879 -1.9314  0.3465
   20SOL    HW2   60   0.224   2.737   0.777 -1.8858 -1.9133  0.1844
   21SOL     OW   61   2.717   0.308   2.044  0.8533 -0.3498  0.2800
   21SOL    HW1   62   2.679   0.220   1.998 -1.3092 -0.7974 -1.0293
   21SOL    HW2   63   2.795   0.287   2.106  0.4072 -0.2889 -0.0352
   22SOL     OW   64   2.348   0.211   0.130  0.2546  0.1917  0.0196
   22SOL    HW1   65   2.357   0.118   0.091 -2.2899 -1.1853  0.0334
   22SOL    HW2   66   2.274   0.258   0.079  0.3290 -1.7133  1.4378
   23SOL     OW   67   2.801   0.558   0.672  0.1455 -0.0021  0.0079
   23SOL    HW1   68   2.837   0.470   0.629 -0.8231 -3.1475  2.1449
   23SOL    HW2   69   2.799   0.642   0.611  0.8609  0.9048  0.9670
   24SOL     OW   70   0.313   1.862   0.447  0.4947  0.4260  0.4811
   24SOL    HW1   71   0.262   1.931   0.382 -1.0685  1.1836 -0.2372
   24SOL    HW2   72   0.393   1.818   0.398 -2.4060  0.5302 -0.6120
   25SOL     OW   73   2.297   0.605   0.179 -0.2989 -0.1190  0.0822
   25SOL    HW1   74   2.277   0.599   0.079  0.3661  0.3198  0.4271
   25SOL    HW2   75   2.354   0.522   0.209 -0.0839 -0.3400 -0.1142
   26SOL     OW   76   2.447   2.127   2.097  0.2133 -0.0668 -0.0879
   26SOL    HW1   77   2.521   2.161   2.161 -1.5278 -1.5813  1.7777
   26SOL    HW2   78   2.480   2.049   2.036  2.0947  0.4266  0.7038
   27SOL     OW   79   0.610   2.971   0.176 -0.2657  0.5711 -0.5100
   27SOL    HW1   80   0.696   3.015   0.132  2.3787  2.3961  1.4959
   27SOL    HW2   81   0.554   2.924   0.106 -0.0607 -2.2310 -1.8083
   28SOL     OW   82   1.571   0.142   0.296 -0.2898 -0.4733 -0.2030
   28SOL    HW1   83   1.613   0.094   0.212  1.0395  2.5222  1.4951
   28SOL    HW2   84   1.627   0.228   0.321  0.5473  0.6546  1.9143
   29SOL     OW   85   2.013   0.611   0.287  0.2952 -0.6359 -0.1997
   29SOL    HW1   86   2.019   0.646   0.386 -0.6262  0.8564  1.3342
   29SOL    HW2   87   2.105   0.574   0.257 -0.5384  0.6382 -0.2295
   30SOL     OW   88   0.189   2.080   0.924 -0.0190 -0.4727 -0.6034
   30SOL    HW1   89   0.202   2.012   0.845 -1.7190 -1.0378 -1.2801
   30SOL    HW2   90   0.085   2.095   0.949 -0.5975  1.1671  2.4741
   31SOL     OW   91   2.138   0.050   2.388 -0.2041  0.0777  0.4248
   31SOL    HW1   92   2.099   0.018   2.479 -0.8050  0.1196 -0.9595
   31SOL    HW2   93   2.075   0.021   2.309  0.4676 -2.3917 -0.2263
   32SOL     OW   94   3.087   3.059   0.279  0.2149  0.2793 -0.8813
   32SOL    HW1   95   3.040   2.968   0.292 -0.6247  0.9080  1.6622
   32SOL    HW2   96   3.175   3.061   0.221 -0.0009  0.0097  1.3779
   33SOL     OW   97   0.923   0.194   0.646  0.1845 -0.0366  0.5953
   33SOL    HW1   98   0.904   0.153   0.551  0.4532 -1.0667 -2.0396
   33SOL    HW2   99   1.003   0.263   0.645 -1.3520 -0.9310 -1.5424
   34SOL     OW  100   0.349   2.690   1.035  0.2250  0.3139  0.0135
   34SOL    HW1  101   0.283   2.710   0.962  1.0635 -2.4683 -0.4957
   34SOL    HW2  102   0.405   2.769   1.068  0.6827 -0.1043 -0.1559
   35SOL     OW  103   0.046   0.136   1.915  0.2353  0.3952 -0.4129
   35SOL    HW1  104   0.085   0.046   1.951  0.4741 -2.7811 -1.5176
   35SOL    HW2  105   0.010   0.120   1.820  0.6797 -0.6437 -0.8532
   36SOL     OW  106   1.940   1.144   1.519  0.1295 -0.3453  0.0271
   36SOL    HW1  107   2.021   1.091   1.555  0.6347  0.9458  1.0477
   36SOL    HW2  108   1.964   1.215   1.443  3.4104  1.1419  0.4142
   37SOL     OW  109   1.117   0.241   0.988 -0.0948  0.2658 -0.0855
   37SOL    HW1  110   1.134   0.342   0.979 -1.0102 -0.0932  1.5952
   37SOL    HW2  111   1.182   0.182   0.925  0.0706 -2.9731 -1.7448
   38SOL     OW  112   1.164   2.863   2.439 -0.3415 -0.4395 -0.2965
   38SOL    HW1  113   1.107   2.784   2.471  1.2208 -3.1930 -0.0109
   38SOL    HW2  114   1.109   2.937   2.392  3.4733 -1.4444 -0.9839
   39SOL     OW  115   2.474   1.410   3.019 -0.1400  0.7559 -0.1734
   39SOL    HW1  116   2.540   1.343   3.062 -0.7209 -0.8423 -1.8047
   39SOL    HW2  117   2.377   1.408   3.061  0.7327 -1.2066 -1.8124
   40SOL     OW  118   2.013   2.552   2.561  0.4998  0.3821 -0.3424
   40SOL    HW1  119   1.964   2.643   2.589  0.8670 -2.9576  0.0317
   40SOL    HW2  120   1.946   2.484   2.513  2.0483 -0.0452 -2.9246
   41SOL     OW  121   3.046   0.760   2.795  0.5744 -0.5579 -0.7933
   41SOL    HW1  122   2.981   0.824   2.850 -1.6204 -0.4397  0.8141
   41SOL    HW2  123   3.007   0.697   2.725  1.6944 -0.4310  0.3927
   42SOL     OW  124   1.789   1.717   0.530 -0.0778  0.6339 -0.4790
   42SOL    HW1  125   1.763   1.617   0.520 -0.5186  0.2418 -0.1267
   42SOL    HW2  126   1.788   1.771   0.440 -1.1875 -2.1876 -1.3664
   43SOL     OW  127   0.464   1.661   1.133  0.1208 -0.3024 -0.3273
   43SOL    HW1  128   0.452   1.569   1.090  0.5412  1.4658 -3.5589
   43SOL    HW2  129   0.396   1.684   1.212  1.0050  1.9885  2.0599
   44SOL     OW  130   1.656   2.342   2.974 -0.0279 -0.3869 -0.3585
   44SOL    HW1  131   1.557   2.365   2.989 -0.1622 -0.9545  0.5889
   44SOL    HW2  132   1.702   2.393   2.898  1.8760  0.7984  2.3669
   45SOL     OW  133   0.358   1.897   2.566  0.4627  0.0863  0.1964
   45SOL    HW1  134   0.313   1.899   2.477 -0.1041  2.3732  3.7224
   45SOL    HW2  135   0.439   1.835   2.578 -0.7888  1.2387 -0.0979
   46SOL     OW  136   1.250   0.751   0.271  0.9286 -0.4205 -0.4190
   46SOL    HW1  137   1.241   0.838   0.211  1.6487  0.0551  1.1786
   46SOL    HW2  138   1.173   0.678   0.247 -0.2692  0.5610 -2.0622
   47SOL     OW  139   0.123   2.423   1.576 -0.6940 -0.0590  0.1496
   47SOL    HW1  140   0.104   2.343   1.634 -0.4796 -1.4668 -2.0676
   47SOL    HW2  141   0.127   2.396   1.478 -0.5420  0.9211 -2.4468
   48SOL     OW  142   2.656   0.681   0.125 -0.4476 -0.0455 -0.4153
   48SOL    HW1  143   2.654   0.670   0.227  1.4841 -1.4634 -0.3868
   48SOL    HW2  144   2.748   0.709   0.093  1.3562 -0.0853  0.0065
   49SOL     OW  145   0.369   0.821   1.781 -0.0292 -0.0078 -0.1490
   49SOL    HW1  146   0.463   0.819   1.825 -0.6406 -0.2743 -1.3997
   49SOL    HW2  147   0.363   0.748   1.704 -0.3744 -0.7050  0.0498
   50SOL     OW  148   1.740   1.101   0.309 -0.1174 -0.3753  0.1031
   50SOL    HW1  149   1.751   1.003   0.277 -0.8047  1.7020 -0.0830
   50SOL    HW2  150   1.689   1.108   0.399  0.5579 -2.4551  0.4322
   51SOL     OW  151   2.986   1.790   0.340 -0.6451  0.1563  0.0774
   51SOL    HW1  152   2.903   1.726   0.349 -1.2966  1.4425  1.0321
   51SOL    HW2  153   3.071   1.742   0.379  0.5123  1.8245  1.0999
   52SOL     OW  154   0.749   2.175   0.547 -0.6017  0.7373 -0.5239
   52SOL    HW1  155   0.650   2.204   0.532  0.3459 -2.7537  0.2333
   52SOL    HW2  156   0.758   2.121   0.633  0.4276 -2.0517 -1.4990
   53SOL     OW  157   0.272   0.399   1.478  0.1161  0.3779 -0.8725
   53SOL    HW1  158   0.300   0.488   1.522  1.4246 -1.2100  0.8145
   53SOL    HW2  159   0.270   0.410   1.374  1.4260 -0.4867 -0.0562
   54SOL     OW  160   1.729   0.432  -0.000 -0.6024 -0.5523 -0.4257
   54SOL    HW1  161   1.799   0.400   0.067 -0.0604 -1.3066  0.7352
   54SOL    HW2  162   1.640   0.450   0.048  1.5202 -0.0325  1.8702
   55SOL     OW  163   0.728   2.951   0.604  0.2000  0.9859  0.1382
   55SOL    HW1  164   0.652   3.024   0.600 -0.0630  0.6880  0.0884
   55SOL    HW2  165   0.813   2.996   0.642 -0.6973  3.9967 -0.8097
   56SOL     OW  166   0.578   1.536   3.063  0.3325 -0.3063 -0.0629
   56SOL    HW1  167   0.515   1.557   3.143  0.7548 -0.8452 -0.4750
   56SOL    HW2  168   0.549   1.456   3.011  0.3855  0.7796  2.2143
   57SOL     OW  169   1.683   2.473   2.343 -0.3522 -0.2319 -0.0066
   57SOL    HW1  170   1.740   2.389   2.358 -0.8871 -0.0350  0.4706
   57SOL    HW2  171   1.616   2.485   2.426 -1.8948 -0.0494  0.0089
   58SOL     OW  172   0.668   0.232   1.075 -0.4074 -0.2099 -0.2063
   58SOL    HW1  173   0.598   0.261   1.142  0.0623 -0.0460 -1.7414
   58SOL    HW2  174   0.695   0.131   1.086  0.3717 -0.3107 -3.3308
   59SOL     OW  175   0.445   2.384   2.685  0.0747 -0.2583 -0.7470
   59SOL    HW1  176   0.456   2.276   2.683  1.3326 -3.7292 -1.8909
   59SOL    HW2  177   0.537   2.432   2.693 -1.0454 -1.4788  0.4448
   60SOL     OW  178   2.287   2.044   2.332 -0.4789  0.3511 -0.6311
   60SOL    HW1  179   2.320   2.074   2.241  2.0264 -2.1516  0.1310
   60SOL    HW2  180   2.323   2.100   2.412  0.4848 -0.8557 -0.6438
   61SOL     OW  181   1.181   0.638   0.508 -0.0209  0.2432 -0.1414
   61SOL    HW1  182   1.089   0.671   0.542 -0.4724 -4.0029  0.5198
   61SOL    HW2  183   1.218   0.687   0.430  0.5549 -1.5786  0.9329
   62SOL     OW  184   2.770   1.736   2.701  0.3981  0.1752 -0.4865
   62SOL    HW1  185   2.743   1.643   2.664  0.0469 -0.1493  1.0599
   62SOL    HW2  186   2.848   1.730   2.775  1.4668  1.4656  1.5745
   63SOL     OW  187   0.529   0.937   0.204  0.4140  0.0471  0.1332
   63SOL    HW1  188   0.584   0.991   0.132  1.9361  0.3345  2.2365
   63SOL    HW2  189   0.521   0.982   0.300 -0.1382 -0.1442  1.6857
   64SOL     OW  190   2.992   0.567   2.320 -0.4878  0.2188  0.4108
   64SOL    HW1  191   2.941   0.615   2.394  1.2356 -0.4204 -3.3806
   64SOL    HW2  192   2.996   0.632   2.239 -1.0481  0.8475  1.9791
   65SOL     OW  193   0.237   1.438   0.737  0.2477 -0.3464 -0.6314
   65SOL    HW1  194   0.197   1.512   0.800 -0.1371  0.3924  1.8934
   65SOL    HW2  195   0.270   1.474   0.645 -1.3460  1.5697  1.1005
   66SOL     OW  196   2.573   0.335   0.560 -0.0726  0.1179  0.2677
   66SOL    HW1  197   2.676   0.330   0.550  1.5585 -0.2619  1.5713
   66SOL    HW2  198   2.537   0.280   0.645 -1.3842  0.4487 -0.6300
   67SOL     OW  199   0.605   2.529   1.474 -0.4429 -0.0699  0.1356
   67SOL    HW1  200   0.683   2.490   1.537  0.4184 -0.9683  0.9800
   67SOL    HW2  201   0.532   2.460   1.453  2.1246  0.8437 -0.6717
   68SOL     OW  202   0.899   0.983   2.433 -0.1062 -0.2006  0.3081
   68SOL    HW1  203   0.983   0.930   2.401 -2.1535  1.4355 -0.9034
   68SOL    HW2  204   0.828   1.010   2.360 -2.0339 -2.3698 -1.2697
   69SOL     OW  205   0.794   2.678   2.336 -0.5230 -0.8461 -0.0055
   69SOL    HW1  206   0.848   2.602   2.292  0.7442 -2.5494  3.7589
   69SOL    HW2  207   0.693   2.668   2.327  0.0478  0.9037  1.7940
   70SOL     OW  208   0.447   0.153   2.540  0.1057  0.2490  0.5044
   70SOL    HW1  209   0.373   0.122   2.609  0.6550 -0.0185 -1.6298
   70SOL    HW2  210   0.523   0.079   2.536 -0.2124  2.7732 -0.1863
   71SOL     OW  211   1.068   1.763   0.327 -0.5007 -0.6964 -0.4207
   71SOL    HW1  212   1.029   1.733   0.416  1.0026 -1.7372  1.7729
   71SOL    HW2  213   0.995   1.777   0.252 -0.4625 -0.4380 -2.7620
   72SOL     OW  214   1.853   0.258   2.163 -0.0673  0.2655 -0.1759
   72SOL    HW1  215   1.934   0.315   2.141 -1.3280 -0.5701  1.4810
   72SOL    HW2  216   1.878   0.162   2.185  0.3884 -0.0074  2.4574
   73SOL     OW  217   2.783   2.187   2.505 -0.1042  0.2263 -0.1564
   73SOL    HW1  218   2.750   2.098   2.470 -1.9754  2.4596  0.9470
   73SOL    HW2  219   2.823   2.178   2.600 -0.5090  1.7179 -0.9749
   74SOL     OW  220   2.692   2.899   2.139 -0.0982  0.1241 -0.2802
   74SOL    HW1  221   2.631   2.870   2.219  0.0724  2.4025 -1.8633
   74SOL    HW2  222   2.783   2.941   2.180  0.9866  3.0121 -0.4470
   75SOL     OW  223   0.966   0.809   1.156  0.0921 -0.0460  0.4652
   75SOL    HW1  224   0.870   0.839   1.143 -0.0640 -0.2173  1.4080
   75SOL    HW2  225   1.001   0.824   1.250 -1.0597  0.8885 -1.0541
   76SOL     OW  226   1.858   1.276   2.567 -0.0911  0.2381  0.0086
   76SOL    HW1  227   1.762   1.248   2.585  2.7265 -1.5371 -0.7039
   76SOL    HW2  228   1.873   1.376   2.571 -1.2542 -2.3262  0.4940
   77SOL     OW  229   2.909   0.970   1.042  0.0755  0.4087 -0.2354
   77SOL    HW1  230   2.872   0.873   1.057 -0.2105 -1.0989 -2.2282
   77SOL    HW2  231   2.987   0.985   1.108 -0.3668 -1.4632  1.7938
   78SOL     OW  232   2.000   1.382   1.331 -0.2474  1.2295 -0.2208
   78SOL    HW1  233   2.095   1.387   1.288  0.3366 -1.8666 -0.5653
   78SOL    HW2  234   1.930   1.436   1.276  0.6873 -2.0533  0.7238
   79SOL     OW  235   0.709   1.439   0.830  0.3086  0.0538  0.0255
   79SOL    HW1  236   0.623   1.411   0.877  1.6476  2.3087  2.5330
   79SOL    HW2  237   0.761   1.352   0.806 -4.4991  0.8104  0.4093
   80SOL     OW  238   0.577   0.449   1.565  0.2902 -0.0540  0.3570
   80SOL    HW1  239   0.628   0.492   1.486 -0.7447 -2.8080  1.1881
   80SOL    HW2  240   0.617   0.355   1.592 -0.0970  2.0468 -1.4022
   81SOL     OW  241   1.072   1.254   2.545 -0.0827  0.0725 -0.0271
   81SOL    HW1  242   1.024   1.168   2.563  1.0006 -0.4616 -1.7412
   81SOL    HW2  243   1.006   1.329   2.525  1.0883  0.1580 -4.1397
   82SOL     OW  244   0.916   2.899   1.510 -0.4618  0.7406 -0.4181
   82SOL    HW1  245   0.936   2.803   1.470  3.8274  2.7830  0.7027
   82SOL    HW2  246   0.848   2.956   1.457 -0.3323 -0.7893 -0.7078
   83SOL     OW  247   2.617   2.339   0.878  0.1216  0.3377 -0.7804
   83SOL    HW1  248   2.533   2.298   0.840  2.5008  1.4423  0.3120
   83SOL    HW2  249   2.631   2.441   0.849  2.3621  1.4042 -0.0937
   84SOL     OW  250   0.768   0.046   2.275  0.0565 -0.1594 -0.2765
   84SOL    HW1  251   0.740  -0.003   2.364  0.4666  1.4517 -0.5123
   84SOL    HW2  252   0.820  -0.020   2.212 -1.2114 -3.3047  0.2411
   85SOL     OW  253   0.290   1.687   1.370 -0.4374  0.2269 -0.5383
   85SOL    HW1  254   0.258   1.773   1.419 -0.0977  1.6794 -2.0045
   85SOL    HW2  255   0.349   1.626   1.426  1.0922  1.1529 -0.9544
   86SOL     OW  256   0.397   1.048   1.494  0.2328  0.0972 -0.0636
   86SOL    HW1  257   0.394   0.969   1.422  1.6786  2.6873 -0.2459
   86SOL    HW2  258   0.451   1.024   1.578  1.6025 -1.2682 -2.2464
   87SOL     OW  259   1.626   0.661   0.296  0.2207  0.3120  0.1542
   87SOL    HW1  260   1.708   0.727   0.278 -0.3368 -0.9246 -1.2455
   87SOL    HW2  261   1.555   0.651   0.214 -0.8786  3.1629 -2.4682
   88SOL     OW  262   1.593   1.356   0.267 -0.1350 -0.4510 -0.3366
   88SOL    HW1  263   1.646   1.264   0.284  0.4068 -2.5132  2.8978
   88SOL    HW2  264   1.491   1.342   0.250 -2.0073  0.4800  1.2338
   89SOL     OW  265   0.022   0.402   0.617 -0.0276  0.4236  0.3674
   89SOL    HW1  266   0.111   0.343   0.624  2.2002  1.0686  1.5326
   89SOL    HW2  267  -0.067   0.348   0.607  0.4774 -1.2283 -2.1571
   90SOL     OW  268   0.768   1.513   0.153 -0.3992  0.4804  0.1337
   90SOL    HW1  269   0.851   1.446   0.134  0.2972  1.1461 -1.4003
   90SOL    HW2  270   0.695   1.514   0.080  0.0427  0.8506 -0.2992
   91SOL     OW  271   1.257   1.487   1.761  0.5123  0.2027 -0.3986
   91SOL    HW1  272   1.220   1.534   1.845  2.6695 -1.8462  0.0454
   91SOL    HW2  273   1.265   1.390   1.791  3.1408  1.4777  1.8698
   92SOL     OW  274   0.008   1.007   1.220  0.3005  0.5060  0.1613
   92SOL    HW1  275   0.066   1.086   1.183  0.4811  0.5251  1.0363
   92SOL    HW2  276   0.013   0.999   1.323  2.4335 -2.5056 -1.8141
   93SOL     OW  277   0.008   2.691   0.083 -0.6046 -0.5588 -0.0067
   93SOL    HW1  278  -0.030   2.681  -0.015 -2.1667 -1.7336  1.7892
   93SOL    HW2  279   0.034   2.597   0.127  0.8912  2.4281 -0.6480
   94SOL     OW  280   1.513   1.283   1.676 -0.1375 -0.0965  0.1375
   94SOL    HW1  281   1.601   1.232   1.674  0.2085  2.6162 -0.6114
   94SOL    HW2  282   1.530   1.386   1.693 -0.4301  0.9462 -1.4962
   95SOL     OW  283   1.327   2.469   2.919  0.0672 -0.4040  0.0652
   95SOL    HW1  284   1.226   2.489   2.938 -1.7801  2.8221 -0.7539
   95SOL    HW2  285   1.338   2.373   2.889 -0.4408  1.5737  3.0339
   96SOL     OW  286   0.599   2.186   1.324 -0.2280 -0.3545  0.1616
   96SOL    HW1  287   0.534   2.147   1.254 -0.8395 -1.1877  0.6084
   96SOL    HW2  288   0.636   2.121   1.398  2.3440  1.0555 -0.0150
   97SOL     OW  289   0.244   1.606   2.433 -0.2840  0.2043  0.1001
   97SOL    HW1  290   0.227   1.688   2.380  3.5846 -2.2243 -0.4342
   97SOL    HW2  291   0.229   1.611   2.535 -0.7597 -0.1714 -0.3652
   98SOL     OW  292   2.164   1.669   1.216 -0.1759  0.0729 -0.1438
   98SOL    HW1  293   2.102   1.641   1.137  1.3270 -6.6310  2.7290
   98SOL    HW2  294   2.265   1.648   1.192 -0.1746 -0.3092 -4.2761
   99SOL     OW  295   2.654   2.061   1.249  0.0158 -0.4506  0.2802
   99SOL    HW1  296   2.713   2.108   1.324 -0.5921  2.6820  1.4824
   99SOL    HW2  297   2.580   2.010   1.298  2.5118 -1.7453  1.6131
  100SOL     OW  298   2.334   0.372   2.134  0.0875  0.3618  0.6823
  100SOL    HW1  299   2.267   0.326   2.201 -0.7079 -0.6246  0.1030
  100SOL    HW2  300   2.418   0.412   2.184 -0.3847 -1.7914 -1.1057
  101SOL     OW  301   0.358   1.512   0.497 -0.2181 -0.5947 -0.4279
  101SOL    HW1  302   0.390   1.579   0.576 -1.4859 -0.6185  1.1724
  101SOL    HW2  303   0.432   1.486   0.423  1.0777 -1.2320 -3.5185
  102SOL     OW  304   2.231   1.067   0.822 -0.3976 -0.3912 -0.0415
  102SOL    HW1  305   2.217   0.969   0.810 -0.4751  2.9818 -3.1604
  102SOL    HW2  306   2.324   1.102   0.784  2.7805  1.2676  2.0999
  103SOL     OW  307   2.284   0.071   0.356 -0.0648  0.6647  0.1246
  103SOL    HW1  308   2.317   0.133   0.280  3.1839 -0.9608  1.5102
  103SOL    HW2  309   2.368   0.046   0.418 -0.4448 -1.8078  0.4695
  104SOL     OW  310   3.072   1.789   2.224 -0.5033 -0.3665  0.6164
  104SOL    HW1  311   3.129   1.740   2.151 -0.2195  2.5441 -1.3727
  104SOL    HW2  312   2.985   1.825   2.189  3.5543  0.0298 -0.2867
  105SOL     OW  313   1.376   2.108   0.772 -0.5961 -0.1438  0.3521
  105SOL    HW1  314   1.368   2.144   0.674  1.3722 -0.6940  0.0100
  105SOL    HW2  315   1.382   2.004   0.767 -1.2433 -1.0470 -1.5077
  106SOL     OW  316   2.149   0.409   1.414 -0.3823  0.0859  0.1061
  106SOL    HW1  317   2.086   0.327   1.398 -1.8101 -1.8867 -1.9352
  106SOL    HW2  318   2.171   0.434   1.513  2.9797  0.9317  1.5528
  107SOL     OW  319   1.923   2.883   1.175 -0.6953 -0.2970 -0.7965
  107SOL    HW1  320   1.836   2.941   1.202 -0.7021 -0.1572 -3.6524
  107SOL    HW2  321   1.898   2.816   1.100 -0.0706 -1.4764  0.8066
  108SOL     OW  322   0.826   2.817   1.182  0.2021  0.5110 -0.5541
  108SOL    HW1  323   0.849   2.736   1.122 -0.1440 -0.1751 -1.4657
  108SOL    HW2  324   0.911   2.848   1.231  0.2577 -2.1459  1.5399
  109SOL     OW  325   2.151   0.198   0.717  0.8561 -0.5577 -0.1400
  109SOL    HW1  326   2.090   0.125   0.674 -0.4203 -0.7965 -1.2769
  109SOL    HW2  327   2.137   0.204   0.819 -1.6770 -1.2234 -0.4127
  110SOL     OW  328   0.514   2.766   2.754 -0.1521  0.2971 -0.5617
  110SOL    HW1  329   0.498   2.786   2.653  0.2078  1.5224 -1.2334
  110SOL    HW2  330   0.600   2.706   2.781 -0.5388  1.6744  0.1407
  111SOL     OW  331   1.300   0.532   2.282  0.4500  0.4848 -0.2609
  111SOL    HW1  332   1.205   0.560   2.323 -1.2985 -1.3189  0.3978
  111SOL    HW2  333   1.343   0.459   2.340 -3.4483  2.1201  0.2543
  112SOL     OW  334   1.747   0.422   1.520 -0.2363  0.4010  0.2653
  112SOL    HW1  335   1.735   0.472   1.426  0.1235  1.1268 -1.9711
  112SOL    HW2  336   1.657   0.394   1.557  4.0701 -0.1779  1.4809
  113SOL     OW  337   2.381   1.720   1.785  0.0545 -0.7724  0.1199
  113SOL    HW1  338   2.401   1.619   1.768  0.6871 -0.8244  1.3847
  113SOL    HW2  339   2.352   1.744   1.879  1.1921 -1.1173 -1.9413
  114SOL     OW  340   0.316   0.421   1.159  0.0054 -0.5233  0.1392
  114SOL    HW1  341   0.264   0.511   1.130 -3.2830  0.9022 -1.0438
  114SOL    HW2  342   0.372   0.386   1.079  0.7422  2.1377  1.0424
  115SOL     OW  343   2.718   1.554   1.239  0.2757 -0.3840  0.3881
  115SOL    HW1  344   2.721   1.451   1.262  2.3256  0.2380  3.9208
  115SOL    HW2  345   2.811   1.582   1.202 -2.9888  0.9755 -0.5654
  116SOL     OW  346   1.918   0.899   0.757 -0.1098 -0.7956  0.0442
  116SOL    HW1  347   1.816   0.885   0.728 -1.9840  0.3863 -1.2206
  116SOL    HW2  348   1.942   1.002   0.761  0.2776  0.5753 -1.1275
  117SOL     OW  349   1.134   0.360   0.561  0.3639  0.0567  0.2693
  117SOL    HW1  350   1.157   0.460   0.563 -1.2410 -1.0980 -2.1463
  117SOL    HW2  351   1.096   0.339   0.467  2.7649  1.0580  3.9679
  118SOL     OW  352   1.127   1.219   1.075  0.1292  0.2104 -0.0054
  118SOL    HW1  353   1.049   1.205   1.141 -0.9996  0.5773  1.7022
  118SOL    HW2  354   1.183   1.308   1.100  2.4947 -1.2096  0.6270
  119SOL     OW  355   1.844   1.577   2.194 -0.1879 -0.2252 -0.2507
  119SOL    HW1  356   1.792   1.647   2.139 -0.0446  1.0401  0.9782
  119SOL    HW2  357   1.950   1.573   2.175 -0.3018  1.9925  0.5701
  120SOL     OW  358   2.953   2.822   0.257  0.6543 -0.1854 -0.0360
  120SOL    HW1  359   3.007   2.773   0.184 -0.6981 -0.0439  0.4189
  120SOL    HW2  360   2.850   2.834   0.239  0.9456 -1.2800 -0.8532
  121SOL     OW  361   1.998   0.803   2.317 -0.0831  0.4742  0.2045
  121SOL    HW1  362   2.061   0.878   2.282 -2.0333  0.0590  3.3240
  121SOL    HW2  363   2.010   0.708   2.273 -1.7773  0.8997 -3.9539
  122SOL     OW  364   2.630   2.501   1.325 -0.5478  0.4540  0.0313
  122SOL    HW1  365   2.668   2.427   1.256  0.7422 -0.8511 -2.4009
  122SOL    HW2  366   2.606   2.463   1.420  0.6406 -3.7304 -2.4839
  123SOL     OW  367   1.660   0.133   1.712 -0.3617  0.1130 -0.1217
  123SOL    HW1  368   1.699   0.072   1.636 -0.3944  1.3856  0.0661
  123SOL    HW2  369   1.742   0.194   1.745  0.0626 -0.9285 -1.6935
  124SOL     OW  370   3.061   0.385   1.121 -0.1084 -0.2767  0.4504
  124SOL    HW1  371   3.036   0.447   1.198 -2.8797 -0.8483  0.0274
  124SOL    HW2  372   3.079   0.434   1.029 -1.8217  1.8988  0.1273
  125SOL     OW  373   0.847   1.999   0.765  0.2306  0.3095 -0.1117
  125SOL    HW1  374   0.936   1.944   0.785 -0.0390  0.1803  0.8148
  125SOL    HW2  375   0.817   2.040   0.848  0.7731 -0.9107 -1.6731
  126SOL     OW  376   1.895   2.319   2.468 -0.2022 -0.2560 -0.4547
  126SOL    HW1  377   1.948   2.240   2.422  0.3555  0.9453  0.4492
  126SOL    HW2  378   1.862   2.285   2.559 -3.2449  0.8090  0.1120
  127SOL     OW  379   0.895   0.975   0.206 -0.0076  0.0729  0.0623
  127SOL    HW1  380   0.943   1.020   0.290  0.4763  1.5557 -1.7711
  127SOL    HW2  381   0.919   0.874   0.201  2.8558 -0.5803  1.9459
  128SOL     OW  382   0.943   0.242   1.430 -0.1774 -0.5187  0.0146
  128SOL    HW1  383   0.882   0.300   1.369  4.1460 -2.0098  1.5058
  128SOL    HW2  384   0.965   0.149   1.397 -0.2850  3.1798  1.4348
  129SOL     OW  385   1.868   0.720   1.819 -0.1806 -0.0975  0.0650
  129SOL    HW1  386   1.897   0.719   1.721  0.1683 -2.4910 -0.1150
  129SOL    HW2  387   1.898   0.806   1.876 -0.3487 -0.5543  1.8177
  130SOL     OW  388   1.348   2.281   0.984  0.6149 -0.6052  0.0872
  130SOL    HW1  389   1.347   2.198   0.919 -0.1642 -0.3619  2.1164
  130SOL    HW2  390   1.436   2.333   0.974  0.3155 -1.2648  0.3605
  131SOL     OW  391   3.071   1.437   1.391 -0.3906 -0.0574  0.0890
  131SOL    HW1  392   3.013   1.354   1.396  3.9043 -0.2017 -1.5979
  131SOL    HW2  393   3.158   1.408   1.339  1.2189 -0.0222 -0.3336
  132SOL     OW  394   2.059   2.407   0.565  0.2515  0.8173 -0.2637
  132SOL    HW1  395   1.959   2.436   0.553  2.3122  1.6761  1.2676
  132SOL    HW2  396   2.071   2.324   0.628 -0.2041  0.0179  2.6889
  133SOL     OW  397   1.739   2.500   2.755  0.3518  0.3148 -0.1320
  133SOL    HW1  398   1.672   2.476   2.685  2.0401  0.0498  1.7232
  133SOL    HW2  399   1.763   2.602   2.765  0.4420  0.7378  1.7208
  134SOL     OW  400   2.675   2.393   1.590 -0.1723  0.6850  0.2620
  134SOL    HW1  401   2.634   2.363   1.682 -3.8821 -2.5545 -1.7096
  134SOL    HW2  402   2.715   2.491   1.591  1.4536  0.3727  0.2724
  135SOL     OW  403   0.808   1.439   2.661  0.5178 -0.7070 -0.5414
  135SOL    HW1  404   0.732   1.386   2.710 -3.4312 -0.3508 -2.7119
  135SOL    HW2  405   0.793   1.436   2.556  0.7170 -0.3213  1.6746
  136SOL     OW  406   1.176   2.005   0.401  0.2118  0.5311  0.2470
  136SOL    HW1  407   1.113   2.072   0.444  0.0804  0.9732 -0.7398
  136SOL    HW2  408   1.137   1.909   0.392  1.2328 -1.4243  1.5201
  137SOL     OW  409   0.421   1.215   2.326  0.1336 -0.0742  0.7733
  137SOL    HW1  410   0.316   1.197   2.331 -1.5890 -0.0182 -0.5475
  137SOL    HW2  411   0.472   1.131   2.293  0.2742  1.6118  0.0288
  138SOL     OW  412   2.437   1.523   0.242  0.4283 -0.2651 -0.4253
  138SOL    HW1  413   2.385   1.467   0.171  1.0696 -0.3710 -0.6432
  138SOL    HW2  414   2.451   1.462   0.328 -0.5164 -3.9912 -0.2370
  139SOL     OW  415   1.885   2.672   1.593 -0.4218  0.0859  0.2376
  139SOL    HW1  416   1.786   2.698   1.594 -1.6484 -1.5946  0.8456
  139SOL    HW2  417   1.897   2.594   1.525  3.0118  1.6237  2.1518
  140SOL     OW  418   2.955   2.951   2.565  0.2355  0.0213 -0.2910
  140SOL    HW1  419   3.011   2.865   2.576 -0.0703 -2.1853  0.5057
  140SOL    HW2  420   3.016   3.024   2.519  3.5066  1.3910  1.2204
  141SOL     OW  421   1.302   1.655   1.506  0.2722 -0.2794 -0.6443
  141SOL    HW1  422   1.223   1.721   1.512 -1.3589 -0.5819 -1.2338
  141SOL    HW2  423   1.306   1.584   1.583  1.8627 -1.3128 -1.4259
  142SOL     OW  424   1.555   0.690   2.248  0.8030  0.3681  0.0830
  142SOL    HW1  425   1.572   0.727   2.152  0.0647 -0.4930  1.8153
  142SOL    HW2  426   1.461   0.640   2.251  0.8156  1.7554 -1.1444
  143SOL     OW  427   2.752   0.819   0.555 -0.0590 -0.4046 -0.3100
  143SOL    HW1  428   2.822   0.880   0.504 -3.2477 -0.0758 -1.3022
  143SOL    HW2  429   2.751   0.836   0.662 -2.0323  0.2401  2.0988
  144SOL     OW  430   2.894   1.165   1.458  0.2239 -0.6324 -0.2040
  144SOL    HW1  431   2.833   1.177   1.541 -1.5358 -0.1732 -0.9332
  144SOL    HW2  432   2.993   1.132   1.474 -0.2354  0.5153  1.2652
  145SOL     OW  433   0.874   1.792   0.099  0.2716 -0.9831 -0.0473
  145SOL    HW1  434   0.880   1.819   0.001  1.3018 -1.2904  1.4360
  145SOL    HW2  435   0.808   1.712   0.116 -0.4608  0.7280  0.4876
  146SOL     OW  436   2.454   0.664   1.512 -0.5750  0.1003 -0.5635
  146SOL    HW1  437   2.446   0.571   1.464 -0.3127  1.5782  0.6311
  146SOL    HW2  438   2.396   0.735   1.465 -0.1332 -0.5015 -1.0312
  147SOL     OW  439   1.078   2.495   0.562 -0.4910 -0.5247 -0.0675
  147SOL    HW1  440   0.995   2.548   0.528  0.4148  1.2947 -0.1230
  147SOL    HW2  441   1.161   2.498   0.499  0.8326  0.3110  0.4710
  148SOL     OW  442   1.575   1.469   0.005 -0.0574 -0.1962 -0.1819
  148SOL    HW1  443   1.614   1.385  -0.045 -0.6771 -0.2459  2.2271
  148SOL    HW2  444   1.554   1.441   0.105  0.7987 -1.7020 -0.9257
  149SOL     OW  445   0.649   1.494   1.982 -0.0578  0.0247 -0.0715
  149SOL    HW1  446   0.566   1.444   2.021 -0.2180 -1.5340 -4.0197
  149SOL    HW2  447   0.670   1.465   1.887 -0.5134  0.7788  1.7406
  150SOL     OW  448   3.046   1.193   0.930 -0.4041 -0.5272  0.0927
  150SOL    HW1  449   3.110   1.229   1.003 -3.3625 -0.1897 -2.5969
  150SOL    HW2  450   3.011   1.098   0.947 -0.5857 -1.3155  1.4452
  151SOL     OW  451   0.156   0.916   2.089 -0.7326  0.1882  0.4894
  151SOL    HW1  452   0.160   0.985   2.014  0.4042 -1.3358  1.6150
  151SOL    HW2  453   0.220   0.832   2.078  0.0277  0.3481 -0.4042
  152SOL     OW  454   1.474   1.863   1.092  0.1073  0.2403  0.2696
  152SOL    HW1  455   1.497   1.964   1.116 -1.6016  2.5465 -0.0478
  152SOL    HW2  456   1.366   1.853   1.082  0.9641 -1.1226  1.0452
  153SOL     OW  457   0.158   1.494   0.232 -0.4155 -0.2482  0.3767
  153SOL    HW1  458   0.118   1.398   0.236 -2.2172  0.7906  0.1521
  153SOL    HW2  459   0.137   1.554   0.315  0.7219  2.9391  0.6046
  154SOL     OW  460   2.328   1.795   2.770  0.1280  0.5555  0.5907
  154SOL    HW1  461   2.348   1.696   2.751 -0.7434  4.0233  1.0119
  154SOL    HW2  462   2.378   1.864   2.708  1.0565  0.7768  0.0688
  155SOL     OW  463   2.444   1.316   0.427  1.0567  0.6937  0.0550
  155SOL    HW1  464   2.523   1.260   0.397  0.1452  0.7727  0.4007
  155SOL    HW2  465   2.360   1.261   0.460  1.2383 -1.5129  2.4057
  156SOL     OW  466   2.468   0.831   0.756 -0.3069 -0.1015  0.8214
  156SOL    HW1  467   2.368   0.801   0.779 -1.0442 -3.8474 -1.9808
  156SOL    HW2  468   2.477   0.841   0.656 -1.4277 -0.5796  3.1901
  157SOL     OW  469   1.260   3.065   3.078  0.6388  0.3493 -0.3446
  157SOL    HW1  470   1.323   3.031   3.004 -1.5702 -1.3831  1.2093
  157SOL    HW2  471   1.286   3.165   3.093 -1.2612  1.5332 -0.2138
  158SOL     OW  472   1.097   1.924   1.818  0.0783  0.1773  0.2048
  158SOL    HW1  473   1.161   2.002   1.794 -1.0044  0.3018  3.3229
  158SOL    HW2  474   1.009   1.961   1.856 -1.5792  2.0580  1.1816
  159SOL     OW  475   0.785   0.409   1.292 -0.5404  0.5734 -0.1369
  159SOL    HW1  476   0.750   0.502   1.277  0.5241 -1.9215 -0.8946
  159SOL    HW2  477   0.785   0.353   1.203 -1.4419 -0.7081 -0.8851
  160SOL     OW  478   1.418   2.474   1.445  0.1756 -0.0364  0.3933
  160SOL    HW1  479   1.351   2.413   1.498  1.5111 -1.9806 -0.5138
  160SOL    HW2  480   1.504   2.423   1.413 -0.3472  0.1239 -1.0561
  161SOL     OW  481   0.007   2.621   0.449  0.3528 -0.1853 -0.4376
  161SOL    HW1  482  -0.048   2.532   0.449  0.7348  0.8030 -0.1890
  161SOL    HW2  483  -0.046   2.697   0.405  1.7656 -3.3665  3.4938
  162SOL     OW  484   2.529   1.890   0.491 -0.3761 -0.0784  0.0652
  162SOL    HW1  485   2.566   1.860   0.396 -1.3806 -2.8128 -0.1156
  162SOL    HW2  486   2.469   1.806   0.517 -1.8298 -1.1489  1.9494
  163SOL     OW  487   1.970   2.755   0.757  0.2559 -0.1565 -0.0864
  163SOL    HW1  488   1.979   2.771   0.651  0.8222  1.1694 -0.5342
  163SOL    HW2  489   2.027   2.674   0.791 -0.1931  0.4274  1.4893
  164SOL     OW  490   3.082   0.134   1.216  0.2829  0.4468 -0.0088
  164SOL    HW1  491   3.068   0.230   1.168  3.3551  1.6109  0.7101
  164SOL    HW2  492   3.168   0.145   1.279 -0.2397  0.5854  0.9391
  165SOL     OW  493   1.118   1.453   0.630 -0.1933 -0.0739 -0.5029
  165SOL    HW1  494   1.104   1.481   0.729 -0.3679  1.3458 -2.1686
  165SOL    HW2  495   1.069   1.513   0.562 -0.9065  2.6528  1.3919
  166SOL     OW  496   1.505   0.993   1.822 -0.0895  0.4541  0.3328
  166SOL    HW1  497   1.441   1.066   1.860 -0.4223 -1.0995  1.1368
  166SOL    HW2  498   1.595   1.032   1.784  0.4413 -1.2207  2.8785
  167SOL     OW  499   0.662   2.012   1.525  0.2105  0.2802  0.1503
  167SOL    HW1  500   0.689   2.074   1.602 -3.9131 -0.2463  1.5546
  167SOL    HW2  501   0.613   1.926   1.550  1.7573  1.7477 -2.7692
  168SOL     OW  502   1.624   2.297   0.142  0.4444 -0.4511  0.4866
  168SOL    HW1  503   1.680   2.349   0.073  0.7595  2.2907  1.2480
  168SOL    HW2  504   1.669   2.288   0.237  1.6703  1.5748 -1.3811
  169SOL     OW  505   0.006   2.571   2.188 -0.1363 -0.0246 -0.6779
  169SOL    HW1  506   0.022   2.486   2.131 -3.1538  1.5507 -0.8106
  169SOL    HW2  507   0.045   2.558   2.284  0.4137  1.0567  1.2442
  170SOL     OW  508   1.150   0.144   2.061 -0.1198 -0.2263  0.0433
  170SOL    HW1  509   1.235   0.187   2.109 -0.2686 -0.2241  0.1872
  170SOL    HW2  510   1.154   0.154   1.961  0.7797 -0.0670  1.5603
  171SOL     OW  511   0.177   0.859   2.421 -0.6050  0.0141  0.1271
  171SOL    HW1  512   0.079   0.848   2.448  2.2426  0.7597 -1.8369
  171SOL    HW2  513   0.196   0.947   2.367 -2.4023  1.4597 -0.7251
  172SOL     OW  514   1.005   1.007   2.851  0.2526 -0.7583 -0.0845
  172SOL    HW1  515   0.950   1.074   2.910  0.8712  1.2145 -1.0451
  172SOL    HW2  516   0.956   0.998   2.759 -0.2566 -2.3511 -2.1743
  173SOL     OW  517   0.400   2.575   0.035 -0.2222  0.0005 -0.2023
  173SOL    HW1  518   0.458   2.505  -0.008 -4.3480  1.1751  1.5011
  173SOL    HW2  519   0.408   2.568   0.134  0.1354  0.9230 -4.1167
  174SOL     OW  520   1.470   2.870   1.046 -0.3896 -0.2415 -0.1343
  174SOL    HW1  521   1.565   2.895   1.009 -0.9380  1.2600  2.1236
  174SOL    HW2  522   1.432   2.784   1.002  0.4332 -0.7240 -2.2295
  175SOL     OW  523   0.458   3.056   1.715  0.6045 -0.2276 -0.1485
  175SOL    HW1  524   0.486   3.068   1.813  0.9293 -1.5498  1.2005
  175SOL    HW2  525   0.440   3.143   1.665  0.2843  0.0607 -1.5675
  176SOL     OW  526   2.659   0.420   3.066 -0.2627  0.8916 -0.3417
  176SOL    HW1  527   2.646   0.513   3.108 -1.3705  0.6765 -1.9542
  176SOL    HW2  528   2.668   0.343   3.134  1.7492 -0.7420 -1.6234
  177SOL     OW  529   0.383   0.279   0.888  0.3468 -0.5483 -0.0761
  177SOL    HW1  530   0.322   0.198   0.889 -2.2423  1.2637 -1.5455
  177SOL    HW2  531   0.481   0.260   0.859  2.0316  0.4511 -3.4885
  178SOL     OW  532   0.032   2.725   2.639 -0.5355  0.2372  0.8975
  178SOL    HW1  533  -0.001   2.624   2.649 -0.5969 -0.6745  1.9249
  178SOL    HW2  534   0.097   2.766   2.710 -1.4646  2.0028 -1.1314
  179SOL     OW  535   2.981   1.584   1.192  0.0296  0.4256  0.5055
  179SOL    HW1  536   3.066   1.616   1.147  0.7847 -0.3055  0.3895
  179SOL    HW2  537   3.001   1.523   1.276 -4.5114  0.0608 -0.4144
  180SOL     OW  538   0.254   1.371   1.755  0.1970  0.4908 -0.8167
  180SOL    HW1  539   0.342   1.324   1.797 -0.5439  1.6977 -0.8570
  180SOL    HW2  540   0.189   1.406   1.827  0.0445  1.0530 -0.9391
  181SOL     OW  541   2.981   1.813   2.495  0.1155 -0.6890 -1.0159
  181SOL    HW1  542   3.026   1.799   2.405 -0.3704 -0.0292 -1.2487
  181SOL    HW2  543   2.878   1.821   2.499  1.4314 -1.1956  2.4837
  182SOL     OW  544   2.255   1.366   1.192 -0.0390  0.1578  0.3831
  182SOL    HW1  545   2.221   1.274   1.151 -1.5574 -0.6414 -1.7957
  182SOL    HW2  546   2.309   1.414   1.116 -0.1525 -2.4760  1.3872
  183SOL     OW  547   1.418   2.249   2.419  0.1712 -0.2458 -0.4388
  183SOL    HW1  548   1.356   2.178   2.466 -2.5086  1.2258  0.2845
  183SOL    HW2  549   1.494   2.204   2.368  0.8559 -0.8279  0.7016
  184SOL     OW  550   2.176   0.790   0.758  0.4007 -0.2572 -0.1844
  184SOL    HW1  551   2.080   0.822   0.758  0.1368 -1.0944 -0.6241
  184SOL    HW2  552   2.181   0.693   0.734 -0.2055 -0.3107 -1.8337
  185SOL     OW  553   1.579   2.793   1.997  0.2217 -0.0524  0.4984
  185SOL    HW1  554   1.489   2.840   2.017 -0.3730 -0.8047 -2.1293
  185SOL    HW2  555   1.630   2.762   2.081  0.4906  1.1737  1.1205
  186SOL     OW  556   0.091   2.211   1.764 -0.2453 -0.3220  0.7586
  186SOL    HW1  557   0.074   2.270   1.845  0.6824  1.2696  0.3404
  186SOL    HW2  558   0.187   2.180   1.739 -0.6437  2.0407 -1.0770
  187SOL     OW  559   1.339   0.684   1.664 -0.2010  0.0818  0.0688
  187SOL    HW1  560   1.433   0.717   1.630  0.7632  1.2130 -5.3014
  187SOL    HW2  561   1.351   0.604   1.732 -0.6390  0.1324 -1.3401
  188SOL     OW  562   2.712   2.669   1.545 -0.0303 -0.4116  0.4415
  188SOL    HW1  563   2.680   2.762   1.585 -2.5060 -0.5670  2.7474
  188SOL    HW2  564   2.688   2.659   1.442  1.8927  1.1715  1.3672
  189SOL     OW  565   0.954   1.204   1.339  0.1733 -0.6016 -0.2625
  189SOL    HW1  566   0.998   1.261   1.415 -1.3720 -1.1808 -0.5349
  189SOL    HW2  567   0.887   1.253   1.277  0.5500 -0.3230  1.0371
  190SOL     OW  568   1.474   1.887   1.500  0.2438  0.6606  0.0769
  190SOL    HW1  569   1.421   1.796   1.502  0.1147  0.8281 -2.0393
  190SOL    HW2  570   1.483   1.934   1.594  2.3190  1.4763  0.5653
  191SOL     OW  571   0.846   0.765   1.513 -0.0259  0.2346  0.0299
  191SOL    HW1  572   0.916   0.711   1.569 -2.4789  0.7060 -4.2406
  191SOL    HW2  573   0.885   0.841   1.456 -0.0631 -1.4379  0.4822
  192SOL     OW  574   1.823   2.441   1.101 -0.7103 -0.2789 -0.8278
  192SOL    HW1  575   1.717   2.421   1.089 -2.9091  4.4340  0.2762
  192SOL    HW2  576   1.889   2.365   1.073  1.7562 -1.1748  1.0822
  193SOL     OW  577   0.563   0.578   0.447 -0.6919  0.0926 -0.3077
  193SOL    HW1  578   0.501   0.496   0.431 -0.1128  0.7319 -2.3064
  193SOL    HW2  579   0.611   0.603   0.355 -1.0108 -1.5074  1.0977
  194SOL     OW  580   0.376   0.820   1.327  0.5624 -0.5698  0.1085
  194SOL    HW1  581   0.288   0.790   1.288  1.2191  2.0694  1.3255
  194SOL    HW2  582   0.455   0.823   1.256 -2.1517 -0.0721 -1.9831
  195SOL     OW  583   1.028   2.941   0.503 -0.2409  0.0685 -0.3350
  195SOL    HW1  584   1.002   2.840   0.502 -0.0308  0.5641 -2.4138
  195SOL    HW2  585   1.132   2.954   0.491 -1.0251  0.6546 -2.2910
  196SOL     OW  586   0.248   1.424   1.303 -0.3000  0.6326  0.3059
  196SOL    HW1  587   0.263   1.526   1.309 -0.4345 -1.3531 -2.8035
  196SOL    HW2  588   0.279   1.372   1.386  0.2937  1.7113  0.1350
  197SOL     OW  589   0.842   2.004   0.310  0.1956 -0.4376 -0.6918
  197SOL    HW1  590   0.857   1.945   0.398  0.2113 -0.2873  0.6974
  197SOL    HW2  591   0.875   1.956   0.227 -2.9768 -1.2174 -0.0232
  198SOL     OW  592   0.284   1.220   0.347 -0.3149 -0.4664  0.1196
  198SOL    HW1  593   0.179   1.209   0.328  0.5297  0.0142 -0.7790
  198SOL    HW2  594   0.300   1.288   0.426 -1.0529  1.2931 -1.5520
  199SOL     OW  595   2.219   0.462   2.598  0.1748 -0.1311 -0.0635
  199SOL    HW1  596   2.144   0.414   2.651 -1.5589 -2.4382 -2.3321
  199SOL    HW2  597   2.316   0.432   2.634  2.1065 -0.1319 -0.4562
  200SOL     OW  598   3.028   2.897   0.807 -0.3081 -0.9123  0.2601
  200SOL    HW1  599   3.046   2.988   0.856  2.1707  0.5850  1.2679
  200SOL    HW2  600   2.995   2.908   0.708 -2.5602  0.0321  0.8298
  201SOL     OW  601   0.906   0.695   0.505  0.1439  0.4272 -0.0627
  201SOL    HW1  602   0.857   0.778   0.546  0.0591 -2.7202 -0.5116
  201SOL    HW2  603   0.850   0.611   0.522  0.5716  1.4061 -3.0369
  202SOL     OW  604   0.457   1.232   1.843  0.4355 -0.3004  0.3959
  202SOL    HW1  605   0.545   1.190   1.804  0.6511 -1.6726 -0.7642
  202SOL    HW2  606   0.462   1.254   1.943  0.3972 -0.1359  2.9421
  203SOL     OW  607   0.680   0.202   1.592  0.2412 -0.1915 -0.4391
  203SOL    HW1  608   0.673   0.147   1.506 -1.0027 -1.4911 -1.0524
  203SOL    HW2  609   0.756   0.170   1.652 -0.1037  2.3125 -0.7144
  204SOL     OW  610   2.113   1.824   2.917  0.1948  0.1120  0.0811
  204SOL    HW1  611   2.063   1.736   2.910 -0.5949 -1.1062  1.5769
  204SOL    HW2  612   2.195   1.823   2.857  0.2724  3.2720 -1.9975
  205SOL     OW  613   1.837   1.901   3.073 -0.0503 -0.0703 -0.3460
  205SOL    HW1  614   1.926   1.863   3.034 -1.3799  0.8717 -0.5917
  205SOL    HW2  615   1.791   1.955   2.999  2.0374 -1.0349 -0.4738
  206SOL     OW  616   2.352   2.718   0.275 -0.3083 -0.2804  0.3520
  206SOL    HW1  617   2.343   2.676   0.371 -2.0206  1.0695  3.2075
  206SOL    HW2  618   2.449   2.718   0.232  1.0203 -0.2337 -2.2298
  207SOL     OW  619   0.703   1.746   2.912  0.0241 -0.0398  0.2822
  207SOL    HW1  620   0.793   1.703   2.879  1.5632 -1.4000  1.1076
  207SOL    HW2  621   0.643   1.684   2.971  0.3461  0.5076 -0.1408
  208SOL     OW  622   0.997   1.547   1.274 -0.5118 -0.1722 -0.0542
  208SOL    HW1  623   0.934   1.574   1.195 -0.2083  0.1925  1.7634
  208SOL    HW2  624   0.963   1.581   1.367  1.8965  0.9996  0.9593
  209SOL     OW  625   0.268   0.964   3.043 -0.2043 -0.1480 -0.7738
  209SOL    HW1  626   0.278   0.909   2.958  1.7527  2.5428  0.1775
  209SOL    HW2  627   0.214   0.908   3.113  0.5216 -1.1124  1.1185
  210SOL     OW  628   1.697   0.562   1.265 -0.3295  0.2410  0.4216
  210SOL    HW1  629   1.645   0.600   1.188 -0.6836 -0.3413  2.0118
  210SOL    HW2  630   1.800   0.541   1.246  0.1707 -0.4723  0.4662
  211SOL     OW  631   2.184   1.027   1.575  0.4847 -0.0857 -0.2857
  211SOL    HW1  632   2.208   1.019   1.679 -0.1270  1.7751 -1.5708
  211SOL    HW2  633   2.207   1.122   1.538  2.3793  2.1256  1.6854
  212SOL     OW  634   0.049   1.031   1.480 -0.7300  0.0853  0.1152
  212SOL    HW1  635   0.121   1.104   1.486  0.1194  1.4461  1.3939
  212SOL    HW2  636   0.062   0.951   1.546  1.0944 -0.9253  0.6281
  213SOL     OW  637   2.815   0.084   0.356  0.2534 -0.7598  0.6372
  213SOL    HW1  638   2.917   0.057   0.369  0.1497  0.2887  1.3681
  213SOL    HW2  639   2.761   0.031   0.280 -0.8117 -1.9510 -2.1345
  214SOL     OW  640   2.159   0.332   2.352  0.1199  0.5000 -0.0398
  214SOL    HW1  641   2.176   0.374   2.447  0.4792  1.7767  0.9829
  214SOL    HW2  642   2.148   0.223   2.350 -0.1888  0.8424 -0.8013
  215SOL     OW  643   1.658   2.233   2.050  0.1962  0.8039  0.5094
  215SOL    HW1  644   1.751   2.274   2.039 -2.2517 -1.6378 -1.4240
  215SOL    HW2  645   1.588   2.300   2.077  0.3862 -1.6257  0.8676
  216SOL     OW  646   2.211   0.531   0.729  0.4068 -0.2094  0.4944
  216SOL    HW1  647   2.190   0.471   0.647  0.8088 -1.6632 -4.2342
  216SOL    HW2  648   2.308   0.513   0.755 -1.0093  1.2166 -1.4010
  217SOL     OW  649   0.934   2.732   2.573  0.3399  0.0338 -0.5422
  217SOL    HW1  650   0.900   2.656   2.639  0.2605 -2.2159  3.5732
  217SOL    HW2  651   0.882   2.735   2.481  0.5930 -0.0442  1.0977
  218SOL     OW  652   1.866   1.439   0.030  0.0990 -0.5816 -0.3115
  218SOL    HW1  653   1.773   1.474   0.062 -0.0677  0.6954  0.4457
  218SOL    HW2  654   1.874   1.338   0.046  2.3843  0.0358 -0.7495
  219SOL     OW  655   2.464   1.291   2.521  0.0720  0.3636  0.0263
  219SOL    HW1  656   2.513   1.246   2.442 -3.2282 -0.2736 -1.0078
  219SOL    HW2  657   2.436   1.224   2.599  0.4124  3.1027  1.4462
  220SOL     OW  658   1.384   1.023   1.332 -0.1174 -0.3601 -0.3069
  220SOL    HW1  659   1.482   1.010   1.360  0.4186  1.7537 -0.3508
  220SOL    HW2  660   1.368   1.067   1.240 -0.2267 -0.5752 -0.2942
  221SOL     OW  661   1.392   0.964   2.179 -0.7433 -0.8654  0.0183
  221SOL    HW1  662   1.345   1.021   2.106  2.0611 -1.6523  1.2790
  221SOL    HW2  663   1.469   1.016   2.228  1.8601 -0.1184  2.8832
  222SOL     OW  664   1.171   0.080   1.227  0.2015  0.1438  0.0851
  222SOL    HW1  665   1.207   0.115   1.318  0.0876 -1.1005 -0.5116
  222SOL    HW2  666   1.169   0.148   1.150  0.2624  0.4567  0.0296
  223SOL     OW  667   2.724   0.953   2.120  0.2865 -0.2149  0.4671
  223SOL    HW1  668   2.700   1.046   2.089  2.3985 -1.4836  0.3619
  223SOL    HW2  669   2.816   0.950   2.168  0.9325 -1.1876 -1.1006
  224SOL     OW  670   1.556   1.019   2.771 -0.4631 -0.4318  0.3740
  224SOL    HW1  671   1.568   0.947   2.691 -3.6289  1.3218  0.1196
  224SOL    HW2  672   1.569   1.115   2.736  2.1335 -1.1564 -1.3897
  225SOL     OW  673   2.950   2.674   2.920  0.1386  0.0150 -0.0068
  225SOL    HW1  674   2.876   2.627   2.869  1.3718  2.9580  2.3956
  225SOL    HW2  675   3.006   2.738   2.866 -0.1109  0.8690  1.2712
  226SOL     OW  676   2.405   1.531   2.779  0.8250  0.4923 -0.5568
  226SOL    HW1  677   2.482   1.545   2.707 -0.7275  0.8274 -1.2937
  226SOL    HW2  678   2.435   1.506   2.879  2.0593 -0.7532 -0.9439
  227SOL     OW  679   0.851   0.246   3.066  0.7643  0.5642  0.4850
  227SOL    HW1  680   0.865   0.348   3.048 -1.9044  2.1984 -1.8482
  227SOL    HW2  681   0.824   0.197   2.975 -1.9271 -1.7622 -1.2065
  228SOL     OW  682   2.453   0.666   2.846 -0.1349  0.0248  0.1427
  228SOL    HW1  683   2.467   0.757   2.794  0.4482 -0.5313 -1.4083
  228SOL    HW2  684   2.513   0.596   2.804 -1.3715  1.7878 -0.4225
  229SOL     OW  685   0.478   0.541   1.822  0.6926  0.7507 -0.0472
  229SOL    HW1  686   0.569   0.592   1.822  2.7720  1.6346  0.8658
  229SOL    HW2  687   0.470   0.466   1.751  1.9961  3.5310  0.2511
  230SOL     OW  688   1.869   1.205   1.944 -0.3665 -0.1956 -0.3763
  230SOL    HW1  689   1.954   1.255   1.917 -1.2398  1.2439 -0.0723
  230SOL    HW2  690   1.809   1.265   2.010  0.1824  0.5742  0.4330
  231SOL     OW  691   0.618   1.072   3.083 -0.2812  0.4009 -0.2191
  231SOL    HW1  692   0.710   1.129   3.086  1.0552  3.2618 -1.9402
  231SOL    HW2  693   0.542   1.131   3.108 -0.4189 -3.0277  1.0331
  232SOL     OW  694   2.400   3.050   2.788 -0.4653 -0.6924 -0.0892
  232SOL    HW1  695   2.470   2.978   2.813 -0.3614 -1.3500  0.6958
  232SOL    HW2  696   2.437   3.125   2.730 -1.4257 -1.1513 -1.1499
  233SOL     OW  697   1.781   1.160   1.081  0.4823  0.0074 -0.0338
  233SOL    HW1  698   1.860   1.226   1.069  0.9434 -2.8649 -1.4420
  233SOL    HW2  699   1.804   1.085   1.146  1.0201  2.4927 -0.3273
  234SOL     OW  700   1.644   2.538   1.837 -0.2556 -0.3559  0.0744
  234SOL    HW1  701   1.601   2.609   1.901 -1.5688 -1.9564 -1.2704
  234SOL    HW2  702   1.609   2.436   1.842 -0.6752 -3.3984  1.9837
  235SOL     OW  703   3.095   2.974   2.840  0.1916 -0.0248 -0.7465
  235SOL    HW1  704   3.027   3.009   2.767 -1.3806  0.7082 -0.0067
  235SOL    HW2  705   3.083   3.023   2.931  0.0022 -3.0400  1.3228
  236SOL     OW  706   2.913   0.687   0.058 -0.0404  0.1414  0.2361
  236SOL    HW1  707   2.970   0.730   0.131 -0.6620 -1.1669  0.8415
  236SOL    HW2  708   2.959   0.602   0.028 -2.3506  1.8557  2.7339
  237SOL     OW  709   1.466   1.667   0.891  0.5121  0.1308 -0.2410
  237SOL    HW1  710   1.554   1.619   0.882  1.0930  0.6815 -0.6923
  237SOL    HW2  711   1.464   1.751   0.959  0.3466  1.5842 -0.4280
  238SOL     OW  712   1.890   1.202   0.760 -0.2145  0.1044  0.0230
  238SOL    HW1  713   1.928   1.244   0.845 -2.6180  0.2505 -3.4872
  238SOL    HW2  714   1.790   1.215   0.759 -0.6362  0.1630 -0.3536
  239SOL     OW  715   2.013   0.212   2.758 -0.1767  0.0401  0.4764
  239SOL    HW1  716   2.064   0.164   2.842 -0.4561  2.0637  0.6890
  239SOL    HW2  717   1.958   0.295   2.783 -0.7328  0.0050  1.9194
  240SOL     OW  718   0.942   0.701   0.237  0.1109 -0.4907  0.3112
  240SOL    HW1  719   0.995   0.622   0.198 -0.7029  2.1591 -0.5900
  240SOL    HW2  720   0.957   0.716   0.336 -1.0628 -0.0283 -1.5951
  241SOL     OW  721   0.559   0.134   0.316  0.2721  0.1441 -0.5326
  241SOL    HW1  722   0.652   0.175   0.293 -2.4964  1.0038  3.0717
  241SOL    HW2  723   0.536   0.048   0.262  1.8115 -1.6139 -0.4347
  242SOL     OW  724   0.647   2.565   1.180 -0.3204  0.1343 -0.0104
  242SOL    HW1  725   0.627   2.565   1.277 -1.2678  0.9042  0.9562
  242SOL    HW2  726   0.602   2.646   1.134  1.5460 -1.4231 -3.0052
  243SOL     OW  727   1.063   0.610   2.378  0.4394  0.5717  0.1654
  243SOL    HW1  728   0.965   0.615   2.355 -2.2822  0.2137  3.2299
  243SOL    HW2  729   1.077   0.581   2.480  1.4854 -0.6622  1.3232
  244SOL     OW  730   2.673   1.959   2.353 -0.0181 -0.0733  0.0654
  244SOL    HW1  731   2.716   1.922   2.263 -0.7143  0.6641  0.2268
  244SOL    HW2  732   2.615   1.891   2.403  0.5959  2.4789  0.4075
  245SOL     OW  733   2.141   1.010   2.213 -0.8450 -0.0909  0.4779
  245SOL    HW1  734   2.235   0.978   2.246  0.3464  1.4553  0.3729
  245SOL    HW2  735   2.094   1.073   2.279 -1.7095 -1.5509 -0.2286
  246SOL     OW  736   0.308   2.838   1.800  0.5983  0.0213 -0.2022
  246SOL    HW1  737   0.212   2.837   1.752 -1.5410 -1.1861  1.5016
  246SOL    HW2  738   0.374   2.897   1.751 -0.1560 -0.5181  1.7784
  247SOL     OW  739   2.236   0.582   3.007  0.4297 -0.3054 -0.1898
  247SOL    HW1  740   2.320   0.600   2.949 -0.8299 -3.1827 -1.8037
  247SOL    HW2  741   2.169   0.661   3.012 -1.8407  2.6365  1.2974
  248SOL     OW  742   2.196   1.800   1.591  0.0803 -0.1329  0.1108
  248SOL    HW1  743   2.259   1.763   1.660  0.7055  3.3212 -1.2544
  248SOL    HW2  744   2.106   1.746   1.581 -3.6790 -1.9444 -0.4357
  249SOL     OW  745   1.873   1.905   1.794  0.4513  0.3496 -0.8148
  249SOL    HW1  746   1.886   1.827   1.728 -0.1370 -0.7036  1.9271
  249SOL    HW2  747   1.962   1.934   1.837  0.2748 -0.8587  0.9093
  250SOL     OW  748   0.951   0.726   1.882 -0.0552 -0.0251 -0.4929
  250SOL    HW1  749   0.995   0.652   1.936 -0.6658 -0.3675 -2.1832
  250SOL    HW2  750   0.951   0.713   1.778 -3.1938  0.5893  1.2203
  251SOL     OW  751   3.029   1.543   2.535 -0.3783 -0.4124  0.3175
  251SOL    HW1  752   3.003   1.641   2.509 -1.4353 -0.3528  2.2592
  251SOL    HW2  753   2.959   1.470   2.520 -0.0054  0.4778  0.5635
  252SOL     OW  754   1.571   0.856   1.576  0.3767 -0.0574 -0.1184
  252SOL    HW1  755   1.636   0.914   1.521  0.3020 -1.3767 -0.9373
  252SOL    HW2  756   1.532   0.903   1.660  0.1389 -1.3878  0.7270
  253SOL     OW  757   0.927   1.528   0.419 -0.2411  0.0890 -0.5905
  253SOL    HW1  758   0.885   1.492   0.334  2.1577 -2.0311 -0.1688
  253SOL    HW2  759   0.849   1.539   0.489 -0.8711  2.7939  0.4066
  254SOL     OW  760   2.064   2.191   1.621  0.3788 -0.3265  0.7225
  254SOL    HW1  761   2.016   2.112   1.578 -0.4081 -2.1251  2.2476
  254SOL    HW2  762   1.998   2.247   1.675  2.8562 -1.1553  0.3768
  255SOL     OW  763   0.123   1.167   2.904 -0.1165  0.6148  0.1458
  255SOL    HW1  764   0.171   1.257   2.914  0.0391  1.8496 -0.8359
  255SOL    HW2  765   0.184   1.087   2.944 -3.0480 -1.3168  0.4496
  256SOL     OW  766   2.823   1.425   1.771 -0.2958  0.4208 -0.3434
  256SOL    HW1  767   2.741   1.485   1.743 -0.0975 -1.6297  2.4512
  256SOL    HW2  768   2.814   1.323   1.754  1.4394 -1.3725  0.3641
  257SOL     OW  769   0.873   0.253   1.880  0.7132  0.2850 -0.2928
  257SOL    HW1  770   0.929   0.310   1.814 -0.9870 -1.5688  0.3520
  257SOL    HW2  771   0.908   0.148   1.890  0.7982 -1.8845  0.5462
  258SOL     OW  772   2.968   1.156   0.520 -0.3308 -0.0592 -0.8040
  258SOL    HW1  773   2.888   1.162   0.586  1.3614 -0.0856  1.5750
  258SOL    HW2  774   3.055   1.207   0.556  2.3579 -1.4031  2.6927
  259SOL     OW  775   0.472   2.941   2.999 -0.2491 -0.0994  0.5211
  259SOL    HW1  776   0.387   2.886   3.017  1.2528 -1.0991 -2.4641
  259SOL    HW2  777   0.503   2.909   2.906  1.6155  0.6516 -1.4522
  260SOL     OW  778   2.729   0.753   2.735  0.4948 -0.0122 -0.4697
  260SOL    HW1  779   2.649   0.812   2.695  1.7398 -1.7109 -2.7171
  260SOL    HW2  780   2.710   0.648   2.748 -1.2196  0.2866  1.5002
  261SOL     OW  781   2.694   1.297   1.313  0.0226 -0.2471  0.1887
  261SOL    HW1  782   2.631   1.233   1.260 -1.7524  1.3079  1.5066
  261SOL    HW2  783   2.776   1.249   1.356 -4.7006 -3.7285 -0.8396
  262SOL     OW  784   1.359   2.965   2.065 -0.4368 -0.3729 -0.4851
  262SOL    HW1  785   1.412   3.046   2.025 -1.7936 -0.7278  0.5715
  262SOL    HW2  786   1.277   2.931   2.015 -0.4041  0.9618 -1.1793
  263SOL     OW  787   0.809   0.638   2.294 -0.0563  0.0347  0.5862
  263SOL    HW1  788   0.754   0.566   2.247  3.2400 -0.0293  2.1778
  263SOL    HW2  789   0.816   0.725   2.233 -2.0274  1.9511 -1.4950
  264SOL     OW  790   2.269   0.818   0.385  0.1962  0.2071  0.5211
  264SOL    HW1  791   2.284   0.727   0.332  1.0588 -1.5010  0.0073
  264SOL    HW2  792   2.361   0.848   0.424  0.4219  0.4660  2.0454
  265SOL     OW  793   0.925   2.403   2.583  0.1131 -0.2313 -0.3876
  265SOL    HW1  794   0.989   2.453   2.645 -0.2642 -0.5610  1.1857
  265SOL    HW2  795   0.870   2.333   2.639  0.8814  2.5045 -0.8065
  266SOL     OW  796   1.299   1.775   3.048 -0.0897  0.2784  0.2938
  266SOL    HW1  797   1.264   1.808   3.138  0.8060 -2.1110  0.9209
  266SOL    HW2  798   1.399   1.762   3.053  1.8448  1.6776 -1.7639
  267SOL     OW  799   1.064   0.045   2.332  0.3112 -0.1984  0.1050
  267SOL    HW1  800   0.977   0.084   2.289  0.2741  0.0227  2.3465
  267SOL    HW2  801   1.132   0.048   2.255  2.5649 -0.5813  0.0092
  268SOL     OW  802   0.844   1.254   1.042 -0.0854  0.3470  0.3996
  268SOL    HW1  803   0.821   1.325   1.114  0.3912 -0.8476 -0.7624
  268SOL    HW2  804   0.929   1.279   0.988  1.6594 -0.4014 -1.4024
  269SOL     OW  805   2.371   2.539   1.587 -0.1597  0.2321 -0.9953
  269SOL    HW1  806   2.444   2.471   1.620  2.9376  1.9906  1.2490
  269SOL    HW2  807   2.346   2.603   1.666  0.8011  0.4815  1.7521
  270SOL     OW  808   0.163   2.992   1.981 -0.0437 -0.1261 -0.3389
  270SOL    HW1  809   0.236   2.952   1.913  2.3593 -1.3649 -0.0588
  270SOL    HW2  810   0.094   2.920   2.003  1.8361  1.3952  0.5156
  271SOL     OW  811   0.486   1.395   1.126 -0.1814 -0.0326  0.2075
  271SOL    HW1  812   0.506   1.321   1.052 -3.5126  1.8327 -0.6336
  271SOL    HW2  813   0.404   1.373   1.179 -0.4365  1.9077 -2.6763
  272SOL     OW  814   1.904   3.097   1.924 -0.5864 -0.0632 -0.0435
  272SOL    HW1  815   1.874   3.016   1.862  3.5311 -1.5646 -0.2607
  272SOL    HW2  816   1.890   3.193   1.885  1.2746  1.4540  0.0888
  273SOL     OW  817   1.473   1.488   2.809 -0.7339 -0.2308  0.1909
  273SOL    HW1  818   1.382   1.458   2.768 -0.2557  0.2136 -1.0009
  273SOL    HW2  819   1.461   1.517   2.907 -0.7624 -1.2242  0.3531
  274SOL     OW  820   1.108   0.520   2.020 -0.0245  0.3716  0.4923
  274SOL    HW1  821   1.034   0.450   2.055 -3.0740 -1.2874 -0.7407
  274SOL    HW2  822   1.162   0.560   2.099  2.4278 -0.0959  1.4592
  275SOL     OW  823   0.649   2.136   1.898  0.0170 -0.3048  0.3331
  275SOL    HW1  824   0.624   2.234   1.932 -0.2231  0.4547  3.0657
  275SOL    HW2  825   0.572   2.070   1.915 -0.4814 -2.1874 -3.4311
  276SOL     OW  826   2.237   0.933   2.848 -0.2589  0.0204  0.1597
  276SOL    HW1  827   2.165   0.952   2.773 -0.7648 -0.7598 -2.0528
  276SOL    HW2  828   2.215   0.847   2.902  0.0278 -3.5264 -1.2282
  277SOL     OW  829   3.082   0.773   0.270 -0.0030 -0.3570 -0.0410
  277SOL    HW1  830   3.170   0.825   0.243  0.4943 -0.3444 -0.1054
  277SOL    HW2  831   3.106   0.683   0.318  0.3347 -0.9077 -3.0176
  278SOL     OW  832   0.258   0.238   3.051 -0.1990  0.3500 -0.3583
  278SOL    HW1  833   0.348   0.200   3.015 -0.5573 -0.6258 -0.4242
  278SOL    HW2  834   0.255   0.342   3.053  0.9545 -1.3136 -3.2399
  279SOL     OW  835   0.265   3.104   0.884  0.4945 -0.8826  0.3256
  279SOL    HW1  836   0.300   3.071   0.978  2.2798  0.0261  1.9193
  279SOL    HW2  837   0.239   3.029   0.821 -2.5057  0.6776 -0.6189
  280SOL     OW  838   1.637   2.923   2.445 -0.3529 -0.2125 -0.1970
  280SOL    HW1  839   1.722   2.974   2.468  0.7520  0.5264  0.6308
  280SOL    HW2  840   1.558   2.980   2.403  2.2609  0.3476  0.3027
  281SOL     OW  841   0.522   0.944   2.285  0.3408 -0.3713  0.6282
  281SOL    HW1  842   0.547   0.847   2.261 -0.9475 -1.0471 -2.8219
  281SOL    HW2  843   0.459   0.948   2.364  0.2610  1.1093  0.9531
  282SOL     OW  844   1.792   2.452   0.534  0.0416  0.1222  0.6321
  282SOL    HW1  845   1.772   2.380   0.454  1.1200 -1.5508  0.9458
  282SOL    HW2  846   1.738   2.542   0.520 -0.0702  0.0794 -0.1336
  283SOL     OW  847   1.160   0.887   0.745  0.0023  0.3465  0.1757
  283SOL    HW1  848   1.193   0.857   0.840 -1.1330 -0.7198  2.0057
  283SOL    HW2  849   1.144   0.992   0.743  0.1402  2.7154  2.5656
  284SOL     OW  850   2.230   2.806   2.465  0.2484 -0.2575 -0.1846
  284SOL    HW1  851   2.332   2.836   2.443  0.0855  2.1079 -2.4162
  284SOL    HW2  852   2.210   2.810   2.567 -2.5042 -0.3028 -0.8051
  285SOL     OW  853   1.324   3.073   2.613 -0.1428 -0.6176  0.0587
  285SOL    HW1  854   1.346   3.066   2.511  1.0610  1.3819  1.0450
  285SOL    HW2  855   1.227   3.104   2.636 -0.9635 -1.0919  2.5291
  286SOL     OW  856   0.328   0.454   0.669 -0.6467 -0.2469 -0.4614
  286SOL    HW1  857   0.365   0.382   0.730 -3.1218  1.4914 -0.9897
  286SOL    HW2  858   0.368   0.435   0.572 -1.4932 -0.5017 -2.9211
  287SOL     OW  859   0.094   1.309   2.609  0.3016  0.0908 -0.2729
  287SOL    HW1  860   0.053   1.220   2.641 -0.4376  3.6959 -3.4569
  287SOL    HW2  861   0.026   1.383   2.583 -1.9485 -0.9238 -1.2747
  288SOL     OW  862   1.525   2.745   1.667  0.0364  0.1486  0.3056
  288SOL    HW1  863   1.565   2.689   1.745  1.4964 -2.3684  0.7376
  288SOL    HW2  864   1.547   2.702   1.575  0.1131 -0.5712  1.6414
  289SOL     OW  865   0.637   2.770   0.816 -0.0319  0.0168 -0.5096
  289SOL    HW1  866   0.666   2.856   0.764 -0.8770  2.3610  2.5965
  289SOL    HW2  867   0.595   2.796   0.902  1.3716  1.6524 -0.0843
  290SOL     OW  868   2.827   1.153   1.717 -0.0006 -0.7107 -0.3761
  290SOL    HW1  869   2.766   1.076   1.741 -0.5006  0.5929 -2.1140
  290SOL    HW2  870   2.920   1.160   1.765  1.1430  2.8851  2.4221
  291SOL     OW  871   1.946   3.070   0.041  0.0456 -0.0757 -0.3848
  291SOL    HW1  872   1.949   3.142   0.118  1.4487 -0.3644  1.0939
  291SOL    HW2  873   1.995   3.117  -0.040  2.1287  1.8115 -1.1156
  292SOL     OW  874   2.989   1.166   3.059  0.5867  0.0008 -0.2373
  292SOL    HW1  875   2.957   1.264   3.047 -1.9420  0.0046  1.5313
  292SOL    HW2  876   3.081   1.154   3.021 -3.8591  2.0239  0.2516
  293SOL     OW  877   0.585   2.068   0.291 -0.0349  0.1789 -0.3057
  293SOL    HW1  878   0.558   2.140   0.359 -2.0466 -0.7200 -0.2849
  293SOL    HW2  879   0.689   2.052   0.298  2.1804 -0.3019 -0.6111
  294SOL     OW  880   1.878   2.342   1.749  0.1187  0.0801 -0.3352
  294SOL    HW1  881   1.902   2.330   1.851 -1.7533  0.1524  1.9610
  294SOL    HW2  882   1.863   2.443   1.722 -1.7334 -0.1176  1.2666
  295SOL     OW  883   0.993   1.047   0.448 -1.0830  0.2545  0.3708
  295SOL    HW1  884   1.077   1.092   0.487 -2.6920  1.8939 -1.3284
  295SOL    HW2  885   0.956   0.984   0.519 -0.1150 -2.5090  0.6762
  296SOL     OW  886   1.086   2.165   2.742 -0.1185  0.1211  0.2139
  296SOL    HW1  887   0.988   2.203   2.753  1.0354  0.8481  0.2855
  296SOL    HW2  888   1.133   2.179   2.650  3.6291  1.8238  0.5836
  297SOL     OW  889   1.272   0.530   1.165 -0.2376 -0.0754 -0.0841
  297SOL    HW1  890   1.328   0.498   1.250  2.7239  0.0860 -0.8863
  297SOL    HW2  891   1.299   0.630   1.136  1.6639  2.0757  2.3856
  298SOL     OW  892   0.483   1.316   2.917 -0.6388 -0.1490  0.2079
  298SOL    HW1  893   0.452   1.263   3.002 -1.4376 -1.7635  1.5805
  298SOL    HW2  894   0.544   1.258   2.854 -2.1699 -1.6288 -0.0026
  299SOL     OW  895   0.442   0.201   1.260  0.1232 -0.1492 -0.2411
  299SOL    HW1  896   0.387   0.283   1.227 -0.7877 -2.3130 -2.7917
  299SOL    HW2  897   0.444   0.195   1.363 -0.0680 -0.8090  1.8027
  300SOL     OW  898   1.356   1.807   2.584 -0.2607  0.5057  0.3166
  300SOL    HW1  899   1.366   1.726   2.519  2.9304 -1.9338 -1.1562
  300SOL    HW2  900   1.424   1.801   2.665  3.4122  2.4211 -0.4143
  301SOL     OW  901   0.413   0.361   0.430  0.5207 -0.3608 -0.8113
  301SOL    HW1  902   0.321   0.327   0.394  1.9809 -2.1668  1.2647
  301SOL    HW2  903   0.482   0.292   0.398 -1.3131 -0.6927  1.1953
  302SOL     OW  904   1.268   2.450   2.304  0.6518 -0.7189  0.0421
  302SOL    HW1  905   1.170   2.423   2.331  0.7011  0.5046 -1.5279
  302SOL    HW2  906   1.336   2.377   2.336 -0.3104  0.9177  6.5185
  303SOL     OW  907   0.945   2.451   0.836 -0.1794  0.3373 -0.2150
  303SOL    HW1  908   1.016   2.455   0.764 -0.7480 -0.5556 -1.1721
  303SOL    HW2  909   0.963   2.504   0.924 -2.6750 -2.0805  0.9746
  304SOL     OW  910   0.146   1.925   0.671  0.3055  0.2701 -0.0339
  304SOL    HW1  911   0.229   1.918   0.612 -2.1644  0.3675  1.6546
  304SOL    HW2  912   0.061   1.964   0.627 -4.1278 -0.6494  0.4703
  305SOL     OW  913   1.620   0.874   0.687  0.7550  0.6069  0.2686
  305SOL    HW1  914   1.559   0.900   0.608  2.8637 -1.5227  0.8213
  305SOL    HW2  915   1.669   0.784   0.676 -3.9308 -2.0855 -2.0041
  306SOL     OW  916   0.396   1.846   1.961 -0.2220 -0.1132  0.3477
  306SOL    HW1  917   0.484   1.800   1.932 -0.9196  1.2210 -2.8988
  306SOL    HW2  918   0.403   1.908   2.045 -0.4204 -0.6834 -0.1927
  307SOL     OW  919   3.001   0.891   2.517  0.2731 -0.3744  0.4454
  307SOL    HW1  920   3.023   0.935   2.610  2.0834  0.7514 -0.8682
  307SOL    HW2  921   2.940   0.804   2.525 -1.4812 -0.6218 -0.1373
  308SOL     OW  922   1.480   2.687   2.815 -0.7542  0.1232 -0.4612
  308SOL    HW1  923   1.456   2.688   2.714 -2.6906  2.4800  2.1479
  308SOL    HW2  924   1.439   2.610   2.864 -0.4831 -0.1435 -0.4619
  309SOL     OW  925   1.255   0.175   1.781 -0.4744  0.2742  0.4327
  309SOL    HW1  926   1.328   0.111   1.820 -0.5179 -2.1125  0.6409
  309SOL    HW2  927   1.211   0.140   1.694 -1.6790 -1.0748 -0.0400
  310SOL     OW  928   1.481   2.541   0.674  0.4276 -0.8846 -0.2532
  310SOL    HW1  929   1.446   2.583   0.757 -0.9595 -1.9225 -0.9634
  310SOL    HW2  930   1.573   2.575   0.640 -0.8988 -1.2396  1.1399
  311SOL     OW  931   1.038   0.969   1.756 -0.4241  0.0631  0.3052
  311SOL    HW1  932   1.006   0.886   1.809  1.2122 -0.6056  1.5509
  311SOL    HW2  933   1.104   0.953   1.679  0.7744  2.4326  0.2765
  312SOL     OW  934   1.545   0.628   1.046 -0.4132  0.0288 -0.2798
  312SOL    HW1  935   1.540   0.731   1.062  0.5111 -1.6643  4.2866
  312SOL    HW2  936   1.488   0.598   0.967 -0.7479  0.2962 -0.7824
  313SOL     OW  937   1.621   1.236   0.769 -0.1157  0.2049  0.3105
  313SOL    HW1  938   1.539   1.257   0.831  2.6147  1.8462  3.3382
  313SOL    HW2  939   1.598   1.216   0.672  0.7261  0.5490  2.1869
  314SOL     OW  940   2.977   3.089   3.074  0.5689  0.3955  0.0922
  314SOL    HW1  941   3.019   3.095   3.166 -1.6325  0.0595 -1.9590
  314SOL    HW2  942   2.903   3.017   3.066  0.6433  0.6741 -0.0418
  315SOL     OW  943   1.187   0.204   2.799  0.0582 -0.2359  0.3844
  315SOL    HW1  944   1.134   0.173   2.713 -1.7993  0.8234 -1.4151
  315SOL    HW2  945   1.161   0.153   2.883  0.3226  2.5519  0.2172
  316SOL     OW  946   1.752   2.080   0.884  0.9762 -0.3562  0.0681
  316SOL    HW1  947   1.680   2.076   0.966 -1.5871  1.9643  1.2371
  316SOL    HW2  948   1.754   2.177   0.852 -1.0140 -0.7152  1.0555
  317SOL     OW  949   1.170   0.702   2.766 -0.1031  0.0468 -0.4381
  317SOL    HW1  950   1.104   0.720   2.845  1.4764  0.8402  1.0122
  317SOL    HW2  951   1.144   0.626   2.702 -0.2409 -1.2391 -0.5288
  318SOL     OW  952   1.423   3.087   2.325 -0.3823  0.0450  0.4069
  318SOL    HW1  953   1.462   3.180   2.309 -2.5569  1.3848  1.3216
  318SOL    HW2  954   1.372   3.060   2.242  1.1146 -0.6362 -1.0811
  319SOL     OW  955   0.667   2.401   3.023 -0.4684  0.3890 -0.0081
  319SOL    HW1  956   0.624   2.311   3.063  0.2022 -0.3514  1.5176
  319SOL    HW2  957   0.737   2.379   2.947 -0.5781 -0.4655  1.3123
  320SOL     OW  958   1.678   2.227   0.396  0.1006  0.1501 -0.5982
  320SOL    HW1  959   1.754   2.161   0.421 -3.2596  0.7219 -0.5943
  320SOL    HW2  960   1.587   2.175   0.393  0.4856 -0.1617  3.6611
  321SOL     OW  961   1.669   2.713   0.561 -0.4703  0.1478 -0.3813
  321SOL    HW1  962   1.575   2.761   0.557 -1.9932  0.1330  0.9718
  321SOL    HW2  963   1.744   2.771   0.523  0.6004 -2.1749  2.0652
  322SOL     OW  964   2.570   1.137   2.315  0.0117 -0.2287 -0.4185
  322SOL    HW1  965   2.650   1.113   2.387  0.5016  2.6911  0.6058
  322SOL    HW2  966   2.549   1.055   2.260 -0.5798 -0.8616  2.4809
  323SOL     OW  967   1.143   2.697   0.795 -0.3407  0.7529 -0.1390
  323SOL    HW1  968   1.143   2.665   0.695 -1.0697 -0.1646 -0.4646
  323SOL    HW2  969   1.122   2.796   0.796 -2.4728  0.9198  0.8978
  324SOL     OW  970   0.147   2.542   2.423 -0.8587  0.6186 -0.4095
  324SOL    HW1  971   0.090   2.503   2.500  0.0061 -0.9907  0.8856
  324SOL    HW2  972   0.189   2.634   2.447  1.3300 -1.4411  0.5611
  325SOL     OW  973   1.256   3.075   0.454  0.6160 -0.5478  0.1151
  325SOL    HW1  974   1.254   3.119   0.361  0.0636 -0.5536  0.4608
  325SOL    HW2  975   1.278   3.154   0.519  0.9376  2.5393 -1.7770
  326SOL     OW  976   2.485   0.866   0.017 -0.2854  0.1858  0.3301
  326SOL    HW1  977   2.419   0.829  -0.056 -0.7278 -0.8659 -0.5877
  326SOL    HW2  978   2.532   0.789   0.068 -0.8699  3.0312  2.3299
  327SOL     OW  979   2.875   0.294   0.560  0.1642 -0.2084 -0.1171
  327SOL    HW1  980   2.869   0.272   0.454  0.3875  0.4063 -0.5321
  327SOL    HW2  981   2.875   0.209   0.624  0.5608  1.7706 -0.3936
  328SOL     OW  982   2.585   0.620   0.389  0.1781 -0.7982 -0.3371
  328SOL    HW1  983   2.630   0.649   0.477  1.2533 -0.5568 -0.9133
  328SOL    HW2  984   2.527   0.534   0.391  0.7149 -0.7318 -0.9062
  329SOL     OW  985   2.941   3.011   2.218 -0.1170  0.1937  0.7920
  329SOL    HW1  986   3.024   2.947   2.207  0.2309  1.8439  0.5517
  329SOL    HW2  987   2.958   3.107   2.193 -2.3119 -1.9600 -1.4315
  330SOL     OW  988   0.536   0.206   1.857 -0.0793  0.5843  0.8487
  330SOL    HW1  989   0.625   0.244   1.817  1.3255  0.6747 -0.8030
  330SOL    HW2  990   0.538   0.195   1.964  2.5477  0.6435  1.0340
  331SOL     OW  991   3.075   1.866   1.131  0.4897  0.0834 -0.3020
  331SOL    HW1  992   3.047   1.911   1.044  0.6223 -3.3105  0.1163
  331SOL    HW2  993   2.998   1.863   1.199 -1.7470  1.6798 -3.5808
  332SOL     OW  994   0.373   1.192   0.050  0.1546  0.1674 -0.3412
  332SOL    HW1  995   0.340   1.094   0.040 -0.1144  0.1039 -1.1480
  332SOL    HW2  996   0.348   1.232   0.145 -0.9559  1.4006  1.8009
  333SOL     OW  997   2.895   0.960   0.362  0.4842 -0.1039 -0.2079
  333SOL    HW1  998   2.935   1.033   0.434  1.4022  3.7244  4.5072
  333SOL    HW2  999   2.978   0.907   0.315  0.6207  0.6107 -1.2040
  334SOL     OW 1000   1.744   1.141   1.725 -0.0961 -0.1782  0.2164
  334SOL    HW1 1001   1.800   1.157   1.643 -1.0695 -2.7172 -1.3932
  334SOL    HW2 1002   1.785   1.184   1.809 -0.0422  0.0431 -0.1771
  335SOL     OW 1003   1.903   2.785   2.619  0.7889  0.3561 -0.4991
  335SOL    HW1 1004   1.824   2.828   2.672  1.2816 -0.0400 -0.3735
  335SOL    HW2 1005   1.991   2.835   2.629 -0.2526  0.1091 -0.7926
  336SOL     OW 1006   0.277   0.050   2.741 -0.3674  0.4634  0.4277
  336SOL    HW1 1007   0.342   0.054   2.825  1.2849 -1.1597  2.7711
  336SOL    HW2 1008   0.221  -0.034   2.733 -0.6556  0.7936 -0.6098
  337SOL     OW 1009   0.911   2.865   3.000  0.2947  0.0482  0.5257
  337SOL    HW1 1010   0.916   2.786   3.079  1.6815 -0.6459  2.6675
  337SOL    HW2 1011   0.950   2.949   3.038 -1.7258  0.6281  1.1191
  338SOL     OW 1012   3.095   0.944   0.723  0.5220  0.4767  0.4465
  338SOL    HW1 1013   2.993   0.932   0.744 -0.4796 -0.4778 -2.2005
  338SOL    HW2 1014   3.125   1.041   0.710 -0.9692 -0.9411  1.7539
  339SOL     OW 1015   1.758   1.313   2.182  0.5364  0.4220  0.2131
  339SOL    HW1 1016   1.662   1.328   2.138  0.5255 -3.5040  0.2809
  339SOL    HW2 1017   1.811   1.403   2.202  1.2421 -2.0017  2.2235
  340SOL     OW 1018   2.232   0.825   1.068  0.2550  0.6679 -0.2570
  340SOL    HW1 1019   2.149   0.855   1.124  0.5309  1.3167 -0.0585
  340SOL    HW2 1020   2.226   0.732   1.028  0.8864 -1.9293  0.4227
  341SOL     OW 1021   1.932   2.104   0.395  0.2229 -0.3260 -0.1900
  341SOL    HW1 1022   1.975   2.154   0.311  1.1347  0.0997  1.3469
  341SOL    HW2 1023   2.001   2.041   0.443  0.8543  2.0930  1.7680
  342SOL     OW 1024   2.172   2.106   2.722  0.0515  0.3758  0.1867
  342SOL    HW1 1025   2.206   2.035   2.790 -2.1951  0.5521  1.6684
  342SOL    HW2 1026   2.070   2.090   2.701  3.6781  0.2878 -1.6100
  343SOL     OW 1027   0.361   0.883   2.810 -0.4106  0.4676  0.6955
  343SOL    HW1 1028   0.367   0.922   2.716  0.2198  0.3693  0.1041
  343SOL    HW2 1029   0.452   0.868   2.860 -0.4335 -0.5161  1.8124
  344SOL     OW 1030   1.939   1.463   0.367 -0.1726 -0.0198 -0.1977
  344SOL    HW1 1031   1.949   1.380   0.308  0.4255  1.7853 -1.0834
  344SOL    HW2 1032   1.840   1.479   0.400 -1.6230  1.2485 -2.0452
  345SOL     OW 1033   1.340   2.200   2.846 -0.0144  0.1307  0.4220
  345SOL    HW1 1034   1.239   2.198   2.823 -0.6217  2.0812 -3.8392
  345SOL    HW2 1035   1.400   2.166   2.764 -1.9434 -0.4694 -1.6813
  346SOL     OW 1036   2.298   0.844   1.399  0.2901 -0.3554  0.0051
  346SOL    HW1 1037   2.231   0.922   1.427  0.7872  0.4507  1.1624
  346SOL    HW2 1038   2.258   0.774   1.331 -0.8740 -3.9363  1.7876
  347SOL     OW 1039   0.733   2.767   1.667  0.4864  0.0554  0.4583
  347SOL    HW1 1040   0.818   2.809   1.617  0.4857 -1.4529  0.0333
  347SOL    HW2 1041   0.646   2.800   1.623 -0.3788 -0.2831 -0.2962
  348SOL     OW 1042   0.181   0.671   2.908  0.0684 -0.5708 -0.5089
  348SOL    HW1 1043   0.088   0.712   2.882 -1.4295  0.0884 -1.9214
  348SOL    HW2 1044   0.250   0.695   2.836 -1.2304  0.3549 -0.7855
  349SOL     OW 1045   1.807   0.439   2.838 -0.6058  0.2928  0.1911
  349SOL    HW1 1046   1.792   0.521   2.779  0.9854 -2.5809  0.0903
  349SOL    HW2 1047   1.767   0.443   2.935 -1.0947  1.1195 -0.2570
  350SOL     OW 1048   1.681   0.387   0.363 -0.1953 -0.3528 -0.1965
  350SOL    HW1 1049   1.733   0.390   0.453  0.6414  2.5563  0.8728
  350SOL    HW2 1050   1.659   0.482   0.332  2.0029  1.1392  1.9747
  351SOL     OW 1051   0.831   0.846   2.115  0.2647 -0.1914  0.6142
  351SOL    HW1 1052   0.871   0.944   2.130  3.0021  0.9556 -0.0829
  351SOL    HW2 1053   0.881   0.796   2.042  0.5010  1.3779 -0.1692
  352SOL     OW 1054   2.066   1.320   0.597  0.2239 -0.0985  0.4652
  352SOL    HW1 1055   2.019   1.368   0.516 -1.5053 -1.1008 -0.0646
  352SOL    HW2 1056   2.002   1.273   0.664  0.0042  1.3927 -1.8443
  353SOL     OW 1057   2.218   2.731   1.103 -0.1205 -0.5544  0.0935
  353SOL    HW1 1058   2.304   2.686   1.133  2.1799 -0.4511 -1.3086
  353SOL    HW2 1059   2.163   2.753   1.185  2.2919 -2.0245  2.5829
  354SOL     OW 1060   0.223   1.431   2.892  0.2916 -0.4179  0.0155
  354SOL    HW1 1061   0.197   1.502   2.821  2.0515 -1.8173 -1.6331
  354SOL    HW2 1062   0.319   1.393   2.868  1.6152 -0.4999  0.1224
  355SOL     OW 1063   0.710   1.572   0.585  0.6068  0.8289 -0.4888
  355SOL    HW1 1064   0.718   1.509   0.668 -2.2159  1.0311  1.5484
  355SOL    HW2 1065   0.653   1.526   0.507 -0.8930 -2.8088  0.0728
  356SOL     OW 1066   0.929   0.296   2.138  0.1707  0.4149  0.1113
  356SOL    HW1 1067   1.013   0.234   2.140  2.6135 -0.3505  0.4687
  356SOL    HW2 1068   0.873   0.283   2.049 -0.3152 -1.3549  0.4420
  357SOL     OW 1069   0.991   1.374   0.176  0.1136 -0.2207 -0.6455
  357SOL    HW1 1070   1.040   1.304   0.113 -2.1655 -2.5217 -2.2338
  357SOL    HW2 1071   1.056   1.444   0.220 -1.5344  1.5321 -1.3897
  358SOL     OW 1072   1.697   1.454   0.500 -0.4065  0.0683  0.0182
  358SOL    HW1 1073   1.652   1.406   0.581  1.5075 -0.3340 -1.5736
  358SOL    HW2 1074   1.640   1.436   0.409 -0.7908 -2.4611 -0.8542
  359SOL     OW 1075   1.592   2.591   0.215  0.1307 -0.0469 -0.2366
  359SOL    HW1 1076   1.566   2.500   0.170  2.0321 -0.1437  0.2522
  359SOL    HW2 1077   1.510   2.641   0.252 -0.0298 -0.5901 -0.1086
  360SOL     OW 1078   0.758   0.455   0.586 -0.5254  0.2859  0.3009
  360SOL    HW1 1079   0.661   0.497   0.560  2.3905  0.5227 -1.4140
  360SOL    HW2 1080   0.791   0.379   0.525 -2.2491 -0.2392  0.4406
  361SOL     OW 1081   1.340   1.291   0.618  0.5629 -0.4558  0.0708
  361SOL    HW1 1082   1.362   1.307   0.719 -0.3759 -0.8696 -0.6070
  361SOL    HW2 1083   1.260   1.351   0.596 -1.2100 -1.0106  1.2299
  362SOL     OW 1084   1.377   1.827   0.689  0.1301  0.2940 -0.3993
  362SOL    HW1 1085   1.407   1.747   0.749  1.4958  1.8524 -0.8930
  362SOL    HW2 1086   1.440   1.845   0.609  0.3927 -0.7236  1.0463
  363SOL     OW 1087   1.299   1.334   2.032 -0.1293  0.4106 -0.6869
  363SOL    HW1 1088   1.398   1.361   2.029  0.1852 -0.2160  1.7338
  363SOL    HW2 1089   1.255   1.350   2.123 -1.9399 -0.0789 -1.3480
  364SOL     OW 1090   0.530   2.379   1.976  0.3791  0.0144 -0.4646
  364SOL    HW1 1091   0.429   2.354   1.966 -0.8073  1.0562 -0.6284
  364SOL    HW2 1092   0.550   2.464   1.922 -1.4920  1.7304  0.8433
  365SOL     OW 1093   0.928   1.975   1.412  0.1491 -0.0093  0.0403
  365SOL    HW1 1094   0.838   2.008   1.449  2.6085  0.5495  1.7943
  365SOL    HW2 1095   0.954   2.009   1.316  3.5872 -0.9364 -0.0823
  366SOL     OW 1096   2.758   1.939   0.229 -0.5439 -0.6718 -0.0883
  366SOL    HW1 1097   2.704   1.846   0.220 -0.9371 -3.6096 -0.3007
  366SOL    HW2 1098   2.863   1.927   0.222 -0.8868  0.3888  1.8160
  367SOL     OW 1099   0.880   1.140   3.080  0.3484 -0.0627 -0.3185
  367SOL    HW1 1100   0.877   1.070   3.160 -2.5709 -0.6908  1.6954
  367SOL    HW2 1101   0.969   1.191   3.080  0.6197 -1.4741 -1.6322
  368SOL     OW 1102   1.460   0.557   0.522 -0.3562 -0.1770 -0.3148
  368SOL    HW1 1103   1.359   0.582   0.500 -1.2838  1.6788  0.7189
  368SOL    HW2 1104   1.517   0.562   0.434  1.4512  1.3597 -2.2403
  369SOL     OW 1105   0.407   1.569   0.167  0.4462  0.5053  0.0790
  369SOL    HW1 1106   0.456   1.642   0.218 -2.4039  0.7614  0.2679
  369SOL    HW2 1107   0.308   1.544   0.199  0.2704 -0.6707 -1.2011
  370SOL     OW 1108   0.416   2.187   1.086  0.6567  0.3787  0.3054
  370SOL    HW1 1109   0.442   2.278   1.040  1.8583  1.3129  0.3078
  370SOL    HW2 1110   0.336   2.140   1.042  1.4959  0.1413  0.6992
  371SOL     OW 1111   2.913   2.215   2.748 -0.3051 -0.3268 -0.0261
  371SOL    HW1 1112   2.974   2.127   2.734  0.0902  0.0985 -0.0039
  371SOL    HW2 1113   2.934   2.271   2.834 -1.8888  0.2265 -0.1003
  372SOL     OW 1114   1.008   2.047   1.162 -0.1657 -0.2107  0.6643
  372SOL    HW1 1115   0.952   2.064   1.075 -1.3178 -0.9013 -0.7403
  372SOL    HW2 1116   1.078   2.120   1.180 -1.5488 -1.8875  1.3904
  373SOL     OW 1117   1.941   1.915   1.024  0.1634  0.1104  0.1025
  373SOL    HW1 1118   2.033   1.955   1.058  0.0858  0.8220 -1.6854
  373SOL    HW2 1119   1.885   1.978   0.968  3.0057 -0.0628  1.2139
  374SOL     OW 1120   1.900   0.400   0.582  0.4416 -0.2925 -0.0815
  374SOL    HW1 1121   1.874   0.316   0.642  0.8991  3.0973  0.7282
  374SOL    HW2 1122   1.994   0.389   0.546  1.0562  2.4199  0.1481
  375SOL     OW 1123   2.429   2.178   1.111  0.1841  0.0041  0.3896
  375SOL    HW1 1124   2.433   2.234   1.024 -0.4364 -0.9251  0.0076
  375SOL    HW2 1125   2.520   2.159   1.151 -2.9727 -1.9192 -2.6580
  376SOL     OW 1126   0.016   0.641   1.419  0.0785 -0.5360  0.3206
  376SOL    HW1 1127  -0.010   0.737   1.455  1.3055 -1.6751 -0.5926
  376SOL    HW2 1128  -0.043   0.564   1.448 -0.0980  4.6311 -0.3035
  377SOL     OW 1129   2.186   2.914   0.217  0.4999 -0.1844 -0.2843
  377SOL    HW1 1130   2.157   2.983   0.290 -0.3834  0.3780 -0.5450
  377SOL    HW2 1131   2.243   2.836   0.258  0.3499  1.1133 -0.3138
  378SOL     OW 1132   1.893   1.904   2.451  0.5813 -0.0015  1.2750
  378SOL    HW1 1133   1.918   1.907   2.348 -1.8145 -2.5009 -1.2878
  378SOL    HW2 1134   1.861   1.810   2.478 -1.0530 -0.9192  1.0864
  379SOL     OW 1135   0.768   0.155   2.831 -0.1596  0.4438 -0.4277
  379SOL    HW1 1136   0.798   0.062   2.796 -1.4718  1.8947 -3.0259
  379SOL    HW2 1137   0.775   0.226   2.761  2.3747 -1.5572 -1.9682
  380SOL     OW 1138   1.565   1.174   0.509 -0.4508 -0.5279 -0.3818
  380SOL    HW1 1139   1.476   1.229   0.513 -2.8119 -0.1902 -1.9759
  380SOL    HW2 1140   1.544   1.078   0.488  2.4387  1.6038  2.7768
  381SOL     OW 1141   1.277   1.262   1.520 -0.2596  1.0128 -0.1432
  381SOL    HW1 1142   1.298   1.214   1.432 -1.9409  0.9755  2.6485
  381SOL    HW2 1143   1.354   1.255   1.593  1.1067 -1.7708 -0.4887
  382SOL     OW 1144   1.818   0.834   0.255 -0.3679 -0.2137 -0.3717
  382SOL    HW1 1145   1.855   0.772   0.181  1.4684 -0.7111  0.8035
  382SOL    HW2 1146   1.885   0.854   0.332 -0.0749 -0.0076  1.6237
  383SOL     OW 1147   2.563   0.989   1.454 -0.2571 -0.3577  0.0392
  383SOL    HW1 1148   2.472   0.951   1.445  2.9585  0.6536  0.5348
  383SOL    HW2 1149   2.617   0.965   1.371 -0.4325 -1.9434 -0.9763
  384SOL     OW 1150   0.902   2.309   0.223  0.6009 -0.3597  0.5605
  384SOL    HW1 1151   0.825   2.382   0.226  0.0288 -2.4725 -1.2444
  384SOL    HW2 1152   0.923   2.263   0.317  1.8078 -0.3223  2.0163
  385SOL     OW 1153   2.977   2.074   1.669 -0.0971 -0.7553 -0.1074
  385SOL    HW1 1154   3.055   2.141   1.689  1.6431  1.1509 -0.1380
  385SOL    HW2 1155   2.997   1.976   1.691 -0.2325 -0.0925 -0.4599
  386SOL     OW 1156   0.466   1.025   0.446  0.5746  0.3318  0.2913
  386SOL    HW1 1157   0.463   0.931   0.492  3.1215  1.7130 -0.3383
  386SOL    HW2 1158   0.372   1.067   0.425 -2.0869  2.6713 -4.0315
  387SOL     OW 1159   1.011   0.355   1.681 -0.3458 -0.5460  0.0216
  387SOL    HW1 1160   1.068   0.445   1.672 -1.5068  2.1695 -2.3312
  387SOL    HW2 1161   0.985   0.311   1.590 -0.2520  0.8389 -0.7769
  388SOL     OW 1162   1.201   2.686   1.736  0.6779  0.1447 -0.0836
  388SOL    HW1 1163   1.252   2.737   1.659  0.2075  0.9424 -0.7075
  388SOL    HW2 1164   1.260   2.611   1.780 -1.7516 -0.5331  0.2259
  389SOL     OW 1165   0.167   2.912   1.356 -0.1190 -0.0502 -0.3410
  389SOL    HW1 1166   0.062   2.915   1.342 -1.2215  0.5194  0.4857
  389SOL    HW2 1167   0.209   2.819   1.332 -0.4577 -1.1259  3.2799
  390SOL     OW 1168   1.029   0.953   1.375 -0.0625  0.3469 -0.3867
  390SOL    HW1 1169   1.106   0.930   1.444 -0.1130  1.3826  0.0361
  390SOL    HW2 1170   1.001   1.054   1.372 -2.8638  0.3297  0.9127
  391SOL     OW 1171   2.185   1.126   1.082  0.1671 -0.8431  0.4861
  391SOL    HW1 1172   2.151   1.063   1.164  1.5328 -1.5054  3.7872
  391SOL    HW2 1173   2.216   1.074   0.997  3.3163 -0.5875  1.2010
  392SOL     OW 1174   0.892   2.644   0.065 -0.6398 -0.1081  0.6333
  392SOL    HW1 1175   0.964   2.575   0.044  0.8101 -0.4307  3.1397
  392SOL    HW2 1176   0.818   2.597   0.122  1.7754  2.1380  0.5872
  393SOL     OW 1177   0.279   0.642   2.008 -0.2699  0.4437 -0.4845
  393SOL    HW1 1178   0.207   0.565   2.010  0.7055 -0.5336 -2.0028
  393SOL    HW2 1179   0.344   0.625   1.930  2.5159  2.4077 -0.7923
  394SOL     OW 1180   3.027   1.969   2.728  0.3375 -0.2064 -0.9026
  394SOL    HW1 1181   3.127   1.962   2.762  0.9844 -0.2115  2.0310
  394SOL    HW2 1182   3.011   1.905   2.652  1.3517  1.7458  1.2398
  395SOL     OW 1183   1.621   1.940   0.570 -0.0746 -0.0563  0.5743
  395SOL    HW1 1184   1.676   1.853   0.571 -0.0492 -0.5894  2.0252
  395SOL    HW2 1185   1.658   2.019   0.628 -0.4534  0.4853  0.9499
  396SOL     OW 1186   2.835   1.842   1.296  0.2087 -0.2661  0.0973
  396SOL    HW1 1187   2.866   1.746   1.285  0.4149  1.4882 -0.1656
  396SOL    HW2 1188   2.740   1.854   1.339 -2.0837  2.0580 -1.3805
  397SOL     OW 1189   1.016   2.210   0.511  0.2715  0.0482 -0.2561
  397SOL    HW1 1190   0.911   2.191   0.525  0.0029 -2.1395  2.3125
  397SOL    HW2 1191   1.035   2.307   0.542 -0.7922 -0.3394 -0.1612
  398SOL     OW 1192   2.124   3.092   1.095  0.1765 -0.4670  0.1954
  398SOL    HW1 1193   2.041   3.030   1.120  0.1982 -1.5375 -0.1181
  398SOL    HW2 1194   2.095   3.183   1.058 -0.4646 -2.2143 -1.5747
  399SOL     OW 1195   3.043   2.470   2.608  0.0580 -0.4912  0.8433
  399SOL    HW1 1196   2.941   2.459   2.589  1.3130  1.4249  1.1247
  399SOL    HW2 1197   3.081   2.389   2.655 -1.3336 -0.4457  2.2018
  400SOL     OW 1198   0.718   1.661   1.374 -0.5861 -0.3349 -0.0134
  400SOL    HW1 1199   0.681   1.678   1.474 -0.8094  0.0595 -0.3556
  400SOL    HW2 1200   0.716   1.743   1.310 -1.6598 -0.0264 -1.6497
  401SOL     OW 1201   1.873   0.239   1.157 -0.6816  0.0980  0.0659
  401SOL    HW1 1202   1.901   0.250   1.252 -1.8197  0.9196 -0.0046
  401SOL    HW2 1203   1.795   0.301   1.137 -0.2974  1.2602  2.1165
  402SOL     OW 1204   1.352   0.234   3.087  0.2172  0.4781  0.2576
  402SOL    HW1 1205   1.424   0.198   3.018 -0.3858 -0.8486 -0.1019
  402SOL    HW2 1206   1.297   0.322   3.063  0.2674  2.1845  0.6928
  403SOL     OW 1207   2.288   1.814   0.908 -0.3973  0.6159 -0.3303
  403SOL    HW1 1208   2.373   1.848   0.864 -2.3266 -1.9265  2.5658
  403SOL    HW2 1209   2.260   1.865   0.988 -1.0366 -2.4167 -0.6097
  404SOL     OW 1210   0.197   2.474   2.761  0.0034  0.2997 -0.2611
  404SOL    HW1 1211   0.288   2.427   2.745 -0.9453  0.9759 -2.4565
  404SOL    HW2 1212   0.198   2.576   2.778  0.7031  0.1911  1.6245
  405SOL     OW 1213   0.087   2.466   0.745  0.1843 -0.7251  0.2707
  405SOL    HW1 1214   0.079   2.379   0.692 -1.4565 -2.1286 -0.4559
  405SOL    HW2 1215   0.181   2.512   0.750  4.0642 -1.2554 -1.7243
  406SOL     OW 1216   0.047   1.582   3.089  0.5079 -0.1127  0.1423
  406SOL    HW1 1217   0.095   1.523   3.020 -2.7778 -0.3812 -0.1338
  406SOL    HW2 1218   0.087   1.569   3.185  1.5274  2.1714  1.9520
  407SOL     OW 1219   1.557   0.881   0.960  0.2553 -0.2324 -0.3925
  407SOL    HW1 1220   1.606   0.901   0.871  0.9725 -0.8861  0.4963
  407SOL    HW2 1221   1.493   0.961   0.993 -2.3659 -0.1061  0.6673
  408SOL     OW 1222   1.588   2.410   0.987 -0.0591 -0.2755 -0.0750
  408SOL    HW1 1223   1.643   2.384   0.904  0.3712 -1.4367  0.5329
  408SOL    HW2 1224   1.545   2.507   0.978 -0.4350 -0.0957 -0.7016
  409SOL     OW 1225   0.651   0.784   0.771  0.0139  1.3098 -0.1707
  409SOL    HW1 1226   0.583   0.788   0.691 -0.5261 -0.9114  1.1177
  409SOL    HW2 1227   0.667   0.688   0.815 -0.7890 -0.4443  1.0670
  410SOL     OW 1228   1.250   2.029   1.408  0.0457  0.0128 -0.8361
  410SOL    HW1 1229   1.321   1.951   1.390 -0.4013 -1.8830 -0.3304
  410SOL    HW2 1230   1.162   2.004   1.449  2.8475  0.4306  3.0271
  411SOL     OW 1231   2.544   1.833   3.016 -0.9646  0.0084 -0.2935
  411SOL    HW1 1232   2.595   1.924   3.025  0.0187 -1.3402 -0.7278
  411SOL    HW2 1233   2.494   1.828   2.926 -0.5395 -2.2183 -0.3145
  412SOL     OW 1234   1.497   2.460   2.146 -0.4561  0.1099  0.0968
  412SOL    HW1 1235   1.578   2.461   2.214 -0.8136 -1.1204  1.7204
  412SOL    HW2 1236   1.401   2.478   2.184 -2.0495 -2.2873  0.5662
  413SOL     OW 1237   0.002   0.186   2.941 -0.4027 -0.2134  0.3875
  413SOL    HW1 1238  -0.060   0.117   2.988  0.5167  1.7357  1.0643
  413SOL    HW2 1239   0.093   0.193   2.987 -1.8456 -0.0157 -1.1238
  414SOL     OW 1240   1.781   1.499   1.204 -0.5488 -0.0263  0.3451
  414SOL    HW1 1241   1.756   1.599   1.211 -3.6428 -0.5692 -0.7208
  414SOL    HW2 1242   1.785   1.476   1.100 -0.7392 -1.3216 -0.4559
  415SOL     OW 1243   0.336   2.229   0.688 -0.3784 -0.3464 -0.1200
  415SOL    HW1 1244   0.327   2.231   0.790  1.5411 -1.6436  3.7126
  415SOL    HW2 1245   0.246   2.226   0.638  0.1662  1.5404 -2.5368
  416SOL     OW 1246   0.346   1.046   1.054 -0.2259 -0.1511 -0.3947
  416SOL    HW1 1247   0.289   0.992   0.985 -0.4517  1.1296  1.1632
  416SOL    HW2 1248   0.446   1.043   1.027 -1.6831 -1.7514 -3.7287
  417SOL     OW 1249   2.305   2.415   2.051  0.7212  0.5475  0.2488
  417SOL    HW1 1250   2.332   2.320   2.022 -2.3724  1.3832 -0.5813
  417SOL    HW2 1251   2.262   2.431   2.144 -1.7792  3.1969 -0.1255
  418SOL     OW 1252   1.064   0.514   1.345 -0.0889 -0.7642  0.0698
  418SOL    HW1 1253   0.981   0.462   1.323  0.5566  0.0009 -2.2268
  418SOL    HW2 1254   1.118   0.525   1.260 -0.9222 -0.0601 -2.8572
  419SOL     OW 1255   0.933   0.522   2.963  0.0573 -0.4392  0.1434
  419SOL    HW1 1256   0.875   0.554   2.879 -1.2340  3.0480  1.7353
  419SOL    HW2 1257   0.914   0.583   3.045  0.2872 -2.3226 -2.3353
  420SOL     OW 1258   0.118   2.204   0.533 -0.0663 -0.0556 -0.7184
  420SOL    HW1 1259   0.152   2.221   0.439  3.5742  0.5293 -0.1479
  420SOL    HW2 1260   0.046   2.132   0.545  1.7270 -1.0782 -1.6283
  421SOL     OW 1261   0.334   2.941   0.595 -0.4650 -0.7019 -0.0978
  421SOL    HW1 1262   0.287   2.903   0.680 -0.4871  1.4648 -0.2074
  421SOL    HW2 1263   0.415   3.003   0.613  0.8973 -2.2422 -0.5277
  422SOL     OW 1264   0.993   2.620   1.032  0.4230 -0.0845 -0.0611
  422SOL    HW1 1265   1.040   2.684   0.963  0.6279  1.8429  1.7957
  422SOL    HW2 1266   1.048   2.613   1.114 -1.2549 -1.5322 -1.5825
  423SOL     OW 1267   0.139   0.757   1.201 -0.5403 -0.1638  0.4713
  423SOL    HW1 1268   0.071   0.702   1.255 -1.7292  0.3477  1.6401
  423SOL    HW2 1269   0.110   0.851   1.182  1.1333  0.8689  0.6196
  424SOL     OW 1270   1.170   2.208   2.034  0.4483  0.5839  0.1207
  424SOL    HW1 1271   1.126   2.300   2.022  0.0426 -1.2052  1.7776
  424SOL    HW2 1272   1.138   2.168   2.124 -1.3431  1.8065 -1.4332
  425SOL     OW 1273   2.003   1.309   0.993  0.0685  0.2304 -0.6168
  425SOL    HW1 1274   2.081   1.242   1.021  0.6996 -1.2876 -0.4429
  425SOL    HW2 1275   2.033   1.410   0.976  2.0594 -0.5661  3.4146
  426SOL     OW 1276   1.424   1.614   1.238 -0.0129 -0.2587 -0.1546
  426SOL    HW1 1277   1.472   1.693   1.195  0.2249  2.5518  0.7681
  426SOL    HW2 1278   1.367   1.648   1.322  0.5129  0.7782 -0.8920
  427SOL     OW 1279   1.908   2.344   2.057  0.4366  0.6592  0.6764
  427SOL    HW1 1280   1.964   2.280   2.110  1.4873 -1.3834 -1.8185
  427SOL    HW2 1281   1.924   2.444   2.081  1.5821 -1.8354 -1.3978
  428SOL     OW 1282   0.856  -0.001   0.102  0.2283  0.6324 -0.3536
  428SOL    HW1 1283   0.874   0.085   0.044 -4.1127  2.0259  1.0112
  428SOL    HW2 1284   0.938  -0.060   0.128 -1.1885  0.6086  2.4066
  429SOL     OW 1285   1.314   0.146   0.239 -0.4201  0.2688  0.2981
  429SOL    HW1 1286   1.415   0.131   0.269  0.6326  2.7568 -1.6322
  429SOL    HW2 1287   1.310   0.200   0.148 -0.9575  0.6588 -2.4104
  430SOL     OW 1288   2.912   1.391   0.300  0.1250  0.0936 -0.0480
  430SOL    HW1 1289   2.894   1.458   0.226  2.4869 -2.0627  3.4054
  430SOL    HW2 1290   2.932   1.433   0.396 -1.1398 -0.7237 -1.3332
  431SOL     OW 1291   2.052   1.603   0.933 -0.3019 -0.0029 -0.3242
  431SOL    HW1 1292   2.143   1.654   0.927  1.3613 -1.0911 -2.0363
  431SOL    HW2 1293   1.971   1.664   0.909  0.9103  0.2796  0.2590
  432SOL     OW 1294   2.947   2.148   1.206  0.0530  0.1416  0.5298
  432SOL    HW1 1295   2.900   2.103   1.285 -0.7706 -0.4192 -0.9215
  432SOL    HW2 1296   2.996   2.234   1.241  0.5947 -0.9621  1.3741
  433SOL     OW 1297   1.839   0.222   0.804 -0.2294 -0.8966 -0.5711
  433SOL    HW1 1298   1.826   0.310   0.843  2.6322 -4.7252  0.7922
  433SOL    HW2 1299   1.861   0.155   0.880  0.2095  0.2525 -0.9357
  434SOL     OW 1300   1.600   0.337   0.673 -0.0754 -0.1443 -0.2106
  434SOL    HW1 1301   1.570   0.423   0.634  1.7781  0.1155  2.0109
  434SOL    HW2 1302   1.615   0.334   0.776 -0.9815  0.1872 -0.3958
  435SOL     OW 1303   1.567   1.440   2.030 -0.0372  0.0660 -0.0128
  435SOL    HW1 1304   1.559   1.481   2.126  2.0995  0.3279  1.6225
  435SOL    HW2 1305   1.598   1.507   1.961 -0.8805 -3.6867 -1.5913
  436SOL     OW 1306   1.705   2.733   2.228 -0.0417 -0.1531  0.0619
  436SOL    HW1 1307   1.662   2.808   2.285 -0.6516 -1.8472 -0.8543
  436SOL    HW2 1308   1.693   2.642   2.270 -1.1947 -1.8338  0.3128
  437SOL     OW 1309   1.091   2.931   0.923  0.0686 -0.7859 -0.7696
  437SOL    HW1 1310   1.027   3.016   0.916 -1.2071  0.1298 -1.9001
  437SOL    HW2 1311   1.099   2.895   1.022  1.8565 -0.7602 -0.6809
  438SOL     OW 1312   1.013   2.673   1.392  0.0418  0.0013  0.7163
  438SOL    HW1 1313   1.120   2.688   1.392  2.2056  2.6193  1.9557
  438SOL    HW2 1314   0.979   2.580   1.410 -0.0677  0.0894  3.8282
  439SOL     OW 1315   0.674   1.827   1.072 -0.2241 -0.1652 -0.0747
  439SOL    HW1 1316   0.670   1.930   1.052  1.6332 -0.6623 -1.7460
  439SOL    HW2 1317   0.581   1.780   1.064  0.8862  0.5028 -2.5951
  440SOL     OW 1318   1.095   2.460   1.976 -0.1514  0.2537 -0.3413
  440SOL    HW1 1319   1.035   2.503   1.906  1.9524  1.0067  1.3594
  440SOL    HW2 1320   1.196   2.481   1.959 -0.9408  0.1094  1.0520
  441SOL     OW 1321   0.412   2.701   1.531  0.5010 -0.1675  0.0839
  441SOL    HW1 1322   0.489   2.639   1.501 -3.0361 -0.8272  1.0128
  441SOL    HW2 1323   0.331   2.698   1.468 -1.7757 -1.3344  0.9197
  442SOL     OW 1324   2.245   0.729   2.513  0.4886 -0.4212  0.7038
  442SOL    HW1 1325   2.238   0.626   2.536  1.5008 -0.1944 -0.5094
  442SOL    HW2 1326   2.154   0.771   2.543  1.3567 -2.7940  1.3726
  443SOL     OW 1327   1.188   2.689   2.190  0.0992  0.4704  0.2629
  443SOL    HW1 1328   1.224   2.759   2.260 -3.8195  0.9742 -0.2667
  443SOL    HW2 1329   1.198   2.589   2.219 -0.3970 -0.0144 -1.0626
  444SOL     OW 1330   1.004   1.321   1.590 -0.5348 -0.1537  0.3341
  444SOL    HW1 1331   1.107   1.306   1.594 -0.5507 -0.0221  1.2228
  444SOL    HW2 1332   0.980   1.420   1.598 -1.0297 -0.6283 -0.6740
  445SOL     OW 1333   3.067   2.373   1.978  0.0738  0.3738  0.5226
  445SOL    HW1 1334   3.064   2.451   1.907 -2.0273  0.1656 -0.2811
  445SOL    HW2 1335   2.968   2.343   1.995 -0.1489  0.6322 -0.7320
  446SOL     OW 1336   0.198   1.913   2.344  0.5108 -0.0956 -0.2641
  446SOL    HW1 1337   0.162   2.003   2.385  0.1713 -2.1015  5.1467
  446SOL    HW2 1338   0.127   1.857   2.294  1.6686  2.4058 -0.0887
  447SOL     OW 1339   1.194   1.692   1.959 -0.3899 -0.7228 -0.3643
  447SOL    HW1 1340   1.142   1.768   1.912  0.8985 -1.2718 -0.8784
  447SOL    HW2 1341   1.295   1.715   1.973 -0.3562  0.5355 -0.9267
  448SOL     OW 1342   0.092   1.472   1.964  0.0125  0.3065 -0.2249
  448SOL    HW1 1343   0.075   1.571   1.953  0.0057  0.4718  0.0558
  448SOL    HW2 1344   0.124   1.455   2.065 -2.2555  2.1301  3.3588
  449SOL     OW 1345   1.993   2.995   0.857  0.0325  0.1502  0.4043
  449SOL    HW1 1346   2.062   3.018   0.928 -0.7794  1.2918 -2.8591
  449SOL    HW2 1347   1.985   2.895   0.828 -1.3315 -0.3105 -1.6652
  450SOL     OW 1348   2.270   1.367   0.850  0.0650  0.3257  0.8229
  450SOL    HW1 1349   2.246   1.265   0.845  3.1308 -1.9531 -1.0767
  450SOL    HW2 1350   2.211   1.435   0.804  2.0318  1.7124  0.7022
  451SOL     OW 1351   1.438   0.029   1.459 -0.2465  0.0044 -0.0909
  451SOL    HW1 1352   1.366   0.103   1.468  0.3808 -0.8174  0.6598
  451SOL    HW2 1353   1.461  -0.013   1.550  0.3653  0.9119 -1.8696
  452SOL     OW 1354   2.663   2.315   2.250  0.2249 -0.1781  0.4998
  452SOL    HW1 1355   2.634   2.410   2.252 -1.5918 -2.8873 -1.7210
  452SOL    HW2 1356   2.688   2.278   2.344 -1.0021  1.3797  0.0136
  453SOL     OW 1357   2.435   2.612   3.057  0.0779 -0.2025 -0.0538
  453SOL    HW1 1358   2.355   2.672   3.094  0.4291  0.9227  0.0320
  453SOL    HW2 1359   2.419   2.567   2.965 -0.5748 -0.5296  0.2579
  454SOL     OW 1360   0.955   1.111   2.097 -0.5237 -0.2494 -0.4438
  454SOL    HW1 1361   0.939   1.162   2.010 -1.8877 -1.8911  0.8429
  454SOL    HW2 1362   1.052   1.110   2.121 -2.3948 -2.0697  1.0079
  455SOL     OW 1363   0.728   2.644   2.893 -0.2718 -0.6889  0.5319
  455SOL    HW1 1364   0.792   2.716   2.941 -1.1205  0.0609  1.3074
  455SOL    HW2 1365   0.703   2.569   2.957  0.8429 -1.1195 -0.6424
  456SOL     OW 1366   0.545   1.779   0.275  0.3233 -0.2696  0.0398
  456SOL    HW1 1367   0.602   1.737   0.354  0.7607 -0.9904 -2.8652
  456SOL    HW2 1368   0.560   1.883   0.263  0.0161  1.6702 -2.8950
  457SOL     OW 1369   0.314   2.598   0.732 -0.0969 -0.3142 -0.5493
  457SOL    HW1 1370   0.336   2.622   0.630  2.9685  1.8023 -1.4415
  457SOL    HW2 1371   0.400   2.566   0.784  0.2290  1.0059 -1.8283
  458SOL     OW 1372   2.970   2.994   1.257 -0.1425 -0.7598 -0.2335
  458SOL    HW1 1373   3.037   3.075   1.234  0.0260  0.6646 -2.5870
  458SOL    HW2 1374   2.914   2.966   1.173  0.9361 -5.1776 -1.2607
  459SOL     OW 1375   2.093   2.517   0.921 -0.4141 -0.2399  0.4035
  459SOL    HW1 1376   2.121   2.588   0.991 -0.0203 -0.5227  0.7403
  459SOL    HW2 1377   2.164   2.510   0.839  0.2578  1.2263 -2.7862
  460SOL     OW 1378   1.081   1.926   2.914 -0.7048 -0.3024 -0.3457
  460SOL    HW1 1379   1.113   2.018   2.873  0.3881  0.3483 -5.4761
  460SOL    HW2 1380   1.156   1.876   2.970  0.4022  0.0019  0.6004
  461SOL     OW 1381   0.492   2.112   2.706  0.5348  0.2374 -0.0802
  461SOL    HW1 1382   0.417   2.050   2.672 -2.5068 -0.0353  3.9019
  461SOL    HW2 1383   0.558   2.072   2.775  1.4770  0.0507 -1.3196
  462SOL     OW 1384   0.941   1.203   1.852  0.1371 -0.1960 -0.3801
  462SOL    HW1 1385   0.978   1.111   1.808  0.2980  1.2722 -0.7430
  462SOL    HW2 1386   0.928   1.271   1.781  1.0462 -3.3125  1.5598
  463SOL     OW 1387   0.462   0.799   0.578 -0.2542 -0.0341 -0.7882
  463SOL    HW1 1388   0.494   0.712   0.528  2.7181 -1.0342 -0.0351
  463SOL    HW2 1389   0.363   0.786   0.614  0.2893  1.2776  0.9001
  464SOL     OW 1390   0.511   2.235   2.241 -0.1086  0.2880 -0.7122
  464SOL    HW1 1391   0.476   2.275   2.330 -1.6030  0.3889 -0.6751
  464SOL    HW2 1392   0.519   2.302   2.165  0.1715  0.1157 -1.1859
  465SOL     OW 1393   0.229   0.882   0.875  0.2322  0.7525  0.5563
  465SOL    HW1 1394   0.142   0.907   0.821 -1.4009  0.6425 -0.1439
  465SOL    HW2 1395   0.251   0.776   0.884  0.6759 -1.7111  0.1665
  466SOL     OW 1396   1.376   1.100   1.067  0.0692 -0.6118 -0.5746
  466SOL    HW1 1397   1.454   1.173   1.067 -1.1538  0.9247  1.0898
  466SOL    HW2 1398   1.283   1.144   1.063  0.2326 -0.2460  0.0124
  467SOL     OW 1399   0.455   0.370   2.374 -0.1344  0.1224  0.3322
  467SOL    HW1 1400   0.434   0.458   2.427 -0.3351  1.4706  0.9074
  467SOL    HW2 1401   0.457   0.282   2.433  0.5929  0.6767 -0.8368
  468SOL     OW 1402   0.476   2.245   1.676  0.2439 -0.3710  0.2519
  468SOL    HW1 1403   0.529   2.312   1.734 -1.1596  1.4863  0.3571
  468SOL    HW2 1404   0.439   2.297   1.592 -2.1662 -0.0069  1.2129
  469SOL     OW 1405   1.548   1.320   1.123  0.3714 -0.7498 -0.1623
  469SOL    HW1 1406   1.633   1.268   1.097 -0.8180  0.4135  0.4879
  469SOL    HW2 1407   1.553   1.390   1.201 -1.7583  1.1736  0.8037
  470SOL     OW 1408   3.025   1.666   0.731  0.1597 -0.4440  0.4722
  470SOL    HW1 1409   3.111   1.718   0.768 -1.6547  2.2989  0.0620
  470SOL    HW2 1410   2.936   1.684   0.785  1.9993  1.2276 -1.5893
  471SOL     OW 1411   2.695   1.303   2.119  0.1063 -0.2236  0.0417
  471SOL    HW1 1412   2.638   1.256   2.194 -0.7086 -1.5863  1.2910
  471SOL    HW2 1413   2.738   1.389   2.157  0.0449 -0.3979  0.0402
  472SOL     OW 1414   1.100   2.465   3.086 -0.0376 -0.3302  0.0311
  472SOL    HW1 1415   1.165   2.462   3.167  0.5897  1.5576 -0.5982
  472SOL    HW2 1416   1.058   2.371   3.070  2.2099  0.5928 -0.4408
  473SOL     OW 1417   1.090   1.576   0.896 -0.1611  0.1486 -0.3074
  473SOL    HW1 1418   1.000   1.611   0.937  0.8341 -0.9011 -3.1155
  473SOL    HW2 1419   1.155   1.531   0.968  0.9950 -2.2996  0.4673
  474SOL     OW 1420   0.829   1.195   0.725 -0.1943 -0.2307 -0.0610
  474SOL    HW1 1421   0.779   1.196   0.634  0.0452 -1.3509  0.7880
  474SOL    HW2 1422   0.885   1.110   0.734 -0.7315  0.8822 -0.8042
  475SOL     OW 1423   2.882   0.083   0.740 -0.3815  0.1614 -0.4706
  475SOL    HW1 1424   2.962   0.055   0.806  1.2396  0.5089 -1.6624
  475SOL    HW2 1425   2.788   0.083   0.789 -3.3034 -0.3421 -0.7227
  476SOL     OW 1426   0.887   3.075   1.816 -0.1136  0.2018  0.0429
  476SOL    HW1 1427   0.947   3.008   1.862 -3.2849  0.8866  0.8891
  476SOL    HW2 1428   0.863   3.050   1.720  0.5771  2.0994  0.7805
  477SOL     OW 1429   1.422   0.322   2.431  0.5168 -0.0405 -0.0650
  477SOL    HW1 1430   1.397   0.341   2.532  1.9072  1.6217 -0.5273
  477SOL    HW2 1431   1.525   0.302   2.420  1.1785 -2.2997 -0.3496
  478SOL     OW 1432   2.312   1.812   0.231  0.5791  0.2224 -0.0009
  478SOL    HW1 1433   2.250   1.726   0.229  0.1324  2.7197 -1.0762
  478SOL    HW2 1434   2.413   1.792   0.205  2.5498  1.1430 -1.7400
  479SOL     OW 1435   1.295   1.077   2.895 -0.9590  0.2881  0.7213
  479SOL    HW1 1436   1.373   1.048   2.834 -2.5851  0.2743  2.3640
  479SOL    HW2 1437   1.207   1.037   2.868  0.0227  1.4359 -0.8550
  480SOL     OW 1438   2.468   2.350   0.385 -0.2482  0.0065  0.0178
  480SOL    HW1 1439   2.439   2.263   0.436  0.0542 -1.1029 -0.8909
  480SOL    HW2 1440   2.430   2.356   0.293  0.3285 -1.5345  2.5487
  481SOL     OW 1441   1.135   1.160   0.774  0.0418  0.2548  0.3270
  481SOL    HW1 1442   1.124   1.252   0.725 -0.6873  0.3550 -0.3806
  481SOL    HW2 1443   1.120   1.156   0.878  0.9667 -1.5314  0.7723
  482SOL     OW 1444   1.606   0.311   2.041  0.5340 -0.2877 -0.5070
  482SOL    HW1 1445   1.615   0.412   2.005 -0.0756  0.9770  0.4915
  482SOL    HW2 1446   1.692   0.280   2.082 -3.4004  0.6351  1.0839
  483SOL     OW 1447   0.142   2.336   1.296  0.1869  0.1883  0.2644
  483SOL    HW1 1448   0.041   2.364   1.300  0.6724  1.5460 -0.3750
  483SOL    HW2 1449   0.180   2.359   1.198  0.7458 -0.5771  0.0641
  484SOL     OW 1450   1.732   0.989   1.394 -0.3644 -0.1079 -0.3429
  484SOL    HW1 1451   1.744   0.889   1.383  0.9546 -0.0996  0.8554
  484SOL    HW2 1452   1.812   1.036   1.437  1.0488  1.5044 -1.8847
  485SOL     OW 1453   0.703   1.105   1.776  0.5313  0.3383 -0.6892
  485SOL    HW1 1454   0.718   1.087   1.677 -0.2509 -0.8135  1.4926
  485SOL    HW2 1455   0.783   1.154   1.825 -0.6717  0.5918 -1.5914
  486SOL     OW 1456   0.912   1.940   2.467 -0.1015 -0.6092  0.3816
  486SOL    HW1 1457   0.970   1.898   2.544  0.2937 -1.4911 -1.1203
  486SOL    HW2 1458   0.815   1.976   2.491  2.0602  0.5399 -1.0966
  487SOL     OW 1459   1.747   1.491   0.919  0.7265 -0.1819 -0.6626
  487SOL    HW1 1460   1.729   1.402   0.880 -1.7521  1.5062  1.0042
  487SOL    HW2 1461   1.795   1.561   0.866 -2.6606  0.2711 -0.0250
  488SOL     OW 1462   2.974   0.936   2.232 -0.1339  0.5487  0.4393
  488SOL    HW1 1463   2.986   0.838   2.190  0.8919 -2.4464  0.9721
  488SOL    HW2 1464   3.004   0.936   2.330 -1.2935  0.0202 -0.8785
  489SOL     OW 1465   2.770   0.265   1.322  0.5799 -0.7077 -0.3826
  489SOL    HW1 1466   2.717   0.213   1.399  2.2702 -0.0085  0.8694
  489SOL    HW2 1467   2.865   0.234   1.308 -1.8188 -1.4114 -0.0208
  490SOL     OW 1468   1.415   2.970   2.860 -0.0674  0.1352  0.6270
  490SOL    HW1 1469   1.455   2.879   2.837 -4.7798  0.5411  1.2333
  490SOL    HW2 1470   1.373   3.002   2.770  2.4434  1.3056  0.6028
  491SOL     OW 1471   1.869   1.582   2.696  0.4483 -0.2824 -0.7117
  491SOL    HW1 1472   1.799   1.599   2.774  2.0753  4.4472  1.3495
  491SOL    HW2 1473   1.967   1.568   2.729 -2.4697  0.3344  3.6759
  492SOL     OW 1474   0.459   1.966   0.740  0.0145 -0.6523 -0.3926
  492SOL    HW1 1475   0.524   1.962   0.823  1.1100 -2.8578 -0.0319
  492SOL    HW2 1476   0.445   2.062   0.701 -0.0487 -0.5303  2.9946
  493SOL     OW 1477   0.425   1.399   2.102  0.2832  0.7332  0.0757
  493SOL    HW1 1478   0.375   1.490   2.099 -0.3686 -0.8996  1.1571
  493SOL    HW2 1479   0.413   1.355   2.196 -0.9560 -2.4683 -1.6577
  494SOL     OW 1480   2.641   2.656   0.123 -0.1286 -0.1836  0.1844
  494SOL    HW1 1481   2.659   2.589   0.198 -0.3497  1.7023 -1.3777
  494SOL    HW2 1482   2.567   2.629   0.054 -0.5304 -1.1944 -0.1326
  495SOL     OW 1483   2.741   2.679   2.688  0.4777  0.2675  0.0651
  495SOL    HW1 1484   2.749   2.581   2.647 -2.2887 -1.3999  1.5509
  495SOL    HW2 1485   2.760   2.749   2.617 -3.0301  0.0078 -0.7720
  496SOL     OW 1486   2.106   2.207   0.742  0.1431 -0.0610 -0.1290
  496SOL    HW1 1487   2.048   2.201   0.825 -2.6700 -3.8046  1.3579
  496SOL    HW2 1488   2.145   2.117   0.706 -1.2415 -0.0135 -1.0301
  497SOL     OW 1489   0.230   2.983   2.400  0.3742 -0.1486  0.0046
  497SOL    HW1 1490   0.176   3.050   2.462 -0.3074 -0.7339 -0.0281
  497SOL    HW2 1491   0.262   3.038   2.316 -0.0934  0.8655  2.1445
  498SOL     OW 1492   1.210   1.483   1.125 -0.4902 -0.1215 -0.3561
  498SOL    HW1 1493   1.298   1.508   1.183 -2.3052  0.3274  0.1370
  498SOL    HW2 1494   1.122   1.498   1.179 -0.3120  2.7039  0.8502
  499SOL     OW 1495   0.848   1.798   0.537  0.0097 -0.6562 -0.2498
  499SOL    HW1 1496   0.799   1.704   0.553 -0.3422  1.0648 -1.3471
  499SOL    HW2 1497   0.848   1.860   0.623  1.5335 -0.4648  1.1535
  500SOL     OW 1498   1.403   2.983   1.750  0.3239  0.0786 -0.1609
  500SOL    HW1 1499   1.433   3.023   1.840 -0.1001 -1.3459  0.6487
  500SOL    HW2 1500   1.466   2.901   1.721  1.4950  0.8191 -2.3173
  501SOL     OW 1501   0.745   1.144   2.250  0.3951 -0.0727 -0.0650
  501SOL    HW1 1502   0.664   1.082   2.238 -1.7396 -0.6893 -1.7346
  501SOL    HW2 1503   0.824   1.129   2.177 -0.0210  1.7515 -2.0100
  502SOL     OW 1504   2.612   0.959   1.732  0.1120  0.4933 -0.2751
  502SOL    HW1 1505   2.607   0.948   1.626  2.2266 -0.9332  0.8571
  502SOL    HW2 1506   2.576   0.876   1.789 -2.2195  0.9440  2.0946
  503SOL     OW 1507   1.348   0.188   0.613 -0.6362 -0.1176  0.4047
  503SOL    HW1 1508   1.277   0.260   0.582 -0.8390 -0.0266 -2.9187
  503SOL    HW2 1509   1.438   0.235   0.624  1.7068 -1.6531 -0.2553
  504SOL     OW 1510   2.969   2.359   1.391 -0.8627  0.0385  0.3891
  504SOL    HW1 1511   2.981   2.449   1.454  1.1583  1.8138 -1.2575
  504SOL    HW2 1512   2.890   2.299   1.413  0.5616  1.2126 -0.8888
  505SOL     OW 1513   2.286   1.232   1.440  0.0781  0.0693 -0.3867
  505SOL    HW1 1514   2.245   1.304   1.377 -1.3995  4.1167 -0.7837
  505SOL    HW2 1515   2.380   1.259   1.482  0.9736 -0.9638 -0.1447
  506SOL     OW 1516   1.904   0.262   1.822 -0.2365  0.0256  0.3338
  506SOL    HW1 1517   2.000   0.236   1.792 -0.3623 -2.5666 -2.4903
  506SOL    HW2 1518   1.891   0.360   1.852 -1.8759 -2.8686  0.8209
  507SOL     OW 1519   0.501   0.641   2.175  0.3842  0.0986  0.1985
  507SOL    HW1 1520   0.424   0.642   2.105  2.0896 -0.5285 -0.3771
  507SOL    HW2 1521   0.554   0.552   2.168  0.0138  2.9133  1.3409
  508SOL     OW 1522   0.226   1.674   0.870 -0.8048 -0.0906 -0.1652
  508SOL    HW1 1523   0.290   1.741   0.829 -1.3688  1.5320  0.6424
  508SOL    HW2 1524   0.250   1.654   0.967 -2.1765 -0.9514 -1.8874
  509SOL     OW 1525   1.356   1.195   2.540  0.7325  0.2097  0.9625
  509SOL    HW1 1526   1.251   1.197   2.538  0.5020  2.0470 -0.7986
  509SOL    HW2 1527   1.388   1.105   2.504 -1.9859 -3.9279 -3.4735
  510SOL     OW 1528   1.343   1.968   2.056  0.1174  0.1686 -0.4916
  510SOL    HW1 1529   1.302   2.061   2.028  0.7712  3.8014 -2.5224
  510SOL    HW2 1530   1.300   1.925   2.138  1.5385  1.3660 -2.7703
  511SOL     OW 1531   0.027   2.643   1.324 -0.2658 -0.0411 -0.3571
  511SOL    HW1 1532  -0.011   2.619   1.232  0.7046  0.5294  0.0177
  511SOL    HW2 1533  -0.041   2.627   1.404 -0.9398 -0.4879 -1.4904
  512SOL     OW 1534   2.413   0.432   1.351 -0.1857 -0.1497 -0.0974
  512SOL    HW1 1535   2.309   0.418   1.356  0.6197  0.0427  3.5703
  512SOL    HW2 1536   2.459   0.370   1.286  1.4507  1.8467 -1.8285
  513SOL     OW 1537   2.490   1.995   0.844 -0.0135  0.2588 -0.1024
  513SOL    HW1 1538   2.446   2.083   0.816  0.2508  1.4639  2.4483
  513SOL    HW2 1539   2.588   1.984   0.808  1.6496  0.4993  2.3984
  514SOL     OW 1540   0.680   2.774   0.375 -0.4259  0.2177  0.0626
  514SOL    HW1 1541   0.629   2.820   0.295  0.3766  1.2477 -0.4437
  514SOL    HW2 1542   0.685   2.833   0.464  1.2361 -0.0097  0.6957
  515SOL     OW 1543   1.969   1.207   2.333 -0.0695  0.4359  0.7478
  515SOL    HW1 1544   1.914   1.231   2.249 -3.1959  0.7340  2.4585
  515SOL    HW2 1545   1.908   1.234   2.413 -2.5824  1.8922  1.4587
  516SOL     OW 1546   0.261   0.298   1.951 -0.3264 -0.0173  0.2704
  516SOL    HW1 1547   0.344   0.290   1.889  0.6098 -0.9000 -1.8827
  516SOL    HW2 1548   0.185   0.235   1.930  1.3456 -0.3904  4.0360
  517SOL     OW 1549   0.349   3.040   1.180  0.2227  0.0060 -0.1694
  517SOL    HW1 1550   0.386   3.137   1.181 -0.1315 -0.2901 -1.9028
  517SOL    HW2 1551   0.299   3.007   1.269 -0.1690  1.3313 -1.0181
  518SOL     OW 1552   2.146   0.142   1.708  0.3643  0.7399 -1.0728
  518SOL    HW1 1553   2.225   0.182   1.760 -2.4686  0.9637 -0.4298
  518SOL    HW2 1554   2.156   0.045   1.683  0.3123  0.2962 -2.0219
  519SOL     OW 1555   2.403   2.190   2.563 -0.6325  0.1578 -0.3807
  519SOL    HW1 1556   2.317   2.166   2.614  0.4704 -0.7983 -2.2437
  519SOL    HW2 1557   2.450   2.283   2.580 -2.2261 -0.1683 -1.9976
  520SOL     OW 1558   1.769   2.888   1.803  0.1262  0.0337 -0.3041
  520SOL    HW1 1559   1.685   2.876   1.871 -1.5419 -0.5156 -1.8352
  520SOL    HW2 1560   1.844   2.815   1.814 -2.1375 -1.8237  0.7105
  521SOL     OW 1561   0.555   0.139   2.132  0.2951  0.5419  0.1358
  521SOL    HW1 1562   0.466   0.105   2.175  2.1249 -0.2860  1.0354
  521SOL    HW2 1563   0.643   0.112   2.187  0.1443  0.1321 -0.7956
  522SOL     OW 1564   0.198   1.913   1.571  0.4442 -0.1293  0.1032
  522SOL    HW1 1565   0.256   1.956   1.646  0.6727  0.6840 -1.5671
  522SOL    HW2 1566   0.193   1.972   1.486 -0.6162 -0.5858  1.8326
  523SOL     OW 1567   2.187   2.947   1.619  0.0005  0.3131  0.1621
  523SOL    HW1 1568   2.248   2.874   1.575 -1.3547  0.2085 -0.8019
  523SOL    HW2 1569   2.096   2.950   1.563 -2.1556  0.0860 -0.6423
  524SOL     OW 1570   0.238   2.735   2.838  0.5506  0.1467  0.1065
  524SOL    HW1 1571   0.201   2.791   2.916 -0.3687 -0.2982 -1.9717
  524SOL    HW2 1572   0.343   2.725   2.839 -2.1962  0.1941 -0.0310
  525SOL     OW 1573   2.148   1.930   0.455 -1.0485  0.4258  0.1293
  525SOL    HW1 1574   2.137   1.859   0.528  0.1957  1.2888 -2.8491
  525SOL    HW2 1575   2.188   1.890   0.372 -0.2000  0.4139  1.0699
  526SOL     OW 1576   0.401   1.523   1.539  0.5174 -0.2565 -0.1119
  526SOL    HW1 1577   0.333   1.485   1.612  0.5197 -0.3515 -1.2850
  526SOL    HW2 1578   0.470   1.451   1.510 -1.1340  0.8073 -1.5971
  527SOL     OW 1579   1.107   2.896   1.192 -0.4592 -0.6846  0.1701
  527SOL    HW1 1580   1.167   2.841   1.252 -1.4219 -1.0880 -0.2906
  527SOL    HW2 1581   1.116   3.001   1.207  0.2034 -0.5797 -2.6259
  528SOL     OW 1582   1.343   2.379   0.457  0.2190  0.2315  0.0569
  528SOL    HW1 1583   1.370   2.279   0.460 -1.9021  1.3377 -1.3101
  528SOL    HW2 1584   1.401   2.439   0.519  1.7898 -0.4614  0.5383
  529SOL     OW 1585   1.848   1.735   0.813 -0.4017  0.1126 -0.4483
  529SOL    HW1 1586   1.838   1.744   0.711  0.6818 -0.6823  0.1482
  529SOL    HW2 1587   1.843   1.827   0.866 -1.0257  2.1896  1.5513
  530SOL     OW 1588   0.317   2.442   0.329  0.2111 -0.1823 -0.7312
  530SOL    HW1 1589   0.302   2.548   0.357  1.1427  1.7231  0.2426
  530SOL    HW2 1590   0.348   2.390   0.411  2.5547  2.2288 -0.0406
  531SOL     OW 1591   1.825   0.830   1.041  0.3339 -0.5581 -0.3032
  531SOL    HW1 1592   1.877   0.838   0.950  3.3887 -2.3420 -4.1041
  531SOL    HW2 1593   1.728   0.854   1.039  0.0841 -1.5779  0.1821
  532SOL     OW 1594   0.495   1.078   0.722 -0.0837  0.3945  0.0875
  532SOL    HW1 1595   0.476   1.068   0.624 -1.4706 -0.8430  1.2157
  532SOL    HW2 1596   0.435   1.015   0.777  1.3736 -0.5994  2.1157
  533SOL     OW 1597   1.776   0.043   2.549  0.2808  0.1862 -0.1309
  533SOL    HW1 1598   1.876   0.025   2.543 -2.2031 -0.6610  0.8703
  533SOL    HW2 1599   1.743   0.106   2.623 -1.0195 -1.7655 -0.9352
  534SOL     OW 1600   0.406   0.171   1.538 -0.3246 -0.4397  0.3637
  534SOL    HW1 1601   0.499   0.185   1.582 -0.2363  0.2887  1.8324
  534SOL    HW2 1602   0.347   0.257   1.525 -0.8315 -1.1698  0.0272
  535SOL     OW 1603   1.918   0.354   0.195  0.0763 -0.3968  0.2598
  535SOL    HW1 1604   1.935   0.432   0.265  1.9800 -2.2904  4.3629
  535SOL    HW2 1605   1.919   0.260   0.235  1.9304  0.3975  0.7311
  536SOL     OW 1606   1.376   2.638   0.930 -0.4792 -0.2693  0.4676
  536SOL    HW1 1607   1.356   2.585   1.018 -0.6059  0.8033 -1.5054
  536SOL    HW2 1608   1.294   2.666   0.876  4.9920  1.9702  0.6090
  537SOL     OW 1609   0.838   0.281   2.399 -0.3611  0.3675  0.0932
  537SOL    HW1 1610   0.846   0.341   2.316 -1.9604 -0.0025  0.9154
  537SOL    HW2 1611   0.786   0.198   2.380  3.4292  3.1330  1.8564
  538SOL     OW 1612   1.633   2.341   1.351  0.6126  0.2674  0.3628
  538SOL    HW1 1613   1.643   2.246   1.389  0.3778  1.6872  0.1660
  538SOL    HW2 1614   1.717   2.397   1.358 -0.8475  0.5100  1.2466
  539SOL     OW 1615   0.154   1.618   2.690  0.7937 -0.1678  0.1131
  539SOL    HW1 1616   0.075   1.564   2.653  0.2111 -0.3512 -0.2380
  539SOL    HW2 1617   0.122   1.709   2.726  2.6658 -1.1637  1.2254
  540SOL     OW 1618   2.668   1.705   1.931 -0.3597  0.1594 -0.4516
  540SOL    HW1 1619   2.593   1.637   1.948 -2.7056  1.1550 -3.4877
  540SOL    HW2 1620   2.629   1.799   1.913 -0.1623 -0.9390 -1.7787
  541SOL     OW 1621   0.559   2.150   0.019  0.1819  0.1304  0.3017
  541SOL    HW1 1622   0.580   2.109   0.112  1.4507 -1.1425  0.1690
  541SOL    HW2 1623   0.455   2.152  -0.002 -1.8366 -2.9319 -0.2542
  542SOL     OW 1624   2.236   2.610   0.504 -0.1528  0.4149 -0.1486
  542SOL    HW1 1625   2.203   2.703   0.535 -1.7770 -1.4291  0.8420
  542SOL    HW2 1626   2.165   2.535   0.506  2.9692 -0.4186  0.8915
  543SOL     OW 1627   1.090   1.811   1.562 -0.4028  0.2107 -0.4749
  543SOL    HW1 1628   1.102   1.853   1.662  2.5408  1.6925  1.5668
  543SOL    HW2 1629   1.038   1.874   1.502  0.1498 -0.3704  1.4588
  544SOL     OW 1630   1.119   0.514   0.172  0.6696 -0.1706  0.1625
  544SOL    HW1 1631   1.091   0.429   0.228 -1.1827  0.1903 -4.4277
  544SOL    HW2 1632   1.179   0.495   0.086  1.4183  1.8658  0.9245
  545SOL     OW 1633   1.095   1.833   0.784  0.1936  0.5062 -0.4029
  545SOL    HW1 1634   1.167   1.854   0.713  0.5442 -0.4769  0.6588
  545SOL    HW2 1635   1.090   1.734   0.814  0.1451  1.6827 -1.0902
  546SOL     OW 1636   2.701   1.583   2.969  0.0801  0.0565  0.0400
  546SOL    HW1 1637   2.671   1.679   2.965  0.3539  0.4816 -2.8019
  546SOL    HW2 1638   2.636   1.512   3.004  1.1620  1.2379 -1.6884
  547SOL     OW 1639   0.660   3.049   2.521  0.2511 -0.6619  0.2214
  547SOL    HW1 1640   0.708   3.041   2.609  1.1131  3.1358 -0.8043
  547SOL    HW2 1641   0.591   2.966   2.507 -1.3347 -3.7681  0.8497
  548SOL     OW 1642   2.051   0.787   3.074  0.1052 -0.4544 -0.3124
  548SOL    HW1 1643   1.953   0.750   3.059 -1.1236  0.1824 -1.4946
  548SOL    HW2 1644   2.055   0.885   3.107 -1.3430 -0.4527 -0.5296
  549SOL     OW 1645   0.703   0.584   0.218  0.1000 -0.4547 -0.3192
  549SOL    HW1 1646   0.632   0.602   0.142 -0.2725  0.0063  2.5361
  549SOL    HW2 1647   0.792   0.637   0.216  0.8111  1.3839  2.6028
  550SOL     OW 1648   2.564   2.817   2.845  0.1905 -0.5774 -0.3810
  550SOL    HW1 1649   2.497   2.763   2.900  0.3308  1.1471 -0.0911
  550SOL    HW2 1650   2.631   2.763   2.788 -3.0893 -0.1687  0.5200
  551SOL     OW 1651   0.234   0.889   0.267 -0.4469 -0.3446  0.0969
  551SOL    HW1 1652   0.337   0.900   0.253  1.1889 -0.8474  1.6519
  551SOL    HW2 1653   0.218   0.878   0.370  0.3457  0.7432 -0.5813
  552SOL     OW 1654   0.577   2.996   1.967 -0.1211  0.7542  0.2517
  552SOL    HW1 1655   0.564   3.083   2.021  0.5062 -1.2006  1.0987
  552SOL    HW2 1656   0.677   2.986   1.937  1.9452  0.7483  0.9554
  553SOL     OW 1657   2.949   2.398   0.362  0.6366 -0.4042  0.7101
  553SOL    HW1 1658   2.927   2.302   0.345  0.9066  2.7774 -1.3627
  553SOL    HW2 1659   2.857   2.449   0.342 -0.8548  1.0519 -1.2660
  554SOL     OW 1660   2.180   0.386   0.501  0.9207  0.2870  0.4122
  554SOL    HW1 1661   2.253   0.387   0.428  0.5677  1.0471  3.0692
  554SOL    HW2 1662   2.177   0.297   0.554 -0.2694 -0.7923  2.1291
  555SOL     OW 1663   0.466   2.845   2.492  0.1118  0.0763 -0.4412
  555SOL    HW1 1664   0.373   2.884   2.469  4.4046  1.8967  0.6696
  555SOL    HW2 1665   0.496   2.770   2.424  3.1018 -2.8637  0.2363
  556SOL     OW 1666   0.826   2.440   1.610 -0.7003  1.2209 -0.1526
  556SOL    HW1 1667   0.848   2.510   1.681 -4.0856 -1.3634  0.4263
  556SOL    HW2 1668   0.911   2.410   1.552  0.0126 -1.2641  1.7358
  557SOL     OW 1669   0.214   2.089   0.262  0.5570  0.3558  0.5557
  557SOL    HW1 1670   0.165   2.025   0.205 -0.1208  0.1461  2.0310
  557SOL    HW2 1671   0.303   2.121   0.226  1.2356 -1.2486  2.6018
  558SOL     OW 1672   2.823   2.159   0.407  0.5110  0.0011 -0.2162
  558SOL    HW1 1673   2.757   2.192   0.484 -1.3177 -1.9159 -0.9599
  558SOL    HW2 1674   2.779   2.124   0.318  1.5263  1.2357  2.6768
  559SOL     OW 1675   0.401   2.350   1.426  0.3360  0.1411  0.2772
  559SOL    HW1 1676   0.330   2.388   1.353  0.5274  1.0206  0.5678
  559SOL    HW2 1677   0.451   2.267   1.390 -1.4994  0.4650  0.9362
  560SOL     OW 1678   2.140   1.059   3.098 -0.1157 -0.0097  0.0543
  560SOL    HW1 1679   2.178   1.082   3.191  0.2897  0.4459 -0.3855
  560SOL    HW2 1680   2.201   1.024   3.026 -0.6822 -2.4678  2.6598
  561SOL     OW 1681   0.045   1.909   0.113 -0.1568  0.2860  0.9784
  561SOL    HW1 1682  -0.003   1.833   0.171 -0.4377  0.0758  1.8088
  561SOL    HW2 1683  -0.016   1.994   0.084 -0.1433  1.2704  0.4775
  562SOL     OW 1684   1.117   2.113   2.283  0.1148 -0.6970 -0.0663
  562SOL    HW1 1685   1.079   2.203   2.303  1.1390 -1.1943  0.7522
  562SOL    HW2 1686   1.054   2.030   2.305  0.2726 -2.1005 -0.5019
  563SOL     OW 1687   0.684   2.534   2.645 -0.7285  0.0952  0.0086
  563SOL    HW1 1688   0.750   2.483   2.579  0.6809 -0.8162  0.8142
  563SOL    HW2 1689   0.727   2.576   2.731  0.0675 -0.3506  0.1066
  564SOL     OW 1690   2.880   1.388   2.888 -0.8194  0.1809 -0.2212
  564SOL    HW1 1691   2.821   1.472   2.920 -1.2108  0.4784  1.5277
  564SOL    HW2 1692   2.952   1.413   2.824  0.9708 -0.7275  2.7448
  565SOL     OW 1693   2.522   1.952   2.635  0.2006  0.3708  0.0251
  565SOL    HW1 1694   2.477   2.040   2.599 -0.7280  0.4662 -0.8879
  565SOL    HW2 1695   2.595   1.979   2.707  1.4818  0.4789  1.0903
  566SOL     OW 1696   1.969   2.898   1.461  0.2512  0.3105  0.6988
  566SOL    HW1 1697   1.937   2.803   1.493 -0.1131  2.1952  0.2789
  566SOL    HW2 1698   1.970   2.917   1.359 -2.6368  1.2821  0.5037
  567SOL     OW 1699   2.398   0.029   2.313 -0.3354 -0.2052  0.1521
  567SOL    HW1 1700   2.300   0.042   2.355  1.4129  1.0662  1.4961
  567SOL    HW2 1701   2.390   0.044   2.211 -0.8203  1.3073  0.4107
  568SOL     OW 1702   1.484   1.736   0.294  0.3142 -0.5953 -0.4133
  568SOL    HW1 1703   1.433   1.822   0.252  1.0466  0.9531 -1.5906
  568SOL    HW2 1704   1.587   1.751   0.311  0.6253 -1.7365  2.1678
  569SOL     OW 1705   0.262   0.617   0.887  0.3491 -0.8809 -0.0995
  569SOL    HW1 1706   0.288   0.572   0.796 -0.3720  2.4215  1.7100
  569SOL    HW2 1707   0.182   0.569   0.932 -1.3122  0.3294  2.3610
  570SOL     OW 1708   0.633   0.884   2.891  0.5098  0.2371 -0.0996
  570SOL    HW1 1709   0.665   0.898   2.795 -0.6293  0.8532  2.9941
  570SOL    HW2 1710   0.641   0.967   2.955  0.5431 -0.3645  0.4420
  571SOL     OW 1711   0.767   3.075   1.097 -0.2337 -0.1215 -0.4072
  571SOL    HW1 1712   0.816   3.125   1.018  0.2927  0.0035 -1.8697
  571SOL    HW2 1713   0.799   2.974   1.111 -0.4832 -3.3267 -2.3128
  572SOL     OW 1714   1.623   2.693   1.406 -0.0149 -0.1834  0.1499
  572SOL    HW1 1715   1.644   2.602   1.353  2.5737 -1.5811 -1.4795
  572SOL    HW2 1716   1.562   2.757   1.355 -0.5943  1.0779  1.4574
  573SOL     OW 1717   3.095   0.499   1.968 -0.5921 -0.1538 -0.5651
  573SOL    HW1 1718   3.040   0.412   1.984 -0.8978 -1.2275  0.9311
  573SOL    HW2 1719   3.123   0.517   1.875 -2.5157 -1.0739  1.6860
  574SOL     OW 1720   0.149   1.647   1.142  0.5087 -0.7108  0.0363
  574SOL    HW1 1721   0.195   1.669   1.235 -0.0450 -1.3118  1.8207
  574SOL    HW2 1722   0.083   1.725   1.112  3.1247  1.7724 -2.4923
  575SOL     OW 1723   0.879   2.222   0.988 -0.8139  0.2519  0.6860
  575SOL    HW1 1724   0.855   2.274   1.074 -1.0275 -1.6151  2.0920
  575SOL    HW2 1725   0.907   2.288   0.909 -0.0593  2.0407  1.3110
  576SOL     OW 1726   2.929   3.002   1.725  0.9814  0.3611  0.2707
  576SOL    HW1 1727   2.843   2.976   1.671 -1.2494 -1.7717 -2.0609
  576SOL    HW2 1728   2.971   3.091   1.693  0.9374  0.0269  1.3355
  577SOL     OW 1729   2.671   1.222   0.011  0.4378 -0.2844  0.3989
  577SOL    HW1 1730   2.657   1.144  -0.052 -2.8784  0.6335  0.2193
  577SOL    HW2 1731   2.747   1.218   0.078  2.3813  1.3278  1.1946
  578SOL     OW 1732   1.424   2.755   2.554 -0.6214 -0.1345  0.2177
  578SOL    HW1 1733   1.331   2.798   2.548  0.7693 -2.7717 -1.1799
  578SOL    HW2 1734   1.499   2.812   2.510  0.6670  0.2869  0.0162
  579SOL     OW 1735   0.062   2.405   0.178  0.2182  0.1719 -0.1826
  579SOL    HW1 1736  -0.016   2.399   0.248 -0.1620  2.5952  0.7600
  579SOL    HW2 1737   0.155   2.407   0.221  0.2699 -2.5816  0.5358
  580SOL     OW 1738   0.952   2.702   0.431  0.6821  0.5387 -0.0853
  580SOL    HW1 1739   1.020   2.711   0.355 -3.2224 -1.0449 -0.4870
  580SOL    HW2 1740   0.856   2.713   0.389 -0.1140 -0.0417 -0.2950
  581SOL     OW 1741   1.264   2.683   1.429 -0.0580 -0.0483  0.0329
  581SOL    HW1 1742   1.330   2.599   1.452  0.6124 -0.0736 -0.6325
  581SOL    HW2 1743   1.313   2.767   1.393 -0.7660 -0.2419  0.1982
  582SOL     OW 1744   1.487   0.072   1.921  0.4925  0.0178 -0.1336
  582SOL    HW1 1745   1.510   0.152   1.988 -2.0957  0.0831 -0.2294
  582SOL    HW2 1746   1.548   0.075   1.835  2.5520  0.5073 -1.6390
  583SOL     OW 1747   2.474   3.056   0.552 -0.5880 -0.4890  0.2098
  583SOL    HW1 1748   2.540   2.990   0.514  0.0529  0.8565 -0.2933
  583SOL    HW2 1749   2.389   3.009   0.586 -0.0212  0.1949 -1.6289
  584SOL     OW 1750   1.612   1.084   2.291 -0.5629  0.4230 -0.5048
  584SOL    HW1 1751   1.665   1.176   2.273  2.4724  3.6090 -2.2311
  584SOL    HW2 1752   1.680   1.006   2.297  1.5273 -0.3637 -1.4024
  585SOL     OW 1753   2.056   2.660   2.871 -0.3381  0.0362 -0.2159
  585SOL    HW1 1754   2.064   2.564   2.831  1.9684 -0.6403  2.5480
  585SOL    HW2 1755   1.954   2.691   2.882 -3.1016  0.5037  1.0421
  586SOL     OW 1756   2.933   0.388   1.585  0.3208 -0.3615  0.3519
  586SOL    HW1 1757   2.939   0.478   1.643  0.3493  1.5330  0.9547
  586SOL    HW2 1758   2.840   0.381   1.539  3.7044 -0.5955  2.0781
  587SOL     OW 1759   2.146   1.461   2.706  0.1434 -0.5746  0.4242
  587SOL    HW1 1760   2.152   1.394   2.624 -2.2719  2.2649 -2.5141
  587SOL    HW2 1761   2.242   1.499   2.729  1.2918  1.5600 -0.8431
  588SOL     OW 1762   0.504   2.640   2.280  0.1132 -0.4332  0.7234
  588SOL    HW1 1763   0.494   2.680   2.184  0.2753  1.7611 -1.4039
  588SOL    HW2 1764   0.450   2.558   2.299  2.3968  2.2825  0.1548
  589SOL     OW 1765   2.182   1.310   2.487 -0.2620  0.6393  0.3149
  589SOL    HW1 1766   2.115   1.269   2.419  1.1673  0.0103  0.6457
  589SOL    HW2 1767   2.285   1.290   2.465  3.2062  0.4071 -0.5168
  590SOL     OW 1768   2.311   1.699   2.071 -0.2964 -0.0863  0.1655
  590SOL    HW1 1769   2.396   1.634   2.080  2.0891 -0.4222 -0.8238
  590SOL    HW2 1770   2.286   1.725   2.169  0.1135 -1.3696  0.5478
  591SOL     OW 1771   1.288   2.405   0.177  1.0373  0.4463 -0.5088
  591SOL    HW1 1772   1.316   2.333   0.117 -0.6484  2.6599  0.7089
  591SOL    HW2 1773   1.302   2.385   0.281  0.3106  0.7196  0.4997
  592SOL     OW 1774   1.788   2.369   0.791 -0.4232 -0.0097  0.0293
  592SOL    HW1 1775   1.774   2.412   0.695  1.2448  2.0173 -0.4183
  592SOL    HW2 1776   1.883   2.376   0.823 -1.6890  2.4444  1.2183
  593SOL     OW 1777   0.777   0.296   0.247 -0.1209 -0.2502 -0.3064
  593SOL    HW1 1778   0.782   0.278   0.142  2.1237 -0.7771 -1.7218
  593SOL    HW2 1779   0.768   0.396   0.262 -1.1287 -0.7588 -2.5213
  594SOL     OW 1780   1.062   1.798   2.654  0.4637 -0.0120  0.4061
  594SOL    HW1 1781   1.146   1.769   2.602 -1.2957  0.5505 -2.1407
  594SOL    HW2 1782   1.089   1.854   2.732  0.0140  0.7542 -0.9442
  595SOL     OW 1783   1.511   0.119   0.986  0.1671  0.4321  0.3797
  595SOL    HW1 1784   1.565   0.031   0.983 -1.9635 -0.8076 -1.0124
  595SOL    HW2 1785   1.414   0.113   0.958  0.0219  0.1128 -2.4731
  596SOL     OW 1786   0.124   1.464   2.242  0.4102 -0.7945 -0.6118
  596SOL    HW1 1787   0.068   1.383   2.267  0.5889 -0.9015  0.0595
  596SOL    HW2 1788   0.162   1.514   2.329  2.9149 -1.0032 -1.2757
  597SOL     OW 1789   2.032   2.673   1.817  0.6820  0.3177 -0.3138
  597SOL    HW1 1790   2.004   2.658   1.724  0.6994 -0.1665  2.2915
  597SOL    HW2 1791   2.135   2.659   1.830  0.5286 -2.3062 -0.5973
  598SOL     OW 1792   2.496   2.847   1.283 -0.6632 -0.1659  0.7702
  598SOL    HW1 1793   2.574   2.869   1.352  2.1663 -1.0528  2.3100
  598SOL    HW2 1794   2.536   2.819   1.190 -2.1070  0.9578 -1.1030
  599SOL     OW 1795   2.860   0.256   2.511  0.8125  0.4267 -0.2496
  599SOL    HW1 1796   2.955   0.272   2.473 -2.2949  1.6017 -1.2160
  599SOL    HW2 1797   2.792   0.279   2.437  3.5682  0.0477  0.0199
  600SOL     OW 1798   2.791   1.155   2.775  0.1404  0.1234  0.0767
  600SOL    HW1 1799   2.716   1.098   2.823  1.1967 -0.2107  0.5299
  600SOL    HW2 1800   2.806   1.252   2.814  0.5756  2.4914 -0.4349
  601SOL     OW 1801   2.967   1.343   2.002  0.2711 -0.1441 -0.0476
  601SOL    HW1 1802   2.887   1.387   1.946 -2.1536  0.8877  0.3868
  601SOL    HW2 1803   3.049   1.399   1.984 -3.2545  2.1705 -0.0509
  602SOL     OW 1804   1.545   1.555   2.292  0.3260 -0.3001  0.5020
  602SOL    HW1 1805   1.458   1.542   2.349 -0.9962  1.3020 -1.3327
  602SOL    HW2 1806   1.629   1.571   2.354  1.3293  3.8350  1.7596
  603SOL     OW 1807   0.617   1.213   2.711 -0.4645  0.3145 -0.3662
  603SOL    HW1 1808   0.519   1.238   2.678 -2.0278  0.1174  0.8873
  603SOL    HW2 1809   0.647   1.116   2.691  1.0310 -0.4263  1.0109
  604SOL     OW 1810   2.497   1.053   0.206  0.2176  0.8295  0.1132
  604SOL    HW1 1811   2.584   1.111   0.207  0.5083  0.9003 -0.5804
  604SOL    HW2 1812   2.497   0.971   0.138 -0.8897  1.3288 -0.0060
  605SOL     OW 1813   2.561   1.148   1.944  0.4562  0.5527 -0.8958
  605SOL    HW1 1814   2.610   1.068   1.902  0.9680 -0.9229 -1.1296
  605SOL    HW2 1815   2.623   1.217   1.992  0.7992  2.7582  1.6223
  606SOL     OW 1816   1.517   2.464   2.550  0.5435 -0.0729  0.0183
  606SOL    HW1 1817   1.455   2.536   2.516 -0.4637 -2.0736  0.0405
  606SOL    HW2 1818   1.482   2.365   2.533  1.3256 -0.6715 -1.0579
  607SOL     OW 1819   1.256   1.596   0.232 -0.2940  0.1350  0.5489
  607SOL    HW1 1820   1.176   1.648   0.279 -1.7403  0.6280 -0.5566
  607SOL    HW2 1821   1.346   1.639   0.261 -1.3669 -1.9152  0.1453
  608SOL     OW 1822   1.377   2.818   0.355 -0.2779 -0.6744 -0.7426
  608SOL    HW1 1823   1.433   2.840   0.268 -0.0233  1.1537 -0.0058
  608SOL    HW2 1824   1.352   2.906   0.401 -1.0689  0.6134 -0.2711
  609SOL     OW 1825   1.335   1.327   0.175 -0.3672  0.5317 -0.0131
  609SOL    HW1 1826   1.315   1.424   0.206 -1.5892  0.2607 -0.4828
  609SOL    HW2 1827   1.303   1.309   0.074 -0.9369 -0.9450  2.4429
  610SOL     OW 1828   3.006   1.225   2.255 -0.1063 -0.1860 -0.4920
  610SOL    HW1 1829   2.975   1.126   2.252  0.3346  2.7680 -0.5173
  610SOL    HW2 1830   2.973   1.273   2.170  1.6518 -2.5866 -0.7375
  611SOL     OW 1831   2.563   0.235   1.132  0.0672 -0.6348  0.3582
  611SOL    HW1 1832   2.512   0.144   1.155  0.1142 -2.4315  3.0454
  611SOL    HW2 1833   2.656   0.250   1.183  3.9978 -0.9388  0.0469
  612SOL     OW 1834   0.784   2.337   1.211 -0.5895  0.0590 -0.6016
  612SOL    HW1 1835   0.704   2.279   1.250  1.7735  2.7056  1.5679
  612SOL    HW2 1836   0.749   2.432   1.188 -0.4182  0.2660  0.7442
  613SOL     OW 1837   0.782   1.396   2.387 -0.2596 -0.0731  0.7167
  613SOL    HW1 1838   0.801   1.460   2.306 -2.2321  0.5959  1.6856
  613SOL    HW2 1839   0.760   1.294   2.360  0.9361  0.2935  0.5187
  614SOL     OW 1840   1.533   1.659   1.859 -0.4687 -0.2778  0.5654
  614SOL    HW1 1841   1.475   1.686   1.776  0.5655 -1.9568  1.9549
  614SOL    HW2 1842   1.593   1.739   1.897  0.8328 -0.2546 -0.4156
  615SOL     OW 1843   0.727   1.437   1.711  0.4117  0.9101  0.3669
  615SOL    HW1 1844   0.686   1.370   1.644 -3.4977 -0.5855 -0.0507
  615SOL    HW2 1845   0.802   1.498   1.667 -0.3677 -1.7385  0.0439
  616SOL     OW 1846   1.131   1.559   2.223 -0.2749 -0.2354  0.0349
  616SOL    HW1 1847   1.026   1.564   2.227 -2.1942 -2.1419 -1.6646
  616SOL    HW2 1848   1.166   1.590   2.131 -1.2139  0.0388  0.4828
  617SOL     OW 1849   3.033   1.556   1.634 -0.2534  0.8132  0.4148
  617SOL    HW1 1850   2.985   1.493   1.699 -0.3892  0.0394  0.3872
  617SOL    HW2 1851   3.045   1.511   1.540 -1.1524 -1.1847 -0.9591
  618SOL     OW 1852   1.915   1.971   1.480 -0.6902 -0.0402  0.2836
  618SOL    HW1 1853   1.974   1.952   1.399 -0.0631 -0.5698 -1.8589
  618SOL    HW2 1854   1.902   1.888   1.539 -0.7474 -0.1510 -0.0740
  619SOL     OW 1855   1.756   0.500   2.346  0.6111  0.1634  0.1080
  619SOL    HW1 1856   1.678   0.565   2.314  2.0735  3.8288  0.9797
  619SOL    HW2 1857   1.728   0.399   2.351  1.3710  2.2000  1.8827
  620SOL     OW 1858   2.254   2.919   0.661  0.3210 -0.2950  0.6232
  620SOL    HW1 1859   2.171   2.976   0.647  0.3741  1.9768 -0.1872
  620SOL    HW2 1860   2.287   2.912   0.762  1.2710  1.8261  1.4820
  621SOL     OW 1861   2.183   1.904   1.343 -0.0437  0.4650  0.0769
  621SOL    HW1 1862   2.197   1.886   1.445 -2.3312 -2.1528  0.2877
  621SOL    HW2 1863   2.155   1.814   1.299 -0.9166 -0.5599 -1.4786
  622SOL     OW 1864   2.213   0.995   1.842  0.3134  0.8436  0.1462
  622SOL    HW1 1865   2.288   0.923   1.865 -0.9523 -1.2781  1.1738
  622SOL    HW2 1866   2.125   0.964   1.884  0.4269 -1.5973  0.2145
  623SOL     OW 1867   1.279   0.873   2.570  0.2808  0.8154 -0.1265
  623SOL    HW1 1868   1.220   0.814   2.631 -2.8967  1.8412  1.7451
  623SOL    HW2 1869   1.247   0.894   2.473  0.3937  2.7258 -1.7824
  624SOL     OW 1870   0.526   0.700   0.049  0.0616 -0.5508 -0.1102
  624SOL    HW1 1871   0.525   0.764  -0.035  1.7452  1.0661  1.6605
  624SOL    HW2 1872   0.539   0.767   0.128  1.7558  2.0744 -6.2655
  625SOL     OW 1873   2.761   1.726   0.827  0.4171  0.6641 -0.7194
  625SOL    HW1 1874   2.749   1.740   0.929  0.8455 -1.9913  1.1330
  625SOL    HW2 1875   2.689   1.657   0.797  0.3683  0.4158 -0.3553
  626SOL     OW 1876   0.471   2.763   2.033 -0.9372  0.2804 -0.1163
  626SOL    HW1 1877   0.515   2.859   2.025 -0.9812 -1.8225 -1.7063
  626SOL    HW2 1878   0.389   2.760   1.967 -1.4363  0.9555  1.2540
  627SOL     OW 1879   0.750   1.057   1.524 -0.2015 -0.5596  0.3173
  627SOL    HW1 1880   0.737   0.958   1.495  0.4037  1.0841  1.4440
  627SOL    HW2 1881   0.816   1.107   1.456  1.1732  1.1229 -2.8772
  628SOL     OW 1882   2.432   0.169   0.729 -0.2150 -0.3887 -0.3277
  628SOL    HW1 1883   2.463   0.094   0.660  0.3484 -2.3621 -1.3890
  628SOL    HW2 1884   2.326   0.183   0.740  1.7459  1.0814  1.4811
  629SOL     OW 1885   1.985   0.951   1.994 -0.2568  0.1140 -0.1480
  629SOL    HW1 1886   2.025   0.983   2.082 -0.3751  0.5066 -2.2038
  629SOL    HW2 1887   1.941   1.036   1.949 -0.7936  0.7260 -1.9558
  630SOL     OW 1888   2.812   2.204   0.745 -0.1824 -0.4180 -0.2208
  630SOL    HW1 1889   2.724   2.248   0.787 -2.3741  2.5277 -0.4036
  630SOL    HW2 1890   2.794   2.109   0.707  3.4727  0.6801  2.1141
  631SOL     OW 1891   3.006   0.232   2.123 -1.0794  0.1508  0.2028
  631SOL    HW1 1892   3.053   0.274   2.205 -0.3336 -3.0196  0.9959
  631SOL    HW2 1893   3.075   0.201   2.057 -3.5579  0.6052  0.9814
  632SOL     OW 1894   2.302   2.531   0.767  0.5870 -0.7008  0.1195
  632SOL    HW1 1895   2.344   2.622   0.793  1.6223 -3.2479  0.8805
  632SOL    HW2 1896   2.292   2.535   0.661  1.3172 -0.9216 -2.4641
  633SOL     OW 1897   1.594   1.255   2.666 -0.0909  0.2528  0.0456
  633SOL    HW1 1898   1.590   1.327   2.742  0.6459 -1.0234  1.2666
  633SOL    HW2 1899   1.502   1.241   2.620 -1.8729  0.7057  2.9002
  634SOL     OW 1900   0.641   2.068   0.970  0.3101  0.6413 -0.6360
  634SOL    HW1 1901   0.549   2.100   0.992  3.5506 -0.0743 -1.8917
  634SOL    HW2 1902   0.706   2.152   0.970 -0.1207  3.3283  0.0756
  635SOL     OW 1903   0.072   2.238   3.034  0.0163 -0.1880 -0.8959
  635SOL    HW1 1904   0.007   2.311   3.008 -3.5123 -0.9505  0.1791
  635SOL    HW2 1905   0.122   2.257   3.121 -0.6854  1.6966  0.3443
  636SOL     OW 1906   2.326   2.878   2.043  0.1274  0.2059  0.2492
  636SOL    HW1 1907   2.304   2.977   2.043 -0.5630  2.8690 -3.1688
  636SOL    HW2 1908   2.270   2.828   2.115 -0.3756  0.5291 -0.6607
  637SOL     OW 1909   2.605   0.710   2.056  0.1582 -0.0864 -0.0874
  637SOL    HW1 1910   2.563   0.699   1.959 -0.0457  0.6437 -0.2950
  637SOL    HW2 1911   2.653   0.802   2.075  0.5547 -1.0936  3.6630
  638SOL     OW 1912   2.475   1.894   1.407 -0.5482  0.3151  0.4202
  638SOL    HW1 1913   2.376   1.909   1.386 -1.6955 -0.7327  0.7143
  638SOL    HW2 1914   2.504   1.793   1.438 -1.5675 -5.0362  1.1987
  639SOL     OW 1915   1.311   2.258   1.565  0.3615  0.6589  0.0253
  639SOL    HW1 1916   1.310   2.182   1.495  1.7386  0.1525 -0.2860
  639SOL    HW2 1917   1.239   2.248   1.643 -0.9729  3.4036 -2.0991
  640SOL     OW 1918   0.219   1.238   1.534  0.1328  0.3667 -0.2693
  640SOL    HW1 1919   0.210   1.273   1.630 -1.5465 -1.7782  2.0973
  640SOL    HW2 1920   0.296   1.165   1.529  2.8389  0.2547 -0.9783
  641SOL     OW 1921   1.926   0.234   1.446 -0.5146  0.9540 -0.2060
  641SOL    HW1 1922   1.849   0.295   1.473  2.2498 -3.1677 -1.2015
  641SOL    HW2 1923   1.952   0.163   1.519  0.8294 -1.9380 -0.8542
  642SOL     OW 1924   1.991   0.097   0.295  0.1868  0.1480  0.1339
  642SOL    HW1 1925   2.091   0.099   0.312 -1.1629  1.3687  2.9324
  642SOL    HW2 1926   1.933   0.095   0.383 -0.1068  0.8262 -0.7455
  643SOL     OW 1927   2.817   1.847   2.115 -0.1929  0.9004  0.3506
  643SOL    HW1 1928   2.759   1.781   2.056 -0.2980 -2.2478  1.3847
  643SOL    HW2 1929   2.838   1.938   2.067  0.4359  1.3333  0.5085
  644SOL     OW 1930   2.168   2.260   1.238  0.0490 -0.1854  0.1310
  644SOL    HW1 1931   2.246   2.190   1.250  0.7760  0.8602  0.8744
  644SOL    HW2 1932   2.134   2.296   1.331 -0.9736 -0.4933 -1.1602
  645SOL     OW 1933   0.653   0.868   1.163  0.9152 -0.7585  0.1217
  645SOL    HW1 1934   0.600   0.801   1.102 -2.6803  2.7605 -1.0683
  645SOL    HW2 1935   0.653   0.961   1.118 -2.0326 -1.1534 -1.8873
  646SOL     OW 1936   1.458   1.952   1.777 -0.0592 -0.1539  0.1755
  646SOL    HW1 1937   1.527   2.027   1.767 -1.4117 -2.1457  0.8639
  646SOL    HW2 1938   1.399   1.963   1.864 -0.2091 -0.7810 -0.9857
  647SOL     OW 1939   0.880   0.931   0.666  0.3225  0.2331  0.6482
  647SOL    HW1 1940   0.963   0.876   0.701  1.6957  2.9137 -2.6328
  647SOL    HW2 1941   0.791   0.901   0.710 -0.2114  0.7350 -0.0693
  648SOL     OW 1942   0.177   0.232   0.328 -0.8652  0.1104 -0.3888
  648SOL    HW1 1943   0.186   0.143   0.281 -4.4212  3.2704  3.0380
  648SOL    HW2 1944   0.142   0.313   0.273 -0.6700  0.8146  2.0052
  649SOL     OW 1945   3.088   0.031   0.945 -0.0460 -0.1642  0.3466
  649SOL    HW1 1946   3.189   0.036   0.919 -2.1070 -0.1075  3.9367
  649SOL    HW2 1947   3.067   0.070   1.039  0.5115 -1.7805  1.2547
  650SOL     OW 1948   2.723   0.729   1.443  0.1801 -0.0319  0.0900
  650SOL    HW1 1949   2.626   0.696   1.452 -3.0649  2.6653  0.4364
  650SOL    HW2 1950   2.724   0.811   1.382  0.1565  0.3911 -1.3233
  651SOL     OW 1951   0.913   1.588   1.562  0.2609 -0.1310 -0.4230
  651SOL    HW1 1952   0.983   1.661   1.603 -1.3279  1.0930 -1.1416
  651SOL    HW2 1953   0.842   1.626   1.496 -1.0198 -1.7458  1.1670
  652SOL     OW 1954   2.305   2.519   2.393 -0.3262  0.3307 -0.1042
  652SOL    HW1 1955   2.213   2.527   2.443 -2.9393 -2.2671  1.8305
  652SOL    HW2 1956   2.306   2.590   2.317 -1.9231 -2.8089  0.6988
  653SOL     OW 1957   2.736   1.162   0.278  0.6289  0.0688 -0.3360
  653SOL    HW1 1958   2.810   1.236   0.291 -1.0798  1.4468  1.0610
  653SOL    HW2 1959   2.770   1.071   0.308  3.0823  1.2173  0.0992
  654SOL     OW 1960   1.208   2.237   1.223 -0.0094 -0.6892  0.3344
  654SOL    HW1 1961   1.258   2.169   1.282  0.9774  2.2231 -0.0801
  654SOL    HW2 1962   1.260   2.248   1.135  1.2751  0.7776  1.5767
  655SOL     OW 1963   0.230   1.050   1.843  0.2712 -0.0393  0.2805
  655SOL    HW1 1964   0.279   0.961   1.814  0.4289  0.4164 -1.8363
  655SOL    HW2 1965   0.299   1.120   1.843 -0.0928 -0.3728  0.7343
  656SOL     OW 1966   2.501   2.441   2.567 -0.3752 -0.6441  0.3299
  656SOL    HW1 1967   2.600   2.466   2.547 -0.1381  0.5043  3.0468
  656SOL    HW2 1968   2.432   2.463   2.485  1.0126 -0.5001 -1.0386
  657SOL     OW 1969   3.066   1.119   1.847 -0.2227  0.2043  0.2284
  657SOL    HW1 1970   3.036   1.195   1.910 -2.1881 -1.1479 -0.5469
  657SOL    HW2 1971   3.171   1.108   1.848  0.4518  2.4935  1.9636
  658SOL     OW 1972   1.693   0.248   2.381  0.0450 -0.2907  0.0280
  658SOL    HW1 1973   1.712   0.159   2.440 -1.1722  0.1895 -0.2673
  658SOL    HW2 1974   1.749   0.242   2.296  0.0962  2.8898  0.2978
  659SOL     OW 1975   1.410   0.584   2.864 -0.1810  0.3075 -0.3562
  659SOL    HW1 1976   1.436   0.657   2.936 -0.1795  0.3651  0.8034
  659SOL    HW2 1977   1.349   0.625   2.791 -0.5259 -0.4362  1.6415
  660SOL     OW 1978   1.407   0.399   1.397 -0.0978  0.4820  0.3423
  660SOL    HW1 1979   1.436   0.405   1.495 -1.9932 -1.0773 -1.3110
  660SOL    HW2 1980   1.465   0.332   1.339  1.2559 -1.5984  1.5182
  661SOL     OW 1981   2.464   1.156   0.676 -0.1440 -0.2307 -0.1321
  661SOL    HW1 1982   2.485   1.095   0.592  2.6361 -1.8175  0.7982
  661SOL    HW2 1983   2.443   1.253   0.652  0.1857 -0.4355 -0.4692
  662SOL     OW 1984   1.283   0.459   1.831  0.0442 -0.0776  0.0012
  662SOL    HW1 1985   1.269   0.366   1.790 -0.6702 -1.2544 -3.6493
  662SOL    HW2 1986   1.213   0.484   1.900 -0.0220  1.3058  0.9654
  663SOL     OW 1987   0.844   1.581   2.162  0.6077 -0.5979 -0.0887
  663SOL    HW1 1988   0.839   1.685   2.171 -0.6419  2.4834  1.5028
  663SOL    HW2 1989   0.766   1.535   2.112  0.7919 -1.2453 -0.5967
  664SOL     OW 1990   1.657   2.057   1.407 -0.1905  0.6158  0.1979
  664SOL    HW1 1991   1.601   1.979   1.450 -0.2393  0.0727 -2.9099
  664SOL    HW2 1992   1.757   2.057   1.436  1.0948 -0.6021 -0.3464
  665SOL     OW 1993   2.292   0.614   1.990 -0.0074 -0.4689  0.1689
  665SOL    HW1 1994   2.311   0.513   2.019  0.4587 -2.4267 -1.6201
  665SOL    HW2 1995   2.222   0.666   2.046  0.5243  2.2349 -1.5022
  666SOL     OW 1996   0.511   2.266   0.501  0.1319 -0.3225  0.1506
  666SOL    HW1 1997   0.553   2.359   0.480  1.1861 -1.9059  1.7480
  666SOL    HW2 1998   0.437   2.268   0.583  0.2480 -0.2459  3.5502
  667SOL     OW 1999   2.088   0.262   0.988  0.0673 -0.2402  0.3307
  667SOL    HW1 2000   2.129   0.351   0.955  3.6163  0.2520 -1.3699
  667SOL    HW2 2001   1.994   0.274   1.033  0.2431  0.4077 -0.0346
  668SOL     OW 2002   1.949   0.529   1.230  0.0050  1.2157  1.1378
  668SOL    HW1 2003   2.016   0.554   1.158  0.2600  1.6289 -0.1285
  668SOL    HW2 2004   1.995   0.523   1.323  1.7460  1.2702 -0.8688
  669SOL     OW 2005   2.987   2.077   0.945  0.0363  0.1493  0.1111
  669SOL    HW1 2006   2.947   2.134   0.862 -0.3795 -2.2013  0.8654
  669SOL    HW2 2007   2.951   2.112   1.041  0.5902  0.2023 -0.3101
  670SOL     OW 2008   2.780   2.346   2.007 -0.1937  0.1902 -0.3455
  670SOL    HW1 2009   2.755   2.352   2.111 -0.8424 -1.4752  1.9491
  670SOL    HW2 2010   2.777   2.439   1.960 -2.1020 -0.9999  0.5942
  671SOL     OW 2011   1.700   1.677   1.459 -0.2679  0.2392  0.2225
  671SOL    HW1 2012   1.711   1.726   1.373  2.9453  0.6508  0.3679
  671SOL    HW2 2013   1.629   1.606   1.451 -1.4035  4.5333  0.2334
  672SOL     OW 2014   0.418   0.685   2.440 -0.6411  0.0542 -0.0962
  672SOL    HW1 2015   0.445   0.668   2.338  0.3186  0.4960 -0.9754
  672SOL    HW2 2016   0.327   0.722   2.453  0.3354 -3.2502  0.8319
  673SOL     OW 2017   0.152   1.210   1.148 -0.5318 -0.0899 -0.2676
  673SOL    HW1 2018   0.184   1.302   1.192 -0.3225  1.1050  3.5680
  673SOL    HW2 2019   0.234   1.156   1.107  1.8211 -1.7941 -1.8729
  674SOL     OW 2020   1.536   2.864   0.144  0.0245  0.7199  0.2822
  674SOL    HW1 2021   1.567   2.953   0.092 -0.2196  1.0252  1.3667
  674SOL    HW2 2022   1.587   2.777   0.120 -0.8857 -0.9402 -1.5143
  675SOL     OW 2023   1.747   0.867   2.335  0.5137 -0.3973  0.4346
  675SOL    HW1 2024   1.843   0.839   2.323  0.0572  1.9035 -0.4698
  675SOL    HW2 2025   1.676   0.800   2.302  0.5441  1.8107 -2.2299
  676SOL     OW 2026   2.512   1.495   2.039 -0.1655  0.1125  0.1620
  676SOL    HW1 2027   2.462   1.466   1.949 -1.9746 -1.5033  0.4556
  676SOL    HW2 2028   2.577   1.420   2.078 -1.2359  1.0498 -1.9064
  677SOL     OW 2029   1.859   0.550   0.952  0.3867  0.6117  0.0045
  677SOL    HW1 2030   1.881   0.610   1.031  0.6528 -1.6404 -2.5336
  677SOL    HW2 2031   1.774   0.493   0.964  1.2974  0.4583 -0.3273
  678SOL     OW 2032   0.100   0.833   1.664 -0.3197  0.6911 -0.5097
  678SOL    HW1 2033   0.198   0.835   1.708  0.8604 -0.9590  0.1627
  678SOL    HW2 2034   0.027   0.862   1.733 -1.6941 -2.4934 -0.1206
  679SOL     OW 2035   2.526   1.153   1.139 -0.6828  0.5874  0.1679
  679SOL    HW1 2036   2.425   1.185   1.150 -0.6873 -0.9627 -0.0614
  679SOL    HW2 2037   2.531   1.066   1.078  1.0524  1.1730  1.0217
  680SOL     OW 2038   2.843   0.651   1.672  0.3087  0.2997 -0.0245
  680SOL    HW1 2039   2.808   0.686   1.583  0.1535  0.0658  3.2079
  680SOL    HW2 2040   2.887   0.727   1.731  0.3302 -1.0862 -0.7581
  681SOL     OW 2041   3.049   0.127   1.651  0.0217 -0.5468  0.1849
  681SOL    HW1 2042   3.110   0.097   1.574 -1.7962  2.1866 -0.9676
  681SOL    HW2 2043   3.004   0.222   1.633 -1.8314  0.4868  0.5974
  682SOL     OW 2044   0.715   0.012   1.364  0.2845 -0.8449  0.1746
  682SOL    HW1 2045   0.650  -0.049   1.415  2.7544  1.4232 -0.3522
  682SOL    HW2 2046   0.729  -0.006   1.260 -0.0512  1.7343  0.6844
  683SOL     OW 2047   1.368   0.236   2.167 -0.0887 -0.0957 -0.3344
  683SOL    HW1 2048   1.373   0.279   2.265  0.4260  0.0140  1.5845
  683SOL    HW2 2049   1.445   0.275   2.110  0.2202 -1.5642  0.1219
  684SOL     OW 2050   1.413   2.103   0.466 -0.0668 -0.2350 -0.4555
  684SOL    HW1 2051   1.482   2.027   0.476 -2.1537 -1.0392  0.1045
  684SOL    HW2 2052   1.316   2.068   0.445 -0.4065  0.5424  0.2718
  685SOL     OW 2053   2.122   1.936   1.957 -0.3626  0.6402  0.0832
  685SOL    HW1 2054   2.181   1.999   1.903 -0.1305 -0.8661  0.1994
  685SOL    HW2 2055   2.183   1.858   1.988 -0.6825  1.5805  1.8811
  686SOL     OW 2056   1.539   1.755   2.769 -0.4685 -0.3577 -0.1178
  686SOL    HW1 2057   1.517   1.654   2.777 -0.6218  1.2677 -1.2550
  686SOL    HW2 2058   1.588   1.784   2.851  0.2452 -1.2131 -0.2252
  687SOL     OW 2059   1.348   2.507   1.907  0.1415  0.4887 -0.2293
  687SOL    HW1 2060   1.377   2.440   1.835 -3.2484  0.7397 -2.3504
  687SOL    HW2 2061   1.404   2.497   1.996  2.9075 -2.2005  2.1149
  688SOL     OW 2062   2.096   1.501   1.601  0.6116  0.2904 -0.4143
  688SOL    HW1 2063   2.191   1.507   1.561  0.3566 -0.3334  0.6021
  688SOL    HW2 2064   2.044   1.424   1.551  0.4342  1.5268 -0.8450
  689SOL     OW 2065   2.442   1.103   2.732 -0.3170 -0.2333 -0.7525
  689SOL    HW1 2066   2.358   1.053   2.767 -0.2820  1.3708 -2.4877
  689SOL    HW2 2067   2.522   1.101   2.792 -0.1010 -0.2087 -0.1022
  690SOL     OW 2068   2.207   2.751   3.081  0.1191 -0.0055 -0.1143
  690SOL    HW1 2069   2.145   2.698   3.016  0.6337 -0.5637  0.9885
  690SOL    HW2 2070   2.164   2.793   3.162 -0.5250 -4.8487 -2.0455
  691SOL     OW 2071   2.562   0.479   2.197  0.3101  0.1036 -0.2416
  691SOL    HW1 2072   2.641   0.419   2.165  0.4860 -0.5530  3.5741
  691SOL    HW2 2073   2.575   0.576   2.160  0.1981 -1.0624  2.5727
  692SOL     OW 2074   2.735   1.216   0.687 -0.0812 -0.7129 -0.0769
  692SOL    HW1 2075   2.633   1.199   0.682  2.9182 -1.4686 -1.3192
  692SOL    HW2 2076   2.767   1.303   0.737 -0.2974 -0.0867  1.3853
  693SOL     OW 2077   2.858   2.960   0.575 -0.3715 -0.1170  0.3926
  693SOL    HW1 2078   2.870   3.058   0.607  1.8378 -2.1596 -1.2634
  693SOL    HW2 2079   2.772   2.940   0.522  3.5315  1.1587 -0.8591
  694SOL     OW 2080   2.360   2.116   0.072  0.2984 -0.5691  0.0752
  694SOL    HW1 2081   2.351   2.221   0.104 -2.0162  2.7595 -2.1983
  694SOL    HW2 2082   2.269   2.073   0.049  2.0125  2.3747  3.3646
  695SOL     OW 2083   0.547   2.939   1.493 -0.4139 -0.9191  0.1738
  695SOL    HW1 2084   0.471   2.866   1.480 -0.4930  0.1725 -0.7827
  695SOL    HW2 2085   0.530   3.005   1.569  1.9306 -3.3524 -0.2746
  696SOL     OW 2086   2.703   1.963   0.678  0.6328  0.3284 -0.3633
  696SOL    HW1 2087   2.743   1.874   0.725  1.8247 -1.8331  1.0763
  696SOL    HW2 2088   2.628   1.942   0.605 -0.3556  1.0425 -0.0300
  697SOL     OW 2089   1.686   2.094   1.746 -0.2961 -0.6633 -0.2313
  697SOL    HW1 2090   1.751   2.017   1.757 -2.8978 -2.0746  0.1615
  697SOL    HW2 2091   1.725   2.189   1.737 -0.7904 -0.7416 -2.2207
  698SOL     OW 2092   2.929   0.324   2.784 -0.0178 -0.3177  0.4130
  698SOL    HW1 2093   2.923   0.291   2.691  2.1026 -0.7899  2.5300
  698SOL    HW2 2094   3.002   0.273   2.842  2.0418 -2.5971  1.4829
  699SOL     OW 2095   1.547   0.108   2.934 -0.5330  0.2801 -0.4709
  699SOL    HW1 2096   1.484   0.036   2.899  0.1179  0.1293  2.4289
  699SOL    HW2 2097   1.614   0.141   2.865 -0.8229  1.7225  2.1936
  700SOL     OW 2098   0.979   2.358   1.398  0.1180 -0.2218  0.3829
  700SOL    HW1 2099   1.061   2.304   1.363 -0.0378  2.4955  0.1616
  700SOL    HW2 2100   0.901   2.337   1.335  0.2205 -0.3211 -1.6616
  701SOL     OW 2101   1.854   2.801   0.045  0.1838  0.1178 -0.2611
  701SOL    HW1 2102   1.896   2.732   0.108  0.6262  1.9041 -0.4228
  701SOL    HW2 2103   1.888   2.897   0.075  1.3767  0.6459 -2.2809
  702SOL     OW 2104   2.095   1.399   1.876  0.4328 -0.1135 -0.1449
  702SOL    HW1 2105   2.173   1.336   1.910 -2.3190 -0.6075 -3.0563
  702SOL    HW2 2106   2.091   1.427   1.775 -0.0852  0.3026 -1.3990
  703SOL     OW 2107   1.973   0.841   1.473  0.2825 -0.0179 -0.2120
  703SOL    HW1 2108   1.951   0.746   1.507  2.0684  0.4029  0.8693
  703SOL    HW2 2109   2.042   0.894   1.534  0.8342 -0.7749  1.4104
  704SOL     OW 2110   0.334   2.027   1.758 -0.3234  0.2148  0.3998
  704SOL    HW1 2111   0.370   1.951   1.820 -1.7428  1.5734  0.2825
  704SOL    HW2 2112   0.404   2.105   1.724  1.0154  1.7373  0.7702
  705SOL     OW 2113   2.545   1.404   0.864 -0.2835  0.0424 -0.3236
  705SOL    HW1 2114   2.443   1.394   0.875  0.8847  0.9532 -0.3687
  705SOL    HW2 2115   2.597   1.384   0.946 -1.7100  2.3470 -2.1204
  706SOL     OW 2116   0.636   1.749   1.900  0.2617  0.0941  0.7205
  706SOL    HW1 2117   0.659   1.651   1.934 -0.3532  0.7340  1.9503
  706SOL    HW2 2118   0.690   1.822   1.943 -3.8256 -1.5264 -0.8659
  707SOL     OW 2119   2.296   1.234   1.948  0.2533  0.4251  0.3572
  707SOL    HW1 2120   2.396   1.220   1.947 -0.7503  0.7240  1.4720
  707SOL    HW2 2121   2.247   1.148   1.914 -0.0547 -0.2601 -1.4912
  708SOL     OW 2122   3.074   0.471   3.027 -0.1383  0.9151 -0.0240
  708SOL    HW1 2123   3.099   0.541   2.955 -2.2991 -3.0159  0.0432
  708SOL    HW2 2124   3.017   0.398   2.979  2.7510  0.6050  1.2679
  709SOL     OW 2125   1.781   1.865   0.298 -0.5670  0.0101 -0.2298
  709SOL    HW1 2126   1.794   1.963   0.319 -1.2705 -1.3948  1.7451
  709SOL    HW2 2127   1.815   1.840   0.199  1.8665 -0.4579 -0.3397
  710SOL     OW 2128   1.759   1.631   2.455  0.1509  0.1671 -0.0613
  710SOL    HW1 2129   1.803   1.612   2.365 -0.8049  2.7210  1.7463
  710SOL    HW2 2130   1.812   1.600   2.536 -0.7883 -1.2258 -0.2038
  711SOL     OW 2131   2.640   2.950   0.966  0.2664  0.5507 -0.0580
  711SOL    HW1 2132   2.647   3.047   0.943  2.9949  0.0473  0.1328
  711SOL    HW2 2133   2.731   2.905   0.961 -1.7696 -1.5667 -2.2186
  712SOL     OW 2134   1.460   2.289   1.784 -0.1246 -0.6108 -0.8380
  712SOL    HW1 2135   1.536   2.221   1.810  0.7911 -0.7827  1.1962
  712SOL    HW2 2136   1.411   2.257   1.699  0.4810 -0.3914  0.4673
  713SOL     OW 2137   2.828   1.350   2.490  0.1217 -1.1430 -0.4917
  713SOL    HW1 2138   2.801   1.251   2.483 -1.1237  2.9699 -1.9037
  713SOL    HW2 2139   2.744   1.406   2.528  0.6893 -0.9883  0.4194
  714SOL     OW 2140   2.636   0.464   2.439 -0.1853 -0.6359 -0.0681
  714SOL    HW1 2141   2.558   0.466   2.506  1.5254 -0.9255  0.1355
  714SOL    HW2 2142   2.602   0.461   2.339  0.1599 -2.2478  0.5289
  715SOL     OW 2143   1.604   2.108   1.131  0.6119  0.5604 -0.1918
  715SOL    HW1 2144   1.568   2.201   1.102  0.3104  0.4752 -1.6542
  715SOL    HW2 2145   1.624   2.092   1.232 -2.3425 -0.5416 -1.4882
  716SOL     OW 2146   1.225   0.213   1.458 -0.1299  0.1106 -0.1175
  716SOL    HW1 2147   1.125   0.240   1.467  0.9442  0.0897  2.0516
  716SOL    HW2 2148   1.282   0.290   1.412 -0.2594  0.8824 -1.7305
  717SOL     OW 2149   1.076   0.627   1.592 -0.6639  0.1127  0.3219
  717SOL    HW1 2150   1.178   0.641   1.621  1.4259 -0.5370  0.6991
  717SOL    HW2 2151   1.067   0.577   1.501 -0.4418 -0.7468 -1.1411
  718SOL     OW 2152   0.649   1.085   0.978  0.5495  0.1181  0.2223
  718SOL    HW1 2153   0.633   1.066   0.878 -0.4526  2.0641 -1.9367
  718SOL    HW2 2154   0.736   1.142   0.992  1.6114  4.0522  0.2324
  719SOL     OW 2155   0.772   1.849   2.250 -0.6951 -0.0068 -0.3080
  719SOL    HW1 2156   0.833   1.874   2.331 -0.2262  0.5297  2.8206
  719SOL    HW2 2157   0.675   1.819   2.290 -1.9578 -1.7621  1.1794
  720SOL     OW 2158   2.246   1.107   0.225  0.6541  0.1287  0.5449
  720SOL    HW1 2159   2.349   1.110   0.202 -1.1946  0.5946 -0.1885
  720SOL    HW2 2160   2.230   1.096   0.328  0.7925 -1.1347 -0.5227
  721SOL     OW 2161   2.204   0.055   2.077 -0.2232 -0.4015 -0.7003
  721SOL    HW1 2162   2.232   0.124   2.007 -0.3743 -0.5836 -0.4745
  721SOL    HW2 2163   2.101   0.058   2.094  0.5488  2.2559  0.4586
  722SOL     OW 2164   2.343   1.661   0.506  0.6178  0.3111 -0.3748
  722SOL    HW1 2165   2.344   1.661   0.406 -0.9002  2.7327  1.1075
  722SOL    HW2 2166   2.248   1.653   0.549 -0.2256 -1.1942  0.7381
  723SOL     OW 2167   2.575   2.837   1.893 -0.2294 -0.0328  0.1198
  723SOL    HW1 2168   2.631   2.831   1.982 -2.8202  1.8307 -2.3793
  723SOL    HW2 2169   2.476   2.848   1.917 -1.2291  0.3922  1.3663
  724SOL     OW 2170   0.394   2.433   2.407 -0.5998  0.2328  0.5325
  724SOL    HW1 2171   0.296   2.468   2.406 -1.5404 -0.2609 -1.0173
  724SOL    HW2 2172   0.424   2.424   2.503  0.2183 -3.3666 -1.1523
  725SOL     OW 2173   2.288   2.756   1.435 -0.4749  0.0199  0.5146
  725SOL    HW1 2174   2.364   2.776   1.362  2.4462 -0.9517 -2.8732
  725SOL    HW2 2175   2.285   2.664   1.481 -1.5098 -0.3633  2.1916
  726SOL     OW 2176   2.390   2.256   0.779 -0.0702 -0.1005  0.6298
  726SOL    HW1 2177   2.353   2.347   0.816  2.3816 -1.5371  0.6863
  726SOL    HW2 2178   2.328   2.223   0.702 -1.2431  0.7458 -0.5331
  727SOL     OW 2179   0.220   0.014   0.149 -0.1934 -0.8962  0.3333
  727SOL    HW1 2180   0.259  -0.082   0.141  1.4144 -1.1278  1.3839
  727SOL    HW2 2181   0.217   0.071   0.062  0.7818 -0.9273  1.9251
  728SOL     OW 2182   2.783   0.718   1.045  0.7580 -0.3577  0.2377
  728SOL    HW1 2183   2.728   0.665   0.975  1.5658 -3.3055  0.1421
  728SOL    HW2 2184   2.799   0.655   1.124  1.7308  1.9620  0.3251
  729SOL     OW 2185   2.911   2.470   0.743 -0.5491  0.3333  0.7095
  729SOL    HW1 2186   2.865   2.375   0.742 -0.8547 -1.6206 -0.2701
  729SOL    HW2 2187   3.011   2.461   0.737  0.0879 -0.5812  2.3610
  730SOL     OW 2188   2.600   0.563   0.872 -0.1604 -0.2992  0.1941
  730SOL    HW1 2189   2.566   0.658   0.866  4.3284 -0.3737 -0.2615
  730SOL    HW2 2190   2.681   0.548   0.818 -0.4869 -0.4419  4.3707
  731SOL     OW 2191   0.043   2.124   2.455  0.2307  0.1758  0.3415
  731SOL    HW1 2192   0.091   2.172   2.534 -3.1489  3.0609  1.0127
  731SOL    HW2 2193  -0.029   2.071   2.493  4.6309  0.4379 -0.6033
  732SOL     OW 2194   1.139   2.844   1.951 -0.0246 -0.1597  0.6212
  732SOL    HW1 2195   1.158   2.776   2.031  0.9904  0.1287  0.4786
  732SOL    HW2 2196   1.152   2.795   1.859  1.6346 -1.8974  0.9082
  733SOL     OW 2197   3.028   0.719   2.097 -0.3761 -0.1312  0.6915
  733SOL    HW1 2198   3.111   0.781   2.109 -2.1930  0.1297  0.3020
  733SOL    HW2 2199   3.057   0.635   2.038 -1.2348  0.5191 -2.0439
  734SOL     OW 2200   1.394   0.360   2.700  0.1414  0.1353 -0.1263
  734SOL    HW1 2201   1.422   0.431   2.776  1.7414  0.1679  1.9198
  734SOL    HW2 2202   1.315   0.300   2.728  2.1348  0.2571  0.5127
  735SOL     OW 2203   2.831   2.593   2.276 -0.3262 -0.2983  0.1313
  735SOL    HW1 2204   2.757   2.595   2.207 -0.7627  0.5679  2.7397
  735SOL    HW2 2205   2.926   2.587   2.235  1.3691 -1.8070 -3.1054
  736SOL     OW 2206   0.798   0.372   2.630 -0.1091 -0.7142 -0.3016
  736SOL    HW1 2207   0.716   0.430   2.619 -1.4007  0.0905 -2.4394
  736SOL    HW2 2208   0.814   0.324   2.536  1.5732 -2.5161 -0.6231
  737SOL     OW 2209   2.681   0.462   2.802  0.0035 -0.1609  0.1684
  737SOL    HW1 2210   2.665   0.453   2.910 -2.3925  1.0711  1.7502
  737SOL    HW2 2211   2.774   0.418   2.777  0.9344 -1.6342  0.0059
  738SOL     OW 2212   1.659   1.213   3.032  0.2737 -0.2074  0.0689
  738SOL    HW1 2213   1.750   1.165   3.005  0.1320 -3.0228 -0.8635
  738SOL    HW2 2214   1.587   1.157   2.988  0.8045  1.3687  0.4854
  739SOL     OW 2215   1.759   0.628   0.698 -0.2562 -0.0148 -0.3333
  739SOL    HW1 2216   1.788   0.604   0.794 -1.5909 -1.8293  0.0224
  739SOL    HW2 2217   1.796   0.554   0.635 -1.5120 -0.1591  0.7041
  740SOL     OW 2218   1.936   1.954   2.163 -0.3679  0.7760 -0.7119
  740SOL    HW1 2219   2.022   1.966   2.103  1.3753 -1.1999 -0.5544
  740SOL    HW2 2220   1.870   1.890   2.120  1.5158  0.8209 -1.5445
  741SOL     OW 2221   2.496   0.127   2.572 -0.0543  0.5849 -0.6831
  741SOL    HW1 2222   2.595   0.102   2.599  0.7365  0.1498 -0.6844
  741SOL    HW2 2223   2.469   0.092   2.479  0.0262  1.2233  2.1198
  742SOL     OW 2224   2.251   1.377   0.105  0.3222  0.1250 -0.5623
  742SOL    HW1 2225   2.161   1.426   0.125 -2.4338  1.1272  1.5390
  742SOL    HW2 2226   2.255   1.277   0.138  4.7418  0.5046  2.1357
  743SOL     OW 2227   1.746   0.607   2.602  0.0160  0.5691 -0.1354
  743SOL    HW1 2228   1.764   0.558   2.513  2.6282 -2.2406  0.9361
  743SOL    HW2 2229   1.661   0.669   2.600 -0.4932  3.0976 -1.6589
  744SOL     OW 2230   2.637   2.093   0.032 -0.3321  0.0269 -0.6611
  744SOL    HW1 2231   2.536   2.103   0.059 -0.3808 -0.9087  0.1818
  744SOL    HW2 2232   2.697   2.048   0.110 -0.8257  0.0498  0.6655
  745SOL     OW 2233   2.159   2.716   2.213  0.2493  0.0698 -0.4574
  745SOL    HW1 2234   2.075   2.662   2.192 -0.1824  1.6587  0.9708
  745SOL    HW2 2235   2.153   2.764   2.306  0.9806 -1.3997  2.9980
  746SOL     OW 2236   3.088   2.618   1.831  0.2996  0.1340  0.4776
  746SOL    HW1 2237   3.187   2.601   1.805 -1.5051  1.4684  0.0108
  746SOL    HW2 2238   3.061   2.718   1.821  1.5466 -0.8569 -2.1023
  747SOL     OW 2239   3.085   1.803   1.711  0.7460 -0.1675  0.3258
  747SOL    HW1 2240   3.076   1.704   1.681  1.0476  0.7904  0.3496
  747SOL    HW2 2241   3.171   1.847   1.668 -0.8621  1.0964 -1.0353
  748SOL     OW 2242   1.746   2.774   2.882  0.4083  0.3547  0.2264
  748SOL    HW1 2243   1.760   2.809   2.982 -2.4625 -1.5414  2.6193
  748SOL    HW2 2244   1.651   2.743   2.858  0.6629 -1.9578  1.8425
  749SOL     OW 2245   1.269   0.075   0.844  0.1276  0.2329  0.0638
  749SOL    HW1 2246   1.229  -0.019   0.868  0.2665  1.3087  4.0768
  749SOL    HW2 2247   1.304   0.087   0.746  0.7235 -0.5347  2.4500
  750SOL     OW 2248   2.372   0.220   1.894 -0.2599  0.5127 -0.6977
  750SOL    HW1 2249   2.398   0.275   1.811  0.1973  0.9128  2.5122
  750SOL    HW2 2250   2.363   0.273   1.977 -2.1294 -0.9503 -1.0518
  751SOL     OW 2251   0.846   2.234   2.847 -0.1035 -0.0642  0.4871
  751SOL    HW1 2252   0.912   2.220   2.931  2.9974 -1.5912 -0.9557
  751SOL    HW2 2253   0.771   2.162   2.849 -0.2507  1.8321  2.6612
  752SOL     OW 2254   1.238   0.926   1.561 -0.0190  0.4281 -0.6586
  752SOL    HW1 2255   1.284   0.960   1.476 -1.3813 -0.0044 -1.1776
  752SOL    HW2 2256   1.279   0.841   1.602  0.4239  0.3696  0.3025
  753SOL     OW 2257   0.933   2.627   1.786 -0.5314 -0.2929  0.3716
  753SOL    HW1 2258   1.034   2.656   1.762  0.5922  1.1514  0.7050
  753SOL    HW2 2259   0.853   2.672   1.739 -1.4885 -2.8865  1.0143
  754SOL     OW 2260   1.129   1.253   3.066  0.3666  0.5036 -0.1812
  754SOL    HW1 2261   1.196   1.218   3.000  0.7148  1.9735 -0.5187
  754SOL    HW2 2262   1.098   1.352   3.044  0.3889  1.1282 -0.5061
  755SOL     OW 2263   1.997   0.523   2.226 -0.1046  0.2911 -0.2087
  755SOL    HW1 2264   2.066   0.450   2.263  3.5077  0.9140  2.2913
  755SOL    HW2 2265   1.898   0.511   2.251  1.2149 -0.3650 -2.0523
  756SOL     OW 2266   2.634   0.988   2.915 -0.0668 -0.6982 -0.2476
  756SOL    HW1 2267   2.721   0.936   2.920  0.2242  0.0582  0.6906
  756SOL    HW2 2268   2.569   0.964   2.995 -2.4473  0.2486  1.7251
  757SOL     OW 2269   0.124   0.548   1.706 -0.4951  0.2334 -0.5951
  757SOL    HW1 2270   0.117   0.647   1.675  0.7217 -1.3971  0.8196
  757SOL    HW2 2271   0.168   0.482   1.638  0.1446 -0.2853 -2.1129
  758SOL     OW 2272   2.414   3.087   1.539  0.3254  0.1211 -0.4799
  758SOL    HW1 2273   2.333   3.057   1.596  0.1503  0.7040 -0.7424
  758SOL    HW2 2274   2.384   3.111   1.443  2.4381  1.2797  2.1976
  759SOL     OW 2275   1.670   3.093   0.069 -0.5170  0.2238  0.3274
  759SOL    HW1 2276   1.621   3.138  -0.009 -0.1588  2.0701 -1.3086
  759SOL    HW2 2277   1.768   3.063   0.054  0.2679  1.4095 -0.4752
  760SOL     OW 2278   2.725   2.006   2.810  0.3854 -0.0557  0.1236
  760SOL    HW1 2279   2.803   1.961   2.759  0.8969  2.9484  0.6737
  760SOL    HW2 2280   2.751   2.098   2.836  0.1887 -2.4835 -0.6293
  761SOL     OW 2281   1.925   1.712   1.601 -0.8271  1.2052 -0.3379
  761SOL    HW1 2282   1.972   1.618   1.609  0.2733 -0.3534  1.9583
  761SOL    HW2 2283   1.837   1.704   1.545 -0.1420 -0.0201  0.1721
  762SOL     OW 2284   0.531   2.407   0.944  0.3157  0.2586 -0.0145
  762SOL    HW1 2285   0.597   2.400   0.863 -2.1098  0.8524 -1.3392
  762SOL    HW2 2286   0.572   2.452   1.030  1.1422  0.4906  3.7279
  763SOL     OW 2287   2.049   1.555   2.968 -1.0333  0.0754 -0.5546
  763SOL    HW1 2288   2.090   1.508   2.884 -0.4937 -0.1992  0.7812
  763SOL    HW2 2289   1.969   1.508   3.015  2.6079  2.2289  2.4886
  764SOL     OW 2290   0.678   0.531   0.880 -0.3372 -0.2658 -0.4175
  764SOL    HW1 2291   0.691   0.467   0.797 -2.0162 -0.4746  0.2150
  764SOL    HW2 2292   0.774   0.543   0.928  0.6355  1.4333  0.1416
  765SOL     OW 2293   0.664   0.225   0.787 -0.3538 -0.5033  0.5276
  765SOL    HW1 2294   0.756   0.245   0.739 -0.1288 -0.6060  0.5279
  765SOL    HW2 2295   0.670   0.228   0.892  0.2204 -3.0122 -0.3326
  766SOL     OW 2296   2.942   2.048   3.093 -0.0017 -0.5510 -0.7117
  766SOL    HW1 2297   2.845   2.026   3.071  0.6913  1.4116 -0.9325
  766SOL    HW2 2298   2.974   2.139   3.047 -0.2799  0.8404  0.1967
  767SOL     OW 2299   2.854   1.568   0.505 -0.5376  0.1612 -0.0079
  767SOL    HW1 2300   2.754   1.541   0.525  0.6899 -1.1122 -0.9315
  767SOL    HW2 2301   2.903   1.589   0.592 -1.4456 -2.8741 -0.2909
  768SOL     OW 2302   1.059   0.278   0.293 -0.2196  0.4733 -0.5370
  768SOL    HW1 2303   0.979   0.206   0.300 -2.8767 -1.8860  2.8612
  768SOL    HW2 2304   1.150   0.231   0.274 -0.8715 -1.5875 -1.9650
  769SOL     OW 2305   1.213   1.820   2.277  0.6615 -0.2229  1.2988
  769SOL    HW1 2306   1.296   1.812   2.331 -1.8102  2.6317 -1.2255
  769SOL    HW2 2307   1.161   1.725   2.271 -0.7285 -0.2357 -0.2570
  770SOL     OW 2308   0.149   1.139   2.375 -0.4465 -0.5425 -0.7142
  770SOL    HW1 2309   0.140   1.199   2.457  1.6066  0.0923 -0.8679
  770SOL    HW2 2310   0.067   1.149   2.321 -0.6171  2.1926 -1.3717
  771SOL     OW 2311   2.926   2.837   1.944  0.4132 -0.0863 -0.1793
  771SOL    HW1 2312   2.920   2.905   1.866  1.3659  2.5522  0.0910
  771SOL    HW2 2313   2.868   2.870   2.025  1.6338 -0.0987 -4.0347
  772SOL     OW 2314   2.137   0.108   2.977 -0.6935 -0.2573 -0.0696
  772SOL    HW1 2315   2.210   0.043   3.014 -0.2227 -0.7888  0.6126
  772SOL    HW2 2316   2.146   0.209   3.011  0.9808 -0.6473  0.5470
  773SOL     OW 2317   0.669   2.091   2.473 -0.2636  0.3890  0.3666
  773SOL    HW1 2318   0.632   2.109   2.378  0.5096 -0.3360 -0.2231
  773SOL    HW2 2319   0.600   2.076   2.548  2.0569  1.8016  0.7990
  774SOL     OW 2320   2.032   3.081   2.625 -0.3892 -0.2168  0.7657
  774SOL    HW1 2321   2.024   3.162   2.685 -1.0589 -0.8704 -0.7621
  774SOL    HW2 2322   2.098   3.009   2.668  0.4898 -2.1248 -0.3568
  775SOL     OW 2323   2.497   2.852   2.342  0.2516  0.0364  0.8993
  775SOL    HW1 2324   2.485   2.957   2.347  0.3772  1.9905  0.7670
  775SOL    HW2 2325   2.584   2.824   2.389  1.9974  3.0525 -0.1003
  776SOL     OW 2326   0.026   1.235   0.218 -0.5802 -0.2792  0.3329
  776SOL    HW1 2327  -0.015   1.147   0.173 -1.1099 -2.3285  2.0910
  776SOL    HW2 2328  -0.045   1.299   0.262 -0.8387 -1.8912 -1.2367
  777SOL     OW 2329   0.264   2.699   0.454  0.0938  0.4354  0.0150
  777SOL    HW1 2330   0.162   2.673   0.464  1.1582  1.7590  0.5976
  777SOL    HW2 2331   0.290   2.795   0.485  1.7992  0.9201 -0.4069
  778SOL     OW 2332   1.351   1.949   0.188 -0.4082  0.3748 -0.0743
  778SOL    HW1 2333   1.285   1.977   0.265 -1.3705  0.0618 -1.8262
  778SOL    HW2 2334   1.371   2.031   0.124 -0.0103  1.0188  1.8553
  779SOL     OW 2335   0.190   0.803   0.539  0.0982 -0.0674 -0.3429
  779SOL    HW1 2336   0.159   0.704   0.525 -0.9849 -1.4194 -0.3113
  779SOL    HW2 2337   0.123   0.855   0.593 -0.7080 -0.2693  0.7149
  780SOL     OW 2338   0.003   0.320   2.389 -0.3116 -0.6801  0.2835
  780SOL    HW1 2339  -0.040   0.414   2.373  1.6971 -1.2476 -2.1099
  780SOL    HW2 2340   0.095   0.319   2.340  0.3930 -0.0749 -1.7863
  781SOL     OW 2341   0.589   1.722   1.629  0.0690  0.7082 -0.1209
  781SOL    HW1 2342   0.613   1.712   1.731 -1.1697  1.5088 -2.4632
  781SOL    HW2 2343   0.501   1.677   1.605  0.1856 -1.6531  1.9667
  782SOL     OW 2344   2.638   0.106   0.892 -0.3733  0.1260 -0.1821
  782SOL    HW1 2345   2.576   0.130   0.814  2.4716 -2.3250 -1.6217
  782SOL    HW2 2346   2.611   0.156   0.976  1.0807  1.0194 -2.6815
  783SOL     OW 2347   2.816   0.678   2.494  0.1532  0.1336  0.3649
  783SOL    HW1 2348   2.791   0.705   2.591 -3.4820 -1.6229  0.8562
  783SOL    HW2 2349   2.748   0.615   2.455  0.9922  2.8085  2.5102
  784SOL     OW 2350   1.391   2.168   0.046 -0.4589 -0.1890  0.0607
  784SOL    HW1 2351   1.479   2.217   0.085 -1.6793  0.1776 -3.5070
  784SOL    HW2 2352   1.391   2.168  -0.057 -0.2446 -1.6581 -0.4957
  785SOL     OW 2353   2.128   0.342   0.016  0.2435 -0.0942 -0.0842
  785SOL    HW1 2354   2.054   0.357   0.090 -2.7894  2.2962  2.5604
  785SOL    HW2 2355   2.155   0.433  -0.024  2.2906  1.6080 -1.9189
  786SOL     OW 2356   2.035   2.150   2.313  0.6895 -0.1401 -0.3255
  786SOL    HW1 2357   1.984   2.085   2.257  0.6328  4.1603  2.1681
  786SOL    HW2 2358   2.130   2.122   2.337 -0.6484 -1.5887 -1.3549
  787SOL     OW 2359   1.420   0.612   0.809  0.2565  0.1868 -0.4469
  787SOL    HW1 2360   1.393   0.712   0.803  0.3714 -2.8610 -0.3918
  787SOL    HW2 2361   1.481   0.589   0.726  3.1950 -2.0829  0.1121
  788SOL     OW 2362   1.219   0.460   3.019  0.1585  0.3290 -0.3301
  788SOL    HW1 2363   1.116   0.453   2.990 -2.9139 -0.7060 -1.6116
  788SOL    HW2 2364   1.275   0.521   2.961  0.9028  0.4086  0.4551
  789SOL     OW 2365   2.643   0.105   1.878  0.6650 -0.4632  0.1244
  789SOL    HW1 2366   2.539   0.079   1.886 -2.1632 -2.0371 -0.8393
  789SOL    HW2 2367   2.705   0.036   1.837  0.7808  1.8483  1.1415
  790SOL     OW 2368   2.604   2.671   0.804  0.2334  0.2670  0.1691
  790SOL    HW1 2369   2.689   2.661   0.741  1.3018  0.1855 -1.1698
  790SOL    HW2 2370   2.588   2.756   0.855  2.5623 -2.8739  1.9497
  791SOL     OW 2371   1.975   1.239   0.240 -0.2095 -0.5707 -0.1313
  791SOL    HW1 2372   1.886   1.196   0.271 -1.9880 -2.1572  1.1643
  791SOL    HW2 2373   2.058   1.176   0.222 -1.0215  0.4907 -4.0696
  792SOL     OW 2374   0.428   1.984   2.189  0.1192 -0.5766 -0.3531
  792SOL    HW1 2375   0.465   2.081   2.206 -3.9257 -0.5754 -0.4795
  792SOL    HW2 2376   0.347   1.965   2.251  0.2418 -0.6840 -1.3900
  793SOL     OW 2377   2.091   1.513   2.147 -0.6645 -0.5723 -0.7651
  793SOL    HW1 2378   2.196   1.536   2.149  3.9932 -1.7744 -3.6057
  793SOL    HW2 2379   2.060   1.455   2.070  2.8598  0.3445  0.3516
  794SOL     OW 2380   0.518   1.496   2.465  0.2741  0.6293 -0.1978
  794SOL    HW1 2381   0.569   1.447   2.388  2.2389  0.6590 -1.6988
  794SOL    HW2 2382   0.434   1.551   2.447  0.4144 -0.8426 -1.7493
  795SOL     OW 2383   2.513   2.306   1.801 -0.5459 -0.3453  0.1796
  795SOL    HW1 2384   2.562   2.283   1.885  0.0849  0.2430 -0.3529
  795SOL    HW2 2385   2.432   2.241   1.786  0.2872  0.0106 -0.7428
  796SOL     OW 2386   3.053   1.077   2.722 -0.4264  0.3771  0.3423
  796SOL    HW1 2387   2.951   1.090   2.741  2.6922  0.3527  0.2299
  796SOL    HW2 2388   3.109   1.103   2.805  0.1942 -2.0638 -1.8213
  797SOL     OW 2389   0.652   0.655   1.347 -0.1515  0.0095 -0.2551
  797SOL    HW1 2390   0.736   0.689   1.401 -2.7107 -1.0636  2.9760
  797SOL    HW2 2391   0.635   0.723   1.268 -0.3422  0.4270  1.1074
  798SOL     OW 2392   1.166   0.508   0.908  0.1887  0.4229 -0.5276
  798SOL    HW1 2393   1.194   0.530   1.008 -0.1196 -1.1567  2.9366
  798SOL    HW2 2394   1.239   0.534   0.838  0.6097 -2.1772  1.7345
  799SOL     OW 2395   1.821   2.694   1.002  0.2302  0.3334 -0.2196
  799SOL    HW1 2396   1.851   2.605   1.052  0.8853 -2.1396  0.0153
  799SOL    HW2 2397   1.867   2.696   0.908  2.6011  0.7550  1.9568
  800SOL     OW 2398   2.971   0.847   1.843  0.5041 -0.1635  0.4041
  800SOL    HW1 2399   2.989   0.951   1.851  1.2518 -0.6950  1.2984
  800SOL    HW2 2400   2.962   0.797   1.936  2.8325  0.2825  1.3623
  801SOL     OW 2401   1.962   2.168   0.109  0.1039  0.4220 -0.2711
  801SOL    HW1 2402   1.871   2.166   0.060 -1.7785 -0.9452 -0.1918
  801SOL    HW2 2403   2.034   2.109   0.061 -0.2106 -0.1151  1.0471
  802SOL     OW 2404   0.673   0.610   2.521  0.7559  0.2214  0.2328
  802SOL    HW1 2405   0.733   0.618   2.433 -1.9169  1.7739 -1.5267
  802SOL    HW2 2406   0.576   0.649   2.505  0.6238  0.1770  0.0656
  803SOL     OW 2407   0.931   0.068   0.896 -0.1291  0.6572  0.0552
  803SOL    HW1 2408   0.992   0.129   0.956 -1.3600 -1.1596  0.2430
  803SOL    HW2 2409   0.930   0.092   0.797  1.3827 -1.0435  0.1741
  804SOL     OW 2410   0.304   0.020   2.189 -0.5353 -0.2221  0.0846
  804SOL    HW1 2411   0.267   0.117   2.201 -0.8070  1.6429 -1.1303
  804SOL    HW2 2412   0.261  -0.031   2.106 -1.2995  0.6199 -2.6209
  805SOL     OW 2413   2.418   0.375   0.344 -0.1225  0.0359 -0.3849
  805SOL    HW1 2414   2.479   0.353   0.427 -1.3625  0.2312 -0.7708
  805SOL    HW2 2415   2.427   0.305   0.265 -1.5493  1.4886  1.9656
  806SOL     OW 2416   0.587   2.598   1.833 -0.7682  0.5983  0.4487
  806SOL    HW1 2417   0.548   2.662   1.908  0.6815 -2.6195  1.4398
  806SOL    HW2 2418   0.636   2.650   1.755 -0.7780  3.1302 -0.4404
  807SOL     OW 2419   2.516   0.942   0.467 -0.0416  0.2313 -0.0694
  807SOL    HW1 2420   2.601   0.890   0.477 -1.4505  0.1783 -1.6458
  807SOL    HW2 2421   2.517   0.996   0.378  1.9093 -0.9486  0.6173
  808SOL     OW 2422   0.646   2.015   2.903  0.0407 -0.1049  0.1518
  808SOL    HW1 2423   0.608   2.056   2.989  0.0453  2.2239  0.3634
  808SOL    HW2 2424   0.682   1.917   2.907  1.7944  0.7625 -0.4881
  809SOL     OW 2425   2.580   1.971   1.906  0.2699 -0.2437  0.6201
  809SOL    HW1 2426   2.670   2.025   1.929 -1.1095  0.8530 -1.3932
  809SOL    HW2 2427   2.553   1.995   1.805  2.5396  1.8769 -1.5201
  810SOL     OW 2428   2.212   1.121   0.492  0.1320 -0.1771 -0.3652
  810SOL    HW1 2429   2.177   1.027   0.525 -4.6604 -0.2024 -0.8028
  810SOL    HW2 2430   2.143   1.194   0.517 -0.6269 -0.3830 -0.9176
  811SOL     OW 2431   1.292   2.526   1.176  0.1061 -0.8506 -0.3862
  811SOL    HW1 2432   1.259   2.429   1.158 -2.3712 -0.0021 -4.2963
  811SOL    HW2 2433   1.359   2.540   1.255  2.5923  0.1693 -2.3602
  812SOL     OW 2434   1.461   0.744   1.926  0.5563 -0.0992  0.4960
  812SOL    HW1 2435   1.381   0.784   1.982  0.2645  0.9096 -3.1102
  812SOL    HW2 2436   1.509   0.825   1.877 -1.2750  2.5969  0.4346
  813SOL     OW 2437   1.655   2.077   2.382  0.7132 -0.1197  0.0513
  813SOL    HW1 2438   1.739   2.028   2.419 -0.7277 -0.7722  1.4501
  813SOL    HW2 2439   1.619   2.039   2.294 -2.5304  0.2118  2.1244
  814SOL     OW 2440   2.995   1.681   2.879 -0.5282 -0.7068  0.2681
  814SOL    HW1 2441   3.059   1.632   2.951 -1.8534 -3.7990  1.9123
  814SOL    HW2 2442   3.008   1.783   2.886  1.3491 -0.3583  3.7419
  815SOL     OW 2443   2.181   2.869   2.742  0.5325  0.0693  0.0293
  815SOL    HW1 2444   2.154   2.809   2.823 -1.6082  0.3706  0.9831
  815SOL    HW2 2445   2.262   2.931   2.761 -2.1279  0.2952  1.1894
  816SOL     OW 2446   1.496   0.350   1.672 -0.5370  0.7418 -1.0009
  816SOL    HW1 2447   1.531   0.252   1.693 -1.3096  0.4943  3.4256
  816SOL    HW2 2448   1.453   0.393   1.757  1.0593  0.6453 -0.8404
  817SOL     OW 2449   0.371   1.323   2.621 -0.2346 -0.0223 -0.1190
  817SOL    HW1 2450   0.272   1.342   2.642 -0.9743  1.7563 -1.5291
  817SOL    HW2 2451   0.428   1.385   2.560  0.1271 -1.2579 -1.1078
  818SOL     OW 2452   2.016   0.863   0.468 -0.1465  0.0282  0.1617
  818SOL    HW1 2453   2.113   0.852   0.438 -0.5266  4.5700 -0.2884
  818SOL    HW2 2454   2.006   0.843   0.567  1.1183  0.2343 -1.4778
  819SOL     OW 2455   2.792   2.889   3.031  0.0650  0.0216 -0.7066
  819SOL    HW1 2456   2.844   2.798   3.025  1.0088  1.6870  0.5091
  819SOL    HW2 2457   2.709   2.890   2.974  3.1053  2.4084  0.9891
  820SOL     OW 2458   1.265   1.045   0.535 -0.0759 -0.0338  0.1419
  820SOL    HW1 2459   1.267   1.130   0.592 -3.5738 -0.0365  0.7957
  820SOL    HW2 2460   1.274   0.954   0.580  0.5702  0.7003  0.6890
  821SOL     OW 2461   0.073   1.223   0.690 -0.2506  0.5454 -0.1517
  821SOL    HW1 2462   0.016   1.228   0.781  1.3284 -1.3535 -1.9275
  821SOL    HW2 2463   0.140   1.305   0.696  1.0336  3.4055  1.9873
  822SOL     OW 2464   2.531   1.729   2.475  0.4181 -0.5608  0.1859
  822SOL    HW1 2465   2.541   1.809   2.545 -0.4856 -1.4077  1.2575
  822SOL    HW2 2466   2.440   1.727   2.426  1.0911  0.5791  1.7825
  823SOL     OW 2467   2.020   0.929   1.220  0.3401 -0.2381  0.0294
  823SOL    HW1 2468   1.996   0.891   1.317 -2.3621 -2.4589  1.9829
  823SOL    HW2 2469   1.950   0.912   1.147  1.6028 -2.4981  0.1240
  824SOL     OW 2470   0.184   1.886   2.787  0.0569 -0.2757  0.5037
  824SOL    HW1 2471   0.207   1.861   2.885 -2.7779 -0.4228 -1.4485
  824SOL    HW2 2472   0.254   1.874   2.712 -1.2827 -0.4096 -0.3217
  825SOL     OW 2473   1.301   1.075   0.266  0.0593 -0.3194 -0.3106
  825SOL    HW1 2474   1.328   1.175   0.245 -3.0932  0.2899 -0.7897
  825SOL    HW2 2475   1.296   1.052   0.366  0.5857 -2.7820  2.0572
  826SOL     OW 2476   1.936   0.601   1.590  0.1430  0.4553 -0.1072
  826SOL    HW1 2477   2.026   0.554   1.612  0.7832 -1.9829 -3.1550
  826SOL    HW2 2478   1.857   0.533   1.578 -0.1085 -0.4455 -0.5878
  827SOL     OW 2479   0.704   1.189   0.447 -0.0283 -0.4689  0.7080
  827SOL    HW1 2480   0.789   1.140   0.418 -0.3547 -0.5377  2.5901
  827SOL    HW2 2481   0.616   1.145   0.417 -0.5880 -2.1745 -0.5966
  828SOL     OW 2482   2.635   0.156   1.528  0.2539  0.2829  0.1572
  828SOL    HW1 2483   2.551   0.094   1.522 -1.6289  0.3768 -0.8060
  828SOL    HW2 2484   2.657   0.187   1.628  0.2923  0.0277  0.9731
  829SOL     OW 2485   2.930   2.388   2.970 -0.1314 -0.4720  0.2350
  829SOL    HW1 2486   2.826   2.375   2.997  0.4388  0.4879 -0.2544
  829SOL    HW2 2487   2.952   2.486   2.990 -2.2227  0.2513  0.3099
  830SOL     OW 2488   2.908   0.903   2.986  0.7563  0.6998  0.5747
  830SOL    HW1 2489   2.947   0.991   3.025  2.0425  1.6021 -0.1463
  830SOL    HW2 2490   2.895   0.832   3.063 -2.7954  1.1679  1.7674
  831SOL     OW 2491   0.127   0.565   0.435 -0.3710 -0.2345  0.4972
  831SOL    HW1 2492   0.097   0.507   0.516  1.5349  1.1972  2.4938
  831SOL    HW2 2493   0.110   0.519   0.344 -0.0918 -0.3426  0.1577
  832SOL     OW 2494   1.793   0.710   3.055  0.2727  0.4183  0.5674
  832SOL    HW1 2495   1.710   0.737   2.999 -1.8422 -0.1477  1.2698
  832SOL    HW2 2496   1.794   0.607   3.075 -0.1412  1.5515 -2.6376
  833SOL     OW 2497   2.361   2.116   0.517  0.0199  0.0111  0.2857
  833SOL    HW1 2498   2.261   2.099   0.489 -1.5196  1.2533  2.5514
  833SOL    HW2 2499   2.416   2.027   0.521 -0.7035  1.8212 -1.1388
  834SOL     OW 2500   0.151   0.056   0.558 -0.6140 -0.0056 -0.2282
  834SOL    HW1 2501   0.197  -0.034   0.528  1.4023 -2.3360 -2.2057
  834SOL    HW2 2502   0.164   0.132   0.490  0.0234  0.0097  1.3936
  835SOL     OW 2503   2.431   1.609   1.140  0.1262  0.2480  0.6257
  835SOL    HW1 2504   2.510   1.549   1.169 -0.4756  2.8537 -0.8056
  835SOL    HW2 2505   2.472   1.705   1.117  0.6880  2.4647  2.9456
  836SOL     OW 2506   1.558   0.812   2.587  0.1423  0.0962 -0.2260
  836SOL    HW1 2507   1.454   0.821   2.562  0.2380 -1.9261  0.6323
  836SOL    HW2 2508   1.622   0.865   2.527 -1.3033 -1.5697 -0.7628
  837SOL     OW 2509   1.702   0.124   0.528  0.3976  0.0253  0.2103
  837SOL    HW1 2510   1.666   0.192   0.596 -2.7013 -2.0824 -0.4782
  837SOL    HW2 2511   1.639   0.114   0.441 -0.2171  0.0392 -2.1539
  838SOL     OW 2512   1.230   1.466   2.691  0.1034  0.1476  0.4465
  838SOL    HW1 2513   1.148   1.493   2.746  1.5808  2.8996 -1.2602
  838SOL    HW2 2514   1.213   1.374   2.646 -0.0416 -0.2731  1.7790
  839SOL     OW 2515   1.631   0.376   0.968  0.5012  0.0539 -0.0116
  839SOL    HW1 2516   1.582   0.447   1.027  2.3416  3.2338 -0.0059
  839SOL    HW2 2517   1.584   0.281   0.985  3.0876  0.0153  0.5088
  840SOL     OW 2518   2.658   2.963   1.655 -0.1492  0.0969 -0.2396
  840SOL    HW1 2519   2.570   3.002   1.611  0.3058  2.8915  2.4523
  840SOL    HW2 2520   2.629   2.917   1.743  0.4605 -1.0432 -2.1516
  841SOL     OW 2521   1.525   0.825   2.985  0.2694 -0.1584  0.8311
  841SOL    HW1 2522   1.496   0.856   3.084  2.8067 -0.9513  4.9763
  841SOL    HW2 2523   1.506   0.903   2.917  0.4872  3.5939 -0.7400
  842SOL     OW 2524   0.840   1.626   1.001 -0.5682  0.0625 -0.1872
  842SOL    HW1 2525   0.786   1.702   1.047 -3.1355  1.3199  0.4342
  842SOL    HW2 2526   0.781   1.568   0.933 -0.9967 -1.7891  2.2074
  843SOL     OW 2527   0.148   0.056   1.473  0.4161 -0.4500  0.0696
  843SOL    HW1 2528   0.241   0.095   1.498  1.5690 -1.6317 -2.2935
  843SOL    HW2 2529   0.166  -0.034   1.420  0.4054  0.4162  0.4810
  844SOL     OW 2530   0.707   2.497   0.210 -0.3348 -0.0772 -0.0928
  844SOL    HW1 2531   0.672   2.514   0.306 -1.3099 -1.3864 -0.1733
  844SOL    HW2 2532   0.638   2.488   0.134  0.2541 -2.2905 -0.7567
  845SOL     OW 2533   1.724   3.076   1.259  0.2244  1.1498 -0.6207
  845SOL    HW1 2534   1.668   3.075   1.347 -2.5761  1.2122  0.0756
  845SOL    HW2 2535   1.723   3.170   1.212  0.1354  0.8669  0.3488
  846SOL     OW 2536   1.704   3.024   0.922  0.3950  0.4308  0.0618
  846SOL    HW1 2537   1.717   3.099   0.855 -1.6053 -2.2157  0.9650
  846SOL    HW2 2538   1.786   2.969   0.944  0.2098  1.5935  0.8714
  847SOL     OW 2539   2.095   1.619   0.200 -0.0635  0.1002 -0.5776
  847SOL    HW1 2540   2.042   1.559   0.264  3.2584 -2.0522  0.4926
  847SOL    HW2 2541   2.092   1.591   0.099  1.0789  2.4853  1.7566
  848SOL     OW 2542   2.492   0.825   2.616 -0.1421 -0.7955  0.2218
  848SOL    HW1 2543   2.459   0.923   2.637  0.4061  1.4640  1.0167
  848SOL    HW2 2544   2.426   0.763   2.566  3.3803 -1.3209 -1.3853
  849SOL     OW 2545   2.362   0.829   2.274  0.1815 -0.2432  0.2691
  849SOL    HW1 2546   2.427   0.765   2.225 -0.3170  0.1843  1.3465
  849SOL    HW2 2547   2.330   0.788   2.362  1.5504 -0.8118  2.8155
  850SOL     OW 2548   1.563   0.194   1.240 -0.0701 -0.1333 -0.1426
  850SOL    HW1 2549   1.541   0.166   1.143 -0.7385 -0.8635 -0.1854
  850SOL    HW2 2550   1.531   0.126   1.314 -0.3251  1.3096  1.6152
  851SOL     OW 2551   0.471   1.723   0.648 -0.2971 -0.6255 -0.3349
  851SOL    HW1 2552   0.457   1.827   0.666 -2.5648  0.9175 -0.3831
  851SOL    HW2 2553   0.567   1.697   0.678  1.0944  0.2574  2.4419
  852SOL     OW 2554   0.839   2.203   1.714 -0.6474 -0.5290  0.2144
  852SOL    HW1 2555   0.827   2.301   1.668  1.7106  1.6056 -2.2276
  852SOL    HW2 2556   0.758   2.179   1.773  1.5453  1.1644 -3.4518
  853SOL     OW 2557   2.609   1.506   2.582 -0.4180 -0.2144  0.2043
  853SOL    HW1 2558   2.541   1.426   2.566  0.8678 -1.6878  2.1000
  853SOL    HW2 2559   2.574   1.595   2.527 -0.9515 -0.0329 -0.5608
  854SOL     OW 2560   2.416   1.442   1.785  0.6183 -0.1295  0.5222
  854SOL    HW1 2561   2.476   1.394   1.712 -1.6152 -0.1288 -1.0212
  854SOL    HW2 2562   2.338   1.381   1.821  2.3605 -1.1556 -0.7842
  855SOL     OW 2563   2.017   2.273   0.995  0.0029  0.2534  0.0560
  855SOL    HW1 2564   2.044   2.371   0.959 -0.8008  2.4192  0.3949
  855SOL    HW2 2565   2.074   2.246   1.083  1.1018  1.3978 -0.2064
  856SOL     OW 2566   1.403   1.396   0.885 -0.0911  0.5169 -0.4054
  856SOL    HW1 2567   1.370   1.494   0.879  1.5764  2.0825 -2.1901
  856SOL    HW2 2568   1.434   1.381   0.987  1.6328  0.7065  1.6346
  857SOL     OW 2569   2.891   2.554   1.014 -0.0704 -0.1898 -0.4804
  857SOL    HW1 2570   2.814   2.510   1.071 -0.2534 -1.8032 -0.8658
  857SOL    HW2 2571   2.904   2.498   0.925  1.0197 -2.2618  2.0227
  858SOL     OW 2572   2.256   2.086   1.788  0.1722 -0.1017 -0.0433
  858SOL    HW1 2573   2.184   2.135   1.734  2.4076 -0.2616 -1.3129
  858SOL    HW2 2574   2.333   2.047   1.731 -1.4900  2.0827 -1.0058
  859SOL     OW 2575   2.400   0.424   0.966  0.0897 -0.6577 -0.4561
  859SOL    HW1 2576   2.481   0.495   0.944  1.7878  4.3869 -0.0452
  859SOL    HW2 2577   2.431   0.341   1.020 -1.6377 -2.0956  1.0526
  860SOL     OW 2578   1.957   2.830   0.493 -0.0648  0.3859  0.1031
  860SOL    HW1 2579   1.975   2.767   0.409  2.2105  1.5128  3.3119
  860SOL    HW2 2580   1.973   2.933   0.478  0.3156 -0.1526  1.2464
  861SOL     OW 2581   1.022   2.563   2.802  0.1452 -0.2091  0.3088
  861SOL    HW1 2582   1.100   2.634   2.784  0.3542 -1.0302  0.9891
  861SOL    HW2 2583   1.009   2.553   2.907 -1.1097  3.2677  1.3221
  862SOL     OW 2584   2.974   2.604   1.557  0.0512  0.2392  0.3323
  862SOL    HW1 2585   3.009   2.590   1.654 -0.3969  2.3028  0.5871
  862SOL    HW2 2586   2.874   2.628   1.559  2.1313 -0.8702  0.8452
  863SOL     OW 2587   1.916   2.640   0.275 -0.7657  0.1309  0.3942
  863SOL    HW1 2588   1.953   2.543   0.261 -0.3828 -1.0458 -1.9263
  863SOL    HW2 2589   1.815   2.643   0.260  2.4974 -3.7408 -1.1463
  864SOL     OW 2590   1.904   1.129   2.958 -0.1866  0.3315 -0.1788
  864SOL    HW1 2591   1.942   1.120   2.861  1.0051 -1.3949  0.9711
  864SOL    HW2 2592   1.980   1.105   3.029  0.5322 -0.3179  3.5750
  865SOL     OW 2593   2.120   1.679   0.663 -0.5114 -0.0122 -0.3176
  865SOL    HW1 2594   2.161   1.738   0.743  0.7406  2.1579  0.4836
  865SOL    HW2 2595   2.018   1.659   0.668 -2.8233  0.2439  0.1863
  866SOL     OW 2596   2.861   2.818   1.004  0.4578  0.2961 -0.2493
  866SOL    HW1 2597   2.915   2.861   0.929  1.5056 -0.2024  3.1481
  866SOL    HW2 2598   2.883   2.718   1.009  0.7040 -0.8493  0.9399
  867SOL     OW 2599   0.455   1.324   0.857  0.2827  0.1513 -0.5994
  867SOL    HW1 2600   0.476   1.235   0.807 -2.1395  2.9514 -1.2917
  867SOL    HW2 2601   0.367   1.370   0.821 -1.3230  1.8928 -1.6429
  868SOL     OW 2602   0.842   1.955   1.996  0.2737 -0.7280 -0.1382
  868SOL    HW1 2603   0.836   1.919   2.092 -0.3043  0.6694  0.1029
  868SOL    HW2 2604   0.771   2.030   1.967 -2.7262  1.9116 -0.1350
  869SOL     OW 2605   2.524   2.038   1.642 -0.0892 -0.0460  0.4541
  869SOL    HW1 2606   2.600   2.092   1.605 -2.3332 -0.8710  2.2585
  869SOL    HW2 2607   2.482   1.974   1.575 -0.7473  1.6026 -1.0219
  870SOL     OW 2608   2.389   2.526   1.179 -0.0600  0.1498  0.0161
  870SOL    HW1 2609   2.354   2.430   1.192  1.2123  1.4757  0.5674
  870SOL    HW2 2610   2.480   2.537   1.230  1.2969  2.6108  0.9507
  871SOL     OW 2611   3.013   1.994   0.512  0.5463 -0.1886 -0.5833
  871SOL    HW1 2612   2.935   2.061   0.489  1.4184 -3.6347  1.3880
  871SOL    HW2 2613   3.015   1.913   0.448 -2.6091 -3.6764  2.4601
  872SOL     OW 2614   2.170   0.493   1.678 -0.0676 -0.4189 -0.4681
  872SOL    HW1 2615   2.124   0.489   1.772 -2.4529  0.7912  1.1300
  872SOL    HW2 2616   2.275   0.484   1.685  1.4183 -2.9457  0.6560
  873SOL     OW 2617   1.711   2.083   2.884  0.1385 -0.2502 -0.3429
  873SOL    HW1 2618   1.701   2.178   2.929  1.8901 -0.8523 -3.1357
  873SOL    HW2 2619   1.652   2.076   2.798  0.9659  2.2908  3.2796
  874SOL     OW 2620   0.701   2.509   0.743 -0.9101 -0.0138 -0.1168
  874SOL    HW1 2621   0.670   2.598   0.783  2.3809 -3.3404  0.7700
  874SOL    HW2 2622   0.798   2.478   0.771 -1.2617 -1.0066  2.2761
  875SOL     OW 2623   2.308   1.528   1.450 -0.5110  0.5627 -0.3353
  875SOL    HW1 2624   2.397   1.573   1.476  1.8774  0.7813  2.8663
  875SOL    HW2 2625   2.270   1.549   1.355 -0.8611  0.2586 -0.1783
  876SOL     OW 2626   0.174   2.209   2.702 -0.1515 -0.2127 -0.3719
  876SOL    HW1 2627   0.209   2.141   2.774  0.1653  1.5552 -0.4657
  876SOL    HW2 2628   0.176   2.307   2.735 -1.2456 -3.7365 -2.1568
  877SOL     OW 2629   2.797   2.651   0.582 -0.0309 -0.1645 -0.2647
  877SOL    HW1 2630   2.842   2.747   0.594  1.4048 -1.8137  1.5768
  877SOL    HW2 2631   2.838   2.579   0.640 -1.7893  1.5291 -0.3250
  878SOL     OW 2632   2.760   1.541   2.248 -0.1538 -0.4064  0.6353
  878SOL    HW1 2633   2.756   1.643   2.229 -0.6735  2.2488 -0.0830
  878SOL    HW2 2634   2.808   1.519   2.337  2.6969  1.8151  2.0260
  879SOL     OW 2635   2.390   0.008   1.226  0.3585 -0.0434  0.3386
  879SOL    HW1 2636   2.431  -0.087   1.239  1.3742  0.6362 -0.3914
  879SOL    HW2 2637   2.294  -0.000   1.184  0.6814  1.3892 -1.1035
  880SOL     OW 2638   0.662   0.418   2.191 -1.0360 -0.2542  0.0143
  880SOL    HW1 2639   0.577   0.394   2.250  1.3411  1.9355 -0.1327
  880SOL    HW2 2640   0.710   0.344   2.132  0.1070  1.5855 -1.4857
  881SOL     OW 2641   0.925   0.052   0.380  0.1940 -0.4330  0.6379
  881SOL    HW1 2642   0.957  -0.029   0.436 -0.6537  1.4494  1.2069
  881SOL    HW2 2643   0.860   0.027   0.302 -0.2103 -1.1975  2.0769
  882SOL     OW 2644   2.755   1.675   1.652  0.1376  0.6227 -0.5124
  882SOL    HW1 2645   2.854   1.698   1.647 -2.4912  3.1503 -0.8958
  882SOL    HW2 2646   2.716   1.697   1.749  0.7142  3.4267  3.3361
  883SOL     OW 2647   0.924   0.620   0.956  0.0649  0.3472  0.4859
  883SOL    HW1 2648   0.944   0.707   1.002 -2.4186  1.2362  1.0683
  883SOL    HW2 2649   1.013   0.571   0.925 -1.1345 -0.2981 -1.4340
  884SOL     OW 2650   1.218   1.848   1.051 -0.7192 -0.0361  0.4984
  884SOL    HW1 2651   1.199   1.850   0.949  0.3391 -2.4016  0.8337
  884SOL    HW2 2652   1.140   1.882   1.113 -1.0925 -2.9969  0.4915
  885SOL     OW 2653   2.274   1.754   2.350 -0.0818 -0.3462  0.0074
  885SOL    HW1 2654   2.180   1.709   2.365 -1.7579 -0.7924  0.5778
  885SOL    HW2 2655   2.280   1.852   2.363 -1.5849 -2.0634  1.5290
  886SOL     OW 2656   2.666   0.471   1.784  0.1517 -0.1313  0.6445
  886SOL    HW1 2657   2.692   0.436   1.877  1.3884  1.9177 -3.4565
  886SOL    HW2 2658   2.737   0.542   1.755  0.6094 -1.3570 -0.6937
  887SOL     OW 2659   0.176   2.029   1.309  0.2621 -0.6288  0.3287
  887SOL    HW1 2660   0.109   2.012   1.229  2.2506  0.8657 -0.5559
  887SOL    HW2 2661   0.200   2.130   1.318  1.9419 -0.2054  1.1054
  888SOL     OW 2662   0.600   1.334   1.484 -0.6189 -0.1818  0.1229
  888SOL    HW1 2663   0.642   1.381   1.404 -1.8111  1.4930  2.7492
  888SOL    HW2 2664   0.566   1.237   1.456  3.9614  1.0907 -3.5026
  889SOL     OW 2665   0.867   2.509   2.145  0.0686 -0.3498  0.0490
  889SOL    HW1 2666   0.786   2.522   2.077  0.9059 -2.3604 -0.2119
  889SOL    HW2 2667   0.960   2.504   2.102 -3.2302  0.6285 -0.0647
  890SOL     OW 2668   2.328   2.378   0.128 -0.0982 -0.1229 -0.4422
  890SOL    HW1 2669   2.385   2.443   0.068 -2.8995 -2.0371 -1.3520
  890SOL    HW2 2670   2.246   2.432   0.164 -2.3949 -0.9858 -1.6630
  891SOL     OW 2671   2.597   1.537   0.604  0.7768  0.2063  0.1948
  891SOL    HW1 2672   2.568   1.481   0.684  1.4598 -0.1942 -0.6051
  891SOL    HW2 2673   2.525   1.591   0.557  0.2018 -0.3338 -0.1222
  892SOL     OW 2674   0.227   0.314   2.217 -0.0159  0.4673  0.1539
  892SOL    HW1 2675   0.239   0.322   2.111 -0.5629 -1.1191 -1.6406
  892SOL    HW2 2676   0.304   0.335   2.282 -0.2445  0.0038  1.5292
  893SOL     OW 2677   1.665   0.242   2.702 -0.3658 -0.2992 -0.1781
  893SOL    HW1 2678   1.718   0.318   2.751 -1.1613  0.4161  2.5258
  893SOL    HW2 2679   1.573   0.281   2.671 -0.8167  0.5600  1.4415
  894SOL     OW 2680   2.143   1.965   0.051 -0.0850 -0.1289  0.0869
  894SOL    HW1 2681   2.127   1.905  -0.036  0.0741 -1.0385 -2.7788
  894SOL    HW2 2682   2.194   1.917   0.127 -0.0641  0.7604  1.5411
  895SOL     OW 2683   2.891   1.415   0.818 -0.0234  0.9258  0.0844
  895SOL    HW1 2684   2.944   1.332   0.849  0.3749 -0.0121  1.0770
  895SOL    HW2 2685   2.950   1.481   0.764 -0.0203 -1.0370 -2.3351
  896SOL     OW 2686   1.742   1.778   1.214  0.5073 -0.3877  0.3953
  896SOL    HW1 2687   1.809   1.833   1.157  0.0981 -1.2877 -0.5663
  896SOL    HW2 2688   1.643   1.798   1.182 -1.8532 -0.7822 -0.8036
  897SOL     OW 2689   0.328   0.510   3.077 -0.4018 -0.4811 -0.1721
  897SOL    HW1 2690   0.266   0.550   3.004  0.5259  0.3849 -0.6584
  897SOL    HW2 2691   0.389   0.585   3.110 -0.1531 -1.9081 -2.0338
  898SOL     OW 2692   0.543   2.849   1.145  0.0321  0.5180 -0.1802
  898SOL    HW1 2693   0.478   2.920   1.184 -1.1643  0.7339 -3.0788
  898SOL    HW2 2694   0.635   2.853   1.191 -0.4675 -0.6862  1.9814
  899SOL     OW 2695   2.693   0.919   1.232  0.0150  0.1229  0.4598
  899SOL    HW1 2696   2.627   0.899   1.155  1.5496  0.8716  0.5280
  899SOL    HW2 2697   2.773   0.977   1.195 -0.5505  2.3477 -1.8704
  900SOL     OW 2698   0.991   2.345   2.325 -1.0810  0.3001  0.3102
  900SOL    HW1 2699   0.939   2.391   2.252  2.7393 -0.0662  0.2165
  900SOL    HW2 2700   0.959   2.366   2.422 -1.8171 -0.7441 -2.3093
  901SOL     OW 2701   1.898   2.438   1.387 -0.1740 -0.4970  0.3495
  901SOL    HW1 2702   1.880   2.452   1.285 -0.7341 -0.8065  1.4614
  901SOL    HW2 2703   1.995   2.431   1.416 -0.9948  1.0718 -1.8195
  902SOL     OW 2704   2.558   1.636   1.474 -0.2229  0.0303 -0.4992
  902SOL    HW1 2705   2.625   1.629   1.555 -0.3431  1.7020  2.1303
  902SOL    HW2 2706   2.593   1.600   1.384 -0.4883  2.1603  1.1468
  903SOL     OW 2707   0.276   2.324   1.963  0.1816  0.3543 -0.1167
  903SOL    HW1 2708   0.185   2.307   2.012 -2.1198  0.9787 -1.3582
  903SOL    HW2 2709   0.279   2.417   1.917  1.3841 -3.0525  0.9182
  904SOL     OW 2710   1.966   0.785   2.591 -0.1070  0.0954  0.3801
  904SOL    HW1 2711   1.889   0.722   2.627 -1.9834  0.9027 -1.3429
  904SOL    HW2 2712   1.956   0.797   2.489 -0.2204 -0.3576 -3.1903
  905SOL     OW 2713   2.736   0.033   2.645  0.1727 -0.0239 -0.1244
  905SOL    HW1 2714   2.783  -0.057   2.659 -1.6623  1.1220  1.0731
  905SOL    HW2 2715   2.802   0.111   2.617  2.6434  1.1936  0.3601
  906SOL     OW 2716   0.108   1.736   1.977 -0.0692 -0.1692 -0.0983
  906SOL    HW1 2717   0.058   1.764   1.888  0.2817 -0.3587  1.4095
  906SOL    HW2 2718   0.201   1.777   1.988 -4.1782  0.4659  1.1905
  907SOL     OW 2719   0.185   2.464   1.050  0.2956 -0.0100  0.0229
  907SOL    HW1 2720   0.234   2.557   1.040  0.3354 -0.2174 -0.4243
  907SOL    HW2 2721   0.123   2.441   0.968 -2.1698  0.6769 -0.8277
  908SOL     OW 2722   2.630   2.873   0.423 -0.0355 -0.1946  0.1093
  908SOL    HW1 2723   2.618   2.899   0.321 -4.0603 -1.8321 -2.5305
  908SOL    HW2 2724   2.660   2.775   0.445 -2.2802 -3.3308  0.2130
  909SOL     OW 2725   0.720   0.900   2.649 -0.7210  0.1659 -0.6679
  909SOL    HW1 2726   0.704   0.802   2.630  1.0057  0.5378 -2.9737
  909SOL    HW2 2727   0.770   0.934   2.565  1.8681 -2.2981 -0.0425
  910SOL     OW 2728   1.764   1.779   2.013  0.0668 -0.6825  0.6060
  910SOL    HW1 2729   1.804   1.804   1.920 -1.0004 -1.9098 -0.6730
  910SOL    HW2 2730   1.692   1.850   2.040  0.5360 -0.5095 -1.2644
  911SOL     OW 2731   1.770   3.035   1.547  0.3855 -0.8477  0.1662
  911SOL    HW1 2732   1.853   2.992   1.494  0.2309 -0.9365  0.6644
  911SOL    HW2 2733   1.735   2.973   1.624  2.1502 -2.1857 -2.4673
  912SOL     OW 2734   2.808   0.962   0.792 -0.1087  0.7920  0.1603
  912SOL    HW1 2735   2.839   0.966   0.891 -2.2854  0.7766  0.3008
  912SOL    HW2 2736   2.736   1.033   0.771 -0.3354 -0.2753 -1.0597
  913SOL     OW 2737   2.553   1.266   1.546  0.1376  0.5968 -0.3008
  913SOL    HW1 2738   2.562   1.162   1.532  0.5674 -1.8602  2.1479
  913SOL    HW2 2739   2.604   1.316   1.472  0.5452 -2.3228  1.4096
  914SOL     OW 2740   2.796   0.522   1.251 -0.2084  0.4358  0.2065
  914SOL    HW1 2741   2.769   0.420   1.275  2.2202 -0.1906 -3.6371
  914SOL    HW2 2742   2.800   0.591   1.331  1.0274 -0.1418 -1.0244
  915SOL     OW 2743   1.223   0.847   0.998 -0.2759  0.5643  0.0191
  915SOL    HW1 2744   1.288   0.907   1.050 -2.3294  1.1743 -0.7727
  915SOL    HW2 2745   1.129   0.842   1.045 -1.2291  0.7889  1.1382
  916SOL     OW 2746   0.532   0.040   0.597  0.7987 -0.1671  0.2613
  916SOL    HW1 2747   0.563   0.116   0.664  1.4132 -0.1440  0.4314
  916SOL    HW2 2748   0.547   0.060   0.494  0.6965  1.6365  0.6828
  917SOL     OW 2749   2.770   2.593   1.922  0.3217 -0.5771 -0.2222
  917SOL    HW1 2750   2.691   2.655   1.909  0.0146  0.0713 -0.0657
  917SOL    HW2 2751   2.856   2.653   1.923 -1.1223 -2.7071  0.3333
  918SOL     OW 2752   0.981   2.215   3.073 -0.2667  0.1665  0.1440
  918SOL    HW1 2753   0.945   2.254   3.165  0.8186 -2.1615  1.2898
  918SOL    HW2 2754   1.002   2.115   3.085  1.8462  1.0351 -0.0909
  919SOL     OW 2755   0.936   1.642   2.842 -0.6620  0.1312 -0.3984
  919SOL    HW1 2756   0.978   1.714   2.781  0.8827  1.6162  1.3040
  919SOL    HW2 2757   0.902   1.570   2.776 -0.5291  1.7216 -2.9324
  920SOL     OW 2758   1.267   2.062   2.516 -0.0559 -0.2073 -0.2704
  920SOL    HW1 2759   1.196   2.051   2.434 -0.3749 -3.5624  0.0287
  920SOL    HW2 2760   1.291   1.964   2.550  0.9603 -0.6842  0.8260
  921SOL     OW 2761   1.034   0.145   2.580  0.2074 -0.1859  0.3782
  921SOL    HW1 2762   1.058   0.087   2.496 -1.0848 -2.1622  0.9591
  921SOL    HW2 2763   0.971   0.231   2.556  0.0665  2.2497 -0.2163
  922SOL     OW 2764   2.121   2.414   2.772 -0.9072 -0.0543 -0.2049
  922SOL    HW1 2765   2.121   2.313   2.746 -2.0358  0.0827  0.4022
  922SOL    HW2 2766   2.077   2.467   2.689 -0.2711  0.5242 -0.1863
  923SOL     OW 2767   1.166   2.694   0.247 -0.6078  0.5828 -0.6280
  923SOL    HW1 2768   1.249   2.745   0.294  0.2120 -0.1631  2.3171
  923SOL    HW2 2769   1.199   2.602   0.209 -1.4897  1.8398  2.2871
  924SOL     OW 2770   2.880   1.566   0.099 -0.6470 -0.0529  0.1087
  924SOL    HW1 2771   2.811   1.616   0.043 -0.5886  0.8272  1.2194
  924SOL    HW2 2772   2.975   1.562   0.056 -1.3316 -1.6262  0.7080
  925SOL     OW 2773   0.065   2.853   1.660  0.2203  0.1122 -0.4351
  925SOL    HW1 2774  -0.003   2.926   1.686 -1.8637  0.0185  0.4272
  925SOL    HW2 2775   0.051   2.806   1.569  0.8289  2.8445 -1.6801
  926SOL     OW 2776   1.440   2.872   1.327  0.1935 -0.4458  0.0164
  926SOL    HW1 2777   1.472   2.886   1.227 -0.3337  0.4300 -2.2389
  926SOL    HW2 2778   1.429   2.967   1.370  0.9542  0.6475 -3.0414
  927SOL     OW 2779   0.295   2.531   1.771 -0.0505  0.2234  0.5187
  927SOL    HW1 2780   0.253   2.504   1.679 -1.4953 -1.5802  1.5648
  927SOL    HW2 2781   0.366   2.606   1.768 -0.3297  1.1500 -0.0924
  928SOL     OW 2782   1.609   1.965   2.122 -0.0662  0.3553 -0.5399
  928SOL    HW1 2783   1.627   2.067   2.102 -1.9033  1.3252  1.0430
  928SOL    HW2 2784   1.509   1.949   2.121 -0.5755  1.5062  1.2740
  929SOL     OW 2785   2.391   2.470   2.821 -0.7471  0.0995  0.1707
  929SOL    HW1 2786   2.294   2.445   2.808  4.4707 -0.3729 -0.3679
  929SOL    HW2 2787   2.436   2.469   2.726  0.1574 -1.6552  1.0752
  930SOL     OW 2788   2.219   2.004   1.093 -0.1739  0.2598 -0.3611
  930SOL    HW1 2789   2.209   1.970   1.192 -1.8262  0.3273  2.8540
  930SOL    HW2 2790   2.298   2.073   1.084  1.3022  2.3898  1.7489
  931SOL     OW 2791   0.566   1.721   2.610  0.2925  0.0447  0.4256
  931SOL    HW1 2792   0.596   1.718   2.711  1.4638  1.6131  3.2483
  931SOL    HW2 2793   0.567   1.632   2.555 -0.9070 -0.0303 -3.7532
  932SOL     OW 2794   0.464   0.106   2.927  0.5672  0.1638 -0.5065
  932SOL    HW1 2795   0.548   0.162   2.904  0.1074  2.1214 -2.4631
  932SOL    HW2 2796   0.482   0.006   2.958 -0.4258 -0.2556  2.2810
  933SOL     OW 2797   1.057   0.783   3.015  0.0717  0.2867  0.1362
  933SOL    HW1 2798   1.126   0.823   3.079 -1.3642  1.3497 -2.3231
  933SOL    HW2 2799   1.022   0.849   2.945 -0.2338 -2.5069  0.7462
  934SOL     OW 2800   0.797   2.968   2.740 -0.7179 -0.1663  0.0686
  934SOL    HW1 2801   0.846   2.900   2.679  0.9069 -3.2291 -0.2619
  934SOL    HW2 2802   0.813   2.946   2.840  2.6367 -0.0013 -1.6372
  935SOL     OW 2803   3.080   0.500   0.877  0.0372  0.3350  0.6595
  935SOL    HW1 2804   3.114   0.479   0.776 -0.0668 -0.5791 -3.7385
  935SOL    HW2 2805   3.001   0.565   0.881 -0.4486  0.6192  0.1272
  936SOL     OW 2806   1.079   2.947   0.146  1.0283 -0.5220 -0.4754
  936SOL    HW1 2807   1.150   3.003   0.094 -2.7493 -0.0401 -0.8423
  936SOL    HW2 2808   1.109   2.851   0.162  0.8287 -0.5733  0.4212
  937SOL     OW 2809   1.940   2.618   2.068  0.0999 -0.3205  0.1553
  937SOL    HW1 2810   1.847   2.659   2.082 -0.4182 -0.2126  1.5391
  937SOL    HW2 2811   1.982   2.633   1.970  0.7565 -0.0522  0.8940
  938SOL     OW 2812   2.787   2.169   1.472  0.0801 -0.1153  0.1792
  938SOL    HW1 2813   2.745   2.259   1.504  1.1719  2.5275 -1.8953
  938SOL    HW2 2814   2.841   2.126   1.548 -2.3669  1.6972  2.1823
  939SOL     OW 2815   2.765   1.096   2.499 -0.6408  0.3120  0.5903
  939SOL    HW1 2816   2.824   1.015   2.478 -2.0747 -0.2531 -2.6970
  939SOL    HW2 2817   2.764   1.113   2.603  3.2396 -0.9587 -1.1458
  940SOL     OW 2818   1.072   0.473   2.622 -0.2160 -0.5161 -0.1781
  940SOL    HW1 2819   1.128   0.383   2.615  0.1251  1.1484 -0.6067
  940SOL    HW2 2820   0.974   0.460   2.663  3.4602  0.6971 -0.8295
  941SOL     OW 2821   0.045   2.849   2.202  0.2253 -0.2992  0.2424
  941SOL    HW1 2822   0.025   2.753   2.182  1.6816  1.4508 -0.5795
  941SOL    HW2 2823   0.121   2.862   2.271 -2.2807 -1.1718  1.4210
  942SOL     OW 2824   0.058   0.085   2.543 -0.0871  0.1089  0.4334
  942SOL    HW1 2825   0.121   0.101   2.625  3.3567  2.3022  1.3428
  942SOL    HW2 2826   0.040   0.175   2.496  0.8258 -0.5039  0.0636
  943SOL     OW 2827   2.066   1.595   2.417 -0.1706  0.3346  0.5345
  943SOL    HW1 2828   2.075   1.567   2.312 -0.6412 -0.8195 -0.9937
  943SOL    HW2 2829   2.057   1.517   2.486  0.1969 -0.0616  0.7961
  944SOL     OW 2830   2.155   2.416   1.481  0.4171 -0.1788 -0.1589
  944SOL    HW1 2831   2.236   2.471   1.516 -2.2649 -0.1977 -1.8925
  944SOL    HW2 2832   2.127   2.333   1.549 -1.2786  0.3793  1.4614
  945SOL     OW 2833   0.610   1.429   0.353  0.3398  0.7820  0.4338
  945SOL    HW1 2834   0.673   1.452   0.272  0.0965 -0.3943 -0.0195
  945SOL    HW2 2835   0.633   1.333   0.393 -0.9995  1.0811  1.2147
  946SOL     OW 2836   0.378   1.013   2.548 -0.1639  0.0589  0.4473
  946SOL    HW1 2837   0.300   0.961   2.509  1.0669 -0.0655 -1.3177
  946SOL    HW2 2838   0.373   1.119   2.545 -2.0420  0.9303  1.6833
  947SOL     OW 2839   1.466   0.471   0.114  0.0434 -1.0770 -0.1634
  947SOL    HW1 2840   1.373   0.519   0.128 -1.7756  1.5617 -0.6055
  947SOL    HW2 2841   1.456   0.371   0.095 -1.2172  1.0289 -1.5365
  948SOL     OW 2842   1.948   3.101   2.190 -0.0599  0.3240 -0.1285
  948SOL    HW1 2843   1.921   3.080   2.092  1.2555 -0.1720 -3.0866
  948SOL    HW2 2844   1.929   3.017   2.254  1.6036  1.3865  1.6076
  949SOL     OW 2845   0.628   2.524   0.481 -0.2155 -0.4038 -0.0867
  949SOL    HW1 2846   0.643   2.626   0.463  1.0291  0.3664  3.3750
  949SOL    HW2 2847   0.666   2.498   0.575  1.6680 -1.0589 -1.9438
  950SOL     OW 2848   0.304   2.100   3.042  0.0590  0.6499 -0.5079
  950SOL    HW1 2849   0.217   2.145   3.006 -0.9652  1.1154 -0.0106
  950SOL    HW2 2850   0.297   1.997   3.062  0.0794  0.1725 -3.0559
  951SOL     OW 2851   1.196   2.759   2.770 -0.6718 -0.2187  0.0215
  951SOL    HW1 2852   1.135   2.822   2.709  0.5400 -0.4515 -0.1314
  951SOL    HW2 2853   1.243   2.803   2.852  0.6722 -1.0342 -0.8913
  952SOL     OW 2854   0.083   1.650   0.479  0.0317  0.0096  0.1530
  952SOL    HW1 2855   0.160   1.710   0.499 -4.9955 -1.8477  2.2109
  952SOL    HW2 2856   0.033   1.625   0.564 -0.4830  1.1352 -0.2485
  953SOL     OW 2857   2.565   1.728   0.150 -0.1126 -0.4982  0.4366
  953SOL    HW1 2858   2.531   1.629   0.173  0.0236  1.0780  0.2061
  953SOL    HW2 2859   2.545   1.763   0.054 -2.7967  0.7393  1.6312
  954SOL     OW 2860   2.163   0.547   1.021  0.4465 -0.1435 -0.0464
  954SOL    HW1 2861   2.126   0.577   0.924  1.3357  0.0537 -0.0880
  954SOL    HW2 2862   2.256   0.503   1.018  0.3010 -1.9887 -1.2525
  955SOL     OW 2863   0.288   2.681   1.292  0.1551 -0.0895  0.1354
  955SOL    HW1 2864   0.186   2.657   1.303  3.0620  0.3883 -1.0638
  955SOL    HW2 2865   0.319   2.671   1.192 -1.2938 -1.9587  0.2249
  956SOL     OW 2866   2.771   2.460   2.499  0.5939  0.3435 -0.1169
  956SOL    HW1 2867   2.779   2.357   2.503  3.1163 -2.1481 -0.5656
  956SOL    HW2 2868   2.806   2.504   2.412 -0.9391 -0.2306  0.4186
  957SOL     OW 2869   1.532   2.061   2.650  0.1389  0.1943 -0.3352
  957SOL    HW1 2870   1.517   1.968   2.683 -1.3484  2.2378 -4.1912
  957SOL    HW2 2871   1.554   2.075   2.547  2.4785  1.5266  0.8271
  958SOL     OW 2872   2.665   2.344   3.005  0.2531  0.1893  0.0824
  958SOL    HW1 2873   2.578   2.367   2.952  2.5243 -1.0155  0.2630
  958SOL    HW2 2874   2.648   2.252   3.057  2.7829 -2.5668  0.2874
  959SOL     OW 2875   0.230   2.803   0.003 -0.0982  0.3351 -0.1774
  959SOL    HW1 2876   0.134   2.776   0.026  1.3110 -0.3741 -1.3394
  959SOL    HW2 2877   0.293   2.723   0.008  1.4043  2.6056  0.8622
  960SOL     OW 2878   2.014   0.500   1.925  0.4810  0.1547  0.5560
  960SOL    HW1 2879   1.970   0.586   1.879 -1.1157  1.3571 -2.0178
  960SOL    HW2 2880   2.026   0.518   2.025  1.9844  3.7694  0.1885
  961SOL     OW 2881   2.585   1.843   1.062  0.4595  0.5690 -0.5387
  961SOL    HW1 2882   2.549   1.907   0.991  0.0651 -3.2453 -4.3104
  961SOL    HW2 2883   2.642   1.886   1.133 -1.2199  1.2021 -0.6062
  962SOL     OW 2884   1.253   0.944   0.040 -0.0442  0.8571 -0.6384
  962SOL    HW1 2885   1.275   0.990  -0.050 -0.4882  0.7193  2.8409
  962SOL    HW2 2886   1.265   1.004   0.127 -0.2399  2.7889 -1.1006
  963SOL     OW 2887   2.300   2.635   1.868 -0.4180  0.1917  0.3431
  963SOL    HW1 2888   2.295   2.552   1.928 -1.0477  1.9837  1.4228
  963SOL    HW2 2889   2.317   2.720   1.921 -1.0437  0.2124  1.8307
  964SOL     OW 2890   2.429   0.382   1.663 -0.5069 -0.0938  0.6862
  964SOL    HW1 2891   2.518   0.408   1.712 -0.0690 -0.0257  0.6922
  964SOL    HW2 2892   2.455   0.326   1.580  2.1588 -0.2967 -2.0374
  965SOL     OW 2893   2.632   3.002   0.136  0.1707  0.2657 -0.4589
  965SOL    HW1 2894   2.689   2.951   0.062  3.9156  0.0598 -5.0718
  965SOL    HW2 2895   2.526   2.982   0.146 -1.3885 -0.7612 -1.3057
  966SOL     OW 2896   2.567   2.585   2.192 -0.1918  0.0001 -0.6635
  966SOL    HW1 2897   2.527   2.535   2.113  1.3996  1.0375 -1.6069
  966SOL    HW2 2898   2.508   2.664   2.227 -0.9480  0.5847 -0.9506
  967SOL     OW 2899   2.755   2.815   2.438 -0.3528  0.9405 -0.0574
  967SOL    HW1 2900   2.787   2.725   2.393 -0.6556 -2.1102  0.1072
  967SOL    HW2 2901   2.832   2.887   2.457 -0.5011 -0.7063  0.3558
  968SOL     OW 2902   2.036   1.050   2.672  0.2201 -0.8491  0.3913
  968SOL    HW1 2903   1.997   1.128   2.609 -1.2369  0.7197 -1.5190
  968SOL    HW2 2904   1.992   0.956   2.642  1.9022 -0.3714 -1.9672
  969SOL     OW 2905   2.741   2.334   1.119 -0.0124  0.0317  0.6198
  969SOL    HW1 2906   2.680   2.315   1.034  0.2937 -1.4267  0.9734
  969SOL    HW2 2907   2.810   2.258   1.132 -0.6410 -0.2292  1.6996
  970SOL     OW 2908   1.111   2.216   1.739  0.4547  0.3242  0.1201
  970SOL    HW1 2909   1.013   2.184   1.713  0.6882  1.2437 -3.9634
  970SOL    HW2 2910   1.121   2.240   1.841  0.3745 -1.9834  0.8854
  971SOL     OW 2911   2.827   2.091   1.944  0.1837 -0.2235  0.3382
  971SOL    HW1 2912   2.815   2.187   1.990 -0.4313  1.0383  1.1333
  971SOL    HW2 2913   2.872   2.095   1.848 -2.3910 -1.3008 -2.8101
  972SOL     OW 2914   2.011   2.393   0.254  0.0160  0.2156 -0.1744
  972SOL    HW1 2915   1.997   2.322   0.182  1.0957  0.6318 -0.6154
  972SOL    HW2 2916   2.080   2.366   0.326  1.8061 -0.6833  0.9156
  973SOL     OW 2917   1.238   1.075   1.980  0.0832 -0.0172 -0.1703
  973SOL    HW1 2918   1.180   1.070   1.894  5.1977  0.5955 -0.9340
  973SOL    HW2 2919   1.266   1.180   1.987  0.3905  0.5181 -2.0486
  974SOL     OW 2920   1.664   0.534   1.897  0.4183 -0.2796  0.0690
  974SOL    HW1 2921   1.749   0.585   1.867  0.5895  1.2810  0.2517
  974SOL    HW2 2922   1.574   0.589   1.887 -3.6905  0.0502 -2.0545
  975SOL     OW 2923   2.334   3.051   3.077  0.4693 -0.1870 -0.0900
  975SOL    HW1 2924   2.290   2.975   3.123  2.7774  0.1223 -1.4661
  975SOL    HW2 2925   2.359   3.033   2.980 -1.2539  1.3028  1.8692
  976SOL     OW 2926   1.922   2.875   2.352 -0.3984 -0.2935 -0.3966
  976SOL    HW1 2927   1.880   2.807   2.285 -0.6333  2.6719  2.4976
  976SOL    HW2 2928   1.922   2.840   2.449  0.5194  0.0024  0.8072
  977SOL     OW 2929   0.508   0.689   1.037  0.2477  0.3196  0.0764
  977SOL    HW1 2930   0.415   0.693   0.990 -2.4106  0.9125 -2.2123
  977SOL    HW2 2931   0.575   0.632   0.986 -2.2395 -0.3644 -0.8918
   3.10000   3.10000   3.10000
