1000 SPC/Fw water molecules t=   1.74000 step= 1740
 2931
    1SOL     OW    1   2.494   0.376   2.668  0.7654 -0.3709  0.2270
    1SOL    HW1    2   2.517   0.283   2.630  0.3193  0.3924 -0.5920
    1SOL    HW2    3   2.569   0.424   2.726  0.7315  1.3892 -1.8259
    2SOL     OW    4   2.728   2.940   1.375  0.3263 -0.6787 -0.2346
    2SOL    HW1    5   2.827   2.927   1.349  1.0247 -0.9593  0.2698
    2SOL    HW2    6   2.717   2.972   1.469  0.4886 -2.0351  1.7525
    3SOL     OW    7   2.709   2.480   0.370  0.0488 -0.7196  0.2055
    3SOL    HW1    8   2.620   2.423   0.372 -0.0287 -0.6918  3.0682
    3SOL    HW2    9   2.725   2.524   0.464  0.1314  0.1761  0.7772
    4SOL     OW   10   1.310   1.551   2.448 -0.6212 -0.6688  0.2591
    4SOL    HW1   11   1.251   1.567   2.367  3.3492 -0.5049 -2.4329
    4SOL    HW2   12   1.262   1.544   2.540 -1.6727  0.3961 -1.8364
    5SOL     OW   13   1.120   1.579   3.007  0.0855  0.2810 -0.6601
    5SOL    HW1   14   1.183   1.665   3.013 -0.9803  1.0902  1.3134
    5SOL    HW2   15   1.028   1.605   2.961 -0.7924  2.9967 -0.2070
    6SOL     OW   16   0.249   1.815   3.092 -0.2993  0.3349 -0.1846
    6SOL    HW1   17   0.156   1.810   3.134 -0.4014  1.2230  1.0074
    6SOL    HW2   18   0.328   1.759   3.139 -0.1237 -1.7636  3.8628
    7SOL     OW   19   2.504   0.912   1.081 -0.1558  0.1893  0.0637
    7SOL    HW1   20   2.409   0.872   1.081  0.3179 -2.4488  0.8560
    7SOL    HW2   21   2.550   0.881   0.993 -0.3685 -1.5089  0.0727
    8SOL     OW   22   0.405   0.657   1.546 -0.2355  0.3270 -0.2978
    8SOL    HW1   23   0.492   0.613   1.583  0.5081  1.3210  0.0646
    8SOL    HW2   24   0.430   0.717   1.465 -0.2845  0.4386 -0.4259
    9SOL     OW   25   1.129   0.896   2.348  0.1611 -0.3993  0.2152
    9SOL    HW1   26   1.204   0.911   2.268  0.9976 -0.0516  1.1423
    9SOL    HW2   27   1.112   0.794   2.363 -0.0342  2.4679 -1.3722
   10SOL     OW   28   0.669   1.402   1.253 -0.7011 -0.2290  0.0539
   10SOL    HW1   29   0.582   1.383   1.193 -0.9772  1.2138 -0.6414
   10SOL    HW2   30   0.675   1.498   1.272  0.0956 -1.0266  2.4222
   11SOL     OW   31   2.336   2.868   0.938 -0.3920 -0.1380 -0.5093
   11SOL    HW1   32   2.285   2.844   1.024 -2.4932 -0.1191 -1.3757
   11SOL    HW2   33   2.444   2.882   0.953  1.6939 -1.0507  2.4034
   12SOL     OW   34   1.499   0.848   0.470 -0.6241 -0.0523  0.6498
   12SOL    HW1   35   1.402   0.822   0.449  1.3236  0.3334 -3.7447
   12SOL    HW2   36   1.567   0.807   0.404 -1.5002  1.0782  1.9936
   13SOL     OW   37   2.465   0.737   1.793 -0.1027  0.1527 -0.3979
   13SOL    HW1   38   2.406   0.683   1.854 -0.4947  1.2856 -1.4342
   13SOL    HW2   39   2.476   0.697   1.695  2.0109  2.6486 -0.2785
   14SOL     OW   40   1.975   3.086   0.588 -0.4967 -0.7662  0.2332
   14SOL    HW1   41   1.877   3.117   0.562  0.2499 -0.1935 -0.4850
   14SOL    HW2   42   1.977   3.086   0.689 -0.0910 -0.1608  0.7712
   15SOL     OW   43   1.926   2.127   2.673  0.2231  0.6134  0.0166
   15SOL    HW1   44   1.862   2.121   2.754  0.9805  3.4449  0.5841
   15SOL    HW2   45   1.917   2.042   2.617 -1.6684 -1.4341  0.6650
   16SOL     OW   46   1.577   1.760   3.060 -0.5693  0.5923  0.5407
   16SOL    HW1   47   1.577   1.664   3.101 -2.5938 -2.0542  0.5763
   16SOL    HW2   48   1.670   1.810   3.072  1.8873 -0.8734 -1.4248
   17SOL     OW   49   0.119   0.473   0.169 -0.2802 -0.1291  0.2294
   17SOL    HW1   50   0.214   0.499   0.128  0.4596 -0.0644 -1.5632
   17SOL    HW2   51   0.038   0.511   0.112  1.1037  2.7653  0.2147
   18SOL     OW   52   0.913   2.897   2.150 -0.0010 -0.6665  0.2203
   18SOL    HW1   53   0.845   2.818   2.140  0.0558  1.2271 -0.0299
   18SOL    HW2   54   0.999   2.872   2.097 -0.7423 -2.6877  1.7649
   19SOL     OW   55   0.552   0.914   1.909 -0.4476  0.8031 -0.1398
   19SOL    HW1   56   0.592   0.870   1.991 -1.3039 -0.5662  0.1101
   19SOL    HW2   57   0.613   0.988   1.866  0.7743  1.1797 -1.3951
   20SOL     OW   58   0.228   2.802   0.788  0.3548 -0.1066 -0.8228
   20SOL    HW1   59   0.129   2.832   0.786 -1.2926 -0.8867  1.0319
   20SOL    HW2   60   0.251   2.708   0.739  1.4471  0.9745  0.2408
   21SOL     OW   61   2.745   0.286   2.011  0.8892 -0.0218  0.0255
   21SOL    HW1   62   2.703   0.201   1.964 -1.1155 -0.4370  0.3796
   21SOL    HW2   63   2.828   0.262   2.067  0.7665 -2.8037 -0.7578
   22SOL     OW   64   2.365   0.188   0.139 -0.0362 -0.5107  0.0903
   22SOL    HW1   65   2.402   0.101   0.085  4.5696 -1.0117  0.5996
   22SOL    HW2   66   2.296   0.247   0.088  2.4357  1.4200  2.1486
   23SOL     OW   67   2.818   0.531   0.687 -0.1470 -0.1714  0.2094
   23SOL    HW1   68   2.862   0.439   0.669  1.6075 -0.8817 -3.1728
   23SOL    HW2   69   2.837   0.599   0.614  1.2260  0.4249  0.1647
   24SOL     OW   70   0.308   1.883   0.476  0.3647 -0.4567 -0.0703
   24SOL    HW1   71   0.278   1.960   0.406 -0.2361  1.6887  0.7868
   24SOL    HW2   72   0.402   1.843   0.458  0.8254 -1.1010 -2.2113
   25SOL     OW   73   2.290   0.611   0.219  0.4903 -0.0090  0.2104
   25SOL    HW1   74   2.290   0.584   0.120 -1.5779 -0.3464  0.6595
   25SOL    HW2   75   2.343   0.544   0.281  0.6981  0.5113  0.7401
   26SOL     OW   76   2.468   2.152   2.113 -0.4829  0.3066 -0.4480
   26SOL    HW1   77   2.549   2.205   2.154  0.2408  0.1644 -1.2151
   26SOL    HW2   78   2.494   2.082   2.039 -1.7171 -2.5463  0.0006
   27SOL     OW   79   0.627   3.027   0.124  0.3743  0.2794 -0.3605
   27SOL    HW1   80   0.724   3.050   0.117 -1.1945  0.6489  1.7692
   27SOL    HW2   81   0.591   2.983   0.042  3.5011 -0.5986 -1.6117
   28SOL     OW   82   1.567   0.154   0.307  0.5203  0.2356 -0.2505
   28SOL    HW1   83   1.590   0.124   0.211 -0.3712  0.8901  2.2221
   28SOL    HW2   84   1.611   0.246   0.340  0.1340  2.8095  1.2298
   29SOL     OW   85   2.020   0.558   0.304 -0.1981 -0.3845  0.4866
   29SOL    HW1   86   1.990   0.601   0.396 -1.0469  0.1059  1.0498
   29SOL    HW2   87   2.115   0.583   0.273 -2.1634  1.9167 -1.8295
   30SOL     OW   88   0.177   2.075   0.924  0.6454  0.4560  0.3362
   30SOL    HW1   89   0.200   1.991   0.871  0.7416 -1.1664  0.7677
   30SOL    HW2   90   0.075   2.098   0.921 -0.9771  0.0241  0.1386
   31SOL     OW   91   2.109   0.086   2.419 -0.4853  0.2347  0.0547
   31SOL    HW1   92   2.069   0.061   2.511  1.3885  0.6595  1.0992
   31SOL    HW2   93   2.059   0.050   2.332 -2.3915  0.1844 -0.4595
   32SOL     OW   94   3.073   3.075   0.249  0.5396 -0.2689  0.2905
   32SOL    HW1   95   3.049   2.974   0.270 -0.1476 -2.4952  1.4452
   32SOL    HW2   96   3.176   3.080   0.220  0.7243 -2.4297 -2.1940
   33SOL     OW   97   0.907   0.216   0.648 -0.2705  1.1499 -0.1399
   33SOL    HW1   98   0.897   0.150   0.567  0.2793 -3.0332 -0.9734
   33SOL    HW2   99   0.977   0.286   0.626 -0.7161  0.9492  0.8613
   34SOL     OW  100   0.343   2.690   1.004 -0.2816 -0.5129  0.1476
   34SOL    HW1  101   0.280   2.743   0.941 -0.8491  0.6117  2.0911
   34SOL    HW2  102   0.414   2.755   1.040 -1.5368 -1.4672 -0.8306
   35SOL     OW  103   0.052   0.136   1.914 -0.1101  0.3100  0.2956
   35SOL    HW1  104   0.095   0.045   1.948  1.8547  1.7832  2.4959
   35SOL    HW2  105   0.007   0.136   1.822  1.4781 -0.3270 -0.5426
   36SOL     OW  106   1.914   1.193   1.498 -0.6278  0.8735 -0.2054
   36SOL    HW1  107   1.994   1.153   1.547  0.8563  0.7017 -0.8880
   36SOL    HW2  108   1.938   1.285   1.454 -2.2852  0.7225 -0.1951
   37SOL     OW  109   1.126   0.256   1.016  0.4608 -0.1905  0.0889
   37SOL    HW1  110   1.127   0.347   0.973 -0.3392  0.6766 -0.7193
   37SOL    HW2  111   1.201   0.194   0.975  2.5588 -0.1342 -2.2897
   38SOL     OW  112   1.165   2.848   2.453  0.5819  0.4414  0.3150
   38SOL    HW1  113   1.070   2.825   2.492 -3.1701  1.6154 -0.2434
   38SOL    HW2  114   1.161   2.928   2.391 -1.1046 -0.3877  2.1497
   39SOL     OW  115   2.484   1.411   3.004 -0.0631 -0.0550 -0.4733
   39SOL    HW1  116   2.542   1.328   3.037  3.1489 -0.2757 -1.4561
   39SOL    HW2  117   2.382   1.402   3.031  0.3988 -1.7660  0.2593
   40SOL     OW  118   2.043   2.521   2.513 -0.3028  0.0351 -0.1197
   40SOL    HW1  119   1.992   2.612   2.515  0.6430  0.4502 -0.0320
   40SOL    HW2  120   1.983   2.431   2.498 -3.9190 -2.1522 -1.0164
   41SOL     OW  121   3.032   0.716   2.784 -0.2999 -0.2505  0.5440
   41SOL    HW1  122   3.012   0.804   2.841 -2.4719 -0.6556  0.5177
   41SOL    HW2  123   2.942   0.672   2.773  0.8719  1.1232  0.3428
   42SOL     OW  124   1.740   1.735   0.509 -0.6696  0.3504 -0.5369
   42SOL    HW1  125   1.709   1.636   0.510 -1.2515  0.1442 -0.2334
   42SOL    HW2  126   1.768   1.764   0.414 -0.7084  1.4590  1.7574
   43SOL     OW  127   0.460   1.678   1.131  0.5387  0.5690 -0.0841
   43SOL    HW1  128   0.463   1.584   1.091 -0.9832 -3.1910  1.5580
   43SOL    HW2  129   0.381   1.689   1.199  0.6694 -1.9605  2.8641
   44SOL     OW  130   1.676   2.322   2.919  0.1436 -0.0550  0.1041
   44SOL    HW1  131   1.577   2.346   2.900  0.7993 -0.5734 -1.8011
   44SOL    HW2  132   1.736   2.395   2.876 -0.6164  0.6556  0.3770
   45SOL     OW  133   0.364   1.908   2.641 -0.2371 -0.2525  0.4813
   45SOL    HW1  134   0.322   1.905   2.546  0.9206 -0.9048  0.5297
   45SOL    HW2  135   0.443   1.837   2.645 -0.2274  1.4575 -3.8533
   46SOL     OW  136   1.332   0.726   0.248  0.1967 -0.1387  0.0027
   46SOL    HW1  137   1.310   0.817   0.201  0.7665  3.0959  0.8017
   46SOL    HW2  138   1.284   0.647   0.193  0.2788 -2.0972 -2.6552
   47SOL     OW  139   0.116   2.386   1.601  0.0510 -1.0129  0.1646
   47SOL    HW1  140   0.079   2.304   1.651 -0.4750  1.5963  0.6718
   47SOL    HW2  141   0.147   2.375   1.504 -1.3917  0.7989  0.2301
   48SOL     OW  142   2.635   0.719   0.125  0.2533  0.7529  0.0510
   48SOL    HW1  143   2.626   0.667   0.214  0.7766  2.5144 -1.4862
   48SOL    HW2  144   2.735   0.738   0.098 -1.2726  4.1887 -0.0497
   49SOL     OW  145   0.344   0.839   1.737  0.1585  0.3175  0.0664
   49SOL    HW1  146   0.440   0.865   1.766  1.1081  1.5038 -1.2445
   49SOL    HW2  147   0.343   0.762   1.663  0.3714 -1.1406 -0.6299
   50SOL     OW  148   1.721   1.087   0.316 -0.4070 -0.1751  0.0475
   50SOL    HW1  149   1.736   0.989   0.281  0.5024  1.1473  0.5934
   50SOL    HW2  150   1.654   1.097   0.397 -1.1930  0.7950 -0.1540
   51SOL     OW  151   2.962   1.745   0.318  0.2157 -0.0239 -0.4769
   51SOL    HW1  152   2.903   1.674   0.364  1.3867 -2.0118 -1.5423
   51SOL    HW2  153   3.063   1.726   0.340  1.5537 -1.5749 -1.7263
   52SOL     OW  154   0.770   2.162   0.563 -0.2126 -0.1751  0.1908
   52SOL    HW1  155   0.676   2.148   0.527  0.6506  1.3190 -0.3528
   52SOL    HW2  156   0.803   2.094   0.636 -0.7979  0.1755  1.5294
   53SOL     OW  157   0.312   0.426   1.437  0.2431 -0.3391  0.1112
   53SOL    HW1  158   0.335   0.519   1.477 -0.3301  0.9605 -1.2859
   53SOL    HW2  159   0.271   0.427   1.341  1.1457  0.1688  0.4532
   54SOL     OW  160   1.741   0.440   0.007  0.4048  0.2589  0.0601
   54SOL    HW1  161   1.815   0.399   0.069  1.4246 -0.2026 -0.3441
   54SOL    HW2  162   1.644   0.437   0.043  0.9061  0.3557 -2.4124
   55SOL     OW  163   0.786   2.952   0.626  0.3503  0.1155  0.2970
   55SOL    HW1  164   0.728   3.039   0.622 -0.0552  1.4914 -0.8173
   55SOL    HW2  165   0.885   2.957   0.590  0.5789 -2.6542 -3.9502
   56SOL     OW  166   0.562   1.539   3.058 -0.7340  0.1093  0.2140
   56SOL    HW1  167   0.480   1.565   3.122  0.6437 -0.1891  0.4182
   56SOL    HW2  168   0.542   1.455   3.002  1.7275  1.0593  1.6372
   57SOL     OW  169   1.676   2.458   2.338 -0.4095  0.1840  0.3876
   57SOL    HW1  170   1.755   2.393   2.342 -1.2213 -0.3177  1.9066
   57SOL    HW2  171   1.623   2.464   2.429 -0.7971  0.7105 -0.1168
   58SOL     OW  172   0.642   0.212   1.093 -0.0652  0.1142  0.3781
   58SOL    HW1  173   0.565   0.198   1.161 -0.4318 -3.0565 -0.1111
   58SOL    HW2  174   0.713   0.135   1.103 -0.2946  1.3881  2.3031
   59SOL     OW  175   0.462   2.362   2.623  0.4167 -0.0826 -0.9580
   59SOL    HW1  176   0.481   2.262   2.658  1.9475 -2.5093 -2.3803
   59SOL    HW2  177   0.536   2.430   2.644 -1.0110  0.1868  0.2029
   60SOL     OW  178   2.307   2.020   2.289 -0.2052  0.2110 -0.4032
   60SOL    HW1  179   2.372   2.064   2.220 -1.1201  0.0345 -1.0223
   60SOL    HW2  180   2.326   2.060   2.387 -0.1049  1.5282 -1.0653
   61SOL     OW  181   1.195   0.651   0.478  0.1699  0.2205 -0.4240
   61SOL    HW1  182   1.101   0.685   0.513  1.2227  0.3351 -1.0311
   61SOL    HW2  183   1.223   0.704   0.395 -2.7298  2.3493 -0.9870
   62SOL     OW  184   2.802   1.706   2.687 -0.2380 -0.4211  0.0325
   62SOL    HW1  185   2.759   1.618   2.661 -0.6410 -2.4652  1.5600
   62SOL    HW2  186   2.866   1.697   2.772  3.7947  0.3655 -0.6611
   63SOL     OW  187   0.538   0.898   0.192 -0.1439 -0.2338 -0.6921
   63SOL    HW1  188   0.583   0.961   0.126  0.8234 -1.2455  0.7872
   63SOL    HW2  189   0.579   0.916   0.286  0.2823 -1.5881  1.5742
   64SOL     OW  190   2.999   0.552   2.337 -0.1425  0.4579  0.2803
   64SOL    HW1  191   2.950   0.607   2.414  0.0161  0.2990  1.1396
   64SOL    HW2  192   3.018   0.611   2.245  0.4517 -0.0812 -2.8322
   65SOL     OW  193   0.230   1.440   0.685 -0.2252 -0.2085 -0.2935
   65SOL    HW1  194   0.214   1.535   0.723 -2.1129 -0.1841 -2.9467
   65SOL    HW2  195   0.282   1.438   0.601 -1.1263 -3.3200  0.6351
   66SOL     OW  196   2.571   0.340   0.534 -0.0872 -0.2393 -0.3648
   66SOL    HW1  197   2.675   0.340   0.528  3.8463  0.3819 -0.8322
   66SOL    HW2  198   2.530   0.287   0.612  1.2433 -0.1541  0.2285
   67SOL     OW  199   0.595   2.527   1.442 -0.1730 -0.4251  0.6958
   67SOL    HW1  200   0.670   2.500   1.514 -0.7032 -0.8900  1.5822
   67SOL    HW2  201   0.521   2.457   1.432 -0.8055  0.5290  0.8596
   68SOL     OW  202   0.911   1.027   2.458 -0.0584  0.9995  0.9105
   68SOL    HW1  203   0.978   0.972   2.400  0.4773  0.1257  2.5084
   68SOL    HW2  204   0.858   1.095   2.399 -0.7800  3.1187  0.8936
   69SOL     OW  205   0.800   2.619   2.363  0.2042 -0.5555 -0.0493
   69SOL    HW1  206   0.823   2.556   2.280 -1.2679  0.3466 -3.1994
   69SOL    HW2  207   0.697   2.625   2.373  0.8024 -4.4583 -0.2634
   70SOL     OW  208   0.474   0.161   2.569  0.2976  0.1076  0.2590
   70SOL    HW1  209   0.405   0.119   2.639 -0.3519 -1.3318 -0.1327
   70SOL    HW2  210   0.553   0.099   2.536  0.0106 -0.6196  0.8339
   71SOL     OW  211   1.064   1.762   0.315  0.2438  0.3114 -0.0829
   71SOL    HW1  212   0.988   1.737   0.376 -2.3625 -0.4499 -0.2156
   71SOL    HW2  213   1.033   1.772   0.218 -0.8971  0.0936  0.0383
   72SOL     OW  214   1.872   0.272   2.155  0.5878 -0.2247 -0.2626
   72SOL    HW1  215   1.918   0.311   2.073 -3.2784 -1.5619  0.9976
   72SOL    HW2  216   1.907   0.178   2.182  0.2996  2.6532  0.5569
   73SOL     OW  217   2.754   2.196   2.490 -0.2788  0.4954  0.3695
   73SOL    HW1  218   2.724   2.102   2.458  1.0851 -0.4324  2.9453
   73SOL    HW2  219   2.828   2.193   2.564  1.2527 -0.7605 -2.2261
   74SOL     OW  220   2.715   2.934   2.108  0.1187  0.2378  0.0193
   74SOL    HW1  221   2.639   2.901   2.166  0.6821  0.9086  1.6741
   74SOL    HW2  222   2.798   2.980   2.161  2.7011  0.4836  2.0700
   75SOL     OW  223   0.953   0.811   1.162 -0.3383  0.0445  0.3498
   75SOL    HW1  224   0.861   0.842   1.128  0.9837 -2.4012  0.3549
   75SOL    HW2  225   0.979   0.859   1.249  0.0638 -2.4743 -2.0429
   76SOL     OW  226   1.870   1.280   2.629  0.2206 -0.5882  0.2290
   76SOL    HW1  227   1.778   1.281   2.680  2.1196  2.1209 -0.8280
   76SOL    HW2  228   1.932   1.356   2.660  0.7234 -4.0355  1.2261
   77SOL     OW  229   2.910   0.933   1.052  0.1336 -0.2619 -0.0783
   77SOL    HW1  230   2.877   0.834   1.048  1.8875  0.5487 -0.9508
   77SOL    HW2  231   2.992   0.949   1.112 -0.3583 -0.2841 -0.7906
   78SOL     OW  232   1.972   1.435   1.352 -0.7614 -0.1953 -0.1687
   78SOL    HW1  233   2.056   1.411   1.289  0.9072 -1.9762 -0.7403
   78SOL    HW2  234   1.886   1.448   1.298  0.9989  0.2395 -1.7197
   79SOL     OW  235   0.708   1.454   0.833  0.1662  0.1592  0.8011
   79SOL    HW1  236   0.609   1.421   0.814  0.1418  1.2208 -3.4094
   79SOL    HW2  237   0.771   1.374   0.853 -1.7965  2.5615 -0.4936
   80SOL     OW  238   0.645   0.454   1.578  0.8721  0.1943  0.3704
   80SOL    HW1  239   0.652   0.486   1.477  1.2403  0.5467 -1.0240
   80SOL    HW2  240   0.655   0.349   1.583 -0.6573  0.9538  3.3018
   81SOL     OW  241   1.084   1.265   2.512 -0.0813 -0.0474 -0.5860
   81SOL    HW1  242   1.053   1.169   2.497 -2.2757  1.5063  0.0167
   81SOL    HW2  243   1.010   1.334   2.516  2.0129 -0.3701  2.2675
   82SOL     OW  244   0.916   2.951   1.565  0.4350  0.1606  1.2758
   82SOL    HW1  245   1.004   2.907   1.530  0.6779  1.2913  0.9305
   82SOL    HW2  246   0.838   2.935   1.494  0.0013 -1.4544 -1.5267
   83SOL     OW  247   2.646   2.382   0.867  0.4823 -0.9513  0.2228
   83SOL    HW1  248   2.571   2.348   0.809 -3.5302  1.9866  1.9424
   83SOL    HW2  249   2.646   2.490   0.867 -0.8293 -0.2023  3.2486
   84SOL     OW  250   0.777   3.093   2.283 -0.1768  0.1973  0.3370
   84SOL    HW1  251   0.768   3.062   2.381  0.5441  2.5070  0.1157
   84SOL    HW2  252   0.812   3.016   2.216  0.1569 -2.6054 -1.3153
   85SOL     OW  253   0.323   1.710   1.365  0.2543 -0.0494 -0.3799
   85SOL    HW1  254   0.289   1.801   1.398  3.0533 -1.1397 -0.4809
   85SOL    HW2  255   0.360   1.655   1.443 -2.3482 -1.1482  0.5402
   86SOL     OW  256   0.458   1.047   1.462 -0.1255 -0.0499 -0.9979
   86SOL    HW1  257   0.425   0.981   1.386  0.1087  0.7564 -0.3175
   86SOL    HW2  258   0.556   1.019   1.492  2.0789  0.0294  0.6493
   87SOL     OW  259   1.617   0.633   0.291  0.8824 -0.2564 -0.3109
   87SOL    HW1  260   1.685   0.697   0.251 -0.9817  2.5183  0.7713
   87SOL    HW2  261   1.550   0.607   0.215 -0.5887 -1.4122  1.6944
   88SOL     OW  262   1.561   1.325   0.251  0.1706  0.1908  0.0813
   88SOL    HW1  263   1.614   1.236   0.260  0.7991 -0.9780 -2.4698
   88SOL    HW2  264   1.469   1.313   0.213 -2.4466  0.2759  0.1233
   89SOL     OW  265   0.006   0.391   0.682 -0.0474  0.0540  0.4498
   89SOL    HW1  266   0.107   0.407   0.665 -0.4078 -0.8329 -0.4963
   89SOL    HW2  267  -0.031   0.324   0.612 -0.4731 -1.9444 -0.6337
   90SOL     OW  268   0.739   1.526   0.157 -0.2031 -0.2572 -0.2669
   90SOL    HW1  269   0.820   1.461   0.151  0.9690  0.2207 -0.4354
   90SOL    HW2  270   0.670   1.514   0.080 -0.6225 -0.0403 -0.5124
   91SOL     OW  271   1.310   1.511   1.702  0.0451  0.2382 -0.4434
   91SOL    HW1  272   1.222   1.555   1.742  0.5608  1.1293 -1.2853
   91SOL    HW2  273   1.358   1.438   1.764  0.2812 -0.6234 -1.3755
   92SOL     OW  274   0.015   1.004   1.219  0.4034  0.2085 -0.0605
   92SOL    HW1  275   0.080   1.065   1.164 -0.4647 -1.8346 -0.0229
   92SOL    HW2  276   0.028   1.016   1.321 -0.8962  1.2250 -3.8653
   93SOL     OW  277   3.051   2.639   0.067 -0.4888  0.2823  0.1801
   93SOL    HW1  278   3.038   2.665  -0.038 -0.5127  0.6135 -2.0902
   93SOL    HW2  279   3.106   2.548   0.082 -0.6456 -1.7152  1.2368
   94SOL     OW  280   1.502   1.309   1.676  0.6502  0.2023  0.1442
   94SOL    HW1  281   1.571   1.239   1.704  0.0351 -0.8392  0.6234
   94SOL    HW2  282   1.537   1.409   1.676  0.2450  0.4300 -1.4446
   95SOL     OW  283   1.356   2.467   2.918  0.1713 -0.4835  0.2437
   95SOL    HW1  284   1.275   2.493   2.983 -0.5037 -2.6242  1.5265
   95SOL    HW2  285   1.351   2.374   2.883 -1.2601  2.3919 -1.1008
   96SOL     OW  286   0.570   2.167   1.305  0.0512 -0.0532  0.0675
   96SOL    HW1  287   0.514   2.138   1.223  0.5907 -1.3310 -1.1834
   96SOL    HW2  288   0.574   2.091   1.377  0.3193  0.0655 -0.9449
   97SOL     OW  289   0.246   1.613   2.388  0.1507 -0.3246 -0.4206
   97SOL    HW1  290   0.200   1.695   2.347 -2.7618  0.5452  3.2927
   97SOL    HW2  291   0.218   1.605   2.490 -0.8204  0.3474 -1.7476
   98SOL     OW  292   2.177   1.672   1.196  0.8028 -0.0968 -0.4496
   98SOL    HW1  293   2.148   1.575   1.191 -1.0268  0.5562 -0.0898
   98SOL    HW2  294   2.278   1.686   1.170  3.0781  2.6174 -0.3154
   99SOL     OW  295   2.613   2.031   1.293  0.1791  0.2559  0.0090
   99SOL    HW1  296   2.660   2.101   1.360  0.4961 -0.7456  0.4882
   99SOL    HW2  297   2.537   1.974   1.332  0.9266  0.8055 -1.4555
  100SOL     OW  298   2.335   0.360   2.119  0.2988 -0.2172  0.1204
  100SOL    HW1  299   2.280   0.323   2.201 -0.0722 -2.0140  1.2719
  100SOL    HW2  300   2.429   0.395   2.149  0.3953 -0.2640  0.5569
  101SOL     OW  301   0.362   1.452   0.431  0.0061 -0.1619 -0.4196
  101SOL    HW1  302   0.366   1.549   0.462 -0.8581  1.2121 -1.4219
  101SOL    HW2  303   0.454   1.438   0.380  1.7109 -1.3825 -1.3175
  102SOL     OW  304   2.247   1.069   0.839  0.1176 -0.1612  0.9343
  102SOL    HW1  305   2.215   0.980   0.806  0.6793  3.7026 -1.3285
  102SOL    HW2  306   2.345   1.092   0.802 -0.8430  2.7441 -0.3133
  103SOL     OW  307   2.278   0.084   0.379  0.3421 -0.1075 -0.0778
  103SOL    HW1  308   2.312   0.095   0.281 -0.9749 -0.1110 -1.7777
  103SOL    HW2  309   2.345   0.025   0.442  3.0337  1.8744 -0.8989
  104SOL     OW  310   3.049   1.792   2.192 -0.1358  0.4095  0.1123
  104SOL    HW1  311   3.114   1.781   2.106  0.8188 -0.0401 -1.0666
  104SOL    HW2  312   2.970   1.851   2.173 -1.5309 -2.5166  4.4566
  105SOL     OW  313   1.331   2.097   0.765 -0.4708  0.1426 -0.5005
  105SOL    HW1  314   1.291   2.159   0.693 -0.8451  0.4848 -0.1405
  105SOL    HW2  315   1.348   1.998   0.735  0.2563 -2.6231  0.6010
  106SOL     OW  316   2.140   0.411   1.421 -0.0529 -0.0017  0.1966
  106SOL    HW1  317   2.059   0.347   1.405 -0.1044 -1.3099  1.0373
  106SOL    HW2  318   2.153   0.414   1.522 -3.4537  0.8840  0.8005
  107SOL     OW  319   1.932   2.905   1.149  0.0289 -0.3138  0.0436
  107SOL    HW1  320   1.860   2.978   1.180  1.0477  1.9166  0.3225
  107SOL    HW2  321   1.899   2.827   1.090 -2.2926 -1.1392 -2.3406
  108SOL     OW  322   0.851   2.820   1.130  0.3299 -0.2925 -0.5768
  108SOL    HW1  323   0.826   2.726   1.099  1.7753  0.5453 -0.2354
  108SOL    HW2  324   0.947   2.829   1.164 -1.6575  1.1877  2.8200
  109SOL     OW  325   2.168   0.162   0.723  0.1901  0.0692  0.3656
  109SOL    HW1  326   2.112   0.106   0.657  0.8270  1.1542 -0.9148
  109SOL    HW2  327   2.117   0.198   0.803  1.0247 -0.3934  0.8786
  110SOL     OW  328   0.502   2.829   2.753  0.1620  0.2865  0.2409
  110SOL    HW1  329   0.503   2.844   2.649  0.1839  0.6364 -2.6540
  110SOL    HW2  330   0.587   2.774   2.780 -0.1860  1.4194  0.7769
  111SOL     OW  331   1.330   0.575   2.273  0.1328  0.2649  0.3243
  111SOL    HW1  332   1.258   0.635   2.324 -2.6343  1.1872 -0.5893
  111SOL    HW2  333   1.381   0.511   2.334  0.6356 -0.6590 -0.5219
  112SOL     OW  334   1.737   0.458   1.542  0.4667  0.3468  0.3195
  112SOL    HW1  335   1.717   0.496   1.443 -2.4402 -0.0490 -1.1968
  112SOL    HW2  336   1.654   0.455   1.599 -0.0302  0.6919 -0.8756
  113SOL     OW  337   2.332   1.669   1.793 -0.8893 -0.1718  0.3469
  113SOL    HW1  338   2.387   1.577   1.786 -1.2053  0.5311 -0.2471
  113SOL    HW2  339   2.297   1.685   1.887 -2.3014  1.9178 -2.6274
  114SOL     OW  340   0.257   0.395   1.153 -0.9867 -0.0020  0.0802
  114SOL    HW1  341   0.150   0.413   1.146 -2.9210 -2.0962 -1.0293
  114SOL    HW2  342   0.314   0.451   1.087 -0.9056  0.2609 -2.9195
  115SOL     OW  343   2.691   1.520   1.262 -0.1147  0.6427 -0.1998
  115SOL    HW1  344   2.660   1.418   1.259 -2.0332 -0.7697 -3.9421
  115SOL    HW2  345   2.789   1.538   1.232  0.7096 -2.2856  2.4502
  116SOL     OW  346   1.936   0.921   0.743  0.3903  0.0513 -0.3927
  116SOL    HW1  347   1.847   0.875   0.709 -1.2198 -0.8819  0.0813
  116SOL    HW2  348   1.922   1.026   0.741  1.1085  2.2015 -0.2752
  117SOL     OW  349   1.134   0.358   0.542 -0.1509 -0.2123  0.1095
  117SOL    HW1  350   1.143   0.466   0.540 -1.2327  1.5119  1.5117
  117SOL    HW2  351   1.094   0.324   0.449  1.6503 -1.8482  1.8462
  118SOL     OW  352   1.150   1.221   1.085  0.1001  0.1508  0.2738
  118SOL    HW1  353   1.061   1.217   1.140 -3.0423  0.7295  1.0701
  118SOL    HW2  354   1.197   1.312   1.094  0.0898 -0.3940  0.8299
  119SOL     OW  355   1.872   1.579   2.204  0.2071  0.4957 -0.0610
  119SOL    HW1  356   1.839   1.657   2.144 -0.7696  1.8591 -1.4784
  119SOL    HW2  357   1.958   1.535   2.163 -2.1529 -3.0350  1.4878
  120SOL     OW  358   2.979   2.800   0.276 -0.2937  0.1901 -0.2811
  120SOL    HW1  359   3.014   2.721   0.217  1.5991 -0.7975 -0.7814
  120SOL    HW2  360   2.876   2.795   0.284  1.3462  1.3948 -1.3675
  121SOL     OW  361   2.013   0.780   2.322 -0.0178  0.3450 -0.1297
  121SOL    HW1  362   2.039   0.861   2.263 -2.8697 -1.3414 -0.2406
  121SOL    HW2  363   2.034   0.688   2.272 -0.1260 -0.9683 -0.1162
  122SOL     OW  364   2.639   2.500   1.357  0.2552 -0.1930  0.3670
  122SOL    HW1  365   2.660   2.433   1.278  1.1908 -0.5998 -2.1995
  122SOL    HW2  366   2.622   2.454   1.445 -2.5460  0.3248  0.4648
  123SOL     OW  367   1.648   0.177   1.681 -0.2556  0.4509 -0.5636
  123SOL    HW1  368   1.673   0.096   1.617  0.5691 -1.4220 -1.2322
  123SOL    HW2  369   1.732   0.226   1.725  0.2692  1.9561 -0.4313
  124SOL     OW  370   3.051   0.418   1.164  0.8690 -0.0497  0.1405
  124SOL    HW1  371   2.973   0.466   1.208  1.5247  0.1182  2.7548
  124SOL    HW2  372   3.071   0.455   1.071 -1.4796 -0.5343  0.9988
  125SOL     OW  373   0.886   1.989   0.744  0.6901 -0.0990  0.6770
  125SOL    HW1  374   0.986   1.973   0.778 -0.7399 -0.4456 -1.0767
  125SOL    HW2  375   0.813   1.971   0.813 -1.4355  0.3592  0.6114
  126SOL     OW  376   1.892   2.311   2.452  0.5173 -0.4274  0.0455
  126SOL    HW1  377   1.925   2.264   2.364 -1.3815  0.0210  1.2233
  126SOL    HW2  378   1.871   2.252   2.533 -0.0363 -2.1864  0.2842
  127SOL     OW  379   0.893   0.971   0.169  0.0435 -0.0378 -0.0765
  127SOL    HW1  380   0.928   1.010   0.257  2.2336 -1.3902 -1.2473
  127SOL    HW2  381   0.913   0.868   0.160 -0.1158 -2.1775 -1.8631
  128SOL     OW  382   0.929   0.187   1.404  0.0033 -0.4109 -0.6345
  128SOL    HW1  383   0.890   0.270   1.350  0.3822 -1.5208  2.3489
  128SOL    HW2  384   0.878   0.096   1.383 -0.9371  1.4775 -1.9623
  129SOL     OW  385   1.884   0.729   1.851  0.3696  0.0437  0.1719
  129SOL    HW1  386   1.888   0.690   1.755  0.8923  0.8306 -2.8650
  129SOL    HW2  387   1.895   0.833   1.857 -1.2401 -1.2811 -0.0656
  130SOL     OW  388   1.379   2.181   1.019  0.8055 -0.8254  0.3950
  130SOL    HW1  389   1.339   2.134   0.934 -0.7969 -0.2789  1.8854
  130SOL    HW2  390   1.415   2.277   0.997  0.2220 -0.0706 -1.2567
  131SOL     OW  391   3.032   1.395   1.413 -0.5649 -0.3400  0.3254
  131SOL    HW1  392   2.982   1.302   1.416 -1.7174 -1.0366 -0.8234
  131SOL    HW2  393   3.140   1.395   1.432  0.6835  2.1689  0.0357
  132SOL     OW  394   2.049   2.425   0.555 -0.1492 -0.1058 -0.2573
  132SOL    HW1  395   1.947   2.437   0.560  1.2181  0.6899  2.5908
  132SOL    HW2  396   2.082   2.339   0.606  1.0960 -0.8217 -0.2287
  133SOL     OW  397   1.760   2.515   2.742  0.2425 -0.1536 -0.3976
  133SOL    HW1  398   1.687   2.507   2.668  3.2959 -1.1072 -3.3708
  133SOL    HW2  399   1.757   2.614   2.784 -1.7045 -0.2908 -2.8679
  134SOL     OW  400   2.623   2.404   1.611 -0.2004  0.3747  0.2256
  134SOL    HW1  401   2.567   2.358   1.684  0.5830 -0.4173  1.3245
  134SOL    HW2  402   2.658   2.498   1.638 -1.1491  0.6520  3.7053
  135SOL     OW  403   0.809   1.366   2.657 -0.4242 -0.9422 -0.6065
  135SOL    HW1  404   0.751   1.287   2.696 -0.0856 -4.1053  1.4961
  135SOL    HW2  405   0.791   1.377   2.556 -1.9464  1.3236 -0.1681
  136SOL     OW  406   1.171   1.990   0.397  0.5315 -0.0237  0.1312
  136SOL    HW1  407   1.111   2.066   0.430  0.6302 -1.6222 -1.6827
  136SOL    HW2  408   1.120   1.901   0.381  1.5722  0.7321 -0.7392
  137SOL     OW  409   0.416   1.207   2.307  0.5225 -0.6916 -0.1020
  137SOL    HW1  410   0.319   1.161   2.319 -0.4991 -2.2473 -0.7643
  137SOL    HW2  411   0.494   1.141   2.289  2.1024 -0.5915  0.5651
  138SOL     OW  412   2.453   1.482   0.249 -0.0353 -0.3055  0.3561
  138SOL    HW1  413   2.393   1.456   0.172 -1.2754  0.4560 -0.0289
  138SOL    HW2  414   2.483   1.406   0.317  0.4411 -0.2812  2.0944
  139SOL     OW  415   1.876   2.648   1.579  0.8462 -0.3725  0.0531
  139SOL    HW1  416   1.777   2.669   1.551  0.6807  0.2343  0.6931
  139SOL    HW2  417   1.926   2.586   1.513 -1.6517  2.4284  0.2678
  140SOL     OW  418   2.997   2.968   2.575  0.0858  0.1658  0.7370
  140SOL    HW1  419   3.034   2.881   2.614 -0.3742 -0.9323 -0.8047
  140SOL    HW2  420   3.064   3.035   2.536 -1.1397 -2.9753 -1.2123
  141SOL     OW  421   1.323   1.652   1.476  0.0818 -0.1229 -0.2846
  141SOL    HW1  422   1.223   1.679   1.462 -1.3390  1.2294 -0.0387
  141SOL    HW2  423   1.325   1.601   1.569 -2.9375 -2.4476 -2.2651
  142SOL     OW  424   1.589   0.673   2.222  0.3167 -0.1366  0.4032
  142SOL    HW1  425   1.565   0.707   2.126  0.9886  0.3688 -1.2026
  142SOL    HW2  426   1.503   0.629   2.268  0.3140 -0.6701  2.0869
  143SOL     OW  427   2.743   0.800   0.537 -0.2934 -0.2160 -0.5062
  143SOL    HW1  428   2.805   0.839   0.465  1.0587 -0.3364 -0.5431
  143SOL    HW2  429   2.778   0.826   0.636  1.8335  0.0918  1.5062
  144SOL     OW  430   2.909   1.149   1.427  0.4240 -0.1547  0.1291
  144SOL    HW1  431   2.872   1.167   1.526  3.5048  1.8695  1.1381
  144SOL    HW2  432   2.995   1.090   1.439  0.1340  1.3605 -2.1863
  145SOL     OW  433   0.895   1.760   0.053  0.2478  0.1669 -0.5870
  145SOL    HW1  434   0.887   1.806  -0.039  1.5986 -0.8675 -1.6808
  145SOL    HW2  435   0.843   1.668   0.060  0.9363  1.0260 -0.1639
  146SOL     OW  436   2.472   0.652   1.524 -0.0546  0.3791  0.3879
  146SOL    HW1  437   2.478   0.552   1.489  0.4757  2.5386  1.4632
  146SOL    HW2  438   2.409   0.712   1.466 -0.4006  0.4061 -3.0082
  147SOL     OW  439   1.085   2.493   0.568  0.8135  0.6379 -0.2709
  147SOL    HW1  440   1.036   2.566   0.513  0.7563  0.8010 -0.4023
  147SOL    HW2  441   1.173   2.466   0.519  0.2803  1.5349 -0.0205
  148SOL     OW  442   1.596   1.440   3.088  0.4550 -0.3806  0.2550
  148SOL    HW1  443   1.619   1.345   3.050  1.9378 -1.1697 -1.2340
  148SOL    HW2  444   1.569   1.433   3.190 -1.8159  0.5215  0.3710
  149SOL     OW  445   0.669   1.499   2.006 -0.4684 -0.0456 -0.0475
  149SOL    HW1  446   0.597   1.443   2.062 -0.9869  0.1757  0.3278
  149SOL    HW2  447   0.676   1.472   1.906  2.3492  0.3937 -1.1155
  150SOL     OW  448   3.008   1.214   0.960 -0.5232  0.4501  0.6666
  150SOL    HW1  449   3.105   1.225   0.994 -3.6992  1.3871 -0.6441
  150SOL    HW2  450   2.968   1.118   0.984 -0.5383 -0.8753 -0.5426
  151SOL     OW  451   0.145   0.877   2.090  0.4674  0.0479 -0.0513
  151SOL    HW1  452   0.176   0.963   2.043 -0.3505 -0.0025 -0.4296
  151SOL    HW2  453   0.202   0.797   2.049 -1.5448 -1.1322  0.5402
  152SOL     OW  454   1.469   1.870   1.115 -0.2413 -0.2627  0.0488
  152SOL    HW1  455   1.528   1.958   1.112  1.4728  1.7270 -1.2262
  152SOL    HW2  456   1.366   1.883   1.103 -1.7940  0.1658 -1.5849
  153SOL     OW  457   0.104   1.485   0.266 -0.4649 -0.2846 -0.5068
  153SOL    HW1  458   0.008   1.453   0.277 -2.0483  3.1502  0.8521
  153SOL    HW2  459   0.143   1.515   0.358 -1.0551 -0.8144  1.2880
  154SOL     OW  460   2.308   1.843   2.771 -0.6706  0.1180 -0.2214
  154SOL    HW1  461   2.345   1.748   2.785 -2.1788  0.9034  0.1034
  154SOL    HW2  462   2.378   1.904   2.718 -1.3937  2.2500 -0.6782
  155SOL     OW  463   2.537   1.301   0.440  1.1507 -0.3377 -0.1913
  155SOL    HW1  464   2.597   1.328   0.517 -0.2320  0.9540  0.6351
  155SOL    HW2  465   2.543   1.200   0.425  3.6964 -0.3087  0.0746
  156SOL     OW  466   2.466   0.788   0.772 -0.0531  0.2340 -0.0801
  156SOL    HW1  467   2.375   0.732   0.772 -0.5205 -0.2381  2.3963
  156SOL    HW2  468   2.478   0.835   0.683  2.5340  0.2184 -1.5046
  157SOL     OW  469   1.263   3.091   3.053 -0.3917 -0.0986 -0.4057
  157SOL    HW1  470   1.309   3.046   2.975  1.1383  1.5062  1.7212
  157SOL    HW2  471   1.301   3.183   3.084  2.4112 -1.4935 -2.6231
  158SOL     OW  472   1.072   1.893   1.847  0.3023 -0.4789 -0.0294
  158SOL    HW1  473   1.103   1.983   1.818  1.8808 -4.1746 -0.9319
  158SOL    HW2  474   1.026   1.889   1.939 -0.1073 -0.3531  1.5189
  159SOL     OW  475   0.790   0.398   1.243  0.3997 -0.5116 -0.1937
  159SOL    HW1  476   0.742   0.485   1.274  0.4871 -0.1163 -3.0905
  159SOL    HW2  477   0.729   0.330   1.185  0.8908 -0.8779 -1.0909
  160SOL     OW  478   1.403   2.474   1.415 -0.6448 -0.2236 -0.3956
  160SOL    HW1  479   1.342   2.395   1.441 -2.3845 -0.3146 -0.5882
  160SOL    HW2  480   1.502   2.444   1.423 -0.7372 -0.5775 -0.0726
  161SOL     OW  481   0.045   2.647   0.426  0.5181  0.0875  0.1711
  161SOL    HW1  482  -0.010   2.552   0.433  0.4478 -2.6331  0.2555
  161SOL    HW2  483  -0.015   2.727   0.393  1.1977  0.1696 -0.5380
  162SOL     OW  484   2.522   1.920   0.465 -0.0625  0.2923 -0.8315
  162SOL    HW1  485   2.571   1.926   0.372 -0.4425  0.0957  0.2040
  162SOL    HW2  486   2.476   1.830   0.498 -1.1978  1.0608 -1.6217
  163SOL     OW  487   1.980   2.741   0.765 -0.4497  0.4417  0.5933
  163SOL    HW1  488   1.972   2.764   0.662  0.3017  0.5153 -2.2419
  163SOL    HW2  489   2.022   2.650   0.789  0.1419 -0.4170  0.4319
  164SOL     OW  490   3.091   0.124   1.236 -0.5688 -0.0214  0.2155
  164SOL    HW1  491   3.095   0.226   1.207 -0.8844  1.7536 -1.8810
  164SOL    HW2  492   3.160   0.091   1.311  2.7231 -0.3299 -0.2591
  165SOL     OW  493   1.111   1.424   0.624 -0.3289 -0.4455  0.6083
  165SOL    HW1  494   1.111   1.506   0.685  3.5815 -2.5108  3.3546
  165SOL    HW2  495   1.043   1.436   0.545  0.4332  0.8615 -1.3060
  166SOL     OW  496   1.521   0.978   1.851  0.2484 -0.4490 -0.2619
  166SOL    HW1  497   1.451   1.032   1.908  0.8337  2.4326  1.1406
  166SOL    HW2  498   1.595   1.037   1.807  1.3168  0.1704  1.6059
  167SOL     OW  499   0.668   2.006   1.523  0.1364 -0.0240 -0.1739
  167SOL    HW1  500   0.691   2.068   1.604 -0.5752  0.7021 -1.4824
  167SOL    HW2  501   0.617   1.922   1.557 -1.8778  2.6506 -1.5178
  168SOL     OW  502   1.619   2.292   0.129  0.3752  0.1340  0.1788
  168SOL    HW1  503   1.693   2.255   0.065  1.0872 -0.3443 -2.6725
  168SOL    HW2  504   1.630   2.259   0.226 -0.8982 -0.2387  1.4139
  169SOL     OW  505   3.069   2.607   2.184 -0.1840  0.3603 -0.0790
  169SOL    HW1  506   3.088   2.556   2.098  0.0491 -0.0329  2.1742
  169SOL    HW2  507   3.099   2.559   2.272 -2.0502 -1.6638  0.8261
  170SOL     OW  508   1.172   0.130   2.101  0.4455  0.3751  0.4108
  170SOL    HW1  509   1.267   0.175   2.117 -0.4862 -0.7874  1.6574
  170SOL    HW2  510   1.151   0.120   2.002  1.5623 -2.7891  0.8615
  171SOL     OW  511   0.195   0.858   2.428  0.1319 -0.1724 -0.0038
  171SOL    HW1  512   0.107   0.850   2.479  3.3931 -0.7550  2.9636
  171SOL    HW2  513   0.183   0.924   2.345  1.0339 -0.8442  1.0622
  172SOL     OW  514   0.975   0.970   2.806 -0.6149 -0.2780 -0.4372
  172SOL    HW1  515   0.983   1.037   2.886 -0.8584 -0.8528 -1.4456
  172SOL    HW2  516   0.930   0.999   2.715 -0.9033 -0.9096 -1.1256
  173SOL     OW  517   0.351   2.573   0.021  0.0216 -0.4179 -0.7508
  173SOL    HW1  518   0.427   2.529  -0.034 -1.6439  2.8189  0.4229
  173SOL    HW2  519   0.323   2.518   0.107 -1.1079  1.1193 -2.9111
  174SOL     OW  520   1.474   2.873   1.026  0.2477  0.1162 -0.3021
  174SOL    HW1  521   1.534   2.946   0.986 -2.3188  0.2428 -1.1122
  174SOL    HW2  522   1.467   2.787   0.966  0.9851 -1.7448 -0.7339
  175SOL     OW  523   0.499   3.026   1.721  0.1297 -0.2868 -0.3405
  175SOL    HW1  524   0.552   3.028   1.808  0.2824  0.0420 -1.9490
  175SOL    HW2  525   0.465   3.119   1.696  1.7656 -0.4878  1.2808
  176SOL     OW  526   2.607   0.466   3.071 -0.6313  0.0995 -0.2497
  176SOL    HW1  527   2.642   0.538   3.134  0.9987 -2.6565  2.2199
  176SOL    HW2  528   2.593   0.375   3.118 -3.1423  0.8224  1.5573
  177SOL     OW  529   0.371   0.213   0.836 -0.3697 -1.2693 -0.0943
  177SOL    HW1  530   0.334   0.119   0.854  3.1505 -2.4987 -1.2527
  177SOL    HW2  531   0.474   0.200   0.816 -0.8884 -2.7075  0.9572
  178SOL     OW  532   0.004   2.720   2.669  0.4328  0.1522 -0.2166
  178SOL    HW1  533  -0.052   2.629   2.676  0.3105 -0.6969 -1.0896
  178SOL    HW2  534   0.094   2.713   2.724  0.3518  0.3088  1.0123
  179SOL     OW  535   2.963   1.585   1.236 -0.4964 -0.5048  0.5483
  179SOL    HW1  536   3.042   1.595   1.168  3.5397 -0.9866  1.2684
  179SOL    HW2  537   2.978   1.501   1.299  0.9046 -0.1808  0.2233
  180SOL     OW  538   0.288   1.410   1.747  0.6122 -0.5905  0.0070
  180SOL    HW1  539   0.362   1.361   1.803 -0.9472 -0.7892 -0.4197
  180SOL    HW2  540   0.211   1.454   1.803 -0.1332  4.4908 -0.6639
  181SOL     OW  541   3.003   1.760   2.479  0.2036 -0.6230  0.3747
  181SOL    HW1  542   3.019   1.771   2.374  1.1665  1.8027 -0.0711
  181SOL    HW2  543   2.902   1.767   2.504  0.3834  0.9791 -4.7859
  182SOL     OW  544   2.195   1.381   1.189 -0.8147  0.5785  0.0995
  182SOL    HW1  545   2.191   1.275   1.195 -2.0266 -1.7889 -0.4093
  182SOL    HW2  546   2.257   1.416   1.115 -3.6478  0.8090 -0.4598
  183SOL     OW  547   1.460   2.230   2.423  0.0807  0.2669  0.3568
  183SOL    HW1  548   1.386   2.162   2.447  0.3017 -0.0637  1.2132
  183SOL    HW2  549   1.540   2.186   2.383 -2.6147 -0.7566 -0.8809
  184SOL     OW  550   2.175   0.786   0.735 -0.2273 -0.5636  0.2267
  184SOL    HW1  551   2.076   0.810   0.749  1.9297  0.1227 -1.7063
  184SOL    HW2  552   2.198   0.690   0.710  1.1969  3.2816  0.5347
  185SOL     OW  553   1.591   2.775   2.007  0.2572 -0.3432  0.2027
  185SOL    HW1  554   1.495   2.809   2.028  0.9205 -0.7454  0.4364
  185SOL    HW2  555   1.644   2.762   2.095 -1.8857 -0.8035  1.0468
  186SOL     OW  556   0.034   2.194   1.774 -0.5271 -0.0546 -0.0270
  186SOL    HW1  557   0.016   2.260   1.853  0.6290  0.5730 -2.5325
  186SOL    HW2  558   0.128   2.152   1.788 -4.8215 -0.8045 -0.5324
  187SOL     OW  559   1.320   0.696   1.626 -0.3201 -0.7875 -0.2047
  187SOL    HW1  560   1.417   0.738   1.618  2.4189 -1.9473 -2.1870
  187SOL    HW2  561   1.315   0.617   1.688  1.6513  2.2871  2.6137
  188SOL     OW  562   2.692   2.690   1.588  0.2829 -0.0110  0.1095
  188SOL    HW1  563   2.649   2.778   1.634 -1.8996  3.0898 -0.0022
  188SOL    HW2  564   2.663   2.673   1.490 -0.9362 -3.2630  1.1087
  189SOL     OW  565   0.914   1.204   1.350 -0.6595 -0.0920  0.5647
  189SOL    HW1  566   0.954   1.258   1.430 -1.6217  0.6955 -0.8666
  189SOL    HW2  567   0.879   1.271   1.281  0.3328 -2.3997 -1.1489
  190SOL     OW  568   1.446   1.871   1.526 -0.1907 -0.2419 -0.1819
  190SOL    HW1  569   1.385   1.791   1.499 -0.2165 -2.3734  1.3860
  190SOL    HW2  570   1.451   1.878   1.633  1.4469  1.0974  2.4575
  191SOL     OW  571   0.849   0.776   1.502  0.1541 -0.2160 -0.0846
  191SOL    HW1  572   0.920   0.703   1.522 -1.3285  2.2598  1.6364
  191SOL    HW2  573   0.896   0.856   1.446 -1.2790  3.4368  0.0126
  192SOL     OW  574   1.829   2.444   1.125 -0.0407  0.7758  0.5194
  192SOL    HW1  575   1.733   2.419   1.155 -0.1559 -3.7362  1.0781
  192SOL    HW2  576   1.874   2.362   1.080  1.9622 -4.3216 -2.3218
  193SOL     OW  577   0.515   0.532   0.402 -0.2797 -0.8941 -0.3471
  193SOL    HW1  578   0.447   0.453   0.387 -2.6586 -2.8948  0.2859
  193SOL    HW2  579   0.568   0.562   0.315 -0.0723  1.2647 -1.2139
  194SOL     OW  580   0.392   0.833   1.276 -0.0383  0.1162 -0.3432
  194SOL    HW1  581   0.297   0.789   1.276  0.4663 -0.6215 -0.5004
  194SOL    HW2  582   0.435   0.824   1.182  1.5919 -0.7285  3.3968
  195SOL     OW  583   1.049   2.943   0.531  0.3892 -0.0357  0.2180
  195SOL    HW1  584   1.030   2.854   0.481 -0.8398  0.1082 -0.4259
  195SOL    HW2  585   1.143   2.984   0.516  0.2806 -0.6511 -2.7023
  196SOL     OW  586   0.232   1.405   1.298 -0.0928 -0.0454 -0.3611
  196SOL    HW1  587   0.262   1.503   1.292 -0.0174 -1.6264  1.6015
  196SOL    HW2  588   0.243   1.364   1.393 -0.5401 -0.7415 -1.1588
  197SOL     OW  589   0.801   1.935   0.261 -0.6786  0.0306 -0.4831
  197SOL    HW1  590   0.823   1.898   0.359 -0.5751 -0.3572 -0.1753
  197SOL    HW2  591   0.845   1.881   0.186 -2.3974 -1.3148 -1.0162
  198SOL     OW  592   0.271   1.211   0.346  0.0572  0.1431  0.0508
  198SOL    HW1  593   0.173   1.189   0.312 -1.5821  0.2247 -0.0334
  198SOL    HW2  594   0.290   1.313   0.358  0.3024  1.6673  0.6984
  199SOL     OW  595   2.221   0.418   2.627 -0.3746 -0.2674  0.3032
  199SOL    HW1  596   2.153   0.353   2.664 -0.7724 -1.1222  1.3807
  199SOL    HW2  597   2.318   0.399   2.657 -1.1526 -1.2413 -0.3405
  200SOL     OW  598   3.068   2.886   0.803  0.3537 -0.1288  0.1448
  200SOL    HW1  599   3.075   2.978   0.854 -1.5778  0.1712  2.0422
  200SOL    HW2  600   2.992   2.885   0.734  2.5779  0.6250 -0.5279
  201SOL     OW  601   0.919   0.690   0.543  0.5150 -0.0351  0.1097
  201SOL    HW1  602   0.926   0.782   0.597  1.4991 -1.7537  0.6661
  201SOL    HW2  603   0.841   0.626   0.578 -1.4531 -0.4726  1.5095
  202SOL     OW  604   0.445   1.251   1.901 -0.1616  0.5089 -0.2389
  202SOL    HW1  605   0.533   1.199   1.903 -2.5514 -0.7462  1.7636
  202SOL    HW2  606   0.434   1.314   1.982 -0.4203  0.9844  0.4535
  203SOL     OW  607   0.671   0.174   1.557 -0.1180 -0.1649 -0.1869
  203SOL    HW1  608   0.685   0.111   1.474  1.9599  0.2681 -1.6240
  203SOL    HW2  609   0.757   0.200   1.603 -1.6015 -1.3860  0.5774
  204SOL     OW  610   2.084   1.839   2.944 -0.2808  0.3798  0.2679
  204SOL    HW1  611   2.045   1.746   2.958  1.8033  1.4492 -1.3841
  204SOL    HW2  612   2.159   1.832   2.877 -0.0884 -0.3698  2.8472
  205SOL     OW  613   1.828   1.895   3.038 -0.1101 -0.4504  0.0445
  205SOL    HW1  614   1.919   1.866   2.993 -0.3907 -0.4627 -0.3406
  205SOL    HW2  615   1.778   1.973   2.983 -2.3024  2.3848  0.5493
  206SOL     OW  616   2.367   2.707   0.268 -0.1148  0.5275 -0.3938
  206SOL    HW1  617   2.332   2.684   0.362 -0.5464 -1.1153  2.0152
  206SOL    HW2  618   2.456   2.656   0.254 -0.3470 -1.8599 -0.6901
  207SOL     OW  619   0.705   1.750   2.934  0.6705 -0.2932 -0.3278
  207SOL    HW1  620   0.778   1.708   2.871  1.8305  0.7798 -2.3011
  207SOL    HW2  621   0.650   1.673   2.978 -1.4345  0.9601 -2.1433
  208SOL     OW  622   0.992   1.560   1.241  0.1396 -0.0124 -0.7668
  208SOL    HW1  623   0.939   1.598   1.162  1.3263 -0.1483 -0.4569
  208SOL    HW2  624   0.964   1.594   1.336 -1.5884  0.7065  0.1636
  209SOL     OW  625   0.224   0.986   3.057 -0.3643 -0.0670  0.1331
  209SOL    HW1  626   0.267   0.945   2.975 -0.3416  1.6250  1.9708
  209SOL    HW2  627   0.208   0.924   3.140  3.7199 -1.0086 -1.2833
  210SOL     OW  628   1.677   0.576   1.289  0.5629  0.3959 -0.3090
  210SOL    HW1  629   1.592   0.576   1.235  0.8755 -0.8153 -1.8974
  210SOL    HW2  630   1.748   0.643   1.253 -1.6517  1.2899  0.9293
  211SOL     OW  631   2.187   1.043   1.582 -0.5646  0.6671  0.4443
  211SOL    HW1  632   2.212   1.019   1.681 -0.7561 -2.1896 -2.7614
  211SOL    HW2  633   2.254   1.098   1.522  1.6695  0.2131 -1.6052
  212SOL     OW  634   0.036   1.029   1.493  0.0204 -0.7555  0.0643
  212SOL    HW1  635   0.091   1.109   1.527 -1.1343 -0.9048 -1.0896
  212SOL    HW2  636   0.057   0.946   1.548  0.5280  0.3070 -1.2219
  213SOL     OW  637   2.822   0.033   0.369 -0.5289 -0.1369 -0.0849
  213SOL    HW1  638   2.917   0.002   0.345  1.4341 -0.2994 -1.9816
  213SOL    HW2  639   2.756   0.010   0.290 -2.0286 -1.7845 -2.7812
  214SOL     OW  640   2.158   0.339   2.351  0.2795 -0.3221 -0.0426
  214SOL    HW1  641   2.180   0.384   2.441  0.5287  3.4755  1.5629
  214SOL    HW2  642   2.124   0.242   2.374  1.1227  1.3427  1.7532
  215SOL     OW  643   1.676   2.270   2.083  0.3527 -0.0560 -0.0289
  215SOL    HW1  644   1.777   2.303   2.088 -1.1063  1.1465 -1.0916
  215SOL    HW2  645   1.607   2.345   2.114  2.1246  1.6745  0.7411
  216SOL     OW  646   2.278   0.514   0.765  0.8936 -0.0285 -0.1622
  216SOL    HW1  647   2.231   0.460   0.688 -0.9346  0.4448 -0.3579
  216SOL    HW2  648   2.349   0.465   0.813 -4.3302  0.3815  0.6061
  217SOL     OW  649   0.918   2.750   2.571 -0.6296  0.0841  0.0653
  217SOL    HW1  650   0.941   2.700   2.662  1.7461 -1.9496  2.7088
  217SOL    HW2  651   0.878   2.689   2.501 -1.0738  0.3113  1.1222
  218SOL     OW  652   1.883   1.406   0.022  0.1406  0.1807 -0.0030
  218SOL    HW1  653   1.779   1.420   0.025 -0.2999  0.0946 -1.0260
  218SOL    HW2  654   1.922   1.328   0.078 -1.9106 -0.4434  1.3651
  219SOL     OW  655   2.438   1.261   2.503 -0.2286 -0.0662  0.5609
  219SOL    HW1  656   2.488   1.233   2.417  0.3682 -0.7974 -0.3186
  219SOL    HW2  657   2.424   1.179   2.567 -0.1762 -0.4355 -1.5798
  220SOL     OW  658   1.420   1.019   1.330  0.7359  0.1405  0.0169
  220SOL    HW1  659   1.514   0.979   1.343  0.1421  2.6907  1.0472
  220SOL    HW2  660   1.409   1.048   1.232  1.5741 -2.2228  0.5614
  221SOL     OW  661   1.345   0.945   2.192 -0.4094  0.6300 -0.5649
  221SOL    HW1  662   1.296   0.979   2.110  0.9309  2.1365  2.0890
  221SOL    HW2  663   1.437   0.994   2.209  2.8496  0.4800 -0.0083
  222SOL     OW  664   1.153   0.049   1.201  0.0441  0.1342 -0.0129
  222SOL    HW1  665   1.214   0.077   1.280 -0.6112  1.8682 -1.1004
  222SOL    HW2  666   1.128   0.133   1.146 -4.7035  0.6798  1.5920
  223SOL     OW  667   2.728   0.966   2.129 -0.1178  0.6666 -0.1654
  223SOL    HW1  668   2.690   1.060   2.135 -2.6155 -1.2743 -0.3749
  223SOL    HW2  669   2.798   0.947   2.203 -0.0827  1.3920 -1.5363
  224SOL     OW  670   1.496   0.989   2.826 -0.4460 -0.4914 -0.1980
  224SOL    HW1  671   1.513   0.927   2.743 -0.7917  3.8019 -1.2119
  224SOL    HW2  672   1.564   1.070   2.833 -0.0882  3.1637  5.4620
  225SOL     OW  673   2.947   2.674   2.903 -0.5800 -0.2020 -0.4085
  225SOL    HW1  674   2.862   2.678   2.846  2.7207  4.3862 -0.3224
  225SOL    HW2  675   3.029   2.700   2.842 -0.3258 -1.2258 -1.7923
  226SOL     OW  676   2.413   1.584   2.791  0.0340  0.3630  0.5771
  226SOL    HW1  677   2.480   1.566   2.714  0.1688  0.0033 -0.9958
  226SOL    HW2  678   2.441   1.522   2.871 -2.6058 -1.6219  1.3147
  227SOL     OW  679   0.907   0.239   3.045  0.3185 -0.9203 -0.4423
  227SOL    HW1  680   0.945   0.332   3.026 -1.5586  1.9157  1.6978
  227SOL    HW2  681   0.843   0.212   2.969 -0.2210 -0.6457 -2.3804
  228SOL     OW  682   2.437   0.662   2.868  0.3108 -0.1707  0.3405
  228SOL    HW1  683   2.465   0.696   2.770 -1.7900  0.6761 -0.9402
  228SOL    HW2  684   2.502   0.598   2.917 -0.0816 -1.3039  0.5305
  229SOL     OW  685   0.583   0.621   1.836  0.8279  0.0761  0.0071
  229SOL    HW1  686   0.678   0.649   1.874  3.7652  2.0699 -1.5184
  229SOL    HW2  687   0.592   0.537   1.779  0.1164  1.0955  0.1688
  230SOL     OW  688   1.877   1.220   1.927 -0.4820 -0.4874 -0.4994
  230SOL    HW1  689   1.960   1.263   1.882  1.7567 -1.1152 -2.2629
  230SOL    HW2  690   1.867   1.252   2.026 -0.6091 -0.3894 -0.3649
  231SOL     OW  691   0.643   1.084   3.077  0.3423 -0.1893  0.2398
  231SOL    HW1  692   0.722   1.136   3.028 -0.0547 -2.9709  1.3304
  231SOL    HW2  693   0.579   1.137   3.132  1.0633 -0.1613  0.4130
  232SOL     OW  694   2.411   2.990   2.800  0.0230 -0.2268 -0.1075
  232SOL    HW1  695   2.483   2.914   2.817  0.2960  0.0296  1.1232
  232SOL    HW2  696   2.429   3.043   2.713  1.1836 -2.8322 -3.1634
  233SOL     OW  697   1.809   1.164   1.104  0.2778 -0.4584  0.2609
  233SOL    HW1  698   1.883   1.227   1.062 -1.7679  3.0705  1.6895
  233SOL    HW2  699   1.844   1.068   1.121  0.5658  0.6313 -0.5697
  234SOL     OW  700   1.659   2.506   1.825  0.4307  0.3485  0.1151
  234SOL    HW1  701   1.625   2.559   1.904  2.1174 -0.1971 -0.9501
  234SOL    HW2  702   1.602   2.416   1.829  0.2937 -0.1912  0.1785
  235SOL     OW  703   0.037   3.011   2.851  1.1005  0.3515 -0.0515
  235SOL    HW1  704  -0.045   3.005   2.787  1.4771  1.3147 -1.1519
  235SOL    HW2  705   0.011   3.034   2.950  0.8597  1.0190  0.9615
  236SOL     OW  706   2.895   0.707   0.071 -0.3101  0.2168 -0.1825
  236SOL    HW1  707   2.963   0.737   0.147 -0.7834  0.3875 -0.4644
  236SOL    HW2  708   2.936   0.630   0.012 -0.2583  2.1528  1.0968
  237SOL     OW  709   1.540   1.699   0.886  0.0327  0.5922  0.1736
  237SOL    HW1  710   1.610   1.628   0.909 -0.7217 -3.1088  1.1117
  237SOL    HW2  711   1.515   1.752   0.975 -0.0046 -1.8067  0.4923
  238SOL     OW  712   1.902   1.175   0.760  0.5172  0.7059  0.2399
  238SOL    HW1  713   1.940   1.227   0.843  0.1737 -1.9540 -2.8287
  238SOL    HW2  714   1.797   1.187   0.748 -0.7967 -0.4791  0.8971
  239SOL     OW  715   1.996   0.256   2.788  0.6474  0.3579  0.5641
  239SOL    HW1  716   2.015   0.207   2.878 -0.8182  1.0401 -0.3491
  239SOL    HW2  717   1.933   0.338   2.801  0.2637  4.1813 -1.9586
  240SOL     OW  718   0.942   0.699   0.241 -0.0932  0.1575  0.0715
  240SOL    HW1  719   1.017   0.629   0.220 -1.2873  0.9253  2.1086
  240SOL    HW2  720   0.914   0.695   0.342  0.7330 -2.8562  0.2847
  241SOL     OW  721   0.590   0.100   0.330  0.2548  0.0627  0.3255
  241SOL    HW1  722   0.615   0.191   0.285 -1.8516 -0.5956  0.9397
  241SOL    HW2  723   0.594   0.020   0.259  2.0724 -0.2554 -1.5349
  242SOL     OW  724   0.591   2.611   1.183 -0.1674  0.2708  0.1848
  242SOL    HW1  725   0.575   2.591   1.280 -1.9902  2.5848 -0.6364
  242SOL    HW2  726   0.575   2.708   1.160 -0.5863 -5.1123 -0.3810
  243SOL     OW  727   1.078   0.634   2.417  0.0235  0.0171  0.0602
  243SOL    HW1  728   0.994   0.613   2.367 -1.9129 -3.0496 -0.0679
  243SOL    HW2  729   1.103   0.565   2.493  1.9574  2.1127  1.2059
  244SOL     OW  730   2.705   1.962   2.376  0.4289 -0.2370  0.2074
  244SOL    HW1  731   2.745   1.936   2.279  0.6227 -2.6771 -1.5734
  244SOL    HW2  732   2.646   1.883   2.413  0.1827 -0.9048  0.7717
  245SOL     OW  733   2.091   1.010   2.209 -0.1204 -0.3120 -0.3820
  245SOL    HW1  734   2.193   0.994   2.231 -0.1966  0.1940 -1.0020
  245SOL    HW2  735   2.048   1.088   2.264 -0.2978 -0.1242 -1.0841
  246SOL     OW  736   0.291   2.848   1.805 -0.6743  0.4684  0.6902
  246SOL    HW1  737   0.235   2.864   1.714  3.0699 -0.2028 -2.4192
  246SOL    HW2  738   0.379   2.898   1.799  0.2078  1.3371  0.4684
  247SOL     OW  739   2.242   0.568   3.037  0.3286  0.4810  0.4805
  247SOL    HW1  740   2.309   0.606   2.969 -3.9654 -2.0091  0.0188
  247SOL    HW2  741   2.154   0.622   3.030  0.6421 -0.0030  1.3102
  248SOL     OW  742   2.194   1.832   1.621 -0.5331  0.5039  0.3709
  248SOL    HW1  743   2.272   1.788   1.665 -2.1426  1.4413  0.4701
  248SOL    HW2  744   2.102   1.795   1.660 -0.2719 -1.2568  0.8964
  249SOL     OW  745   1.893   1.918   1.839 -0.3316 -0.2964  0.3223
  249SOL    HW1  746   1.888   1.848   1.761 -1.7467  0.0135  1.4435
  249SOL    HW2  747   1.991   1.926   1.877  0.2144 -1.5336  0.2262
  250SOL     OW  748   0.957   0.694   1.876  0.6470 -0.8506 -0.2881
  250SOL    HW1  749   1.033   0.665   1.943  2.4914  1.5222 -1.7558
  250SOL    HW2  750   0.982   0.659   1.782 -1.0748  0.5930  3.1682
  251SOL     OW  751   3.047   1.525   2.610 -0.0806 -0.3714  0.2385
  251SOL    HW1  752   3.026   1.618   2.571  2.0753 -1.1716 -0.2522
  251SOL    HW2  753   2.978   1.456   2.575 -1.0931 -0.8586  3.0845
  252SOL     OW  754   1.547   0.831   1.599 -0.3612 -0.1392  0.4437
  252SOL    HW1  755   1.610   0.879   1.535 -0.8002  1.3398  1.7768
  252SOL    HW2  756   1.540   0.879   1.691  0.1406  0.3431 -0.1242
  253SOL     OW  757   0.945   1.497   0.425 -0.4328 -0.1725  0.9165
  253SOL    HW1  758   0.936   1.461   0.333  0.6473  0.6966  3.5741
  253SOL    HW2  759   0.860   1.537   0.466  0.8425 -0.6344 -2.8055
  254SOL     OW  760   2.037   2.176   1.651 -0.5605  0.0826  0.3385
  254SOL    HW1  761   1.982   2.135   1.572 -1.4801 -0.5687  0.9545
  254SOL    HW2  762   1.978   2.231   1.715  2.1529  0.1132 -0.4745
  255SOL     OW  763   0.097   1.190   2.910 -0.6211 -0.1879 -0.1054
  255SOL    HW1  764   0.150   1.279   2.914  1.0761  2.7047  2.4063
  255SOL    HW2  765   0.136   1.112   2.971  0.6986  1.4827 -1.2024
  256SOL     OW  766   2.787   1.411   1.756 -1.0085  0.1449 -0.1343
  256SOL    HW1  767   2.690   1.400   1.786  1.8573 -1.0052 -1.0305
  256SOL    HW2  768   2.814   1.324   1.700 -0.3662 -1.1168 -2.6525
  257SOL     OW  769   0.841   0.248   1.868 -0.9179  0.1012  0.1244
  257SOL    HW1  770   0.878   0.294   1.786 -1.9771  1.9027 -1.3678
  257SOL    HW2  771   0.857   0.140   1.859  0.8166 -1.8034 -0.0479
  258SOL     OW  772   2.962   1.166   0.505  0.1170  0.0174 -0.4136
  258SOL    HW1  773   2.876   1.214   0.498 -0.1843 -1.7478 -1.5641
  258SOL    HW2  774   3.017   1.194   0.586 -0.9600 -2.3610  1.5439
  259SOL     OW  775   0.492   2.949   2.998 -0.1137  0.1095  0.0505
  259SOL    HW1  776   0.405   2.924   3.050  2.8681 -0.5109 -1.8632
  259SOL    HW2  777   0.506   2.902   2.903  1.4401  1.5507 -1.9054
  260SOL     OW  778   2.751   0.750   2.785 -0.1398  0.0804  0.1389
  260SOL    HW1  779   2.655   0.767   2.743 -2.0564 -2.1267  1.4854
  260SOL    HW2  780   2.760   0.648   2.817  2.8780 -0.7707  1.0609
  261SOL     OW  781   2.662   1.260   1.307 -0.4142 -0.5145  0.0893
  261SOL    HW1  782   2.581   1.217   1.251 -2.1470  1.0743 -1.6445
  261SOL    HW2  783   2.743   1.197   1.314 -0.2464  0.6375 -0.0899
  262SOL     OW  784   1.390   2.980   2.066  0.4379  0.1795  0.0867
  262SOL    HW1  785   1.436   3.033   1.990 -1.9921 -0.5525  1.8709
  262SOL    HW2  786   1.292   2.962   2.041 -0.4028 -0.5292  2.2732
  263SOL     OW  787   0.815   0.623   2.306 -0.1204 -0.2535  0.0222
  263SOL    HW1  788   0.737   0.564   2.284 -0.2013  1.7346  3.1121
  263SOL    HW2  789   0.816   0.712   2.249 -1.0322  0.8644  2.5166
  264SOL     OW  790   2.274   0.799   0.413  0.2170 -0.2851  0.0735
  264SOL    HW1  791   2.291   0.735   0.331 -1.0704  1.6312 -2.0984
  264SOL    HW2  792   2.351   0.858   0.447  0.3261 -0.3684 -0.6511
  265SOL     OW  793   0.893   2.361   2.608 -0.6340 -0.8702  0.1531
  265SOL    HW1  794   0.932   2.434   2.674  0.2084  1.5018  2.5931
  265SOL    HW2  795   0.833   2.294   2.656  1.5742 -1.9815 -3.4619
  266SOL     OW  796   1.277   1.799   3.055 -0.0522  0.3465  0.0409
  266SOL    HW1  797   1.279   1.837   3.148  0.9798 -0.2618 -2.4036
  266SOL    HW2  798   1.370   1.786   3.015 -0.7816 -0.3685 -1.8049
  267SOL     OW  799   1.086   3.095   2.328 -0.4547 -0.8195 -0.3551
  267SOL    HW1  800   1.007   3.055   2.281  2.1813  3.4825  1.1534
  267SOL    HW2  801   1.162   3.140   2.273 -0.6307 -1.9821  1.9208
  268SOL     OW  802   0.865   1.295   1.067 -0.2186  0.5922  0.3357
  268SOL    HW1  803   0.785   1.325   1.122  2.6065  0.0082  0.4746
  268SOL    HW2  804   0.913   1.373   1.016  0.4552  1.3575 -0.3356
  269SOL     OW  805   2.367   2.547   1.596 -0.4755  0.1828  0.5011
  269SOL    HW1  806   2.446   2.490   1.624 -0.5499 -2.4912 -0.9938
  269SOL    HW2  807   2.327   2.589   1.681 -1.7342 -0.9015  1.4394
  270SOL     OW  808   0.142   2.992   1.990 -0.3357  0.3568  0.0294
  270SOL    HW1  809   0.180   2.937   1.907 -0.7541 -0.6207  0.0133
  270SOL    HW2  810   0.125   2.940   2.077 -0.5062  0.6894 -0.6942
  271SOL     OW  811   0.458   1.386   1.105 -0.2657  0.2929 -0.4065
  271SOL    HW1  812   0.458   1.373   0.998  0.2573  0.1391  1.0474
  271SOL    HW2  813   0.381   1.335   1.151 -1.4476  0.2288 -1.1213
  272SOL     OW  814   1.875   3.079   1.936 -0.0198 -0.1234  0.3020
  272SOL    HW1  815   1.823   3.004   1.885  0.8007  0.6706 -1.7715
  272SOL    HW2  816   1.880   3.164   1.877 -0.8411 -0.1012 -1.5737
  273SOL     OW  817   1.463   1.466   2.855 -0.5101  0.2584  0.1760
  273SOL    HW1  818   1.361   1.454   2.843 -0.0664  0.8126  2.5020
  273SOL    HW2  819   1.502   1.459   2.953  1.3175 -0.6899 -0.1012
  274SOL     OW  820   1.138   0.588   2.060  0.6988  1.0742 -0.0874
  274SOL    HW1  821   1.063   0.519   2.083  2.7941 -1.2820 -0.4653
  274SOL    HW2  822   1.213   0.587   2.127  0.9783  1.0611  1.6615
  275SOL     OW  823   0.663   2.094   1.936  0.1953  0.1138  0.2812
  275SOL    HW1  824   0.614   2.183   1.917 -1.2994 -1.6910 -2.6838
  275SOL    HW2  825   0.606   2.026   1.988  0.4367 -0.8487  3.0862
  276SOL     OW  826   2.249   0.948   2.863  0.3130  0.4116 -0.1022
  276SOL    HW1  827   2.176   0.982   2.800 -0.1276  0.2805 -1.6855
  276SOL    HW2  828   2.228   0.853   2.897  0.8730  0.0023 -0.0168
  277SOL     OW  829  -0.004   0.756   0.254 -0.0663  0.5893 -0.3160
  277SOL    HW1  830   0.077   0.823   0.243  1.3532  0.7468 -1.2108
  277SOL    HW2  831   0.025   0.674   0.311 -1.2561  0.0582 -0.1437
  278SOL     OW  832   0.295   0.221   3.027  0.4652  0.3789  0.5283
  278SOL    HW1  833   0.384   0.198   2.974  2.3162  0.2906  0.0658
  278SOL    HW2  834   0.290   0.322   3.054 -1.1374 -0.7622  0.4579
  279SOL     OW  835   0.269   3.065   0.895 -0.3378  0.0220 -0.2490
  279SOL    HW1  836   0.319   3.059   0.986  1.9709 -0.6669 -1.5869
  279SOL    HW2  837   0.243   2.972   0.863  2.0372 -2.3338  0.0658
  280SOL     OW  838   1.578   2.899   2.428 -0.5987 -0.1974  0.1650
  280SOL    HW1  839   1.632   2.970   2.485  2.7168 -0.3277  2.5883
  280SOL    HW2  840   1.491   2.944   2.393  2.3710  0.4016  1.6028
  281SOL     OW  841   0.569   0.932   2.343 -0.0148 -0.4109  0.5698
  281SOL    HW1  842   0.532   0.857   2.287 -1.5771  2.5357  1.0116
  281SOL    HW2  843   0.519   0.945   2.428 -1.0761 -2.1660 -0.3055
  282SOL     OW  844   1.785   2.469   0.556  0.2718  0.3614  0.3468
  282SOL    HW1  845   1.746   2.401   0.482 -1.6667  0.0706 -0.9653
  282SOL    HW2  846   1.735   2.560   0.559 -3.3989  1.7044  1.4019
  283SOL     OW  847   1.178   0.928   0.797  0.3969  0.3963  0.4510
  283SOL    HW1  848   1.202   0.883   0.886  0.5872 -0.9632 -0.2286
  283SOL    HW2  849   1.155   1.028   0.808  0.0274  0.9275  1.5575
  284SOL     OW  850   2.238   2.817   2.458 -0.0981 -0.2134 -0.5535
  284SOL    HW1  851   2.340   2.835   2.447 -0.0253  1.1586  0.5204
  284SOL    HW2  852   2.202   2.829   2.552  1.5242 -0.0568  1.8053
  285SOL     OW  853   1.310   3.041   2.619 -0.3578  0.0961 -0.0829
  285SOL    HW1  854   1.334   3.024   2.521  0.3098  1.1899 -0.8341
  285SOL    HW2  855   1.234   3.115   2.630 -2.3917  0.3479 -1.2356
  286SOL     OW  856   0.288   0.388   0.655 -0.7500 -0.5188 -0.2676
  286SOL    HW1  857   0.320   0.323   0.727  1.2315  1.3941 -3.3549
  286SOL    HW2  858   0.317   0.367   0.554 -0.7399 -1.2831  0.6419
  287SOL     OW  859   0.077   1.273   2.549 -0.4266  0.0153  0.1192
  287SOL    HW1  860   0.030   1.211   2.616  1.4633 -0.9442 -1.5087
  287SOL    HW2  861   0.053   1.375   2.569 -0.0237  2.1321 -1.6534
  288SOL     OW  862   1.525   2.702   1.670 -0.1947 -0.1064 -0.4537
  288SOL    HW1  863   1.570   2.631   1.732 -1.4226 -2.1993  0.4816
  288SOL    HW2  864   1.585   2.737   1.597 -0.5124 -0.4352  0.3376
  289SOL     OW  865   0.647   2.789   0.796 -0.0516 -0.1054  0.1429
  289SOL    HW1  866   0.686   2.842   0.716  2.6716 -3.7149 -1.0087
  289SOL    HW2  867   0.597   2.847   0.864 -0.4410  1.9831  2.2146
  290SOL     OW  868   2.838   1.149   1.699  0.2346 -0.2543 -0.2420
  290SOL    HW1  869   2.779   1.069   1.709  1.6101 -0.5059 -2.7543
  290SOL    HW2  870   2.935   1.122   1.728 -1.0852 -0.4456  1.9623
  291SOL     OW  871   1.924   3.089   0.074  0.1721  0.6756  0.8053
  291SOL    HW1  872   1.939   3.114   0.174  0.7680  0.1179 -0.6990
  291SOL    HW2  873   1.985   3.127  -0.001 -1.2574  0.0060  0.3947
  292SOL     OW  874   2.980   1.224   3.087 -0.0555  0.8151  0.4618
  292SOL    HW1  875   2.924   1.311   3.061  0.5475  0.1416 -0.2188
  292SOL    HW2  876   3.053   1.201   3.018 -2.4611  2.2849  1.5241
  293SOL     OW  877   0.575   2.078   0.297 -0.2412  0.1000  0.0320
  293SOL    HW1  878   0.546   2.148   0.363 -0.2835 -0.9345 -2.4296
  293SOL    HW2  879   0.674   2.051   0.296 -0.6393  1.8841  0.2547
  294SOL     OW  880   1.878   2.350   1.803  0.2466 -0.2309  0.7721
  294SOL    HW1  881   1.892   2.330   1.906  0.5024 -0.3658  3.3592
  294SOL    HW2  882   1.805   2.423   1.790  0.4469  0.1566 -0.3336
  295SOL     OW  883   0.941   1.056   0.460  0.0754  0.0129 -0.3155
  295SOL    HW1  884   1.037   1.086   0.465 -2.4348 -3.8448 -1.8950
  295SOL    HW2  885   0.908   1.012   0.548  0.6127  1.2996  0.2706
  296SOL     OW  886   1.117   2.163   2.749  0.5904 -0.0811 -0.1051
  296SOL    HW1  887   1.019   2.187   2.766  1.0078 -2.5558  1.0030
  296SOL    HW2  888   1.132   2.134   2.649 -1.4561 -0.5949 -1.6350
  297SOL     OW  889   1.268   0.560   1.167 -0.2958  0.9479 -0.2263
  297SOL    HW1  890   1.289   0.545   1.265 -0.6438  0.8918  0.8060
  297SOL    HW2  891   1.354   0.596   1.119  0.6863  0.9224 -2.1798
  298SOL     OW  892   0.471   1.298   2.925 -0.0237 -0.3188 -0.2905
  298SOL    HW1  893   0.445   1.216   2.984 -1.2796 -1.4182  0.5415
  298SOL    HW2  894   0.509   1.274   2.834  0.5155  1.2689  1.3634
  299SOL     OW  895   0.421   0.200   1.269 -0.4884  0.3561  0.4360
  299SOL    HW1  896   0.386   0.283   1.224 -1.3159 -0.3465  1.5767
  299SOL    HW2  897   0.441   0.211   1.369 -1.7789  1.9118  0.4609
  300SOL     OW  898   1.368   1.815   2.578 -0.1975 -0.0952  0.0037
  300SOL    HW1  899   1.336   1.744   2.514 -0.2517  1.1130 -2.8051
  300SOL    HW2  900   1.427   1.779   2.653 -0.4401  1.0803 -2.1628
  301SOL     OW  901   0.361   0.299   0.380 -0.9504 -0.2935  0.0329
  301SOL    HW1  902   0.262   0.284   0.343 -1.6858  0.6646 -1.4740
  301SOL    HW2  903   0.429   0.228   0.344  0.2132  0.1711 -0.6876
  302SOL     OW  904   1.243   2.400   2.303  0.1308 -0.2699 -0.2499
  302SOL    HW1  905   1.141   2.368   2.313 -1.1349  2.0786  1.3971
  302SOL    HW2  906   1.308   2.342   2.359 -0.1001 -2.6570 -0.7535
  303SOL     OW  907   0.913   2.436   0.799 -0.4958 -0.0157  0.0028
  303SOL    HW1  908   0.938   2.451   0.699 -0.8339  3.8349 -0.9193
  303SOL    HW2  909   0.951   2.513   0.857  0.5524 -1.2579 -0.6885
  304SOL     OW  910   0.151   1.901   0.695 -0.0585 -0.2735  0.9064
  304SOL    HW1  911   0.226   1.906   0.629 -2.8980  1.3373  1.6524
  304SOL    HW2  912   0.061   1.932   0.647 -1.7648 -0.2387 -0.1891
  305SOL     OW  913   1.665   0.833   0.697 -0.2648 -1.1687 -0.2435
  305SOL    HW1  914   1.606   0.859   0.618  1.8308  2.2364  1.7239
  305SOL    HW2  915   1.699   0.734   0.692  1.4225 -1.5261  0.0779
  306SOL     OW  916   0.381   1.841   1.964  0.5305  0.5069  0.4094
  306SOL    HW1  917   0.467   1.800   1.918  2.6659  1.6220  0.9249
  306SOL    HW2  918   0.404   1.867   2.064 -1.5295 -0.2118  0.9316
  307SOL     OW  919   3.013   0.879   2.546  0.3581  0.3323  0.2938
  307SOL    HW1  920   3.025   0.969   2.599  1.3677  1.1616  1.1205
  307SOL    HW2  921   3.009   0.796   2.611  2.1590  0.5249  2.1727
  308SOL     OW  922   1.448   2.703   2.821  0.0903 -0.1600 -0.4120
  308SOL    HW1  923   1.421   2.697   2.720 -0.2783  0.1299  2.2201
  308SOL    HW2  924   1.422   2.614   2.874  2.4804 -1.5007 -0.2458
  309SOL     OW  925   1.212   0.172   1.811 -0.3957 -0.0202  0.0664
  309SOL    HW1  926   1.299   0.126   1.784  0.0367  0.7392 -0.9601
  309SOL    HW2  927   1.150   0.192   1.731 -0.8161 -0.4057  0.3734
  310SOL     OW  928   1.497   2.484   0.665  0.0926  0.3388 -0.2471
  310SOL    HW1  929   1.433   2.506   0.743 -0.3930  2.5364  0.6484
  310SOL    HW2  930   1.558   2.564   0.639 -0.5646 -2.6191  1.0000
  311SOL     OW  931   1.089   0.961   1.780  0.7154  0.2502  0.2387
  311SOL    HW1  932   1.036   0.878   1.816  0.7803 -0.8540 -0.1308
  311SOL    HW2  933   1.124   0.940   1.685  1.7699 -1.0040  0.3197
  312SOL     OW  934   1.512   0.628   1.027 -0.3966  0.3316 -0.4082
  312SOL    HW1  935   1.547   0.723   1.039  0.9106 -1.3478 -1.6373
  312SOL    HW2  936   1.442   0.623   0.950 -2.1595  2.8709  1.5297
  313SOL     OW  937   1.638   1.271   0.765  0.6798 -0.1159 -0.9038
  313SOL    HW1  938   1.566   1.293   0.840  0.1574  0.8154 -2.0160
  313SOL    HW2  939   1.591   1.251   0.674 -1.0720  0.7824 -0.5527
  314SOL     OW  940   3.001   3.066   3.059 -0.0874  0.3152 -0.2269
  314SOL    HW1  941   2.996   3.062   3.162  0.8125 -1.0399 -0.5044
  314SOL    HW2  942   2.922   3.009   3.012  0.7541 -1.4691 -1.3253
  315SOL     OW  943   1.194   0.205   2.804  0.2178 -0.3532 -0.2971
  315SOL    HW1  944   1.108   0.184   2.749 -1.2545  0.9400  0.0109
  315SOL    HW2  945   1.210   0.139   2.878 -3.2195 -0.3975 -0.8854
  316SOL     OW  946   1.790   2.087   0.877  0.0269 -0.0030 -0.3616
  316SOL    HW1  947   1.728   2.098   0.967 -1.8617 -0.4574  1.5444
  316SOL    HW2  948   1.810   2.175   0.830  0.2767  1.8381 -2.0880
  317SOL     OW  949   1.169   0.717   2.719  0.2676  0.5041 -0.4041
  317SOL    HW1  950   1.143   0.731   2.818 -2.6457 -1.4369 -1.1300
  317SOL    HW2  951   1.109   0.642   2.678  0.6284 -0.2623 -1.6919
  318SOL     OW  952   1.373   3.065   2.335 -0.2087 -0.2078 -0.5860
  318SOL    HW1  953   1.424   3.154   2.328 -2.8894  0.5908  1.1406
  318SOL    HW2  954   1.367   3.008   2.248 -0.4199 -1.7639  0.0873
  319SOL     OW  955   0.632   2.391   3.022 -0.2472  0.1112 -0.2817
  319SOL    HW1  956   0.575   2.308   3.056 -0.6357 -1.1726  0.3179
  319SOL    HW2  957   0.722   2.358   2.979  1.7261 -0.0986  1.0319
  320SOL     OW  958   1.687   2.261   0.419 -0.2057  0.3813 -0.4234
  320SOL    HW1  959   1.776   2.205   0.432  2.7474  1.9227  0.6654
  320SOL    HW2  960   1.595   2.211   0.442 -1.6761 -1.7166  0.1398
  321SOL     OW  961   1.643   2.701   0.527 -0.5533 -0.3786 -0.1920
  321SOL    HW1  962   1.551   2.731   0.486  0.5218  1.2915 -0.8887
  321SOL    HW2  963   1.721   2.766   0.518  1.0310 -0.4396 -2.7438
  322SOL     OW  964   2.548   1.101   2.315 -0.0579 -0.6723  0.0665
  322SOL    HW1  965   2.614   1.107   2.399  0.0968 -1.0324 -1.3578
  322SOL    HW2  966   2.508   1.008   2.299 -1.4000 -2.3832  1.0448
  323SOL     OW  967   1.147   2.697   0.767 -0.0437 -0.3083 -0.4935
  323SOL    HW1  968   1.148   2.626   0.690 -2.7748  1.9675  2.1727
  323SOL    HW2  969   1.132   2.797   0.748  0.6511  0.4847  2.1292
  324SOL     OW  970   0.069   2.566   2.435 -0.5789  0.0654  0.1073
  324SOL    HW1  971   0.062   2.522   2.529  0.4562 -1.1048 -0.0637
  324SOL    HW2  972   0.042   2.664   2.444  1.1352 -0.5650  1.9816
  325SOL     OW  973   1.316   3.041   0.458  0.0234  0.2393  0.3219
  325SOL    HW1  974   1.313   3.099   0.372  0.1780 -0.1165 -0.6875
  325SOL    HW2  975   1.314   3.093   0.550  0.7011 -2.1870  1.5252
  326SOL     OW  976   2.449   0.886   0.021 -0.1917  0.8517  0.3997
  326SOL    HW1  977   2.356   0.840   0.041  0.1529 -1.6164 -2.4359
  326SOL    HW2  978   2.527   0.822   0.044 -1.1107 -0.6334  0.5462
  327SOL     OW  979   2.853   0.261   0.529 -0.3792 -0.6465  0.1594
  327SOL    HW1  980   2.821   0.191   0.455 -0.0805 -2.4237  0.8719
  327SOL    HW2  981   2.870   0.210   0.618 -0.9081 -0.7097  1.3679
  328SOL     OW  982   2.625   0.588   0.367  0.3115  0.3410  0.0923
  328SOL    HW1  983   2.675   0.624   0.451  2.1038 -0.3991  0.4242
  328SOL    HW2  984   2.565   0.505   0.386  1.6673 -0.3758  2.0235
  329SOL     OW  985   2.920   3.046   2.244  0.4539  0.2607 -0.1353
  329SOL    HW1  986   3.003   2.985   2.259 -1.3969 -0.3838  1.0402
  329SOL    HW2  987   2.944   3.130   2.187  1.9897  0.3966 -0.1956
  330SOL     OW  988   0.536   0.275   1.904  0.1398  0.5772  0.3604
  330SOL    HW1  989   0.622   0.292   1.849  2.7438  1.2989 -0.7594
  330SOL    HW2  990   0.560   0.241   1.998  0.4467 -1.5482  0.6305
  331SOL     OW  991   0.018   1.911   1.112  0.4688  0.6127 -0.0835
  331SOL    HW1  992  -0.009   1.968   1.029  2.3252  3.2383  0.1750
  331SOL    HW2  993  -0.061   1.897   1.180  1.4941 -2.9559  1.8790
  332SOL     OW  994   0.370   1.179   0.096  0.5387 -0.3609  0.2702
  332SOL    HW1  995   0.305   1.116   0.052  1.0157  1.4149  0.0096
  332SOL    HW2  996   0.340   1.213   0.192 -1.3484  0.8811  0.1689
  333SOL     OW  997   2.915   0.928   0.370 -0.0864 -0.4333  0.4112
  333SOL    HW1  998   2.942   1.004   0.435  0.8587  3.9451  0.7291
  333SOL    HW2  999   2.988   0.883   0.320 -0.9751  4.0168 -0.3723
  334SOL     OW 1000   1.729   1.133   1.700 -0.0349  0.6364  0.0406
  334SOL    HW1 1001   1.775   1.136   1.609  1.7673  0.8539  1.7027
  334SOL    HW2 1002   1.791   1.166   1.774 -1.2087 -1.0981 -1.8512
  335SOL     OW 1003   1.932   2.797   2.577 -0.1610 -0.5062 -0.4480
  335SOL    HW1 1004   1.854   2.797   2.645 -0.2532  0.3477 -3.2480
  335SOL    HW2 1005   2.019   2.830   2.622  0.6787 -2.2829  0.6344
  336SOL     OW 1006   0.249   0.075   2.767 -0.0941  0.0476  0.0180
  336SOL    HW1 1007   0.321   0.077   2.841 -0.1761 -2.0505 -0.2047
  336SOL    HW2 1008   0.177   0.011   2.791 -0.6836  0.9280  0.2308
  337SOL     OW 1009   0.846   2.857   3.030 -1.1525 -0.5130  0.1847
  337SOL    HW1 1010   0.846   2.777   3.104  0.0754 -0.4810  0.8788
  337SOL    HW2 1011   0.909   2.936   3.041  0.4583  3.4619  0.4060
  338SOL     OW 1012   0.017   0.969   0.708 -0.3380  0.2810 -0.2736
  338SOL    HW1 1013  -0.085   0.946   0.707  0.4232  0.7151  1.3316
  338SOL    HW2 1014   0.034   1.072   0.704  1.8354 -1.5009 -0.1493
  339SOL     OW 1015   1.769   1.322   2.168  0.3383 -0.0472 -0.3855
  339SOL    HW1 1016   1.674   1.329   2.121 -2.0282  2.1647  0.3431
  339SOL    HW2 1017   1.802   1.417   2.197 -0.8280  2.4946  2.3563
  340SOL     OW 1018   2.262   0.803   1.084  0.4429  0.0475  0.7333
  340SOL    HW1 1019   2.185   0.866   1.105  3.6570 -2.7682 -0.2565
  340SOL    HW2 1020   2.222   0.713   1.049 -2.0401  0.7673 -1.7633
  341SOL     OW 1021   1.898   2.066   0.349 -0.2786 -0.7358 -0.1413
  341SOL    HW1 1022   1.915   2.086   0.247  0.5315 -1.9127 -1.0884
  341SOL    HW2 1023   1.982   2.024   0.397  0.7672 -1.5979  2.3780
  342SOL     OW 1024   2.188   2.155   2.766 -0.4273  0.3095  0.4673
  342SOL    HW1 1025   2.201   2.059   2.813 -0.5927 -1.0211  0.7126
  342SOL    HW2 1026   2.092   2.167   2.726  1.2321  1.8070 -0.9557
  343SOL     OW 1027   0.374   0.859   2.833 -0.3127 -0.2164  0.4701
  343SOL    HW1 1028   0.370   0.914   2.744  0.9812 -1.3498 -0.2264
  343SOL    HW2 1029   0.476   0.848   2.858 -2.0960 -3.6631 -0.2715
  344SOL     OW 1030   1.956   1.445   0.364  0.2748 -0.4585 -0.0498
  344SOL    HW1 1031   1.952   1.387   0.282  0.2929  0.8765 -0.3347
  344SOL    HW2 1032   1.864   1.489   0.389 -0.6617 -1.9436 -0.3772
  345SOL     OW 1033   1.379   2.191   2.850  0.5457  0.2753 -0.2996
  345SOL    HW1 1034   1.282   2.171   2.828 -1.8747 -1.5658  1.3611
  345SOL    HW2 1035   1.440   2.171   2.771  1.8832 -1.3649  2.4317
  346SOL     OW 1036   2.307   0.836   1.371  0.3692 -0.5601 -0.5896
  346SOL    HW1 1037   2.228   0.889   1.416 -2.3874 -1.3772 -0.9486
  346SOL    HW2 1038   2.286   0.816   1.269 -1.2982 -1.8544 -1.9369
  347SOL     OW 1039   0.730   2.801   1.694 -0.4132  0.0741  0.5614
  347SOL    HW1 1040   0.812   2.857   1.662 -1.5655 -0.2395 -0.9756
  347SOL    HW2 1041   0.656   2.793   1.623 -2.5069  1.1036 -1.6156
  348SOL     OW 1042   0.213   0.645   2.850  0.2915 -0.1830 -0.4100
  348SOL    HW1 1043   0.136   0.646   2.780 -1.8521 -1.7272  0.1656
  348SOL    HW2 1044   0.261   0.736   2.861 -2.2154  0.4069  1.3545
  349SOL     OW 1045   1.780   0.421   2.819 -0.4343  0.2455  0.2859
  349SOL    HW1 1046   1.769   0.513   2.773 -0.7560 -1.0890  0.6864
  349SOL    HW2 1047   1.765   0.426   2.924 -1.0121  1.9640 -0.9620
  350SOL     OW 1048   1.688   0.383   0.391  0.5891 -0.0206  0.3836
  350SOL    HW1 1049   1.775   0.376   0.447  1.2256 -1.9971  1.5821
  350SOL    HW2 1050   1.678   0.448   0.312 -2.9197 -0.9157 -3.8922
  351SOL     OW 1051   0.847   0.816   2.097 -0.1445 -0.2823 -0.4315
  351SOL    HW1 1052   0.890   0.909   2.115 -2.3942 -0.7412  0.2922
  351SOL    HW2 1053   0.890   0.767   2.020  2.3486 -2.9648  0.6377
  352SOL     OW 1054   2.065   1.357   0.598 -0.3314  0.1313  0.0034
  352SOL    HW1 1055   2.038   1.396   0.504  1.7669  2.0540 -1.7372
  352SOL    HW2 1056   2.003   1.279   0.626 -0.6710  1.8315  0.9378
  353SOL     OW 1057   2.188   2.714   1.122 -0.0743 -0.3009  0.7684
  353SOL    HW1 1058   2.251   2.637   1.147 -2.1253 -0.3851 -0.6711
  353SOL    HW2 1059   2.123   2.747   1.193 -1.8708 -0.0793 -3.2269
  354SOL     OW 1060   0.225   1.443   2.902  0.5840 -0.1392 -0.0112
  354SOL    HW1 1061   0.231   1.502   2.817 -0.7936 -0.9229  0.1714
  354SOL    HW2 1062   0.311   1.388   2.926 -0.6862 -2.0467  0.5406
  355SOL     OW 1063   0.732   1.605   0.596  0.1802  0.6104 -0.6138
  355SOL    HW1 1064   0.724   1.557   0.686  0.3375  1.8736  1.5631
  355SOL    HW2 1065   0.673   1.566   0.520  0.1547  0.3767 -1.7004
  356SOL     OW 1066   0.978   0.333   2.109  0.1330  0.0296 -0.3452
  356SOL    HW1 1067   1.059   0.271   2.129  2.5490  0.0119  0.1153
  356SOL    HW2 1068   0.941   0.309   2.017  0.8788 -0.5803 -0.2054
  357SOL     OW 1069   0.985   1.412   0.164 -0.0133  0.6183 -0.2637
  357SOL    HW1 1070   1.018   1.347   0.091  0.9002 -0.2096 -1.3647
  357SOL    HW2 1071   1.054   1.483   0.195  2.0470  0.1335 -0.9970
  358SOL     OW 1072   1.681   1.466   0.477  0.0024 -0.1696 -0.4074
  358SOL    HW1 1073   1.622   1.459   0.561 -0.9933  1.6680 -0.6189
  358SOL    HW2 1074   1.635   1.418   0.393 -1.3792  0.1397 -2.5804
  359SOL     OW 1075   1.604   2.570   0.212 -0.3581 -0.3587 -0.0507
  359SOL    HW1 1076   1.615   2.470   0.184 -1.5722  0.0172 -0.0299
  359SOL    HW2 1077   1.504   2.600   0.204 -0.3797  0.2317 -2.6173
  360SOL     OW 1078   0.722   0.500   0.601 -0.4077  0.5398 -0.2446
  360SOL    HW1 1079   0.658   0.519   0.519 -1.6098  2.0027  0.8150
  360SOL    HW2 1080   0.761   0.404   0.588  1.3778 -2.2354  0.0434
  361SOL     OW 1081   1.351   1.322   0.619  0.4032 -0.1760  0.0739
  361SOL    HW1 1082   1.381   1.350   0.715  0.6958  0.5605 -2.9972
  361SOL    HW2 1083   1.257   1.360   0.590  0.0716  0.3202 -1.1791
  362SOL     OW 1084   1.368   1.823   0.688  0.2276 -0.5544  0.3195
  362SOL    HW1 1085   1.400   1.749   0.753 -0.6301 -0.6983  0.8051
  362SOL    HW2 1086   1.452   1.864   0.643 -0.9211  1.7557  0.7548
  363SOL     OW 1087   1.282   1.348   1.967 -0.4943 -0.5096 -0.7722
  363SOL    HW1 1088   1.376   1.364   2.005 -0.6408  1.0685 -3.9329
  363SOL    HW2 1089   1.210   1.391   2.026  0.3120 -0.4274  0.7695
  364SOL     OW 1090   0.554   2.377   1.956 -0.0283  0.4425  0.0536
  364SOL    HW1 1091   0.455   2.347   1.969  1.0566 -2.3925 -1.9702
  364SOL    HW2 1092   0.567   2.474   1.923 -0.8902 -0.8867 -0.7825
  365SOL     OW 1093   0.927   1.971   1.446  0.3698 -0.4812  0.3013
  365SOL    HW1 1094   0.830   1.989   1.480 -0.3840  1.4096 -1.5477
  365SOL    HW2 1095   0.933   1.991   1.342 -1.4196  0.8293 -1.3661
  366SOL     OW 1096   2.748   1.924   0.251 -0.0478 -0.5824  0.1228
  366SOL    HW1 1097   2.664   1.878   0.205 -3.6832 -1.8787 -1.1033
  366SOL    HW2 1098   2.828   1.859   0.257  1.0267 -2.1818  0.3275
  367SOL     OW 1099   0.948   1.106   3.035  0.7237 -0.4167 -0.4711
  367SOL    HW1 1100   0.926   1.071   3.132 -0.5472  1.7867  1.5765
  367SOL    HW2 1101   1.016   1.180   3.030 -0.9107 -0.7448 -0.0436
  368SOL     OW 1102   1.447   0.543   0.500 -0.2775 -0.4495 -0.1461
  368SOL    HW1 1103   1.362   0.591   0.478  1.2197 -2.0134 -1.6238
  368SOL    HW2 1104   1.529   0.560   0.440  0.0081 -0.1481 -2.5652
  369SOL     OW 1105   0.386   1.627   0.136 -0.4125  0.9494  0.0403
  369SOL    HW1 1106   0.450   1.686   0.191  1.8695  0.2911  1.4822
  369SOL    HW2 1107   0.310   1.586   0.196 -0.2603  1.8762 -1.7363
  370SOL     OW 1108   0.434   2.176   1.060 -0.4254 -0.6676 -0.8972
  370SOL    HW1 1109   0.438   2.277   1.035 -1.1082 -2.1179  0.0645
  370SOL    HW2 1110   0.346   2.131   1.034 -0.6609 -0.1818 -1.0037
  371SOL     OW 1111   2.906   2.181   2.722 -0.1175 -0.6826 -0.6245
  371SOL    HW1 1112   2.967   2.095   2.703  1.4163 -0.7856 -1.9319
  371SOL    HW2 1113   2.935   2.231   2.810  1.5366  0.6514  1.6643
  372SOL     OW 1114   0.986   2.050   1.160 -0.4361 -0.0589 -0.0827
  372SOL    HW1 1115   0.918   2.114   1.108 -1.9402  1.5652  1.6455
  372SOL    HW2 1116   1.061   2.108   1.200 -1.7521 -0.0215  0.8450
  373SOL     OW 1117   1.942   1.909   1.048  0.1715  0.0319 -0.0196
  373SOL    HW1 1118   2.037   1.938   1.080 -0.5983 -1.0538  0.2160
  373SOL    HW2 1119   1.902   1.973   0.979 -2.5714 -2.4877 -0.7647
  374SOL     OW 1120   1.915   0.392   0.552 -0.2446 -0.4508 -0.0997
  374SOL    HW1 1121   1.907   0.322   0.626  2.4772  1.2375 -2.3649
  374SOL    HW2 1122   2.010   0.401   0.509  2.4812 -0.7960  0.0379
  375SOL     OW 1123   2.427   2.190   1.141  0.3323  0.1659 -0.0022
  375SOL    HW1 1124   2.443   2.189   1.036  1.1578 -1.3898  1.2482
  375SOL    HW2 1125   2.504   2.145   1.193 -1.4866  1.4213  0.1078
  376SOL     OW 1126   3.087   0.628   1.440 -0.5415 -0.0869  0.1453
  376SOL    HW1 1127   3.099   0.702   1.514  1.6358  0.6597 -2.9448
  376SOL    HW2 1128   3.026   0.553   1.478 -2.2795  0.9732 -2.0596
  377SOL     OW 1129   2.231   2.929   0.190  0.8666 -0.0311 -0.1429
  377SOL    HW1 1130   2.141   2.958   0.238 -0.6883 -1.6769 -1.5980
  377SOL    HW2 1131   2.289   2.855   0.237  0.0600 -0.1721  0.2034
  378SOL     OW 1132   1.895   1.904   2.515  0.1950  0.4735  0.0555
  378SOL    HW1 1133   1.989   1.868   2.496  1.6791  0.0831  1.1116
  378SOL    HW2 1134   1.823   1.835   2.487 -1.5162 -0.9518  3.4550
  379SOL     OW 1135   0.753   0.148   2.823  0.3448 -0.2769 -0.0745
  379SOL    HW1 1136   0.739   0.053   2.781 -1.0757  0.2246  3.3796
  379SOL    HW2 1137   0.766   0.229   2.760  1.1857  2.8496  2.7868
  380SOL     OW 1138   1.538   1.123   0.528  0.1641 -0.1883  0.7474
  380SOL    HW1 1139   1.456   1.190   0.543 -0.9868 -0.7406 -1.7052
  380SOL    HW2 1140   1.508   1.030   0.509  0.3618  2.2618  0.7157
  381SOL     OW 1141   1.255   1.309   1.500  0.2306  0.0615 -0.7294
  381SOL    HW1 1142   1.310   1.233   1.461 -1.1108 -0.6378  0.5944
  381SOL    HW2 1143   1.319   1.366   1.564  0.5989  0.5037  0.2729
  382SOL     OW 1144   1.823   0.838   0.249 -0.3911  0.0190  0.3062
  382SOL    HW1 1145   1.861   0.774   0.178 -0.9207  1.6435 -0.5182
  382SOL    HW2 1146   1.894   0.845   0.327 -0.6041 -2.9332 -0.3672
  383SOL     OW 1147   2.511   0.982   1.466 -0.0143  0.5825 -0.3121
  383SOL    HW1 1148   2.429   0.933   1.433  3.9478 -0.7531  1.8135
  383SOL    HW2 1149   2.596   0.965   1.404  2.1918  1.0884  3.1862
  384SOL     OW 1150   0.942   2.302   0.240 -0.1833  0.6292 -0.7477
  384SOL    HW1 1151   0.844   2.333   0.247 -0.6510  2.0261  1.9204
  384SOL    HW2 1152   0.981   2.265   0.332  0.3914 -2.2439  0.9029
  385SOL     OW 1153   2.946   2.034   1.682 -0.3104 -0.0407 -0.4224
  385SOL    HW1 1154   3.025   2.094   1.717 -0.5485  0.8337 -2.2998
  385SOL    HW2 1155   2.980   1.940   1.666 -0.7611  1.0541  2.8872
  386SOL     OW 1156   0.472   1.068   0.461  0.3650 -0.0722  0.0877
  386SOL    HW1 1157   0.455   0.981   0.503 -1.8518  3.3272  0.8831
  386SOL    HW2 1158   0.382   1.110   0.428 -2.4963  0.5989  1.4044
  387SOL     OW 1159   0.977   0.339   1.652 -0.5449 -0.6062 -0.2852
  387SOL    HW1 1160   1.003   0.437   1.644  1.4622 -0.5176  0.0293
  387SOL    HW2 1161   0.956   0.296   1.558  0.7056 -2.8106 -0.5749
  388SOL     OW 1162   1.200   2.709   1.746 -0.5001  0.2169  0.2673
  388SOL    HW1 1163   1.245   2.710   1.650 -0.9625 -0.0976 -1.5825
  388SOL    HW2 1164   1.241   2.640   1.811  1.8296 -0.3183 -1.0018
  389SOL     OW 1165   0.132   2.903   1.329  0.4258  0.0923 -0.1665
  389SOL    HW1 1166   0.030   2.904   1.300 -0.9442  0.7724 -1.7359
  389SOL    HW2 1167   0.174   2.808   1.319 -0.0895 -2.8113 -1.6507
  390SOL     OW 1168   1.020   0.968   1.383  0.0134  0.4073 -0.3930
  390SOL    HW1 1169   1.107   0.961   1.442  0.9551  0.6549 -0.0556
  390SOL    HW2 1170   0.980   1.068   1.385 -1.4488  2.2911  1.4480
  391SOL     OW 1171   2.186   1.112   1.132 -0.7491  0.0561 -0.0067
  391SOL    HW1 1172   2.117   1.041   1.169 -0.7217 -1.7798 -0.4799
  391SOL    HW2 1173   2.203   1.090   1.034  1.6907 -3.4954 -0.4952
  392SOL     OW 1174   0.880   2.632   0.077 -0.3384 -0.2280 -0.1298
  392SOL    HW1 1175   0.980   2.599   0.073  1.6772 -1.1274 -0.3158
  392SOL    HW2 1176   0.818   2.577   0.139  1.9786  0.7579 -0.8243
  393SOL     OW 1177   0.281   0.674   1.985  0.4053 -0.4337 -0.2660
  393SOL    HW1 1178   0.249   0.578   1.977 -0.1964  1.1401 -0.9249
  393SOL    HW2 1179   0.322   0.716   1.897  0.1571  1.5094 -2.4455
  394SOL     OW 1180   3.058   1.954   2.682  0.5740  0.0561  0.1994
  394SOL    HW1 1181   3.121   1.903   2.753 -0.2620 -2.3118  1.1187
  394SOL    HW2 1182   3.034   1.892   2.604 -0.4255 -0.9991  1.5051
  395SOL     OW 1183   1.613   1.963   0.631  0.2320  0.6257  0.4006
  395SOL    HW1 1184   1.662   1.880   0.594 -0.0774  0.2537 -1.8155
  395SOL    HW2 1185   1.674   2.012   0.698  0.0134 -2.1797  1.4302
  396SOL     OW 1186   2.912   1.874   1.268  0.3288  0.4843  0.1144
  396SOL    HW1 1187   2.925   1.775   1.255 -1.8681  0.5619  0.3048
  396SOL    HW2 1188   2.824   1.898   1.323  0.7168  0.2725  0.3480
  397SOL     OW 1189   1.039   2.213   0.496  0.3045 -0.3158  0.4440
  397SOL    HW1 1190   0.949   2.164   0.524  0.2048 -0.0768  1.4638
  397SOL    HW2 1191   1.055   2.304   0.541 -1.4217  0.1601  0.3638
  398SOL     OW 1192   2.149   3.065   1.128  0.1717  0.5042  0.1420
  398SOL    HW1 1193   2.070   3.001   1.163 -1.2946  1.5034  0.2782
  398SOL    HW2 1194   2.120   3.153   1.080  2.3757  2.1003  0.8830
  399SOL     OW 1195   3.047   2.456   2.652 -0.0658 -0.2401 -0.0492
  399SOL    HW1 1196   2.975   2.406   2.601  3.5643 -1.5691  1.6299
  399SOL    HW2 1197   3.115   2.398   2.708  1.9424  1.1800  3.1619
  400SOL     OW 1198   0.679   1.670   1.371  0.0298  0.2846 -0.1458
  400SOL    HW1 1199   0.618   1.705   1.448  1.0133 -1.8481  1.1978
  400SOL    HW2 1200   0.638   1.703   1.280 -1.6366  3.0430 -0.1166
  401SOL     OW 1201   1.837   0.271   1.149  0.3720  0.2681 -0.4286
  401SOL    HW1 1202   1.850   0.301   1.247 -0.4306 -2.1578  1.4014
  401SOL    HW2 1203   1.778   0.332   1.091 -0.2651 -3.3274 -1.3002
  402SOL     OW 1204   1.339   0.263   3.081  0.0402  0.5009  0.0709
  402SOL    HW1 1205   1.412   0.219   3.021 -0.2160 -1.7530  1.8001
  402SOL    HW2 1206   1.284   0.329   3.022 -0.0904 -0.5124 -0.2152
  403SOL     OW 1207   2.219   1.841   0.844  0.0488  0.8117 -0.2193
  403SOL    HW1 1208   2.317   1.857   0.820 -3.9497  0.5579  1.8019
  403SOL    HW2 1209   2.193   1.897   0.930  3.5723 -1.3980  0.9718
  404SOL     OW 1210   0.241   2.477   2.752  0.2817  0.0757  0.3575
  404SOL    HW1 1211   0.331   2.447   2.714 -1.3236  0.1920  0.1306
  404SOL    HW2 1212   0.253   2.569   2.801 -1.1501  1.3141 -2.6074
  405SOL     OW 1213   0.099   2.381   0.751  0.8033 -0.3458 -0.2188
  405SOL    HW1 1214   0.065   2.322   0.677  1.3347  2.2429 -0.0174
  405SOL    HW2 1215   0.177   2.429   0.711 -2.6873 -0.7006 -0.7622
  406SOL     OW 1216   0.056   1.537  -0.001 -0.7140  0.0617  0.0658
  406SOL    HW1 1217   0.132   1.530  -0.070  1.5912  0.8355  2.1921
  406SOL    HW2 1218   0.089   1.505   0.092  0.7638 -0.5716  0.0070
  407SOL     OW 1219   1.595   0.892   0.972  0.2426 -0.3836  0.3707
  407SOL    HW1 1220   1.612   0.890   0.871  1.3460  1.1885 -0.1926
  407SOL    HW2 1221   1.514   0.956   1.002 -2.4195 -0.2522 -2.2415
  408SOL     OW 1222   1.534   2.402   0.960 -0.1867 -0.4782  0.1793
  408SOL    HW1 1223   1.620   2.391   0.906  1.5676 -1.9582  0.0188
  408SOL    HW2 1224   1.476   2.486   0.932  0.6340  0.2462 -1.6970
  409SOL     OW 1225   0.628   0.840   0.756 -0.5653 -0.2836 -0.0573
  409SOL    HW1 1226   0.554   0.849   0.688 -0.4401 -0.1288  0.6135
  409SOL    HW2 1227   0.605   0.759   0.816  0.8168 -1.7189 -0.2274
  410SOL     OW 1228   1.258   2.011   1.385 -0.0623 -0.5152 -0.1869
  410SOL    HW1 1229   1.325   1.954   1.440 -1.6137  2.2441  1.1585
  410SOL    HW2 1230   1.185   1.951   1.348 -1.8555 -0.8909  0.0370
  411SOL     OW 1231   2.529   1.834   3.017  0.2973  0.3240  0.2364
  411SOL    HW1 1232   2.606   1.903   3.024 -1.0990  0.1919 -1.1487
  411SOL    HW2 1233   2.444   1.877   2.977 -0.1848  2.8836  2.3968
  412SOL     OW 1234   1.473   2.464   2.145 -0.1684  0.3110  0.2807
  412SOL    HW1 1235   1.548   2.482   2.213  0.1173 -0.7743 -0.8527
  412SOL    HW2 1236   1.386   2.448   2.198  0.7465 -1.8533  0.5207
  413SOL     OW 1237   3.093   0.222   2.986  0.0285  0.3418  0.7959
  413SOL    HW1 1238   3.048   0.126   2.994 -1.6268  0.6588 -0.8753
  413SOL    HW2 1239   3.198   0.217   2.982  0.6264 -0.8048 -1.8797
  414SOL     OW 1240   1.764   1.485   1.165  0.3653  0.2142 -0.2785
  414SOL    HW1 1241   1.749   1.584   1.189 -0.5160  2.3202 -1.7310
  414SOL    HW2 1242   1.747   1.458   1.064  1.4772 -0.0539 -0.4392
  415SOL     OW 1243   0.316   2.181   0.687  0.8822 -0.6024 -0.5774
  415SOL    HW1 1244   0.274   2.166   0.779 -3.6146  1.2749 -0.6514
  415SOL    HW2 1245   0.241   2.188   0.622  1.8031  0.3578  1.6283
  416SOL     OW 1246   0.378   1.101   1.061  0.1960  0.1639  0.0969
  416SOL    HW1 1247   0.377   1.007   1.016 -1.1771  1.9148 -0.8842
  416SOL    HW2 1248   0.474   1.137   1.079 -0.6527  1.7451 -1.2706
  417SOL     OW 1249   2.347   2.440   2.099 -0.0226 -0.5337  0.3057
  417SOL    HW1 1250   2.332   2.338   2.116  0.5692  0.3193  1.8488
  417SOL    HW2 1251   2.325   2.491   2.191  1.1777 -1.8948  2.2514
  418SOL     OW 1252   1.019   0.486   1.342 -0.4551  0.1210 -0.4620
  418SOL    HW1 1253   0.930   0.467   1.295  0.6379 -0.2212  2.6075
  418SOL    HW2 1254   1.105   0.489   1.283  1.6373  0.8585  2.1976
  419SOL     OW 1255   0.941   0.546   2.976 -0.1399  0.4680  0.0628
  419SOL    HW1 1256   0.850   0.578   2.930 -1.5792 -0.9075 -1.3324
  419SOL    HW2 1257   0.990   0.633   3.008  2.7868  0.7192 -0.9384
  420SOL     OW 1258   0.126   2.221   0.503  0.0473 -0.4410  0.1793
  420SOL    HW1 1259   0.178   2.186   0.419 -3.7566  1.5159 -0.9288
  420SOL    HW2 1260   0.058   2.145   0.527  0.3849  1.6480 -2.4113
  421SOL     OW 1261   0.336   2.980   0.550  0.0420  0.6934 -0.2891
  421SOL    HW1 1262   0.318   2.926   0.636 -0.4348  0.2377 -1.0920
  421SOL    HW2 1263   0.411   3.049   0.564  0.5727  0.1409 -0.6940
  422SOL     OW 1264   1.029   2.599   1.026  0.6941 -0.4659 -0.8643
  422SOL    HW1 1265   1.047   2.673   0.953 -2.1928 -1.5104  1.1532
  422SOL    HW2 1266   1.112   2.547   1.053 -0.0293 -2.2942 -0.4996
  423SOL     OW 1267   0.136   0.736   1.237  0.2332 -0.3189  0.4411
  423SOL    HW1 1268   0.075   0.691   1.309  0.6269  2.6843  0.3601
  423SOL    HW2 1269   0.094   0.822   1.206  0.8146 -0.9402  0.4739
  424SOL     OW 1270   1.182   2.228   2.043 -0.3664 -0.2785  0.0879
  424SOL    HW1 1271   1.136   2.321   2.026  0.8413  1.0676  0.8498
  424SOL    HW2 1272   1.145   2.171   2.126  0.7435 -0.6650  0.5819
  425SOL     OW 1273   2.001   1.310   0.971 -0.5126 -0.3742  0.2276
  425SOL    HW1 1274   2.070   1.263   1.039  0.8934 -1.2439  1.8386
  425SOL    HW2 1275   2.023   1.413   0.972  0.3456  0.2471 -2.1254
  426SOL     OW 1276   1.426   1.605   1.205  0.3694 -0.2304 -0.3128
  426SOL    HW1 1277   1.456   1.701   1.175 -0.5148  4.6240 -1.3189
  426SOL    HW2 1278   1.412   1.587   1.306 -1.1118 -1.1664 -1.6368
  427SOL     OW 1279   1.942   2.347   2.065  0.0199  0.8105 -0.5764
  427SOL    HW1 1280   1.993   2.301   2.146  0.0705 -0.1816  1.8713
  427SOL    HW2 1281   1.962   2.448   2.060  0.1922 -1.7040  1.6416
  428SOL     OW 1282   0.882   0.028   0.115 -0.5539  0.7393  0.0392
  428SOL    HW1 1283   0.890   0.104   0.047  0.7077 -0.5176 -1.5160
  428SOL    HW2 1284   0.973  -0.024   0.123  2.4521  1.5007 -2.1287
  429SOL     OW 1285   1.309   0.168   0.254  0.2111 -0.0301 -0.0697
  429SOL    HW1 1286   1.403   0.164   0.293 -0.8423  0.2672  0.8441
  429SOL    HW2 1287   1.314   0.191   0.152  0.5968  0.9363 -1.6387
  430SOL     OW 1288   2.905   1.419   0.310 -0.2558  0.1999 -0.0396
  430SOL    HW1 1289   2.862   1.463   0.225  0.7706  1.3637 -1.9509
  430SOL    HW2 1290   2.870   1.473   0.400  1.0442 -1.7814  4.2409
  431SOL     OW 1291   2.058   1.576   0.926  0.0138  0.1230 -0.3767
  431SOL    HW1 1292   2.121   1.656   0.952 -0.0567  1.4320 -0.7283
  431SOL    HW2 1293   1.981   1.607   0.865 -1.8611 -0.1505  1.1477
  432SOL     OW 1294   2.920   2.141   1.230 -0.2360  0.5023  0.1021
  432SOL    HW1 1295   2.920   2.043   1.265  0.7245 -1.9364 -3.3289
  432SOL    HW2 1296   2.984   2.207   1.277  0.1097 -1.0788  0.0611
  433SOL     OW 1297   1.861   0.192   0.823  0.0442  0.1465  0.2203
  433SOL    HW1 1298   1.797   0.246   0.880  0.9446  3.4277  0.8908
  433SOL    HW2 1299   1.853   0.088   0.843  1.1599  1.7366 -1.0625
  434SOL     OW 1300   1.551   0.325   0.653  0.0961  0.2176  0.1005
  434SOL    HW1 1301   1.529   0.410   0.604 -0.1042 -1.5805  0.2258
  434SOL    HW2 1302   1.568   0.339   0.753 -2.2772 -2.3850 -2.4846
  435SOL     OW 1303   1.530   1.420   2.071 -0.5987 -0.2073 -0.0646
  435SOL    HW1 1304   1.527   1.461   2.168  1.1264 -0.7437 -0.0913
  435SOL    HW2 1305   1.536   1.496   2.005 -0.0580  0.9895  2.7327
  436SOL     OW 1306   1.696   2.728   2.251 -0.0418  0.1972 -0.1633
  436SOL    HW1 1307   1.653   2.808   2.303  1.0681 -1.1216 -3.3909
  436SOL    HW2 1308   1.711   2.643   2.310 -0.6904 -1.1849  0.8206
  437SOL     OW 1309   1.092   2.964   0.917  0.4669 -0.1613  0.3358
  437SOL    HW1 1310   1.037   3.049   0.893 -0.6252  1.0156  0.0097
  437SOL    HW2 1311   1.085   2.929   1.013 -0.5444  0.9019  1.6825
  438SOL     OW 1312   1.004   2.673   1.455  0.5710  0.3398  0.7411
  438SOL    HW1 1313   1.111   2.682   1.457  0.2776 -4.0706 -2.2657
  438SOL    HW2 1314   0.987   2.577   1.421 -0.8326  0.2614  0.7011
  439SOL     OW 1315   0.684   1.849   1.063  0.1579 -0.1834 -0.4198
  439SOL    HW1 1316   0.680   1.948   1.027  0.6580  0.6723  2.5389
  439SOL    HW2 1317   0.590   1.805   1.068 -0.6193  1.7074  0.5311
  440SOL     OW 1318   1.092   2.479   1.986 -0.5573  0.0664  0.4025
  440SOL    HW1 1319   1.033   2.493   1.899 -0.2704  2.6711 -0.5087
  440SOL    HW2 1320   1.195   2.488   1.962 -1.2764 -1.6418 -0.1566
  441SOL     OW 1321   0.380   2.661   1.558 -0.2872 -0.4081 -0.2479
  441SOL    HW1 1322   0.470   2.616   1.537  0.1773  1.2605  1.8950
  441SOL    HW2 1323   0.328   2.681   1.468  0.5578  0.3009 -2.6440
  442SOL     OW 1324   2.263   0.691   2.554 -0.0475 -0.2449  0.0678
  442SOL    HW1 1325   2.240   0.587   2.569 -0.9457 -0.3181  1.3715
  442SOL    HW2 1326   2.189   0.757   2.585  1.8712  0.2122  0.5680
  443SOL     OW 1327   1.204   2.675   2.201  0.0996 -0.5782 -0.1485
  443SOL    HW1 1328   1.204   2.723   2.294  0.0245 -0.9366  0.6144
  443SOL    HW2 1329   1.222   2.571   2.211  1.5698 -2.2879  0.3722
  444SOL     OW 1330   0.997   1.353   1.563 -0.1510  0.5422 -0.3324
  444SOL    HW1 1331   1.101   1.345   1.544 -0.7262  0.3104  0.2352
  444SOL    HW2 1332   0.959   1.446   1.537 -0.6121  1.0304  0.1990
  445SOL     OW 1333   3.058   2.368   1.968 -0.1338 -0.5668 -0.1227
  445SOL    HW1 1334   3.077   2.458   1.914  0.2052  0.7593 -1.6323
  445SOL    HW2 1335   2.962   2.355   2.011 -0.8248 -0.3844  1.7932
  446SOL     OW 1336   0.201   1.896   2.352 -0.2405 -0.5716 -0.3451
  446SOL    HW1 1337   0.152   1.976   2.404  1.0149  0.1410  1.1044
  446SOL    HW2 1338   0.133   1.849   2.290  0.3218 -1.8945  1.7566
  447SOL     OW 1339   1.213   1.657   1.944  0.7801  0.3605 -0.4778
  447SOL    HW1 1340   1.182   1.740   1.894 -0.3343 -0.2621 -0.4643
  447SOL    HW2 1341   1.318   1.645   1.937  0.7204 -1.3531  0.5071
  448SOL     OW 1342   0.112   1.509   1.956  0.0308  0.6221  0.1536
  448SOL    HW1 1343   0.097   1.606   1.977 -1.4999  1.1101 -0.1391
  448SOL    HW2 1344   0.141   1.451   2.038 -1.1090  0.1384 -0.4756
  449SOL     OW 1345   1.997   3.021   0.851  0.1201 -0.1739 -0.4345
  449SOL    HW1 1346   2.078   3.036   0.911 -1.6515 -0.6268 -0.7778
  449SOL    HW2 1347   1.984   2.915   0.839  3.7880 -2.2883  1.1711
  450SOL     OW 1348   2.278   1.370   0.891  0.1782 -0.0766  0.2973
  450SOL    HW1 1349   2.244   1.279   0.845 -0.3872 -0.1477 -1.2830
  450SOL    HW2 1350   2.202   1.442   0.873 -4.3565 -1.0118 -0.7165
  451SOL     OW 1351   1.421   0.029   1.440 -0.4376  0.3497 -0.3053
  451SOL    HW1 1352   1.354   0.108   1.463 -0.4993  0.9488  1.0360
  451SOL    HW2 1353   1.438  -0.032   1.525  3.0355  1.2137 -1.4460
  452SOL     OW 1354   2.638   2.298   2.249  0.3969  0.6255  0.1152
  452SOL    HW1 1355   2.603   2.393   2.261 -1.0552  0.3531  3.2043
  452SOL    HW2 1356   2.672   2.256   2.341 -0.5095  0.5608 -2.3992
  453SOL     OW 1357   2.439   2.589   3.039 -0.0987  0.0593 -0.2674
  453SOL    HW1 1358   2.361   2.660   3.038  0.7915 -0.3139 -2.2853
  453SOL    HW2 1359   2.419   2.519   2.964  0.7875 -2.7917  0.9792
  454SOL     OW 1360   0.966   1.083   2.076 -0.0952 -0.0615  0.2277
  454SOL    HW1 1361   0.956   1.132   1.986  0.8935  1.5041  2.1426
  454SOL    HW2 1362   1.050   1.112   2.125  1.5570  2.5527 -2.7052
  455SOL     OW 1363   0.697   2.640   2.916 -0.4673  0.6408  0.0541
  455SOL    HW1 1364   0.746   2.714   2.972 -1.5436  0.1424 -1.2819
  455SOL    HW2 1365   0.660   2.561   2.970 -0.7907 -0.5591  1.7632
  456SOL     OW 1366   0.560   1.798   0.291 -0.4620 -0.3354 -0.0434
  456SOL    HW1 1367   0.649   1.765   0.329 -2.0992  0.1258  1.0151
  456SOL    HW2 1368   0.552   1.905   0.285  0.5543  3.2916  1.3728
  457SOL     OW 1369   0.336   2.550   0.671  0.0477 -0.8794  0.0982
  457SOL    HW1 1370   0.332   2.579   0.571 -2.3181  0.2559 -1.7162
  457SOL    HW2 1371   0.432   2.555   0.704  0.1037 -1.0267 -0.1761
  458SOL     OW 1372   2.974   2.939   1.272  0.0958  0.2349  0.5347
  458SOL    HW1 1373   2.955   3.042   1.275 -1.6621  1.5633  2.6145
  458SOL    HW2 1374   2.931   2.892   1.193 -0.5366  0.9669 -1.6826
  459SOL     OW 1375   2.122   2.530   0.912  1.2191 -0.2050 -0.5350
  459SOL    HW1 1376   2.141   2.605   0.976 -1.3089 -0.1311  0.2917
  459SOL    HW2 1377   2.208   2.510   0.857  1.7208 -0.1619  0.4048
  460SOL     OW 1378   1.069   1.913   2.921  0.0043 -0.2140  0.4206
  460SOL    HW1 1379   1.082   2.009   2.880  2.4279  1.6238 -1.4688
  460SOL    HW2 1380   1.152   1.876   2.968 -0.4439  0.2670  0.7208
  461SOL     OW 1381   0.533   2.114   2.710  0.4548  0.0269  0.3016
  461SOL    HW1 1382   0.475   2.034   2.675  1.9469  0.2347 -0.5046
  461SOL    HW2 1383   0.571   2.091   2.802 -1.6225  0.0371  0.1555
  462SOL     OW 1384   0.959   1.204   1.810  0.1056 -0.5979 -0.3315
  462SOL    HW1 1385   1.028   1.120   1.790  2.1731 -0.4967  1.1085
  462SOL    HW2 1386   0.970   1.280   1.742 -2.7700  0.6172 -2.7854
  463SOL     OW 1387   0.448   0.812   0.545 -0.0619  0.0961 -0.2436
  463SOL    HW1 1388   0.494   0.729   0.501 -1.9961 -3.3152 -1.7946
  463SOL    HW2 1389   0.346   0.798   0.559  1.2833  1.0877  0.3958
  464SOL     OW 1390   0.490   2.250   2.222 -0.0239 -0.3059  0.3138
  464SOL    HW1 1391   0.418   2.320   2.251  0.5829 -0.6267 -1.4058
  464SOL    HW2 1392   0.545   2.289   2.144 -0.5267 -0.0706  0.4294
  465SOL     OW 1393   0.258   0.870   0.886  0.9006  0.0419  0.1635
  465SOL    HW1 1394   0.165   0.898   0.853 -0.9224  0.7434  1.5097
  465SOL    HW2 1395   0.255   0.766   0.886  0.4881 -0.4701  1.0338
  466SOL     OW 1396   1.385   1.062   1.042  0.3612 -0.2852  0.3116
  466SOL    HW1 1397   1.455   1.142   1.047  0.4242 -0.1030 -0.8093
  466SOL    HW2 1398   1.289   1.094   1.060 -1.6403 -1.5221 -0.7746
  467SOL     OW 1399   0.443   0.394   2.418  0.3261 -0.0042  0.2717
  467SOL    HW1 1400   0.389   0.476   2.459 -4.0860 -0.7771  1.8793
  467SOL    HW2 1401   0.446   0.313   2.485  1.1800 -1.1690  1.3269
  468SOL     OW 1402   0.503   2.242   1.699  0.1266 -0.3507  0.1536
  468SOL    HW1 1403   0.556   2.319   1.742 -1.5290  0.7882  1.2007
  468SOL    HW2 1404   0.457   2.261   1.608 -0.4513 -0.8399 -0.7829
  469SOL     OW 1405   1.550   1.258   1.096  0.2316  0.0675 -0.2081
  469SOL    HW1 1406   1.651   1.229   1.108 -0.4456 -1.7723  2.3429
  469SOL    HW2 1407   1.539   1.349   1.150  1.4775  0.5649  0.7507
  470SOL     OW 1408   3.017   1.639   0.702 -0.3486 -0.2062 -0.1964
  470SOL    HW1 1409   3.101   1.649   0.768  1.9215  0.2856 -0.0210
  470SOL    HW2 1410   2.935   1.693   0.739 -3.0678 -1.0553 -1.6902
  471SOL     OW 1411   2.676   1.295   2.144 -0.4557 -0.2822  0.0415
  471SOL    HW1 1412   2.600   1.247   2.197 -0.1971  0.8060  0.1984
  471SOL    HW2 1413   2.717   1.373   2.193 -2.1894 -1.2893 -1.5729
  472SOL     OW 1414   1.116   2.465   0.026  0.2332  0.0026  0.2979
  472SOL    HW1 1415   1.209   2.447   0.072  1.4197 -2.8953 -1.9509
  472SOL    HW2 1416   1.048   2.391   0.050  2.1198 -0.1405  0.7343
  473SOL     OW 1417   1.055   1.593   0.842 -0.3030  0.2814 -0.2950
  473SOL    HW1 1418   0.970   1.590   0.901  0.5425 -2.5690  0.5693
  473SOL    HW2 1419   1.137   1.549   0.895  1.7238 -2.1368 -0.0060
  474SOL     OW 1420   0.804   1.207   0.752  0.1034 -0.2907  0.4527
  474SOL    HW1 1421   0.758   1.212   0.656 -0.0874  1.0603  1.4080
  474SOL    HW2 1422   0.906   1.181   0.750  1.7325  2.4809  0.6259
  475SOL     OW 1423   2.881   0.088   0.761  0.6746 -0.0550  0.1746
  475SOL    HW1 1424   2.966   0.076   0.818 -0.1852 -2.5667  1.6896
  475SOL    HW2 1425   2.791   0.095   0.811 -2.2364 -1.6359  1.9069
  476SOL     OW 1426   0.871   3.052   1.835  0.0624 -0.4261  0.2125
  476SOL    HW1 1427   0.948   2.993   1.870 -0.8919 -1.8816  0.4751
  476SOL    HW2 1428   0.857   3.045   1.733  0.1545 -0.0019  0.6821
  477SOL     OW 1429   1.442   0.363   2.427 -0.0571  0.7781  0.3199
  477SOL    HW1 1430   1.419   0.354   2.527 -0.9478 -0.8035 -0.6750
  477SOL    HW2 1431   1.538   0.331   2.404  1.2389  0.4922 -0.6055
  478SOL     OW 1432   2.274   1.814   0.264 -0.5724 -0.2807  0.9078
  478SOL    HW1 1433   2.220   1.739   0.215 -0.5214 -0.2882  0.4562
  478SOL    HW2 1434   2.375   1.784   0.279  1.8649 -0.2944 -0.6951
  479SOL     OW 1435   1.228   1.095   2.842 -0.2641 -0.1488 -0.2394
  479SOL    HW1 1436   1.329   1.093   2.812 -3.6044  2.8528 -0.7137
  479SOL    HW2 1437   1.172   1.021   2.793  0.6549 -0.4131 -0.5295
  480SOL     OW 1438   2.464   2.342   0.368  0.1109  0.0498 -0.3885
  480SOL    HW1 1439   2.402   2.298   0.443 -0.0658  1.0973  0.5172
  480SOL    HW2 1440   2.412   2.377   0.288  3.0151  1.3485 -0.1417
  481SOL     OW 1441   1.096   1.196   0.812 -0.5850  0.3512 -0.2935
  481SOL    HW1 1442   1.107   1.282   0.752  0.1515  0.6388 -0.6263
  481SOL    HW2 1443   1.116   1.220   0.912  0.8810  2.4880  0.5313
  482SOL     OW 1444   1.619   0.300   2.029 -0.0431 -0.3484  0.2086
  482SOL    HW1 1445   1.621   0.391   1.968 -1.4309  0.0167  1.1073
  482SOL    HW2 1446   1.712   0.281   2.069  0.5870  0.6310 -1.8767
  483SOL     OW 1447   0.140   2.357   1.314  0.0371  0.0835  0.1159
  483SOL    HW1 1448   0.044   2.366   1.354 -2.2089 -2.1307  1.1701
  483SOL    HW2 1449   0.152   2.388   1.213 -0.5108 -0.1670 -1.4845
  484SOL     OW 1450   1.724   0.971   1.380  0.0724 -0.4122  0.3164
  484SOL    HW1 1451   1.813   0.931   1.408 -1.0692  0.5046 -2.2014
  484SOL    HW2 1452   1.739   1.067   1.348  0.9771 -1.7641 -1.1874
  485SOL     OW 1453   0.694   1.112   1.773  0.0301 -0.0165  0.1848
  485SOL    HW1 1454   0.675   1.096   1.673 -0.4975  0.9734 -0.2948
  485SOL    HW2 1455   0.796   1.141   1.786 -1.0590 -0.9265 -0.4510
  486SOL     OW 1456   0.883   1.910   2.436 -0.1682 -0.0621 -0.6696
  486SOL    HW1 1457   0.918   1.849   2.515 -0.5649  0.6325  0.9194
  486SOL    HW2 1458   0.843   2.002   2.472 -1.9442 -0.7756 -0.0979
  487SOL     OW 1459   1.741   1.495   0.899 -0.1192 -0.1272  0.1518
  487SOL    HW1 1460   1.732   1.418   0.827  1.2774  2.3470 -1.6577
  487SOL    HW2 1461   1.772   1.585   0.852 -1.6655 -2.0540 -1.7864
  488SOL     OW 1462   2.951   0.968   2.290  0.2009 -0.3518 -0.0095
  488SOL    HW1 1463   3.005   0.925   2.208  0.3129 -0.1444 -0.5206
  488SOL    HW2 1464   2.977   0.936   2.384 -0.9661 -2.2135  0.0590
  489SOL     OW 1465   2.804   0.205   1.307 -0.1980 -0.2762  0.0699
  489SOL    HW1 1466   2.776   0.227   1.405 -0.9437 -1.3927 -0.9231
  489SOL    HW2 1467   2.904   0.191   1.299  0.1855 -0.1495 -1.9506
  490SOL     OW 1468   1.427   2.976   2.856  0.2107  0.3428 -0.2645
  490SOL    HW1 1469   1.456   2.871   2.850 -0.6296  0.5995  0.2993
  490SOL    HW2 1470   1.386   3.018   2.764 -0.2336  0.0125 -0.8434
  491SOL     OW 1471   1.910   1.553   2.664  0.3021 -0.2209 -0.2898
  491SOL    HW1 1472   1.868   1.540   2.757  0.0009 -0.3027 -0.1657
  491SOL    HW2 1473   2.009   1.563   2.677  0.9104  3.3832 -3.6829
  492SOL     OW 1474   0.474   1.943   0.733 -0.2553 -0.5454 -0.4209
  492SOL    HW1 1475   0.552   1.981   0.798  1.9561  1.9626 -1.7066
  492SOL    HW2 1476   0.405   2.017   0.713 -0.1974 -1.3314 -1.3955
  493SOL     OW 1477   0.441   1.391   2.121  0.6729  0.4665  0.1515
  493SOL    HW1 1478   0.352   1.441   2.108  1.2385  0.2280  0.5804
  493SOL    HW2 1479   0.439   1.322   2.201  1.0950 -0.7316 -0.9613
  494SOL     OW 1480   2.628   2.667   0.181 -0.1895  0.1433  0.5067
  494SOL    HW1 1481   2.670   2.580   0.217 -0.8875  1.7144 -0.9793
  494SOL    HW2 1482   2.564   2.652   0.099 -1.2930  0.6178  0.0061
  495SOL     OW 1483   2.775   2.699   2.695 -0.0462 -0.1584  0.3291
  495SOL    HW1 1484   2.777   2.602   2.650  1.2167  1.3743 -0.9620
  495SOL    HW2 1485   2.788   2.771   2.621  1.2629  1.3669 -1.3096
  496SOL     OW 1486   2.056   2.186   0.718 -0.8586 -0.0628 -0.4856
  496SOL    HW1 1487   2.042   2.163   0.815 -0.8973 -0.7706  1.2823
  496SOL    HW2 1488   2.028   2.112   0.662  2.5749  2.7234  2.2855
  497SOL     OW 1489   0.236   2.976   2.414 -0.4105  0.4080 -0.3273
  497SOL    HW1 1490   0.170   3.024   2.485  0.3293  2.8549 -0.8132
  497SOL    HW2 1491   0.274   3.037   2.335  1.5387 -1.0049 -1.7907
  498SOL     OW 1492   1.212   1.492   1.093  0.2530  0.1238 -0.6907
  498SOL    HW1 1493   1.290   1.546   1.138  0.7879 -3.2756  0.5576
  498SOL    HW2 1494   1.118   1.517   1.130 -4.2419  1.6140 -1.2860
  499SOL     OW 1495   0.851   1.840   0.507 -0.2803 -0.4031 -0.6237
  499SOL    HW1 1496   0.799   1.756   0.540 -0.4039 -1.4924  2.2898
  499SOL    HW2 1497   0.892   1.895   0.588  1.9866  0.6769  1.1645
  500SOL     OW 1498   1.445   2.987   1.668  0.4594 -0.3962 -0.5231
  500SOL    HW1 1499   1.466   3.042   1.751  0.6560 -0.4506  1.0039
  500SOL    HW2 1500   1.467   2.885   1.677  0.4971  0.4834  0.4392
  501SOL     OW 1501   0.737   1.132   2.282  0.6880 -0.0144 -0.5575
  501SOL    HW1 1502   0.683   1.048   2.306 -0.6633 -0.9860  1.6420
  501SOL    HW2 1503   0.796   1.122   2.199 -0.6099 -1.6557 -0.1287
  502SOL     OW 1504   2.611   0.960   1.727 -0.0883 -0.0624  0.2817
  502SOL    HW1 1505   2.595   0.952   1.622 -1.0189  0.8561 -0.2401
  502SOL    HW2 1506   2.556   0.878   1.773 -0.0460 -2.7877  1.7278
  503SOL     OW 1507   1.332   0.155   0.630 -0.5603 -0.7020  0.2429
  503SOL    HW1 1508   1.258   0.219   0.595  0.9102  0.5138 -0.8184
  503SOL    HW2 1509   1.424   0.199   0.633 -1.4665 -0.4422  0.5611
  504SOL     OW 1510   2.970   2.369   1.405  0.1927 -0.7211 -0.0976
  504SOL    HW1 1511   2.954   2.467   1.450  0.1147 -0.5735  0.9296
  504SOL    HW2 1512   2.909   2.299   1.451 -2.7475 -1.3387  1.7472
  505SOL     OW 1513   2.314   1.245   1.424  0.1247  0.0471 -0.2037
  505SOL    HW1 1514   2.287   1.345   1.418 -0.1322  3.0717  0.9866
  505SOL    HW2 1515   2.413   1.240   1.442 -0.7663  1.0569 -1.1098
  506SOL     OW 1516   1.908   0.234   1.773  0.0508 -0.0391 -0.7103
  506SOL    HW1 1517   1.986   0.192   1.715  1.1720  0.4212 -1.1024
  506SOL    HW2 1518   1.938   0.313   1.828  2.2858 -1.0596  0.3772
  507SOL     OW 1519   0.473   0.721   2.169 -0.3130  0.8798  0.1687
  507SOL    HW1 1520   0.392   0.720   2.103  0.2924  1.6767 -1.1319
  507SOL    HW2 1521   0.542   0.643   2.150  0.2341  0.2617  0.1620
  508SOL     OW 1522   0.174   1.677   0.820  0.6047 -0.0437 -0.2651
  508SOL    HW1 1523   0.166   1.778   0.791 -1.2030 -0.3321 -2.5647
  508SOL    HW2 1524   0.179   1.660   0.920 -2.9705  1.0256 -2.1267
  509SOL     OW 1525   1.353   1.184   2.582 -0.1175  0.3498 -0.0087
  509SOL    HW1 1526   1.299   1.251   2.533  1.6360 -0.7402  2.7639
  509SOL    HW2 1527   1.321   1.085   2.578 -0.8198 -2.0639  0.6454
  510SOL     OW 1528   1.325   1.995   2.023  0.0364 -0.2360  0.2986
  510SOL    HW1 1529   1.286   2.095   2.024 -0.5115  1.5549  2.1215
  510SOL    HW2 1530   1.265   1.938   2.077 -0.6202  0.7813 -2.0461
  511SOL     OW 1531   3.079   2.634   1.290 -0.3446 -0.0940 -0.3650
  511SOL    HW1 1532   3.008   2.597   1.223 -2.1674 -1.6467 -1.4659
  511SOL    HW2 1533   3.048   2.628   1.391  0.3965  2.0189 -0.3911
  512SOL     OW 1534   2.409   0.416   1.376  0.1232 -0.2559  0.4012
  512SOL    HW1 1535   2.310   0.436   1.369  1.2552 -3.3795 -0.8933
  512SOL    HW2 1536   2.436   0.334   1.320 -0.3933 -1.9771 -0.6624
  513SOL     OW 1537   2.508   1.981   0.820  0.4416 -0.5730 -0.3886
  513SOL    HW1 1538   2.470   2.076   0.829  0.5466 -0.6178 -0.5690
  513SOL    HW2 1539   2.574   1.978   0.739 -2.5676  0.3613 -2.3972
  514SOL     OW 1540   0.672   2.800   0.411  0.1152 -0.3633  0.2787
  514SOL    HW1 1541   0.632   2.867   0.342 -0.4311 -0.1979 -1.1497
  514SOL    HW2 1542   0.711   2.850   0.496 -0.1587  2.8087  1.5835
  515SOL     OW 1543   1.965   1.230   2.371 -0.5848  0.1055  0.5729
  515SOL    HW1 1544   1.891   1.260   2.302  1.3301  1.3067  0.3241
  515SOL    HW2 1545   1.950   1.248   2.476  1.1599  0.6732  0.2937
  516SOL     OW 1546   0.272   0.330   1.970 -0.1293  0.7444 -0.2535
  516SOL    HW1 1547   0.368   0.322   1.926  0.2471  0.7355 -0.5435
  516SOL    HW2 1548   0.204   0.276   1.922  1.9663  1.7217  1.2152
  517SOL     OW 1549   0.362   3.035   1.191 -0.0257 -0.6165  0.5977
  517SOL    HW1 1550   0.381   3.132   1.230  0.5218  1.0305  3.1055
  517SOL    HW2 1551   0.274   2.992   1.231 -0.1603  1.5561  0.2688
  518SOL     OW 1552   2.130   0.168   1.644 -0.5956  0.2793 -0.2899
  518SOL    HW1 1553   2.180   0.214   1.722 -2.3882 -2.5218 -0.9942
  518SOL    HW2 1554   2.178   0.080   1.613  2.7063  0.4807 -0.4216
  519SOL     OW 1555   2.352   2.166   2.526  0.1310  0.2498  0.2078
  519SOL    HW1 1556   2.272   2.181   2.595 -1.5193 -0.2641  0.0728
  519SOL    HW2 1557   2.400   2.260   2.516 -0.6519  0.4448  0.4289
  520SOL     OW 1558   1.771   2.856   1.819 -0.3657  0.0570  0.7913
  520SOL    HW1 1559   1.689   2.813   1.871 -0.4500 -3.6720 -1.4160
  520SOL    HW2 1560   1.853   2.791   1.831  2.9852  1.1448 -0.4774
  521SOL     OW 1561   0.571   0.143   2.171 -0.1419 -0.0822  0.3596
  521SOL    HW1 1562   0.479   0.105   2.199 -0.7219  0.8787  0.5500
  521SOL    HW2 1563   0.648   0.102   2.230  0.7544 -1.7990 -0.5892
  522SOL     OW 1564   0.235   1.907   1.560  0.2550  0.4844 -0.2977
  522SOL    HW1 1565   0.254   1.957   1.650  1.8735 -0.6070  1.4461
  522SOL    HW2 1566   0.202   1.969   1.482  0.3118  1.7264  1.2283
  523SOL     OW 1567   2.220   3.020   1.603  0.0743  0.4574 -0.3355
  523SOL    HW1 1568   2.235   2.939   1.542 -1.6739  1.7337 -2.7695
  523SOL    HW2 1569   2.131   3.016   1.660  0.4758 -0.4777  1.8738
  524SOL     OW 1570   0.230   2.760   2.814 -0.5093  0.1517 -0.4169
  524SOL    HW1 1571   0.183   2.832   2.875  1.1451  3.6830  0.7901
  524SOL    HW2 1572   0.332   2.778   2.793  1.1305  3.0343  1.2959
  525SOL     OW 1573   2.135   1.944   0.455  0.0187  0.7194 -0.6557
  525SOL    HW1 1574   2.111   1.870   0.522  0.5971  4.2891 -1.3863
  525SOL    HW2 1575   2.196   1.908   0.377  0.1459  1.1225 -2.1018
  526SOL     OW 1576   0.425   1.560   1.541  0.2323  0.2006  0.2425
  526SOL    HW1 1577   0.358   1.508   1.607  0.5813 -2.9156  0.4613
  526SOL    HW2 1578   0.515   1.507   1.526 -0.0370 -1.3090 -2.1149
  527SOL     OW 1579   1.107   2.897   1.198 -0.2859 -0.1508 -0.2273
  527SOL    HW1 1580   1.177   2.839   1.244  2.2076 -0.8950 -0.9937
  527SOL    HW2 1581   1.121   3.001   1.214  1.8329 -1.7972  0.4121
  528SOL     OW 1582   1.342   2.394   0.441 -0.3699 -0.1562 -0.2279
  528SOL    HW1 1583   1.360   2.292   0.449  0.0196  0.5208 -0.0696
  528SOL    HW2 1584   1.403   2.445   0.512  1.9754 -0.0480  0.9227
  529SOL     OW 1585   1.830   1.726   0.783  0.5107 -0.3167 -0.0740
  529SOL    HW1 1586   1.825   1.726   0.681  1.8275 -1.5049 -0.0946
  529SOL    HW2 1587   1.821   1.823   0.825 -1.3547  0.4786 -0.6706
  530SOL     OW 1588   0.350   2.460   0.259  0.0911 -0.2797 -0.2327
  530SOL    HW1 1589   0.331   2.538   0.334 -0.9209 -0.7206  1.5391
  530SOL    HW2 1590   0.399   2.375   0.294  7.2212 -2.4368 -1.2525
  531SOL     OW 1591   1.847   0.832   0.998 -0.1453  0.2025 -0.3798
  531SOL    HW1 1592   1.894   0.868   0.910 -2.2234  1.3371 -0.9521
  531SOL    HW2 1593   1.753   0.868   0.991  2.2029  0.6492 -0.4515
  532SOL     OW 1594   0.483   1.094   0.764 -0.6040  0.2791  0.2611
  532SOL    HW1 1595   0.495   1.072   0.666 -0.1436  1.2109  1.7033
  532SOL    HW2 1596   0.419   1.031   0.815  0.2479  1.7497  0.2579
  533SOL     OW 1597   1.752   0.022   2.559 -0.4923 -0.5995  0.0836
  533SOL    HW1 1598   1.850  -0.003   2.590 -1.5016  1.2534 -1.5160
  533SOL    HW2 1599   1.714   0.099   2.622 -0.5147 -0.7271  1.2405
  534SOL     OW 1600   0.401   0.201   1.557 -0.1467  0.7139 -0.1508
  534SOL    HW1 1601   0.505   0.206   1.566 -1.1064 -0.9735 -1.8703
  534SOL    HW2 1602   0.365   0.296   1.533  2.1074  0.3324  0.3642
  535SOL     OW 1603   1.942   0.341   0.160  0.0011 -0.1519 -0.1459
  535SOL    HW1 1604   1.966   0.431   0.208  0.6926  0.6872 -1.0196
  535SOL    HW2 1605   1.948   0.260   0.219 -1.1835 -1.9895 -3.4332
  536SOL     OW 1606   1.359   2.608   0.897 -0.1899 -0.1968 -0.3446
  536SOL    HW1 1607   1.330   2.587   1.000 -1.1301  1.8306  1.3580
  536SOL    HW2 1608   1.282   2.660   0.846 -0.3444  0.3715  1.1120
  537SOL     OW 1609   0.842   0.245   2.361  0.1681 -0.4111 -0.0723
  537SOL    HW1 1610   0.900   0.297   2.287 -0.9485 -2.3809 -0.5571
  537SOL    HW2 1611   0.818   0.152   2.326 -1.5691  3.8071 -0.0900
  538SOL     OW 1612   1.661   2.375   1.390  0.2557  0.4570  0.3675
  538SOL    HW1 1613   1.679   2.276   1.418  1.3810  2.1787  0.0914
  538SOL    HW2 1614   1.746   2.434   1.399 -1.0897  0.6205 -0.8262
  539SOL     OW 1615   0.178   1.614   2.678  0.4829  0.4543 -0.4401
  539SOL    HW1 1616   0.080   1.576   2.668 -0.9838  1.3594  0.0359
  539SOL    HW2 1617   0.185   1.695   2.742 -0.6885  0.0445 -1.8337
  540SOL     OW 1618   2.671   1.716   1.920  0.0665  0.2607  0.3742
  540SOL    HW1 1619   2.623   1.633   1.958  0.8059  0.7803  1.6778
  540SOL    HW2 1620   2.611   1.794   1.901  2.9339  0.9971 -2.1271
  541SOL     OW 1621   0.539   2.139   0.031 -0.2773 -0.6260  0.3861
  541SOL    HW1 1622   0.557   2.126   0.130 -0.5383  1.5346 -0.3838
  541SOL    HW2 1623   0.441   2.115   0.005  0.0251  0.1894 -0.0192
  542SOL     OW 1624   2.254   2.662   0.558  0.4544  0.1003  0.4754
  542SOL    HW1 1625   2.251   2.762   0.588 -0.9542 -0.9660  1.5981
  542SOL    HW2 1626   2.161   2.619   0.567  2.6762 -0.7440  1.2248
  543SOL     OW 1627   1.091   1.784   1.606 -0.1923 -0.1942  0.2721
  543SOL    HW1 1628   1.102   1.824   1.704 -1.1393  1.0446  0.4091
  543SOL    HW2 1629   1.054   1.847   1.537 -1.2342 -1.1708 -0.0554
  544SOL     OW 1630   1.182   0.521   0.157  0.1231 -0.3048  0.1435
  544SOL    HW1 1631   1.132   0.455   0.219 -0.0833 -1.3952 -0.0947
  544SOL    HW2 1632   1.172   0.488   0.054 -2.4616  2.4014 -1.5719
  545SOL     OW 1633   1.110   1.848   0.784 -0.0520 -0.1913  0.4450
  545SOL    HW1 1634   1.199   1.841   0.728 -0.3830  0.1153  1.1929
  545SOL    HW2 1635   1.071   1.753   0.799 -0.6997 -0.5780  0.2266
  546SOL     OW 1636   2.671   1.613   2.991 -0.1112 -0.2457  0.1063
  546SOL    HW1 1637   2.629   1.711   2.988 -1.5541  1.2841  1.7353
  546SOL    HW2 1638   2.593   1.546   3.008  0.7121  2.9483  0.3646
  547SOL     OW 1639   0.667   3.043   2.538  0.2633  0.0467  0.9957
  547SOL    HW1 1640   0.719   3.003   2.610  0.4624  0.2036  1.0973
  547SOL    HW2 1641   0.584   2.981   2.513  0.4267 -1.8285  1.3203
  548SOL     OW 1642   2.045   0.762   3.035 -0.3900  0.1894 -0.1338
  548SOL    HW1 1643   1.944   0.740   3.050  0.0019 -1.5084 -0.6277
  548SOL    HW2 1644   2.072   0.850   3.081 -0.6530 -1.3346 -1.5668
  549SOL     OW 1645   0.700   0.579   0.184  0.1300  0.3667 -0.0930
  549SOL    HW1 1646   0.636   0.640   0.129  0.9231  0.7352  0.9139
  549SOL    HW2 1647   0.797   0.623   0.181  2.1674  1.4771 -1.4046
  550SOL     OW 1648   2.575   2.779   2.869  0.4786 -0.8970  0.4272
  550SOL    HW1 1649   2.536   2.706   2.936 -0.4874 -0.4915 -0.3148
  550SOL    HW2 1650   2.622   2.734   2.787 -1.3716  0.6815  0.6155
  551SOL     OW 1651   0.257   0.874   0.248  0.4417  0.1502 -0.5609
  551SOL    HW1 1652   0.351   0.836   0.217  2.1794 -1.9381 -0.5936
  551SOL    HW2 1653   0.259   0.918   0.341 -1.1008  0.1698 -1.0302
  552SOL     OW 1654   0.624   3.039   1.964  0.6916  0.1744 -0.2861
  552SOL    HW1 1655   0.615   3.107   2.039  0.7879 -1.0404  0.0741
  552SOL    HW2 1656   0.723   3.032   1.926  0.8855 -0.2186 -1.2146
  553SOL     OW 1657   2.996   2.397   0.378  0.0269  0.3127 -0.2207
  553SOL    HW1 1658   3.005   2.297   0.383  1.8218 -0.2770  0.0380
  553SOL    HW2 1659   2.896   2.437   0.377  0.4639  1.0070 -1.2175
  554SOL     OW 1660   2.201   0.366   0.534 -0.3495 -0.0554  0.2115
  554SOL    HW1 1661   2.264   0.368   0.456 -1.4367 -1.9094  2.5228
  554SOL    HW2 1662   2.207   0.277   0.587 -0.0621  0.6680 -0.0982
  555SOL     OW 1663   0.473   2.857   2.475 -0.2198  0.1221  0.4404
  555SOL    HW1 1664   0.379   2.884   2.454  0.6436 -1.8991 -2.4373
  555SOL    HW2 1665   0.504   2.781   2.409  0.7113 -0.9634 -2.3229
  556SOL     OW 1666   0.820   2.438   1.612 -0.2010 -0.6199  0.1641
  556SOL    HW1 1667   0.869   2.518   1.650  0.5221  1.2137  0.1320
  556SOL    HW2 1668   0.880   2.389   1.539  1.5487 -0.4461  1.0465
  557SOL     OW 1669   0.270   2.096   0.269  0.2546  0.0837 -0.4172
  557SOL    HW1 1670   0.183   2.061   0.233  0.2870  2.2178 -1.9598
  557SOL    HW2 1671   0.337   2.114   0.197 -3.1442 -4.7399 -0.4648
  558SOL     OW 1672   2.838   2.129   0.400 -0.2105  0.5930 -0.1976
  558SOL    HW1 1673   2.775   2.214   0.397  1.0821  1.3045  2.2768
  558SOL    HW2 1674   2.807   2.066   0.323  4.5799 -0.7210 -1.0578
  559SOL     OW 1675   0.392   2.318   1.454 -0.1571 -0.0499  0.2230
  559SOL    HW1 1676   0.293   2.306   1.414  0.2322 -1.1377 -0.3791
  559SOL    HW2 1677   0.467   2.272   1.398  1.5112 -2.8925 -0.0857
  560SOL     OW 1678   2.139   1.010   0.003  0.5901 -0.2806  0.3164
  560SOL    HW1 1679   2.183   1.072   0.075 -0.7892 -3.2985 -0.2184
  560SOL    HW2 1680   2.199   1.002  -0.079 -1.7189  0.2805  2.7141
  561SOL     OW 1681   0.020   1.953   0.200 -0.1778  0.6690  0.1567
  561SOL    HW1 1682  -0.040   1.870   0.227 -2.2908  0.6482  1.5054
  561SOL    HW2 1683  -0.028   1.994   0.115  0.5578  0.6549 -1.6730
  562SOL     OW 1684   1.070   2.087   2.249 -0.6938  0.2093 -0.3977
  562SOL    HW1 1685   1.022   2.169   2.290 -3.0864 -0.6488  1.7694
  562SOL    HW2 1686   1.017   2.000   2.271 -0.6585  1.3157 -1.5950
  563SOL     OW 1687   0.663   2.542   2.668  0.1456  0.2949  0.1038
  563SOL    HW1 1688   0.756   2.516   2.628 -0.1273 -1.7114 -0.9382
  563SOL    HW2 1689   0.676   2.588   2.761  0.6257  0.7042  0.2825
  564SOL     OW 1690   2.850   1.411   2.873 -0.1714  0.2870 -0.2839
  564SOL    HW1 1691   2.793   1.495   2.903  1.0313  0.1585 -0.1845
  564SOL    HW2 1692   2.947   1.436   2.857  1.7342  1.5458 -1.1332
  565SOL     OW 1693   2.523   1.971   2.637 -0.5739 -0.1152  0.0113
  565SOL    HW1 1694   2.490   2.056   2.591  0.1488  1.0959 -0.5450
  565SOL    HW2 1695   2.593   1.981   2.712  0.4065  0.0916 -0.3636
  566SOL     OW 1696   1.945   2.900   1.439 -0.8620  0.3044  0.0323
  566SOL    HW1 1697   1.944   2.819   1.502 -2.0006  1.9460 -0.3647
  566SOL    HW2 1698   1.945   2.865   1.341  1.9216 -1.8740  0.1094
  567SOL     OW 1699   2.359   0.027   2.320 -0.5281  0.3214 -0.2184
  567SOL    HW1 1700   2.280   0.040   2.389 -1.9997 -2.2812 -0.6830
  567SOL    HW2 1701   2.337   0.055   2.220 -1.8190 -0.5100 -2.1764
  568SOL     OW 1702   1.506   1.727   0.242  0.2429  0.2665 -0.5353
  568SOL    HW1 1703   1.443   1.790   0.186 -1.8483  2.4548 -0.8770
  568SOL    HW2 1704   1.599   1.771   0.252  0.9408  2.1441 -0.2531
  569SOL     OW 1705   0.247   0.587   0.896  0.2687 -0.0523 -0.1198
  569SOL    HW1 1706   0.288   0.522   0.829 -1.5782  1.2114  1.2559
  569SOL    HW2 1707   0.145   0.567   0.913 -2.0095 -1.7531 -2.0258
  570SOL     OW 1708   0.640   0.857   2.903  0.4834  0.0410 -0.3198
  570SOL    HW1 1709   0.689   0.881   2.815  0.1943 -0.2671 -0.6418
  570SOL    HW2 1710   0.627   0.946   2.963  0.3560 -0.0785  0.2730
  571SOL     OW 1711   0.770   3.067   1.068  0.3456  0.1861 -0.0108
  571SOL    HW1 1712   0.817   3.110   0.988  2.0309  0.4936  0.3665
  571SOL    HW2 1713   0.812   2.973   1.083 -0.1230 -1.1650  0.7391
  572SOL     OW 1714   1.651   2.717   1.421 -0.2845  0.4784 -0.0745
  572SOL    HW1 1715   1.569   2.656   1.400 -0.6144  2.2750  0.1917
  572SOL    HW2 1716   1.645   2.812   1.386  1.3750  2.9062 -0.4788
  573SOL     OW 1717   3.046   0.490   1.920 -0.3789  0.0139 -0.0037
  573SOL    HW1 1718   2.990   0.407   1.945 -0.7507  1.9132  1.2718
  573SOL    HW2 1719   3.110   0.474   1.844 -3.6401 -1.9181  0.7095
  574SOL     OW 1720   0.129   1.661   1.102 -0.4370 -0.2418  0.0000
  574SOL    HW1 1721   0.181   1.634   1.187  1.9763  1.3438  0.5509
  574SOL    HW2 1722   0.093   1.759   1.108  0.9903  0.9461 -2.0033
  575SOL     OW 1723   0.878   2.243   0.993 -0.0753  0.2089 -0.1038
  575SOL    HW1 1724   0.849   2.295   1.077 -1.0712  2.2123  1.1393
  575SOL    HW2 1725   0.911   2.303   0.914 -0.3754 -0.7459  0.4280
  576SOL     OW 1726   2.937   2.998   1.708 -0.0181  0.0755 -0.2194
  576SOL    HW1 1727   2.838   2.991   1.677 -1.5414 -0.5828 -0.5076
  576SOL    HW2 1728   2.978   3.086   1.690 -1.0873 -3.2891 -2.1639
  577SOL     OW 1729   2.667   1.236   3.055 -0.3166  0.0123 -0.6254
  577SOL    HW1 1730   2.634   1.147   3.017  1.5012 -0.7112 -0.4926
  577SOL    HW2 1731   2.754   1.215   3.111  0.1186 -3.2549 -0.5308
  578SOL     OW 1732   1.398   2.720   2.537 -0.0681 -0.7934  0.1702
  578SOL    HW1 1733   1.306   2.765   2.524  2.1109 -0.6307  0.0304
  578SOL    HW2 1734   1.477   2.775   2.491  0.0075 -0.3840 -1.7588
  579SOL     OW 1735   0.099   2.401   0.160  0.1749 -0.4230  0.0070
  579SOL    HW1 1736   0.025   2.394   0.231  0.8567 -2.6934 -1.2041
  579SOL    HW2 1737   0.187   2.432   0.202  0.0098  1.5913  0.6369
  580SOL     OW 1738   0.938   2.674   0.410 -0.1856 -0.3104 -0.0071
  580SOL    HW1 1739   0.993   2.689   0.323  1.3097  1.3700  1.2151
  580SOL    HW2 1740   0.832   2.667   0.397 -1.0813 -1.2085  0.1422
  581SOL     OW 1741   1.279   2.735   1.470 -0.3969  0.4960  0.3391
  581SOL    HW1 1742   1.341   2.649   1.479  1.7755  1.3083  1.0448
  581SOL    HW2 1743   1.334   2.811   1.428 -0.6694  3.5647 -0.9024
  582SOL     OW 1744   1.509   0.054   1.887 -0.1194 -0.1507 -0.6583
  582SOL    HW1 1745   1.511   0.123   1.963 -1.1522 -1.6219 -0.3338
  582SOL    HW2 1746   1.578   0.080   1.813  3.5810  2.0862 -1.6082
  583SOL     OW 1747   2.437   3.003   0.497 -0.4564 -0.6392 -0.4889
  583SOL    HW1 1748   2.507   2.938   0.457 -1.9141 -2.2144  1.0849
  583SOL    HW2 1749   2.370   2.954   0.555  1.7970  0.9190 -1.5559
  584SOL     OW 1750   1.563   1.091   2.249 -0.5394 -0.4894  0.0239
  584SOL    HW1 1751   1.599   1.180   2.215 -1.2645 -0.8240 -2.1614
  584SOL    HW2 1752   1.625   1.022   2.285 -0.9900 -0.8353  0.1961
  585SOL     OW 1753   2.025   2.666   2.888  0.3532 -0.0155  0.2471
  585SOL    HW1 1754   2.054   2.577   2.847  0.6498 -0.1753 -2.3147
  585SOL    HW2 1755   1.926   2.692   2.876  0.7053 -0.5230 -1.6816
  586SOL     OW 1756   2.932   0.394   1.599 -0.5842 -0.0503 -0.3793
  586SOL    HW1 1757   2.944   0.489   1.654 -0.8581  2.7797  1.6866
  586SOL    HW2 1758   2.840   0.352   1.614  0.0451 -0.0902 -0.9218
  587SOL     OW 1759   2.176   1.467   2.766  0.2885  0.2503  0.1249
  587SOL    HW1 1760   2.169   1.412   2.681  1.5097 -0.9522  1.2860
  587SOL    HW2 1761   2.271   1.507   2.779  1.8249  0.5447  0.7485
  588SOL     OW 1762   0.494   2.624   2.287 -0.3607 -0.2654 -0.3675
  588SOL    HW1 1763   0.433   2.681   2.220 -0.8719  1.2939 -0.2712
  588SOL    HW2 1764   0.442   2.551   2.331 -0.2986  3.9219 -2.5567
  589SOL     OW 1765   2.175   1.361   2.509 -0.1242  0.3713  0.5093
  589SOL    HW1 1766   2.112   1.318   2.444 -0.8818  3.4584 -0.6153
  589SOL    HW2 1767   2.269   1.311   2.514  1.5296 -1.8409 -1.3898
  590SOL     OW 1768   2.295   1.698   2.081 -0.1259  0.1999 -0.2618
  590SOL    HW1 1769   2.374   1.634   2.056  0.6528 -0.8989 -0.4427
  590SOL    HW2 1770   2.301   1.737   2.176  3.0827 -1.3125 -1.3969
  591SOL     OW 1771   1.341   2.454   0.173  0.2156  0.0695  0.3268
  591SOL    HW1 1772   1.348   2.363   0.130 -0.0608  0.0361 -0.3048
  591SOL    HW2 1773   1.321   2.444   0.279 -0.7284 -1.1716 -1.4020
  592SOL     OW 1774   1.782   2.348   0.809  0.3861  0.1379 -0.1807
  592SOL    HW1 1775   1.790   2.404   0.724 -0.3954 -1.8930 -0.2550
  592SOL    HW2 1776   1.865   2.345   0.866 -0.4320 -0.8176  0.6024
  593SOL     OW 1777   0.745   0.291   0.206  0.0080 -0.2456 -0.5319
  593SOL    HW1 1778   0.768   0.262   0.107  0.8924 -0.0885 -0.1629
  593SOL    HW2 1779   0.711   0.388   0.215 -4.0810 -0.7872 -0.5301
  594SOL     OW 1780   1.094   1.788   2.661  0.0542 -0.1985  0.0124
  594SOL    HW1 1781   1.189   1.791   2.621 -3.4569 -0.0636  0.4492
  594SOL    HW2 1782   1.087   1.808   2.760  0.7049 -0.3439 -2.3500
  595SOL     OW 1783   1.533   0.154   0.998  0.1137 -0.1031 -0.3109
  595SOL    HW1 1784   1.602   0.085   0.969 -0.0793  2.9248  1.0120
  595SOL    HW2 1785   1.439   0.127   0.968 -0.5499  0.6889  2.3858
  596SOL     OW 1786   0.169   1.401   2.203  0.3462  0.5931 -0.5825
  596SOL    HW1 1787   0.102   1.322   2.217 -2.5377 -1.2773 -0.2044
  596SOL    HW2 1788   0.181   1.465   2.285  1.3689 -1.0938  0.0643
  597SOL     OW 1789   1.998   2.695   1.825 -0.3009 -0.0926 -0.3370
  597SOL    HW1 1790   1.958   2.670   1.734 -1.8164 -0.4180  1.5629
  597SOL    HW2 1791   2.102   2.676   1.832 -2.6901 -0.1985 -0.8688
  598SOL     OW 1792   2.481   2.829   1.295 -0.1099 -0.7339 -0.0423
  598SOL    HW1 1793   2.581   2.850   1.311  1.3515  1.6987 -3.0135
  598SOL    HW2 1794   2.467   2.755   1.226 -0.2637  0.7593 -1.6277
  599SOL     OW 1795   2.894   0.271   2.520  0.9766 -0.0489 -0.4692
  599SOL    HW1 1796   2.982   0.271   2.461  2.0114 -3.5966 -0.5778
  599SOL    HW2 1797   2.826   0.349   2.493 -2.6982 -0.2030 -1.1726
  600SOL     OW 1798   2.770   1.155   2.765 -0.1579 -0.0443 -0.3766
  600SOL    HW1 1799   2.722   1.103   2.841  1.0476 -0.8373 -0.9033
  600SOL    HW2 1800   2.800   1.249   2.802  0.7555  1.5419  1.4715
  601SOL     OW 1801   2.969   1.360   1.948  0.4843  0.3516 -0.8804
  601SOL    HW1 1802   2.869   1.374   1.911  0.1410 -0.0769  0.5502
  601SOL    HW2 1803   3.037   1.434   1.930  0.6925  1.0836  1.9685
  602SOL     OW 1804   1.554   1.547   2.315 -0.5515  0.2525  0.4978
  602SOL    HW1 1805   1.472   1.546   2.376  0.4671  0.8605  2.4949
  602SOL    HW2 1806   1.638   1.595   2.358  1.7066 -0.5809  1.8589
  603SOL     OW 1807   0.598   1.185   2.697 -0.2703 -0.6962  0.3182
  603SOL    HW1 1808   0.518   1.218   2.639  2.1448  0.2057 -3.0028
  603SOL    HW2 1809   0.640   1.099   2.656  1.4976 -1.3688 -1.1676
  604SOL     OW 1810   2.537   1.065   0.236 -0.2464 -0.1443 -0.2299
  604SOL    HW1 1811   2.630   1.114   0.232  2.3845 -1.2985  1.2345
  604SOL    HW2 1812   2.510   1.036   0.139 -0.1380 -1.2855 -0.4129
  605SOL     OW 1813   2.588   1.197   1.903  0.3409  0.0933  0.1664
  605SOL    HW1 1814   2.611   1.105   1.869  0.1229 -0.2435  1.2661
  605SOL    HW2 1815   2.643   1.224   1.984  1.7646 -0.3570 -1.3279
  606SOL     OW 1816   1.542   2.476   2.587 -0.1418 -0.1388 -0.3219
  606SOL    HW1 1817   1.467   2.545   2.573  0.7337  3.9817  2.2964
  606SOL    HW2 1818   1.509   2.378   2.571 -1.0895  1.6875  0.3518
  607SOL     OW 1819   1.271   1.575   0.273  0.5228 -0.9392  0.1625
  607SOL    HW1 1820   1.193   1.635   0.306  2.7343  1.2686  0.2656
  607SOL    HW2 1821   1.353   1.629   0.250 -0.2207 -0.2266  0.9541
  608SOL     OW 1822   1.384   2.790   0.332  0.5883 -0.4315 -0.3558
  608SOL    HW1 1823   1.453   2.820   0.262  1.1904 -2.3040  1.1673
  608SOL    HW2 1824   1.341   2.866   0.385 -0.6998 -0.0675 -0.8825
  609SOL     OW 1825   1.301   1.322   0.188 -0.0226  0.1525  0.0890
  609SOL    HW1 1826   1.281   1.420   0.225 -0.8662  2.4293  1.5756
  609SOL    HW2 1827   1.242   1.307   0.100 -0.9985  0.3182  2.5955
  610SOL     OW 1828   3.036   1.227   2.190  0.2341  0.2164 -0.7510
  610SOL    HW1 1829   2.973   1.146   2.221  1.5581  2.3847  2.4868
  610SOL    HW2 1830   2.991   1.294   2.119  1.0730  2.1237 -0.7299
  611SOL     OW 1831   2.561   0.188   1.145 -0.1120 -0.2146  0.3707
  611SOL    HW1 1832   2.505   0.105   1.160 -0.3073 -0.0124  0.1345
  611SOL    HW2 1833   2.644   0.189   1.206  0.5078  0.6915  0.5233
  612SOL     OW 1834   0.767   2.362   1.256  0.1139 -0.1205  0.3073
  612SOL    HW1 1835   0.704   2.277   1.260 -1.0549  1.8838 -2.9519
  612SOL    HW2 1836   0.719   2.453   1.236  0.9165 -0.1824  0.3953
  613SOL     OW 1837   0.775   1.378   2.390  0.1406 -0.3865  0.7687
  613SOL    HW1 1838   0.825   1.436   2.319  0.6452  1.4035  0.7278
  613SOL    HW2 1839   0.754   1.280   2.352 -0.1708 -1.8875  0.4187
  614SOL     OW 1840   1.504   1.661   1.920 -0.5366 -0.1699  0.8723
  614SOL    HW1 1841   1.487   1.715   1.831 -0.5735  0.7279  0.2554
  614SOL    HW2 1842   1.595   1.694   1.972  2.8023  1.1217  0.5230
  615SOL     OW 1843   0.713   1.475   1.708 -0.1944  0.1882 -0.2387
  615SOL    HW1 1844   0.657   1.388   1.679 -3.4214 -1.9381 -2.4620
  615SOL    HW2 1845   0.783   1.501   1.639 -1.3840 -0.9215  0.3175
  616SOL     OW 1846   1.143   1.585   2.198 -0.0494  0.5456  0.2505
  616SOL    HW1 1847   1.039   1.590   2.210  0.0406  2.0593  0.1463
  616SOL    HW2 1848   1.172   1.589   2.100  1.9226  1.8494  1.2232
  617SOL     OW 1849   2.976   1.587   1.641 -0.8340  0.0111 -0.1398
  617SOL    HW1 1850   2.903   1.543   1.697 -0.6512  1.8197 -0.3650
  617SOL    HW2 1851   3.024   1.522   1.577 -1.1517  0.1525 -0.9328
  618SOL     OW 1852   1.920   2.000   1.458  0.3062 -0.1300 -0.1002
  618SOL    HW1 1853   2.002   1.998   1.394  1.8509  0.5014 -0.3024
  618SOL    HW2 1854   1.902   1.910   1.500  1.0298  1.6076 -1.2531
  619SOL     OW 1855   1.780   0.543   2.360  0.2643  0.0477  0.3148
  619SOL    HW1 1856   1.704   0.585   2.298 -3.1390 -2.2345 -1.1004
  619SOL    HW2 1857   1.761   0.450   2.397  0.5886 -0.2957 -0.5884
  620SOL     OW 1858   2.220   2.898   0.672  0.1064  0.0913  0.1188
  620SOL    HW1 1859   2.134   2.952   0.659 -2.5533 -0.0942 -0.0878
  620SOL    HW2 1860   2.259   2.910   0.767 -0.3346 -0.9383  0.4014
  621SOL     OW 1861   2.149   1.888   1.354 -0.5784 -0.4023  0.4513
  621SOL    HW1 1862   2.155   1.877   1.457  0.9976  0.2127 -3.4049
  621SOL    HW2 1863   2.138   1.801   1.297 -0.3548  2.2250 -1.3616
  622SOL     OW 1864   2.234   0.991   1.850  0.4681 -0.5623 -0.1598
  622SOL    HW1 1865   2.287   0.900   1.841  0.3088 -1.6417  0.1019
  622SOL    HW2 1866   2.134   0.981   1.878 -3.0555  3.3699  2.2236
  623SOL     OW 1867   1.278   0.928   2.570 -0.5495  0.0659  0.1444
  623SOL    HW1 1868   1.213   0.874   2.629 -1.3803 -3.2441 -1.7622
  623SOL    HW2 1869   1.236   0.919   2.476 -1.3883  0.2714  1.2305
  624SOL     OW 1870   0.543   0.690   3.096 -0.0243 -0.1153 -0.5705
  624SOL    HW1 1871   0.593   0.736   3.012  2.2611  0.3037 -3.8450
  624SOL    HW2 1872   0.505   0.765   3.160 -6.8924  0.3951  2.9085
  625SOL     OW 1873   2.783   1.738   0.802  0.1094  0.1455  0.5201
  625SOL    HW1 1874   2.765   1.753   0.904 -0.8071 -0.4582  1.4838
  625SOL    HW2 1875   2.708   1.693   0.745  2.5029  2.3421 -3.1709
  626SOL     OW 1876   0.392   2.794   2.064 -0.3767  0.2654  0.3878
  626SOL    HW1 1877   0.429   2.892   2.061  1.2071  0.1863  0.1173
  626SOL    HW2 1878   0.311   2.775   1.997 -1.9908  0.7915  0.7926
  627SOL     OW 1879   0.707   1.028   1.495 -0.3022 -0.1490  0.3360
  627SOL    HW1 1880   0.735   0.932   1.516 -0.3678 -0.7838 -0.7525
  627SOL    HW2 1881   0.785   1.093   1.456  2.9881  0.3550 -2.1455
  628SOL     OW 1882   2.449   0.135   0.682  0.2129 -0.1473 -0.3920
  628SOL    HW1 1883   2.458   0.048   0.621  2.1495 -3.4900 -0.7110
  628SOL    HW2 1884   2.351   0.137   0.720 -0.1244 -1.0537 -0.4151
  629SOL     OW 1885   1.975   0.966   1.953  0.1447  0.5000  0.0464
  629SOL    HW1 1886   2.022   0.961   2.043 -1.0133 -0.7230 -0.3862
  629SOL    HW2 1887   1.922   1.055   1.934  1.5238 -0.0979 -0.1504
  630SOL     OW 1888   2.839   2.201   0.765  0.2683 -0.0197  0.4844
  630SOL    HW1 1889   2.760   2.260   0.803 -1.9307  1.3257 -0.0058
  630SOL    HW2 1890   2.808   2.122   0.714 -0.4319  1.1367  0.6132
  631SOL     OW 1891   2.999   0.176   2.136  0.4052 -0.9012 -0.3570
  631SOL    HW1 1892   3.028   0.235   2.219 -3.4372  0.8078 -3.0418
  631SOL    HW2 1893   3.067   0.176   2.056 -0.6112  0.1088  1.4123
  632SOL     OW 1894   2.379   2.524   0.767  0.2783 -0.1083  0.0497
  632SOL    HW1 1895   2.469   2.542   0.809 -1.1107  1.5584 -1.4456
  632SOL    HW2 1896   2.347   2.591   0.688 -1.6803  3.3920  3.3251
  633SOL     OW 1897   1.588   1.272   2.697 -0.2717 -0.5644  0.1843
  633SOL    HW1 1898   1.573   1.362   2.747  3.0135 -0.4036  0.2653
  633SOL    HW2 1899   1.505   1.239   2.646  0.9033  0.3305 -1.1441
  634SOL     OW 1900   0.642   2.075   0.900  0.2322 -0.1829 -0.1270
  634SOL    HW1 1901   0.571   2.110   0.964 -0.6423 -3.5383 -1.3978
  634SOL    HW2 1902   0.717   2.147   0.871  0.3047  0.1957  0.9731
  635SOL     OW 1903   0.070   2.245   3.044 -0.3942  0.1587  0.7235
  635SOL    HW1 1904  -0.003   2.290   2.991  1.7504  0.0516 -2.4684
  635SOL    HW2 1905   0.089   2.300   3.127 -1.2072  2.0643 -2.6985
  636SOL     OW 1906   2.336   2.864   2.018  0.1456 -0.5846  0.1925
  636SOL    HW1 1907   2.304   2.960   1.992 -1.2349 -0.9196 -1.4833
  636SOL    HW2 1908   2.293   2.838   2.105  0.3938  2.1896 -3.1491
  637SOL     OW 1909   2.587   0.719   2.072 -0.6376 -0.0554  0.2345
  637SOL    HW1 1910   2.580   0.688   1.970  1.5288 -1.3445 -0.9495
  637SOL    HW2 1911   2.632   0.815   2.077  0.4768  2.7523 -1.0769
  638SOL     OW 1912   2.412   1.895   1.433 -0.8213 -0.1945 -0.0692
  638SOL    HW1 1913   2.319   1.880   1.406 -0.1132 -0.8390  1.9414
  638SOL    HW2 1914   2.459   1.800   1.441  0.7178  0.9059  0.4653
  639SOL     OW 1915   1.290   2.237   1.560 -0.0706 -0.0032  0.4084
  639SOL    HW1 1916   1.283   2.150   1.504  0.1855 -1.3081  0.1767
  639SOL    HW2 1917   1.220   2.232   1.639  0.7421  0.2077  0.3971
  640SOL     OW 1918   0.245   1.206   1.532  1.1508 -0.6406  0.9611
  640SOL    HW1 1919   0.257   1.277   1.604 -0.6264 -0.2611  1.2769
  640SOL    HW2 1920   0.330   1.155   1.502 -0.1594  2.0994 -0.8470
  641SOL     OW 1921   1.880   0.259   1.427 -0.3476  0.2977  0.2247
  641SOL    HW1 1922   1.802   0.317   1.462  0.1063 -0.7296 -0.5936
  641SOL    HW2 1923   1.942   0.221   1.508 -1.8052  0.1428  1.8270
  642SOL     OW 1924   2.003   0.106   0.327 -0.4663  0.1120  0.0113
  642SOL    HW1 1925   2.106   0.125   0.328  0.2608  2.0114 -2.1709
  642SOL    HW2 1926   1.971   0.081   0.423 -0.0697  0.0633 -2.5808
  643SOL     OW 1927   2.803   1.885   2.131 -0.1891 -0.1173 -0.3834
  643SOL    HW1 1928   2.762   1.816   2.064 -0.6402  0.5530 -2.8168
  643SOL    HW2 1929   2.837   1.969   2.082 -0.6058  0.6652 -1.4457
  644SOL     OW 1930   2.194   2.272   1.232  0.1946  0.3382 -0.0795
  644SOL    HW1 1931   2.285   2.231   1.195  0.5859 -2.0160 -0.3617
  644SOL    HW2 1932   2.198   2.291   1.335  2.2811 -0.3995  3.2945
  645SOL     OW 1933   0.684   0.832   1.100 -0.5828 -0.1999 -0.6319
  645SOL    HW1 1934   0.604   0.766   1.085  2.0437 -3.3785 -3.9511
  645SOL    HW2 1935   0.673   0.931   1.072  0.0895  0.7451 -0.7317
  646SOL     OW 1936   1.449   1.893   1.797  0.0990 -0.5267  0.2208
  646SOL    HW1 1937   1.537   1.948   1.790  0.0233  0.9371  0.5991
  646SOL    HW2 1938   1.381   1.928   1.872  1.2373  2.6476  1.4387
  647SOL     OW 1939   0.900   0.930   0.692  0.1770 -0.0088 -0.3693
  647SOL    HW1 1940   0.969   0.925   0.767 -2.6900  0.1130  0.8558
  647SOL    HW2 1941   0.801   0.929   0.724 -1.0909  0.4210  2.1493
  648SOL     OW 1942   0.096   0.249   0.327 -0.8306 -0.1859  0.4577
  648SOL    HW1 1943   0.030   0.171   0.321  0.7486  0.0217 -2.1756
  648SOL    HW2 1944   0.074   0.324   0.247 -1.3248 -0.0955 -2.1072
  649SOL     OW 1945   0.004   0.012   0.949  0.2400  0.2474 -0.1352
  649SOL    HW1 1946   0.105   0.012   0.931 -1.9706 -2.2251 -3.6098
  649SOL    HW2 1947  -0.015   0.064   1.038  1.0971  0.2095  1.1086
  650SOL     OW 1948   2.730   0.717   1.447  0.2761  0.0416  0.4615
  650SOL    HW1 1949   2.635   0.693   1.479  0.9881 -3.0155 -1.8433
  650SOL    HW2 1950   2.745   0.806   1.399  0.4284 -1.1521 -0.6915
  651SOL     OW 1951   0.907   1.606   1.516 -0.4804  0.5561 -0.4155
  651SOL    HW1 1952   0.960   1.689   1.557  0.4552  0.3501 -0.2819
  651SOL    HW2 1953   0.822   1.638   1.462 -4.6861  2.2426 -1.1716
  652SOL     OW 1954   2.309   2.503   2.383  1.0284 -0.0326 -0.1710
  652SOL    HW1 1955   2.212   2.489   2.426 -1.4156 -1.2524  1.0902
  652SOL    HW2 1956   2.327   2.591   2.341 -1.3319 -2.5752 -0.7779
  653SOL     OW 1957   2.795   1.166   0.255  0.4382 -0.1509 -0.4975
  653SOL    HW1 1958   2.864   1.244   0.248 -2.0417 -0.9709 -1.8440
  653SOL    HW2 1959   2.833   1.078   0.287 -0.0305 -0.5792  0.3985
  654SOL     OW 1960   1.185   2.220   1.226 -0.2163  0.3796  0.3550
  654SOL    HW1 1961   1.233   2.159   1.297  0.5325 -0.8993 -2.9567
  654SOL    HW2 1962   1.228   2.216   1.131 -1.0271 -0.0024 -0.0013
  655SOL     OW 1963   0.229   1.071   1.902 -0.3503 -0.3368  0.5223
  655SOL    HW1 1964   0.252   0.991   1.838 -1.0063  2.3529  2.8254
  655SOL    HW2 1965   0.302   1.140   1.910 -3.2547  0.0415 -0.8805
  656SOL     OW 1966   2.463   2.417   2.564 -0.4569 -0.5898 -0.2579
  656SOL    HW1 1967   2.544   2.480   2.575  2.0767  1.5792 -0.6093
  656SOL    HW2 1968   2.395   2.456   2.490 -1.5001  0.3006 -1.8462
  657SOL     OW 1969   3.066   1.103   1.879  0.2255  0.0547  0.2295
  657SOL    HW1 1970   3.027   1.181   1.933  0.2624  0.4125 -0.1188
  657SOL    HW2 1971   3.169   1.086   1.897  1.0100  1.7449 -0.9183
  658SOL     OW 1972   1.692   0.234   2.370 -0.1674  0.2055  0.1572
  658SOL    HW1 1973   1.706   0.149   2.431  1.4922  1.6174 -1.7879
  658SOL    HW2 1974   1.755   0.243   2.291  3.2948 -1.6907 -0.2122
  659SOL     OW 1975   1.408   0.628   2.836  0.0223 -0.1229 -0.3402
  659SOL    HW1 1976   1.493   0.673   2.877  0.7917  0.5810 -0.8931
  659SOL    HW2 1977   1.345   0.693   2.785  1.6122  0.7291 -0.2739
  660SOL     OW 1978   1.386   0.436   1.380 -0.0283 -0.0617  0.7094
  660SOL    HW1 1979   1.410   0.442   1.477 -3.7556  0.5159  1.1993
  660SOL    HW2 1980   1.448   0.367   1.328 -0.9820 -1.3715  2.0572
  661SOL     OW 1981   2.466   1.130   0.668 -0.0109 -0.1791  0.2895
  661SOL    HW1 1982   2.505   1.060   0.600 -0.3914  0.0031 -1.6806
  661SOL    HW2 1983   2.384   1.178   0.630 -1.2601  0.4651  1.4541
  662SOL     OW 1984   1.271   0.450   1.830 -0.1926  0.1032  0.3228
  662SOL    HW1 1985   1.255   0.349   1.835 -2.9664  2.0487  3.3297
  662SOL    HW2 1986   1.242   0.487   1.917  0.4577 -1.2994 -1.4225
  663SOL     OW 1987   0.841   1.573   2.206  0.1928  0.4757  0.2919
  663SOL    HW1 1988   0.807   1.669   2.219  0.5735  1.3829 -1.0884
  663SOL    HW2 1989   0.794   1.542   2.123  2.4602  0.1003  2.7463
  664SOL     OW 1990   1.650   2.074   1.385 -0.3521 -0.3647 -0.1743
  664SOL    HW1 1991   1.601   2.007   1.446  0.7269  0.8714  1.3110
  664SOL    HW2 1992   1.755   2.065   1.395  0.8737  0.3446  0.0868
  665SOL     OW 1993   2.314   0.613   1.996  0.1179  0.5981 -0.3141
  665SOL    HW1 1994   2.332   0.521   2.045 -1.1027 -2.5173  3.0723
  665SOL    HW2 1995   2.242   0.666   2.048 -1.6241  0.0677  1.4754
  666SOL     OW 1996   0.460   2.262   0.464 -0.2175  0.0881 -0.2385
  666SOL    HW1 1997   0.508   2.353   0.467 -1.3618  0.9836  2.0956
  666SOL    HW2 1998   0.410   2.242   0.557 -2.0070 -1.8470  0.2028
  667SOL     OW 1999   2.089   0.203   1.010 -0.3113 -1.0587  0.4685
  667SOL    HW1 2000   2.163   0.276   1.025  1.3715  1.1453 -1.8043
  667SOL    HW2 2001   1.997   0.231   1.043  2.6121  0.9165  2.2069
  668SOL     OW 2002   2.023   0.642   1.270  0.5124  0.4624  0.1987
  668SOL    HW1 2003   2.071   0.581   1.200 -1.2657 -2.4930 -0.1431
  668SOL    HW2 2004   2.029   0.607   1.364  1.3271  3.1979 -1.2629
  669SOL     OW 2005   3.012   2.111   0.957 -0.0709  0.6983  0.0563
  669SOL    HW1 2006   2.955   2.137   0.871 -0.1679  1.3636 -2.4745
  669SOL    HW2 2007   2.978   2.152   1.052 -3.3356  3.9245  1.7576
  670SOL     OW 2008   2.793   2.329   2.005  0.5519  0.2929 -0.4002
  670SOL    HW1 2009   2.744   2.304   2.095  0.4732 -0.0884  1.0971
  670SOL    HW2 2010   2.760   2.417   1.966 -0.7335 -0.4203 -0.0257
  671SOL     OW 2011   1.653   1.713   1.477  0.0623  0.4542  0.1260
  671SOL    HW1 2012   1.692   1.694   1.383 -0.8807  1.6760  0.4758
  671SOL    HW2 2013   1.566   1.764   1.479  4.4631 -1.1970  0.5464
  672SOL     OW 2014   0.385   0.661   2.445  0.0216  0.2879  0.2831
  672SOL    HW1 2015   0.407   0.658   2.342 -1.2691 -1.1629  0.4942
  672SOL    HW2 2016   0.304   0.720   2.458  0.5307  1.5842  0.0058
  673SOL     OW 2017   0.142   1.248   1.073 -0.0555  0.1483 -0.3783
  673SOL    HW1 2018   0.140   1.297   1.164  0.1199  0.5534 -0.0351
  673SOL    HW2 2019   0.232   1.206   1.052  2.5444  1.6564 -0.7755
  674SOL     OW 2020   1.564   2.899   0.147  0.5934  0.4916  0.1615
  674SOL    HW1 2021   1.585   2.997   0.119 -0.9239 -1.1761 -2.8644
  674SOL    HW2 2022   1.634   2.833   0.105  0.3188 -2.3342 -2.5389
  675SOL     OW 2023   1.717   0.895   2.355 -0.1117  0.2270 -0.7732
  675SOL    HW1 2024   1.818   0.898   2.373 -0.4501 -0.3903 -2.0936
  675SOL    HW2 2025   1.691   0.821   2.286  1.8024  0.9297  1.2544
  676SOL     OW 2026   2.512   1.519   2.030  0.5798  0.0645  0.0229
  676SOL    HW1 2027   2.489   1.467   1.941 -0.8983  0.8094 -2.3781
  676SOL    HW2 2028   2.581   1.467   2.083  0.6379  0.1289 -1.6163
  677SOL     OW 2029   1.907   0.551   0.903  0.8258 -0.2796 -0.0393
  677SOL    HW1 2030   1.888   0.630   0.967  1.0855  0.6101 -4.5070
  677SOL    HW2 2031   1.854   0.463   0.929  0.6269 -0.3473  0.6432
  678SOL     OW 2032   0.088   0.798   1.652 -0.3006 -0.5153 -0.5058
  678SOL    HW1 2033   0.186   0.825   1.681  0.5465 -0.4015  0.6666
  678SOL    HW2 2034   0.019   0.807   1.728 -0.1182 -3.4249  1.6086
  679SOL     OW 2035   2.459   1.205   1.159 -0.3093  0.0656  0.2006
  679SOL    HW1 2036   2.366   1.205   1.210 -2.4700  0.1350 -1.8842
  679SOL    HW2 2037   2.485   1.109   1.120  0.0254 -2.3375  0.8079
  680SOL     OW 2038   2.878   0.643   1.700 -0.1194  0.0110  0.2146
  680SOL    HW1 2039   2.849   0.679   1.607  2.1866 -1.5945 -1.4668
  680SOL    HW2 2040   2.904   0.721   1.769  2.0361  0.0371  0.0226
  681SOL     OW 2041   3.074   0.142   1.643 -0.0597  0.0560  0.3744
  681SOL    HW1 2042   3.148   0.114   1.578 -1.8780 -1.1718  0.3489
  681SOL    HW2 2043   3.044   0.242   1.631 -0.6397  1.1577  0.6584
  682SOL     OW 2044   0.722   3.088   1.348 -0.1984  0.1152 -0.5827
  682SOL    HW1 2045   0.667   3.001   1.384 -0.5609 -1.9400 -1.2749
  682SOL    HW2 2046   0.717   3.086   1.241  0.1507 -0.7515 -1.0750
  683SOL     OW 2047   1.399   0.233   2.177  0.3645 -0.2139 -0.0199
  683SOL    HW1 2048   1.391   0.286   2.268  1.1148  1.3305  1.1354
  683SOL    HW2 2049   1.480   0.261   2.120  1.0347 -0.6918 -0.0273
  684SOL     OW 2050   1.452   2.130   0.479 -0.2074  0.1175  0.0773
  684SOL    HW1 2051   1.506   2.062   0.538 -0.6587  0.5813  1.8654
  684SOL    HW2 2052   1.379   2.083   0.423  0.2451 -0.1078  0.4837
  685SOL     OW 2053   2.155   1.944   1.960  0.5779 -0.4193  0.4940
  685SOL    HW1 2054   2.201   2.012   1.897 -0.1241  0.0412  2.1549
  685SOL    HW2 2055   2.214   1.864   1.991 -0.2718  0.6952 -0.2025
  686SOL     OW 2056   1.530   1.717   2.768  0.0833 -0.8022  0.2813
  686SOL    HW1 2057   1.526   1.614   2.772  0.3107  3.0507 -0.4926
  686SOL    HW2 2058   1.543   1.758   2.862  2.3543 -0.4888 -0.0832
  687SOL     OW 2059   1.347   2.498   1.896  0.2807 -0.3157 -0.0932
  687SOL    HW1 2060   1.405   2.443   1.836  0.0951 -0.0190 -0.1661
  687SOL    HW2 2061   1.385   2.499   1.993  0.6652  1.9285  0.2954
  688SOL     OW 2062   2.076   1.507   1.591  0.4119  0.0017 -0.2714
  688SOL    HW1 2063   2.171   1.544   1.574 -0.0920  1.0538 -0.6448
  688SOL    HW2 2064   2.023   1.475   1.505  3.0740 -1.7622  0.9483
  689SOL     OW 2065   2.433   1.059   2.700  0.0061 -0.1321  0.2344
  689SOL    HW1 2066   2.366   1.022   2.768  4.8515 -1.9120  0.4871
  689SOL    HW2 2067   2.520   1.086   2.746  0.1998 -0.1160  0.3261
  690SOL     OW 2068   2.224   2.767   3.059  0.0216  0.4747 -0.3156
  690SOL    HW1 2069   2.134   2.739   3.012  2.7989 -2.6613  1.0297
  690SOL    HW2 2070   2.207   2.833   3.134  1.0722 -1.1504 -0.3404
  691SOL     OW 2071   2.581   0.456   2.180 -0.1837 -0.2902  0.4174
  691SOL    HW1 2072   2.638   0.397   2.113  0.5794  0.8526 -1.0421
  691SOL    HW2 2073   2.563   0.552   2.140  1.7362  0.5067  0.0439
  692SOL     OW 2074   2.732   1.251   0.669 -0.6949  0.2351 -0.4011
  692SOL    HW1 2075   2.643   1.226   0.716  0.8147  1.9580 -0.3176
  692SOL    HW2 2076   2.776   1.336   0.720  0.7449  0.6582  0.8580
  693SOL     OW 2077   2.835   2.930   0.613 -0.4015  0.4038  0.2353
  693SOL    HW1 2078   2.861   3.021   0.663 -1.9465  1.0682  0.8461
  693SOL    HW2 2079   2.777   2.949   0.527 -0.2541  1.7004  0.8771
  694SOL     OW 2080   2.384   2.134   0.073  0.3368  0.4545  0.0363
  694SOL    HW1 2081   2.366   2.239   0.094  1.7720  4.4633 -1.6192
  694SOL    HW2 2082   2.302   2.078   0.083 -0.0744  0.0808 -1.8681
  695SOL     OW 2083   0.552   2.904   1.475 -0.0149 -0.0032  0.1577
  695SOL    HW1 2084   0.492   2.814   1.470 -0.2368  0.3055  1.2962
  695SOL    HW2 2085   0.537   2.952   1.568  0.9271  0.3031  0.8109
  696SOL     OW 2086   2.728   1.974   0.639  0.0425  0.5968  0.1213
  696SOL    HW1 2087   2.774   1.899   0.697 -0.1529 -1.2840  2.2746
  696SOL    HW2 2088   2.659   1.934   0.574 -1.0687 -0.8931 -0.0127
  697SOL     OW 2089   1.669   2.051   1.717 -0.1552 -0.5111 -0.0168
  697SOL    HW1 2090   1.756   2.030   1.771  1.1476  0.4025 -1.9589
  697SOL    HW2 2091   1.690   2.122   1.644  0.3346 -0.5604  1.6351
  698SOL     OW 2092   2.922   0.316   2.795  0.1845 -0.0228  0.6177
  698SOL    HW1 2093   2.928   0.267   2.710 -0.6049  2.9495  1.4524
  698SOL    HW2 2094   2.996   0.292   2.864  0.3381  3.2648  0.2867
  699SOL     OW 2095   1.523   0.104   2.928 -0.0743 -0.0318 -0.0932
  699SOL    HW1 2096   1.482   0.009   2.903 -0.8523  0.9338 -1.3846
  699SOL    HW2 2097   1.581   0.141   2.850  0.6129 -1.5004  1.2479
  700SOL     OW 2098   0.989   2.390   1.397  0.4495  0.6078 -0.6110
  700SOL    HW1 2099   1.078   2.351   1.371 -1.5910  1.3688  1.6379
  700SOL    HW2 2100   0.907   2.374   1.330 -0.6142  1.5186 -2.0540
  701SOL     OW 2101   1.862   2.804   0.025 -0.3015  0.0889  0.1900
  701SOL    HW1 2102   1.869   2.749   0.112  0.0233 -2.0891 -0.6872
  701SOL    HW2 2103   1.885   2.907   0.036  0.1238 -0.3880  2.4277
  702SOL     OW 2104   2.080   1.369   1.823  0.5230 -0.3084 -0.3125
  702SOL    HW1 2105   2.170   1.345   1.862 -1.9008  0.1018 -0.8702
  702SOL    HW2 2106   2.091   1.425   1.730 -2.5693  2.1842 -1.3310
  703SOL     OW 2107   1.994   0.870   1.472 -0.4113  0.3013  0.3788
  703SOL    HW1 2108   1.986   0.776   1.508  0.2701  0.0961  0.2604
  703SOL    HW2 2109   2.058   0.929   1.531 -0.9537  2.4432 -1.1955
  704SOL     OW 2110   0.272   2.062   1.784 -0.5154  0.3082  0.0148
  704SOL    HW1 2111   0.324   2.010   1.856  1.9597 -1.9870 -0.3800
  704SOL    HW2 2112   0.335   2.145   1.757 -0.6329  2.2079 -1.0460
  705SOL     OW 2113   2.545   1.406   0.849  0.3975 -0.2759  0.1569
  705SOL    HW1 2114   2.440   1.407   0.866  1.7862  1.0965 -0.3480
  705SOL    HW2 2115   2.601   1.386   0.932 -1.6655  1.3994  1.5499
  706SOL     OW 2116   0.630   1.758   1.886 -0.0432 -0.4274 -0.4878
  706SOL    HW1 2117   0.630   1.650   1.908  0.0200 -0.7892 -1.2842
  706SOL    HW2 2118   0.717   1.798   1.923 -1.5746 -0.2796 -0.2566
  707SOL     OW 2119   2.324   1.251   1.930  0.0664 -0.1069 -0.6929
  707SOL    HW1 2120   2.421   1.231   1.952 -1.9634 -0.1295 -1.0455
  707SOL    HW2 2121   2.273   1.163   1.907  0.3327  0.6359 -1.4798
  708SOL     OW 2122   3.058   0.527   3.032  0.0627 -0.0351 -0.3050
  708SOL    HW1 2123   3.125   0.580   2.965 -2.1559  2.1872 -2.4435
  708SOL    HW2 2124   3.051   0.420   3.009 -0.2846 -0.1341  0.4321
  709SOL     OW 2125   1.761   1.863   0.240 -0.1780 -0.4898 -0.8644
  709SOL    HW1 2126   1.779   1.952   0.290  0.0902  2.5668 -1.3241
  709SOL    HW2 2127   1.816   1.853   0.150 -0.4035  0.3111  0.3492
  710SOL     OW 2128   1.768   1.664   2.438 -0.0001 -0.1192 -0.5639
  710SOL    HW1 2129   1.806   1.633   2.347 -0.6208 -2.8155  4.8921
  710SOL    HW2 2130   1.802   1.610   2.519 -2.0081  0.8854 -1.0279
  711SOL     OW 2131   2.609   2.915   0.966  0.3708 -0.4894  0.1704
  711SOL    HW1 2132   2.617   3.015   0.941 -1.1002 -2.0486 -1.3438
  711SOL    HW2 2133   2.698   2.872   0.997 -1.4613  0.5211 -2.6747
  712SOL     OW 2134   1.496   2.296   1.777  0.0249  0.0258 -0.4548
  712SOL    HW1 2135   1.558   2.214   1.795 -1.4204 -0.9075 -1.2222
  712SOL    HW2 2136   1.419   2.281   1.712  0.7483  0.6982  0.1667
  713SOL     OW 2137   2.849   1.348   2.479  0.6440 -0.5158  0.4569
  713SOL    HW1 2138   2.859   1.250   2.451  2.3523  0.4743  0.1707
  713SOL    HW2 2139   2.749   1.378   2.512 -1.0064 -0.7335 -0.4566
  714SOL     OW 2140   2.689   0.434   2.435 -0.5523  0.1212 -0.4233
  714SOL    HW1 2141   2.603   0.397   2.482 -1.0391 -0.9032 -2.0648
  714SOL    HW2 2142   2.668   0.458   2.334  0.7083 -2.7084 -1.8046
  715SOL     OW 2143   1.643   2.136   1.102  0.1554 -0.3086 -0.2181
  715SOL    HW1 2144   1.551   2.182   1.081 -0.5660  0.4989  1.7030
  715SOL    HW2 2145   1.653   2.127   1.205 -1.2595 -0.9198 -0.0009
  716SOL     OW 2146   1.222   0.207   1.455 -0.3169 -0.4061 -0.2834
  716SOL    HW1 2147   1.122   0.216   1.426 -1.0318  2.2231 -1.2420
  716SOL    HW2 2148   1.275   0.298   1.439  2.0151  0.7327  2.6411
  717SOL     OW 2149   1.050   0.613   1.588  0.3748 -0.0913  0.2364
  717SOL    HW1 2150   1.139   0.667   1.592  0.4845 -0.1385 -2.1834
  717SOL    HW2 2151   1.044   0.565   1.498 -1.8633  0.2178 -0.2451
  718SOL     OW 2152   0.651   1.085   1.002  0.1297  0.1606  0.2144
  718SOL    HW1 2153   0.645   1.085   0.902 -0.8816  0.7546  0.5174
  718SOL    HW2 2154   0.746   1.091   1.036  0.7218  1.3663 -0.7307
  719SOL     OW 2155   0.734   1.813   2.233 -0.6244 -0.3334 -0.1689
  719SOL    HW1 2156   0.793   1.849   2.312  2.7685  2.0415  0.9244
  719SOL    HW2 2157   0.631   1.808   2.244  1.3949 -0.2600  1.6360
  720SOL     OW 2158   2.263   1.138   0.217  0.0272 -0.1324 -0.0529
  720SOL    HW1 2159   2.365   1.112   0.233  0.4010  0.1530  2.0418
  720SOL    HW2 2160   2.215   1.122   0.312  0.3889  3.2816  2.1362
  721SOL     OW 2161   2.237   0.022   2.009  0.0819  0.0484 -0.4406
  721SOL    HW1 2162   2.245   0.102   1.941 -0.6811 -1.0320 -1.1763
  721SOL    HW2 2163   2.146   0.012   2.059  2.1322 -1.1087  1.7636
  722SOL     OW 2164   2.378   1.648   0.502  0.5952 -0.3188  0.0252
  722SOL    HW1 2165   2.382   1.570   0.441  0.6654  1.1516 -0.2426
  722SOL    HW2 2166   2.282   1.678   0.524  1.8501  1.2002 -0.0186
  723SOL     OW 2167   2.567   2.854   1.903  0.5952  0.1033  0.3178
  723SOL    HW1 2168   2.637   2.872   1.979 -0.1203  0.7657 -1.7363
  723SOL    HW2 2169   2.467   2.839   1.936 -2.3283  0.1171 -0.8279
  724SOL     OW 2170   0.326   2.424   2.361 -0.7791 -0.1276 -0.5370
  724SOL    HW1 2171   0.231   2.470   2.369  0.5840 -0.5280  2.1327
  724SOL    HW2 2172   0.359   2.389   2.450 -2.5983  1.2571 -0.7879
  725SOL     OW 2173   2.266   2.780   1.469  0.3435  0.1781  0.2250
  725SOL    HW1 2174   2.352   2.814   1.423  0.4675 -1.9958  2.5580
  725SOL    HW2 2175   2.291   2.689   1.499 -0.6163  2.3755  0.8995
  726SOL     OW 2176   2.385   2.252   0.807  0.1422  0.2685  0.2447
  726SOL    HW1 2177   2.359   2.353   0.809 -0.5896 -1.4147  0.6151
  726SOL    HW2 2178   2.370   2.209   0.710 -0.9650  1.7387 -2.3897
  727SOL     OW 2179   0.233   3.054   0.165 -0.1847  0.0468  0.2953
  727SOL    HW1 2180   0.254   2.967   0.108  0.3037 -1.3115 -0.5293
  727SOL    HW2 2181   0.267   3.140   0.118  0.2435  0.0319 -0.9654
  728SOL     OW 2182   2.863   0.660   1.006  0.2083 -0.9786 -0.3038
  728SOL    HW1 2183   2.783   0.627   0.947 -0.2271  2.5670 -0.2565
  728SOL    HW2 2184   2.873   0.606   1.093 -2.6237 -0.9130 -0.1215
  729SOL     OW 2185   2.944   2.473   0.739  0.5541  0.2764 -0.4544
  729SOL    HW1 2186   2.910   2.376   0.731  0.2993  2.2218  0.6834
  729SOL    HW2 2187   3.044   2.480   0.741 -0.5623  0.0641  0.8311
  730SOL     OW 2188   2.623   0.593   0.876  0.2686 -0.1225 -0.1806
  730SOL    HW1 2189   2.546   0.661   0.865  0.6435 -3.9733  1.9504
  730SOL    HW2 2190   2.691   0.587   0.798  3.5561 -0.4441  3.5795
  731SOL     OW 2191   0.079   2.115   2.453  0.1748  0.2946  0.2274
  731SOL    HW1 2192   0.093   2.152   2.555  1.6579 -0.1722 -0.7149
  731SOL    HW2 2193  -0.014   2.112   2.418  1.2323  0.7049 -1.1467
  732SOL     OW 2194   1.114   2.831   1.969  0.0946  0.4253  0.1294
  732SOL    HW1 2195   1.156   2.778   2.051 -0.1588 -0.3028  0.7933
  732SOL    HW2 2196   1.134   2.788   1.876  1.1985  0.0716 -0.5605
  733SOL     OW 2197   3.030   0.688   2.113 -0.3175 -0.5180 -0.1086
  733SOL    HW1 2198   3.119   0.739   2.113  0.8469 -0.7040 -0.5400
  733SOL    HW2 2199   3.031   0.605   2.047  2.5563 -3.4788  1.5815
  734SOL     OW 2200   1.389   0.368   2.709 -0.2180  0.2915 -0.0492
  734SOL    HW1 2201   1.390   0.469   2.745  0.5506  2.3004 -0.5983
  734SOL    HW2 2202   1.309   0.317   2.745  1.1834 -0.0086 -0.2093
  735SOL     OW 2203   2.808   2.624   2.281 -0.7177  0.3965  0.2895
  735SOL    HW1 2204   2.731   2.617   2.217  2.6886  3.9088 -1.2709
  735SOL    HW2 2205   2.902   2.623   2.235  0.7744  2.7374  2.9041
  736SOL     OW 2206   0.790   0.400   2.633  0.2694 -0.0746 -0.7988
  736SOL    HW1 2207   0.742   0.490   2.638  1.3013  1.9655  0.3452
  736SOL    HW2 2208   0.780   0.345   2.548 -0.9039  2.3079  0.9068
  737SOL     OW 2209   2.707   0.494   2.826 -0.3330  0.1775  0.2167
  737SOL    HW1 2210   2.676   0.467   2.922  0.6935 -1.0726  2.2473
  737SOL    HW2 2211   2.788   0.437   2.800  0.7426 -0.1964  0.2374
  738SOL     OW 2212   1.653   1.176   3.003 -0.0311 -0.4920 -0.2629
  738SOL    HW1 2213   1.755   1.169   2.968  0.8701  3.8946  0.2746
  738SOL    HW2 2214   1.627   1.120   3.085  0.8327  1.5611  1.2890
  739SOL     OW 2215   1.755   0.576   0.679  0.4146 -0.6887 -0.2599
  739SOL    HW1 2216   1.810   0.580   0.769  0.5933  0.5192  0.2972
  739SOL    HW2 2217   1.796   0.514   0.605 -1.3850 -0.0441  0.5235
  740SOL     OW 2218   1.899   2.004   2.149 -0.1525  0.0387 -0.2381
  740SOL    HW1 2219   1.979   1.963   2.093 -1.1986 -1.9540 -0.1614
  740SOL    HW2 2220   1.808   2.003   2.102 -1.8158  2.6027  0.6263
  741SOL     OW 2221   2.508   0.113   2.551  0.2126 -0.6124  0.3096
  741SOL    HW1 2222   2.610   0.090   2.577  1.8635 -1.4642 -0.0862
  741SOL    HW2 2223   2.489   0.094   2.451  0.0775  1.6513  0.9688
  742SOL     OW 2224   2.256   1.386   0.040 -0.1647  0.5725 -0.4727
  742SOL    HW1 2225   2.163   1.429   0.066 -3.3371 -0.4545  2.8363
  742SOL    HW2 2226   2.267   1.294   0.085 -0.6386 -2.3610 -2.0498
  743SOL     OW 2227   1.748   0.642   2.646 -0.0354  0.2981  0.2807
  743SOL    HW1 2228   1.756   0.594   2.557 -2.5125 -0.6172 -1.1253
  743SOL    HW2 2229   1.657   0.691   2.651 -0.9241 -1.9927  1.4783
  744SOL     OW 2230   2.652   2.048   0.018  0.1541 -0.4505  0.4820
  744SOL    HW1 2231   2.557   2.068   0.047 -1.2700  1.3426 -0.7584
  744SOL    HW2 2232   2.721   2.033   0.094  1.3986  1.5384 -0.3086
  745SOL     OW 2233   2.201   2.708   2.196 -0.2085  0.2637  0.0500
  745SOL    HW1 2234   2.113   2.670   2.162  2.8963 -2.7606  0.1424
  745SOL    HW2 2235   2.194   2.751   2.291 -0.1127  0.1442 -0.0297
  746SOL     OW 2236   0.001   2.605   1.843 -0.2136 -0.2825 -0.1609
  746SOL    HW1 2237   0.101   2.626   1.822 -0.5167 -0.0207 -1.5462
  746SOL    HW2 2238  -0.045   2.682   1.900 -2.1772 -0.1679  0.6110
  747SOL     OW 2239   0.013   1.805   1.716 -0.0828 -0.3885 -0.3248
  747SOL    HW1 2240  -0.027   1.711   1.696 -0.5281 -0.8195 -0.6590
  747SOL    HW2 2241   0.103   1.824   1.661  0.1808 -0.6689 -1.3973
  748SOL     OW 2242   1.755   2.752   2.876 -0.2214  0.1322  0.0611
  748SOL    HW1 2243   1.791   2.788   2.965 -0.1474  0.0554 -0.0881
  748SOL    HW2 2244   1.654   2.745   2.878 -2.2538 -1.7424 -2.0222
  749SOL     OW 2245   1.284   0.060   0.887  0.3493  0.4126  0.4110
  749SOL    HW1 2246   1.248  -0.039   0.883 -0.7074 -0.3334 -2.1723
  749SOL    HW2 2247   1.311   0.099   0.796 -0.2341  0.2587  2.0051
  750SOL     OW 2248   2.290   0.253   1.875 -0.1022  0.6921 -0.7512
  750SOL    HW1 2249   2.348   0.299   1.800 -3.5474 -0.6765  0.7223
  750SOL    HW2 2250   2.296   0.300   1.968 -1.9564  0.1372  0.0886
  751SOL     OW 2251   0.831   2.248   2.872  0.3129  0.3570  0.3440
  751SOL    HW1 2252   0.890   2.254   2.961 -0.4124 -1.0260  2.5300
  751SOL    HW2 2253   0.766   2.167   2.869 -1.2686  0.5461 -1.3840
  752SOL     OW 2254   1.238   0.940   1.545 -0.0289  0.2809  0.0669
  752SOL    HW1 2255   1.307   0.991   1.486 -0.6230 -1.2236  0.6193
  752SOL    HW2 2256   1.282   0.856   1.586  0.2165  0.9873 -0.0788
  753SOL     OW 2257   0.935   2.641   1.779  0.1436  0.1410 -0.7438
  753SOL    HW1 2258   1.024   2.692   1.745  0.7884  0.1598  0.0987
  753SOL    HW2 2259   0.854   2.703   1.757  1.0449  1.3862 -1.3832
  754SOL     OW 2260   1.151   1.299   3.053 -0.0838  0.6117 -0.4632
  754SOL    HW1 2261   1.194   1.241   2.982 -0.9037 -0.2432 -0.3092
  754SOL    HW2 2262   1.165   1.403   3.037 -1.0448 -0.2633 -0.9637
  755SOL     OW 2263   2.027   0.520   2.213  0.0477 -0.2661  0.0528
  755SOL    HW1 2264   2.085   0.448   2.268 -1.4439 -2.5554  0.8544
  755SOL    HW2 2265   1.941   0.537   2.266  0.2444 -1.0581 -0.6873
  756SOL     OW 2266   2.639   0.983   2.929 -0.2056  0.3897  0.7126
  756SOL    HW1 2267   2.715   0.917   2.942  0.8673  0.3875 -2.2085
  756SOL    HW2 2268   2.549   0.942   2.963  0.6153 -2.4829 -2.4611
  757SOL     OW 2269   0.101   0.516   1.709  0.5224 -0.1745  0.3901
  757SOL    HW1 2270   0.104   0.609   1.664  0.8322 -1.4082  0.4909
  757SOL    HW2 2271   0.111   0.437   1.638  2.4720 -1.8298 -0.2998
  758SOL     OW 2272   2.472   0.018   1.519  0.9673  0.5950  0.0438
  758SOL    HW1 2273   2.381  -0.003   1.569  0.1677 -1.1708 -0.5557
  758SOL    HW2 2274   2.463   0.005   1.417  0.2560  1.7915  2.0449
  759SOL     OW 2275   1.663   0.070   0.055 -0.0697  0.7479  0.3618
  759SOL    HW1 2276   1.617   0.088  -0.036  0.1873 -1.3412  0.9351
  759SOL    HW2 2277   1.763   0.059   0.044 -2.4970  1.8761  3.0741
  760SOL     OW 2278   2.735   1.973   2.810  0.4249 -0.6646 -0.5190
  760SOL    HW1 2279   2.775   1.902   2.745 -2.4194 -1.8122  1.6655
  760SOL    HW2 2280   2.764   2.070   2.789 -1.0047  0.6629 -0.0656
  761SOL     OW 2281   1.905   1.730   1.601 -0.4695  1.0066  0.3374
  761SOL    HW1 2282   1.974   1.649   1.602  1.1604 -0.5785  0.7121
  761SOL    HW2 2283   1.807   1.701   1.583  1.4596  1.1207 -0.5324
  762SOL     OW 2284   0.535   2.428   1.001 -0.1525  0.0760  0.2235
  762SOL    HW1 2285   0.535   2.468   0.908  0.1744 -1.8165  0.0010
  762SOL    HW2 2286   0.557   2.500   1.075  0.2740  3.3913  0.5742
  763SOL     OW 2287   2.001   1.572   2.963 -0.0028 -0.0085  0.7732
  763SOL    HW1 2288   2.060   1.521   2.888 -1.9013 -1.1500 -2.6007
  763SOL    HW2 2289   1.947   1.497   3.019 -0.9746 -0.7894 -0.6435
  764SOL     OW 2290   0.677   0.563   0.854  0.0702  0.5514 -0.2977
  764SOL    HW1 2291   0.686   0.529   0.756  3.3804  0.2873 -0.4271
  764SOL    HW2 2292   0.768   0.565   0.907  0.2775 -1.2685  0.6662
  765SOL     OW 2293   0.669   0.203   0.808  0.1323  0.2415 -0.1398
  765SOL    HW1 2294   0.757   0.230   0.756  1.1101  0.2146  0.4109
  765SOL    HW2 2295   0.679   0.220   0.910  0.4223 -0.1971  0.2670
  766SOL     OW 2296   2.967   2.011   3.042  0.5601 -0.5364 -0.1406
  766SOL    HW1 2297   2.880   1.996   2.988 -1.1256 -0.3675 -1.5876
  766SOL    HW2 2298   3.029   2.088   3.003  2.1002 -0.0240  2.1810
  767SOL     OW 2299   2.853   1.577   0.533 -0.6014 -0.0141 -0.0647
  767SOL    HW1 2300   2.758   1.553   0.572 -0.6810 -1.7259 -0.1824
  767SOL    HW2 2301   2.928   1.595   0.607  1.7218 -0.9279  1.3676
  768SOL     OW 2302   1.049   0.302   0.303  0.0245  0.7029 -0.3352
  768SOL    HW1 2303   0.947   0.276   0.287 -2.4616  0.8418 -0.0784
  768SOL    HW2 2304   1.112   0.227   0.286  0.8090  0.3469 -1.1133
  769SOL     OW 2305   1.243   1.825   2.298 -0.0445 -0.0052 -0.7724
  769SOL    HW1 2306   1.342   1.834   2.283  1.8482  0.0815 -1.1720
  769SOL    HW2 2307   1.198   1.732   2.266  2.8075 -0.9911 -0.2444
  770SOL     OW 2308   0.165   1.133   2.340  0.2225 -0.5807 -0.1976
  770SOL    HW1 2309   0.130   1.174   2.428  0.6666 -3.4166 -3.5162
  770SOL    HW2 2310   0.109   1.154   2.259  2.1337 -0.0948 -1.7143
  771SOL     OW 2311   2.955   2.817   1.943 -0.0930  0.3456  0.4139
  771SOL    HW1 2312   2.948   2.891   1.864 -0.5591  0.5821 -4.8969
  771SOL    HW2 2313   2.947   2.854   2.038  1.3449 -0.6995 -1.4098
  772SOL     OW 2314   2.125   0.096   2.993 -0.0343 -0.4459  0.0356
  772SOL    HW1 2315   2.211   0.036   2.984  0.8988 -1.8779 -0.5195
  772SOL    HW2 2316   2.150   0.188   3.036  1.8887 -1.5066  0.2751
  773SOL     OW 2317   0.713   2.128   2.473  0.9598  0.1903 -0.2431
  773SOL    HW1 2318   0.659   2.160   2.388 -1.7538  0.9010 -0.0414
  773SOL    HW2 2319   0.661   2.152   2.561  1.3337  2.2361 -0.9413
  774SOL     OW 2320   2.019   0.025   2.675 -0.1522  0.3978 -0.4038
  774SOL    HW1 2321   1.998   0.112   2.723  0.0297  0.1932  0.5077
  774SOL    HW2 2322   2.093  -0.031   2.723 -0.9615  2.5847  1.6537
  775SOL     OW 2323   2.505   2.883   2.382  0.5628  0.0100  0.1950
  775SOL    HW1 2324   2.475   2.981   2.393  0.4752  0.8461 -0.1310
  775SOL    HW2 2325   2.597   2.860   2.417  1.9591 -0.5821 -2.8673
  776SOL     OW 2326   0.009   1.204   0.257 -0.0098 -0.5310  0.2520
  776SOL    HW1 2327  -0.036   1.190   0.162 -1.1958  2.0269 -0.7478
  776SOL    HW2 2328  -0.063   1.201   0.331  1.2811  0.3648  2.9343
  777SOL     OW 2329   0.309   2.671   0.413  0.6397  0.0801 -0.5841
  777SOL    HW1 2330   0.205   2.681   0.419  0.0949  1.8038 -1.9036
  777SOL    HW2 2331   0.351   2.762   0.440  0.8688  1.5832 -0.2653
  778SOL     OW 2332   1.321   1.937   0.184 -0.0628  0.1565 -0.2288
  778SOL    HW1 2333   1.271   1.953   0.275  2.2037 -0.5848  1.0561
  778SOL    HW2 2334   1.329   2.027   0.128 -0.4870  1.1225 -2.3274
  779SOL     OW 2335   0.167   0.832   0.537 -0.0479 -0.1710 -0.2245
  779SOL    HW1 2336   0.116   0.748   0.507  0.1190  1.9574 -2.3648
  779SOL    HW2 2337   0.121   0.897   0.604  1.5272  1.2565 -0.1428
  780SOL     OW 2338   0.013   0.293   2.366  0.4318 -0.5808  0.3612
  780SOL    HW1 2339  -0.026   0.390   2.366  0.5882  0.5622 -0.3962
  780SOL    HW2 2340   0.111   0.287   2.329  1.8078 -2.1552 -0.6084
  781SOL     OW 2341   0.576   1.775   1.623  0.0085  0.4647  0.4681
  781SOL    HW1 2342   0.624   1.756   1.713 -2.7639  2.3618  0.9014
  781SOL    HW2 2343   0.493   1.709   1.609 -0.9448 -2.5415 -3.7211
  782SOL     OW 2344   2.637   0.138   0.893 -0.0299 -0.2064 -0.0541
  782SOL    HW1 2345   2.573   0.181   0.824  1.3855  1.5880  2.9067
  782SOL    HW2 2346   2.612   0.167   0.989 -0.8325 -0.8355 -2.3051
  783SOL     OW 2347   2.812   0.672   2.517  0.0251 -0.2226  0.4264
  783SOL    HW1 2348   2.788   0.714   2.612  1.4285  1.9452  3.0783
  783SOL    HW2 2349   2.769   0.582   2.490  1.4762  1.3161 -2.6454
  784SOL     OW 2350   1.382   2.210   0.035 -0.0948  0.3139  0.4999
  784SOL    HW1 2351   1.480   2.236   0.067 -1.2679 -1.1612  0.3167
  784SOL    HW2 2352   1.368   2.206  -0.070 -0.9060  0.6132 -2.6751
  785SOL     OW 2353   2.167   0.331   0.018  0.2603 -0.1113  0.3112
  785SOL    HW1 2354   2.079   0.322   0.074  1.0666 -1.5586 -0.4718
  785SOL    HW2 2355   2.196   0.423  -0.016  2.0450 -2.7876  1.6710
  786SOL     OW 2356   2.049   2.194   2.259  0.6457  0.4038 -0.4298
  786SOL    HW1 2357   1.993   2.119   2.210  2.3002  2.4318  0.8961
  786SOL    HW2 2358   2.153   2.168   2.261 -0.3308 -1.8051  1.2691
  787SOL     OW 2359   1.416   0.621   0.776  0.2576  0.2335  0.0580
  787SOL    HW1 2360   1.462   0.708   0.764 -3.0139 -0.8761 -1.3150
  787SOL    HW2 2361   1.404   0.558   0.692 -1.7081  2.1224 -1.2170
  788SOL     OW 2362   1.207   0.467   2.980 -0.0486  0.0286 -0.0794
  788SOL    HW1 2363   1.118   0.479   2.925  0.7819 -1.8930 -3.4944
  788SOL    HW2 2364   1.277   0.529   2.946 -0.5639  3.2036  1.4195
  789SOL     OW 2365   2.657   0.074   1.869 -0.5269 -0.4381 -0.5681
  789SOL    HW1 2366   2.558   0.047   1.842 -0.4450 -3.5013 -0.0475
  789SOL    HW2 2367   2.704  -0.005   1.911  0.8057 -0.6526  1.5697
  790SOL     OW 2368   2.612   2.659   0.827 -0.2811  0.4772  0.0544
  790SOL    HW1 2369   2.659   2.666   0.731 -1.6752  1.7695 -0.1508
  790SOL    HW2 2370   2.603   2.754   0.865  3.8070  0.1439  1.3700
  791SOL     OW 2371   1.950   1.213   0.187  0.0157  0.0245 -0.3364
  791SOL    HW1 2372   1.867   1.169   0.236 -0.2578  0.5426  2.5657
  791SOL    HW2 2373   2.026   1.146   0.191 -3.3688  1.3600 -0.9124
  792SOL     OW 2374   0.450   1.978   2.207  0.4904  0.2357 -0.0069
  792SOL    HW1 2375   0.471   2.081   2.218  0.0330  0.0819 -0.2579
  792SOL    HW2 2376   0.359   1.951   2.254 -1.2217 -1.4997  1.8427
  793SOL     OW 2377   2.099   1.497   2.085  0.4284  0.0526 -0.8594
  793SOL    HW1 2378   2.166   1.577   2.095 -2.0762  3.3989  1.4416
  793SOL    HW2 2379   2.089   1.471   1.993 -0.4756 -1.6791  0.1516
  794SOL     OW 2380   0.546   1.531   2.459 -0.0377  0.3530  0.4476
  794SOL    HW1 2381   0.610   1.464   2.411  0.1400  2.3165  1.2567
  794SOL    HW2 2382   0.457   1.532   2.412  2.5672 -2.5007 -0.9700
  795SOL     OW 2383   2.478   2.302   1.813 -0.2792  0.4814  0.2705
  795SOL    HW1 2384   2.494   2.334   1.909 -0.0906 -0.3466  2.6681
  795SOL    HW2 2385   2.408   2.224   1.808  2.0335  2.0243  1.3528
  796SOL     OW 2386   3.054   1.102   2.705 -0.5045  0.0635  0.1084
  796SOL    HW1 2387   2.951   1.124   2.718  1.2404  0.4022  1.3182
  796SOL    HW2 2388   3.117   1.123   2.790  0.9137  0.1295 -0.3335
  797SOL     OW 2389   0.668   0.642   1.369 -0.1446 -0.4880 -0.0230
  797SOL    HW1 2390   0.747   0.693   1.417 -0.0917  1.7284  0.1416
  797SOL    HW2 2391   0.616   0.693   1.296  2.1596  1.0466 -0.2609
  798SOL     OW 2392   1.185   0.520   0.924 -0.5111  0.2092  0.0092
  798SOL    HW1 2393   1.209   0.531   1.027  2.8546 -2.1811  1.9548
  798SOL    HW2 2394   1.235   0.589   0.872  0.4051 -1.8462  1.4082
  799SOL     OW 2395   1.821   2.702   0.993 -0.0418  0.2434  0.2772
  799SOL    HW1 2396   1.808   2.620   1.057 -0.5796  0.5777  3.4169
  799SOL    HW2 2397   1.856   2.689   0.897 -2.7777 -1.2022 -0.1127
  800SOL     OW 2398   3.015   0.830   1.858 -0.2531 -0.4130  0.2307
  800SOL    HW1 2399   3.021   0.933   1.870  1.0081  1.3206 -1.2027
  800SOL    HW2 2400   3.022   0.784   1.951 -0.0201 -1.6651  0.8056
  801SOL     OW 2401   1.955   2.163   0.107 -0.0578  0.4196 -0.1045
  801SOL    HW1 2402   1.938   2.207   0.013  2.3674  0.0903 -1.2249
  801SOL    HW2 2403   2.029   2.091   0.102 -0.8758 -0.4993  0.4386
  802SOL     OW 2404   0.663   0.642   2.579 -0.6104 -0.0425 -0.0211
  802SOL    HW1 2405   0.715   0.633   2.488  1.6505  0.8139 -0.9025
  802SOL    HW2 2406   0.559   0.633   2.567 -1.8400 -0.4876 -0.7580
  803SOL     OW 2407   0.939   0.093   0.893  0.2866  0.4943  0.1272
  803SOL    HW1 2408   1.003   0.158   0.945 -1.5719 -0.9088 -0.7345
  803SOL    HW2 2409   0.927   0.133   0.797 -0.0610  2.4617  1.5507
  804SOL     OW 2410   0.287   0.046   2.190  0.3947 -0.4200  0.6774
  804SOL    HW1 2411   0.265   0.144   2.209 -0.3878  0.0872  0.1717
  804SOL    HW2 2412   0.253   0.019   2.098  1.8389 -1.5474 -0.7851
  805SOL     OW 2413   2.420   0.379   0.329 -0.2737 -0.1726 -0.3912
  805SOL    HW1 2414   2.466   0.353   0.425  2.2684 -2.6334  1.9659
  805SOL    HW2 2415   2.409   0.293   0.265  1.3146 -0.8029  0.0524
  806SOL     OW 2416   0.581   2.634   1.877  0.2971 -0.0504  0.7972
  806SOL    HW1 2417   0.516   2.686   1.939  1.1708  0.3009  0.1034
  806SOL    HW2 2418   0.642   2.700   1.820  2.6414  1.5920 -0.8326
  807SOL     OW 2419   2.520   0.938   0.473  0.4916 -0.7580  0.1814
  807SOL    HW1 2420   2.597   0.871   0.494  0.7579 -1.8286  0.3354
  807SOL    HW2 2421   2.525   0.980   0.376 -3.0775 -0.5388  2.3887
  808SOL     OW 2422   0.678   2.020   2.926  0.2038  0.0507  0.3844
  808SOL    HW1 2423   0.626   2.063   3.007 -0.6258 -1.3213  0.0494
  808SOL    HW2 2424   0.685   1.916   2.947 -0.2139  1.7288  0.8607
  809SOL     OW 2425   2.581   1.979   1.922  0.1948  0.1386  0.1240
  809SOL    HW1 2426   2.683   2.003   1.914  2.6551  0.0181  0.0823
  809SOL    HW2 2427   2.525   1.978   1.831 -2.9525  1.6098 -1.5402
  810SOL     OW 2428   2.190   1.116   0.494 -0.0896  0.1757 -0.4438
  810SOL    HW1 2429   2.151   1.025   0.530  0.6750 -0.9269  0.4267
  810SOL    HW2 2430   2.143   1.202   0.527  0.4031  3.6643 -0.4064
  811SOL     OW 2431   1.282   2.482   1.151 -0.4163  0.6133 -0.3080
  811SOL    HW1 2432   1.202   2.424   1.185 -1.9673 -1.8767  2.3070
  811SOL    HW2 2433   1.356   2.490   1.225  2.0233 -5.2612  1.8498
  812SOL     OW 2434   1.504   0.754   1.969 -0.3603 -0.0749 -0.1813
  812SOL    HW1 2435   1.403   0.753   1.987 -0.9467  2.3930  3.4483
  812SOL    HW2 2436   1.529   0.834   1.902  2.4253  2.8000 -1.7351
  813SOL     OW 2437   1.690   2.051   2.390  0.0913 -0.0464  0.1930
  813SOL    HW1 2438   1.773   1.998   2.429  0.1847  0.0497 -0.8591
  813SOL    HW2 2439   1.686   2.037   2.287  0.5460 -2.5407 -0.4555
  814SOL     OW 2440   3.002   1.678   2.901  0.7354  0.2521  0.3702
  814SOL    HW1 2441   3.025   1.598   2.964  0.8787 -0.3744 -0.3681
  814SOL    HW2 2442   3.029   1.770   2.938  1.3926  2.3983  1.1866
  815SOL     OW 2443   2.166   2.843   2.730  0.1942 -0.0245  0.1708
  815SOL    HW1 2444   2.126   2.763   2.785 -1.7512 -0.0774 -0.3053
  815SOL    HW2 2445   2.248   2.885   2.775 -1.0937 -2.0826  0.9527
  816SOL     OW 2446   1.487   0.396   1.651 -0.2115  0.1885  0.3968
  816SOL    HW1 2447   1.553   0.311   1.663  3.3552 -0.2889 -0.6040
  816SOL    HW2 2448   1.415   0.408   1.724 -1.7545  0.1210 -0.4167
  817SOL     OW 2449   0.360   1.305   2.594  0.2430 -0.1332 -0.4668
  817SOL    HW1 2450   0.256   1.302   2.594  1.6219 -2.1176 -0.2445
  817SOL    HW2 2451   0.388   1.335   2.500 -2.3099 -0.9910  1.6128
  818SOL     OW 2452   2.018   0.850   0.461  0.1825 -0.4019  0.0740
  818SOL    HW1 2453   2.109   0.833   0.414 -2.2410 -2.2643  0.8754
  818SOL    HW2 2454   2.021   0.829   0.561 -0.1388  2.0877 -2.2226
  819SOL     OW 2455   2.792   2.914   2.965 -0.1658  0.3193 -0.2464
  819SOL    HW1 2456   2.857   2.832   2.981 -1.7554 -1.1923 -2.1343
  819SOL    HW2 2457   2.701   2.882   2.927  0.5255 -3.2694 -0.8496
  820SOL     OW 2458   1.230   1.033   0.545 -0.4374  0.2943  0.6774
  820SOL    HW1 2459   1.267   1.122   0.581  2.0324 -3.6516 -0.8247
  820SOL    HW2 2460   1.224   0.969   0.625  0.6190  3.7793 -1.8059
  821SOL     OW 2461   0.048   1.245   0.716 -0.2746  0.0844  0.1910
  821SOL    HW1 2462  -0.015   1.237   0.797  1.1115  0.7015 -2.3069
  821SOL    HW2 2463   0.124   1.320   0.718  2.8504  1.0033  4.0277
  822SOL     OW 2464   2.542   1.756   2.466  0.2810  0.1518 -0.0395
  822SOL    HW1 2465   2.532   1.834   2.537  0.7346 -0.3549  2.1001
  822SOL    HW2 2466   2.449   1.731   2.426  0.7781 -2.7368  1.0581
  823SOL     OW 2467   2.029   0.908   1.180 -0.2111  0.3349 -0.5669
  823SOL    HW1 2468   2.004   0.863   1.271 -1.0160  1.7605  0.6633
  823SOL    HW2 2469   1.968   0.874   1.110  1.4858  2.4791  0.7688
  824SOL     OW 2470   0.184   1.841   2.832 -0.5443 -0.5056  0.1804
  824SOL    HW1 2471   0.221   1.838   2.930 -0.1935 -1.5002  0.8250
  824SOL    HW2 2472   0.253   1.892   2.765  0.2419  3.0599  1.7272
  825SOL     OW 2473   1.295   1.070   0.271 -0.0913 -0.5945  0.1366
  825SOL    HW1 2474   1.314   1.170   0.248 -1.5452 -1.7533  0.7243
  825SOL    HW2 2475   1.271   1.065   0.370 -1.6766  1.0469  0.9675
  826SOL     OW 2476   1.952   0.616   1.602  0.2479  0.1538  0.4717
  826SOL    HW1 2477   2.033   0.568   1.642  0.2059  2.1606 -0.1640
  826SOL    HW2 2478   1.874   0.552   1.581  0.3386  2.3673 -0.0742
  827SOL     OW 2479   0.704   1.204   0.484  0.6911 -1.0312  0.3007
  827SOL    HW1 2480   0.786   1.145   0.467 -2.3482 -0.6552  1.3601
  827SOL    HW2 2481   0.613   1.154   0.477 -0.8890  0.3349  2.6156
  828SOL     OW 2482   2.685   0.209   1.567  0.8455  0.4468  0.5537
  828SOL    HW1 2483   2.620   0.134   1.536 -0.5462 -1.3768 -1.0542
  828SOL    HW2 2484   2.720   0.189   1.663  0.0163 -0.6583  0.2673
  829SOL     OW 2485   2.914   2.402   2.927 -0.1514  0.0227 -0.8886
  829SOL    HW1 2486   2.812   2.384   2.954  0.4647  0.7678  1.6918
  829SOL    HW2 2487   2.946   2.502   2.930  0.9729  0.6237 -0.2864
  830SOL     OW 2488   2.930   0.913   2.993  0.2287 -0.1362 -0.1633
  830SOL    HW1 2489   2.929   1.008   3.030 -1.1687 -0.5347 -0.4303
  830SOL    HW2 2490   2.925   0.833   3.062 -0.0460  0.7248  0.4197
  831SOL     OW 2491   0.072   0.563   0.448 -0.7257 -0.3724  0.5164
  831SOL    HW1 2492   0.033   0.500   0.520  1.4821 -1.5298  0.5773
  831SOL    HW2 2493   0.119   0.508   0.374  0.7480 -1.4883  2.1975
  832SOL     OW 2494   1.801   0.694   0.013 -0.0319 -0.6523  0.6090
  832SOL    HW1 2495   1.720   0.758   0.001 -1.3422  1.2173  1.4372
  832SOL    HW2 2496   1.778   0.592   0.009  3.8913  0.1991  0.8604
  833SOL     OW 2497   2.346   2.121   0.561 -0.1809  0.0347  0.3478
  833SOL    HW1 2498   2.257   2.067   0.541 -0.5700 -2.3201  0.1560
  833SOL    HW2 2499   2.435   2.069   0.544  0.3389  0.7991 -0.3979
  834SOL     OW 2500   0.110   0.056   0.561 -0.3911  0.1752  0.0749
  834SOL    HW1 2501   0.182  -0.020   0.559  1.1658 -1.0078  1.8188
  834SOL    HW2 2502   0.127   0.130   0.496  0.4570 -1.3350 -1.2968
  835SOL     OW 2503   2.461   1.662   1.155 -0.0399  0.6406 -0.4149
  835SOL    HW1 2504   2.522   1.592   1.201 -0.0899 -1.2043 -1.1370
  835SOL    HW2 2505   2.511   1.754   1.128  1.0537  1.6497  0.1387
  836SOL     OW 2506   1.537   0.828   2.584 -0.3773  0.1834  1.1554
  836SOL    HW1 2507   1.442   0.862   2.548 -0.0921  0.2888  0.6893
  836SOL    HW2 2508   1.612   0.833   2.510  1.7699 -1.1268 -0.9386
  837SOL     OW 2509   1.722   0.089   0.536  0.2029 -0.2238 -0.0212
  837SOL    HW1 2510   1.672   0.161   0.587 -0.8928 -0.8922  1.9119
  837SOL    HW2 2511   1.672   0.079   0.443 -3.3303 -3.4289 -0.1709
  838SOL     OW 2512   1.173   1.485   2.683 -0.3912  0.1500 -0.0226
  838SOL    HW1 2513   1.092   1.513   2.741  0.0481 -3.1266 -0.1281
  838SOL    HW2 2514   1.186   1.383   2.668 -1.7201  0.7939 -1.6668
  839SOL     OW 2515   1.657   0.387   0.966 -0.2272  0.1015 -0.1983
  839SOL    HW1 2516   1.615   0.482   0.968 -1.8133  1.7577  0.2381
  839SOL    HW2 2517   1.595   0.309   0.990 -2.5920  5.2870  0.7210
  840SOL     OW 2518   2.643   2.950   1.667  0.1973  0.1655 -0.3450
  840SOL    HW1 2519   2.582   2.989   1.590 -1.2604 -0.0535  1.1125
  840SOL    HW2 2520   2.593   2.918   1.755  1.7581 -1.2801  0.5224
  841SOL     OW 2521   1.544   0.838   3.061 -0.3430  0.1444  0.6240
  841SOL    HW1 2522   1.488   0.876   3.135  0.9937  0.1489  0.7674
  841SOL    HW2 2523   1.536   0.881   2.971 -0.2510  1.6144 -1.6524
  842SOL     OW 2524   0.835   1.609   1.016 -0.3564  0.0671  0.2113
  842SOL    HW1 2525   0.817   1.709   1.037  0.2154  3.3445  2.6470
  842SOL    HW2 2526   0.773   1.572   0.941  0.1289  1.2757  0.6647
  843SOL     OW 2527   0.162   0.068   1.453  0.1419 -0.0711 -0.7029
  843SOL    HW1 2528   0.254   0.114   1.484  1.8708  2.1216 -0.9627
  843SOL    HW2 2529   0.166  -0.033   1.424  1.1057  0.0309 -0.6702
  844SOL     OW 2530   0.708   2.456   0.197  0.5219 -0.5795 -0.1650
  844SOL    HW1 2531   0.642   2.468   0.276  0.2506 -0.8655  0.2404
  844SOL    HW2 2532   0.662   2.409   0.116 -0.7501 -0.5857 -0.1360
  845SOL     OW 2533   1.744   0.012   1.263  0.2018  0.2720  0.2596
  845SOL    HW1 2534   1.661   0.024   1.326 -3.0866 -1.0766  0.6411
  845SOL    HW2 2535   1.796   0.099   1.251 -0.8586  1.4136  1.0101
  846SOL     OW 2536   1.681   3.037   0.910 -0.3558 -0.4088 -0.1199
  846SOL    HW1 2537   1.702   3.012   0.814  0.0024  1.4760  2.4723
  846SOL    HW2 2538   1.760   3.014   0.977 -0.5306 -1.8435 -1.3089
  847SOL     OW 2539   2.097   1.627   0.155 -0.5642 -0.3287 -0.6511
  847SOL    HW1 2540   2.040   1.574   0.227 -1.8212 -2.9165 -0.3423
  847SOL    HW2 2541   2.046   1.647   0.068  0.2041 -2.7198  1.8018
  848SOL     OW 2542   2.509   0.802   2.640  0.4067 -0.2663  0.3958
  848SOL    HW1 2543   2.488   0.906   2.653 -1.1886  0.8058 -0.2270
  848SOL    HW2 2544   2.425   0.764   2.591 -1.6323 -1.0389 -1.1058
  849SOL     OW 2545   2.377   0.833   2.299  0.2149  0.1320 -0.2004
  849SOL    HW1 2546   2.422   0.762   2.243 -0.5989  2.2032  1.3692
  849SOL    HW2 2547   2.313   0.802   2.375 -1.0009  0.8862  1.8026
  850SOL     OW 2548   1.516   0.217   1.263 -0.4054 -0.0980  0.0729
  850SOL    HW1 2549   1.533   0.176   1.171 -0.2016 -0.3507  0.3477
  850SOL    HW2 2550   1.485   0.147   1.335  0.0926 -1.1165 -0.1093
  851SOL     OW 2551   0.446   1.665   0.632 -0.0097  0.2406 -0.2145
  851SOL    HW1 2552   0.401   1.751   0.663 -0.0700  0.2804  0.6387
  851SOL    HW2 2553   0.544   1.663   0.649 -0.1791 -0.2757  2.0426
  852SOL     OW 2554   0.842   2.197   1.736  0.1713 -0.0719  0.4867
  852SOL    HW1 2555   0.820   2.290   1.683  0.0432  3.2710  1.7490
  852SOL    HW2 2556   0.785   2.175   1.815  1.8008  1.0116  0.2798
  853SOL     OW 2557   2.612   1.496   2.574 -0.6632  0.5188 -0.3662
  853SOL    HW1 2558   2.538   1.427   2.558 -5.0485  0.3689 -0.7629
  853SOL    HW2 2559   2.594   1.594   2.541 -1.2914  2.2503 -0.5819
  854SOL     OW 2560   2.459   1.442   1.775  0.0284  0.6805  0.1100
  854SOL    HW1 2561   2.496   1.406   1.683  1.7871  1.6981 -1.9843
  854SOL    HW2 2562   2.419   1.363   1.827 -0.6145  0.9889  0.9842
  855SOL     OW 2563   2.037   2.286   1.002  0.2427  0.4153 -0.5293
  855SOL    HW1 2564   2.080   2.364   0.952  3.7431  0.4322 -1.6710
  855SOL    HW2 2565   2.078   2.269   1.095 -3.0380  0.1025  0.1387
  856SOL     OW 2566   1.424   1.432   0.884  0.2490  0.4730  0.2062
  856SOL    HW1 2567   1.454   1.527   0.862  1.4136  1.0118 -1.1072
  856SOL    HW2 2568   1.414   1.404   0.984 -1.7880  1.7969  0.6730
  857SOL     OW 2569   2.893   2.535   1.061  0.5796 -0.5293  0.5974
  857SOL    HW1 2570   2.838   2.454   1.105 -0.6928 -1.2428  2.0572
  857SOL    HW2 2571   2.912   2.522   0.959 -1.1159  0.1756  0.1807
  858SOL     OW 2572   2.281   2.117   1.802 -0.6991  0.3609 -0.2849
  858SOL    HW1 2573   2.188   2.135   1.753 -3.4750  1.0439  2.1066
  858SOL    HW2 2574   2.352   2.071   1.736  1.3653  1.1187  0.9564
  859SOL     OW 2575   2.430   0.366   0.971  0.5501  0.2216  0.1295
  859SOL    HW1 2576   2.503   0.442   0.959  1.9391  0.9502  2.6276
  859SOL    HW2 2577   2.471   0.302   1.038  1.6820  0.0670  2.5864
  860SOL     OW 2578   1.926   2.822   0.506 -0.8262 -0.6753 -0.3322
  860SOL    HW1 2579   1.905   2.794   0.405  0.6061 -0.3139 -1.2105
  860SOL    HW2 2580   1.942   2.928   0.515  0.6592  1.1859 -0.9606
  861SOL     OW 2581   1.003   2.550   2.811  0.1538  0.5039  0.0488
  861SOL    HW1 2582   1.063   2.633   2.785  0.2358  3.3885 -1.3766
  861SOL    HW2 2583   1.005   2.524   2.912  0.2258  0.8380  0.7923
  862SOL     OW 2584   2.980   2.619   1.565 -0.3421  0.2121  0.0328
  862SOL    HW1 2585   3.055   2.630   1.638  0.0023 -2.0794  0.9900
  862SOL    HW2 2586   2.891   2.669   1.585 -1.1160  2.1480 -0.0665
  863SOL     OW 2587   1.855   2.687   0.280 -0.0421  0.6370 -0.1907
  863SOL    HW1 2588   1.931   2.611   0.289  5.0241  2.3736  0.1278
  863SOL    HW2 2589   1.757   2.651   0.281 -0.1417  0.6574  3.6666
  864SOL     OW 2590   1.914   1.137   2.937 -0.2998 -0.0007  0.0720
  864SOL    HW1 2591   1.935   1.099   2.845 -2.1918  0.6746 -1.4905
  864SOL    HW2 2592   1.982   1.109   3.012  2.5290 -1.5111 -0.1946
  865SOL     OW 2593   2.127   1.727   0.622  0.2822 -0.5458 -0.6903
  865SOL    HW1 2594   2.162   1.789   0.700 -0.1732  1.5426 -0.6405
  865SOL    HW2 2595   2.095   1.638   0.668 -1.4963 -2.4596  3.0220
  866SOL     OW 2596   2.886   2.802   1.016 -0.0544  0.5713 -0.6017
  866SOL    HW1 2597   2.958   2.837   0.954 -1.8822 -2.2854  1.2708
  866SOL    HW2 2598   2.892   2.698   1.033 -0.3912  0.4434 -0.3798
  867SOL     OW 2599   0.446   1.362   0.845 -0.6106 -0.1865 -0.0042
  867SOL    HW1 2600   0.483   1.271   0.811 -0.1035  1.7606 -0.6883
  867SOL    HW2 2601   0.368   1.400   0.782 -3.1505  2.0721 -0.4658
  868SOL     OW 2602   0.852   1.911   2.003 -0.3315 -0.4678  0.5341
  868SOL    HW1 2603   0.799   1.876   2.079  1.3962  0.7060  0.3213
  868SOL    HW2 2604   0.797   1.990   1.961 -0.1764  0.1068  1.5688
  869SOL     OW 2605   2.522   2.006   1.652  0.2632 -0.2990 -0.0032
  869SOL    HW1 2606   2.603   2.054   1.615 -0.8542 -4.0126 -0.7090
  869SOL    HW2 2607   2.468   1.965   1.573  0.8542  2.9211  0.1070
  870SOL     OW 2608   2.396   2.510   1.187 -0.0459 -0.0967  0.1953
  870SOL    HW1 2609   2.360   2.416   1.178  0.1968  2.3303 -0.4384
  870SOL    HW2 2610   2.479   2.524   1.249 -0.8204 -1.2015  1.6199
  871SOL     OW 2611   3.044   1.994   0.516 -0.1767 -0.0571  0.2909
  871SOL    HW1 2612   2.953   2.044   0.503  1.7918  0.2244  2.0868
  871SOL    HW2 2613   3.048   1.912   0.449  0.5481  0.8147 -3.0343
  872SOL     OW 2614   2.169   0.471   1.714  0.2533  0.2918  0.0799
  872SOL    HW1 2615   2.122   0.474   1.805  0.5686 -3.0838 -0.4590
  872SOL    HW2 2616   2.267   0.459   1.719 -2.0557  0.3423 -0.1981
  873SOL     OW 2617   1.729   2.073   2.864 -0.0487  0.1328 -0.1185
  873SOL    HW1 2618   1.709   2.173   2.896  1.3939  2.2596  0.7919
  873SOL    HW2 2619   1.649   2.046   2.801  1.3001 -2.3209 -1.4681
  874SOL     OW 2620   0.640   2.530   0.740 -0.3951  0.4227  0.1193
  874SOL    HW1 2621   0.654   2.623   0.779 -3.9637  1.1766 -2.3062
  874SOL    HW2 2622   0.711   2.459   0.773 -0.6818 -1.3019 -1.7388
  875SOL     OW 2623   2.309   1.580   1.443 -0.5328 -0.0920  0.6431
  875SOL    HW1 2624   2.407   1.614   1.447  1.0583 -1.3555  1.1469
  875SOL    HW2 2625   2.272   1.597   1.350  3.6788 -1.1512  0.8216
  876SOL     OW 2626   0.137   2.228   2.719 -0.6783  0.3117  0.2354
  876SOL    HW1 2627   0.203   2.162   2.773 -0.4045 -0.4400  0.0087
  876SOL    HW2 2628   0.175   2.329   2.724  0.6297  1.4557 -1.2687
  877SOL     OW 2629   2.777   2.657   0.595  0.0414 -0.4046  0.5675
  877SOL    HW1 2630   2.809   2.759   0.607 -1.4340  1.6699 -1.2661
  877SOL    HW2 2631   2.827   2.593   0.657  1.1421 -3.0412 -1.1156
  878SOL     OW 2632   2.760   1.531   2.276 -0.1107  0.2977 -0.0892
  878SOL    HW1 2633   2.731   1.626   2.294 -0.8141  1.5045 -1.7950
  878SOL    HW2 2634   2.804   1.482   2.354 -0.7908 -1.3637  1.4099
  879SOL     OW 2635   2.378   3.087   1.245 -0.0440 -0.4415  0.0536
  879SOL    HW1 2636   2.414   2.993   1.264 -0.1363  1.0732 -0.5221
  879SOL    HW2 2637   2.286   3.086   1.195  0.1155 -2.7893 -0.9060
  880SOL     OW 2638   0.598   0.463   2.204 -0.3473  0.7849  0.3091
  880SOL    HW1 2639   0.532   0.428   2.285 -1.3105 -0.9745  3.0536
  880SOL    HW2 2640   0.640   0.375   2.156 -0.8070 -0.7296 -1.0437
  881SOL     OW 2641   0.871   0.088   0.406 -0.8148 -0.2894  0.2261
  881SOL    HW1 2642   0.921  -0.000   0.388  0.0070  0.4339 -1.6639
  881SOL    HW2 2643   0.808   0.113   0.327  1.9461  1.8934  0.4746
  882SOL     OW 2644   2.756   1.764   1.654  0.7443  0.7307  0.7395
  882SOL    HW1 2645   2.839   1.726   1.617 -0.2880 -0.9806 -0.6220
  882SOL    HW2 2646   2.744   1.745   1.757 -1.2464  0.6200  1.6074
  883SOL     OW 2647   0.923   0.604   0.957  0.4151 -0.3438 -0.2459
  883SOL    HW1 2648   0.930   0.650   1.047  1.3749 -0.2839  0.4222
  883SOL    HW2 2649   1.016   0.578   0.920  0.7154  0.3459  2.4131
  884SOL     OW 2650   1.166   1.853   1.080  0.2071  0.3750 -0.0020
  884SOL    HW1 2651   1.150   1.850   0.976 -0.0001 -0.0089 -1.1402
  884SOL    HW2 2652   1.096   1.922   1.122 -1.7796  1.5474 -1.2715
  885SOL     OW 2653   2.290   1.765   2.356 -0.1779 -0.2459  0.2001
  885SOL    HW1 2654   2.194   1.735   2.383  1.7522  0.0462 -1.2685
  885SOL    HW2 2655   2.297   1.865   2.341  1.3393 -3.6700 -0.3514
  886SOL     OW 2656   2.689   0.458   1.812  0.3585 -0.0562 -0.0352
  886SOL    HW1 2657   2.702   0.391   1.892  0.1667  0.8056 -0.6330
  886SOL    HW2 2658   2.780   0.515   1.786  0.4614  1.4946 -1.0916
  887SOL     OW 2659   0.181   2.022   1.301 -0.0495  0.2865 -0.1364
  887SOL    HW1 2660   0.131   1.980   1.219 -1.9917 -0.9994  1.9392
  887SOL    HW2 2661   0.183   2.128   1.303 -1.3693  2.8105 -1.0813
  888SOL     OW 2662   0.593   1.297   1.505 -0.0315 -0.2507  0.3917
  888SOL    HW1 2663   0.626   1.344   1.417 -0.2465  1.0628 -0.1207
  888SOL    HW2 2664   0.567   1.197   1.488  0.5495  1.3413  3.9884
  889SOL     OW 2665   0.842   2.459   2.128 -0.3375 -0.5406  0.3202
  889SOL    HW1 2666   0.758   2.493   2.072 -0.0165  0.6225  2.2326
  889SOL    HW2 2667   0.926   2.459   2.064  0.9370 -0.4249  0.9400
  890SOL     OW 2668   2.300   2.393   0.120  0.4068  0.0646  0.1562
  890SOL    HW1 2669   2.354   2.473   0.084  0.8695 -0.9979  1.0637
  890SOL    HW2 2670   2.198   2.414   0.143 -0.5198  1.0728  1.5795
  891SOL     OW 2671   2.608   1.606   0.640 -0.8208  0.8248  0.4131
  891SOL    HW1 2672   2.580   1.539   0.716 -0.5621  3.3994  0.7698
  891SOL    HW2 2673   2.531   1.615   0.570  0.2177 -0.5975  0.4012
  892SOL     OW 2674   0.259   0.314   2.243  0.2791  0.3192  0.4003
  892SOL    HW1 2675   0.273   0.345   2.143  0.3011 -3.1517  2.6099
  892SOL    HW2 2676   0.332   0.362   2.296  0.1963 -0.4815 -1.3440
  893SOL     OW 2677   1.633   0.215   2.702 -0.2511 -0.0901 -0.5379
  893SOL    HW1 2678   1.716   0.265   2.744  0.7647  0.2389  0.8158
  893SOL    HW2 2679   1.547   0.270   2.686 -0.7680  0.2455  1.3320
  894SOL     OW 2680   2.152   1.986   0.082 -0.0403  0.5793 -0.2663
  894SOL    HW1 2681   2.116   1.934  -0.001  1.6149 -2.3895  2.6036
  894SOL    HW2 2682   2.177   1.918   0.155  0.5560  1.8667  1.8846
  895SOL     OW 2683   2.878   1.407   0.825 -0.0323 -0.5019  0.1111
  895SOL    HW1 2684   2.910   1.353   0.907 -0.3940  0.0971  2.4010
  895SOL    HW2 2685   2.947   1.473   0.786 -0.7040  0.0891  1.1849
  896SOL     OW 2686   1.759   1.770   1.188 -0.4442 -0.4466 -0.1234
  896SOL    HW1 2687   1.840   1.812   1.140 -1.6602 -0.1256 -0.9151
  896SOL    HW2 2688   1.671   1.826   1.174 -2.3704 -0.2252  2.5426
  897SOL     OW 2689   0.315   0.514   3.077  0.5865  0.3858 -0.2217
  897SOL    HW1 2690   0.267   0.545   2.988 -0.1217 -1.2911 -0.0968
  897SOL    HW2 2691   0.415   0.538   3.080  0.2262  1.2488  0.4067
  898SOL     OW 2692   0.563   2.856   1.099  0.0995  0.4151 -0.9156
  898SOL    HW1 2693   0.500   2.937   1.113 -0.7126 -2.0218  1.5186
  898SOL    HW2 2694   0.663   2.874   1.123 -1.1910  2.9032 -0.1444
  899SOL     OW 2695   2.698   0.945   1.263 -0.0932  0.2156  0.7676
  899SOL    HW1 2696   2.625   0.917   1.196 -1.1277 -0.9164  3.1005
  899SOL    HW2 2697   2.783   0.989   1.217  1.9438  1.4921  1.5665
  900SOL     OW 2698   0.984   2.317   2.344 -0.1958 -0.3588  0.3109
  900SOL    HW1 2699   0.912   2.368   2.285 -0.5970  0.0918  0.4313
  900SOL    HW2 2700   0.964   2.334   2.447 -0.6506 -2.9056 -1.1055
  901SOL     OW 2701   1.934   2.473   1.380  0.8697  0.4724 -0.4225
  901SOL    HW1 2702   1.913   2.468   1.277 -1.5371  0.1579  2.1506
  901SOL    HW2 2703   2.024   2.428   1.403 -0.3360 -2.1113  0.4666
  902SOL     OW 2704   2.574   1.689   1.461 -0.1510  0.4365 -0.3815
  902SOL    HW1 2705   2.628   1.705   1.550  0.7088  0.1778 -0.2743
  902SOL    HW2 2706   2.635   1.632   1.401 -1.3648 -0.4007  2.4360
  903SOL     OW 2707   0.288   2.374   1.991  0.4434  0.7872  0.1144
  903SOL    HW1 2708   0.187   2.348   2.016 -1.7073  0.1238  2.0218
  903SOL    HW2 2709   0.291   2.448   1.916  0.2726  0.2881  0.7887
  904SOL     OW 2710   1.999   0.780   2.592  0.4853 -0.2447  0.4257
  904SOL    HW1 2711   1.942   0.715   2.641  3.7159  1.0797  0.0935
  904SOL    HW2 2712   1.995   0.779   2.489 -0.7902  0.0122 -1.3513
  905SOL     OW 2713   2.761   0.042   2.590  0.3415 -0.6291 -0.5711
  905SOL    HW1 2714   2.833  -0.027   2.596 -0.6865  0.5595 -2.1351
  905SOL    HW2 2715   2.802   0.134   2.558  0.3914  2.0375 -2.4206
  906SOL     OW 2716   0.109   1.791   1.983  0.3730  0.1379 -0.2872
  906SOL    HW1 2717   0.059   1.804   1.887 -0.7925 -1.2788 -0.8553
  906SOL    HW2 2718   0.213   1.808   1.970  0.4609  1.1707 -0.2726
  907SOL     OW 2719   0.199   2.433   1.045  0.3548 -0.4471  0.1988
  907SOL    HW1 2720   0.263   2.514   1.042  0.0008  0.3485  0.4238
  907SOL    HW2 2721   0.159   2.415   0.949 -2.1151  1.1858 -1.9621
  908SOL     OW 2722   2.641   2.856   0.384  0.6749  0.1664 -0.4006
  908SOL    HW1 2723   2.633   2.848   0.280  1.9221 -1.3332 -1.0383
  908SOL    HW2 2724   2.657   2.760   0.417 -0.1822 -0.4164 -1.1917
  909SOL     OW 2725   0.684   0.923   2.610  0.1473  0.7303  0.4804
  909SOL    HW1 2726   0.658   0.821   2.608 -1.9581 -0.4743  1.0674
  909SOL    HW2 2727   0.765   0.957   2.548 -1.4968  2.6525 -0.5710
  910SOL     OW 2728   1.715   1.789   2.003 -0.3612  0.4309 -0.1740
  910SOL    HW1 2729   1.783   1.830   1.933  0.8577 -0.2473 -0.1165
  910SOL    HW2 2730   1.658   1.860   2.055  0.5746  0.6699  0.8736
  911SOL     OW 2731   1.736   3.023   1.574  0.1425 -0.0172 -0.1127
  911SOL    HW1 2732   1.816   2.994   1.511  0.0441 -0.0450 -3.0585
  911SOL    HW2 2733   1.738   2.966   1.659 -0.2649 -0.1937  1.9963
  912SOL     OW 2734   2.827   0.938   0.759  0.5913 -0.2026 -0.2393
  912SOL    HW1 2735   2.857   0.926   0.856  1.9095 -1.1155 -1.4099
  912SOL    HW2 2736   2.806   1.037   0.732  0.2115  0.3579  0.7620
  913SOL     OW 2737   2.569   1.283   1.555  0.6388 -0.3720 -0.3286
  913SOL    HW1 2738   2.552   1.184   1.587  2.0268 -1.4484  0.6972
  913SOL    HW2 2739   2.618   1.287   1.465  0.2047 -2.5745 -0.1249
  914SOL     OW 2740   2.833   0.515   1.282  0.5964 -0.5045  0.0035
  914SOL    HW1 2741   2.785   0.417   1.274 -1.7820 -1.1195  2.9481
  914SOL    HW2 2742   2.792   0.576   1.359 -0.8235  2.2796  0.2377
  915SOL     OW 2743   1.190   0.838   1.044  0.1987 -0.7505  0.3895
  915SOL    HW1 2744   1.249   0.895   1.102  0.9791 -0.5380 -0.2287
  915SOL    HW2 2745   1.090   0.822   1.083 -1.0808 -0.3965  0.5136
  916SOL     OW 2746   0.532   0.055   0.578  0.0041 -0.3997 -0.2458
  916SOL    HW1 2747   0.557   0.128   0.649 -1.9650  1.0843  1.0513
  916SOL    HW2 2748   0.558   0.087   0.481  0.8160  0.0736 -0.7141
  917SOL     OW 2749   2.758   2.598   1.893 -0.1004 -0.1337  0.0395
  917SOL    HW1 2750   2.673   2.661   1.882 -1.9917  0.6414 -1.6039
  917SOL    HW2 2751   2.849   2.639   1.865 -2.5143 -3.6416  0.4245
  918SOL     OW 2752   1.007   2.198   3.095  0.5948 -0.1936 -0.4260
  918SOL    HW1 2753   1.003   2.213   3.198  0.9909  0.9291  0.8399
  918SOL    HW2 2754   1.030   2.101   3.066 -2.5050 -1.8531 -2.0763
  919SOL     OW 2755   0.911   1.614   2.794 -0.0141  0.0026 -0.0896
  919SOL    HW1 2756   0.949   1.664   2.711  0.0388 -1.5797  1.4713
  919SOL    HW2 2757   0.846   1.535   2.778 -0.2316  1.6642  0.9239
  920SOL     OW 2758   1.223   2.081   2.508 -0.2753  0.5195 -0.1447
  920SOL    HW1 2759   1.170   2.065   2.417 -0.1189  0.3702 -0.9164
  920SOL    HW2 2760   1.269   1.998   2.552  2.9133 -0.8423  1.0305
  921SOL     OW 2761   1.051   0.132   2.587  0.2932 -0.4667  0.0822
  921SOL    HW1 2762   1.075   0.121   2.487  0.1371 -2.2237 -3.1245
  921SOL    HW2 2763   0.953   0.097   2.601  0.2632  0.5907  0.4074
  922SOL     OW 2764   2.083   2.415   2.777 -0.3682  0.2008  0.4382
  922SOL    HW1 2765   2.120   2.318   2.788  1.5422 -0.7615 -0.9959
  922SOL    HW2 2766   2.044   2.445   2.682  1.3490 -0.0485 -1.5024
  923SOL     OW 2767   1.167   2.691   0.199  0.2525  0.6674 -0.3639
  923SOL    HW1 2768   1.251   2.703   0.265  2.1860  1.1403  1.0750
  923SOL    HW2 2769   1.178   2.611   0.134 -0.9776 -0.4243  1.4219
  924SOL     OW 2770   2.854   1.572   0.083 -0.0986  0.0611 -0.0306
  924SOL    HW1 2771   2.790   1.594   0.002  0.7890 -0.3340 -1.4368
  924SOL    HW2 2772   2.912   1.653   0.110 -1.3179  0.4325 -2.3689
  925SOL     OW 2773   0.099   2.877   1.608 -0.0713  0.1536 -0.3561
  925SOL    HW1 2774   0.004   2.908   1.629  0.5087  1.7865 -1.0194
  925SOL    HW2 2775   0.098   2.811   1.533 -0.1054  1.7673  0.1083
  926SOL     OW 2776   1.460   2.891   1.309  0.1054  0.1224  0.1182
  926SOL    HW1 2777   1.461   2.898   1.204  1.4788 -1.0104 -1.6268
  926SOL    HW2 2778   1.447   2.977   1.364  1.8753 -0.7458 -0.1777
  927SOL     OW 2779   0.256   2.554   1.775  0.1381  0.0915  0.2740
  927SOL    HW1 2780   0.209   2.491   1.703  1.0446  1.7812 -1.5819
  927SOL    HW2 2781   0.313   2.626   1.721  2.3770  0.5134 -0.8702
  928SOL     OW 2782   1.597   2.014   2.087 -0.3140  0.2951 -0.2849
  928SOL    HW1 2783   1.629   2.115   2.061  1.1107 -0.1430  0.1254
  928SOL    HW2 2784   1.495   1.998   2.095 -0.9952  0.8976  0.5554
  929SOL     OW 2785   2.346   2.441   2.823 -0.1980 -0.1773  0.2789
  929SOL    HW1 2786   2.243   2.447   2.807  1.3095 -0.2761  0.3298
  929SOL    HW2 2787   2.401   2.410   2.735  0.7803  0.8526 -0.6433
  930SOL     OW 2788   2.205   1.989   1.085 -0.1659 -0.3716  0.1753
  930SOL    HW1 2789   2.205   1.958   1.183  2.3120 -2.4993  0.8294
  930SOL    HW2 2790   2.246   2.080   1.067  0.7083 -0.6163 -0.2455
  931SOL     OW 2791   0.585   1.738   2.647 -0.3106  0.3418  0.5062
  931SOL    HW1 2792   0.632   1.732   2.741  4.5782 -2.7462  0.6214
  931SOL    HW2 2793   0.607   1.652   2.593  1.6385 -1.7434 -2.0705
  932SOL     OW 2794   0.488   0.100   2.906 -0.2282 -0.2317 -0.0270
  932SOL    HW1 2795   0.583   0.137   2.888  1.1489  0.4717  2.8099
  932SOL    HW2 2796   0.498   0.003   2.945  0.1580 -2.9216 -5.2590
  933SOL     OW 2797   1.064   0.772   2.998 -0.0065  0.5525 -0.5506
  933SOL    HW1 2798   1.127   0.815   3.071  0.6523 -1.0682 -2.0230
  933SOL    HW2 2799   1.014   0.847   2.943  0.9926 -0.1908 -0.3338
  934SOL     OW 2800   0.835   2.929   2.755  0.5428  0.1583 -0.0098
  934SOL    HW1 2801   0.846   2.844   2.696 -1.3218 -1.0072 -1.9757
  934SOL    HW2 2802   0.836   2.916   2.855  0.4327  2.9460 -2.2229
  935SOL     OW 2803   3.081   0.563   0.918  0.0107  0.4247  0.4351
  935SOL    HW1 2804   3.057   0.505   0.837 -1.0277 -0.0505 -0.1595
  935SOL    HW2 2805   3.004   0.623   0.940 -0.1850  0.3743  0.6323
  936SOL     OW 2806   1.096   2.982   0.133  0.3379 -0.0995  0.5714
  936SOL    HW1 2807   1.171   3.021   0.071 -2.3289 -2.8650 -0.3693
  936SOL    HW2 2808   1.118   2.884   0.162  2.2585 -2.0102 -1.5629
  937SOL     OW 2809   1.950   2.642   2.093  0.3308  0.0340  0.2347
  937SOL    HW1 2810   1.859   2.669   2.136 -1.1557  2.1421  2.7614
  937SOL    HW2 2811   1.960   2.673   1.990 -1.5113  1.9950 -0.4503
  938SOL     OW 2812   2.771   2.177   1.520 -0.2467 -0.2668  0.4094
  938SOL    HW1 2813   2.729   2.262   1.562 -0.1259  0.9983 -2.3904
  938SOL    HW2 2814   2.813   2.111   1.588  0.5778  3.2394  0.1499
  939SOL     OW 2815   2.727   1.041   2.523 -0.0612 -0.3925  0.0141
  939SOL    HW1 2816   2.767   0.945   2.502 -0.4668 -3.2879  0.6404
  939SOL    HW2 2817   2.744   1.074   2.620 -1.6428  0.3089 -1.6269
  940SOL     OW 2818   1.066   0.461   2.638 -0.2653  0.2057  0.6405
  940SOL    HW1 2819   1.096   0.366   2.592  0.4409 -0.8538 -2.4856
  940SOL    HW2 2820   0.961   0.462   2.662 -0.6036 -0.9967 -0.4115
  941SOL     OW 2821   0.072   2.870   2.212 -0.1715  0.3390  0.3001
  941SOL    HW1 2822   0.043   2.771   2.200 -0.8427  1.4089  1.0946
  941SOL    HW2 2823   0.141   2.885   2.291 -0.8487  2.4809 -1.1917
  942SOL     OW 2824   0.077   0.065   2.546  0.4917  0.2667 -0.7829
  942SOL    HW1 2825   0.147   0.081   2.622 -0.0955 -2.5833  1.5113
  942SOL    HW2 2826   0.049   0.145   2.490  0.3741  0.4727  1.1006
  943SOL     OW 2827   2.076   1.622   2.436  0.9748  0.9051  0.2775
  943SOL    HW1 2828   2.126   1.532   2.463 -0.8011  0.4839  3.0851
  943SOL    HW2 2829   1.979   1.615   2.474 -2.7971  1.1938 -1.3860
  944SOL     OW 2830   2.174   2.356   1.496  0.5393 -0.6569  0.1035
  944SOL    HW1 2831   2.245   2.411   1.548  0.1887  3.8193  1.8274
  944SOL    HW2 2832   2.114   2.292   1.565 -1.1426  0.5051  2.8288
  945SOL     OW 2833   0.629   1.452   0.375 -0.0985  1.4874 -0.3261
  945SOL    HW1 2834   0.672   1.475   0.284  0.9185 -2.1003 -1.7799
  945SOL    HW2 2835   0.661   1.361   0.415 -1.9886  1.7665 -0.6547
  946SOL     OW 2836   0.342   1.023   2.597 -0.3056  0.2340  0.5173
  946SOL    HW1 2837   0.282   0.986   2.521 -1.5811  0.5834  0.9553
  946SOL    HW2 2838   0.343   1.128   2.595  0.9166 -2.3759  0.7686
  947SOL     OW 2839   1.471   0.459   0.139  0.0528 -0.0148  0.3603
  947SOL    HW1 2840   1.423   0.471   0.235  0.5004 -1.1118  1.7845
  947SOL    HW2 2841   1.418   0.397   0.078 -0.2410  0.0410  0.1981
  948SOL     OW 2842   1.961   0.014   2.191  0.2466  0.1962  0.0444
  948SOL    HW1 2843   1.919   0.010   2.097 -2.3712  0.6512 -1.3285
  948SOL    HW2 2844   1.932  -0.073   2.242  1.5292  0.2771 -1.8269
  949SOL     OW 2845   0.589   2.520   0.469 -0.4219  0.5341 -0.0753
  949SOL    HW1 2846   0.588   2.618   0.429 -0.0115  1.3956 -2.6016
  949SOL    HW2 2847   0.621   2.519   0.568 -1.4780 -1.2079  0.5910
  950SOL     OW 2848   0.302   2.103   3.011 -0.3332 -0.4595 -0.4149
  950SOL    HW1 2849   0.213   2.157   3.012  0.6268 -0.5168  3.8069
  950SOL    HW2 2850   0.281   2.003   3.001 -1.6025 -0.3042  2.4743
  951SOL     OW 2851   1.153   2.779   2.769 -0.3413  0.0119  0.2954
  951SOL    HW1 2852   1.150   2.866   2.712 -1.4638 -0.6825 -0.0110
  951SOL    HW2 2853   1.245   2.768   2.822  3.8641  2.0035 -0.8925
  952SOL     OW 2854   0.088   1.688   0.471  0.3361  1.0667  0.0649
  952SOL    HW1 2855   0.160   1.754   0.494  2.8498 -2.3508 -3.3893
  952SOL    HW2 2856   0.029   1.659   0.554 -0.3581 -0.9972 -1.6181
  953SOL     OW 2857   2.535   1.739   0.163 -0.4328  0.3123  0.4045
  953SOL    HW1 2858   2.507   1.642   0.185 -1.7104  2.5364  0.7110
  953SOL    HW2 2859   2.532   1.757   0.062  0.3140  2.9134 -1.0637
  954SOL     OW 2860   2.172   0.545   1.054 -0.4401 -0.8141  0.4419
  954SOL    HW1 2861   2.103   0.537   0.977  1.6768  0.4442  2.7757
  954SOL    HW2 2862   2.262   0.505   1.026  1.8816 -0.8630 -0.2123
  955SOL     OW 2863   0.254   2.657   1.305 -0.8351 -0.0763 -0.0196
  955SOL    HW1 2864   0.148   2.647   1.309 -0.9524  1.0797  1.2046
  955SOL    HW2 2865   0.291   2.619   1.213  0.2376  1.0774 -1.9710
  956SOL     OW 2866   2.779   2.476   2.520 -0.7019  0.3463 -0.2221
  956SOL    HW1 2867   2.750   2.376   2.526  1.5155 -2.2950 -0.6077
  956SOL    HW2 2868   2.793   2.508   2.424  1.3138  0.9840  3.7985
  957SOL     OW 2869   1.545   2.070   2.662 -0.2963 -0.7345 -0.2121
  957SOL    HW1 2870   1.506   1.975   2.661  0.0830 -0.5031 -1.7296
  957SOL    HW2 2871   1.595   2.082   2.569 -1.2899 -0.1983  1.5162
  958SOL     OW 2872   2.655   2.328   3.013 -0.2338 -0.0217  0.0711
  958SOL    HW1 2873   2.561   2.356   3.033  0.2576 -0.8559 -0.5914
  958SOL    HW2 2874   2.684   2.231   3.038 -0.6051 -2.3742  0.7499
  959SOL     OW 2875   0.242   2.830   0.021 -0.3212  0.0470  0.2490
  959SOL    HW1 2876   0.140   2.819   0.037 -0.7014  0.5697  0.4972
  959SOL    HW2 2877   0.295   2.737   0.024 -1.0723 -0.8996  0.6669
  960SOL     OW 2878   2.013   0.497   1.929 -0.3865 -0.2796  0.1570
  960SOL    HW1 2879   1.944   0.575   1.918 -1.1078 -1.7677 -0.6412
  960SOL    HW2 2880   2.044   0.478   2.022 -1.3288 -1.1984  0.2936
  961SOL     OW 2881   2.625   1.867   1.037  0.2973 -0.1401  0.0491
  961SOL    HW1 2882   2.567   1.907   0.962  1.3453  1.1962  2.6777
  961SOL    HW2 2883   2.665   1.941   1.093  1.4129  0.3687 -2.5454
  962SOL     OW 2884   1.263   0.926   0.054  0.3619 -0.4205  0.0435
  962SOL    HW1 2885   1.239   0.981  -0.029  0.3879 -3.0143 -0.6918
  962SOL    HW2 2886   1.268   0.987   0.140  2.2059 -0.6468  3.0030
  963SOL     OW 2887   2.314   2.645   1.863 -0.2545 -0.4215 -0.6201
  963SOL    HW1 2888   2.328   2.573   1.936  0.7549 -1.0486 -3.2539
  963SOL    HW2 2889   2.305   2.742   1.900  0.7223 -0.6612 -1.7491
  964SOL     OW 2890   2.453   0.389   1.687  0.1221 -0.4957  0.6686
  964SOL    HW1 2891   2.541   0.413   1.739  0.2675  1.9746 -0.2950
  964SOL    HW2 2892   2.465   0.376   1.583 -1.5491  3.7871 -1.7458
  965SOL     OW 2893   2.646   3.015   0.118 -0.1002  0.2256  0.3551
  965SOL    HW1 2894   2.706   3.013   0.031  1.4178 -0.7490 -4.0456
  965SOL    HW2 2895   2.552   3.024   0.078  1.0814 -1.5676  0.5809
  966SOL     OW 2896   2.563   2.609   2.156  0.3322  0.5582  0.3320
  966SOL    HW1 2897   2.492   2.538   2.127 -0.1533  1.5750 -1.8109
  966SOL    HW2 2898   2.527   2.706   2.153  2.2522 -0.0987 -1.1309
  967SOL     OW 2899   2.777   2.840   2.455 -0.0239  0.0964  0.0361
  967SOL    HW1 2900   2.792   2.764   2.383 -0.4273 -2.2403 -1.2453
  967SOL    HW2 2901   2.865   2.892   2.474  0.0232 -2.9765  0.3835
  968SOL     OW 2902   2.003   1.048   2.705 -0.1793  0.3884  0.3150
  968SOL    HW1 2903   1.933   1.121   2.665 -2.1829  1.9411 -0.6684
  968SOL    HW2 2904   2.003   0.953   2.666 -2.1007 -0.3566  0.5599
  969SOL     OW 2905   2.730   2.330   1.143 -0.5053 -0.0643 -0.1212
  969SOL    HW1 2906   2.667   2.281   1.078 -0.3891 -0.4807  0.2855
  969SOL    HW2 2907   2.811   2.272   1.175  1.3457  0.2677 -0.9695
  970SOL     OW 2908   1.105   2.222   1.767 -0.2173 -0.4823  0.2241
  970SOL    HW1 2909   0.999   2.216   1.766 -3.2969  0.1306  3.6556
  970SOL    HW2 2910   1.152   2.218   1.860  0.6882  2.5225  1.3488
  971SOL     OW 2911   2.852   2.064   1.928 -0.4758 -0.1524  0.2863
  971SOL    HW1 2912   2.835   2.165   1.936  0.9975  2.3101 -0.8661
  971SOL    HW2 2913   2.917   2.045   1.849  2.5243 -0.0042  0.9743
  972SOL     OW 2914   2.064   2.422   0.249  0.0860  0.1422  0.1902
  972SOL    HW1 2915   2.032   2.338   0.207 -0.2762  2.0234  1.7891
  972SOL    HW2 2916   2.085   2.414   0.350 -2.1307  3.0123  1.1486
  973SOL     OW 2917   1.274   1.067   1.946  0.3485 -0.2724 -0.3186
  973SOL    HW1 2918   1.193   1.032   1.888 -0.3287 -0.3165 -0.6915
  973SOL    HW2 2919   1.297   1.175   1.932  0.8676  2.1060 -0.3630
  974SOL     OW 2920   1.651   0.532   1.898  0.1484 -0.2089 -0.2608
  974SOL    HW1 2921   1.714   0.596   1.855  0.0035 -0.0110 -0.1628
  974SOL    HW2 2922   1.579   0.593   1.941  0.8334  2.2896  0.7130
  975SOL     OW 2923   2.388   3.064   3.074  0.5102  0.2068  0.0821
  975SOL    HW1 2924   2.325   2.993   3.117 -1.1557  2.9946  2.3798
  975SOL    HW2 2925   2.409   3.046   2.974 -0.3728  1.0846  3.4338
  976SOL     OW 2926   1.916   2.886   2.323  0.0193  0.1651 -0.1585
  976SOL    HW1 2927   1.847   2.825   2.274  3.2701  0.4360  0.4571
  976SOL    HW2 2928   1.943   2.846   2.420 -0.4503 -1.3580  3.2181
  977SOL     OW 2929   0.489   0.674   1.009 -0.4352 -0.4295 -0.1592
  977SOL    HW1 2930   0.395   0.636   0.978 -1.1667 -0.4431 -0.0509
  977SOL    HW2 2931   0.568   0.629   0.970 -0.3238  3.0711  1.3305
   3.10000   3.10000   3.10000
