1000 SPC/Fw water molecules t=   0.25000 step= 250
 2931
    1SOL     OW    1   2.552   0.315   2.531  0.0721 -0.5069 -0.2805
    1SOL    HW1    2   2.599   0.226   2.520  0.5193  0.1212  1.5161
    1SOL    HW2    3   2.564   0.351   2.627 -1.7066  2.1292  0.5726
    2SOL     OW    4   2.713   3.010   1.399 -0.2228 -0.4136 -0.1794
    2SOL    HW1    5   2.801   3.064   1.376  4.1025 -0.1989  0.4692
    2SOL    HW2    6   2.648   3.067   1.459  2.1484  3.4916 -1.0829
    3SOL     OW    7   2.732   2.587   0.423 -0.7001  0.1393  0.4529
    3SOL    HW1    8   2.682   2.496   0.423  1.9963 -0.7374 -0.0029
    3SOL    HW2    9   2.812   2.590   0.486 -1.7138 -2.7262 -1.1895
    4SOL     OW   10   1.338   1.482   2.383 -0.2196  0.3436  0.5125
    4SOL    HW1   11   1.253   1.536   2.407 -0.4861 -0.6748  0.2200
    4SOL    HW2   12   1.362   1.415   2.455  1.3746  0.8949 -0.6189
    5SOL     OW   13   1.213   1.490   3.035  0.5560  0.1425 -0.6274
    5SOL    HW1   14   1.275   1.566   3.068  0.1845 -2.4546  2.0686
    5SOL    HW2   15   1.113   1.519   3.042  1.5361 -1.9056 -0.6981
    6SOL     OW   16   0.054   1.834   2.941 -0.6673 -0.1543 -0.3385
    6SOL    HW1   17   0.028   1.898   3.023 -1.8340 -2.6009  0.6998
    6SOL    HW2   18   0.025   1.734   2.954  0.2281 -0.4952  0.9740
    7SOL     OW   19   2.606   0.803   1.157 -0.1661  0.6544  0.1712
    7SOL    HW1   20   2.501   0.792   1.174 -3.7780  1.1095 -0.2531
    7SOL    HW2   21   2.628   0.798   1.053 -1.2114  1.9130  0.4605
    8SOL     OW   22   0.460   0.672   1.556  0.1669 -0.0156  0.7684
    8SOL    HW1   23   0.522   0.593   1.579 -1.3850  1.6914 -0.4839
    8SOL    HW2   24   0.407   0.649   1.467 -0.1915 -0.1527  1.2229
    9SOL     OW   25   1.185   0.968   2.279  0.3942  0.1329  0.0579
    9SOL    HW1   26   1.235   1.046   2.222 -1.3545  1.6791 -2.2571
    9SOL    HW2   27   1.142   0.904   2.217 -0.5758  2.8693 -0.7635
   10SOL     OW   28   0.685   1.341   1.256  0.2009 -0.2757 -0.3689
   10SOL    HW1   29   0.584   1.358   1.230 -1.0193  1.5882 -0.0787
   10SOL    HW2   30   0.749   1.428   1.251 -0.7737 -2.0255 -1.0028
   11SOL     OW   31   2.346   2.584   0.940  0.1842  0.3291 -0.0906
   11SOL    HW1   32   2.339   2.623   1.037  1.4304 -1.4244 -0.3283
   11SOL    HW2   33   2.427   2.525   0.924  2.2554 -0.8915  1.3863
   12SOL     OW   34   1.463   0.894   0.457 -0.2510 -0.1747 -0.5281
   12SOL    HW1   35   1.396   0.953   0.408  0.2283 -0.0511 -1.0276
   12SOL    HW2   36   1.483   0.810   0.399 -0.8335 -0.7282 -1.6613
   13SOL     OW   37   2.510   0.650   1.827  0.7533  0.3605  0.2992
   13SOL    HW1   38   2.409   0.667   1.840 -0.1320 -1.8141  0.2238
   13SOL    HW2   39   2.522   0.563   1.770  1.0238 -1.3006  2.3147
   14SOL     OW   40   1.890   3.085   0.583  0.1626  0.1630  0.1705
   14SOL    HW1   41   1.794   3.131   0.566  1.5616  0.8919  0.0121
   14SOL    HW2   42   1.884   3.019   0.664  1.0558 -0.6057 -1.8937
   15SOL     OW   43   1.958   2.035   2.869  0.2337 -0.0684  0.2184
   15SOL    HW1   44   1.905   2.127   2.872  1.2668  2.6433 -1.0007
   15SOL    HW2   45   1.922   1.976   2.790  1.1197  0.5023  0.3206
   16SOL     OW   46   1.603   1.692   0.048  0.1444 -0.3708 -0.0032
   16SOL    HW1   47   1.613   1.588   0.036  1.6446 -0.2806 -0.5653
   16SOL    HW2   48   1.681   1.730   0.104  2.1565  1.1567 -5.3229
   17SOL     OW   49   0.132   0.429   0.158  0.1373 -0.3184 -0.1796
   17SOL    HW1   50   0.210   0.483   0.118 -0.0911  0.0101 -0.0151
   17SOL    HW2   51   0.053   0.436   0.088 -1.7865  1.3107  2.3457
   18SOL     OW   52   1.065   2.900   2.182 -0.9960  0.3156  0.9377
   18SOL    HW1   53   0.990   2.834   2.160 -0.4782  3.1005  0.4331
   18SOL    HW2   54   1.145   2.894   2.113  1.3465  0.9141 -1.4770
   19SOL     OW   55   0.490   0.964   1.941 -0.3829 -0.6928  0.1602
   19SOL    HW1   56   0.451   1.005   2.025  0.2679  0.4132 -0.5702
   19SOL    HW2   57   0.576   0.910   1.954 -0.7160  0.9326 -0.4990
   20SOL     OW   58   0.233   2.785   0.885 -0.0280  0.5851 -0.1699
   20SOL    HW1   59   0.153   2.837   0.845 -0.5397 -0.4485  0.1047
   20SOL    HW2   60   0.289   2.736   0.814 -2.6955  1.0738  2.1579
   21SOL     OW   61   2.794   0.174   2.141 -0.0737 -0.3403 -0.1691
   21SOL    HW1   62   2.786   0.095   2.080 -2.6744  0.5927  2.3434
   21SOL    HW2   63   2.804   0.144   2.238  1.3456  0.0525 -1.8963
   22SOL     OW   64   2.327   0.190   0.002 -0.3800 -0.0896 -0.6660
   22SOL    HW1   65   2.333   0.090  -0.016 -3.2125 -1.4288 -1.2221
   22SOL    HW2   66   2.228   0.227  -0.007 -2.5105  1.0262 -1.1683
   23SOL     OW   67   2.771   0.643   0.683 -0.2655 -0.2797 -0.1301
   23SOL    HW1   68   2.778   0.549   0.643  1.2452  2.0374 -1.2898
   23SOL    HW2   69   2.768   0.724   0.612 -2.8142 -0.0271 -0.9750
   24SOL     OW   70   0.181   1.880   0.471  0.1379  0.8197 -0.3867
   24SOL    HW1   71   0.081   1.894   0.435 -2.8325 -2.7115 -0.9130
   24SOL    HW2   72   0.260   1.908   0.405  3.3218 -0.7390 -0.1819
   25SOL     OW   73   2.259   0.508   0.189 -0.1046 -0.3798 -0.0752
   25SOL    HW1   74   2.335   0.444   0.217 -0.8572 -1.3748 -2.9841
   25SOL    HW2   75   2.219   0.486   0.099  3.3545  0.0867  3.8934
   26SOL     OW   76   2.527   2.181   2.104 -0.1581 -0.0722  0.1243
   26SOL    HW1   77   2.600   2.219   2.165  0.5535 -0.4876 -2.1533
   26SOL    HW2   78   2.552   2.087   2.068  0.5004 -1.9884  1.1492
   27SOL     OW   79   0.665   2.971   0.101  0.1552 -0.1704 -0.3520
   27SOL    HW1   80   0.755   3.021   0.098 -0.6440  0.8947  0.7091
   27SOL    HW2   81   0.610   2.957   0.012  1.9209 -1.7059 -2.8446
   28SOL     OW   82   1.533   0.198   0.235  1.0128 -0.5686  0.1314
   28SOL    HW1   83   1.581   0.137   0.165  1.3885 -0.2369  2.3887
   28SOL    HW2   84   1.599   0.260   0.295  2.0589  1.2490  2.3564
   29SOL     OW   85   2.025   0.643   0.249  0.1408 -0.3959  0.2983
   29SOL    HW1   86   2.019   0.733   0.296 -0.7438  1.1193  0.7608
   29SOL    HW2   87   2.126   0.611   0.232  0.8699 -1.1786  0.0303
   30SOL     OW   88   0.190   2.058   0.929 -0.2909  0.0229  0.0896
   30SOL    HW1   89   0.182   2.051   0.827 -0.2934  3.2401  3.2652
   30SOL    HW2   90   0.110   2.109   0.967 -0.8450 -3.1309 -2.4502
   31SOL     OW   91   2.070   0.045   2.316  0.9801 -0.4375 -0.0190
   31SOL    HW1   92   2.079   0.050   2.420  0.7797 -1.2233 -1.3834
   31SOL    HW2   93   2.009  -0.032   2.280  0.2051  0.6690  0.3769
   32SOL     OW   94   2.924   0.125   0.151 -0.4747  0.1435 -0.4697
   32SOL    HW1   95   2.883   0.054   0.215  0.4843 -1.6337 -1.8782
   32SOL    HW2   96   3.023   0.120   0.150 -2.4058  3.0630 -1.8579
   33SOL     OW   97   0.951   0.310   0.432  0.1505  0.4251  0.4742
   33SOL    HW1   98   0.893   0.224   0.411 -2.3149 -2.2880 -1.9238
   33SOL    HW2   99   1.033   0.288   0.491 -0.7088  3.9417 -0.9076
   34SOL     OW  100   0.413   2.902   1.055  0.2714 -0.5792 -0.2594
   34SOL    HW1  101   0.364   2.870   0.968 -1.3137  0.0571  1.2450
   34SOL    HW2  102   0.514   2.873   1.056  0.2885  1.7340  0.0250
   35SOL     OW  103   0.057   0.020   1.823 -0.3495  0.1722  0.2520
   35SOL    HW1  104   0.032  -0.079   1.841 -3.1201 -1.2277  0.3857
   35SOL    HW2  105   0.005   0.055   1.741 -2.5864  1.7008 -1.5464
   36SOL     OW  106   1.920   1.169   1.833  0.3319 -0.0898  0.1050
   36SOL    HW1  107   1.968   1.130   1.749  2.5515 -0.8107 -1.4599
   36SOL    HW2  108   1.975   1.250   1.860 -0.9668  2.4440  1.3823
   37SOL     OW  109   1.138   0.286   0.961  0.4972 -0.2721 -0.4676
   37SOL    HW1  110   1.152   0.369   1.022  0.4193 -3.4011  1.0644
   37SOL    HW2  111   1.209   0.215   0.983 -0.9162 -1.5287  1.1100
   38SOL     OW  112   1.128   2.692   2.403 -0.1832  0.0777 -0.4446
   38SOL    HW1  113   1.062   2.615   2.438 -1.3766 -0.8048  0.6667
   38SOL    HW2  114   1.089   2.783   2.412 -1.5849 -3.8258  1.1872
   39SOL     OW  115   2.338   1.438   3.037 -0.0437  0.0521 -0.4194
   39SOL    HW1  116   2.421   1.380   3.027 -3.0042  0.6166  0.3640
   39SOL    HW2  117   2.295   1.426   3.126 -1.8278 -0.5937 -2.4525
   40SOL     OW  118   2.080   2.535   2.554  0.4215  0.3172  0.0514
   40SOL    HW1  119   2.019   2.611   2.579  1.1059  2.3466 -2.2685
   40SOL    HW2  120   2.023   2.473   2.500 -0.1015  1.1465  0.9340
   41SOL     OW  121   2.936   0.701   2.755 -0.1892  0.3501 -0.4619
   41SOL    HW1  122   2.842   0.742   2.756  0.5266 -1.3429 -0.7716
   41SOL    HW2  123   2.934   0.597   2.745  2.5245  3.1944  0.5755
   42SOL     OW  124   1.797   1.749   0.591  0.1829 -0.1436  0.0511
   42SOL    HW1  125   1.728   1.681   0.568 -0.2826  1.9686  0.5606
   42SOL    HW2  126   1.833   1.794   0.504 -1.5111 -0.8386  1.9697
   43SOL     OW  127   0.500   1.727   1.200  0.2907 -0.6082  0.3999
   43SOL    HW1  128   0.506   1.661   1.281  0.5294 -2.3546  2.3467
   43SOL    HW2  129   0.402   1.744   1.164  1.1715 -1.8324 -0.6847
   44SOL     OW  130   1.729   2.509   0.028  0.1725  0.1975 -0.2923
   44SOL    HW1  131   1.781   2.562  -0.041  1.4723 -1.7197  1.3206
   44SOL    HW2  132   1.799   2.480   0.102 -0.9591 -0.1129  0.3729
   45SOL     OW  133   0.365   1.930   2.529  0.0916  0.7856  0.8308
   45SOL    HW1  134   0.277   1.926   2.472 -0.6709  0.8775  0.4074
   45SOL    HW2  135   0.409   1.837   2.543 -1.2930 -1.4259  2.9328
   46SOL     OW  136   1.162   0.623   0.170  0.1667  0.1194  0.3285
   46SOL    HW1  137   1.223   0.705   0.142 -0.1876  0.7334 -1.1363
   46SOL    HW2  138   1.062   0.652   0.159 -0.8396 -1.2933 -0.7478
   47SOL     OW  139   0.243   2.453   1.607  0.3241 -0.7599  0.0770
   47SOL    HW1  140   0.321   2.388   1.604 -2.3591  1.5106  0.7922
   47SOL    HW2  141   0.212   2.484   1.510  1.8978  2.3778 -3.1990
   48SOL     OW  142   2.565   0.565   0.163 -0.1751  0.0132 -0.1070
   48SOL    HW1  143   2.522   0.591   0.256  1.2322  3.9729  5.9644
   48SOL    HW2  144   2.632   0.641   0.130 -2.1904  1.7646 -0.3903
   49SOL     OW  145   0.345   0.872   1.718  0.3590 -0.2374 -0.2259
   49SOL    HW1  146   0.399   0.907   1.799  0.4717 -1.6741  0.9809
   49SOL    HW2  147   0.393   0.786   1.678 -1.1735 -2.3562  0.0392
   50SOL     OW  148   1.736   1.088   0.355 -0.8702  0.4622 -0.0758
   50SOL    HW1  149   1.740   0.989   0.331  2.0083  0.8664  0.7812
   50SOL    HW2  150   1.681   1.109   0.437  3.6976 -1.0835 -1.8287
   51SOL     OW  151   3.028   1.899   0.384  0.5130 -0.0672 -0.2206
   51SOL    HW1  152   3.034   1.915   0.282 -0.0454  0.2653 -0.6855
   51SOL    HW2  153   2.978   1.811   0.410  0.3975 -0.8538 -0.2591
   52SOL     OW  154   0.814   1.980   0.502 -0.3983  0.6494 -0.2443
   52SOL    HW1  155   0.720   2.020   0.521 -1.9565  1.7486  0.2914
   52SOL    HW2  156   0.842   1.899   0.563 -0.2793  1.0534 -1.2656
   53SOL     OW  157   3.060   0.355   1.534  0.0496  0.2857  0.5554
   53SOL    HW1  158   3.007   0.348   1.619  2.3784 -0.1300 -2.1951
   53SOL    HW2  159   3.066   0.451   1.495  0.7293  0.6035  0.0729
   54SOL     OW  160   1.729   0.460   3.014 -0.2159 -0.5506  0.4001
   54SOL    HW1  161   1.772   0.432   3.102 -0.2995  0.4862  2.7177
   54SOL    HW2  162   1.625   0.475   3.022 -1.6363  0.5196  1.0607
   55SOL     OW  163   0.712   2.935   0.623 -0.0348  0.1898 -0.0160
   55SOL    HW1  164   0.664   3.025   0.630  1.8725  0.3991 -1.7627
   55SOL    HW2  165   0.809   2.940   0.578 -0.7877  2.0721  1.3770
   56SOL     OW  166   0.485   1.554   3.062 -0.1775 -0.3065  0.1644
   56SOL    HW1  167   0.408   1.611   3.110  0.7350 -0.1481 -0.6875
   56SOL    HW2  168   0.450   1.473   3.017 -1.7356  2.5819  0.6767
   57SOL     OW  169   1.789   2.382   2.665  0.2740  0.0022  0.7587
   57SOL    HW1  170   1.828   2.344   2.577 -1.6071  1.7389 -0.4809
   57SOL    HW2  171   1.698   2.431   2.654  1.7854  0.1824 -0.3983
   58SOL     OW  172   0.589   0.450   1.105  0.8593  0.3225  0.1413
   58SOL    HW1  173   0.517   0.522   1.083 -3.2133 -2.3585  0.9565
   58SOL    HW2  174   0.535   0.362   1.134 -3.2953  4.4059 -0.4954
   59SOL     OW  175   0.480   2.409   2.670  0.0003  0.0113  0.0753
   59SOL    HW1  176   0.480   2.306   2.674  1.3467 -1.9755 -2.1305
   59SOL    HW2  177   0.544   2.457   2.731 -0.9806 -1.5975  0.3905
   60SOL     OW  178   2.322   2.166   2.284 -0.1353 -0.5904  0.2292
   60SOL    HW1  179   2.398   2.213   2.236 -1.3095  1.0371  1.6224
   60SOL    HW2  180   2.329   2.192   2.386  0.3036 -2.1805  0.2793
   61SOL     OW  181   1.404   0.585   0.461  0.5409  0.4015  0.6719
   61SOL    HW1  182   1.312   0.632   0.476 -1.2609  1.4661 -0.4920
   61SOL    HW2  183   1.425   0.553   0.367  1.1645 -0.8381  1.2007
   62SOL     OW  184   2.656   1.872   3.089 -0.0443  0.2765  0.2396
   62SOL    HW1  185   2.662   1.772   3.117 -1.3689  0.7715  0.9978
   62SOL    HW2  186   2.699   1.901   2.996 -2.5047 -0.1878 -3.6666
   63SOL     OW  187   0.531   0.818   0.159 -0.1718  0.2667  0.0288
   63SOL    HW1  188   0.537   0.921   0.148  0.8416 -0.2864 -0.0032
   63SOL    HW2  189   0.547   0.790   0.256  0.1514  2.1461 -0.0076
   64SOL     OW  190   0.102   0.483   2.525  0.1857 -0.5585  0.1207
   64SOL    HW1  191   0.073   0.532   2.615  1.6952  1.5899 -1.9438
   64SOL    HW2  192   0.081   0.547   2.448 -2.2615 -1.8650  1.3006
   65SOL     OW  193   0.196   1.465   0.648 -0.0370 -0.6899  0.4954
   65SOL    HW1  194   0.188   1.540   0.724  1.3876  2.2847  0.5798
   65SOL    HW2  195   0.297   1.436   0.630 -0.4590  0.6590  0.4073
   66SOL     OW  196   2.476   0.396   0.709  0.2787  0.6804 -0.2183
   66SOL    HW1  197   2.391   0.452   0.695  3.7131 -1.0743  2.1869
   66SOL    HW2  198   2.454   0.292   0.721  0.6629 -0.4859 -0.8430
   67SOL     OW  199   0.501   2.528   1.345  0.0054 -0.9604  0.2110
   67SOL    HW1  200   0.600   2.565   1.337  0.9726  2.3709 -0.1456
   67SOL    HW2  201   0.490   2.425   1.325  0.4757 -0.7566  0.9524
   68SOL     OW  202   1.013   1.096   2.440 -0.6296  0.2068  0.2417
   68SOL    HW1  203   1.093   1.053   2.382  1.4400 -1.2956 -0.1532
   68SOL    HW2  204   0.941   1.140   2.375 -1.3277  1.7083 -0.4237
   69SOL     OW  205   0.756   2.694   2.153 -0.4718 -0.0202 -0.1588
   69SOL    HW1  206   0.791   2.598   2.181 -0.2057 -4.3545  0.1697
   69SOL    HW2  207   0.653   2.704   2.162  1.1578  0.4747 -1.7191
   70SOL     OW  208   0.607   0.248   2.718  0.1689 -0.1875  0.2909
   70SOL    HW1  209   0.622   0.277   2.815  0.5839  1.8704 -0.5655
   70SOL    HW2  210   0.549   0.161   2.716  0.3188 -1.4506 -0.1236
   71SOL     OW  211   1.079   1.781   0.341  0.3852  0.0427 -0.6654
   71SOL    HW1  212   1.032   1.684   0.337  0.2020 -0.7790  0.5137
   71SOL    HW2  213   1.104   1.814   0.247  1.1610  0.0439  1.6396
   72SOL     OW  214   1.806   0.105   2.089 -0.2236  0.9332  0.4615
   72SOL    HW1  215   1.859   0.121   2.004 -2.4588 -1.0684  0.6047
   72SOL    HW2  216   1.847   0.027   2.144 -1.3208  1.8244 -2.7838
   73SOL     OW  217   2.809   2.219   2.509 -0.4891 -0.6411 -0.4093
   73SOL    HW1  218   2.805   2.119   2.487  0.8867  0.6279 -1.0638
   73SOL    HW2  219   2.833   2.226   2.615  1.1020  0.7396  3.0260
   74SOL     OW  220   2.745   3.005   2.039 -0.3317 -0.4674  0.0630
   74SOL    HW1  221   2.670   2.992   2.113  0.2991  0.9775  2.6614
   74SOL    HW2  222   2.835   2.980   2.083 -0.0613  2.1183 -0.1224
   75SOL     OW  223   0.921   0.770   1.001 -0.2122  0.1473  0.2437
   75SOL    HW1  224   0.830   0.821   0.981 -0.9091  2.4804  1.6751
   75SOL    HW2  225   0.963   0.807   1.089 -1.4843 -2.9598 -1.7707
   76SOL     OW  226   1.742   1.241   2.565  0.0303 -0.0469  0.2828
   76SOL    HW1  227   1.642   1.228   2.576 -0.7749  1.3154 -0.1313
   76SOL    HW2  228   1.771   1.318   2.627  0.1329 -0.5190 -4.6585
   77SOL     OW  229   2.984   0.981   0.999 -0.6070 -0.0655 -0.2234
   77SOL    HW1  230   2.976   0.888   0.959 -0.2360  2.3712 -1.2049
   77SOL    HW2  231   3.066   0.988   1.064 -0.7833  1.7991  1.2260
   78SOL     OW  232   1.988   1.412   1.492  0.5487  0.5110  0.6353
   78SOL    HW1  233   2.080   1.434   1.440  1.7333 -0.5474 -3.7130
   78SOL    HW2  234   1.914   1.371   1.430 -0.9810 -1.9405  0.2423
   79SOL     OW  235   0.596   1.321   0.842  0.1514 -0.1803 -0.4107
   79SOL    HW1  236   0.554   1.406   0.885  0.2853  0.0279 -0.5454
   79SOL    HW2  237   0.526   1.264   0.796  2.3889  2.3030  0.8145
   80SOL     OW  238   0.670   0.500   1.605  0.4442  0.6713 -0.5287
   80SOL    HW1  239   0.750   0.552   1.567 -0.1193 -1.5875  1.3892
   80SOL    HW2  240   0.664   0.406   1.559 -0.8159  1.6822 -1.3906
   81SOL     OW  241   1.058   1.390   2.639 -0.4516  0.0842  0.1449
   81SOL    HW1  242   1.022   1.342   2.719  3.7105 -0.0872 -0.0321
   81SOL    HW2  243   0.990   1.400   2.561 -1.8570  0.1088 -0.5640
   82SOL     OW  244   0.918   2.994   1.524  0.6604  0.1065  0.0380
   82SOL    HW1  245   1.000   2.959   1.479  3.2536  0.8267  3.5842
   82SOL    HW2  246   0.836   2.934   1.513  1.8927 -0.4617 -3.4853
   83SOL     OW  247   2.758   2.467   0.789 -0.1129  0.8275 -0.2174
   83SOL    HW1  248   2.683   2.394   0.775 -1.3011 -1.4523  1.4874
   83SOL    HW2  249   2.740   2.559   0.752  1.2475 -0.2820  0.5221
   84SOL     OW  250   0.715   3.101   2.414  0.2794  0.1760  0.3065
   84SOL    HW1  251   0.615   3.099   2.442  2.4513 -1.3126  0.1651
   84SOL    HW2  252   0.775   3.045   2.479  1.4441 -1.0440  0.5882
   85SOL     OW  253   0.387   1.668   1.496 -0.0540  0.6090  0.4187
   85SOL    HW1  254   0.317   1.748   1.483 -1.8564  1.8282  1.3979
   85SOL    HW2  255   0.393   1.626   1.593  0.2716 -0.2985  0.2175
   86SOL     OW  256   0.342   0.998   1.492 -0.0111 -0.2016 -0.1806
   86SOL    HW1  257   0.321   0.948   1.403 -0.6143 -2.6328  1.2672
   86SOL    HW2  258   0.372   0.932   1.567  1.2526 -0.1393  0.7209
   87SOL     OW  259   1.579   0.608   0.206 -0.4185  0.1702  0.1659
   87SOL    HW1  260   1.659   0.676   0.206  0.5537  1.5063  2.3109
   87SOL    HW2  261   1.555   0.571   0.113  0.4968 -2.3668  1.5359
   88SOL     OW  262   1.578   1.252   0.190  0.1816  0.0755 -0.0418
   88SOL    HW1  263   1.626   1.198   0.266 -0.6771  1.3655 -0.3204
   88SOL    HW2  264   1.474   1.258   0.194  0.9569  1.8370 -1.6600
   89SOL     OW  265   2.999   0.445   0.576 -0.0120  0.2527 -0.0861
   89SOL    HW1  266   3.055   0.355   0.599 -0.6697 -3.6801  0.4469
   89SOL    HW2  267   2.895   0.430   0.574  1.0417 -0.5071  0.1218
   90SOL     OW  268   0.978   1.661   3.046 -0.0084  0.0087 -0.3428
   90SOL    HW1  269   0.899   1.658   3.112  0.3697 -0.5954 -2.9673
   90SOL    HW2  270   0.948   1.662   2.947 -0.1507  1.9228 -0.5729
   91SOL     OW  271   1.276   1.474   1.773  0.2797  0.5447 -0.4963
   91SOL    HW1  272   1.299   1.556   1.836 -1.9084  4.1659 -1.9412
   91SOL    HW2  273   1.358   1.417   1.752  0.5865  2.7310  0.5888
   92SOL     OW  274   0.077   1.043   1.163 -0.7345  0.0237  0.2438
   92SOL    HW1  275   0.176   1.044   1.126  2.6475  1.6417  0.6834
   92SOL    HW2  276   0.078   1.005   1.261 -1.5647 -1.5374  0.3500
   93SOL     OW  277   0.037   2.837   0.072 -0.3823 -0.3369  0.2440
   93SOL    HW1  278  -0.016   2.835  -0.014  1.7124 -1.2971  0.9804
   93SOL    HW2  279   0.078   2.745   0.086  0.8212  0.8097 -1.0856
   94SOL     OW  280   1.522   1.342   1.682 -0.0182 -0.0203 -0.1013
   94SOL    HW1  281   1.533   1.241   1.699 -3.0045 -0.2604 -1.0886
   94SOL    HW2  282   1.583   1.403   1.738  2.2218 -0.2167 -0.7099
   95SOL     OW  283   1.347   2.470   2.918 -0.2966 -0.0086 -0.4104
   95SOL    HW1  284   1.280   2.462   2.996 -1.1763 -0.6936  1.1681
   95SOL    HW2  285   1.369   2.379   2.880  1.1633 -0.1163  0.1181
   96SOL     OW  286   0.498   2.005   1.207 -0.1582  0.5481 -0.4689
   96SOL    HW1  287   0.475   2.047   1.115  0.3141  1.0909 -2.0607
   96SOL    HW2  288   0.504   1.903   1.215  1.9694  0.0608  0.4230
   97SOL     OW  289   0.359   1.438   2.494  0.8207 -0.4927  0.3256
   97SOL    HW1  290   0.261   1.400   2.488 -1.8544  2.5355  1.0354
   97SOL    HW2  291   0.373   1.526   2.548  1.5007  2.1136 -0.0661
   98SOL     OW  292   2.017   1.689   1.310 -0.4239 -0.7466  0.0256
   98SOL    HW1  293   2.072   1.612   1.270  1.2633 -2.7013  1.9311
   98SOL    HW2  294   1.936   1.661   1.368  0.2560  2.9336 -2.7478
   99SOL     OW  295   2.470   2.137   1.322  0.3724  0.0280  0.1882
   99SOL    HW1  296   2.437   2.164   1.417 -3.0052  0.8859  0.1345
   99SOL    HW2  297   2.479   2.032   1.319 -0.9588 -0.7702 -2.1136
  100SOL     OW  298   2.277   0.367   2.048 -0.0091 -0.4864  0.0944
  100SOL    HW1  299   2.244   0.331   2.147  2.3758 -0.1643  3.3506
  100SOL    HW2  300   2.378   0.374   2.035  1.1362  1.0719  0.0497
  101SOL     OW  301   0.416   1.463   0.284 -0.0572  0.3834  0.4659
  101SOL    HW1  302   0.397   1.482   0.385  1.2801  1.7840  0.1923
  101SOL    HW2  303   0.469   1.536   0.238 -2.1794  1.7196 -0.3101
  102SOL     OW  304   2.302   1.069   0.793  0.5371  0.2793 -0.1172
  102SOL    HW1  305   2.208   1.020   0.783 -2.1845 -1.0993 -2.1408
  102SOL    HW2  306   2.321   1.142   0.722  1.7368  1.7377  3.4694
  103SOL     OW  307   2.288   0.075   0.424 -0.3928 -0.3798  0.0946
  103SOL    HW1  308   2.353   0.139   0.375  0.5448  0.3255 -2.6816
  103SOL    HW2  309   2.336   0.003   0.486 -0.9729 -3.4903  1.0007
  104SOL     OW  310   0.090   1.874   2.123  0.0835  0.2203  0.0055
  104SOL    HW1  311   0.118   1.829   2.027 -0.5571 -0.1775 -2.6960
  104SOL    HW2  312  -0.002   1.920   2.111  0.1632 -0.5044 -0.1669
  105SOL     OW  313   1.125   1.946   0.839  0.1817 -0.0159  0.2955
  105SOL    HW1  314   1.076   2.022   0.786  1.7254  0.4306 -0.0174
  105SOL    HW2  315   1.161   1.872   0.774 -2.7561  0.0140 -0.0245
  106SOL     OW  316   2.066   0.428   1.357  0.2152 -0.4125  0.6191
  106SOL    HW1  317   2.027   0.344   1.405  2.7011 -0.1646 -0.6258
  106SOL    HW2  318   2.026   0.520   1.383  0.3490 -0.9639  0.0255
  107SOL     OW  319   1.816   3.005   1.078  0.0448 -0.0612 -0.2211
  107SOL    HW1  320   1.862   3.072   1.145  0.8132  1.1531 -2.1227
  107SOL    HW2  321   1.770   2.926   1.127 -1.1110 -0.0784 -1.6491
  108SOL     OW  322   0.756   2.634   1.303  0.2564 -0.1529 -0.1092
  108SOL    HW1  323   0.740   2.690   1.391  1.3125  1.4243  2.9510
  108SOL    HW2  324   0.854   2.602   1.293  0.2105  0.5085 -2.2584
  109SOL     OW  325   2.107   0.098   0.734  0.4530  0.1217  0.8274
  109SOL    HW1  326   2.032   0.068   0.668  0.4015  0.7120 -0.1571
  109SOL    HW2  327   2.113   0.035   0.817  2.5913 -0.2887  0.9179
  110SOL     OW  328   0.484   2.801   2.707 -0.0945  0.4461 -0.0271
  110SOL    HW1  329   0.465   2.839   2.612 -0.9693  1.2524  0.9852
  110SOL    HW2  330   0.574   2.741   2.709  0.1169 -0.5058 -0.0385
  111SOL     OW  331   1.292   0.519   2.286 -0.2350 -0.0165 -0.0082
  111SOL    HW1  332   1.211   0.560   2.337  1.0113 -0.4782 -3.6337
  111SOL    HW2  333   1.336   0.447   2.339 -1.5194  1.6702 -2.1200
  112SOL     OW  334   1.721   0.487   1.419  0.5281  0.2384 -0.1838
  112SOL    HW1  335   1.706   0.487   1.316 -0.5940  0.8186 -2.3580
  112SOL    HW2  336   1.685   0.398   1.461 -0.9168 -1.2977 -2.2608
  113SOL     OW  337   2.313   1.654   1.722  0.3171 -0.2555 -0.6885
  113SOL    HW1  338   2.386   1.581   1.705 -1.1527  0.8725 -0.7474
  113SOL    HW2  339   2.308   1.669   1.827 -0.5358 -1.5862  1.2809
  114SOL     OW  340   0.336   0.574   1.290 -0.6423 -0.2887  0.3562
  114SOL    HW1  341   0.307   0.672   1.276 -1.1308 -1.4080 -0.8645
  114SOL    HW2  342   0.292   0.514   1.218 -0.4947  0.0545 -1.9522
  115SOL     OW  343   2.614   1.572   1.224 -0.7892 -0.6391 -0.8878
  115SOL    HW1  344   2.664   1.484   1.256  1.7473 -0.5062  2.9608
  115SOL    HW2  345   2.669   1.629   1.157  0.4926  0.5910  0.0216
  116SOL     OW  346   1.824   1.079   0.758 -0.2519  0.4210 -0.4546
  116SOL    HW1  347   1.745   1.012   0.735 -0.4001 -0.7079 -1.9543
  116SOL    HW2  348   1.790   1.176   0.768  2.8354  3.3037 -2.3398
  117SOL     OW  349   1.144   0.364   0.656 -0.1967  0.2709 -0.0101
  117SOL    HW1  350   1.147   0.366   0.760 -2.9429 -0.6350  1.7390
  117SOL    HW2  351   1.190   0.446   0.613  0.9962 -1.0153  1.0695
  118SOL     OW  352   1.076   1.093   1.125  0.5542  0.3875  0.3602
  118SOL    HW1  353   1.070   1.032   1.204 -0.2251  2.5677  0.8941
  118SOL    HW2  354   1.100   1.189   1.152 -0.2693 -4.1531  0.7354
  119SOL     OW  355   1.826   1.625   2.032  0.3018  0.2866  0.5187
  119SOL    HW1  356   1.775   1.691   2.083 -2.0703 -0.6863 -2.8496
  119SOL    HW2  357   1.928   1.625   2.058 -0.5063  0.2468  0.4733
  120SOL     OW  358   2.970   2.789   0.326  0.3270 -0.0386 -0.1069
  120SOL    HW1  359   2.913   2.762   0.245  2.4526  2.6769 -0.2539
  120SOL    HW2  360   3.010   2.711   0.384  0.7274 -1.1289  1.4833
  121SOL     OW  361   2.009   0.735   2.188 -0.2370 -0.5546 -0.1312
  121SOL    HW1  362   2.080   0.774   2.120  0.4614 -1.4728  0.5277
  121SOL    HW2  363   1.979   0.643   2.161  0.7554 -0.8601  0.1632
  122SOL     OW  364   2.750   2.543   1.365  0.2139  0.1301  0.0554
  122SOL    HW1  365   2.756   2.541   1.262  0.2267 -0.0101 -2.2966
  122SOL    HW2  366   2.709   2.455   1.411  1.2014  0.3073  0.3377
  123SOL     OW  367   1.713   0.030   1.689  0.1802 -0.0457 -0.1242
  123SOL    HW1  368   1.729  -0.026   1.600 -1.5882  0.1846  0.1433
  123SOL    HW2  369   1.799   0.055   1.740  1.1125  0.9261 -1.5586
  124SOL     OW  370   0.165   0.486   1.062 -0.5973  0.0938  0.6791
  124SOL    HW1  371   0.112   0.554   1.112  0.4602  2.3521 -0.2720
  124SOL    HW2  372   0.122   0.492   0.968 -1.5775  1.6192  0.2834
  125SOL     OW  373   0.882   1.771   0.675  0.2645 -0.1157  0.1225
  125SOL    HW1  374   0.983   1.785   0.670  0.0101 -2.9670  0.8997
  125SOL    HW2  375   0.850   1.716   0.760 -0.0422  0.8861 -0.0056
  126SOL     OW  376   1.912   2.373   2.389 -0.2642  0.0365  0.0873
  126SOL    HW1  377   1.977   2.299   2.359  0.5240  1.3766 -1.1997
  126SOL    HW2  378   1.829   2.371   2.330  1.1962 -0.3118 -0.2550
  127SOL     OW  379   0.841   0.976   0.180 -0.9672 -0.1632 -0.0009
  127SOL    HW1  380   0.903   1.024   0.249  0.9308 -1.6064 -1.2519
  127SOL    HW2  381   0.858   0.875   0.177  0.6985 -0.2358 -0.7607
  128SOL     OW  382   0.989   0.162   1.491 -0.2283  0.0541  0.0583
  128SOL    HW1  383   0.955   0.221   1.413  0.5398  0.8032  0.1611
  128SOL    HW2  384   0.937   0.072   1.492 -3.1415 -0.4173  2.7893
  129SOL     OW  385   1.838   0.692   1.876  0.6290 -0.3539  0.0575
  129SOL    HW1  386   1.821   0.721   1.772  0.2029 -0.3740  0.1460
  129SOL    HW2  387   1.877   0.770   1.938  0.6483 -1.0812 -0.6575
  130SOL     OW  388   1.332   2.072   1.008  0.2113  0.2683  0.4946
  130SOL    HW1  389   1.288   1.990   0.969  0.1842 -1.1172  0.6244
  130SOL    HW2  390   1.372   2.128   0.929  0.4983 -0.4975  0.0437
  131SOL     OW  391   0.007   1.522   1.387 -0.1644 -0.0138  0.3289
  131SOL    HW1  392  -0.055   1.453   1.339  0.1053 -0.6817  1.1525
  131SOL    HW2  393   0.109   1.496   1.379  1.8437  0.9737  1.5541
  132SOL     OW  394   1.944   2.485   0.520 -0.1306 -0.8473 -0.0929
  132SOL    HW1  395   1.845   2.500   0.542  1.9278  1.6535 -0.3988
  132SOL    HW2  396   1.994   2.480   0.611 -1.8018 -0.9889  0.2147
  133SOL     OW  397   1.817   2.274   2.905 -0.4043 -0.0863 -0.2440
  133SOL    HW1  398   1.825   2.363   2.957  4.8365 -0.0433  2.3004
  133SOL    HW2  399   1.798   2.294   2.806  0.9757  0.1064  2.3409
  134SOL     OW  400   2.670   2.354   1.605  0.6051  0.3141 -0.4949
  134SOL    HW1  401   2.600   2.325   1.680  2.3638 -2.3012  1.4135
  134SOL    HW2  402   2.742   2.409   1.653  0.0350 -2.8511  0.2451
  135SOL     OW  403   0.720   1.549   2.565  0.0551  0.0715  0.2056
  135SOL    HW1  404   0.661   1.468   2.605 -0.4831  1.4193  2.6951
  135SOL    HW2  405   0.790   1.524   2.499 -0.1875  2.2560  0.3030
  136SOL     OW  406   1.197   2.048   0.484 -0.0333 -0.3203  0.1248
  136SOL    HW1  407   1.142   2.094   0.560  1.9348 -3.6301  1.1054
  136SOL    HW2  408   1.154   1.958   0.459 -0.0341  0.8952  0.7207
  137SOL     OW  409   0.386   1.077   2.206  0.3026 -0.1217 -0.0781
  137SOL    HW1  410   0.296   1.098   2.256 -0.0952  0.1330 -0.4319
  137SOL    HW2  411   0.437   1.002   2.251 -0.2124  1.8872 -2.7388
  138SOL     OW  412   2.441   1.472   0.249 -0.2376  0.2653 -0.3349
  138SOL    HW1  413   2.343   1.488   0.227  2.5166  1.6053 -0.4086
  138SOL    HW2  414   2.451   1.395   0.315 -0.6658  0.6111 -2.4183
  139SOL     OW  415   1.786   2.601   1.223  0.1537  0.2247 -0.1630
  139SOL    HW1  416   1.690   2.560   1.208 -3.1198  0.7353  0.3564
  139SOL    HW2  417   1.838   2.551   1.298 -3.7919  0.4751  0.8701
  140SOL     OW  418   2.992   2.978   2.521 -0.8157  0.5360 -0.7207
  140SOL    HW1  419   3.037   2.895   2.563  0.3824 -1.0120 -0.4217
  140SOL    HW2  420   3.065   3.054   2.512  3.3644 -2.6579 -1.1430
  141SOL     OW  421   1.192   1.629   1.561  0.6521 -0.1828  0.1260
  141SOL    HW1  422   1.139   1.701   1.616  1.6279 -0.7378 -2.5207
  141SOL    HW2  423   1.229   1.558   1.627  2.0445  4.5609  0.0905
  142SOL     OW  424   1.557   0.619   2.258  0.3414  0.2839 -0.5566
  142SOL    HW1  425   1.577   0.610   2.157  2.1619 -1.4926  1.5928
  142SOL    HW2  426   1.456   0.607   2.286  0.8406  0.4145  2.2265
  143SOL     OW  427   2.766   0.862   0.495 -0.5977 -0.0655 -0.1519
  143SOL    HW1  428   2.794   0.924   0.414  0.2892  1.6300 -0.1504
  143SOL    HW2  429   2.789   0.914   0.582  0.7845  1.0360 -1.4811
  144SOL     OW  430   2.961   1.260   1.358 -0.5603  0.4163 -0.0383
  144SOL    HW1  431   2.938   1.241   1.458  2.6666  0.3180  0.3647
  144SOL    HW2  432   3.038   1.200   1.322 -0.9311 -2.5154  1.4596
  145SOL     OW  433   1.078   1.894   0.081  0.1626  0.1109 -0.2174
  145SOL    HW1  434   1.084   1.970   0.009 -1.0313  1.0873  0.2420
  145SOL    HW2  435   1.051   1.799   0.040 -0.7587 -2.2832 -0.2156
  146SOL     OW  436   2.531   0.640   1.464 -0.0191 -0.3573  0.4669
  146SOL    HW1  437   2.462   0.567   1.450  1.4520  2.7574 -0.5253
  146SOL    HW2  438   2.490   0.732   1.453 -0.8728 -1.6773 -1.9725
  147SOL     OW  439   1.035   2.534   0.613 -0.0808 -0.5275 -0.1744
  147SOL    HW1  440   1.002   2.562   0.515 -0.0971 -1.2436 -0.7765
  147SOL    HW2  441   1.120   2.477   0.607 -3.0335 -0.2040  1.3181
  148SOL     OW  442   1.624   1.428   0.000  0.0559 -0.3754  0.6870
  148SOL    HW1  443   1.680   1.381  -0.073 -1.1389 -0.7733  0.2101
  148SOL    HW2  444   1.605   1.359   0.082  3.1595 -3.0272  0.5171
  149SOL     OW  445   0.665   1.405   1.974 -0.4207 -0.2116  0.3117
  149SOL    HW1  446   0.584   1.374   2.027  1.4784 -0.5272  1.2287
  149SOL    HW2  447   0.690   1.338   1.902  0.1182  0.4800 -0.4538
  150SOL     OW  448   2.979   1.273   0.932  0.0186 -0.2921  0.4118
  150SOL    HW1  449   3.066   1.327   0.966  3.5193 -2.1552  0.2145
  150SOL    HW2  450   2.977   1.175   0.963 -2.4133  0.1181 -0.1948
  151SOL     OW  451   0.175   0.764   2.114  0.2630  0.0733  0.5217
  151SOL    HW1  452   0.161   0.846   2.049  1.6159 -0.7294 -0.6033
  151SOL    HW2  453   0.213   0.677   2.062 -0.3564 -3.1820  0.0627
  152SOL     OW  454   1.413   1.757   1.273  0.0644 -0.1239 -0.2491
  152SOL    HW1  455   1.424   1.807   1.364 -0.7837 -1.2984 -0.3805
  152SOL    HW2  456   1.320   1.769   1.231  2.7677  2.3243  0.2546
  153SOL     OW  457   0.072   1.529   0.164 -0.6179  0.0415 -0.0473
  153SOL    HW1  458   0.054   1.424   0.154 -1.9730 -0.5645  3.6835
  153SOL    HW2  459   0.090   1.558   0.260 -0.3686 -0.4300  0.1098
  154SOL     OW  460   2.416   1.912   2.836  0.4356 -0.8226 -0.0749
  154SOL    HW1  461   2.427   1.814   2.857 -0.4303  1.2913 -0.1640
  154SOL    HW2  462   2.408   1.936   2.739 -0.2526 -2.4883  0.9402
  155SOL     OW  463   2.519   1.232   0.381 -0.2381  0.8511 -0.0073
  155SOL    HW1  464   2.593   1.241   0.302  1.5359  1.7425 -0.8970
  155SOL    HW2  465   2.483   1.133   0.387 -3.1446  0.1925 -3.9801
  156SOL     OW  466   2.536   0.945   0.873  0.0919 -0.2942 -0.1300
  156SOL    HW1  467   2.436   0.957   0.854 -3.1316 -0.8464  2.7779
  156SOL    HW2  468   2.581   1.040   0.865 -1.0688  0.7267 -2.4776
  157SOL     OW  469   1.300   3.030   3.031 -1.1177 -0.3349 -0.2790
  157SOL    HW1  470   1.350   3.004   2.944 -2.1727  2.5243 -0.4529
  157SOL    HW2  471   1.311   3.126   3.055  0.9518 -2.3428 -1.7700
  158SOL     OW  472   1.053   1.895   2.029  0.2589 -0.4055  0.2263
  158SOL    HW1  473   1.076   1.900   2.132  1.9189  0.6066  2.5537
  158SOL    HW2  474   0.952   1.872   2.018 -0.7438  2.1734  1.0132
  159SOL     OW  475   0.856   0.370   1.312 -0.4066  0.1877 -0.1355
  159SOL    HW1  476   0.850   0.465   1.349  0.0690  0.8524 -0.9870
  159SOL    HW2  477   0.793   0.358   1.234 -0.7398  1.3554 -1.3358
  160SOL     OW  478   1.462   2.416   1.660 -0.3011  1.1836 -0.0376
  160SOL    HW1  479   1.464   2.503   1.596 -2.5754  1.9137 -1.0476
  160SOL    HW2  480   1.550   2.362   1.653 -2.4581 -1.8165 -1.3093
  161SOL     OW  481   0.132   2.932   0.337  0.2820  0.2067 -0.7052
  161SOL    HW1  482   0.043   2.884   0.357  0.9074  0.3594  2.0829
  161SOL    HW2  483   0.122   2.999   0.262  2.2809 -2.1900  5.4298
  162SOL     OW  484   2.579   1.896   0.516 -0.1474  0.5965 -0.0892
  162SOL    HW1  485   2.560   1.840   0.429  4.5314 -1.5671 -0.7716
  162SOL    HW2  486   2.574   1.834   0.602 -1.1823 -1.2540  1.4280
  163SOL     OW  487   1.968   2.715   0.767 -0.2478 -0.5247 -0.2289
  163SOL    HW1  488   1.934   2.750   0.672 -0.9751  0.6889  0.8255
  163SOL    HW2  489   2.042   2.639   0.756 -0.1593  0.5963 -1.9464
  164SOL     OW  490   3.060   0.285   1.234 -0.5215  0.2012 -0.4439
  164SOL    HW1  491   3.128   0.280   1.154 -1.5723  0.0108 -1.2624
  164SOL    HW2  492   3.092   0.338   1.317 -0.1292 -3.3288 -0.0223
  165SOL     OW  493   0.989   1.459   0.665  0.1606  0.4233  0.1080
  165SOL    HW1  494   0.933   1.514   0.732 -0.0153 -1.5520 -1.1215
  165SOL    HW2  495   0.966   1.490   0.570  1.8222  2.0303  0.0515
  166SOL     OW  496   1.423   1.050   1.755 -0.4816  0.1779  0.1603
  166SOL    HW1  497   1.347   1.004   1.813  2.2387  1.0395 -1.3117
  166SOL    HW2  498   1.507   1.063   1.815 -0.6698 -1.0771 -0.4619
  167SOL     OW  499   0.890   1.915   1.549  0.3058  0.4804 -0.3392
  167SOL    HW1  500   0.857   1.985   1.616 -0.7350 -0.7704 -1.3968
  167SOL    HW2  501   0.815   1.852   1.514  1.3843 -0.5903  0.1057
  168SOL     OW  502   1.518   2.379   0.146  0.4833  0.3765 -0.0562
  168SOL    HW1  503   1.584   2.415   0.075  3.4687  1.7846  1.9429
  168SOL    HW2  504   1.562   2.319   0.217 -0.5085  0.4766  0.1592
  169SOL     OW  505   0.176   2.570   2.185 -0.0142  0.1315  0.6586
  169SOL    HW1  506   0.243   2.526   2.118 -1.8472 -0.9587 -0.6634
  169SOL    HW2  507   0.172   2.523   2.275 -1.0354 -1.4481 -2.2188
  170SOL     OW  508   1.263   0.292   1.894 -0.0957 -0.6439  0.1822
  170SOL    HW1  509   1.317   0.246   1.974  1.3482 -0.6047  1.6649
  170SOL    HW2  510   1.209   0.220   1.844  1.7878  1.3840 -0.5409
  171SOL     OW  511   0.269   0.798   2.430  0.0589 -0.2022 -0.0093
  171SOL    HW1  512   0.171   0.807   2.466  3.8269 -0.4546 -0.6961
  171SOL    HW2  513   0.269   0.814   2.325 -1.2106 -0.5264 -1.8092
  172SOL     OW  514   0.900   1.128   2.933 -0.2976  0.0418 -0.0302
  172SOL    HW1  515   0.994   1.141   2.969 -1.2728 -0.0016  0.7574
  172SOL    HW2  516   0.897   1.099   2.836 -1.8990  3.1472  2.7202
  173SOL     OW  517   0.676   2.704   0.158  0.0082 -0.2357  0.5269
  173SOL    HW1  518   0.675   2.804   0.133  0.8156 -1.2492 -2.5785
  173SOL    HW2  519   0.583   2.662   0.154 -0.0802 -1.9423  0.4237
  174SOL     OW  520   1.352   2.761   1.042  0.6047  0.0687  0.1285
  174SOL    HW1  521   1.352   2.826   0.962 -0.4274 -0.2504 -0.5882
  174SOL    HW2  522   1.280   2.685   1.035 -1.8497 -1.5559  0.8400
  175SOL     OW  523   0.377  -0.007   1.693  0.2163 -0.0940 -0.3703
  175SOL    HW1  524   0.455   0.038   1.743  1.2082 -0.2911 -0.5452
  175SOL    HW2  525   0.313   0.068   1.655  3.5183  0.9087  0.1820
  176SOL     OW  526   2.561   0.373   3.044 -0.8561  0.0845 -0.0472
  176SOL    HW1  527   2.564   0.445   3.121  0.3223  0.2603 -0.6954
  176SOL    HW2  528   2.475   0.316   3.067  1.3981  1.8380  2.7699
  177SOL     OW  529   0.383   0.407   0.900  0.1317  0.1081  0.3291
  177SOL    HW1  530   0.461   0.357   0.941  1.0477  1.6604 -0.3455
  177SOL    HW2  531   0.320   0.435   0.975  0.3225 -1.6762  0.6382
  178SOL     OW  532   3.096   2.734   2.594  1.0152  0.2650 -0.3095
  178SOL    HW1  533   3.016   2.679   2.630 -0.2775 -0.5744 -0.7552
  178SOL    HW2  534   3.180   2.744   2.655 -0.7184 -0.0107  1.6843
  179SOL     OW  535   0.019   1.697   1.152 -0.0813 -0.0250 -0.1074
  179SOL    HW1  536  -0.049   1.768   1.134  1.6081  1.0459 -1.1852
  179SOL    HW2  537   0.012   1.644   1.244 -0.4689 -2.9986  0.0612
  180SOL     OW  538   0.187   1.248   1.831 -0.1298  0.0621 -0.0962
  180SOL    HW1  539   0.287   1.276   1.809  1.2475  1.5906 -1.4641
  180SOL    HW2  540   0.160   1.305   1.906  1.0993  0.2535 -1.6846
  181SOL     OW  541   3.003   1.824   2.534  0.0718  0.2373 -0.1052
  181SOL    HW1  542   3.062   1.894   2.491  3.7126  0.4641  1.5994
  181SOL    HW2  543   2.902   1.842   2.495  0.0194  0.2159 -0.2089
  182SOL     OW  544   2.325   1.227   1.214  0.4778 -0.8051 -0.3715
  182SOL    HW1  545   2.253   1.203   1.142 -1.7373 -0.8623 -1.9676
  182SOL    HW2  546   2.349   1.327   1.218  0.5315 -0.5860 -0.8548
  183SOL     OW  547   1.483   2.259   2.529 -0.1042  0.2932  0.6005
  183SOL    HW1  548   1.406   2.190   2.539 -2.8193  1.1952 -1.6942
  183SOL    HW2  549   1.581   2.219   2.520  0.7896  3.7447  0.4133
  184SOL     OW  550   2.063   0.928   0.751  0.0373  0.1622 -0.2114
  184SOL    HW1  551   1.964   0.970   0.758 -2.4022  0.8230  1.0943
  184SOL    HW2  552   2.060   0.828   0.784  1.3927  1.0648 -0.2966
  185SOL     OW  553   1.663   2.734   2.101 -0.4174 -0.0720 -0.1257
  185SOL    HW1  554   1.625   2.827   2.079 -1.0910 -0.4494  0.7363
  185SOL    HW2  555   1.645   2.706   2.203  0.1960  0.5761  0.5865
  186SOL     OW  556   0.106   2.232   1.750  0.0725 -0.3523  0.1005
  186SOL    HW1  557   0.144   2.328   1.729 -0.9963 -0.1376 -0.5107
  186SOL    HW2  558   0.180   2.164   1.758  0.1494  2.0070 -0.2930
  187SOL     OW  559   1.430   0.660   1.701  0.3396  0.0719 -0.4203
  187SOL    HW1  560   1.463   0.724   1.624  0.5155 -0.2902 -0.2600
  187SOL    HW2  561   1.416   0.712   1.793 -0.4560  1.5087  1.0502
  188SOL     OW  562   2.740   2.771   1.533 -0.2616  0.2662  0.0201
  188SOL    HW1  563   2.735   2.867   1.494 -1.2567 -0.4749  1.1402
  188SOL    HW2  564   2.709   2.696   1.470  0.2583  1.9737  0.4446
  189SOL     OW  565   0.765   1.010   1.469  0.4500  0.6001 -0.6115
  189SOL    HW1  566   0.855   1.060   1.470 -0.5451  0.3085  1.9634
  189SOL    HW2  567   0.756   0.948   1.384  0.6398  1.4172  0.0824
  190SOL     OW  568   1.473   1.704   1.623  0.4274 -0.4994 -0.6539
  190SOL    HW1  569   1.380   1.667   1.602  0.0194 -2.2726  1.9132
  190SOL    HW2  570   1.468   1.801   1.643 -0.6528 -1.4590 -0.7662
  191SOL     OW  571   1.000   0.798   1.551 -0.5272 -0.2553 -0.0509
  191SOL    HW1  572   1.044   0.704   1.569 -0.7342 -2.2637  2.5680
  191SOL    HW2  573   1.070   0.872   1.525  0.7693  0.8518  2.0254
  192SOL     OW  574   1.861   2.280   1.217 -0.4236  0.5101 -0.4754
  192SOL    HW1  575   1.768   2.260   1.184 -1.0447 -0.2352  0.2459
  192SOL    HW2  576   1.927   2.306   1.143 -3.1612  1.6401 -1.1513
  193SOL     OW  577   0.530   0.565   0.331  0.1072  0.1755  0.4742
  193SOL    HW1  578   0.529   0.501   0.409  0.2739 -0.7851  1.4362
  193SOL    HW2  579   0.530   0.515   0.239 -2.0108  0.4878  0.4503
  194SOL     OW  580   0.279   0.855   1.258  0.0460  0.5299 -0.3020
  194SOL    HW1  581   0.192   0.807   1.230  2.2374  0.5262 -0.6311
  194SOL    HW2  582   0.327   0.900   1.176  0.7015 -3.0708 -1.0179
  195SOL     OW  583   0.947   2.950   0.475 -0.3433 -0.2120 -0.1754
  195SOL    HW1  584   0.971   2.859   0.441 -0.2804 -0.5251  0.9007
  195SOL    HW2  585   1.030   3.008   0.496  0.4309  1.8860 -0.2789
  196SOL     OW  586   0.277   1.426   1.391 -0.0233 -0.0023  0.1338
  196SOL    HW1  587   0.316   1.499   1.453 -1.1147 -1.4573  2.4232
  196SOL    HW2  588   0.260   1.334   1.444 -0.2339 -0.9653  0.3954
  197SOL     OW  589   0.867   2.001   0.218  0.2585  0.0048  0.8572
  197SOL    HW1  590   0.866   1.984   0.320 -1.2689 -0.0326  1.7697
  197SOL    HW2  591   0.937   1.945   0.164 -0.2255 -0.1840  2.2008
  198SOL     OW  592   0.292   1.212   0.234  0.2457 -0.1446  0.2399
  198SOL    HW1  593   0.189   1.238   0.232  0.4270  0.7234 -2.2569
  198SOL    HW2  594   0.351   1.299   0.246  1.8104  2.7030 -1.8005
  199SOL     OW  595   2.250   0.391   2.527 -0.2611 -0.4621 -0.0966
  199SOL    HW1  596   2.193   0.367   2.611  1.1632  1.4699  0.8443
  199SOL    HW2  597   2.348   0.373   2.535 -3.4176  0.9887 -0.3104
  200SOL     OW  598   3.097   2.879   0.780  0.1683  0.1924 -0.4954
  200SOL    HW1  599   3.026   2.887   0.709  2.5393  1.7652  0.8775
  200SOL    HW2  600   3.133   2.974   0.803 -3.8027  0.8962 -0.4441
  201SOL     OW  601   1.154   0.700   0.533  0.5639  0.2998  0.1137
  201SOL    HW1  602   1.157   0.781   0.601 -0.8236 -1.5968 -0.6089
  201SOL    HW2  603   1.057   0.676   0.497 -0.1903 -1.6598 -0.7240
  202SOL     OW  604   0.455   1.261   1.723  0.3440  0.4518 -0.7016
  202SOL    HW1  605   0.495   1.270   1.623  2.6335 -0.8894 -0.1684
  202SOL    HW2  606   0.488   1.177   1.766  0.2990  1.9789 -1.9765
  203SOL     OW  607   0.657   0.233   1.512  0.9223 -0.5320 -0.1213
  203SOL    HW1  608   0.656   0.169   1.429 -2.5622  2.0814 -2.2353
  203SOL    HW2  609   0.680   0.188   1.601  0.3015  0.0744  2.4002
  204SOL     OW  610   2.094   1.866   3.034  0.6807 -0.5314  0.3339
  204SOL    HW1  611   2.088   1.765   3.003 -2.2565 -0.5935 -1.6808
  204SOL    HW2  612   2.031   1.923   2.971 -0.0308 -2.4336 -2.6653
  205SOL     OW  613   1.854   1.859   0.106  0.2001  0.5826  0.1072
  205SOL    HW1  614   1.953   1.862   0.064 -1.1423 -0.4983  1.1253
  205SOL    HW2  615   1.786   1.912   0.049  0.4280 -1.1324 -0.3250
  206SOL     OW  616   2.533   2.815   0.409  0.9716 -0.1550 -0.3289
  206SOL    HW1  617   2.585   2.728   0.434  0.0511  0.0458  0.1069
  206SOL    HW2  618   2.565   2.855   0.320 -0.6386 -0.6244  2.0958
  207SOL     OW  619   0.595   1.733   2.859  0.8755  0.2994 -0.2150
  207SOL    HW1  620   0.695   1.729   2.850 -1.2977  1.7190  2.2592
  207SOL    HW2  621   0.557   1.664   2.927 -0.6204 -0.1484 -2.6702
  208SOL     OW  622   0.993   1.470   1.422 -0.4256  0.6231  0.1253
  208SOL    HW1  623   0.918   1.515   1.359 -1.1611  1.2594 -0.0541
  208SOL    HW2  624   1.073   1.534   1.447  0.3827  1.6143 -0.0535
  209SOL     OW  625   0.180   0.930   3.055  1.0766  0.2277 -0.5957
  209SOL    HW1  626   0.215   0.894   2.965 -2.2310 -0.6742 -0.0547
  209SOL    HW2  627   0.197   0.860   3.131 -0.9063 -3.2871 -0.6237
  210SOL     OW  628   1.710   0.503   1.140 -0.1980  0.3601 -0.2469
  210SOL    HW1  629   1.668   0.585   1.098  1.5301 -0.6625  1.2209
  210SOL    HW2  630   1.812   0.493   1.111  1.6463  0.6904 -0.2613
  211SOL     OW  631   2.109   1.030   1.674  0.0504 -0.0048 -0.1949
  211SOL    HW1  632   2.143   0.991   1.766  2.3860  3.6970 -1.1475
  211SOL    HW2  633   2.187   1.070   1.626  1.1076 -0.9883  0.9906
  212SOL     OW  634   0.022   1.011   1.456 -0.0255 -0.5717  0.1766
  212SOL    HW1  635   0.071   1.091   1.494 -1.6606 -0.6951 -0.5447
  212SOL    HW2  636   0.040   0.917   1.499  0.1480 -0.2068 -0.5771
  213SOL     OW  637   2.705   0.329   0.255  0.7152  0.4294  0.1677
  213SOL    HW1  638   2.786   0.281   0.208  0.0965  0.6883 -2.0059
  213SOL    HW2  639   2.683   0.424   0.230 -1.3000  1.7877  1.6719
  214SOL     OW  640   2.197   0.279   2.273  0.4015  0.6325  0.1576
  214SOL    HW1  641   2.210   0.325   2.364 -2.4673  0.0666 -2.1193
  214SOL    HW2  642   2.142   0.187   2.279 -0.0246 -0.1243 -2.0357
  215SOL     OW  643   1.657   2.304   2.060 -0.1342 -0.4862 -0.4781
  215SOL    HW1  644   1.755   2.340   2.042  0.0411 -1.6307  1.8203
  215SOL    HW2  645   1.607   2.337   2.146  1.7433 -3.5106 -1.7660
  216SOL     OW  646   2.240   0.538   0.645 -0.1136  0.1784  0.2512
  216SOL    HW1  647   2.220   0.460   0.579  0.9881 -1.6214 -1.5780
  216SOL    HW2  648   2.253   0.627   0.596 -2.6484 -3.2272  1.4973
  217SOL     OW  649   0.766   2.792   2.423  0.1721 -0.6631  0.2303
  217SOL    HW1  650   0.750   2.700   2.467 -0.1097  2.9865 -0.1331
  217SOL    HW2  651   0.803   2.788   2.325 -2.0438 -1.6177  0.4448
  218SOL     OW  652   1.926   1.443   0.070  0.1118 -0.0325  0.3363
  218SOL    HW1  653   1.841   1.502   0.045 -0.4247  1.7141 -0.2886
  218SOL    HW2  654   1.908   1.345   0.108 -1.6859 -2.4760  1.9438
  219SOL     OW  655   2.382   1.333   2.560 -0.0116  0.3932 -0.2345
  219SOL    HW1  656   2.402   1.303   2.459 -3.9523 -1.4887  1.4346
  219SOL    HW2  657   2.383   1.257   2.629  2.8483  0.4933  0.8552
  220SOL     OW  658   1.432   1.045   1.259  0.5692 -0.2098 -0.1939
  220SOL    HW1  659   1.488   1.038   1.348 -0.9050  0.5603  3.3057
  220SOL    HW2  660   1.468   1.124   1.202  2.8499  1.5723 -1.2975
  221SOL     OW  661   1.292   1.175   2.147 -0.0496  0.3412  0.3721
  221SOL    HW1  662   1.236   1.249   2.099 -2.2289  0.4380  0.1764
  221SOL    HW2  663   1.384   1.159   2.100  0.2644  1.4676 -0.1776
  222SOL     OW  664   1.280   0.077   1.133 -0.0735 -0.2621 -0.3347
  222SOL    HW1  665   1.367   0.039   1.172 -0.7056  1.2136  0.7871
  222SOL    HW2  666   1.248   0.157   1.186 -1.0016 -1.9680  0.2089
  223SOL     OW  667   2.895   0.828   1.965 -0.0100  1.0915  0.1485
  223SOL    HW1  668   2.909   0.835   2.068 -0.2181  1.2042 -0.5164
  223SOL    HW2  669   2.924   0.918   1.918  2.9838 -0.8644 -0.9940
  224SOL     OW  670   1.558   0.985   2.782 -0.2569 -0.0915 -0.1971
  224SOL    HW1  671   1.577   0.915   2.699  2.6536 -3.0695 -0.0611
  224SOL    HW2  672   1.570   1.082   2.751 -0.0040 -0.7595 -1.1915
  225SOL     OW  673   2.979   2.802   2.919 -0.4535  0.1145  0.4855
  225SOL    HW1  674   2.931   2.727   2.863 -0.6694  2.6891 -3.6554
  225SOL    HW2  675   3.054   2.856   2.866  0.7902 -1.1516 -1.3233
  226SOL     OW  676   2.451   1.634   2.873 -0.0589 -0.6561  0.2938
  226SOL    HW1  677   2.500   1.618   2.784 -0.4048  1.1960 -0.3704
  226SOL    HW2  678   2.399   1.558   2.916  0.3171  0.7504 -0.3405
  227SOL     OW  679   0.806   0.130   2.985  0.5402 -0.1341  0.0137
  227SOL    HW1  680   0.862   0.079   3.057  0.7115 -2.2135  0.4235
  227SOL    HW2  681   0.823   0.100   2.885 -0.9505 -0.4109  0.3283
  228SOL     OW  682   2.366   0.575   2.795  0.0052  0.0186  0.2134
  228SOL    HW1  683   2.316   0.605   2.709  1.9409  2.4389 -1.5269
  228SOL    HW2  684   2.423   0.485   2.783 -0.0502  1.0870 -2.3598
  229SOL     OW  685   0.584   0.500   1.864 -0.0207  0.1830  0.0625
  229SOL    HW1  686   0.606   0.494   1.766 -2.0973 -1.9899  0.9191
  229SOL    HW2  687   0.652   0.536   1.930 -1.1125 -1.1203 -2.8832
  230SOL     OW  688   1.917   1.249   2.142 -0.1538 -0.0311 -0.3498
  230SOL    HW1  689   1.976   1.262   2.059 -0.3779  0.7483 -2.2812
  230SOL    HW2  690   1.816   1.267   2.124  0.4071 -0.8995 -3.8745
  231SOL     OW  691   0.645   1.031   2.959  0.5438  0.0640  0.4504
  231SOL    HW1  692   0.742   1.077   2.955  0.9986 -1.2199  1.7340
  231SOL    HW2  693   0.601   1.022   3.054  0.7406  1.1601  0.8201
  232SOL     OW  694   2.529   0.047   2.753 -0.2695 -0.4741 -0.1211
  232SOL    HW1  695   2.583  -0.009   2.819  0.2980  1.7480  0.5974
  232SOL    HW2  696   2.527   0.009   2.657  2.2067  2.0812 -0.9273
  233SOL     OW  697   1.728   1.275   1.047 -0.1550  0.0839 -0.0976
  233SOL    HW1  698   1.749   1.333   0.966 -2.6015 -0.3469  0.1267
  233SOL    HW2  699   1.772   1.179   1.051 -2.1938 -1.5692  0.7973
  234SOL     OW  700   1.624   2.634   1.841  0.0327 -0.3968 -0.0741
  234SOL    HW1  701   1.656   2.670   1.931 -0.8429 -0.4029 -1.3133
  234SOL    HW2  702   1.564   2.552   1.851  2.7197  0.4505  0.6786
  235SOL     OW  703   0.061   3.011   2.844  0.6603  0.4060  0.6246
  235SOL    HW1  704   0.126   3.074   2.792  0.1125  1.4780  0.2420
  235SOL    HW2  705  -0.005   3.070   2.893  0.5851 -0.4297  0.1937
  236SOL     OW  706   2.806   0.703   0.053 -0.2126 -0.4225  0.4774
  236SOL    HW1  707   2.885   0.744   0.111  1.3942 -0.6066  4.4714
  236SOL    HW2  708   2.833   0.624  -0.008 -1.8227 -0.6860 -0.8642
  237SOL     OW  709   1.492   1.626   1.026 -0.1716 -0.7793  0.1277
  237SOL    HW1  710   1.595   1.609   1.026 -1.6425 -1.1064 -1.6857
  237SOL    HW2  711   1.464   1.675   1.112  2.2316  0.1952  2.3079
  238SOL     OW  712   1.762   1.356   0.757 -0.1776 -0.1598 -0.1848
  238SOL    HW1  713   1.860   1.382   0.725 -0.2538  1.4981  3.4869
  238SOL    HW2  714   1.682   1.393   0.705 -1.2764 -1.4171  0.6878
  239SOL     OW  715   2.102   0.243   2.718 -0.0897 -0.2064  0.1545
  239SOL    HW1  716   2.189   0.250   2.773 -2.6583  1.3385 -0.7410
  239SOL    HW2  717   2.030   0.306   2.755  0.4740 -1.4506 -0.1253
  240SOL     OW  718   0.852   0.699   0.214 -0.0244  0.1095  0.5929
  240SOL    HW1  719   0.834   0.613   0.164 -0.1295 -0.4588  1.3343
  240SOL    HW2  720   0.863   0.698   0.320  1.3520  0.3591 -0.6941
  241SOL     OW  721   0.566   0.025   0.314 -0.5042  0.1285  0.5770
  241SOL    HW1  722   0.598  -0.021   0.221  1.4752 -0.4933  0.0830
  241SOL    HW2  723   0.487  -0.019   0.351 -0.0387  1.4211  1.3017
  242SOL     OW  724   0.692   2.401   1.120  0.0530  0.3078  0.7032
  242SOL    HW1  725   0.642   2.472   1.177 -0.6469 -2.2054 -1.3902
  242SOL    HW2  726   0.785   2.434   1.089  0.1709 -0.1533 -0.7550
  243SOL     OW  727   1.083   0.619   2.422  0.1097  0.3182 -0.6478
  243SOL    HW1  728   1.025   0.692   2.370  1.0355 -0.7315 -2.2411
  243SOL    HW2  729   1.019   0.552   2.475 -0.8913 -1.0864 -1.2894
  244SOL     OW  730   2.765   1.934   2.415 -0.8524 -0.2506  1.1399
  244SOL    HW1  731   2.809   1.953   2.324  0.3211  0.3408  1.2435
  244SOL    HW2  732   2.667   1.899   2.410  2.3727  1.3353  0.5380
  245SOL     OW  733   2.458   0.749   2.137 -0.0667  0.2271 -0.9465
  245SOL    HW1  734   2.502   0.804   2.210 -1.4504  0.5658 -1.5390
  245SOL    HW2  735   2.503   0.657   2.119 -0.2100 -2.8364  1.5008
  246SOL     OW  736   0.221   2.880   1.726  0.1665 -0.2352 -0.0954
  246SOL    HW1  737   0.154   2.867   1.645  0.3291  1.2089 -0.4939
  246SOL    HW2  738   0.280   2.964   1.718 -0.6370 -0.2572 -1.7510
  247SOL     OW  739   2.189   0.539   2.999 -0.2320  0.2241 -0.2044
  247SOL    HW1  740   2.260   0.552   2.924  1.2311 -1.4424  2.3542
  247SOL    HW2  741   2.127   0.623   3.008  0.4610  3.5731  1.5312
  248SOL     OW  742   2.189   1.889   1.645  0.2351 -0.3433  0.4500
  248SOL    HW1  743   2.214   1.789   1.659  1.2122 -1.2074 -0.2616
  248SOL    HW2  744   2.091   1.912   1.666 -0.0772 -1.6777  0.1953
  249SOL     OW  745   1.984   1.925   1.944 -0.5629  0.0221 -0.0052
  249SOL    HW1  746   1.971   1.849   1.873  0.3247  0.7067 -1.4929
  249SOL    HW2  747   2.076   1.975   1.933  0.7495  3.0608  2.3092
  250SOL     OW  748   1.000   0.635   1.880  0.3576  0.1912 -0.1591
  250SOL    HW1  749   1.064   0.593   1.951  0.5048 -1.5675  1.0258
  250SOL    HW2  750   1.025   0.621   1.783 -0.7145  2.2507  0.7003
  251SOL     OW  751   3.022   1.554   2.579  0.2780  0.0464  0.1699
  251SOL    HW1  752   3.021   1.654   2.553  1.6053  1.2870  2.0231
  251SOL    HW2  753   2.938   1.503   2.549  0.6581  0.2813 -1.0579
  252SOL     OW  754   1.544   0.887   1.570 -0.1331 -0.2542 -0.9664
  252SOL    HW1  755   1.615   0.935   1.510  1.7151 -3.3049  0.9588
  252SOL    HW2  756   1.497   0.947   1.644 -1.1937  1.6670 -0.5167
  253SOL     OW  757   0.997   1.507   0.385  0.3266 -0.0298 -0.1107
  253SOL    HW1  758   1.053   1.432   0.352 -2.7098 -0.0975  1.1618
  253SOL    HW2  759   0.894   1.486   0.353  0.3715 -5.6116  1.4262
  254SOL     OW  760   1.995   2.151   1.602  0.1714 -0.1685  0.2691
  254SOL    HW1  761   1.942   2.104   1.524 -0.1619  0.3261 -1.1376
  254SOL    HW2  762   1.959   2.125   1.692 -1.0739  1.3048 -0.6992
  255SOL     OW  763   0.078   1.155   2.891 -0.2282  0.1905  0.3191
  255SOL    HW1  764   0.136   1.235   2.900  0.8726 -5.0174 -3.0736
  255SOL    HW2  765   0.122   1.068   2.926  0.7638 -0.2471  1.3164
  256SOL     OW  766   2.781   1.340   1.861  0.7837  0.2590 -0.1205
  256SOL    HW1  767   2.742   1.422   1.812  2.7254  0.8818 -2.2071
  256SOL    HW2  768   2.711   1.267   1.876  2.8979  2.2005 -0.8081
  257SOL     OW  769   0.857   0.241   1.904  0.5367  0.1355  0.2230
  257SOL    HW1  770   0.886   0.302   1.822  0.7681  1.0778  0.8802
  257SOL    HW2  771   0.860   0.139   1.884  1.3525  0.4396  0.3273
  258SOL     OW  772   2.950   1.256   0.419  0.0043  0.5815  0.3843
  258SOL    HW1  773   2.883   1.335   0.408 -0.8060 -0.7724  1.0509
  258SOL    HW2  774   3.005   1.263   0.505 -1.8505  0.3804 -3.2177
  259SOL     OW  775   0.479   2.910   3.000 -0.8327  0.2254  0.0676
  259SOL    HW1  776   0.461   2.835   3.074  0.3757 -0.3735  0.4629
  259SOL    HW2  777   0.482   2.878   2.899 -1.6949  0.7808  0.6369
  260SOL     OW  778   2.640   0.715   2.752 -0.1104  0.2209  0.4003
  260SOL    HW1  779   2.581   0.789   2.709 -0.0189  0.1382  0.0990
  260SOL    HW2  780   2.588   0.627   2.774  1.4515  0.0674  1.6053
  261SOL     OW  781   2.717   1.333   1.301  0.4520  0.7648 -0.0297
  261SOL    HW1  782   2.679   1.252   1.250  0.3482  0.8942  0.3063
  261SOL    HW2  783   2.819   1.326   1.313 -1.5192 -1.6039  1.2436
  262SOL     OW  784   1.482   2.929   2.040  0.3529 -0.1191  0.4179
  262SOL    HW1  785   1.475   3.003   1.964  1.5852 -0.4439  0.6023
  262SOL    HW2  786   1.407   2.858   2.038 -1.7372  2.8726  0.8084
  263SOL     OW  787   0.888   0.782   2.346  0.6517  0.2465 -0.4603
  263SOL    HW1  788   0.828   0.703   2.312  1.8291  1.5896 -0.6753
  263SOL    HW2  789   0.898   0.856   2.269  3.6312  1.1429  1.2793
  264SOL     OW  790   2.278   0.763   0.519  0.3381  0.1177 -0.3725
  264SOL    HW1  791   2.195   0.784   0.465  1.7440  0.8151  3.0504
  264SOL    HW2  792   2.335   0.849   0.516  0.2281  1.3024  0.1591
  265SOL     OW  793   0.857   2.334   2.704  0.5115  0.3630 -0.3911
  265SOL    HW1  794   0.886   2.408   2.770 -2.6378 -1.5982  0.8934
  265SOL    HW2  795   0.818   2.253   2.758 -3.4136 -1.3440  0.5514
  266SOL     OW  796   1.340   1.727   0.031  0.5165 -0.0918  0.3036
  266SOL    HW1  797   1.299   1.810   0.085 -3.0582 -1.7082 -1.0043
  266SOL    HW2  798   1.445   1.718   0.049  1.4706  1.1417 -1.4668
  267SOL     OW  799   1.068   0.034   2.345 -0.4446 -0.1344  0.1225
  267SOL    HW1  800   1.068  -0.045   2.279 -1.5206 -0.2607 -0.5911
  267SOL    HW2  801   1.011   0.117   2.316  1.3516  2.7808  2.9772
  268SOL     OW  802   0.613   1.125   1.036  0.4848  0.3623 -0.4343
  268SOL    HW1  803   0.636   1.180   1.117  1.2253 -2.9556 -1.7669
  268SOL    HW2  804   0.627   1.183   0.950 -1.1091  0.8762 -0.5574
  269SOL     OW  805   2.461   2.565   1.575 -0.0626  0.1627  0.0290
  269SOL    HW1  806   2.537   2.500   1.591 -1.4253 -0.0770  1.0820
  269SOL    HW2  807   2.414   2.596   1.659 -0.6631 -1.2187 -0.3970
  270SOL     OW  808   0.243   2.830   2.028 -0.3485  1.3091 -0.2092
  270SOL    HW1  809   0.216   2.809   1.931  0.4428  1.7818 -0.3584
  270SOL    HW2  810   0.171   2.792   2.093 -2.1397  2.6291  0.0712
  271SOL     OW  811   0.424   1.388   1.170  1.0299  0.1586  0.6698
  271SOL    HW1  812   0.398   1.416   1.070 -0.1675  0.9673 -0.0114
  271SOL    HW2  813   0.356   1.402   1.247  2.4907 -2.4608 -1.7158
  272SOL     OW  814   1.957   2.859   1.911 -0.8526  0.2954 -0.3498
  272SOL    HW1  815   1.882   2.870   1.845  1.4587 -0.1367  1.8054
  272SOL    HW2  816   2.040   2.917   1.884 -0.2443  0.5674  0.5788
  273SOL     OW  817   1.419   1.452   2.865  0.5525  0.1004 -0.0001
  273SOL    HW1  818   1.506   1.461   2.921 -1.1171 -0.1637  0.6788
  273SOL    HW2  819   1.331   1.459   2.921  0.6385 -1.6168 -0.1252
  274SOL     OW  820   1.170   0.504   2.039  0.1254  0.8180  0.1226
  274SOL    HW1  821   1.207   0.421   1.980  2.2583 -1.2833 -1.4818
  274SOL    HW2  822   1.228   0.530   2.116 -0.5919  2.0405 -0.1862
  275SOL     OW  823   0.634   2.070   1.934 -0.3526 -0.3014  0.4972
  275SOL    HW1  824   0.600   2.171   1.950 -0.9069 -0.6552 -0.2616
  275SOL    HW2  825   0.563   2.003   1.900  2.0852  0.3459 -0.6461
  276SOL     OW  826   2.160   0.994   2.805 -0.2043  0.0028 -0.0474
  276SOL    HW1  827   2.086   0.981   2.733  0.5148 -1.9235  3.0190
  276SOL    HW2  828   2.128   0.970   2.896  2.1279 -0.0259  1.3504
  277SOL     OW  829   3.009   0.824   0.202  0.5832  0.1126 -0.3217
  277SOL    HW1  830   3.109   0.849   0.176  1.4761 -1.4632  1.2315
  277SOL    HW2  831   3.023   0.730   0.249  3.1348  1.6902  1.9308
  278SOL     OW  832   0.197   0.275   2.935 -0.1299 -0.0306  0.8885
  278SOL    HW1  833   0.215   0.198   3.000 -0.4339 -0.5798 -0.6956
  278SOL    HW2  834   0.217   0.374   2.980  0.2247  2.6978 -1.2453
  279SOL     OW  835   0.152   3.082   0.879  0.3953 -0.1454 -0.1349
  279SOL    HW1  836   0.188   3.099   0.977 -1.2626 -1.1531  1.6510
  279SOL    HW2  837   0.215   3.109   0.803 -0.2633 -0.8391  0.0396
  280SOL     OW  838   1.652   2.940   2.517  0.1091  0.3323  0.2129
  280SOL    HW1  839   1.731   3.014   2.521  1.3858 -1.4074 -1.0868
  280SOL    HW2  840   1.560   2.990   2.538  3.6946  1.3980  1.4976
  281SOL     OW  841   0.638   0.931   2.356 -0.0175  0.0140  0.6201
  281SOL    HW1  842   0.580   0.854   2.321 -0.2470  1.6018  0.3139
  281SOL    HW2  843   0.690   0.914   2.443 -1.7039  1.6584 -0.1395
  282SOL     OW  844   1.643   2.469   0.559  0.4123 -0.4903  0.1544
  282SOL    HW1  845   1.630   2.418   0.467 -0.6097  0.4263 -1.1231
  282SOL    HW2  846   1.617   2.569   0.550  1.1554 -2.3680 -0.0186
  283SOL     OW  847   1.153   0.957   0.694  0.5357  0.4096 -0.0398
  283SOL    HW1  848   1.172   0.888   0.769  0.3989  2.7809 -1.9486
  283SOL    HW2  849   1.083   1.025   0.725 -0.2824  1.2265  1.7594
  284SOL     OW  850   2.276   2.805   2.407  0.6934 -0.4551 -0.0720
  284SOL    HW1  851   2.358   2.860   2.444 -1.6695 -1.4584 -1.8406
  284SOL    HW2  852   2.245   2.842   2.318 -2.2508  2.1470  1.7927
  285SOL     OW  853   1.402   3.052   2.547 -0.0905 -0.5091  0.2728
  285SOL    HW1  854   1.402   3.055   2.444  1.7569 -0.2562  2.2768
  285SOL    HW2  855   1.307   3.079   2.585 -2.9456 -1.5787 -0.1438
  286SOL     OW  856   0.428   0.484   0.646  0.4084 -0.4568  0.3807
  286SOL    HW1  857   0.406   0.462   0.748 -0.9984  0.9962  1.5305
  286SOL    HW2  858   0.415   0.397   0.587  1.3643 -1.0637 -1.7274
  287SOL     OW  859   0.070   1.341   2.511  0.0207 -0.1597 -0.2133
  287SOL    HW1  860   0.036   1.256   2.564  0.8405 -0.9258 -2.4314
  287SOL    HW2  861   0.012   1.425   2.532 -2.1628  0.6870  1.2865
  288SOL     OW  862   1.581   2.634   1.478 -0.2022  0.1483  0.2498
  288SOL    HW1  863   1.678   2.620   1.516  5.6229 -1.2296 -0.2271
  288SOL    HW2  864   1.568   2.622   1.373 -1.9010  2.0684  0.3820
  289SOL     OW  865   0.683   2.714   0.807  0.3503 -0.1544 -0.6102
  289SOL    HW1  866   0.717   2.795   0.747  1.0009 -0.7275 -1.5166
  289SOL    HW2  867   0.675   2.732   0.908 -2.3745 -0.0835 -1.2405
  290SOL     OW  868   2.957   1.233   1.650 -0.5948  0.2620 -0.5858
  290SOL    HW1  869   2.881   1.262   1.708 -0.0304  0.5037 -3.2744
  290SOL    HW2  870   3.036   1.196   1.705  0.6669  0.2223  0.0684
  291SOL     OW  871   1.974   0.042   0.065 -0.1048 -0.2471  0.0862
  291SOL    HW1  872   2.014   0.019   0.160  2.9634 -0.6621 -1.1072
  291SOL    HW2  873   2.014   0.130   0.024  1.4911  0.1286 -0.8798
  292SOL     OW  874   2.966   1.188   3.047 -0.3437  0.5910 -0.2593
  292SOL    HW1  875   2.887   1.237   3.004 -0.3316 -1.0746 -0.2459
  292SOL    HW2  876   3.046   1.166   2.982  0.2279 -0.2249  0.2928
  293SOL     OW  877   0.572   2.065   0.151 -0.1398  0.6326 -0.4942
  293SOL    HW1  878   0.536   2.131   0.226 -0.3006  0.8781  2.5151
  293SOL    HW2  879   0.670   2.028   0.166  0.2815 -1.1381 -1.1703
  294SOL     OW  880   1.686   2.148   1.835  0.0274  0.4918 -0.1061
  294SOL    HW1  881   1.682   2.202   1.924 -1.0211 -1.1449 -0.4742
  294SOL    HW2  882   1.670   2.203   1.745 -0.1514  1.1466 -1.3647
  295SOL     OW  883   0.938   1.134   0.418 -0.2773 -1.1886  0.3945
  295SOL    HW1  884   1.032   1.126   0.452 -0.2739 -3.7227 -0.4862
  295SOL    HW2  885   0.873   1.132   0.495  2.2063 -3.0893 -3.1259
  296SOL     OW  886   1.281   2.070   2.533  0.3025 -0.3331 -0.4166
  296SOL    HW1  887   1.275   2.124   2.443  1.3848 -2.5098  0.6605
  296SOL    HW2  888   1.297   1.974   2.504 -3.9791  1.4073  0.4849
  297SOL     OW  889   1.523   0.701   1.354 -0.2539 -0.0541  0.3407
  297SOL    HW1  890   1.591   0.624   1.342 -0.0676 -1.0519  1.9184
  297SOL    HW2  891   1.536   0.759   1.441  0.7346  1.2633 -0.5685
  298SOL     OW  892   0.530   1.252   2.833 -0.2131 -0.4443  0.0396
  298SOL    HW1  893   0.553   1.156   2.868 -0.9294 -0.3989  0.5547
  298SOL    HW2  894   0.584   1.282   2.748 -0.4097 -0.1648 -0.5773
  299SOL     OW  895   0.384   0.337   1.437  0.2925 -0.1619 -0.4419
  299SOL    HW1  896   0.390   0.427   1.390 -2.3435  0.2479  0.9929
  299SOL    HW2  897   0.476   0.296   1.461 -1.9852 -1.2618 -0.0336
  300SOL     OW  898   1.221   1.792   2.860  0.1236  0.0689  0.1773
  300SOL    HW1  899   1.226   1.708   2.797 -1.5878 -1.2135  1.5464
  300SOL    HW2  900   1.193   1.763   2.953 -0.8282  1.4377  1.0652
  301SOL     OW  901   0.456   0.282   0.458 -0.1569  0.0369  0.0874
  301SOL    HW1  902   0.363   0.266   0.420 -0.4714 -1.5091  0.1224
  301SOL    HW2  903   0.528   0.230   0.410 -1.9843  1.7107  1.3843
  302SOL     OW  904   1.223   2.303   2.320  0.0302  0.5593 -0.5047
  302SOL    HW1  905   1.157   2.342   2.386  1.6772 -4.8552 -0.0273
  302SOL    HW2  906   1.190   2.206   2.284  1.0576 -0.9267 -0.0971
  303SOL     OW  907   0.930   2.378   0.795 -0.1516 -0.3407 -0.1898
  303SOL    HW1  908   0.969   2.452   0.731  1.8661 -1.5678  2.3182
  303SOL    HW2  909   0.943   2.402   0.894  1.1297 -0.5747 -0.7697
  304SOL     OW  910   0.110   2.057   0.681  0.6264  0.0732 -0.4691
  304SOL    HW1  911   0.134   1.976   0.618  0.5376 -0.4749  0.5313
  304SOL    HW2  912   0.059   2.122   0.623 -0.7271  0.1699 -2.8591
  305SOL     OW  913   1.626   0.880   0.693  0.0385  0.0167  0.1305
  305SOL    HW1  914   1.569   0.891   0.607  1.1358  0.7263 -2.9982
  305SOL    HW2  915   1.702   0.813   0.673 -0.8717  0.3990 -3.7574
  306SOL     OW  916   0.446   1.857   1.915 -0.0731  0.2847 -0.1371
  306SOL    HW1  917   0.514   1.795   1.858  1.7076  0.7485 -2.3131
  306SOL    HW2  918   0.432   1.831   2.014  2.1248  2.2910  0.3696
  307SOL     OW  919   0.030   0.842   2.541 -0.3340 -0.4318  0.2986
  307SOL    HW1  920   0.030   0.946   2.564  0.6094 -0.6763  1.1249
  307SOL    HW2  921  -0.061   0.809   2.576  1.2306 -1.5143 -0.4914
  308SOL     OW  922   1.578   2.665   2.826  0.3184 -0.6510  0.1752
  308SOL    HW1  923   1.599   2.627   2.731 -0.9862 -3.0053  2.6148
  308SOL    HW2  924   1.487   2.637   2.862 -2.6682 -0.5354  2.4640
  309SOL     OW  925   1.233   0.020   1.767 -0.0716 -0.0202 -0.0517
  309SOL    HW1  926   1.321   0.022   1.822 -1.6153 -0.2961 -3.9670
  309SOL    HW2  927   1.249   0.044   1.670  0.1637  0.8371  1.9135
  310SOL     OW  928   1.322   2.674   0.721  0.4080 -0.6145 -0.4620
  310SOL    HW1  929   1.226   2.711   0.730 -0.4228 -0.9872 -0.3910
  310SOL    HW2  930   1.402   2.739   0.700  1.4115  3.0702  1.7899
  311SOL     OW  931   1.211   0.948   1.445  0.2415  0.0556  0.3119
  311SOL    HW1  932   1.299   0.890   1.445  0.1924 -0.6234  2.1585
  311SOL    HW2  933   1.222   1.049   1.457 -0.6418  3.5117  0.0177
  312SOL     OW  934   1.582   0.688   0.993  0.5170  0.1601 -0.7157
  312SOL    HW1  935   1.564   0.790   0.998  1.0077 -0.7643 -1.0020
  312SOL    HW2  936   1.500   0.637   0.962  1.9671  1.0223  0.7947
  313SOL     OW  937   1.570   1.447   0.583  0.2939  0.0071  0.5139
  313SOL    HW1  938   1.488   1.501   0.550 -0.7608  0.1593  3.6425
  313SOL    HW2  939   1.579   1.356   0.538 -3.7275  1.2068  1.0415
  314SOL     OW  940   2.959   0.047   2.984  0.3682 -0.2528 -0.4230
  314SOL    HW1  941   2.953   0.090   3.082  2.8641 -1.4676  0.3412
  314SOL    HW2  942   2.904  -0.042   2.977  0.3787 -1.8483 -0.5460
  315SOL     OW  943   1.249   0.234   2.781 -0.0929  0.1376 -0.4702
  315SOL    HW1  944   1.215   0.156   2.722 -0.5524 -0.5462  3.6749
  315SOL    HW2  945   1.277   0.203   2.877  0.7467  0.4843  0.4556
  316SOL     OW  946   1.669   2.082   0.895  0.2416  0.4129 -0.2226
  316SOL    HW1  947   1.652   2.096   0.993  1.5479 -0.1470 -2.7702
  316SOL    HW2  948   1.661   2.179   0.848 -2.7298  0.1544 -1.0013
  317SOL     OW  949   1.163   0.711   2.841  0.4962 -0.1078  0.1583
  317SOL    HW1  950   1.100   0.746   2.919 -0.7980 -0.3954  0.3089
  317SOL    HW2  951   1.127   0.620   2.808  0.5282  0.5362  0.7186
  318SOL     OW  952   1.414   3.063   2.278  0.3629 -0.1935 -0.5330
  318SOL    HW1  953   1.385   3.158   2.232  1.3050  1.0218  0.8269
  318SOL    HW2  954   1.458   2.992   2.213  0.2276  0.8834  0.1314
  319SOL     OW  955   0.628   2.376   2.944  0.3241  0.3663 -0.1302
  319SOL    HW1  956   0.540   2.330   2.979  1.3548  0.2835 -2.3455
  319SOL    HW2  957   0.706   2.309   2.929 -1.7612  0.9700  2.8010
  320SOL     OW  958   1.613   2.266   0.363  0.4182 -0.3121 -0.0479
  320SOL    HW1  959   1.700   2.215   0.389  1.9283 -0.5435  0.5352
  320SOL    HW2  960   1.528   2.219   0.409 -1.1411 -2.5528  0.4643
  321SOL     OW  961   1.584   2.720   0.528 -0.1975 -0.6000  0.1813
  321SOL    HW1  962   1.518   2.769   0.467 -1.8753 -2.0655 -1.3451
  321SOL    HW2  963   1.669   2.774   0.547  0.3159 -1.4000 -2.1866
  322SOL     OW  964   2.643   1.107   2.248 -0.6739  0.1988  0.5645
  322SOL    HW1  965   2.734   1.112   2.289  0.0845 -0.5040  1.2920
  322SOL    HW2  966   2.582   1.029   2.277 -0.5062  2.1514 -0.6223
  323SOL     OW  967   1.018   2.701   0.852 -0.5232  0.4647 -0.2670
  323SOL    HW1  968   0.995   2.658   0.759 -0.8513 -0.7569  0.2089
  323SOL    HW2  969   1.010   2.801   0.847 -0.0531 -2.3772 -0.1252
  324SOL     OW  970   0.112   2.485   2.446  0.1479 -0.3404 -0.1984
  324SOL    HW1  971   0.102   2.406   2.508 -1.0574  0.6366 -0.4789
  324SOL    HW2  972   0.046   2.563   2.460 -0.1770 -0.1361  0.2997
  325SOL     OW  973   1.184   3.072   0.468  0.1649  0.5480  0.0586
  325SOL    HW1  974   1.220   3.117   0.377 -0.1806  0.5006 -2.5145
  325SOL    HW2  975   1.213   3.119   0.560  0.3475 -3.0687  1.3927
  326SOL     OW  976   2.387   0.749   0.009  0.4662 -0.1256 -0.3721
  326SOL    HW1  977   2.283   0.761  -0.007 -1.6047 -0.1567 -1.5328
  326SOL    HW2  978   2.415   0.652   0.037  1.5192 -0.2088  1.5201
  327SOL     OW  979   2.732   0.422   0.537  0.4349  0.3094  0.1141
  327SOL    HW1  980   2.712   0.392   0.440  0.8950  0.1078  0.4122
  327SOL    HW2  981   2.663   0.393   0.611 -0.2505  0.5359  1.1703
  328SOL     OW  982   2.475   0.600   0.417 -0.0611 -0.5905  0.5305
  328SOL    HW1  983   2.395   0.660   0.450 -0.2182  2.0197  0.0438
  328SOL    HW2  984   2.517   0.551   0.499  0.2274 -3.8160  0.1887
  329SOL     OW  985   2.992   2.979   2.160 -0.0276  0.3173  0.1196
  329SOL    HW1  986   3.054   2.917   2.216  0.2691  2.2370  0.3366
  329SOL    HW2  987   3.036   3.075   2.155  0.5023  3.5692 -0.8049
  330SOL     OW  988   0.544   0.178   1.869 -0.6766 -0.3716  0.1598
  330SOL    HW1  989   0.604   0.254   1.835 -0.0909 -1.0063  2.8072
  330SOL    HW2  990   0.589   0.128   1.946 -1.1838  1.6686  0.5538
  331SOL     OW  991   2.940   1.914   1.120  0.5014 -0.0230 -0.0454
  331SOL    HW1  992   2.998   1.989   1.076 -2.1189 -0.0691  0.8291
  331SOL    HW2  993   2.875   1.957   1.195 -2.6826 -1.7573  0.6927
  332SOL     OW  994   0.415   1.063   0.068 -0.5711  0.3806  0.0951
  332SOL    HW1  995   0.341   1.021   0.009 -0.6329 -0.1085 -1.1482
  332SOL    HW2  996   0.376   1.138   0.134  0.7461 -0.8981  0.3293
  333SOL     OW  997   2.842   1.040   0.266 -0.3938 -0.6049  0.3220
  333SOL    HW1  998   2.889   1.109   0.325  0.7522  0.2892 -2.3209
  333SOL    HW2  999   2.904   0.971   0.223 -1.6936 -0.7886  1.1399
  334SOL     OW 1000   1.650   1.156   1.898  0.4808  0.0162  0.0812
  334SOL    HW1 1001   1.736   1.119   1.846  1.2538  1.1690 -1.6960
  334SOL    HW2 1002   1.663   1.242   1.954  1.4429  2.0288  0.4754
  335SOL     OW 1003   1.973   2.796   2.616  0.0941 -0.3757  0.0955
  335SOL    HW1 1004   1.890   2.811   2.669 -0.1927 -1.5699 -0.4493
  335SOL    HW2 1005   2.057   2.846   2.642 -0.5087  0.8322 -2.8630
  336SOL     OW 1006   0.236   0.098   2.745  0.1182 -0.0212  0.0501
  336SOL    HW1 1007   0.332   0.054   2.728 -0.2505 -2.3303  2.7120
  336SOL    HW2 1008   0.230   0.184   2.805  0.5566 -0.5198 -0.3767
  337SOL     OW 1009   0.931   2.818   2.836 -0.4377  0.0276 -0.0931
  337SOL    HW1 1010   0.918   2.819   2.941 -0.9381 -0.2609  0.2829
  337SOL    HW2 1011   1.016   2.761   2.810  1.1574 -0.4473 -1.8151
  338SOL     OW 1012   0.024   1.024   0.610 -0.6350  0.2353  0.2308
  338SOL    HW1 1013  -0.077   1.017   0.619 -1.5263  0.9067 -1.4826
  338SOL    HW2 1014   0.061   1.120   0.621 -0.8076 -0.1419 -1.8817
  339SOL     OW 1015   1.672   1.371   2.079 -0.3330  0.5245 -0.2865
  339SOL    HW1 1016   1.572   1.398   2.088  1.1599  0.3957  0.7855
  339SOL    HW2 1017   1.736   1.447   2.060 -0.2660 -1.2100  3.2808
  340SOL     OW 1018   2.326   0.757   1.189 -0.3430  0.6245 -0.4664
  340SOL    HW1 1019   2.227   0.786   1.201 -0.6764 -0.7499 -1.9363
  340SOL    HW2 1020   2.341   0.672   1.132 -0.0095  0.1546 -0.1627
  341SOL     OW 1021   1.883   2.154   0.429  0.0505  0.1197 -0.5870
  341SOL    HW1 1022   1.934   2.184   0.344 -0.9505  1.2181 -0.5866
  341SOL    HW2 1023   1.948   2.157   0.514 -1.4270 -1.0410 -1.8599
  342SOL     OW 1024   2.203   2.141   2.756 -0.0918 -0.6091 -0.5944
  342SOL    HW1 1025   2.267   2.070   2.804 -1.3509 -2.9027  2.3431
  342SOL    HW2 1026   2.106   2.122   2.777  1.6888 -0.4719 -2.0286
  343SOL     OW 1027   0.340   0.884   2.845  0.1291 -0.5400  0.2154
  343SOL    HW1 1028   0.349   0.945   2.766 -0.9601 -0.8779 -0.3109
  343SOL    HW2 1029   0.435   0.855   2.877  0.6570  0.2793  1.1756
  344SOL     OW 1030   1.935   1.507   0.363  0.4040 -0.3269  0.2180
  344SOL    HW1 1031   1.963   1.484   0.267  2.2724  4.4645 -0.8229
  344SOL    HW2 1032   1.831   1.514   0.376 -1.0378 -2.5046  0.7297
  345SOL     OW 1033   1.401   2.192   2.833 -0.2262  0.1104 -0.1202
  345SOL    HW1 1034   1.315   2.141   2.802 -0.9326  0.7839 -0.2643
  345SOL    HW2 1035   1.487   2.160   2.783 -0.5848  0.4561 -0.8564
  346SOL     OW 1036   2.409   0.901   1.430 -0.2402  0.0466  0.6450
  346SOL    HW1 1037   2.350   0.980   1.467 -1.4552  0.2692 -1.3939
  346SOL    HW2 1038   2.370   0.855   1.346  1.9373 -3.2414  2.5510
  347SOL     OW 1039   0.698   2.823   1.514 -0.3739  0.4267 -0.6106
  347SOL    HW1 1040   0.687   2.758   1.597 -2.8290  1.7006 -0.0526
  347SOL    HW2 1041   0.611   2.879   1.497 -3.2226 -1.0806 -2.7165
  348SOL     OW 1042   0.088   0.713   2.853  0.3529  0.2739  0.1772
  348SOL    HW1 1043  -0.004   0.714   2.806  2.0838  0.0016  2.4546
  348SOL    HW2 1044   0.167   0.758   2.804 -0.3025  2.5035  1.3554
  349SOL     OW 1045   1.906   0.410   2.819 -0.1049 -0.3345 -0.0919
  349SOL    HW1 1046   1.932   0.495   2.768 -1.6024 -0.1222 -0.5092
  349SOL    HW2 1047   1.833   0.429   2.893  1.3120  2.6472 -0.3219
  350SOL     OW 1048   1.653   0.390   0.379  0.3886  0.5317 -0.2338
  350SOL    HW1 1049   1.714   0.401   0.462  3.4624  0.5559  0.7880
  350SOL    HW2 1050   1.610   0.473   0.338 -0.9341 -0.9435 -1.6901
  351SOL     OW 1051   0.884   0.914   2.107 -0.3409 -0.5259 -1.2915
  351SOL    HW1 1052   0.916   1.006   2.066  0.7376  0.5620 -0.2082
  351SOL    HW2 1053   0.843   0.851   2.036 -1.5945 -2.0442  1.0608
  352SOL     OW 1054   1.987   1.379   0.603  0.0549 -0.2010  0.1302
  352SOL    HW1 1055   1.954   1.436   0.520  2.1414 -0.1545  0.1398
  352SOL    HW2 1056   2.092   1.392   0.624  3.4342  0.6667  0.1072
  353SOL     OW 1057   2.137   2.837   1.141 -0.2330  0.1468 -0.8166
  353SOL    HW1 1058   2.234   2.807   1.165 -0.5274  0.6993 -0.7132
  353SOL    HW2 1059   2.081   2.760   1.104  0.6064  0.1397  0.0923
  354SOL     OW 1060   0.274   1.386   2.890  0.0225  0.2188 -0.5619
  354SOL    HW1 1061   0.250   1.461   2.823  0.1223 -0.5199  1.7440
  354SOL    HW2 1062   0.359   1.337   2.865  0.0450 -0.4879 -0.7591
  355SOL     OW 1063   0.455   1.490   0.576 -0.5037 -0.1889 -0.1490
  355SOL    HW1 1064   0.457   1.596   0.566 -1.0148  2.1802 -0.6396
  355SOL    HW2 1065   0.551   1.447   0.569  2.2643  1.4220 -1.8023
  356SOL     OW 1066   0.888   0.447   2.091 -0.2771 -0.2893  0.1983
  356SOL    HW1 1067   0.988   0.475   2.065  0.3412 -2.3695  1.9838
  356SOL    HW2 1068   0.859   0.363   2.037  2.2168 -1.9403  3.5391
  357SOL     OW 1069   1.041   1.298   0.202 -0.3483  0.3328  0.2662
  357SOL    HW1 1070   0.965   1.311   0.127 -0.6078  2.0572  1.1319
  357SOL    HW2 1071   1.003   1.236   0.278  1.5188  2.2903 -0.8884
  358SOL     OW 1072   1.648   1.630   0.364  0.1527 -0.2810  0.4549
  358SOL    HW1 1073   1.586   1.545   0.367  0.2722 -2.3102 -0.8408
  358SOL    HW2 1074   1.595   1.721   0.353 -0.3759  1.5444  0.4370
  359SOL     OW 1075   1.559   2.717   0.185 -0.1499 -0.0778  0.2769
  359SOL    HW1 1076   1.581   2.632   0.126 -1.1234 -0.4096  0.2820
  359SOL    HW2 1077   1.462   2.725   0.205  0.1647 -2.3273 -0.5737
  360SOL     OW 1078   0.883   0.592   0.493 -0.2609 -0.5354 -0.2373
  360SOL    HW1 1079   0.808   0.596   0.567 -0.4494 -1.3398  2.2815
  360SOL    HW2 1080   0.917   0.495   0.477 -0.5529  2.2446  1.5323
  361SOL     OW 1081   1.247   1.403   0.663 -0.1762  0.1844  0.4916
  361SOL    HW1 1082   1.292   1.400   0.761 -0.8828  0.2479  1.4956
  361SOL    HW2 1083   1.151   1.445   0.661 -0.0425 -0.2607 -1.4604
  362SOL     OW 1084   1.392   1.764   0.801  0.0990  0.1658  0.1137
  362SOL    HW1 1085   1.408   1.715   0.888  0.7190 -0.5364 -0.2905
  362SOL    HW2 1086   1.475   1.815   0.775 -1.5703 -0.5061  0.6185
  363SOL     OW 1087   1.137   1.374   1.993 -0.0550  0.0582 -0.1458
  363SOL    HW1 1088   1.111   1.448   2.061 -1.0154  0.8965  1.2524
  363SOL    HW2 1089   1.200   1.409   1.919  0.1347 -0.5874  0.1220
  364SOL     OW 1090   0.591   2.355   1.951 -0.3450  0.1932 -0.4790
  364SOL    HW1 1091   0.504   2.410   1.963  1.7069  1.3402 -0.7800
  364SOL    HW2 1092   0.645   2.385   1.866 -0.2667  2.5842 -0.3497
  365SOL     OW 1093   1.107   1.890   1.392 -0.7087 -0.0789 -0.7248
  365SOL    HW1 1094   1.019   1.902   1.450 -1.6194  1.7453 -1.2564
  365SOL    HW2 1095   1.094   1.831   1.308 -0.9158  3.0046 -1.2801
  366SOL     OW 1096   2.804   2.060   0.484 -0.0325 -0.0947  0.5008
  366SOL    HW1 1097   2.727   1.993   0.456  0.8273  1.2528  1.0504
  366SOL    HW2 1098   2.895   2.037   0.439  1.7607 -0.5116 -1.0978
  367SOL     OW 1099   0.782   1.240   0.091  0.1637  0.6984  0.6443
  367SOL    HW1 1100   0.816   1.147   0.121 -0.9466  2.8792  2.4829
  367SOL    HW2 1101   0.794   1.235  -0.011  0.5067 -0.0391  0.8414
  368SOL     OW 1102   1.565   0.518   0.666  0.0419  0.1432 -0.1066
  368SOL    HW1 1103   1.508   0.569   0.594 -2.1338 -0.4833  0.4594
  368SOL    HW2 1104   1.659   0.485   0.632  0.4408  0.4146 -0.3357
  369SOL     OW 1105   0.292   1.679   0.095  0.0305  0.8555  0.0054
  369SOL    HW1 1106   0.301   1.771   0.126  0.1013 -2.1521  1.5424
  369SOL    HW2 1107   0.197   1.638   0.103 -0.2935 -2.5501 -2.3440
  370SOL     OW 1108   0.444   2.130   0.971  0.0848  0.0987  0.1420
  370SOL    HW1 1109   0.448   2.231   0.937 -1.7086  1.0302  0.8504
  370SOL    HW2 1110   0.345   2.100   0.969  0.8243 -1.0625  0.7016
  371SOL     OW 1111   2.910   2.220   2.767 -0.7071 -0.1771 -0.0776
  371SOL    HW1 1112   2.906   2.186   2.861  1.4267  1.4285 -3.0714
  371SOL    HW2 1113   3.008   2.223   2.727  0.9151 -0.5436 -1.7623
  372SOL     OW 1114   0.902   1.869   0.978  0.3425 -0.2603 -0.5810
  372SOL    HW1 1115   0.857   1.965   0.975  3.4573  1.5257  0.2606
  372SOL    HW2 1116   0.979   1.863   0.909  1.4315  0.2177 -0.7266
  373SOL     OW 1117   1.964   2.008   0.934  0.0971  0.6426 -0.1912
  373SOL    HW1 1118   2.023   2.018   1.017  2.5228  0.6482 -2.3512
  373SOL    HW2 1119   1.870   2.049   0.947  0.9246 -1.0265  0.9159
  374SOL     OW 1120   1.845   0.412   0.590  0.6152  0.0227  0.3993
  374SOL    HW1 1121   1.865   0.366   0.681  1.0199  0.0156 -2.8906
  374SOL    HW2 1122   1.932   0.396   0.536  2.7259 -0.3307 -0.9952
  375SOL     OW 1123   2.456   2.271   1.083 -0.4790 -0.5455  0.3902
  375SOL    HW1 1124   2.492   2.243   0.993  1.8977  0.7384  0.9663
  375SOL    HW2 1125   2.480   2.209   1.162  2.5135  1.0773 -1.7632
  376SOL     OW 1126   3.071   0.634   1.435 -0.2136 -0.2356  0.4377
  376SOL    HW1 1127   3.132   0.686   1.498 -1.0075  0.7599 -0.5639
  376SOL    HW2 1128   2.970   0.666   1.447 -2.2023 -1.3380  1.7089
  377SOL     OW 1129   2.247   2.868   0.352 -0.0847  0.6411  0.0694
  377SOL    HW1 1130   2.208   2.964   0.351 -0.4447 -1.9739  2.9064
  377SOL    HW2 1131   2.335   2.867   0.405  0.0745  0.4926 -0.5004
  378SOL     OW 1132   1.899   1.866   2.661 -0.3310  0.6205 -0.3900
  378SOL    HW1 1133   1.934   1.777   2.702  0.5970  0.3729 -1.5738
  378SOL    HW2 1134   1.861   1.842   2.570  0.2128 -1.8428  1.7926
  379SOL     OW 1135   0.873   0.095   2.705 -0.2323  0.0555 -0.1499
  379SOL    HW1 1136   0.857  -0.002   2.659  1.3095  0.8956 -1.7880
  379SOL    HW2 1137   0.817   0.171   2.662  1.8654  1.4227 -0.9949
  380SOL     OW 1138   1.537   1.176   0.556  0.1795 -0.2537  0.3489
  380SOL    HW1 1139   1.457   1.112   0.553 -0.5067  0.5867 -0.1146
  380SOL    HW2 1140   1.557   1.202   0.655 -1.6430 -3.1823 -0.6793
  381SOL     OW 1141   1.268   1.210   1.494 -0.0140 -0.3356  0.2165
  381SOL    HW1 1142   1.337   1.210   1.417 -2.4113  0.0624 -0.1086
  381SOL    HW2 1143   1.314   1.219   1.583  1.2812 -0.0014  0.6026
  382SOL     OW 1144   1.759   0.807   0.289 -0.5751  0.2197  0.3613
  382SOL    HW1 1145   1.793   0.797   0.193 -3.0919  0.3028  0.0930
  382SOL    HW2 1146   1.817   0.761   0.364 -2.2954  0.5355 -0.9839
  383SOL     OW 1147   2.633   1.003   1.524 -0.7158 -0.0435 -0.6747
  383SOL    HW1 1148   2.552   0.957   1.484 -0.1478  0.5916 -4.2464
  383SOL    HW2 1149   2.724   0.963   1.486 -1.2680 -0.0730 -0.2199
  384SOL     OW 1150   1.014   2.273   0.159 -0.5874 -0.1971 -0.3584
  384SOL    HW1 1151   0.939   2.346   0.164  2.1892 -0.6954 -0.0714
  384SOL    HW2 1152   1.000   2.205   0.239 -2.4686 -1.0645  4.0806
  385SOL     OW 1153   3.024   2.054   1.692  0.5129 -0.3547  0.1098
  385SOL    HW1 1154   3.082   2.140   1.714  1.8813  2.2959  2.7681
  385SOL    HW2 1155   3.078   1.971   1.677 -2.1799 -3.7654 -4.8919
  386SOL     OW 1156   0.453   1.085   0.428 -0.3557  0.7442  0.0896
  386SOL    HW1 1157   0.464   0.977   0.428  1.4159 -0.3021 -0.9416
  386SOL    HW2 1158   0.385   1.119   0.358 -1.0895 -1.2985  0.0333
  387SOL     OW 1159   0.963   0.360   1.675  0.0040 -0.5484  0.1609
  387SOL    HW1 1160   1.033   0.431   1.671 -1.2596 -0.4622 -1.1595
  387SOL    HW2 1161   0.977   0.293   1.594 -1.9066  0.7979  1.3441
  388SOL     OW 1162   1.237   2.578   1.762 -0.8508  0.0005 -0.0615
  388SOL    HW1 1163   1.264   2.577   1.661  0.6169 -1.6715 -1.9060
  388SOL    HW2 1164   1.295   2.510   1.818  1.8476 -0.4729  0.0589
  389SOL     OW 1165   0.246   0.015   1.136 -0.3576 -0.3673 -0.6556
  389SOL    HW1 1166   0.202   0.005   1.229 -0.6549 -2.6027 -2.5664
  389SOL    HW2 1167   0.312  -0.068   1.115 -0.1805 -2.7166  0.6068
  390SOL     OW 1168   1.025   0.829   1.248 -0.6782 -0.0631  0.7910
  390SOL    HW1 1169   1.126   0.816   1.238 -0.2113  0.3673  0.7411
  390SOL    HW2 1170   0.999   0.801   1.348 -1.7008  0.4529  0.7305
  391SOL     OW 1171   2.144   1.179   1.014 -0.0782 -0.3006 -0.0743
  391SOL    HW1 1172   2.058   1.126   1.027  2.3852  1.2724  0.4105
  391SOL    HW2 1173   2.203   1.141   0.938 -0.2511 -0.8926  0.8872
  392SOL     OW 1174   0.905   2.670  -0.001 -0.2827 -0.4190 -0.5412
  392SOL    HW1 1175   0.826   2.680   0.064 -0.8004 -0.0311  0.5478
  392SOL    HW2 1176   0.989   2.718   0.034  0.6996  0.7021  0.5030
  393SOL     OW 1177   0.339   0.571   1.992 -0.3186  0.5934 -0.0846
  393SOL    HW1 1178   0.266   0.533   1.931  0.7778  2.8177 -0.2826
  393SOL    HW2 1179   0.431   0.552   1.950 -1.0434 -0.6426 -0.6296
  394SOL     OW 1180   2.827   1.764   2.757 -0.2220  0.5375  0.3096
  394SOL    HW1 1181   2.922   1.773   2.714 -3.4032  1.4457  1.6692
  394SOL    HW2 1182   2.780   1.856   2.770  0.1402 -0.1599 -1.6673
  395SOL     OW 1183   1.605   1.942   0.666  0.2173 -0.1164 -0.2028
  395SOL    HW1 1184   1.681   1.895   0.620  1.4758  2.6976  1.0364
  395SOL    HW2 1185   1.645   1.992   0.746 -0.5726 -1.6267 -1.3905
  396SOL     OW 1186   2.771   2.027   1.300 -0.3161  0.1212  0.2642
  396SOL    HW1 1187   2.794   2.039   1.401 -0.2934  0.5797 -0.2377
  396SOL    HW2 1188   2.679   2.071   1.275 -0.6895  3.4897 -1.3719
  397SOL     OW 1189   0.994   2.126   0.655  0.1419 -0.1841 -0.5241
  397SOL    HW1 1190   0.909   2.088   0.613  1.6685  1.5354 -1.2798
  397SOL    HW2 1191   0.971   2.211   0.713 -0.8287  0.5313  3.9120
  398SOL     OW 1192   2.166   0.020   1.091 -0.1438  0.3924  0.2585
  398SOL    HW1 1193   2.118  -0.075   1.108  0.5718 -2.0028  2.5338
  398SOL    HW2 1194   2.101   0.097   1.083  0.8542 -2.6450 -1.3777
  399SOL     OW 1195   2.877   2.606   2.766  0.3253  0.0194  0.6188
  399SOL    HW1 1196   2.830   2.577   2.676  0.4473  0.8057  2.8264
  399SOL    HW2 1197   2.854   2.540   2.841  0.7399 -0.4616 -1.2087
  400SOL     OW 1198   0.803   1.586   1.266  0.2700  0.0742  0.0921
  400SOL    HW1 1199   0.757   1.634   1.346  0.8735 -0.1816 -1.2242
  400SOL    HW2 1200   0.752   1.607   1.177  0.4135 -0.7170 -0.0508
  401SOL     OW 1201   1.858   0.092   1.306 -0.4517 -0.1416  0.0416
  401SOL    HW1 1202   1.914   0.130   1.385 -0.4433  2.0504 -2.0168
  401SOL    HW2 1203   1.767   0.068   1.344  0.9437 -0.9929  1.9052
  402SOL     OW 1204   1.338   0.197   3.038 -0.5618  0.1855  0.4125
  402SOL    HW1 1205   1.433   0.194   3.000  3.2316 -3.0374  2.2572
  402SOL    HW2 1206   1.328   0.283   3.086 -2.5531 -0.9010 -0.4200
  403SOL     OW 1207   2.253   1.788   1.012 -0.0687 -0.0739 -0.0358
  403SOL    HW1 1208   2.349   1.818   1.022 -2.5162  0.8071  1.1897
  403SOL    HW2 1209   2.185   1.864   1.035 -2.4274 -1.2697 -1.6102
  404SOL     OW 1210   0.203   2.449   2.754 -0.3827  0.1567  0.2077
  404SOL    HW1 1211   0.301   2.428   2.751 -0.7703  0.2504  1.3436
  404SOL    HW2 1212   0.176   2.547   2.753 -2.2982 -2.6731 -0.3841
  405SOL     OW 1213   0.229   2.489   0.572  0.3073 -0.8024 -0.0708
  405SOL    HW1 1214   0.232   2.457   0.471  0.0363  0.4851 -1.4672
  405SOL    HW2 1215   0.301   2.561   0.596  0.7261  1.5119  0.9252
  406SOL     OW 1216   0.014   1.554   2.982  0.0791 -0.4501  0.0443
  406SOL    HW1 1217   0.075   1.518   2.904 -0.0100 -0.9968  0.3173
  406SOL    HW2 1218   0.042   1.520   3.075  1.0043 -1.3190 -1.7823
  407SOL     OW 1219   1.557   0.961   0.959 -0.2134 -0.4551  0.4490
  407SOL    HW1 1220   1.558   0.926   0.859  0.8614 -1.9191  0.4397
  407SOL    HW2 1221   1.475   1.026   0.977 -0.5535  2.0625 -2.4494
  408SOL     OW 1222   1.455   2.360   0.930  0.4800 -0.0349 -0.5341
  408SOL    HW1 1223   1.557   2.359   0.899  1.4765 -0.2406  0.7320
  408SOL    HW2 1224   1.417   2.454   0.952 -0.0273  2.1872  2.3583
  409SOL     OW 1225   0.611   0.867   0.687 -0.1589  0.4411  0.3014
  409SOL    HW1 1226   0.538   0.855   0.617 -0.1727  0.3774 -1.5366
  409SOL    HW2 1227   0.673   0.785   0.692 -1.3975 -1.8228  1.8144
  410SOL     OW 1228   1.334   2.002   1.496 -0.9618 -0.0304  0.0290
  410SOL    HW1 1229   1.304   2.076   1.566  1.9506  0.6095  0.1757
  410SOL    HW2 1230   1.256   1.953   1.458  2.5923  2.1060 -0.5124
  411SOL     OW 1231   2.352   1.856   0.054 -0.4097  0.2247 -0.5285
  411SOL    HW1 1232   2.274   1.841  -0.011 -1.3184 -2.1599 -1.5847
  411SOL    HW2 1233   2.444   1.878   0.008 -0.0021 -0.8754  2.0899
  412SOL     OW 1234   1.544   2.412   2.283 -0.8722  0.5629  0.3303
  412SOL    HW1 1235   1.543   2.511   2.261 -0.3490 -2.0476 -0.0265
  412SOL    HW2 1236   1.486   2.374   2.359 -1.0018  0.6838 -0.7407
  413SOL     OW 1237   3.025   0.282   2.881 -0.3501 -0.3116  0.3894
  413SOL    HW1 1238   2.996   0.188   2.909  2.2250 -0.8721 -3.3570
  413SOL    HW2 1239   3.129   0.288   2.874 -1.2577  0.6248 -1.3218
  414SOL     OW 1240   1.766   1.301   1.325 -0.0880  0.2351  0.3546
  414SOL    HW1 1241   1.709   1.368   1.386  0.8433 -1.2346 -2.1855
  414SOL    HW2 1242   1.741   1.302   1.226  1.1960 -0.2183  0.2874
  415SOL     OW 1243   0.307   2.268   0.718  0.3914  0.1618 -0.7008
  415SOL    HW1 1244   0.283   2.349   0.655  1.8511 -0.1137  3.2166
  415SOL    HW2 1245   0.237   2.192   0.719  2.1249 -1.6215  2.2342
  416SOL     OW 1246   0.321   1.020   1.045  0.2335  0.2364  0.6266
  416SOL    HW1 1247   0.272   0.999   0.955 -1.1122 -0.3474 -1.7408
  416SOL    HW2 1248   0.386   1.098   1.031  0.0262 -1.7588  1.1076
  417SOL     OW 1249   2.181   2.328   1.872 -0.0446 -0.2608 -0.3237
  417SOL    HW1 1250   2.222   2.242   1.914 -1.7338  0.9421  1.3525
  417SOL    HW2 1251   2.078   2.320   1.884  0.5854 -2.2893 -0.7106
  418SOL     OW 1252   1.119   0.459   1.378  0.0545 -0.5376 -0.0967
  418SOL    HW1 1253   1.032   0.429   1.331  0.6089 -1.9093  1.4745
  418SOL    HW2 1254   1.201   0.455   1.324  1.2475 -2.3028 -0.5056
  419SOL     OW 1255   0.971   0.358   2.985  0.3193 -0.0510  0.3034
  419SOL    HW1 1256   1.013   0.405   2.902  0.5629  0.3924  0.7538
  419SOL    HW2 1257   0.899   0.287   2.961  2.7240 -1.5533  1.8023
  420SOL     OW 1258   0.188   2.284   0.364  0.2987  0.4161  0.1553
  420SOL    HW1 1259   0.176   2.246   0.261  0.3929 -0.6473 -0.6516
  420SOL    HW2 1260   0.096   2.272   0.412  1.6223 -0.5246 -0.2210
  421SOL     OW 1261   0.332   0.067   0.685  0.0275 -0.1512  0.0361
  421SOL    HW1 1262   0.347  -0.010   0.619 -0.1068 -1.4569  0.3601
  421SOL    HW2 1263   0.420   0.115   0.705  0.8009 -0.4337 -0.9935
  422SOL     OW 1264   0.941   2.520   1.039 -0.0714  0.1364 -0.3745
  422SOL    HW1 1265   0.969   2.602   0.984 -0.5173 -2.5924 -0.5868
  422SOL    HW2 1266   0.946   2.525   1.144  0.6398 -1.5678  0.2293
  423SOL     OW 1267   0.057   0.725   1.194  0.1258 -0.4260  0.7119
  423SOL    HW1 1268   0.016   0.680   1.277  0.7460  1.1682  0.0224
  423SOL    HW2 1269  -0.012   0.761   1.129 -1.9146 -1.2663 -1.0123
  424SOL     OW 1270   0.980   2.139   2.216  0.2918  0.2908 -0.1451
  424SOL    HW1 1271   0.932   2.134   2.128  0.1511 -0.2283  0.7719
  424SOL    HW2 1272   0.920   2.165   2.297  1.2231 -0.8039 -1.1931
  425SOL     OW 1273   2.011   1.439   1.079  0.2736  0.1939 -0.0740
  425SOL    HW1 1274   2.052   1.347   1.081  4.9901  1.3785 -2.2537
  425SOL    HW2 1275   2.047   1.507   1.009 -1.9936 -0.5112 -0.2217
  426SOL     OW 1276   1.572   1.538   1.405 -0.0082 -0.4468  0.2600
  426SOL    HW1 1277   1.525   1.607   1.342  0.6624  1.3077  1.8046
  426SOL    HW2 1278   1.527   1.534   1.500  1.0099  0.1306 -0.5888
  427SOL     OW 1279   1.924   2.342   2.039  0.3083 -0.0579  0.0659
  427SOL    HW1 1280   1.991   2.289   2.095 -2.0322  1.6895  0.7555
  427SOL    HW2 1281   1.954   2.438   2.031  1.5665  0.5585  0.0009
  428SOL     OW 1282   0.937   3.069   0.087  0.2936 -0.5836  0.5170
  428SOL    HW1 1283   0.977   3.148   0.140  2.5235  0.1024 -2.7997
  428SOL    HW2 1284   1.002   2.985   0.086 -1.3324  1.6564 -0.8749
  429SOL     OW 1285   1.315   0.048   0.227 -0.1779 -0.6349 -0.1665
  429SOL    HW1 1286   1.406   0.105   0.228  1.4045 -1.3432 -1.6256
  429SOL    HW2 1287   1.297   0.011   0.133 -0.1111 -2.4466 -2.0379
  430SOL     OW 1288   2.790   1.490   0.348  0.4068  0.0478  0.2332
  430SOL    HW1 1289   2.820   1.567   0.285  1.7659 -3.5818  1.2479
  430SOL    HW2 1290   2.787   1.524   0.444 -1.1304 -0.5742  0.9442
  431SOL     OW 1291   2.105   1.597   0.873 -0.5007 -0.0814  0.1861
  431SOL    HW1 1292   2.176   1.657   0.918  0.0923 -0.1850  0.3141
  431SOL    HW2 1293   2.015   1.650   0.864  1.2601  2.4911 -1.7486
  432SOL     OW 1294   2.880   2.321   1.226 -0.0417  1.0478  0.3721
  432SOL    HW1 1295   2.796   2.258   1.236 -0.6994 -0.0616  0.5268
  432SOL    HW2 1296   2.945   2.328   1.308  3.9180 -0.1845  1.8567
  433SOL     OW 1297   1.856   0.271   0.812 -0.0841  0.4308 -0.3036
  433SOL    HW1 1298   1.774   0.292   0.876 -1.0667  0.8889  1.6935
  433SOL    HW2 1299   1.924   0.217   0.865  0.2818 -0.9229  0.8425
  434SOL     OW 1300   1.529   0.247   0.712  0.3825  0.0140  0.3372
  434SOL    HW1 1301   1.536   0.356   0.700  1.6597  1.2971 -0.1215
  434SOL    HW2 1302   1.542   0.218   0.807  0.2248 -0.8679 -2.5079
  435SOL     OW 1303   1.429   1.475   2.099  0.2384  0.2071  0.2505
  435SOL    HW1 1304   1.375   1.463   2.189 -2.2312 -0.8732  1.6721
  435SOL    HW2 1305   1.415   1.569   2.052 -0.3796  2.0232 -0.4249
  436SOL     OW 1306   1.647   2.687   2.380  0.1218  0.1736  0.0584
  436SOL    HW1 1307   1.648   2.785   2.420  1.6912 -0.5756 -1.4621
  436SOL    HW2 1308   1.601   2.619   2.442 -1.8838 -0.4498 -3.2808
  437SOL     OW 1309   0.997   2.982   0.849  0.3387  0.3288 -0.9365
  437SOL    HW1 1310   0.930   3.058   0.872 -1.4960 -0.7005  1.8687
  437SOL    HW2 1311   1.071   2.969   0.923  0.5953 -1.2024  0.4106
  438SOL     OW 1312   1.003   2.518   1.331  0.0606 -0.3339  0.3383
  438SOL    HW1 1313   1.077   2.553   1.398 -1.3146  1.3870 -0.4125
  438SOL    HW2 1314   1.002   2.415   1.344  1.7897  2.4909  1.6493
  439SOL     OW 1315   0.704   1.710   1.051 -0.3455  0.2293  0.2284
  439SOL    HW1 1316   0.777   1.781   1.033 -0.6349  1.1940  0.8148
  439SOL    HW2 1317   0.622   1.738   1.112 -2.5484  0.2122 -0.5861
  440SOL     OW 1318   0.969   2.364   1.985  0.6410 -0.1684 -0.3362
  440SOL    HW1 1319   0.928   2.426   1.911 -0.9353 -1.3210  0.5448
  440SOL    HW2 1320   1.052   2.411   2.033  3.2784  0.6895 -2.0597
  441SOL     OW 1321   0.382   2.760   1.299 -0.1091 -0.1606 -0.1438
  441SOL    HW1 1322   0.437   2.672   1.306  0.8778 -0.5878 -2.3363
  441SOL    HW2 1323   0.371   2.792   1.201 -0.8665  2.2635 -1.8504
  442SOL     OW 1324   2.238   0.664   2.560  0.0132 -0.2696  0.0092
  442SOL    HW1 1325   2.266   0.575   2.516  1.4016 -0.3972  0.2745
  442SOL    HW2 1326   2.145   0.698   2.522  0.1958 -0.3552  2.3019
  443SOL     OW 1327   1.249   2.531   2.198 -0.1824 -0.7168  0.5658
  443SOL    HW1 1328   1.247   2.432   2.239  1.1457 -1.5747  1.2464
  443SOL    HW2 1329   1.207   2.598   2.262 -1.7222 -0.2332  0.7407
  444SOL     OW 1330   0.988   1.202   1.480  0.5547 -0.2987  0.0619
  444SOL    HW1 1331   1.085   1.183   1.502 -0.7297  0.1750 -1.9648
  444SOL    HW2 1332   0.966   1.300   1.467  0.3259 -1.7456  0.0768
  445SOL     OW 1333   0.170   2.242   2.118  0.5140 -0.1302  0.2810
  445SOL    HW1 1334   0.097   2.189   2.066 -1.3972  3.5139  1.5530
  445SOL    HW2 1335   0.160   2.240   2.218  1.8392  0.5936 -2.2290
  446SOL     OW 1336   0.103   1.950   2.384 -0.1532 -0.1889 -0.7847
  446SOL    HW1 1337   0.070   2.050   2.370 -1.3809 -0.7574 -3.0259
  446SOL    HW2 1338   0.109   1.897   2.296 -1.0230  1.1298  1.5999
  447SOL     OW 1339   1.305   1.712   1.903 -0.3003  0.2111 -0.0277
  447SOL    HW1 1340   1.242   1.780   1.857 -0.0106  1.2186  0.7040
  447SOL    HW2 1341   1.381   1.750   1.963  0.1847 -0.8128 -1.0479
  448SOL     OW 1342   0.176   1.472   2.020  0.0070  0.1824  0.3739
  448SOL    HW1 1343   0.176   1.561   1.972 -0.4723 -1.0766  2.4081
  448SOL    HW2 1344   0.101   1.460   2.094 -1.7780 -2.5659  2.2643
  449SOL     OW 1345   1.828   2.940   0.826 -0.6325  0.0115  0.1189
  449SOL    HW1 1346   1.827   2.969   0.928  0.5629 -1.2612 -0.2518
  449SOL    HW2 1347   1.877   2.854   0.822 -0.5897  0.6305  0.4389
  450SOL     OW 1348   2.234   1.462   0.679  0.0229 -0.4791 -0.4148
  450SOL    HW1 1349   2.196   1.510   0.762 -1.4579 -0.1592 -2.3634
  450SOL    HW2 1350   2.290   1.527   0.623 -0.7373 -0.3364 -0.9512
  451SOL     OW 1351   1.412   2.978   1.475  0.0574 -0.0634  0.5986
  451SOL    HW1 1352   1.364   3.064   1.507 -1.0613 -1.3920  1.4926
  451SOL    HW2 1353   1.467   2.931   1.546 -2.3001  3.7350 -0.2434
  452SOL     OW 1354   2.708   2.299   2.273  0.1162  0.1573  0.0338
  452SOL    HW1 1355   2.660   2.391   2.265  0.8904 -0.8928  0.0772
  452SOL    HW2 1356   2.722   2.273   2.375  0.1162  0.5259 -0.1447
  453SOL     OW 1357   2.449   2.656   3.089  0.1935  0.1999 -0.3145
  453SOL    HW1 1358   2.362   2.706   3.118 -3.7750  3.8397 -0.0517
  453SOL    HW2 1359   2.426   2.580   3.021  1.6586  0.8994 -2.5554
  454SOL     OW 1360   0.936   1.194   2.014  0.0576 -0.2431  0.6292
  454SOL    HW1 1361   0.907   1.183   1.917  1.4766  0.5237  0.9295
  454SOL    HW2 1362   1.018   1.258   2.019  0.8052 -0.8635 -0.9159
  455SOL     OW 1363   0.697   2.610   2.806 -0.8351 -0.4204 -0.4182
  455SOL    HW1 1364   0.789   2.660   2.819  2.1967 -1.0153 -0.1959
  455SOL    HW2 1365   0.691   2.537   2.880  3.1060  2.6102  1.5906
  456SOL     OW 1366   0.305   1.930   0.227  0.1343 -0.0743  0.2829
  456SOL    HW1 1367   0.407   1.950   0.223  0.8989 -3.3764 -0.5338
  456SOL    HW2 1368   0.245   2.000   0.179  1.7581  2.8585  1.4670
  457SOL     OW 1369   0.395   2.712   0.679 -0.1242  0.4422  0.5909
  457SOL    HW1 1370   0.375   2.772   0.592 -1.8790  2.8188  1.0188
  457SOL    HW2 1371   0.494   2.712   0.707  0.1610  2.4542 -0.7816
  458SOL     OW 1372   2.939   0.033   1.262  0.4259  0.5137 -0.2323
  458SOL    HW1 1373   2.993   0.122   1.253 -1.1214  0.4276 -1.6531
  458SOL    HW2 1374   2.938  -0.031   1.176 -2.3300 -1.3844 -0.0464
  459SOL     OW 1375   2.142   2.505   0.729  0.2382 -0.8519  0.3209
  459SOL    HW1 1376   2.192   2.505   0.820 -0.7266  0.1127  0.5115
  459SOL    HW2 1377   2.214   2.489   0.659  1.6748  0.3160  3.6681
  460SOL     OW 1378   1.152   2.036   2.765 -0.0255  0.2305 -0.0863
  460SOL    HW1 1379   1.187   2.048   2.668 -2.0905  2.8203  0.8804
  460SOL    HW2 1380   1.176   1.943   2.806 -0.0383 -0.8430 -0.2453
  461SOL     OW 1381   0.468   2.138   2.713 -0.0707 -0.0374  0.0011
  461SOL    HW1 1382   0.470   2.073   2.639  1.7898 -0.3165 -0.3288
  461SOL    HW2 1383   0.487   2.093   2.801 -1.5716 -1.0825 -1.4035
  462SOL     OW 1384   0.945   1.018   1.748  0.2350 -0.1448  0.1109
  462SOL    HW1 1385   0.917   0.943   1.685 -0.2041  0.3730 -0.9190
  462SOL    HW2 1386   0.896   1.106   1.737  0.1180  0.5366  0.9020
  463SOL     OW 1387   0.435   0.809   0.464  0.5116  0.0835 -0.1405
  463SOL    HW1 1388   0.465   0.712   0.451  0.6508 -2.1543 -0.5182
  463SOL    HW2 1389   0.331   0.809   0.485 -1.4447 -1.1483 -0.2688
  464SOL     OW 1390   0.606   2.359   2.269 -0.2481 -0.4487 -0.4797
  464SOL    HW1 1391   0.541   2.428   2.311  1.8614 -2.1572  1.6693
  464SOL    HW2 1392   0.583   2.341   2.170  0.8312  4.3602 -0.0067
  465SOL     OW 1393   0.229   0.962   0.786 -0.1196 -1.0868 -0.1323
  465SOL    HW1 1394   0.152   0.984   0.720 -0.2446  1.9065  1.5383
  465SOL    HW2 1395   0.249   0.861   0.800  1.0214 -3.0986 -1.1994
  466SOL     OW 1396   1.330   1.154   1.007  0.1416  0.2028  0.9172
  466SOL    HW1 1397   1.315   1.245   0.957 -1.8334  1.3264 -0.1430
  466SOL    HW2 1398   1.239   1.113   1.038  0.3887 -0.8399 -1.5684
  467SOL     OW 1399   0.625   0.461   2.529 -0.1008 -0.7010 -0.1077
  467SOL    HW1 1400   0.552   0.535   2.534 -0.6489  1.1985 -2.9648
  467SOL    HW2 1401   0.612   0.385   2.599 -1.1349  0.1587  0.1787
  468SOL     OW 1402   0.465   2.263   1.590 -0.1905  0.1747  0.1228
  468SOL    HW1 1403   0.546   2.308   1.638  0.2079 -1.1584  1.1077
  468SOL    HW2 1404   0.478   2.266   1.488  2.3023 -3.7442  0.8243
  469SOL     OW 1405   1.431   1.348   1.215 -0.3792  0.3221 -0.2606
  469SOL    HW1 1406   1.472   1.328   1.119  1.1268 -1.8207 -1.4768
  469SOL    HW2 1407   1.490   1.397   1.283 -1.8631 -1.2367 -2.1190
  470SOL     OW 1408   3.006   1.815   0.797 -0.0268 -0.2448 -0.2828
  470SOL    HW1 1409   3.090   1.870   0.765  1.0551  0.8245 -1.5890
  470SOL    HW2 1410   3.020   1.719   0.829  2.4179  2.2583  0.0960
  471SOL     OW 1411   2.637   1.378   2.191 -0.5701  0.1938 -0.1874
  471SOL    HW1 1412   2.643   1.275   2.215 -1.4600 -0.2408  0.7671
  471SOL    HW2 1413   2.705   1.439   2.238  0.2893 -0.0622  1.8099
  472SOL     OW 1414   1.164   2.474   0.046 -1.0874  0.6408  0.5149
  472SOL    HW1 1415   1.207   2.522   0.126  0.5703 -0.5624  1.0120
  472SOL    HW2 1416   1.111   2.390   0.079  2.7678 -0.1887  0.7561
  473SOL     OW 1417   1.087   1.528   1.000 -0.2051  0.2214  0.3539
  473SOL    HW1 1418   0.989   1.539   0.968  1.5557  0.9342 -0.9908
  473SOL    HW2 1419   1.095   1.459   1.077 -0.0459 -2.7173 -1.9648
  474SOL     OW 1420   0.636   1.285   0.512  0.3927 -0.1282  0.5072
  474SOL    HW1 1421   0.567   1.218   0.468  0.5968 -2.2678  0.0800
  474SOL    HW2 1422   0.692   1.227   0.579 -0.8650  0.3211  1.3989
  475SOL     OW 1423   2.823   0.059   0.812 -0.1257 -0.2085 -0.4943
  475SOL    HW1 1424   2.872   0.153   0.812  2.0201 -0.9167  1.1495
  475SOL    HW2 1425   2.740   0.048   0.876 -0.7818  0.9275 -1.3123
  476SOL     OW 1426   0.959   3.069   1.816  0.3636  0.1548 -0.4133
  476SOL    HW1 1427   1.060   3.076   1.830 -0.6665  1.2906 -0.2388
  476SOL    HW2 1428   0.931   3.086   1.718  0.1553  1.1574  1.4941
  477SOL     OW 1429   1.434   0.325   2.424  0.0533 -0.0010  0.0770
  477SOL    HW1 1430   1.442   0.351   2.525  0.4375 -1.3819 -0.3500
  477SOL    HW2 1431   1.520   0.279   2.390 -1.3024 -0.9174 -2.4683
  478SOL     OW 1432   2.214   1.895   0.279  0.2418 -0.1082 -0.0080
  478SOL    HW1 1433   2.167   1.812   0.310 -1.3814  0.3386 -2.9427
  478SOL    HW2 1434   2.266   1.881   0.187 -1.1289  0.1672  0.7080
  479SOL     OW 1435   1.313   0.930   2.901 -0.7618  0.1936  0.3229
  479SOL    HW1 1436   1.409   0.945   2.860  1.1866 -3.4584  1.3374
  479SOL    HW2 1437   1.254   0.865   2.840  0.6424 -0.4005 -0.4482
  480SOL     OW 1438   2.682   2.301   0.399 -0.6072 -0.0702 -0.4300
  480SOL    HW1 1439   2.741   2.217   0.419  1.2008  1.8496 -0.0960
  480SOL    HW2 1440   2.586   2.271   0.381 -0.2625  2.4106 -0.2609
  481SOL     OW 1441   0.988   1.155   0.862  0.5249  0.0796  0.3989
  481SOL    HW1 1442   1.046   1.234   0.834  0.8754 -0.6669  2.8524
  481SOL    HW2 1443   1.022   1.109   0.952  0.1104 -0.9115  2.0139
  482SOL     OW 1444   1.627   0.293   2.017 -0.5304 -0.3285 -0.4990
  482SOL    HW1 1445   1.651   0.394   2.005  1.7778  0.1070  1.2064
  482SOL    HW2 1446   1.706   0.238   2.062 -0.1942 -1.4991  1.1804
  483SOL     OW 1447   0.172   2.348   1.186  1.2640  0.0940  0.1589
  483SOL    HW1 1448   0.144   2.397   1.271  0.6100  0.6460 -1.5735
  483SOL    HW2 1449   0.187   2.411   1.099 -0.8607  1.1452 -0.8335
  484SOL     OW 1450   1.717   1.059   1.431 -0.1401  0.0402 -0.9787
  484SOL    HW1 1451   1.793   0.998   1.471  0.4739 -0.1704 -3.3367
  484SOL    HW2 1452   1.752   1.147   1.397 -0.7632 -0.3242 -0.1049
  485SOL     OW 1453   0.763   0.772   1.908  0.5355  0.2664  0.2515
  485SOL    HW1 1454   0.723   0.800   1.817 -1.8716  0.5335 -1.5699
  485SOL    HW2 1455   0.831   0.698   1.896  0.4593  1.1099 -0.3341
  486SOL     OW 1456   0.883   1.884   2.447 -0.1097 -0.4419 -0.3624
  486SOL    HW1 1457   0.871   1.904   2.554  0.6345 -0.0077  1.1734
  486SOL    HW2 1458   0.824   1.947   2.395  2.1344 -0.1718 -0.0678
  487SOL     OW 1459   1.764   1.591   1.077 -0.0399  0.1969 -0.1347
  487SOL    HW1 1460   1.840   1.529   1.107 -1.4022 -0.8985  0.2281
  487SOL    HW2 1461   1.791   1.639   0.989 -1.0424  2.7925  2.1980
  488SOL     OW 1462   2.922   0.796   2.256 -0.0850 -0.1076  0.6500
  488SOL    HW1 1463   3.003   0.736   2.272 -0.7166  0.4844  0.7417
  488SOL    HW2 1464   2.847   0.791   2.331 -1.4567 -0.0491 -0.1230
  489SOL     OW 1465   2.774   0.348   1.299  0.0068  0.0689 -0.4704
  489SOL    HW1 1466   2.773   0.285   1.380  1.1730  0.2477 -0.4882
  489SOL    HW2 1467   2.868   0.355   1.259  0.6887 -0.9247  0.6497
  490SOL     OW 1468   1.469   2.948   2.820 -0.4093  0.0185 -0.4130
  490SOL    HW1 1469   1.497   2.849   2.806 -0.1794  0.8740 -0.9674
  490SOL    HW2 1470   1.456   3.005   2.733 -0.8415 -0.7099  0.2549
  491SOL     OW 1471   1.784   1.458   2.723 -0.3002  0.3227  0.5198
  491SOL    HW1 1472   1.763   1.403   2.810 -2.3640  2.0778  1.5544
  491SOL    HW2 1473   1.867   1.523   2.733 -0.2970  1.2288 -3.1249
  492SOL     OW 1474   0.572   2.100   0.596 -0.6090  0.2074  0.4201
  492SOL    HW1 1475   0.617   2.103   0.697 -0.4852 -0.8226  0.4360
  492SOL    HW2 1476   0.482   2.144   0.596  2.8503 -1.2525  1.5291
  493SOL     OW 1477   0.408   1.323   2.088  0.3659  0.0676 -0.0880
  493SOL    HW1 1478   0.324   1.364   2.044 -0.3307  0.2044 -1.8448
  493SOL    HW2 1479   0.386   1.237   2.140  1.2182  2.9224  4.0563
  494SOL     OW 1480   2.718   2.648   0.112  0.3270  0.0200 -0.5988
  494SOL    HW1 1481   2.706   2.642   0.217  1.3619 -0.9654  0.2881
  494SOL    HW2 1482   2.629   2.684   0.065  0.8349  0.7424 -1.7499
  495SOL     OW 1483   2.539   2.819   2.640  0.1730  0.1538  0.5195
  495SOL    HW1 1484   2.552   2.717   2.634 -0.3516 -1.4590 -0.0209
  495SOL    HW2 1485   2.611   2.871   2.581  1.4546  2.4734 -2.8663
  496SOL     OW 1486   1.945   2.309   0.838 -0.2717 -0.6012  0.2152
  496SOL    HW1 1487   1.985   2.338   0.928 -1.8086 -1.9851 -0.7756
  496SOL    HW2 1488   1.978   2.217   0.807 -0.9178 -3.3579 -1.0112
  497SOL     OW 1489   0.231   3.001   2.344 -0.7659  0.1381 -0.1676
  497SOL    HW1 1490   0.199   3.057   2.429 -0.8845  1.4140  3.5171
  497SOL    HW2 1491   0.297   3.051   2.276  1.4963  3.3534 -0.4694
  498SOL     OW 1492   1.146   1.347   1.207 -0.0961  0.6600  0.0589
  498SOL    HW1 1493   1.244   1.364   1.223 -1.1404 -2.2194 -0.8917
  498SOL    HW2 1494   1.092   1.360   1.296 -0.6110 -1.7486 -1.5804
  499SOL     OW 1495   0.594   1.839   0.346 -0.1527  0.2055 -0.3151
  499SOL    HW1 1496   0.617   1.769   0.272  1.1357  0.9329  0.6186
  499SOL    HW2 1497   0.669   1.906   0.369  1.0744 -0.7372 -0.2403
  500SOL     OW 1498   1.539   2.824   1.645 -0.0115  0.8560 -0.1564
  500SOL    HW1 1499   1.565   2.778   1.731  0.3986  0.2102  1.2185
  500SOL    HW2 1500   1.549   2.762   1.559  0.2159 -0.9544 -2.2016
  501SOL     OW 1501   0.805   1.172   2.262  0.6643  0.1732 -0.0430
  501SOL    HW1 1502   0.751   1.085   2.260  1.5373 -1.2658  2.0921
  501SOL    HW2 1503   0.857   1.201   2.179 -1.8752 -1.5671  0.4502
  502SOL     OW 1504   2.590   0.911   1.804  0.4192 -0.2633 -0.3771
  502SOL    HW1 1505   2.632   0.931   1.712 -0.9173  0.3206  4.7238
  502SOL    HW2 1506   2.579   0.807   1.822  1.0028 -1.0802  0.1814
  503SOL     OW 1507   1.281   0.109   0.690  0.5049 -0.3997  0.1705
  503SOL    HW1 1508   1.222   0.195   0.694  2.6188  0.0588 -1.0412
  503SOL    HW2 1509   1.382   0.134   0.693  1.2513  1.8127 -0.6773
  504SOL     OW 1510   3.004   2.348   1.481  0.1618 -0.7961 -0.6291
  504SOL    HW1 1511   2.943   2.411   1.533  1.3171  0.4922  2.2489
  504SOL    HW2 1512   3.086   2.313   1.535  0.5180  0.9538 -1.5971
  505SOL     OW 1513   2.305   1.139   1.501 -0.2828 -0.0396  0.2832
  505SOL    HW1 1514   2.276   1.172   1.404 -0.6277  2.2747 -0.9381
  505SOL    HW2 1515   2.375   1.208   1.534  0.4003  2.7130 -2.4602
  506SOL     OW 1516   1.953   0.162   1.868 -0.3068  0.2506 -0.5355
  506SOL    HW1 1517   2.057   0.166   1.878 -0.0247 -0.0719 -2.6179
  506SOL    HW2 1518   1.922   0.255   1.847 -0.1362 -2.2966 -1.4699
  507SOL     OW 1519   0.502   0.739   2.220  0.0801 -1.0204  0.1190
  507SOL    HW1 1520   0.428   0.712   2.148 -3.6733  1.6224 -1.0191
  507SOL    HW2 1521   0.578   0.669   2.234 -1.4943 -2.5968 -3.3204
  508SOL     OW 1522   0.267   1.660   0.807  0.0329  0.2109 -0.0152
  508SOL    HW1 1523   0.335   1.702   0.742 -1.8536  2.0888 -1.5795
  508SOL    HW2 1524   0.263   1.717   0.901  1.9257  2.7728  1.3452
  509SOL     OW 1525   1.310   1.215   2.462  0.1479 -0.1112 -0.0656
  509SOL    HW1 1526   1.316   1.253   2.365  1.7092 -0.3312 -2.0853
  509SOL    HW2 1527   1.217   1.171   2.485 -1.0411 -3.0984  1.0010
  510SOL     OW 1528   1.295   2.029   2.228  0.0872  0.0973 -0.2738
  510SOL    HW1 1529   1.329   2.044   2.130  0.7026  0.6631  1.3694
  510SOL    HW2 1530   1.229   1.952   2.239 -0.0352 -0.6111 -0.9870
  511SOL     OW 1531   2.993   2.702   1.313 -0.3932  0.9044 -0.7586
  511SOL    HW1 1532   3.019   2.721   1.213  2.5606  1.4285 -0.0918
  511SOL    HW2 1533   2.911   2.640   1.329  0.0078  1.8602 -0.6688
  512SOL     OW 1534   2.344   0.451   1.416  0.2261 -0.1189 -0.5659
  512SOL    HW1 1535   2.244   0.462   1.387 -0.5078  2.5491  0.2321
  512SOL    HW2 1536   2.400   0.391   1.350  1.9051  0.0184  0.6152
  513SOL     OW 1537   2.544   2.078   0.842  0.2291  0.1921 -0.4617
  513SOL    HW1 1538   2.513   2.157   0.783  0.7662  0.8932  0.7068
  513SOL    HW2 1539   2.634   2.035   0.804  2.8785 -0.9300  0.6552
  514SOL     OW 1540   0.621   2.722   0.459  0.0244 -0.4384 -0.2148
  514SOL    HW1 1541   0.673   2.704   0.369  0.7893  1.9843 -3.8890
  514SOL    HW2 1542   0.665   2.803   0.513  0.3421 -1.1444  0.9989
  515SOL     OW 1543   1.940   1.341   2.394  0.2293  0.2957  0.3872
  515SOL    HW1 1544   1.930   1.326   2.289 -1.7316 -0.9251  0.4895
  515SOL    HW2 1545   1.863   1.296   2.449 -2.7841  1.7184  0.3798
  516SOL     OW 1546   0.267   0.153   1.947 -0.1395  0.6221  0.1787
  516SOL    HW1 1547   0.364   0.172   1.910  1.1130 -2.5203  1.2369
  516SOL    HW2 1548   0.204   0.107   1.881  2.1264  1.3878  1.4249
  517SOL     OW 1549   0.477   0.208   1.159  0.1336 -0.4528  0.5071
  517SOL    HW1 1550   0.553   0.152   1.203  3.5867 -1.7444  0.4477
  517SOL    HW2 1551   0.386   0.158   1.151 -2.1409 -2.1625  2.1525
  518SOL     OW 1552   2.174   3.000   1.835  0.1819 -0.0703  1.1112
  518SOL    HW1 1553   2.209   3.101   1.838  1.0474  2.0303 -1.1634
  518SOL    HW2 1554   2.190   2.957   1.740 -0.4454 -0.4772 -0.2260
  519SOL     OW 1555   2.352   2.223   2.541  0.4274 -0.4385  0.3691
  519SOL    HW1 1556   2.283   2.198   2.615  0.4795  1.5291 -0.7110
  519SOL    HW2 1557   2.379   2.324   2.534  2.5957 -1.9670  0.6709
  520SOL     OW 1558   1.829   2.716   1.644  0.5507  0.3613  0.0988
  520SOL    HW1 1559   1.773   2.659   1.715 -1.7495 -0.0416  2.0854
  520SOL    HW2 1560   1.926   2.682   1.634 -2.4075  1.1789 -0.8637
  521SOL     OW 1561   0.644   0.071   2.158 -0.0657  0.1960 -0.0350
  521SOL    HW1 1562   0.554   0.027   2.138 -2.3291 -0.1573  1.0096
  521SOL    HW2 1563   0.681   0.049   2.253 -1.4240 -2.2935 -0.3350
  522SOL     OW 1564   0.224   1.922   1.472  0.0404 -0.6436 -0.2651
  522SOL    HW1 1565   0.280   1.975   1.539 -0.1877 -1.8860 -0.5220
  522SOL    HW2 1566   0.217   1.976   1.381 -1.8842 -0.0432  0.0570
  523SOL     OW 1567   2.196   2.927   1.582 -0.8554  0.0357 -0.4898
  523SOL    HW1 1568   2.299   2.892   1.558  0.6386 -1.5449 -1.9623
  523SOL    HW2 1569   2.135   2.888   1.511  0.1830  0.7423  0.7303
  524SOL     OW 1570   0.200   2.762   2.798 -0.1949  0.1612  0.0923
  524SOL    HW1 1571   0.166   2.839   2.852  0.2149 -1.0591  1.7202
  524SOL    HW2 1572   0.305   2.769   2.792 -2.6360 -1.6841  0.0153
  525SOL     OW 1573   2.197   2.069   0.496 -0.4435 -0.3885  0.1504
  525SOL    HW1 1574   2.180   2.027   0.589  1.8360  0.1816 -1.2195
  525SOL    HW2 1575   2.210   1.996   0.418  1.3312 -3.0947 -1.5528
  526SOL     OW 1576   0.421   1.525   1.738  0.5820  0.1491  0.0250
  526SOL    HW1 1577   0.489   1.599   1.779  1.1386  1.6244  0.5980
  526SOL    HW2 1578   0.464   1.434   1.754  1.4834 -0.9298 -1.2479
  527SOL     OW 1579   1.091   2.948   1.150 -0.3885 -0.6743  0.8780
  527SOL    HW1 1580   1.124   2.875   1.220 -0.3528 -4.1683  0.6034
  527SOL    HW2 1581   1.161   3.020   1.127  0.6346  2.5009  0.1547
  528SOL     OW 1582   1.285   2.412   0.605  0.2313  0.5886 -0.6615
  528SOL    HW1 1583   1.342   2.323   0.625 -1.5191 -2.7404  1.9845
  528SOL    HW2 1584   1.318   2.491   0.656 -1.3824 -2.8467 -0.2616
  529SOL     OW 1585   1.883   1.753   0.861  0.7853  0.1478  0.3292
  529SOL    HW1 1586   1.837   1.734   0.765 -0.7893  0.1708 -1.9903
  529SOL    HW2 1587   1.898   1.856   0.878  1.4202  1.0553  1.2915
  530SOL     OW 1588   0.412   2.463   0.192  0.1907  0.0709 -0.1675
  530SOL    HW1 1589   0.438   2.393   0.261 -1.6474  1.6333  1.4094
  530SOL    HW2 1590   0.404   2.414   0.098  0.4911 -2.0038  0.7183
  531SOL     OW 1591   1.833   1.002   1.032 -0.0192 -0.5284  0.4891
  531SOL    HW1 1592   1.856   1.040   0.938 -1.6875  0.9485 -0.1641
  531SOL    HW2 1593   1.742   0.950   1.030 -1.5067 -0.4908 -1.2980
  532SOL     OW 1594   0.393   1.178   0.713  0.3944 -0.0825  0.0164
  532SOL    HW1 1595   0.404   1.178   0.606  0.2003  0.0834 -2.2130
  532SOL    HW2 1596   0.348   1.095   0.756 -1.3817  0.8376 -0.2153
  533SOL     OW 1597   1.825   0.085   2.569  0.6494  0.0915  0.6122
  533SOL    HW1 1598   1.923   0.060   2.587 -1.1821  1.1733  0.8152
  533SOL    HW2 1599   1.790   0.150   2.644  0.1496  0.7857  1.4212
  534SOL     OW 1600   0.205   0.189   1.573 -0.3500  0.4506 -0.1046
  534SOL    HW1 1601   0.262   0.245   1.511 -0.6737 -0.2574 -0.9253
  534SOL    HW2 1602   0.114   0.228   1.582  1.3405  0.0234  0.2978
  535SOL     OW 1603   1.870   0.403   0.144  0.3474  0.3130  0.0658
  535SOL    HW1 1604   1.907   0.482   0.194 -1.3721 -3.8290  5.0955
  535SOL    HW2 1605   1.807   0.344   0.205 -0.7245  0.9254  1.3190
  536SOL     OW 1606   1.216   2.509   1.001  0.2570  0.3111  0.4358
  536SOL    HW1 1607   1.251   2.513   0.906 -0.6630  0.8807 -0.7172
  536SOL    HW2 1608   1.111   2.498   1.007  0.7432 -0.2112  1.5290
  537SOL     OW 1609   0.878   0.241   2.300  0.2014 -0.3625  0.3848
  537SOL    HW1 1610   0.839   0.306   2.229  0.0039 -5.1813 -0.7274
  537SOL    HW2 1611   0.815   0.162   2.329 -0.8026  2.1058  2.4065
  538SOL     OW 1612   1.697   2.303   1.590  0.1052  0.2309 -0.5607
  538SOL    HW1 1613   1.667   2.232   1.523  1.0969 -0.2704 -2.0815
  538SOL    HW2 1614   1.776   2.356   1.543  0.7433  1.9089 -2.4518
  539SOL     OW 1615   0.166   1.570   2.714 -0.1484  0.7657 -0.5740
  539SOL    HW1 1616   0.084   1.544   2.659  1.4284 -2.7338  1.4887
  539SOL    HW2 1617   0.176   1.667   2.752 -0.7921 -0.5135  0.5272
  540SOL     OW 1618   2.675   1.759   2.132  0.5102 -0.9460 -0.3665
  540SOL    HW1 1619   2.641   1.680   2.075 -0.0991 -1.9027 -1.8142
  540SOL    HW2 1620   2.629   1.842   2.101 -2.9344 -1.7220 -0.1841
  541SOL     OW 1621   0.426   2.274   3.098  0.2778 -0.6508  0.2401
  541SOL    HW1 1622   0.473   2.205   3.162  0.2207 -0.3251 -1.2213
  541SOL    HW2 1623   0.343   2.231   3.059  3.6152  0.6292  0.0476
  542SOL     OW 1624   2.184   2.609   0.447  0.2120  0.2968 -0.1036
  542SOL    HW1 1625   2.190   2.701   0.400 -0.1539  1.5794  0.6541
  542SOL    HW2 1626   2.087   2.578   0.464  3.0645  0.2547 -3.5617
  543SOL     OW 1627   1.053   1.805   1.742 -0.4398 -0.0236 -0.0729
  543SOL    HW1 1628   1.060   1.852   1.834 -0.2827  0.6561  3.2374
  543SOL    HW2 1629   0.993   1.860   1.677  0.4198 -2.1943  0.1759
  544SOL     OW 1630   0.856   0.416   0.133  0.0504 -0.2759  0.4633
  544SOL    HW1 1631   0.898   0.369   0.213 -0.4720  1.5557 -0.4150
  544SOL    HW2 1632   0.895   0.390   0.039 -1.3363  0.7136 -0.3018
  545SOL     OW 1633   1.149   1.773   0.634  0.0779 -0.3501 -0.1440
  545SOL    HW1 1634   1.244   1.748   0.670  2.2561 -1.0820 -2.2889
  545SOL    HW2 1635   1.135   1.748   0.534 -1.7269  1.8812  0.1963
  546SOL     OW 1636   2.675   1.597   0.048 -0.2247 -0.4623 -0.1226
  546SOL    HW1 1637   2.703   1.564  -0.042 -0.4288  1.6112  2.1934
  546SOL    HW2 1638   2.612   1.524   0.094  1.2918 -1.1936 -0.9996
  547SOL     OW 1639   0.495   0.007   2.744  0.4984  0.4366  0.0208
  547SOL    HW1 1640   0.534  -0.059   2.672  0.5947 -2.3495 -2.6211
  547SOL    HW2 1641   0.496  -0.023   2.845 -0.6367  5.0474  0.3199
  548SOL     OW 1642   2.070   0.793   3.093  0.2218  0.5372 -0.3795
  548SOL    HW1 1643   1.968   0.760   3.094 -3.7274  2.9709  2.7128
  548SOL    HW2 1644   2.072   0.895   3.108 -0.0027 -1.1974 -0.5467
  549SOL     OW 1645   0.558   0.430   0.071  0.0607 -0.1079 -0.0253
  549SOL    HW1 1646   0.536   0.525   0.037  2.2937  0.3211  3.1183
  549SOL    HW2 1647   0.656   0.434   0.097 -0.4652 -0.5113  1.6305
  550SOL     OW 1648   2.546   2.853   2.912 -0.0263 -0.2659 -0.0646
  550SOL    HW1 1649   2.524   2.757   2.943  1.8554 -2.4387 -1.9299
  550SOL    HW2 1650   2.557   2.853   2.812  1.1622 -1.1379  0.7105
  551SOL     OW 1651   0.226   0.775   0.195 -0.0228 -0.1707 -0.6760
  551SOL    HW1 1652   0.328   0.787   0.169  0.2357 -0.0647  1.6921
  551SOL    HW2 1653   0.216   0.781   0.298  0.1768 -0.5090  0.6943
  552SOL     OW 1654   0.833   2.797   1.905 -0.2354  0.0853 -0.3373
  552SOL    HW1 1655   0.794   2.772   2.003 -3.5495 -0.1508  3.5734
  552SOL    HW2 1656   0.869   2.896   1.896  0.8121  0.2518 -2.0040
  553SOL     OW 1657   3.079   2.545   0.397  0.4099  0.3920  0.9749
  553SOL    HW1 1658   2.995   2.486   0.373  0.7716  0.4048  0.2661
  553SOL    HW2 1659   3.092   2.545   0.499 -2.8251  2.1864  0.4045
  554SOL     OW 1660   2.151   0.302   0.509 -0.1677 -0.4766  0.5967
  554SOL    HW1 1661   2.231   0.249   0.461  2.5279  1.9065  1.3617
  554SOL    HW2 1662   2.115   0.257   0.592 -0.6143 -1.1014 -2.2745
  555SOL     OW 1663   0.469   2.917   2.470 -0.1308  0.4549 -0.1660
  555SOL    HW1 1664   0.385   2.918   2.411 -0.3034 -0.0972  2.2863
  555SOL    HW2 1665   0.551   2.875   2.422 -0.2869  2.2199 -0.7463
  556SOL     OW 1666   0.892   2.300   1.616 -1.0658 -0.2916 -0.1591
  556SOL    HW1 1667   0.949   2.367   1.675  0.1498  0.1612 -1.9257
  556SOL    HW2 1668   0.940   2.272   1.528 -0.6053 -0.3893 -0.2646
  557SOL     OW 1669   0.146   2.137   0.127 -0.4100 -0.4120  0.1120
  557SOL    HW1 1670   0.081   2.058   0.105 -0.5915  0.6700  0.1828
  557SOL    HW2 1671   0.178   2.181   0.035 -0.2677  0.2584  1.7707
  558SOL     OW 1672   2.919   2.343   0.291  0.2433 -0.3522 -0.0902
  558SOL    HW1 1673   2.815   2.348   0.307 -1.8399  0.5628  1.4431
  558SOL    HW2 1674   2.947   2.354   0.190  1.6533 -0.4966 -0.2863
  559SOL     OW 1675   0.425   2.261   1.285 -0.0262 -0.1978  0.4465
  559SOL    HW1 1676   0.337   2.304   1.246 -1.7324  0.6762  0.1385
  559SOL    HW2 1677   0.430   2.159   1.263  0.3506  0.1070 -1.5185
  560SOL     OW 1678   2.011   1.089   3.062 -0.1559 -0.0542  1.1133
  560SOL    HW1 1679   2.030   1.162   2.991 -0.3639  0.4735  1.0214
  560SOL    HW2 1680   2.000   1.123   3.161  0.7320  2.2166  1.3180
  561SOL     OW 1681   3.053   1.957   0.104  0.3643 -0.6877  0.0276
  561SOL    HW1 1682   2.996   1.868   0.108 -1.6570  0.2244 -0.6208
  561SOL    HW2 1683   2.994   2.032   0.063 -1.5498  0.8407  1.5095
  562SOL     OW 1684   0.828   2.185   2.464  0.1466  0.2129  0.6518
  562SOL    HW1 1685   0.731   2.147   2.453 -1.8620 -2.2211 -1.3186
  562SOL    HW2 1686   0.833   2.233   2.552  3.1358  0.1306 -0.6704
  563SOL     OW 1687   0.740   2.561   2.524 -0.1247  1.0096 -0.1814
  563SOL    HW1 1688   0.825   2.513   2.488  0.3758 -0.6609  2.9010
  563SOL    HW2 1689   0.729   2.554   2.623 -0.9525 -0.1767 -1.7514
  564SOL     OW 1690   2.768   1.277   2.869  0.5640 -0.0104 -0.3110
  564SOL    HW1 1691   2.686   1.281   2.935  1.4859  0.8067  0.8740
  564SOL    HW2 1692   2.819   1.369   2.859 -0.3202  0.3725 -0.8258
  565SOL     OW 1693   2.517   2.016   2.573 -0.5573  0.1267 -0.1635
  565SOL    HW1 1694   2.447   2.091   2.554  2.0241 -0.2079 -1.4121
  565SOL    HW2 1695   2.607   2.054   2.606  0.3759 -0.4078 -0.3253
  566SOL     OW 1696   2.000   2.817   1.389 -0.3984  0.4464 -0.4777
  566SOL    HW1 1697   2.007   2.716   1.417 -0.0259  0.0986 -0.6653
  566SOL    HW2 1698   2.059   2.839   1.309 -1.4573  0.0444  0.4738
  567SOL     OW 1699   2.463   0.145   2.241 -0.0575 -0.1629  0.2701
  567SOL    HW1 1700   2.480   0.145   2.141  0.1881  1.8543  0.1609
  567SOL    HW2 1701   2.407   0.227   2.272  1.9155  0.3980 -0.6224
  568SOL     OW 1702   1.409   1.809   0.419  0.1143  0.1406 -0.3134
  568SOL    HW1 1703   1.383   1.880   0.352 -0.0512 -3.5313  1.7669
  568SOL    HW2 1704   1.472   1.845   0.497  2.3587  0.4688 -0.2518
  569SOL     OW 1705   0.278   0.668   0.796 -0.0192 -0.2657  0.2988
  569SOL    HW1 1706   0.342   0.628   0.722  2.0973 -1.8547 -4.1860
  569SOL    HW2 1707   0.187   0.608   0.810 -3.7019 -1.9251  1.3955
  570SOL     OW 1708   0.626   0.786   2.840 -0.0873 -0.6135  0.1915
  570SOL    HW1 1709   0.681   0.773   2.755 -1.2196 -0.8456 -1.4868
  570SOL    HW2 1710   0.654   0.876   2.890 -2.2025  3.5902 -0.9318
  571SOL     OW 1711   0.842   3.057   1.130  0.0813  0.2708 -0.6193
  571SOL    HW1 1712   0.867   3.144   1.083 -0.8476 -1.2313 -0.5509
  571SOL    HW2 1713   0.929   3.004   1.149 -1.1307 -0.7083  3.0646
  572SOL     OW 1714   1.516   2.546   1.181  0.5356 -0.0472 -0.2929
  572SOL    HW1 1715   1.438   2.490   1.227 -1.7973  0.3028 -0.2831
  572SOL    HW2 1716   1.482   2.637   1.136 -1.4531  0.4896  1.3607
  573SOL     OW 1717   2.946   0.422   2.112  0.0189 -0.1747 -0.1555
  573SOL    HW1 1718   2.911   0.323   2.133 -1.6469 -1.2685  0.7315
  573SOL    HW2 1719   2.878   0.497   2.109 -1.0941 -1.3720  1.8779
  574SOL     OW 1720   0.245   1.819   1.041  0.0396 -0.0656 -0.0888
  574SOL    HW1 1721   0.214   1.911   0.993 -0.7226 -0.1374 -1.3566
  574SOL    HW2 1722   0.167   1.776   1.098  0.4013 -1.8112 -0.9609
  575SOL     OW 1723   0.912   2.147   1.004 -0.3903  0.0403  0.1444
  575SOL    HW1 1724   0.855   2.136   1.092 -0.2784 -0.8728  0.8259
  575SOL    HW2 1725   1.011   2.171   1.018 -0.3033 -1.3528 -1.5114
  576SOL     OW 1726   2.933   2.892   1.705  0.4912  0.0433 -0.1110
  576SOL    HW1 1727   2.837   2.868   1.676  0.2036  0.5176 -2.4115
  576SOL    HW2 1728   2.965   2.986   1.668  0.4756  0.8438 -1.1740
  577SOL     OW 1729   2.554   1.252   3.043 -0.2667 -0.1269  0.0817
  577SOL    HW1 1730   2.530   1.150   3.036  1.6540  0.5598  1.9557
  577SOL    HW2 1731   2.608   1.269   3.135  3.8145 -1.6397  0.6536
  578SOL     OW 1732   1.342   2.744   2.568  0.1139 -0.8477 -0.0312
  578SOL    HW1 1733   1.277   2.730   2.492  2.9357 -1.0909  2.0608
  578SOL    HW2 1734   1.366   2.841   2.583 -0.2115  0.3379  0.7340
  579SOL     OW 1735   0.127   2.557   0.160  0.0633 -0.3894  0.4516
  579SOL    HW1 1736   0.077   2.555   0.249  0.8057 -0.3969  0.3068
  579SOL    HW2 1737   0.214   2.498   0.165  3.2073  3.0626  0.2522
  580SOL     OW 1738   1.000   2.680   0.349  0.4662 -0.3393 -0.3374
  580SOL    HW1 1739   1.098   2.705   0.329  0.3997 -1.9079  1.7902
  580SOL    HW2 1740   0.956   2.618   0.276  0.9539 -1.3898  1.1044
  581SOL     OW 1741   1.248   2.585   1.492 -0.8835  0.1567  0.0407
  581SOL    HW1 1742   1.275   2.519   1.419  2.3550  3.4327 -0.0268
  581SOL    HW2 1743   1.261   2.681   1.450 -1.9034  1.0565  1.6843
  582SOL     OW 1744   1.508   0.050   1.879 -0.6224  0.0236  0.4183
  582SOL    HW1 1745   1.544   0.120   1.940 -1.2797 -3.3388 -3.0513
  582SOL    HW2 1746   1.569   0.035   1.799 -1.3387 -0.0637  1.3679
  583SOL     OW 1747   2.430   2.997   0.597  0.4098  0.0495  0.2304
  583SOL    HW1 1748   2.473   2.923   0.539  1.3510  0.4549  0.6827
  583SOL    HW2 1749   2.375   2.959   0.674  0.0281  2.6385 -0.7168
  584SOL     OW 1750   1.535   0.959   2.103 -0.5276 -0.2467  0.1361
  584SOL    HW1 1751   1.610   1.016   2.055  0.2913 -0.5627 -0.4260
  584SOL    HW2 1752   1.553   0.946   2.205  1.7117 -0.4154 -1.1313
  585SOL     OW 1753   2.145   2.648   2.929  0.1924 -0.6167 -0.2426
  585SOL    HW1 1754   2.178   2.570   2.874 -1.0072  2.2696 -0.0586
  585SOL    HW2 1755   2.042   2.663   2.917  1.8676 -0.2614  1.3777
  586SOL     OW 1756   2.801   0.231   1.570 -0.0782  0.2541  0.4510
  586SOL    HW1 1757   2.800   0.326   1.606  0.9651 -2.7668  2.8359
  586SOL    HW2 1758   2.715   0.182   1.587 -1.6435  1.0560  3.7190
  587SOL     OW 1759   2.004   1.620   2.736 -0.0578 -0.1489  0.2572
  587SOL    HW1 1760   2.051   1.582   2.654 -0.2710  0.9585 -2.5244
  587SOL    HW2 1761   2.066   1.598   2.817 -0.1290 -3.2144 -2.4151
  588SOL     OW 1762   0.502   2.705   2.221  0.3539  0.0896 -0.1537
  588SOL    HW1 1763   0.421   2.739   2.165  0.7976  4.3110 -1.1880
  588SOL    HW2 1764   0.471   2.640   2.298 -0.2184  1.3553  0.4615
  589SOL     OW 1765   2.141   1.462   2.541  0.4998 -0.1192 -0.2062
  589SOL    HW1 1766   2.083   1.404   2.481  0.6549 -0.2475  1.3822
  589SOL    HW2 1767   2.235   1.418   2.549 -0.1778  0.2303 -1.6192
  590SOL     OW 1768   2.358   1.721   1.988  0.0555 -0.5832 -0.2387
  590SOL    HW1 1769   2.439   1.656   1.997 -2.2823  2.1846  0.5657
  590SOL    HW2 1770   2.353   1.789   2.066  0.4412  0.5998 -1.3182
  591SOL     OW 1771   1.340   2.487   0.314  0.1716 -0.0814  0.3558
  591SOL    HW1 1772   1.407   2.435   0.252 -1.1250 -0.9622 -1.0706
  591SOL    HW2 1773   1.335   2.458   0.414 -2.5492  1.4528 -0.3954
  592SOL     OW 1774   1.682   2.318   0.777  0.2111  0.3433  0.3227
  592SOL    HW1 1775   1.645   2.360   0.682  1.0030 -2.5436 -3.4978
  592SOL    HW2 1776   1.784   2.319   0.773 -2.0273 -1.0947 -1.2482
  593SOL     OW 1777   0.549   0.203   3.021  0.1275 -0.0994  0.5083
  593SOL    HW1 1778   0.638   0.149   3.010 -1.5737 -2.0013  1.9345
  593SOL    HW2 1779   0.555   0.292   3.071  1.5237 -3.3233 -1.8235
  594SOL     OW 1780   0.886   1.935   2.707 -0.2103  0.6500 -0.7322
  594SOL    HW1 1781   0.990   1.936   2.721  1.0293 -4.0665 -1.6411
  594SOL    HW2 1782   0.837   2.003   2.766  0.2529 -2.4113  0.3595
  595SOL     OW 1783   1.549   0.032   1.051  0.0251  0.8586  0.8194
  595SOL    HW1 1784   1.644  -0.010   1.041 -1.7602 -1.3405  1.5529
  595SOL    HW2 1785   1.472  -0.037   1.026  0.3912 -0.2566  2.2834
  596SOL     OW 1786   3.076   1.471   2.212  0.4646 -0.2068 -0.1024
  596SOL    HW1 1787   2.990   1.525   2.240 -2.2665  0.8499  0.0043
  596SOL    HW2 1788   3.136   1.472   2.302  1.7968  0.1071 -0.6299
  597SOL     OW 1789   2.100   2.629   1.629  0.5626 -0.2545 -0.2795
  597SOL    HW1 1790   2.108   2.553   1.567 -0.7090 -0.7672  2.0354
  597SOL    HW2 1791   2.164   2.635   1.709 -0.4122  0.3077  0.2252
  598SOL     OW 1792   2.565   2.909   1.194 -0.5659  0.0250  0.1496
  598SOL    HW1 1793   2.628   2.907   1.280  1.4133 -1.8210  0.6914
  598SOL    HW2 1794   2.616   2.903   1.101 -0.1080 -1.3840  0.4493
  599SOL     OW 1795   2.940   0.349   2.396  0.0944  0.0464 -0.0171
  599SOL    HW1 1796   3.007   0.342   2.319 -0.9174  0.3693  1.8347
  599SOL    HW2 1797   2.856   0.402   2.367 -0.5230 -1.8130 -0.6078
  600SOL     OW 1798   2.829   1.039   2.746  0.1742  0.0414 -0.6726
  600SOL    HW1 1799   2.805   0.950   2.796 -0.2687 -2.6496  0.5506
  600SOL    HW2 1800   2.814   1.125   2.799  2.2872 -0.1531 -0.2298
  601SOL     OW 1801   2.941   1.237   2.064  0.3170 -0.2100 -0.1196
  601SOL    HW1 1802   2.873   1.277   1.997  1.5373 -0.1313 -1.2109
  601SOL    HW2 1803   2.999   1.312   2.111  0.7087 -2.6812 -0.0602
  602SOL     OW 1804   1.532   1.677   2.363  0.0876  0.5075 -0.1014
  602SOL    HW1 1805   1.467   1.592   2.347 -1.5121 -0.8004  0.2263
  602SOL    HW2 1806   1.633   1.649   2.384  4.6412 -0.6583  2.3728
  603SOL     OW 1807   0.675   1.269   2.612 -0.4513 -0.1790  0.5759
  603SOL    HW1 1808   0.597   1.241   2.549 -1.1731 -1.2174 -0.2942
  603SOL    HW2 1809   0.736   1.194   2.629  2.0388  1.7783  0.4325
  604SOL     OW 1810   2.395   0.965   0.177  0.1731 -0.2524  0.4455
  604SOL    HW1 1811   2.444   1.027   0.114  1.3895 -1.1219  0.5458
  604SOL    HW2 1812   2.385   0.868   0.134 -0.2670 -0.3287 -1.7644
  605SOL     OW 1813   2.632   1.121   1.973  0.5376 -0.3252 -0.4425
  605SOL    HW1 1814   2.616   1.032   1.921  1.1393  0.2447  0.3203
  605SOL    HW2 1815   2.641   1.113   2.079  1.4824 -0.2881 -0.2556
  606SOL     OW 1816   1.533   2.531   2.580  0.0904  0.4580 -0.4002
  606SOL    HW1 1817   1.453   2.597   2.568  0.1999 -1.6267  0.0244
  606SOL    HW2 1818   1.502   2.434   2.559 -3.1345 -0.1879  0.1481
  607SOL     OW 1819   1.344   1.539   0.456 -0.0111 -0.2991  0.2241
  607SOL    HW1 1820   1.299   1.504   0.539  0.8961  1.2873 -1.9690
  607SOL    HW2 1821   1.347   1.642   0.451  1.4220 -1.2461  2.6156
  608SOL     OW 1822   1.410   2.907   0.426  0.3745  0.5833 -0.0912
  608SOL    HW1 1823   1.494   2.950   0.388 -0.4443 -0.2010  2.5137
  608SOL    HW2 1824   1.333   2.972   0.432  2.4891 -0.2959  0.5543
  609SOL     OW 1825   1.337   1.337   0.258  0.2472  0.3021  0.3060
  609SOL    HW1 1826   1.352   1.404   0.336 -1.2486 -0.0630 -1.4361
  609SOL    HW2 1827   1.240   1.341   0.226 -0.7403 -0.2442  1.6384
  610SOL     OW 1828   2.996   1.075   2.256  0.1747  0.0191  0.4539
  610SOL    HW1 1829   2.965   0.978   2.236  0.5952  0.5298  1.9079
  610SOL    HW2 1830   2.973   1.136   2.172 -1.9518 -1.6900  0.4388
  611SOL     OW 1831   2.507   0.331   1.241 -0.3602 -0.4181 -0.1850
  611SOL    HW1 1832   2.483   0.234   1.217 -0.4470  0.1630  3.2023
  611SOL    HW2 1833   2.610   0.349   1.257  0.8499 -1.0188 -0.5450
  612SOL     OW 1834   0.754   2.141   1.253 -0.0899  0.4633 -0.5724
  612SOL    HW1 1835   0.667   2.089   1.281 -0.4019  0.3440  0.9230
  612SOL    HW2 1836   0.736   2.236   1.229  0.4947 -0.3886 -0.1880
  613SOL     OW 1837   0.895   1.422   2.398 -0.3820  0.4201  0.3314
  613SOL    HW1 1838   0.933   1.472   2.319 -2.7803  0.2463 -1.4386
  613SOL    HW2 1839   0.855   1.329   2.373  2.2664 -0.2595 -1.0221
  614SOL     OW 1840   1.670   1.539   1.804  0.1374  0.6379  0.7556
  614SOL    HW1 1841   1.612   1.615   1.767 -0.3231 -0.1788 -0.7106
  614SOL    HW2 1842   1.730   1.566   1.887  0.9827  1.9134  0.5519
  615SOL     OW 1843   0.777   1.259   1.756 -0.6068 -0.6982  0.0503
  615SOL    HW1 1844   0.706   1.243   1.691 -0.1529 -0.0517 -1.9809
  615SOL    HW2 1845   0.821   1.352   1.743  1.4315  1.1134  0.6037
  616SOL     OW 1846   1.044   1.550   2.207  0.7390 -0.3799  0.6078
  616SOL    HW1 1847   0.997   1.571   2.116  1.0839 -1.2126 -2.0469
  616SOL    HW2 1848   1.070   1.635   2.257  0.0803  0.8914  2.0267
  617SOL     OW 1849   2.951   1.516   1.620 -0.2983  0.3205  0.4600
  617SOL    HW1 1850   2.988   1.429   1.663  0.0202 -2.8792 -0.7416
  617SOL    HW2 1851   2.985   1.524   1.521  2.8574  1.7636  0.3108
  618SOL     OW 1852   1.856   2.060   1.380 -0.0498  0.6648  0.0060
  618SOL    HW1 1853   1.888   2.137   1.321 -0.6312 -0.4352  1.2619
  618SOL    HW2 1854   1.840   1.967   1.334 -0.4540 -1.8016  0.6899
  619SOL     OW 1855   1.758   0.458   2.384 -0.2683  0.6067  0.1279
  619SOL    HW1 1856   1.689   0.531   2.346  2.0683 -0.0257  2.1905
  619SOL    HW2 1857   1.723   0.361   2.396  3.2182 -0.0295 -0.7003
  620SOL     OW 1858   2.259   2.825   0.770  0.1822  0.2658  0.3284
  620SOL    HW1 1859   2.163   2.808   0.739 -0.6947 -0.1746 -0.6307
  620SOL    HW2 1860   2.305   2.738   0.808 -1.2394  1.0116  1.8766
  621SOL     OW 1861   2.184   1.910   1.356 -0.7290 -0.3584  0.3959
  621SOL    HW1 1862   2.180   1.914   1.460  0.0103 -1.0741  1.1763
  621SOL    HW2 1863   2.126   1.835   1.317  1.7093 -1.1926 -0.3289
  622SOL     OW 1864   2.321   0.966   1.872  0.2905  0.0423  0.4321
  622SOL    HW1 1865   2.414   0.966   1.831  0.3611  1.6546  0.8328
  622SOL    HW2 1866   2.296   0.879   1.930 -1.9071 -1.3856  0.0129
  623SOL     OW 1867   1.255   0.830   2.525  0.6607 -0.1117 -0.1193
  623SOL    HW1 1868   1.182   0.760   2.511 -1.5794  1.3571 -2.8364
  623SOL    HW2 1869   1.230   0.902   2.456  1.1219  0.1742  0.3336
  624SOL     OW 1870   0.487   0.659   3.050 -0.3406 -0.2945  0.3274
  624SOL    HW1 1871   0.526   0.694   2.959 -4.2544  0.8239  0.5166
  624SOL    HW2 1872   0.517   0.715   3.135  2.2645 -2.2876 -0.2930
  625SOL     OW 1873   2.757   1.718   1.008  0.4557 -0.2072  0.6403
  625SOL    HW1 1874   2.671   1.777   0.992  0.4232  0.2325  0.6018
  625SOL    HW2 1875   2.840   1.778   1.030 -0.0940  1.3283 -1.1130
  626SOL     OW 1876   0.648   2.677   1.727 -0.3254  0.1915  0.6389
  626SOL    HW1 1877   0.719   2.715   1.793  1.2258 -1.2266 -2.0266
  626SOL    HW2 1878   0.553   2.657   1.770  1.3223 -4.5367  0.3486
  627SOL     OW 1879   0.680   0.833   1.657 -0.3794  0.1038 -0.6112
  627SOL    HW1 1880   0.589   0.784   1.629 -0.8637 -1.0370 -2.6712
  627SOL    HW2 1881   0.715   0.900   1.587  0.1138 -0.4777 -3.5438
  628SOL     OW 1882   2.394   0.135   0.723  0.2502  0.0969 -0.4481
  628SOL    HW1 1883   2.429   0.053   0.669 -0.9894 -0.9205 -2.8477
  628SOL    HW2 1884   2.291   0.157   0.705  0.0910  2.0172 -2.0113
  629SOL     OW 1885   1.911   0.931   1.976 -0.1221 -0.1191 -0.1315
  629SOL    HW1 1886   1.902   1.026   1.927 -0.0600  1.0976 -1.0596
  629SOL    HW2 1887   1.948   0.950   2.074  1.3490  2.6508  0.4586
  630SOL     OW 1888   2.900   2.219   0.817 -0.2359  0.3794 -0.3790
  630SOL    HW1 1889   2.884   2.319   0.788  1.5393  1.8547  0.1444
  630SOL    HW2 1890   2.839   2.147   0.782 -0.1566  1.5554  1.4603
  631SOL     OW 1891  -0.005   0.135   2.081  1.0959  0.5157  0.1824
  631SOL    HW1 1892   0.063   0.180   2.149  1.4106  0.8061  0.8431
  631SOL    HW2 1893   0.029   0.122   1.986  0.0261 -0.0287 -1.2857
  632SOL     OW 1894   2.433   2.571   0.629  0.6802  0.0821 -0.8089
  632SOL    HW1 1895   2.500   2.655   0.625  1.5024  0.1665 -0.4269
  632SOL    HW2 1896   2.350   2.592   0.576  1.0154 -2.5558 -0.7497
  633SOL     OW 1897   1.478   1.254   2.686 -0.7185 -0.6327  0.3280
  633SOL    HW1 1898   1.445   1.327   2.755  0.9859  0.0880  1.8229
  633SOL    HW2 1899   1.414   1.220   2.614 -0.2577  0.0704 -2.3371
  634SOL     OW 1900   0.680   2.070   0.850 -0.4120 -0.3363 -0.0107
  634SOL    HW1 1901   0.596   2.100   0.904  0.1687  1.8672  0.1367
  634SOL    HW2 1902   0.766   2.113   0.889 -0.6810  0.7135  2.1404
  635SOL     OW 1903   3.073   2.373   0.009 -0.0501 -0.2943 -0.3682
  635SOL    HW1 1904   2.986   2.419  -0.023  0.1907 -0.4275 -1.0172
  635SOL    HW2 1905   3.149   2.440   0.020 -0.8839  0.6336 -0.5858
  636SOL     OW 1906   2.376   2.692   2.052  0.5551  0.5232 -0.5856
  636SOL    HW1 1907   2.369   2.797   2.070 -0.7679  4.1106 -0.7326
  636SOL    HW2 1908   2.303   2.635   2.100 -0.1221 -1.9980 -0.9907
  637SOL     OW 1909   2.721   0.625   1.996 -0.2859 -0.2454  0.3498
  637SOL    HW1 1910   2.646   0.638   1.921 -0.0516  0.7603 -1.8702
  637SOL    HW2 1911   2.792   0.704   1.985  1.3244  3.2408  0.2281
  638SOL     OW 1912   2.459   1.870   1.314  0.0361  0.3067 -0.0042
  638SOL    HW1 1913   2.354   1.864   1.307  0.0560 -1.7829  0.4994
  638SOL    HW2 1914   2.495   1.786   1.368  1.5025 -1.1072 -0.9264
  639SOL     OW 1915   1.276   2.217   1.648  0.6390 -0.0552  0.0746
  639SOL    HW1 1916   1.354   2.290   1.662  1.1854  0.6956  0.4012
  639SOL    HW2 1917   1.215   2.204   1.732  0.2678  3.0026 -1.0132
  640SOL     OW 1918   0.194   1.203   1.552  0.3241  0.0100  0.3943
  640SOL    HW1 1919   0.171   1.206   1.651  2.0360 -1.0275  0.0961
  640SOL    HW2 1920   0.266   1.128   1.536 -1.0573 -1.2382  0.7358
  641SOL     OW 1921   1.964   0.226   1.521  0.2075 -0.4195 -0.2339
  641SOL    HW1 1922   1.902   0.277   1.592 -2.3140  0.5427 -2.3379
  641SOL    HW2 1923   2.049   0.185   1.560 -0.8176 -1.1388  1.3381
  642SOL     OW 1924   2.038   0.022   0.318 -0.0630  0.6946  0.1317
  642SOL    HW1 1925   2.123   0.058   0.371  0.3364  1.6030 -1.3424
  642SOL    HW2 1926   1.955   0.027   0.381  0.7025 -1.1416 -1.1430
  643SOL     OW 1927   2.898   1.950   2.147  0.2436 -0.1412 -0.1002
  643SOL    HW1 1928   2.828   1.875   2.132 -1.4436  0.8372 -1.3797
  643SOL    HW2 1929   2.897   2.019   2.070 -0.7692  2.6552  1.4002
  644SOL     OW 1930   2.283   2.432   1.233 -0.1518  0.2504 -0.1806
  644SOL    HW1 1931   2.357   2.383   1.170  1.1328 -3.3296  0.7682
  644SOL    HW2 1932   2.259   2.379   1.320 -2.4237 -1.2036 -1.4939
  645SOL     OW 1933   0.678   0.844   1.253 -0.1631 -0.2228  0.3741
  645SOL    HW1 1934   0.583   0.888   1.273 -1.0062 -0.7098 -0.8771
  645SOL    HW2 1935   0.689   0.833   1.150 -1.0787  0.6568 -0.9406
  646SOL     OW 1936   1.511   1.816   2.042 -0.2965  0.3336  0.1878
  646SOL    HW1 1937   1.578   1.827   1.965  0.7004 -0.5119  1.0584
  646SOL    HW2 1938   1.552   1.785   2.131  1.1063  2.2138 -0.7300
  647SOL     OW 1939   0.802   1.112   0.652  0.5987  0.6132  0.3501
  647SOL    HW1 1940   0.850   1.134   0.741 -0.4789 -0.4239 -0.1694
  647SOL    HW2 1941   0.735   1.035   0.662  0.1565  2.4473  0.5047
  648SOL     OW 1942   0.186   0.212   0.357  0.1390  0.2744 -0.1169
  648SOL    HW1 1943   0.168   0.119   0.317 -1.2934 -0.9496 -2.7461
  648SOL    HW2 1944   0.142   0.283   0.297  1.1865  0.4210 -1.4065
  649SOL     OW 1945   2.991   0.268   0.861  0.1766  0.1494 -1.0408
  649SOL    HW1 1946   3.061   0.230   0.797  0.0320  0.1311 -0.7512
  649SOL    HW2 1947   2.989   0.369   0.870 -2.0553 -0.6377 -1.6826
  650SOL     OW 1948   2.817   0.695   1.512 -0.2484 -0.2945 -0.0724
  650SOL    HW1 1949   2.710   0.681   1.518 -3.3608 -2.2338  0.5275
  650SOL    HW2 1950   2.843   0.780   1.455  2.5854 -1.6046 -1.0215
  651SOL     OW 1951   0.869   1.523   1.683  0.0784  0.6732 -0.2177
  651SOL    HW1 1952   0.896   1.555   1.781  0.2886 -0.1391 -0.2035
  651SOL    HW2 1953   0.947   1.476   1.634 -1.3307 -1.7144  0.7061
  652SOL     OW 1954   2.365   2.493   2.473  0.1066 -0.7780 -0.3676
  652SOL    HW1 1955   2.277   2.539   2.494  0.0600  0.1860 -2.4816
  652SOL    HW2 1956   2.391   2.512   2.373  0.0636  2.6945  0.2935
  653SOL     OW 1957   2.697   1.269   0.185  0.2019 -0.0070 -0.2836
  653SOL    HW1 1958   2.734   1.352   0.236  0.4965 -1.3144 -0.3884
  653SOL    HW2 1959   2.737   1.177   0.222 -0.0461  0.5680 -0.2869
  654SOL     OW 1960   1.250   2.164   1.273  0.4167  0.5417  0.2244
  654SOL    HW1 1961   1.275   2.109   1.357  2.6727  1.1797 -3.9880
  654SOL    HW2 1962   1.272   2.114   1.181 -0.5761 -0.2202  0.9842
  655SOL     OW 1963   0.170   0.996   1.935 -0.2184 -0.1430 -0.1616
  655SOL    HW1 1964   0.217   0.948   1.856  0.5435  2.8518  0.7463
  655SOL    HW2 1965   0.182   1.098   1.935  1.1709 -1.3747 -0.1891
  656SOL     OW 1966   2.598   2.549   2.637  0.1862  0.3543  0.1373
  656SOL    HW1 1967   2.684   2.527   2.584 -0.6412 -2.0686 -0.3806
  656SOL    HW2 1968   2.516   2.522   2.584  2.5871  3.0238  0.0302
  657SOL     OW 1969   3.015   1.049   1.864 -0.7814 -0.0122 -0.2354
  657SOL    HW1 1970   2.974   1.133   1.908  0.1595  0.0670 -3.3084
  657SOL    HW2 1971   3.114   1.027   1.901  0.8145 -2.2664  0.4260
  658SOL     OW 1972   1.657   0.184   2.374 -0.3095  0.4155 -0.3270
  658SOL    HW1 1973   1.722   0.155   2.450 -1.0324 -0.1960 -2.1226
  658SOL    HW2 1974   1.631   0.111   2.307  0.0601 -0.5816 -2.9493
  659SOL     OW 1975   1.424   0.646   2.806 -0.7834 -0.6258  0.2323
  659SOL    HW1 1976   1.452   0.709   2.727 -0.3424  2.7003  0.5249
  659SOL    HW2 1977   1.325   0.656   2.820 -0.5714 -2.3033 -1.5180
  660SOL     OW 1978   1.464   0.308   1.410  0.5216 -0.1810  0.0359
  660SOL    HW1 1979   1.484   0.317   1.512 -2.8946  0.6089  0.7936
  660SOL    HW2 1980   1.517   0.228   1.376 -0.6689  0.8518 -1.5185
  661SOL     OW 1981   2.419   1.267   0.636  0.5322 -0.2530 -0.0003
  661SOL    HW1 1982   2.463   1.262   0.536  1.1071  1.3664 -3.0640
  661SOL    HW2 1983   2.335   1.327   0.643  3.3093 -1.7066 -1.7713
  662SOL     OW 1984   1.464   0.394   1.698 -0.2310  0.4271 -0.4445
  662SOL    HW1 1985   1.395   0.356   1.759  2.6830  0.2606  0.4001
  662SOL    HW2 1986   1.464   0.499   1.686 -1.0391  1.5580 -2.3478
  663SOL     OW 1987   0.866   1.591   1.940  0.7213  0.1895  0.3990
  663SOL    HW1 1988   0.824   1.681   1.968  0.3205 -0.0398 -1.0630
  663SOL    HW2 1989   0.804   1.507   1.973 -2.1576  0.6592  0.4872
  664SOL     OW 1990   1.576   2.096   1.433 -0.0024 -0.0726  0.3486
  664SOL    HW1 1991   1.486   2.049   1.455 -1.2320 -0.1965  0.7693
  664SOL    HW2 1992   1.647   2.033   1.392 -1.6127  1.6251 -0.2239
  665SOL     OW 1993   2.255   0.687   1.975  0.0808  0.3558  0.0863
  665SOL    HW1 1994   2.236   0.585   1.960 -0.9094 -1.9859 -2.0744
  665SOL    HW2 1995   2.326   0.709   2.050 -0.6919  1.2171 -1.0007
  666SOL     OW 1996   0.461   2.236   0.340  0.2662  0.0851 -0.5422
  666SOL    HW1 1997   0.510   2.300   0.410  2.5824 -1.3095  1.9909
  666SOL    HW2 1998   0.359   2.218   0.355  0.8546 -0.9170  0.6846
  667SOL     OW 1999   1.970   0.209   1.058 -0.8219 -0.0855 -0.2156
  667SOL    HW1 2000   2.003   0.303   1.037  2.1124 -1.0256  1.0554
  667SOL    HW2 2001   1.907   0.211   1.141 -0.6382  2.1315  1.0145
  668SOL     OW 2002   1.971   0.512   1.087 -0.4258 -0.0028 -0.2409
  668SOL    HW1 2003   2.034   0.533   1.008 -1.8728  1.1527  3.9557
  668SOL    HW2 2004   2.027   0.492   1.175  3.5779 -1.4816 -1.2833
  669SOL     OW 2005   3.035   2.156   1.033 -0.2102  0.0096  0.5569
  669SOL    HW1 2006   2.993   2.183   0.937 -0.4982  0.3871 -1.4002
  669SOL    HW2 2007   2.982   2.195   1.112 -0.6450  1.8466  1.5988
  670SOL     OW 2008   2.922   2.324   2.097 -0.0576 -0.2619 -0.2486
  670SOL    HW1 2009   2.852   2.307   2.171 -0.4653 -1.2588 -2.0713
  670SOL    HW2 2010   2.928   2.415   2.049 -0.6810 -1.6845  0.3068
  671SOL     OW 2011   1.799   1.723   1.494  0.4874  0.7659  0.3537
  671SOL    HW1 2012   1.796   1.766   1.396 -0.3838  0.9715 -0.6512
  671SOL    HW2 2013   1.703   1.687   1.516 -0.1999 -0.5527  1.7618
  672SOL     OW 2014   0.440   0.648   2.581  0.5601 -0.1539 -0.1779
  672SOL    HW1 2015   0.379   0.688   2.505  1.9813 -2.3982  2.4553
  672SOL    HW2 2016   0.415   0.682   2.673 -0.9875 -0.2514  0.1403
  673SOL     OW 2017   0.109   1.377   1.065  0.0758 -0.1477 -0.4763
  673SOL    HW1 2018   0.123   1.393   1.169  1.4179  0.4142  1.6569
  673SOL    HW2 2019   0.200   1.369   1.013  0.2837 -0.4245  0.7752
  674SOL     OW 2020   1.615   2.976   0.261  0.1888 -0.2950  0.3031
  674SOL    HW1 2021   1.641   3.051   0.193  2.4731  0.9624  1.5393
  674SOL    HW2 2022   1.590   2.886   0.219 -0.5313  2.0867  0.5419
  675SOL     OW 2023   1.688   0.862   2.338  0.2558 -0.3192  0.3160
  675SOL    HW1 2024   1.790   0.878   2.315  2.8054 -0.3111  0.1361
  675SOL    HW2 2025   1.646   0.777   2.301 -1.1442  1.0738 -0.3112
  676SOL     OW 2026   2.551   1.544   1.996  0.1691 -0.3407 -0.2023
  676SOL    HW1 2027   2.516   1.483   1.923 -4.0413  2.3859  0.1235
  676SOL    HW2 2028   2.590   1.485   2.078  1.2457 -1.0175  1.2470
  677SOL     OW 2029   1.871   0.700   0.886  0.2139 -0.3571 -0.1572
  677SOL    HW1 2030   1.779   0.682   0.929 -0.0681 -3.7579  0.3929
  677SOL    HW2 2031   1.943   0.697   0.960 -1.2334  0.6207  0.0832
  678SOL     OW 2032   0.077   0.773   1.638 -0.1750 -0.8655 -0.2489
  678SOL    HW1 2033   0.163   0.805   1.683 -1.2924  0.5632 -0.2242
  678SOL    HW2 2034   0.011   0.733   1.708  2.0671 -2.6618 -1.0661
  679SOL     OW 2035   2.584   1.124   1.190  0.1342  0.1785 -0.5006
  679SOL    HW1 2036   2.486   1.162   1.190 -2.1537  0.0270 -0.5326
  679SOL    HW2 2037   2.592   1.032   1.144  1.7662  2.1526  0.0502
  680SOL     OW 2038   2.854   0.475   1.688  0.6971 -0.8540  0.1470
  680SOL    HW1 2039   2.819   0.552   1.626 -0.3702 -0.4824  0.8744
  680SOL    HW2 2040   2.936   0.503   1.743  1.2400  1.4109 -0.7088
  681SOL     OW 2041   2.994   0.037   1.580 -0.0717  0.5109  0.5334
  681SOL    HW1 2042   3.025   0.014   1.485  3.7453  2.9538  0.2842
  681SOL    HW2 2043   2.941   0.124   1.590  1.1632 -0.6048  2.6531
  682SOL     OW 2044   0.648   0.040   1.299 -0.2054  0.1344  1.0270
  682SOL    HW1 2045   0.574  -0.033   1.326 -2.0911 -1.2868  1.0526
  682SOL    HW2 2046   0.728   0.003   1.243 -0.8145  2.8893  0.1239
  683SOL     OW 2047   1.382   0.223   2.131  0.0654 -0.2455 -0.1689
  683SOL    HW1 2048   1.350   0.294   2.200 -0.1668 -1.8984 -2.8680
  683SOL    HW2 2049   1.473   0.254   2.086  1.5546  0.2228  2.1071
  684SOL     OW 2050   1.423   2.165   0.574  0.3803 -0.3329 -0.0865
  684SOL    HW1 2051   1.484   2.092   0.610  0.5582  0.8226 -1.8958
  684SOL    HW2 2052   1.337   2.121   0.534 -0.4898 -0.5803 -0.4565
  685SOL     OW 2053   2.255   2.086   1.969 -0.2914  0.2358 -0.3750
  685SOL    HW1 2054   2.333   2.026   1.936 -0.3575 -0.0829  0.8333
  685SOL    HW2 2055   2.270   2.116   2.065  1.1683 -2.9048 -0.4623
  686SOL     OW 2056   1.529   1.881   2.931 -0.5311 -0.1591 -0.4873
  686SOL    HW1 2057   1.583   1.811   2.990  0.9652 -1.4979 -1.0255
  686SOL    HW2 2058   1.427   1.863   2.932 -1.6430 -0.1437 -0.8566
  687SOL     OW 2059   1.342   2.398   1.957 -0.5894  0.1746  0.2473
  687SOL    HW1 2060   1.380   2.308   1.978  0.4539  3.0848  0.4663
  687SOL    HW2 2061   1.300   2.445   2.042 -1.4363 -1.6079  0.3999
  688SOL     OW 2062   2.090   1.498   1.729 -0.5212  0.3251 -0.2349
  688SOL    HW1 2063   2.186   1.536   1.712  0.9593  1.3588  1.6582
  688SOL    HW2 2064   2.046   1.450   1.648  0.3581 -1.1642 -0.1915
  689SOL     OW 2065   2.396   1.138   2.759  0.3309  0.0991 -0.3577
  689SOL    HW1 2066   2.302   1.099   2.770 -0.8493  2.2719  0.9439
  689SOL    HW2 2067   2.459   1.121   2.839  2.1018  1.5355 -0.5441
  690SOL     OW 2068   2.199   2.762   0.052  0.3607  0.6879 -0.1206
  690SOL    HW1 2069   2.170   2.720  -0.042 -1.4566 -1.3755 -2.7052
  690SOL    HW2 2070   2.124   2.778   0.128  1.4086  1.8190 -0.0357
  691SOL     OW 2071   2.572   0.433   2.116  0.2006  0.5475 -0.4807
  691SOL    HW1 2072   2.621   0.340   2.123  0.9202 -0.2598 -0.5766
  691SOL    HW2 2073   2.631   0.511   2.074  0.5790  1.1217  0.7214
  692SOL     OW 2074   2.660   1.214   0.769 -0.6284 -0.1112 -0.3165
  692SOL    HW1 2075   2.578   1.236   0.705 -0.3280 -1.9837 -0.2030
  692SOL    HW2 2076   2.676   1.286   0.843 -2.2774 -0.2943  0.5098
  693SOL     OW 2077   2.843   2.944   0.628 -0.6152  0.2959  0.8900
  693SOL    HW1 2078   2.805   3.016   0.692 -0.2337 -0.2385 -1.8817
  693SOL    HW2 2079   2.807   2.960   0.533  0.8167  1.8867  1.1808
  694SOL     OW 2080   2.397   2.216   0.164  0.2926 -0.6414 -0.0247
  694SOL    HW1 2081   2.381   2.311   0.196  2.7506 -4.2533  0.0152
  694SOL    HW2 2082   2.309   2.163   0.147  1.5760  0.3438  0.2556
  695SOL     OW 2083   0.484   2.994   1.453  0.6666 -0.3602 -0.3100
  695SOL    HW1 2084   0.417   2.917   1.421 -0.3671 -1.2958 -0.3310
  695SOL    HW2 2085   0.439   3.060   1.522 -0.5712 -0.7762  0.0562
  696SOL     OW 2086   2.776   1.969   0.742  0.3695 -0.0828 -0.1883
  696SOL    HW1 2087   2.855   1.906   0.754 -0.2132  3.3286  0.0824
  696SOL    HW2 2088   2.780   2.017   0.649  1.7240 -1.4478 -0.9393
  697SOL     OW 2089   1.673   1.864   1.817 -0.2955 -0.2000  0.3025
  697SOL    HW1 2090   1.762   1.811   1.797  1.3421 -0.0928 -0.6129
  697SOL    HW2 2091   1.686   1.964   1.815 -0.0146 -0.2534 -0.9418
  698SOL     OW 2092   2.893   0.437   2.670 -0.2135 -0.0484  0.8399
  698SOL    HW1 2093   2.912   0.395   2.577 -4.7922  0.6382  0.8443
  698SOL    HW2 2094   2.927   0.377   2.750 -0.5500  0.7778 -0.2772
  699SOL     OW 2095   1.562   0.082   2.913  0.0802 -0.1791  0.0964
  699SOL    HW1 2096   1.547  -0.018   2.890  1.7037  0.6050  1.0905
  699SOL    HW2 2097   1.621   0.135   2.841 -0.7780 -1.1929 -0.0858
  700SOL     OW 2098   0.991   2.243   1.365  0.1952  0.1786  0.2519
  700SOL    HW1 2099   1.079   2.211   1.327  0.1775  1.9973  1.6374
  700SOL    HW2 2100   0.907   2.185   1.339 -3.6891  4.1122  1.0253
  701SOL     OW 2101   1.905   2.847   0.055 -0.1647 -0.0447 -0.0678
  701SOL    HW1 2102   1.861   2.811   0.140  1.0181  5.3576 -0.5281
  701SOL    HW2 2103   1.934   2.943   0.048 -0.9800 -0.9985 -1.1885
  702SOL     OW 2104   2.100   1.356   1.964 -0.2056 -0.0519 -0.0547
  702SOL    HW1 2105   2.189   1.298   1.971 -0.7875 -0.8103 -0.9569
  702SOL    HW2 2106   2.098   1.423   1.882 -0.6371 -0.6008  0.7866
  703SOL     OW 2107   1.922   0.914   1.528 -0.0813  0.1643  0.3943
  703SOL    HW1 2108   1.913   0.809   1.534 -0.6397 -0.3183  0.9232
  703SOL    HW2 2109   2.008   0.947   1.577 -1.8424 -1.3114 -0.8972
  704SOL     OW 2110   0.324   2.048   1.696  0.2414 -0.1527 -0.1236
  704SOL    HW1 2111   0.367   2.009   1.784  0.4188 -0.7686 -1.4767
  704SOL    HW2 2112   0.375   2.131   1.660  1.2292  1.3984  0.6340
  705SOL     OW 2113   2.434   1.457   0.924  0.0652  0.1301 -0.3167
  705SOL    HW1 2114   2.397   1.438   0.831  0.4563  2.2709 -1.7370
  705SOL    HW2 2115   2.535   1.435   0.938  0.8579  2.4865 -0.7404
  706SOL     OW 2116   0.635   1.697   1.796  0.2894 -0.5003 -0.4963
  706SOL    HW1 2117   0.696   1.753   1.733  3.1061  1.1951 -2.7079
  706SOL    HW2 2118   0.686   1.660   1.883 -1.3996  0.4749  0.2576
  707SOL     OW 2119   2.327   1.211   1.983 -0.1167 -0.0127 -0.1744
  707SOL    HW1 2120   2.354   1.220   2.081  1.3472 -0.9888 -1.3030
  707SOL    HW2 2121   2.337   1.111   1.946 -1.4186 -0.4589  0.7007
  708SOL     OW 2122   3.030   0.467   3.079  0.1708 -0.0503 -0.3117
  708SOL    HW1 2123   3.069   0.554   3.039  0.3275 -0.6871  1.4070
  708SOL    HW2 2124   3.005   0.395   3.002 -0.8693  1.0749  1.6556
  709SOL     OW 2125   1.890   1.882   0.381  0.4344 -0.5813 -0.1222
  709SOL    HW1 2126   1.870   1.972   0.422  0.1433  0.1886 -0.7407
  709SOL    HW2 2127   1.865   1.876   0.280 -0.5604 -2.2572 -0.2703
  710SOL     OW 2128   1.816   1.580   2.460  0.3480  0.2664  0.1696
  710SOL    HW1 2129   1.868   1.503   2.426  0.1829  1.4362 -0.3047
  710SOL    HW2 2130   1.797   1.564   2.561  1.5766  0.0633 -0.7449
  711SOL     OW 2131   2.691   2.908   0.920 -0.8091  0.5521 -0.5024
  711SOL    HW1 2132   2.625   2.992   0.923  1.5020  1.5514  0.6984
  711SOL    HW2 2133   2.785   2.930   0.966 -0.1422  1.7731  0.1377
  712SOL     OW 2134   1.403   2.124   1.992 -0.1701  0.1745 -0.1214
  712SOL    HW1 2135   1.498   2.081   1.980 -1.8517 -1.0343  1.9910
  712SOL    HW2 2136   1.347   2.125   1.912  3.3398 -0.4759  1.9542
  713SOL     OW 2137   2.771   1.420   2.499 -0.2711  0.4460 -0.1668
  713SOL    HW1 2138   2.777   1.317   2.498 -1.9218  2.2121 -1.0117
  713SOL    HW2 2139   2.689   1.464   2.542  0.7978  0.6545 -1.0930
  714SOL     OW 2140   2.690   0.488   2.368  0.1700 -0.1526 -0.2340
  714SOL    HW1 2141   2.647   0.433   2.444  1.0561  2.1349 -0.1826
  714SOL    HW2 2142   2.631   0.502   2.289 -3.1189 -0.9139  1.0648
  715SOL     OW 2143   1.596   2.173   1.150  0.4780  0.1443  0.0995
  715SOL    HW1 2144   1.523   2.183   1.073  0.9688  1.5949  0.3749
  715SOL    HW2 2145   1.560   2.189   1.245  0.3198  3.2076 -0.6251
  716SOL     OW 2146   1.257   0.106   1.515 -0.5294  0.2275 -0.3313
  716SOL    HW1 2147   1.155   0.121   1.504  0.1703 -2.2342 -2.2481
  716SOL    HW2 2148   1.315   0.194   1.503  4.4801 -3.6174 -0.0703
  717SOL     OW 2149   1.143   0.576   1.622 -0.4758 -0.0542 -0.0027
  717SOL    HW1 2150   1.239   0.582   1.657 -0.3741 -1.2833 -1.5581
  717SOL    HW2 2151   1.137   0.536   1.526  0.8852 -1.4902 -0.2998
  718SOL     OW 2152   0.683   0.883   0.953  0.2966  0.4664 -0.1921
  718SOL    HW1 2153   0.659   0.876   0.851 -0.7153 -0.9232  0.6961
  718SOL    HW2 2154   0.654   0.975   0.991  2.2446 -0.1537 -6.6964
  719SOL     OW 2155   0.677   1.728   2.303 -0.2772  0.0855  0.4210
  719SOL    HW1 2156   0.746   1.766   2.369  2.1983  0.8302  1.9125
  719SOL    HW2 2157   0.643   1.630   2.324  0.9266  0.5765 -2.7220
  720SOL     OW 2158   2.189   1.154   0.294  0.2091 -0.1385 -0.0868
  720SOL    HW1 2159   2.261   1.086   0.256  0.1833 -1.1983 -2.0142
  720SOL    HW2 2160   2.150   1.127   0.387  2.1491  0.6184  1.5456
  721SOL     OW 2161   2.241   3.025   2.115 -0.1933 -0.0337 -0.2291
  721SOL    HW1 2162   2.212   3.011   2.015  3.7194 -2.0736 -1.8586
  721SOL    HW2 2163   2.161   3.067   2.174 -0.0855  2.4819  0.0320
  722SOL     OW 2164   2.350   1.682   0.531 -0.2647 -0.2682 -0.5427
  722SOL    HW1 2165   2.416   1.680   0.455 -0.1790  0.6897 -0.1003
  722SOL    HW2 2166   2.253   1.697   0.504  0.5879 -2.4920  0.8474
  723SOL     OW 2167   2.635   2.775   1.939 -0.2258 -0.2487 -0.4904
  723SOL    HW1 2168   2.675   2.858   1.978 -1.1434 -0.7436  0.0798
  723SOL    HW2 2169   2.560   2.738   1.997 -0.5716  0.1281 -0.1911
  724SOL     OW 2170   0.389   2.514   2.407  0.7632 -0.2361  0.3514
  724SOL    HW1 2171   0.287   2.494   2.428  0.2043  0.4541  1.5518
  724SOL    HW2 2172   0.439   2.514   2.495  1.4479 -0.3950 -2.7611
  725SOL     OW 2173   2.440   2.836   1.506 -0.0942 -0.3931  1.0000
  725SOL    HW1 2174   2.421   2.870   1.411 -2.8422 -0.8040 -0.1763
  725SOL    HW2 2175   2.487   2.738   1.513 -0.4541 -3.0167  0.9463
  726SOL     OW 2176   2.526   2.330   0.700 -0.3373  0.0587  0.0987
  726SOL    HW1 2177   2.482   2.427   0.693  0.0197 -3.8872  1.8399
  726SOL    HW2 2178   2.518   2.282   0.610 -0.6215 -1.9674  0.9846
  727SOL     OW 2179   0.108   0.011   0.113  0.2423 -0.0767  0.6294
  727SOL    HW1 2180   0.207   0.012   0.077 -0.7187 -0.9139  0.9161
  727SOL    HW2 2181   0.063  -0.074   0.086 -1.3568  2.6860  0.8999
  728SOL     OW 2182   2.933   0.690   0.936 -0.0906  0.1478  0.5056
  728SOL    HW1 2183   2.876   0.689   0.845  0.0678 -0.0296 -0.2566
  728SOL    HW2 2184   2.872   0.666   1.018 -2.2794 -1.2733 -0.6097
  729SOL     OW 2185   0.036   2.531   0.786 -0.2196 -0.5544  0.1323
  729SOL    HW1 2186   0.058   2.496   0.878  1.1902  0.5683 -2.5311
  729SOL    HW2 2187   0.119   2.523   0.730  0.4495 -1.6339 -0.1035
  730SOL     OW 2188   2.595   0.676   0.892  0.8244 -0.2433 -0.2690
  730SOL    HW1 2189   2.568   0.774   0.885  1.2134 -1.7216 -3.5337
  730SOL    HW2 2190   2.657   0.647   0.815  0.4408  0.5975  0.8628
  731SOL     OW 2191   3.077   2.185   2.344 -0.2075  0.1084  0.4165
  731SOL    HW1 2192   3.063   2.200   2.445 -0.2207 -0.3818  0.5274
  731SOL    HW2 2193   2.998   2.225   2.285 -2.0219 -0.9924 -0.5475
  732SOL     OW 2194   1.278   2.750   2.006 -0.2571 -0.2283  0.0871
  732SOL    HW1 2195   1.271   2.673   2.073  0.5867  0.3031 -2.2917
  732SOL    HW2 2196   1.268   2.716   1.908 -0.5740  1.0815  0.1116
  733SOL     OW 2197   0.028   0.593   2.265 -0.1584  0.1219  0.4114
  733SOL    HW1 2198   0.090   0.658   2.209  0.0023  1.2754 -0.8683
  733SOL    HW2 2199  -0.014   0.518   2.208 -0.8751  0.8392 -0.6889
  734SOL     OW 2200   1.458   0.381   2.697 -0.0706 -0.5145 -0.5664
  734SOL    HW1 2201   1.455   0.470   2.753 -1.3684  1.3662 -1.3038
  734SOL    HW2 2202   1.400   0.306   2.743  0.5483 -0.5976  1.0046
  735SOL     OW 2203   2.935   2.655   2.285 -1.0469  0.1804 -0.3056
  735SOL    HW1 2204   2.938   2.594   2.201 -0.5575  0.2550  0.4705
  735SOL    HW2 2205   2.980   2.743   2.279 -0.4592 -2.1233  1.4993
  736SOL     OW 2206   0.908   0.405   2.539 -0.6572 -0.1185 -0.7363
  736SOL    HW1 2207   0.808   0.411   2.557 -0.2348 -0.9608  1.7825
  736SOL    HW2 2208   0.929   0.361   2.448  1.6810 -0.4404  0.7819
  737SOL     OW 2209   2.610   0.434   2.790 -0.0921 -0.6163  0.4031
  737SOL    HW1 2210   2.599   0.394   2.883  0.2495  0.7522 -0.1178
  737SOL    HW2 2211   2.711   0.460   2.778 -1.5196  0.3825 -1.7273
  738SOL     OW 2212   1.750   1.234   2.941  0.2408  0.3446 -0.0041
  738SOL    HW1 2213   1.851   1.209   2.927 -0.4510  1.2004  1.0245
  738SOL    HW2 2214   1.701   1.148   2.975 -0.0558  0.0199 -2.7394
  739SOL     OW 2215   1.848   0.680   0.618  0.4103 -0.2804  0.4414
  739SOL    HW1 2216   1.871   0.703   0.722  1.0021  0.0164  1.5688
  739SOL    HW2 2217   1.846   0.581   0.604  0.8680  2.3352  0.5838
  740SOL     OW 2218   1.964   1.936   2.340  0.1181 -0.2578  0.3138
  740SOL    HW1 2219   2.028   1.848   2.360  1.1019 -1.6136 -0.6940
  740SOL    HW2 2220   1.887   1.918   2.271 -1.6058  0.1816  1.1737
  741SOL     OW 2221   2.529   3.093   2.474  0.2810 -0.4952  0.3551
  741SOL    HW1 2222   2.630   3.090   2.493  0.4031  0.6216  1.9855
  741SOL    HW2 2223   2.499   3.165   2.404  0.9787  0.9739  1.0388
  742SOL     OW 2224   2.187   1.434   0.164  0.2934  0.4451 -0.2974
  742SOL    HW1 2225   2.091   1.445   0.120  0.7003 -0.6637  0.3663
  742SOL    HW2 2226   2.192   1.338   0.201 -2.1660  1.3515 -2.8303
  743SOL     OW 2227   1.834   0.612   2.609 -0.0198  0.0362 -0.4051
  743SOL    HW1 2228   1.815   0.557   2.520  1.1109 -2.2747 -1.3483
  743SOL    HW2 2229   1.741   0.641   2.651 -0.2270 -1.6781  0.0328
  744SOL     OW 2230   2.666   2.155   0.078  0.1623 -0.9964  0.0185
  744SOL    HW1 2231   2.578   2.211   0.089 -0.5948  1.5067  1.3658
  744SOL    HW2 2232   2.650   2.063   0.034  2.5599  0.1139 -0.2046
  745SOL     OW 2233   2.194   2.565   2.218 -0.3491  0.4783 -0.1243
  745SOL    HW1 2234   2.116   2.565   2.149 -0.9458 -0.6942  0.2795
  745SOL    HW2 2235   2.159   2.574   2.317 -2.8255  1.6888  1.9532
  746SOL     OW 2236   0.025   2.603   1.749  0.0684  0.5043 -0.1307
  746SOL    HW1 2237   0.117   2.569   1.717 -1.4957  2.1060 -1.3616
  746SOL    HW2 2238   0.032   2.691   1.805 -1.1347 -0.5154  0.8054
  747SOL     OW 2239   0.060   1.799   1.643  0.8077  0.0502  0.0511
  747SOL    HW1 2240   0.003   1.724   1.614  0.4009  2.8546  2.0266
  747SOL    HW2 2241   0.124   1.846   1.575 -1.4637 -0.3599 -0.0137
  748SOL     OW 2242   1.841   2.738   2.911  0.3487  0.3813 -0.2189
  748SOL    HW1 2243   1.861   2.777   3.007  0.5271  1.2680  3.8128
  748SOL    HW2 2244   1.744   2.714   2.888 -1.2105 -2.5193  2.2241
  749SOL     OW 2245   1.335   2.978   0.865  1.1533  0.7113  0.3800
  749SOL    HW1 2246   1.283   3.058   0.839 -1.0905 -0.2164 -1.6407
  749SOL    HW2 2247   1.419   2.962   0.800 -2.0997  2.0608 -0.6414
  750SOL     OW 2248   2.225   0.180   1.847  0.6403  0.2138 -0.0041
  750SOL    HW1 2249   2.272   0.218   1.760 -1.8317 -1.6959 -0.9960
  750SOL    HW2 2250   2.245   0.233   1.934 -1.9341 -0.7829 -2.4550
  751SOL     OW 2251   0.775   2.134   2.866 -0.5526 -0.4290  0.1153
  751SOL    HW1 2252   0.864   2.125   2.922 -0.5524  1.4956 -0.1682
  751SOL    HW2 2253   0.701   2.072   2.899  1.5735 -3.0543 -2.2227
  752SOL     OW 2254   1.295   0.802   1.163 -0.4631  0.1285  0.1391
  752SOL    HW1 2255   1.327   0.901   1.175 -1.2756  0.1879  0.7186
  752SOL    HW2 2256   1.358   0.739   1.214  2.0056  1.8238 -0.6729
  753SOL     OW 2257   0.966   2.570   1.798  0.5055  0.0231  0.2694
  753SOL    HW1 2258   1.072   2.571   1.780 -1.5334 -0.3034  0.8828
  753SOL    HW2 2259   0.930   2.654   1.853 -0.5466 -2.2733  0.6974
  754SOL     OW 2260   1.172   1.161   2.997 -0.4145  0.4814  0.2860
  754SOL    HW1 2261   1.231   1.083   2.960  1.6596 -1.7155  0.9681
  754SOL    HW2 2262   1.222   1.251   3.005 -0.0352  0.9150 -0.3080
  755SOL     OW 2263   1.977   0.462   2.211  0.4535 -0.1736  0.2399
  755SOL    HW1 2264   2.042   0.380   2.235  0.6853 -1.6129 -0.8939
  755SOL    HW2 2265   1.904   0.472   2.278  0.6310  0.5782 -0.6102
  756SOL     OW 2266   2.506   0.997   3.002  0.1523  0.8000 -0.3340
  756SOL    HW1 2267   2.612   0.992   3.014 -0.3510  0.4282  0.6250
  756SOL    HW2 2268   2.455   0.908   3.014  1.0418  0.3115  1.6368
  757SOL     OW 2269   0.088   0.407   1.960  0.2333 -0.5376 -0.0265
  757SOL    HW1 2270   0.142   0.323   1.959  0.1854 -0.2201  1.3702
  757SOL    HW2 2271   0.001   0.398   2.024  0.0510  1.2001 -1.3449
  758SOL     OW 2272   2.231   0.094   1.506 -0.9738  0.6170 -0.0379
  758SOL    HW1 2273   2.214  -0.005   1.528  2.8538  0.6979  0.7379
  758SOL    HW2 2274   2.246   0.113   1.406 -2.0134 -1.5913  1.4076
  759SOL     OW 2275   1.676   0.042   0.064 -0.4574 -0.4297 -0.1620
  759SOL    HW1 2276   1.640   0.055  -0.031  0.1323 -0.2145 -0.9038
  759SOL    HW2 2277   1.773   0.070   0.076 -1.3250 -1.0572 -0.6171
  760SOL     OW 2278   2.685   2.006   2.826 -0.5897 -0.3086 -0.4586
  760SOL    HW1 2279   2.597   1.960   2.860 -0.7718  0.4517 -0.0876
  760SOL    HW2 2280   2.672   2.107   2.831  2.1971  0.4112 -1.0083
  761SOL     OW 2281   1.932   1.740   1.734  0.3985 -0.4294  0.5963
  761SOL    HW1 2282   1.982   1.650   1.748  1.0361 -0.5418 -0.4404
  761SOL    HW2 2283   1.881   1.731   1.641  0.8689 -0.9202 -1.3849
  762SOL     OW 2284   0.477   2.397   0.934 -0.1127 -0.5313  0.2360
  762SOL    HW1 2285   0.519   2.414   0.838 -1.1905 -1.0612 -0.0828
  762SOL    HW2 2286   0.550   2.403   1.010 -0.9584  0.0118  2.3987
  763SOL     OW 2287   2.100   1.573   2.985 -0.5759 -0.3342  0.4932
  763SOL    HW1 2288   2.190   1.524   2.997 -0.7964 -1.1674 -0.3284
  763SOL    HW2 2289   2.036   1.541   3.055  1.3681 -0.9333 -1.1802
  764SOL     OW 2290   0.689   0.605   0.684  0.6638 -0.1316  0.4436
  764SOL    HW1 2291   0.599   0.561   0.668 -2.0240  1.8249 -1.1598
  764SOL    HW2 2292   0.735   0.569   0.769 -0.1120 -1.2450  0.2582
  765SOL     OW 2293   0.808   0.327   0.713 -0.2042 -0.4538  0.5168
  765SOL    HW1 2294   0.892   0.350   0.665  1.8595  0.7025 -0.2973
  765SOL    HW2 2295   0.788   0.393   0.798  0.2843 -1.3523  0.5485
  766SOL     OW 2296   2.931   2.151   3.069 -0.0135 -0.0540  0.1521
  766SOL    HW1 2297   2.838   2.159   3.118  0.8016 -1.5515 -1.0327
  766SOL    HW2 2298   2.991   2.234   3.085 -0.2142  0.1941 -1.4383
  767SOL     OW 2299   2.820   1.610   0.609 -0.5338  0.1855  0.3933
  767SOL    HW1 2300   2.734   1.651   0.647  0.3121 -0.8837  0.6450
  767SOL    HW2 2301   2.904   1.645   0.658 -0.4064  2.2455 -0.0265
  768SOL     OW 2302   1.071   0.201   0.192  0.2203 -0.0962  0.5364
  768SOL    HW1 2303   1.045   0.265   0.269  1.3843  1.2628  0.7312
  768SOL    HW2 2304   1.166   0.161   0.191 -0.6442  3.2271 -1.4335
  769SOL     OW 2305   1.119   1.825   2.294 -1.0367  0.0038  0.4142
  769SOL    HW1 2306   1.028   1.856   2.334  0.3233 -1.7749  0.8802
  769SOL    HW2 2307   1.188   1.804   2.376  2.4554  0.7802  1.8273
  770SOL     OW 2308   0.139   1.136   2.332 -0.8436 -0.4564 -0.2509
  770SOL    HW1 2309   0.132   1.221   2.395  1.1308  0.2052  0.7097
  770SOL    HW2 2310   0.050   1.116   2.285 -0.5648  0.8449 -1.4983
  771SOL     OW 2311   3.036   2.823   1.940  0.3225 -0.1803  0.1850
  771SOL    HW1 2312   2.983   2.835   1.856  1.7546  0.6804  3.0105
  771SOL    HW2 2313   3.038   2.905   2.000  1.2012 -0.1189 -1.8000
  772SOL     OW 2314   2.364   0.248   2.810  0.0424  0.2203 -0.3886
  772SOL    HW1 2315   2.428   0.179   2.767 -0.1734  2.6900  0.5705
  772SOL    HW2 2316   2.373   0.254   2.909 -1.8528  1.4228  1.5207
  773SOL     OW 2317   0.585   2.065   2.409 -0.1177  0.6001 -0.1418
  773SOL    HW1 2318   0.538   2.153   2.385  0.0340 -3.2380 -0.4381
  773SOL    HW2 2319   0.519   1.989   2.427  1.0096  0.3708 -3.8743
  774SOL     OW 2320   2.119   0.020   2.571 -0.5339 -0.2398 -0.4973
  774SOL    HW1 2321   2.117   0.115   2.624 -1.2815 -0.0165  2.4213
  774SOL    HW2 2322   2.167  -0.047   2.636  1.0990 -0.5101 -0.6089
  775SOL     OW 2323   2.546   2.953   2.229 -0.0298  0.4635 -0.5017
  775SOL    HW1 2324   2.456   2.988   2.202 -0.7320 -0.8887 -1.6684
  775SOL    HW2 2325   2.566   2.962   2.330 -2.1527  1.4098 -4.2284
  776SOL     OW 2326   3.099   1.260   0.177 -0.1947  0.5417 -0.8726
  776SOL    HW1 2327   3.043   1.204   0.112 -0.7519  1.2067  1.7677
  776SOL    HW2 2328   3.054   1.266   0.268 -1.3837 -2.1307  0.1259
  777SOL     OW 2329   0.380   2.946   0.443 -0.5661 -0.3630 -1.0222
  777SOL    HW1 2330   0.287   2.931   0.404 -0.2088 -3.2893 -2.5182
  777SOL    HW2 2331   0.450   2.877   0.419  1.0799  1.7883 -1.5863
  778SOL     OW 2332   1.370   2.016   0.261 -0.5072  0.6714 -0.6829
  778SOL    HW1 2333   1.300   2.054   0.328 -1.0904 -0.6423  0.2792
  778SOL    HW2 2334   1.376   2.064   0.169  0.4299 -0.8706 -1.3670
  779SOL     OW 2335   0.153   0.796   0.477  0.0201  0.1151  0.3065
  779SOL    HW1 2336   0.095   0.711   0.442  0.3500  1.3586 -1.3196
  779SOL    HW2 2337   0.098   0.870   0.521 -1.2613 -1.7232 -1.2500
  780SOL     OW 2338   0.117   0.286   2.327  0.3080 -0.6324 -0.3099
  780SOL    HW1 2339   0.113   0.359   2.399 -2.2667  0.7452 -1.6223
  780SOL    HW2 2340   0.200   0.303   2.268  1.3954  1.6629 -0.4461
  781SOL     OW 2341   0.717   1.700   1.517  0.2263  0.3535  0.0861
  781SOL    HW1 2342   0.770   1.635   1.580 -0.8254  1.5018  0.6717
  781SOL    HW2 2343   0.615   1.692   1.536 -0.5074  2.2306  0.4628
  782SOL     OW 2344   2.564   0.059   0.937 -0.1683 -0.1328  0.7265
  782SOL    HW1 2345   2.491   0.077   0.866  0.0326  0.0891  1.0166
  782SOL    HW2 2346   2.544   0.097   1.031  1.1528  2.5762 -1.4544
  783SOL     OW 2347   2.766   0.750   2.473  0.4975  0.3163  0.5637
  783SOL    HW1 2348   2.775   0.731   2.575  1.8413 -2.9397 -2.1131
  783SOL    HW2 2349   2.757   0.661   2.419  1.4921 -0.7816  2.7595
  784SOL     OW 2350   1.423   2.151   0.013 -0.3214  0.2106 -0.2766
  784SOL    HW1 2351   1.448   2.253   0.040  0.7362  3.0437 -2.0656
  784SOL    HW2 2352   1.414   2.141  -0.089  0.2225 -0.0250  1.9707
  785SOL     OW 2353   2.086   0.298   0.004 -0.5271 -0.1919  0.6149
  785SOL    HW1 2354   2.003   0.320   0.058  2.8208 -0.2281 -1.7746
  785SOL    HW2 2355   2.121   0.380  -0.053 -0.3479  0.1857  1.0265
  786SOL     OW 2356   2.053   2.183   2.247 -0.2289 -0.1920 -0.8480
  786SOL    HW1 2357   2.006   2.098   2.275 -0.2910  2.0769  1.3757
  786SOL    HW2 2358   2.162   2.178   2.245 -1.3704  0.0453 -1.8111
  787SOL     OW 2359   1.355   0.563   0.884 -0.5361  0.6546  0.2531
  787SOL    HW1 2360   1.285   0.630   0.864  1.3294 -2.4203 -0.8688
  787SOL    HW2 2361   1.425   0.560   0.806 -1.7516  0.4406  1.9211
  788SOL     OW 2362   1.220   0.419   0.018 -0.4482 -0.0174  0.0432
  788SOL    HW1 2363   1.147   0.364  -0.027 -1.4277  0.5357  0.9169
  788SOL    HW2 2364   1.190   0.491   0.086  1.2178 -0.5669  0.1175
  789SOL     OW 2365   2.522   0.118   1.950 -0.2306 -0.2594  0.0376
  789SOL    HW1 2366   2.428   0.077   1.938  1.7962  0.6781  1.4124
  789SOL    HW2 2367   2.592   0.053   1.929 -1.7579  1.7989 -0.9157
  790SOL     OW 2368   2.602   2.760   0.690 -0.0206 -0.1375  0.3433
  790SOL    HW1 2369   2.679   2.789   0.632  1.0025  0.8974 -1.5689
  790SOL    HW2 2370   2.615   2.807   0.785  1.3473  0.4597  0.0671
  791SOL     OW 2371   1.938   1.204   0.196  0.0293  0.0625  0.4425
  791SOL    HW1 2372   1.878   1.137   0.246 -0.4249 -0.4910  0.7361
  791SOL    HW2 2373   2.033   1.186   0.231  1.8644  0.8227 -0.1181
  792SOL     OW 2374   0.404   1.743   2.166 -0.4360 -0.5330 -0.4399
  792SOL    HW1 2375   0.502   1.743   2.201  1.4495 -2.5942  1.2979
  792SOL    HW2 2376   0.361   1.650   2.182 -0.4325  0.0305  2.5906
  793SOL     OW 2377   2.114   1.597   2.101 -0.5528  0.0189  0.4703
  793SOL    HW1 2378   2.195   1.639   2.055  1.2454 -0.8232  1.1284
  793SOL    HW2 2379   2.107   1.492   2.087  0.3500 -0.7664  2.3313
  794SOL     OW 2380   0.521   1.497   2.276  0.4016  0.0982 -0.2209
  794SOL    HW1 2381   0.509   1.432   2.196  1.7116  1.1359  1.0589
  794SOL    HW2 2382   0.462   1.468   2.357  1.1060 -0.5688 -1.0570
  795SOL     OW 2383   2.505   2.279   1.813  0.2982  0.9881  0.3573
  795SOL    HW1 2384   2.514   2.241   1.913 -0.0790  0.7665  2.1830
  795SOL    HW2 2385   2.432   2.228   1.757 -0.9910 -0.5933 -0.9422
  796SOL     OW 2386   3.084   1.108   2.636  0.3773  0.4985 -0.3872
  796SOL    HW1 2387   2.978   1.114   2.650 -2.4150 -1.2116 -1.4915
  796SOL    HW2 2388   3.138   1.103   2.725 -0.9837  0.6023  1.6780
  797SOL     OW 2389   0.828   0.629   1.402 -0.0921  0.0842 -0.2904
  797SOL    HW1 2390   0.889   0.694   1.456 -2.5113 -0.8426  0.8657
  797SOL    HW2 2391   0.765   0.682   1.339  0.5309 -1.3551  0.8943
  798SOL     OW 2392   1.313   0.435   1.192  0.0303 -0.1267  0.1855
  798SOL    HW1 2393   1.393   0.412   1.252 -0.0761  0.8919 -0.1987
  798SOL    HW2 2394   1.344   0.483   1.109  1.3294 -1.9274 -1.3648
  799SOL     OW 2395   1.977   2.651   1.023  0.4139  0.3640 -0.1895
  799SOL    HW1 2396   1.897   2.659   1.093  0.4203 -1.2877  1.3660
  799SOL    HW2 2397   1.948   2.673   0.925  2.1377 -0.2277 -0.9901
  800SOL     OW 2398   3.055   0.617   1.835  0.6342 -0.4727 -0.7453
  800SOL    HW1 2399   3.002   0.693   1.883 -1.4459 -2.0377  0.6951
  800SOL    HW2 2400   3.094   0.545   1.902 -1.0713 -0.1358 -0.7698
  801SOL     OW 2401   1.906   2.229   0.133  0.2914 -0.2304 -0.1680
  801SOL    HW1 2402   1.821   2.186   0.096  1.5137 -1.8521  0.2485
  801SOL    HW2 2403   1.993   2.174   0.110  0.4090  0.5657 -5.2331
  802SOL     OW 2404   0.720   0.761   2.579 -0.7665 -0.3947  0.2976
  802SOL    HW1 2405   0.802   0.751   2.510  1.8191  1.3772 -1.8033
  802SOL    HW2 2406   0.637   0.703   2.560  0.9759  0.9910 -1.0940
  803SOL     OW 2407   0.905   0.135   0.924  0.2118 -0.4266 -0.2840
  803SOL    HW1 2408   0.997   0.181   0.941 -2.7810 -1.1815 -0.1341
  803SOL    HW2 2409   0.852   0.182   0.847  0.3302 -1.5613 -0.7473
  804SOL     OW 2410   0.370   3.074   2.114 -1.0459  0.8293 -0.4258
  804SOL    HW1 2411   0.334   3.151   2.054 -2.7904 -1.8371 -0.8141
  804SOL    HW2 2412   0.355   2.980   2.072  1.6526  0.8066  3.3449
  805SOL     OW 2413   2.442   0.252   0.263 -0.1718 -0.1381  0.2659
  805SOL    HW1 2414   2.544   0.265   0.248  0.1979 -0.4707 -0.1792
  805SOL    HW2 2415   2.392   0.236   0.175 -1.8532 -0.9800 -2.9099
  806SOL     OW 2416   0.663   2.401   1.694 -0.0653 -0.5423  0.3097
  806SOL    HW1 2417   0.667   2.505   1.695  0.5243 -0.1904  0.8127
  806SOL    HW2 2418   0.740   2.352   1.644 -0.5126 -2.4972 -0.6072
  807SOL     OW 2419   2.447   0.952   0.452 -0.1281 -0.3107  0.3901
  807SOL    HW1 2420   2.541   0.913   0.473  1.0932 -0.1856  3.9064
  807SOL    HW2 2421   2.430   0.942   0.349  0.2388 -1.4494 -0.2209
  808SOL     OW 2422   0.549   1.991   2.967 -0.4708 -0.2158 -0.5287
  808SOL    HW1 2423   0.552   2.021   3.064  0.9060 -0.1751 -0.8901
  808SOL    HW2 2424   0.529   1.888   2.951  1.0779 -1.6359  0.5183
  809SOL     OW 2425   2.601   1.964   1.950 -0.7444 -0.1051 -0.2197
  809SOL    HW1 2426   2.684   2.024   1.940 -3.9194 -0.9955  2.8029
  809SOL    HW2 2427   2.568   1.931   1.857 -1.6899  1.9666 -0.4980
  810SOL     OW 2428   2.045   1.107   0.523 -0.5707 -0.6347  0.8704
  810SOL    HW1 2429   2.034   1.061   0.616  0.3386  1.0869  1.9057
  810SOL    HW2 2430   2.003   1.207   0.521 -3.0325  0.2246  1.2217
  811SOL     OW 2431   1.295   2.418   1.265  0.3847  0.2120  0.1252
  811SOL    HW1 2432   1.269   2.316   1.267 -0.2225 -0.8832  1.9375
  811SOL    HW2 2433   1.251   2.472   1.188  1.1578  1.4865  1.8470
  812SOL     OW 2434   1.397   0.790   1.944  0.4295  0.1848 -0.0343
  812SOL    HW1 2435   1.443   0.842   2.021  1.7600 -0.9564 -1.1192
  812SOL    HW2 2436   1.300   0.826   1.924  0.9544 -0.6346  2.3350
  813SOL     OW 2437   1.755   2.103   2.451  0.0005  0.6153 -0.3715
  813SOL    HW1 2438   1.840   2.043   2.443 -2.5777 -0.0392  0.5853
  813SOL    HW2 2439   1.686   2.087   2.369 -3.2064  0.2284 -1.8220
  814SOL     OW 2440   2.846   1.530   2.918 -0.2072 -0.1976  0.5827
  814SOL    HW1 2441   2.948   1.547   2.943  1.0415 -0.0091 -0.0045
  814SOL    HW2 2442   2.817   1.602   2.843 -0.3310  0.9285 -1.9208
  815SOL     OW 2443   2.252   2.910   2.718  0.1284 -0.0545 -0.2105
  815SOL    HW1 2444   2.273   2.895   2.818 -0.0281  0.4892  1.0756
  815SOL    HW2 2445   2.313   2.855   2.657 -1.1589  1.7838 -1.9848
  816SOL     OW 2446   1.758   0.354   1.685  0.3004 -0.2835 -0.3407
  816SOL    HW1 2447   1.712   0.261   1.703  2.5222 -1.1992  1.5663
  816SOL    HW2 2448   1.692   0.428   1.702 -1.9010 -0.5064 -1.8179
  817SOL     OW 2449   0.476   1.197   2.442 -0.2511  0.1713 -0.2738
  817SOL    HW1 2450   0.432   1.293   2.449  0.0486  2.2967  2.0223
  817SOL    HW2 2451   0.503   1.167   2.349  2.4227 -0.9930  0.3957
  818SOL     OW 2452   2.028   0.836   0.437 -0.5855 -0.4420  0.6236
  818SOL    HW1 2453   2.023   0.940   0.450 -0.2463 -1.4419 -0.9357
  818SOL    HW2 2454   1.972   0.792   0.513 -1.0780 -0.1968  0.8927
  819SOL     OW 2455   2.765   2.920   3.044  0.9193 -0.6887 -0.3778
  819SOL    HW1 2456   2.830   2.843   3.027 -0.5684  0.2479 -2.1304
  819SOL    HW2 2457   2.675   2.912   2.990 -0.4106 -1.4134 -1.3072
  820SOL     OW 2458   1.235   1.115   0.489  0.2299  0.0502 -0.3085
  820SOL    HW1 2459   1.252   1.210   0.540  0.6228 -0.6129  2.6731
  820SOL    HW2 2460   1.208   1.040   0.556  0.6395  1.6251 -0.5719
  821SOL     OW 2461   3.070   1.291   0.667  0.5114  0.4281 -0.2705
  821SOL    HW1 2462   3.028   1.280   0.767  0.8307  2.6285  0.5782
  821SOL    HW2 2463   3.157   1.348   0.667  0.7668 -2.2776  0.2565
  822SOL     OW 2464   2.526   1.797   2.435  0.0331  0.4149  0.6468
  822SOL    HW1 2465   2.517   1.876   2.505  0.3061 -1.4181 -0.8994
  822SOL    HW2 2466   2.468   1.812   2.347  0.9828  1.3055 -1.1529
  823SOL     OW 2467   2.044   0.888   1.231  0.2638 -0.0691  0.5160
  823SOL    HW1 2468   2.032   0.927   1.328 -0.5383  1.5778  0.4998
  823SOL    HW2 2469   1.960   0.905   1.171 -0.3894 -2.6617 -1.6621
  824SOL     OW 2470   0.142   2.012   2.731 -0.4388 -0.2819  0.0773
  824SOL    HW1 2471   0.092   1.936   2.783 -0.6846  1.3807 -0.9155
  824SOL    HW2 2472   0.229   1.988   2.678  0.8267 -1.1160  1.3679
  825SOL     OW 2473   1.237   1.038   0.240  0.1161  0.0360 -0.0113
  825SOL    HW1 2474   1.234   1.049   0.344  1.0182  0.4165 -2.5053
  825SOL    HW2 2475   1.243   1.127   0.184 -0.7639  0.2467  0.5789
  826SOL     OW 2476   1.947   0.637   1.516  0.2676  0.3871 -0.0783
  826SOL    HW1 2477   1.988   0.577   1.589  0.4990 -0.4924  0.9981
  826SOL    HW2 2478   1.849   0.609   1.495 -1.0718  0.1488 -0.0726
  827SOL     OW 2479   0.747   1.424   0.290 -0.5806 -0.3309 -0.5319
  827SOL    HW1 2480   0.748   1.355   0.213 -2.4031  0.0501 -0.4218
  827SOL    HW2 2481   0.692   1.391   0.375 -1.4040  0.1603  0.9317
  828SOL     OW 2482   2.554   0.081   1.562  0.0914 -0.1120 -0.1166
  828SOL    HW1 2483   2.462   0.128   1.566 -0.7077 -0.2126  0.0793
  828SOL    HW2 2484   2.546   0.005   1.631 -0.4823 -1.0754 -0.1421
  829SOL     OW 2485   2.837   2.489   3.036 -0.4955  0.2786 -0.2708
  829SOL    HW1 2486   2.778   2.404   3.028 -2.4056 -1.3137  0.0030
  829SOL    HW2 2487   2.790   2.551   3.109  0.3091  0.7151  0.5526
  830SOL     OW 2488   2.758   0.951   3.048 -0.5497 -0.0605 -0.0328
  830SOL    HW1 2489   2.840   1.009   3.033  0.7800 -0.4385 -1.8156
  830SOL    HW2 2490   2.777   0.855   3.079  1.4082 -0.3418 -2.1081
  831SOL     OW 2491   0.013   0.607   0.343 -0.4003  0.5779  0.2567
  831SOL    HW1 2492  -0.012   0.540   0.416 -1.6739 -2.4580 -2.1401
  831SOL    HW2 2493   0.063   0.559   0.261  1.5655 -0.3520  0.6653
  832SOL     OW 2494   1.787   0.736   3.092  0.8040 -0.0620  0.4051
  832SOL    HW1 2495   1.706   0.799   3.068  0.2649 -1.9238 -0.6505
  832SOL    HW2 2496   1.775   0.637   3.062  0.6735 -0.1162 -2.3190
  833SOL     OW 2497   2.460   2.156   0.486 -0.5208 -0.2137  0.1324
  833SOL    HW1 2498   2.361   2.144   0.472  0.9877  1.2752 -1.1752
  833SOL    HW2 2499   2.503   2.081   0.544 -0.5235 -2.0437 -0.5056
  834SOL     OW 2500   0.089   0.245   0.639  0.7840 -0.3779  0.0339
  834SOL    HW1 2501   0.161   0.240   0.704 -0.4539 -0.1953 -2.2196
  834SOL    HW2 2502   0.109   0.227   0.540 -1.5345 -1.3436  0.2744
  835SOL     OW 2503   2.351   1.502   1.181 -0.0882  0.9992  0.5062
  835SOL    HW1 2504   2.438   1.546   1.205  0.9457  1.0573 -0.8756
  835SOL    HW2 2505   2.356   1.482   1.077  1.7993  0.7270 -1.9726
  836SOL     OW 2506   1.529   0.802   2.583  0.1782  0.2262 -0.4019
  836SOL    HW1 2507   1.430   0.812   2.560  1.1421  1.2091  0.0667
  836SOL    HW2 2508   1.591   0.831   2.506 -0.2000 -2.5068 -0.1042
  837SOL     OW 2509   1.646   0.068   0.542  1.0046  0.6001 -0.0418
  837SOL    HW1 2510   1.602   0.133   0.612 -0.0918 -1.6693  1.1523
  837SOL    HW2 2511   1.588   0.065   0.458  1.4743  0.7665  2.9711
  838SOL     OW 2512   1.256   1.583   2.676 -0.9833 -0.5409  0.0363
  838SOL    HW1 2513   1.334   1.525   2.722 -0.8557 -0.1697  0.2838
  838SOL    HW2 2514   1.177   1.515   2.650 -2.1251  0.0632 -2.3292
  839SOL     OW 2515   1.639   0.281   0.969 -0.1674  0.1512 -0.3656
  839SOL    HW1 2516   1.665   0.348   1.042 -1.4139 -1.3954 -0.1538
  839SOL    HW2 2517   1.598   0.195   1.016  0.1632  0.9099  0.1229
  840SOL     OW 2518   2.547   2.945   1.727  0.1559 -0.4366  0.1977
  840SOL    HW1 2519   2.506   2.902   1.639  0.4911  1.0587 -1.1072
  840SOL    HW2 2520   2.586   2.874   1.800  2.1845  0.6604  1.7863
  841SOL     OW 2521   1.560   0.894   3.049 -0.0605 -0.4040  0.2322
  841SOL    HW1 2522   1.469   0.876   3.088  3.9667  0.0433  1.0877
  841SOL    HW2 2523   1.571   0.916   2.947  0.4947  2.9974 -2.0312
  842SOL     OW 2524   0.807   1.537   0.878 -0.3206 -0.5929  0.3482
  842SOL    HW1 2525   0.756   1.597   0.951 -0.6019  0.7648  0.4548
  842SOL    HW2 2526   0.755   1.445   0.860 -0.6342 -1.3637 -1.0273
  843SOL     OW 2527   0.166   3.067   1.398 -0.9233  0.2932  0.4571
  843SOL    HW1 2528   0.185   3.135   1.473  0.2359 -0.0843  1.7841
  843SOL    HW2 2529   0.127   2.983   1.444  1.1217  0.5955  0.9400
  844SOL     OW 2530   0.800   2.449   0.258 -0.3427 -0.0323  0.0649
  844SOL    HW1 2531   0.751   2.430   0.347  0.2983 -1.5118  0.9723
  844SOL    HW2 2532   0.741   2.511   0.199 -2.2205 -1.1383 -0.4090
  845SOL     OW 2533   1.681   2.847   1.225  0.1879  0.1751 -0.3016
  845SOL    HW1 2534   1.715   2.749   1.212  0.8748 -1.1339 -1.1875
  845SOL    HW2 2535   1.694   2.882   1.327  1.5902  3.4094 -0.8289
  846SOL     OW 2536   1.566   2.967   0.713 -0.2385 -0.1834 -0.2677
  846SOL    HW1 2537   1.594   3.033   0.640  2.9569  1.8675  0.6924
  846SOL    HW2 2538   1.650   2.913   0.743  0.4743 -2.0870 -1.3219
  847SOL     OW 2539   2.099   1.698   0.422  0.5311 -0.0916 -0.0141
  847SOL    HW1 2540   2.057   1.606   0.437 -0.5054 -2.0539 -1.5419
  847SOL    HW2 2541   2.033   1.782   0.434 -2.6747 -3.4058 -1.3394
  848SOL     OW 2542   2.404   0.888   2.596  0.1067 -0.3032 -0.3665
  848SOL    HW1 2543   2.377   0.957   2.668  0.5124 -0.2277  1.3818
  848SOL    HW2 2544   2.354   0.799   2.601 -1.1543  1.0807 -0.7059
  849SOL     OW 2545   2.559   0.879   2.378  0.5909  0.1331  0.0736
  849SOL    HW1 2546   2.647   0.849   2.419 -0.6766  2.8020 -2.8165
  849SOL    HW2 2547   2.484   0.883   2.454  1.0071 -0.8190 -0.2728
  850SOL     OW 2548   1.567   0.074   1.323  0.6208  1.0230 -0.3319
  850SOL    HW1 2549   1.595   0.044   1.224  0.5294  0.2892  0.4051
  850SOL    HW2 2550   1.525  -0.013   1.373 -0.0763  0.0012  1.6572
  851SOL     OW 2551   0.494   1.775   0.617 -0.4046  0.3471 -0.4607
  851SOL    HW1 2552   0.550   1.818   0.693 -2.6253  0.9323 -2.9720
  851SOL    HW2 2553   0.521   1.807   0.521  1.1202  1.1418  1.9601
  852SOL     OW 2554   0.849   2.062   1.772 -0.0959 -0.8879  0.8138
  852SOL    HW1 2555   0.904   2.141   1.733 -0.7588  0.9560 -0.4178
  852SOL    HW2 2556   0.759   2.086   1.824 -1.0155 -0.8029  2.1643
  853SOL     OW 2557   2.551   1.559   2.600 -0.0365  0.1743 -0.1799
  853SOL    HW1 2558   2.471   1.493   2.577 -1.4445 -1.2053  1.4984
  853SOL    HW2 2559   2.551   1.648   2.546  1.5575 -0.6236 -0.6829
  854SOL     OW 2560   2.448   1.396   1.777 -0.1191 -0.0334  0.3281
  854SOL    HW1 2561   2.502   1.374   1.686  1.2503  0.8668 -0.4331
  854SOL    HW2 2562   2.414   1.310   1.827 -2.1094 -1.5953 -0.2646
  855SOL     OW 2563   2.071   2.402   1.059 -0.0350  0.3922  0.7053
  855SOL    HW1 2564   2.036   2.498   1.042  0.9025  0.1893 -0.9971
  855SOL    HW2 2565   2.168   2.403   1.099 -1.0929 -0.6267  1.1291
  856SOL     OW 2566   1.329   1.421   0.924  0.2302 -0.3288  0.1614
  856SOL    HW1 2567   1.416   1.467   0.945  0.9240  0.1714 -1.9732
  856SOL    HW2 2568   1.244   1.479   0.945 -0.2849  1.9481  0.5394
  857SOL     OW 2569   0.001   2.754   1.055  0.1891  0.1358 -0.2459
  857SOL    HW1 2570  -0.044   2.714   0.973 -2.8440  1.0141  0.4967
  857SOL    HW2 2571   0.105   2.776   1.045  0.3586 -2.4201  0.0898
  858SOL     OW 2572   2.385   2.069   1.660 -0.3336 -0.4609  0.8777
  858SOL    HW1 2573   2.300   2.007   1.659  0.0257  0.8475  0.1463
  858SOL    HW2 2574   2.468   2.009   1.668 -3.2192  2.4227 -4.7492
  859SOL     OW 2575   2.411   0.522   1.029 -1.0569 -0.1195 -0.4848
  859SOL    HW1 2576   2.485   0.566   0.974 -1.8957  0.3536 -0.4914
  859SOL    HW2 2577   2.448   0.480   1.113 -2.2591  1.6673 -0.4752
  860SOL     OW 2578   1.876   2.815   0.533 -0.6333  0.4202  0.0787
  860SOL    HW1 2579   1.862   2.760   0.448 -0.3758 -1.5324  1.6521
  860SOL    HW2 2580   1.875   2.920   0.514  0.2152  2.2532 -1.9506
  861SOL     OW 2581   0.956   2.503   2.889 -0.3911 -0.2398  0.3017
  861SOL    HW1 2582   1.047   2.528   2.845 -0.9784 -0.3645  1.7279
  861SOL    HW2 2583   0.933   2.564   2.971 -0.6339  1.9465 -1.7404
  862SOL     OW 2584   2.871   2.533   1.654  0.3317  0.6855 -0.2893
  862SOL    HW1 2585   2.967   2.570   1.685  1.4906 -1.9080  0.1379
  862SOL    HW2 2586   2.813   2.616   1.639  1.6278  0.9497  2.1488
  863SOL     OW 2587   1.821   2.722   0.283 -0.3043  0.3525  0.0655
  863SOL    HW1 2588   1.847   2.626   0.247  0.1266 -0.6634  0.4355
  863SOL    HW2 2589   1.715   2.738   0.282  0.8671  1.2522  4.7973
  864SOL     OW 2590   2.013   1.260   2.835 -0.2563  0.3625  0.1042
  864SOL    HW1 2591   1.999   1.179   2.772 -3.7072 -0.0384  1.3285
  864SOL    HW2 2592   2.072   1.327   2.789 -1.2507  1.9105  0.4285
  865SOL     OW 2593   2.157   1.940   0.743  0.1787  0.1633 -0.1625
  865SOL    HW1 2594   2.236   1.887   0.780 -0.4090 -0.6319  0.0326
  865SOL    HW2 2595   2.084   1.965   0.811  1.0850 -0.0745  1.5574
  866SOL     OW 2596   2.934   2.995   1.022 -0.1457  0.0579  0.3351
  866SOL    HW1 2597   2.908   3.060   0.941 -0.7367  1.3640 -0.4405
  866SOL    HW2 2598   3.027   2.957   1.019 -0.0684 -0.3092 -1.4574
  867SOL     OW 2599   0.340   1.404   0.916 -0.4912  0.1199  0.6290
  867SOL    HW1 2600   0.326   1.329   0.847 -0.4814  0.6029 -4.3157
  867SOL    HW2 2601   0.328   1.503   0.877 -2.0260  2.4466  2.5227
  868SOL     OW 2602   0.781   1.834   2.051 -0.4105 -0.3041  0.3944
  868SOL    HW1 2603   0.747   1.820   2.152 -0.1335 -0.3408  0.6967
  868SOL    HW2 2604   0.747   1.925   2.006 -2.8341  1.0578 -2.4790
  869SOL     OW 2605   2.615   1.913   1.681 -0.0693  0.0908  0.5941
  869SOL    HW1 2606   2.677   1.988   1.634 -1.6699  0.5799 -2.9944
  869SOL    HW2 2607   2.648   1.824   1.649 -0.2039 -1.0779 -0.3110
  870SOL     OW 2608   2.346   2.691   1.228 -0.2406 -0.0714  0.7412
  870SOL    HW1 2609   2.316   2.595   1.257 -1.0135  1.6467  0.6446
  870SOL    HW2 2610   2.445   2.703   1.215  2.0104  2.9205 -2.2796
  871SOL     OW 2611   3.057   2.242   0.497 -0.0638  0.1577 -0.0244
  871SOL    HW1 2612   2.989   2.241   0.576 -0.2522 -2.0955  2.5174
  871SOL    HW2 2613   3.001   2.246   0.409 -0.3209 -0.0556  0.4557
  872SOL     OW 2614   2.105   0.493   1.708  0.0138 -0.1261 -0.0323
  872SOL    HW1 2615   2.055   0.472   1.801 -0.1143  0.1980  2.7421
  872SOL    HW2 2616   2.193   0.439   1.706 -1.1127  0.0098 -1.3780
  873SOL     OW 2617   1.701   2.106   3.100 -0.0952  0.4827  0.2698
  873SOL    HW1 2618   1.596   2.103   3.105 -0.5404 -0.0492 -2.3292
  873SOL    HW2 2619   1.738   2.163   3.017 -0.0987  0.6434 -0.8493
  874SOL     OW 2620   0.666   2.454   0.733  0.0162  0.0531  0.1530
  874SOL    HW1 2621   0.665   2.561   0.747  2.7755  2.7289 -0.0875
  874SOL    HW2 2622   0.747   2.415   0.780 -1.2212 -0.4385  1.3053
  875SOL     OW 2623   2.222   1.488   1.410 -0.6303 -0.2862 -0.1065
  875SOL    HW1 2624   2.268   1.550   1.481 -0.7594  0.9020  0.9969
  875SOL    HW2 2625   2.269   1.504   1.320 -0.3056 -1.3519 -0.2218
  876SOL     OW 2626   0.045   2.260   2.630  0.2758  0.3754 -0.3246
  876SOL    HW1 2627   0.087   2.168   2.649  1.0797 -1.6552  0.2122
  876SOL    HW2 2628   0.103   2.345   2.663 -0.6897  1.0227  0.1508
  877SOL     OW 2629   2.927   2.662   0.614  0.5481  0.7691  0.0920
  877SOL    HW1 2630   2.901   2.760   0.613  0.9311  0.8458 -2.4858
  877SOL    HW2 2631   2.995   2.637   0.684  0.0617 -0.5719 -3.3148
  878SOL     OW 2632   2.838   1.579   2.285 -0.5414 -0.6405 -0.3781
  878SOL    HW1 2633   2.779   1.659   2.252 -0.6186  0.7006 -0.4264
  878SOL    HW2 2634   2.807   1.530   2.373 -0.0376 -1.7595  1.0012
  879SOL     OW 2635   2.441   0.059   1.200 -0.6029  0.3340 -0.0051
  879SOL    HW1 2636   2.500  -0.029   1.210  0.7838  0.8851  1.3577
  879SOL    HW2 2637   2.350   0.041   1.150 -1.1141  1.3363  1.8203
  880SOL     OW 2638   0.710   0.548   2.278  0.3454  0.1335 -0.3975
  880SOL    HW1 2639   0.685   0.498   2.366  0.9093  1.2801 -0.1520
  880SOL    HW2 2640   0.776   0.500   2.213 -3.3791 -1.9041 -0.8865
  881SOL     OW 2641   0.831   0.086   0.399 -0.1185 -0.2169  0.3057
  881SOL    HW1 2642   0.877  -0.004   0.426  2.2091  0.7105 -0.8303
  881SOL    HW2 2643   0.729   0.073   0.367 -2.0174  1.7172 -2.0049
  882SOL     OW 2644   2.723   1.630   1.693  0.5388  0.2589 -0.6058
  882SOL    HW1 2645   2.805   1.598   1.640 -0.2671  1.2157  0.3838
  882SOL    HW2 2646   2.751   1.668   1.789 -0.0259  0.8853  2.0039
  883SOL     OW 2647   0.791   0.518   0.925  0.0380 -0.1254 -0.5608
  883SOL    HW1 2648   0.861   0.592   0.955  0.7114 -1.1177  2.3199
  883SOL    HW2 2649   0.718   0.505   0.996 -0.1204  1.6785 -2.6940
  884SOL     OW 2650   1.155   1.782   1.135 -0.6886  0.2224  0.4715
  884SOL    HW1 2651   1.149   1.689   1.089 -1.8316  2.9812  1.8802
  884SOL    HW2 2652   1.112   1.851   1.077 -0.8855 -0.8201 -2.1924
  885SOL     OW 2653   2.359   1.904   2.230 -0.1639 -0.2115  0.3440
  885SOL    HW1 2654   2.275   1.847   2.259 -1.6934  0.5237  3.9066
  885SOL    HW2 2655   2.340   2.007   2.242 -1.9078 -1.0999  0.7946
  886SOL     OW 2656   2.597   0.381   1.757 -0.7815  0.3031 -0.1913
  886SOL    HW1 2657   2.585   0.327   1.841  0.2402 -2.2929 -2.0132
  886SOL    HW2 2658   2.690   0.432   1.757  0.2724 -0.9690 -1.5052
  887SOL     OW 2659   0.152   2.090   1.261 -0.1279 -0.3238  0.1614
  887SOL    HW1 2660   0.140   2.033   1.178  0.8580 -1.5916  0.8531
  887SOL    HW2 2661   0.147   2.186   1.233 -2.0924 -1.7825 -0.5720
  888SOL     OW 2662   0.601   1.229   1.500  0.2055 -0.8297  0.3251
  888SOL    HW1 2663   0.636   1.275   1.409  1.8320  3.1993 -1.4003
  888SOL    HW2 2664   0.626   1.133   1.496  0.0896 -0.9813 -3.4694
  889SOL     OW 2665   0.861   2.442   2.240 -0.0887  0.6167 -0.1802
  889SOL    HW1 2666   0.765   2.405   2.267  0.8323 -0.0119 -0.9080
  889SOL    HW2 2667   0.906   2.389   2.164  0.5891 -0.4096  0.8490
  890SOL     OW 2668   2.342   2.502   0.215 -0.5521  0.6625  0.2829
  890SOL    HW1 2669   2.377   2.588   0.170 -2.2288 -0.1012  1.8087
  890SOL    HW2 2670   2.254   2.525   0.271 -0.4590 -1.4925 -1.5272
  891SOL     OW 2671   2.567   1.679   0.707 -0.3973 -0.3142  0.1384
  891SOL    HW1 2672   2.558   1.656   0.809  1.3123  0.6341  0.8718
  891SOL    HW2 2673   2.478   1.667   0.654  1.2890  0.3926 -2.8859
  892SOL     OW 2674   0.350   0.399   2.199 -0.2059  0.2415  0.4570
  892SOL    HW1 2675   0.348   0.482   2.139  0.0727 -2.0323 -1.1759
  892SOL    HW2 2676   0.433   0.337   2.181  1.1111 -2.4731  0.5074
  893SOL     OW 2677   1.691   0.247   2.758  0.2443  0.3123 -0.4267
  893SOL    HW1 2678   1.779   0.304   2.773  1.2288 -3.4210  0.3524
  893SOL    HW2 2679   1.601   0.295   2.731  0.9576 -2.0778 -1.7334
  894SOL     OW 2680   2.152   2.086   0.097 -0.2105  0.5811  0.3698
  894SOL    HW1 2681   2.154   2.017   0.020 -0.8724  1.2239 -0.7282
  894SOL    HW2 2682   2.153   2.037   0.187  0.1457  0.1496 -1.1122
  895SOL     OW 2683   2.722   1.435   0.945  0.2872  0.0083  0.7132
  895SOL    HW1 2684   2.814   1.394   0.952 -1.1797  1.7320  1.1401
  895SOL    HW2 2685   2.729   1.539   0.970  1.1164  2.5189 -1.6502
  896SOL     OW 2686   1.792   1.830   1.239 -0.0536  0.5538 -0.4538
  896SOL    HW1 2687   1.883   1.791   1.207  0.9903  3.5887  0.5531
  896SOL    HW2 2688   1.717   1.783   1.188 -0.5186 -0.3964 -1.3326
  897SOL     OW 2689   0.236   0.530   3.001  0.6857 -0.1690  0.2689
  897SOL    HW1 2690   0.172   0.596   2.954  0.9144 -2.3489 -1.7014
  897SOL    HW2 2691   0.331   0.565   2.998 -3.5122  1.4170 -1.1020
  898SOL     OW 2692   0.703   2.821   1.077 -0.1719  0.0825  0.0678
  898SOL    HW1 2693   0.742   2.918   1.074  1.5122 -0.6731 -0.5238
  898SOL    HW2 2694   0.719   2.780   1.173 -0.1316 -0.0350  2.2904
  899SOL     OW 2695   2.871   0.954   1.380  0.0084  0.1865  0.6939
  899SOL    HW1 2696   2.850   1.011   1.303  0.2510 -0.6669  1.4775
  899SOL    HW2 2697   2.963   0.975   1.417 -1.2720 -1.7884  0.3364
  900SOL     OW 2698   1.016   2.434   2.464  0.6517 -0.0255  0.2066
  900SOL    HW1 2699   0.954   2.421   2.378 -0.5247 -1.4643 -0.6901
  900SOL    HW2 2700   0.981   2.377   2.545 -0.7310 -3.5558  0.7180
  901SOL     OW 2701   1.898   2.456   1.433  0.6802  0.2336 -0.0262
  901SOL    HW1 2702   1.879   2.392   1.353  1.0825  2.2241  0.7499
  901SOL    HW2 2703   1.979   2.426   1.490 -0.4237  1.6942 -5.1887
  902SOL     OW 2704   2.531   1.664   1.466 -0.0256  0.0494  0.3540
  902SOL    HW1 2705   2.586   1.629   1.545 -0.1626  0.6177 -1.1153
  902SOL    HW2 2706   2.561   1.617   1.375 -0.1656 -0.7032 -0.4616
  903SOL     OW 2707   0.334   2.432   2.008  0.3441  0.3771  0.1458
  903SOL    HW1 2708   0.271   2.350   2.030 -0.9374  0.4551 -0.5823
  903SOL    HW2 2709   0.303   2.501   1.940  2.1209  0.6193 -0.6226
  904SOL     OW 2710   2.016   0.781   2.447 -0.0120 -0.7938 -0.1472
  904SOL    HW1 2711   1.943   0.724   2.497 -0.5121  0.8204  2.9287
  904SOL    HW2 2712   2.022   0.766   2.342 -1.2258 -0.2825  0.5953
  905SOL     OW 2713   2.819   0.077   2.409  0.1694 -0.2383  0.0206
  905SOL    HW1 2714   2.884  -0.007   2.427  1.6408 -0.3958  0.2231
  905SOL    HW2 2715   2.872   0.168   2.424 -0.2426  0.2079  3.0065
  906SOL     OW 2716   0.162   1.728   1.900 -0.5937 -0.2473 -0.3871
  906SOL    HW1 2717   0.114   1.730   1.805  1.9143 -1.1740 -0.8014
  906SOL    HW2 2718   0.243   1.798   1.906 -0.6625  0.1631 -0.8837
  907SOL     OW 2719   0.234   2.515   0.996  0.2418  0.0612  0.2080
  907SOL    HW1 2720   0.311   2.457   0.958  0.0791  1.7972  1.0088
  907SOL    HW2 2721   0.222   2.603   0.943 -1.2471 -0.7298 -2.8001
  908SOL     OW 2722   2.818   3.025   0.338  0.3037  0.0592 -0.5634
  908SOL    HW1 2723   2.730   3.016   0.278 -2.1464  1.2660  0.2980
  908SOL    HW2 2724   2.874   2.939   0.349  0.4348  1.9833  1.8352
  909SOL     OW 2725   0.840   1.027   2.666 -0.2718  0.0846 -0.3086
  909SOL    HW1 2726   0.775   0.950   2.643 -0.2776 -1.6269 -1.1349
  909SOL    HW2 2727   0.913   1.040   2.597 -1.9574  1.1404  0.8040
  910SOL     OW 2728   1.781   1.888   2.147  0.0776 -0.5992 -0.2043
  910SOL    HW1 2729   1.853   1.915   2.071  0.9083  0.4953  0.2479
  910SOL    HW2 2730   1.705   1.955   2.180  0.5423  0.3143  0.6993
  911SOL     OW 2731   1.763   2.932   1.490  0.3148  0.9132  0.3463
  911SOL    HW1 2732   1.859   2.917   1.461 -0.9395  0.7528 -0.7531
  911SOL    HW2 2733   1.731   2.874   1.570 -0.3163 -0.4163 -2.2533
  912SOL     OW 2734   2.859   1.044   0.725 -0.1674  0.2509 -0.7297
  912SOL    HW1 2735   2.894   1.031   0.823  1.6166 -1.8046  0.5996
  912SOL    HW2 2736   2.781   1.116   0.729 -0.1868 -1.3920  0.3772
  913SOL     OW 2737   2.622   1.284   1.571 -0.3438  0.3055  0.1344
  913SOL    HW1 2738   2.617   1.185   1.589 -0.4942  0.6051 -0.8045
  913SOL    HW2 2739   2.654   1.296   1.473 -0.9226 -1.7234 -0.4267
  914SOL     OW 2740   2.784   0.605   1.167 -0.0816 -0.4009 -0.1923
  914SOL    HW1 2741   2.755   0.520   1.214 -1.1978 -1.7716 -1.0006
  914SOL    HW2 2742   2.708   0.671   1.162  0.9107  0.4484 -4.6175
  915SOL     OW 2743   1.172   0.772   0.924  0.2526 -0.2700  0.5844
  915SOL    HW1 2744   1.231   0.768   1.009 -0.1379 -0.3245  2.6853
  915SOL    HW2 2745   1.068   0.762   0.951 -0.1645  2.5542 -1.1221
  916SOL     OW 2746   0.622   0.125   0.618 -0.2820  0.6751 -0.3140
  916SOL    HW1 2747   0.702   0.193   0.626 -0.9781 -0.9325  1.1885
  916SOL    HW2 2748   0.537   0.171   0.572  0.9764  0.0258  1.0044
  917SOL     OW 2749   2.910   2.587   2.009  0.1244 -0.2565  0.0953
  917SOL    HW1 2750   2.822   2.617   1.968 -1.4344 -0.4960 -0.5940
  917SOL    HW2 2751   2.985   2.649   1.991 -1.6796 -0.2280 -0.2244
  918SOL     OW 2752   1.010   2.128   3.024 -0.0630  0.4659 -0.1630
  918SOL    HW1 2753   1.021   2.183   3.111  1.2662  2.4479  0.9902
  918SOL    HW2 2754   1.077   2.155   2.949  0.9785 -1.7608 -0.1942
  919SOL     OW 2755   0.870   1.666   2.788  0.2864  0.5433 -0.4571
  919SOL    HW1 2756   0.878   1.761   2.746  0.4397  2.7619 -0.9804
  919SOL    HW2 2757   0.830   1.603   2.716  0.9055 -0.8558 -1.5472
  920SOL     OW 2758   1.303   1.790   2.504 -0.5690 -0.3465 -0.0923
  920SOL    HW1 2759   1.387   1.760   2.451  0.3520 -1.4443  2.3139
  920SOL    HW2 2760   1.287   1.722   2.581  1.3342  0.8398 -0.7744
  921SOL     OW 2761   1.152   0.039   2.606 -0.3113 -0.0457  0.1918
  921SOL    HW1 2762   1.145   0.061   2.501  1.6823  1.1464  0.9154
  921SOL    HW2 2763   1.066   0.056   2.656  1.2332  3.0084  0.6474
  922SOL     OW 2764   2.181   2.429   2.776 -0.2485 -0.2177 -0.0041
  922SOL    HW1 2765   2.148   2.333   2.799 -1.6278  2.2262 -0.9059
  922SOL    HW2 2766   2.159   2.456   2.671 -2.2940  2.7058 -1.0039
  923SOL     OW 2767   1.266   2.743   0.269  0.4857 -0.1969  0.0877
  923SOL    HW1 2768   1.314   2.819   0.326  4.3259  0.1695 -1.5392
  923SOL    HW2 2769   1.303   2.646   0.295  2.4801 -0.8161 -1.2774
  924SOL     OW 2770   2.942   1.699   0.144 -0.2241  0.0687 -0.5409
  924SOL    HW1 2771   2.857   1.667   0.091  1.9573 -0.1197  2.0074
  924SOL    HW2 2772   3.022   1.629   0.143  1.1410 -1.3946  0.7717
  925SOL     OW 2773   0.015   2.866   1.504 -0.7992  0.3548  0.0555
  925SOL    HW1 2774  -0.061   2.860   1.578  1.2404  0.2882  0.4145
  925SOL    HW2 2775   0.004   2.795   1.431  2.2156  1.1330 -2.0646
  926SOL     OW 2776   1.282   2.815   1.305 -0.0560  0.0351 -0.2571
  926SOL    HW1 2777   1.316   2.799   1.211 -0.6040 -0.9767  0.2539
  926SOL    HW2 2778   1.336   2.885   1.359 -3.0029  2.0195  0.1581
  927SOL     OW 2779   0.379   2.661   1.774  0.3619  0.6101 -0.3455
  927SOL    HW1 2780   0.351   2.581   1.712  0.9442  0.4449 -2.0734
  927SOL    HW2 2781   0.334   2.750   1.743 -1.1971 -0.5910 -0.9193
  928SOL     OW 2782   1.581   2.072   2.229 -0.3844  0.0529  0.0102
  928SOL    HW1 2783   1.600   2.156   2.177  0.8614 -0.4396  1.6311
  928SOL    HW2 2784   1.480   2.057   2.251 -0.4787 -0.8234 -0.2848
  929SOL     OW 2785   2.450   2.484   2.876 -0.1155 -0.2070 -0.1076
  929SOL    HW1 2786   2.372   2.447   2.822  0.0305  0.4653  0.6393
  929SOL    HW2 2787   2.536   2.520   2.821  3.0808 -1.4617 -1.1417
  930SOL     OW 2788   2.188   2.049   1.105  0.2131 -0.4358 -0.4841
  930SOL    HW1 2789   2.192   2.041   1.211 -1.1585  1.8049  1.5531
  930SOL    HW2 2790   2.260   2.108   1.063 -1.6994 -0.3863  1.0809
  931SOL     OW 2791   0.491   1.704   2.602  0.2990  0.1472  0.6487
  931SOL    HW1 2792   0.522   1.725   2.698  0.9818  1.5231 -1.8515
  931SOL    HW2 2793   0.556   1.648   2.549  0.8324  4.6142  0.1391
  932SOL     OW 2794   0.382   0.015   0.039 -0.3932 -0.2300 -0.2481
  932SOL    HW1 2795   0.433   0.098  -0.003  1.4890  0.8798 -0.6953
  932SOL    HW2 2796   0.404  -0.073  -0.009 -1.1264 -0.5635 -2.5187
  933SOL     OW 2797   1.010   0.835   3.047 -0.2744  0.3511 -0.0337
  933SOL    HW1 2798   1.086   0.852   3.112 -1.6944  1.2274  0.8503
  933SOL    HW2 2799   0.919   0.881   3.069  0.5401 -1.2486 -0.3316
  934SOL     OW 2800   0.794   2.955   2.628 -1.2443 -0.6511 -0.2427
  934SOL    HW1 2801   0.783   2.889   2.549  2.2337  0.5107  4.0935
  934SOL    HW2 2802   0.849   2.911   2.708 -1.1340 -1.8078  1.1771
  935SOL     OW 2803   0.025   0.565   0.828  0.2484 -0.4336  0.0401
  935SOL    HW1 2804  -0.008   0.530   0.740  1.4586 -1.6355  0.0462
  935SOL    HW2 2805  -0.050   0.622   0.882  0.1239  1.9942 -2.7982
  936SOL     OW 2806   1.117   2.856   0.065  0.0401  0.4297 -0.2030
  936SOL    HW1 2807   1.175   2.897  -0.010 -2.1298 -2.5821 -0.3747
  936SOL    HW2 2808   1.169   2.807   0.139  0.1861  0.2294 -0.5619
  937SOL     OW 2809   1.995   2.618   2.045  0.7498 -0.1678  0.2357
  937SOL    HW1 2810   1.954   2.637   2.136  1.5642  1.0831 -0.4851
  937SOL    HW2 2811   1.987   2.704   1.980  0.0710 -1.7699 -1.7258
  938SOL     OW 2812   2.788   2.091   1.575 -0.1591 -0.6296 -0.5274
  938SOL    HW1 2813   2.766   2.194   1.570  0.1771  0.4166  1.8147
  938SOL    HW2 2814   2.873   2.067   1.632  0.7064 -0.7532  1.9257
  939SOL     OW 2815   2.837   1.149   2.487 -0.1555  0.2260 -0.0757
  939SOL    HW1 2816   2.932   1.131   2.450  0.3311  0.0912  1.1120
  939SOL    HW2 2817   2.818   1.093   2.573  1.1666  0.7626  1.6333
  940SOL     OW 2818   1.095   0.450   2.746 -0.0019  0.1306 -0.4296
  940SOL    HW1 2819   1.175   0.380   2.735 -0.3200 -2.5253 -1.4703
  940SOL    HW2 2820   1.020   0.434   2.681  1.7145 -1.5457 -0.1631
  941SOL     OW 2821   0.075   2.802   2.267 -0.2232 -0.5030  0.4641
  941SOL    HW1 2822   0.110   2.708   2.249  0.2375  0.4613  3.4899
  941SOL    HW2 2823   0.146   2.878   2.286 -0.2388  3.5695  0.3320
  942SOL     OW 2824   0.093   0.078   2.512 -0.3290 -0.4356  0.2878
  942SOL    HW1 2825   0.137   0.085   2.606  2.0288  2.4659 -1.5819
  942SOL    HW2 2826   0.087   0.172   2.465 -1.6857 -0.7794 -0.0510
  943SOL     OW 2827   2.129   1.708   2.354  0.2315  0.0843 -0.2242
  943SOL    HW1 2828   2.114   1.668   2.256  1.9007 -3.7718 -2.9639
  943SOL    HW2 2829   2.133   1.629   2.415  1.1575  0.1227  0.4341
  944SOL     OW 2830   2.159   2.360   1.528 -0.0142  0.6191 -0.6118
  944SOL    HW1 2831   2.241   2.361   1.590 -2.9892 -1.6356 -1.0276
  944SOL    HW2 2832   2.095   2.282   1.560 -0.3216  1.7837  1.0978
  945SOL     OW 2833   0.718   1.596   0.080 -0.1225 -0.2201 -0.0965
  945SOL    HW1 2834   0.631   1.575   0.026 -0.1585  0.0542 -2.8059
  945SOL    HW2 2835   0.737   1.525   0.154 -1.6425  0.4863 -1.1064
  946SOL     OW 2836   0.304   1.027   2.618 -0.2960  0.2732 -0.3884
  946SOL    HW1 2837   0.285   0.936   2.570  0.9474 -0.8625  1.0791
  946SOL    HW2 2838   0.370   1.089   2.563  2.0245 -2.3161 -3.0983
  947SOL     OW 2839   1.478   0.534   3.043  0.0222  0.7440  0.0681
  947SOL    HW1 2840   1.449   0.602   2.974  1.4224 -0.1254 -1.6650
  947SOL    HW2 2841   1.399   0.502   3.097  0.3504  0.5179 -1.2541
  948SOL     OW 2842   1.923   2.960   2.179 -0.1734  0.0612  0.2578
  948SOL    HW1 2843   1.942   2.944   2.079 -0.7002 -0.0822  0.9970
  948SOL    HW2 2844   1.919   2.865   2.232  0.8668 -3.3934  2.2487
  949SOL     OW 2845   0.608   2.432   0.467  0.1767 -0.0082  0.0632
  949SOL    HW1 2846   0.609   2.531   0.452  0.8549  0.1785 -1.8880
  949SOL    HW2 2847   0.634   2.410   0.567 -0.7258 -2.4300  0.8256
  950SOL     OW 2848   0.208   2.188   2.949  0.4856 -0.2573  0.3354
  950SOL    HW1 2849   0.194   2.276   2.890  1.7492  0.2425 -0.2622
  950SOL    HW2 2850   0.199   2.108   2.884  0.4798  2.5467 -0.3510
  951SOL     OW 2851   1.173   2.672   2.801  0.0787 -0.1070 -0.1172
  951SOL    HW1 2852   1.233   2.624   2.868  1.2733  0.1956  0.8387
  951SOL    HW2 2853   1.229   2.712   2.719  0.9785 -1.7615 -0.1167
  952SOL     OW 2854   0.112   1.633   0.429  0.4224  0.1868 -0.6895
  952SOL    HW1 2855   0.150   1.729   0.431 -1.5907  0.3131  0.6157
  952SOL    HW2 2856   0.116   1.576   0.521 -1.4281 -1.8686 -1.1307
  953SOL     OW 2857   2.547   1.729   0.289 -0.3829 -0.5720  0.4481
  953SOL    HW1 2858   2.518   1.637   0.256  1.5653 -0.4931 -1.5119
  953SOL    HW2 2859   2.555   1.795   0.205 -1.4495 -0.8933 -0.2969
  954SOL     OW 2860   2.171   0.562   0.906  0.1586  0.0322 -0.1221
  954SOL    HW1 2861   2.190   0.542   0.803 -1.7001  1.8902 -0.1531
  954SOL    HW2 2862   2.261   0.554   0.958 -4.0672  0.7118  0.9769
  955SOL     OW 2863   0.123   2.538   1.371 -0.0441 -0.3907 -0.5271
  955SOL    HW1 2864   0.022   2.557   1.363 -0.5743 -2.4823 -1.7175
  955SOL    HW2 2865   0.185   2.620   1.359  1.1862 -3.5911  0.1076
  956SOL     OW 2866   2.839   2.497   2.509 -0.1370  0.0506  0.1974
  956SOL    HW1 2867   2.831   2.393   2.493  0.2996 -0.5415 -0.3861
  956SOL    HW2 2868   2.868   2.554   2.425  0.3335 -2.2407  0.0470
  957SOL     OW 2869   1.636   2.069   2.759 -0.3588 -0.3862  0.0932
  957SOL    HW1 2870   1.607   1.994   2.826  0.4904  1.0482  0.5141
  957SOL    HW2 2871   1.702   2.027   2.690  2.1929 -3.4467  0.6176
  958SOL     OW 2872   2.650   2.289   2.921 -0.1567  0.3945 -1.0932
  958SOL    HW1 2873   2.559   2.341   2.902  0.3889  1.0604 -0.4175
  958SOL    HW2 2874   2.661   2.271   3.018  0.5703  3.0163 -0.2927
  959SOL     OW 2875   0.342   2.757   0.137  0.0325 -0.2636 -0.5539
  959SOL    HW1 2876   0.273   2.834   0.169 -1.8244  0.0807  0.7676
  959SOL    HW2 2877   0.325   2.664   0.177  0.3922  0.2443 -0.5199
  960SOL     OW 2878   1.961   0.457   1.946 -0.1427 -0.4870  0.4260
  960SOL    HW1 2879   1.910   0.542   1.912  2.0025 -0.7221 -0.4540
  960SOL    HW2 2880   1.952   0.449   2.046  0.4363  0.1793 -1.1190
  961SOL     OW 2881   2.536   1.869   1.035  0.1947 -0.2478 -0.6454
  961SOL    HW1 2882   2.551   1.962   0.994  1.9942  0.8173 -0.5212
  961SOL    HW2 2883   2.554   1.868   1.137  0.9199 -1.2189 -1.6247
  962SOL     OW 2884   1.278   0.850   0.049 -0.0231 -0.5459  0.1275
  962SOL    HW1 2885   1.283   0.884  -0.047 -1.8730 -0.6336 -2.3037
  962SOL    HW2 2886   1.258   0.924   0.117  2.2531  0.3290 -1.0743
  963SOL     OW 2887   2.285   2.574   1.819  0.2860 -0.1177  0.9612
  963SOL    HW1 2888   2.244   2.485   1.842  2.0835  0.6410 -0.0728
  963SOL    HW2 2889   2.320   2.624   1.904  0.1172 -0.7856 -0.5182
  964SOL     OW 2890   2.359   0.321   1.659  0.7073 -0.1828 -0.0929
  964SOL    HW1 2891   2.460   0.320   1.687 -3.3258 -0.3314  0.9098
  964SOL    HW2 2892   2.347   0.377   1.574  1.4776 -0.3899  2.7612
  965SOL     OW 2893   2.600   2.961   0.143 -0.0441 -0.2813 -0.1656
  965SOL    HW1 2894   2.680   2.946   0.075 -1.4780 -0.8182 -1.5415
  965SOL    HW2 2895   2.519   3.006   0.094  0.3698  0.3299  1.6194
  966SOL     OW 2896   2.486   2.500   2.227 -0.1042  0.2360 -0.3495
  966SOL    HW1 2897   2.499   2.595   2.191 -0.8699 -0.9247 -1.0785
  966SOL    HW2 2898   2.406   2.451   2.179 -0.4755  1.7966 -0.7154
  967SOL     OW 2899   2.748   2.848   2.460 -0.0975 -0.4670 -0.2311
  967SOL    HW1 2900   2.785   2.767   2.407 -2.4017 -0.5267  0.9364
  967SOL    HW2 2901   2.826   2.900   2.507  0.2709  0.7690 -0.5788
  968SOL     OW 2902   1.938   1.041   2.618  0.1046  0.0303  0.1130
  968SOL    HW1 2903   1.863   1.107   2.601 -1.9391 -0.9984 -2.4668
  968SOL    HW2 2904   1.962   0.977   2.540 -1.3645 -0.5577  0.8300
  969SOL     OW 2905   2.822   2.564   1.106 -0.0071 -0.7651 -0.2075
  969SOL    HW1 2906   2.816   2.573   1.003 -0.2511 -0.6312 -0.2140
  969SOL    HW2 2907   2.866   2.473   1.138 -3.1717 -0.9562  0.2717
  970SOL     OW 2908   1.139   2.119   1.873  0.2152  1.2207  0.4234
  970SOL    HW1 2909   1.122   2.041   1.944 -2.4137 -0.9545  0.3070
  970SOL    HW2 2910   1.074   2.198   1.880  0.1333  3.3446  1.1280
  971SOL     OW 2911   2.846   2.089   1.925 -0.0186 -0.5204  0.2946
  971SOL    HW1 2912   2.868   2.174   1.981  0.3098 -1.6666 -1.0700
  971SOL    HW2 2913   2.911   2.073   1.844 -1.0497 -3.5394  1.4652
  972SOL     OW 2914   1.925   2.479   0.225 -0.2932  0.6533  0.1965
  972SOL    HW1 2915   1.954   2.391   0.187  2.3420  2.4861  1.5093
  972SOL    HW2 2916   1.953   2.486   0.327  1.7516 -2.1354  1.9216
  973SOL     OW 2917   1.155   0.884   1.878  0.3777 -0.3701  0.0254
  973SOL    HW1 2918   1.087   0.802   1.875  0.3255 -0.6417  1.2979
  973SOL    HW2 2919   1.098   0.966   1.851  0.0069 -1.3957 -1.2267
  974SOL     OW 2920   1.595   0.594   1.998  0.1803  0.0793  0.4676
  974SOL    HW1 2921   1.679   0.640   1.953  1.0883  2.5017  0.4570
  974SOL    HW2 2922   1.503   0.638   1.972 -0.9633  1.8627  1.1769
  975SOL     OW 2923   2.375   3.023   3.078 -0.9038 -0.3067 -0.1635
  975SOL    HW1 2924   2.303   2.967   3.124  2.7135 -0.6899  1.0892
  975SOL    HW2 2925   2.431   2.964   3.014 -2.0700 -1.2399 -0.6037
  976SOL     OW 2926   1.907   2.719   2.334 -0.5629  0.8367  0.1747
  976SOL    HW1 2927   1.804   2.705   2.350 -1.9053 -0.5819 -0.7202
  976SOL    HW2 2928   1.952   2.763   2.417 -2.4750  2.1932 -0.0408
  977SOL     OW 2929   0.465   0.703   1.027  0.1416 -0.3074  0.6366
  977SOL    HW1 2930   0.383   0.685   0.961 -1.3296 -1.9720 -3.5008
  977SOL    HW2 2931   0.535   0.764   0.985  1.6542 -1.0318 -1.3726
   3.10000   3.10000   3.10000
