1000 SPC/Fw water molecules t=   0.67000 step= 670
 2931
    1SOL     OW    1   2.471   0.371   2.602  0.2500  0.1534  0.0522
    1SOL    HW1    2   2.510   0.275   2.575  0.3994  0.8694 -0.8179
    1SOL    HW2    3   2.514   0.416   2.689 -0.2211 -0.6909  0.3732
    2SOL     OW    4   2.729   3.048   1.400  0.4552 -0.3150  0.3886
    2SOL    HW1    5   2.774   3.088   1.312 -0.4255  0.5708 -1.0458
    2SOL    HW2    6   2.690   3.118   1.463  2.7426 -1.1897 -0.0707
    3SOL     OW    7   2.728   2.613   0.366 -0.0891  0.7172  0.0135
    3SOL    HW1    8   2.700   2.518   0.395 -0.4549 -0.2140  0.1178
    3SOL    HW2    9   2.810   2.647   0.416 -0.6239 -0.7688 -0.8964
    4SOL     OW   10   1.286   1.439   2.362 -0.2694 -0.6035  0.3379
    4SOL    HW1   11   1.201   1.492   2.389  4.0704 -2.1554 -1.2293
    4SOL    HW2   12   1.296   1.348   2.412 -0.8846  0.0705 -0.1364
    5SOL     OW   13   1.168   1.505   3.079 -0.1322  0.1841 -0.0509
    5SOL    HW1   14   1.250   1.568   3.092  0.8131  2.1267 -1.2071
    5SOL    HW2   15   1.075   1.550   3.099  0.3602 -1.0091 -0.1271
    6SOL     OW   16   0.092   1.865   2.936 -0.1314  0.5112  0.4276
    6SOL    HW1   17   0.010   1.886   2.994  1.2733  1.9217 -0.9429
    6SOL    HW2   18   0.155   1.811   2.991 -0.1621 -0.0637 -3.1554
    7SOL     OW   19   2.531   0.940   1.138  0.4027  0.7036 -0.2049
    7SOL    HW1   20   2.480   0.849   1.146 -1.3802 -1.8415 -0.5991
    7SOL    HW2   21   2.543   0.961   1.039  0.2954 -2.3900 -0.5316
    8SOL     OW   22   0.413   0.578   1.529 -0.4198 -0.0811  0.0058
    8SOL    HW1   23   0.495   0.534   1.571 -0.8042 -1.1806  0.6219
    8SOL    HW2   24   0.387   0.530   1.441 -0.4860 -1.2574  1.2747
    9SOL     OW   25   1.145   0.903   2.320  0.4548 -0.2683  0.4625
    9SOL    HW1   26   1.217   0.967   2.284 -1.3504 -0.0578 -0.5414
    9SOL    HW2   27   1.083   0.873   2.245  0.9855 -1.5285 -0.2691
   10SOL     OW   28   0.636   1.339   1.283 -0.4087  0.5440  0.5958
   10SOL    HW1   29   0.553   1.376   1.225 -2.2683  0.3163 -1.0755
   10SOL    HW2   30   0.703   1.416   1.281 -1.6283 -1.2496  0.9697
   11SOL     OW   31   2.375   2.741   0.882  0.4251 -0.3214 -0.1521
   11SOL    HW1   32   2.323   2.798   0.954 -1.9546  1.1038 -1.5687
   11SOL    HW2   33   2.484   2.746   0.882  0.9800 -0.9918 -0.4002
   12SOL     OW   34   1.475   0.870   0.360 -0.1522  0.0577  0.8081
   12SOL    HW1   35   1.422   0.934   0.303  3.6119 -0.1289 -0.6764
   12SOL    HW2   36   1.505   0.788   0.309  0.6704  3.2449 -0.2011
   13SOL     OW   37   2.505   0.680   1.815 -0.2360  0.3672  0.0224
   13SOL    HW1   38   2.424   0.653   1.876 -0.9729  0.8260  0.1482
   13SOL    HW2   39   2.496   0.637   1.721  1.1407  2.4441  0.9906
   14SOL     OW   40   1.961   0.094   0.726 -0.8236 -0.3063 -0.2372
   14SOL    HW1   41   1.884   0.091   0.656  0.0231 -2.1889 -1.4950
   14SOL    HW2   42   1.935   0.052   0.816  1.0738 -0.2935  2.3298
   15SOL     OW   43   1.947   2.014   2.756  0.1451  0.2255 -0.7765
   15SOL    HW1   44   1.911   2.108   2.737 -1.9889 -0.3261 -0.1112
   15SOL    HW2   45   1.893   1.937   2.712  0.9005  1.0097  1.9676
   16SOL     OW   46   1.606   1.717   3.009 -0.3666 -0.4320 -0.3908
   16SOL    HW1   47   1.639   1.621   3.031 -1.5822  0.9765 -1.3000
   16SOL    HW2   48   1.674   1.790   3.035  1.7338 -3.5433 -4.7403
   17SOL     OW   49   0.108   0.525   0.153  0.6280  0.1502  0.3446
   17SOL    HW1   50   0.191   0.550   0.099 -0.4049 -1.7852 -0.1765
   17SOL    HW2   51   0.022   0.540   0.093 -1.5105  2.7738 -1.0179
   18SOL     OW   52   0.939   2.997   2.107 -0.4673 -0.2895 -0.2585
   18SOL    HW1   53   0.870   2.926   2.130 -1.2052  2.9929 -2.3161
   18SOL    HW2   54   0.994   2.974   2.017  0.2208  1.3171 -1.4853
   19SOL     OW   55   0.525   0.823   1.906 -0.1685 -0.1352 -0.3714
   19SOL    HW1   56   0.547   0.803   2.009  2.8077  2.0315 -0.8754
   19SOL    HW2   57   0.615   0.827   1.850 -0.7467 -0.9726  1.2365
   20SOL     OW   58   0.225   2.773   0.851  0.4723 -0.3084  0.3983
   20SOL    HW1   59   0.146   2.813   0.792 -0.9092 -1.0459 -0.5482
   20SOL    HW2   60   0.306   2.752   0.789  1.6504  0.0011  2.0412
   21SOL     OW   61   2.780   0.181   2.081 -0.1024  0.3046  0.3833
   21SOL    HW1   62   2.703   0.118   2.044  0.5468 -0.3716 -0.0863
   21SOL    HW2   63   2.867   0.127   2.095 -0.5000 -0.3276 -0.6885
   22SOL     OW   64   2.363   0.205   0.070  0.5167 -0.0514 -0.4654
   22SOL    HW1   65   2.378   0.112   0.034 -1.8664  2.0557 -0.8339
   22SOL    HW2   66   2.259   0.225   0.082  1.0821  1.2022  0.5905
   23SOL     OW   67   2.748   0.658   0.624 -0.1162  0.4112  0.3278
   23SOL    HW1   68   2.776   0.569   0.581  4.0130 -2.2103 -0.1568
   23SOL    HW2   69   2.753   0.738   0.559  0.1703  0.3328 -1.5073
   24SOL     OW   70   0.166   1.921   0.365  0.3467 -0.4251 -0.7177
   24SOL    HW1   71   0.093   1.958   0.302  0.9571 -1.1960 -0.0370
   24SOL    HW2   72   0.256   1.934   0.309  1.7415  1.7123 -1.7809
   25SOL     OW   73   2.220   0.512   0.297 -0.4410  0.4432  0.5620
   25SOL    HW1   74   2.272   0.603   0.275 -0.1632  0.8529 -0.8125
   25SOL    HW2   75   2.229   0.457   0.213  1.4712  0.1937  0.7918
   26SOL     OW   76   2.533   2.109   2.091  0.1741  0.1718  0.5745
   26SOL    HW1   77   2.577   2.193   2.125 -0.7832 -2.2412  0.1776
   26SOL    HW2   78   2.604   2.041   2.051  2.4214 -0.0893 -0.5529
   27SOL     OW   79   0.601   2.979   0.181  0.1674  0.5553  0.3050
   27SOL    HW1   80   0.703   2.961   0.163 -0.6565 -0.5486 -2.3979
   27SOL    HW2   81   0.544   2.970   0.095 -0.4519 -0.7687  0.6461
   28SOL     OW   82   1.560   0.175   0.294  0.8381 -0.0794  0.1236
   28SOL    HW1   83   1.566   0.159   0.190 -0.3715 -1.4895  0.7520
   28SOL    HW2   84   1.542   0.278   0.314 -1.5226  2.3821  1.3165
   29SOL     OW   85   1.964   0.551   0.403  0.2461  0.1042 -0.2476
   29SOL    HW1   86   1.953   0.647   0.434  3.9660  1.5364 -1.7650
   29SOL    HW2   87   2.062   0.534   0.366 -2.5079 -0.8856 -0.5545
   30SOL     OW   88   0.211   2.029   0.907  0.0868 -0.4538  0.1138
   30SOL    HW1   89   0.229   2.038   0.801 -0.2567 -2.7540 -1.4816
   30SOL    HW2   90   0.123   2.080   0.943 -0.7180  3.6771  4.5885
   31SOL     OW   91   2.103   3.077   2.314 -0.0722 -0.0035  0.1724
   31SOL    HW1   92   2.105   3.061   2.415  1.7912  1.4860  0.0315
   31SOL    HW2   93   2.027   3.029   2.266  2.1846  0.9915 -0.3860
   32SOL     OW   94   2.954   0.160   0.261 -0.0058 -0.7064 -0.1553
   32SOL    HW1   95   2.918   0.090   0.335 -0.5547 -1.0716 -0.2961
   32SOL    HW2   96   3.050   0.198   0.279  1.9410 -0.8780  0.8766
   33SOL     OW   97   0.935   0.329   0.596  0.2817 -0.1153  0.2778
   33SOL    HW1   98   0.931   0.258   0.520 -0.7938 -0.9309  1.2744
   33SOL    HW2   99   1.029   0.353   0.623 -2.9786 -1.9327 -4.2754
   34SOL     OW  100   0.327   2.822   1.095 -0.7818  0.0996 -1.0764
   34SOL    HW1  101   0.275   2.790   1.010 -0.7648 -0.1280 -1.0538
   34SOL    HW2  102   0.427   2.851   1.076 -0.9929  1.7846 -0.7472
   35SOL     OW  103   3.095   0.218   1.826 -0.0276 -0.5262  0.0456
   35SOL    HW1  104   3.119   0.125   1.861 -0.5282  0.9132 -0.1864
   35SOL    HW2  105   3.049   0.212   1.736  1.2664  0.1337  0.5005
   36SOL     OW  106   1.972   1.106   1.820  0.2685  0.5556 -0.8218
   36SOL    HW1  107   2.032   1.078   1.739 -0.3600  3.3414  2.8747
   36SOL    HW2  108   2.000   1.202   1.859  0.1613  2.0082 -0.3008
   37SOL     OW  109   1.205   0.158   0.881 -0.3568 -0.4687  0.0814
   37SOL    HW1  110   1.262   0.219   0.945  0.4056  0.3988  0.9690
   37SOL    HW2  111   1.266   0.099   0.822  0.8825 -1.0579 -1.9662
   38SOL     OW  112   1.114   2.796   2.414  0.1651  0.3556  0.0144
   38SOL    HW1  113   1.046   2.719   2.443  2.6728  0.8446 -0.0267
   38SOL    HW2  114   1.063   2.883   2.391 -1.7098  2.3052  1.6392
   39SOL     OW  115   2.334   1.408   3.035 -0.7464  0.5433  0.3506
   39SOL    HW1  116   2.383   1.319   3.016  2.1338  0.8164 -1.1968
   39SOL    HW2  117   2.307   1.408   3.137 -3.4890 -3.2258  2.7019
   40SOL     OW  118   2.086   2.491   2.575 -0.2219 -0.0813 -0.1226
   40SOL    HW1  119   2.050   2.587   2.595  0.5802  0.2985 -1.6207
   40SOL    HW2  120   2.019   2.420   2.535 -3.1415 -1.1577 -2.2921
   41SOL     OW  121   2.985   0.655   2.782  0.3754 -0.0653  0.5333
   41SOL    HW1  122   2.894   0.704   2.796 -0.5748  2.2228  2.8006
   41SOL    HW2  123   2.979   0.554   2.774  0.6664 -1.8762 -0.8696
   42SOL     OW  124   1.762   1.777   0.537 -0.0494 -0.3731 -0.4427
   42SOL    HW1  125   1.734   1.677   0.525  2.9844 -0.8157  1.0300
   42SOL    HW2  126   1.790   1.818   0.449  1.0892 -1.8477  1.5727
   43SOL     OW  127   0.469   1.685   1.084  0.1440 -0.2026  0.1804
   43SOL    HW1  128   0.466   1.597   1.145  1.5794 -1.6511 -3.9302
   43SOL    HW2  129   0.379   1.727   1.058  0.6937 -0.4646  2.7935
   44SOL     OW  130   1.828   2.474   3.054  0.1845  0.1243  0.0705
   44SOL    HW1  131   1.792   2.560   3.005  0.1349 -2.6576 -0.7805
   44SOL    HW2  132   1.920   2.492   3.103 -4.0448 -0.3789  1.6063
   45SOL     OW  133   0.357   1.934   2.601  0.6201  1.1268  0.0890
   45SOL    HW1  134   0.299   1.921   2.513 -1.4089  1.5895 -1.6533
   45SOL    HW2  135   0.431   1.864   2.600  1.4268 -1.3168 -1.1343
   46SOL     OW  136   1.243   0.682   0.182  0.3188 -0.1893  1.1109
   46SOL    HW1  137   1.243   0.744   0.098 -0.5597 -0.8964 -2.5138
   46SOL    HW2  138   1.150   0.675   0.229 -0.7886  2.6321 -0.0373
   47SOL     OW  139   0.208   2.469   1.626  0.0163  0.0793 -0.0965
   47SOL    HW1  140   0.280   2.405   1.603  0.6806  4.8336 -0.3267
   47SOL    HW2  141   0.159   2.511   1.542  0.8188  1.6384 -2.2846
   48SOL     OW  142   2.603   0.613   0.134 -0.3374  0.2512  0.0177
   48SOL    HW1  143   2.578   0.597   0.240  1.5240 -2.5230  2.2950
   48SOL    HW2  144   2.682   0.677   0.119 -1.7481 -3.1346 -3.9539
   49SOL     OW  145   0.328   0.778   1.707  0.1626 -0.1379  0.0349
   49SOL    HW1  146   0.387   0.795   1.792 -0.1947  0.3026 -1.7068
   49SOL    HW2  147   0.374   0.700   1.655  0.5205  0.8463  1.0784
   50SOL     OW  148   1.658   1.137   0.289 -0.0908  0.0083 -0.2707
   50SOL    HW1  149   1.654   1.029   0.275  0.3722 -0.9585 -1.2974
   50SOL    HW2  150   1.613   1.168   0.380  0.0556 -1.4945  0.3243
   51SOL     OW  151   2.894   1.842   0.372  0.0453  0.3518 -0.0238
   51SOL    HW1  152   2.869   1.800   0.283 -2.2493  1.7400 -2.3492
   51SOL    HW2  153   2.916   1.772   0.444 -0.3506  0.4089 -1.5456
   52SOL     OW  154   0.786   1.994   0.475  0.6128  0.3522  0.2768
   52SOL    HW1  155   0.701   2.042   0.512 -1.1792  0.3502  0.3349
   52SOL    HW2  156   0.821   1.925   0.550 -2.3905 -1.8562 -2.6818
   53SOL     OW  157   0.103   0.426   1.588  1.4325  0.3019  0.1663
   53SOL    HW1  158   0.139   0.486   1.667  1.8188 -0.2488  1.2827
   53SOL    HW2  159   0.053   0.481   1.512  0.6288 -0.4391  1.8491
   54SOL     OW  160   1.787   0.461   3.061  0.4138 -0.1279 -0.3633
   54SOL    HW1  161   1.841   0.428   3.143 -0.6329  1.2990 -1.4084
   54SOL    HW2  162   1.682   0.443   3.066  0.4320 -2.1035 -0.4349
   55SOL     OW  163   0.774   2.905   0.683 -0.4115 -0.2479  0.2815
   55SOL    HW1  164   0.730   3.003   0.698  0.1967  2.3242 -1.0011
   55SOL    HW2  165   0.874   2.923   0.650  1.1400 -2.6142  3.9479
   56SOL     OW  166   0.450   1.585   3.093  0.1219  1.0533  0.6952
   56SOL    HW1  167   0.355   1.624   3.105  2.3500  1.0960  0.8397
   56SOL    HW2  168   0.454   1.511   3.021 -1.8170 -2.8252 -1.9709
   57SOL     OW  169   1.785   2.519   2.594  0.0121 -0.0029 -0.9443
   57SOL    HW1  170   1.811   2.435   2.537  1.2552  1.8718 -0.1316
   57SOL    HW2  171   1.684   2.517   2.623 -2.3981  3.6440  0.0589
   58SOL     OW  172   0.653   0.336   1.040 -0.3586 -0.7856  0.2269
   58SOL    HW1  173   0.568   0.396   1.017 -1.2166  1.4542 -1.2878
   58SOL    HW2  174   0.632   0.245   1.087  3.2023  0.7321  0.9700
   59SOL     OW  175   0.433   2.404   2.778 -0.0194  0.3716 -0.0127
   59SOL    HW1  176   0.453   2.326   2.713  1.3085  0.9886  1.0113
   59SOL    HW2  177   0.512   2.421   2.840  1.5161 -0.9678  1.5031
   60SOL     OW  178   2.289   2.039   2.200 -0.2760  0.2662  0.0217
   60SOL    HW1  179   2.373   2.076   2.154 -2.0791 -2.3936  2.4365
   60SOL    HW2  180   2.304   2.047   2.303  1.8554  0.8007 -2.6143
   61SOL     OW  181   1.304   0.611   0.478  0.5505  0.3919 -0.6568
   61SOL    HW1  182   1.235   0.668   0.528  1.6731 -0.4516 -1.0273
   61SOL    HW2  183   1.304   0.626   0.378 -0.8639 -1.0560  0.9542
   62SOL     OW  184   2.722   1.786   2.927  0.8387  0.0172 -0.1149
   62SOL    HW1  185   2.700   1.688   2.908  0.7433 -1.4739 -3.1576
   62SOL    HW2  186   2.807   1.816   2.870  1.3103  1.0476  0.8775
   63SOL     OW  187   0.612   0.898   0.158  0.5008  0.0077  0.3223
   63SOL    HW1  188   0.596   0.997   0.137 -1.5306 -2.5181 -0.6055
   63SOL    HW2  189   0.697   0.894   0.215 -2.1315  0.7898  0.0734
   64SOL     OW  190   0.128   0.549   2.518  0.5265 -0.6603 -0.8605
   64SOL    HW1  191   0.191   0.523   2.596 -0.1951  2.2924  0.8619
   64SOL    HW2  192   0.118   0.655   2.507  0.4275  0.9247  1.1706
   65SOL     OW  193   0.191   1.478   0.559  0.2664 -0.0220 -0.4126
   65SOL    HW1  194   0.224   1.552   0.621 -1.8589  0.3098 -2.3691
   65SOL    HW2  195   0.262   1.427   0.506 -3.1879 -0.4684 -0.7999
   66SOL     OW  196   2.535   0.372   0.576  0.1677 -0.1935 -0.1896
   66SOL    HW1  197   2.541   0.445   0.647  0.7670  0.2590 -0.9681
   66SOL    HW2  198   2.510   0.276   0.614  1.7345  1.7945  0.5367
   67SOL     OW  199   0.540   2.521   1.363 -0.2441  0.1203 -0.2395
   67SOL    HW1  200   0.595   2.515   1.450 -2.3224 -1.5855 -0.2709
   67SOL    HW2  201   0.470   2.445   1.352  0.2991  0.0976  2.8248
   68SOL     OW  202   1.025   1.124   2.438 -0.1044  0.1073 -0.0043
   68SOL    HW1  203   1.048   1.027   2.404  0.0392  0.6989 -1.9616
   68SOL    HW2  204   0.938   1.171   2.400 -0.1908  0.2898  0.1592
   69SOL     OW  205   0.765   2.772   2.218 -0.8098  0.0093 -0.4998
   69SOL    HW1  206   0.773   2.677   2.172 -0.9680 -2.3772  1.2159
   69SOL    HW2  207   0.675   2.815   2.216  2.3440  0.6993  1.2946
   70SOL     OW  208   0.580   0.309   2.715 -0.6021  0.0323 -0.2035
   70SOL    HW1  209   0.575   0.345   2.812  0.9247 -0.6479 -0.8549
   70SOL    HW2  210   0.542   0.215   2.714 -0.1821  1.7657  3.3026
   71SOL     OW  211   1.057   1.720   0.357  0.2009 -0.4450  0.0665
   71SOL    HW1  212   0.986   1.647   0.386  0.3304  2.3228 -1.1655
   71SOL    HW2  213   1.063   1.735   0.259 -1.1633 -0.8849  0.5500
   72SOL     OW  214   1.807   0.171   2.105  0.0367  0.2092  0.8257
   72SOL    HW1  215   1.847   0.206   2.015  2.0222  0.5002 -0.1808
   72SOL    HW2  216   1.821   0.066   2.110 -0.5489  2.3378  1.9635
   73SOL     OW  217   2.829   2.133   2.430  0.2704 -0.2602 -0.5984
   73SOL    HW1  218   2.792   2.048   2.401  1.8458  0.0686  1.0447
   73SOL    HW2  219   2.823   2.142   2.535  1.6065 -2.8791 -1.7548
   74SOL     OW  220   2.711   2.896   2.070 -0.0504  0.0081  0.8953
   74SOL    HW1  221   2.649   2.908   2.161 -2.6159  1.0707  1.8841
   74SOL    HW2  222   2.810   2.930   2.086 -0.2894  2.3510  2.7607
   75SOL     OW  223   0.931   0.745   1.076  0.1482  0.1473  0.8446
   75SOL    HW1  224   0.834   0.775   1.041 -3.3752  2.0714 -1.7676
   75SOL    HW2  225   0.961   0.814   1.150  0.2426  3.2685  0.7629
   76SOL     OW  226   1.664   1.281   2.534 -0.2158 -0.0512  0.0223
   76SOL    HW1  227   1.581   1.242   2.585 -1.8801 -1.6537  1.5864
   76SOL    HW2  228   1.682   1.378   2.549  0.5210 -1.4653 -2.0731
   77SOL     OW  229   2.962   0.932   0.963  0.3290 -0.0974  0.0303
   77SOL    HW1  230   2.975   0.834   0.933  0.5648  0.1387  3.5315
   77SOL    HW2  231   3.014   0.947   1.054  1.1466 -1.1785 -0.7605
   78SOL     OW  232   2.071   1.385   1.527  0.6572  0.2705 -0.1394
   78SOL    HW1  233   2.153   1.439   1.493  1.5877 -1.8956 -1.9283
   78SOL    HW2  234   2.027   1.326   1.457 -1.2868  0.1918  0.6991
   79SOL     OW  235   0.654   1.321   0.873 -0.1882 -1.0527 -0.1493
   79SOL    HW1  236   0.567   1.362   0.915  2.0627 -2.1355 -0.2814
   79SOL    HW2  237   0.641   1.304   0.771 -0.8686  1.3747 -0.9807
   80SOL     OW  238   0.660   0.460   1.609 -0.5139  0.1414 -0.6072
   80SOL    HW1  239   0.710   0.500   1.529 -1.3186  0.7588 -1.5319
   80SOL    HW2  240   0.652   0.356   1.594  0.2911  0.4412 -1.0657
   81SOL     OW  241   1.037   1.382   2.601 -0.1335 -0.1029  0.0442
   81SOL    HW1  242   1.048   1.303   2.542 -1.7105 -0.2877  0.5133
   81SOL    HW2  243   0.981   1.452   2.550  1.4972 -3.5678  0.4353
   82SOL     OW  244   0.947   2.940   1.490  0.6128 -0.0899 -0.4213
   82SOL    HW1  245   0.974   2.981   1.399  2.2186  1.9234 -0.1620
   82SOL    HW2  246   0.870   2.868   1.488  1.9377 -1.3061  0.1017
   83SOL     OW  247   2.718   2.505   0.854  1.0754  0.3227  0.3520
   83SOL    HW1  248   2.656   2.439   0.800 -2.0400 -0.9952  1.5153
   83SOL    HW2  249   2.697   2.602   0.840 -1.0556 -1.2809  0.9029
   84SOL     OW  250   0.682   3.055   2.323  0.0676 -0.0219  0.6139
   84SOL    HW1  251   0.630   2.984   2.369  0.2678 -1.5220 -2.8610
   84SOL    HW2  252   0.782   3.062   2.351 -2.2689 -1.7259  0.4606
   85SOL     OW  253   0.336   1.585   1.527 -0.7278 -0.1435 -0.4304
   85SOL    HW1  254   0.276   1.667   1.539  0.5718 -3.2455 -1.1888
   85SOL    HW2  255   0.389   1.562   1.615  1.5472 -1.7778 -4.9407
   86SOL     OW  256   0.388   0.969   1.508  0.3486  0.0436 -0.2644
   86SOL    HW1  257   0.388   0.918   1.420  0.0541  0.9518  0.0283
   86SOL    HW2  258   0.367   0.909   1.590 -1.2081  0.3065 -0.0013
   87SOL     OW  259   1.566   0.666   0.188  0.4614 -0.0723  0.2735
   87SOL    HW1  260   1.653   0.721   0.160  1.5206  1.6361 -0.3406
   87SOL    HW2  261   1.528   0.600   0.120  0.6189 -0.6062 -0.2168
   88SOL     OW  262   1.568   1.380   0.219  0.4334 -0.3372 -0.6135
   88SOL    HW1  263   1.598   1.281   0.233 -1.1515 -1.2648 -1.4148
   88SOL    HW2  264   1.464   1.376   0.226 -0.7313 -1.9490  0.6227
   89SOL     OW  265   0.010   0.423   0.589 -0.4591 -0.4155  0.0212
   89SOL    HW1  266   0.070   0.350   0.542 -1.2245 -0.5955  0.2819
   89SOL    HW2  267  -0.090   0.399   0.588 -0.3142 -0.6406 -0.0489
   90SOL     OW  268   0.920   1.622   0.021 -0.5177  0.2994  0.4132
   90SOL    HW1  269   0.842   1.616   0.089 -1.1820  0.2383 -1.5267
   90SOL    HW2  270   0.886   1.619  -0.079 -0.2495 -0.6990 -0.3002
   91SOL     OW  271   1.254   1.440   1.778 -0.6750  0.2314 -0.6280
   91SOL    HW1  272   1.236   1.528   1.837  1.1615  0.2221  4.1114
   91SOL    HW2  273   1.357   1.424   1.768 -0.2987  0.5490  2.4534
   92SOL     OW  274   0.012   0.932   1.214  0.7756 -0.1891 -0.1986
   92SOL    HW1  275   0.055   1.015   1.165  0.3668 -0.1554 -0.3199
   92SOL    HW2  276   0.021   0.941   1.316 -0.6147 -2.9188 -0.7308
   93SOL     OW  277   0.033   2.747   0.007  0.2511 -0.0398 -0.5781
   93SOL    HW1  278  -0.031   2.765  -0.075 -0.3399 -0.5650  0.5641
   93SOL    HW2  279   0.046   2.649   0.045 -1.2930  1.6200  1.6570
   94SOL     OW  280   1.519   1.443   1.759  0.1154 -1.0759 -0.2707
   94SOL    HW1  281   1.573   1.355   1.758  1.0161  1.8268 -0.5595
   94SOL    HW2  282   1.558   1.522   1.817 -1.3507 -0.5642  1.5361
   95SOL     OW  283   1.410   2.512   3.026 -0.1814 -0.4134  0.1513
   95SOL    HW1  284   1.330   2.496   3.088  2.1344 -0.6131 -0.5421
   95SOL    HW2  285   1.423   2.434   2.960  0.0336 -0.2079 -0.6146
   96SOL     OW  286   0.553   2.086   1.325  0.6236  1.1500  0.2970
   96SOL    HW1  287   0.502   2.044   1.240  0.7166 -0.7024 -0.9594
   96SOL    HW2  288   0.608   2.012   1.377 -0.8547 -0.2565 -0.1117
   97SOL     OW  289   0.397   1.636   2.439 -0.3959  0.4008  0.2602
   97SOL    HW1  290   0.299   1.610   2.432 -0.9541  2.3672  0.2079
   97SOL    HW2  291   0.428   1.650   2.540 -1.2373  2.4190 -0.1577
   98SOL     OW  292   1.957   1.591   1.243 -0.1674 -0.1962 -0.1770
   98SOL    HW1  293   1.907   1.535   1.320 -1.6697  0.4814 -0.8272
   98SOL    HW2  294   1.963   1.539   1.152  1.7937  0.2036 -0.2465
   99SOL     OW  295   2.462   2.132   1.370 -0.3214 -0.2740  0.7410
   99SOL    HW1  296   2.479   2.194   1.452  1.6630 -0.0769  0.4902
   99SOL    HW2  297   2.451   2.030   1.388  0.9765 -0.2678 -0.8637
  100SOL     OW  298   2.299   0.338   2.074  0.2497 -0.5694 -0.0756
  100SOL    HW1  299   2.223   0.323   2.139  1.9568 -1.5217 -0.5357
  100SOL    HW2  300   2.381   0.361   2.126  0.3499  0.7881  0.4236
  101SOL     OW  301   0.342   1.525   0.250 -0.4304  0.5314  0.0712
  101SOL    HW1  302   0.399   1.540   0.333 -1.4242 -1.1266 -1.3330
  101SOL    HW2  303   0.386   1.567   0.168  2.0769 -3.2976  1.6304
  102SOL     OW  304   2.293   0.996   0.855 -0.5739 -0.3977  0.5085
  102SOL    HW1  305   2.224   0.925   0.813 -0.4367 -2.7876  1.3572
  102SOL    HW2  306   2.302   1.081   0.801  1.0086 -2.0257  0.7185
  103SOL     OW  307   2.292   0.017   0.394 -0.3782 -0.1484 -0.5957
  103SOL    HW1  308   2.336   0.109   0.393 -1.9269  0.3286  3.2917
  103SOL    HW2  309   2.354  -0.048   0.453  1.4071  1.9189  0.7246
  104SOL     OW  310   0.101   1.767   2.179  0.0190  0.6901 -0.3027
  104SOL    HW1  311   0.151   1.735   2.090  3.0123 -3.7801 -0.2758
  104SOL    HW2  312   0.001   1.780   2.175  1.1574  1.2045  1.1343
  105SOL     OW  313   1.274   2.118   0.773 -0.2956  0.1507  0.1301
  105SOL    HW1  314   1.205   2.137   0.698  1.5072 -1.9069 -0.7916
  105SOL    HW2  315   1.269   2.018   0.803  2.2835  0.8708 -0.5431
  106SOL     OW  316   2.148   0.504   1.398  0.1739 -0.7861  0.2972
  106SOL    HW1  317   2.083   0.443   1.448 -0.0145  0.0120 -0.6025
  106SOL    HW2  318   2.163   0.592   1.446 -0.2938 -2.2281 -0.3672
  107SOL     OW  319   1.749   3.009   1.153 -0.0155  0.3327  0.4606
  107SOL    HW1  320   1.827   3.069   1.183 -1.1698  0.6065  0.3180
  107SOL    HW2  321   1.686   2.983   1.231 -2.7381  1.1962  0.6556
  108SOL     OW  322   0.823   2.788   1.185 -0.3724  0.1481 -0.0546
  108SOL    HW1  323   0.770   2.769   1.274  0.1691 -1.9157  0.0339
  108SOL    HW2  324   0.924   2.776   1.196 -1.4608  0.5543 -0.1351
  109SOL     OW  325   2.218   0.099   0.755  0.2598 -0.3151 -0.1211
  109SOL    HW1  326   2.117   0.108   0.739  1.8571  2.5292 -1.1538
  109SOL    HW2  327   2.247   0.090   0.853  0.6470 -0.5257 -1.7286
  110SOL     OW  328   0.443   2.855   2.764 -0.2987 -0.1567  0.2400
  110SOL    HW1  329   0.422   2.880   2.664  1.0365 -0.7493 -2.1692
  110SOL    HW2  330   0.527   2.787   2.770  1.1403 -0.3202  1.2073
  111SOL     OW  331   1.309   0.500   2.284  0.2207 -0.2906  0.1228
  111SOL    HW1  332   1.226   0.543   2.331  1.2020  0.2399  0.6751
  111SOL    HW2  333   1.358   0.430   2.339  1.1894  1.9134 -0.5819
  112SOL     OW  334   1.715   0.522   1.491 -0.9338  0.4446  0.0224
  112SOL    HW1  335   1.732   0.489   1.391 -2.1783 -0.0251 -1.6649
  112SOL    HW2  336   1.701   0.438   1.556  1.1121  1.5434 -0.7580
  113SOL     OW  337   2.255   1.650   1.782 -0.3301  0.3190 -0.1455
  113SOL    HW1  338   2.331   1.593   1.743  0.1725  1.9608 -0.9207
  113SOL    HW2  339   2.264   1.678   1.884  2.2347  0.2545  0.5361
  114SOL     OW  340   0.393   0.496   1.244 -0.5301  0.1738  0.1054
  114SOL    HW1  341   0.432   0.575   1.187 -1.2636  2.6694  0.3837
  114SOL    HW2  342   0.303   0.457   1.202 -1.2489 -0.0767 -1.7154
  115SOL     OW  343   2.790   1.631   1.304  0.6469 -0.4149  0.0450
  115SOL    HW1  344   2.782   1.527   1.315 -0.0304 -2.1125 -0.6943
  115SOL    HW2  345   2.817   1.660   1.211 -0.0215 -0.5595  1.7875
  116SOL     OW  346   1.839   1.039   0.697  0.0842  0.1826 -0.1433
  116SOL    HW1  347   1.748   1.025   0.656  0.7810 -0.2912  2.0456
  116SOL    HW2  348   1.839   1.123   0.760 -2.2263  0.2016 -1.6730
  117SOL     OW  349   1.193   0.399   0.703  0.0389  0.6622 -0.3438
  117SOL    HW1  350   1.154   0.390   0.803 -2.0243  0.1671 -0.8910
  117SOL    HW2  351   1.240   0.488   0.689  0.5472 -0.5558 -1.2208
  118SOL     OW  352   1.109   1.150   1.066  0.3341 -0.2336  0.0664
  118SOL    HW1  353   1.096   1.059   1.113  1.2718 -2.7911  2.4012
  118SOL    HW2  354   1.146   1.215   1.137 -0.9989 -3.5464 -1.1095
  119SOL     OW  355   1.831   1.603   2.121  0.0722 -0.1419  0.5311
  119SOL    HW1  356   1.818   1.705   2.148 -1.2201  4.2487  1.5018
  119SOL    HW2  357   1.933   1.589   2.094  0.6892  0.1876  1.0312
  120SOL     OW  358   2.924   2.822   0.204 -0.3201 -0.4871 -0.5459
  120SOL    HW1  359   3.000   2.811   0.139  0.6919  0.4145  0.8871
  120SOL    HW2  360   2.841   2.769   0.167  0.8005  1.6153 -0.9025
  121SOL     OW  361   2.022   0.761   2.322 -0.0807  0.0605 -0.0687
  121SOL    HW1  362   2.075   0.813   2.251 -0.8519 -1.6524  2.1734
  121SOL    HW2  363   2.015   0.659   2.297 -0.3453 -0.6462 -2.8416
  122SOL     OW  364   2.633   2.692   1.234  0.1022  0.0892 -0.6530
  122SOL    HW1  365   2.682   2.603   1.197  1.2537 -2.9041 -2.5419
  122SOL    HW2  366   2.578   2.736   1.162 -0.9894 -1.0806  0.3215
  123SOL     OW  367   1.735   0.066   1.674  0.4709 -0.1092 -0.0861
  123SOL    HW1  368   1.756  -0.027   1.633  1.3977 -0.5292  2.2008
  123SOL    HW2  369   1.818   0.113   1.719  2.2788  1.9504  1.1616
  124SOL     OW  370   0.130   0.421   1.100 -0.2490 -0.0015 -1.0198
  124SOL    HW1  371   0.096   0.492   1.166  2.2482  2.2874  3.6418
  124SOL    HW2  372   0.098   0.448   1.001 -0.7980 -0.5141 -1.8807
  125SOL     OW  373   0.839   1.836   0.685 -0.2707  0.9600  0.1157
  125SOL    HW1  374   0.916   1.774   0.723 -0.1022 -0.5328 -0.6513
  125SOL    HW2  375   0.770   1.873   0.755  0.7717  0.0827 -0.9251
  126SOL     OW  376   1.901   2.309   2.481  0.2177 -0.4339  0.1722
  126SOL    HW1  377   1.950   2.275   2.396 -1.1448 -1.2245 -0.9186
  126SOL    HW2  378   1.855   2.229   2.531 -1.2357 -0.6975 -1.1682
  127SOL     OW  379   0.859   0.880   0.299  0.3788 -0.2283 -0.6809
  127SOL    HW1  380   0.878   0.927   0.389  0.7809 -0.2489  1.0707
  127SOL    HW2  381   0.908   0.789   0.288  0.7149 -1.0114  1.7754
  128SOL     OW  382   0.961   0.238   1.372 -0.4794  0.6368 -0.0184
  128SOL    HW1  383   0.945   0.322   1.325  0.4900 -2.9981  1.4446
  128SOL    HW2  384   0.882   0.173   1.361  0.2923  2.0737  3.5038
  129SOL     OW  385   1.834   0.725   1.886 -0.1848  0.2979 -0.2470
  129SOL    HW1  386   1.845   0.741   1.781  0.5361 -0.1500  2.1223
  129SOL    HW2  387   1.884   0.801   1.939 -0.7489  3.5962  2.4188
  130SOL     OW  388   1.375   2.212   1.023  0.1508 -0.5621  0.1999
  130SOL    HW1  389   1.346   2.185   0.926 -0.4179 -0.8565  0.1955
  130SOL    HW2  390   1.443   2.290   1.027  0.0451 -3.0470  1.4124
  131SOL     OW  391   3.041   1.432   1.367 -0.4592 -0.5248 -0.0501
  131SOL    HW1  392   2.990   1.343   1.393  1.7054  0.1694 -2.1077
  131SOL    HW2  393   3.142   1.422   1.343 -1.3947  0.9577 -0.2113
  132SOL     OW  394   2.040   2.445   0.557  0.4631 -0.4160  0.4509
  132SOL    HW1  395   1.942   2.477   0.569  1.9552 -0.0423  0.3559
  132SOL    HW2  396   2.065   2.363   0.623  1.2280 -3.2486  2.0800
  133SOL     OW  397   1.877   2.285   2.768  0.4182  0.7412  0.0555
  133SOL    HW1  398   1.949   2.304   2.839 -1.3691  0.6617 -0.6769
  133SOL    HW2  399   1.840   2.372   2.733  0.9713  0.0052  2.6952
  134SOL     OW  400   2.700   2.323   1.663  0.3936  0.3523  0.4651
  134SOL    HW1  401   2.625   2.314   1.736  0.8404 -1.6842  1.1330
  134SOL    HW2  402   2.752   2.414   1.656 -1.4169  0.0262 -1.0604
  135SOL     OW  403   0.714   1.494   2.665 -0.3401 -0.0726  0.5560
  135SOL    HW1  404   0.702   1.395   2.702 -0.5486 -0.5200 -2.2487
  135SOL    HW2  405   0.762   1.502   2.578  3.3358 -0.5190 -1.3233
  136SOL     OW  406   1.189   1.949   0.441 -0.2797  0.2348  0.0375
  136SOL    HW1  407   1.141   2.001   0.517  3.5815  1.3494 -1.0186
  136SOL    HW2  408   1.135   1.864   0.410  1.2544 -0.3283  0.5000
  137SOL     OW  409   0.414   1.140   2.144  0.4652  0.4712 -0.0764
  137SOL    HW1  410   0.329   1.173   2.194 -1.1875 -1.8125 -2.0779
  137SOL    HW2  411   0.470   1.078   2.200 -1.0478  2.0469 -0.8649
  138SOL     OW  412   2.484   1.498   0.278 -0.3145 -0.0592  0.1365
  138SOL    HW1  413   2.402   1.473   0.219 -0.5876  0.8524 -1.7883
  138SOL    HW2  414   2.511   1.418   0.338  1.5699  1.7543  0.2251
  139SOL     OW  415   1.835   2.650   1.300  0.7333 -0.2017  0.4620
  139SOL    HW1  416   1.734   2.644   1.268  2.2231  0.4901 -1.7518
  139SOL    HW2  417   1.874   2.564   1.340  1.0992  2.4978 -3.0137
  140SOL     OW  418   3.014   2.901   2.605  0.4342  0.5397 -0.2118
  140SOL    HW1  419   3.071   2.819   2.622 -0.6624  0.3069 -1.1542
  140SOL    HW2  420   3.061   2.984   2.636 -0.5284 -0.8293 -0.7255
  141SOL     OW  421   1.289   1.699   1.628  0.7252  0.1498  0.3130
  141SOL    HW1  422   1.222   1.776   1.636  0.2524 -2.2586  0.6360
  141SOL    HW2  423   1.279   1.626   1.702  0.4646  0.7333 -0.4933
  142SOL     OW  424   1.561   0.603   2.222  0.4213 -0.5236  0.6414
  142SOL    HW1  425   1.566   0.609   2.119  1.9521 -1.0720  1.1301
  142SOL    HW2  426   1.467   0.563   2.255 -2.0771 -1.7400  1.8366
  143SOL     OW  427   2.739   0.903   0.486  0.2920 -0.1584 -0.0319
  143SOL    HW1  428   2.790   0.953   0.413 -2.1286 -2.1021  0.1832
  143SOL    HW2  429   2.773   0.921   0.580 -3.5575  1.4182 -0.0279
  144SOL     OW  430   2.933   1.179   1.454 -0.3364  0.0163  0.2251
  144SOL    HW1  431   2.882   1.157   1.546  2.7193 -1.4197  3.5211
  144SOL    HW2  432   3.018   1.118   1.451  0.4925 -1.3953 -2.9721
  145SOL     OW  433   1.000   1.864   0.077  0.2092  0.5623  0.0383
  145SOL    HW1  434   1.034   1.928   0.004  1.2418  0.4772  2.0785
  145SOL    HW2  435   0.970   1.767   0.047  1.2808 -0.6747  0.6276
  146SOL     OW  436   2.465   0.686   1.511  0.2723 -0.6288 -0.4655
  146SOL    HW1  437   2.454   0.614   1.437  2.0551 -0.8223  0.6850
  146SOL    HW2  438   2.426   0.783   1.489  0.5614  3.6969  0.9190
  147SOL     OW  439   1.124   2.482   0.608  0.8780 -0.2992  0.0792
  147SOL    HW1  440   1.083   2.528   0.524 -0.9029  1.1172 -2.5165
  147SOL    HW2  441   1.206   2.425   0.594  1.5753 -0.1434  1.3140
  148SOL     OW  442   1.669   1.461   3.067  0.2169 -0.2431 -0.3737
  148SOL    HW1  443   1.679   1.384   2.999  1.5239  0.4316 -0.3601
  148SOL    HW2  444   1.629   1.432   3.160  0.1860  3.6917  0.1261
  149SOL     OW  445   0.702   1.428   1.973 -0.1452 -0.1715  0.2023
  149SOL    HW1  446   0.601   1.413   2.002 -0.6302 -0.4450 -0.9564
  149SOL    HW2  447   0.748   1.339   1.937 -0.1378 -1.1503  2.4331
  150SOL     OW  448   3.039   1.273   0.971 -0.1231  0.2023 -0.0949
  150SOL    HW1  449   3.107   1.273   1.050 -1.7680  1.0369  0.6239
  150SOL    HW2  450   3.001   1.179   0.957  2.3534 -0.7327 -0.0887
  151SOL     OW  451   0.235   0.750   2.120  0.0304 -0.2831  0.6013
  151SOL    HW1  452   0.194   0.813   2.051 -0.1742  0.0123 -0.6594
  151SOL    HW2  453   0.248   0.657   2.079  2.5159 -0.9578  0.6311
  152SOL     OW  454   1.390   1.775   1.280 -0.1200 -0.5632  0.0391
  152SOL    HW1  455   1.377   1.861   1.340  1.5246  0.8479 -2.0904
  152SOL    HW2  456   1.301   1.752   1.231 -2.0905  0.5392 -1.6364
  153SOL     OW  457   3.056   1.519   0.176  0.1719  0.4288 -0.3403
  153SOL    HW1  458   3.084   1.419   0.184 -1.1239  0.7460  0.7412
  153SOL    HW2  459   3.096   1.578   0.252  1.8361 -0.6993 -0.9164
  154SOL     OW  460   2.357   1.839   2.748  0.3052  0.2108 -0.4369
  154SOL    HW1  461   2.356   1.743   2.793  3.0767  0.0930 -1.2105
  154SOL    HW2  462   2.442   1.856   2.690  0.0745  1.2795 -1.1534
  155SOL     OW  463   2.419   1.236   0.398 -0.0499 -0.0384 -0.3680
  155SOL    HW1  464   2.494   1.219   0.333  0.1797  1.9506  1.2717
  155SOL    HW2  465   2.340   1.177   0.374  0.7255 -1.8356 -3.1549
  156SOL     OW  466   2.576   0.984   0.869 -0.1198 -0.0823  0.0288
  156SOL    HW1  467   2.471   0.983   0.865  1.5892 -0.2513 -0.0329
  156SOL    HW2  468   2.615   1.033   0.790  0.0918 -2.3642  2.0116
  157SOL     OW  469   1.272   2.976   3.070  0.3944 -0.4280  0.2928
  157SOL    HW1  470   1.309   2.951   2.978 -1.0981 -0.5397 -2.0203
  157SOL    HW2  471   1.299   3.066   3.109  2.3742  0.2191 -2.4404
  158SOL     OW  472   1.025   1.833   1.957  0.3335  0.1631 -0.8143
  158SOL    HW1  473   1.067   1.927   1.948 -0.6830 -3.0413 -2.1053
  158SOL    HW2  474   0.943   1.835   2.017  2.0687  0.7245  0.5989
  159SOL     OW  475   0.821   0.439   1.230 -0.6279 -0.3653 -0.1994
  159SOL    HW1  476   0.806   0.534   1.275  0.3864 -1.5344 -1.5857
  159SOL    HW2  477   0.760   0.422   1.146 -1.2137 -1.0461 -0.9515
  160SOL     OW  478   1.408   2.353   1.644 -0.6868 -0.9216 -0.4152
  160SOL    HW1  479   1.424   2.419   1.718  2.0190 -2.1015 -0.6539
  160SOL    HW2  480   1.486   2.342   1.576 -1.1566 -0.5214 -0.4364
  161SOL     OW  481   0.087   2.919   0.291 -0.0973  0.4053 -0.5066
  161SOL    HW1  482  -0.015   2.886   0.282 -3.7785  0.2787 -0.1742
  161SOL    HW2  483   0.119   2.992   0.230 -0.5710  2.0471 -0.1610
  162SOL     OW  484   2.545   1.919   0.458  0.0994 -0.0756  0.3110
  162SOL    HW1  485   2.537   1.888   0.358 -2.8596  3.4204  0.0381
  162SOL    HW2  486   2.538   1.843   0.535 -0.0058 -0.6682 -1.8444
  163SOL     OW  487   1.935   2.734   0.765 -0.0628  0.4829 -0.3651
  163SOL    HW1  488   1.903   2.740   0.668 -0.7653  1.1891 -0.8775
  163SOL    HW2  489   2.035   2.696   0.771 -0.6644 -1.9514  0.2002
  164SOL     OW  490   3.058   0.203   1.189  0.8527  0.2001 -0.1807
  164SOL    HW1  491   3.130   0.275   1.167  0.0959  1.8525  0.8000
  164SOL    HW2  492   3.098   0.143   1.267 -1.7955 -0.1734  4.3481
  165SOL     OW  493   0.913   1.423   0.685  0.1979 -0.0086 -0.0368
  165SOL    HW1  494   0.870   1.453   0.771  1.2263 -1.9327 -0.2490
  165SOL    HW2  495   0.906   1.486   0.602  1.3176 -2.8015 -0.5508
  166SOL     OW  496   1.486   1.083   1.736  0.0199  0.2749  0.1855
  166SOL    HW1  497   1.395   1.079   1.790  1.9956 -1.6839  2.9859
  166SOL    HW2  498   1.562   1.127   1.797  3.4097 -0.5997  0.0671
  167SOL     OW  499   0.730   1.910   1.465 -0.4489 -0.0369 -0.5246
  167SOL    HW1  500   0.750   1.977   1.541  0.5079  0.8836 -0.7674
  167SOL    HW2  501   0.710   1.812   1.497  0.0058  1.9573  0.2419
  168SOL     OW  502   1.646   2.394   0.147  0.2463 -0.0112 -0.2150
  168SOL    HW1  503   1.717   2.435   0.079  0.9700  0.8417  0.9573
  168SOL    HW2  504   1.699   2.326   0.207 -0.9180  0.6863 -0.9458
  169SOL     OW  505   0.173   2.547   2.227 -0.5174  0.1200 -0.1187
  169SOL    HW1  506   0.190   2.513   2.128  0.7270  0.9797 -1.6226
  169SOL    HW2  507   0.195   2.474   2.298 -2.7083  1.5329  2.0862
  170SOL     OW  508   1.164   0.244   1.994 -0.2890 -0.2957  0.1845
  170SOL    HW1  509   1.244   0.225   2.060  0.5789 -0.5365  0.4544
  170SOL    HW2  510   1.161   0.178   1.912 -2.8832 -0.0373  0.6115
  171SOL     OW  511   0.222   0.811   2.378 -0.1052 -0.4603  0.1498
  171SOL    HW1  512   0.138   0.865   2.390 -0.2735 -1.5794  2.5936
  171SOL    HW2  513   0.235   0.777   2.281 -1.3404 -1.0061 -0.2625
  172SOL     OW  514   0.923   1.057   2.920 -0.1953 -0.5965 -0.2265
  172SOL    HW1  515   1.007   1.102   2.968 -1.4481 -0.9052  2.1938
  172SOL    HW2  516   0.911   1.086   2.818  1.9028 -1.2471 -1.8341
  173SOL     OW  517   0.666   2.653   0.076 -0.2635  0.3879 -0.1670
  173SOL    HW1  518   0.685   2.736   0.018 -1.0115 -3.6700  0.1123
  173SOL    HW2  519   0.560   2.632   0.086 -0.9839  0.0274 -1.9591
  174SOL     OW  520   1.402   2.816   1.072  0.4282 -0.0899  0.0382
  174SOL    HW1  521   1.413   2.899   1.016 -3.0027 -3.2377 -1.2858
  174SOL    HW2  522   1.392   2.726   1.010 -1.7521 -1.8905  2.1162
  175SOL     OW  523   0.366   0.054   1.671 -0.3529  0.6932  0.0559
  175SOL    HW1  524   0.435   0.105   1.732  1.2536  2.3915 -1.0335
  175SOL    HW2  525   0.299   0.117   1.619  0.4842  0.3007 -2.3814
  176SOL     OW  526   2.566   0.379   3.089 -0.0742 -0.1236 -0.0362
  176SOL    HW1  527   2.571   0.471   3.134 -0.1725  0.0136  0.0721
  176SOL    HW2  528   2.492   0.315   3.117  2.0667  5.6044  1.3421
  177SOL     OW  529   0.348   0.311   0.978  0.3340 -0.0512  0.0299
  177SOL    HW1  530   0.404   0.238   1.033  0.4043  1.2180  3.3303
  177SOL    HW2  531   0.258   0.337   1.028  1.8990 -0.7203  2.3381
  178SOL     OW  532   0.025   2.668   2.654 -0.8414 -0.2345 -0.0953
  178SOL    HW1  533  -0.055   2.602   2.667 -2.9271 -0.4420 -1.3596
  178SOL    HW2  534   0.087   2.681   2.736 -0.1406 -0.3279 -1.0068
  179SOL     OW  535   0.010   1.693   1.195  0.1257 -0.1028  0.1206
  179SOL    HW1  536  -0.056   1.773   1.195 -0.1451 -1.4190  0.7178
  179SOL    HW2  537  -0.020   1.614   1.254  0.7507  3.4806 -3.2964
  180SOL     OW  538   0.227   1.196   1.869  0.4021 -0.0810 -0.5621
  180SOL    HW1  539   0.336   1.189   1.864 -0.3725  0.0049  1.3685
  180SOL    HW2  540   0.197   1.269   1.934 -0.8545 -0.7671  0.1702
  181SOL     OW  541   3.003   1.837   2.502 -0.2787  0.1250 -0.2654
  181SOL    HW1  542   3.077   1.910   2.496 -0.9096  2.7999 -2.0791
  181SOL    HW2  543   2.916   1.847   2.451  2.7101 -2.3682  0.9172
  182SOL     OW  544   2.265   1.299   1.160 -0.4270 -0.0776 -0.0040
  182SOL    HW1  545   2.181   1.288   1.104  0.7377  1.7089 -1.3823
  182SOL    HW2  546   2.300   1.395   1.157 -0.0414  0.6285  1.2073
  183SOL     OW  547   1.510   2.233   2.559  0.4059 -0.5317 -0.0730
  183SOL    HW1  548   1.409   2.227   2.546 -2.8683  1.7004 -1.3766
  183SOL    HW2  549   1.557   2.145   2.576 -2.6912 -1.3463 -1.5419
  184SOL     OW  550   2.054   0.890   0.763  0.0001 -0.4160 -0.0327
  184SOL    HW1  551   1.961   0.936   0.758 -0.0750 -0.8358 -1.4993
  184SOL    HW2  552   2.045   0.793   0.793 -0.1600  1.6601  0.2745
  185SOL     OW  553   1.553   2.760   2.093 -0.2264  0.4501  0.1709
  185SOL    HW1  554   1.536   2.853   2.048 -0.3464  2.1655  1.0631
  185SOL    HW2  555   1.520   2.755   2.187 -0.2908  3.0995 -0.7839
  186SOL     OW  556   0.064   2.214   1.685  0.7493  0.5038 -0.2945
  186SOL    HW1  557   0.098   2.314   1.690 -0.5145 -1.5530  2.5488
  186SOL    HW2  558   0.136   2.140   1.707  0.7630 -0.4515 -0.0879
  187SOL     OW  559   1.388   0.733   1.676 -0.1586  0.0888 -0.2340
  187SOL    HW1  560   1.444   0.767   1.598 -2.6382  3.0270  0.5269
  187SOL    HW2  561   1.410   0.774   1.771  0.7143  0.7769 -0.9013
  188SOL     OW  562   2.772   2.751   1.456  0.2939  0.0909  0.5055
  188SOL    HW1  563   2.750   2.851   1.457 -1.1854 -1.2194 -0.4391
  188SOL    HW2  564   2.725   2.707   1.373  0.9081 -1.2343 -0.0912
  189SOL     OW  565   0.849   1.128   1.369  0.2392  0.7051  0.5065
  189SOL    HW1  566   0.929   1.172   1.421  2.7562  1.0258 -0.2618
  189SOL    HW2  567   0.776   1.194   1.343 -2.4128 -1.9379 -0.2342
  190SOL     OW  568   1.523   1.890   1.576 -0.6053 -0.3141 -0.4840
  190SOL    HW1  569   1.446   1.824   1.586  1.2229  0.7867  0.1927
  190SOL    HW2  570   1.546   1.932   1.668 -0.6593  2.1667 -1.2957
  191SOL     OW  571   0.981   0.753   1.525 -0.5287  0.1965 -0.0804
  191SOL    HW1  572   1.044   0.671   1.526 -0.1898  2.0402 -0.5035
  191SOL    HW2  573   1.031   0.843   1.526 -1.5471 -0.6401 -3.3184
  192SOL     OW  574   1.867   2.202   1.137  0.0590 -0.0254  0.0802
  192SOL    HW1  575   1.779   2.176   1.087 -0.7898  0.3458  0.7238
  192SOL    HW2  576   1.917   2.274   1.086 -1.5613  1.0010  0.7222
  193SOL     OW  577   0.506   0.598   0.452  0.0998 -0.4697  0.5323
  193SOL    HW1  578   0.508   0.505   0.502  0.3844  1.0539  0.1818
  193SOL    HW2  579   0.578   0.602   0.380  0.3023  0.5013 -0.3415
  194SOL     OW  580   0.306   0.851   1.274 -0.2458  0.6916 -0.1660
  194SOL    HW1  581   0.257   0.763   1.286  1.0119 -0.3001  0.8548
  194SOL    HW2  582   0.283   0.903   1.186 -0.5741  1.2887  1.3080
  195SOL     OW  583   1.012   2.914   0.547  0.5839 -0.3771  0.1970
  195SOL    HW1  584   1.007   2.810   0.544  0.6851  3.2886  1.9886
  195SOL    HW2  585   1.110   2.953   0.521 -1.2526  2.7454  3.5363
  196SOL     OW  586   0.230   1.384   1.365 -0.7375  0.1363  0.1840
  196SOL    HW1  587   0.276   1.462   1.417 -0.3183  0.4301 -0.1743
  196SOL    HW2  588   0.224   1.300   1.424 -0.8102  0.3633  1.0617
  197SOL     OW  589   0.832   2.022   0.214  0.1970  0.3457 -0.0544
  197SOL    HW1  590   0.842   2.007   0.316  0.2117 -2.8848 -0.8570
  197SOL    HW2  591   0.906   1.970   0.164 -0.0519  2.3588 -0.4956
  198SOL     OW  592   0.302   1.240   0.238  0.0771 -0.3441 -0.1032
  198SOL    HW1  593   0.206   1.205   0.239  3.6983  2.2002 -2.0806
  198SOL    HW2  594   0.311   1.343   0.227  1.4906 -0.0559  0.8713
  199SOL     OW  595   2.211   0.345   2.552 -0.6188  0.0569  0.2359
  199SOL    HW1  596   2.132   0.321   2.620 -0.4664  2.1599 -0.1869
  199SOL    HW2  597   2.303   0.332   2.592  0.0244  1.6418  1.2198
  200SOL     OW  598   0.042   2.957   0.706 -0.0295 -0.6970  0.3143
  200SOL    HW1  599  -0.013   2.961   0.619 -0.4462 -1.3857 -0.4505
  200SOL    HW2  600   0.040   3.043   0.763 -1.3740  0.7695  1.4136
  201SOL     OW  601   1.119   0.734   0.626 -0.3579 -0.0817 -0.0229
  201SOL    HW1  602   1.130   0.790   0.714 -2.6716 -0.5081  0.8336
  201SOL    HW2  603   1.022   0.694   0.614 -1.3036  1.2458  1.7338
  202SOL     OW  604   0.514   1.210   1.803  0.2130  0.0023 -0.2569
  202SOL    HW1  605   0.536   1.235   1.707 -1.0778 -2.1848  1.6952
  202SOL    HW2  606   0.569   1.135   1.848  2.4463 -0.2317  0.6716
  203SOL     OW  607   0.698   0.199   1.556 -0.3666  0.3636 -0.3510
  203SOL    HW1  608   0.719   0.156   1.466  0.7900  0.5001  1.6605
  203SOL    HW2  609   0.761   0.168   1.632  1.3764  1.5201  0.0871
  204SOL     OW  610   2.042   1.876   2.975  0.3224  0.1284 -0.5379
  204SOL    HW1  611   2.076   1.781   2.969  2.7888  0.6614  0.3224
  204SOL    HW2  612   2.010   1.930   2.890 -1.8481  1.3239 -0.1457
  205SOL     OW  613   1.811   1.854   0.014 -0.2370  0.5345 -0.4862
  205SOL    HW1  614   1.902   1.854  -0.034 -1.9725 -1.3934  1.1345
  205SOL    HW2  615   1.768   1.950   0.023 -1.8443  1.2108 -0.5555
  206SOL     OW  616   2.507   2.779   0.348 -0.1076 -0.1556  0.3369
  206SOL    HW1  617   2.572   2.698   0.369  0.3150 -1.2191  2.7967
  206SOL    HW2  618   2.552   2.837   0.277 -0.1454  0.1919 -0.9525
  207SOL     OW  619   0.566   1.771   2.939  0.3666  0.2875  0.7133
  207SOL    HW1  620   0.661   1.729   2.925  0.3722 -4.0391 -2.8093
  207SOL    HW2  621   0.502   1.720   3.005 -0.8073  0.2685  1.9189
  208SOL     OW  622   1.181   1.560   1.411 -0.0817  0.1757  0.2268
  208SOL    HW1  623   1.181   1.612   1.324  0.8535 -0.2581 -1.1520
  208SOL    HW2  624   1.215   1.614   1.497  3.1438  1.7406  1.1875
  209SOL     OW  625   0.271   0.973   3.003  0.1380 -0.1297  0.2760
  209SOL    HW1  626   0.304   0.900   2.938 -0.7013  1.5165 -2.7496
  209SOL    HW2  627   0.250   0.942   3.100 -0.7224 -0.8098  0.5791
  210SOL     OW  628   1.768   0.476   1.223 -0.1004  0.7105  0.2361
  210SOL    HW1  629   1.722   0.555   1.178  1.5432 -0.0909  0.1876
  210SOL    HW2  630   1.868   0.461   1.193  0.1883 -4.2337 -0.0983
  211SOL     OW  631   2.119   1.038   1.597 -0.3918 -0.3054 -0.2345
  211SOL    HW1  632   2.184   0.987   1.662 -1.1690  1.5815  0.3556
  211SOL    HW2  633   2.173   1.105   1.532  0.0665  0.5957 -3.7789
  212SOL     OW  634   0.023   0.989   1.481 -0.7633 -0.0399  0.0631
  212SOL    HW1  635   0.084   1.071   1.497  0.0430  0.4768  0.3415
  212SOL    HW2  636   0.068   0.897   1.513  3.1685  0.4022 -0.1893
  213SOL     OW  637   2.761   0.394   0.330  0.2712 -0.2694  0.3102
  213SOL    HW1  638   2.813   0.330   0.269  1.2452 -0.7074  4.1449
  213SOL    HW2  639   2.684   0.440   0.275 -2.7771  2.7524  1.8995
  214SOL     OW  640   2.152   0.257   2.289  0.0876 -0.3578  0.0875
  214SOL    HW1  641   2.158   0.266   2.393  1.9525 -1.6336 -0.0768
  214SOL    HW2  642   2.129   0.158   2.264  0.4420  0.6101 -1.0339
  215SOL     OW  643   1.629   2.328   2.052 -0.4334 -0.2944  0.4610
  215SOL    HW1  644   1.731   2.347   2.062  1.5123 -0.9695  0.0040
  215SOL    HW2  645   1.572   2.392   2.107 -1.1430 -1.3025 -0.3378
  216SOL     OW  646   2.217   0.620   0.668 -0.0044  0.5791 -0.6315
  216SOL    HW1  647   2.194   0.519   0.652 -0.3220  0.1299 -1.2203
  216SOL    HW2  648   2.239   0.664   0.582 -1.4162  1.8501  0.9373
  217SOL     OW  649   0.733   2.766   2.489  0.0119  0.1198  0.0780
  217SOL    HW1  650   0.680   2.683   2.516  2.0482 -0.4582 -2.1280
  217SOL    HW2  651   0.762   2.768   2.389 -0.5769 -1.2262  0.9013
  218SOL     OW  652   1.935   1.457   0.079  0.1474  0.0535  0.0960
  218SOL    HW1  653   1.851   1.490   0.037  1.2447  1.4092  0.0869
  218SOL    HW2  654   1.932   1.360   0.112 -1.6164  0.2212 -1.1879
  219SOL     OW  655   2.330   1.284   2.570  0.4606  0.1983 -0.5436
  219SOL    HW1  656   2.358   1.218   2.498 -1.1580 -0.1323 -0.3084
  219SOL    HW2  657   2.357   1.253   2.670  0.6491 -1.7610  1.9488
  220SOL     OW  658   1.517   1.011   1.279 -0.2487  0.3452  0.8832
  220SOL    HW1  659   1.606   1.040   1.329 -1.2862  0.7451 -0.2396
  220SOL    HW2  660   1.484   1.071   1.201  1.6389  0.1889  2.6285
  221SOL     OW  661   1.361   1.065   2.183 -0.1345 -0.5840  0.1715
  221SOL    HW1  662   1.308   1.070   2.095 -0.8118 -0.5654  0.2543
  221SOL    HW2  663   1.459   1.035   2.166 -2.2911  0.1366 -0.6630
  222SOL     OW  664   1.203   0.031   1.179 -0.1121  0.1318  0.1415
  222SOL    HW1  665   1.292   0.040   1.227 -0.8916 -0.5620  0.9884
  222SOL    HW2  666   1.169   0.122   1.140 -1.1849  1.3965  1.9207
  223SOL     OW  667   2.790   0.864   2.048 -0.5800 -0.2376 -0.5800
  223SOL    HW1  668   2.825   0.863   2.149 -0.8622 -0.3121 -0.6580
  223SOL    HW2  669   2.859   0.911   1.984  0.1185 -1.1543  0.8338
  224SOL     OW  670   1.535   1.003   2.746  0.3582  0.5405  0.0999
  224SOL    HW1  671   1.562   0.929   2.681  0.2094  0.1468 -0.6583
  224SOL    HW2  672   1.488   1.085   2.709  1.5180 -1.4319 -0.7584
  225SOL     OW  673   2.942   2.789   2.894 -0.3665  0.1615  0.6343
  225SOL    HW1  674   2.893   2.712   2.843  0.6813 -0.7141 -0.6755
  225SOL    HW2  675   2.997   2.859   2.836  0.7125  0.0917  0.1045
  226SOL     OW  676   2.402   1.587   2.842 -0.8921 -0.0955 -0.0305
  226SOL    HW1  677   2.453   1.567   2.750 -0.6584 -0.7672 -1.0147
  226SOL    HW2  678   2.354   1.506   2.883 -0.3834  2.3396 -0.0101
  227SOL     OW  679   0.837   0.150   3.023  0.1400  0.4792 -0.3432
  227SOL    HW1  680   0.891   0.065   3.047  2.2861 -1.9901 -0.3695
  227SOL    HW2  681   0.811   0.157   2.924 -1.9053 -0.1221 -3.5183
  228SOL     OW  682   2.399   0.615   2.867 -0.1601 -0.5008 -0.1553
  228SOL    HW1  683   2.355   0.642   2.776 -0.6080  1.3997 -2.1000
  228SOL    HW2  684   2.477   0.550   2.862 -1.5517  0.4728 -0.6211
  229SOL     OW  685   0.612   0.495   1.895  0.0854 -0.1720  0.5772
  229SOL    HW1  686   0.632   0.406   1.856 -2.5486 -0.4143 -0.4799
  229SOL    HW2  687   0.658   0.558   1.835  0.7892 -1.4184 -1.0050
  230SOL     OW  688   1.924   1.188   2.127  0.1691 -0.3631  0.0136
  230SOL    HW1  689   2.003   1.247   2.096  3.8442  0.6610  0.5933
  230SOL    HW2  690   1.841   1.251   2.104  0.9177  2.4354 -0.4772
  231SOL     OW  691   0.625   0.985   2.953 -0.0198  0.2701  0.2556
  231SOL    HW1  692   0.707   1.043   2.943 -0.9319 -0.2645  0.7883
  231SOL    HW2  693   0.550   1.030   3.005 -0.8761  2.1505 -2.2577
  232SOL     OW  694   2.449   0.011   2.786 -0.3346  0.3613  0.1854
  232SOL    HW1  695   2.466  -0.087   2.818  2.4760  1.9596  1.7645
  232SOL    HW2  696   2.505   0.038   2.702  1.7933 -0.9586 -0.6468
  233SOL     OW  697   1.697   1.299   1.141 -0.0252 -0.4636  0.0289
  233SOL    HW1  698   1.745   1.307   1.047  3.0298  1.8379 -2.7830
  233SOL    HW2  699   1.724   1.211   1.193  0.1804  0.0561  1.3872
  234SOL     OW  700   1.590   2.588   1.846 -0.2255 -0.0709 -0.1073
  234SOL    HW1  701   1.578   2.685   1.880  0.7649  0.5195 -0.8233
  234SOL    HW2  702   1.530   2.522   1.892  0.7246 -1.2468 -1.6533
  235SOL     OW  703   0.044   3.008   2.850  0.6375  0.0583 -0.8443
  235SOL    HW1  704   0.125   3.073   2.863 -2.4287  0.2458  3.4878
  235SOL    HW2  705  -0.043   3.040   2.898  0.5937 -2.0519 -0.9242
  236SOL     OW  706   2.880   0.747   0.086  0.0060  0.6327 -0.5036
  236SOL    HW1  707   2.956   0.779   0.145  2.2489  1.2902 -1.5098
  236SOL    HW2  708   2.898   0.662   0.033 -0.4343  1.1996 -2.5707
  237SOL     OW  709   1.463   1.706   1.016  0.7196  0.0296 -1.0032
  237SOL    HW1  710   1.557   1.684   0.986 -1.5872 -1.4296  0.3799
  237SOL    HW2  711   1.452   1.730   1.121 -0.0299  0.4499  0.3585
  238SOL     OW  712   1.783   1.279   0.850 -0.0359 -0.2417  0.9504
  238SOL    HW1  713   1.869   1.328   0.819 -1.5488 -0.7802 -1.5115
  238SOL    HW2  714   1.699   1.324   0.803  0.0533  3.8606 -0.5834
  239SOL     OW  715   2.016   0.237   2.742  0.5246 -0.1387  0.7001
  239SOL    HW1  716   2.050   0.193   2.834  0.9874 -0.3341  3.3126
  239SOL    HW2  717   1.944   0.315   2.757 -0.3948  0.3047  1.1744
  240SOL     OW  718   0.998   0.629   0.305 -0.3172  0.2083  0.5285
  240SOL    HW1  719   0.995   0.538   0.264  1.8483  1.3485 -1.8789
  240SOL    HW2  720   1.010   0.626   0.406  3.6194  3.1076 -1.1379
  241SOL     OW  721   0.629   0.104   0.326  0.2725  0.1137  0.7480
  241SOL    HW1  722   0.639   0.174   0.246  3.0414 -0.4057  2.6395
  241SOL    HW2  723   0.603   0.004   0.296  0.4058 -4.1146 -1.1012
  242SOL     OW  724   0.697   2.482   1.128 -0.3760  0.4668 -0.0969
  242SOL    HW1  725   0.646   2.524   1.202  1.5835  0.2720 -1.2016
  242SOL    HW2  726   0.778   2.540   1.099  0.1860 -0.8505 -0.7431
  243SOL     OW  727   1.126   0.594   2.477 -0.3580 -0.0909  0.5884
  243SOL    HW1  728   1.090   0.675   2.429 -1.6491 -0.3347  1.3215
  243SOL    HW2  729   1.057   0.519   2.504 -1.7821 -3.3631  1.1585
  244SOL     OW  730   2.780   1.879   2.353  0.0516  0.7131  0.4469
  244SOL    HW1  731   2.833   1.845   2.266  0.0946  0.9287 -0.8135
  244SOL    HW2  732   2.695   1.825   2.372  0.5700  4.4226 -0.4053
  245SOL     OW  733   2.464   0.660   2.195 -0.3132 -0.5706  0.0222
  245SOL    HW1  734   2.492   0.736   2.258  0.4694  1.8248 -0.9668
  245SOL    HW2  735   2.526   0.574   2.187 -1.6741  0.4247  1.2104
  246SOL     OW  736   0.229   2.935   1.655 -0.0541 -0.2424  0.2525
  246SOL    HW1  737   0.176   2.917   1.569 -0.3012 -0.3147  2.6778
  246SOL    HW2  738   0.284   3.023   1.648 -2.4264  1.0617 -1.1186
  247SOL     OW  739   2.139   0.562   3.049 -0.1225 -0.1897 -0.3993
  247SOL    HW1  740   2.213   0.559   2.986 -1.1410  1.5428  2.7184
  247SOL    HW2  741   2.102   0.658   3.068  2.2645 -1.1229  3.5978
  248SOL     OW  742   2.114   1.787   1.584 -0.2957 -0.0311 -0.3198
  248SOL    HW1  743   2.172   1.745   1.659  0.5043  0.9155 -2.2014
  248SOL    HW2  744   2.018   1.792   1.616  0.6638  0.7309  0.7322
  249SOL     OW  745   1.960   1.905   1.939  0.3908  0.1305 -0.1624
  249SOL    HW1  746   1.937   1.860   1.850  0.0946 -0.3704  3.2062
  249SOL    HW2  747   2.040   1.969   1.933  0.2943 -0.5814 -1.9869
  250SOL     OW  748   1.112   0.759   1.907 -0.1947 -0.0440  0.3129
  250SOL    HW1  749   1.156   0.668   1.944  2.0260  0.8444  1.3428
  250SOL    HW2  750   1.102   0.755   1.803 -2.2360 -1.2848  0.6457
  251SOL     OW  751   3.078   1.569   2.537  0.5995 -0.0005  0.2820
  251SOL    HW1  752   3.071   1.667   2.511  0.1653  0.7008  1.7024
  251SOL    HW2  753   2.988   1.526   2.528  0.2024  2.4969 -1.2035
  252SOL     OW  754   1.577   0.912   1.541  0.0945 -0.0635  0.1290
  252SOL    HW1  755   1.563   0.953   1.453  1.2088  0.0435  1.5827
  252SOL    HW2  756   1.559   0.972   1.626  3.8047 -0.1505  1.2225
  253SOL     OW  757   0.874   1.530   0.412 -0.6041 -0.1459  0.5787
  253SOL    HW1  758   0.928   1.441   0.409 -0.4027 -0.8158 -0.5508
  253SOL    HW2  759   0.789   1.530   0.367  2.8761 -0.3082  0.9930
  254SOL     OW  760   2.083   2.117   1.572  0.7303  0.2453  0.4616
  254SOL    HW1  761   2.047   2.067   1.490  1.5784  2.0237  0.6046
  254SOL    HW2  762   2.037   2.100   1.663 -1.6171  0.8797  0.1064
  255SOL     OW  763   0.098   1.176   2.941  0.0710  0.0381  0.1132
  255SOL    HW1  764   0.151   1.257   2.907  0.4462  0.4383  1.7824
  255SOL    HW2  765   0.164   1.091   2.957  1.5090 -0.4596 -1.6513
  256SOL     OW  766   2.771   1.374   1.775 -0.6891  0.0466 -0.8981
  256SOL    HW1  767   2.694   1.415   1.828 -1.0268  0.2577 -0.1589
  256SOL    HW2  768   2.750   1.275   1.754 -0.0460  0.1036  0.3703
  257SOL     OW  769   0.862   0.147   1.780 -0.3910  0.2990 -0.2416
  257SOL    HW1  770   0.930   0.228   1.773  1.0158  1.8892 -0.6473
  257SOL    HW2  771   0.905   0.059   1.753  0.8217 -1.6676 -1.2217
  258SOL     OW  772   2.943   1.302   0.429 -0.5935 -0.0832  0.4194
  258SOL    HW1  773   2.872   1.381   0.421  0.3628  0.3387  1.5994
  258SOL    HW2  774   2.987   1.308   0.519  2.7669 -2.7352 -1.5456
  259SOL     OW  775   0.501   2.944   3.028 -0.5997  0.0082  0.1792
  259SOL    HW1  776   0.418   2.895   3.073 -0.6031  0.2993 -0.2311
  259SOL    HW2  777   0.499   2.925   2.930  0.1974 -1.9155  2.0631
  260SOL     OW  778   2.707   0.825   2.724  0.1171  0.3641  1.0432
  260SOL    HW1  779   2.615   0.842   2.686  2.1743 -2.8441  0.5776
  260SOL    HW2  780   2.759   0.909   2.741  1.6779 -1.1295 -1.5634
  261SOL     OW  781   2.730   1.359   1.342  0.1953 -0.6410 -0.6521
  261SOL    HW1  782   2.645   1.317   1.289 -1.6691  0.2568 -2.0198
  261SOL    HW2  783   2.797   1.289   1.379  0.2346 -0.9511 -0.9956
  262SOL     OW  784   1.453   2.990   1.991  0.0422  0.0795  0.0522
  262SOL    HW1  785   1.478   3.072   1.934 -0.8793 -0.0259  3.0863
  262SOL    HW2  786   1.364   2.945   1.961 -0.0124 -0.3141  0.0199
  263SOL     OW  787   0.854   0.716   2.339 -0.5347 -0.3183  0.1114
  263SOL    HW1  788   0.823   0.621   2.316 -2.6349 -0.9300  0.9372
  263SOL    HW2  789   0.889   0.775   2.262  0.6261  2.3025  1.2032
  264SOL     OW  790   2.230   0.807   0.310 -0.2555  0.0715 -0.3400
  264SOL    HW1  791   2.136   0.786   0.357 -2.8941  0.7598 -1.8685
  264SOL    HW2  792   2.311   0.837   0.373  2.6730  2.9822 -1.1820
  265SOL     OW  793   0.913   2.277   2.653 -0.1274 -0.1270  0.2830
  265SOL    HW1  794   0.973   2.333   2.716 -2.5948 -2.1016 -0.3401
  265SOL    HW2  795   0.897   2.179   2.688 -1.0489 -0.4141 -1.2397
  266SOL     OW  796   1.353   1.740   3.074  0.1228 -0.1000  0.4065
  266SOL    HW1  797   1.334   1.815   3.144 -3.8903 -0.4745 -0.9932
  266SOL    HW2  798   1.454   1.728   3.051 -2.3680  1.3381 -0.2295
  267SOL     OW  799   0.984   3.064   2.370 -0.3120 -0.1201 -0.1436
  267SOL    HW1  800   0.990   3.023   2.275  0.8401 -1.4393 -1.1022
  267SOL    HW2  801   0.971   3.167   2.366 -3.0663 -0.6119 -1.1563
  268SOL     OW  802   0.674   1.136   1.080  0.6406 -0.1848 -0.4018
  268SOL    HW1  803   0.666   1.190   1.166 -0.9510 -0.7841  0.8930
  268SOL    HW2  804   0.682   1.201   0.993  0.5142  0.2066 -1.5477
  269SOL     OW  805   2.411   2.466   1.543 -0.6956 -0.0738 -0.2935
  269SOL    HW1  806   2.513   2.458   1.553 -2.0975  1.9097 -0.0424
  269SOL    HW2  807   2.371   2.491   1.639  0.7921 -0.1009  0.6894
  270SOL     OW  808   0.132   3.057   1.905 -0.0545 -0.6346  0.0439
  270SOL    HW1  809   0.177   3.034   1.814  0.8631 -0.2542  0.2568
  270SOL    HW2  810   0.058   2.988   1.928  0.3705  0.1573 -0.2629
  271SOL     OW  811   0.410   1.424   1.156  0.1253 -0.4117 -0.1666
  271SOL    HW1  812   0.380   1.427   1.055  0.7762  1.3615  1.9794
  271SOL    HW2  813   0.329   1.412   1.220  0.0364  0.5565 -3.0826
  272SOL     OW  814   1.966   2.880   1.913  0.3946  0.4948 -0.4731
  272SOL    HW1  815   1.939   2.804   1.848  0.2573 -0.6018  1.1985
  272SOL    HW2  816   2.011   2.968   1.868  1.1517  1.0770  1.9617
  273SOL     OW  817   1.433   1.443   2.819  0.7317  0.2412 -0.5065
  273SOL    HW1  818   1.337   1.486   2.815 -1.4205  1.7413  0.0866
  273SOL    HW2  819   1.493   1.476   2.899  0.2139 -0.1222  0.5120
  274SOL     OW  820   1.231   0.519   2.007  0.6759  0.0872 -0.3914
  274SOL    HW1  821   1.210   0.415   1.994  0.6996 -2.2397  0.5716
  274SOL    HW2  822   1.259   0.531   2.102 -0.1799 -2.5900 -1.7097
  275SOL     OW  823   0.645   2.082   1.872  0.2765 -0.1604 -0.2172
  275SOL    HW1  824   0.611   2.175   1.909 -1.7709 -2.7853 -1.2272
  275SOL    HW2  825   0.566   2.020   1.860 -0.4080  1.7850  2.3370
  276SOL     OW  826   2.151   0.923   2.809 -0.4065  0.0701 -0.5426
  276SOL    HW1  827   2.071   0.962   2.760  0.6308 -0.3125  0.3201
  276SOL    HW2  828   2.128   0.854   2.887  1.0035 -0.9578 -0.1126
  277SOL     OW  829  -0.000   0.875   0.273  0.0963 -0.2280  0.2871
  277SOL    HW1  830   0.092   0.898   0.229  0.8049 -3.1091  3.2352
  277SOL    HW2  831   0.005   0.794   0.338  0.3282  0.5821  0.5984
  278SOL     OW  832   0.244   0.280   3.063  0.5557 -0.1355  0.2908
  278SOL    HW1  833   0.316   0.209   3.067 -3.1675  0.7482 -0.0224
  278SOL    HW2  834   0.278   0.381   3.066 -1.3591  0.4353  0.4297
  279SOL     OW  835   0.139   0.086   0.882  0.1702  0.6284  0.8861
  279SOL    HW1  836   0.132   0.051   0.978  2.9219  0.0923  0.8134
  279SOL    HW2  837   0.227   0.049   0.839  0.0264 -1.0836 -0.6112
  280SOL     OW  838   1.587   2.891   2.551 -0.8711  0.7699 -0.4290
  280SOL    HW1  839   1.675   2.941   2.564 -0.2451  1.9235  1.0706
  280SOL    HW2  840   1.508   2.955   2.552 -1.5256 -1.0983  3.2499
  281SOL     OW  841   0.600   0.944   2.261  0.8538 -0.6705 -0.0562
  281SOL    HW1  842   0.598   0.846   2.221 -2.3462 -1.9533 -1.3484
  281SOL    HW2  843   0.537   0.954   2.344  0.4784  1.3694  0.6500
  282SOL     OW  844   1.760   2.407   0.505 -0.3299  0.5622 -0.3779
  282SOL    HW1  845   1.731   2.323   0.455  2.6507 -0.6121  3.2280
  282SOL    HW2  846   1.704   2.487   0.481  0.3689 -0.6087  1.3752
  283SOL     OW  847   1.133   0.923   0.843  0.0359 -0.1081  0.1776
  283SOL    HW1  848   1.175   0.861   0.910 -1.3811  0.0794 -0.3960
  283SOL    HW2  849   1.061   0.981   0.888  0.5428  0.0581  0.1726
  284SOL     OW  850   2.351   2.770   2.334  0.0409 -0.3532  0.2343
  284SOL    HW1  851   2.430   2.828   2.316  0.3164 -3.7542  0.0673
  284SOL    HW2  852   2.316   2.787   2.434  2.3054  1.3924  0.7707
  285SOL     OW  853   1.361   3.061   2.546  0.0701 -0.4290  0.0064
  285SOL    HW1  854   1.374   3.078   2.450 -1.4118  1.6843  1.7638
  285SOL    HW2  855   1.257   3.066   2.570  1.2104  2.3398 -1.0134
  286SOL     OW  856   0.458   0.416   0.765  0.2510 -0.1175  0.3914
  286SOL    HW1  857   0.394   0.372   0.840 -1.6797 -2.0492 -0.8770
  286SOL    HW2  858   0.468   0.345   0.686 -2.0390 -0.5152 -0.9310
  287SOL     OW  859   0.127   1.327   2.539 -0.3183 -0.0295  0.1457
  287SOL    HW1  860   0.084   1.260   2.604 -0.2091  1.0100 -1.0056
  287SOL    HW2  861   0.064   1.404   2.499  0.9603  1.9028 -1.2911
  288SOL     OW  862   1.550   2.672   1.602  0.4782 -0.2732  0.5222
  288SOL    HW1  863   1.593   2.630   1.688 -0.3039  1.7773 -2.0663
  288SOL    HW2  864   1.583   2.631   1.518  1.2832  0.7212 -0.7355
  289SOL     OW  865   0.609   2.720   0.820 -0.5332  0.5502 -0.1798
  289SOL    HW1  866   0.674   2.782   0.760 -0.2815  1.4864 -1.0179
  289SOL    HW2  867   0.605   2.755   0.914 -0.2821  2.1736 -1.3861
  290SOL     OW  868   2.824   1.074   1.708 -0.0920 -0.0324  0.3674
  290SOL    HW1  869   2.736   1.037   1.746 -0.7979  2.1039  0.7388
  290SOL    HW2  870   2.907   1.054   1.763 -1.2933  1.2077 -1.7293
  291SOL     OW  871   1.950   0.078   0.059  0.0794 -0.0414  0.0963
  291SOL    HW1  872   1.994   0.053   0.148  3.6061  2.5579  0.2045
  291SOL    HW2  873   2.020   0.110  -0.008  0.9180  0.2053  1.8657
  292SOL     OW  874   2.976   1.220   3.084  0.1725 -0.4303 -0.0842
  292SOL    HW1  875   2.914   1.283   3.026 -1.3587  0.8903 -1.6071
  292SOL    HW2  876   3.068   1.200   3.031  1.0700 -2.8044  0.3976
  293SOL     OW  877   0.546   2.115   0.161  0.4370  0.4735 -0.1958
  293SOL    HW1  878   0.551   2.180   0.241 -0.2097  0.3312  1.8979
  293SOL    HW2  879   0.627   2.056   0.148 -3.7051  0.2224  2.8821
  294SOL     OW  880   1.748   2.236   1.764  0.3455  0.2804 -0.0353
  294SOL    HW1  881   1.753   2.316   1.830  0.8586  1.2642 -1.7319
  294SOL    HW2  882   1.750   2.275   1.666  1.2682  2.8305 -1.7577
  295SOL     OW  883   1.046   1.032   0.517 -1.0167  0.4559 -0.0936
  295SOL    HW1  884   1.131   1.055   0.578  0.2916 -0.4474 -3.0868
  295SOL    HW2  885   0.965   1.014   0.574  1.9638  2.7086  0.8939
  296SOL     OW  886   1.267   2.091   2.522  0.2819  0.8339 -0.0273
  296SOL    HW1  887   1.266   2.105   2.421 -3.4851  1.2273  2.6393
  296SOL    HW2  888   1.273   1.986   2.544 -0.0216 -0.3444 -0.0135
  297SOL     OW  889   1.456   0.608   1.393  0.0842 -0.3691 -0.0598
  297SOL    HW1  890   1.431   0.506   1.398  1.8381  0.9705  2.6469
  297SOL    HW2  891   1.546   0.623   1.440  1.5967 -2.1855 -1.3466
  298SOL     OW  892   0.511   1.344   2.949 -0.4087  0.7244  0.1785
  298SOL    HW1  893   0.475   1.262   3.005  0.6854 -2.8779 -0.3013
  298SOL    HW2  894   0.556   1.303   2.867 -0.5458 -0.9193  2.6532
  299SOL     OW  895   0.496   0.268   1.358  0.2589 -0.7684  0.6692
  299SOL    HW1  896   0.508   0.361   1.305  3.5361  1.1167  0.0625
  299SOL    HW2  897   0.566   0.235   1.427 -1.7714 -2.6614  0.9380
  300SOL     OW  898   1.217   1.829   2.858  0.0051 -0.0277 -0.1919
  300SOL    HW1  899   1.161   1.746   2.847  1.9756  3.5652  1.2203
  300SOL    HW2  900   1.260   1.837   2.951  1.0198  0.6647 -1.9117
  301SOL     OW  901   0.478   0.265   0.517 -0.0871 -0.1497  0.0193
  301SOL    HW1  902   0.374   0.254   0.520  1.1835 -2.0230  2.8432
  301SOL    HW2  903   0.512   0.234   0.424  1.1700  0.9725 -0.1562
  302SOL     OW  904   1.217   2.412   2.288  0.3752 -0.4382  0.2349
  302SOL    HW1  905   1.159   2.422   2.372  1.0359  0.3489  3.4428
  302SOL    HW2  906   1.223   2.315   2.249  1.4566  2.2993  0.2862
  303SOL     OW  907   0.975   2.342   0.829 -0.2186  0.1260  0.3022
  303SOL    HW1  908   1.046   2.366   0.760 -0.6255 -0.5345 -0.1184
  303SOL    HW2  909   0.974   2.396   0.918  2.1376 -0.8898  2.1203
  304SOL     OW  910   0.152   2.040   0.628  0.1339 -0.0319  0.4799
  304SOL    HW1  911   0.163   1.983   0.540  0.1496  0.3210  1.9778
  304SOL    HW2  912   0.072   2.106   0.629 -1.4429 -3.2931  0.5651
  305SOL     OW  913   1.612   0.939   0.579  0.7008 -0.5322 -0.4690
  305SOL    HW1  914   1.547   0.913   0.501 -0.2941 -1.8445 -0.0062
  305SOL    HW2  915   1.659   0.860   0.625  0.0263  3.0962  2.8158
  306SOL     OW  916   0.432   1.872   1.908  0.1779  0.1971  0.5629
  306SOL    HW1  917   0.506   1.809   1.879 -1.0525  0.4930  0.2921
  306SOL    HW2  918   0.419   1.864   2.007  1.0410  0.2897  0.8845
  307SOL     OW  919   3.062   0.898   2.525  0.4006  0.6771  0.2020
  307SOL    HW1  920   3.080   0.995   2.566  0.3295  1.7264 -1.7856
  307SOL    HW2  921   3.015   0.827   2.585 -1.4647 -1.4091 -2.0522
  308SOL     OW  922   1.544   2.678   2.863  0.2572 -0.1044 -0.6013
  308SOL    HW1  923   1.555   2.620   2.780 -0.5055  0.3044  0.7848
  308SOL    HW2  924   1.497   2.620   2.943  2.6691 -0.3555  1.3281
  309SOL     OW  925   1.227   0.070   1.770 -0.3408 -0.2022 -0.1702
  309SOL    HW1  926   1.333   0.065   1.773 -1.3430  0.1792 -1.5942
  309SOL    HW2  927   1.188   0.105   1.677  0.8660  0.0949 -0.5402
  310SOL     OW  928   1.500   2.557   0.684  0.1256  0.2350 -0.5454
  310SOL    HW1  929   1.478   2.620   0.762  0.9257 -2.3484 -0.5543
  310SOL    HW2  930   1.567   2.597   0.614  1.0676 -0.7195  2.4281
  311SOL     OW  931   1.176   0.942   1.580 -0.5023 -0.2295  0.0162
  311SOL    HW1  932   1.231   0.861   1.600 -0.8877  3.2628  1.8746
  311SOL    HW2  933   1.227   1.020   1.532 -1.1130  0.5837 -1.0773
  312SOL     OW  934   1.621   0.663   0.976  0.2433  0.2985 -0.3172
  312SOL    HW1  935   1.579   0.758   0.961 -1.1022 -1.0055  1.5696
  312SOL    HW2  936   1.554   0.587   0.951  1.4754  0.1423  2.5941
  313SOL     OW  937   1.596   1.400   0.695 -0.0422 -0.1841  0.0269
  313SOL    HW1  938   1.525   1.442   0.753  1.5641  0.2569 -1.8834
  313SOL    HW2  939   1.568   1.318   0.638  0.5463 -1.1664 -1.7318
  314SOL     OW  940   2.988   0.028   3.060 -0.7634 -0.1556 -0.8262
  314SOL    HW1  941   2.994   0.081   3.150  0.3511 -0.4447 -1.2833
  314SOL    HW2  942   2.899  -0.031   3.061 -0.3015 -2.1685  0.6825
  315SOL     OW  943   1.209   0.197   2.802 -0.0869 -0.2917 -0.2987
  315SOL    HW1  944   1.220   0.121   2.738 -2.2391 -1.1182  2.4483
  315SOL    HW2  945   1.252   0.174   2.897 -0.2059  1.1028  0.1189
  316SOL     OW  946   1.707   2.087   0.886  0.0731 -0.0714 -0.9792
  316SOL    HW1  947   1.643   2.066   0.965 -0.9543 -0.7012 -0.4049
  316SOL    HW2  948   1.720   2.190   0.859  0.6734  1.8866 -0.2413
  317SOL     OW  949   1.130   0.699   2.879  0.2587 -0.4268  0.1394
  317SOL    HW1  950   1.060   0.742   2.947 -3.0128 -0.3098  0.8504
  317SOL    HW2  951   1.093   0.613   2.834 -0.5215  0.6296  1.5404
  318SOL     OW  952   1.320   3.057   2.245 -0.0663  0.1762  0.4053
  318SOL    HW1  953   1.327   3.155   2.260 -0.3689 -0.9449  1.1492
  318SOL    HW2  954   1.367   3.025   2.159  0.4462 -0.4157 -1.3493
  319SOL     OW  955   0.646   2.450   2.941  0.2666  0.0924  0.2707
  319SOL    HW1  956   0.595   2.413   3.025  0.0146 -0.9724  0.5806
  319SOL    HW2  957   0.744   2.464   2.961 -0.8773 -1.1906  0.7627
  320SOL     OW  958   1.690   2.200   0.339  0.2289  0.1626  0.7671
  320SOL    HW1  959   1.786   2.167   0.357  2.1844  0.6184  4.9154
  320SOL    HW2  960   1.622   2.140   0.385  2.2609  3.1438  0.5170
  321SOL     OW  961   1.674   2.674   0.487 -0.0622  0.3542  0.1204
  321SOL    HW1  962   1.598   2.701   0.417  0.9499 -2.3633 -1.5286
  321SOL    HW2  963   1.768   2.719   0.474 -0.6015 -0.5777 -1.3366
  322SOL     OW  964   2.539   1.131   2.350  0.3474 -0.2204  1.1919
  322SOL    HW1  965   2.637   1.153   2.374  0.9075 -2.2492 -3.8725
  322SOL    HW2  966   2.522   1.028   2.347 -0.3595  1.0264  3.8429
  323SOL     OW  967   1.113   2.639   0.832  1.1767  0.2324  0.3885
  323SOL    HW1  968   1.120   2.593   0.736  1.2889 -0.1610 -0.3974
  323SOL    HW2  969   1.099   2.743   0.831 -0.5009  0.7112  0.8056
  324SOL     OW  970   0.254   2.540   2.520 -0.0948 -0.1314  0.3154
  324SOL    HW1  971   0.218   2.483   2.599  1.1014 -1.8629  1.4391
  324SOL    HW2  972   0.196   2.627   2.499  0.2658  3.2636  0.2113
  325SOL     OW  973   1.238   3.033   0.467  0.1266  0.0455  0.1016
  325SOL    HW1  974   1.255   3.050   0.366 -0.3603 -1.4233 -0.6103
  325SOL    HW2  975   1.282   3.108   0.527 -0.6938 -1.1923  0.8611
  326SOL     OW  976   2.437   0.781   3.075 -0.1837 -0.2660  0.4320
  326SOL    HW1  977   2.429   0.725   2.987 -0.8546  0.8166 -1.0894
  326SOL    HW2  978   2.471   0.720   3.152  1.4428  0.3760 -1.0793
  327SOL     OW  979   2.857   0.352   0.574  0.3339  0.3874  0.6537
  327SOL    HW1  980   2.813   0.371   0.482 -2.6663  0.0982  0.8825
  327SOL    HW2  981   2.815   0.270   0.620  0.6325  1.1021  0.6236
  328SOL     OW  982   2.528   0.592   0.387  0.4120 -0.4603 -0.3855
  328SOL    HW1  983   2.490   0.685   0.403  0.5054 -0.0982  2.9343
  328SOL    HW2  984   2.511   0.522   0.464 -1.6740  2.2134  1.8748
  329SOL     OW  985   2.974   2.993   2.130 -0.2166 -0.6751  0.1530
  329SOL    HW1  986   3.011   2.924   2.199  1.8842  0.4481  1.9113
  329SOL    HW2  987   2.982   3.093   2.161  2.7419  1.9188 -2.0597
  330SOL     OW  988   0.584   0.148   1.845 -0.0534 -0.2207  0.1909
  330SOL    HW1  989   0.688   0.149   1.835  0.7255  1.5559  1.9509
  330SOL    HW2  990   0.567   0.089   1.931 -1.2502 -0.4820  1.4578
  331SOL     OW  991   2.960   1.921   1.150  0.0356  0.5501  0.8525
  331SOL    HW1  992   2.992   1.991   1.080  1.9580 -1.4067  1.5571
  331SOL    HW2  993   2.896   1.954   1.228 -2.7362 -0.5927  0.3210
  332SOL     OW  994   0.449   1.140   0.004  0.1462 -0.0980 -0.2557
  332SOL    HW1  995   0.382   1.071  -0.034 -0.6760  1.6502 -2.0437
  332SOL    HW2  996   0.426   1.182   0.097 -0.0871 -1.0416  0.3051
  333SOL     OW  997   2.876   1.064   0.282  0.5917  0.2576 -0.3834
  333SOL    HW1  998   2.928   1.135   0.339  0.3984  0.5418  1.0938
  333SOL    HW2  999   2.936   0.988   0.253  0.8753  1.2883  0.8259
  334SOL     OW 1000   1.698   1.249   1.837  0.0079  0.1345 -0.1719
  334SOL    HW1 1001   1.779   1.194   1.803 -0.4638  1.1348 -0.9670
  334SOL    HW2 1002   1.719   1.320   1.908  0.6814  1.9929  0.7489
  335SOL     OW 1003   1.943   2.762   2.610 -0.2315  0.3155 -0.1282
  335SOL    HW1 1004   1.863   2.715   2.659  0.8154  1.0146  0.3371
  335SOL    HW2 1005   2.002   2.820   2.675 -0.6131 -0.0392 -2.4335
  336SOL     OW 1006   0.253   0.092   2.838  0.4943  0.2162 -0.5788
  336SOL    HW1 1007   0.328   0.050   2.894 -2.7122  1.2862 -1.1512
  336SOL    HW2 1008   0.254   0.193   2.845 -0.5197 -1.4068  0.8602
  337SOL     OW 1009   0.931   2.783   2.814  0.2577 -0.2520  0.1969
  337SOL    HW1 1010   0.896   2.758   2.907 -0.9005 -0.2806 -1.6079
  337SOL    HW2 1011   1.023   2.742   2.794  0.9341 -0.0788 -1.1365
  338SOL     OW 1012   0.028   1.026   0.659  0.4116  0.0450 -0.4556
  338SOL    HW1 1013  -0.071   0.987   0.680 -0.4818  1.2398 -0.2549
  338SOL    HW2 1014   0.042   1.126   0.686 -0.2695 -1.5939 -0.2334
  339SOL     OW 1015   1.717   1.357   2.086 -0.3247 -0.1946 -0.3065
  339SOL    HW1 1016   1.613   1.349   2.109 -0.8275 -0.0266  0.7059
  339SOL    HW2 1017   1.748   1.454   2.104 -0.1828  0.6796  1.1552
  340SOL     OW 1018   2.349   0.704   1.204 -0.5127  0.1887  0.0953
  340SOL    HW1 1019   2.259   0.747   1.182  2.0247 -1.2663  0.0083
  340SOL    HW2 1020   2.388   0.637   1.133  0.6015  1.6587 -1.1755
  341SOL     OW 1021   1.963   2.098   0.343 -0.1368 -0.4549  0.6389
  341SOL    HW1 1022   1.964   2.156   0.256  1.1412 -0.7791 -0.3235
  341SOL    HW2 1023   2.060   2.076   0.377 -1.7532 -0.3588 -0.7010
  342SOL     OW 1024   2.211   2.090   2.727  0.3976 -0.0779 -0.4750
  342SOL    HW1 1025   2.263   2.002   2.755  0.8275  2.3534  1.4343
  342SOL    HW2 1026   2.110   2.076   2.742  0.6954 -1.3192  1.2129
  343SOL     OW 1027   0.415   0.856   2.770  0.3075  0.5251  0.4275
  343SOL    HW1 1028   0.426   0.906   2.678 -1.3238 -0.5379 -0.9123
  343SOL    HW2 1029   0.489   0.783   2.791 -1.6567  3.0468  2.1859
  344SOL     OW 1030   1.956   1.388   0.399  0.1855 -0.0798 -0.6602
  344SOL    HW1 1031   1.928   1.322   0.326 -0.6199  1.0691 -0.8471
  344SOL    HW2 1032   1.875   1.445   0.427  0.7082 -2.1627 -2.7789
  345SOL     OW 1033   1.414   2.280   2.859  0.0829  0.5296  0.1980
  345SOL    HW1 1034   1.328   2.225   2.828 -0.8415 -0.2515 -1.1796
  345SOL    HW2 1035   1.502   2.225   2.837  0.4612 -0.9272 -0.6203
  346SOL     OW 1036   2.352   0.916   1.401  0.5176 -0.0031 -0.4796
  346SOL    HW1 1037   2.301   1.006   1.420 -2.4704  0.9567  0.7459
  346SOL    HW2 1038   2.323   0.880   1.308  0.0934  1.8660 -1.4582
  347SOL     OW 1039   0.718   2.782   1.451  0.1423 -0.0073 -0.0279
  347SOL    HW1 1040   0.693   2.720   1.529  0.1951  0.9457 -0.0923
  347SOL    HW2 1041   0.679   2.879   1.474  1.1829 -0.5644  0.5392
  348SOL     OW 1042   0.155   0.659   2.836  0.4862 -0.4389  0.5188
  348SOL    HW1 1043   0.056   0.680   2.812 -1.5646 -0.8048  0.3842
  348SOL    HW2 1044   0.223   0.733   2.790 -1.8672  3.0926  0.4083
  349SOL     OW 1045   1.824   0.413   2.805  0.3203  0.6239 -0.0918
  349SOL    HW1 1046   1.827   0.485   2.730  0.8690 -1.2027 -3.6854
  349SOL    HW2 1047   1.824   0.448   2.903  0.5198 -1.0278 -0.1812
  350SOL     OW 1048   1.550   0.445   0.375  0.5236 -0.8003 -0.1832
  350SOL    HW1 1049   1.617   0.466   0.453  3.2413  0.7339  0.1136
  350SOL    HW2 1050   1.522   0.535   0.333  2.1315  1.7539  0.9711
  351SOL     OW 1051   0.978   0.849   2.115  0.4996  0.2897  0.0361
  351SOL    HW1 1052   0.953   0.951   2.109  1.0158 -2.0694  0.6842
  351SOL    HW2 1053   1.017   0.801   2.031 -0.8877  0.7101 -1.3645
  352SOL     OW 1054   2.042   1.286   0.671  0.2744  0.3544 -0.7244
  352SOL    HW1 1055   2.037   1.335   0.583  0.5639 -1.1211  0.2234
  352SOL    HW2 1056   2.135   1.249   0.694  3.7565 -0.8756 -0.3429
  353SOL     OW 1057   2.190   2.894   1.080 -0.2910 -0.3414 -0.1318
  353SOL    HW1 1058   2.253   2.824   1.126  1.1355  3.5929 -0.8986
  353SOL    HW2 1059   2.097   2.850   1.073  1.7622 -1.4191  1.7820
  354SOL     OW 1060   0.235   1.391   2.845 -0.2230 -0.2778 -0.4211
  354SOL    HW1 1061   0.220   1.468   2.776  1.2245  1.1019  1.1186
  354SOL    HW2 1062   0.336   1.367   2.857  4.0400  3.0103  1.0031
  355SOL     OW 1063   0.496   1.490   0.497  0.2730 -0.6464  0.2379
  355SOL    HW1 1064   0.514   1.588   0.522 -2.3269 -0.2638  0.4579
  355SOL    HW2 1065   0.559   1.427   0.551 -0.7993 -0.5733  2.3654
  356SOL     OW 1066   0.914   0.259   2.079 -0.9559 -0.1637  0.1137
  356SOL    HW1 1067   1.018   0.262   2.065 -2.9524 -0.2987 -1.3905
  356SOL    HW2 1068   0.879   0.231   1.986 -1.1818 -1.9615 -2.0163
  357SOL     OW 1069   0.988   1.274   0.400 -0.0992 -0.6867 -0.1729
  357SOL    HW1 1070   0.976   1.238   0.303 -1.4767 -0.8013  0.5226
  357SOL    HW2 1071   0.998   1.189   0.459 -0.2049  0.0171  0.3137
  358SOL     OW 1072   1.709   1.506   0.467 -0.1321  0.2325  0.3623
  358SOL    HW1 1073   1.683   1.471   0.561 -0.9853  1.2611 -0.6363
  358SOL    HW2 1074   1.641   1.472   0.397 -0.2292 -0.5903  1.3530
  359SOL     OW 1075   1.586   2.746   0.087  0.2813 -0.4792  0.3670
  359SOL    HW1 1076   1.546   2.674   0.031 -0.4863  0.5520  2.7148
  359SOL    HW2 1077   1.548   2.844   0.071 -0.0904  2.0266  1.1103
  360SOL     OW 1078   0.869   0.609   0.566  0.8302 -0.2522 -0.0158
  360SOL    HW1 1079   0.794   0.621   0.641 -2.6622  0.1198 -0.6480
  360SOL    HW2 1080   0.895   0.507   0.550  0.4600 -0.7977  2.6508
  361SOL     OW 1081   1.196   1.372   0.710  0.2294 -0.0213  0.4855
  361SOL    HW1 1082   1.243   1.450   0.757 -1.9034 -1.5267 -2.3223
  361SOL    HW2 1083   1.097   1.388   0.690 -1.0372 -0.5741  3.0159
  362SOL     OW 1084   1.334   1.842   0.802  0.1175  0.7055  0.0694
  362SOL    HW1 1085   1.355   1.800   0.897  1.5073 -1.1424  1.4102
  362SOL    HW2 1086   1.421   1.854   0.748 -0.9620  2.2434  0.1506
  363SOL     OW 1087   1.214   1.295   2.014  0.2479  0.5567  0.2800
  363SOL    HW1 1088   1.287   1.289   2.088 -0.8375  1.6401  1.1473
  363SOL    HW2 1089   1.233   1.364   1.941 -0.2359 -0.0737 -0.7887
  364SOL     OW 1090   0.503   2.314   1.948 -0.4197 -0.3625  0.4862
  364SOL    HW1 1091   0.406   2.343   1.951 -0.7860 -1.3888 -1.1459
  364SOL    HW2 1092   0.554   2.359   1.867  1.0545  0.1231 -1.3087
  365SOL     OW 1093   1.021   1.857   1.423 -0.3389 -0.0141  0.5024
  365SOL    HW1 1094   0.924   1.896   1.433 -2.2886  0.4149 -0.8214
  365SOL    HW2 1095   1.032   1.787   1.346  0.7881 -1.3617  2.5789
  366SOL     OW 1096   2.766   2.065   0.479 -0.8062 -0.1743  0.1459
  366SOL    HW1 1097   2.673   2.021   0.473  1.6365  1.1903  0.3569
  366SOL    HW2 1098   2.830   2.010   0.415 -0.6546 -0.7066 -2.5857
  367SOL     OW 1099   0.906   1.135   0.182  0.4358 -0.3344  0.0987
  367SOL    HW1 1100   0.921   1.043   0.226  2.7654  0.9324  2.7977
  367SOL    HW2 1101   0.980   1.166   0.116 -0.2327  4.3205  0.0843
  368SOL     OW 1102   1.488   0.572   0.697 -0.5108  0.0497 -0.0892
  368SOL    HW1 1103   1.423   0.584   0.620  1.5830 -1.8283 -2.7090
  368SOL    HW2 1104   1.569   0.639   0.703  1.7612  0.1214 -1.0662
  369SOL     OW 1105   0.205   1.723   0.050 -0.4090 -0.3612 -0.1880
  369SOL    HW1 1106   0.232   1.800   0.113  0.2476  0.3479  0.2791
  369SOL    HW2 1107   0.120   1.674   0.082  0.7937  1.8211 -0.1441
  370SOL     OW 1108   0.446   2.081   1.041 -0.4363 -0.2562 -0.1412
  370SOL    HW1 1109   0.472   2.176   1.005  0.0610  0.2864 -2.5653
  370SOL    HW2 1110   0.354   2.050   1.008  2.0081 -0.8566 -0.7260
  371SOL     OW 1111   2.872   2.189   2.704  0.2428 -0.3624 -0.1297
  371SOL    HW1 1112   2.844   2.146   2.791  0.4389  2.1694 -1.6790
  371SOL    HW2 1113   2.967   2.235   2.717  0.0899 -1.6434 -1.0788
  372SOL     OW 1114   1.082   1.987   1.100  0.0120  0.3692  0.4111
  372SOL    HW1 1115   1.011   2.046   1.060  2.6741  1.6654 -3.1746
  372SOL    HW2 1116   1.175   2.029   1.102  1.3565  0.4994  2.3330
  373SOL     OW 1117   1.986   2.025   0.867  0.3813  0.8613 -0.6685
  373SOL    HW1 1118   2.061   2.022   0.939 -0.1396 -0.2329 -1.9851
  373SOL    HW2 1119   1.893   2.037   0.913  2.1775 -0.5949 -0.6220
  374SOL     OW 1120   1.767   0.473   0.574 -0.6167  0.0226  0.4595
  374SOL    HW1 1121   1.804   0.433   0.662 -0.1646 -1.9530 -1.7500
  374SOL    HW2 1122   1.844   0.500   0.497  0.8181 -0.0931 -1.0929
  375SOL     OW 1123   2.389   2.177   1.116  0.4164  0.0409 -0.0354
  375SOL    HW1 1124   2.463   2.169   1.042 -1.5781 -0.5414 -2.7106
  375SOL    HW2 1125   2.422   2.163   1.214 -1.4552 -1.2809 -1.9158
  376SOL     OW 1126   3.017   0.589   1.439  0.3582  0.1770  0.5218
  376SOL    HW1 1127   3.059   0.671   1.488 -1.1597  1.1720  1.6588
  376SOL    HW2 1128   2.921   0.563   1.468 -0.8064 -2.4260 -2.1693
  377SOL     OW 1129   2.243   2.865   0.343  0.7918  0.6650  0.1754
  377SOL    HW1 1130   2.244   2.968   0.334 -0.5885  1.1742 -0.3496
  377SOL    HW2 1131   2.326   2.826   0.397 -0.0461 -1.8427  1.6719
  378SOL     OW 1132   1.816   1.796   2.679  0.4896  0.3812 -0.1995
  378SOL    HW1 1133   1.745   1.765   2.605  2.3940 -1.0745 -1.1607
  378SOL    HW2 1134   1.859   1.712   2.731  1.4838 -1.5490  0.1531
  379SOL     OW 1135   0.885   0.129   2.738 -0.1509 -0.2495  0.5371
  379SOL    HW1 1136   0.844   0.045   2.699  1.4444  1.4901  2.3604
  379SOL    HW2 1137   0.890   0.209   2.675 -2.5261  0.0873 -1.4432
  380SOL     OW 1138   1.504   1.178   0.554  0.1128  0.4831  0.5176
  380SOL    HW1 1139   1.398   1.168   0.582 -0.7632 -1.8331 -1.3140
  380SOL    HW2 1140   1.552   1.086   0.574  2.4483 -0.5077 -0.5699
  381SOL     OW 1141   1.336   1.142   1.484  0.1843  0.2801 -1.1664
  381SOL    HW1 1142   1.384   1.213   1.428  0.5128  0.9260 -1.0223
  381SOL    HW2 1143   1.370   1.136   1.584  0.5197 -0.8185  0.6686
  382SOL     OW 1144   1.813   0.838   0.204 -0.0803  0.4758 -0.2980
  382SOL    HW1 1145   1.855   0.814   0.116 -0.5835 -0.1945  0.3079
  382SOL    HW2 1146   1.852   0.784   0.282 -0.3416  2.2695  2.7288
  383SOL     OW 1147   2.626   1.016   1.493  0.7808  0.8519  0.1844
  383SOL    HW1 1148   2.580   0.978   1.404 -0.4205  0.3936 -1.8675
  383SOL    HW2 1149   2.726   1.006   1.494 -0.4504 -0.5999 -0.4668
  384SOL     OW 1150   0.924   2.268   0.125  0.3285  0.4489  0.5987
  384SOL    HW1 1151   0.875   2.353   0.155  1.0100 -0.9033 -2.1268
  384SOL    HW2 1152   0.880   2.177   0.158 -0.6841 -1.5266 -0.5037
  385SOL     OW 1153   2.996   2.018   1.770  0.5329  0.4907 -0.4664
  385SOL    HW1 1154   3.068   2.080   1.730 -1.2951  0.4613 -1.5101
  385SOL    HW2 1155   3.021   1.920   1.737 -0.8474 -0.4931  0.1275
  386SOL     OW 1156   0.456   1.142   0.467 -0.0992  0.0046 -0.4572
  386SOL    HW1 1157   0.439   1.036   0.485 -0.8546 -0.3089 -1.3053
  386SOL    HW2 1158   0.419   1.175   0.377  3.1753  2.9291 -0.3704
  387SOL     OW 1159   0.998   0.355   1.678 -0.0520 -0.1487 -0.4979
  387SOL    HW1 1160   1.061   0.440   1.685  1.4092  2.4491  0.7942
  387SOL    HW2 1161   0.954   0.343   1.583  0.2142 -0.2511  1.0617
  388SOL     OW 1162   1.222   2.631   1.786 -0.0055  0.2721 -0.2754
  388SOL    HW1 1163   1.240   2.614   1.685 -2.1081  1.7839 -2.1491
  388SOL    HW2 1164   1.284   2.587   1.858 -2.6262  1.0740 -0.8557
  389SOL     OW 1165   0.197   3.068   1.133  0.2348 -0.3583 -0.1554
  389SOL    HW1 1166   0.119   3.081   1.194 -0.3309 -2.5456 -1.3743
  389SOL    HW2 1167   0.232   2.970   1.135 -3.2238 -1.6968 -3.5283
  390SOL     OW 1168   1.049   0.925   1.225 -0.0754  0.5506  0.4755
  390SOL    HW1 1169   1.138   0.899   1.271  0.3185 -0.7031  0.1836
  390SOL    HW2 1170   0.984   0.988   1.275 -0.7579 -2.2579 -0.2523
  391SOL     OW 1171   2.031   1.167   1.007  0.2072 -0.4153 -0.4195
  391SOL    HW1 1172   1.955   1.122   1.056 -1.5044  2.2996  1.4972
  391SOL    HW2 1173   2.093   1.100   0.952  1.2416  1.9550 -0.3309
  392SOL     OW 1174   0.920   2.649   3.045 -0.6736 -0.1918  0.7649
  392SOL    HW1 1175   0.868   2.598   3.119  1.7265  0.3856 -0.4860
  392SOL    HW2 1176   1.005   2.695   3.080 -3.5954  1.3676  0.5783
  393SOL     OW 1177   0.415   0.489   2.095  0.5560  0.0468 -0.5024
  393SOL    HW1 1178   0.322   0.459   2.064  1.2180 -1.6441  0.8587
  393SOL    HW2 1179   0.493   0.497   2.026  2.9924  0.7561  1.6273
  394SOL     OW 1180   2.968   1.819   2.779  0.6764 -0.7280 -0.3608
  394SOL    HW1 1181   3.065   1.812   2.808  0.6831  1.8841 -2.4201
  394SOL    HW2 1182   2.963   1.844   2.676  0.1229  2.9308 -0.9293
  395SOL     OW 1183   1.577   1.907   0.680 -0.2990  0.4590 -0.0759
  395SOL    HW1 1184   1.661   1.870   0.628 -0.5670 -1.7322 -2.1993
  395SOL    HW2 1185   1.612   1.980   0.747 -0.8576  1.1053  0.8695
  396SOL     OW 1186   2.764   1.999   1.343  0.3824 -0.7710  0.2016
  396SOL    HW1 1187   2.789   2.014   1.443  0.1949 -0.2513 -0.4784
  396SOL    HW2 1188   2.661   1.988   1.325 -0.2756 -0.4836  0.7140
  397SOL     OW 1189   1.024   2.099   0.632  0.0457 -0.1467 -0.2238
  397SOL    HW1 1190   0.948   2.092   0.566  1.1636 -0.0715  1.5535
  397SOL    HW2 1191   0.994   2.165   0.709 -0.2279  0.6835  0.1506
  398SOL     OW 1192   2.250   0.061   1.031 -0.2340 -0.0202 -0.2792
  398SOL    HW1 1193   2.223  -0.044   1.045  0.3637 -2.9572  0.3789
  398SOL    HW2 1194   2.175   0.125   1.058  0.9743 -1.1646 -1.5874
  399SOL     OW 1195   2.860   2.578   2.736 -0.3914 -0.3111  0.5012
  399SOL    HW1 1196   2.831   2.523   2.651  1.0893  2.6929  2.1711
  399SOL    HW2 1197   2.853   2.524   2.823  1.0343 -0.8719  0.4130
  400SOL     OW 1198   0.770   1.598   1.264 -0.6841 -0.1578  0.1034
  400SOL    HW1 1199   0.730   1.631   1.352 -0.2431 -2.2304  1.4646
  400SOL    HW2 1200   0.779   1.672   1.188  1.2073  0.7679 -1.3760
  401SOL     OW 1201   1.835   0.163   1.293  0.6001  0.4379  0.4421
  401SOL    HW1 1202   1.899   0.191   1.373  1.0823 -0.1219 -0.7338
  401SOL    HW2 1203   1.741   0.209   1.291 -2.8690 -0.4111  0.0156
  402SOL     OW 1204   1.341   0.167   3.073 -0.0335 -0.2616  0.1260
  402SOL    HW1 1205   1.430   0.158   3.019 -0.1924  0.6370  3.5396
  402SOL    HW2 1206   1.308   0.262   3.083 -0.7005 -1.4447  0.4084
  403SOL     OW 1207   2.301   1.849   0.913 -0.2261 -0.1126 -0.0029
  403SOL    HW1 1208   2.389   1.817   0.955  2.1796  2.7339  1.0773
  403SOL    HW2 1209   2.246   1.913   0.978  1.1417  2.7099 -1.6027
  404SOL     OW 1210   0.181   2.497   2.861  0.2436 -0.2747  0.4212
  404SOL    HW1 1211   0.275   2.468   2.826  3.3770 -1.9061 -1.8876
  404SOL    HW2 1212   0.180   2.600   2.873  1.6107  0.5856  0.1784
  405SOL     OW 1213   0.248   2.511   0.568  0.0333 -0.0489  0.5273
  405SOL    HW1 1214   0.182   2.529   0.491 -0.0709 -1.2879 -0.2840
  405SOL    HW2 1215   0.302   2.596   0.584 -0.4768 -1.3849  1.5599
  406SOL     OW 1216   0.018   1.503   3.013  0.3342 -0.3644  0.3655
  406SOL    HW1 1217   0.104   1.455   2.983  2.1168  1.2991  1.7873
  406SOL    HW2 1218  -0.001   1.489   3.110  0.5368 -0.1823 -4.5429
  407SOL     OW 1219   1.535   0.923   0.896  0.3360  0.0553 -0.2176
  407SOL    HW1 1220   1.587   0.964   0.816  2.1838  0.0818 -1.2161
  407SOL    HW2 1221   1.491   1.002   0.950  0.8501 -0.7912 -0.3868
  408SOL     OW 1222   1.584   2.412   0.993  0.3480 -0.5139  0.2282
  408SOL    HW1 1223   1.650   2.397   0.919 -1.7853  0.4595  2.9183
  408SOL    HW2 1224   1.601   2.508   1.041  0.6754  2.8014 -0.1930
  409SOL     OW 1225   0.567   0.828   0.763 -0.6902 -0.6139  0.2229
  409SOL    HW1 1226   0.532   0.850   0.670 -0.3685  0.3974  1.9447
  409SOL    HW2 1227   0.603   0.725   0.768 -0.6944 -1.2096 -0.4584
  410SOL     OW 1228   1.253   2.000   1.446 -0.1515  0.0653 -0.5985
  410SOL    HW1 1229   1.275   2.029   1.545  0.2135 -2.1254 -0.0091
  410SOL    HW2 1230   1.163   1.959   1.453 -1.1157  0.9943  0.9232
  411SOL     OW 1231   2.428   1.783   3.060  0.0789  0.1560 -0.3919
  411SOL    HW1 1232   2.393   1.869   3.009  0.8181  3.6896  1.3983
  411SOL    HW2 1233   2.529   1.759   3.040  2.6410  0.4646  2.0475
  412SOL     OW 1234   1.461   2.470   2.221 -0.6568 -0.0071 -0.1960
  412SOL    HW1 1235   1.519   2.543   2.269  0.6063  2.7820  1.0431
  412SOL    HW2 1236   1.365   2.448   2.264  0.6470 -1.9883  1.7358
  413SOL     OW 1237   3.083   0.282   2.960  0.5993  0.2615 -0.2512
  413SOL    HW1 1238   3.042   0.186   2.972 -1.1632 -0.6576 -1.4130
  413SOL    HW2 1239   3.167   0.307   3.012 -1.1842 -0.5767 -1.4603
  414SOL     OW 1240   1.783   1.439   1.392  0.3939  0.9510  0.0005
  414SOL    HW1 1241   1.719   1.487   1.460 -0.8210  0.5368 -0.1988
  414SOL    HW2 1242   1.736   1.416   1.303 -1.6282  0.5536 -0.3685
  415SOL     OW 1243   0.370   2.282   0.616 -0.5814  0.6795  0.0884
  415SOL    HW1 1244   0.329   2.378   0.611 -1.6805  0.1837  3.4961
  415SOL    HW2 1245   0.306   2.200   0.597 -2.4047 -1.2349 -1.1656
  416SOL     OW 1246   0.371   1.053   1.045 -0.6518 -0.3192  0.4151
  416SOL    HW1 1247   0.339   1.016   0.949 -0.6479 -2.4790 -0.5735
  416SOL    HW2 1248   0.461   1.100   1.052  0.3618  0.2248  1.9513
  417SOL     OW 1249   2.115   2.364   1.891 -0.1710  0.2330 -0.0453
  417SOL    HW1 1250   2.149   2.265   1.899  2.0402 -0.2329 -1.2202
  417SOL    HW2 1251   2.046   2.392   1.971 -0.6268  1.0638  0.4817
  418SOL     OW 1252   1.112   0.501   1.274 -0.3064  0.1139 -0.3749
  418SOL    HW1 1253   1.009   0.504   1.255  1.2478 -1.6376 -1.2301
  418SOL    HW2 1254   1.153   0.409   1.239  0.2901 -2.5676 -2.4525
  419SOL     OW 1255   1.054   0.349   3.038 -0.0296 -0.7739 -0.1825
  419SOL    HW1 1256   1.048   0.393   2.945 -0.8414 -2.8288  0.2087
  419SOL    HW2 1257   0.988   0.276   3.058  2.4601 -1.0193 -1.0376
  420SOL     OW 1258   0.204   2.255   0.338 -0.2769  0.0202  0.3885
  420SOL    HW1 1259   0.169   2.172   0.284  0.8745  0.4426 -0.1691
  420SOL    HW2 1260   0.146   2.288   0.415  0.9482  0.0781  1.5933
  421SOL     OW 1261   0.313   3.093   0.703  0.0536 -0.0108 -0.4383
  421SOL    HW1 1262   0.281   3.000   0.676 -1.0459  1.3613  2.4294
  421SOL    HW2 1263   0.417   3.099   0.691 -2.1844 -0.6279  1.1942
  422SOL     OW 1264   0.972   2.512   1.037  0.3298 -0.0117 -0.4754
  422SOL    HW1 1265   1.013   2.566   0.960  1.9363  1.2987  3.6506
  422SOL    HW2 1266   1.009   2.553   1.124 -1.7231  2.6786 -0.9453
  423SOL     OW 1267   0.049   0.655   1.215  0.0407  0.2356  0.5656
  423SOL    HW1 1268  -0.024   0.639   1.284  0.5382  1.4469 -1.0521
  423SOL    HW2 1269   0.051   0.760   1.194  0.6870  1.7305  1.8687
  424SOL     OW 1270   0.979   2.218   2.067  0.3892  0.2351  0.1317
  424SOL    HW1 1271   0.992   2.320   2.044 -1.1397  2.5020  0.8180
  424SOL    HW2 1272   0.969   2.203   2.172 -2.1142 -0.2826 -0.8394
  425SOL     OW 1273   1.971   1.448   1.008 -0.1575  0.0662 -0.1716
  425SOL    HW1 1274   1.995   1.348   0.986  1.0729 -1.8591  1.3507
  425SOL    HW2 1275   2.042   1.511   0.965 -1.5834  3.3827  2.0889
  426SOL     OW 1276   1.512   1.565   1.439  0.2910 -0.2717 -0.2083
  426SOL    HW1 1277   1.447   1.633   1.388  0.4239 -0.8686 -0.4920
  426SOL    HW2 1278   1.484   1.535   1.535 -1.0299  2.2509  1.8257
  427SOL     OW 1279   1.935   2.409   2.084  0.5251 -0.2873 -0.2812
  427SOL    HW1 1280   1.958   2.360   2.169  1.3404 -1.1035 -0.6222
  427SOL    HW2 1281   1.904   2.507   2.095  0.7287  0.8938 -0.1048
  428SOL     OW 1282   0.860   2.934   0.142 -0.2808 -0.6856 -0.0656
  428SOL    HW1 1283   0.899   3.031   0.161  2.5506  2.0468  0.1948
  428SOL    HW2 1284   0.933   2.866   0.105  0.3683 -0.9972  0.0590
  429SOL     OW 1285   1.291   0.067   0.232  0.2500 -0.1633  0.2456
  429SOL    HW1 1286   1.343   0.124   0.298 -0.9749 -1.4637 -0.8447
  429SOL    HW2 1287   1.297   0.104   0.133 -0.5939 -0.2332 -0.8274
  430SOL     OW 1288   2.782   1.542   0.342 -1.3083 -0.1019  0.4223
  430SOL    HW1 1289   2.795   1.613   0.271 -0.7511 -2.0950 -0.4871
  430SOL    HW2 1290   2.764   1.585   0.437  0.5956  3.0826  1.1366
  431SOL     OW 1291   2.125   1.631   0.889 -0.0624  0.2147 -0.0967
  431SOL    HW1 1292   2.212   1.690   0.894  1.1200 -1.8941 -1.8557
  431SOL    HW2 1293   2.040   1.690   0.876 -1.2598 -0.6667  2.0751
  432SOL     OW 1294   2.916   2.249   1.243 -0.1266  0.7024  0.3008
  432SOL    HW1 1295   2.879   2.155   1.262  3.1573  4.6398  0.2465
  432SOL    HW2 1296   2.936   2.296   1.336 -3.6295 -2.4461  1.2561
  433SOL     OW 1297   1.872   0.370   0.801 -0.4456  0.6634  0.4180
  433SOL    HW1 1298   1.814   0.369   0.888  1.2252  1.3343 -0.3060
  433SOL    HW2 1299   1.914   0.275   0.785  0.4276  0.1365 -0.8477
  434SOL     OW 1300   1.549   0.281   0.748 -0.1544 -0.5879 -0.3388
  434SOL    HW1 1301   1.509   0.370   0.705  1.6682 -1.5387  0.0819
  434SOL    HW2 1302   1.590   0.299   0.841 -2.1326 -0.7899  2.4985
  435SOL     OW 1303   1.445   1.383   2.151  0.2284  0.1882 -0.2427
  435SOL    HW1 1304   1.383   1.394   2.236 -2.2875  1.9251  1.3171
  435SOL    HW2 1305   1.472   1.473   2.104 -0.8532  0.1438 -0.7530
  436SOL     OW 1306   1.612   2.664   2.415  0.1645  0.6594 -0.0525
  436SOL    HW1 1307   1.603   2.758   2.456  0.4008  0.4096 -2.1829
  436SOL    HW2 1308   1.707   2.627   2.417  2.2710 -0.3063 -0.6415
  437SOL     OW 1309   1.085   2.904   0.881  0.7103 -0.5191 -0.5488
  437SOL    HW1 1310   1.031   2.976   0.828 -1.1922  0.7682  1.5555
  437SOL    HW2 1311   1.059   2.902   0.979 -2.0858 -1.2563 -2.4887
  438SOL     OW 1312   1.034   2.603   1.292 -0.3246 -0.0458  0.7273
  438SOL    HW1 1313   1.074   2.653   1.373  3.0665  2.8631  0.1497
  438SOL    HW2 1314   1.003   2.511   1.312 -2.1014  1.5495  1.2135
  439SOL     OW 1315   0.749   1.783   1.061 -0.4781 -0.2274  0.6027
  439SOL    HW1 1316   0.751   1.884   1.042  1.2486 -1.0191  0.2373
  439SOL    HW2 1317   0.654   1.739   1.062  1.3080  0.9644  0.6871
  440SOL     OW 1318   1.034   2.472   1.971 -0.0845 -0.4925 -0.1981
  440SOL    HW1 1319   0.998   2.534   1.895 -1.5275  1.1264 -0.0972
  440SOL    HW2 1320   1.137   2.465   1.971 -0.7318  0.8573 -0.6754
  441SOL     OW 1321   0.417   2.783   1.375  0.5265  0.4498  0.2904
  441SOL    HW1 1322   0.476   2.701   1.346 -0.7544 -0.1733 -4.1184
  441SOL    HW2 1323   0.388   2.831   1.287  1.4911 -0.7258  3.1518
  442SOL     OW 1324   2.256   0.672   2.605  0.6792 -0.1096  0.2840
  442SOL    HW1 1325   2.238   0.575   2.573  0.0763 -1.0147  1.6988
  442SOL    HW2 1326   2.175   0.733   2.603 -0.2894 -1.7676  0.6584
  443SOL     OW 1327   1.232   2.667   2.199 -0.2204  0.3359  0.0526
  443SOL    HW1 1328   1.196   2.572   2.214 -1.0078  1.3675 -1.6943
  443SOL    HW2 1329   1.199   2.733   2.274 -1.4145  0.6663  4.9764
  444SOL     OW 1330   1.060   1.231   1.505  0.6663  0.1268 -0.0051
  444SOL    HW1 1331   1.150   1.214   1.457 -2.5500  2.3934  1.3983
  444SOL    HW2 1332   1.045   1.330   1.526  1.3142 -0.4606 -1.7319
  445SOL     OW 1333   3.073   2.405   1.899 -0.3968  0.2356 -0.6841
  445SOL    HW1 1334   3.019   2.413   1.815  1.1137  2.4696  0.1795
  445SOL    HW2 1335   3.019   2.365   1.982 -0.3928 -1.0709 -0.1633
  446SOL     OW 1336   0.193   1.919   2.387  0.1407 -0.6024  0.1826
  446SOL    HW1 1337   0.143   2.011   2.366  0.2136 -2.9381  2.3421
  446SOL    HW2 1338   0.181   1.854   2.309 -0.6656  1.2928  1.1209
  447SOL     OW 1339   1.244   1.663   1.929 -0.0168 -0.0174  0.3083
  447SOL    HW1 1340   1.145   1.700   1.943  0.1061 -0.0385  1.0863
  447SOL    HW2 1341   1.310   1.722   1.987  1.4247  0.5470 -1.0465
  448SOL     OW 1342   0.124   1.397   2.028 -0.6504  0.1274  0.0126
  448SOL    HW1 1343   0.146   1.490   1.992  0.1086 -1.6782  2.5177
  448SOL    HW2 1344   0.070   1.404   2.120 -0.0711  1.0965  1.2602
  449SOL     OW 1345   1.763   2.974   0.872 -0.6892 -0.3648  0.6016
  449SOL    HW1 1346   1.754   2.984   0.975 -0.6796 -0.7638 -1.5444
  449SOL    HW2 1347   1.833   2.904   0.845 -0.2437 -0.4201 -0.7323
  450SOL     OW 1348   2.297   1.474   0.744  0.1961  0.4886  0.1748
  450SOL    HW1 1349   2.229   1.512   0.811 -0.5543 -0.9609 -0.9008
  450SOL    HW2 1350   2.271   1.514   0.646 -4.3254  0.0995 -0.1559
  451SOL     OW 1351   1.394   3.069   1.476 -0.6328  0.3669 -0.0943
  451SOL    HW1 1352   1.297   3.116   1.476 -4.4327  1.7715  0.1368
  451SOL    HW2 1353   1.411   2.998   1.549  1.8868  0.3575 -2.9979
  452SOL     OW 1354   2.671   2.294   2.239  0.0355  0.0191  0.3556
  452SOL    HW1 1355   2.614   2.376   2.264  0.2315  2.0430 -0.9896
  452SOL    HW2 1356   2.715   2.250   2.323 -1.0875 -0.0730 -1.6955
  453SOL     OW 1357   2.455   2.651   3.093  0.2739  0.2177 -0.0626
  453SOL    HW1 1358   2.364   2.701   3.119 -2.9425  0.2606 -3.8568
  453SOL    HW2 1359   2.456   2.615   2.997  1.6138  1.5476  1.4008
  454SOL     OW 1360   0.954   1.111   2.066 -0.1902  0.3617  0.1143
  454SOL    HW1 1361   0.955   1.084   1.964 -3.3235 -1.5946  0.7774
  454SOL    HW2 1362   1.027   1.185   2.083 -1.2221  1.8203 -1.3142
  455SOL     OW 1363   0.651   2.695   2.782 -0.1992 -0.0207  0.2768
  455SOL    HW1 1364   0.743   2.736   2.763 -4.6607 -2.1337  1.4454
  455SOL    HW2 1365   0.658   2.626   2.857  2.1484  0.5917 -1.5081
  456SOL     OW 1366   0.391   1.901   0.220 -0.5213 -0.2746  0.0445
  456SOL    HW1 1367   0.469   1.849   0.270  1.0176 -0.0684  0.8982
  456SOL    HW2 1368   0.420   1.992   0.175 -1.6687  0.4425  0.0860
  457SOL     OW 1369   0.396   2.735   0.596 -0.3182 -0.7770  0.1079
  457SOL    HW1 1370   0.401   2.771   0.499  1.2351  0.7010  2.1104
  457SOL    HW2 1371   0.482   2.747   0.644 -0.8813 -0.7025  0.8840
  458SOL     OW 1372   2.819   0.034   1.149  0.4840  0.2590 -0.0465
  458SOL    HW1 1373   2.887   0.114   1.146  2.1411  0.3891 -0.0440
  458SOL    HW2 1374   2.861  -0.054   1.113  1.1587  2.9299  0.9267
  459SOL     OW 1375   2.157   2.594   0.792 -0.8708  0.6548 -0.3034
  459SOL    HW1 1376   2.243   2.652   0.821 -0.7726  1.9842 -1.0395
  459SOL    HW2 1377   2.182   2.495   0.770 -0.1740  2.1695 -0.2058
  460SOL     OW 1378   1.188   2.116   2.789 -0.0476  0.5407  0.4227
  460SOL    HW1 1379   1.213   2.120   2.684  2.9503  2.5749  0.4813
  460SOL    HW2 1380   1.216   2.021   2.823  0.0414  0.9528  2.1400
  461SOL     OW 1381   0.503   2.158   2.690 -0.0955  0.0307 -0.3361
  461SOL    HW1 1382   0.445   2.091   2.638  1.0793  1.0383 -3.6580
  461SOL    HW2 1383   0.532   2.115   2.782  1.3965 -0.7734  0.3500
  462SOL     OW 1384   0.997   1.087   1.780 -0.4393  0.2641  0.6680
  462SOL    HW1 1385   1.076   1.079   1.714 -1.1422  0.0013 -0.1887
  462SOL    HW2 1386   0.921   1.148   1.740 -3.3909 -1.2875  3.7509
  463SOL     OW 1387   0.463   0.862   0.491 -0.1148 -0.1114  0.2678
  463SOL    HW1 1388   0.498   0.771   0.461  0.3592  1.3329  0.2199
  463SOL    HW2 1389   0.358   0.860   0.510  0.9196 -0.9446 -1.6746
  464SOL     OW 1390   0.567   2.310   2.223  0.0757 -0.7326  0.2430
  464SOL    HW1 1391   0.498   2.364   2.284 -0.3462  0.1530  0.5066
  464SOL    HW2 1392   0.552   2.322   2.118  0.9827  1.4751  0.7734
  465SOL     OW 1393   0.250   0.924   0.817 -0.7649 -0.1478 -0.2498
  465SOL    HW1 1394   0.156   0.931   0.765 -0.0135  0.6911 -1.4185
  465SOL    HW2 1395   0.277   0.825   0.837 -0.6780  2.6194 -1.9302
  466SOL     OW 1396   1.408   1.147   1.039 -0.5724 -0.0360 -0.6895
  466SOL    HW1 1397   1.421   1.251   1.039  2.3179 -0.9859 -1.8443
  466SOL    HW2 1398   1.308   1.119   1.037  0.3719 -1.0625  1.8549
  467SOL     OW 1399   0.620   0.421   2.455  0.2763  0.2084  0.0985
  467SOL    HW1 1400   0.568   0.511   2.448  0.0478 -0.5358 -0.7218
  467SOL    HW2 1401   0.608   0.376   2.548 -0.7935  2.2746 -3.1951
  468SOL     OW 1402   0.430   2.252   1.637  0.0161  0.0389  0.5231
  468SOL    HW1 1403   0.513   2.318   1.647 -0.1983 -1.4359 -1.7823
  468SOL    HW2 1404   0.401   2.233   1.538  2.4275 -2.9587 -0.6415
  469SOL     OW 1405   1.473   1.338   1.293 -0.0144  0.3776 -0.6601
  469SOL    HW1 1406   1.562   1.318   1.234  1.4574  2.1882  1.9179
  469SOL    HW2 1407   1.472   1.432   1.335  1.2398  1.2019  2.2502
  470SOL     OW 1408   3.009   1.884   0.729 -0.0662  0.2362  0.2496
  470SOL    HW1 1409   3.092   1.913   0.679 -3.1981  0.8132  1.2690
  470SOL    HW2 1410   3.031   1.838   0.815  2.0186  1.1455  1.2805
  471SOL     OW 1411   2.584   1.344   2.163 -0.0643 -0.0816 -0.0618
  471SOL    HW1 1412   2.533   1.299   2.240 -0.6287  3.4549  1.6578
  471SOL    HW2 1413   2.675   1.390   2.196  1.5374  0.9510  0.3454
  472SOL     OW 1414   1.171   2.380   0.026  0.0675  0.1829 -0.1729
  472SOL    HW1 1415   1.246   2.393   0.100 -0.5603 -2.7664  2.3281
  472SOL    HW2 1416   1.079   2.359   0.068 -1.1356  0.7396 -0.7448
  473SOL     OW 1417   1.048   1.471   1.060  0.2557  0.4565  0.5117
  473SOL    HW1 1418   0.963   1.514   1.011  1.5732 -0.1404 -1.0958
  473SOL    HW2 1419   1.033   1.371   1.080  0.5395 -1.9059 -2.0905
  474SOL     OW 1420   0.646   1.290   0.608 -0.2149  0.2728 -0.1029
  474SOL    HW1 1421   0.558   1.241   0.574 -1.0254  1.9266 -0.1137
  474SOL    HW2 1422   0.730   1.228   0.609  0.5130 -1.0342  1.7388
  475SOL     OW 1423   2.829   0.031   0.841 -0.3787 -0.2108  0.0358
  475SOL    HW1 1424   2.888   0.119   0.851  0.1955  0.5992 -1.6397
  475SOL    HW2 1425   2.743   0.040   0.904 -1.8226 -2.7073  1.5725
  476SOL     OW 1426   0.999   2.976   1.764 -0.6507  0.3400  0.2222
  476SOL    HW1 1427   1.098   3.009   1.776  0.5800 -0.9620  0.0904
  476SOL    HW2 1428   0.977   2.952   1.666 -1.7663  2.2435  2.0066
  477SOL     OW 1429   1.473   0.321   2.425  0.1393 -0.0897 -0.3161
  477SOL    HW1 1430   1.457   0.345   2.527  0.7850  1.2850 -1.2691
  477SOL    HW2 1431   1.553   0.255   2.415 -0.3310 -1.8274  1.5745
  478SOL     OW 1432   2.218   1.833   0.209  0.0372 -0.5087 -0.4678
  478SOL    HW1 1433   2.145   1.774   0.258 -3.3567 -0.1133  1.9521
  478SOL    HW2 1434   2.285   1.786   0.148 -0.5064  0.8360  2.0701
  479SOL     OW 1435   1.250   0.958   2.862  0.2149  0.3748 -0.7648
  479SOL    HW1 1436   1.332   0.957   2.802 -2.1058  0.5701 -1.6319
  479SOL    HW2 1437   1.196   0.871   2.859 -0.5233  0.1881 -1.6066
  480SOL     OW 1438   2.626   2.353   0.383 -0.1019  0.3067 -0.3086
  480SOL    HW1 1439   2.611   2.275   0.447  1.0667 -1.0327 -2.1577
  480SOL    HW2 1440   2.536   2.390   0.348 -1.1982  1.6334  1.9518
  481SOL     OW 1441   0.927   1.177   0.864 -0.2462  0.3866  0.4146
  481SOL    HW1 1442   0.923   1.258   0.802  1.6491  2.2814 -0.0791
  481SOL    HW2 1443   1.009   1.179   0.930  0.1670 -0.1653  0.4434
  482SOL     OW 1444   1.563   0.298   1.986  0.4130 -0.6125  0.0441
  482SOL    HW1 1445   1.526   0.394   1.977  1.0659  2.1442  0.9922
  482SOL    HW2 1446   1.650   0.293   2.048 -0.7887  0.9184  0.4020
  483SOL     OW 1447   0.150   2.281   1.211  0.1024  0.1125  0.0518
  483SOL    HW1 1448   0.063   2.327   1.235  0.7027 -2.3945 -1.4292
  483SOL    HW2 1449   0.198   2.335   1.135  0.6928 -1.9528  2.4736
  484SOL     OW 1450   1.764   1.130   1.361 -0.1465 -0.0948  0.0710
  484SOL    HW1 1451   1.829   1.062   1.405 -1.9972 -0.4496  0.2362
  484SOL    HW2 1452   1.769   1.223   1.410 -0.1284  2.3726  0.3723
  485SOL     OW 1453   0.744   0.831   1.767 -0.1052  0.5723 -0.3933
  485SOL    HW1 1454   0.699   0.878   1.682  0.4338  1.0933  1.1342
  485SOL    HW2 1455   0.842   0.811   1.754 -1.2998  1.8559  0.9538
  486SOL     OW 1456   0.821   1.848   2.482 -0.1026 -0.5659  0.4093
  486SOL    HW1 1457   0.867   1.827   2.577 -1.4861  2.6156  0.1965
  486SOL    HW2 1458   0.747   1.920   2.494 -1.3813  1.4456 -2.0548
  487SOL     OW 1459   1.761   1.623   0.943 -0.4638  1.0750  0.1976
  487SOL    HW1 1460   1.816   1.535   0.973  1.3272 -0.3547  0.4369
  487SOL    HW2 1461   1.808   1.668   0.866 -1.3191  0.1243  1.3950
  488SOL     OW 1462   2.939   0.880   2.271 -0.1256 -0.5040 -1.1261
  488SOL    HW1 1463   2.944   0.781   2.239  0.0273 -0.2386 -0.3573
  488SOL    HW2 1464   2.956   0.885   2.374 -2.5265  1.7876 -1.2492
  489SOL     OW 1465   2.852   0.348   1.270 -0.0647 -0.5462  0.2157
  489SOL    HW1 1466   2.849   0.351   1.374  1.6289  0.1833  1.5266
  489SOL    HW2 1467   2.943   0.308   1.234  0.7549  1.9707 -2.1396
  490SOL     OW 1468   1.414   2.958   2.824  0.1822  0.0704 -0.0509
  490SOL    HW1 1469   1.436   2.856   2.829 -1.2718 -1.7213 -0.8560
  490SOL    HW2 1470   1.403   2.978   2.724 -0.3856  0.3591 -0.0081
  491SOL     OW 1471   1.689   1.522   2.645 -0.5881 -0.1591 -0.2829
  491SOL    HW1 1472   1.632   1.493   2.732 -1.9651 -3.2576  3.2966
  491SOL    HW2 1473   1.789   1.547   2.673  1.9612  0.1624  0.9919
  492SOL     OW 1474   0.546   2.096   0.604 -0.2376 -0.1920  0.4491
  492SOL    HW1 1475   0.584   2.060   0.697  1.5331 -1.3052 -0.0609
  492SOL    HW2 1476   0.483   2.175   0.611  2.0261 -1.6566  1.7729
  493SOL     OW 1477   0.439   1.398   2.077 -0.0556 -0.4405 -0.2925
  493SOL    HW1 1478   0.349   1.434   2.035 -1.8808  2.3316 -1.1883
  493SOL    HW2 1479   0.440   1.294   2.097 -0.3883  0.2965 -1.3958
  494SOL     OW 1480   2.715   2.637   0.084 -0.2559  0.7813 -0.5956
  494SOL    HW1 1481   2.733   2.608   0.184  1.5002 -0.2260 -2.8240
  494SOL    HW2 1482   2.614   2.628   0.058  0.7813  0.8215 -1.9195
  495SOL     OW 1483   2.569   2.735   2.644  0.3319 -0.1783  0.2808
  495SOL    HW1 1484   2.556   2.636   2.634  0.0912  0.6498 -1.8133
  495SOL    HW2 1485   2.637   2.783   2.582  2.7018  0.9228 -0.6430
  496SOL     OW 1486   2.050   2.272   0.763  0.3103  0.0251 -0.3030
  496SOL    HW1 1487   2.039   2.314   0.854 -1.2118 -0.2367 -0.0193
  496SOL    HW2 1488   2.047   2.167   0.770  1.5541  0.8352 -1.7535
  497SOL     OW 1489   0.198   2.996   2.366 -0.4351  0.2472 -0.4747
  497SOL    HW1 1490   0.165   3.062   2.436  0.8086  0.1574 -0.7810
  497SOL    HW2 1491   0.228   3.043   2.276  1.6977 -0.2134 -1.2621
  498SOL     OW 1492   1.214   1.331   1.258  0.1417  0.1145 -0.2011
  498SOL    HW1 1493   1.316   1.322   1.262  1.1588  1.3787 -2.6256
  498SOL    HW2 1494   1.175   1.416   1.299  0.4404  0.6059 -1.4808
  499SOL     OW 1495   0.620   1.782   0.297  0.0419 -0.9335  0.4624
  499SOL    HW1 1496   0.646   1.694   0.257 -0.3446  2.5772  2.3986
  499SOL    HW2 1497   0.702   1.843   0.321 -0.4668 -2.3050  0.4655
  500SOL     OW 1498   1.389   2.873   1.674 -0.2678  0.5553 -0.1724
  500SOL    HW1 1499   1.298   2.847   1.726 -0.0586 -2.1135  0.6791
  500SOL    HW2 1500   1.466   2.803   1.668 -1.8896 -0.6771 -2.6197
  501SOL     OW 1501   0.791   1.143   2.293  0.4409 -0.1826 -0.9786
  501SOL    HW1 1502   0.727   1.054   2.305 -2.3276 -2.6097 -0.5021
  501SOL    HW2 1503   0.835   1.146   2.200 -1.9676 -0.7211  1.9762
  502SOL     OW 1504   2.565   0.934   1.749  0.4677 -0.3191 -0.7077
  502SOL    HW1 1505   2.586   0.957   1.651 -0.1506  0.1279 -0.6131
  502SOL    HW2 1506   2.550   0.834   1.762  0.7264 -0.3074 -0.4239
  503SOL     OW 1507   1.333   0.162   0.597  0.6361 -0.3411  0.2690
  503SOL    HW1 1508   1.271   0.239   0.618  3.3149  0.5913 -0.6810
  503SOL    HW2 1509   1.428   0.188   0.619 -0.5899 -2.0533  0.2908
  504SOL     OW 1510   2.991   2.345   1.493 -0.2764 -0.2568 -0.2115
  504SOL    HW1 1511   2.942   2.419   1.550  0.4510  1.1853 -0.3993
  504SOL    HW2 1512   3.052   2.283   1.548  2.1646  0.6936 -3.1642
  505SOL     OW 1513   2.268   1.178   1.419  0.2846  0.6390 -0.3908
  505SOL    HW1 1514   2.263   1.218   1.325 -1.1458 -1.6663  0.3444
  505SOL    HW2 1515   2.333   1.232   1.472  1.9142 -0.1328  0.8098
  506SOL     OW 1516   1.944   0.203   1.824  0.4162 -0.0103  0.0647
  506SOL    HW1 1517   2.027   0.142   1.840  0.2210 -2.3719  3.1786
  506SOL    HW2 1518   1.948   0.304   1.844 -1.9910  0.6170  1.0130
  507SOL     OW 1519   0.600   0.698   2.147 -0.2324 -0.0789 -0.1526
  507SOL    HW1 1520   0.519   0.632   2.123 -1.5849  0.2115 -2.1339
  507SOL    HW2 1521   0.686   0.640   2.159  2.3092 -3.1554 -0.4141
  508SOL     OW 1522   0.311   1.660   0.752  0.2016  0.8739 -0.0558
  508SOL    HW1 1523   0.387   1.717   0.715 -0.4613 -0.9868 -1.5192
  508SOL    HW2 1524   0.274   1.693   0.842  1.4939 -0.7625 -1.7987
  509SOL     OW 1525   1.277   1.182   2.423  0.6531  0.1149 -0.3993
  509SOL    HW1 1526   1.327   1.129   2.355 -3.9865  3.3040 -0.0569
  509SOL    HW2 1527   1.174   1.151   2.429 -1.0913 -2.9248  0.0495
  510SOL     OW 1528   1.267   2.120   2.214  0.2309  0.2728 -0.1043
  510SOL    HW1 1529   1.297   2.135   2.114  0.3696 -1.1783 -1.3074
  510SOL    HW2 1530   1.218   2.023   2.227 -1.9736 -3.5821  4.3328
  511SOL     OW 1531   3.004   2.692   1.271  0.2089 -0.3742  0.4144
  511SOL    HW1 1532   2.967   2.672   1.174 -0.6011 -0.5406 -1.7797
  511SOL    HW2 1533   2.942   2.689   1.350  1.2039 -0.8422  2.5846
  512SOL     OW 1534   2.432   0.434   1.370 -0.0633  0.1669 -0.0491
  512SOL    HW1 1535   2.331   0.442   1.358  1.2595 -2.2647  0.7160
  512SOL    HW2 1536   2.488   0.383   1.301  1.1227 -1.0589 -0.2837
  513SOL     OW 1537   2.614   2.113   0.930 -0.6898 -0.3141  0.1049
  513SOL    HW1 1538   2.564   2.186   0.876  1.1192  0.0363 -1.6315
  513SOL    HW2 1539   2.707   2.086   0.881  2.6494 -2.0656  0.0647
  514SOL     OW 1540   0.668   2.767   0.435 -0.0120  0.3749  0.3881
  514SOL    HW1 1541   0.704   2.836   0.364  0.3790  1.2105  0.8437
  514SOL    HW2 1542   0.713   2.782   0.527  0.4603 -2.9456  0.0507
  515SOL     OW 1543   1.911   1.329   2.400  0.5634 -0.3058 -0.1254
  515SOL    HW1 1544   1.931   1.291   2.307 -0.1340  0.3824  0.0486
  515SOL    HW2 1545   1.825   1.283   2.438 -2.6019 -0.4872 -1.6803
  516SOL     OW 1546   0.289   0.293   1.878 -0.1249 -0.4568 -0.0885
  516SOL    HW1 1547   0.393   0.273   1.871 -1.3243  0.1792  1.1553
  516SOL    HW2 1548   0.236   0.248   1.807  1.6530  1.1192 -1.7075
  517SOL     OW 1549   0.488   0.126   1.126 -0.1906 -0.2293 -0.4716
  517SOL    HW1 1550   0.481   0.190   1.205  1.4644  3.1132 -0.3906
  517SOL    HW2 1551   0.469   0.029   1.144  1.0119  0.6586 -0.0033
  518SOL     OW 1552   2.155   0.004   1.823  0.3403 -0.0061  0.3655
  518SOL    HW1 1553   2.203   0.089   1.849 -1.5102 -2.4383  0.7841
  518SOL    HW2 1554   2.180  -0.044   1.732  0.1682  1.3349  0.6404
  519SOL     OW 1555   2.311   2.114   2.467  0.5234  0.0412  0.1454
  519SOL    HW1 1556   2.273   2.110   2.563  1.2035 -0.7019  0.1532
  519SOL    HW2 1557   2.329   2.210   2.445 -1.1026 -2.4320 -0.5218
  520SOL     OW 1558   1.833   2.687   1.737  0.1767  0.1120 -0.3403
  520SOL    HW1 1559   1.763   2.623   1.793 -1.7591 -1.9725  2.5588
  520SOL    HW2 1560   1.917   2.641   1.694 -1.0484 -1.1398  0.0584
  521SOL     OW 1561   0.558   3.080   2.060  0.1431 -0.1078 -0.0033
  521SOL    HW1 1562   0.454   3.082   2.061 -0.6892  0.7549 -1.8169
  521SOL    HW2 1563   0.592   3.065   2.155 -1.0120 -1.4290 -2.3386
  522SOL     OW 1564   0.172   1.838   1.566 -0.4697 -0.6775  0.5299
  522SOL    HW1 1565   0.226   1.906   1.625  1.1816  2.2518  0.6452
  522SOL    HW2 1566   0.131   1.889   1.481  0.7096  2.2734  0.2539
  523SOL     OW 1567   2.175   2.953   1.581 -0.0860  0.4242  0.0169
  523SOL    HW1 1568   2.233   2.877   1.536  4.2536  1.5812  2.6663
  523SOL    HW2 1569   2.076   2.944   1.554 -2.1199 -1.3195  1.3274
  524SOL     OW 1570   0.198   2.777   2.840  0.3455  0.0016 -0.2477
  524SOL    HW1 1571   0.138   2.860   2.853  0.0482  2.9740  0.2270
  524SOL    HW2 1572   0.294   2.806   2.807 -0.1178 -0.9601 -0.0696
  525SOL     OW 1573   2.202   2.032   0.396  0.3485 -0.1577 -0.3842
  525SOL    HW1 1574   2.222   2.001   0.495 -1.0344  3.0420 -0.0778
  525SOL    HW2 1575   2.250   1.968   0.328  4.8637 -0.8767 -2.1813
  526SOL     OW 1576   0.455   1.498   1.760  0.5039 -0.4812 -0.2141
  526SOL    HW1 1577   0.524   1.565   1.800 -0.6512 -1.3452 -0.6079
  526SOL    HW2 1578   0.476   1.393   1.754 -2.2454 -2.3828  0.2518
  527SOL     OW 1579   1.100   2.889   1.156 -0.2552 -0.0786 -0.6712
  527SOL    HW1 1580   1.159   2.835   1.219 -1.7181  3.3019 -0.8301
  527SOL    HW2 1581   1.129   2.991   1.157  1.5880 -1.2121  1.4791
  528SOL     OW 1582   1.368   2.345   0.537 -0.5720 -0.0291 -0.4452
  528SOL    HW1 1583   1.407   2.245   0.549  0.7274 -0.9598  0.4943
  528SOL    HW2 1584   1.410   2.414   0.600  0.3239  0.3889 -0.6078
  529SOL     OW 1585   1.920   1.783   0.762  0.0977 -0.1979 -0.8146
  529SOL    HW1 1586   1.878   1.777   0.666 -0.4739  0.1277 -1.3991
  529SOL    HW2 1587   1.928   1.879   0.797 -1.3055 -1.4478  1.4549
  530SOL     OW 1588   0.388   2.545   0.174  0.8437  0.5757 -0.2009
  530SOL    HW1 1589   0.371   2.589   0.265 -2.0546  2.7634 -0.0705
  530SOL    HW2 1590   0.427   2.449   0.181 -2.6476  1.7424 -1.2049
  531SOL     OW 1591   1.862   0.972   1.101  0.6097  0.6219 -0.4599
  531SOL    HW1 1592   1.841   0.919   1.019  1.9147  0.9469  0.1478
  531SOL    HW2 1593   1.786   0.973   1.170 -1.5556 -0.5414 -0.1956
  532SOL     OW 1594   0.341   1.174   0.729  0.4880  0.0273 -0.2935
  532SOL    HW1 1595   0.395   1.171   0.640  3.4956 -4.7947 -0.4722
  532SOL    HW2 1596   0.295   1.082   0.744  0.9079 -0.2089 -0.4575
  533SOL     OW 1597   1.758   0.002   2.583 -0.7231 -0.0728 -0.1961
  533SOL    HW1 1598   1.858  -0.001   2.590 -3.7004  0.1145  0.8792
  533SOL    HW2 1599   1.723   0.091   2.629  0.5015 -0.3824 -0.3351
  534SOL     OW 1600   0.254   0.212   1.483  0.8047 -0.2075 -0.1078
  534SOL    HW1 1601   0.336   0.245   1.423  2.7205 -0.9146 -1.8001
  534SOL    HW2 1602   0.189   0.285   1.521  0.1206  1.5676  1.3970
  535SOL     OW 1603   1.863   0.353   0.213  0.7190  0.4856  0.7503
  535SOL    HW1 1604   1.889   0.418   0.296  1.3630 -0.3794 -0.3348
  535SOL    HW2 1605   1.806   0.272   0.247  1.3903  1.7905 -0.8122
  536SOL     OW 1606   1.373   2.603   0.930 -0.1438  0.4903 -0.1188
  536SOL    HW1 1607   1.384   2.497   0.932 -0.8532 -0.4153  1.5243
  536SOL    HW2 1608   1.284   2.632   0.887  0.0216 -2.2126  0.1986
  537SOL     OW 1609   0.870   0.216   2.336 -0.3151 -0.2137 -0.2057
  537SOL    HW1 1610   0.892   0.214   2.234 -0.2017 -1.6185 -1.4731
  537SOL    HW2 1611   0.770   0.198   2.344 -0.8269  1.3553  0.3355
  538SOL     OW 1612   1.662   2.323   1.492  0.3197 -0.5753  0.1048
  538SOL    HW1 1613   1.641   2.224   1.459 -0.7745 -0.5012  2.8110
  538SOL    HW2 1614   1.749   2.369   1.456  0.4186  0.2382  2.1233
  539SOL     OW 1615   0.209   1.613   2.678  0.5202  0.8425  0.2344
  539SOL    HW1 1616   0.122   1.581   2.631 -1.7024 -2.8361 -1.5099
  539SOL    HW2 1617   0.214   1.718   2.673  2.3911  1.7068 -0.9110
  540SOL     OW 1618   2.750   1.672   1.959 -0.1681  0.8093  0.2104
  540SOL    HW1 1619   2.676   1.597   1.951  1.9935 -1.3090  1.5829
  540SOL    HW2 1620   2.710   1.771   1.965  1.3771  2.0401  0.2715
  541SOL     OW 1621   0.470   2.322   0.011  0.2713  0.8171 -1.0379
  541SOL    HW1 1622   0.500   2.246   0.081  0.8463  0.1725 -0.8528
  541SOL    HW2 1623   0.381   2.310  -0.038 -2.3948  1.4063 -1.1460
  542SOL     OW 1624   2.239   2.576   0.442 -0.0949  0.2516 -0.0283
  542SOL    HW1 1625   2.199   2.671   0.421  1.1702  1.8600 -1.6733
  542SOL    HW2 1626   2.172   2.518   0.494  0.5385  1.0253 -1.1017
  543SOL     OW 1627   0.998   1.741   1.705 -0.2559 -0.0732 -0.4548
  543SOL    HW1 1628   0.991   1.791   1.798 -0.8735  0.1740  0.2455
  543SOL    HW2 1629   0.945   1.783   1.629 -1.1014 -2.3031 -1.2994
  544SOL     OW 1630   0.949   0.377   0.210  0.5423 -0.6534  0.0205
  544SOL    HW1 1631   0.920   0.278   0.226  0.6307  0.6816 -0.3774
  544SOL    HW2 1632   0.968   0.399   0.110 -3.4166 -0.1719  1.1012
  545SOL     OW 1633   1.109   1.705   0.675 -0.0980 -0.1384  0.7169
  545SOL    HW1 1634   1.196   1.743   0.716  1.1363  2.0305 -0.1241
  545SOL    HW2 1635   1.119   1.677   0.577  0.7183  0.8349 -0.3659
  546SOL     OW 1636   2.597   1.565   3.027  0.3660 -0.1093  0.6493
  546SOL    HW1 1637   2.527   1.588   2.951 -1.2036  0.8797 -1.1448
  546SOL    HW2 1638   2.556   1.512   3.102 -0.6664  1.1780 -4.1465
  547SOL     OW 1639   0.555   0.032   2.741  0.5261  0.7746 -0.4801
  547SOL    HW1 1640   0.647   0.003   2.706 -2.4527 -3.1225 -3.0868
  547SOL    HW2 1641   0.490  -0.043   2.747  0.2720 -0.9310  1.6507
  548SOL     OW 1642   2.035   0.820   3.063  0.0371  0.5219  0.2481
  548SOL    HW1 1643   1.941   0.777   3.047  0.2423 -1.0648 -2.2743
  548SOL    HW2 1644   2.038   0.920   3.060 -0.9511 -1.5738 -0.8644
  549SOL     OW 1645   0.688   0.577   0.192  0.2658  0.5392 -0.1238
  549SOL    HW1 1646   0.633   0.642   0.135 -1.2825  1.6121 -0.4349
  549SOL    HW2 1647   0.787   0.600   0.219  0.2661  1.4043  0.9545
  550SOL     OW 1648   2.498   2.858   2.868 -0.5716 -0.2721  0.1335
  550SOL    HW1 1649   2.511   2.799   2.956  2.2430 -0.8771 -0.3057
  550SOL    HW2 1650   2.539   2.812   2.782  0.6741 -4.1621  1.1214
  551SOL     OW 1651   0.293   0.892   0.221  0.1889 -0.3462 -0.4527
  551SOL    HW1 1652   0.394   0.890   0.201 -0.8337  1.4531 -1.3330
  551SOL    HW2 1653   0.263   0.927   0.314  0.0887 -1.3148  2.2856
  552SOL     OW 1654   0.757   2.916   1.873 -0.0985 -0.1983 -0.4105
  552SOL    HW1 1655   0.680   2.971   1.924 -1.3938 -0.2998  5.0838
  552SOL    HW2 1656   0.837   2.967   1.832 -0.7207  2.9794  0.0781
  553SOL     OW 1657   0.044   2.512   0.384 -0.2418 -0.1188  0.4990
  553SOL    HW1 1658  -0.008   2.421   0.379  0.2312 -2.4954  2.8349
  553SOL    HW2 1659  -0.010   2.596   0.407 -1.3461 -0.0525 -1.1718
  554SOL     OW 1660   2.198   0.334   0.580 -0.2681  0.1491 -0.2187
  554SOL    HW1 1661   2.255   0.336   0.493 -3.1698 -0.8091  0.9989
  554SOL    HW2 1662   2.206   0.247   0.637 -0.1440  0.8627  1.3486
  555SOL     OW 1663   0.419   2.902   2.496  0.2318 -0.1337  0.2348
  555SOL    HW1 1664   0.319   2.925   2.479  2.3159 -0.0008  0.1066
  555SOL    HW2 1665   0.462   2.836   2.430  3.1851  1.4658  0.9777
  556SOL     OW 1666   0.885   2.394   1.614 -0.9131  0.2818 -0.3006
  556SOL    HW1 1667   0.921   2.483   1.652 -2.1338 -1.4214  1.0384
  556SOL    HW2 1668   0.922   2.369   1.521 -0.2387  0.2957  0.0780
  557SOL     OW 1669   0.099   2.087   0.144  0.2008 -0.1300  0.3501
  557SOL    HW1 1670   0.043   2.023   0.085  1.5169 -1.2602 -0.1535
  557SOL    HW2 1671   0.153   2.162   0.097 -1.2446 -0.3227  1.5692
  558SOL     OW 1672   2.940   2.317   0.329  0.3531  0.6379 -0.5359
  558SOL    HW1 1673   2.842   2.308   0.362 -0.0798  1.4589 -0.8414
  558SOL    HW2 1674   2.952   2.293   0.229 -1.9119  0.6992 -0.4007
  559SOL     OW 1675   0.391   2.303   1.343  0.0864 -0.2018 -0.2599
  559SOL    HW1 1676   0.291   2.290   1.304 -1.4567 -0.5126  0.0770
  559SOL    HW2 1677   0.453   2.222   1.335 -0.2878  0.4816 -0.6235
  560SOL     OW 1678   2.089   1.108   3.061 -0.4195 -0.0782  0.2549
  560SOL    HW1 1679   2.037   1.143   3.144  0.1455 -0.8598  2.1587
  560SOL    HW2 1680   2.190   1.108   3.074 -1.4932  2.1635  0.6696
  561SOL     OW 1681   3.005   1.910   0.032 -0.4900 -0.8988  0.6078
  561SOL    HW1 1682   2.963   1.824   0.065  1.3871 -0.3073 -2.1002
  561SOL    HW2 1683   2.944   1.987  -0.009  1.0869 -0.0440 -1.2392
  562SOL     OW 1684   0.950   2.184   2.353  0.4410  0.7795 -0.5658
  562SOL    HW1 1685   0.846   2.167   2.377 -1.9087  0.2582  0.1086
  562SOL    HW2 1686   1.007   2.202   2.432 -0.4422 -0.2909 -3.5575
  563SOL     OW 1687   0.699   2.466   2.586  0.3755  0.0081 -0.5421
  563SOL    HW1 1688   0.733   2.374   2.613  0.6691  1.8918  2.0908
  563SOL    HW2 1689   0.673   2.530   2.662  0.1634  4.1881  0.2704
  564SOL     OW 1690   2.758   1.309   2.916 -0.6039 -0.4128 -0.2519
  564SOL    HW1 1691   2.664   1.334   2.941  0.9555 -1.4803 -0.4115
  564SOL    HW2 1692   2.812   1.395   2.887 -1.6622 -0.1124  0.3069
  565SOL     OW 1693   2.548   1.985   2.576 -0.1956  0.0024 -0.1409
  565SOL    HW1 1694   2.465   2.034   2.539 -0.0278  0.2285  0.9761
  565SOL    HW2 1695   2.591   2.036   2.656  2.0197  0.6910 -1.6376
  566SOL     OW 1696   1.999   2.863   1.379 -0.3583 -0.2010  0.7096
  566SOL    HW1 1697   1.947   2.772   1.349 -2.1993 -0.2706  1.0836
  566SOL    HW2 1698   2.092   2.871   1.332 -1.2819 -0.4979  2.4716
  567SOL     OW 1699   2.491   0.107   2.286  0.3529 -0.8028 -0.1484
  567SOL    HW1 1700   2.406   0.164   2.314  2.6585  1.8914 -0.3844
  567SOL    HW2 1701   2.487   0.069   2.191 -4.2183 -0.4990 -1.4003
  568SOL     OW 1702   1.527   1.774   0.237  0.2518 -0.4803 -0.5057
  568SOL    HW1 1703   1.470   1.862   0.229 -1.2085  1.2698 -0.9160
  568SOL    HW2 1704   1.614   1.787   0.291 -0.4129 -2.0657  0.8471
  569SOL     OW 1705   0.284   0.628   0.862 -0.3245 -0.0376  0.3190
  569SOL    HW1 1706   0.351   0.575   0.809 -1.8487  0.1723  0.4707
  569SOL    HW2 1707   0.194   0.587   0.875  1.3592  0.6306  1.5571
  570SOL     OW 1708   0.681   0.743   2.834 -0.3604 -0.0601  0.2209
  570SOL    HW1 1709   0.699   0.756   2.733  2.9587  0.6040 -1.1612
  570SOL    HW2 1710   0.677   0.830   2.889 -0.5349 -0.7939  0.8118
  571SOL     OW 1711   0.837   3.047   1.094 -0.3947  0.0506 -0.4643
  571SOL    HW1 1712   0.888   3.088   1.011  1.3458 -1.3290 -0.4064
  571SOL    HW2 1713   0.864   2.948   1.108 -1.7390  1.3674  2.2981
  572SOL     OW 1714   1.598   2.622   1.179  0.1469 -0.2511  0.7137
  572SOL    HW1 1715   1.510   2.581   1.216  2.6200  2.4096  1.8131
  572SOL    HW2 1716   1.592   2.724   1.156  1.9330 -2.5392 -0.4694
  573SOL     OW 1717   2.909   0.437   2.041  0.3794  0.1729 -0.5528
  573SOL    HW1 1718   2.879   0.336   2.037  0.9925  1.3568  0.8397
  573SOL    HW2 1719   2.841   0.504   1.997  0.1430  1.0819 -0.1862
  574SOL     OW 1720   0.209   1.761   0.976 -0.3211 -0.4151 -0.0670
  574SOL    HW1 1721   0.236   1.859   0.947 -3.2744  0.2860 -1.2989
  574SOL    HW2 1722   0.144   1.752   1.055  2.2367  0.4502  0.2749
  575SOL     OW 1723   0.879   2.133   0.991  0.7446 -0.7310  0.5867
  575SOL    HW1 1724   0.829   2.164   1.078  1.2754  1.1526 -0.6838
  575SOL    HW2 1725   0.908   2.214   0.929  0.4022 -0.5836  0.5200
  576SOL     OW 1726   2.936   2.941   1.663  0.1457  0.1682 -0.3551
  576SOL    HW1 1727   2.836   2.914   1.656 -2.1816  0.4195 -0.8336
  576SOL    HW2 1728   2.966   3.041   1.660  0.1198  1.7617  0.9852
  577SOL     OW 1729   2.541   1.220   3.074  0.1443 -0.2726 -0.1142
  577SOL    HW1 1730   2.562   1.132   3.021 -0.6193 -1.1366  2.7129
  577SOL    HW2 1731   2.590   1.228   3.162 -0.0723 -0.8507  1.9115
  578SOL     OW 1732   1.341   2.683   2.587 -0.3131  0.4763 -0.2646
  578SOL    HW1 1733   1.285   2.744   2.525  2.0623 -0.7426  0.3529
  578SOL    HW2 1734   1.441   2.677   2.556 -0.7975  1.6769 -2.1053
  579SOL     OW 1735   0.117   2.503   0.110 -0.6453 -0.4697 -0.6044
  579SOL    HW1 1736   0.086   2.502   0.208 -2.6541  0.0962  0.4214
  579SOL    HW2 1737   0.218   2.471   0.101  0.4530  1.4305 -1.2464
  580SOL     OW 1738   1.030   2.610   0.392 -0.0352  0.5251 -0.2147
  580SOL    HW1 1739   1.116   2.634   0.335  0.6240  1.2218  1.1235
  580SOL    HW2 1740   0.957   2.562   0.338 -0.4540 -0.6174  0.9247
  581SOL     OW 1741   1.245   2.588   1.524  0.5285 -0.2369  0.0399
  581SOL    HW1 1742   1.271   2.489   1.507  0.7983 -0.5630  2.4687
  581SOL    HW2 1743   1.288   2.657   1.459  1.1445  2.2407  0.9399
  582SOL     OW 1744   1.507   0.096   1.814  0.0801 -0.1221  0.3525
  582SOL    HW1 1745   1.529   0.179   1.871  1.0250 -0.8019 -0.8813
  582SOL    HW2 1746   1.586   0.069   1.755  2.5622  1.7945  0.5869
  583SOL     OW 1747   2.502   2.984   0.526  0.2276  0.5720 -0.3085
  583SOL    HW1 1748   2.525   2.891   0.481 -1.3762 -1.5003  1.3668
  583SOL    HW2 1749   2.448   2.970   0.612 -0.1569 -2.8421 -0.4666
  584SOL     OW 1750   1.614   0.981   2.091 -0.1434 -0.3899  0.0129
  584SOL    HW1 1751   1.653   1.078   2.105 -0.3232 -0.2167 -1.7001
  584SOL    HW2 1752   1.659   0.909   2.153  1.9841 -0.5861  1.0158
  585SOL     OW 1753   2.091   2.687   2.953 -0.2808  0.1917  0.3033
  585SOL    HW1 1754   2.137   2.602   2.917  0.0471 -0.9557 -1.4997
  585SOL    HW2 1755   1.987   2.690   2.935  2.6160 -0.8135 -3.5778
  586SOL     OW 1756   2.726   0.236   1.555  0.5291  0.2867  0.3738
  586SOL    HW1 1757   2.738   0.320   1.616 -1.2179  1.3118 -1.3354
  586SOL    HW2 1758   2.639   0.181   1.589 -1.4536 -1.8723  1.3706
  587SOL     OW 1759   1.938   1.559   2.741 -0.4115 -0.4140  0.1587
  587SOL    HW1 1760   1.999   1.500   2.674 -2.0914 -5.0236 -0.6479
  587SOL    HW2 1761   1.982   1.563   2.834 -0.1424 -1.2847  0.3159
  588SOL     OW 1762   0.475   2.749   2.256  0.4812  0.3075  0.1944
  588SOL    HW1 1763   0.382   2.744   2.202 -0.6214  3.0640 -1.1451
  588SOL    HW2 1764   0.507   2.658   2.296 -1.2570 -0.8795  1.1703
  589SOL     OW 1765   2.104   1.446   2.564  0.2556 -0.0625  0.3622
  589SOL    HW1 1766   2.020   1.404   2.518 -1.1846 -0.7757  0.0563
  589SOL    HW2 1767   2.189   1.385   2.565 -0.8530 -0.0368  0.2872
  590SOL     OW 1768   2.325   1.664   2.051 -0.0654 -0.6360 -0.1472
  590SOL    HW1 1769   2.395   1.607   2.001 -0.0794 -0.4053 -1.7097
  590SOL    HW2 1770   2.357   1.702   2.144 -0.7377 -0.6692 -0.3416
  591SOL     OW 1771   1.341   2.398   0.259 -0.7185 -0.4431 -0.0325
  591SOL    HW1 1772   1.438   2.415   0.222  0.1982 -0.6007  1.9434
  591SOL    HW2 1773   1.339   2.367   0.359 -1.5917  0.8399  1.0058
  592SOL     OW 1774   1.757   2.340   0.781 -0.2186 -0.6610 -0.4849
  592SOL    HW1 1775   1.717   2.384   0.692  1.3519  0.3391 -1.2158
  592SOL    HW2 1776   1.856   2.323   0.774 -0.6588 -1.5211 -1.3465
  593SOL     OW 1777   0.651   0.278   0.113  0.0790  0.3570  0.2705
  593SOL    HW1 1778   0.734   0.232   0.061  2.1785  1.6068  1.7630
  593SOL    HW2 1779   0.668   0.376   0.140  0.0791  1.5361 -4.4325
  594SOL     OW 1780   0.964   1.828   2.714 -0.0726 -0.7554 -0.0609
  594SOL    HW1 1781   1.068   1.836   2.734  0.5460 -0.6518 -0.3360
  594SOL    HW2 1782   0.908   1.905   2.756  0.3223 -0.3042 -0.4791
  595SOL     OW 1783   1.506   0.060   1.020 -0.0108  0.1176 -0.1351
  595SOL    HW1 1784   1.597   0.032   0.983  1.5310 -0.1710  1.2807
  595SOL    HW2 1785   1.431   0.011   0.963  1.0954 -0.8035 -2.1868
  596SOL     OW 1786   3.073   1.486   2.236 -0.0415  0.2193  0.0451
  596SOL    HW1 1787   2.965   1.472   2.232 -1.4321 -1.7784 -0.0011
  596SOL    HW2 1788   3.107   1.561   2.294  1.1739 -2.5432  1.3619
  597SOL     OW 1789   2.051   2.593   1.622 -0.1622 -0.5179 -0.4820
  597SOL    HW1 1790   2.047   2.529   1.545 -1.9180 -1.0513 -1.1330
  597SOL    HW2 1791   2.125   2.571   1.688 -0.9361  1.5530 -2.6954
  598SOL     OW 1792   2.457   2.954   1.334  0.3486  0.3132 -0.0486
  598SOL    HW1 1793   2.546   2.991   1.369 -0.0125 -1.2864 -1.5413
  598SOL    HW2 1794   2.472   2.907   1.247 -1.7067  0.4953  0.5667
  599SOL     OW 1795   2.926   0.426   2.486 -0.0842 -0.0055  0.4841
  599SOL    HW1 1796   2.981   0.513   2.469  0.0887  1.8258 -2.0927
  599SOL    HW2 1797   2.842   0.421   2.424  1.6042 -0.2986  1.4268
  600SOL     OW 1798   2.806   1.112   2.716 -0.3033  0.4804  0.1035
  600SOL    HW1 1799   2.729   1.126   2.647  1.3312  0.9061  0.1641
  600SOL    HW2 1800   2.805   1.181   2.794  0.4465 -1.5279 -1.7564
  601SOL     OW 1801   2.991   1.253   1.937 -0.1148 -0.1458 -0.7982
  601SOL    HW1 1802   2.917   1.294   1.879 -1.3429  0.2759 -1.0317
  601SOL    HW2 1803   3.072   1.318   1.937 -0.3818 -2.1424  1.0270
  602SOL     OW 1804   1.413   1.695   2.370 -0.3431  0.2234 -0.1290
  602SOL    HW1 1805   1.363   1.605   2.365  1.4294  0.7322 -1.0907
  602SOL    HW2 1806   1.518   1.686   2.364  3.8194  0.3609  1.8657
  603SOL     OW 1807   0.623   1.242   2.738  0.0310 -0.3182 -0.1452
  603SOL    HW1 1808   0.550   1.259   2.668  2.0477  1.2342  0.2655
  603SOL    HW2 1809   0.687   1.166   2.711  0.5955 -0.3785 -1.9705
  604SOL     OW 1810   2.419   1.007   0.158 -0.0042  0.0935  0.3877
  604SOL    HW1 1811   2.431   1.098   0.111  3.2406  1.9389 -2.7106
  604SOL    HW2 1812   2.436   0.932   0.091 -0.1779  1.1231  0.2003
  605SOL     OW 1813   2.618   1.165   1.906 -0.7729  0.2041 -0.6201
  605SOL    HW1 1814   2.579   1.067   1.887 -0.3953 -3.7259 -0.4230
  605SOL    HW2 1815   2.655   1.181   2.000 -0.2918  0.5645 -0.5161
  606SOL     OW 1816   1.534   2.482   2.659 -0.6035 -0.0441  0.4539
  606SOL    HW1 1817   1.455   2.543   2.630  1.6909 -2.0213 -0.1424
  606SOL    HW2 1818   1.519   2.382   2.631 -1.9118 -1.5018  0.9828
  607SOL     OW 1819   1.395   1.641   0.427 -0.0899  0.1170  0.5831
  607SOL    HW1 1820   1.346   1.710   0.482 -0.4030  1.8667 -0.0537
  607SOL    HW2 1821   1.460   1.686   0.356  0.7350  1.8639  0.2963
  608SOL     OW 1822   1.452   2.828   0.387  0.0538  0.4983  0.0032
  608SOL    HW1 1823   1.541   2.880   0.372 -0.7330 -0.0664  2.2190
  608SOL    HW2 1824   1.384   2.875   0.451 -1.6702 -0.7107 -0.9151
  609SOL     OW 1825   1.316   1.406   0.263  0.4689 -0.1465  0.3843
  609SOL    HW1 1826   1.334   1.473   0.336  0.1185 -0.0554 -2.6826
  609SOL    HW2 1827   1.256   1.442   0.188  1.0164  0.9472 -2.8435
  610SOL     OW 1828   3.017   1.146   2.200 -0.0871  0.0507  0.5477
  610SOL    HW1 1829   2.995   1.047   2.207  1.7264 -0.8583 -0.3922
  610SOL    HW2 1830   2.985   1.188   2.110 -2.9768  0.3754  0.4379
  611SOL     OW 1831   2.600   0.297   1.149  0.3080  0.0078 -0.4861
  611SOL    HW1 1832   2.554   0.209   1.183 -0.4113  1.6834 -1.1883
  611SOL    HW2 1833   2.698   0.318   1.183  0.0432  1.4869  0.4555
  612SOL     OW 1834   0.765   2.223   1.245 -0.2583 -0.4544 -0.0538
  612SOL    HW1 1835   0.683   2.159   1.267 -0.1865 -1.2843  0.8619
  612SOL    HW2 1836   0.739   2.314   1.199  0.4408 -0.4871  1.2626
  613SOL     OW 1837   0.827   1.434   2.417  0.0965  0.1227 -0.2860
  613SOL    HW1 1838   0.863   1.446   2.320 -1.1859  1.0558 -1.4400
  613SOL    HW2 1839   0.730   1.394   2.414 -1.6175  2.8771  1.5145
  614SOL     OW 1840   1.620   1.648   1.937 -0.2153  0.2406  0.1190
  614SOL    HW1 1841   1.549   1.716   1.966  0.0117 -1.4304  1.3402
  614SOL    HW2 1842   1.698   1.635   2.003  0.2279  0.1042  0.1109
  615SOL     OW 1843   0.801   1.298   1.690  0.0504  0.2691  0.4928
  615SOL    HW1 1844   0.721   1.265   1.635  3.0377  0.3373  0.6084
  615SOL    HW2 1845   0.860   1.373   1.641 -1.5880 -1.9149 -1.8833
  616SOL     OW 1846   1.055   1.611   2.346 -0.2872  0.3626 -0.1227
  616SOL    HW1 1847   0.988   1.584   2.270  0.7956  2.2089  1.8440
  616SOL    HW2 1848   1.089   1.708   2.328 -3.2653  0.2961  0.4308
  617SOL     OW 1849   2.933   1.536   1.604  0.6501  0.1524 -0.4633
  617SOL    HW1 1850   2.859   1.465   1.631  2.0968 -1.6126 -1.2770
  617SOL    HW2 1851   2.968   1.514   1.512 -0.0735  3.3122  0.8252
  618SOL     OW 1852   1.954   2.036   1.320 -0.2715 -0.4831  0.5231
  618SOL    HW1 1853   1.934   2.100   1.240  1.8330 -1.2584 -1.2428
  618SOL    HW2 1854   1.937   1.935   1.293 -3.5304 -2.6052 -0.1621
  619SOL     OW 1855   1.760   0.463   2.356  0.2829 -0.3543 -0.7122
  619SOL    HW1 1856   1.671   0.502   2.324 -0.6091 -3.1319  0.3323
  619SOL    HW2 1857   1.750   0.363   2.376 -2.7254  0.6010  0.3984
  620SOL     OW 1858   2.345   2.962   0.720 -0.1092  0.1620 -0.6545
  620SOL    HW1 1859   2.267   3.033   0.745 -0.5419 -0.7984 -0.8966
  620SOL    HW2 1860   2.348   2.880   0.781 -0.6141  0.0668 -3.1523
  621SOL     OW 1861   2.131   1.782   1.303  0.3004 -0.1272  0.4554
  621SOL    HW1 1862   2.133   1.796   1.406 -0.4273  0.8682 -0.9806
  621SOL    HW2 1863   2.049   1.727   1.273 -0.4802 -3.5285  1.0322
  622SOL     OW 1864   2.260   0.884   1.773 -0.3038 -0.5588  0.2642
  622SOL    HW1 1865   2.351   0.897   1.724  0.6203  0.9197 -0.5241
  622SOL    HW2 1866   2.257   0.812   1.849  0.5871  1.6493 -1.3248
  623SOL     OW 1867   1.326   0.794   2.575 -0.0237  0.4266  0.7404
  623SOL    HW1 1868   1.287   0.707   2.621 -0.8652 -0.2169  0.3325
  623SOL    HW2 1869   1.272   0.835   2.495 -1.6549 -1.3036  0.7107
  624SOL     OW 1870   0.522   0.715   3.092 -0.6804  0.0889 -0.3835
  624SOL    HW1 1871   0.553   0.704   2.994  2.4604 -0.3020  0.7570
  624SOL    HW2 1872   0.574   0.797   3.144  4.0743 -2.8909  1.4555
  625SOL     OW 1873   2.817   1.738   1.022 -0.2022 -0.8165  0.0726
  625SOL    HW1 1874   2.718   1.766   1.017  0.9565  0.4638 -1.7313
  625SOL    HW2 1875   2.880   1.815   1.054  1.5158  0.5721  2.0601
  626SOL     OW 1876   0.594   2.694   1.721 -0.0180  0.3578  0.4986
  626SOL    HW1 1877   0.640   2.755   1.795 -1.4804  1.7499 -1.1670
  626SOL    HW2 1878   0.489   2.710   1.727 -0.3409  1.6604 -0.0528
  627SOL     OW 1879   0.683   0.952   1.533  0.0227  0.2125 -0.3875
  627SOL    HW1 1880   0.630   0.899   1.461  4.6593  0.4478  0.8790
  627SOL    HW2 1881   0.769   1.003   1.500  1.9321  1.1190  1.5281
  628SOL     OW 1882   2.502   0.127   0.663 -0.3446 -0.2980  0.1713
  628SOL    HW1 1883   2.526   0.036   0.625 -0.3508  1.8244  0.0616
  628SOL    HW2 1884   2.398   0.148   0.669 -0.0311 -1.1928 -1.3004
  629SOL     OW 1885   1.985   0.907   2.031  0.3166 -0.3550 -0.7535
  629SOL    HW1 1886   1.978   0.959   1.940  2.5582  0.6886 -0.2977
  629SOL    HW2 1887   1.954   0.971   2.110  0.9371  1.1381 -0.7215
  630SOL     OW 1888   2.955   2.305   0.809 -0.2326  0.0010 -0.2953
  630SOL    HW1 1889   2.869   2.353   0.849 -1.9800 -0.7451  1.1657
  630SOL    HW2 1890   2.920   2.215   0.769  0.6654 -1.4496  1.3736
  631SOL     OW 1891   3.062   0.192   2.152 -0.3013  0.2239 -0.2209
  631SOL    HW1 1892   3.118   0.196   2.237 -1.2800 -1.0412 -2.4766
  631SOL    HW2 1893   3.073   0.274   2.086  0.8518  1.8134  0.8760
  632SOL     OW 1894   2.435   2.582   0.645 -0.0871 -0.5592  0.1754
  632SOL    HW1 1895   2.406   2.658   0.706 -1.3675 -0.7181  0.4534
  632SOL    HW2 1896   2.391   2.585   0.555 -2.8839 -1.3738 -1.2360
  633SOL     OW 1897   1.426   1.228   2.650 -0.2601 -0.7852  0.0228
  633SOL    HW1 1898   1.422   1.314   2.715 -0.7538  1.9851 -0.7491
  633SOL    HW2 1899   1.357   1.234   2.575 -0.2723  3.4526 -1.3349
  634SOL     OW 1900   0.662   2.014   0.852  0.4421  0.8888 -0.2394
  634SOL    HW1 1901   0.586   2.012   0.921  1.3558 -1.7124 -1.4128
  634SOL    HW2 1902   0.753   2.037   0.896 -0.0119 -1.2801 -1.1293
  635SOL     OW 1903   2.996   2.336   0.049 -0.1059  0.1886 -0.3174
  635SOL    HW1 1904   2.928   2.391  -0.014 -0.1178  0.3078  0.0145
  635SOL    HW2 1905   3.088   2.383   0.060 -1.2243 -0.1644 -0.5113
  636SOL     OW 1906   2.338   2.757   1.934 -0.0369  0.0758  0.6606
  636SOL    HW1 1907   2.332   2.860   1.961  0.6672 -0.0085  0.0664
  636SOL    HW2 1908   2.275   2.699   1.988 -1.6956 -0.7253 -0.5656
  637SOL     OW 1909   2.725   0.612   1.964 -0.5939  0.3056  0.2537
  637SOL    HW1 1910   2.649   0.619   1.893  3.4260 -1.3931  1.6138
  637SOL    HW2 1911   2.763   0.709   1.989  1.4499  1.5158  0.0018
  638SOL     OW 1912   2.404   1.815   1.311  0.1672  0.2368 -0.4876
  638SOL    HW1 1913   2.312   1.786   1.274  0.1175 -2.1078  0.7528
  638SOL    HW2 1914   2.444   1.743   1.381  2.1927 -1.7550  0.8540
  639SOL     OW 1915   1.300   2.099   1.691  0.5576 -0.1059  0.4483
  639SOL    HW1 1916   1.335   2.196   1.677 -2.6475  1.9427  0.7799
  639SOL    HW2 1917   1.202   2.094   1.720 -0.6160 -3.3649  1.0234
  640SOL     OW 1918   0.224   1.184   1.554  0.0455 -0.2012  0.2323
  640SOL    HW1 1919   0.211   1.234   1.642 -3.0453  0.3788  1.4076
  640SOL    HW2 1920   0.297   1.114   1.559  1.3268 -0.0627 -1.5786
  641SOL     OW 1921   1.993   0.267   1.486  0.0278 -0.6585  0.5012
  641SOL    HW1 1922   1.929   0.248   1.566  0.8426 -3.0418 -0.5417
  641SOL    HW2 1923   2.096   0.261   1.512  1.9640  0.3637  1.3679
  642SOL     OW 1924   2.017   0.006   0.327  0.2195 -0.6375  0.2669
  642SOL    HW1 1925   2.115   0.032   0.352  0.1919  1.8194  0.4353
  642SOL    HW2 1926   1.974  -0.062   0.393  0.2761 -0.6151  0.0587
  643SOL     OW 1927   2.930   1.789   2.132  0.2064 -0.4743 -0.0148
  643SOL    HW1 1928   2.915   1.731   2.048  1.0071 -0.3940  1.4779
  643SOL    HW2 1929   2.952   1.888   2.111 -1.1549  1.5399  3.0703
  644SOL     OW 1930   2.219   2.418   1.198 -0.7801 -0.5923  0.0791
  644SOL    HW1 1931   2.259   2.330   1.158  1.2281 -0.4176 -0.7012
  644SOL    HW2 1932   2.186   2.406   1.296  1.4793 -0.6422  1.1428
  645SOL     OW 1933   0.599   0.857   1.292  0.4593 -0.3595  0.1405
  645SOL    HW1 1934   0.506   0.847   1.257  1.6756 -1.9523  1.3660
  645SOL    HW2 1935   0.665   0.924   1.249 -0.8942 -0.2847 -0.9925
  646SOL     OW 1936   1.415   1.814   2.059 -0.4322  0.1955  0.5689
  646SOL    HW1 1937   1.472   1.899   2.039 -1.5644  1.1244  1.4408
  646SOL    HW2 1938   1.370   1.817   2.151 -1.4894  0.9963 -0.3824
  647SOL     OW 1939   0.781   1.028   0.666  0.0460 -0.2009 -0.3587
  647SOL    HW1 1940   0.833   1.077   0.745  1.8426  2.0107  3.0372
  647SOL    HW2 1941   0.691   0.982   0.698 -0.8413  0.7282  1.4784
  648SOL     OW 1942   0.153   0.256   0.262 -0.5586  0.2158  0.4277
  648SOL    HW1 1943   0.187   0.203   0.176  1.5918  0.1790 -2.3135
  648SOL    HW2 1944   0.117   0.349   0.236 -1.6820 -0.3311  1.8909
  649SOL     OW 1945   3.009   0.236   0.860  0.7773  0.1864 -0.1801
  649SOL    HW1 1946   3.092   0.184   0.897 -0.2201  2.4459 -0.0916
  649SOL    HW2 1947   3.038   0.333   0.840  0.0205 -0.3324  1.0081
  650SOL     OW 1948   2.734   0.654   1.500  0.3394  0.5014  0.1192
  650SOL    HW1 1949   2.633   0.680   1.514  0.4161  1.8515  0.4014
  650SOL    HW2 1950   2.787   0.737   1.471  0.1882  0.1280  1.2922
  651SOL     OW 1951   0.928   1.514   1.571  0.0792  0.1945 -0.6541
  651SOL    HW1 1952   0.983   1.573   1.639 -0.0784 -3.1136 -0.3095
  651SOL    HW2 1953   0.955   1.537   1.474 -2.0498  0.6768 -1.8253
  652SOL     OW 1954   2.350   2.367   2.410  0.7283  0.3996  0.0719
  652SOL    HW1 1955   2.253   2.408   2.408 -0.4278 -0.4489 -1.4978
  652SOL    HW2 1956   2.421   2.435   2.372  1.1605  0.2690 -1.0457
  653SOL     OW 1957   2.661   1.221   0.227  0.1161 -0.3343  0.0716
  653SOL    HW1 1958   2.699   1.312   0.248 -0.9535 -0.7127  1.8517
  653SOL    HW2 1959   2.729   1.144   0.224 -0.6501 -0.1674  0.0833
  654SOL     OW 1960   1.268   2.247   1.294 -0.2692  0.1188 -0.4112
  654SOL    HW1 1961   1.271   2.159   1.344 -1.0691  2.3591  0.0057
  654SOL    HW2 1962   1.287   2.238   1.192  1.0163  1.7850 -1.2575
  655SOL     OW 1963   0.146   0.928   1.850 -0.0101 -0.1339 -0.1211
  655SOL    HW1 1964   0.208   0.871   1.792 -2.5408  1.3823 -0.1650
  655SOL    HW2 1965   0.163   1.032   1.848 -0.4196  0.6879  0.9948
  656SOL     OW 1966   2.544   2.438   2.611  0.3077 -0.1072 -0.5359
  656SOL    HW1 1967   2.638   2.427   2.566 -0.9785 -0.3671  0.2309
  656SOL    HW2 1968   2.476   2.367   2.585  1.7522 -0.9189  0.1681
  657SOL     OW 1969   2.987   0.981   1.922 -0.8873  0.0660  0.5094
  657SOL    HW1 1970   2.987   1.080   1.949  0.9855  0.9590 -0.2483
  657SOL    HW2 1971   3.085   0.957   1.886  2.2633  0.7130  0.2334
  658SOL     OW 1972   1.703   0.177   2.378 -0.2504  0.0252 -0.1996
  658SOL    HW1 1973   1.720   0.107   2.449 -1.2053  1.5373 -0.1017
  658SOL    HW2 1974   1.738   0.149   2.281  2.2099  0.1395 -1.1769
  659SOL     OW 1975   1.386   0.633   2.824  0.0861  0.3901  0.2173
  659SOL    HW1 1976   1.454   0.704   2.852 -2.3186 -1.8874 -0.8112
  659SOL    HW2 1977   1.289   0.662   2.856 -0.8558 -1.2190  4.0980
  660SOL     OW 1978   1.390   0.332   1.455  1.0766  0.6624 -0.0559
  660SOL    HW1 1979   1.416   0.355   1.554  2.0745 -1.1339 -1.4810
  660SOL    HW2 1980   1.452   0.262   1.412  1.4639  2.2652  2.8169
  661SOL     OW 1981   2.330   1.208   0.678 -0.1907 -0.0813 -0.3253
  661SOL    HW1 1982   2.360   1.192   0.580  1.5097 -0.6363 -1.9744
  661SOL    HW2 1983   2.331   1.309   0.695  0.7150 -1.7241  0.5165
  662SOL     OW 1984   1.372   0.397   1.721 -0.2639 -0.1796 -0.3206
  662SOL    HW1 1985   1.324   0.318   1.766  0.5263 -0.9165 -1.6522
  662SOL    HW2 1986   1.345   0.490   1.755  1.9618 -1.0922 -0.9144
  663SOL     OW 1987   0.877   1.567   2.132 -0.1440 -0.6457 -0.2202
  663SOL    HW1 1988   0.813   1.618   2.201 -2.3366  0.8718  5.2983
  663SOL    HW2 1989   0.824   1.511   2.059  1.4412  0.4806 -1.7708
  664SOL     OW 1990   1.630   2.081   1.387 -0.5492  0.0521 -0.5470
  664SOL    HW1 1991   1.573   2.031   1.462  0.4584  1.4900  1.3314
  664SOL    HW2 1992   1.709   2.027   1.357 -0.3922 -0.7920  0.7433
  665SOL     OW 1993   2.259   0.711   1.980 -0.7189  0.0326  0.2564
  665SOL    HW1 1994   2.160   0.672   1.981 -1.8146 -0.8762 -0.6739
  665SOL    HW2 1995   2.318   0.688   2.062 -0.4867  1.1973 -0.7634
  666SOL     OW 1996   0.494   2.319   0.313 -0.0688  0.1874 -0.1084
  666SOL    HW1 1997   0.544   2.365   0.395 -2.7810  1.7429 -0.0140
  666SOL    HW2 1998   0.393   2.309   0.333  0.8051 -0.8046  0.3456
  667SOL     OW 1999   2.024   0.196   1.094  1.0180 -0.2732  0.4934
  667SOL    HW1 2000   2.021   0.298   1.098 -0.3696 -1.7710 -1.1698
  667SOL    HW2 2001   1.961   0.152   1.165  1.7410 -2.4685 -0.2492
  668SOL     OW 2002   2.048   0.468   1.162  0.5623  0.0391  0.0020
  668SOL    HW1 2003   2.117   0.487   1.095 -0.9691 -2.3108  1.5546
  668SOL    HW2 2004   2.081   0.487   1.260 -0.8710  1.0045 -0.1326
  669SOL     OW 2005   3.091   2.133   1.000 -0.3601 -0.6150 -0.3991
  669SOL    HW1 2006   3.053   2.199   0.931  0.3500 -0.0944  0.5312
  669SOL    HW2 2007   3.111   2.176   1.089  1.9157 -0.0642  0.9354
  670SOL     OW 2008   2.886   2.315   2.089 -0.0511  0.5311 -0.4611
  670SOL    HW1 2009   2.803   2.286   2.147 -2.1985 -2.6259  2.0865
  670SOL    HW2 2010   2.874   2.416   2.071  0.4707 -0.0699  0.6095
  671SOL     OW 2011   1.754   1.802   1.450 -0.6033 -0.4827 -0.0321
  671SOL    HW1 2012   1.767   1.779   1.350  0.9507 -2.0873 -0.9731
  671SOL    HW2 2013   1.658   1.838   1.480 -0.5594  0.9335  0.6748
  672SOL     OW 2014   0.432   0.627   2.381 -0.0857 -0.4815 -0.1218
  672SOL    HW1 2015   0.463   0.624   2.285 -2.0982  0.8430 -0.0016
  672SOL    HW2 2016   0.360   0.705   2.395 -0.2475  1.3059  0.2741
  673SOL     OW 2017   0.156   1.201   1.158 -0.1418  0.3942 -0.2169
  673SOL    HW1 2018   0.193   1.269   1.228 -1.0720  0.2898  0.3073
  673SOL    HW2 2019   0.232   1.141   1.121  2.2663  0.3892  0.9256
  674SOL     OW 2020   1.673   2.999   0.320  0.3397  0.4216 -0.0154
  674SOL    HW1 2021   1.613   3.084   0.310  0.7579 -1.8598  1.4643
  674SOL    HW2 2022   1.764   3.006   0.267  0.1333  1.2128 -3.0285
  675SOL     OW 2023   1.735   0.807   2.260 -0.0770 -0.1119  0.3801
  675SOL    HW1 2024   1.837   0.793   2.283 -0.3190  1.2618 -0.5322
  675SOL    HW2 2025   1.681   0.722   2.240  1.8321  0.4908  0.9789
  676SOL     OW 2026   2.542   1.485   1.928  0.3984  0.1665  0.0928
  676SOL    HW1 2027   2.472   1.457   1.860 -1.5581  0.6299 -0.1029
  676SOL    HW2 2028   2.541   1.416   2.012 -2.0545 -0.7911  0.2355
  677SOL     OW 2029   1.913   0.696   0.932 -0.5812 -0.8744  0.1142
  677SOL    HW1 2030   1.822   0.668   0.964  2.0778  0.3267 -1.6572
  677SOL    HW2 2031   1.982   0.645   0.982 -2.6450 -0.8441 -0.0770
  678SOL     OW 2032   0.069   0.744   1.613 -0.0696 -0.5229  0.2627
  678SOL    HW1 2033   0.171   0.751   1.633  1.1817  0.9756  0.3659
  678SOL    HW2 2034   0.014   0.711   1.696 -0.0261 -0.0198  0.2062
  679SOL     OW 2035   2.514   1.207   1.218  0.0510  0.5998  0.2009
  679SOL    HW1 2036   2.415   1.246   1.201 -0.5940  2.5252 -0.3250
  679SOL    HW2 2037   2.515   1.107   1.188 -0.4076  1.5981  0.4857
  680SOL     OW 2038   2.818   0.471   1.704 -0.4931  0.2590 -0.1378
  680SOL    HW1 2039   2.775   0.533   1.638  2.0046  0.6303  2.5008
  680SOL    HW2 2040   2.892   0.518   1.760 -0.9511  2.1920  1.5377
  681SOL     OW 2041   2.977   0.119   1.602  0.0038  0.2366 -0.2506
  681SOL    HW1 2042   3.023   0.125   1.511 -2.4851  1.2675  0.7181
  681SOL    HW2 2043   2.887   0.159   1.600  1.8090 -2.1119 -1.6967
  682SOL     OW 2044   0.746   0.066   1.339  0.5804  0.2192 -0.5539
  682SOL    HW1 2045   0.678   0.002   1.387  2.6902  0.1022 -2.1627
  682SOL    HW2 2046   0.770   0.040   1.243 -1.4027  1.7961  1.6720
  683SOL     OW 2047   1.390   0.219   2.182  0.0967  0.7632  0.4901
  683SOL    HW1 2048   1.420   0.264   2.268 -2.2096  2.0977 -2.0528
  683SOL    HW2 2049   1.454   0.225   2.101 -2.7825 -4.2837  0.1207
  684SOL     OW 2050   1.472   2.057   0.468  0.6439 -0.0411  0.1056
  684SOL    HW1 2051   1.500   2.007   0.552  0.8955  2.1026  1.0502
  684SOL    HW2 2052   1.378   2.035   0.425  0.4399  0.6858 -2.2911
  685SOL     OW 2053   2.191   2.100   1.932 -0.5402 -0.6858 -0.7274
  685SOL    HW1 2054   2.260   2.106   1.853  1.1643 -1.1797  1.0320
  685SOL    HW2 2055   2.227   2.086   2.025 -2.1025  1.8062  2.2565
  686SOL     OW 2056   1.492   1.847   2.772  0.1890  0.0778 -0.1720
  686SOL    HW1 2057   1.528   1.780   2.843  1.8911  0.7279 -0.0618
  686SOL    HW2 2058   1.408   1.814   2.722  0.2800 -0.4615 -3.6746
  687SOL     OW 2059   1.355   2.476   1.964  0.2138  0.2916 -0.2456
  687SOL    HW1 2060   1.314   2.379   1.964  0.3076 -0.5947  1.3726
  687SOL    HW2 2061   1.381   2.501   2.061 -3.0777  1.5853 -0.9199
  688SOL     OW 2062   2.009   1.516   1.778 -0.1290 -0.2727 -0.0260
  688SOL    HW1 2063   2.102   1.561   1.758  1.7294 -1.6037  2.6313
  688SOL    HW2 2064   1.968   1.470   1.698 -1.0323  0.1966  2.6997
  689SOL     OW 2065   2.393   1.066   2.799  0.0696  0.1566  0.1824
  689SOL    HW1 2066   2.303   1.009   2.802 -0.6198 -1.3367  4.9503
  689SOL    HW2 2067   2.468   1.023   2.858  1.7978 -2.5858 -2.6940
  690SOL     OW 2068   2.220   2.819   0.062  0.4501  0.2598  0.3565
  690SOL    HW1 2069   2.146   2.766   0.013  4.0961  2.1079  2.2939
  690SOL    HW2 2070   2.201   2.838   0.159 -2.4482  2.1646 -1.8576
  691SOL     OW 2071   2.630   0.408   2.122 -0.2692 -0.2539  0.3689
  691SOL    HW1 2072   2.686   0.319   2.113 -0.0676  3.5671  1.3572
  691SOL    HW2 2073   2.674   0.490   2.070  1.5398  0.0359  0.9209
  692SOL     OW 2074   2.693   1.241   0.745 -0.0586  0.7558  0.2446
  692SOL    HW1 2075   2.608   1.249   0.682  0.4902  0.4126 -1.7841
  692SOL    HW2 2076   2.748   1.328   0.744  2.9614  0.1787 -2.0513
  693SOL     OW 2077   2.818   2.920   0.641  0.1506 -0.3710  0.4521
  693SOL    HW1 2078   2.834   2.985   0.723  0.9017 -1.2290  0.7953
  693SOL    HW2 2079   2.784   2.962   0.551  1.9356 -0.9333 -1.1789
  694SOL     OW 2080   2.404   2.239   0.076  0.2039 -0.6981  0.1101
  694SOL    HW1 2081   2.385   2.332   0.122 -1.9397  1.2197 -1.2814
  694SOL    HW2 2082   2.330   2.165   0.095  1.4457 -1.1872  1.4571
  695SOL     OW 2083   0.565   3.002   1.492 -0.4137 -0.2721 -0.2916
  695SOL    HW1 2084   0.502   2.932   1.447 -0.9108 -0.3863  0.4625
  695SOL    HW2 2085   0.516   3.051   1.571 -1.2492 -2.3918  1.1923
  696SOL     OW 2086   2.821   2.070   0.743  0.4250 -0.1768 -1.0529
  696SOL    HW1 2087   2.897   1.999   0.753  0.9102  0.6325 -0.5289
  696SOL    HW2 2088   2.791   2.088   0.642  0.0704 -1.1701 -1.1346
  697SOL     OW 2089   1.594   1.990   1.844 -0.2841 -0.0536  0.5651
  697SOL    HW1 2090   1.669   1.923   1.871 -2.0559  0.8411 -0.2581
  697SOL    HW2 2091   1.635   2.083   1.835 -0.4586 -1.8857 -2.5397
  698SOL     OW 2092   2.925   0.397   2.763  0.7777 -0.1594  0.5040
  698SOL    HW1 2093   2.968   0.391   2.665  1.0843  0.0610 -1.7529
  698SOL    HW2 2094   2.973   0.328   2.823 -1.8810 -1.3548  0.5444
  699SOL     OW 2095   1.557   0.062   2.915  0.0166  0.3166 -0.0843
  699SOL    HW1 2096   1.521  -0.033   2.887  0.1861 -1.9688 -1.8668
  699SOL    HW2 2097   1.599   0.115   2.837  0.4703 -1.2548 -0.2597
  700SOL     OW 2098   0.990   2.339   1.352 -0.2337 -0.5014 -0.8092
  700SOL    HW1 2099   1.075   2.292   1.317  0.0044 -3.1088 -0.5240
  700SOL    HW2 2100   0.904   2.282   1.347  0.9177  0.8825 -0.2685
  701SOL     OW 2101   1.908   2.930   3.070 -0.5199 -0.1374  0.1438
  701SOL    HW1 2102   1.913   2.862   3.152  2.5822  0.2527  2.1900
  701SOL    HW2 2103   1.918   3.030   3.102 -4.0857  2.0786 -2.2542
  702SOL     OW 2104   2.089   1.338   1.957 -0.1427 -0.1766  0.0836
  702SOL    HW1 2105   2.171   1.274   1.931  0.7966 -0.8395 -0.4126
  702SOL    HW2 2106   2.064   1.401   1.877 -2.9644 -1.5504  1.5265
  703SOL     OW 2107   1.939   0.920   1.453  0.3338 -0.0340  0.0229
  703SOL    HW1 2108   1.911   0.838   1.513  0.7895 -2.4208 -2.0721
  703SOL    HW2 2109   2.012   0.978   1.506  2.1562  0.7349 -0.0331
  704SOL     OW 2110   0.302   2.027   1.702 -0.1445  0.4087 -0.3996
  704SOL    HW1 2111   0.354   1.987   1.783 -0.8567  1.8067  0.0779
  704SOL    HW2 2112   0.354   2.106   1.659  2.2034  0.8226 -1.5344
  705SOL     OW 2113   2.522   1.548   0.865  0.0983  0.1992  0.4167
  705SOL    HW1 2114   2.441   1.500   0.814 -2.8374  2.0679 -1.6186
  705SOL    HW2 2115   2.607   1.491   0.884 -1.5744 -0.1248 -0.0924
  706SOL     OW 2116   0.676   1.710   1.898 -0.6838 -0.1575 -0.0120
  706SOL    HW1 2117   0.703   1.608   1.919 -1.1017 -2.1400  2.3696
  706SOL    HW2 2118   0.737   1.778   1.946 -1.0670  0.5228 -0.5139
  707SOL     OW 2119   2.285   1.171   1.871  0.0542 -0.0546 -0.2952
  707SOL    HW1 2120   2.383   1.180   1.911  0.1164  0.5541  2.3758
  707SOL    HW2 2121   2.258   1.071   1.873  1.9958 -0.0946 -0.3524
  708SOL     OW 2122   3.012   0.552   3.056  0.2295  0.5571  0.1799
  708SOL    HW1 2123   3.040   0.607   2.969  4.6090 -0.7910 -1.8772
  708SOL    HW2 2124   2.994   0.449   3.037 -0.1377  0.2098  2.2387
  709SOL     OW 2125   1.850   1.841   0.280  0.1951 -0.5590  0.5645
  709SOL    HW1 2126   1.892   1.933   0.300  0.2821  2.5128  0.0683
  709SOL    HW2 2127   1.811   1.834   0.185 -0.9776 -1.3783  1.2080
  710SOL     OW 2128   1.682   1.615   2.374 -0.4008 -0.1103  0.0568
  710SOL    HW1 2129   1.769   1.588   2.322  0.6221  0.3678  0.5918
  710SOL    HW2 2130   1.685   1.568   2.466  1.8125  0.2193 -1.3097
  711SOL     OW 2131   2.592   2.944   1.066 -0.6274 -0.2338 -0.7837
  711SOL    HW1 2132   2.577   3.048   1.049 -1.3346  1.0968  0.3042
  711SOL    HW2 2133   2.695   2.916   1.075  0.8275 -0.6833  2.1093
  712SOL     OW 2134   1.377   2.185   1.967  0.0554  0.2731 -0.5378
  712SOL    HW1 2135   1.468   2.233   1.960 -1.4892 -1.6117 -0.0403
  712SOL    HW2 2136   1.346   2.138   1.881  1.3571 -2.0774  1.8874
  713SOL     OW 2137   2.806   1.451   2.515  0.2278 -0.6762  0.2264
  713SOL    HW1 2138   2.807   1.361   2.460  0.4084  0.3674 -0.0019
  713SOL    HW2 2139   2.715   1.461   2.564  1.2041 -2.8794  2.4676
  714SOL     OW 2140   2.670   0.453   2.392 -0.0146  0.2810 -0.4529
  714SOL    HW1 2141   2.599   0.434   2.465  0.5955  0.6429 -3.8358
  714SOL    HW2 2142   2.635   0.424   2.299  0.6717  0.7551  0.8435
  715SOL     OW 2143   1.553   2.014   1.107 -0.1132 -0.0523 -0.1531
  715SOL    HW1 2144   1.462   2.050   1.076  2.0540 -1.6083  0.3359
  715SOL    HW2 2145   1.570   2.025   1.211 -0.5586 -0.2137  2.3885
  716SOL     OW 2146   1.184   0.156   1.510 -0.4945  0.0358 -0.4517
  716SOL    HW1 2147   1.092   0.164   1.479 -2.0397 -1.5899  0.2774
  716SOL    HW2 2148   1.249   0.232   1.481 -0.5031  0.6951  0.3089
  717SOL     OW 2149   1.176   0.573   1.542  0.0912  0.0569 -0.2563
  717SOL    HW1 2150   1.264   0.618   1.565  0.9778  0.0333  1.4856
  717SOL    HW2 2151   1.173   0.534   1.444 -1.1399 -4.7973 -1.0623
  718SOL     OW 2152   0.694   0.875   0.994 -0.2552  0.6461  0.1542
  718SOL    HW1 2153   0.662   0.846   0.899 -0.4177 -0.7017  0.0409
  718SOL    HW2 2154   0.682   0.974   1.012  2.6871  1.5695 -0.9040
  719SOL     OW 2155   0.659   1.688   2.344 -1.0202  0.2916  0.6991
  719SOL    HW1 2156   0.730   1.749   2.395  0.2190 -0.0261 -0.2270
  719SOL    HW2 2157   0.572   1.668   2.391  2.9694 -0.8414 -2.8835
  720SOL     OW 2158   2.182   1.114   0.279 -0.1104  0.0309  0.5169
  720SOL    HW1 2159   2.213   1.036   0.224 -1.1014  1.1315  2.5736
  720SOL    HW2 2160   2.158   1.085   0.373 -1.4824  1.4803  0.2285
  721SOL     OW 2161   2.295   3.016   2.065 -0.1386  0.0307  0.0445
  721SOL    HW1 2162   2.220   3.036   1.995 -0.0189 -1.3837 -0.7906
  721SOL    HW2 2163   2.267   3.025   2.163  3.5076 -2.7435 -2.0353
  722SOL     OW 2164   2.273   1.593   0.506 -0.0267 -0.3743  0.4770
  722SOL    HW1 2165   2.349   1.546   0.450  0.9129  1.6521  0.6308
  722SOL    HW2 2166   2.202   1.649   0.450  0.1235 -0.2796  1.2940
  723SOL     OW 2167   2.623   2.714   1.894 -0.8359  0.8632 -0.0958
  723SOL    HW1 2168   2.655   2.780   1.971 -1.5211 -1.9820  1.0114
  723SOL    HW2 2169   2.526   2.684   1.907  0.2564 -1.3223  0.1421
  724SOL     OW 2170   0.491   2.496   2.402  0.3116 -0.3166  0.0357
  724SOL    HW1 2171   0.402   2.520   2.457  0.9449  0.1786  0.4505
  724SOL    HW2 2172   0.578   2.482   2.456  1.5243 -4.1131 -1.8040
  725SOL     OW 2173   2.342   2.745   1.479 -0.1079  0.4089 -0.3029
  725SOL    HW1 2174   2.406   2.808   1.425 -2.3324 -1.2876  1.8414
  725SOL    HW2 2175   2.383   2.652   1.501 -1.0400  2.0954 -0.1996
  726SOL     OW 2176   2.516   2.338   0.729  0.1770  0.6434 -0.3108
  726SOL    HW1 2177   2.495   2.433   0.684 -2.4012 -0.5921  1.5112
  726SOL    HW2 2178   2.487   2.265   0.665 -1.2914  0.0563 -0.4877
  727SOL     OW 2179   0.168   3.054   0.072 -0.3676 -0.1667 -0.0375
  727SOL    HW1 2180   0.209   2.961   0.076 -2.2458  1.9045 -0.9646
  727SOL    HW2 2181   0.077   3.060   0.022 -0.4960  1.6442 -1.6272
  728SOL     OW 2182   2.912   0.655   0.918  0.6424 -0.2735  0.1377
  728SOL    HW1 2183   2.846   0.676   0.842  2.0448 -1.7568 -0.9203
  728SOL    HW2 2184   2.863   0.654   1.011  0.6700 -0.0524  2.0787
  729SOL     OW 2185   3.072   2.536   0.715 -0.6621  0.4668 -0.0530
  729SOL    HW1 2186   3.043   2.450   0.766  1.1843  1.4243 -1.0841
  729SOL    HW2 2187   3.173   2.528   0.677  2.6461 -1.2880 -0.2225
  730SOL     OW 2188   2.616   0.690   0.861  0.3954  0.0755  0.0574
  730SOL    HW1 2189   2.594   0.791   0.877  1.5227  2.9403 -1.5018
  730SOL    HW2 2190   2.651   0.675   0.762  0.1169 -0.4130 -1.2729
  731SOL     OW 2191   0.016   2.135   2.414 -0.5266 -0.2787 -0.1859
  731SOL    HW1 2192   0.058   2.230   2.423  1.3630 -1.0060  0.2256
  731SOL    HW2 2193  -0.087   2.142   2.429 -0.3529 -0.0323  1.5433
  732SOL     OW 2194   1.223   2.825   1.979  0.1337 -0.0722 -0.2893
  732SOL    HW1 2195   1.201   2.782   2.072  4.4242 -0.5281 -0.0904
  732SOL    HW2 2196   1.225   2.748   1.909 -0.5472 -1.2134  3.0715
  733SOL     OW 2197   3.004   0.621   2.230 -0.1354  0.0877 -0.1463
  733SOL    HW1 2198   3.105   0.604   2.261 -0.6162 -1.0198  0.8271
  733SOL    HW2 2199   2.970   0.548   2.167  1.9045 -0.9628  2.0947
  734SOL     OW 2200   1.400   0.376   2.709  0.3419 -0.0348  0.0728
  734SOL    HW1 2201   1.388   0.472   2.748  0.9723  1.8421 -1.1434
  734SOL    HW2 2202   1.327   0.314   2.747 -1.5662  1.3827 -0.8534
  735SOL     OW 2203   2.896   2.635   2.306 -0.5945  0.3113  0.3346
  735SOL    HW1 2204   2.872   2.623   2.204 -0.9519 -1.3400  0.5581
  735SOL    HW2 2205   2.994   2.676   2.325  3.3039 -0.1584 -2.1415
  736SOL     OW 2206   0.902   0.379   2.578 -0.9103 -0.6661 -0.2716
  736SOL    HW1 2207   0.834   0.457   2.560 -0.7054  1.0685  2.8396
  736SOL    HW2 2208   0.915   0.306   2.509  0.5912  2.1958 -1.1769
  737SOL     OW 2209   2.648   0.441   2.813 -0.1774  0.0624  0.6417
  737SOL    HW1 2210   2.635   0.400   2.908 -0.8256 -3.9708  0.7405
  737SOL    HW2 2211   2.744   0.439   2.776 -1.2036 -0.5118  1.2981
  738SOL     OW 2212   1.684   1.246   2.893 -0.3899 -0.0711  0.1676
  738SOL    HW1 2213   1.787   1.242   2.888 -2.4011  0.5806  1.2981
  738SOL    HW2 2214   1.634   1.166   2.851 -0.9602  2.6859  0.0304
  739SOL     OW 2215   1.762   0.729   0.676 -0.3517  0.3916  0.3882
  739SOL    HW1 2216   1.791   0.723   0.777  0.0164 -1.9475  2.3384
  739SOL    HW2 2217   1.742   0.636   0.632  0.4133 -1.6759 -0.7262
  740SOL     OW 2218   1.986   1.945   2.379  0.1413  0.0363  0.2281
  740SOL    HW1 2219   2.030   1.861   2.415 -0.8462  2.4576 -0.0846
  740SOL    HW2 2220   1.926   1.910   2.300  2.6939  0.4991 -4.0875
  741SOL     OW 2221   2.578   0.150   2.527 -0.6779 -0.2680  0.6664
  741SOL    HW1 2222   2.679   0.142   2.546  0.5719  1.3903  2.5533
  741SOL    HW2 2223   2.561   0.143   2.424 -1.0188  0.6999  1.4692
  742SOL     OW 2224   2.185   1.383   0.174  0.5453  0.1329 -0.0228
  742SOL    HW1 2225   2.102   1.439   0.145 -1.8935 -0.9278  3.1385
  742SOL    HW2 2226   2.169   1.294   0.226 -2.4281  0.6132  1.6280
  743SOL     OW 2227   1.771   0.604   2.602  0.1192  0.6257 -0.2567
  743SOL    HW1 2228   1.769   0.546   2.516  1.7293 -0.5208 -0.7823
  743SOL    HW2 2229   1.724   0.687   2.583  3.7084 -3.5847  1.1176
  744SOL     OW 2230   2.661   2.022   0.089 -0.4994  0.4941  0.1080
  744SOL    HW1 2231   2.580   2.085   0.109 -0.4421  2.6833  0.4094
  744SOL    HW2 2232   2.664   1.936   0.141 -0.7883 -2.2675  1.4982
  745SOL     OW 2233   2.167   2.635   2.161  0.2000  0.4171  0.4376
  745SOL    HW1 2234   2.067   2.646   2.184  0.5098 -1.3572 -2.2679
  745SOL    HW2 2235   2.222   2.668   2.242 -1.7997 -0.1869  0.0641
  746SOL     OW 2236  -0.002   2.642   1.714 -0.0535 -0.4217 -0.4439
  746SOL    HW1 2237   0.057   2.561   1.715 -0.3624 -2.1334 -0.3839
  746SOL    HW2 2238   0.006   2.711   1.792 -1.6315  0.4751  0.1902
  747SOL     OW 2239   3.066   1.743   1.723  0.6582 -0.0587  0.4889
  747SOL    HW1 2240   3.019   1.650   1.703 -2.7246 -0.3134  1.1175
  747SOL    HW2 2241   3.145   1.771   1.663 -1.4111 -1.2268  2.2568
  748SOL     OW 2242   1.807   2.710   2.894  0.3948 -0.0137  0.0118
  748SOL    HW1 2243   1.840   2.801   2.939 -1.6916  2.3147 -0.1528
  748SOL    HW2 2244   1.704   2.703   2.877 -0.6315 -2.1016 -0.3342
  749SOL     OW 2245   1.351   3.016   0.863  0.5030 -0.0363 -0.1964
  749SOL    HW1 2246   1.255   2.974   0.865 -1.1614 -2.6355  0.2325
  749SOL    HW2 2247   1.409   2.978   0.791 -2.9019  4.0526  1.1576
  750SOL     OW 2248   2.317   0.208   1.840 -0.0463 -0.5445  0.4356
  750SOL    HW1 2249   2.322   0.277   1.758 -2.0507 -0.6935 -3.4851
  750SOL    HW2 2250   2.296   0.259   1.930  2.5822 -1.9611  0.8637
  751SOL     OW 2251   0.812   2.018   2.828  0.3165  0.4613 -0.3756
  751SOL    HW1 2252   0.887   2.054   2.889  0.3864 -4.3440 -1.0215
  751SOL    HW2 2253   0.719   2.050   2.853  1.4071  1.8553 -1.8121
  752SOL     OW 2254   1.328   0.798   1.268  0.0647 -0.0136 -0.2396
  752SOL    HW1 2255   1.381   0.887   1.282  2.2139 -3.1359  2.0090
  752SOL    HW2 2256   1.380   0.718   1.311 -0.6912 -0.5191 -0.6196
  753SOL     OW 2257   0.940   2.623   1.772  0.2212 -0.0630 -1.0849
  753SOL    HW1 2258   1.041   2.637   1.766 -3.0052  0.9372 -0.5500
  753SOL    HW2 2259   0.894   2.711   1.805 -0.4066  1.0611 -2.1691
  754SOL     OW 2260   1.154   1.168   3.002  0.0411  0.3714 -0.1442
  754SOL    HW1 2261   1.199   1.107   2.931  1.8957 -1.3012 -2.4536
  754SOL    HW2 2262   1.202   1.254   3.021 -1.0268  1.5915  0.0554
  755SOL     OW 2263   1.997   0.508   2.225 -0.2698 -0.1792  0.0370
  755SOL    HW1 2264   2.061   0.432   2.258 -0.2792  0.8968 -0.7390
  755SOL    HW2 2265   1.895   0.491   2.241 -3.2459  0.0036  0.3520
  756SOL     OW 2266   2.583   0.982   2.970  0.2344 -0.3438 -0.3021
  756SOL    HW1 2267   2.686   0.960   2.970 -0.1473  4.1771  3.2997
  756SOL    HW2 2268   2.520   0.910   3.010 -2.1120  1.1502 -2.1875
  757SOL     OW 2269   0.090   0.476   1.997  0.0740  0.7488 -0.0545
  757SOL    HW1 2270   0.146   0.407   1.950  2.5467 -0.8167 -0.8494
  757SOL    HW2 2271  -0.011   0.454   2.007  0.1213 -1.2880 -0.1192
  758SOL     OW 2272   2.254   0.134   1.469 -0.3531  0.3004  0.2236
  758SOL    HW1 2273   2.212   0.039   1.484  0.6563 -2.0164  0.1718
  758SOL    HW2 2274   2.295   0.146   1.375  0.7297 -0.3658 -0.3021
  759SOL     OW 2275   1.664   0.118   0.050  0.1821 -0.0053  0.0479
  759SOL    HW1 2276   1.631   0.086  -0.047 -0.1490 -0.8222  1.1360
  759SOL    HW2 2277   1.762   0.142   0.046  0.2182 -0.7717 -0.9755
  760SOL     OW 2278   2.618   2.064   2.824  0.0308  0.5247 -0.0286
  760SOL    HW1 2279   2.651   1.986   2.881 -1.7570  1.0514 -0.0990
  760SOL    HW2 2280   2.582   2.143   2.885  0.4452  0.0947 -0.5360
  761SOL     OW 2281   1.864   1.767   1.708  0.3827 -0.4160 -0.0873
  761SOL    HW1 2282   1.842   1.682   1.765  0.0899  2.1717 -0.1684
  761SOL    HW2 2283   1.802   1.780   1.622  2.4117  1.6833 -2.1829
  762SOL     OW 2284   0.493   2.348   0.962 -0.0162 -0.0904 -0.2759
  762SOL    HW1 2285   0.510   2.369   0.865 -1.9168  0.1167  0.9880
  762SOL    HW2 2286   0.556   2.400   1.029  1.6132 -0.3456  1.1810
  763SOL     OW 2287   2.084   1.586   2.975  0.1585 -0.1311 -0.1781
  763SOL    HW1 2288   2.180   1.540   2.987 -2.0482 -2.1869 -1.1042
  763SOL    HW2 2289   2.015   1.543   3.043  1.1580 -0.3836 -0.1348
  764SOL     OW 2290   0.669   0.589   0.768 -0.3425  0.8572  0.8574
  764SOL    HW1 2291   0.592   0.514   0.758 -1.7286 -0.2700  1.1024
  764SOL    HW2 2292   0.750   0.555   0.822 -1.4528  0.7644 -1.2367
  765SOL     OW 2293   0.748   0.227   0.794 -0.3714 -0.0668  0.3960
  765SOL    HW1 2294   0.809   0.290   0.736  0.7022  1.6595 -0.6452
  765SOL    HW2 2295   0.712   0.277   0.872  4.4430 -2.5742  0.0129
  766SOL     OW 2296   2.861   2.129   3.013 -0.0723 -0.3278  0.5238
  766SOL    HW1 2297   2.772   2.112   3.069 -0.4719  1.7809  0.7589
  766SOL    HW2 2298   2.915   2.209   3.053 -1.0202  0.6741  2.8749
  767SOL     OW 2299   2.793   1.671   0.593 -0.2038 -0.1405  0.1298
  767SOL    HW1 2300   2.694   1.694   0.601  3.5544 -2.1986 -0.0225
  767SOL    HW2 2301   2.852   1.749   0.632  0.4718 -0.9425  0.5287
  768SOL     OW 2302   0.973   0.095   0.211 -0.8070  0.5373  0.2272
  768SOL    HW1 2303   0.955   0.080   0.315 -0.8117 -0.3740 -0.2897
  768SOL    HW2 2304   1.066   0.063   0.192 -3.1456 -1.6298 -0.8771
  769SOL     OW 2305   1.124   1.893   2.316 -0.0652  0.4177 -0.4097
  769SOL    HW1 2306   1.023   1.906   2.326 -0.5780  0.4339 -1.0083
  769SOL    HW2 2307   1.166   1.866   2.410 -0.4339 -0.8129 -1.1073
  770SOL     OW 2308   0.191   1.201   2.295  0.0328  0.3701 -0.1696
  770SOL    HW1 2309   0.168   1.266   2.370  0.1022 -1.4307 -0.2113
  770SOL    HW2 2310   0.108   1.180   2.236  0.0557 -0.1827 -1.9259
  771SOL     OW 2311   3.039   2.856   1.898 -0.5245  0.7140 -0.5419
  771SOL    HW1 2312   2.993   2.885   1.809  0.3972 -1.5588 -1.8215
  771SOL    HW2 2313   3.013   2.918   1.981  1.5594  2.8766  0.8724
  772SOL     OW 2314   2.231   0.143   2.925 -0.4546 -0.1595 -0.1228
  772SOL    HW1 2315   2.291   0.106   2.847 -1.2018 -0.0690 -1.1758
  772SOL    HW2 2316   2.279   0.203   2.994  2.7094  0.4934  0.9925
  773SOL     OW 2317   0.669   2.122   2.406  0.3740  0.2280  0.0094
  773SOL    HW1 2318   0.627   2.178   2.327 -3.3203  1.8372  0.1808
  773SOL    HW2 2319   0.638   2.172   2.495  2.8746  1.6521  1.7685
  774SOL     OW 2320   2.065   0.012   2.599 -0.0020 -0.1289 -0.3424
  774SOL    HW1 2321   2.037   0.106   2.635  2.8867 -1.8114 -2.4565
  774SOL    HW2 2322   2.084  -0.060   2.669 -0.5085 -1.7388  1.2734
  775SOL     OW 2323   2.568   2.941   2.299 -0.6873 -0.1964 -0.3009
  775SOL    HW1 2324   2.542   3.044   2.309 -1.7637  1.7241 -2.3368
  775SOL    HW2 2325   2.648   2.915   2.358 -0.6434  0.7581  1.1979
  776SOL     OW 2326   0.013   1.257   0.230  0.7188 -0.3828  0.5489
  776SOL    HW1 2327  -0.046   1.218   0.155  0.7852  0.4841  0.1255
  776SOL    HW2 2328  -0.038   1.279   0.322 -0.6261  1.8798  1.6333
  777SOL     OW 2329   0.380   2.852   0.343 -0.0313 -0.7678  0.3250
  777SOL    HW1 2330   0.286   2.878   0.309  2.4605  0.0671 -0.6261
  777SOL    HW2 2331   0.453   2.879   0.274 -2.4575 -1.0174  1.9401
  778SOL     OW 2332   1.351   1.986   0.165 -0.2496 -0.1682  0.0108
  778SOL    HW1 2333   1.272   1.985   0.229  0.8662  0.6473 -1.6137
  778SOL    HW2 2334   1.381   2.078   0.126  2.5752  1.0616 -0.3516
  779SOL     OW 2335   0.196   0.873   0.520 -0.3403 -0.3962  0.0226
  779SOL    HW1 2336   0.155   0.784   0.478 -1.1563  0.4463  0.3950
  779SOL    HW2 2337   0.121   0.924   0.570 -1.6295  0.0137  1.7160
  780SOL     OW 2338   0.095   0.270   2.389 -0.1993 -0.5374 -0.2817
  780SOL    HW1 2339   0.061   0.364   2.417 -3.7417  0.3659 -2.0807
  780SOL    HW2 2340   0.201   0.271   2.373 -0.0349  1.7172 -0.2975
  781SOL     OW 2341   0.657   1.653   1.518  0.3014  0.2784 -0.3601
  781SOL    HW1 2342   0.712   1.587   1.577 -0.1414  0.2176 -1.3467
  781SOL    HW2 2343   0.556   1.623   1.505 -0.0156 -0.4943 -2.5569
  782SOL     OW 2344   2.581   0.093   0.942 -0.3009 -1.0921  0.4322
  782SOL    HW1 2345   2.538   0.119   0.849  0.9497 -0.6161  2.0876
  782SOL    HW2 2346   2.587   0.183   1.000  0.1297  3.2360  0.3176
  783SOL     OW 2347   2.791   0.707   2.485  0.3711  0.0601  0.0193
  783SOL    HW1 2348   2.759   0.739   2.577 -1.8824  1.8018  1.1057
  783SOL    HW2 2349   2.766   0.607   2.460 -0.7564 -3.6705  0.6428
  784SOL     OW 2350   1.452   2.211   0.041 -0.3620  0.4107  0.5073
  784SOL    HW1 2351   1.500   2.283   0.099 -0.1446 -2.9749 -2.4346
  784SOL    HW2 2352   1.431   2.246  -0.054  1.2510  0.5762 -2.0557
  785SOL     OW 2353   2.113   0.317   0.066  0.2022  0.3944  0.1774
  785SOL    HW1 2354   2.030   0.296   0.122 -2.1622  0.7422  0.8591
  785SOL    HW2 2355   2.107   0.415   0.024 -0.2940  2.6551 -1.2496
  786SOL     OW 2356   2.054   2.183   2.298 -0.1171  0.4921 -0.1943
  786SOL    HW1 2357   2.032   2.088   2.337  0.4140 -2.5096 -0.3507
  786SOL    HW2 2358   2.111   2.194   2.215 -4.3948  1.0620  0.6555
  787SOL     OW 2359   1.334   0.475   0.961 -0.1272  0.3478  0.4721
  787SOL    HW1 2360   1.286   0.557   1.004 -1.2832  2.6367  0.9944
  787SOL    HW2 2361   1.369   0.490   0.864 -0.8162  0.5094  2.4110
  788SOL     OW 2362   1.277   0.416   0.088 -0.4705  0.4544  0.5043
  788SOL    HW1 2363   1.175   0.390   0.067  0.4877 -0.0337 -3.3391
  788SOL    HW2 2364   1.275   0.519   0.126 -1.6887  2.7250  1.6338
  789SOL     OW 2365   2.557   0.068   1.951 -0.5718  0.6791 -0.0539
  789SOL    HW1 2366   2.475   0.125   1.928  1.1776  0.0077  1.1631
  789SOL    HW2 2367   2.566  -0.033   1.905 -1.6429 -2.4121 -0.0810
  790SOL     OW 2368   2.635   2.799   0.811  0.3835 -0.3183  0.2650
  790SOL    HW1 2369   2.708   2.824   0.741  1.3609  0.4577  2.8969
  790SOL    HW2 2370   2.650   2.852   0.894  1.0764 -2.9110  0.2931
  791SOL     OW 2371   1.917   1.198   0.179  0.4951  0.1545 -0.1888
  791SOL    HW1 2372   1.817   1.178   0.203  3.5686  0.0194  1.9374
  791SOL    HW2 2373   1.983   1.136   0.235  0.1235 -2.1551 -0.1455
  792SOL     OW 2374   0.452   1.792   2.192  0.0789  0.3958  0.0999
  792SOL    HW1 2375   0.548   1.757   2.219 -0.0437  1.3063  0.0410
  792SOL    HW2 2376   0.386   1.767   2.268  0.7683 -1.3179  1.2426
  793SOL     OW 2377   2.095   1.545   2.136 -0.1164  0.0123 -0.0622
  793SOL    HW1 2378   2.176   1.591   2.091 -1.3215  1.6859 -3.9910
  793SOL    HW2 2379   2.084   1.446   2.101  1.1440 -2.4302 -1.4677
  794SOL     OW 2380   0.520   1.405   2.346 -0.1196 -0.4664  0.0303
  794SOL    HW1 2381   0.496   1.410   2.247 -0.1731  0.2791 -1.0035
  794SOL    HW2 2382   0.495   1.489   2.398  0.7589  0.4900  1.5532
  795SOL     OW 2383   2.504   2.248   1.849 -0.2588 -0.0800  0.0164
  795SOL    HW1 2384   2.491   2.211   1.943 -0.1809 -0.3071 -0.1114
  795SOL    HW2 2385   2.435   2.206   1.784 -0.1654 -0.1612 -0.9413
  796SOL     OW 2386   3.084   1.125   2.685 -0.5051  0.0728  0.3540
  796SOL    HW1 2387   2.980   1.128   2.709 -1.9571 -1.2226 -0.6272
  796SOL    HW2 2388   3.142   1.146   2.771  1.0068 -0.4442  0.3127
  797SOL     OW 2389   0.745   0.643   1.391  0.3464  0.0539  0.3087
  797SOL    HW1 2390   0.830   0.680   1.442  2.3506  0.1575 -0.1474
  797SOL    HW2 2391   0.676   0.716   1.360  0.0113  0.7933  0.3843
  798SOL     OW 2392   1.267   0.309   1.166  0.0389 -0.3164  0.5179
  798SOL    HW1 2393   1.330   0.303   1.249 -0.2659 -2.5624 -1.0128
  798SOL    HW2 2394   1.304   0.376   1.091  2.8820  2.4149 -3.2139
  799SOL     OW 2395   1.961   2.723   1.048 -0.1424  0.1576 -0.0245
  799SOL    HW1 2396   1.916   2.683   1.129  4.1768 -1.0482 -0.9472
  799SOL    HW2 2397   1.911   2.712   0.958 -0.1615 -2.1648 -3.1918
  800SOL     OW 2398   3.039   0.642   1.837 -0.4714 -0.0542  0.1492
  800SOL    HW1 2399   3.015   0.728   1.889  0.8987  1.1551  1.6913
  800SOL    HW2 2400   3.095   0.573   1.886  0.9428 -1.1827 -0.0834
  801SOL     OW 2401   1.988   2.234   0.098  0.1966 -0.1096 -0.5496
  801SOL    HW1 2402   1.903   2.217   0.035 -0.5246  2.7505 -1.7100
  801SOL    HW2 2403   2.066   2.166   0.085  0.9532 -1.1275 -0.7864
  802SOL     OW 2404   0.707   0.828   2.561 -0.1644  0.0522 -0.6491
  802SOL    HW1 2405   0.770   0.788   2.485  0.1517 -0.2596 -1.0265
  802SOL    HW2 2406   0.624   0.868   2.522  0.8011 -1.1435 -1.6346
  803SOL     OW 2407   0.941   0.054   0.854 -0.1475  0.3859 -0.1253
  803SOL    HW1 2408   1.041   0.086   0.851  1.3717 -1.2316  1.0095
  803SOL    HW2 2409   0.864   0.122   0.827  0.2811  4.6479 -0.6883
  804SOL     OW 2410   0.274   0.045   2.133 -0.3493  0.2212 -0.3204
  804SOL    HW1 2411   0.291   0.144   2.159  2.6262 -3.0526  3.4091
  804SOL    HW2 2412   0.219   0.031   2.046  0.8316  1.6717  0.4964
  805SOL     OW 2413   2.391   0.266   0.357 -0.0730  0.0778  0.2102
  805SOL    HW1 2414   2.464   0.321   0.402 -1.3829  0.5820  0.3284
  805SOL    HW2 2415   2.402   0.253   0.256  1.5385 -1.3190  1.0102
  806SOL     OW 2416   0.626   2.438   1.698  0.2206  0.2302  0.4126
  806SOL    HW1 2417   0.606   2.539   1.714  0.3357  0.0549  0.7136
  806SOL    HW2 2418   0.728   2.423   1.680  0.7611  1.2750 -0.3913
  807SOL     OW 2419   2.470   0.897   0.399 -0.0308 -0.3536 -0.6319
  807SOL    HW1 2420   2.562   0.897   0.450  0.2054  0.7452  1.4816
  807SOL    HW2 2421   2.467   0.945   0.307 -2.4117 -1.1813  0.1231
  808SOL     OW 2422   0.565   2.043   2.939 -0.5744  0.1039 -0.5589
  808SOL    HW1 2423   0.538   2.104   3.019  1.4663  1.5785  0.2554
  808SOL    HW2 2424   0.553   1.938   2.959  1.6391 -1.7746  1.3146
  809SOL     OW 2425   2.703   1.950   1.937 -0.0220  0.2617 -0.1553
  809SOL    HW1 2426   2.800   1.984   1.950  0.0420 -0.5764 -0.0599
  809SOL    HW2 2427   2.671   1.971   1.840 -0.7187 -1.1881  0.1310
  810SOL     OW 2428   2.101   1.040   0.535 -0.0168  0.7335 -0.3027
  810SOL    HW1 2429   2.098   0.958   0.600  0.0877 -0.2870  0.2082
  810SOL    HW2 2430   2.044   1.113   0.576 -0.2612 -1.4296  0.8045
  811SOL     OW 2431   1.356   2.506   1.252 -0.4382 -0.2638 -0.3013
  811SOL    HW1 2432   1.355   2.405   1.281 -1.6713  1.4001  1.4528
  811SOL    HW2 2433   1.262   2.543   1.257 -0.2691  0.9149  0.8179
  812SOL     OW 2434   1.423   0.816   1.922 -0.4371 -0.5948  0.3787
  812SOL    HW1 2435   1.507   0.872   1.942 -0.8123  1.9952  1.3166
  812SOL    HW2 2436   1.336   0.870   1.925  2.1097  4.6349  1.4228
  813SOL     OW 2437   1.752   2.066   2.486 -0.6512 -0.3347  0.3706
  813SOL    HW1 2438   1.829   1.998   2.467 -1.4046  0.2218 -0.0232
  813SOL    HW2 2439   1.683   2.084   2.411  1.3402  0.0358  2.9014
  814SOL     OW 2440   2.913   1.521   2.856  0.5047  0.0921  0.0236
  814SOL    HW1 2441   2.990   1.514   2.927  2.3201  0.2341  0.0848
  814SOL    HW2 2442   2.917   1.609   2.801  0.0768  0.6908 -0.2252
  815SOL     OW 2443   2.166   2.913   2.797 -0.4480  0.5052  0.0407
  815SOL    HW1 2444   2.130   2.853   2.877 -0.2289  0.7101  1.1584
  815SOL    HW2 2445   2.266   2.932   2.791  2.0872 -0.1913 -1.6250
  816SOL     OW 2446   1.641   0.324   1.653  0.0547  0.0210 -0.4866
  816SOL    HW1 2447   1.662   0.222   1.675  0.9365  0.5946 -0.5920
  816SOL    HW2 2448   1.558   0.356   1.700  0.5060 -1.2700 -0.8901
  817SOL     OW 2449   0.410   1.233   2.553 -0.2346 -0.0298  0.4642
  817SOL    HW1 2450   0.309   1.257   2.553 -0.3239 -0.5858  1.7549
  817SOL    HW2 2451   0.465   1.276   2.475  2.4719  1.4183 -1.3297
  818SOL     OW 2452   1.929   0.820   0.475 -0.2936  0.4133 -0.2285
  818SOL    HW1 2453   1.961   0.919   0.478 -0.9171 -0.4552 -1.2054
  818SOL    HW2 2454   1.869   0.788   0.553 -2.4894 -1.2440 -0.3513
  819SOL     OW 2455   2.751   2.960   3.003 -0.2404  0.6557  0.0947
  819SOL    HW1 2456   2.816   2.890   2.969  0.3050  0.8671 -1.2258
  819SOL    HW2 2457   2.657   2.941   2.974  1.3639  0.2980  0.2711
  820SOL     OW 2458   1.271   1.103   0.662  0.2054 -0.2222  0.7035
  820SOL    HW1 2459   1.251   1.204   0.680 -0.2632 -1.5712  0.0733
  820SOL    HW2 2460   1.240   1.041   0.731 -3.2158  0.9407  1.9424
  821SOL     OW 2461   3.081   1.337   0.657 -0.0840 -0.0545  0.0444
  821SOL    HW1 2462   3.079   1.395   0.744 -2.4663  0.0636  1.0954
  821SOL    HW2 2463   3.166   1.360   0.610 -1.3561  1.1970 -1.3333
  822SOL     OW 2464   2.540   1.751   2.473  0.1926 -0.1501 -0.0222
  822SOL    HW1 2465   2.550   1.841   2.521  0.1278 -0.3025  0.0256
  822SOL    HW2 2466   2.476   1.763   2.391  0.4206 -0.6464  1.2060
  823SOL     OW 2467   2.097   0.869   1.195 -0.2055  0.6693  0.0846
  823SOL    HW1 2468   2.080   0.860   1.294  1.6077  1.7656  0.7176
  823SOL    HW2 2469   2.021   0.919   1.144 -2.6050  0.7072  0.7458
  824SOL     OW 2470   0.191   2.072   2.787  0.4040 -0.1122  0.1987
  824SOL    HW1 2471   0.159   2.007   2.855  0.7469  0.0043 -2.4572
  824SOL    HW2 2472   0.249   2.018   2.720  0.5578  1.9136  1.3449
  825SOL     OW 2473   1.279   1.085   0.265  0.4396 -0.6382 -0.6290
  825SOL    HW1 2474   1.268   1.190   0.266 -0.5209  2.8768 -1.9597
  825SOL    HW2 2475   1.236   1.041   0.346 -0.9625  0.5231  0.0710
  826SOL     OW 2476   1.894   0.697   1.622  0.0914  0.4092  0.3681
  826SOL    HW1 2477   1.979   0.637   1.638 -1.7076 -1.3781  1.5641
  826SOL    HW2 2478   1.831   0.647   1.552 -0.2354  0.0041  0.8532
  827SOL     OW 2479   0.665   1.310   0.282 -0.4021 -1.1535 -0.4281
  827SOL    HW1 2480   0.729   1.241   0.243  0.6336 -0.8640  0.8097
  827SOL    HW2 2481   0.634   1.301   0.381  1.6298  0.4001 -0.1278
  828SOL     OW 2482   2.505   0.072   1.593 -0.0598  0.3699  0.0854
  828SOL    HW1 2483   2.419   0.121   1.563  1.7820  0.1720 -1.4551
  828SOL    HW2 2484   2.493  -0.010   1.656  2.3019 -0.9399 -0.7815
  829SOL     OW 2485   2.801   2.448   2.993 -0.5124  0.4968  0.5699
  829SOL    HW1 2486   2.708   2.404   2.979 -1.3778  0.8567  1.2282
  829SOL    HW2 2487   2.795   2.528   3.060  0.6139 -0.1390 -0.8528
  830SOL     OW 2488   2.853   0.936   2.992 -0.0645 -0.3311  0.3845
  830SOL    HW1 2489   2.891   1.026   3.015 -0.1943 -1.6417 -0.8344
  830SOL    HW2 2490   2.850   0.869   3.066  1.1593  1.1318 -0.6568
  831SOL     OW 2491   0.106   0.633   0.434 -0.2655  0.0130 -0.3669
  831SOL    HW1 2492   0.100   0.565   0.512  1.1971  1.5230  0.3982
  831SOL    HW2 2493   0.130   0.581   0.351 -0.8318  0.6299  1.7967
  832SOL     OW 2494   1.770   0.744   3.030  0.0665  0.3532 -0.4671
  832SOL    HW1 2495   1.676   0.782   3.010 -0.2607 -0.9237  0.4775
  832SOL    HW2 2496   1.770   0.641   3.038  0.3769 -1.5629 -1.3029
  833SOL     OW 2497   2.419   2.177   0.531  0.1249  0.2982  0.1475
  833SOL    HW1 2498   2.323   2.175   0.502  1.6510  0.8911  2.9820
  833SOL    HW2 2499   2.474   2.090   0.512 -1.7667 -0.2061  0.9389
  834SOL     OW 2500   0.206   0.214   0.535  0.0940  0.3135  0.4116
  834SOL    HW1 2501   0.211   0.128   0.591 -0.5643  0.3047  0.9373
  834SOL    HW2 2502   0.198   0.201   0.426  2.6876 -0.9811  0.3482
  835SOL     OW 2503   2.399   1.556   1.146 -0.0758 -0.5859 -0.4015
  835SOL    HW1 2504   2.423   1.638   1.203  1.0504  1.0778 -1.0350
  835SOL    HW2 2505   2.455   1.549   1.055  0.8084  2.2031  2.3351
  836SOL     OW 2506   1.602   0.819   2.521 -0.1443  0.1615  0.3200
  836SOL    HW1 2507   1.498   0.822   2.503  1.1275 -2.3263 -0.7398
  836SOL    HW2 2508   1.653   0.824   2.431 -1.6766 -2.4046  0.4045
  837SOL     OW 2509   1.732   0.127   0.586 -0.3830 -0.2268 -0.5979
  837SOL    HW1 2510   1.660   0.154   0.657  1.9128  0.2713 -0.9878
  837SOL    HW2 2511   1.706   0.156   0.494 -1.2863 -2.0267 -0.3802
  838SOL     OW 2512   1.148   1.553   2.800  0.4210  0.1497  0.4195
  838SOL    HW1 2513   1.140   1.528   2.901  0.0796  0.6769  0.3783
  838SOL    HW2 2514   1.107   1.485   2.731  1.5809 -1.6417  0.1803
  839SOL     OW 2515   1.649   0.338   0.987  0.6397 -0.0680 -0.2470
  839SOL    HW1 2516   1.667   0.380   1.078 -1.7814  0.2974 -2.0637
  839SOL    HW2 2517   1.598   0.249   0.999 -0.5283  1.1669 -0.8045
  840SOL     OW 2518   2.495   2.946   1.764  0.6304 -0.4767  0.2749
  840SOL    HW1 2519   2.398   2.915   1.750 -0.0405 -0.4647  0.3592
  840SOL    HW2 2520   2.557   2.873   1.803 -0.5554  1.3873 -2.9432
  841SOL     OW 2521   1.519   0.844   2.970 -0.6693 -0.0760 -0.0959
  841SOL    HW1 2522   1.456   0.886   3.039 -0.5155 -0.7415 -1.6260
  841SOL    HW2 2523   1.506   0.896   2.877 -1.4317  1.8795  2.4073
  842SOL     OW 2524   0.828   1.545   0.925  0.0451  0.7914  0.5057
  842SOL    HW1 2525   0.793   1.629   0.974  1.0641  1.2500  1.8613
  842SOL    HW2 2526   0.761   1.462   0.921 -1.3221 -0.1405  3.6303
  843SOL     OW 2527   0.039   0.043   1.380 -0.1517  0.2053  0.1473
  843SOL    HW1 2528   0.125   0.076   1.429  2.1066 -0.9727  2.1245
  843SOL    HW2 2529   0.026  -0.058   1.379  2.6328  2.1577  0.5563
  844SOL     OW 2530   0.808   2.491   0.230  0.2538 -0.2498  0.7361
  844SOL    HW1 2531   0.765   2.483   0.324  0.6815 -2.8823  1.0507
  844SOL    HW2 2532   0.769   2.563   0.164  1.0196  1.5064 -0.2548
  845SOL     OW 2533   1.620   2.925   1.380 -0.2829 -0.1598 -0.3634
  845SOL    HW1 2534   1.709   2.943   1.429 -0.4864  1.3889  1.3229
  845SOL    HW2 2535   1.565   2.854   1.427  1.5599  1.3996  0.0250
  846SOL     OW 2536   1.553   2.891   0.701 -0.2934 -0.0395 -0.1578
  846SOL    HW1 2537   1.575   2.860   0.601  2.1502  0.4661 -1.2476
  846SOL    HW2 2538   1.636   2.932   0.753  1.3144  1.5451 -0.3545
  847SOL     OW 2539   2.046   1.664   0.340  0.3221 -0.0622 -0.1979
  847SOL    HW1 2540   2.014   1.560   0.335  1.5468 -4.1422  0.0419
  847SOL    HW2 2541   1.974   1.732   0.319  2.1464 -0.6044 -4.8204
  848SOL     OW 2542   2.464   0.885   2.597 -0.3459  0.2434 -0.4195
  848SOL    HW1 2543   2.430   0.957   2.663 -0.7106  0.4162 -1.2591
  848SOL    HW2 2544   2.389   0.816   2.581  1.3868 -2.7308 -1.2151
  849SOL     OW 2545   2.611   0.862   2.347  0.3163  0.0206  0.0563
  849SOL    HW1 2546   2.703   0.818   2.365 -1.2199 -2.2696  0.5707
  849SOL    HW2 2547   2.547   0.864   2.432 -1.5631 -0.5823  0.3806
  850SOL     OW 2548   1.531   0.162   1.281 -0.1167 -0.6215  0.4827
  850SOL    HW1 2549   1.525   0.134   1.183  2.5352  2.8678  2.0036
  850SOL    HW2 2550   1.534   0.077   1.336 -1.1215  2.9662  2.5064
  851SOL     OW 2551   0.482   1.797   0.555 -0.3312  0.1418  0.9832
  851SOL    HW1 2552   0.551   1.870   0.574 -0.6724 -0.0581 -0.2371
  851SOL    HW2 2553   0.443   1.809   0.460  2.1054 -0.8546  0.4445
  852SOL     OW 2554   0.796   2.122   1.645  0.2558  0.0128 -0.5378
  852SOL    HW1 2555   0.817   2.222   1.621 -2.0276  2.1911  1.4110
  852SOL    HW2 2556   0.738   2.125   1.736 -1.3060  0.0399 -0.3533
  853SOL     OW 2557   2.525   1.516   2.598 -0.2834 -0.3684 -0.3687
  853SOL    HW1 2558   2.470   1.434   2.572 -0.8471  1.8669  0.3725
  853SOL    HW2 2559   2.524   1.600   2.542 -0.0369  0.4186  1.1694
  854SOL     OW 2560   2.368   1.411   1.716 -0.0965  0.0609  0.1729
  854SOL    HW1 2561   2.436   1.375   1.643 -0.7826 -1.2577  0.4837
  854SOL    HW2 2562   2.299   1.340   1.738 -1.7940  0.9311  0.2960
  855SOL     OW 2563   2.013   2.419   1.009  0.1150  0.0737 -0.7504
  855SOL    HW1 2564   2.011   2.507   0.953  0.1294 -0.9858  1.0067
  855SOL    HW2 2565   2.074   2.433   1.090 -2.1719  2.7284 -4.7205
  856SOL     OW 2566   1.322   1.472   0.958 -0.0539  0.6517  0.3882
  856SOL    HW1 2567   1.368   1.564   0.977 -1.1516  0.3021 -0.8040
  856SOL    HW2 2568   1.230   1.465   0.997  0.8435 -0.2413 -1.2867
  857SOL     OW 2569   3.036   2.713   0.942  0.8316 -0.3024  0.0172
  857SOL    HW1 2570   3.026   2.682   0.841 -1.0093 -1.0495 -0.9919
  857SOL    HW2 2571   3.128   2.731   0.972 -2.2485  0.7515 -3.3570
  858SOL     OW 2572   2.323   2.104   1.697 -0.3222  0.1360 -0.3947
  858SOL    HW1 2573   2.234   2.101   1.642 -1.4201  0.2545  2.7317
  858SOL    HW2 2574   2.390   2.027   1.682 -1.5100 -1.3462 -2.3892
  859SOL     OW 2575   2.483   0.516   1.032 -0.1181 -0.4186 -0.0561
  859SOL    HW1 2576   2.544   0.574   0.966 -2.2628 -0.3559 -0.6452
  859SOL    HW2 2577   2.525   0.427   1.066 -0.8839  0.6029  0.5877
  860SOL     OW 2578   1.975   2.786   0.420  0.1520  0.0109  0.1003
  860SOL    HW1 2579   1.934   2.765   0.334 -1.0938  0.0083  0.9680
  860SOL    HW2 2580   2.071   2.828   0.418 -1.2760 -0.5064  0.9187
  861SOL     OW 2581   1.008   2.420   2.868 -0.1596  0.3386  0.2645
  861SOL    HW1 2582   1.009   2.524   2.862  1.8021  2.0313  0.9589
  861SOL    HW2 2583   1.055   2.387   2.955  0.2914  0.3603  1.9891
  862SOL     OW 2584   2.853   2.537   1.622 -0.2504 -0.2093 -0.1962
  862SOL    HW1 2585   2.943   2.588   1.642 -0.3555  1.5238 -0.7659
  862SOL    HW2 2586   2.794   2.595   1.558 -0.0422  2.5431  0.0911
  863SOL     OW 2587   1.851   2.730   0.180 -0.1371  0.2216 -0.6379
  863SOL    HW1 2588   1.885   2.632   0.194 -2.0854 -0.4313  1.6012
  863SOL    HW2 2589   1.749   2.734   0.149 -0.3390  0.0206 -1.6520
  864SOL     OW 2590   1.957   1.220   2.844 -0.4030 -0.2445  0.2490
  864SOL    HW1 2591   1.953   1.168   2.758 -0.2710  0.2555  1.7052
  864SOL    HW2 2592   2.016   1.172   2.915  2.4159  1.2778 -1.4677
  865SOL     OW 2593   2.175   1.889   0.663  0.0211 -0.4737 -0.0627
  865SOL    HW1 2594   2.239   1.887   0.747 -2.3994 -1.6602  1.4576
  865SOL    HW2 2595   2.094   1.827   0.677 -2.1457  1.7110 -1.1497
  866SOL     OW 2596   2.858   2.899   0.981  0.5374 -0.1630 -0.4389
  866SOL    HW1 2597   2.877   2.977   0.913 -0.6640 -2.4928 -0.6782
  866SOL    HW2 2598   2.926   2.824   0.971 -0.2671  1.5465  0.8273
  867SOL     OW 2599   0.406   1.426   0.876 -0.5544  0.9808  0.4535
  867SOL    HW1 2600   0.371   1.334   0.839 -0.5519 -1.7236 -0.6790
  867SOL    HW2 2601   0.365   1.501   0.819  0.8788 -3.1674  1.3752
  868SOL     OW 2602   0.772   1.894   2.068  0.4434 -0.0803 -0.8081
  868SOL    HW1 2603   0.754   1.911   2.167 -1.2722 -0.9756 -2.5633
  868SOL    HW2 2604   0.740   1.975   2.014  0.0747  2.5546 -1.5067
  869SOL     OW 2605   2.532   1.926   1.669 -0.1306 -0.1317 -0.1939
  869SOL    HW1 2606   2.598   2.000   1.639 -2.5838 -0.7433  2.2416
  869SOL    HW2 2607   2.572   1.826   1.677 -0.2679 -1.8735  1.3880
  870SOL     OW 2608   2.265   2.692   1.218 -0.5242  0.1774  0.6326
  870SOL    HW1 2609   2.231   2.597   1.195  0.3515  0.0293  1.9466
  870SOL    HW2 2610   2.295   2.693   1.321  0.4199 -0.1367 -3.1192
  871SOL     OW 2611   3.071   2.239   0.567 -0.8500 -0.1046 -0.1343
  871SOL    HW1 2612   3.025   2.294   0.645 -0.6526 -0.0109 -0.8379
  871SOL    HW2 2613   3.020   2.253   0.476  1.3305 -0.7562  0.2344
  872SOL     OW 2614   2.097   0.526   1.710  0.0684  0.4972 -0.2091
  872SOL    HW1 2615   2.086   0.547   1.811  0.8865  0.8575  1.3837
  872SOL    HW2 2616   2.192   0.497   1.683 -0.8446 -3.3163  1.4602
  873SOL     OW 2617   1.723   2.128   3.070 -0.2643 -0.4132  0.0887
  873SOL    HW1 2618   1.649   2.159   3.132 -1.2179  0.9836 -0.9603
  873SOL    HW2 2619   1.704   2.144   2.971 -1.2859 -0.8788  0.4937
  874SOL     OW 2620   0.673   2.447   0.735  0.0585 -0.1434  0.2371
  874SOL    HW1 2621   0.685   2.530   0.799 -0.3178  1.7602 -1.2519
  874SOL    HW2 2622   0.748   2.380   0.736 -0.0707  1.6699 -1.9398
  875SOL     OW 2623   2.313   1.488   1.409  0.3428 -0.6708 -0.2501
  875SOL    HW1 2624   2.405   1.518   1.441 -3.9009 -0.2777 -2.2476
  875SOL    HW2 2625   2.299   1.504   1.311 -0.8002 -0.8212 -0.2694
  876SOL     OW 2626   0.053   2.304   2.693 -0.3767 -0.2835  0.1504
  876SOL    HW1 2627   0.113   2.221   2.712 -0.5169 -1.5449  2.2832
  876SOL    HW2 2628   0.080   2.381   2.760  2.1169 -2.8133 -0.7909
  877SOL     OW 2629   2.951   2.686   0.506 -0.2894 -0.2985  0.7708
  877SOL    HW1 2630   2.935   2.781   0.538 -2.5219  0.1195 -0.4304
  877SOL    HW2 2631   2.984   2.627   0.581 -0.0255  0.8692  0.3657
  878SOL     OW 2632   2.783   1.522   2.229 -0.0387 -0.5703 -0.2256
  878SOL    HW1 2633   2.770   1.588   2.152  1.4801  0.0518 -0.3873
  878SOL    HW2 2634   2.766   1.560   2.325 -0.0238 -1.1306  0.5587
  879SOL     OW 2635   2.418   0.105   1.215  0.1130  0.3020 -0.3676
  879SOL    HW1 2636   2.423   0.009   1.255 -1.2747  1.0509  0.8546
  879SOL    HW2 2637   2.361   0.107   1.129  1.3177 -0.3729 -1.9302
  880SOL     OW 2638   0.784   0.499   2.210  0.2089 -0.2240 -0.1482
  880SOL    HW1 2639   0.733   0.438   2.276 -0.9212  1.6367  1.1898
  880SOL    HW2 2640   0.848   0.441   2.155  2.0583 -2.3170  2.6996
  881SOL     OW 2641   0.905   0.061   0.481 -0.3327 -0.4704 -0.1040
  881SOL    HW1 2642   0.959  -0.022   0.511  0.0254 -0.2525  1.7771
  881SOL    HW2 2643   0.801   0.053   0.489  1.6004  0.3323  2.7121
  882SOL     OW 2644   2.709   1.694   1.690 -0.3485 -0.3624 -0.4803
  882SOL    HW1 2645   2.799   1.676   1.640  1.2674 -0.7731 -1.9877
  882SOL    HW2 2646   2.728   1.691   1.794 -2.4230 -1.0179 -1.6386
  883SOL     OW 2647   0.875   0.521   0.931  0.0178 -0.2265 -0.5814
  883SOL    HW1 2648   0.913   0.606   0.981  0.0062 -1.5839 -0.4191
  883SOL    HW2 2649   0.897   0.436   0.982 -0.0001  0.2258 -1.4801
  884SOL     OW 2650   1.140   1.712   1.179  0.4463 -0.4015 -0.1280
  884SOL    HW1 2651   1.097   1.646   1.114  1.0962  1.4066  2.3282
  884SOL    HW2 2652   1.116   1.810   1.154 -1.1722  3.7078  2.9383
  885SOL     OW 2653   2.330   1.772   2.291  0.3189  0.0731  0.7689
  885SOL    HW1 2654   2.261   1.725   2.353 -0.2810 -1.9646  1.0890
  885SOL    HW2 2655   2.309   1.867   2.255  2.6808 -0.5093 -1.6817
  886SOL     OW 2656   2.592   0.349   1.807  0.1423 -0.6081 -0.4257
  886SOL    HW1 2657   2.597   0.280   1.886 -1.5725 -1.5209 -2.3423
  886SOL    HW2 2658   2.676   0.406   1.797 -2.1217  3.6884  1.9807
  887SOL     OW 2659   0.103   1.972   1.335 -0.3895 -0.2672 -0.0201
  887SOL    HW1 2660   0.084   1.880   1.297 -0.3746  0.2110 -0.5399
  887SOL    HW2 2661   0.118   2.043   1.263  3.0038 -2.4623 -0.0404
  888SOL     OW 2662   0.535   1.228   1.543 -0.2778  0.1520 -0.3131
  888SOL    HW1 2663   0.557   1.281   1.455 -1.9655 -0.9440  1.5136
  888SOL    HW2 2664   0.493   1.134   1.525  3.0659 -2.6856 -1.2213
  889SOL     OW 2665   0.812   2.513   2.151 -0.1375  0.0603  0.0414
  889SOL    HW1 2666   0.741   2.441   2.174  2.4006  2.8307  1.7132
  889SOL    HW2 2667   0.887   2.488   2.084 -2.8655  0.1560 -1.1743
  890SOL     OW 2668   2.422   2.483   0.233  0.1016 -0.4250  0.2125
  890SOL    HW1 2669   2.429   2.536   0.145  3.9300  1.9669  0.6470
  890SOL    HW2 2670   2.351   2.514   0.301  0.9562 -1.8974  1.3852
  891SOL     OW 2671   2.504   1.707   0.628  0.1159  0.1223  0.7775
  891SOL    HW1 2672   2.526   1.666   0.720  1.7181 -1.5765  0.8292
  891SOL    HW2 2673   2.403   1.697   0.618 -1.3167  1.4352 -1.4528
  892SOL     OW 2674   0.351   0.266   2.328  0.1368 -0.1596 -0.3975
  892SOL    HW1 2675   0.405   0.353   2.315 -0.1260 -0.3757 -0.4527
  892SOL    HW2 2676   0.409   0.184   2.357 -1.3763  1.3048  0.9029
  893SOL     OW 2677   1.635   0.240   2.719  0.2008  0.2796 -0.4333
  893SOL    HW1 2678   1.710   0.296   2.760 -2.1261  1.2650 -0.8584
  893SOL    HW2 2679   1.552   0.299   2.711 -0.8478  2.3594  1.9048
  894SOL     OW 2680   2.178   2.057   0.044 -0.3128 -0.0391 -0.3698
  894SOL    HW1 2681   2.135   2.022  -0.046 -1.5535 -2.0577  1.4618
  894SOL    HW2 2682   2.189   1.975   0.112  1.8436  1.6317  0.3879
  895SOL     OW 2683   2.841   1.457   0.913  0.0427 -0.4103  0.3481
  895SOL    HW1 2684   2.915   1.393   0.938 -2.0780  0.4178 -2.0043
  895SOL    HW2 2685   2.853   1.558   0.944 -0.0154  1.6734 -1.0843
  896SOL     OW 2686   1.733   1.811   1.165 -0.8674 -0.1207 -0.2538
  896SOL    HW1 2687   1.761   1.737   1.101 -2.0997  0.6561 -2.1458
  896SOL    HW2 2688   1.670   1.880   1.119  1.2907  2.6997 -0.0062
  897SOL     OW 2689   0.312   0.558   3.033  0.3963  0.1811 -0.0043
  897SOL    HW1 2690   0.248   0.604   2.960 -1.5755 -0.4255  0.2617
  897SOL    HW2 2691   0.390   0.615   3.065 -0.4314 -1.4917  0.7320
  898SOL     OW 2692   0.592   2.872   1.052 -0.1551 -0.1710  0.6792
  898SOL    HW1 2693   0.620   2.965   1.020 -1.7342 -2.3640 -0.2343
  898SOL    HW2 2694   0.672   2.827   1.098 -2.4846  0.0877 -2.4399
  899SOL     OW 2695   2.849   0.899   1.353 -0.1875  0.3743 -0.2906
  899SOL    HW1 2696   2.807   0.842   1.280  1.5899  0.3012 -0.8445
  899SOL    HW2 2697   2.922   0.955   1.316 -0.7803  0.9026  0.2177
  900SOL     OW 2698   1.007   2.517   2.443 -0.7382  0.3185  0.1085
  900SOL    HW1 2699   0.931   2.523   2.380  2.8064 -0.1635  3.7550
  900SOL    HW2 2700   0.975   2.466   2.526 -0.7729 -2.8336  0.7942
  901SOL     OW 2701   1.898   2.384   1.366 -0.1517  0.1967  0.0439
  901SOL    HW1 2702   1.865   2.312   1.298 -1.2215 -2.2241 -0.9492
  901SOL    HW2 2703   1.996   2.366   1.393 -0.2413 -1.5650 -1.1952
  902SOL     OW 2704   2.569   1.649   1.455 -0.2003  0.0795  0.2819
  902SOL    HW1 2705   2.618   1.638   1.545  1.6262  1.6468 -1.1621
  902SOL    HW2 2706   2.638   1.649   1.375 -0.9442 -0.2079 -1.8711
  903SOL     OW 2707   0.250   2.444   1.972 -0.1209  0.0703 -0.1698
  903SOL    HW1 2708   0.157   2.435   1.932 -0.2503  2.3405  1.9307
  903SOL    HW2 2709   0.306   2.521   1.936 -1.7766  1.4225 -0.4978
  904SOL     OW 2710   1.993   0.791   2.582  0.0855  0.2514  0.3825
  904SOL    HW1 2711   1.920   0.719   2.610 -0.9371 -1.2165 -0.0834
  904SOL    HW2 2712   2.005   0.783   2.478  0.9959 -0.6186  1.4476
  905SOL     OW 2713   2.834   0.119   2.537 -0.0747  0.0583  0.2432
  905SOL    HW1 2714   2.890   0.038   2.558  0.5932  2.2416 -0.5913
  905SOL    HW2 2715   2.880   0.208   2.527 -0.3167  1.1004  1.8781
  906SOL     OW 2716   0.162   1.704   1.925  0.6714  0.4031  0.2471
  906SOL    HW1 2717   0.082   1.697   1.856 -1.7393 -1.1501 -2.1044
  906SOL    HW2 2718   0.247   1.756   1.898  1.3518  4.1623 -0.3460
  907SOL     OW 2719   0.227   2.433   0.995  0.5888  0.3051  0.2439
  907SOL    HW1 2720   0.320   2.397   0.971 -1.2247 -1.2928  0.0212
  907SOL    HW2 2721   0.194   2.503   0.926 -0.3257 -0.7922 -0.3627
  908SOL     OW 2722   2.808   3.037   0.392  0.1955 -0.0994  0.2942
  908SOL    HW1 2723   2.740   3.073   0.325 -0.9015  1.3882 -1.5758
  908SOL    HW2 2724   2.855   2.960   0.349 -0.5953  0.5581 -0.3395
  909SOL     OW 2725   0.847   1.055   2.648 -0.2663  0.1361  0.3131
  909SOL    HW1 2726   0.797   0.968   2.612 -0.7340 -0.7080  1.0202
  909SOL    HW2 2727   0.922   1.093   2.585 -0.6298 -0.4935 -1.0499
  910SOL     OW 2728   1.806   1.890   2.163 -0.1545  0.3322  0.4081
  910SOL    HW1 2729   1.861   1.898   2.075 -1.9831 -1.5973  1.9333
  910SOL    HW2 2730   1.727   1.954   2.166  0.9936 -3.6235 -0.2233
  911SOL     OW 2731   1.820   2.922   1.572  0.0599  0.2352  0.4518
  911SOL    HW1 2732   1.897   2.895   1.505  2.1286 -1.2629 -0.6008
  911SOL    HW2 2733   1.781   2.839   1.617  0.2575 -0.0980 -1.0156
  912SOL     OW 2734   2.847   1.004   0.714  0.0941 -0.0406  0.4346
  912SOL    HW1 2735   2.857   0.967   0.814 -1.0664 -3.6778  0.5591
  912SOL    HW2 2736   2.821   1.103   0.722  2.4097  0.3299  3.2330
  913SOL     OW 2737   2.528   1.282   1.529  0.1426  0.0496  0.5380
  913SOL    HW1 2738   2.558   1.190   1.557 -0.7048 -2.7007 -0.1775
  913SOL    HW2 2739   2.603   1.340   1.487 -1.3905  0.1874 -2.4566
  914SOL     OW 2740   2.779   0.595   1.172 -0.1161 -0.4222  0.3830
  914SOL    HW1 2741   2.826   0.502   1.194 -1.4538  1.1925 -0.7088
  914SOL    HW2 2742   2.679   0.609   1.208 -0.5322  0.4902 -0.5795
  915SOL     OW 2743   1.199   0.716   1.027 -0.3235 -0.5418  0.0090
  915SOL    HW1 2744   1.246   0.722   1.118  1.4273  0.5004  0.7580
  915SOL    HW2 2745   1.101   0.702   1.046  0.6758  2.6407 -2.5726
  916SOL     OW 2746   0.619   0.028   0.646 -0.7373 -0.3213 -0.1733
  916SOL    HW1 2747   0.666   0.103   0.706  0.8679  1.9560 -0.4561
  916SOL    HW2 2748   0.580   0.062   0.557  5.3164  0.7974 -0.9415
  917SOL     OW 2749   2.843   2.585   2.018 -0.1702  0.1238  0.3762
  917SOL    HW1 2750   2.755   2.607   1.966 -0.9328  0.1711  2.6220
  917SOL    HW2 2751   2.919   2.650   1.992 -0.0144  0.1427 -4.6145
  918SOL     OW 2752   1.014   2.110   3.022  0.2068 -0.3846  0.7630
  918SOL    HW1 2753   0.984   2.175   3.099 -0.3350 -0.2761  0.3229
  918SOL    HW2 2754   1.084   2.140   2.951 -2.5020 -0.9868 -0.6964
  919SOL     OW 2755   0.810   1.674   2.863  0.0919 -0.5554 -0.2661
  919SOL    HW1 2756   0.880   1.731   2.812 -1.1755 -0.7474 -1.5924
  919SOL    HW2 2757   0.784   1.595   2.802 -0.2792 -1.3603  0.5029
  920SOL     OW 2758   1.256   1.808   2.551  0.0906 -0.5512 -0.4454
  920SOL    HW1 2759   1.336   1.774   2.493  2.3152  4.3103 -0.5416
  920SOL    HW2 2760   1.203   1.735   2.601 -0.0826  0.8222  0.7173
  921SOL     OW 2761   1.113   0.010   2.624 -0.1738  0.2708  0.3741
  921SOL    HW1 2762   1.066  -0.025   2.534  0.8018 -0.2190  0.8136
  921SOL    HW2 2763   1.045   0.051   2.687 -0.5565  1.0137  1.1843
  922SOL     OW 2764   2.233   2.394   2.774  0.1855 -0.4031  0.5467
  922SOL    HW1 2765   2.247   2.295   2.770 -0.1949 -2.1228  1.0760
  922SOL    HW2 2766   2.172   2.425   2.696 -0.8921  3.6272  1.5294
  923SOL     OW 2767   1.262   2.660   0.274 -0.1256  0.4452 -0.1863
  923SOL    HW1 2768   1.336   2.727   0.303  0.6895  3.1198  0.9233
  923SOL    HW2 2769   1.289   2.564   0.296 -0.5701 -0.0961  1.9450
  924SOL     OW 2770   2.856   1.688   0.088 -0.1856 -0.2682  0.2683
  924SOL    HW1 2771   2.793   1.697   0.007  0.7833  3.0551 -0.1198
  924SOL    HW2 2772   2.914   1.602   0.090 -1.1808 -2.7290  0.3180
  925SOL     OW 2773   0.028   2.879   1.465 -0.7585  0.1567 -0.0871
  925SOL    HW1 2774  -0.051   2.889   1.528  0.0068 -0.3887 -0.4787
  925SOL    HW2 2775   0.029   2.780   1.432 -3.1366 -0.9378  0.4812
  926SOL     OW 2776   1.327   2.810   1.338 -0.7800 -0.5717  0.2418
  926SOL    HW1 2777   1.370   2.804   1.244  0.7715  0.9933 -1.5861
  926SOL    HW2 2778   1.360   2.897   1.383  0.0540  1.4586 -1.3677
  927SOL     OW 2779   0.318   2.687   1.761 -0.2618 -0.4989  0.0533
  927SOL    HW1 2780   0.270   2.604   1.723 -1.6684 -1.4787 -0.0551
  927SOL    HW2 2781   0.288   2.772   1.712 -0.0467 -0.8108 -0.3524
  928SOL     OW 2782   1.594   2.085   2.222 -0.5407  0.1933 -0.2223
  928SOL    HW1 2783   1.646   2.171   2.195  2.9978 -1.1735  0.9551
  928SOL    HW2 2784   1.495   2.097   2.228  1.0987 -1.2240  0.1870
  929SOL     OW 2785   2.468   2.513   2.853 -0.0250  0.0054 -0.1662
  929SOL    HW1 2786   2.372   2.475   2.840  1.3110  0.8056 -3.5776
  929SOL    HW2 2787   2.516   2.503   2.759  2.5696 -0.9483  3.1893
  930SOL     OW 2788   2.158   2.012   1.093  0.6698  0.4146 -0.2725
  930SOL    HW1 2789   2.163   1.962   1.191  1.0834  0.8775  3.5541
  930SOL    HW2 2790   2.213   2.100   1.088  2.0120  1.5717 -0.1879
  931SOL     OW 2791   0.535   1.722   2.676  0.1004 -0.5609  0.2274
  931SOL    HW1 2792   0.532   1.763   2.771  0.7430 -1.5077 -0.5546
  931SOL    HW2 2793   0.608   1.650   2.658  0.5364 -2.1837  1.2575
  932SOL     OW 2794   0.472   0.125   3.077  0.1605  0.1696 -0.0810
  932SOL    HW1 2795   0.554   0.174   3.120 -3.0925 -0.3974 -2.1396
  932SOL    HW2 2796   0.489   0.023   3.066 -1.6141 -0.7340  1.0011
  933SOL     OW 2797   0.942   0.819   3.045  0.5952 -0.0144  0.0305
  933SOL    HW1 2798   0.864   0.805   3.114 -0.2344 -0.4024  0.8105
  933SOL    HW2 2799   0.938   0.911   2.996 -1.3334  0.0690  0.0443
  934SOL     OW 2800   0.778   2.961   2.661 -0.2794  0.1148  0.2305
  934SOL    HW1 2801   0.760   2.899   2.582 -0.3567  2.6066 -0.6581
  934SOL    HW2 2802   0.850   2.918   2.725  3.8020  1.0670  1.2124
  935SOL     OW 2803   0.021   0.521   0.843  0.2542  0.2460 -0.2298
  935SOL    HW1 2804   0.010   0.490   0.748 -0.5044  1.3945  0.3071
  935SOL    HW2 2805  -0.064   0.572   0.879  4.0468  1.2279  0.9325
  936SOL     OW 2806   1.106   2.807   0.099  0.1890 -0.9257 -0.0676
  936SOL    HW1 2807   1.177   2.877   0.062 -1.3170 -0.5689  1.1841
  936SOL    HW2 2808   1.148   2.759   0.182  1.8896 -2.9331  1.1460
  937SOL     OW 2809   1.835   2.652   2.097  0.0047 -0.0510  0.2343
  937SOL    HW1 2810   1.731   2.663   2.105  0.6677 -2.6341  0.0102
  937SOL    HW2 2811   1.870   2.733   2.047 -1.1303 -1.4244  0.6591
  938SOL     OW 2812   2.769   2.063   1.613 -0.3522  0.1644 -1.0836
  938SOL    HW1 2813   2.736   2.162   1.619 -0.7228 -1.5920 -0.5952
  938SOL    HW2 2814   2.860   2.052   1.662 -0.9622  2.9923  0.2930
  939SOL     OW 2815   2.823   1.186   2.412 -0.1400  0.3919  0.2213
  939SOL    HW1 2816   2.885   1.181   2.326  3.7061 -1.1045 -1.8663
  939SOL    HW2 2817   2.869   1.165   2.502  1.2452 -0.8361  0.3458
  940SOL     OW 2818   1.070   0.440   2.784  0.1441 -0.0673 -0.3267
  940SOL    HW1 2819   1.129   0.354   2.796  0.4139  0.7893  3.0438
  940SOL    HW2 2820   1.005   0.428   2.705 -0.7959  1.9696 -0.5095
  941SOL     OW 2821   0.022   2.784   2.290  0.2395 -0.1349 -0.3241
  941SOL    HW1 2822   0.078   2.700   2.263 -0.1873  1.3719 -1.6809
  941SOL    HW2 2823   0.088   2.865   2.314  2.9838  2.3104 -0.3892
  942SOL     OW 2824   0.123   0.049   2.569 -0.5802 -0.4482  0.2816
  942SOL    HW1 2825   0.161   0.063   2.664  1.4155 -0.8367 -1.9520
  942SOL    HW2 2826   0.109   0.138   2.516  0.9945 -3.3626 -0.6346
  943SOL     OW 2827   2.103   1.666   2.386 -0.2032 -0.1397 -0.3765
  943SOL    HW1 2828   2.099   1.631   2.286  0.1608 -2.1967  1.7837
  943SOL    HW2 2829   2.112   1.578   2.449 -0.6516 -0.9919 -1.0744
  944SOL     OW 2830   2.160   2.363   1.467  0.4465 -0.4311  0.0861
  944SOL    HW1 2831   2.246   2.399   1.499 -1.6890  0.7243  0.0805
  944SOL    HW2 2832   2.140   2.272   1.510 -2.3983  0.7967 -1.6368
  945SOL     OW 2833   0.674   1.570   0.157  0.4610 -0.6238  0.4328
  945SOL    HW1 2834   0.611   1.577   0.071 -0.4503  0.9731 -0.3649
  945SOL    HW2 2835   0.677   1.474   0.197 -0.3548 -0.9232 -0.0165
  946SOL     OW 2836   0.443   0.948   2.502  0.2247 -0.1215 -0.3700
  946SOL    HW1 2837   0.363   0.920   2.444 -0.7630  0.5195  1.4968
  946SOL    HW2 2838   0.454   1.047   2.521  2.5772 -2.4209  0.6284
  947SOL     OW 2839   1.501   0.482   3.052  0.0648  0.3429 -0.8111
  947SOL    HW1 2840   1.475   0.532   2.964  2.5649  0.0936  2.3140
  947SOL    HW2 2841   1.415   0.448   3.105 -1.6839 -0.7200  1.6145
  948SOL     OW 2842   1.844   3.005   2.109 -0.3850 -0.2611 -0.2796
  948SOL    HW1 2843   1.886   2.955   2.029 -2.1675 -0.0479  0.5986
  948SOL    HW2 2844   1.849   2.948   2.198  1.7743  0.8540  3.5743
  949SOL     OW 2845   0.648   2.485   0.471 -0.0467 -0.5190 -0.5370
  949SOL    HW1 2846   0.662   2.590   0.463 -1.7305  1.3707  4.0079
  949SOL    HW2 2847   0.648   2.460   0.574  1.3962 -0.6734 -1.0570
  950SOL     OW 2848   0.233   2.218   3.029  0.3091 -0.2388  0.1311
  950SOL    HW1 2849   0.161   2.284   2.998  0.7175  1.7795 -0.9237
  950SOL    HW2 2850   0.258   2.150   2.950 -1.2575 -1.2932 -1.7632
  951SOL     OW 2851   1.168   2.640   2.822  0.8323  0.5108 -0.3651
  951SOL    HW1 2852   1.197   2.570   2.897  0.1392 -0.2430  1.3644
  951SOL    HW2 2853   1.227   2.638   2.735 -0.8265 -0.5414  0.3118
  952SOL     OW 2854   0.046   1.659   0.396  0.2325 -0.6831 -0.3594
  952SOL    HW1 2855   0.082   1.756   0.388  0.2733 -0.4678  1.3929
  952SOL    HW2 2856   0.078   1.606   0.482  1.0889  3.4670 -2.9683
  953SOL     OW 2857   2.559   1.755   0.223 -0.3180 -0.1707 -0.3550
  953SOL    HW1 2858   2.541   1.660   0.264  1.3659 -3.0342 -0.2133
  953SOL    HW2 2859   2.515   1.767   0.131  1.6749  3.8189 -0.1204
  954SOL     OW 2860   2.219   0.540   0.933  0.3750 -0.2268 -0.4482
  954SOL    HW1 2861   2.217   0.565   0.833 -2.5397  0.6449 -0.8190
  954SOL    HW2 2862   2.315   0.533   0.964  0.3270  0.0091 -3.4923
  955SOL     OW 2863   0.143   2.575   1.383 -0.0261  0.1646 -0.2299
  955SOL    HW1 2864   0.054   2.590   1.328  0.0822 -0.2343 -0.6741
  955SOL    HW2 2865   0.228   2.606   1.339  0.7190  0.9925  1.5246
  956SOL     OW 2866   2.808   2.443   2.489 -0.3583 -0.4861 -0.2321
  956SOL    HW1 2867   2.851   2.350   2.494  3.0317  1.5013 -0.0605
  956SOL    HW2 2868   2.836   2.501   2.406  1.6674  2.5230 -1.6728
  957SOL     OW 2869   1.610   2.114   2.795  0.5168 -0.9190 -0.0739
  957SOL    HW1 2870   1.586   2.015   2.791 -2.4189  0.3880  2.8828
  957SOL    HW2 2871   1.689   2.149   2.733  0.9704 -1.3884 -1.7532
  958SOL     OW 2872   2.561   2.278   2.966  0.2911  0.0109 -0.5713
  958SOL    HW1 2873   2.523   2.361   2.917 -0.4955 -2.1974 -1.1607
  958SOL    HW2 2874   2.510   2.271   3.058 -1.5390  0.8115  0.5164
  959SOL     OW 2875   0.310   2.777   0.032  0.4950  0.0665  0.1509
  959SOL    HW1 2876   0.213   2.766  -0.009  1.2253  1.2668  0.4164
  959SOL    HW2 2877   0.336   2.690   0.081  2.1910 -0.8798 -1.8928
  960SOL     OW 2878   1.968   0.482   1.962 -0.3660 -0.3603  0.0953
  960SOL    HW1 2879   1.913   0.571   1.949  0.1668  1.2596 -0.0769
  960SOL    HW2 2880   2.000   0.475   2.057 -1.1079  1.2316 -1.2288
  961SOL     OW 2881   2.553   1.859   1.057  0.0974 -0.3984 -0.2276
  961SOL    HW1 2882   2.575   1.948   1.004 -0.1387  1.3170  2.0479
  961SOL    HW2 2883   2.502   1.875   1.144 -1.0628 -0.1347 -0.3207
  962SOL     OW 2884   1.298   0.921   0.034  0.3629  0.5224  0.0618
  962SOL    HW1 2885   1.263   0.920  -0.061 -0.7479 -1.0665  2.3910
  962SOL    HW2 2886   1.272   1.009   0.085 -0.2782 -0.2552 -3.4302
  963SOL     OW 2887   2.295   2.531   1.774  0.2110  0.0994  0.3003
  963SOL    HW1 2888   2.218   2.468   1.821 -2.8735 -1.6536  1.3435
  963SOL    HW2 2889   2.326   2.615   1.830 -1.2181  0.1110  1.6678
  964SOL     OW 2890   2.368   0.392   1.650  0.1964  0.4310  0.2085
  964SOL    HW1 2891   2.456   0.392   1.707  0.4761  0.3673 -0.7527
  964SOL    HW2 2892   2.389   0.404   1.549 -0.5782  0.6947 -2.9824
  965SOL     OW 2893   2.601   2.988   0.152 -0.1259  0.1564 -0.2787
  965SOL    HW1 2894   2.675   2.965   0.086  0.4019 -0.0624 -0.6735
  965SOL    HW2 2895   2.519   3.037   0.111 -2.1978  1.1202  0.2985
  966SOL     OW 2896   2.566   2.553   2.344 -0.3666 -0.3222 -0.4073
  966SOL    HW1 2897   2.655   2.583   2.390  1.5697 -3.1868  0.7618
  966SOL    HW2 2898   2.508   2.626   2.300  0.1883  1.5695  2.4062
  967SOL     OW 2899   2.776   2.840   2.444  0.3426 -0.6855  0.4247
  967SOL    HW1 2900   2.828   2.763   2.397  0.8176 -1.1411  1.0387
  967SOL    HW2 2901   2.840   2.910   2.487  0.8936  0.0151  0.8898
  968SOL     OW 2902   1.938   1.070   2.589  0.0986 -0.0083  0.1310
  968SOL    HW1 2903   1.847   1.109   2.543 -1.3804 -1.7810 -1.6740
  968SOL    HW2 2904   1.951   0.967   2.570 -0.1432  0.3664 -1.2860
  969SOL     OW 2905   2.758   2.495   1.136  0.3215  0.0953 -0.3229
  969SOL    HW1 2906   2.745   2.508   1.034 -2.2840 -0.3135  0.4891
  969SOL    HW2 2907   2.786   2.399   1.163  1.0651 -0.0776  1.0508
  970SOL     OW 2908   1.044   2.105   1.807 -0.4783 -0.2028  0.1603
  970SOL    HW1 2909   0.965   2.086   1.742  0.3836  0.7118 -0.4251
  970SOL    HW2 2910   1.019   2.139   1.901 -1.2171 -1.7416  1.0068
  971SOL     OW 2911   2.983   2.044   2.045  0.3379 -0.0303  0.1391
  971SOL    HW1 2912   2.959   2.130   2.095 -1.4314  1.6296 -0.0753
  971SOL    HW2 2913   3.006   2.054   1.944 -1.5165  0.7567 -3.4204
  972SOL     OW 2914   1.987   2.487   0.233 -0.2237  0.4772  0.2148
  972SOL    HW1 2915   1.972   2.393   0.193 -3.1301  4.1251 -1.5374
  972SOL    HW2 2916   2.014   2.480   0.336  2.0958 -0.1382  2.1338
  973SOL     OW 2917   1.245   1.046   1.908  0.5709 -0.2380  0.0620
  973SOL    HW1 2918   1.161   0.985   1.890  1.9017 -0.3541  1.3222
  973SOL    HW2 2919   1.216   1.146   1.929  0.9399  1.3199  1.3387
  974SOL     OW 2920   1.571   0.577   1.940  0.4032 -0.0895  0.4242
  974SOL    HW1 2921   1.660   0.598   1.898 -1.4714  1.3928  0.5311
  974SOL    HW2 2922   1.505   0.653   1.918  2.6795 -2.1098 -0.2224
  975SOL     OW 2923   2.373   3.037   3.087 -0.0268 -0.5997  0.5403
  975SOL    HW1 2924   2.344   2.944   3.126 -0.0483 -1.1443 -2.4732
  975SOL    HW2 2925   2.325   3.062   2.998 -0.3129 -1.2336  0.0671
  976SOL     OW 2926   1.896   2.815   2.339  0.1660  0.2813  0.0455
  976SOL    HW1 2927   1.806   2.761   2.346 -1.3856  1.2143 -1.0291
  976SOL    HW2 2928   1.964   2.799   2.410 -0.8873 -2.1315 -1.9048
  977SOL     OW 2929   0.492   0.689   1.064  0.0558  0.4285 -0.1073
  977SOL    HW1 2930   0.423   0.679   0.996  3.9456 -1.2664  0.4716
  977SOL    HW2 2931   0.559   0.757   1.035 -1.8149  0.3289 -0.6115
   3.10000   3.10000   3.10000
