1000 SPC/Fw water molecules t=   0.70000 step= 700
 2931
    1SOL     OW    1   2.479   0.389   2.610  0.0840  0.7699  0.2249
    1SOL    HW1    2   2.492   0.286   2.587  0.6014  0.1212  0.6136
    1SOL    HW2    3   2.543   0.427   2.687  1.0726  2.1192  0.7690
    2SOL     OW    4   2.738   3.037   1.409  0.2204 -0.3341  0.3459
    2SOL    HW1    5   2.776   3.061   1.312  2.6324 -0.0038 -0.9216
    2SOL    HW2    6   2.734   3.117   1.473  0.1817 -1.4328 -0.9814
    3SOL     OW    7   2.725   2.621   0.363  0.0782 -0.0446 -0.1843
    3SOL    HW1    8   2.687   2.527   0.383  0.5473  0.3018  1.0368
    3SOL    HW2    9   2.814   2.638   0.413 -2.2102 -0.1348 -1.4162
    4SOL     OW   10   1.282   1.443   2.367 -0.3570  0.9847 -0.2033
    4SOL    HW1   11   1.184   1.485   2.353  1.4169 -0.9289  0.9132
    4SOL    HW2   12   1.279   1.339   2.389  1.1904  0.5465  1.8567
    5SOL     OW   13   1.172   1.516   3.078  0.0968  0.3494  0.1390
    5SOL    HW1   14   1.224   1.605   3.080  1.3477  1.3848  0.7431
    5SOL    HW2   15   1.078   1.521   3.124  0.2398  0.1264 -0.5725
    6SOL     OW   16   0.090   1.881   2.941 -0.1576  0.1704  0.3868
    6SOL    HW1   17   0.029   1.904   3.023  0.0436  0.6348 -2.0827
    6SOL    HW2   18   0.147   1.803   2.969 -0.5709  3.0231 -2.0467
    7SOL     OW   19   2.540   0.951   1.138  0.4740  0.5358  0.2552
    7SOL    HW1   20   2.472   0.876   1.149 -1.1276 -0.6758 -1.8114
    7SOL    HW2   21   2.564   0.955   1.038 -1.9219 -0.8643  1.3616
    8SOL     OW   22   0.401   0.573   1.535 -0.4534  0.0181  0.2004
    8SOL    HW1   23   0.491   0.528   1.556 -1.2346 -0.8437 -1.9599
    8SOL    HW2   24   0.377   0.566   1.433  0.0599  1.0255  0.5576
    9SOL     OW   25   1.162   0.898   2.335  0.7300 -0.1950  0.7708
    9SOL    HW1   26   1.254   0.921   2.294 -0.7898 -1.4562 -0.0788
    9SOL    HW2   27   1.099   0.861   2.264  1.4529  2.5717  0.2626
   10SOL     OW   28   0.626   1.349   1.300  0.0258  0.3438  0.5422
   10SOL    HW1   29   0.535   1.368   1.246 -1.4591  0.4714 -2.0171
   10SOL    HW2   30   0.679   1.436   1.284 -1.1128 -2.0206  1.5246
   11SOL     OW   31   2.376   2.736   0.874 -0.1714  0.1478 -0.2837
   11SOL    HW1   32   2.351   2.769   0.971  0.1373 -3.3324  3.5867
   11SOL    HW2   33   2.476   2.762   0.844  2.3915 -1.0508 -1.3890
   12SOL     OW   34   1.474   0.876   0.367 -0.1015  0.3042 -0.2245
   12SOL    HW1   35   1.402   0.939   0.332 -0.7160 -3.3737  1.1318
   12SOL    HW2   36   1.480   0.785   0.320 -2.2161  2.3221  1.8197
   13SOL     OW   37   2.494   0.681   1.809 -0.5440 -0.1369 -0.4304
   13SOL    HW1   38   2.409   0.691   1.868 -1.2203 -0.2647  0.4484
   13SOL    HW2   39   2.466   0.661   1.710  0.2318 -0.9658  0.8014
   14SOL     OW   40   1.937   0.085   0.728 -0.8774 -0.3318  0.2095
   14SOL    HW1   41   1.864   0.111   0.660  1.5259  1.8780 -1.0060
   14SOL    HW2   42   1.899   0.026   0.801 -1.4318 -1.6038  0.0913
   15SOL     OW   43   1.955   2.026   2.740  0.3556  0.5280 -0.4397
   15SOL    HW1   44   1.916   2.122   2.751  1.2254  0.4526  0.1822
   15SOL    HW2   45   1.890   1.953   2.703  1.2282  1.9012  0.5811
   16SOL     OW   46   1.600   1.703   2.982 -0.1114 -0.2960 -1.0391
   16SOL    HW1   47   1.619   1.600   3.001  3.3457  0.4699 -1.8816
   16SOL    HW2   48   1.666   1.769   3.030 -3.2962 -0.4587  0.7117
   17SOL     OW   49   0.123   0.531   0.164  0.7673  0.2188  0.5767
   17SOL    HW1   50   0.204   0.520   0.102 -1.3708  0.9347  0.9482
   17SOL    HW2   51   0.042   0.561   0.107 -0.8955 -0.4927 -1.6339
   18SOL     OW   52   0.928   2.991   2.095 -0.5088 -0.4890 -0.3778
   18SOL    HW1   53   0.879   2.904   2.121  2.2420  1.0137  2.8340
   18SOL    HW2   54   1.009   2.974   2.027  3.0088 -0.2827 -0.7699
   19SOL     OW   55   0.515   0.820   1.898 -0.5927 -0.1604 -0.4266
   19SOL    HW1   56   0.534   0.829   2.003  0.5630  1.0062  1.4664
   19SOL    HW2   57   0.602   0.837   1.838  2.6471  2.1862  1.2008
   20SOL     OW   58   0.226   2.759   0.842 -0.1943 -0.6146 -1.1153
   20SOL    HW1   59   0.163   2.825   0.789 -1.1903  1.4802 -0.0766
   20SOL    HW2   60   0.296   2.721   0.775 -2.2610 -2.0869 -2.3622
   21SOL     OW   61   2.773   0.194   2.087 -0.2220  0.7863  0.0445
   21SOL    HW1   62   2.715   0.120   2.039  0.1681 -1.6406  0.4849
   21SOL    HW2   63   2.867   0.156   2.116 -0.1529 -0.4918  1.4848
   22SOL     OW   64   2.374   0.209   0.062  0.1904  0.0981 -0.0456
   22SOL    HW1   65   2.369   0.110   0.087  1.0331  2.6654  0.5461
   22SOL    HW2   66   2.278   0.257   0.073 -1.0761 -0.3656  0.1917
   23SOL     OW   67   2.752   0.657   0.629  0.2474 -0.1290  0.1730
   23SOL    HW1   68   2.826   0.600   0.595  0.4225 -0.3588 -2.5327
   23SOL    HW2   69   2.737   0.742   0.575  0.4248 -0.3182  1.9556
   24SOL     OW   70   0.163   1.905   0.359 -0.6508 -0.5378  0.2657
   24SOL    HW1   71   0.138   1.989   0.303  3.2390  0.1359  1.9137
   24SOL    HW2   72   0.255   1.878   0.316  1.2500 -1.7071 -0.0162
   25SOL     OW   73   2.207   0.525   0.308 -0.3145  0.1613  0.4848
   25SOL    HW1   74   2.229   0.626   0.276 -0.2942  1.3060 -1.7974
   25SOL    HW2   75   2.271   0.465   0.259  2.5469  3.4358  0.9715
   26SOL     OW   76   2.536   2.107   2.102 -0.0678 -0.1560  0.4549
   26SOL    HW1   77   2.585   2.170   2.167 -0.6932 -0.1569 -3.5627
   26SOL    HW2   78   2.603   2.052   2.041  2.1511 -1.2118 -0.1878
   27SOL     OW   79   0.601   2.984   0.187 -0.0763 -0.0477  0.2815
   27SOL    HW1   80   0.698   2.950   0.178 -0.8879 -0.1768 -1.1873
   27SOL    HW2   81   0.549   2.978   0.098  0.7571 -0.0564  0.1157
   28SOL     OW   82   1.580   0.172   0.307  0.8552 -0.4513  0.5049
   28SOL    HW1   83   1.629   0.168   0.214 -0.8423 -0.4211 -0.0145
   28SOL    HW2   84   1.571   0.271   0.337  0.5481  1.4379  1.9214
   29SOL     OW   85   1.967   0.555   0.396 -0.2676  0.0579  0.0930
   29SOL    HW1   86   1.947   0.652   0.416 -1.7898 -0.2509 -1.0512
   29SOL    HW2   87   2.072   0.537   0.378 -0.2579  3.9487 -0.1028
   30SOL     OW   88   0.216   2.013   0.903  0.0452 -0.5334 -0.3583
   30SOL    HW1   89   0.206   2.023   0.798  2.9786  0.6760 -3.1465
   30SOL    HW2   90   0.136   2.051   0.953 -3.4035 -0.8514  1.3060
   31SOL     OW   91   2.107   3.079   2.317 -0.2244 -0.1747  0.3433
   31SOL    HW1   92   2.093   3.105   2.416  2.1195 -0.1573 -0.0925
   31SOL    HW2   93   2.051   2.995   2.297  3.0397 -0.1241 -0.4888
   32SOL     OW   94   2.959   0.140   0.255 -0.0197 -0.5431 -0.3849
   32SOL    HW1   95   2.912   0.059   0.308  0.3003 -2.7097  0.0784
   32SOL    HW2   96   3.058   0.158   0.276  2.2050 -0.6119 -1.2080
   33SOL     OW   97   0.937   0.323   0.599  0.2247 -0.1519  0.1841
   33SOL    HW1   98   0.931   0.221   0.573  2.9231 -0.9842  0.2023
   33SOL    HW2   99   1.034   0.353   0.623 -3.9038 -0.8087  1.2154
   34SOL     OW  100   0.310   2.827   1.081 -0.2594 -0.0263  0.2192
   34SOL    HW1  101   0.275   2.796   0.988 -0.3405  0.8104  0.2628
   34SOL    HW2  102   0.415   2.817   1.095  0.9579 -0.7325  0.4771
   35SOL     OW  103   3.099   0.205   1.835  0.3093 -0.6667  0.3016
   35SOL    HW1  104   3.153   0.124   1.871 -0.1466  1.0098 -0.5207
   35SOL    HW2  105   3.047   0.179   1.749 -0.2298 -0.2853  2.6121
   36SOL     OW  106   1.970   1.131   1.804 -0.5976  0.7790 -0.6365
   36SOL    HW1  107   2.013   1.107   1.708  0.0861 -0.5390  0.8982
   36SOL    HW2  108   2.034   1.193   1.862  3.9969  1.7835  0.4966
   37SOL     OW  109   1.192   0.149   0.883 -0.4486  0.0180  0.1767
   37SOL    HW1  110   1.232   0.189   0.970 -0.6840 -0.7981  1.9542
   37SOL    HW2  111   1.259   0.091   0.833  0.4895 -1.1676  0.2672
   38SOL     OW  112   1.119   2.806   2.424 -0.0046 -0.0134  0.7245
   38SOL    HW1  113   1.051   2.725   2.442 -0.7842  1.3565  0.5919
   38SOL    HW2  114   1.069   2.895   2.420  0.6734  2.0690 -1.1264
   39SOL     OW  115   2.312   1.413   3.042 -0.3596  0.0187 -0.2557
   39SOL    HW1  116   2.394   1.363   3.075 -1.4330 -0.9430  0.6364
   39SOL    HW2  117   2.244   1.413   3.120  0.1093  4.9811  2.5297
   40SOL     OW  118   2.079   2.493   2.567 -0.0644  0.2651 -0.1644
   40SOL    HW1  119   2.028   2.580   2.548 -0.2567 -0.9724 -0.6816
   40SOL    HW2  120   2.032   2.403   2.553  1.0156 -1.7524 -0.1040
   41SOL     OW  121   2.994   0.662   2.796  0.0805  0.3699  0.2891
   41SOL    HW1  122   2.935   0.738   2.830  2.0191  2.1628 -0.3351
   41SOL    HW2  123   2.953   0.573   2.787  1.9302  1.1861  0.7224
   42SOL     OW  124   1.765   1.760   0.527  0.0619 -0.6090 -0.3372
   42SOL    HW1  125   1.725   1.662   0.512 -1.7776  0.2533 -0.0999
   42SOL    HW2  126   1.794   1.804   0.438 -1.9167 -0.3084  2.1707
   43SOL     OW  127   0.481   1.687   1.088  0.3323  0.3576 -0.0164
   43SOL    HW1  128   0.490   1.578   1.081  0.1469 -0.7943  1.7835
   43SOL    HW2  129   0.388   1.725   1.065  1.0560  0.6467 -0.8687
   44SOL     OW  130   1.834   2.477   3.059  0.5131  0.2062  0.1466
   44SOL    HW1  131   1.829   2.538   2.972 -1.4461  0.0633 -0.5940
   44SOL    HW2  132   1.882   2.533   3.137 -1.4300  0.6432  1.0475
   45SOL     OW  133   0.372   1.958   2.595  0.5029  0.4166 -0.2542
   45SOL    HW1  134   0.325   1.929   2.508  0.7576 -1.8426 -0.4589
   45SOL    HW2  135   0.438   1.887   2.616  0.5421  1.1580 -0.8883
   46SOL     OW  136   1.248   0.678   0.208  0.3376 -0.0910  1.0181
   46SOL    HW1  137   1.302   0.761   0.182 -0.7988  3.3964  1.4507
   46SOL    HW2  138   1.146   0.692   0.220  0.3823 -0.6606 -1.9617
   47SOL     OW  139   0.210   2.477   1.619  0.5802  0.0821 -0.3652
   47SOL    HW1  140   0.273   2.401   1.635 -5.8566 -0.0282  0.5140
   47SOL    HW2  141   0.172   2.485   1.522 -1.3574 -0.9129 -0.1194
   48SOL     OW  142   2.599   0.617   0.123  0.4595  0.2638 -0.6244
   48SOL    HW1  143   2.546   0.622   0.218 -4.8631 -1.5293  1.3527
   48SOL    HW2  144   2.698   0.646   0.130 -0.9102  0.1160  0.6784
   49SOL     OW  145   0.336   0.775   1.704  0.2143 -0.2231 -0.3071
   49SOL    HW1  146   0.409   0.778   1.782 -0.9545 -0.7434  0.1052
   49SOL    HW2  147   0.356   0.691   1.642  0.8651 -0.5298  1.1574
   50SOL     OW  148   1.663   1.125   0.284  0.4543 -0.5461 -0.1989
   50SOL    HW1  149   1.678   1.029   0.236  0.7939 -3.6645 -1.6843
   50SOL    HW2  150   1.596   1.121   0.365 -1.9037 -0.9776  0.7511
   51SOL     OW  151   2.894   1.856   0.360  0.1302  0.4105 -0.5130
   51SOL    HW1  152   2.869   1.842   0.264 -0.0840  0.2618 -0.8762
   51SOL    HW2  153   2.937   1.772   0.402  1.2744  2.9707 -0.5839
   52SOL     OW  154   0.794   2.005   0.479  0.1740  0.4547  0.0486
   52SOL    HW1  155   0.713   2.067   0.499 -1.7974  1.3847 -0.4958
   52SOL    HW2  156   0.816   1.947   0.568 -0.1725 -0.7308 -0.0813
   53SOL     OW  157   0.148   0.430   1.590  1.4046 -0.1254 -0.0717
   53SOL    HW1  158   0.189   0.476   1.676  3.1313  1.4074  1.2261
   53SOL    HW2  159   0.055   0.473   1.559  0.4139 -0.1798 -0.4153
   54SOL     OW  160   1.791   0.461   3.059 -0.0412  0.0914  0.1375
   54SOL    HW1  161   1.830   0.435   3.152 -0.3410 -0.6919 -0.9570
   54SOL    HW2  162   1.685   0.455   3.047 -1.6974  1.7347  0.5034
   55SOL     OW  163   0.763   2.893   0.694 -0.0903 -0.5367  0.1793
   55SOL    HW1  164   0.706   2.978   0.664 -2.1403  2.3668  1.4087
   55SOL    HW2  165   0.864   2.916   0.674  0.2175  1.8925 -1.2357
   56SOL     OW  166   0.449   1.604   0.013 -0.2064  0.3757  0.9777
   56SOL    HW1  167   0.352   1.642   0.010  2.0179 -1.2374 -0.2338
   56SOL    HW2  168   0.460   1.521  -0.044  1.1413  0.0214 -2.4438
   57SOL     OW  169   1.779   2.527   2.571 -0.4447 -0.1115 -0.6313
   57SOL    HW1  170   1.836   2.448   2.529  0.2783  2.4060 -2.8461
   57SOL    HW2  171   1.697   2.494   2.621 -1.0054  0.7508  2.7857
   58SOL     OW  172   0.647   0.320   1.040 -0.2277 -0.8508 -0.3093
   58SOL    HW1  173   0.576   0.384   0.994 -0.4917  4.7088  0.1618
   58SOL    HW2  174   0.605   0.227   1.066 -0.4905  0.6060  1.6988
   59SOL     OW  175   0.432   2.414   2.780  0.0009  0.0935  0.0028
   59SOL    HW1  176   0.459   2.320   2.743  1.0696  2.7107 -0.1382
   59SOL    HW2  177   0.511   2.457   2.823  0.8385 -0.0457 -2.5901
   60SOL     OW  178   2.287   2.042   2.198  0.0460 -0.0320 -0.3083
   60SOL    HW1  179   2.383   2.071   2.161 -2.1661  3.0340  1.0860
   60SOL    HW2  180   2.271   2.086   2.295  1.6372 -0.2243  0.2668
   61SOL     OW  181   1.322   0.619   0.464  0.4878  0.4269 -0.3794
   61SOL    HW1  182   1.257   0.674   0.523  0.7128 -1.2204 -1.5894
   61SOL    HW2  183   1.308   0.637   0.361  0.0589 -0.7122  1.6773
   62SOL     OW  184   2.751   1.793   2.920  0.9635  0.3736 -0.1689
   62SOL    HW1  185   2.729   1.695   2.916  0.9562 -0.6023  1.4609
   62SOL    HW2  186   2.842   1.810   2.867  0.6096 -0.8664 -2.4552
   63SOL     OW  187   0.621   0.900   0.169  0.2667  0.3663  0.1506
   63SOL    HW1  188   0.623   0.971   0.093  1.8453 -1.4196  0.7337
   63SOL    HW2  189   0.714   0.900   0.216 -1.8191 -3.1233 -0.6248
   64SOL     OW  190   0.138   0.538   2.498  0.0551 -0.4646 -0.7451
   64SOL    HW1  191   0.181   0.514   2.586  0.6676  0.9126 -0.3693
   64SOL    HW2  192   0.171   0.627   2.451  3.9689  0.0469 -1.8281
   65SOL     OW  193   0.195   1.483   0.547  0.6207  0.1429 -0.0678
   65SOL    HW1  194   0.232   1.533   0.632 -3.1343  1.6831 -0.4215
   65SOL    HW2  195   0.255   1.407   0.511 -2.4044 -0.5766  0.0230
   66SOL     OW  196   2.542   0.382   0.570  0.2872  0.2568 -0.1053
   66SOL    HW1  197   2.571   0.444   0.647  0.8953  0.7121 -0.3936
   66SOL    HW2  198   2.521   0.281   0.603 -2.6904  1.0852  0.5671
   67SOL     OW  199   0.534   2.529   1.361 -0.1671  0.5300 -0.0289
   67SOL    HW1  200   0.573   2.521   1.457 -1.5286 -1.8940 -0.4943
   67SOL    HW2  201   0.480   2.446   1.329  0.4901  0.3375  1.9336
   68SOL     OW  202   1.010   1.122   2.438 -0.4933 -0.3633  0.0092
   68SOL    HW1  203   1.068   1.038   2.415 -0.3882 -0.2014  1.5378
   68SOL    HW2  204   0.923   1.141   2.381 -0.9425 -0.6369 -0.1550
   69SOL     OW  205   0.746   2.776   2.203 -0.7272  0.0282 -0.6167
   69SOL    HW1  206   0.810   2.697   2.176  2.0272  0.9398 -2.2893
   69SOL    HW2  207   0.647   2.747   2.215  1.9270  1.4015  1.9206
   70SOL     OW  208   0.563   0.313   2.708 -0.3298  0.3351 -0.6148
   70SOL    HW1  209   0.598   0.373   2.787 -1.0149 -2.2911  1.4673
   70SOL    HW2  210   0.574   0.212   2.730 -0.6510  2.5152  0.4638
   71SOL     OW  211   1.064   1.715   0.360  0.1385  0.0404  0.1853
   71SOL    HW1  212   1.001   1.632   0.385  2.0475  0.1703 -1.3849
   71SOL    HW2  213   1.047   1.755   0.269 -0.7553 -0.7097  1.3674
   72SOL     OW  214   1.808   0.181   2.124 -0.1857  0.1151  0.3915
   72SOL    HW1  215   1.887   0.220   2.069  3.2554  1.6594  1.7575
   72SOL    HW2  216   1.809   0.074   2.114  1.0361  0.4384  0.6096
   73SOL     OW  217   2.839   2.138   2.424  0.1887  0.5564 -0.0864
   73SOL    HW1  218   2.814   2.047   2.394 -0.4492  4.6556  2.9585
   73SOL    HW2  219   2.828   2.147   2.531  0.2973 -0.5849 -0.8999
   74SOL     OW  220   2.711   2.898   2.096  0.2150  0.0155  0.1994
   74SOL    HW1  221   2.643   2.907   2.177 -1.5923 -0.9663  4.2999
   74SOL    HW2  222   2.808   2.928   2.120  2.0751 -0.2900  0.2163
   75SOL     OW  223   0.920   0.754   1.088 -0.2515  0.0971  0.1866
   75SOL    HW1  224   0.831   0.797   1.065 -2.4208  1.2463 -1.0163
   75SOL    HW2  225   0.962   0.805   1.166 -2.1414  0.1287  1.6546
   76SOL     OW  226   1.665   1.268   2.526  0.2694 -0.2424 -0.3033
   76SOL    HW1  227   1.576   1.219   2.536 -0.4370 -2.2448 -2.6045
   76SOL    HW2  228   1.677   1.351   2.582  1.3734 -3.6217 -1.4519
   77SOL     OW  229   2.976   0.923   0.970  0.2563 -0.2885  0.1973
   77SOL    HW1  230   2.947   0.822   0.960  1.7342 -0.8100  1.2869
   77SOL    HW2  231   3.045   0.933   1.053  2.9507 -2.7118  0.6381
   78SOL     OW  232   2.088   1.394   1.528  0.3278  0.2502  0.2888
   78SOL    HW1  233   2.180   1.404   1.479 -0.2091  2.0946  0.2291
   78SOL    HW2  234   2.008   1.381   1.466  0.3451  3.9363  0.2516
   79SOL     OW  235   0.647   1.302   0.875 -0.4428 -0.0666  0.2098
   79SOL    HW1  236   0.547   1.336   0.875  0.2557 -1.4148 -1.4529
   79SOL    HW2  237   0.689   1.305   0.781  0.7729 -0.9270 -0.2111
   80SOL     OW  238   0.641   0.474   1.585 -0.6813  0.9472 -0.8521
   80SOL    HW1  239   0.694   0.552   1.542  1.8190 -0.4954  0.2069
   80SOL    HW2  240   0.690   0.384   1.562 -0.9411  1.1061 -0.6380
   81SOL     OW  241   1.038   1.377   2.603 -0.0181 -0.0283  0.0807
   81SOL    HW1  242   1.036   1.277   2.618 -0.7951  1.0853  0.6520
   81SOL    HW2  243   0.984   1.402   2.515  1.6464 -3.6618  1.0075
   82SOL     OW  244   0.969   2.938   1.484  0.8905 -0.0635 -0.1015
   82SOL    HW1  245   1.006   3.006   1.415  1.7228  1.7651  0.3941
   82SOL    HW2  246   0.896   2.873   1.449 -1.1437  0.4694  1.4541
   83SOL     OW  247   2.738   2.506   0.862  0.6603 -0.0141 -0.1006
   83SOL    HW1  248   2.665   2.444   0.818 -0.6742  0.0102 -1.3022
   83SOL    HW2  249   2.733   2.603   0.838  0.6654 -2.7623  1.7978
   84SOL     OW  250   0.677   3.051   2.337 -0.1264 -0.2271  0.3283
   84SOL    HW1  251   0.622   2.975   2.371  0.3591  1.2980  0.8738
   84SOL    HW2  252   0.782   3.035   2.335 -2.3302  0.3954 -0.9661
   85SOL     OW  253   0.322   1.579   1.509 -0.4947  0.0629 -0.1589
   85SOL    HW1  254   0.267   1.665   1.533  0.8334  0.1459 -3.5936
   85SOL    HW2  255   0.347   1.525   1.598  0.6207 -0.9315 -0.8988
   86SOL     OW  256   0.392   0.974   1.506 -0.1692  0.0698 -0.2142
   86SOL    HW1  257   0.346   0.946   1.419  0.5042  0.2348  1.8203
   86SOL    HW2  258   0.401   0.897   1.575  1.4335  1.3842  0.4902
   87SOL     OW  259   1.584   0.666   0.195  0.6151 -0.0174  0.1864
   87SOL    HW1  260   1.663   0.736   0.201  1.1295  0.8298  2.6495
   87SOL    HW2  261   1.570   0.620   0.107  0.5892  1.4391  0.0487
   88SOL     OW  262   1.587   1.372   0.196  0.8511  0.0777 -0.7649
   88SOL    HW1  263   1.618   1.278   0.232 -0.6729  0.2376  1.3121
   88SOL    HW2  264   1.491   1.384   0.233  0.2598 -1.6136 -1.0741
   89SOL     OW  265   0.013   0.416   0.589  0.6261  0.0403 -0.0275
   89SOL    HW1  266   0.082   0.335   0.602  0.4368 -0.5323 -0.6389
   89SOL    HW2  267  -0.085   0.385   0.582  1.8918  0.3405  1.8462
   90SOL     OW  268   0.902   1.623   0.022 -0.5164 -0.0027 -0.0982
   90SOL    HW1  269   0.832   1.574   0.080  0.3825 -0.5558 -0.7443
   90SOL    HW2  270   0.869   1.642  -0.076 -1.8270 -0.7570 -0.7840
   91SOL     OW  271   1.238   1.451   1.772 -0.6173 -0.0601 -0.3562
   91SOL    HW1  272   1.234   1.541   1.825  1.4581  2.2391 -0.0573
   91SOL    HW2  273   1.331   1.422   1.741 -0.0338  1.1775  0.6280
   92SOL     OW  274   0.032   0.939   1.203  0.5056  0.6990 -0.1679
   92SOL    HW1  275   0.095   1.019   1.176  0.6352  0.4420 -2.7304
   92SOL    HW2  276   0.035   0.925   1.305  0.8538  0.9417 -1.1787
   93SOL     OW  277   0.034   2.748   3.096 -0.0062 -0.1801 -0.1124
   93SOL    HW1  278  -0.043   2.767   3.023 -0.2451  3.2287  0.0150
   93SOL    HW2  279   0.058   2.648   3.123 -1.2325 -1.3111 -1.6478
   94SOL     OW  280   1.521   1.426   1.754 -0.0437 -0.2243 -0.0190
   94SOL    HW1  281   1.592   1.350   1.769 -0.8304  0.9177 -1.3191
   94SOL    HW2  282   1.545   1.518   1.800  1.5619  1.5036 -1.1317
   95SOL     OW  283   1.406   2.503   3.027 -0.3872 -0.1243  0.1871
   95SOL    HW1  284   1.322   2.471   3.082 -0.0620  0.6241 -2.1471
   95SOL    HW2  285   1.434   2.430   2.960  0.7035 -0.0675  0.2077
   96SOL     OW  286   0.556   2.095   1.330 -0.3145 -0.1383  0.2083
   96SOL    HW1  287   0.533   2.069   1.229  0.0701 -1.7477 -2.3013
   96SOL    HW2  288   0.612   2.020   1.378  0.6990 -1.2606 -0.5411
   97SOL     OW  289   0.388   1.649   2.449 -0.2098  0.3854  0.1076
   97SOL    HW1  290   0.286   1.661   2.443 -0.1308  1.7845  1.4268
   97SOL    HW2  291   0.427   1.654   2.548  0.9741 -2.4815  0.4215
   98SOL     OW  292   1.957   1.586   1.236  0.3224 -0.0462 -0.3022
   98SOL    HW1  293   1.897   1.549   1.317  0.7517 -0.7559  1.7091
   98SOL    HW2  294   1.951   1.527   1.150 -1.0758  0.6409 -0.8912
   99SOL     OW  295   2.458   2.118   1.388 -0.1633 -0.5963  0.5778
   99SOL    HW1  296   2.483   2.173   1.473  0.5638  0.4883  0.6400
   99SOL    HW2  297   2.404   2.031   1.405 -1.8939 -0.1213 -1.0847
  100SOL     OW  298   2.315   0.324   2.077  0.6295 -0.3236  0.3884
  100SOL    HW1  299   2.271   0.300   2.167  2.0581  1.6290 -1.9129
  100SOL    HW2  300   2.374   0.405   2.087 -1.6661  0.2896  0.4954
  101SOL     OW  301   0.337   1.527   0.260  0.1913 -0.4515  0.7146
  101SOL    HW1  302   0.398   1.527   0.346  0.8077  2.6350 -1.5580
  101SOL    HW2  303   0.394   1.543   0.173 -1.9695  2.5633  1.6778
  102SOL     OW  304   2.285   0.987   0.867 -0.1211  0.2728  0.1730
  102SOL    HW1  305   2.195   0.928   0.861 -1.2713 -3.1484 -0.0678
  102SOL    HW2  306   2.295   1.051   0.788  1.0273 -0.8143  1.1115
  103SOL     OW  307   2.288   0.029   0.391 -0.2599  0.5105 -0.0202
  103SOL    HW1  308   2.297   0.123   0.350  2.6042 -0.3815 -0.0844
  103SOL    HW2  309   2.384  -0.002   0.428  2.2282  1.4867  0.1124
  104SOL     OW  310   0.109   1.781   2.179 -0.0459  0.3479 -0.0090
  104SOL    HW1  311   0.151   1.756   2.086  2.6687  0.8003 -1.4289
  104SOL    HW2  312   0.008   1.770   2.190  2.8604 -1.5988  3.4383
  105SOL     OW  313   1.271   2.121   0.779 -0.1045  0.0851  0.2637
  105SOL    HW1  314   1.182   2.126   0.726 -0.4749  0.9935  1.5224
  105SOL    HW2  315   1.301   2.020   0.796 -0.9798  0.0758  0.6637
  106SOL     OW  316   2.154   0.480   1.414  0.0873 -0.7006  0.6299
  106SOL    HW1  317   2.089   0.409   1.452  2.7177 -1.8658  0.4180
  106SOL    HW2  318   2.170   0.556   1.482 -0.6700 -2.8263  0.6122
  107SOL     OW  319   1.742   3.024   1.159 -0.2538  0.6871  0.0459
  107SOL    HW1  320   1.790   3.103   1.207 -1.3266  0.9867 -1.7798
  107SOL    HW2  321   1.712   2.951   1.223  1.8129 -0.0861  0.1319
  108SOL     OW  322   0.811   2.786   1.189 -0.3211 -0.0220  0.1869
  108SOL    HW1  323   0.791   2.772   1.292  1.2458  0.2142  1.3464
  108SOL    HW2  324   0.911   2.779   1.164 -1.5318 -0.0777 -0.3484
  109SOL     OW  325   2.228   0.104   0.748 -0.0746  0.2616 -0.0918
  109SOL    HW1  326   2.131   0.081   0.718  1.6579  0.5061 -1.8920
  109SOL    HW2  327   2.239   0.106   0.853  0.2077  1.0998 -0.9859
  110SOL     OW  328   0.445   2.855   2.764  0.2439  0.1405  0.0833
  110SOL    HW1  329   0.425   2.886   2.668 -0.5500  1.0841 -0.5386
  110SOL    HW2  330   0.515   2.775   2.766  1.8275 -1.3718 -1.7159
  111SOL     OW  331   1.315   0.502   2.293  0.0711  0.3762  0.6014
  111SOL    HW1  332   1.238   0.542   2.354 -0.9072 -0.1358 -0.9239
  111SOL    HW2  333   1.372   0.427   2.336 -0.6098  1.7978 -0.6207
  112SOL     OW  334   1.698   0.544   1.487 -0.1314  0.9438  0.1337
  112SOL    HW1  335   1.734   0.513   1.393  1.4366 -0.0179 -1.9816
  112SOL    HW2  336   1.666   0.458   1.543 -0.1003  0.0784 -0.0134
  113SOL     OW  337   2.248   1.665   1.775 -0.1263  0.3244 -0.4678
  113SOL    HW1  338   2.267   1.572   1.739 -1.7707 -0.0585  1.8554
  113SOL    HW2  339   2.276   1.679   1.875 -0.9314  0.1940  0.7180
  114SOL     OW  340   0.374   0.512   1.244 -0.4456  0.7660  0.1764
  114SOL    HW1  341   0.437   0.571   1.186  0.2604 -0.3305 -2.3372
  114SOL    HW2  342   0.311   0.450   1.188 -1.2301 -1.2936  0.0465
  115SOL     OW  343   2.805   1.612   1.300  0.2050 -0.6730 -0.4500
  115SOL    HW1  344   2.808   1.511   1.320  1.5718 -1.2556 -0.2815
  115SOL    HW2  345   2.795   1.634   1.201 -0.2866 -1.3712  2.3502
  116SOL     OW  346   1.840   1.049   0.698  0.1690  0.3068  0.0414
  116SOL    HW1  347   1.770   1.004   0.635 -0.0711  1.5367  1.5289
  116SOL    HW2  348   1.793   1.121   0.760 -1.7882 -1.5239  0.6655
  117SOL     OW  349   1.191   0.413   0.682 -0.0835  0.4138 -0.9670
  117SOL    HW1  350   1.169   0.430   0.787  1.5015  1.1004  1.2375
  117SOL    HW2  351   1.228   0.499   0.643 -0.2693 -0.6542 -2.5972
  118SOL     OW  352   1.122   1.138   1.077  0.4762  0.0866  0.4317
  118SOL    HW1  353   1.080   1.064   1.135  0.1180 -0.1676  3.5840
  118SOL    HW2  354   1.155   1.214   1.145 -0.3398 -2.8642 -0.5278
  119SOL     OW  355   1.827   1.615   2.140 -0.2294  0.2590  0.7908
  119SOL    HW1  356   1.826   1.717   2.144  0.6672  3.3751 -0.9824
  119SOL    HW2  357   1.926   1.585   2.145 -0.8169  0.3368 -1.1916
  120SOL     OW  358   2.922   2.817   0.187  0.0169 -0.0215 -0.6522
  120SOL    HW1  359   2.999   2.795   0.127 -0.6945  0.7429 -0.0849
  120SOL    HW2  360   2.833   2.777   0.141  0.7637 -0.1122 -0.5369
  121SOL     OW  361   2.016   0.759   2.311 -0.2110  0.2580 -0.4211
  121SOL    HW1  362   2.084   0.825   2.269 -0.8039 -2.3101  0.1481
  121SOL    HW2  363   2.025   0.661   2.276  1.3256 -0.8210 -0.1077
  122SOL     OW  364   2.630   2.698   1.221 -0.1602  0.4289 -0.2213
  122SOL    HW1  365   2.682   2.616   1.186 -0.3891 -1.8313 -0.6528
  122SOL    HW2  366   2.566   2.735   1.154  1.1714 -0.3311  1.0239
  123SOL     OW  367   1.760   0.069   1.681  0.7720  0.1733  0.2920
  123SOL    HW1  368   1.787  -0.021   1.636 -0.1437  1.3413  0.2419
  123SOL    HW2  369   1.824   0.104   1.753  1.9223  0.2220  1.2415
  124SOL     OW  370   0.122   0.429   1.080 -0.1733  0.3650 -0.5702
  124SOL    HW1  371   0.098   0.513   1.126 -1.4264 -0.1785  2.0129
  124SOL    HW2  372   0.076   0.429   0.986  1.1699  0.5681 -2.0083
  125SOL     OW  373   0.834   1.851   0.689  0.0345  0.2890  0.2612
  125SOL    HW1  374   0.922   1.795   0.706  1.4728 -1.2435  0.8451
  125SOL    HW2  375   0.785   1.887   0.777 -0.8623  0.7276 -0.2234
  126SOL     OW  376   1.899   2.295   2.479 -0.2302 -0.2693  0.2652
  126SOL    HW1  377   1.965   2.268   2.404 -2.7711  1.8145 -2.6298
  126SOL    HW2  378   1.826   2.222   2.497 -0.6020 -1.2391 -2.2236
  127SOL     OW  379   0.875   0.871   0.291  0.4242 -0.1602 -0.2457
  127SOL    HW1  380   0.881   0.926   0.377  1.8785  0.0023  0.4644
  127SOL    HW2  381   0.928   0.781   0.291  1.0652  1.2672 -0.2034
  128SOL     OW  382   0.946   0.253   1.383 -0.6415  0.5778  0.1455
  128SOL    HW1  383   0.920   0.334   1.326  0.6464 -2.1678  4.6311
  128SOL    HW2  384   0.893   0.167   1.352  0.8888  1.6491 -0.4189
  129SOL     OW  385   1.824   0.727   1.890 -0.5962 -0.2779  0.0739
  129SOL    HW1  386   1.848   0.743   1.786 -1.4921 -0.1818  0.1524
  129SOL    HW2  387   1.884   0.790   1.944  3.1582 -0.2766  1.1682
  130SOL     OW  388   1.376   2.195   1.029  0.0975 -0.1430  0.0727
  130SOL    HW1  389   1.310   2.179   0.949 -1.0798 -3.1069  0.4875
  130SOL    HW2  390   1.449   2.268   1.008 -1.2850 -0.3174  0.0233
  131SOL     OW  391   3.036   1.421   1.358 -0.0141 -0.3381 -0.3278
  131SOL    HW1  392   2.978   1.340   1.396 -0.5150  0.3615  0.5194
  131SOL    HW2  393   3.140   1.422   1.383  0.5955 -0.8753  0.1159
  132SOL     OW  394   2.052   2.434   0.559 -0.0082  0.1595 -0.7597
  132SOL    HW1  395   1.960   2.422   0.511  1.8362 -2.4814 -0.8778
  132SOL    HW2  396   2.060   2.374   0.644  1.5309 -1.1638  1.8720
  133SOL     OW  397   1.885   2.305   2.776  0.2205  0.5348  0.4148
  133SOL    HW1  398   1.939   2.317   2.865 -1.6409  2.2691  0.1435
  133SOL    HW2  399   1.841   2.392   2.746  1.5946 -0.2705  1.5300
  134SOL     OW  400   2.699   2.322   1.674  0.0321  0.0076  0.2552
  134SOL    HW1  401   2.632   2.319   1.755 -3.2683 -0.4639 -1.0387
  134SOL    HW2  402   2.760   2.408   1.666 -0.6202  0.3546  0.0201
  135SOL     OW  403   0.710   1.490   2.674 -0.2143 -0.4924  0.2666
  135SOL    HW1  404   0.659   1.399   2.691  0.2848  0.6880 -1.1893
  135SOL    HW2  405   0.771   1.489   2.599 -2.4023  0.2968 -1.3005
  136SOL     OW  406   1.193   1.957   0.440  0.0676  0.3000 -0.0158
  136SOL    HW1  407   1.126   2.021   0.493  1.1902  1.6088 -0.3667
  136SOL    HW2  408   1.144   1.873   0.399  1.6359 -0.9730 -1.9658
  137SOL     OW  409   0.422   1.145   2.140  0.4223 -0.3584  0.0154
  137SOL    HW1  410   0.349   1.149   2.214  1.3910  1.3889 -0.0925
  137SOL    HW2  411   0.495   1.075   2.157 -2.2947  0.5095 -0.9964
  138SOL     OW  412   2.464   1.500   0.275 -1.0395 -0.0492 -0.1222
  138SOL    HW1  413   2.374   1.455   0.251 -2.0715 -0.2216 -0.0204
  138SOL    HW2  414   2.501   1.453   0.359  0.4052  2.4410 -0.3926
  139SOL     OW  415   1.861   2.643   1.304  0.5866 -0.6520 -0.1068
  139SOL    HW1  416   1.756   2.659   1.280 -1.4224  1.3592  1.5216
  139SOL    HW2  417   1.883   2.546   1.343  1.8281  1.8313  0.6082
  140SOL     OW  418   3.018   2.926   2.593  0.1492  0.6097 -0.6279
  140SOL    HW1  419   3.042   2.828   2.580  0.4332  2.9737  0.8414
  140SOL    HW2  420   3.102   2.982   2.610 -3.0752  1.1844 -1.2366
  141SOL     OW  421   1.310   1.705   1.635  0.5377  0.0865  0.1389
  141SOL    HW1  422   1.210   1.733   1.637  1.4594 -1.3322  0.1862
  141SOL    HW2  423   1.330   1.611   1.677  1.1496  0.3247 -0.3682
  142SOL     OW  424   1.568   0.583   2.234  0.3383 -0.3901 -0.2052
  142SOL    HW1  425   1.579   0.559   2.134  0.0078 -1.0273  0.8294
  142SOL    HW2  426   1.468   0.583   2.265 -2.0020 -1.3328  2.7561
  143SOL     OW  427   2.739   0.901   0.482  0.2625  0.3278 -0.3184
  143SOL    HW1  428   2.791   0.923   0.395 -1.3942 -1.8840  0.9124
  143SOL    HW2  429   2.781   0.943   0.567 -1.2334 -3.5626  0.2367
  144SOL     OW  430   2.921   1.181   1.464 -0.5531  0.1890  0.0776
  144SOL    HW1  431   2.874   1.177   1.558 -2.7305  0.6172  1.3934
  144SOL    HW2  432   3.000   1.113   1.465  2.9717  1.3996  5.2768
  145SOL     OW  433   1.017   1.879   0.087  0.7104  0.2931  0.4981
  145SOL    HW1  434   1.020   1.963   0.023  0.0332  0.9074  1.6339
  145SOL    HW2  435   0.982   1.789   0.044  0.0619 -1.1833  0.6677
  146SOL     OW  436   2.475   0.679   1.502  0.1976 -0.4871 -0.2526
  146SOL    HW1  437   2.450   0.581   1.476  1.7009 -0.5585  1.5494
  146SOL    HW2  438   2.420   0.756   1.458 -0.2287  3.5275 -0.8219
  147SOL     OW  439   1.144   2.475   0.612  0.3653 -0.1563  0.1037
  147SOL    HW1  440   1.094   2.526   0.540 -0.0819  1.3672  0.9947
  147SOL    HW2  441   1.223   2.419   0.584 -1.4280  0.4981  2.9266
  148SOL     OW  442   1.673   1.458   3.061 -0.1343 -0.3239  0.0795
  148SOL    HW1  443   1.680   1.382   2.989  1.2804  2.6814 -3.2664
  148SOL    HW2  444   1.642   1.422   3.155  0.8628 -0.4756  0.3836
  149SOL     OW  445   0.694   1.425   1.978 -0.1690  0.0820  0.0562
  149SOL    HW1  446   0.600   1.403   2.021 -1.2331 -0.7873  0.7340
  149SOL    HW2  447   0.722   1.356   1.903 -2.8069  1.1215 -4.0111
  150SOL     OW  448   3.036   1.274   0.971  0.0246 -0.1103 -0.0646
  150SOL    HW1  449   3.119   1.286   1.035  0.2653 -1.0375 -0.6366
  150SOL    HW2  450   3.038   1.181   0.927  0.4950  0.0464  0.1051
  151SOL     OW  451   0.234   0.740   2.127  0.0804 -0.3240  0.0335
  151SOL    HW1  452   0.226   0.795   2.042  0.8369 -1.1472 -0.0540
  151SOL    HW2  453   0.279   0.651   2.107 -1.1441 -0.0592  0.2829
  152SOL     OW  454   1.388   1.762   1.279  0.4327 -0.2416  0.0711
  152SOL    HW1  455   1.386   1.852   1.329 -1.3134 -0.9149  0.2254
  152SOL    HW2  456   1.297   1.742   1.238 -0.0559 -0.8206 -1.5022
  153SOL     OW  457   3.068   1.524   0.170  0.2034  0.0667 -0.1415
  153SOL    HW1  458   3.087   1.423   0.191  3.2056  1.0503 -0.6154
  153SOL    HW2  459   3.088   1.586   0.254  1.8295 -0.8007  0.3208
  154SOL     OW  460   2.367   1.854   2.738  0.2907  0.8154 -0.0966
  154SOL    HW1  461   2.376   1.751   2.761 -1.4741 -0.6988 -1.8407
  154SOL    HW2  462   2.440   1.889   2.671  1.5970 -0.8076 -1.6108
  155SOL     OW  463   2.422   1.229   0.387  0.4135 -0.3007 -0.2622
  155SOL    HW1  464   2.512   1.194   0.353 -3.5709 -1.2891 -0.4194
  155SOL    HW2  465   2.348   1.205   0.322  0.7535  0.6652  0.6976
  156SOL     OW  466   2.571   0.970   0.868 -0.1146 -0.2476 -0.0477
  156SOL    HW1  467   2.464   0.976   0.873 -0.0037 -2.3162 -0.0773
  156SOL    HW2  468   2.615   1.063   0.861 -2.6285 -1.1978  1.9918
  157SOL     OW  469   1.285   2.968   3.070  0.2960 -0.1839 -0.1818
  157SOL    HW1  470   1.308   2.924   2.982  3.2231 -0.4253  1.0608
  157SOL    HW2  471   1.311   3.064   3.084 -2.0845 -2.2098  0.2459
  158SOL     OW  472   1.035   1.841   1.940  0.1817  0.6647 -0.6433
  158SOL    HW1  473   1.042   1.924   1.873 -1.0568 -0.9516  0.2005
  158SOL    HW2  474   0.944   1.845   1.991  0.2833 -1.0865 -1.2874
  159SOL     OW  475   0.813   0.431   1.220  0.0298 -0.1383 -0.1517
  159SOL    HW1  476   0.775   0.496   1.296  0.8281 -0.4827  0.4746
  159SOL    HW2  477   0.740   0.383   1.162 -1.6631 -0.9071 -0.8220
  160SOL     OW  478   1.395   2.335   1.627 -0.1936 -0.2399 -0.5994
  160SOL    HW1  479   1.426   2.356   1.721 -1.5112 -2.7491 -1.0555
  160SOL    HW2  480   1.469   2.303   1.560 -0.0294  0.0380 -0.2195
  161SOL     OW  481   0.078   2.929   0.288 -0.1487  0.4361  0.1142
  161SOL    HW1  482  -0.019   2.890   0.293 -2.1255 -2.0415  0.2990
  161SOL    HW2  483   0.105   2.977   0.205  0.5245 -2.9107  0.7104
  162SOL     OW  484   2.529   1.918   0.464 -0.9022 -0.2708  0.1565
  162SOL    HW1  485   2.541   1.866   0.372  1.2638 -2.6570  0.1960
  162SOL    HW2  486   2.536   1.859   0.556 -0.9293  2.1569  2.4781
  163SOL     OW  487   1.917   2.753   0.750 -0.8922  0.9001 -0.6730
  163SOL    HW1  488   1.919   2.795   0.656 -1.1044  1.9312 -0.5564
  163SOL    HW2  489   2.007   2.702   0.771  0.0818  1.0669  0.8932
  164SOL     OW  490   3.079   0.216   1.183  0.5185  0.3940 -0.3093
  164SOL    HW1  491   3.148   0.270   1.133 -2.3091  1.0749 -0.9526
  164SOL    HW2  492   3.126   0.144   1.238  1.5240 -0.5860 -1.1870
  165SOL     OW  493   0.925   1.416   0.694  0.2794  0.1785  0.4412
  165SOL    HW1  494   0.905   1.501   0.747  2.4718 -1.5951  1.1364
  165SOL    HW2  495   0.901   1.420   0.590  0.4940 -3.8672  1.0772
  166SOL     OW  496   1.490   1.092   1.746  0.2673  0.2258  0.0874
  166SOL    HW1  497   1.433   1.061   1.827 -0.5522  0.0648  0.1538
  166SOL    HW2  498   1.549   1.175   1.772 -0.5523  3.4763  0.6428
  167SOL     OW  499   0.721   1.923   1.450 -0.3135  0.6706 -0.5233
  167SOL    HW1  500   0.763   1.981   1.523  0.3855 -0.4576  0.0832
  167SOL    HW2  501   0.687   1.828   1.484  1.6225  0.5681 -1.6943
  168SOL     OW  502   1.641   2.389   0.146 -0.6075 -0.4109  0.2219
  168SOL    HW1  503   1.709   2.402   0.064  0.4038 -0.1742 -1.3816
  168SOL    HW2  504   1.693   2.332   0.217  0.8362  0.5740 -0.5958
  169SOL     OW  505   0.157   2.557   2.221 -0.3752  0.3542  0.1068
  169SOL    HW1  506   0.216   2.491   2.165 -0.1422 -0.8862 -1.8552
  169SOL    HW2  507   0.174   2.545   2.321 -0.2895  2.5891  0.4104
  170SOL     OW  508   1.163   0.235   1.998 -0.0883 -0.4225  0.0336
  170SOL    HW1  509   1.228   0.236   2.080  0.1775  2.5714  1.5637
  170SOL    HW2  510   1.189   0.165   1.925  2.3631  0.4717 -0.4870
  171SOL     OW  511   0.211   0.802   2.397 -0.7437 -0.1011  1.0561
  171SOL    HW1  512   0.128   0.850   2.431  1.2674  0.4293 -0.1991
  171SOL    HW2  513   0.224   0.802   2.295  1.7259 -0.7852  2.9682
  172SOL     OW  514   0.912   1.044   2.916 -0.4092 -0.2765 -0.0735
  172SOL    HW1  515   0.999   1.102   2.927  0.3427 -0.2181 -0.9492
  172SOL    HW2  516   0.880   1.039   2.814 -4.1217  0.4970 -1.3651
  173SOL     OW  517   0.651   2.659   0.078 -0.3284  0.1923  0.3244
  173SOL    HW1  518   0.661   2.724  -0.005 -1.2917 -1.1328  0.7498
  173SOL    HW2  519   0.553   2.613   0.085 -3.7731 -0.9120  0.4627
  174SOL     OW  520   1.411   2.819   1.083  0.2517  0.4214  0.2614
  174SOL    HW1  521   1.406   2.907   1.030  2.4379  0.9600  5.0841
  174SOL    HW2  522   1.415   2.734   1.014  0.0277 -0.3034 -2.9557
  175SOL     OW  523   0.368   0.076   1.676  0.4879  0.0983  0.3684
  175SOL    HW1  524   0.457   0.101   1.723  0.3419  2.0759  2.0295
  175SOL    HW2  525   0.340   0.145   1.601 -2.3311  2.9724  3.0588
  176SOL     OW  526   2.570   0.383   3.085  0.1605 -0.0654 -0.2051
  176SOL    HW1  527   2.568   0.467   3.146 -3.1925 -1.2601  1.3020
  176SOL    HW2  528   2.503   0.304   3.107  2.6644  3.0358 -1.6066
  177SOL     OW  529   0.357   0.308   0.990  0.3724  0.1357 -0.0115
  177SOL    HW1  530   0.383   0.218   1.039 -1.2874 -1.0114  4.0461
  177SOL    HW2  531   0.262   0.345   1.013 -0.8558 -0.6748  1.1598
  178SOL     OW  532   3.100   2.655   2.647 -0.7369 -0.2459 -0.0681
  178SOL    HW1  533   3.013   2.623   2.697 -1.4659 -2.2012  0.2571
  178SOL    HW2  534   3.175   2.686   2.709 -0.6911  0.3459 -1.8321
  179SOL     OW  535   0.018   1.698   1.196  0.2694 -0.0286 -0.0924
  179SOL    HW1  536  -0.051   1.777   1.181 -0.7915  0.5768  0.8804
  179SOL    HW2  537  -0.026   1.609   1.238  0.6580  2.7746  0.2027
  180SOL     OW  538   0.238   1.192   1.853  0.2525 -0.1722 -0.4807
  180SOL    HW1  539   0.347   1.204   1.856  1.4159  0.1657 -1.2851
  180SOL    HW2  540   0.189   1.258   1.912  1.0458  0.4773 -0.7202
  181SOL     OW  541   3.008   1.847   2.495  0.0434  0.3284 -0.2749
  181SOL    HW1  542   3.060   1.923   2.446  1.2062  0.2976  0.5759
  181SOL    HW2  543   2.911   1.829   2.466  3.0232  2.6022  1.7161
  182SOL     OW  544   2.252   1.305   1.158 -0.3621  0.1316 -0.2479
  182SOL    HW1  545   2.192   1.252   1.095 -0.4684  0.7388  1.1143
  182SOL    HW2  546   2.284   1.392   1.116 -2.6242 -0.1782 -1.9256
  183SOL     OW  547   1.510   2.223   2.551  0.1993 -0.2974 -0.2952
  183SOL    HW1  548   1.421   2.184   2.525  0.1587 -3.3379  1.4709
  183SOL    HW2  549   1.588   2.158   2.554  1.0409  4.8372 -1.3066
  184SOL     OW  550   2.053   0.874   0.762 -0.2332 -0.5528  0.1627
  184SOL    HW1  551   1.986   0.951   0.735 -0.2369  0.2827  1.1100
  184SOL    HW2  552   2.010   0.804   0.824 -0.2596  0.8210 -1.2845
  185SOL     OW  553   1.553   2.773   2.099  0.2251 -0.0509  0.1912
  185SOL    HW1  554   1.530   2.867   2.063 -0.4006  0.7577  2.8856
  185SOL    HW2  555   1.521   2.753   2.192  1.8663  0.7741 -1.4040
  186SOL     OW  556   0.091   2.219   1.674  0.7167  0.1200 -0.4035
  186SOL    HW1  557   0.107   2.307   1.733  0.1742 -0.8340  0.0209
  186SOL    HW2  558   0.175   2.163   1.643  1.8998 -0.2441 -2.4181
  187SOL     OW  559   1.377   0.742   1.660 -0.3668  0.4366 -0.5416
  187SOL    HW1  560   1.467   0.769   1.615 -0.1188 -2.4141  1.6789
  187SOL    HW2  561   1.376   0.746   1.764 -0.4229  0.4193 -0.7736
  188SOL     OW  562   2.774   2.756   1.461  0.0396  0.4620 -0.2795
  188SOL    HW1  563   2.792   2.856   1.444 -0.2512 -1.0551 -1.1719
  188SOL    HW2  564   2.702   2.721   1.393 -2.1272  1.4963  1.4737
  189SOL     OW  565   0.855   1.140   1.384  0.0755  0.5901  0.5353
  189SOL    HW1  566   0.941   1.175   1.428  1.2758 -2.0059  1.3756
  189SOL    HW2  567   0.796   1.218   1.359  1.2431 -0.0637 -0.7735
  190SOL     OW  568   1.504   1.887   1.567 -0.9276 -0.2039 -0.0703
  190SOL    HW1  569   1.429   1.816   1.571 -0.1596  1.6678 -1.1678
  190SOL    HW2  570   1.498   1.945   1.653 -0.5197  0.2818  0.1287
  191SOL     OW  571   0.962   0.758   1.517 -0.2992  0.1709 -0.1513
  191SOL    HW1  572   1.024   0.675   1.523 -2.3060  0.5073 -1.0311
  191SOL    HW2  573   1.004   0.846   1.555 -0.2373 -1.9760  1.9478
  192SOL     OW  574   1.865   2.214   1.134 -0.0861  0.7123 -0.0894
  192SOL    HW1  575   1.766   2.198   1.106  0.3018  0.9093 -0.9997
  192SOL    HW2  576   1.912   2.276   1.069 -0.0633 -2.3872 -1.0482
  193SOL     OW  577   0.521   0.585   0.460  0.6285 -0.5440  0.1621
  193SOL    HW1  578   0.478   0.501   0.512 -0.9931  0.9499  0.1752
  193SOL    HW2  579   0.550   0.556   0.368 -0.2942 -0.9396 -0.2652
  194SOL     OW  580   0.304   0.866   1.273  0.0942  0.3069 -0.1554
  194SOL    HW1  581   0.256   0.780   1.245 -1.5007  1.4261 -1.1229
  194SOL    HW2  582   0.322   0.932   1.191  3.0050  1.3310  1.6375
  195SOL     OW  583   1.027   2.906   0.563  0.3078 -0.5087  0.2410
  195SOL    HW1  584   1.016   2.818   0.504 -2.8422  0.5330  0.9505
  195SOL    HW2  585   1.117   2.962   0.536  3.5565  0.1251  1.7458
  196SOL     OW  586   0.206   1.384   1.370 -0.8437 -0.1725  0.2025
  196SOL    HW1  587   0.249   1.474   1.406  0.1264 -0.1851  0.0658
  196SOL    HW2  588   0.215   1.310   1.440 -0.9748  0.3330 -0.8051
  197SOL     OW  589   0.831   2.036   0.210 -0.2248  0.5240  0.0892
  197SOL    HW1  590   0.832   2.041   0.313  0.2111  0.3650 -0.8906
  197SOL    HW2  591   0.895   1.958   0.180 -0.7525  0.9841  1.2077
  198SOL     OW  592   0.314   1.240   0.230  0.1890  0.1229 -0.1910
  198SOL    HW1  593   0.210   1.220   0.236  3.4336 -0.3880  0.2907
  198SOL    HW2  594   0.340   1.339   0.254  0.1929  1.4669 -1.5196
  199SOL     OW  595   2.190   0.350   2.557 -0.4539  0.3269  0.1136
  199SOL    HW1  596   2.137   0.309   2.642 -1.3208 -1.0741 -0.4306
  199SOL    HW2  597   2.288   0.363   2.576 -0.4281 -1.7296  0.0937
  200SOL     OW  598   0.046   2.937   0.719  0.3438 -0.6514  0.4574
  200SOL    HW1  599  -0.021   2.908   0.648 -0.1623 -2.8498  2.4346
  200SOL    HW2  600   0.016   3.014   0.777 -0.6773 -1.4606  1.2829
  201SOL     OW  601   1.105   0.734   0.629  0.0338  0.1613 -0.1884
  201SOL    HW1  602   1.106   0.812   0.698 -2.8804 -0.5014  2.1385
  201SOL    HW2  603   1.018   0.675   0.631 -0.3487 -1.2477  2.3401
  202SOL     OW  604   0.515   1.206   1.809 -0.3234 -0.2589  0.1267
  202SOL    HW1  605   0.497   1.207   1.708  1.5083  2.4746  3.3890
  202SOL    HW2  606   0.584   1.139   1.846  0.4176 -1.0951  0.0760
  203SOL     OW  607   0.691   0.208   1.556 -0.0676 -0.1808  0.1258
  203SOL    HW1  608   0.723   0.153   1.476 -0.1906  3.2622  1.3221
  203SOL    HW2  609   0.738   0.182   1.645  0.7597 -1.3080 -0.5380
  204SOL     OW  610   2.052   1.881   2.960  0.4220 -0.0031 -0.6913
  204SOL    HW1  611   2.101   1.793   2.946 -1.7463 -0.5876  1.9752
  204SOL    HW2  612   2.022   1.940   2.877  0.2573  2.5960  0.6038
  205SOL     OW  613   1.803   1.874   3.102  0.2243  0.4568 -0.4346
  205SOL    HW1  614   1.897   1.862   3.058 -2.0201 -0.6176 -0.4405
  205SOL    HW2  615   1.767   1.974   3.095 -1.9097  1.9406  1.9268
  206SOL     OW  616   2.509   2.776   0.354  0.2333  0.2476 -0.4260
  206SOL    HW1  617   2.595   2.720   0.372  0.0420 -0.7885  0.3325
  206SOL    HW2  618   2.529   2.829   0.270  1.1049 -0.2937 -0.0499
  207SOL     OW  619   0.583   1.779   2.956  0.8071  0.3681  0.2465
  207SOL    HW1  620   0.681   1.758   2.935  1.9900  1.2284  2.4338
  207SOL    HW2  621   0.535   1.711   3.017  0.1794  0.4593 -0.2613
  208SOL     OW  622   1.178   1.571   1.413 -0.2844  0.3707 -0.1993
  208SOL    HW1  623   1.180   1.622   1.327 -0.6144 -0.5266  1.1459
  208SOL    HW2  624   1.256   1.587   1.480  1.4333 -0.8178  0.4435
  209SOL     OW  625   0.270   0.962   3.004  0.2454 -0.5970 -0.2659
  209SOL    HW1  626   0.329   0.948   2.920 -1.4965 -0.0776 -1.7950
  209SOL    HW2  627   0.261   0.879   3.065 -1.9750 -0.7328  0.3638
  210SOL     OW  628   1.764   0.491   1.220  0.0547  0.6272 -0.3006
  210SOL    HW1  629   1.773   0.591   1.204 -1.4380 -0.4853  1.4008
  210SOL    HW2  630   1.856   0.444   1.233  0.4757 -0.8054  0.1144
  211SOL     OW  631   2.120   1.046   1.594  0.2487  0.3424  0.0918
  211SOL    HW1  632   2.168   0.962   1.634 -0.3550 -0.1027 -0.2918
  211SOL    HW2  633   2.192   1.105   1.542  2.6743  2.6416 -0.9497
  212SOL     OW  634   0.023   0.985   1.480  0.0090 -0.1577 -0.2038
  212SOL    HW1  635   0.093   1.049   1.518  1.2173 -2.3271  0.8773
  212SOL    HW2  636  -0.010   0.911   1.546 -0.7131  0.1934  2.1676
  213SOL     OW  637   2.768   0.386   0.342  0.3496 -0.6735  0.0588
  213SOL    HW1  638   2.805   0.321   0.275  0.0190  1.5915  1.9306
  213SOL    HW2  639   2.690   0.432   0.294 -1.1937  1.6373  1.2769
  214SOL     OW  640   2.157   0.250   2.292  0.2796  0.0991  0.2763
  214SOL    HW1  641   2.157   0.304   2.383 -2.4282  0.5209  0.7704
  214SOL    HW2  642   2.127   0.150   2.310  1.5645 -0.5294 -0.4249
  215SOL     OW  643   1.621   2.317   2.066 -0.3162 -0.2148  0.6892
  215SOL    HW1  644   1.719   2.351   2.059  1.1484 -1.3357 -1.2582
  215SOL    HW2  645   1.569   2.374   2.133  0.9546 -0.7752 -0.4835
  216SOL     OW  646   2.213   0.627   0.649 -0.1699  0.1342 -0.6048
  216SOL    HW1  647   2.212   0.539   0.591  0.5993  0.3213 -1.3174
  216SOL    HW2  648   2.207   0.708   0.594 -1.1890 -1.5477  1.4019
  217SOL     OW  649   0.732   2.765   2.481  0.0337 -0.0124 -0.2264
  217SOL    HW1  650   0.740   2.664   2.505  1.8339  0.5916 -2.4902
  217SOL    HW2  651   0.745   2.790   2.380 -2.6892 -0.5730 -0.4241
  218SOL     OW  652   1.935   1.462   0.078 -0.2193  0.1295 -0.1385
  218SOL    HW1  653   1.850   1.503   0.044  2.1191 -1.2314  0.0688
  218SOL    HW2  654   1.932   1.359   0.091  1.4530  1.9550  0.7557
  219SOL     OW  655   2.346   1.285   2.563  0.2824 -0.0447 -0.4390
  219SOL    HW1  656   2.382   1.252   2.474  3.4534  1.8628  1.0194
  219SOL    HW2  657   2.347   1.210   2.638  1.1269 -2.7279  1.4880
  220SOL     OW  658   1.519   1.023   1.298  0.0232  0.1279  0.1847
  220SOL    HW1  659   1.608   1.083   1.312 -0.6282  0.9317  0.6039
  220SOL    HW2  660   1.452   1.045   1.221  1.6428  0.6673  0.4804
  221SOL     OW  661   1.349   1.043   2.186 -0.3089 -0.9407  0.1472
  221SOL    HW1  662   1.304   1.067   2.095  0.3587 -0.3263 -0.5774
  221SOL    HW2  663   1.451   1.022   2.172 -1.3112  0.8943  0.0313
  222SOL     OW  664   1.198   0.036   1.189 -0.1413  0.0358  0.6010
  222SOL    HW1  665   1.281  -0.000   1.235 -1.4067 -1.8752 -0.3577
  222SOL    HW2  666   1.195   0.140   1.182  1.8514  0.7875 -0.2741
  223SOL     OW  667   2.766   0.859   2.031 -1.0043  0.2944 -0.5026
  223SOL    HW1  668   2.783   0.869   2.136  0.3510 -0.3753  0.7877
  223SOL    HW2  669   2.842   0.907   1.977 -0.7449  0.6334 -0.1848
  224SOL     OW  670   1.549   1.011   2.746  0.5464  0.3690 -0.0343
  224SOL    HW1  671   1.591   0.952   2.672  1.1369  0.8812  0.2728
  224SOL    HW2  672   1.488   1.089   2.718  2.6163 -2.4050  1.1303
  225SOL     OW  673   2.935   2.794   2.904 -0.1520  0.0675  0.2718
  225SOL    HW1  674   2.884   2.713   2.868 -1.3228  0.9675  0.5982
  225SOL    HW2  675   3.006   2.844   2.843 -0.3751  1.0167 -1.3914
  226SOL     OW  676   2.385   1.584   2.829 -0.4232 -0.2298 -0.0492
  226SOL    HW1  677   2.416   1.518   2.751  0.9509 -0.4419 -1.9961
  226SOL    HW2  678   2.359   1.536   2.916 -0.3488  0.4983 -2.1560
  227SOL     OW  679   0.843   0.160   3.013  0.1713  0.2516 -0.2277
  227SOL    HW1  680   0.853   0.076   3.068 -3.0040  0.3806  2.5555
  227SOL    HW2  681   0.861   0.150   2.915  3.9588 -1.3870 -0.1753
  228SOL     OW  682   2.388   0.604   2.857 -0.2301 -0.3630 -0.1685
  228SOL    HW1  683   2.344   0.630   2.766 -1.8000 -1.2948 -1.6212
  228SOL    HW2  684   2.482   0.564   2.851 -2.2984  0.9928  0.2836
  229SOL     OW  685   0.616   0.483   1.906  0.2507 -0.5930  0.1245
  229SOL    HW1  686   0.584   0.408   1.848  2.1371  3.5272 -1.2181
  229SOL    HW2  687   0.652   0.552   1.845 -0.9528 -3.1456  0.2746
  230SOL     OW  688   1.933   1.182   2.136  0.1904 -0.5367  0.6153
  230SOL    HW1  689   1.993   1.212   2.058 -1.8015  3.6587 -1.4231
  230SOL    HW2  690   1.844   1.234   2.115 -0.2601 -0.6192  0.6574
  231SOL     OW  691   0.636   0.992   2.958  0.8345  0.2923  0.0159
  231SOL    HW1  692   0.735   1.017   2.950 -1.0212 -1.3530  0.2456
  231SOL    HW2  693   0.578   1.068   2.995  2.6950 -0.7038  1.6512
  232SOL     OW  694   2.440   0.023   2.788 -0.4637  0.4239  0.1859
  232SOL    HW1  695   2.479  -0.069   2.814 -1.5781 -0.7533 -3.5120
  232SOL    HW2  696   2.484   0.071   2.707 -0.3772  1.5415 -0.2755
  233SOL     OW  697   1.707   1.291   1.140  0.5901 -0.1364 -0.0161
  233SOL    HW1  698   1.719   1.273   1.040 -1.9506 -1.6270 -3.4797
  233SOL    HW2  699   1.747   1.216   1.198 -0.2346 -0.1049  1.2647
  234SOL     OW  700   1.590   2.583   1.857 -0.0763 -0.1185  0.8846
  234SOL    HW1  701   1.605   2.660   1.925  2.6151 -0.6150  0.6727
  234SOL    HW2  702   1.525   2.514   1.890  0.6071  0.1014 -1.9221
  235SOL     OW  703   0.057   3.009   2.840  0.3647 -0.0892 -0.0099
  235SOL    HW1  704   0.117   3.075   2.787 -1.9540 -1.2542 -2.0268
  235SOL    HW2  705  -0.012   3.051   2.908  2.3018  3.4863 -0.0661
  236SOL     OW  706   2.885   0.760   0.080  0.5065 -0.0175  0.3196
  236SOL    HW1  707   2.923   0.812   0.159 -3.2558  0.6926  0.8841
  236SOL    HW2  708   2.941   0.685   0.041 -0.1675  0.7979  1.9258
  237SOL     OW  709   1.481   1.705   0.992  0.6916 -0.2973 -0.8252
  237SOL    HW1  710   1.575   1.666   0.972  0.1481  2.8579 -0.9044
  237SOL    HW2  711   1.470   1.752   1.087 -0.3290  2.1606  0.7633
  238SOL     OW  712   1.780   1.276   0.867 -0.1285 -0.4869  0.5514
  238SOL    HW1  713   1.882   1.277   0.853 -0.5565  1.4530  0.6868
  238SOL    HW2  714   1.728   1.334   0.799  1.7975  1.2384 -2.6590
  239SOL     OW  715   2.037   0.235   2.764  0.8724 -0.0888  0.2103
  239SOL    HW1  716   2.108   0.208   2.838  1.9223 -2.2792  3.5189
  239SOL    HW2  717   1.958   0.295   2.795  0.0717  2.1558  0.7424
  240SOL     OW  718   0.994   0.640   0.312 -0.3194 -0.1187  0.6202
  240SOL    HW1  719   0.963   0.548   0.284  0.6462  2.8536 -3.3261
  240SOL    HW2  720   0.997   0.650   0.414 -1.9799  1.2201 -1.6803
  241SOL     OW  721   0.636   0.103   0.355  0.2874  0.4298  1.1846
  241SOL    HW1  722   0.670   0.193   0.309  0.0818  0.2108  1.6561
  241SOL    HW2  723   0.610   0.025   0.292 -2.0716 -2.9847  0.1596
  242SOL     OW  724   0.685   2.483   1.121 -0.3654 -0.2415 -0.1446
  242SOL    HW1  725   0.651   2.539   1.198  0.3095 -1.6830 -2.9344
  242SOL    HW2  726   0.775   2.522   1.085 -1.5296  0.8526 -0.0401
  243SOL     OW  727   1.107   0.587   2.489 -0.8144 -0.0551  0.2436
  243SOL    HW1  728   1.029   0.647   2.473  0.0059 -2.1457 -0.0515
  243SOL    HW2  729   1.090   0.497   2.536  1.8703 -2.4000  1.9631
  244SOL     OW  730   2.779   1.890   2.353 -0.5462 -0.0468 -0.1576
  244SOL    HW1  731   2.805   1.837   2.264  1.3068 -0.5422 -1.5884
  244SOL    HW2  732   2.684   1.867   2.389  1.9677 -0.6511 -0.0467
  245SOL     OW  733   2.450   0.651   2.194 -0.5098 -0.3168 -0.4096
  245SOL    HW1  734   2.509   0.734   2.193 -0.1884  0.7977  1.6243
  245SOL    HW2  735   2.498   0.554   2.193 -1.0359 -0.6689  0.6685
  246SOL     OW  736   0.224   2.920   1.665 -0.2621 -0.6583  0.2981
  246SOL    HW1  737   0.146   2.909   1.596  2.2015  0.7681  0.3440
  246SOL    HW2  738   0.272   3.011   1.653 -0.3309 -0.8083 -0.0898
  247SOL     OW  739   2.144   0.560   3.042  0.7562  0.1742 -0.3241
  247SOL    HW1  740   2.219   0.579   2.978 -3.9529 -1.0823  0.0521
  247SOL    HW2  741   2.098   0.647   3.082 -1.7908 -0.6045 -4.1404
  248SOL     OW  742   2.109   1.792   1.574 -0.0717  0.1564 -0.0758
  248SOL    HW1  743   2.188   1.748   1.627 -0.8688  1.4442 -0.1809
  248SOL    HW2  744   2.024   1.786   1.631  0.7971  1.6156 -1.0343
  249SOL     OW  745   1.968   1.908   1.938  0.0204 -0.0986 -0.1149
  249SOL    HW1  746   1.941   1.856   1.850  0.2316  2.6007  0.0519
  249SOL    HW2  747   2.041   1.982   1.922 -1.0817  1.1425  1.5440
  250SOL     OW  748   1.112   0.752   1.906  0.1382 -0.3175 -0.2732
  250SOL    HW1  749   1.181   0.682   1.947  0.6367 -1.6033  0.8471
  250SOL    HW2  750   1.068   0.712   1.820 -1.2301 -0.7817 -0.4335
  251SOL     OW  751   3.086   1.575   2.539  0.0713  0.1993  0.2618
  251SOL    HW1  752   3.050   1.671   2.535 -2.2160 -2.9297 -3.5791
  251SOL    HW2  753   3.008   1.512   2.548  1.8444  2.4341 -0.6451
  252SOL     OW  754   1.579   0.903   1.549 -0.2256 -0.2817  0.0868
  252SOL    HW1  755   1.542   0.922   1.457  3.2701 -2.3600  1.6838
  252SOL    HW2  756   1.568   0.978   1.622 -1.4710 -1.1742  0.4646
  253SOL     OW  757   0.864   1.517   0.430 -0.3956 -0.5563  0.3952
  253SOL    HW1  758   0.917   1.428   0.406 -0.7046 -0.3827 -0.7418
  253SOL    HW2  759   0.781   1.532   0.383  4.0916 -0.7963  3.1966
  254SOL     OW  760   2.086   2.125   1.580 -0.5849  0.1154 -0.2219
  254SOL    HW1  761   2.072   2.069   1.493 -0.0110 -0.4724  1.9586
  254SOL    HW2  762   2.004   2.132   1.644 -0.1050  1.7922  0.7230
  255SOL     OW  763   0.105   1.173   2.937  0.0137  0.0899 -0.4133
  255SOL    HW1  764   0.159   1.248   2.893  1.5910 -2.1834 -0.2999
  255SOL    HW2  765   0.168   1.104   2.986  0.9122 -0.7613  1.4961
  256SOL     OW  766   2.757   1.373   1.752 -0.1981 -0.0092 -0.7875
  256SOL    HW1  767   2.680   1.424   1.793  0.4726 -0.5117 -0.5836
  256SOL    HW2  768   2.729   1.276   1.732 -0.0355  1.2766 -0.2025
  257SOL     OW  769   0.854   0.154   1.773 -0.3366  0.2865 -0.2486
  257SOL    HW1  770   0.912   0.233   1.743  0.5650  0.3340  0.7924
  257SOL    HW2  771   0.909   0.075   1.799 -1.4403 -0.0745  1.0724
  258SOL     OW  772   2.925   1.298   0.438 -0.5369 -0.0600  0.3609
  258SOL    HW1  773   2.880   1.393   0.420 -1.9863 -0.8987 -2.5967
  258SOL    HW2  774   2.969   1.304   0.528 -2.3091  0.6261 -1.6342
  259SOL     OW  775   0.482   2.947   3.035 -0.0878  0.4216 -0.0318
  259SOL    HW1  776   0.407   2.877   3.070 -1.1068  0.5817  0.1819
  259SOL    HW2  777   0.499   2.930   2.937 -2.8372  1.1708  1.7690
  260SOL     OW  778   2.719   0.829   2.740  0.1961  0.3781  0.3225
  260SOL    HW1  779   2.618   0.833   2.728  3.6130 -1.8110  0.1813
  260SOL    HW2  780   2.755   0.906   2.796  1.5309 -3.4248  0.8988
  261SOL     OW  781   2.731   1.339   1.320  0.3821 -0.4897 -0.6130
  261SOL    HW1  782   2.652   1.287   1.268 -3.3544 -1.7655 -0.2997
  261SOL    HW2  783   2.792   1.281   1.378 -0.1479  0.5253  1.1474
  262SOL     OW  784   1.445   2.995   1.997 -0.4573  0.2985 -0.0229
  262SOL    HW1  785   1.483   3.053   1.920 -0.1676 -1.4766  2.0786
  262SOL    HW2  786   1.358   2.941   1.973 -0.9871 -0.2131  1.0240
  263SOL     OW  787   0.846   0.717   2.349  0.0532  0.1400 -0.1286
  263SOL    HW1  788   0.840   0.629   2.297  1.4349 -1.8135  3.6063
  263SOL    HW2  789   0.884   0.800   2.300 -0.2123  2.1548  2.4367
  264SOL     OW  790   2.217   0.808   0.298 -0.4923  0.0884 -0.3454
  264SOL    HW1  791   2.143   0.862   0.351 -2.5521  3.2078 -0.1261
  264SOL    HW2  792   2.310   0.810   0.345  2.9454 -4.5679  0.6764
  265SOL     OW  793   0.906   2.272   2.660 -0.3042  0.1073  0.3824
  265SOL    HW1  794   0.942   2.323   2.744  1.6254 -0.4088 -2.1748
  265SOL    HW2  795   0.867   2.175   2.685 -0.8734 -1.1436  1.5078
  266SOL     OW  796   1.338   1.739   3.092 -0.4539 -0.1519  0.8819
  266SOL    HW1  797   1.325   1.808   3.170 -1.1676  1.2560  0.2758
  266SOL    HW2  798   1.439   1.717   3.070 -2.2537 -1.5107 -1.3829
  267SOL     OW  799   0.972   3.057   2.366 -0.4142 -0.1858  0.0102
  267SOL    HW1  800   0.988   3.033   2.268 -1.3485  0.2016 -0.9822
  267SOL    HW2  801   0.940   3.155   2.377  1.1113 -0.7100  1.2611
  268SOL     OW  802   0.687   1.135   1.074  0.4110  0.1492  0.3094
  268SOL    HW1  803   0.677   1.196   1.152  1.0785 -0.5440  0.5901
  268SOL    HW2  804   0.684   1.192   0.981 -2.3275  0.1735 -2.0995
  269SOL     OW  805   2.393   2.471   1.539 -0.3870  0.2397 -0.3356
  269SOL    HW1  806   2.488   2.430   1.528 -2.0762 -1.4990  2.0680
  269SOL    HW2  807   2.371   2.481   1.643  0.8551  0.5610  1.2318
  270SOL     OW  808   0.132   3.046   1.902  0.0479 -0.1058  0.0123
  270SOL    HW1  809   0.216   3.032   1.842  0.8346  0.0708  0.1238
  270SOL    HW2  810   0.067   2.964   1.897 -1.0892  1.4069 -1.9189
  271SOL     OW  811   0.414   1.412   1.149  0.0816 -0.5679 -0.0896
  271SOL    HW1  812   0.387   1.391   1.045 -2.0868 -1.1737 -0.5003
  271SOL    HW2  813   0.329   1.421   1.211 -0.6514 -0.0380 -0.9542
  272SOL     OW  814   1.976   2.888   1.900  0.1307  0.1978 -0.3955
  272SOL    HW1  815   1.935   2.838   1.819 -1.6538 -1.3286 -0.4156
  272SOL    HW2  816   2.065   2.948   1.876  3.6512  0.8744  1.1836
  273SOL     OW  817   1.448   1.458   2.804  0.5230  0.4997 -0.6186
  273SOL    HW1  818   1.363   1.513   2.813 -1.1332  1.6094  0.6860
  273SOL    HW2  819   1.492   1.425   2.892  0.2906 -2.0188 -1.0845
  274SOL     OW  820   1.250   0.513   1.997  0.8303  0.0852 -0.1804
  274SOL    HW1  821   1.189   0.430   1.978 -1.3030 -1.9521  1.6201
  274SOL    HW2  822   1.280   0.509   2.094 -1.2630 -2.0086 -2.5067
  275SOL     OW  823   0.643   2.074   1.871  0.0612 -0.3553  0.0361
  275SOL    HW1  824   0.593   2.165   1.902 -2.4453 -1.4537 -0.3567
  275SOL    HW2  825   0.582   1.992   1.878 -2.4688  1.8394 -0.2454
  276SOL     OW  826   2.146   0.925   2.801 -0.1994  0.0288 -0.1690
  276SOL    HW1  827   2.087   0.914   2.719  3.2030 -2.1781 -0.9839
  276SOL    HW2  828   2.117   0.864   2.885 -1.1719  0.5374  2.1971
  277SOL     OW  829  -0.000   0.861   0.276 -0.2887 -0.3320 -0.1368
  277SOL    HW1  830   0.097   0.885   0.246 -1.0756 -0.1798  0.0216
  277SOL    HW2  831  -0.009   0.796   0.357  2.9984 -0.8085 -0.0390
  278SOL     OW  832   0.250   0.284   3.071  0.3410  0.1661  0.0704
  278SOL    HW1  833   0.332   0.218   3.075 -2.7812 -0.6916 -0.5020
  278SOL    HW2  834   0.277   0.387   3.051 -0.9092  2.4879  0.5319
  279SOL     OW  835   0.144   0.098   0.908  0.0230  0.6341  0.4189
  279SOL    HW1  836   0.193   0.056   0.989 -2.0826 -2.6218 -0.4047
  279SOL    HW2  837   0.208   0.098   0.825  3.7667 -0.6162  1.7164
  280SOL     OW  838   1.566   2.907   2.541 -0.5547  0.2011 -0.5469
  280SOL    HW1  839   1.643   2.975   2.549  1.4884 -2.5259  0.1959
  280SOL    HW2  840   1.475   2.954   2.529  2.1371  1.7069  0.1989
  281SOL     OW  841   0.612   0.931   2.263  0.1729 -0.1913 -0.0119
  281SOL    HW1  842   0.642   0.840   2.226  1.6715 -0.8024  0.2154
  281SOL    HW2  843   0.568   0.923   2.357 -0.3008  0.3240  1.1056
  282SOL     OW  844   1.756   2.425   0.509  0.0192  0.8890  0.0791
  282SOL    HW1  845   1.730   2.366   0.429 -0.0292  1.0650  2.6723
  282SOL    HW2  846   1.729   2.524   0.498  1.5923 -0.3676  3.6559
  283SOL     OW  847   1.133   0.919   0.845  0.1007 -0.2761  0.0436
  283SOL    HW1  848   1.174   0.845   0.900 -1.5922  1.7336 -1.4913
  283SOL    HW2  849   1.080   0.986   0.903  2.1227 -0.6903  0.2488
  284SOL     OW  850   2.356   2.757   2.348  0.1508 -0.4675  0.3573
  284SOL    HW1  851   2.402   2.829   2.294 -1.0108 -0.6843  3.6369
  284SOL    HW2  852   2.332   2.794   2.446 -1.0738  0.2997  1.3460
  285SOL     OW  853   1.358   3.052   2.549 -0.5701 -0.1141 -0.1828
  285SOL    HW1  854   1.349   3.038   2.449 -3.3338 -0.0256  2.6840
  285SOL    HW2  855   1.271   3.101   2.589 -1.1878 -0.1874 -0.2875
  286SOL     OW  856   0.462   0.413   0.763  0.2337  0.2941 -0.2611
  286SOL    HW1  857   0.427   0.358   0.846 -2.4715 -1.6423  0.6563
  286SOL    HW2  858   0.470   0.351   0.678  0.7035 -3.1453 -0.4060
  287SOL     OW  859   0.121   1.323   2.537 -0.1460 -0.4910  0.1013
  287SOL    HW1  860   0.060   1.252   2.582  0.6223 -1.1085 -1.5222
  287SOL    HW2  861   0.096   1.427   2.555 -0.4701  2.5101  0.3173
  288SOL     OW  862   1.560   2.672   1.588  0.1393 -0.0239 -0.6675
  288SOL    HW1  863   1.554   2.652   1.694 -1.3311  1.8619 -2.6245
  288SOL    HW2  864   1.643   2.632   1.550  1.8697  1.6727  1.1950
  289SOL     OW  865   0.593   2.740   0.807 -0.9643  0.2909 -0.3257
  289SOL    HW1  866   0.677   2.800   0.775  1.5564  0.7614 -0.3342
  289SOL    HW2  867   0.571   2.758   0.903  1.2241 -1.2201 -1.1477
  290SOL     OW  868   2.826   1.083   1.714  0.1290  0.1897  0.2772
  290SOL    HW1  869   2.726   1.064   1.694  1.2334  0.4189 -4.6989
  290SOL    HW2  870   2.871   1.017   1.781 -1.2695  1.6624 -0.8729
  291SOL     OW  871   1.957   0.083   0.066 -0.0564  0.1684  0.2016
  291SOL    HW1  872   1.971   0.054   0.162  1.6719 -0.1343 -0.5854
  291SOL    HW2  873   2.026   0.153   0.037 -0.9772  0.7708  4.9171
  292SOL     OW  874   2.977   1.203   3.083 -0.0589 -0.7200  0.0239
  292SOL    HW1  875   2.896   1.237   3.028 -2.5834 -0.2523 -0.1592
  292SOL    HW2  876   3.064   1.220   3.027  1.5052  1.1891  0.1080
  293SOL     OW  877   0.561   2.121   0.154  0.7721  0.1753 -0.1899
  293SOL    HW1  878   0.513   2.196   0.205 -0.6390 -0.6562  0.9422
  293SOL    HW2  879   0.656   2.096   0.188 -1.2892  2.7357 -3.9955
  294SOL     OW  880   1.755   2.244   1.757  0.1751 -0.2384 -0.0681
  294SOL    HW1  881   1.788   2.314   1.824  1.0519  1.3246 -2.4481
  294SOL    HW2  882   1.712   2.291   1.673 -2.0501  3.1245 -0.7528
  295SOL     OW  883   1.021   1.040   0.516 -0.5914 -0.2875  0.1935
  295SOL    HW1  884   1.115   1.011   0.563 -1.8785 -0.4481  3.6406
  295SOL    HW2  885   0.944   1.035   0.584 -1.1965  0.8983 -3.1176
  296SOL     OW  886   1.266   2.111   2.524 -0.5317  0.6232 -0.0784
  296SOL    HW1  887   1.234   2.128   2.427  2.6120 -0.2342  0.9312
  296SOL    HW2  888   1.283   2.007   2.537  1.2258 -1.3907  0.1909
  297SOL     OW  889   1.461   0.593   1.392 -0.3568  0.0476 -0.3392
  297SOL    HW1  890   1.424   0.493   1.402  2.2204 -1.1224 -1.5632
  297SOL    HW2  891   1.557   0.598   1.431 -0.4701 -2.1018  1.9494
  298SOL     OW  892   0.491   1.368   2.958 -0.5103  1.2749  0.2091
  298SOL    HW1  893   0.490   1.286   3.022 -1.1916 -1.9272 -1.7235
  298SOL    HW2  894   0.545   1.339   2.876 -3.0192 -0.5609  2.8367
  299SOL     OW  895   0.507   0.247   1.373  0.3952 -0.6604  0.4872
  299SOL    HW1  896   0.493   0.351   1.353 -3.6737  0.8605 -1.8193
  299SOL    HW2  897   0.573   0.218   1.449  2.3822  0.9139 -1.4878
  300SOL     OW  898   1.208   1.834   2.851 -0.3606 -0.1347 -0.7422
  300SOL    HW1  899   1.189   1.731   2.832  0.6145  2.1832  3.1838
  300SOL    HW2  900   1.307   1.851   2.882 -1.0078  1.8019 -0.1388
  301SOL     OW  901   0.480   0.271   0.523  0.1030  0.2757  0.2592
  301SOL    HW1  902   0.380   0.242   0.527 -0.5938  3.7957 -1.7057
  301SOL    HW2  903   0.530   0.204   0.463  0.7558 -0.2271  1.4010
  302SOL     OW  904   1.217   2.391   2.303 -0.4220 -0.8437  0.4268
  302SOL    HW1  905   1.140   2.440   2.348 -1.2696  1.0591  0.1830
  302SOL    HW2  906   1.198   2.291   2.279  1.3655  0.7772  1.1075
  303SOL     OW  907   0.971   2.336   0.832 -0.2249 -0.1374 -0.2083
  303SOL    HW1  908   1.009   2.373   0.745  0.4749 -2.5504  0.8786
  303SOL    HW2  909   0.959   2.401   0.912 -0.1761  0.0844 -0.6850
  304SOL     OW  910   0.148   2.035   0.639 -0.1879 -0.1291  0.2732
  304SOL    HW1  911   0.207   1.983   0.567 -1.2730 -0.6541 -0.4597
  304SOL    HW2  912   0.096   2.120   0.607 -0.3404 -0.3745 -1.1439
  305SOL     OW  913   1.635   0.927   0.576  0.6310 -0.4332 -0.0131
  305SOL    HW1  914   1.568   0.923   0.495  1.1298  2.2455 -0.2057
  305SOL    HW2  915   1.665   0.835   0.614  1.0590  1.6107 -0.6848
  306SOL     OW  916   0.439   1.879   1.927  0.1919  0.0445  0.6982
  306SOL    HW1  917   0.485   1.798   1.883 -1.3685  1.9515  1.4563
  306SOL    HW2  918   0.431   1.863   2.027  2.0246  0.2177 -1.2554
  307SOL     OW  919   3.075   0.912   2.523  0.4245  0.2311 -0.0515
  307SOL    HW1  920   3.092   0.989   2.595  1.6979  2.7720  0.2616
  307SOL    HW2  921   3.000   0.844   2.546 -0.7918 -1.8975 -2.7291
  308SOL     OW  922   1.550   2.674   2.847  0.1336 -0.0258 -0.6561
  308SOL    HW1  923   1.537   2.603   2.773  0.7225 -0.2019  0.8939
  308SOL    HW2  924   1.500   2.642   2.939 -0.9008 -0.1971  1.9921
  309SOL     OW  925   1.217   0.067   1.763 -0.3445 -0.1001  0.1380
  309SOL    HW1  926   1.320   0.057   1.784  0.5957  1.2086 -1.7723
  309SOL    HW2  927   1.190   0.094   1.664 -0.4566 -0.3919 -0.9879
  310SOL     OW  928   1.505   2.552   0.665  0.0017 -0.3554 -0.4177
  310SOL    HW1  929   1.446   2.568   0.750 -1.1259 -0.9050 -1.9336
  310SOL    HW2  930   1.559   2.638   0.632 -1.2301 -0.1533 -1.5248
  311SOL     OW  931   1.163   0.943   1.580 -0.1881  0.1370  0.2533
  311SOL    HW1  932   1.230   0.886   1.632 -2.7286  0.1364 -2.9263
  311SOL    HW2  933   1.208   1.016   1.521 -0.1405 -0.1372 -0.6391
  312SOL     OW  934   1.634   0.669   0.974  0.4196  0.0956  0.0689
  312SOL    HW1  935   1.598   0.760   0.933  2.2078  1.0313 -1.5775
  312SOL    HW2  936   1.556   0.599   0.994 -1.1033  1.6807  1.0973
  313SOL     OW  937   1.592   1.396   0.694 -0.5246  0.1585  0.2517
  313SOL    HW1  938   1.521   1.455   0.737  2.7244 -0.1835 -0.7246
  313SOL    HW2  939   1.562   1.310   0.644  1.5957 -0.3237 -0.9092
  314SOL     OW  940   2.969   0.023   3.042 -0.3919  0.1402 -0.4768
  314SOL    HW1  941   2.953   0.063   3.137 -1.2683 -1.8376  0.5073
  314SOL    HW2  942   2.878  -0.020   3.007 -1.4941  0.1286 -2.5572
  315SOL     OW  943   1.213   0.198   2.805  0.1189  0.2722  0.1343
  315SOL    HW1  944   1.166   0.124   2.754  1.7689  1.6955  0.9049
  315SOL    HW2  945   1.247   0.164   2.901  0.3380 -0.4800  0.8479
  316SOL     OW  946   1.707   2.079   0.862  0.0162 -0.6695 -0.6860
  316SOL    HW1  947   1.649   2.057   0.942  1.0761 -0.6309 -0.1406
  316SOL    HW2  948   1.690   2.171   0.814 -0.8878  0.4986 -1.5256
  317SOL     OW  949   1.126   0.689   2.888  0.0409 -0.5286 -0.1115
  317SOL    HW1  950   1.066   0.730   2.962 -0.4237 -0.1126  2.2116
  317SOL    HW2  951   1.094   0.597   2.853 -2.3980  1.0991  2.0797
  318SOL     OW  952   1.325   3.063   2.257  0.2381  0.4732  0.3161
  318SOL    HW1  953   1.331   3.160   2.230  1.1652 -2.5533  1.8789
  318SOL    HW2  954   1.359   2.999   2.186  0.5464 -1.0597  2.1802
  319SOL     OW  955   0.662   2.458   2.946  0.9048  0.3641 -0.1798
  319SOL    HW1  956   0.582   2.417   3.002  1.1125  1.0679  0.3559
  319SOL    HW2  957   0.752   2.419   2.975 -1.1533  0.0814 -0.7446
  320SOL     OW  958   1.705   2.203   0.368  0.0000  0.0894  0.7402
  320SOL    HW1  959   1.785   2.141   0.353  0.6324 -1.1095 -1.0711
  320SOL    HW2  960   1.616   2.151   0.388  3.6437  0.6935  1.1633
  321SOL     OW  961   1.676   2.684   0.483  0.1977  0.4902 -0.3639
  321SOL    HW1  962   1.585   2.728   0.446 -1.3646  3.6382  2.7526
  321SOL    HW2  963   1.767   2.728   0.453  0.8003  1.4402  0.0277
  322SOL     OW  964   2.548   1.133   2.387  0.1126  0.3389  0.9491
  322SOL    HW1  965   2.638   1.163   2.345  0.4849  0.5178  4.3756
  322SOL    HW2  966   2.537   1.029   2.386  2.1221  0.4859  0.4705
  323SOL     OW  967   1.137   2.639   0.840  0.1218 -0.3103 -0.0614
  323SOL    HW1  968   1.144   2.583   0.751  1.1499 -1.7173 -0.3541
  323SOL    HW2  969   1.131   2.742   0.825  0.2787  0.2773 -0.3656
  324SOL     OW  970   0.250   2.538   2.528 -0.0302 -0.1444  0.2203
  324SOL    HW1  971   0.266   2.467   2.601  3.2540 -2.0267 -0.4618
  324SOL    HW2  972   0.183   2.613   2.560 -4.0234  0.5286  1.1975
  325SOL     OW  973   1.249   3.032   0.472  0.3944  0.1905  0.1353
  325SOL    HW1  974   1.245   3.071   0.375  0.6777  0.1207 -1.0274
  325SOL    HW2  975   1.286   3.107   0.537  2.7941 -1.2598  1.1192
  326SOL     OW  976   2.434   0.776   3.086 -0.1145 -0.1561  0.3621
  326SOL    HW1  977   2.377   0.720   3.021 -0.7444 -0.5668 -0.0977
  326SOL    HW2  978   2.499   0.713   3.140  0.3065  0.5013  0.1222
  327SOL     OW  979   2.850   0.364   0.598 -0.4950  0.3353  1.0025
  327SOL    HW1  980   2.814   0.365   0.502  0.2836 -0.0087  1.2720
  327SOL    HW2  981   2.819   0.283   0.655 -1.0250  0.5596 -0.8102
  328SOL     OW  982   2.535   0.587   0.389  0.2845  0.0549 -0.1073
  328SOL    HW1  983   2.518   0.677   0.430 -1.0436 -1.8584  3.0953
  328SOL    HW2  984   2.538   0.504   0.451  1.3061  0.5731  0.6767
  329SOL     OW  985   2.976   2.985   2.141  0.0885 -0.3410  0.4561
  329SOL    HW1  986   3.018   2.905   2.189  0.6952 -0.4967 -0.1116
  329SOL    HW2  987   3.043   3.050   2.097  0.6904  0.5773 -0.6599
  330SOL     OW  988   0.580   0.150   1.855 -0.1692  0.2168  0.1106
  330SOL    HW1  989   0.671   0.149   1.807 -0.5231 -0.8233  0.1908
  330SOL    HW2  990   0.581   0.066   1.918 -0.1943 -0.2462  0.6716
  331SOL     OW  991   2.958   1.929   1.169  0.0839  0.0260  0.3132
  331SOL    HW1  992   3.001   2.016   1.131 -1.3716 -0.8677 -1.7935
  331SOL    HW2  993   2.901   1.937   1.259  0.4930 -1.6431  2.5723
  332SOL     OW  994   0.448   1.139   0.011 -0.2432  0.0145  0.5155
  332SOL    HW1  995   0.384   1.073  -0.036  0.9961 -0.9796  2.5328
  332SOL    HW2  996   0.416   1.173   0.106  1.3459  1.7117  0.6968
  333SOL     OW  997   2.895   1.065   0.281  0.5338 -0.1414  0.2743
  333SOL    HW1  998   2.892   1.153   0.338  1.0854  0.4902  0.7604
  333SOL    HW2  999   2.989   1.025   0.276 -0.7536  1.0531  0.2126
  334SOL     OW 1000   1.709   1.245   1.827  0.5942 -0.6483 -0.2472
  334SOL    HW1 1001   1.803   1.204   1.810  0.7690  1.5529 -0.2049
  334SOL    HW2 1002   1.689   1.268   1.924  0.3626  1.1013 -0.2913
  335SOL     OW 1003   1.949   2.770   2.605  0.4497  0.3237 -0.1391
  335SOL    HW1 1004   1.873   2.716   2.657 -0.5636 -0.3857 -0.5617
  335SOL    HW2 1005   1.991   2.847   2.666 -0.5820  0.6082  0.3558
  336SOL     OW 1006   0.263   0.098   2.822  0.3121  0.2365 -0.3280
  336SOL    HW1 1007   0.340   0.066   2.887 -1.0387  1.7810 -0.8538
  336SOL    HW2 1008   0.219   0.185   2.858  0.0982 -0.7835 -0.9944
  337SOL     OW 1009   0.935   2.777   2.814  0.0759 -0.3500  0.2309
  337SOL    HW1 1010   0.922   2.726   2.903 -0.2411  0.9887 -0.8416
  337SOL    HW2 1011   1.033   2.776   2.782 -0.3602  1.3626 -1.6224
  338SOL     OW 1012   0.028   1.032   0.653 -0.0109  0.4456 -0.2876
  338SOL    HW1 1013  -0.077   1.019   0.672 -2.0248  1.1920  1.9123
  338SOL    HW2 1014   0.061   1.130   0.635 -1.1854  0.3399 -0.9175
  339SOL     OW 1015   1.709   1.355   2.084 -0.0365 -0.2253  0.1059
  339SOL    HW1 1016   1.611   1.361   2.124 -0.9714  1.7646 -0.4041
  339SOL    HW2 1017   1.753   1.446   2.095 -0.6890 -0.0489 -1.4533
  340SOL     OW 1018   2.340   0.715   1.195 -0.3599  0.5728 -0.4894
  340SOL    HW1 1019   2.241   0.741   1.179  2.1089  0.6952  0.4509
  340SOL    HW2 1020   2.373   0.624   1.153 -0.9551 -1.0456 -0.4806
  341SOL     OW 1021   1.946   2.087   0.348 -0.4087 -0.5412 -0.1638
  341SOL    HW1 1022   1.937   2.153   0.267 -1.0879  1.1957  0.2544
  341SOL    HW2 1023   2.044   2.080   0.383 -1.6238  2.8949 -0.0093
  342SOL     OW 1024   2.223   2.090   2.720  0.3337  0.0861 -0.1310
  342SOL    HW1 1025   2.285   2.005   2.740 -1.9559 -1.1428 -1.0967
  342SOL    HW2 1026   2.123   2.062   2.714  0.4160  0.6185  0.3111
  343SOL     OW 1027   0.408   0.870   2.782 -0.3365  0.5338  0.5476
  343SOL    HW1 1028   0.418   0.865   2.677 -0.9899 -0.3482 -1.8286
  343SOL    HW2 1029   0.502   0.863   2.834 -1.1327  0.8658  1.3564
  344SOL     OW 1030   1.959   1.389   0.381  0.1273  0.2476 -0.1821
  344SOL    HW1 1031   1.956   1.326   0.299 -1.7084 -0.1137  0.1084
  344SOL    HW2 1032   1.863   1.409   0.418  0.7609 -1.4601 -1.7718
  345SOL     OW 1033   1.414   2.288   2.871  0.0198  0.0790  0.6249
  345SOL    HW1 1034   1.318   2.252   2.855 -0.9391 -1.4445 -0.3478
  345SOL    HW2 1035   1.482   2.236   2.814  0.1745 -0.0289 -0.5756
  346SOL     OW 1036   2.363   0.920   1.394  0.5917  0.0404 -0.0101
  346SOL    HW1 1037   2.341   1.018   1.371 -0.4518  0.2705 -3.6716
  346SOL    HW2 1038   2.348   0.859   1.312 -1.2706 -0.3401  0.8591
  347SOL     OW 1039   0.731   2.780   1.456  0.6278 -0.2049  0.0730
  347SOL    HW1 1040   0.698   2.718   1.532  0.7432  0.5770  1.3088
  347SOL    HW2 1041   0.658   2.858   1.443 -1.0721 -0.0659  0.5964
  348SOL     OW 1042   0.162   0.657   2.843  0.2240 -0.3175  0.1334
  348SOL    HW1 1043   0.070   0.651   2.802 -1.1998  3.5178 -1.0116
  348SOL    HW2 1044   0.205   0.756   2.826  1.4973  2.7647  0.4889
  349SOL     OW 1045   1.836   0.428   2.786  0.1323  0.5086 -0.4469
  349SOL    HW1 1046   1.809   0.515   2.736  2.4525  1.4016 -3.1382
  349SOL    HW2 1047   1.830   0.435   2.891  1.9648 -1.0895 -0.1393
  350SOL     OW 1048   1.576   0.427   0.373  1.0466 -0.7143 -0.1882
  350SOL    HW1 1049   1.630   0.449   0.459 -0.5536  3.5903  1.4879
  350SOL    HW2 1050   1.568   0.513   0.318  1.1289 -0.0820  0.4010
  351SOL     OW 1051   0.984   0.853   2.128  0.0581  0.2584  0.6825
  351SOL    HW1 1052   0.969   0.956   2.115  0.1914 -1.7820  0.0311
  351SOL    HW2 1053   1.035   0.800   2.053 -0.4665 -0.3672  0.8918
  352SOL     OW 1054   2.054   1.293   0.650  0.1653  0.3817 -1.0081
  352SOL    HW1 1055   2.017   1.347   0.572  0.3090 -0.7959  2.6767
  352SOL    HW2 1056   2.154   1.293   0.658  1.1544  2.4722 -0.7464
  353SOL     OW 1057   2.182   2.895   1.066 -0.2942 -0.1579 -0.5014
  353SOL    HW1 1058   2.200   2.823   1.141 -1.0721 -1.2825 -2.1675
  353SOL    HW2 1059   2.097   2.865   1.014  1.0336  2.4257 -2.0252
  354SOL     OW 1060   0.245   1.392   2.840  0.3482  0.3207 -0.0534
  354SOL    HW1 1061   0.236   1.466   2.771  2.7458 -1.5386  0.1678
  354SOL    HW2 1062   0.341   1.372   2.871  1.9290 -1.5067 -0.3439
  355SOL     OW 1063   0.493   1.487   0.500 -0.4189  0.4239 -0.0365
  355SOL    HW1 1064   0.487   1.569   0.562  0.3892 -1.0573  1.1739
  355SOL    HW2 1065   0.559   1.417   0.540 -0.2453 -1.0717 -2.3983
  356SOL     OW 1066   0.884   0.255   2.071 -0.8997  0.0069 -0.1415
  356SOL    HW1 1067   0.978   0.258   2.023 -2.9417 -1.3296 -1.2458
  356SOL    HW2 1068   0.822   0.200   2.009 -0.8932 -1.1612 -2.2983
  357SOL     OW 1069   0.978   1.274   0.396 -0.5625  0.7515 -0.0794
  357SOL    HW1 1070   0.951   1.219   0.311  3.1157  0.8890 -0.8793
  357SOL    HW2 1071   1.026   1.205   0.459 -1.1833  1.2202  0.5559
  358SOL     OW 1072   1.708   1.508   0.475  0.0929 -0.0989  0.0595
  358SOL    HW1 1073   1.653   1.459   0.551  0.0100 -1.4210 -1.6457
  358SOL    HW2 1074   1.659   1.507   0.384 -0.5890  0.8230  0.3843
  359SOL     OW 1075   1.592   2.736   0.097 -0.1308 -0.5831  0.3242
  359SOL    HW1 1076   1.528   2.658   0.106  2.9828 -0.2455  1.0235
  359SOL    HW2 1077   1.552   2.830   0.119 -0.8281  1.8682  1.2370
  360SOL     OW 1078   0.887   0.598   0.577  0.4657 -0.3497  0.3742
  360SOL    HW1 1079   0.786   0.625   0.576 -2.3223 -0.8569 -0.0986
  360SOL    HW2 1080   0.903   0.497   0.603  0.0236 -1.4027  0.1813
  361SOL     OW 1081   1.195   1.362   0.722  0.1600 -0.3780  0.5355
  361SOL    HW1 1082   1.245   1.422   0.793 -2.7775 -2.8128  1.1635
  361SOL    HW2 1083   1.103   1.399   0.690  0.6210  1.2070 -1.0164
  362SOL     OW 1084   1.341   1.860   0.806  0.2925  0.5600 -0.1443
  362SOL    HW1 1085   1.371   1.795   0.882  0.1745  0.3638  2.0867
  362SOL    HW2 1086   1.422   1.883   0.746 -0.0307  0.2100  1.6689
  363SOL     OW 1087   1.214   1.303   2.021 -0.2276  0.0904 -0.2204
  363SOL    HW1 1088   1.298   1.355   2.054  0.1948 -1.2261  0.0874
  363SOL    HW2 1089   1.182   1.334   1.929 -1.7272  1.5352  1.3634
  364SOL     OW 1090   0.498   2.307   1.953 -0.3329 -0.2797  0.1000
  364SOL    HW1 1091   0.403   2.333   1.975  1.8564  1.6506  1.3505
  364SOL    HW2 1092   0.538   2.373   1.884  1.6164  2.0011  0.5045
  365SOL     OW 1093   1.003   1.859   1.436 -0.4349  0.0336  0.2771
  365SOL    HW1 1094   0.912   1.876   1.389 -2.0644 -0.0505 -0.5376
  365SOL    HW2 1095   1.044   1.764   1.421 -0.4998  0.1907  2.2249
  366SOL     OW 1096   2.751   2.068   0.471 -0.5202  0.3575 -0.4221
  366SOL    HW1 1097   2.660   2.017   0.468  1.3885  1.7666 -2.4999
  366SOL    HW2 1098   2.827   1.999   0.449 -0.1296 -2.5208 -0.5455
  367SOL     OW 1099   0.918   1.135   0.179  0.2600 -0.2649 -0.6342
  367SOL    HW1 1100   0.909   1.033   0.190 -3.8915  0.4359  0.5089
  367SOL    HW2 1101   0.954   1.163   0.087 -0.5231  0.8072 -0.9995
  368SOL     OW 1102   1.471   0.567   0.691 -0.5234 -0.4348 -0.3083
  368SOL    HW1 1103   1.430   0.583   0.599 -2.2229  1.1529  2.5169
  368SOL    HW2 1104   1.556   0.619   0.720 -0.3255  0.5277  1.5191
  369SOL     OW 1105   0.203   1.717   0.045  0.0906 -0.2540 -0.0937
  369SOL    HW1 1106   0.262   1.767   0.116  0.4329  0.6015  0.6031
  369SOL    HW2 1107   0.118   1.677   0.089  1.5623  0.4304  0.1342
  370SOL     OW 1108   0.446   2.076   1.035  0.2367 -0.1516 -0.2626
  370SOL    HW1 1109   0.450   2.179   1.033 -0.8139  0.6056  0.8440
  370SOL    HW2 1110   0.363   2.039   0.986  1.6036  0.6562  1.4878
  371SOL     OW 1111   2.885   2.181   2.691  0.3715 -0.1612 -0.5111
  371SOL    HW1 1112   2.830   2.173   2.776  1.8347 -1.0820 -2.1701
  371SOL    HW2 1113   2.983   2.223   2.713  0.6898  0.8454  0.6668
  372SOL     OW 1114   1.097   1.988   1.116  0.6888 -0.2530  0.5512
  372SOL    HW1 1115   1.018   2.022   1.067  1.4499 -1.4502  4.3671
  372SOL    HW2 1116   1.165   2.060   1.138 -1.6714  0.7804 -0.0011
  373SOL     OW 1117   1.994   2.035   0.856 -0.0681 -0.2118 -0.0617
  373SOL    HW1 1118   2.039   2.047   0.951 -0.6230  2.1336 -0.4140
  373SOL    HW2 1119   1.898   2.079   0.853  0.6567 -0.2150 -1.1406
  374SOL     OW 1120   1.755   0.475   0.573 -0.3258 -0.0401  0.0610
  374SOL    HW1 1121   1.776   0.454   0.671  0.4872  2.4774 -0.1868
  374SOL    HW2 1122   1.842   0.495   0.507  3.0802  0.7706 -2.9947
  375SOL     OW 1123   2.394   2.181   1.108  0.5387  0.1686  0.1664
  375SOL    HW1 1124   2.476   2.164   1.044  0.4077  1.0804 -2.4104
  375SOL    HW2 1125   2.421   2.183   1.210 -0.9801  1.6896 -0.6188
  376SOL     OW 1126   3.019   0.585   1.454 -0.1582 -0.3112  0.5835
  376SOL    HW1 1127   3.075   0.641   1.522  3.5814 -1.0635 -1.8669
  376SOL    HW2 1128   2.922   0.618   1.445  0.3314  2.6144  0.4923
  377SOL     OW 1129   2.249   2.862   0.351 -0.2456 -0.5307  0.0550
  377SOL    HW1 1130   2.253   2.959   0.386 -1.6663 -0.8511  3.2400
  377SOL    HW2 1131   2.340   2.827   0.310  1.4701 -1.5903  0.0079
  378SOL     OW 1132   1.833   1.799   2.672  0.6866  0.2493 -0.4655
  378SOL    HW1 1133   1.758   1.798   2.596 -2.2293  0.7874  0.2092
  378SOL    HW2 1134   1.868   1.701   2.692 -1.9528 -4.5343  0.5721
  379SOL     OW 1135   0.877   0.123   2.748 -0.6705 -0.3717  0.2583
  379SOL    HW1 1136   0.822   0.037   2.729  1.5703  2.9877 -0.7095
  379SOL    HW2 1137   0.847   0.205   2.695  1.1568 -0.7260 -0.9310
  380SOL     OW 1138   1.514   1.183   0.560  0.3259 -0.1884  0.0084
  380SOL    HW1 1139   1.417   1.177   0.611 -1.7030  1.8593  1.6907
  380SOL    HW2 1140   1.573   1.101   0.580  1.2737 -2.0988  1.2492
  381SOL     OW 1141   1.339   1.156   1.465 -0.1227  0.6060 -0.3128
  381SOL    HW1 1142   1.379   1.181   1.374 -1.1918 -1.6309 -1.3959
  381SOL    HW2 1143   1.411   1.135   1.536  1.6009  0.2548  0.5087
  382SOL     OW 1144   1.803   0.856   0.203 -0.2801  0.6071  0.0465
  382SOL    HW1 1145   1.857   0.814   0.130 -1.7803  2.6585  1.0935
  382SOL    HW2 1146   1.858   0.857   0.289 -1.0561  0.5154 -0.0891
  383SOL     OW 1147   2.639   1.035   1.488  0.4173  0.5160 -0.5520
  383SOL    HW1 1148   2.554   1.028   1.425 -2.6014 -0.8450  0.1011
  383SOL    HW2 1149   2.723   0.997   1.446 -2.7840 -0.0411 -1.0943
  384SOL     OW 1150   0.933   2.278   0.132  0.4953  0.4892  0.1831
  384SOL    HW1 1151   0.913   2.363   0.188  0.7142 -1.1231 -1.6527
  384SOL    HW2 1152   0.905   2.185   0.174 -0.8924 -1.4714 -0.1900
  385SOL     OW 1153   3.000   2.027   1.757  0.0816  0.2374 -0.4176
  385SOL    HW1 1154   3.067   2.098   1.724 -0.4651 -0.3027  1.7313
  385SOL    HW2 1155   3.054   1.936   1.749 -0.2379 -0.3704 -0.8896
  386SOL     OW 1156   0.459   1.145   0.456  0.1206  0.1292 -0.5551
  386SOL    HW1 1157   0.494   1.043   0.452  2.7547 -1.4165  2.2832
  386SOL    HW2 1158   0.395   1.167   0.379 -1.9655 -2.3471  0.6357
  387SOL     OW 1159   1.000   0.360   1.662 -0.0285  0.1074 -0.8186
  387SOL    HW1 1160   1.067   0.438   1.670  2.0949  2.6203 -0.3356
  387SOL    HW2 1161   0.992   0.324   1.562  0.9362 -2.0282 -0.5627
  388SOL     OW 1162   1.215   2.644   1.775 -0.2737  0.1326 -0.4427
  388SOL    HW1 1163   1.219   2.633   1.671 -0.0425  1.6608 -1.3980
  388SOL    HW2 1164   1.270   2.574   1.835 -0.8083  3.1285  1.8439
  389SOL     OW 1165   0.199   3.058   1.128  0.0280  0.0286 -0.0106
  389SOL    HW1 1166   0.122   3.059   1.192  2.1760 -1.8170 -0.1760
  389SOL    HW2 1167   0.240   2.961   1.118  2.2774  0.7961  4.2903
  390SOL     OW 1168   1.052   0.944   1.244  0.0107  0.3975  1.0449
  390SOL    HW1 1169   1.133   0.888   1.279  1.5944  0.7883 -0.3283
  390SOL    HW2 1170   0.988   0.983   1.317  0.9700  1.6848 -0.8472
  391SOL     OW 1171   2.047   1.172   0.995  0.9207  0.1513 -0.4156
  391SOL    HW1 1172   1.974   1.110   1.027 -0.9443  2.1196 -0.3575
  391SOL    HW2 1173   2.133   1.117   0.962  2.8635  2.2309 -0.7467
  392SOL     OW 1174   0.907   2.649   3.067 -0.2423  0.1733  0.5962
  392SOL    HW1 1175   0.826   2.610   3.126 -2.0345  2.5338 -0.4835
  392SOL    HW2 1176   0.985   2.693   3.124  0.0959 -2.6148  1.6284
  393SOL     OW 1177   0.427   0.489   2.082 -0.1042 -0.5117 -0.3461
  393SOL    HW1 1178   0.364   0.408   2.066 -1.3339  0.5689  0.3309
  393SOL    HW2 1179   0.515   0.493   2.023 -0.6071  2.8261 -0.9839
  394SOL     OW 1180   2.983   1.797   2.768  0.3391 -0.7477 -0.0190
  394SOL    HW1 1181   3.046   1.846   2.832 -0.6791 -0.5816 -1.0852
  394SOL    HW2 1182   3.000   1.829   2.668  3.8566 -1.1811 -1.7037
  395SOL     OW 1183   1.568   1.925   0.680 -0.0678  0.3605 -0.0874
  395SOL    HW1 1184   1.606   1.845   0.630 -0.5857 -0.0483  0.0956
  395SOL    HW2 1185   1.645   1.959   0.741 -0.7445  1.4025  0.3460
  396SOL     OW 1186   2.775   1.980   1.341  0.2283 -0.4607 -0.1090
  396SOL    HW1 1187   2.782   2.016   1.438 -1.0138  0.6567 -0.5662
  396SOL    HW2 1188   2.677   1.964   1.305 -0.7770 -0.9871 -1.7392
  397SOL     OW 1189   1.029   2.101   0.623  0.2045 -0.0508 -0.4251
  397SOL    HW1 1190   0.950   2.043   0.597  1.1925  0.9425  1.9703
  397SOL    HW2 1191   0.998   2.165   0.704 -1.0631  1.8151  0.3628
  398SOL     OW 1192   2.240   0.046   1.006 -0.1963 -0.4244 -0.8796
  398SOL    HW1 1193   2.218  -0.059   1.021 -0.9967 -4.5495 -1.3628
  398SOL    HW2 1194   2.164   0.105   1.046  2.1852 -1.0247 -0.8759
  399SOL     OW 1195   2.858   2.566   2.756 -0.1149 -0.5381  0.5088
  399SOL    HW1 1196   2.807   2.538   2.667  0.3771  0.3671  2.4521
  399SOL    HW2 1197   2.821   2.520   2.841  0.0004  2.3280  2.2341
  400SOL     OW 1198   0.756   1.586   1.272 -0.3547 -0.5118  0.3941
  400SOL    HW1 1199   0.724   1.625   1.361  0.5194 -1.3814  0.6270
  400SOL    HW2 1200   0.738   1.649   1.189 -1.9684 -1.6718 -3.0312
  401SOL     OW 1201   1.844   0.168   1.297  0.2399  0.1180  0.1156
  401SOL    HW1 1202   1.900   0.217   1.372  0.6856 -1.1363  1.2219
  401SOL    HW2 1203   1.743   0.162   1.319 -2.7106 -2.0431 -1.0455
  402SOL     OW 1204   1.335   0.159   3.079 -0.0168 -0.2382  0.4496
  402SOL    HW1 1205   1.434   0.145   3.045 -2.4268  0.3964 -1.7595
  402SOL    HW2 1206   1.326   0.242   3.140  0.0339 -0.0362 -1.2532
  403SOL     OW 1207   2.301   1.849   0.913 -0.0564 -0.0358 -0.1730
  403SOL    HW1 1208   2.402   1.851   0.919  0.1956 -0.3073 -0.0628
  403SOL    HW2 1209   2.253   1.904   0.989  0.6659 -0.7554  0.9974
  404SOL     OW 1210   0.199   2.485   2.867  0.4618 -0.4345  0.3420
  404SOL    HW1 1211   0.292   2.461   2.835  1.5384  1.1917 -0.9910
  404SOL    HW2 1212   0.192   2.586   2.875 -0.8556 -1.1204 -1.4822
  405SOL     OW 1213   0.229   2.516   0.587 -1.1567  0.5393  0.3373
  405SOL    HW1 1214   0.167   2.515   0.505 -1.3960  0.2972  1.5780
  405SOL    HW2 1215   0.284   2.605   0.586 -1.9885 -2.1001  2.1347
  406SOL     OW 1216   0.038   1.492   3.015  0.6097 -0.2716  0.1364
  406SOL    HW1 1217   0.141   1.487   2.995  0.8758 -0.1420 -0.1657
  406SOL    HW2 1218   0.018   1.516   3.115  3.0551 -1.6467 -3.8462
  407SOL     OW 1219   1.549   0.927   0.893  0.4301  0.1427  0.0826
  407SOL    HW1 1220   1.558   0.951   0.794 -2.0426 -0.7505 -1.9735
  407SOL    HW2 1221   1.482   0.995   0.937  0.3079 -0.3560  0.1284
  408SOL     OW 1222   1.588   2.395   1.003 -0.0380 -0.8468  0.0383
  408SOL    HW1 1223   1.646   2.404   0.919 -1.6747 -0.5291  2.5638
  408SOL    HW2 1224   1.629   2.454   1.084  4.5443 -0.6661  3.5159
  409SOL     OW 1225   0.543   0.834   0.764 -0.9338  0.9571 -0.0621
  409SOL    HW1 1226   0.485   0.837   0.680  0.4569  0.4309  0.5835
  409SOL    HW2 1227   0.598   0.741   0.773  0.0910 -1.0587  1.0230
  410SOL     OW 1228   1.250   2.005   1.423 -0.0304  0.2595 -0.8592
  410SOL    HW1 1229   1.276   2.014   1.527 -3.0518 -0.5322 -1.0572
  410SOL    HW2 1230   1.163   1.956   1.426  1.7996  1.5662  0.2657
  411SOL     OW 1231   2.440   1.806   3.065  0.4703  0.9824  0.4194
  411SOL    HW1 1232   2.388   1.879   3.011 -2.7737  0.7875 -0.6672
  411SOL    HW2 1233   2.513   1.758   3.011  0.8743 -0.5156 -1.4504
  412SOL     OW 1234   1.468   2.479   2.222  0.4626  0.4114 -0.0595
  412SOL    HW1 1235   1.510   2.544   2.290  3.1748 -0.4611  2.5589
  412SOL    HW2 1236   1.374   2.438   2.245  1.0344 -0.7531  1.6106
  413SOL     OW 1237   3.097   0.277   2.956  0.9624 -0.5355  0.0861
  413SOL    HW1 1238   3.034   0.198   2.983 -2.4702  0.4240  0.5652
  413SOL    HW2 1239   3.191   0.282   3.002 -2.2077  1.4741  1.8218
  414SOL     OW 1240   1.781   1.458   1.390 -0.1569  0.3834 -0.0830
  414SOL    HW1 1241   1.705   1.518   1.431 -2.5151 -0.4185 -1.4404
  414SOL    HW2 1242   1.756   1.416   1.302 -0.7822 -1.0497  0.5037
  415SOL     OW 1243   0.351   2.284   0.627 -0.1837 -0.3114  0.3475
  415SOL    HW1 1244   0.316   2.381   0.608 -0.7906 -1.7298  1.7067
  415SOL    HW2 1245   0.286   2.206   0.609 -2.2753 -1.8437  2.3338
  416SOL     OW 1246   0.352   1.043   1.058 -0.4575 -0.4851  0.4116
  416SOL    HW1 1247   0.303   0.982   0.985 -4.0948  0.0214 -0.8238
  416SOL    HW2 1248   0.453   1.047   1.057  0.1504 -0.5203 -0.0903
  417SOL     OW 1249   2.117   2.366   1.883  0.1461 -0.3476 -0.4910
  417SOL    HW1 1250   2.130   2.264   1.878  0.5887 -1.8538 -0.6358
  417SOL    HW2 1251   2.043   2.392   1.954  0.2075  1.6492  2.1408
  418SOL     OW 1252   1.100   0.498   1.266 -0.5140  0.3321  0.0406
  418SOL    HW1 1253   1.011   0.502   1.212  0.5806 -1.3005 -0.8692
  418SOL    HW2 1254   1.168   0.437   1.218 -0.1142 -3.0839 -1.1826
  419SOL     OW 1255   1.051   0.326   3.037 -0.2279 -0.5939 -0.1398
  419SOL    HW1 1256   1.056   0.395   2.959  1.5981 -1.5617  1.5306
  419SOL    HW2 1257   0.981   0.251   3.031  0.0333  3.1478  0.2804
  420SOL     OW 1258   0.205   2.255   0.354 -0.0590 -0.1906  0.6900
  420SOL    HW1 1259   0.168   2.214   0.263  3.1521  1.4534 -1.3964
  420SOL    HW2 1260   0.135   2.262   0.428 -1.3765  0.7074 -0.4795
  421SOL     OW 1261   0.313   3.097   0.689  0.0469  0.1523 -0.5109
  421SOL    HW1 1262   0.264   3.005   0.696 -0.7089  1.3075 -0.4093
  421SOL    HW2 1263   0.419   3.079   0.674 -0.5376  0.2637 -1.2251
  422SOL     OW 1264   0.984   2.526   1.034  0.1212  0.4313  0.1101
  422SOL    HW1 1265   1.053   2.575   0.972 -0.0473  0.3279  1.9474
  422SOL    HW2 1266   1.005   2.546   1.134  4.5812  1.9757 -1.0573
  423SOL     OW 1267   0.060   0.663   1.226  0.6432 -0.1704  0.3066
  423SOL    HW1 1268   0.033   0.633   1.318  1.5318  2.5209 -1.7965
  423SOL    HW2 1269   0.017   0.760   1.208 -1.3192  0.7500  0.3862
  424SOL     OW 1270   0.986   2.219   2.067  0.2226 -0.3258 -0.1695
  424SOL    HW1 1271   1.021   2.308   2.028  0.4168  1.0572 -1.0552
  424SOL    HW2 1272   0.984   2.219   2.173  1.6312 -0.0322  0.0944
  425SOL     OW 1273   1.967   1.447   1.009  0.0279 -0.1125 -0.0294
  425SOL    HW1 1274   1.978   1.345   1.001 -2.2331 -1.2453  0.9007
  425SOL    HW2 1275   2.035   1.494   0.951 -0.7338  0.4615  1.3690
  426SOL     OW 1276   1.516   1.562   1.442  0.4404  0.1872  0.1698
  426SOL    HW1 1277   1.503   1.628   1.360 -1.7771 -0.3874 -0.1540
  426SOL    HW2 1278   1.495   1.596   1.537 -0.3075  1.1165  1.0807
  427SOL     OW 1279   1.939   2.395   2.085 -0.3250 -0.3459  0.3885
  427SOL    HW1 1280   1.984   2.364   2.169 -0.1851 -0.8649 -1.8422
  427SOL    HW2 1281   1.901   2.489   2.088  0.1347 -1.8388 -0.3293
  428SOL     OW 1282   0.864   2.924   0.139  0.0628 -0.2982  0.1777
  428SOL    HW1 1283   0.876   3.021   0.168  1.4067  2.9869 -0.5562
  428SOL    HW2 1284   0.947   2.862   0.157  2.1759  0.3540 -0.7286
  429SOL     OW 1285   1.292   0.064   0.235  0.0532  0.0858  0.3855
  429SOL    HW1 1286   1.373   0.096   0.289 -0.1845 -1.7843 -2.0090
  429SOL    HW2 1287   1.305   0.078   0.131 -0.4985 -1.9106 -1.7586
  430SOL     OW 1288   2.749   1.532   0.358 -0.7337 -0.6337  0.1899
  430SOL    HW1 1289   2.756   1.585   0.272 -2.0472  1.3485  3.0950
  430SOL    HW2 1290   2.763   1.595   0.442 -2.7225 -1.0686  2.5675
  431SOL     OW 1291   2.123   1.637   0.890 -0.0966  0.3970 -0.1360
  431SOL    HW1 1292   2.178   1.715   0.931 -2.8081  0.0664  3.4878
  431SOL    HW2 1293   2.061   1.671   0.813  1.3283 -1.5088 -2.5819
  432SOL     OW 1294   2.910   2.273   1.249 -0.3465  0.6861 -0.6200
  432SOL    HW1 1295   2.859   2.179   1.253 -0.8145  2.9708  2.8534
  432SOL    HW2 1296   2.956   2.299   1.344 -0.0346 -1.5777  2.7439
  433SOL     OW 1297   1.862   0.384   0.810 -0.5218  0.2471  0.2440
  433SOL    HW1 1298   1.787   0.349   0.877 -0.4932 -0.4113 -0.7525
  433SOL    HW2 1299   1.929   0.306   0.792  2.1274  0.6587  0.8652
  434SOL     OW 1300   1.548   0.267   0.734  0.4129 -0.2741 -0.6595
  434SOL    HW1 1301   1.538   0.357   0.675 -1.8344  0.4695  0.6232
  434SOL    HW2 1302   1.590   0.283   0.825  0.3232  0.3133  0.6692
  435SOL     OW 1303   1.447   1.397   2.147  0.0564  0.6728 -0.3592
  435SOL    HW1 1304   1.424   1.411   2.245  0.6889  0.1024  2.0347
  435SOL    HW2 1305   1.441   1.479   2.083 -0.3917  1.3372  0.7955
  436SOL     OW 1306   1.620   2.682   2.401  0.0177  0.8037 -0.4866
  436SOL    HW1 1307   1.604   2.772   2.451  1.7819 -1.4368 -1.3701
  436SOL    HW2 1308   1.658   2.613   2.465  0.2379  0.1777 -0.1054
  437SOL     OW 1309   1.096   2.900   0.863  0.4328  0.1927 -0.3717
  437SOL    HW1 1310   1.045   2.989   0.846  0.8370  0.4688  0.2220
  437SOL    HW2 1311   1.119   2.887   0.962 -1.6503  3.1604 -1.2487
  438SOL     OW 1312   1.030   2.609   1.316  0.1710 -0.2682  0.8417
  438SOL    HW1 1313   1.103   2.643   1.377 -1.0908  0.7711  1.7641
  438SOL    HW2 1314   1.015   2.511   1.324 -0.8832  3.4563 -1.9158
  439SOL     OW 1315   0.735   1.776   1.076 -0.3903  0.1616  0.4973
  439SOL    HW1 1316   0.780   1.870   1.077 -0.2206  0.1467  1.4677
  439SOL    HW2 1317   0.628   1.775   1.084  0.2234 -1.5237 -0.5269
  440SOL     OW 1318   1.026   2.463   1.968 -0.2500  0.0438 -0.1245
  440SOL    HW1 1319   0.978   2.505   1.886  0.5776 -0.5724 -2.4022
  440SOL    HW2 1320   1.126   2.489   1.970 -1.0172 -0.5994  0.6382
  441SOL     OW 1321   0.432   2.794   1.374  0.0613  0.4110 -0.2026
  441SOL    HW1 1322   0.467   2.695   1.378  0.5095 -1.8685 -0.5637
  441SOL    HW2 1323   0.354   2.803   1.302  1.8645 -3.8449 -0.2669
  442SOL     OW 1324   2.276   0.668   2.618  0.5798 -0.1124  0.6632
  442SOL    HW1 1325   2.267   0.574   2.575  0.1833  1.0910 -1.7563
  442SOL    HW2 1326   2.189   0.715   2.633  2.1649 -0.6399 -0.6988
  443SOL     OW 1327   1.224   2.683   2.207 -0.0575  0.1527  0.0247
  443SOL    HW1 1328   1.220   2.587   2.242  1.2887  3.2291  3.1837
  443SOL    HW2 1329   1.183   2.750   2.271 -0.8064  2.4776  0.3890
  444SOL     OW 1330   1.077   1.246   1.502  0.7075  0.4993 -0.0732
  444SOL    HW1 1331   1.178   1.209   1.496 -0.3498  2.0634  1.8136
  444SOL    HW2 1332   1.066   1.333   1.557  1.4868 -0.4186  0.9919
  445SOL     OW 1333   3.070   2.412   1.884  0.0299  0.0913 -0.5334
  445SOL    HW1 1334   3.020   2.466   1.814  2.8414  1.1013  0.6364
  445SOL    HW2 1335   3.008   2.349   1.945 -1.5131 -0.0196  0.6354
  446SOL     OW 1336   0.196   1.904   2.397  0.0061 -0.3266  0.4425
  446SOL    HW1 1337   0.131   1.991   2.416 -0.1878  0.4718 -0.7270
  446SOL    HW2 1338   0.168   1.859   2.307  0.8239 -0.3896  1.7812
  447SOL     OW 1339   1.240   1.656   1.939 -0.1378 -0.1906  0.2804
  447SOL    HW1 1340   1.153   1.717   1.940 -1.0723  0.1901  0.3633
  447SOL    HW2 1341   1.317   1.717   1.975 -0.0211 -0.4721  3.1694
  448SOL     OW 1342   0.108   1.403   2.025 -0.4008  0.2628 -0.6387
  448SOL    HW1 1343   0.126   1.483   1.961 -2.2115 -1.2304  0.0025
  448SOL    HW2 1344   0.060   1.432   2.116 -0.3730  1.9821  0.9818
  449SOL     OW 1345   1.747   2.959   0.887 -0.3608 -0.6746  0.5687
  449SOL    HW1 1346   1.766   2.974   0.990  0.1385  1.3447 -1.1667
  449SOL    HW2 1347   1.811   2.892   0.844 -0.7937 -1.2723  0.3918
  450SOL     OW 1348   2.295   1.475   0.751 -0.0495 -0.4274  0.7165
  450SOL    HW1 1349   2.222   1.528   0.801  0.8403  2.6564 -2.2563
  450SOL    HW2 1350   2.316   1.525   0.658  1.4187  1.0303 -2.0051
  451SOL     OW 1351   1.365   3.081   1.466 -0.6541  0.2939 -0.3087
  451SOL    HW1 1352   1.292   3.158   1.472 -5.3523  1.6589 -2.4945
  451SOL    HW2 1353   1.384   3.033   1.555 -3.0625 -0.4022 -1.7250
  452SOL     OW 1354   2.665   2.293   2.253 -0.0118 -0.3112  0.7230
  452SOL    HW1 1355   2.629   2.387   2.270 -2.2890 -0.1900 -0.7763
  452SOL    HW2 1356   2.722   2.256   2.335  0.9138  1.3865 -1.2876
  453SOL     OW 1357   2.458   2.662   3.086  0.2322  0.4385 -0.3321
  453SOL    HW1 1358   2.369   2.707   3.123 -1.5431 -0.0332  2.9705
  453SOL    HW2 1359   2.442   2.578   3.030 -2.9597  2.2968  1.0733
  454SOL     OW 1360   0.948   1.131   2.061  0.0132  0.7702 -0.4720
  454SOL    HW1 1361   0.945   1.092   1.962  1.0274  0.2935 -1.3317
  454SOL    HW2 1362   1.025   1.204   2.064  2.0126  0.9025  3.2507
  455SOL     OW 1363   0.650   2.682   2.793  0.3366 -0.6203  0.3445
  455SOL    HW1 1364   0.744   2.733   2.800 -1.7339 -3.8189  2.4030
  455SOL    HW2 1365   0.653   2.595   2.854  1.2286  0.3814  1.9137
  456SOL     OW 1366   0.387   1.891   0.214  0.1666 -0.5081 -0.7182
  456SOL    HW1 1367   0.470   1.831   0.235  1.2228 -1.3354  2.4083
  456SOL    HW2 1368   0.407   1.991   0.187  0.7535  0.4517  0.2918
  457SOL     OW 1369   0.394   2.720   0.610  0.2348 -0.1671  0.7068
  457SOL    HW1 1370   0.398   2.766   0.516 -0.0489 -2.8234  1.4952
  457SOL    HW2 1371   0.484   2.713   0.654 -0.6552  1.4894 -1.6556
  458SOL     OW 1372   2.843   0.042   1.155  0.7487 -0.0012  0.3376
  458SOL    HW1 1373   2.924   0.108   1.153  3.4508 -0.6226 -0.2825
  458SOL    HW2 1374   2.847  -0.033   1.082  0.3242  1.4111  0.1843
  459SOL     OW 1375   2.141   2.609   0.791 -0.4767  0.2133  0.1134
  459SOL    HW1 1376   2.228   2.643   0.844  2.9128 -1.2005  1.7017
  459SOL    HW2 1377   2.165   2.545   0.711 -1.6617  2.4228 -2.3757
  460SOL     OW 1378   1.195   2.131   2.804  0.2493  0.2734  0.6002
  460SOL    HW1 1379   1.197   2.137   2.699 -1.7510  1.7504 -1.2733
  460SOL    HW2 1380   1.177   2.031   2.827 -1.0167 -0.0392  0.9794
  461SOL     OW 1381   0.511   2.162   2.676  0.4096  0.3191 -0.3738
  461SOL    HW1 1382   0.458   2.090   2.628  0.6785  1.2439  0.8722
  461SOL    HW2 1383   0.515   2.138   2.778  2.1705  1.8481  1.0101
  462SOL     OW 1384   0.972   1.093   1.798 -0.9735  0.3326  0.1686
  462SOL    HW1 1385   1.019   1.061   1.712 -0.5688 -3.5243  1.5768
  462SOL    HW2 1386   0.921   1.182   1.778  0.2892  1.6872  0.2064
  463SOL     OW 1387   0.458   0.861   0.501 -0.1055 -0.1456  0.4085
  463SOL    HW1 1388   0.480   0.761   0.490 -1.9820  0.4746 -0.5959
  463SOL    HW2 1389   0.352   0.880   0.519 -1.3509  0.3161 -0.5431
  464SOL     OW 1390   0.571   2.291   2.225  0.3464 -0.6842 -0.0726
  464SOL    HW1 1391   0.553   2.386   2.268 -0.9966  1.8111  0.2900
  464SOL    HW2 1392   0.526   2.273   2.131 -1.0326 -1.3374 -0.6214
  465SOL     OW 1393   0.232   0.925   0.814 -0.2515 -0.0325  0.2004
  465SOL    HW1 1394   0.146   0.959   0.758 -3.2616  1.8124 -0.3370
  465SOL    HW2 1395   0.244   0.820   0.810 -1.2366  0.5425  1.1911
  466SOL     OW 1396   1.397   1.139   1.022 -0.3750 -0.2934 -0.6209
  466SOL    HW1 1397   1.438   1.221   0.971  1.6447 -0.9614 -1.2181
  466SOL    HW2 1398   1.292   1.146   1.025 -1.0198 -1.4816 -0.6765
  467SOL     OW 1399   0.624   0.432   2.453 -0.1096  0.1652 -0.0335
  467SOL    HW1 1400   0.556   0.507   2.423  0.4775  2.1038  0.6414
  467SOL    HW2 1401   0.591   0.380   2.541 -0.3634  1.0846 -1.3088
  468SOL     OW 1402   0.436   2.259   1.635  0.2683  0.4755 -0.0576
  468SOL    HW1 1403   0.506   2.321   1.686  0.6150  0.8034 -0.6272
  468SOL    HW2 1404   0.452   2.250   1.532  0.6749  2.7157 -1.7854
  469SOL     OW 1405   1.481   1.349   1.280  0.1087 -0.0813 -0.4083
  469SOL    HW1 1406   1.549   1.332   1.199  1.4674  0.5009 -0.7445
  469SOL    HW2 1407   1.506   1.423   1.346  0.2873  2.2287 -1.5820
  470SOL     OW 1408   3.014   1.880   0.742  0.5476 -0.3942  0.2918
  470SOL    HW1 1409   3.084   1.923   0.679 -0.9885 -1.9114  2.8269
  470SOL    HW2 1410   3.056   1.843   0.826  0.1884 -0.2259  0.1382
  471SOL     OW 1411   2.581   1.342   2.161 -0.3077 -0.2055 -0.1716
  471SOL    HW1 1412   2.549   1.292   2.243  0.7944 -1.5004 -0.9573
  471SOL    HW2 1413   2.659   1.411   2.182  1.5178  0.3917  0.9680
  472SOL     OW 1414   1.166   2.384   0.030 -0.3278 -0.1253 -0.0576
  472SOL    HW1 1415   1.240   2.349   0.097  1.0850  1.8337  1.4474
  472SOL    HW2 1416   1.071   2.371   0.068  0.2299  1.1835  2.7525
  473SOL     OW 1417   1.058   1.485   1.063  0.5463  0.6919 -0.2404
  473SOL    HW1 1418   0.963   1.492   1.016 -1.5738 -0.1734  1.8778
  473SOL    HW2 1419   1.077   1.391   1.101  0.5864  0.4415  3.8018
  474SOL     OW 1420   0.642   1.284   0.597  0.1378 -0.6056 -0.7136
  474SOL    HW1 1421   0.563   1.224   0.556 -2.3486 -1.3338  0.7276
  474SOL    HW2 1422   0.722   1.226   0.626  1.8428 -0.7933 -0.0347
  475SOL     OW 1423   2.823   0.023   0.833  0.0351 -0.1231 -0.4224
  475SOL    HW1 1424   2.900   0.091   0.854  2.1872 -0.6787 -0.1529
  475SOL    HW2 1425   2.738   0.061   0.879 -2.3416  0.9921 -1.0555
  476SOL     OW 1426   0.984   2.996   1.766 -0.4205  0.6086 -0.1554
  476SOL    HW1 1427   1.079   3.029   1.796 -0.1966  3.5530  0.0696
  476SOL    HW2 1428   0.982   2.975   1.663 -0.2793  0.7889  1.0488
  477SOL     OW 1429   1.474   0.327   2.424 -0.2115  0.3355  0.1622
  477SOL    HW1 1430   1.458   0.334   2.530  0.7859 -1.2940  0.9355
  477SOL    HW2 1431   1.561   0.272   2.403  1.4663  1.4277 -0.4750
  478SOL     OW 1432   2.224   1.820   0.197  0.5764 -0.6162 -0.5190
  478SOL    HW1 1433   2.165   1.758   0.255 -0.9306 -1.4682  0.7138
  478SOL    HW2 1434   2.275   1.777   0.119 -1.0826  4.6818 -0.8647
  479SOL     OW 1435   1.250   0.965   2.833 -0.2419  0.3378 -1.1368
  479SOL    HW1 1436   1.315   0.982   2.757 -0.7484 -1.2243  1.5395
  479SOL    HW2 1437   1.210   0.870   2.830  1.9123 -0.0675  0.9775
  480SOL     OW 1438   2.631   2.364   0.376  0.4016  0.2710 -0.3733
  480SOL    HW1 1439   2.619   2.272   0.418  0.5788  2.2189  0.5434
  480SOL    HW2 1440   2.555   2.383   0.311  1.5101 -1.6158 -0.6612
  481SOL     OW 1441   0.927   1.185   0.866  0.0637  0.0255 -0.0294
  481SOL    HW1 1442   0.932   1.274   0.817 -0.1874 -0.2206 -0.1853
  481SOL    HW2 1443   0.973   1.184   0.958  0.0525  1.5251 -0.5622
  482SOL     OW 1444   1.578   0.291   1.992  0.6283 -0.4478  0.2332
  482SOL    HW1 1445   1.599   0.385   1.961  2.6482  1.0887  1.0960
  482SOL    HW2 1446   1.661   0.238   2.036  1.8764  0.4865  0.2400
  483SOL     OW 1447   0.147   2.274   1.209 -0.5123 -0.1520 -0.2325
  483SOL    HW1 1448   0.077   2.298   1.282  2.6718 -1.3101  1.2867
  483SOL    HW2 1449   0.158   2.355   1.139 -1.3960 -1.3278  0.1040
  484SOL     OW 1450   1.758   1.129   1.365  0.1071 -0.2217  0.0747
  484SOL    HW1 1451   1.813   1.045   1.391 -0.6499  0.2308 -0.9083
  484SOL    HW2 1452   1.791   1.209   1.420 -0.0123  0.7827  2.1265
  485SOL     OW 1453   0.746   0.848   1.755  0.2828  0.3661 -0.2235
  485SOL    HW1 1454   0.728   0.882   1.653  0.0719  1.1759 -1.4488
  485SOL    HW2 1455   0.845   0.834   1.778 -0.8354  1.1140  1.0676
  486SOL     OW 1456   0.811   1.846   2.487 -0.2382  0.0966 -0.0752
  486SOL    HW1 1457   0.883   1.830   2.566  0.1311 -1.1651  0.1051
  486SOL    HW2 1458   0.799   1.946   2.469  1.3690  2.8761  2.0436
  487SOL     OW 1459   1.747   1.651   0.951 -0.4969  0.9464 -0.0176
  487SOL    HW1 1460   1.811   1.571   0.982  1.3490 -0.8501  1.0317
  487SOL    HW2 1461   1.791   1.698   0.872  0.2228 -0.6255  2.1266
  488SOL     OW 1462   2.938   0.874   2.247  0.1744  0.0719 -0.3534
  488SOL    HW1 1463   2.961   0.772   2.239 -2.3293 -0.2179 -1.8677
  488SOL    HW2 1464   2.946   0.905   2.346  0.8595 -0.1527 -0.5079
  489SOL     OW 1465   2.846   0.339   1.278 -0.3514 -0.3203  0.2458
  489SOL    HW1 1466   2.835   0.305   1.375 -2.4501 -1.0850  1.3784
  489SOL    HW2 1467   2.927   0.295   1.231  1.7270  0.8881  1.8494
  490SOL     OW 1468   1.412   2.947   2.816 -0.3355 -0.5036 -0.4786
  490SOL    HW1 1469   1.484   2.873   2.799  3.6649  2.4091 -0.4147
  490SOL    HW2 1470   1.388   2.982   2.724  1.4244 -2.2155  0.0451
  491SOL     OW 1471   1.674   1.516   2.644 -0.5480 -0.3634 -0.1288
  491SOL    HW1 1472   1.581   1.511   2.691 -4.5565  4.2230  1.0650
  491SOL    HW2 1473   1.750   1.528   2.711  0.3819 -0.0069  1.3293
  492SOL     OW 1474   0.557   2.077   0.616  0.2221 -0.4182  0.0799
  492SOL    HW1 1475   0.607   2.068   0.713  1.4622 -1.5109  2.0516
  492SOL    HW2 1476   0.490   2.153   0.610  1.7756 -3.1114  0.8629
  493SOL     OW 1477   0.439   1.398   2.062  0.1280  0.1394 -0.4354
  493SOL    HW1 1478   0.350   1.449   2.048 -2.4255  2.3685  0.2726
  493SOL    HW2 1479   0.428   1.298   2.095  1.2872  0.2366 -1.5933
  494SOL     OW 1480   2.716   2.660   0.069 -0.0001  1.0448 -0.0152
  494SOL    HW1 1481   2.712   2.647   0.175  1.1797  1.2764  0.4307
  494SOL    HW2 1482   2.626   2.699   0.029  0.0222  0.6660 -2.4510
  495SOL     OW 1483   2.585   2.728   2.639  0.3977 -0.5518 -0.4868
  495SOL    HW1 1484   2.557   2.636   2.616  2.0360  2.3124  2.2998
  495SOL    HW2 1485   2.666   2.769   2.592 -0.1737  0.3292 -0.6368
  496SOL     OW 1486   2.058   2.274   0.763  0.2579 -0.0819  0.4066
  496SOL    HW1 1487   2.070   2.329   0.848  0.7078  1.5659 -1.4059
  496SOL    HW2 1488   2.052   2.170   0.786  0.5779  0.7607  1.2429
  497SOL     OW 1489   0.192   2.996   2.345 -0.0722 -0.0081 -0.3547
  497SOL    HW1 1490   0.140   3.037   2.421 -0.2473 -1.1359 -1.9652
  497SOL    HW2 1491   0.196   3.060   2.261 -1.0671 -0.8865 -2.2239
  498SOL     OW 1492   1.213   1.331   1.242 -0.0370  0.0389 -0.5011
  498SOL    HW1 1493   1.315   1.329   1.246 -1.4819  0.1519 -0.1603
  498SOL    HW2 1494   1.164   1.373   1.322 -0.8092 -3.9767 -1.0337
  499SOL     OW 1495   0.617   1.768   0.317 -0.0618 -0.4976  0.5370
  499SOL    HW1 1496   0.653   1.688   0.264  0.8041  2.1180  3.8662
  499SOL    HW2 1497   0.692   1.817   0.377 -1.0078 -0.7096  2.4357
  500SOL     OW 1498   1.379   2.882   1.666 -0.2976  0.2055 -0.5161
  500SOL    HW1 1499   1.320   2.852   1.752  0.4897  0.3866  2.3768
  500SOL    HW2 1500   1.452   2.820   1.627  1.6055  0.8815  2.6111
  501SOL     OW 1501   0.796   1.132   2.272  0.4587 -0.0777 -0.6189
  501SOL    HW1 1502   0.714   1.062   2.262 -3.0563 -4.5663 -0.1728
  501SOL    HW2 1503   0.864   1.129   2.191 -1.2981 -0.0910  0.3539
  502SOL     OW 1504   2.575   0.933   1.734  0.3605  0.0358 -0.2979
  502SOL    HW1 1505   2.601   0.945   1.635 -0.0746 -0.0860  1.1438
  502SOL    HW2 1506   2.585   0.836   1.762  0.3117  1.7051 -1.1537
  503SOL     OW 1507   1.347   0.150   0.603  0.1950 -0.4436  0.3145
  503SOL    HW1 1508   1.291   0.235   0.613  0.6407 -2.2760 -0.3073
  503SOL    HW2 1509   1.427   0.153   0.668 -2.0678  1.8166 -0.3628
  504SOL     OW 1510   2.989   2.335   1.484  0.3650 -0.1902  0.1184
  504SOL    HW1 1511   2.924   2.408   1.521 -2.4712  0.0802 -1.8984
  504SOL    HW2 1512   3.070   2.317   1.545 -1.0537 -0.9999  1.2627
  505SOL     OW 1513   2.280   1.187   1.412  0.5335  0.2564 -0.5424
  505SOL    HW1 1514   2.234   1.229   1.330  0.1259 -0.7195  3.3679
  505SOL    HW2 1515   2.352   1.248   1.440 -1.4678 -0.5213  1.4314
  506SOL     OW 1516   1.948   0.203   1.831  0.2877  0.0633  0.4792
  506SOL    HW1 1517   2.023   0.130   1.836 -0.2106 -2.1552 -2.9027
  506SOL    HW2 1518   1.967   0.299   1.861 -1.7634  0.4286 -0.3633
  507SOL     OW 1519   0.595   0.691   2.140  0.0603  0.0552 -0.3633
  507SOL    HW1 1520   0.525   0.651   2.072 -0.5925 -1.3196 -0.3123
  507SOL    HW2 1521   0.673   0.628   2.140  1.1317 -1.5544  0.5788
  508SOL     OW 1522   0.318   1.669   0.738 -0.0745  0.0332 -0.2764
  508SOL    HW1 1523   0.367   1.735   0.671  1.5091 -2.3097 -0.4776
  508SOL    HW2 1524   0.275   1.719   0.821 -0.2960 -0.9475 -1.7812
  509SOL     OW 1525   1.294   1.179   2.414  0.8297 -0.3136 -0.5075
  509SOL    HW1 1526   1.318   1.125   2.330 -1.5967 -1.5043  5.0623
  509SOL    HW2 1527   1.193   1.163   2.442 -2.7625 -0.0979 -1.5278
  510SOL     OW 1528   1.273   2.119   2.220  0.2286  0.1953  0.1994
  510SOL    HW1 1529   1.271   2.157   2.125  0.0280  2.9786  0.6956
  510SOL    HW2 1530   1.207   2.039   2.224 -1.0507 -4.5801 -1.3008
  511SOL     OW 1531   3.008   2.676   1.285 -0.2156 -0.3626  0.5868
  511SOL    HW1 1532   2.993   2.668   1.181  4.1627 -0.9914 -1.5988
  511SOL    HW2 1533   2.931   2.687   1.346  0.2460 -1.6965 -0.3093
  512SOL     OW 1534   2.431   0.434   1.371 -0.3533  0.0411  0.0017
  512SOL    HW1 1535   2.331   0.455   1.356  2.5364  0.7307  2.0072
  512SOL    HW2 1536   2.485   0.391   1.297  0.6819  0.6670  0.4245
  513SOL     OW 1537   2.598   2.107   0.926 -0.7069  0.0073 -0.1266
  513SOL    HW1 1538   2.567   2.179   0.859 -1.7087  0.1928  0.0858
  513SOL    HW2 1539   2.679   2.053   0.889  1.9473 -1.8547 -2.5127
  514SOL     OW 1540   0.673   2.773   0.451  0.1951  0.0739  0.6795
  514SOL    HW1 1541   0.673   2.831   0.363 -1.2043 -0.7888 -1.5762
  514SOL    HW2 1542   0.729   2.817   0.526 -0.3031  2.0366 -0.1481
  515SOL     OW 1543   1.919   1.320   2.393  0.2873 -0.2014 -0.5024
  515SOL    HW1 1544   1.932   1.247   2.323 -1.3664 -1.2770  2.3929
  515SOL    HW2 1545   1.829   1.307   2.441  0.5016 -1.5312  1.4282
  516SOL     OW 1546   0.288   0.289   1.880  0.0649 -0.0987  0.1266
  516SOL    HW1 1547   0.376   0.227   1.877 -1.5403 -1.6673 -0.3223
  516SOL    HW2 1548   0.220   0.258   1.812 -1.2779  0.6886  2.7701
  517SOL     OW 1549   0.486   0.117   1.125 -0.3313 -1.0605  0.4221
  517SOL    HW1 1550   0.499   0.149   1.220  2.4300 -0.6874 -0.6151
  517SOL    HW2 1551   0.419   0.043   1.110 -0.1591  2.9568 -1.8240
  518SOL     OW 1552   2.152   3.088   1.835 -0.2020 -0.6771  0.2145
  518SOL    HW1 1553   2.223   3.165   1.836 -3.6354 -1.8849  1.1409
  518SOL    HW2 1554   2.129   3.041   1.740  0.0025 -1.0513  0.0271
  519SOL     OW 1555   2.328   2.108   2.472  0.3806  0.3580 -0.0429
  519SOL    HW1 1556   2.273   2.098   2.560  2.2102 -0.4252 -0.0742
  519SOL    HW2 1557   2.352   2.206   2.459  1.8399 -4.1554  0.8135
  520SOL     OW 1558   1.834   2.692   1.736  0.4733  0.5353 -0.1408
  520SOL    HW1 1559   1.764   2.626   1.782 -3.2523 -1.9506  0.5507
  520SOL    HW2 1560   1.914   2.649   1.687 -0.2110 -0.1117  1.1108
  521SOL     OW 1561   0.556   3.072   2.061 -0.0127 -0.3160  0.4585
  521SOL    HW1 1562   0.457   3.080   2.093 -0.4214 -0.0676  1.4538
  521SOL    HW2 1563   0.617   3.096   2.140 -0.4442  0.3233 -2.5804
  522SOL     OW 1564   0.164   1.827   1.577 -0.0936 -0.5593  0.2414
  522SOL    HW1 1565   0.223   1.901   1.617  0.2283  3.0416 -1.9593
  522SOL    HW2 1566   0.129   1.853   1.481 -0.9548 -0.3424 -1.1305
  523SOL     OW 1567   2.178   2.969   1.588  0.2052  0.4096  0.1948
  523SOL    HW1 1568   2.262   2.909   1.579  1.1400  0.9045  1.2380
  523SOL    HW2 1569   2.109   2.930   1.525 -1.7161  3.2060 -1.9687
  524SOL     OW 1570   0.198   2.775   2.835 -0.1819 -0.3769 -0.3562
  524SOL    HW1 1571   0.138   2.856   2.837 -1.4622 -0.1069  1.4195
  524SOL    HW2 1572   0.297   2.804   2.815 -1.0453  0.9241  0.3173
  525SOL     OW 1573   2.227   2.025   0.399  0.5301 -0.4664  0.5218
  525SOL    HW1 1574   2.207   1.975   0.489  3.6233 -0.6851  0.4909
  525SOL    HW2 1575   2.227   1.958   0.322 -1.3792 -1.1718 -2.3474
  526SOL     OW 1576   0.467   1.481   1.749  0.4215 -0.3880 -0.3512
  526SOL    HW1 1577   0.542   1.541   1.793 -0.1454  1.9456 -2.2064
  526SOL    HW2 1578   0.454   1.382   1.788  0.4801 -3.6300 -0.8426
  527SOL     OW 1579   1.090   2.885   1.142 -0.3825 -0.4741 -0.5437
  527SOL    HW1 1580   1.140   2.822   1.207 -0.4826  3.0655 -0.1389
  527SOL    HW2 1581   1.112   2.989   1.155 -0.6711 -0.0173  2.3367
  528SOL     OW 1582   1.358   2.346   0.529 -0.0564  0.1320 -0.2567
  528SOL    HW1 1583   1.393   2.245   0.534  0.1567 -1.9055  0.1839
  528SOL    HW2 1584   1.421   2.416   0.568 -0.0756 -0.8774  0.0089
  529SOL     OW 1585   1.918   1.777   0.745 -0.0847  0.1077 -0.2363
  529SOL    HW1 1586   1.851   1.776   0.663  0.6170 -1.7049 -1.5927
  529SOL    HW2 1587   1.945   1.871   0.777 -0.0732 -1.1540 -0.4776
  530SOL     OW 1588   0.404   2.573   0.167  0.5707  0.7430  0.0912
  530SOL    HW1 1589   0.398   2.633   0.250  1.5268  3.6003 -0.0576
  530SOL    HW2 1590   0.443   2.478   0.189 -1.4552  1.4730 -1.3330
  531SOL     OW 1591   1.868   0.987   1.087  0.0182  0.0861 -0.7586
  531SOL    HW1 1592   1.869   0.919   1.013 -1.5105  1.4812  1.6607
  531SOL    HW2 1593   1.791   0.972   1.151  0.0060  1.2059 -0.4123
  532SOL     OW 1594   0.361   1.172   0.722  0.6086  0.2635  0.1219
  532SOL    HW1 1595   0.374   1.141   0.625 -2.1374 -0.2396 -1.3981
  532SOL    HW2 1596   0.329   1.096   0.784  1.9941 -2.1142 -1.7675
  533SOL     OW 1597   1.741   0.009   2.582 -0.2260  0.2220  0.0365
  533SOL    HW1 1598   1.842  -0.008   2.598 -2.6080  1.8704  0.7038
  533SOL    HW2 1599   1.706   0.089   2.646  0.7966  1.3716 -0.2385
  534SOL     OW 1600   0.266   0.213   1.473 -0.0423  0.2487 -0.8331
  534SOL    HW1 1601   0.351   0.230   1.415  1.5916  0.2792 -0.9074
  534SOL    HW2 1602   0.219   0.294   1.515 -1.7911 -0.6367  0.6769
  535SOL     OW 1603   1.888   0.367   0.227  0.6868  0.3902  0.1267
  535SOL    HW1 1604   1.912   0.455   0.290  2.3092  2.9379  0.5259
  535SOL    HW2 1605   1.805   0.317   0.267  0.0207  1.0512  1.1903
  536SOL     OW 1606   1.374   2.598   0.924  0.9322 -0.4754  0.0310
  536SOL    HW1 1607   1.398   2.513   0.985 -1.3126 -3.5503  0.8504
  536SOL    HW2 1608   1.276   2.598   0.889  1.0724  0.5991  0.8147
  537SOL     OW 1609   0.857   0.208   2.339 -0.5297 -0.1282  0.3803
  537SOL    HW1 1610   0.871   0.224   2.238 -0.8087 -1.1886  0.3907
  537SOL    HW2 1611   0.757   0.209   2.356  0.2358 -1.6975 -1.1512
  538SOL     OW 1612   1.668   2.312   1.506  0.0372 -0.1799  0.3399
  538SOL    HW1 1613   1.629   2.238   1.441 -0.8684 -1.5419  1.0500
  538SOL    HW2 1614   1.749   2.371   1.470  1.7774  0.4363  1.9219
  539SOL     OW 1615   0.219   1.634   2.686  0.1509  0.7361  0.3281
  539SOL    HW1 1616   0.133   1.621   2.638 -0.2918  1.2343  0.2704
  539SOL    HW2 1617   0.242   1.734   2.683  1.3280  0.2314  2.2835
  540SOL     OW 1618   2.743   1.688   1.968 -0.4083  0.3385  0.3337
  540SOL    HW1 1619   2.658   1.628   1.968 -0.8843 -1.2525  0.1774
  540SOL    HW2 1620   2.715   1.790   1.957  1.0530  3.0261 -0.9381
  541SOL     OW 1621   0.474   2.339   3.081 -0.0674  0.0917 -0.6704
  541SOL    HW1 1622   0.546   2.294   3.145  2.5682  1.7040 -1.5341
  541SOL    HW2 1623   0.390   2.288   3.059  0.5983 -0.5687 -1.8746
  542SOL     OW 1624   2.244   2.586   0.434  0.0635  0.1852 -0.3816
  542SOL    HW1 1625   2.225   2.680   0.391  0.7256  2.2835  1.1249
  542SOL    HW2 1626   2.163   2.549   0.487  2.4726  0.0827 -0.4207
  543SOL     OW 1627   0.997   1.734   1.688 -0.0323 -0.4244 -0.6041
  543SOL    HW1 1628   0.999   1.754   1.792  1.8715 -1.3412  1.0117
  543SOL    HW2 1629   0.952   1.809   1.636  3.0985  2.1736 -0.0121
  544SOL     OW 1630   0.961   0.369   0.210  0.3979  0.1953  0.0400
  544SOL    HW1 1631   1.004   0.274   0.230  0.9004  0.5270  0.4313
  544SOL    HW2 1632   0.954   0.390   0.107  2.2006 -0.2419  0.2079
  545SOL     OW 1633   1.109   1.705   0.696 -0.2774  0.2014  0.6876
  545SOL    HW1 1634   1.174   1.771   0.737  1.4126 -0.8711  0.3455
  545SOL    HW2 1635   1.111   1.703   0.594  0.8828  0.9060  0.7968
  546SOL     OW 1636   2.602   1.555   3.034  0.2399 -0.5678  0.4007
  546SOL    HW1 1637   2.528   1.568   2.963 -2.1207 -3.2331 -0.8211
  546SOL    HW2 1638   2.575   1.506   3.121  1.2639  2.9528 -1.8902
  547SOL     OW 1639   0.568   0.041   2.723  0.5201  0.3285 -0.6399
  547SOL    HW1 1640   0.621  -0.038   2.687 -1.3483  0.7277  2.8432
  547SOL    HW2 1641   0.489   0.022   2.778  0.4745  0.3502 -1.3957
  548SOL     OW 1642   2.032   0.833   3.064 -0.0394  0.7089 -0.1169
  548SOL    HW1 1643   1.932   0.816   3.040 -0.8490  1.1108  2.3382
  548SOL    HW2 1644   2.061   0.931   3.074  0.0548 -2.6634  1.0069
  549SOL     OW 1645   0.692   0.589   0.192  0.0095  0.3717  0.0262
  549SOL    HW1 1646   0.628   0.648   0.141 -0.7811 -0.1339 -0.4667
  549SOL    HW2 1647   0.769   0.633   0.246 -0.3633 -0.7046  1.4606
  550SOL     OW 1648   2.491   2.846   2.879 -0.2383  0.1032  0.3836
  550SOL    HW1 1649   2.473   2.777   2.959 -1.5414 -4.2737 -0.9511
  550SOL    HW2 1650   2.519   2.802   2.791  2.9237 -1.3721  0.7582
  551SOL     OW 1651   0.293   0.886   0.213  0.1236 -0.4184 -0.1940
  551SOL    HW1 1652   0.385   0.882   0.165 -1.1178  1.0503 -0.1410
  551SOL    HW2 1653   0.288   0.847   0.309 -0.7202 -1.3730  0.9030
  552SOL     OW 1654   0.735   2.909   1.866 -0.7770 -0.5399 -0.4141
  552SOL    HW1 1655   0.706   2.943   1.961 -2.0196  2.1771  1.6952
  552SOL    HW2 1656   0.830   2.920   1.834 -1.5879 -0.6825 -1.0182
  553SOL     OW 1657   0.032   2.511   0.393 -0.5592  0.2358  0.2073
  553SOL    HW1 1658  -0.032   2.432   0.369 -1.3713  0.4943 -2.2413
  553SOL    HW2 1659  -0.012   2.595   0.431  1.9708 -0.5889  1.4320
  554SOL     OW 1660   2.188   0.344   0.578 -0.2440  0.4028 -0.1947
  554SOL    HW1 1661   2.229   0.320   0.484 -0.7521  1.6047  0.7516
  554SOL    HW2 1662   2.213   0.276   0.654 -0.1852  0.4428  1.4857
  555SOL     OW 1663   0.430   2.898   2.501  0.2545  0.0048 -0.2906
  555SOL    HW1 1664   0.357   2.949   2.442  0.5876  0.6483  1.3107
  555SOL    HW2 1665   0.482   2.824   2.450 -0.1656 -2.7768  2.2905
  556SOL     OW 1666   0.862   2.400   1.602 -0.2981  0.1031 -0.3492
  556SOL    HW1 1667   0.899   2.475   1.665 -0.8059  1.1689 -3.5248
  556SOL    HW2 1668   0.923   2.378   1.522 -2.8171 -1.0082 -1.7710
  557SOL     OW 1669   0.102   2.082   0.151 -0.0908 -0.1043 -0.0767
  557SOL    HW1 1670   0.016   2.024   0.148 -0.8687  1.1777  2.0186
  557SOL    HW2 1671   0.146   2.108   0.059  0.3889 -2.6140  0.9322
  558SOL     OW 1672   2.943   2.331   0.316 -0.0430  0.5065 -0.4124
  558SOL    HW1 1673   2.840   2.338   0.332 -0.4310 -0.7986 -1.8710
  558SOL    HW2 1674   2.970   2.331   0.216 -0.6211 -0.7544 -0.1363
  559SOL     OW 1675   0.386   2.299   1.341 -0.0458 -0.0543  0.0242
  559SOL    HW1 1676   0.291   2.292   1.292 -1.6831  0.0746 -1.6034
  559SOL    HW2 1677   0.446   2.216   1.336 -1.5638  0.6253  2.7087
  560SOL     OW 1678   2.080   1.104   3.075 -0.0528 -0.1705  0.3449
  560SOL    HW1 1679   1.996   1.152   3.112 -1.0178  0.8582 -0.6154
  560SOL    HW2 1680   2.168   1.155   3.089 -2.1938  0.9099  1.3076
  561SOL     OW 1681   2.999   1.897   0.039 -0.2799 -0.2032  0.2889
  561SOL    HW1 1682   2.949   1.814   0.078  2.1055  0.8900 -0.4881
  561SOL    HW2 1683   2.941   1.980   0.004  0.7159  1.3043 -1.3031
  562SOL     OW 1684   0.952   2.202   2.335  0.1350  0.6709 -0.0620
  562SOL    HW1 1685   0.849   2.175   2.328 -2.9728 -0.8173 -3.2187
  562SOL    HW2 1686   0.978   2.226   2.429 -2.6992  0.4999 -2.5244
  563SOL     OW 1687   0.710   2.476   2.579  0.6496  0.5308 -0.0294
  563SOL    HW1 1688   0.789   2.424   2.615 -1.7630  0.3590 -2.0569
  563SOL    HW2 1689   0.654   2.524   2.648 -1.7515 -2.2947  1.9364
  564SOL     OW 1690   2.751   1.296   2.905 -0.1192 -0.5335 -0.0452
  564SOL    HW1 1691   2.678   1.289   2.976  1.1048  1.1734 -1.3704
  564SOL    HW2 1692   2.781   1.397   2.890 -0.4405 -0.4589 -0.2927
  565SOL     OW 1693   2.544   1.993   2.573 -0.0145  0.2162  0.0118
  565SOL    HW1 1694   2.475   2.052   2.522  0.5991 -1.0631 -0.5227
  565SOL    HW2 1695   2.566   2.031   2.669 -0.9633  0.8689 -0.2313
  566SOL     OW 1696   1.989   2.855   1.398  0.1103 -0.1126  0.3005
  566SOL    HW1 1697   1.920   2.776   1.369 -1.5775 -3.9968  1.8358
  566SOL    HW2 1698   2.077   2.837   1.346  0.0748  0.6346  0.8864
  567SOL     OW 1699   2.484   0.089   2.265 -0.5443 -0.2944 -0.7784
  567SOL    HW1 1700   2.502   0.189   2.294  3.6662 -0.4718 -2.3618
  567SOL    HW2 1701   2.459   0.076   2.168  0.6649  0.5966 -1.5301
  568SOL     OW 1702   1.534   1.764   0.229  0.3958 -0.2570 -0.1171
  568SOL    HW1 1703   1.486   1.838   0.177 -1.7299 -0.1929 -0.7480
  568SOL    HW2 1704   1.627   1.797   0.255  0.4570 -0.0771 -2.2388
  569SOL     OW 1705   0.284   0.632   0.870  0.1502  0.0456 -0.0776
  569SOL    HW1 1706   0.340   0.557   0.828 -0.1338  1.6137  2.9901
  569SOL    HW2 1707   0.182   0.613   0.872  3.2921  0.1769  0.9203
  570SOL     OW 1708   0.668   0.747   2.841 -0.3659  0.4542  0.3947
  570SOL    HW1 1709   0.715   0.732   2.752 -1.6850 -2.2124 -0.6176
  570SOL    HW2 1710   0.673   0.841   2.882  0.7456 -1.0046 -0.6523
  571SOL     OW 1711   0.820   3.058   1.085 -0.7265  0.3109 -0.1976
  571SOL    HW1 1712   0.866   3.075   0.990 -0.7640  2.6129 -1.5138
  571SOL    HW2 1713   0.831   2.958   1.111 -0.0657  0.5642 -2.6101
  572SOL     OW 1714   1.605   2.619   1.197 -0.0754 -0.1169  0.4257
  572SOL    HW1 1715   1.526   2.559   1.234  1.7743 -0.6717  0.6125
  572SOL    HW2 1716   1.568   2.705   1.144 -1.0330  0.2957  1.4712
  573SOL     OW 1717   2.930   0.438   2.029  0.6464 -0.0613 -0.3228
  573SOL    HW1 1718   2.874   0.348   2.042  1.4883 -0.6088  0.3233
  573SOL    HW2 1719   2.869   0.515   1.992 -0.1212  0.6014 -1.2595
  574SOL     OW 1720   0.199   1.752   0.984 -0.4024 -0.7322  0.4329
  574SOL    HW1 1721   0.185   1.857   0.981  2.8764  0.2790  3.3366
  574SOL    HW2 1722   0.136   1.699   1.047 -0.9743  1.3867  0.0782
  575SOL     OW 1723   0.891   2.122   0.999  0.2627 -0.2384 -0.0174
  575SOL    HW1 1724   0.862   2.145   1.099 -1.2488  0.0681  0.0838
  575SOL    HW2 1725   0.929   2.204   0.945  0.6678  1.7652  1.6257
  576SOL     OW 1726   2.932   2.957   1.652 -0.3556  0.7633 -0.4800
  576SOL    HW1 1727   2.847   2.908   1.621 -0.0052 -1.3781  0.0486
  576SOL    HW2 1728   2.946   3.060   1.641 -0.2804  0.7869  0.2394
  577SOL     OW 1729   2.539   1.219   3.085 -0.0328  0.3057  0.4492
  577SOL    HW1 1730   2.550   1.135   3.023  0.1530  0.9204  1.7186
  577SOL    HW2 1731   2.595   1.219   3.169 -1.0783 -1.5496  0.2277
  578SOL     OW 1732   1.337   2.696   2.571 -0.3768  0.3830 -0.4370
  578SOL    HW1 1733   1.242   2.727   2.539  1.3714  0.5956 -2.4262
  578SOL    HW2 1734   1.417   2.756   2.540 -0.8162  2.9562  0.3109
  579SOL     OW 1735   0.097   2.492   0.101 -0.4127  0.0587  0.0911
  579SOL    HW1 1736   0.083   2.478   0.201 -0.6084 -2.0106  0.6772
  579SOL    HW2 1737   0.196   2.520   0.083  0.7589 -1.4396 -2.1052
  580SOL     OW 1738   1.021   2.623   0.395 -0.4041  0.4769  0.2058
  580SOL    HW1 1739   1.110   2.651   0.343  0.9529 -0.8729  0.9268
  580SOL    HW2 1740   0.947   2.592   0.332 -0.9504  0.8760  1.4819
  581SOL     OW 1741   1.260   2.585   1.521  0.6526 -0.1433 -0.1176
  581SOL    HW1 1742   1.319   2.505   1.551 -0.5200 -0.2276  0.3777
  581SOL    HW2 1743   1.311   2.657   1.469 -1.2184  0.5048 -2.3703
  582SOL     OW 1744   1.508   0.092   1.822 -0.1558 -0.3318  0.1429
  582SOL    HW1 1745   1.525   0.173   1.886  0.7737 -0.9134 -1.6047
  582SOL    HW2 1746   1.590   0.071   1.766  0.1586  1.9685  1.3706
  583SOL     OW 1747   2.517   2.998   0.508  0.6777  0.8648 -0.7971
  583SOL    HW1 1748   2.523   2.912   0.446 -0.6310 -1.9653  0.9756
  583SOL    HW2 1749   2.456   2.978   0.585  1.1790 -1.5183 -2.0219
  584SOL     OW 1750   1.608   0.972   2.092 -0.2984 -0.1881  0.0038
  584SOL    HW1 1751   1.672   1.023   2.025  0.8567 -3.4326 -2.3805
  584SOL    HW2 1752   1.658   0.923   2.168  0.0528 -0.5977  1.8498
  585SOL     OW 1753   2.088   2.685   2.956  0.0324  0.1794  0.1716
  585SOL    HW1 1754   2.133   2.606   2.910 -1.4171 -2.3096 -1.4649
  585SOL    HW2 1755   1.984   2.695   2.937  0.7074 -1.2565  1.9032
  586SOL     OW 1756   2.739   0.239   1.565  0.6121  0.2686  0.0455
  586SOL    HW1 1757   2.752   0.321   1.626  1.4623 -0.8112  1.0440
  586SOL    HW2 1758   2.639   0.203   1.576 -2.9586 -0.6394  0.3210
  587SOL     OW 1759   1.927   1.543   2.751 -0.2926 -0.2641  0.4217
  587SOL    HW1 1760   1.995   1.505   2.683  1.4009 -0.2924  0.0451
  587SOL    HW2 1761   1.970   1.567   2.841 -1.4198 -1.9150  0.9257
  588SOL     OW 1762   0.487   2.756   2.264  0.3035  0.2247  0.3278
  588SOL    HW1 1763   0.417   2.808   2.204 -0.3126  2.2895 -1.1122
  588SOL    HW2 1764   0.456   2.664   2.300  0.5617 -1.1701  0.3567
  589SOL     OW 1765   2.105   1.434   2.563  0.1111 -0.4180 -0.1452
  589SOL    HW1 1766   2.049   1.380   2.496 -1.1122 -0.9444  0.2147
  589SOL    HW2 1767   2.200   1.396   2.585 -0.5261 -0.7132 -0.3793
  590SOL     OW 1768   2.333   1.646   2.037  0.5776 -0.4072 -0.2496
  590SOL    HW1 1769   2.418   1.587   2.025  0.0677 -2.0381 -2.0767
  590SOL    HW2 1770   2.323   1.683   2.134  1.3673  1.0089 -0.5256
  591SOL     OW 1771   1.327   2.390   0.265 -0.2882 -0.1121  0.1648
  591SOL    HW1 1772   1.424   2.374   0.232 -0.7709 -1.7897 -0.4946
  591SOL    HW2 1773   1.311   2.361   0.364  0.4014  0.7648  1.1401
  592SOL     OW 1774   1.755   2.324   0.765  0.0198 -0.4447 -0.4519
  592SOL    HW1 1775   1.734   2.373   0.671  0.7069 -0.0690 -2.1529
  592SOL    HW2 1776   1.852   2.294   0.772  0.2841  2.1981 -0.1436
  593SOL     OW 1777   0.663   0.291   0.116  0.0708  0.2316  0.0611
  593SOL    HW1 1778   0.747   0.261   0.057  1.6994  1.4370 -1.9123
  593SOL    HW2 1779   0.654   0.392   0.129  3.9198  0.9860  2.6572
  594SOL     OW 1780   0.967   1.821   2.711  0.0739  0.1655 -0.1192
  594SOL    HW1 1781   1.069   1.826   2.744  1.3290 -0.7387  2.3652
  594SOL    HW2 1782   0.910   1.901   2.746  0.0362  0.5395 -0.5355
  595SOL     OW 1783   1.523   0.072   1.019  0.8693  0.5386  0.4405
  595SOL    HW1 1784   1.588   0.001   1.053 -0.5468 -1.0076  0.0835
  595SOL    HW2 1785   1.452   0.028   0.955  0.9419  0.6392 -1.3201
  596SOL     OW 1786   3.067   1.485   2.243 -0.1467  0.0604  0.5285
  596SOL    HW1 1787   2.961   1.475   2.228 -2.8794 -1.7572 -1.6798
  596SOL    HW2 1788   3.098   1.520   2.333  0.4459 -2.2764  0.3479
  597SOL     OW 1789   2.046   2.574   1.605  0.1612 -0.5483 -0.6392
  597SOL    HW1 1790   2.058   2.499   1.539  0.5831 -1.0080  1.4903
  597SOL    HW2 1791   2.135   2.603   1.646 -4.2690 -0.4013  0.1987
  598SOL     OW 1792   2.471   2.962   1.331  0.7542  0.3561 -0.1912
  598SOL    HW1 1793   2.565   2.976   1.373 -1.1637 -0.9460  0.1470
  598SOL    HW2 1794   2.479   2.947   1.230  2.2621  0.4607  1.5736
  599SOL     OW 1795   2.930   0.423   2.494  0.0210 -0.5217  0.2328
  599SOL    HW1 1796   2.975   0.513   2.471  0.8163  1.4860  0.1347
  599SOL    HW2 1797   2.827   0.425   2.473  0.8964  1.5844 -0.5529
  600SOL     OW 1798   2.798   1.124   2.712 -0.4955  0.2985 -0.2712
  600SOL    HW1 1799   2.716   1.129   2.643 -1.1411 -1.1145 -0.7656
  600SOL    HW2 1800   2.783   1.191   2.794  0.7609  1.8917 -1.8998
  601SOL     OW 1801   2.981   1.253   1.918 -0.1614  0.3949 -0.3328
  601SOL    HW1 1802   2.926   1.314   1.859 -0.9395 -1.3492 -0.7084
  601SOL    HW2 1803   3.061   1.307   1.959 -1.4768  0.1606 -1.2812
  602SOL     OW 1804   1.419   1.697   2.360  0.0230 -0.1688 -0.5760
  602SOL    HW1 1805   1.364   1.610   2.360  0.5136  2.0663  1.7287
  602SOL    HW2 1806   1.521   1.681   2.361  1.9426 -1.3455 -1.3711
  603SOL     OW 1807   0.632   1.232   2.724  0.2242 -0.2821 -0.3468
  603SOL    HW1 1808   0.549   1.192   2.678  2.8809 -0.4929 -0.9750
  603SOL    HW2 1809   0.719   1.181   2.701  1.0278  0.7647 -1.1398
  604SOL     OW 1810   2.422   1.014   0.156 -0.2516 -0.0961  0.0085
  604SOL    HW1 1811   2.495   1.061   0.103  1.4246 -0.9409 -2.4281
  604SOL    HW2 1812   2.383   0.937   0.101  0.9546  2.2625 -0.9441
  605SOL     OW 1813   2.587   1.164   1.894 -1.2157  0.1477 -0.1740
  605SOL    HW1 1814   2.591   1.067   1.854 -1.8813 -1.9812 -2.1031
  605SOL    HW2 1815   2.604   1.175   1.992 -1.9238 -0.9756 -0.8492
  606SOL     OW 1816   1.513   2.482   2.669 -0.7098  0.0568 -0.0228
  606SOL    HW1 1817   1.423   2.521   2.628  1.0774  0.0505  0.6455
  606SOL    HW2 1818   1.526   2.382   2.645 -2.4120 -0.9023 -1.4643
  607SOL     OW 1819   1.391   1.645   0.441 -0.2320 -0.1073  0.3903
  607SOL    HW1 1820   1.324   1.706   0.482 -0.5831  0.0875 -0.8264
  607SOL    HW2 1821   1.432   1.682   0.352  0.5487  2.1926  0.1053
  608SOL     OW 1822   1.450   2.846   0.388 -0.0154  0.7968 -0.1405
  608SOL    HW1 1823   1.532   2.898   0.349  0.2038 -0.6033 -0.5265
  608SOL    HW2 1824   1.377   2.907   0.433  0.4888  1.0705  1.1727
  609SOL     OW 1825   1.317   1.407   0.267  0.0549  0.2440  0.2661
  609SOL    HW1 1826   1.299   1.470   0.343 -1.6228 -3.8575 -2.2563
  609SOL    HW2 1827   1.276   1.435   0.178 -1.3605  0.6188  0.1740
  610SOL     OW 1828   3.010   1.144   2.215 -0.2074 -0.1800  0.4017
  610SOL    HW1 1829   3.003   1.045   2.202 -1.5643  1.4603 -0.0716
  610SOL    HW2 1830   2.990   1.194   2.127  1.4920 -0.2928 -0.3942
  611SOL     OW 1831   2.610   0.301   1.137  0.0356 -0.1119 -0.2086
  611SOL    HW1 1832   2.533   0.233   1.163  0.2461  0.5351 -0.6406
  611SOL    HW2 1833   2.702   0.291   1.187  1.9928  1.3195 -1.9094
  612SOL     OW 1834   0.770   2.224   1.230  0.5382  0.6000 -0.9971
  612SOL    HW1 1835   0.706   2.168   1.293  0.1467 -1.8679  0.0823
  612SOL    HW2 1836   0.726   2.315   1.197  0.0568  0.4268 -2.2223
  613SOL     OW 1837   0.817   1.437   2.410 -0.5194  0.0157 -0.1063
  613SOL    HW1 1838   0.875   1.446   2.325  1.2555  0.6425  0.7315
  613SOL    HW2 1839   0.717   1.422   2.386 -0.1886 -0.6318 -1.2983
  614SOL     OW 1840   1.610   1.651   1.942 -0.5532  0.0413  0.3085
  614SOL    HW1 1841   1.550   1.711   2.001  1.7929  1.0204 -0.5388
  614SOL    HW2 1842   1.700   1.626   1.986 -0.4494 -0.0119 -0.6737
  615SOL     OW 1843   0.803   1.297   1.703  0.0756 -0.3337  0.5253
  615SOL    HW1 1844   0.710   1.276   1.661 -0.7481  2.9114  1.8178
  615SOL    HW2 1845   0.851   1.387   1.666 -0.2468  1.7414 -0.5959
  616SOL     OW 1846   1.055   1.622   2.340  0.3778  0.1267 -0.3713
  616SOL    HW1 1847   1.006   1.591   2.249 -1.2954  1.4279 -0.4209
  616SOL    HW2 1848   1.050   1.728   2.349 -1.5657  1.1460 -0.9320
  617SOL     OW 1849   2.946   1.546   1.594  0.2419  0.3623 -0.4098
  617SOL    HW1 1850   2.915   1.468   1.659  0.2435  0.9352  0.8175
  617SOL    HW2 1851   2.968   1.508   1.502 -0.1955 -0.4816  2.8221
  618SOL     OW 1852   1.945   2.016   1.341 -0.2822 -0.4083  0.9407
  618SOL    HW1 1853   1.924   2.065   1.254 -2.1560 -1.1961  0.8723
  618SOL    HW2 1854   1.930   1.913   1.335  0.8500 -3.1421  0.1640
  619SOL     OW 1855   1.761   0.446   2.346  0.2232 -0.5428  0.1336
  619SOL    HW1 1856   1.687   0.499   2.298 -1.0651 -3.1510  1.8872
  619SOL    HW2 1857   1.732   0.348   2.361 -1.9970  1.0822 -1.6513
  620SOL     OW 1858   2.333   2.953   0.706 -0.4363 -0.6081 -0.4259
  620SOL    HW1 1859   2.283   3.048   0.726 -0.5985  1.7327 -0.5873
  620SOL    HW2 1860   2.306   2.879   0.772 -1.3482  0.2354 -0.3581
  621SOL     OW 1861   2.140   1.778   1.317  0.3777 -0.0798  0.4572
  621SOL    HW1 1862   2.109   1.787   1.417  1.3394 -1.0852 -0.9729
  621SOL    HW2 1863   2.085   1.713   1.263 -1.5042  2.5975 -1.4650
  622SOL     OW 1864   2.261   0.886   1.775  0.1247  0.2572  0.1642
  622SOL    HW1 1865   2.362   0.874   1.755  1.4523 -0.3682  0.1307
  622SOL    HW2 1866   2.218   0.818   1.843 -1.1352  1.2626 -2.2963
  623SOL     OW 1867   1.320   0.807   2.588 -0.1266  0.4778  0.2928
  623SOL    HW1 1868   1.313   0.726   2.655  0.4996 -0.0873  1.3335
  623SOL    HW2 1869   1.248   0.821   2.515 -0.4430 -0.7995  0.0004
  624SOL     OW 1870   0.520   0.716   3.079  0.1769 -0.1308 -0.3746
  624SOL    HW1 1871   0.593   0.707   3.007 -0.6700  0.9603 -1.3134
  624SOL    HW2 1872   0.508   0.814   3.122 -0.9196  3.3011 -1.7210
  625SOL     OW 1873   2.814   1.715   1.026 -0.3097 -0.8471  0.2909
  625SOL    HW1 1874   2.716   1.734   1.006  1.1193 -1.6184  0.7552
  625SOL    HW2 1875   2.863   1.796   1.065  0.5380  1.5103 -1.4458
  626SOL     OW 1876   0.593   2.718   1.734  0.0699  0.8093  0.1845
  626SOL    HW1 1877   0.631   2.809   1.775 -0.3522  0.9380  2.0691
  626SOL    HW2 1878   0.495   2.703   1.772 -0.5702  0.3423  2.7264
  627SOL     OW 1879   0.699   0.969   1.526  0.5459  0.7465 -0.5251
  627SOL    HW1 1880   0.635   0.926   1.452 -0.0501  1.2345  2.8206
  627SOL    HW2 1881   0.769   1.038   1.488  1.5903  1.9567 -2.8926
  628SOL     OW 1882   2.492   0.117   0.674  0.0001 -0.3946  0.4263
  628SOL    HW1 1883   2.521   0.051   0.601 -2.3891  0.4930  1.2985
  628SOL    HW2 1884   2.393   0.104   0.718 -1.0807  1.5704  0.6810
  629SOL     OW 1885   1.993   0.911   2.011  0.3560  0.2453 -0.4648
  629SOL    HW1 1886   2.042   0.937   1.925  0.2223 -0.0311 -0.7126
  629SOL    HW2 1887   1.958   0.995   2.066 -0.8902  2.3558 -2.0067
  630SOL     OW 1888   2.938   2.304   0.811 -0.7503  0.0664  0.1131
  630SOL    HW1 1889   2.876   2.387   0.825 -1.9689  1.4069  0.1975
  630SOL    HW2 1890   2.877   2.225   0.780 -1.3561  0.2400  0.2717
  631SOL     OW 1891   3.054   0.189   2.144 -0.2185 -0.4669 -0.0388
  631SOL    HW1 1892   3.085   0.213   2.239 -0.9868  1.2087 -2.5984
  631SOL    HW2 1893   3.074   0.258   2.066 -0.2683 -0.7625 -2.4096
  632SOL     OW 1894   2.422   2.572   0.644 -0.6584  0.0469  0.0212
  632SOL    HW1 1895   2.422   2.639   0.720 -0.7526 -1.1246 -1.1682
  632SOL    HW2 1896   2.358   2.592   0.572  2.4435  1.5294 -0.4938
  633SOL     OW 1897   1.415   1.218   2.654 -0.3074 -0.4857  0.1187
  633SOL    HW1 1898   1.397   1.313   2.693 -2.2848  1.7906 -1.4368
  633SOL    HW2 1899   1.364   1.199   2.568 -1.7458  0.6465  0.6544
  634SOL     OW 1900   0.677   2.032   0.848  0.3962  0.6837  0.2700
  634SOL    HW1 1901   0.586   2.033   0.899  0.7226  0.7794 -1.0368
  634SOL    HW2 1902   0.745   2.099   0.890  0.2110  0.0450  0.6745
  635SOL     OW 1903   2.989   2.340   0.038 -0.3330  0.0380 -0.2052
  635SOL    HW1 1904   2.917   2.390  -0.025 -1.2505  1.8501 -1.4951
  635SOL    HW2 1905   3.078   2.395   0.047  0.2743 -0.7506 -1.4832
  636SOL     OW 1906   2.327   2.754   1.960 -0.3938 -0.2098  1.1635
  636SOL    HW1 1907   2.358   2.849   1.993 -2.1615  0.9332  0.5305
  636SOL    HW2 1908   2.275   2.702   2.030 -0.0007 -1.9789 -0.1400
  637SOL     OW 1909   2.711   0.615   1.974 -0.9542 -0.4871  0.1886
  637SOL    HW1 1910   2.632   0.631   1.904  1.2882 -1.5883 -0.1727
  637SOL    HW2 1911   2.746   0.710   2.006  1.8350  2.2604 -0.6882
  638SOL     OW 1912   2.415   1.816   1.293  0.5282  0.3741 -0.8042
  638SOL    HW1 1913   2.318   1.825   1.323  0.8635 -1.7586 -1.6929
  638SOL    HW2 1914   2.471   1.760   1.363 -0.7382 -3.9715  0.8119
  639SOL     OW 1915   1.304   2.090   1.709 -0.1450 -0.5541  0.5523
  639SOL    HW1 1916   1.338   2.181   1.673  1.5429 -1.9618 -0.0337
  639SOL    HW2 1917   1.214   2.095   1.753  0.2235  1.3265 -0.5194
  640SOL     OW 1918   0.214   1.181   1.563 -0.2313 -0.3392  0.4339
  640SOL    HW1 1919   0.223   1.172   1.664 -0.5865  0.8791  0.1522
  640SOL    HW2 1920   0.286   1.129   1.517 -2.6312  1.1779 -0.4785
  641SOL     OW 1921   2.003   0.251   1.509  0.2445 -0.3776  0.7812
  641SOL    HW1 1922   1.957   0.216   1.595  1.9658  0.8934  2.0602
  641SOL    HW2 1923   2.082   0.189   1.475  1.8453 -2.9614 -0.0731
  642SOL     OW 1924   2.021   3.091   0.331 -0.0867 -0.4982  0.0287
  642SOL    HW1 1925   2.119   3.097   0.364  0.7632 -1.9943 -0.4616
  642SOL    HW2 1926   1.957   3.044   0.398 -1.7164  1.3594 -0.2501
  643SOL     OW 1927   2.937   1.789   2.140  0.0725  0.2033 -0.0777
  643SOL    HW1 1928   2.874   1.741   2.071 -1.4802  0.5302  2.9431
  643SOL    HW2 1929   2.964   1.883   2.110  0.7812  0.1393  2.3536
  644SOL     OW 1930   2.201   2.397   1.198 -0.3204 -0.4975 -0.1908
  644SOL    HW1 1931   2.290   2.361   1.157  0.3710 -2.1320 -0.3748
  644SOL    HW2 1932   2.185   2.363   1.295 -3.5054 -2.3453 -1.4129
  645SOL     OW 1933   0.613   0.847   1.292  0.2203 -0.5449 -0.3957
  645SOL    HW1 1934   0.522   0.802   1.305  1.9301  2.3495  2.7292
  645SOL    HW2 1935   0.641   0.877   1.196  0.2222 -1.3561  0.1520
  646SOL     OW 1936   1.412   1.826   2.078  0.1028  0.3277  0.5914
  646SOL    HW1 1937   1.430   1.925   2.053 -0.6516  0.4383  1.1275
  646SOL    HW2 1938   1.385   1.811   2.176  2.6394  0.2388  0.6964
  647SOL     OW 1939   0.788   1.034   0.671  0.2853  0.2839  0.1336
  647SOL    HW1 1940   0.819   1.076   0.759  0.0775  1.0077  3.8466
  647SOL    HW2 1941   0.726   0.952   0.682  1.1408 -1.1572  0.4252
  648SOL     OW 1942   0.133   0.257   0.267 -0.6793  0.1408  0.4276
  648SOL    HW1 1943   0.192   0.229   0.184 -0.4348 -1.7953 -3.0447
  648SOL    HW2 1944   0.121   0.358   0.267 -0.2452 -0.6151 -0.9582
  649SOL     OW 1945   3.023   0.244   0.853  0.1776  0.1145 -0.4002
  649SOL    HW1 1946   3.111   0.187   0.876 -0.3380  0.7426  2.0261
  649SOL    HW2 1947   3.044   0.346   0.859  1.4691 -0.2909  0.4974
  650SOL     OW 1948   2.752   0.673   1.509  0.8224  0.7722  0.2057
  650SOL    HW1 1949   2.648   0.656   1.503  0.2182  0.3239  0.6138
  650SOL    HW2 1950   2.774   0.762   1.462 -1.6748 -0.2015 -0.4206
  651SOL     OW 1951   0.923   1.505   1.547 -0.2312 -0.3491 -0.5422
  651SOL    HW1 1952   0.951   1.583   1.613 -2.5683  1.0601 -2.3832
  651SOL    HW2 1953   0.969   1.523   1.457  1.3344 -4.0360 -1.4712
  652SOL     OW 1954   2.365   2.381   2.408  0.3111  0.4134  0.0906
  652SOL    HW1 1955   2.271   2.427   2.400 -0.6488  1.1254  0.1737
  652SOL    HW2 1956   2.437   2.436   2.352  0.2363 -1.2273 -3.9044
  653SOL     OW 1957   2.661   1.218   0.233  0.3189  0.0958  0.3417
  653SOL    HW1 1958   2.690   1.312   0.260 -1.3367 -1.0039 -1.0018
  653SOL    HW2 1959   2.735   1.145   0.233 -1.1234  1.0307 -1.1212
  654SOL     OW 1960   1.258   2.246   1.279 -0.3690 -0.5375 -0.3538
  654SOL    HW1 1961   1.255   2.167   1.345 -1.1397  2.2743 -0.9917
  654SOL    HW2 1962   1.311   2.224   1.192 -0.5318  0.2524 -1.4916
  655SOL     OW 1963   0.141   0.931   1.855  0.1241 -0.0820  0.3272
  655SOL    HW1 1964   0.203   0.866   1.803 -1.3033  0.6526  1.7601
  655SOL    HW2 1965   0.178   1.029   1.869 -1.1665  1.6908 -0.9377
  656SOL     OW 1966   2.565   2.434   2.599  0.7965 -0.0625 -0.2773
  656SOL    HW1 1967   2.658   2.400   2.560  0.0588 -1.2738  0.1080
  656SOL    HW2 1968   2.482   2.416   2.540  1.7485  1.6088 -1.8596
  657SOL     OW 1969   2.982   0.987   1.926 -0.1457  0.1353 -0.1293
  657SOL    HW1 1970   2.978   1.088   1.911  0.8242 -1.0305  0.3397
  657SOL    HW2 1971   3.082   0.957   1.910  2.7063  1.6814 -1.1464
  658SOL     OW 1972   1.698   0.182   2.368 -0.0881  0.1540 -0.2173
  658SOL    HW1 1973   1.722   0.101   2.426 -0.4808  2.0866 -0.1308
  658SOL    HW2 1974   1.749   0.186   2.274 -0.7294 -0.3790 -3.0579
  659SOL     OW 1975   1.389   0.634   2.837  0.2846  0.0525  0.2961
  659SOL    HW1 1976   1.440   0.723   2.864 -0.4730 -2.6244  1.8882
  659SOL    HW2 1977   1.285   0.649   2.844 -1.6974  0.8912 -0.3555
  660SOL     OW 1978   1.416   0.348   1.449  0.2661  0.1348 -0.3153
  660SOL    HW1 1979   1.408   0.367   1.555  2.3719  0.5637  0.8663
  660SOL    HW2 1980   1.508   0.310   1.417  0.7966  1.6157  2.3354
  661SOL     OW 1981   2.327   1.205   0.667 -0.0671  0.1115 -0.2309
  661SOL    HW1 1982   2.356   1.219   0.568 -0.1771  0.4579 -0.6821
  661SOL    HW2 1983   2.335   1.294   0.717 -0.1052 -2.2686 -1.7608
  662SOL     OW 1984   1.373   0.385   1.715 -0.0240 -0.4356  0.1166
  662SOL    HW1 1985   1.297   0.333   1.763 -0.3946 -0.3035  0.0939
  662SOL    HW2 1986   1.381   0.484   1.749  2.6176 -0.5434 -1.9146
  663SOL     OW 1987   0.866   1.555   2.149 -0.2077 -0.4270  0.6450
  663SOL    HW1 1988   0.785   1.601   2.191 -3.4950  3.2917  3.5937
  663SOL    HW2 1989   0.841   1.499   2.065  0.2420 -2.1074  1.5710
  664SOL     OW 1990   1.615   2.070   1.373 -0.4320 -0.5032 -0.4163
  664SOL    HW1 1991   1.553   2.000   1.424 -0.0013 -3.0647 -2.4466
  664SOL    HW2 1992   1.712   2.053   1.386 -1.1210  1.2264  0.4812
  665SOL     OW 1993   2.244   0.706   1.990 -0.1193 -0.2289  0.5384
  665SOL    HW1 1994   2.145   0.676   2.014 -3.1712 -0.3144  0.0218
  665SOL    HW2 1995   2.311   0.697   2.069  0.6517 -0.7257  0.2624
  666SOL     OW 1996   0.478   2.328   0.315 -0.8017  0.2708 -0.2291
  666SOL    HW1 1997   0.551   2.378   0.377  1.3659 -2.4710  2.2186
  666SOL    HW2 1998   0.395   2.300   0.371 -0.4425  1.9399  1.0400
  667SOL     OW 1999   2.047   0.187   1.107  0.4544  0.1353  0.7107
  667SOL    HW1 2000   2.072   0.288   1.106  1.5049 -1.8097 -0.6923
  667SOL    HW2 2001   1.964   0.170   1.169 -1.3995  0.2331 -1.3366
  668SOL     OW 2002   2.056   0.466   1.145  0.5261 -0.0415 -1.1185
  668SOL    HW1 2003   2.109   0.500   1.064 -3.0126  1.0649  1.7933
  668SOL    HW2 2004   2.108   0.478   1.237  0.3013 -0.3764 -0.8952
  669SOL     OW 2005   3.077   2.129   1.003 -0.3621  0.2944  0.3604
  669SOL    HW1 2006   3.022   2.180   0.935 -0.3327 -3.0348  1.5427
  669SOL    HW2 2007   3.128   2.186   1.068 -0.8125  1.4681 -0.9073
  670SOL     OW 2008   2.887   2.326   2.076  0.1454  0.4776 -0.5716
  670SOL    HW1 2009   2.807   2.308   2.135 -1.2011 -0.5199  0.2655
  670SOL    HW2 2010   2.883   2.425   2.053  1.0477 -1.9736  0.7049
  671SOL     OW 2011   1.742   1.787   1.449 -0.3404 -0.6978 -0.0535
  671SOL    HW1 2012   1.728   1.783   1.347  0.4273  2.9931 -1.5305
  671SOL    HW2 2013   1.655   1.808   1.505  0.1361  1.1588  1.6175
  672SOL     OW 2014   0.432   0.612   2.380  0.1769 -0.8253 -0.0940
  672SOL    HW1 2015   0.459   0.625   2.282  1.2674  1.0188  1.1439
  672SOL    HW2 2016   0.346   0.668   2.405 -1.9845  0.3746 -1.5709
  673SOL     OW 2017   0.151   1.208   1.155 -0.4461  0.2569 -0.0665
  673SOL    HW1 2018   0.172   1.265   1.239  1.0855 -0.4461 -0.5942
  673SOL    HW2 2019   0.235   1.171   1.111 -0.2481 -0.7146  0.4267
  674SOL     OW 2020   1.679   3.010   0.318 -0.1089  0.3398  0.0185
  674SOL    HW1 2021   1.647   3.109   0.338  1.1200  0.8866 -1.3640
  674SOL    HW2 2022   1.733   3.000   0.229  0.3342 -1.4399 -2.1997
  675SOL     OW 2023   1.738   0.807   2.276  0.0483 -0.0937  0.4247
  675SOL    HW1 2024   1.843   0.791   2.293  0.3179 -0.1562  2.0528
  675SOL    HW2 2025   1.680   0.722   2.265  0.0915  1.4140  0.8650
  676SOL     OW 2026   2.544   1.492   1.930  0.1454  0.4572 -0.0982
  676SOL    HW1 2027   2.493   1.449   1.856 -1.5939 -0.5623  2.4945
  676SOL    HW2 2028   2.569   1.419   2.004  0.7167 -1.2911  0.1117
  677SOL     OW 2029   1.893   0.677   0.932 -0.6725 -0.4070  0.0244
  677SOL    HW1 2030   1.789   0.661   0.949  2.1490 -0.1074  0.0920
  677SOL    HW2 2031   1.944   0.593   0.961 -3.8256 -0.4380 -2.7948
  678SOL     OW 2032   0.069   0.735   1.624 -0.2402 -0.2317  0.6050
  678SOL    HW1 2033   0.171   0.738   1.638  0.5653  0.6543 -0.9415
  678SOL    HW2 2034   0.015   0.709   1.710  0.6134  0.4895  0.4873
  679SOL     OW 2035   2.520   1.225   1.222  0.3363  0.1599 -0.0829
  679SOL    HW1 2036   2.420   1.250   1.195 -2.7030  0.5452  1.0022
  679SOL    HW2 2037   2.539   1.129   1.187  0.1479  0.8073 -0.2609
  680SOL     OW 2038   2.809   0.491   1.702 -0.3702  0.7706 -0.2678
  680SOL    HW1 2039   2.791   0.561   1.629  1.6311 -0.9842  2.9002
  680SOL    HW2 2040   2.888   0.518   1.763  1.2391  1.8827 -1.5133
  681SOL     OW 2041   2.972   0.121   1.593 -0.1916 -0.1503 -0.2552
  681SOL    HW1 2042   3.034   0.099   1.509 -1.4094  2.7173  0.1142
  681SOL    HW2 2043   2.902   0.191   1.573  4.3546 -1.5417 -0.8338
  682SOL     OW 2044   0.762   0.062   1.320  0.5763 -0.5227 -0.5275
  682SOL    HW1 2045   0.686  -0.004   1.357 -0.6977  1.1008 -1.9200
  682SOL    HW2 2046   0.792   0.043   1.220 -1.0539 -1.3173  0.7724
  683SOL     OW 2047   1.376   0.226   2.184 -0.3167  0.0385 -0.1400
  683SOL    HW1 2048   1.399   0.249   2.283 -3.5942 -5.3454  0.3731
  683SOL    HW2 2049   1.451   0.253   2.115 -3.6576  3.1518 -0.6471
  684SOL     OW 2050   1.488   2.067   0.468  0.4868  0.3051 -0.1487
  684SOL    HW1 2051   1.534   2.020   0.546  0.9812  3.5025  0.2352
  684SOL    HW2 2052   1.405   2.016   0.425 -1.8235  0.5676 -0.5785
  685SOL     OW 2053   2.171   2.081   1.926 -0.6049 -0.7548  0.0170
  685SOL    HW1 2054   2.230   2.070   1.840 -3.0777  1.8028 -0.4570
  685SOL    HW2 2055   2.212   2.052   2.012  0.9618 -1.2980 -1.4046
  686SOL     OW 2056   1.502   1.855   2.766  0.2589  0.1133 -0.0292
  686SOL    HW1 2057   1.557   1.795   2.830  1.2365  1.4624  0.0276
  686SOL    HW2 2058   1.451   1.801   2.697  1.3501  0.6708 -2.6247
  687SOL     OW 2059   1.349   2.477   1.955 -0.3597  0.0339 -0.3915
  687SOL    HW1 2060   1.387   2.377   1.962  0.0792 -1.5956 -0.4191
  687SOL    HW2 2061   1.382   2.533   2.035  1.6417 -1.6276 -1.3670
  688SOL     OW 2062   2.007   1.505   1.778  0.2116 -0.2019 -0.3735
  688SOL    HW1 2063   2.043   1.599   1.808 -4.2139  2.1673  1.7590
  688SOL    HW2 2064   2.038   1.474   1.685  1.8906 -2.4673  2.9326
  689SOL     OW 2065   2.390   1.068   2.795 -0.0337  0.4843 -0.5479
  689SOL    HW1 2066   2.298   1.024   2.817 -0.9712 -1.6962 -2.5437
  689SOL    HW2 2067   2.458   1.053   2.871 -3.9221 -1.0014  3.2064
  690SOL     OW 2068   2.235   2.820   0.069  0.0239 -0.4259  0.1104
  690SOL    HW1 2069   2.156   2.784   0.004  1.4043  0.6980  2.2773
  690SOL    HW2 2070   2.206   2.833   0.166  0.2438 -2.5678 -0.7437
  691SOL     OW 2071   2.617   0.410   2.137 -0.6837  0.0747  0.4911
  691SOL    HW1 2072   2.645   0.308   2.119 -2.1299  0.3956 -0.8809
  691SOL    HW2 2073   2.633   0.476   2.054 -0.1635  0.2089 -3.5097
  692SOL     OW 2074   2.698   1.261   0.743  0.3941  0.6112  0.0302
  692SOL    HW1 2075   2.647   1.309   0.664  1.6508  2.6818 -0.9075
  692SOL    HW2 2076   2.737   1.329   0.809 -3.0994 -0.3566  3.9839
  693SOL     OW 2077   2.828   2.915   0.649  0.2242  0.1418  0.0049
  693SOL    HW1 2078   2.822   2.993   0.720  0.3784 -0.1015  1.0966
  693SOL    HW2 2079   2.825   2.941   0.548  1.5138 -1.2010 -0.6893
  694SOL     OW 2080   2.410   2.217   0.084  0.2834 -0.8078  0.1801
  694SOL    HW1 2081   2.411   2.297   0.151  1.0595 -0.7305  3.1047
  694SOL    HW2 2082   2.315   2.193   0.046 -0.8770  1.6328 -1.8339
  695SOL     OW 2083   0.549   2.995   1.483 -0.1999 -0.0301 -0.3628
  695SOL    HW1 2084   0.485   2.923   1.442 -1.9713  0.8315 -0.5000
  695SOL    HW2 2085   0.516   3.031   1.575 -1.6496 -0.1147  0.5846
  696SOL     OW 2086   2.831   2.072   0.723  0.0746  0.2948 -0.1750
  696SOL    HW1 2087   2.893   1.989   0.732  0.7371  0.9391 -0.0005
  696SOL    HW2 2088   2.794   2.091   0.624  0.1695  0.7355 -1.5883
  697SOL     OW 2089   1.588   1.992   1.854 -0.0473  0.1779  0.1068
  697SOL    HW1 2090   1.633   1.895   1.855 -1.5560 -0.2128 -0.5674
  697SOL    HW2 2091   1.657   2.063   1.821  1.3998 -1.0034  2.9729
  698SOL     OW 2092   2.935   0.393   2.770  0.0360  0.0024  0.2913
  698SOL    HW1 2093   2.950   0.382   2.666  0.0074  0.8877 -2.1050
  698SOL    HW2 2094   3.024   0.370   2.816 -0.8273  1.1696 -0.0496
  699SOL     OW 2095   1.560   0.068   2.909  0.0513  0.5049 -0.0028
  699SOL    HW1 2096   1.505  -0.012   2.874  1.0076 -1.2524 -1.7460
  699SOL    HW2 2097   1.587   0.136   2.838 -0.2772 -1.5885 -0.2352
  700SOL     OW 2098   0.988   2.326   1.337  0.2386 -0.0677 -0.3075
  700SOL    HW1 2099   1.087   2.297   1.329  0.4944 -0.3914 -0.8684
  700SOL    HW2 2100   0.918   2.268   1.282  1.1446 -0.9714  2.1150
  701SOL     OW 2101   1.887   2.919   3.067 -0.7911 -0.3105 -0.4713
  701SOL    HW1 2102   1.888   2.864   3.157 -4.1785 -2.6363  1.1800
  701SOL    HW2 2103   1.917   3.017   3.082  4.2936 -0.9239  0.9291
  702SOL     OW 2104   2.088   1.323   1.962 -0.0069 -0.3907 -0.0234
  702SOL    HW1 2105   2.177   1.279   1.928  2.6216 -1.9813  2.5063
  702SOL    HW2 2106   2.052   1.394   1.894  0.8799 -2.8453 -1.1588
  703SOL     OW 2107   1.939   0.912   1.443 -0.3911 -0.4291 -0.5198
  703SOL    HW1 2108   1.899   0.833   1.496 -1.6564  0.1417  0.4337
  703SOL    HW2 2109   1.995   0.972   1.507  0.8826  2.3386 -1.5541
  704SOL     OW 2110   0.299   2.036   1.702 -0.2867  0.0460  0.5342
  704SOL    HW1 2111   0.332   1.980   1.783  2.1684  0.8087 -1.5577
  704SOL    HW2 2112   0.355   2.120   1.692  1.6904 -1.4078 -1.0884
  705SOL     OW 2113   2.524   1.555   0.879  0.1638  0.0462  0.6160
  705SOL    HW1 2114   2.431   1.520   0.846 -2.0236 -1.6116 -0.1843
  705SOL    HW2 2115   2.600   1.483   0.885  1.7528  2.4388  0.9956
  706SOL     OW 2116   0.650   1.694   1.896 -1.0201 -0.5507  0.0400
  706SOL    HW1 2117   0.672   1.594   1.923  0.2026 -3.4606 -0.8972
  706SOL    HW2 2118   0.707   1.762   1.947  0.2821 -0.9596 -1.5941
  707SOL     OW 2119   2.292   1.165   1.871  0.2801 -0.2447 -0.0403
  707SOL    HW1 2120   2.392   1.198   1.868  1.6904 -0.5861 -3.2197
  707SOL    HW2 2121   2.280   1.085   1.807 -0.7693  1.3587 -1.2571
  708SOL     OW 2122   3.024   0.562   3.060  0.5930  0.0559  0.5753
  708SOL    HW1 2123   3.082   0.585   2.975  0.1023  2.2909 -2.3628
  708SOL    HW2 2124   3.001   0.459   3.066 -0.2867 -0.7912 -0.6740
  709SOL     OW 2125   1.851   1.837   0.290 -0.0891  0.1051 -0.3469
  709SOL    HW1 2126   1.886   1.927   0.325  0.6971 -0.5607  2.0110
  709SOL    HW2 2127   1.838   1.836   0.189  1.0290  1.4148  1.4991
  710SOL     OW 2128   1.672   1.614   2.381 -0.4551  0.2052  0.4968
  710SOL    HW1 2129   1.747   1.590   2.312 -0.0035 -1.9041  0.3509
  710SOL    HW2 2130   1.694   1.571   2.473  0.6485 -1.3558 -1.7205
  711SOL     OW 2131   2.573   2.929   1.053 -0.7863 -0.7998 -0.2670
  711SOL    HW1 2132   2.553   3.015   0.996 -1.3744  1.4349 -0.1771
  711SOL    HW2 2133   2.671   2.921   1.090  1.0730 -1.4937  1.1698
  712SOL     OW 2134   1.381   2.191   1.955  0.5263  0.1383 -0.0929
  712SOL    HW1 2135   1.471   2.190   2.008 -1.2353 -0.8688 -0.5345
  712SOL    HW2 2136   1.383   2.135   1.866  0.0278  3.2405 -0.7058
  713SOL     OW 2137   2.817   1.436   2.521  0.5096 -0.1954  0.1969
  713SOL    HW1 2138   2.813   1.337   2.483  0.5345 -0.8327  1.4347
  713SOL    HW2 2139   2.737   1.451   2.588 -0.7911  0.7084 -0.7601
  714SOL     OW 2140   2.672   0.463   2.388  0.1513  0.4636  0.4694
  714SOL    HW1 2141   2.577   0.448   2.434  1.2672  0.5068 -0.4724
  714SOL    HW2 2142   2.668   0.442   2.285 -1.0523  0.0106  0.8708
  715SOL     OW 2143   1.556   2.019   1.110 -0.0026  0.5176 -0.0340
  715SOL    HW1 2144   1.478   2.075   1.068  1.1541 -0.5473  1.8588
  715SOL    HW2 2145   1.577   2.043   1.210  1.8355  0.9775  1.5227
  716SOL     OW 2146   1.171   0.158   1.499 -0.1381  0.6283 -0.6484
  716SOL    HW1 2147   1.091   0.185   1.448 -0.1144 -2.0283  3.5201
  716SOL    HW2 2148   1.248   0.228   1.506 -0.6369 -0.5587  1.3018
  717SOL     OW 2149   1.177   0.567   1.539  0.1382 -0.2087 -0.1361
  717SOL    HW1 2150   1.257   0.623   1.557 -2.3291  1.0874  1.8935
  717SOL    HW2 2151   1.159   0.555   1.437 -3.5198  1.7962 -1.3065
  718SOL     OW 2152   0.692   0.887   0.996 -0.1483  0.3004  0.1863
  718SOL    HW1 2153   0.631   0.884   0.911  1.0797 -0.9937 -0.4119
  718SOL    HW2 2154   0.698   0.979   1.038 -1.4803 -1.6101 -0.2288
  719SOL     OW 2155   0.643   1.692   2.346 -0.7794 -0.1227 -0.0864
  719SOL    HW1 2156   0.718   1.731   2.414  2.7532  1.9722 -0.8707
  719SOL    HW2 2157   0.549   1.673   2.390  1.2077 -0.1965 -2.2242
  720SOL     OW 2158   2.172   1.117   0.295 -0.0547  0.0565  0.3073
  720SOL    HW1 2159   2.243   1.054   0.256 -2.0531  3.3876  0.5626
  720SOL    HW2 2160   2.145   1.091   0.392  0.5290 -0.8086 -2.5513
  721SOL     OW 2161   2.298   3.010   2.064 -0.1316 -0.3543  0.3194
  721SOL    HW1 2162   2.241   3.060   1.989  3.4643  1.9202 -3.0932
  721SOL    HW2 2163   2.241   2.999   2.151  1.1137  1.4984 -1.0149
  722SOL     OW 2164   2.274   1.587   0.506  0.2238 -0.0192 -0.3619
  722SOL    HW1 2165   2.340   1.596   0.425 -0.1632  0.9987 -1.9011
  722SOL    HW2 2166   2.174   1.617   0.485 -1.2756  0.7746  1.0952
  723SOL     OW 2167   2.603   2.732   1.895 -0.3468  0.4270  0.2428
  723SOL    HW1 2168   2.652   2.804   1.957  0.1241  0.2959  1.1443
  723SOL    HW2 2169   2.502   2.720   1.916 -0.6507  1.7059  0.9439
  724SOL     OW 2170   0.500   2.491   2.401  0.0768 -0.1331  0.0299
  724SOL    HW1 2171   0.399   2.498   2.432 -1.2152 -0.5756 -1.7574
  724SOL    HW2 2172   0.571   2.483   2.476  1.2561  3.7623 -0.1278
  725SOL     OW 2173   2.336   2.759   1.479 -0.0351  0.6272  0.4168
  725SOL    HW1 2174   2.411   2.826   1.437 -0.3139 -0.6064 -1.7993
  725SOL    HW2 2175   2.378   2.664   1.507 -0.1173 -0.5958  0.5040
  726SOL     OW 2176   2.525   2.346   0.731  0.7047  0.0247  0.3469
  726SOL    HW1 2177   2.503   2.446   0.696 -0.0628 -1.0080 -0.8000
  726SOL    HW2 2178   2.513   2.278   0.657  0.8392 -1.9673  2.5784
  727SOL     OW 2179   0.152   3.057   0.061 -0.3930 -0.0020 -0.6771
  727SOL    HW1 2180   0.197   2.970   0.028 -0.2850  3.3432 -0.8258
  727SOL    HW2 2181   0.089   3.102  -0.008 -1.1824  1.6336 -0.6691
  728SOL     OW 2182   2.919   0.657   0.930 -0.0458 -0.0747  0.3889
  728SOL    HW1 2183   2.851   0.626   0.860 -1.1529  1.5455  1.7619
  728SOL    HW2 2184   2.892   0.618   1.023  0.5579  0.5358  3.1310
  729SOL     OW 2185   3.067   2.547   0.712 -0.2933  0.1051  0.1144
  729SOL    HW1 2186   3.017   2.458   0.731  2.1625 -1.0864 -2.5303
  729SOL    HW2 2187   3.163   2.532   0.668  3.8520 -0.7662 -1.3679
  730SOL     OW 2188   2.625   0.698   0.860  0.2077  0.0386  0.1723
  730SOL    HW1 2189   2.595   0.796   0.872 -2.0423  1.4519 -0.4384
  730SOL    HW2 2190   2.665   0.685   0.766  0.4296  1.9757 -0.3239
  731SOL     OW 2191   0.006   2.121   2.413  0.0110 -0.6684  0.0361
  731SOL    HW1 2192   0.043   2.201   2.466 -1.9955 -0.7507  2.6615
  731SOL    HW2 2193  -0.088   2.145   2.374  0.4338 -1.3898 -1.8427
  732SOL     OW 2194   1.232   2.830   1.971  0.5124  0.5041 -0.2591
  732SOL    HW1 2195   1.225   2.779   2.064 -4.7308 -1.3433 -1.0944
  732SOL    HW2 2196   1.191   2.770   1.893  0.4270  0.8474 -1.0028
  733SOL     OW 2197   3.007   0.613   2.232  0.2401 -0.4933  0.2050
  733SOL    HW1 2198   3.115   0.606   2.236  2.0428 -0.3398 -2.9664
  733SOL    HW2 2199   2.966   0.560   2.154  0.6050  0.9049  0.0525
  734SOL     OW 2200   1.409   0.384   2.704  0.0818  0.3828 -0.4366
  734SOL    HW1 2201   1.403   0.469   2.760  0.4319 -1.5254  1.4209
  734SOL    HW2 2202   1.335   0.319   2.736  3.2388 -0.8907  1.2677
  735SOL     OW 2203   2.887   2.637   2.308 -0.3735 -0.0155 -0.2126
  735SOL    HW1 2204   2.848   2.606   2.217  1.8753 -0.3469 -1.2668
  735SOL    HW2 2205   2.972   2.697   2.305  2.7648  0.1583  0.5246
  736SOL     OW 2206   0.879   0.368   2.568 -0.8770 -0.2805 -0.4604
  736SOL    HW1 2207   0.780   0.391   2.594 -1.1551 -0.5735  0.5848
  736SOL    HW2 2208   0.896   0.328   2.474  3.0446 -1.5831  2.8595
  737SOL     OW 2209   2.636   0.435   2.834 -0.3235 -0.2429  0.6325
  737SOL    HW1 2210   2.597   0.426   2.930 -1.0113  3.1075  1.4903
  737SOL    HW2 2211   2.739   0.428   2.825 -1.6580 -0.7287  0.4445
  738SOL     OW 2212   1.673   1.245   2.900 -0.2483 -0.2794 -0.0091
  738SOL    HW1 2213   1.775   1.242   2.872 -0.6724  1.5420  1.0120
  738SOL    HW2 2214   1.612   1.173   2.852 -0.6715  0.0296  1.3311
  739SOL     OW 2215   1.753   0.723   0.691 -0.0658 -0.4403  0.3081
  739SOL    HW1 2216   1.809   0.735   0.778  0.4263 -0.6167  1.6032
  739SOL    HW2 2217   1.750   0.628   0.657 -2.2723 -2.1043  2.4059
  740SOL     OW 2218   1.988   1.939   2.381  0.2150 -0.3661  0.2284
  740SOL    HW1 2219   2.025   1.850   2.415 -1.4971  1.9621 -2.1467
  740SOL    HW2 2220   1.926   1.912   2.302 -3.6150 -0.7777  2.6235
  741SOL     OW 2221   2.562   0.131   2.551 -0.4904 -1.2493  0.7606
  741SOL    HW1 2222   2.663   0.121   2.556 -0.7415  1.0202 -0.5376
  741SOL    HW2 2223   2.519   0.061   2.488 -1.0698 -1.2156  2.9135
  742SOL     OW 2224   2.198   1.384   0.182  0.4350  0.0317  0.5273
  742SOL    HW1 2225   2.110   1.431   0.160  0.8599 -1.3678  0.8322
  742SOL    HW2 2226   2.201   1.303   0.244 -2.0634 -0.5871 -0.5550
  743SOL     OW 2227   1.785   0.615   2.593 -0.0724  0.5978 -0.3143
  743SOL    HW1 2228   1.786   0.554   2.509  0.4348 -0.2315  0.5094
  743SOL    HW2 2229   1.703   0.674   2.590  6.0264 -2.6083 -1.1248
  744SOL     OW 2230   2.643   2.036   0.094 -0.5645  0.6321  0.2607
  744SOL    HW1 2231   2.584   2.118   0.116 -1.5986  0.3362 -1.6509
  744SOL    HW2 2232   2.631   1.961   0.154 -0.8136 -0.5415 -1.0621
  745SOL     OW 2233   2.173   2.647   2.164  0.1521  0.6279 -0.0479
  745SOL    HW1 2234   2.071   2.662   2.183  1.1498  0.9243  1.7300
  745SOL    HW2 2235   2.226   2.696   2.240  0.9070 -1.9846  0.0470
  746SOL     OW 2236   3.086   2.629   1.705 -0.2801 -0.2338 -0.0391
  746SOL    HW1 2237   3.170   2.590   1.667 -2.5627  0.6231 -3.7557
  746SOL    HW2 2238   3.093   2.715   1.763 -1.2110  0.1844 -1.0210
  747SOL     OW 2239   3.078   1.740   1.744  0.4774  0.2479  0.5034
  747SOL    HW1 2240   3.015   1.668   1.697 -0.1655 -3.1137  1.0107
  747SOL    HW2 2241   3.153   1.777   1.680 -0.2324 -0.4529  3.2599
  748SOL     OW 2242   1.820   2.717   2.894  0.4932  0.1399 -0.0141
  748SOL    HW1 2243   1.846   2.786   2.970  1.7258  0.0156  1.0289
  748SOL    HW2 2244   1.721   2.714   2.868 -0.1271  2.2894  0.0360
  749SOL     OW 2245   1.355   3.004   0.854  0.4485 -0.7256 -0.4929
  749SOL    HW1 2246   1.257   2.980   0.828 -0.9062  1.0619 -3.6341
  749SOL    HW2 2247   1.423   2.962   0.790 -3.0430 -0.4365  3.7212
  750SOL     OW 2248   2.321   0.196   1.848  0.1920 -0.2609  0.0211
  750SOL    HW1 2249   2.340   0.261   1.769  2.6654  1.8517 -1.1789
  750SOL    HW2 2250   2.294   0.252   1.933 -1.7803 -3.5648  1.0407
  751SOL     OW 2251   0.832   2.034   2.815  0.5470  0.3718 -0.1697
  751SOL    HW1 2252   0.880   2.033   2.909  0.2879  4.3747 -1.6975
  751SOL    HW2 2253   0.730   2.030   2.822  1.8446  0.3973 -2.3331
  752SOL     OW 2254   1.327   0.803   1.258 -0.2967  0.2398 -0.4645
  752SOL    HW1 2255   1.406   0.871   1.260 -0.4180 -0.1239 -0.5687
  752SOL    HW2 2256   1.349   0.718   1.315  2.6881  1.2409  0.5509
  753SOL     OW 2257   0.941   2.628   1.740  0.0642  0.0412 -0.8859
  753SOL    HW1 2258   1.040   2.661   1.747 -2.8414  0.3552 -0.6241
  753SOL    HW2 2259   0.873   2.708   1.730 -0.5441  1.2723 -2.8328
  754SOL     OW 2260   1.153   1.183   3.000 -0.0825  0.6430 -0.0995
  754SOL    HW1 2261   1.207   1.114   2.951 -0.9383  0.1098 -0.7485
  754SOL    HW2 2262   1.188   1.276   2.994 -1.4607 -0.7600  0.4422
  755SOL     OW 2263   1.991   0.497   2.232  0.3218 -0.5879  0.3220
  755SOL    HW1 2264   2.063   0.422   2.232 -0.7293  0.2664 -2.4758
  755SOL    HW2 2265   1.908   0.479   2.291 -1.9876 -1.1951 -0.4613
  756SOL     OW 2266   2.590   0.974   2.965  0.3719 -0.4224 -0.1644
  756SOL    HW1 2267   2.694   0.955   2.947  0.6024  0.7103 -0.6515
  756SOL    HW2 2268   2.533   0.892   2.998 -2.5582  1.7776  2.7288
  757SOL     OW 2269   0.098   0.484   1.989  0.1817 -0.1264 -0.4765
  757SOL    HW1 2270   0.153   0.414   1.948  0.2151  0.8850  0.5902
  757SOL    HW2 2271  -0.003   0.464   2.000  1.7528  0.7635  0.3224
  758SOL     OW 2272   2.247   0.134   1.474 -0.1348 -0.1886  0.1664
  758SOL    HW1 2273   2.222   0.035   1.495 -0.4711 -1.1770  0.0417
  758SOL    HW2 2274   2.290   0.150   1.383 -0.2611 -0.2706  0.1445
  759SOL     OW 2275   1.675   0.117   0.054  0.6065 -0.1405  0.2125
  759SOL    HW1 2276   1.640   0.105  -0.047  1.5973  1.1561 -0.5178
  759SOL    HW2 2277   1.775   0.097   0.056  0.3178  1.0793  0.4212
  760SOL     OW 2278   2.622   2.066   2.819  0.2705 -0.3601 -0.3056
  760SOL    HW1 2279   2.651   1.987   2.877  1.8088  0.9364 -0.9097
  760SOL    HW2 2280   2.615   2.157   2.876 -1.3438 -0.3856  0.8200
  761SOL     OW 2281   1.872   1.767   1.703  0.1795 -0.1542 -0.2100
  761SOL    HW1 2282   1.853   1.667   1.731  2.0683 -0.2653  0.4455
  761SOL    HW2 2283   1.834   1.784   1.604 -3.3124  2.7992 -1.5312
  762SOL     OW 2284   0.496   2.346   0.956  0.3982 -0.0035 -0.3801
  762SOL    HW1 2285   0.530   2.350   0.860  0.0408 -2.4225  1.7174
  762SOL    HW2 2286   0.561   2.394   1.023 -0.1135  1.8046  1.2099
  763SOL     OW 2287   2.086   1.578   2.973  0.0313 -0.0466 -0.2003
  763SOL    HW1 2288   2.180   1.530   2.952  0.8179 -1.0873  0.7571
  763SOL    HW2 2289   2.042   1.549   3.065  0.0493 -1.3793  0.9563
  764SOL     OW 2290   0.660   0.593   0.787  0.0009 -0.0578  0.6631
  764SOL    HW1 2291   0.591   0.514   0.783 -1.1922 -2.6186 -1.5204
  764SOL    HW2 2292   0.748   0.566   0.834 -0.6291 -0.7260 -2.0250
  765SOL     OW 2293   0.743   0.232   0.797 -0.4077  0.2102  0.2431
  765SOL    HW1 2294   0.775   0.308   0.732  0.4122  1.8870  0.1541
  765SOL    HW2 2295   0.705   0.271   0.882  0.4029 -0.2086 -4.7560
  766SOL     OW 2296   2.860   2.119   3.035  0.0037 -0.6728  0.5848
  766SOL    HW1 2297   2.777   2.081   3.089  0.1307 -0.0386  3.6411
  766SOL    HW2 2298   2.915   2.190   3.086 -0.1792  1.1695  1.9153
  767SOL     OW 2299   2.794   1.669   0.594 -0.2367 -0.0182  0.1537
  767SOL    HW1 2300   2.693   1.676   0.625  2.3625  0.4581 -1.0574
  767SOL    HW2 2301   2.857   1.703   0.673  1.8521 -1.0949  1.0175
  768SOL     OW 2302   0.950   0.094   0.218 -0.3677 -0.5394  0.2378
  768SOL    HW1 2303   0.918   0.101   0.321 -1.3313  0.0072  0.9859
  768SOL    HW2 2304   1.051   0.101   0.217 -2.4308  1.5403  1.0926
  769SOL     OW 2305   1.121   1.906   2.307 -0.1290  0.5703 -0.1651
  769SOL    HW1 2306   1.026   1.939   2.318 -0.3560  0.7832 -0.0673
  769SOL    HW2 2307   1.161   1.873   2.400 -0.2026  1.6217  0.7951
  770SOL     OW 2308   0.187   1.206   2.285 -0.2840 -0.0359 -0.0510
  770SOL    HW1 2309   0.194   1.241   2.380  1.0216  0.9343 -2.5802
  770SOL    HW2 2310   0.086   1.204   2.257 -0.9723  0.8689 -0.1135
  771SOL     OW 2311   3.027   2.868   1.888 -0.5061  0.0181 -0.4735
  771SOL    HW1 2312   2.988   2.914   1.804  0.6852  1.8020  0.5495
  771SOL    HW2 2313   2.958   2.860   1.965 -0.7506 -3.8086  1.2567
  772SOL     OW 2314   2.223   0.140   2.918  0.0376 -0.1466 -0.3287
  772SOL    HW1 2315   2.284   0.084   2.854  0.5815 -1.1719  0.9491
  772SOL    HW2 2316   2.270   0.199   2.986 -0.8168  0.6646  1.6336
  773SOL     OW 2317   0.687   2.132   2.413  1.0932  0.1114  0.5861
  773SOL    HW1 2318   0.633   2.184   2.342  1.0701  1.3487 -1.1584
  773SOL    HW2 2319   0.638   2.159   2.504 -4.1378  0.0643 -0.3797
  774SOL     OW 2320   2.065   3.097   2.591  0.1330 -0.2125 -0.1433
  774SOL    HW1 2321   2.056   3.196   2.629 -3.6594 -3.2647 -0.1185
  774SOL    HW2 2322   2.106   3.031   2.657 -0.7177 -1.7963 -0.4318
  775SOL     OW 2323   2.547   2.934   2.299 -0.5350 -0.3165  0.3269
  775SOL    HW1 2324   2.528   3.037   2.293 -1.0968  0.7000 -0.0287
  775SOL    HW2 2325   2.625   2.912   2.359 -1.2209 -0.6546 -0.1908
  776SOL     OW 2326   0.032   1.249   0.241  0.5320 -0.2478 -0.0481
  776SOL    HW1 2327  -0.003   1.215   0.150  1.6813 -0.3032  0.2306
  776SOL    HW2 2328  -0.030   1.237   0.324  0.4344 -1.7924  2.3152
  777SOL     OW 2329   0.375   2.827   0.353 -0.1618 -0.8711  0.3313
  777SOL    HW1 2330   0.279   2.866   0.332 -0.0639  0.0701  0.7627
  777SOL    HW2 2331   0.453   2.893   0.318 -2.5158  1.1063  0.1989
  778SOL     OW 2332   1.349   1.979   0.163 -0.1506 -0.1787 -0.0679
  778SOL    HW1 2333   1.267   1.999   0.222  2.1927 -2.8209 -0.2519
  778SOL    HW2 2334   1.387   2.058   0.110 -0.0561  0.3508 -0.5125
  779SOL     OW 2335   0.193   0.863   0.514  0.3213 -0.1764 -0.3295
  779SOL    HW1 2336   0.150   0.767   0.496 -0.0752 -0.3466 -1.6134
  779SOL    HW2 2337   0.122   0.928   0.546 -1.1438 -1.0181  0.3320
  780SOL     OW 2338   0.081   0.254   2.383 -0.8013 -0.6347 -0.0784
  780SOL    HW1 2339   0.026   0.327   2.429  0.0397 -0.1818  2.4255
  780SOL    HW2 2340   0.176   0.287   2.357  0.0945 -1.4168 -0.1945
  781SOL     OW 2341   0.661   1.656   1.506 -0.0320  0.0282 -0.2050
  781SOL    HW1 2342   0.719   1.597   1.568  0.5680  0.7631 -0.6369
  781SOL    HW2 2343   0.559   1.625   1.509 -1.9910  0.1233  2.1762
  782SOL     OW 2344   2.573   0.075   0.952 -0.1424 -0.6605 -0.3832
  782SOL    HW1 2345   2.524   0.099   0.861 -1.3587  2.1891  1.5193
  782SOL    HW2 2346   2.580   0.163   1.009 -0.9154  2.6747  3.0825
  783SOL     OW 2347   2.799   0.703   2.493  0.3702 -0.0232  0.5284
  783SOL    HW1 2348   2.784   0.729   2.589  0.8993 -1.5363  0.3641
  783SOL    HW2 2349   2.746   0.622   2.459 -1.7914 -0.0892 -1.5721
  784SOL     OW 2350   1.450   2.219   0.046  0.2912  0.3052  0.0544
  784SOL    HW1 2351   1.502   2.310   0.071 -1.6187 -1.0889 -0.5829
  784SOL    HW2 2352   1.408   2.225  -0.048 -1.9493  0.2134 -0.7591
  785SOL     OW 2353   2.116   0.332   0.076  0.2615  0.2360  0.3409
  785SOL    HW1 2354   2.038   0.349   0.137  1.3395  0.6024  2.5033
  785SOL    HW2 2355   2.130   0.413   0.012 -0.6064  2.1948  0.7155
  786SOL     OW 2356   2.048   2.202   2.282  0.3648  0.3383 -0.9633
  786SOL    HW1 2357   2.019   2.121   2.340 -2.4093  0.5502 -1.4970
  786SOL    HW2 2358   2.108   2.188   2.200 -1.8392  1.5053  2.2034
  787SOL     OW 2359   1.333   0.492   0.975  0.2645  0.3459  0.1229
  787SOL    HW1 2360   1.275   0.575   0.991  0.6750  0.9388  0.6781
  787SOL    HW2 2361   1.383   0.486   0.884 -1.0295 -0.1920  2.1159
  788SOL     OW 2362   1.263   0.431   0.092 -0.2357 -0.0133 -0.3709
  788SOL    HW1 2363   1.171   0.415   0.042 -1.9516 -1.3305  1.4421
  788SOL    HW2 2364   1.247   0.505   0.166  0.7589  3.3510  2.0365
  789SOL     OW 2365   2.541   0.084   1.948 -0.5373  0.7703 -0.1257
  789SOL    HW1 2366   2.455   0.132   1.915  0.3381 -0.0363  0.4130
  789SOL    HW2 2367   2.555  -0.023   1.930  1.1532 -3.5587 -0.1601
  790SOL     OW 2368   2.649   2.779   0.826  0.3071 -0.8828  0.4627
  790SOL    HW1 2369   2.692   2.827   0.741  0.2411 -0.1417  1.7999
  790SOL    HW2 2370   2.668   2.831   0.910  1.4814 -1.0081 -2.3614
  791SOL     OW 2371   1.931   1.197   0.183  0.1532  0.1210  0.0245
  791SOL    HW1 2372   1.838   1.153   0.209  1.9460 -1.9260  1.0965
  791SOL    HW2 2373   2.017   1.148   0.222  1.8795 -0.2305  2.3237
  792SOL     OW 2374   0.452   1.806   2.189  0.0124  0.6070 -0.4256
  792SOL    HW1 2375   0.534   1.761   2.241 -2.0612 -0.8654  2.7225
  792SOL    HW2 2376   0.365   1.792   2.241 -1.8871  2.3978 -1.1929
  793SOL     OW 2377   2.090   1.542   2.127 -0.4209  0.0443 -0.1771
  793SOL    HW1 2378   2.160   1.609   2.101  1.5133 -1.9491 -0.4330
  793SOL    HW2 2379   2.103   1.452   2.078 -0.4465 -2.0292  0.0128
  794SOL     OW 2380   0.517   1.394   2.354 -0.3413 -0.2497  0.2900
  794SOL    HW1 2381   0.513   1.355   2.261  1.9911 -1.5803  2.0606
  794SOL    HW2 2382   0.456   1.472   2.369  0.3958 -0.8109 -1.3154
  795SOL     OW 2383   2.499   2.247   1.847 -0.0275 -0.0784  0.1198
  795SOL    HW1 2384   2.504   2.208   1.942 -0.7140  1.4543 -0.2304
  795SOL    HW2 2385   2.424   2.201   1.792  0.2366 -0.3399  0.8396
  796SOL     OW 2386   3.069   1.128   2.697 -0.4021  0.0975  0.4742
  796SOL    HW1 2387   2.963   1.137   2.703 -3.2069  2.1219 -1.2167
  796SOL    HW2 2388   3.112   1.146   2.789  1.2722  0.4574  1.0626
  797SOL     OW 2389   0.759   0.644   1.405  0.2604 -0.1770  0.3592
  797SOL    HW1 2390   0.841   0.680   1.459  1.0874 -0.1554  1.9382
  797SOL    HW2 2391   0.710   0.718   1.350  0.4640  0.7491  0.1432
  798SOL     OW 2392   1.276   0.302   1.170  0.6252 -0.4200  0.0723
  798SOL    HW1 2393   1.356   0.285   1.231 -0.4601  2.0943 -0.7716
  798SOL    HW2 2394   1.295   0.373   1.099 -0.7532  1.8647 -2.4997
  799SOL     OW 2395   1.965   2.731   1.043  0.0394  0.1788 -0.0598
  799SOL    HW1 2396   1.919   2.681   1.119  1.9394  2.6908 -1.5100
  799SOL    HW2 2397   1.919   2.725   0.953 -0.4540  2.1205 -1.5223
  800SOL     OW 2398   3.029   0.647   1.841 -0.1744  0.3129  0.1880
  800SOL    HW1 2399   2.981   0.722   1.892 -3.0819 -0.2785 -1.4873
  800SOL    HW2 2400   3.100   0.594   1.890 -0.4100  1.8010 -0.3048
  801SOL     OW 2401   1.982   2.239   0.087 -0.3429  0.5201 -0.2150
  801SOL    HW1 2402   1.899   2.239   0.021 -2.7404 -0.6509  0.4408
  801SOL    HW2 2403   2.060   2.177   0.059  0.2429 -1.7158  1.2753
  802SOL     OW 2404   0.708   0.828   2.543 -0.1012  0.0518 -0.0771
  802SOL    HW1 2405   0.755   0.785   2.457 -0.1345 -0.0144 -1.3387
  802SOL    HW2 2406   0.609   0.835   2.533  2.1516  0.0448 -0.5633
  803SOL     OW 2407   0.953   0.056   0.853  0.5079 -0.3629  0.1597
  803SOL    HW1 2408   1.038   0.115   0.862  0.2984 -0.1161 -2.2901
  803SOL    HW2 2409   0.863   0.099   0.824 -0.7733 -1.1660 -0.6707
  804SOL     OW 2410   0.277   0.047   2.134  0.2842  0.3958  0.1944
  804SOL    HW1 2411   0.287   0.140   2.183  0.2752 -0.3332 -0.0456
  804SOL    HW2 2412   0.211   0.050   2.053  0.3935 -3.1642  0.7706
  805SOL     OW 2413   2.385   0.269   0.360 -0.0225  0.3785  0.0697
  805SOL    HW1 2414   2.428   0.312   0.445 -2.5256 -0.3502 -0.0518
  805SOL    HW2 2415   2.451   0.252   0.284  0.0268  2.0530  1.4419
  806SOL     OW 2416   0.627   2.437   1.713 -0.4672 -0.0592  0.7114
  806SOL    HW1 2417   0.627   2.539   1.732  0.8308 -0.1797  0.5326
  806SOL    HW2 2418   0.709   2.409   1.654 -0.1948 -0.0271  0.0381
  807SOL     OW 2419   2.472   0.883   0.391  0.2515 -0.3339 -0.4517
  807SOL    HW1 2420   2.563   0.886   0.442 -0.2742 -3.0133  2.9367
  807SOL    HW2 2421   2.466   0.938   0.303  0.2591 -0.5639  1.1869
  808SOL     OW 2422   0.553   2.052   2.926 -0.1645  0.3266 -0.3587
  808SOL    HW1 2423   0.546   2.088   3.022 -0.9659  0.3201  0.4194
  808SOL    HW2 2424   0.538   1.949   2.922 -3.3183 -1.0440 -2.1756
  809SOL     OW 2425   2.702   1.957   1.935 -0.0550  0.1869 -0.1568
  809SOL    HW1 2426   2.795   1.997   1.919 -1.0185  1.5943 -0.8426
  809SOL    HW2 2427   2.648   1.959   1.845 -0.9836  0.6531 -0.0777
  810SOL     OW 2428   2.092   1.052   0.530 -0.5246  0.2705  0.0783
  810SOL    HW1 2429   2.154   1.000   0.594  0.9841  2.0992  0.8613
  810SOL    HW2 2430   2.061   1.140   0.575  0.9464 -1.4882 -0.1616
  811SOL     OW 2431   1.344   2.504   1.247 -0.1729  0.0819 -0.3563
  811SOL    HW1 2432   1.291   2.412   1.254 -1.6175  1.3091 -1.2157
  811SOL    HW2 2433   1.282   2.584   1.244  0.5320  0.3705  0.4164
  812SOL     OW 2434   1.421   0.816   1.942  0.0051 -0.3399  0.6864
  812SOL    HW1 2435   1.491   0.838   2.012 -1.3424  3.1372  1.5945
  812SOL    HW2 2436   1.353   0.888   1.926  2.7284  0.9846  1.1118
  813SOL     OW 2437   1.734   2.056   2.500 -0.6271 -0.2657  0.2085
  813SOL    HW1 2438   1.833   2.018   2.491  0.0463 -0.5257  1.9179
  813SOL    HW2 2439   1.676   2.062   2.410  0.3156 -1.5450  1.2000
  814SOL     OW 2440   2.920   1.531   2.850  0.0493  0.4591 -0.3739
  814SOL    HW1 2441   2.996   1.498   2.911 -1.4547 -0.1341  1.1963
  814SOL    HW2 2442   2.940   1.623   2.806  1.1344  0.8617  1.0658
  815SOL     OW 2443   2.156   2.928   2.792 -0.2813  0.3819 -0.3255
  815SOL    HW1 2444   2.113   2.879   2.874 -2.4844  1.1581 -1.2727
  815SOL    HW2 2445   2.255   2.921   2.777  0.6584  0.8487  0.2605
  816SOL     OW 2446   1.644   0.324   1.640 -0.0224 -0.0273 -0.4629
  816SOL    HW1 2447   1.686   0.225   1.636  1.1515 -0.8911  0.7370
  816SOL    HW2 2448   1.557   0.323   1.692  1.3746 -0.9539 -0.5456
  817SOL     OW 2449   0.410   1.234   2.558 -0.3123 -0.1060  0.1839
  817SOL    HW1 2450   0.321   1.268   2.596  1.1693  0.2990  0.8747
  817SOL    HW2 2451   0.445   1.283   2.476  3.2503 -0.1148 -0.1952
  818SOL     OW 2452   1.919   0.828   0.462 -0.2800  0.5910 -0.4020
  818SOL    HW1 2453   1.972   0.913   0.495  2.0360 -1.9887 -0.8304
  818SOL    HW2 2454   1.856   0.787   0.530 -0.4817 -1.7413 -1.1993
  819SOL     OW 2455   2.748   2.974   3.007 -0.2171  0.3736 -0.0238
  819SOL    HW1 2456   2.806   2.895   2.981 -1.9663  0.5338  1.7601
  819SOL    HW2 2457   2.669   2.983   2.946  2.9692 -0.6108  0.7887
  820SOL     OW 2458   1.263   1.100   0.684 -0.2417 -0.0052  0.6937
  820SOL    HW1 2459   1.229   1.197   0.709 -2.0061 -2.4579  0.4766
  820SOL    HW2 2460   1.239   1.030   0.747 -0.4274  1.6999 -1.1350
  821SOL     OW 2461   3.079   1.332   0.661 -0.0481 -0.1644  0.3588
  821SOL    HW1 2462   3.038   1.325   0.757  0.5002 -2.1859  0.5603
  821SOL    HW2 2463   3.145   1.407   0.662 -1.7139 -2.0600 -0.0243
  822SOL     OW 2464   2.551   1.741   2.464  0.5243 -0.2746 -0.1777
  822SOL    HW1 2465   2.555   1.832   2.511 -0.1285 -1.8965 -0.3385
  822SOL    HW2 2466   2.464   1.740   2.400  2.3125  0.5300 -1.8036
  823SOL     OW 2467   2.096   0.885   1.205  0.1730  0.3854  0.5525
  823SOL    HW1 2468   2.091   0.903   1.303 -0.6841  0.2217 -0.7853
  823SOL    HW2 2469   2.013   0.919   1.153  0.6901  1.1784 -0.4082
  824SOL     OW 2470   0.202   2.073   2.789  0.3373  0.0226  0.0356
  824SOL    HW1 2471   0.166   1.988   2.836  2.2414  3.2425  0.5279
  824SOL    HW2 2472   0.286   2.047   2.729 -1.7703 -1.0507  0.2753
  825SOL     OW 2473   1.287   1.082   0.252  0.2430 -0.1372 -0.1793
  825SOL    HW1 2474   1.318   1.180   0.254  2.2171  1.6791  0.1139
  825SOL    HW2 2475   1.216   1.062   0.320 -1.1653  1.9082 -1.9244
  826SOL     OW 2476   1.894   0.701   1.625 -0.0774  0.0826  0.1372
  826SOL    HW1 2477   1.979   0.639   1.626  1.4237  0.9224 -2.6673
  826SOL    HW2 2478   1.811   0.645   1.591 -0.2785 -1.7857 -1.8246
  827SOL     OW 2479   0.661   1.281   0.267  0.2524 -0.8082 -0.5250
  827SOL    HW1 2480   0.731   1.217   0.231 -1.8556 -0.1016 -1.0357
  827SOL    HW2 2481   0.658   1.301   0.370 -0.8351 -1.3573 -1.2578
  828SOL     OW 2482   2.514   0.081   1.592  0.1382  0.1764  0.0507
  828SOL    HW1 2483   2.415   0.104   1.568  1.4093  1.5161 -0.3591
  828SOL    HW2 2484   2.524   0.005   1.662  2.3866  0.2923  0.4482
  829SOL     OW 2485   2.785   2.464   3.004 -0.5626  0.3115  0.1442
  829SOL    HW1 2486   2.727   2.377   3.002 -0.9660 -0.4260 -0.5254
  829SOL    HW2 2487   2.740   2.539   3.062  0.1097 -0.5136  0.7192
  830SOL     OW 2488   2.852   0.942   2.997  0.2383  0.7101 -0.0392
  830SOL    HW1 2489   2.918   1.016   3.024 -0.8282 -1.8513  0.3009
  830SOL    HW2 2490   2.847   0.864   3.065 -1.9332  3.5044 -2.6522
  831SOL     OW 2491   0.095   0.633   0.424 -0.7328 -0.4217 -0.4812
  831SOL    HW1 2492   0.046   0.549   0.465 -0.8564 -0.8564 -2.7569
  831SOL    HW2 2493   0.104   0.618   0.322  0.1510  1.6159  1.5431
  832SOL     OW 2494   1.774   0.745   3.016  0.1192  0.0350 -0.5798
  832SOL    HW1 2495   1.680   0.779   2.991  0.6401 -1.8498 -0.3782
  832SOL    HW2 2496   1.778   0.643   3.022 -0.0008 -0.4747  0.3736
  833SOL     OW 2497   2.428   2.179   0.539  0.1879 -0.0550  0.1403
  833SOL    HW1 2498   2.337   2.210   0.501  3.1664 -0.2187 -0.1034
  833SOL    HW2 2499   2.450   2.077   0.522  0.7440  0.6018 -0.2644
  834SOL     OW 2500   0.208   0.219   0.549  0.0369  0.0035  0.6847
  834SOL    HW1 2501   0.240   0.127   0.582  1.0852 -1.9967 -1.7477
  834SOL    HW2 2502   0.163   0.223   0.449 -3.8239  1.6446 -0.4622
  835SOL     OW 2503   2.400   1.546   1.132 -0.0988 -0.4513 -0.5876
  835SOL    HW1 2504   2.387   1.633   1.184 -1.2671  1.4348 -1.3315
  835SOL    HW2 2505   2.450   1.553   1.038  0.4104  2.3666  0.1112
  836SOL     OW 2506   1.600   0.819   2.531 -0.1927 -0.1971  0.6024
  836SOL    HW1 2507   1.498   0.814   2.562 -0.8583  3.2607 -0.1862
  836SOL    HW2 2508   1.608   0.848   2.430 -0.0384  2.6185  1.1794
  837SOL     OW 2509   1.717   0.120   0.564 -0.6575 -0.0006 -0.8484
  837SOL    HW1 2510   1.668   0.187   0.629 -1.0706 -1.8424 -0.8079
  837SOL    HW2 2511   1.657   0.096   0.487 -0.2029 -1.5564  1.3708
  838SOL     OW 2512   1.166   1.554   2.808  0.7690  0.0023 -0.0047
  838SOL    HW1 2513   1.152   1.522   2.907  0.7502  1.0209  0.0083
  838SOL    HW2 2514   1.108   1.508   2.734 -1.0470  1.5335 -0.1115
  839SOL     OW 2515   1.660   0.330   0.991  0.2176 -0.2539  0.4705
  839SOL    HW1 2516   1.695   0.389   1.069  1.3298 -2.3562 -1.2334
  839SOL    HW2 2517   1.612   0.246   1.028  2.1861 -0.2974  0.5476
  840SOL     OW 2518   2.509   2.938   1.763  0.3716 -0.1679 -0.1633
  840SOL    HW1 2519   2.412   2.918   1.793 -0.4338  1.8469  1.1957
  840SOL    HW2 2520   2.578   2.862   1.791 -0.4587  1.3144 -0.9895
  841SOL     OW 2521   1.505   0.840   2.969  0.0155 -0.3431  0.1620
  841SOL    HW1 2522   1.419   0.864   3.024 -0.6926  1.6845 -2.0533
  841SOL    HW2 2523   1.532   0.926   2.907 -1.7347  0.0831 -2.1493
  842SOL     OW 2524   0.825   1.562   0.939 -0.0078  0.4834  0.3331
  842SOL    HW1 2525   0.802   1.658   0.972 -1.9764  0.7614 -0.4762
  842SOL    HW2 2526   0.757   1.489   0.970 -1.1424 -1.3044 -0.8208
  843SOL     OW 2527   0.047   0.047   1.396  0.3331 -0.0468  0.6772
  843SOL    HW1 2528   0.129   0.108   1.412  1.8054  0.3468  1.2919
  843SOL    HW2 2529   0.051  -0.049   1.434  2.0040  2.8744 -0.8272
  844SOL     OW 2530   0.815   2.490   0.252  0.0165  0.0343  0.7423
  844SOL    HW1 2531   0.780   2.449   0.341  2.4410  2.1909  2.3431
  844SOL    HW2 2532   0.755   2.560   0.202  1.6745  1.5264 -2.2343
  845SOL     OW 2533   1.618   2.919   1.374 -0.1795 -0.3885 -0.0116
  845SOL    HW1 2534   1.672   2.945   1.458 -1.4339 -2.6294  1.3087
  845SOL    HW2 2535   1.542   2.853   1.394  1.2097  0.9744 -2.4535
  846SOL     OW 2536   1.550   2.898   0.693 -0.2910  0.3970 -0.0900
  846SOL    HW1 2537   1.592   2.843   0.615  0.9528 -1.4472 -0.7508
  846SOL    HW2 2538   1.614   2.923   0.771  1.9771 -0.5272  0.7586
  847SOL     OW 2539   2.061   1.648   0.331  0.2264 -0.6626 -0.1900
  847SOL    HW1 2540   2.042   1.549   0.367 -0.3969 -4.7919  0.2296
  847SOL    HW2 2541   1.980   1.706   0.324  3.9302  1.7072  2.7568
  848SOL     OW 2542   2.454   0.882   2.580 -0.4635 -0.2722 -0.4230
  848SOL    HW1 2543   2.417   0.962   2.633  2.2281 -0.3472 -0.4058
  848SOL    HW2 2544   2.388   0.804   2.591 -0.7806  0.5581 -1.5818
  849SOL     OW 2545   2.608   0.852   2.356 -0.1482 -0.5291  0.2627
  849SOL    HW1 2546   2.698   0.804   2.371 -0.0829  1.3339  0.3677
  849SOL    HW2 2547   2.548   0.863   2.443 -1.4957 -0.9617  1.7930
  850SOL     OW 2548   1.532   0.146   1.302 -0.1583 -1.1705  0.5375
  850SOL    HW1 2549   1.520   0.113   1.205  1.7126  3.0578  1.9248
  850SOL    HW2 2550   1.471   0.089   1.362  1.6505  1.8576  1.1508
  851SOL     OW 2551   0.473   1.799   0.582 -0.2444  0.2663  0.5249
  851SOL    HW1 2552   0.481   1.897   0.614 -2.0016  0.0307 -0.4186
  851SOL    HW2 2553   0.517   1.785   0.487  4.3009  1.4538  2.5348
  852SOL     OW 2554   0.800   2.123   1.634  0.2058 -0.3233 -0.4140
  852SOL    HW1 2555   0.816   2.225   1.627 -0.5157  1.5612 -0.9155
  852SOL    HW2 2556   0.740   2.105   1.723 -0.7387  2.7136  3.0461
  853SOL     OW 2557   2.517   1.501   2.597 -0.2988 -0.3923 -0.1523
  853SOL    HW1 2558   2.443   1.443   2.551  3.0856 -2.1854  2.4184
  853SOL    HW2 2559   2.551   1.585   2.550  0.2184 -2.5181  0.7956
  854SOL     OW 2560   2.371   1.411   1.724  0.1743  0.0144  0.2529
  854SOL    HW1 2561   2.440   1.364   1.658  0.9802  0.1078  1.0117
  854SOL    HW2 2562   2.283   1.361   1.721  0.6654 -0.0711 -1.2694
  855SOL     OW 2563   2.012   2.420   0.985 -0.0177 -0.2542 -0.6391
  855SOL    HW1 2564   2.032   2.510   0.929  3.8581  0.2465  1.5070
  855SOL    HW2 2565   2.085   2.399   1.058 -1.9244  1.3891 -1.9386
  856SOL     OW 2566   1.320   1.488   0.963 -0.2176  0.4290  0.0966
  856SOL    HW1 2567   1.386   1.569   0.987  1.3366 -0.3791 -0.6929
  856SOL    HW2 2568   1.231   1.492   1.013  1.5194  1.2618 -0.3471
  857SOL     OW 2569   3.061   2.701   0.937  1.1765 -0.2163 -0.0580
  857SOL    HW1 2570   3.036   2.613   0.882  0.3364 -2.2909 -0.3682
  857SOL    HW2 2571   3.156   2.732   0.922 -2.6459 -1.3001  0.2025
  858SOL     OW 2572   2.328   2.105   1.688  0.4849  0.0136 -0.1971
  858SOL    HW1 2573   2.238   2.115   1.633  1.5940 -1.9962 -0.9087
  858SOL    HW2 2574   2.386   2.021   1.675  1.6672  1.1167  1.6783
  859SOL     OW 2575   2.477   0.514   1.027  0.0408  0.1164 -0.2236
  859SOL    HW1 2576   2.532   0.587   0.971 -0.8850  2.3686 -0.2634
  859SOL    HW2 2577   2.534   0.432   1.060 -0.4845 -0.8642 -0.7743
  860SOL     OW 2578   1.973   2.788   0.424 -0.1171  0.2564 -0.2370
  860SOL    HW1 2579   1.924   2.787   0.338  0.1582 -0.2842  3.1985
  860SOL    HW2 2580   2.077   2.817   0.421 -0.7344 -0.9764  2.2377
  861SOL     OW 2581   1.004   2.427   2.882 -0.1504  0.0132  0.3294
  861SOL    HW1 2582   1.038   2.514   2.838  0.9410 -0.0334 -1.3574
  861SOL    HW2 2583   1.069   2.396   2.955  1.0544  1.0103  0.9913
  862SOL     OW 2584   2.852   2.553   1.619  0.0680  0.5221  0.1891
  862SOL    HW1 2585   2.950   2.574   1.647  0.9590  1.2595 -2.2448
  862SOL    HW2 2586   2.817   2.626   1.555  0.3466  0.2945 -1.6254
  863SOL     OW 2587   1.850   2.735   0.169  0.3635  0.2125 -0.0123
  863SOL    HW1 2588   1.893   2.644   0.193  0.6193  0.3200 -0.2764
  863SOL    HW2 2589   1.750   2.724   0.132 -1.2301 -1.4410  0.9631
  864SOL     OW 2590   1.942   1.213   2.846 -0.5338 -0.2649 -0.2266
  864SOL    HW1 2591   1.956   1.176   2.751 -0.3831  0.3937  1.7999
  864SOL    HW2 2592   2.004   1.165   2.913 -2.8882 -2.4336 -0.9022
  865SOL     OW 2593   2.178   1.876   0.655  0.1728 -0.3558 -0.6260
  865SOL    HW1 2594   2.231   1.865   0.746  1.6715  1.6715 -0.9075
  865SOL    HW2 2595   2.076   1.867   0.666  0.1996 -0.6310  1.4620
  866SOL     OW 2596   2.868   2.898   0.985  0.3226  0.0897  0.4448
  866SOL    HW1 2597   2.864   2.977   0.914  0.4444 -0.3213  0.6242
  866SOL    HW2 2598   2.935   2.824   0.956 -1.2199  0.8408  0.7303
  867SOL     OW 2599   0.383   1.435   0.886 -0.7141  0.2927  0.1156
  867SOL    HW1 2600   0.357   1.367   0.814 -1.9875  0.3663 -3.0998
  867SOL    HW2 2601   0.368   1.533   0.849  0.1147 -2.1779  1.2655
  868SOL     OW 2602   0.784   1.903   2.044  0.2736  0.1804 -0.6099
  868SOL    HW1 2603   0.717   1.899   2.123  0.6534  1.6168 -2.9494
  868SOL    HW2 2604   0.769   1.989   1.994  0.1648  1.4869 -0.1169
  869SOL     OW 2605   2.532   1.917   1.667  0.3169 -0.1325 -0.2644
  869SOL    HW1 2606   2.613   1.972   1.625 -0.7528  0.1912 -0.2284
  869SOL    HW2 2607   2.545   1.811   1.667 -0.5314 -3.6243  1.0908
  870SOL     OW 2608   2.259   2.685   1.238 -0.1950 -0.2239  0.4760
  870SOL    HW1 2609   2.247   2.581   1.225 -1.3969 -1.8280  0.8876
  870SOL    HW2 2610   2.268   2.709   1.347  0.1303 -0.4715  2.4384
  871SOL     OW 2611   3.055   2.234   0.555 -0.2442 -0.2524 -0.5909
  871SOL    HW1 2612   3.008   2.235   0.650  0.8664 -3.8072  1.5332
  871SOL    HW2 2613   2.984   2.232   0.477 -0.8190  0.3471 -0.4702
  872SOL     OW 2614   2.106   0.535   1.709  0.1931  0.0618 -0.0842
  872SOL    HW1 2615   2.060   0.497   1.794  0.8041 -2.0707  0.3398
  872SOL    HW2 2616   2.183   0.480   1.672  1.1577  3.0033  1.5035
  873SOL     OW 2617   1.713   2.116   3.067 -0.4472 -0.3108 -0.3697
  873SOL    HW1 2618   1.630   2.143   3.119  0.0672 -0.7438 -1.2058
  873SOL    HW2 2619   1.700   2.109   2.966 -0.9501  0.7951  1.2225
  874SOL     OW 2620   0.677   2.444   0.744  0.3665  0.1383  0.3712
  874SOL    HW1 2621   0.629   2.539   0.753 -3.2030 -0.3367 -0.1894
  874SOL    HW2 2622   0.768   2.442   0.786 -2.5210  0.4730  1.9940
  875SOL     OW 2623   2.318   1.473   1.403  0.5063 -0.1486  0.0116
  875SOL    HW1 2624   2.393   1.530   1.450 -2.6988 -1.3298 -1.1117
  875SOL    HW2 2625   2.312   1.489   1.302  1.5999 -1.4823 -0.2235
  876SOL     OW 2626   0.045   2.288   2.704 -0.4480 -0.5709  0.3644
  876SOL    HW1 2627   0.100   2.204   2.735  4.2011  0.3309  1.4671
  876SOL    HW2 2628   0.081   2.375   2.753 -0.5141 -1.0863  0.8673
  877SOL     OW 2629   2.940   2.684   0.529 -0.5432  0.0009  0.9424
  877SOL    HW1 2630   2.874   2.740   0.583  1.1381 -0.1497  0.9100
  877SOL    HW2 2631   3.002   2.635   0.594 -0.9062  1.0579 -2.2619
  878SOL     OW 2632   2.786   1.509   2.223  0.3207 -0.2014 -0.0214
  878SOL    HW1 2633   2.830   1.592   2.189  0.5359 -0.1783  1.3740
  878SOL    HW2 2634   2.784   1.499   2.327  0.6544 -3.2315  0.4125
  879SOL     OW 2635   2.427   0.116   1.221  0.1785  0.4234  0.4747
  879SOL    HW1 2636   2.459   0.033   1.274  1.9183  1.4133 -1.2944
  879SOL    HW2 2637   2.362   0.093   1.146  0.0222  0.1404  1.6303
  880SOL     OW 2638   0.786   0.482   2.212 -0.1192 -0.5729  0.2756
  880SOL    HW1 2639   0.725   0.452   2.291  1.4806 -1.9337  0.1033
  880SOL    HW2 2640   0.812   0.401   2.155 -3.5260  0.7904 -2.4497
  881SOL     OW 2641   0.898   0.050   0.481 -0.3553 -0.2622  0.2660
  881SOL    HW1 2642   0.937  -0.043   0.509  0.6821 -1.6417 -0.1911
  881SOL    HW2 2643   0.797   0.069   0.503  0.1356  0.1549 -1.7699
  882SOL     OW 2644   2.703   1.686   1.673 -0.2361 -0.4103 -0.2752
  882SOL    HW1 2645   2.770   1.629   1.618  1.2527 -0.8419 -1.4910
  882SOL    HW2 2646   2.719   1.662   1.775  1.3463  1.8444 -0.2870
  883SOL     OW 2647   0.882   0.513   0.915  0.3216 -0.2709 -0.2855
  883SOL    HW1 2648   0.890   0.595   0.983  0.2900  0.0392 -0.1099
  883SOL    HW2 2649   0.878   0.424   0.965 -0.5984  0.6767  0.1987
  884SOL     OW 2650   1.147   1.717   1.182 -0.2562 -0.2291 -0.0107
  884SOL    HW1 2651   1.113   1.627   1.142  1.2561  2.6940  1.7336
  884SOL    HW2 2652   1.114   1.794   1.125  2.8099  1.9663 -1.4668
  885SOL     OW 2653   2.340   1.775   2.310 -0.2923  0.2572  0.1041
  885SOL    HW1 2654   2.249   1.734   2.340 -0.2838 -2.4611  2.1875
  885SOL    HW2 2655   2.342   1.875   2.279  2.8982  1.3433  2.5890
  886SOL     OW 2656   2.587   0.336   1.799  0.0146 -0.4950 -0.0898
  886SOL    HW1 2657   2.614   0.234   1.812 -1.8081 -1.2051 -1.5792
  886SOL    HW2 2658   2.668   0.395   1.779 -1.5555  0.2710 -4.0093
  887SOL     OW 2659   0.099   1.957   1.336  0.0901 -0.5776  0.2010
  887SOL    HW1 2660   0.050   1.907   1.261 -0.1160  2.2466 -0.9663
  887SOL    HW2 2661   0.174   2.020   1.304 -0.4176 -1.4380  0.6660
  888SOL     OW 2662   0.535   1.221   1.527  0.2759 -0.2124 -0.4862
  888SOL    HW1 2663   0.545   1.284   1.441  2.1912 -1.1842 -0.1542
  888SOL    HW2 2664   0.564   1.122   1.510 -0.6449 -2.1016 -1.4431
  889SOL     OW 2665   0.806   2.513   2.158 -0.0902 -0.3827  0.4280
  889SOL    HW1 2666   0.756   2.424   2.188 -0.5005  1.1713 -1.4062
  889SOL    HW2 2667   0.873   2.504   2.077  1.1028  0.7194  1.3646
  890SOL     OW 2668   2.421   2.474   0.240 -0.2076 -0.1051  0.5076
  890SOL    HW1 2669   2.471   2.557   0.207  0.0671 -0.7931 -1.4921
  890SOL    HW2 2670   2.357   2.491   0.320 -0.4587 -2.2350  0.0043
  891SOL     OW 2671   2.513   1.709   0.651  0.2504 -0.0491  0.7631
  891SOL    HW1 2672   2.509   1.682   0.748  1.0131  2.3537  0.3039
  891SOL    HW2 2673   2.419   1.695   0.616  1.1721  0.2697  0.3914
  892SOL     OW 2674   0.363   0.261   2.312  0.5185 -0.0841 -0.5062
  892SOL    HW1 2675   0.383   0.359   2.287 -0.9111  0.1152 -1.9820
  892SOL    HW2 2676   0.404   0.231   2.405 -0.5083  1.7454  0.0074
  893SOL     OW 2677   1.641   0.245   2.710  0.3208 -0.1912 -0.1935
  893SOL    HW1 2678   1.720   0.312   2.713 -1.5400 -1.2149 -1.5212
  893SOL    HW2 2679   1.554   0.296   2.697  2.8326  3.0873 -1.5475
  894SOL     OW 2680   2.175   2.046   0.036  0.0711 -0.3129 -0.1997
  894SOL    HW1 2681   2.128   1.981  -0.035  0.3866 -0.2179 -2.4034
  894SOL    HW2 2682   2.203   1.990   0.123  0.1459 -2.2897  0.3910
  895SOL     OW 2683   2.835   1.453   0.912 -0.1904 -0.3089 -0.0107
  895SOL    HW1 2684   2.901   1.390   0.962 -1.9715  0.8892 -2.1718
  895SOL    HW2 2685   2.817   1.546   0.960 -2.7067  1.6463  0.0423
  896SOL     OW 2686   1.713   1.808   1.160 -0.5946 -0.1496  0.1487
  896SOL    HW1 2687   1.733   1.746   1.081  1.1070  1.3133  0.9336
  896SOL    HW2 2688   1.640   1.879   1.135 -1.3926 -1.6410 -0.8280
  897SOL     OW 2689   0.311   0.549   3.043 -0.0044 -0.5652  0.4563
  897SOL    HW1 2690   0.261   0.575   2.952 -2.5355  0.0483 -0.8133
  897SOL    HW2 2691   0.397   0.605   3.060 -0.3138 -2.5589  1.6913
  898SOL     OW 2692   0.582   2.869   1.063 -0.1916  0.0163  0.3032
  898SOL    HW1 2693   0.614   2.966   1.040 -0.8922 -0.9506  1.6075
  898SOL    HW2 2694   0.655   2.823   1.127 -2.5140 -0.2743 -0.4939
  899SOL     OW 2695   2.839   0.900   1.343 -0.3977 -0.1404 -0.3660
  899SOL    HW1 2696   2.826   0.846   1.257  0.9923  1.1084  0.7463
  899SOL    HW2 2697   2.903   0.976   1.328 -1.5131 -2.0653 -0.7202
  900SOL     OW 2698   0.989   2.521   2.456 -0.5660  0.1718 -0.1269
  900SOL    HW1 2699   0.933   2.527   2.371  1.4396 -1.3074  5.2838
  900SOL    HW2 2700   0.949   2.449   2.518 -2.0354  0.1528  0.6879
  901SOL     OW 2701   1.897   2.380   1.362  0.1246 -0.1588 -0.1089
  901SOL    HW1 2702   1.891   2.320   1.278  2.5857 -0.7457 -2.0883
  901SOL    HW2 2703   1.992   2.382   1.397 -1.1831  0.1753 -0.1526
  902SOL     OW 2704   2.560   1.651   1.455 -0.3852  0.0305 -0.1015
  902SOL    HW1 2705   2.581   1.665   1.555 -1.3100 -1.4508 -0.5657
  902SOL    HW2 2706   2.642   1.613   1.404  0.3372 -0.8237 -0.4367
  903SOL     OW 2707   0.242   2.455   1.965 -0.4470  0.3726 -0.2807
  903SOL    HW1 2708   0.149   2.415   1.958  1.9497  1.1808 -1.2793
  903SOL    HW2 2709   0.256   2.537   1.906 -1.1508 -1.2756 -0.4576
  904SOL     OW 2710   1.995   0.792   2.593  0.2697  0.0919  0.1748
  904SOL    HW1 2711   1.908   0.736   2.620 -1.7406 -0.6738  0.1270
  904SOL    HW2 2712   2.002   0.783   2.489 -1.0035  0.0744  0.7976
  905SOL     OW 2713   2.845   0.127   2.550  0.7423  0.2739  0.4647
  905SOL    HW1 2714   2.912   0.051   2.534 -2.7457  1.5308 -0.0644
  905SOL    HW2 2715   2.874   0.221   2.526 -0.4175 -0.9575 -1.3280
  906SOL     OW 2716   0.184   1.710   1.922  0.7046  0.1451  0.0392
  906SOL    HW1 2717   0.104   1.720   1.859  0.0975 -0.2893 -2.0631
  906SOL    HW2 2718   0.255   1.782   1.928  3.1404 -1.0629 -0.3231
  907SOL     OW 2719   0.240   2.436   1.003  0.4648  0.0871  0.3080
  907SOL    HW1 2720   0.342   2.413   0.996 -0.4464  0.0701  0.8390
  907SOL    HW2 2721   0.214   2.508   0.932  0.4867  0.7539  0.4021
  908SOL     OW 2722   2.814   3.033   0.386  0.3035 -0.4209 -0.3885
  908SOL    HW1 2723   2.714   3.041   0.398 -0.5212 -3.0262  1.9896
  908SOL    HW2 2724   2.834   2.963   0.316 -1.9936  2.8183 -0.4940
  909SOL     OW 2725   0.837   1.057   2.653 -0.3867 -0.1534  0.1261
  909SOL    HW1 2726   0.774   0.975   2.624 -1.9427 -0.4313 -2.7831
  909SOL    HW2 2727   0.895   1.093   2.574  0.0108  2.5224  0.1209
  910SOL     OW 2728   1.804   1.887   2.172 -0.1218  0.0275  0.0736
  910SOL    HW1 2729   1.856   1.926   2.087 -0.2528 -0.4270  0.8363
  910SOL    HW2 2730   1.723   1.947   2.200  2.4502 -1.0601  0.4912
  911SOL     OW 2731   1.820   2.926   1.588 -0.1943  0.1558  0.8971
  911SOL    HW1 2732   1.878   2.915   1.502  1.6477 -0.6711  0.1427
  911SOL    HW2 2733   1.833   2.847   1.649 -0.6187  1.4302 -0.9015
  912SOL     OW 2734   2.850   1.004   0.730  0.2048  0.1139  0.2662
  912SOL    HW1 2735   2.902   0.958   0.810  2.4239  2.9949  2.4665
  912SOL    HW2 2736   2.807   1.089   0.766 -2.7711 -1.3742 -0.6697
  913SOL     OW 2737   2.530   1.279   1.544  0.0571 -0.1966  0.0488
  913SOL    HW1 2738   2.581   1.193   1.546  1.5686  1.2557  3.9725
  913SOL    HW2 2739   2.558   1.340   1.466 -1.1095  1.4945  2.0254
  914SOL     OW 2740   2.776   0.591   1.176  0.0860 -0.0745  0.0098
  914SOL    HW1 2741   2.802   0.502   1.233  0.6117 -0.2662  1.4790
  914SOL    HW2 2742   2.673   0.621   1.177 -2.3560  1.1311 -1.1683
  915SOL     OW 2743   1.194   0.708   1.029 -0.6044  0.2231  0.3562
  915SOL    HW1 2744   1.246   0.749   1.108  1.5190 -0.7263 -0.7666
  915SOL    HW2 2745   1.100   0.692   1.057  4.0335 -2.7339 -1.8360
  916SOL     OW 2746   0.608   0.029   0.639 -0.2502 -0.1974 -0.5147
  916SOL    HW1 2747   0.625   0.102   0.711 -0.1188  1.9661  0.0624
  916SOL    HW2 2748   0.587   0.056   0.543 -2.3819  0.4260  2.0292
  917SOL     OW 2749   2.839   2.593   2.028 -0.3421  0.1887  0.3708
  917SOL    HW1 2750   2.740   2.625   2.015  0.3571  1.5148 -0.2535
  917SOL    HW2 2751   2.898   2.615   1.948  0.4643  0.4084  0.0081
  918SOL     OW 2752   1.017   2.092   3.032  0.1128 -0.4507 -0.0054
  918SOL    HW1 2753   0.985   2.159   3.109 -1.5819 -0.7924  0.6590
  918SOL    HW2 2754   1.071   2.131   2.951  0.8904 -1.6456  0.2831
  919SOL     OW 2755   0.809   1.644   2.860  0.0470 -0.9735  0.0704
  919SOL    HW1 2756   0.883   1.696   2.810  0.4983 -2.4362  2.0604
  919SOL    HW2 2757   0.772   1.572   2.796 -0.3921  1.2830 -0.2399
  920SOL     OW 2758   1.256   1.806   2.541 -0.1333 -0.2242 -0.4934
  920SOL    HW1 2759   1.316   1.770   2.464  2.3429  1.8391  0.0261
  920SOL    HW2 2760   1.210   1.732   2.596 -2.5149  2.6347  1.8585
  921SOL     OW 2761   1.098   0.016   2.634 -0.7541  0.3084  0.0880
  921SOL    HW1 2762   1.095  -0.008   2.529  0.8560 -0.1259 -0.3465
  921SOL    HW2 2763   1.008   0.053   2.665 -1.6245 -2.2537  0.0976
  922SOL     OW 2764   2.235   2.381   2.789 -0.3079 -0.4937  0.0424
  922SOL    HW1 2765   2.225   2.283   2.786  2.5464  0.5955  2.7635
  922SOL    HW2 2766   2.192   2.424   2.708  0.8961 -0.9545  1.5428
  923SOL     OW 2767   1.269   2.674   0.274  0.5619  0.1212 -0.0779
  923SOL    HW1 2768   1.344   2.719   0.323 -0.2848 -1.1738  1.4007
  923SOL    HW2 2769   1.293   2.584   0.241 -0.3047  1.7085  0.4897
  924SOL     OW 2770   2.842   1.683   0.097 -0.6563 -0.2515  0.2684
  924SOL    HW1 2771   2.781   1.679   0.015 -1.4645 -1.9841  2.3379
  924SOL    HW2 2772   2.924   1.621   0.094  2.0046  2.2912  0.5009
  925SOL     OW 2773   0.009   2.883   1.466 -0.3383  0.2673  0.1734
  925SOL    HW1 2774  -0.062   2.877   1.540 -0.3287 -1.7049 -2.7295
  925SOL    HW2 2775  -0.023   2.825   1.383 -2.3871  1.7402 -0.7752
  926SOL     OW 2776   1.308   2.801   1.338 -0.7303 -0.2668 -0.0503
  926SOL    HW1 2777   1.368   2.817   1.256  1.1563  2.6879  1.5547
  926SOL    HW2 2778   1.300   2.887   1.391 -0.5180 -0.7342 -0.1627
  927SOL     OW 2779   0.309   2.673   1.762 -0.2128 -0.1334  0.2836
  927SOL    HW1 2780   0.279   2.610   1.688  0.9132  0.4975 -0.3852
  927SOL    HW2 2781   0.274   2.768   1.748  0.6124 -1.6951 -0.5150
  928SOL     OW 2782   1.585   2.085   2.221 -0.5344  0.1502 -0.0797
  928SOL    HW1 2783   1.615   2.150   2.143 -0.0864 -1.0157 -1.6414
  928SOL    HW2 2784   1.487   2.094   2.241  2.0548 -2.9609  3.3628
  929SOL     OW 2785   2.465   2.517   2.855 -0.2021  0.2087  0.1482
  929SOL    HW1 2786   2.378   2.466   2.825  0.7680 -0.9530  1.8807
  929SOL    HW2 2787   2.537   2.519   2.775 -2.6719  1.1699 -1.8248
  930SOL     OW 2788   2.180   2.026   1.086  0.3841  0.2663 -0.5732
  930SOL    HW1 2789   2.132   1.963   1.157 -0.6340 -1.9827  2.3668
  930SOL    HW2 2790   2.263   2.078   1.115  0.8538  1.3522  0.5837
  931SOL     OW 2791   0.536   1.704   2.676 -0.3803 -0.4699  0.1351
  931SOL    HW1 2792   0.529   1.739   2.773  1.5497 -2.0878 -1.4073
  931SOL    HW2 2793   0.598   1.622   2.659  1.6017  1.6779 -1.2192
  932SOL     OW 2794   0.465   0.126   3.068 -0.0596  0.1987 -0.1151
  932SOL    HW1 2795   0.532   0.175   3.138 -0.3400 -0.8182 -0.9545
  932SOL    HW2 2796   0.490   0.024   3.062 -1.4527 -1.9643 -2.0222
  933SOL     OW 2797   0.955   0.814   3.048  0.2577 -0.3603  0.2145
  933SOL    HW1 2798   0.911   0.801   3.142  1.7981  0.7477  2.4576
  933SOL    HW2 2799   0.943   0.906   3.005  1.8140 -0.2983  1.3357
  934SOL     OW 2800   0.782   2.976   2.673  0.0575  0.1816  0.3509
  934SOL    HW1 2801   0.738   2.912   2.605  1.4881  2.5833 -0.0688
  934SOL    HW2 2802   0.844   2.923   2.737  0.9386  0.1336  2.1199
  935SOL     OW 2803   0.042   0.519   0.841  0.4706 -0.1500 -0.3076
  935SOL    HW1 2804   0.042   0.491   0.743  1.2766 -0.8067  1.7002
  935SOL    HW2 2805  -0.042   0.581   0.865  1.2584 -1.2391  0.0459
  936SOL     OW 2806   1.105   2.779   0.093 -0.2165 -0.7035 -0.6820
  936SOL    HW1 2807   1.160   2.856   0.045 -0.2186 -0.8382  0.5650
  936SOL    HW2 2808   1.171   2.734   0.159 -0.2635  1.0522  2.9576
  937SOL     OW 2809   1.831   2.649   2.098 -0.2915  0.0656 -0.2410
  937SOL    HW1 2810   1.733   2.683   2.118  1.5836  1.5959  1.5270
  937SOL    HW2 2811   1.884   2.727   2.059  0.6026 -2.4072  0.4258
  938SOL     OW 2812   2.759   2.073   1.592 -0.3663  0.2738 -0.4514
  938SOL    HW1 2813   2.750   2.178   1.609  0.9087 -0.4266  2.2594
  938SOL    HW2 2814   2.842   2.032   1.641  0.5416 -0.1326 -0.6980
  939SOL     OW 2815   2.834   1.194   2.413  0.4110  0.1197  0.1003
  939SOL    HW1 2816   2.903   1.190   2.338  2.5610  0.8936 -0.4852
  939SOL    HW2 2817   2.850   1.140   2.498  0.3572 -1.1269 -0.7911
  940SOL     OW 2818   1.073   0.437   2.776 -0.0504 -0.3571 -0.4455
  940SOL    HW1 2819   1.132   0.351   2.775  1.2386  0.5002  1.3069
  940SOL    HW2 2820   0.996   0.424   2.711 -0.7556  1.1657  0.6502
  941SOL     OW 2821   0.035   2.787   2.276  0.0097 -0.0590 -0.6202
  941SOL    HW1 2822   0.087   2.702   2.249 -1.0451  0.8230  0.6677
  941SOL    HW2 2823   0.098   2.857   2.318  2.8416  1.6330 -1.4916
  942SOL     OW 2824   0.109   0.039   2.575 -0.2472 -0.0752  0.0825
  942SOL    HW1 2825   0.182   0.058   2.649  0.0851  0.0740 -0.0439
  942SOL    HW2 2826   0.083   0.128   2.521 -2.0798 -0.9647 -0.1088
  943SOL     OW 2827   2.096   1.656   2.379 -0.2298  0.0669 -0.1735
  943SOL    HW1 2828   2.088   1.579   2.305 -0.1280 -2.1698  0.1986
  943SOL    HW2 2829   2.092   1.608   2.477  0.2944 -3.1645  2.0456
  944SOL     OW 2830   2.164   2.354   1.464  0.3994 -0.3689  0.0879
  944SOL    HW1 2831   2.254   2.396   1.487 -3.6628  1.1392 -1.9510
  944SOL    HW2 2832   2.148   2.268   1.522 -1.5808  2.0629 -1.1925
  945SOL     OW 2833   0.685   1.537   0.165  0.1503 -1.3158  0.3164
  945SOL    HW1 2834   0.602   1.571   0.107 -1.1212 -0.8615 -1.3713
  945SOL    HW2 2835   0.681   1.437   0.192  1.5982 -1.3908  0.6925
  946SOL     OW 2836   0.452   0.947   2.493 -0.1631  0.0892  0.0144
  946SOL    HW1 2837   0.369   0.895   2.454  3.0658 -1.5055 -3.0259
  946SOL    HW2 2838   0.431   1.047   2.510  0.7696 -1.1050 -2.9595
  947SOL     OW 2839   1.506   0.489   3.041  0.1733  0.4102 -0.3881
  947SOL    HW1 2840   1.466   0.539   2.956  1.1695 -0.7531  0.6073
  947SOL    HW2 2841   1.428   0.468   3.106 -1.0724 -0.9249  3.0097
  948SOL     OW 2842   1.832   2.999   2.120 -0.3269 -0.1115  0.2141
  948SOL    HW1 2843   1.881   2.977   2.033 -0.0619  2.4038  1.5175
  948SOL    HW2 2844   1.854   2.928   2.193  0.8162 -1.6549  2.4621
  949SOL     OW 2845   0.645   2.478   0.460 -0.4703 -0.3960 -0.2732
  949SOL    HW1 2846   0.641   2.583   0.448  3.9503  2.4303  0.3200
  949SOL    HW2 2847   0.658   2.459   0.563  0.7101  2.5163  0.9796
  950SOL     OW 2848   0.233   2.218   3.024 -0.1325  0.2357 -0.0804
  950SOL    HW1 2849   0.203   2.314   3.008 -0.4812  0.2934 -0.6025
  950SOL    HW2 2850   0.210   2.157   2.941 -1.1619  0.3089 -2.0958
  951SOL     OW 2851   1.195   2.652   2.811  1.1321  0.4657 -0.5471
  951SOL    HW1 2852   1.253   2.644   2.900  1.7838  2.6563  2.4930
  951SOL    HW2 2853   1.250   2.686   2.728  0.2632  1.3456 -0.7484
  952SOL     OW 2854   0.052   1.652   0.383 -0.1092 -0.1650 -0.5616
  952SOL    HW1 2855   0.094   1.748   0.389  2.5626  0.6956  1.5665
  952SOL    HW2 2856   0.114   1.569   0.421  1.4977  1.8959  0.8974
  953SOL     OW 2857   2.550   1.762   0.211 -0.4584  0.4657 -0.6154
  953SOL    HW1 2858   2.538   1.667   0.251 -0.8628  0.4908  3.6590
  953SOL    HW2 2859   2.499   1.774   0.123  0.8111  1.9754  0.2363
  954SOL     OW 2860   2.221   0.534   0.923 -0.2162 -0.1831 -0.2544
  954SOL    HW1 2861   2.218   0.574   0.827  2.5629 -1.8781 -0.0506
  954SOL    HW2 2862   2.318   0.512   0.948 -2.6430  0.8480  1.6393
  955SOL     OW 2863   0.145   2.582   1.376  0.1920  0.3591 -0.3213
  955SOL    HW1 2864   0.048   2.609   1.342 -0.7491 -0.8689  2.2697
  955SOL    HW2 2865   0.217   2.646   1.352 -0.8394 -0.0794  0.1158
  956SOL     OW 2866   2.805   2.440   2.480  0.0092 -0.0401  0.0812
  956SOL    HW1 2867   2.850   2.352   2.505 -2.1492  0.4874 -1.0143
  956SOL    HW2 2868   2.860   2.506   2.425  0.5595 -0.4646 -3.1487
  957SOL     OW 2869   1.629   2.081   2.800  0.4944 -1.3420  0.1719
  957SOL    HW1 2870   1.562   2.005   2.802  1.9103 -0.3929  1.4566
  957SOL    HW2 2871   1.689   2.081   2.712  2.9541  0.6393 -0.3639
  958SOL     OW 2872   2.567   2.289   2.961  0.2824  0.4689 -0.0365
  958SOL    HW1 2873   2.507   2.363   2.918  0.9000  1.4437  3.1880
  958SOL    HW2 2874   2.512   2.248   3.039 -0.2907 -0.0360  1.5968
  959SOL     OW 2875   0.318   2.779   0.034 -0.2820 -0.1045  0.1058
  959SOL    HW1 2876   0.214   2.769   0.019 -0.9813  0.9398 -0.4716
  959SOL    HW2 2877   0.355   2.705   0.096 -0.2825  1.3915  1.4139
  960SOL     OW 2878   1.956   0.479   1.953 -0.4444 -0.1712 -0.4460
  960SOL    HW1 2879   1.888   0.551   1.917 -1.7675  1.3708  0.7258
  960SOL    HW2 2880   1.956   0.481   2.055 -0.3649  0.1661 -3.2900
  961SOL     OW 2881   2.553   1.855   1.052  0.0680 -0.2505 -0.1230
  961SOL    HW1 2882   2.561   1.959   1.038 -1.2730  0.2532  0.1653
  961SOL    HW2 2883   2.502   1.825   1.135  0.1225  1.2644 -0.0941
  962SOL     OW 2884   1.309   0.925   0.029  0.3194 -0.1730 -0.0705
  962SOL    HW1 2885   1.254   0.970  -0.046  0.7901  2.3420  2.4437
  962SOL    HW2 2886   1.305   0.979   0.123  0.8792 -0.5304 -0.4259
  963SOL     OW 2887   2.293   2.537   1.785  0.2141  0.5704  0.0708
  963SOL    HW1 2888   2.229   2.462   1.823 -3.8374 -1.5266  1.0060
  963SOL    HW2 2889   2.304   2.621   1.845 -0.0941  0.6209  0.9471
  964SOL     OW 2890   2.370   0.406   1.649  0.0214  0.3077  0.0239
  964SOL    HW1 2891   2.454   0.390   1.708 -1.3879  2.4759  0.7150
  964SOL    HW2 2892   2.397   0.417   1.553  0.9831 -1.3103 -0.5397
  965SOL     OW 2893   2.598   2.990   0.147 -0.1188 -0.1337 -0.2092
  965SOL    HW1 2894   2.674   2.997   0.080  1.2484  0.9189  2.6154
  965SOL    HW2 2895   2.505   2.994   0.103 -0.6502 -0.7856 -1.3074
  966SOL     OW 2896   2.559   2.544   2.326  0.0013 -0.2080 -0.5023
  966SOL    HW1 2897   2.640   2.521   2.388  0.6810  0.4798  0.5977
  966SOL    HW2 2898   2.500   2.625   2.354 -1.1316 -0.7561 -2.5728
  967SOL     OW 2899   2.783   2.826   2.468 -0.0181 -0.3677  1.0334
  967SOL    HW1 2900   2.805   2.769   2.385 -0.5185  0.6811  1.0288
  967SOL    HW2 2901   2.867   2.858   2.519  0.1922  1.2280  0.0130
  968SOL     OW 2902   1.937   1.067   2.597  0.2653 -0.0327  0.6523
  968SOL    HW1 2903   1.852   1.106   2.543 -2.4524  1.1958 -1.3877
  968SOL    HW2 2904   1.951   0.964   2.587 -2.6767 -2.1913 -0.1981
  969SOL     OW 2905   2.776   2.480   1.124  0.8890 -0.6508 -0.2957
  969SOL    HW1 2906   2.776   2.477   1.020  0.9094  1.3118  0.8254
  969SOL    HW2 2907   2.843   2.418   1.171  0.1347 -1.3105  0.8392
  970SOL     OW 2908   1.030   2.093   1.817 -0.2861 -0.3938  0.3605
  970SOL    HW1 2909   0.970   2.119   1.735 -0.6756 -1.1275  0.7956
  970SOL    HW2 2910   1.023   2.152   1.902 -0.6562 -1.0542  0.4537
  971SOL     OW 2911   2.981   2.048   2.041 -0.1897  0.1766 -0.3267
  971SOL    HW1 2912   2.971   2.143   2.068 -0.7439 -1.8790  0.0844
  971SOL    HW2 2913   3.020   2.028   1.951  0.6786  0.2448  0.3780
  972SOL     OW 2914   1.974   2.498   0.241 -0.4014 -0.1255 -0.1638
  972SOL    HW1 2915   1.994   2.415   0.182 -0.3670  0.8546  1.6150
  972SOL    HW2 2916   2.047   2.506   0.316  1.0025  3.9801  2.3447
  973SOL     OW 2917   1.266   1.038   1.920  0.4669 -0.2819  0.3854
  973SOL    HW1 2918   1.185   1.006   1.861  1.6283  0.7609 -0.6495
  973SOL    HW2 2919   1.264   1.141   1.934  2.1080  1.1788  1.5937
  974SOL     OW 2920   1.587   0.576   1.955  0.6616 -0.0175  0.5478
  974SOL    HW1 2921   1.665   0.640   1.927 -2.3384  1.9633  1.6329
  974SOL    HW2 2922   1.495   0.624   1.952  3.1022 -0.6838  0.6917
  975SOL     OW 2923   2.372   3.028   3.098  0.0356  0.3152  0.5276
  975SOL    HW1 2924   2.304   2.952   3.127 -0.1604  0.0688 -2.0344
  975SOL    HW2 2925   2.352   3.076   3.008  0.5321 -0.3696 -0.6006
  976SOL     OW 2926   1.898   2.829   2.334 -0.0927  0.7823  0.0406
  976SOL    HW1 2927   1.805   2.812   2.288 -0.0059 -2.1156 -1.1844
  976SOL    HW2 2928   1.901   2.822   2.435  0.4620  2.1281 -2.1781
  977SOL     OW 2929   0.490   0.696   1.064 -0.1388  0.0566 -0.0888
  977SOL    HW1 2930   0.430   0.686   0.982  1.3295  3.7246  4.3063
  977SOL    HW2 2931   0.574   0.750   1.042 -2.2163 -2.9799 -1.8890
   3.10000   3.10000   3.10000
