1000 SPC/Fw water molecules t=   0.02000 step= 20
 2931
    1SOL     OW    1   2.517   0.406   2.576 -0.1603  0.1228  0.0590
    1SOL    HW1    2   2.527   0.301   2.568  1.6153  2.0524  2.7008
    1SOL    HW2    3   2.581   0.441   2.649  1.0053  1.9135 -3.0966
    2SOL     OW    4   2.750   3.007   1.416 -0.7003 -0.4192  0.1561
    2SOL    HW1    5   2.839   3.045   1.380  0.6487  0.6155  0.8765
    2SOL    HW2    6   2.701   3.080   1.476  0.6909 -2.8003  3.7782
    3SOL     OW    7   2.731   2.632   0.447 -0.2101  0.1989 -0.2036
    3SOL    HW1    8   2.685   2.537   0.449  0.8834 -0.8007  0.4062
    3SOL    HW2    9   2.797   2.650   0.531 -0.7544  0.6864  0.4549
    4SOL     OW   10   1.313   1.441   2.326  0.1499  0.1475  0.1183
    4SOL    HW1   11   1.225   1.482   2.356 -2.7573 -1.1073 -0.1160
    4SOL    HW2   12   1.325   1.345   2.362  0.4942 -0.9790 -0.7993
    5SOL     OW   13   1.172   1.505   3.025  0.2766 -1.1829  0.0353
    5SOL    HW1   14   1.231   1.588   3.056  1.8806 -0.3846  0.6913
    5SOL    HW2   15   1.077   1.509   3.068 -0.9842 -0.1048  2.2666
    6SOL     OW   16   0.163   1.918   2.946 -0.1913 -0.2937 -0.4089
    6SOL    HW1   17   0.190   1.899   3.044  1.0417  1.1256  1.8481
    6SOL    HW2   18   0.079   1.866   2.928  0.7580 -1.3760 -0.8315
    7SOL     OW   19   2.601   0.842   1.209 -0.2337  0.0834 -0.2183
    7SOL    HW1   20   2.610   0.763   1.274  1.6600 -0.1870 -0.4801
    7SOL    HW2   21   2.604   0.800   1.111 -0.3775  2.0143 -3.2531
    8SOL     OW   22   0.446   0.682   1.595  0.1984  0.3330 -0.3537
    8SOL    HW1   23   0.528   0.616   1.609  0.3244  1.5952 -1.2560
    8SOL    HW2   24   0.365   0.626   1.564 -2.2666  1.0992 -3.1355
    9SOL     OW   25   1.148   0.899   2.269  0.2354  0.1842 -0.4596
    9SOL    HW1   26   1.213   0.961   2.219  0.6094  2.4090 -3.7165
    9SOL    HW2   27   1.079   0.855   2.208 -1.2867  1.9724  3.7257
   10SOL     OW   28   0.615   1.366   1.332  0.1540 -0.0950  0.0287
   10SOL    HW1   29   0.548   1.371   1.257  0.7060  0.0774  1.6776
   10SOL    HW2   30   0.691   1.440   1.329  1.1001  1.4278 -1.9363
   11SOL     OW   31   2.340   2.546   0.905 -0.3899 -0.1366 -0.3092
   11SOL    HW1   32   2.349   2.568   1.007 -1.9132 -1.7401  2.1911
   11SOL    HW2   33   2.419   2.488   0.877 -2.2428  1.8995  1.4382
   12SOL     OW   34   1.441   0.910   0.466 -0.5067  0.2978  0.8055
   12SOL    HW1   35   1.399   0.972   0.390  2.9755 -1.4616 -3.0513
   12SOL    HW2   36   1.401   0.814   0.451  0.0431  1.2535  1.3075
   13SOL     OW   37   2.432   0.686   1.805 -0.2582 -0.1161 -0.3477
   13SOL    HW1   38   2.350   0.678   1.871  0.8115  2.0304 -1.3728
   13SOL    HW2   39   2.441   0.606   1.736 -0.9123 -2.0984 -0.0490
   14SOL     OW   40   1.790   0.032   0.540  0.1772 -0.1129 -0.1718
   14SOL    HW1   41   1.701   0.030   0.489 -1.6539 -0.6560  0.7148
   14SOL    HW2   42   1.779   0.018   0.642  1.1861  1.1342 -0.3815
   15SOL     OW   43   1.985   2.050   2.797 -0.4956  0.0428  0.0887
   15SOL    HW1   44   1.930   2.124   2.842 -1.1011  1.0755 -2.6480
   15SOL    HW2   45   1.920   1.985   2.745  0.4245  0.1584 -0.0952
   16SOL     OW   46   1.557   1.647   3.096  0.1233  0.1519  0.0225
   16SOL    HW1   47   1.576   1.552   3.055  0.3295 -1.8256 -1.7146
   16SOL    HW2   48   1.605   1.657   3.190  0.5430 -0.5851  1.1122
   17SOL     OW   49   0.052   0.498   0.126  0.8144 -0.7415  0.4886
   17SOL    HW1   50   0.147   0.523   0.096 -2.4158 -1.2146  1.5747
   17SOL    HW2   51  -0.012   0.493   0.042  1.2954 -3.4728  3.3929
   18SOL     OW   52   1.083   2.874   2.135 -0.1241  0.2605  0.1807
   18SOL    HW1   53   0.985   2.887   2.101  1.1891 -0.6988 -0.6948
   18SOL    HW2   54   1.150   2.848   2.064  1.2001  2.2468  2.6890
   19SOL     OW   55   0.597   1.047   1.937  0.1497 -0.7527  0.1198
   19SOL    HW1   56   0.521   1.065   2.008  0.3944 -0.0663 -0.6154
   19SOL    HW2   57   0.666   0.977   1.975 -1.8760 -0.7921  3.9260
   20SOL     OW   58   0.240   2.728   0.846  0.4343 -0.3507  0.6009
   20SOL    HW1   59   0.164   2.801   0.825  0.1908 -1.1521 -1.5629
   20SOL    HW2   60   0.317   2.724   0.772  0.0911  0.4623  0.9190
   21SOL     OW   61   2.822   0.238   2.115 -0.2956  0.0847  0.0968
   21SOL    HW1   62   2.910   0.190   2.086  1.7077 -0.1970  2.4642
   21SOL    HW2   63   2.800   0.227   2.217  0.7666 -1.7743  2.9312
   22SOL     OW   64   2.354   0.169   0.081  0.0082  0.1215  0.1796
   22SOL    HW1   65   2.359   0.068   0.058 -1.5283  3.5866  0.8080
   22SOL    HW2   66   2.269   0.213   0.042  1.1858 -0.2778 -1.3493
   23SOL     OW   67   2.742   0.645   0.724  0.2711  0.1784 -0.5281
   23SOL    HW1   68   2.726   0.547   0.691  2.1631  3.1915 -3.1038
   23SOL    HW2   69   2.708   0.717   0.661  1.1611 -0.0424  0.5849
   24SOL     OW   70   0.147   1.878   0.407 -0.4939 -0.7187  0.5561
   24SOL    HW1   71   0.060   1.922   0.378  0.0242  0.4964  3.5695
   24SOL    HW2   72   0.229   1.912   0.352  1.7071  1.3373  0.7215
   25SOL     OW   73   2.276   0.531   0.198 -0.4042 -0.2100  0.2013
   25SOL    HW1   74   2.329   0.456   0.245  2.7787 -3.6782 -0.4902
   25SOL    HW2   75   2.255   0.507   0.099  0.1426 -0.0267 -4.6645
   26SOL     OW   76   2.517   2.156   2.079  0.1635  0.1839 -0.5318
   26SOL    HW1   77   2.582   2.218   2.134  0.6464 -1.3987 -1.1318
   26SOL    HW2   78   2.567   2.076   2.038 -0.1807  1.5199 -0.5625
   27SOL     OW   79   0.661   3.008   0.136  0.2137 -0.3982  0.4347
   27SOL    HW1   80   0.764   3.023   0.139 -2.1664 -0.0706  1.4870
   27SOL    HW2   81   0.610   3.022   0.045 -0.4016 -2.2396 -1.1202
   28SOL     OW   82   1.463   0.231   0.181 -0.0525 -0.7661  0.2982
   28SOL    HW1   83   1.559   0.199   0.159 -2.5106  2.9555 -0.0736
   28SOL    HW2   84   1.441   0.330   0.169  0.3141  1.4301  0.6801
   29SOL     OW   85   2.021   0.577   0.318 -0.3038  0.0437 -0.2123
   29SOL    HW1   86   2.012   0.668   0.370 -2.1193 -3.8222  1.9699
   29SOL    HW2   87   2.123   0.545   0.311  2.1395  0.2096 -0.0103
   30SOL     OW   88   0.206   2.035   0.907 -0.1812  0.4743 -0.2404
   30SOL    HW1   89   0.178   2.010   0.806 -1.0316  3.3092 -1.2248
   30SOL    HW2   90   0.131   2.085   0.963 -3.8491 -0.4401 -0.0196
   31SOL     OW   91   2.117   0.005   2.342 -0.4287  0.5715 -0.5010
   31SOL    HW1   92   2.122   0.006   2.448  1.5380 -1.6410  1.1244
   31SOL    HW2   93   2.034  -0.044   2.300 -1.4047 -1.1026  1.1266
   32SOL     OW   94   3.006   0.098   0.263  0.4478  0.3664 -0.6631
   32SOL    HW1   95   2.943   0.034   0.315 -3.0627  0.6364 -3.9167
   32SOL    HW2   96   3.098   0.051   0.249 -2.1374  0.8067  0.0613
   33SOL     OW   97   0.963   0.323   0.457  0.1233 -0.3897 -0.3260
   33SOL    HW1   98   0.908   0.239   0.486 -1.7550 -1.6566 -2.2432
   33SOL    HW2   99   1.033   0.349   0.535 -0.0341  0.5289 -0.8178
   34SOL     OW  100   0.376   2.903   1.041 -0.1615 -0.2638 -0.2485
   34SOL    HW1  101   0.333   2.842   0.969 -1.9536 -2.5842  2.4809
   34SOL    HW2  102   0.481   2.898   1.038  1.2174 -0.0165 -1.8852
   35SOL     OW  103   0.055   3.095   1.775 -0.3421 -0.1548  0.7964
   35SOL    HW1  104   0.030   3.004   1.729  2.2394  0.9255 -1.3971
   35SOL    HW2  105   0.014   3.171   1.721  1.4158 -3.2610  2.4952
   36SOL     OW  106   1.903   1.153   1.772 -0.0240 -0.0798  0.1676
   36SOL    HW1  107   1.994   1.134   1.729 -0.0640  4.1680  3.0855
   36SOL    HW2  108   1.878   1.248   1.744 -0.6912 -4.3226  2.5237
   37SOL     OW  109   1.127   0.335   1.010  0.2207 -0.3875  0.0282
   37SOL    HW1  110   1.148   0.438   1.018 -4.1659  2.5276 -0.2518
   37SOL    HW2  111   1.205   0.273   1.040 -0.7080  0.8056  2.4680
   38SOL     OW  112   1.164   2.680   2.335  0.3604  0.7916  0.0799
   38SOL    HW1  113   1.091   2.632   2.390 -2.4523 -1.9815  2.8915
   38SOL    HW2  114   1.118   2.742   2.265 -1.4712 -0.2001  1.7309
   39SOL     OW  115   2.426   1.502   0.033  0.0167  0.1716 -0.9168
   39SOL    HW1  116   2.454   1.403   0.001 -0.9149  1.8220 -0.5168
   39SOL    HW2  117   2.341   1.503   0.096  1.3941  1.9155 -1.7016
   40SOL     OW  118   2.010   2.510   2.622  0.9038 -0.6603 -0.6210
   40SOL    HW1  119   1.958   2.601   2.637  3.6300 -2.0319  1.6879
   40SOL    HW2  120   1.969   2.452   2.544  1.3154  2.4615  3.6173
   41SOL     OW  121   2.963   0.717   2.708  0.3966  0.3360  0.5205
   41SOL    HW1  122   2.863   0.747   2.687 -0.9809  3.6688 -2.2279
   41SOL    HW2  123   2.977   0.619   2.740 -1.1718 -1.6120  3.3062
   42SOL     OW  124   1.696   1.724   0.596  0.0380  0.6823 -0.4011
   42SOL    HW1  125   1.675   1.630   0.556  1.8202  1.4971  2.1014
   42SOL    HW2  126   1.733   1.791   0.523  1.1581  1.3378 -0.9599
   43SOL     OW  127   0.450   1.745   1.213  0.1302  0.0696 -0.4149
   43SOL    HW1  128   0.407   1.710   1.301 -0.4693 -1.9766 -1.3182
   43SOL    HW2  129   0.385   1.773   1.135 -0.5338  0.7955 -0.5460
   44SOL     OW  130   1.743   2.479   0.013  0.1531 -0.6461  0.0859
   44SOL    HW1  131   1.769   2.542  -0.065  1.6032 -0.8786  0.1991
   44SOL    HW2  132   1.825   2.482   0.077  4.6394  2.9642 -0.0794
   45SOL     OW  133   0.335   1.896   2.563  1.2083 -0.1463 -0.4507
   45SOL    HW1  134   0.314   1.933   2.465  2.0290 -0.6304  0.8400
   45SOL    HW2  135   0.390   1.811   2.570 -3.5704  0.2306  0.7619
   46SOL     OW  136   1.206   0.691   0.142 -0.5587  0.0240  0.8343
   46SOL    HW1  137   1.263   0.759   0.090 -2.3266 -0.8352 -2.6946
   46SOL    HW2  138   1.115   0.734   0.150  1.4509  0.0586  3.5939
   47SOL     OW  139   0.231   2.420   1.572  0.0707 -0.4956  0.2145
   47SOL    HW1  140   0.318   2.359   1.562 -3.4827  1.3248 -0.2146
   47SOL    HW2  141   0.216   2.492   1.496  0.5389  1.4586 -1.1145
   48SOL     OW  142   2.663   0.545   0.111 -0.5649  0.3242  0.0803
   48SOL    HW1  143   2.626   0.584   0.196 -1.3809  4.5618 -2.5144
   48SOL    HW2  144   2.736   0.604   0.063 -0.1839  1.6863  0.1288
   49SOL     OW  145   0.371   0.880   1.765  0.0594 -0.7938 -0.2969
   49SOL    HW1  146   0.458   0.914   1.814 -3.9483 -1.8114  1.7315
   49SOL    HW2  147   0.387   0.787   1.717  0.2256 -0.1685  0.0425
   50SOL     OW  148   1.687   1.062   0.268  0.4552  0.0054  0.3221
   50SOL    HW1  149   1.671   0.962   0.243  0.3449 -0.2105  4.3465
   50SOL    HW2  150   1.670   1.081   0.375  1.6138  0.3603 -0.3842
   51SOL     OW  151   2.995   1.910   0.327  0.0819 -0.6240 -0.0456
   51SOL    HW1  152   2.996   1.934   0.223 -1.3407 -2.1357  1.1286
   51SOL    HW2  153   2.972   1.808   0.338  2.6466 -0.8763  1.1615
   52SOL     OW  154   0.803   1.886   0.506  0.0798 -0.0366 -0.9504
   52SOL    HW1  155   0.792   1.983   0.543 -0.6509  1.0854 -0.6486
   52SOL    HW2  156   0.869   1.825   0.566  0.1331  0.2047 -2.9454
   53SOL     OW  157   3.094   0.410   1.525  0.4328 -0.5895  0.2388
   53SOL    HW1  158   3.011   0.362   1.572 -0.2999 -0.6630  1.5889
   53SOL    HW2  159   3.075   0.510   1.502 -0.4904  0.3766 -1.1011
   54SOL     OW  160   1.768   0.463   3.010 -0.0109  0.3037 -0.0464
   54SOL    HW1  161   1.809   0.435   3.100 -1.9423  2.3064 -1.7971
   54SOL    HW2  162   1.665   0.474   3.024  0.1946 -2.8401 -1.1941
   55SOL     OW  163   0.685   2.903   0.645 -0.4998  0.0684 -0.1167
   55SOL    HW1  164   0.655   2.997   0.675  1.6217 -0.2938 -0.8933
   55SOL    HW2  165   0.790   2.893   0.617  2.3614 -1.3723  0.8963
   56SOL     OW  166   0.464   1.542   3.098  0.4029 -0.2506  0.1392
   56SOL    HW1  167   0.374   1.589   3.121 -0.9203 -0.9268 -2.0322
   56SOL    HW2  168   0.456   1.438   3.101  0.8243  2.8016 -0.1163
   57SOL     OW  169   1.728   2.383   2.667  0.9636 -0.2138  0.2191
   57SOL    HW1  170   1.770   2.382   2.573 -2.2477 -0.6363  1.7108
   57SOL    HW2  171   1.636   2.434   2.672  0.2851 -0.4960 -0.9184
   58SOL     OW  172   0.659   0.476   1.099  0.0100  0.1169  0.3972
   58SOL    HW1  173   0.612   0.547   1.039 -1.4882 -1.1157 -0.1063
   58SOL    HW2  174   0.603   0.384   1.113 -1.5011  1.7538 -1.8377
   59SOL     OW  175   0.481   2.396   2.713 -0.1134 -0.2923 -0.3622
   59SOL    HW1  176   0.455   2.297   2.688  1.0893  1.9441  3.5528
   59SOL    HW2  177   0.568   2.396   2.774 -1.3936  0.7571 -2.3522
   60SOL     OW  178   2.326   2.156   2.267 -0.3688  0.5027 -0.5353
   60SOL    HW1  179   2.412   2.150   2.206 -1.5892 -0.4524  0.5689
   60SOL    HW2  180   2.356   2.185   2.365  1.6210 -0.8717 -1.3479
   61SOL     OW  181   1.338   0.650   0.444 -0.0610 -0.0928 -0.0202
   61SOL    HW1  182   1.236   0.664   0.457 -0.0145  1.6163  0.4736
   61SOL    HW2  183   1.360   0.626   0.346 -2.2077  1.7745  0.7160
   62SOL     OW  184   2.728   1.881   3.058  0.3008 -0.3042  0.3513
   62SOL    HW1  185   2.694   1.791   3.096  0.1586 -1.0828 -1.0869
   62SOL    HW2  186   2.678   1.921   2.977 -2.5518  1.7357  2.4636
   63SOL     OW  187   0.583   0.823   0.129 -0.3612 -0.6542 -0.1897
   63SOL    HW1  188   0.532   0.913   0.107 -0.3079  1.0038  0.2921
   63SOL    HW2  189   0.633   0.829   0.220 -2.7299 -1.6682  0.3826
   64SOL     OW  190   0.073   0.562   2.478 -0.3523  0.0347  0.1809
   64SOL    HW1  191   0.104   0.640   2.538  2.3884 -1.3471  1.4260
   64SOL    HW2  192   0.017   0.597   2.397  1.2296 -1.5287  2.4572
   65SOL     OW  193   0.181   1.493   0.613 -0.4163 -0.2226  0.1428
   65SOL    HW1  194   0.217   1.536   0.699 -0.9888  0.3752  0.7236
   65SOL    HW2  195   0.258   1.440   0.563  0.4738  1.9989 -0.6613
   66SOL     OW  196   2.452   0.322   0.625  0.3051  0.7341  0.0261
   66SOL    HW1  197   2.368   0.385   0.631 -0.8225 -0.8849 -2.6522
   66SOL    HW2  198   2.435   0.227   0.661  0.4433 -1.6380  1.7472
   67SOL     OW  199   0.477   2.545   1.306 -0.5293  0.7786 -0.2861
   67SOL    HW1  200   0.566   2.592   1.306  2.5042  0.2121 -0.1355
   67SOL    HW2  201   0.479   2.443   1.323 -0.8301 -0.0135 -1.9142
   68SOL     OW  202   0.993   1.104   2.386 -0.5873 -0.1084  0.6253
   68SOL    HW1  203   1.036   1.022   2.339  2.1799 -0.7667  0.1428
   68SOL    HW2  204   0.927   1.169   2.339 -1.1669  0.7767 -0.5425
   69SOL     OW  205   0.770   2.715   2.170  0.0924  0.2492  0.7015
   69SOL    HW1  206   0.794   2.616   2.168  0.1012 -0.5027  2.9290
   69SOL    HW2  207   0.667   2.734   2.186  2.7104  2.2699 -1.1730
   70SOL     OW  208   0.536   0.228   2.696  0.6453 -0.0223  0.0153
   70SOL    HW1  209   0.535   0.250   2.799 -3.6276 -0.3891 -0.3863
   70SOL    HW2  210   0.529   0.128   2.672  3.0236 -0.2783  0.8105
   71SOL     OW  211   1.096   1.775   0.348  0.6019 -0.3118  0.5806
   71SOL    HW1  212   1.051   1.680   0.365  0.6574 -3.7018  1.4197
   71SOL    HW2  213   1.068   1.813   0.255  0.8448 -1.6312 -0.3399
   72SOL     OW  214   1.792   0.130   2.081 -0.5593 -0.1114 -0.8262
   72SOL    HW1  215   1.854   0.191   2.025 -0.0126 -1.7803 -1.0338
   72SOL    HW2  216   1.831   0.031   2.081  1.6622 -2.3441  0.2635
   73SOL     OW  217   2.850   2.201   2.502  0.0459 -0.0245 -0.4289
   73SOL    HW1  218   2.862   2.117   2.444 -0.5779  1.2912 -0.6936
   73SOL    HW2  219   2.868   2.179   2.602  0.6349 -2.1168  0.8097
   74SOL     OW  220   2.705   2.960   2.116  0.2463  0.3299 -0.6901
   74SOL    HW1  221   2.637   2.938   2.192 -1.0417 -1.8499 -0.7802
   74SOL    HW2  222   2.796   2.974   2.165 -3.0349  1.1341  2.2572
   75SOL     OW  223   0.920   0.765   0.960 -0.3155  0.0965 -0.5433
   75SOL    HW1  224   0.836   0.822   0.962 -2.2927  1.5047  1.7774
   75SOL    HW2  225   0.983   0.787   1.043  0.2814 -1.4768 -0.1384
   76SOL     OW  226   1.751   1.257   2.547  0.4385 -0.4193  0.2872
   76SOL    HW1  227   1.650   1.244   2.524 -0.9156  0.0259  0.1335
   76SOL    HW2  228   1.770   1.335   2.616  0.5602  1.7411  2.2323
   77SOL     OW  229   2.986   1.001   1.029  0.0031  0.1357 -0.4644
   77SOL    HW1  230   3.009   0.905   0.997 -0.5851 -0.6669 -1.3106
   77SOL    HW2  231   3.048   1.027   1.108  1.4668 -2.8706  1.8365
   78SOL     OW  232   1.992   1.392   1.437 -0.1334  0.0456  0.1866
   78SOL    HW1  233   2.023   1.391   1.339 -0.9572 -0.6885 -1.2339
   78SOL    HW2  234   1.888   1.380   1.432 -0.5972  2.3722  1.0182
   79SOL     OW  235   0.643   1.286   0.826 -0.4450  0.4766  0.2007
   79SOL    HW1  236   0.554   1.250   0.796 -1.1687 -1.1453  1.3880
   79SOL    HW2  237   0.726   1.230   0.791  0.2466 -1.7368  0.3377
   80SOL     OW  238   0.662   0.506   1.619 -0.0232 -0.0787 -0.3241
   80SOL    HW1  239   0.723   0.556   1.546 -1.1523 -0.9998 -1.9067
   80SOL    HW2  240   0.652   0.404   1.590  0.2218 -1.8035 -0.4074
   81SOL     OW  241   1.110   1.464   2.601 -0.0462 -0.4830  0.1148
   81SOL    HW1  242   1.049   1.420   2.672  1.8681 -0.2088  1.5563
   81SOL    HW2  243   1.062   1.493   2.515  0.6104  2.1204 -0.0767
   82SOL     OW  244   0.900   3.002   1.534 -0.3719  0.1875 -0.0210
   82SOL    HW1  245   0.942   3.010   1.438  2.7527 -0.1831  0.1278
   82SOL    HW2  246   0.826   2.924   1.536 -0.2874 -2.2089 -3.3986
   83SOL     OW  247   2.716   2.424   0.798  0.3371  0.0990 -0.0916
   83SOL    HW1  248   2.621   2.396   0.772 -2.3974 -1.8193  2.0904
   83SOL    HW2  249   2.768   2.497   0.746  0.3056 -0.8982  0.8331
   84SOL     OW  250   0.666   0.010   2.415 -0.3307  0.1102 -0.1506
   84SOL    HW1  251   0.577  -0.017   2.458 -0.6347  0.4061  0.7891
   84SOL    HW2  252   0.730  -0.066   2.416  0.0417  1.5406 -1.8901
   85SOL     OW  253   0.340   1.648   1.460  0.2892 -0.3131  0.3255
   85SOL    HW1  254   0.281   1.727   1.491 -2.5248  2.6285  0.5758
   85SOL    HW2  255   0.348   1.568   1.525  1.5434 -1.3405  0.1787
   86SOL     OW  256   0.344   0.976   1.481  0.2073  0.0879 -0.3019
   86SOL    HW1  257   0.341   0.923   1.391  1.7492  0.2766  1.0571
   86SOL    HW2  258   0.357   0.916   1.565  1.5984  2.5547  0.7573
   87SOL     OW  259   1.535   0.552   0.199  0.2333  0.0962  0.0317
   87SOL    HW1  260   1.590   0.636   0.226  1.1590  0.8942  0.4583
   87SOL    HW2  261   1.496   0.555   0.102  1.9544 -1.0277 -2.7492
   88SOL     OW  262   1.620   1.349   0.201 -0.5101 -0.0394  0.1886
   88SOL    HW1  263   1.639   1.250   0.234 -0.7092 -1.0025  0.8536
   88SOL    HW2  264   1.518   1.370   0.186  0.2901  0.2676 -0.5801
   89SOL     OW  265   2.995   0.441   0.596  0.1015 -0.2000 -0.2694
   89SOL    HW1  266   3.042   0.369   0.646  0.6027 -2.3686  0.5500
   89SOL    HW2  267   2.892   0.428   0.598 -0.6632 -1.5434  1.9282
   90SOL     OW  268   0.843   1.643   3.082  0.1256 -0.3699  0.0087
   90SOL    HW1  269   0.769   1.675   3.150  0.3065 -1.5154  0.9198
   90SOL    HW2  270   0.806   1.580   3.009 -1.0394 -1.1587  1.8368
   91SOL     OW  271   1.260   1.338   1.800  0.0008  1.0850  0.1681
   91SOL    HW1  272   1.299   1.423   1.844 -1.9176  1.4339  0.7102
   91SOL    HW2  273   1.332   1.274   1.758 -2.2176  0.8089  2.4481
   92SOL     OW  274   0.069   1.101   1.223  0.3965 -0.0529 -0.4724
   92SOL    HW1  275   0.167   1.100   1.199  0.0414 -0.2440 -0.7697
   92SOL    HW2  276   0.053   1.058   1.315  0.1180  0.7481 -2.0322
   93SOL     OW  277   0.106   2.813   3.064  0.4842  0.1884 -0.7035
   93SOL    HW1  278   0.012   2.840   3.022  1.0451  0.2561 -0.2391
   93SOL    HW2  279   0.102   2.726   3.124  3.6274  2.4923  2.3306
   94SOL     OW  280   1.506   1.269   1.684  0.1808 -0.5428  0.1172
   94SOL    HW1  281   1.541   1.194   1.746  1.3855 -2.0078 -2.1806
   94SOL    HW2  282   1.530   1.368   1.706 -3.5798  1.8563  0.2109
   95SOL     OW  283   1.435   2.491   2.943 -0.8991 -0.2013 -0.8006
   95SOL    HW1  284   1.372   2.487   3.027  1.3666  2.3099  0.8319
   95SOL    HW2  285   1.447   2.398   2.897  0.0149  0.7353  1.9742
   96SOL     OW  286   0.528   2.037   1.238 -0.0514  0.1032  0.1079
   96SOL    HW1  287   0.497   2.062   1.141  0.8902  1.2342  1.0376
   96SOL    HW2  288   0.530   1.937   1.261 -1.4613  1.4208  1.9093
   97SOL     OW  289   0.329   1.452   2.456 -0.3217 -0.1818  0.0489
   97SOL    HW1  290   0.245   1.406   2.494 -2.2873  2.2466 -1.0883
   97SOL    HW2  291   0.379   1.515   2.517 -2.9140 -2.4877  0.3094
   98SOL     OW  292   2.124   1.655   1.232  0.0766 -0.1517  0.0043
   98SOL    HW1  293   2.115   1.565   1.186  0.4735 -1.7385 -0.8122
   98SOL    HW2  294   2.150   1.650   1.336 -1.3004  2.1264  2.4115
   99SOL     OW  295   2.527   2.205   1.395  0.2755 -0.9951 -0.6095
   99SOL    HW1  296   2.487   2.113   1.411 -0.6594  1.2395 -0.0545
   99SOL    HW2  297   2.555   2.258   1.480  0.2348  1.2103 -2.7721
  100SOL     OW  298   2.277   0.374   2.065  0.1542  0.2811  0.0879
  100SOL    HW1  299   2.211   0.341   2.140 -1.3343 -0.2613  0.9925
  100SOL    HW2  300   2.373   0.393   2.098 -3.5292  1.8995  1.5668
  101SOL     OW  301   0.391   1.411   0.230  0.5828  0.4864 -0.3151
  101SOL    HW1  302   0.416   1.446   0.327  2.0740  2.1105  2.5040
  101SOL    HW2  303   0.376   1.493   0.171  1.7679 -0.3929 -0.4850
  102SOL     OW  304   2.239   1.137   0.876  0.1788 -0.2168 -0.1991
  102SOL    HW1  305   2.180   1.068   0.824 -1.1319 -0.2571 -1.2463
  102SOL    HW2  306   2.286   1.206   0.813 -0.9644  0.9797  1.4537
  103SOL     OW  307   2.281   0.095   0.407  0.2824 -0.1872 -0.2672
  103SOL    HW1  308   2.333   0.177   0.376 -0.4439 -0.4047 -1.4713
  103SOL    HW2  309   2.329   0.004   0.418  1.2212 -2.5039 -0.8955
  104SOL     OW  310   0.101   1.856   2.163 -0.3098  0.5277  0.3256
  104SOL    HW1  311   0.140   1.773   2.113 -0.0495 -3.3454 -3.5698
  104SOL    HW2  312   0.002   1.869   2.127 -0.2427 -0.4088 -1.4402
  105SOL     OW  313   1.060   1.972   0.805  0.1736  0.2151  0.3856
  105SOL    HW1  314   1.001   2.027   0.744 -0.5219 -2.7262  0.0709
  105SOL    HW2  315   1.114   1.899   0.756  0.9943 -0.9301  2.8188
  106SOL     OW  316   2.081   0.513   1.351 -0.4993 -0.1676  0.1731
  106SOL    HW1  317   2.039   0.430   1.400 -1.0197  1.0229  0.1574
  106SOL    HW2  318   2.076   0.598   1.412  0.3774 -1.7562  0.1569
  107SOL     OW  319   1.846   3.004   1.125  0.2722 -0.0183  0.3091
  107SOL    HW1  320   1.878   3.089   1.179  0.8329  0.7099  0.7202
  107SOL    HW2  321   1.794   2.935   1.182 -0.0060 -0.9299 -0.6595
  108SOL     OW  322   0.724   2.665   1.314  0.7687 -0.7482 -0.3797
  108SOL    HW1  323   0.743   2.708   1.407  0.7505  0.1987  2.3002
  108SOL    HW2  324   0.811   2.628   1.270 -0.3098 -0.6018  0.8631
  109SOL     OW  325   2.025   0.174   0.674  0.0532 -0.6255 -0.1684
  109SOL    HW1  326   2.007   0.075   0.685  0.4426  0.4738 -0.8198
  109SOL    HW2  327   1.959   0.235   0.722  0.3637  1.4082  1.1873
  110SOL     OW  328   0.509   2.704   2.812 -0.4249 -0.3922 -0.5309
  110SOL    HW1  329   0.508   2.726   2.714  0.2769 -2.4128  1.6820
  110SOL    HW2  330   0.600   2.656   2.840  2.7216 -1.0852  2.2314
  111SOL     OW  331   1.284   0.524   2.350  0.0489  0.4194  0.2554
  111SOL    HW1  332   1.226   0.612   2.364 -0.1132  1.4566 -2.1617
  111SOL    HW2  333   1.311   0.468   2.433  1.1200 -0.8064 -0.2501
  112SOL     OW  334   1.735   0.526   1.418 -0.5378 -0.1381  0.2433
  112SOL    HW1  335   1.726   0.500   1.317  1.4595  0.7381 -2.0348
  112SOL    HW2  336   1.737   0.438   1.470 -2.4297 -3.1120 -0.3169
  113SOL     OW  337   2.265   1.680   1.777  0.3163 -0.1476  0.4287
  113SOL    HW1  338   2.343   1.625   1.730  1.7736  0.1302 -0.2541
  113SOL    HW2  339   2.291   1.709   1.871 -0.1274 -1.6828 -0.0854
  114SOL     OW  340   0.425   0.576   1.306 -0.1567 -0.1178 -0.0949
  114SOL    HW1  341   0.370   0.660   1.275  0.2292 -0.8648  0.0026
  114SOL    HW2  342   0.490   0.540   1.232 -0.7161 -1.0787 -0.8654
  115SOL     OW  343   2.711   1.587   1.270 -0.0843 -0.0851  0.1631
  115SOL    HW1  344   2.724   1.486   1.294  0.2653 -0.0755  1.3907
  115SOL    HW2  345   2.748   1.625   1.181  0.3162 -0.0819  1.8679
  116SOL     OW  346   1.809   1.070   0.756  0.2359  0.1456  0.2297
  116SOL    HW1  347   1.730   1.011   0.723  0.6782 -2.7576 -2.1054
  116SOL    HW2  348   1.785   1.168   0.768  0.5110  0.2676 -4.1623
  117SOL     OW  349   1.075   0.413   0.713  0.1893  0.4144 -0.3847
  117SOL    HW1  350   1.090   0.391   0.812 -1.8544  0.9967  0.5001
  117SOL    HW2  351   1.117   0.505   0.679  0.6364  1.9108 -1.1265
  118SOL     OW  352   1.112   1.059   0.963 -0.4560 -0.3519  0.2230
  118SOL    HW1  353   1.085   0.972   1.013 -1.5258  0.2464  2.5761
  118SOL    HW2  354   1.141   1.136   1.030 -1.0123 -2.1626  2.4158
  119SOL     OW  355   1.855   1.616   1.995 -0.1676  0.6344 -0.4753
  119SOL    HW1  356   1.835   1.711   2.037 -0.8572 -2.8111 -1.7532
  119SOL    HW2  357   1.957   1.602   1.988  3.2436  1.0048 -1.2192
  120SOL     OW  358   2.991   2.769   0.219 -0.2492 -0.0484  0.3702
  120SOL    HW1  359   2.891   2.759   0.182 -1.7773  4.8139 -1.4492
  120SOL    HW2  360   3.037   2.684   0.260 -0.0072  0.7191  2.6457
  121SOL     OW  361   2.105   0.693   2.249 -0.4199  0.0542 -0.1552
  121SOL    HW1  362   2.196   0.691   2.197  2.2610 -0.2629 -3.0490
  121SOL    HW2  363   2.030   0.636   2.204 -0.0061  3.5968  0.5070
  122SOL     OW  364   2.706   2.564   1.328  0.2769 -0.3852 -0.3721
  122SOL    HW1  365   2.721   2.578   1.229 -1.3949 -1.6054  3.7132
  122SOL    HW2  366   2.631   2.491   1.342 -3.8132 -1.6496 -1.5178
  123SOL     OW  367   1.727   3.096   1.694  0.3608  0.7049 -0.0180
  123SOL    HW1  368   1.690   3.006   1.653 -1.1413  2.1067 -3.0743
  123SOL    HW2  369   1.775   3.150   1.623 -1.3682  0.2313  3.6247
  124SOL     OW  370   0.155   0.467   0.933  0.6195  0.1897  0.4705
  124SOL    HW1  371   0.134   0.511   1.024 -0.5531  2.8071 -2.3977
  124SOL    HW2  372   0.116   0.539   0.870 -1.7834  1.4930  1.9846
  125SOL     OW  373   0.892   1.691   0.700  0.1736  0.1741 -0.7340
  125SOL    HW1  374   0.994   1.678   0.684 -0.4873  1.2644  0.0420
  125SOL    HW2  375   0.856   1.622   0.772  0.1209 -2.1767  2.4523
  126SOL     OW  376   1.878   2.359   2.413  0.5686  0.3756 -0.1432
  126SOL    HW1  377   1.942   2.298   2.361 -0.7532  1.9526 -3.2803
  126SOL    HW2  378   1.788   2.370   2.362  0.5413 -2.3888  3.7059
  127SOL     OW  379   1.039   0.958   0.144 -0.8096 -0.0451  0.7540
  127SOL    HW1  380   1.100   1.009   0.210  0.6784  0.0059  2.3122
  127SOL    HW2  381   0.984   0.886   0.191  1.6977  1.4198  2.5161
  128SOL     OW  382   0.963   0.206   1.440  0.0084 -0.4463 -0.3881
  128SOL    HW1  383   0.947   0.271   1.361  0.3487 -1.9041  2.1173
  128SOL    HW2  384   0.894   0.133   1.455  2.8469  2.4300  1.2940
  129SOL     OW  385   1.763   0.730   1.818  0.1730 -0.1124  0.0108
  129SOL    HW1  386   1.752   0.735   1.716 -1.2843  0.6556 -4.3457
  129SOL    HW2  387   1.784   0.819   1.873 -1.4036  1.0875  0.4954
  130SOL     OW  388   1.244   2.104   0.980 -0.1448 -0.5121  0.4207
  130SOL    HW1  389   1.188   2.036   0.924  1.3602  1.6528  0.4544
  130SOL    HW2  390   1.322   2.146   0.921  1.8320  0.7302  0.8890
  131SOL     OW  391   3.018   1.525   1.291  0.0850 -0.5796  0.8766
  131SOL    HW1  392   2.964   1.439   1.308 -0.8949 -0.3087  1.0886
  131SOL    HW2  393   3.118   1.507   1.305  0.4587  0.0453  1.8781
  132SOL     OW  394   1.947   2.469   0.544 -0.5266  0.4829 -1.1353
  132SOL    HW1  395   1.843   2.487   0.541 -0.4003 -0.2824 -0.8819
  132SOL    HW2  396   1.989   2.478   0.641 -1.2697 -1.2408 -0.3977
  133SOL     OW  397   1.816   2.261   2.903 -0.6555  1.0015  0.0365
  133SOL    HW1  398   1.809   2.324   2.984  0.0466 -1.5013  2.0393
  133SOL    HW2  399   1.769   2.305   2.818 -0.9986  0.8215  0.2327
  134SOL     OW  400   2.639   2.346   1.612  0.1498 -0.7547 -0.3427
  134SOL    HW1  401   2.576   2.310   1.686  0.9620 -2.8018  3.4789
  134SOL    HW2  402   2.696   2.429   1.641  0.1711 -0.2365 -2.1729
  135SOL     OW  403   0.776   1.508   2.544  0.3409  0.0122 -0.5559
  135SOL    HW1  404   0.766   1.406   2.571  1.6570 -4.0209  0.5303
  135SOL    HW2  405   0.833   1.518   2.463 -2.2131 -1.2672  3.0731
  136SOL     OW  406   1.143   2.039   0.452  0.4522  0.6780  0.1361
  136SOL    HW1  407   1.076   2.100   0.504 -1.0555  0.3696 -3.1129
  136SOL    HW2  408   1.097   1.952   0.417 -0.4949  0.7711 -2.7084
  137SOL     OW  409   0.394   1.032   2.135 -0.0888 -0.0849 -0.3443
  137SOL    HW1  410   0.303   1.044   2.184 -3.4418 -1.8308 -1.0780
  137SOL    HW2  411   0.427   0.933   2.140 -0.5645  1.6926 -1.5120
  138SOL     OW  412   2.412   1.475   0.374  0.5302 -0.6532 -0.2564
  138SOL    HW1  413   2.332   1.442   0.311 -0.1002  2.2006 -0.1568
  138SOL    HW2  414   2.474   1.399   0.407  1.3487  2.2692 -1.3644
  139SOL     OW  415   1.752   2.497   1.184  0.2032  0.0280  0.2218
  139SOL    HW1  416   1.649   2.507   1.166 -1.9553 -0.2754 -0.8694
  139SOL    HW2  417   1.769   2.440   1.273 -2.4776  0.8785  0.3454
  140SOL     OW  418   2.992   2.983   2.468 -0.7569  0.1266  0.6217
  140SOL    HW1  419   3.005   2.882   2.476  3.6695  0.7488  0.8672
  140SOL    HW2  420   3.076   3.022   2.419  1.3172  2.0657 -1.4436
  141SOL     OW  421   1.135   1.492   1.595  0.0722  0.7264 -0.4777
  141SOL    HW1  422   1.156   1.561   1.668 -0.5358  2.3844  1.1437
  141SOL    HW2  423   1.185   1.402   1.612  2.7778  0.2364  1.7429
  142SOL     OW  424   1.512   0.607   2.238  0.4333 -0.4572 -0.2142
  142SOL    HW1  425   1.560   0.569   2.154  1.6259  0.3459  4.6315
  142SOL    HW2  426   1.411   0.584   2.242  0.2829  1.5605  1.3247
  143SOL     OW  427   2.760   0.846   0.499  0.6499 -0.2433  0.5269
  143SOL    HW1  428   2.802   0.880   0.410  0.9158  0.8664 -0.9135
  143SOL    HW2  429   2.803   0.896   0.581 -0.6911  0.1672  1.0519
  144SOL     OW  430   2.986   1.255   1.353  0.1103 -0.5398  0.0776
  144SOL    HW1  431   3.032   1.259   1.446  3.0044  0.8144  2.1506
  144SOL    HW2  432   3.051   1.215   1.285  0.2074 -0.7657 -2.9494
  145SOL     OW  433   0.993   1.857   0.073  0.1103  0.3288  0.1384
  145SOL    HW1  434   1.035   1.926   0.007  1.3840  1.0239 -1.2970
  145SOL    HW2  435   0.939   1.781   0.028 -1.2643 -1.3217  0.1417
  146SOL     OW  436   2.504   0.637   1.514  0.5894 -0.1193  0.0900
  146SOL    HW1  437   2.458   0.555   1.464  1.2369  1.2083 -1.4940
  146SOL    HW2  438   2.444   0.724   1.521 -2.2360 -1.6734 -1.5269
  147SOL     OW  439   1.103   2.604   0.655  0.0278  0.0992 -0.4315
  147SOL    HW1  440   1.038   2.616   0.574 -0.7333  1.3624 -1.9066
  147SOL    HW2  441   1.187   2.546   0.629 -0.3469  3.2198  0.8354
  148SOL     OW  442   1.655   1.401   3.035  0.0737  0.8448 -0.7196
  148SOL    HW1  443   1.696   1.341   2.962 -2.8262  2.1676 -0.9456
  148SOL    HW2  444   1.681   1.369   3.133  0.6912 -0.7948  1.8907
  149SOL     OW  445   0.603   1.424   1.964 -0.0272 -0.6944 -0.4629
  149SOL    HW1  446   0.514   1.399   2.012 -0.4420  2.4285 -1.2712
  149SOL    HW2  447   0.646   1.339   1.926 -0.5668 -0.9644  1.5691
  150SOL     OW  448   2.996   1.274   0.894 -0.2891  0.0300  0.6509
  150SOL    HW1  449   3.062   1.343   0.938  1.4730  1.8467 -0.3784
  150SOL    HW2  450   2.977   1.190   0.953 -0.8953  0.4382 -0.7985
  151SOL     OW  451   0.180   0.802   2.091  0.1362 -0.3333 -0.0425
  151SOL    HW1  452   0.155   0.881   2.029 -1.0225 -0.6311  2.0631
  151SOL    HW2  453   0.231   0.731   2.038  0.3794 -1.4368 -2.1376
  152SOL     OW  454   1.396   1.744   1.256  0.4930  0.3263  0.0081
  152SOL    HW1  455   1.390   1.813   1.338  0.9994  0.0293 -0.7175
  152SOL    HW2  456   1.315   1.750   1.189  0.3875  1.3971  1.9168
  153SOL     OW  457   0.056   1.505   0.165  0.0173  0.4952  0.7658
  153SOL    HW1  458   0.050   1.399   0.155  0.8975 -2.0724 -1.5374
  153SOL    HW2  459   0.017   1.544   0.253 -1.5714 -2.0233 -2.9355
  154SOL     OW  460   2.424   1.956   2.821 -0.2606  0.3747  0.2850
  154SOL    HW1  461   2.401   1.855   2.836 -1.5657  3.7860 -3.1970
  154SOL    HW2  462   2.487   1.964   2.739 -1.8843 -0.5070  1.9046
  155SOL     OW  463   2.538   1.240   0.480 -0.1156 -0.0898 -0.5466
  155SOL    HW1  464   2.615   1.235   0.411  0.7742  0.6547 -2.4868
  155SOL    HW2  465   2.490   1.150   0.477  1.3139 -0.8816  2.2181
  156SOL     OW  466   2.482   0.996   0.892 -0.1901 -0.1187  0.3331
  156SOL    HW1  467   2.384   1.026   0.905  3.9200 -0.2640 -0.3495
  156SOL    HW2  468   2.541   1.081   0.870  1.2184  0.9620 -1.9881
  157SOL     OW  469   1.354   2.964   3.091  0.2203  0.2044  0.2666
  157SOL    HW1  470   1.410   2.901   3.033  1.4439  1.3032  0.1739
  157SOL    HW2  471   1.344   3.055   3.048  0.0461 -2.8382 -1.0118
  158SOL     OW  472   1.060   1.901   2.023  0.0239  0.2442 -0.1531
  158SOL    HW1  473   1.111   1.870   2.106  0.8068  0.2233 -2.1613
  158SOL    HW2  474   0.958   1.897   2.047  0.4864  2.5810  0.7362
  159SOL     OW  475   0.873   0.465   1.280 -0.0095 -0.4031  0.4305
  159SOL    HW1  476   0.866   0.543   1.350 -0.1227  0.0358 -0.1671
  159SOL    HW2  477   0.793   0.471   1.214  0.7137  0.4875  2.5122
  160SOL     OW  478   1.455   2.329   1.653 -0.0642  0.2217  0.0686
  160SOL    HW1  479   1.516   2.405   1.624  1.5774  1.1650 -0.9366
  160SOL    HW2  480   1.495   2.266   1.726  0.2982 -1.7081 -1.7470
  161SOL     OW  481   0.089   2.935   0.361 -0.3176 -0.2312 -0.0797
  161SOL    HW1  482   0.000   2.887   0.366 -1.3983  1.2325  2.6703
  161SOL    HW2  483   0.100   2.991   0.270  0.4194  0.9472 -1.6465
  162SOL     OW  484   2.608   1.890   0.519  0.4409  0.1434  0.0727
  162SOL    HW1  485   2.573   1.848   0.430 -0.1257 -0.7547  2.0201
  162SOL    HW2  486   2.602   1.827   0.602  2.4018  0.7926  2.4066
  163SOL     OW  487   1.948   2.768   0.746  0.3962 -0.0695  0.2791
  163SOL    HW1  488   1.916   2.802   0.653 -0.3352  0.6003 -1.2001
  163SOL    HW2  489   2.012   2.686   0.733  1.4705  1.0251  0.1159
  164SOL     OW  490   0.056   0.222   1.204 -0.3564  0.5811 -0.3585
  164SOL    HW1  491   0.129   0.156   1.168  0.2093 -1.7321 -0.9405
  164SOL    HW2  492   0.094   0.280   1.281  1.2165 -2.1376  1.8755
  165SOL     OW  493   1.020   1.434   0.642 -0.0790 -0.0054 -0.1621
  165SOL    HW1  494   0.959   1.452   0.725  2.2022 -1.6320  3.9989
  165SOL    HW2  495   1.003   1.487   0.554  0.9782 -0.2227  0.7603
  166SOL     OW  496   1.388   1.020   1.810  0.2634  0.2315  0.2200
  166SOL    HW1  497   1.299   0.966   1.827 -3.0489 -0.0987 -1.6517
  166SOL    HW2  498   1.437   1.041   1.895 -0.1436  2.1341 -3.3531
  167SOL     OW  499   0.929   1.835   1.593  0.1958  0.2989  0.3722
  167SOL    HW1  500   0.910   1.936   1.604 -0.6061 -1.7278 -3.5829
  167SOL    HW2  501   0.843   1.783   1.569 -0.6162  0.0020  1.1698
  168SOL     OW  502   1.554   2.334   0.198 -0.5855  0.4698 -0.4194
  168SOL    HW1  503   1.637   2.382   0.157 -1.0861  2.0856 -0.7000
  168SOL    HW2  504   1.575   2.289   0.291  0.0240 -1.3109 -1.7980
  169SOL     OW  505   0.174   2.558   2.152 -0.0525 -0.0493  0.3355
  169SOL    HW1  506   0.213   2.485   2.088 -1.2353 -2.0399  0.5331
  169SOL    HW2  507   0.142   2.516   2.241 -0.9783  0.3702 -1.7246
  170SOL     OW  508   1.242   0.339   1.926  0.6697 -0.5376  0.3811
  170SOL    HW1  509   1.291   0.271   1.983  0.0591  0.4615  0.6599
  170SOL    HW2  510   1.175   0.296   1.855  1.8496  1.6330 -0.2722
  171SOL     OW  511   0.232   0.818   2.400 -0.0575  0.1890  1.0218
  171SOL    HW1  512   0.144   0.845   2.457 -0.8980  2.7602  0.9827
  171SOL    HW2  513   0.205   0.804   2.302  1.2098 -2.7662 -2.4203
  172SOL     OW  514   0.887   1.124   2.893  0.3654 -0.3408 -0.1630
  172SOL    HW1  515   0.971   1.183   2.913 -2.4421  2.0623  0.5066
  172SOL    HW2  516   0.898   1.078   2.796 -0.7343 -1.9596  1.4281
  173SOL     OW  517   0.701   2.723   0.139 -0.3480  0.2577  0.5630
  173SOL    HW1  518   0.663   2.820   0.149  0.0011 -0.1013 -1.4902
  173SOL    HW2  519   0.624   2.655   0.119  0.0719 -0.4349  1.8720
  174SOL     OW  520   1.271   2.741   1.057  0.3912  0.7898  0.0897
  174SOL    HW1  521   1.283   2.795   0.969 -0.8970  1.2300  0.7884
  174SOL    HW2  522   1.214   2.657   1.033  2.1761  0.4630  0.3475
  175SOL     OW  523   0.375   0.034   1.694 -0.2239 -0.5943 -0.2787
  175SOL    HW1  524   0.423   0.090   1.764 -0.0871  0.8614 -1.5219
  175SOL    HW2  525   0.303   0.093   1.641  0.8970  2.1490 -1.4544
  176SOL     OW  526   2.609   0.318   3.024  0.1951  0.0516 -0.6378
  176SOL    HW1  527   2.645   0.398   3.083  3.0746  2.9996 -1.2822
  176SOL    HW2  528   2.627   0.225   3.073  1.9086 -0.0246  1.5650
  177SOL     OW  529   0.391   0.303   0.872 -0.0538 -0.2299 -0.1922
  177SOL    HW1  530   0.456   0.293   0.953  1.1224  1.1227  0.8632
  177SOL    HW2  531   0.298   0.345   0.891  0.8831  3.3364  2.2075
  178SOL     OW  532   3.094   2.696   2.606 -0.5280 -0.3693 -0.1709
  178SOL    HW1  533   2.995   2.684   2.634 -0.7252 -1.4880 -1.6908
  178SOL    HW2  534   3.167   2.742   2.667  2.5794 -0.7766  0.2090
  179SOL     OW  535   0.011   1.763   1.178 -0.1096  0.5625  0.1889
  179SOL    HW1  536  -0.056   1.838   1.151  1.5670 -1.2467 -2.5977
  179SOL    HW2  537  -0.032   1.674   1.221  2.6975 -2.9878  1.9755
  180SOL     OW  538   0.164   1.268   1.803 -0.8352  0.0131  0.3565
  180SOL    HW1  539   0.268   1.252   1.816  1.4797  0.7172  1.1821
  180SOL    HW2  540   0.140   1.337   1.870  3.7753 -1.4965 -3.1093
  181SOL     OW  541   3.017   1.834   2.524  0.1151 -0.0027  0.0101
  181SOL    HW1  542   3.113   1.853   2.493 -5.3720 -3.8436  5.1153
  181SOL    HW2  543   2.946   1.876   2.461 -0.4665  1.3816 -1.9635
  182SOL     OW  544   2.318   1.227   1.248  0.1625  0.5704  0.2283
  182SOL    HW1  545   2.233   1.205   1.195  1.7392 -0.0159  1.5647
  182SOL    HW2  546   2.355   1.325   1.246  2.5773 -1.4730  0.9766
  183SOL     OW  547   1.520   2.271   2.496  0.0417  0.2444  0.3159
  183SOL    HW1  548   1.435   2.214   2.489  1.0950 -0.2921  0.3443
  183SOL    HW2  549   1.599   2.220   2.542  1.3650 -1.2875 -1.5399
  184SOL     OW  550   2.079   0.944   0.759 -0.3086 -0.5754 -0.5639
  184SOL    HW1  551   1.996   0.997   0.738  1.4994  1.1136 -0.9142
  184SOL    HW2  552   2.057   0.843   0.770 -0.2645 -1.1594 -1.6034
  185SOL     OW  553   1.633   2.745   2.168  0.3084  0.4294 -0.2626
  185SOL    HW1  554   1.575   2.821   2.129  1.2371 -2.6648 -0.3816
  185SOL    HW2  555   1.646   2.755   2.273 -3.3843  2.1493  1.2882
  186SOL     OW  556   0.083   2.197   1.653 -0.2265 -0.0593  0.4821
  186SOL    HW1  557   0.113   2.280   1.596 -0.7594  1.4138 -1.1856
  186SOL    HW2  558   0.163   2.144   1.694  1.5154  3.6097 -0.8923
  187SOL     OW  559   1.422   0.686   1.708  0.4002 -0.0018  0.1723
  187SOL    HW1  560   1.461   0.769   1.656  0.4539 -0.1616  0.3929
  187SOL    HW2  561   1.401   0.700   1.807 -3.4848  1.6836 -0.5249
  188SOL     OW  562   2.762   2.743   1.543  0.0487  0.3104  0.2574
  188SOL    HW1  563   2.758   2.843   1.515 -1.1158  1.4089  0.0326
  188SOL    HW2  564   2.738   2.681   1.462 -0.9285  0.0729 -0.9249
  189SOL     OW  565   0.732   0.978   1.477  0.3615  0.1302  0.6907
  189SOL    HW1  566   0.823   1.024   1.462  1.6080 -2.0814  0.4251
  189SOL    HW2  567   0.698   0.934   1.387 -1.1496 -1.9081  0.5603
  190SOL     OW  568   1.492   1.764   1.659 -0.0481 -0.1333  0.3157
  190SOL    HW1  569   1.445   1.842   1.608 -1.1678 -0.8993  1.4688
  190SOL    HW2  570   1.558   1.796   1.734 -0.6971 -2.3432 -1.7000
  191SOL     OW  571   1.028   0.840   1.544 -0.4040 -0.5286 -0.0129
  191SOL    HW1  572   1.080   0.771   1.596  1.8177  0.8678  1.7149
  191SOL    HW2  573   1.084   0.910   1.495 -2.9836 -0.3018 -3.8061
  192SOL     OW  574   1.890   2.178   1.239  0.0977  0.5184  0.1032
  192SOL    HW1  575   1.803   2.185   1.184  4.6382  0.9846 -1.6598
  192SOL    HW2  576   1.966   2.227   1.182 -0.3496  0.6838 -2.7584
  193SOL     OW  577   0.500   0.567   0.339  0.1704 -0.3125 -0.2076
  193SOL    HW1  578   0.475   0.491   0.401  3.5378  3.3809 -1.8669
  193SOL    HW2  579   0.526   0.533   0.243 -0.6643  1.2241  0.3586
  194SOL     OW  580   0.300   0.862   1.241 -0.2636 -0.4199  0.4465
  194SOL    HW1  581   0.208   0.815   1.230  0.0882  1.1447 -3.3996
  194SOL    HW2  582   0.314   0.950   1.185 -0.7458 -0.3178  0.8470
  195SOL     OW  583   0.959   2.929   0.527 -0.1209  0.2141 -0.3181
  195SOL    HW1  584   0.922   2.855   0.462 -2.1473  2.0134  2.0009
  195SOL    HW2  585   1.063   2.957   0.512  0.4888  0.0043 -1.8496
  196SOL     OW  586   0.181   1.448   1.329  0.0449  0.1578  0.4863
  196SOL    HW1  587   0.240   1.531   1.343  1.1982 -1.4295  0.9030
  196SOL    HW2  588   0.199   1.372   1.399  2.6834  0.0176  2.6487
  197SOL     OW  589   0.785   2.000   0.241  0.0690  0.1771 -0.0896
  197SOL    HW1  590   0.759   1.957   0.330  2.6203  0.1830 -0.1998
  197SOL    HW2  591   0.869   1.957   0.195 -0.4809 -1.5111 -1.4672
  198SOL     OW  592   0.278   1.157   0.219  0.7762 -0.2963  0.1391
  198SOL    HW1  593   0.175   1.176   0.204  1.0716 -0.6347 -0.9399
  198SOL    HW2  594   0.329   1.248   0.220  0.1794  0.2359 -1.2318
  199SOL     OW  595   2.252   0.424   2.457 -0.0809  0.0399 -0.0951
  199SOL    HW1  596   2.197   0.392   2.541  0.9199 -1.2633 -0.5715
  199SOL    HW2  597   2.356   0.408   2.470 -2.0990 -2.9029  0.6131
  200SOL     OW  598   0.041   2.900   0.825 -0.0403 -0.0536 -0.2896
  200SOL    HW1  599  -0.035   2.893   0.753  4.0139  3.3776  2.4347
  200SOL    HW2  600   0.059   2.996   0.858  1.3133 -1.1093 -2.2867
  201SOL     OW  601   1.099   0.653   0.574  0.6248  0.4382 -0.2549
  201SOL    HW1  602   1.134   0.742   0.624 -1.1956  0.5663 -0.1815
  201SOL    HW2  603   1.004   0.655   0.544 -0.2524 -0.2250 -1.4769
  202SOL     OW  604   0.429   1.201   1.799  0.2140  0.0320  0.3403
  202SOL    HW1  605   0.470   1.209   1.703  3.9641  2.2204 -1.8115
  202SOL    HW2  606   0.497   1.146   1.851 -1.0053  1.4039  0.8625
  203SOL     OW  607   0.596   0.247   1.539 -0.3939 -0.5003 -0.4577
  203SOL    HW1  608   0.612   0.188   1.455 -1.5440 -0.0407 -4.4538
  203SOL    HW2  609   0.633   0.210   1.627 -1.9404 -0.7067 -0.9097
  204SOL     OW  610   2.125   1.894   3.006 -0.5446 -0.0577 -0.4711
  204SOL    HW1  611   2.129   1.792   2.991 -0.0231 -2.7440 -1.0336
  204SOL    HW2  612   2.076   1.939   2.923 -1.5617 -2.1522 -1.7162
  205SOL     OW  613   1.878   1.853   0.167  0.0408 -0.2030  0.1280
  205SOL    HW1  614   1.969   1.840   0.123  2.2585 -0.4693 -1.5838
  205SOL    HW2  615   1.817   1.919   0.118  1.7698 -0.9735 -0.0711
  206SOL     OW  616   2.505   2.810   0.356  0.8162  0.7005 -0.6073
  206SOL    HW1  617   2.584   2.755   0.398 -0.5717 -0.5258 -0.2851
  206SOL    HW2  618   2.539   2.873   0.281 -0.6119  1.1764  0.6535
  207SOL     OW  619   0.535   1.719   2.892 -0.0634 -0.3542  0.0218
  207SOL    HW1  620   0.633   1.714   2.854 -1.0782 -0.4069 -3.0246
  207SOL    HW2  621   0.514   1.654   2.968  0.3823  0.1598  2.5649
  208SOL     OW  622   1.033   1.432   1.351 -0.0448  0.8563  0.0035
  208SOL    HW1  623   0.963   1.504   1.328  0.2725 -0.2172 -0.5613
  208SOL    HW2  624   1.080   1.444   1.443 -1.7551 -1.7289 -0.3077
  209SOL     OW  625   0.146   0.895   0.006  0.1398 -0.4836 -0.5206
  209SOL    HW1  626   0.175   0.866  -0.089  0.1608  0.2555  2.8273
  209SOL    HW2  627   0.202   0.854   0.082 -0.1982  0.2338  1.1915
  210SOL     OW  628   1.726   0.418   1.163 -0.1932 -0.3663  0.5209
  210SOL    HW1  629   1.692   0.503   1.111  0.0562 -4.9496  1.6020
  210SOL    HW2  630   1.827   0.400   1.138  1.4730 -0.4721 -0.3077
  211SOL     OW  631   2.109   1.045   1.636  0.0099 -0.0410  0.0171
  211SOL    HW1  632   2.145   0.973   1.707  2.2528 -1.4700  0.9545
  211SOL    HW2  633   2.188   1.099   1.596  2.1057 -1.5966  2.8812
  212SOL     OW  634   0.025   1.005   1.483  0.0309  0.3845 -0.1430
  212SOL    HW1  635   0.078   1.084   1.515 -2.0249 -1.0262 -3.7355
  212SOL    HW2  636   0.065   0.912   1.516  0.5038 -1.0482 -1.3702
  213SOL     OW  637   2.788   0.321   0.309 -0.4189 -0.5771  0.0222
  213SOL    HW1  638   2.871   0.256   0.301 -0.1003 -2.5462 -2.3062
  213SOL    HW2  639   2.796   0.405   0.250  1.6015 -2.1481  3.2409
  214SOL     OW  640   2.106   0.316   2.274  0.4866  0.4900  0.1719
  214SOL    HW1  641   2.166   0.364   2.344 -1.0684 -1.6781 -0.6258
  214SOL    HW2  642   2.090   0.218   2.299 -2.5807 -0.6690 -0.2613
  215SOL     OW  643   1.721   2.288   2.052 -0.4202  0.0329  0.3601
  215SOL    HW1  644   1.820   2.297   2.019  0.6069 -1.5902  0.3201
  215SOL    HW2  645   1.689   2.352   2.130 -0.3870 -1.2345 -0.2962
  216SOL     OW  646   2.259   0.520   0.643 -0.2985  0.0727 -0.3906
  216SOL    HW1  647   2.201   0.457   0.586  1.3908 -2.5764  1.4013
  216SOL    HW2  648   2.282   0.613   0.590 -1.6924 -0.6551  1.8533
  217SOL     OW  649   0.788   2.783   2.440  0.3285  0.1266  0.0948
  217SOL    HW1  650   0.766   2.686   2.480  0.5324  0.8160 -0.5659
  217SOL    HW2  651   0.815   2.776   2.337  1.6658 -2.3818  0.3140
  218SOL     OW  652   1.946   1.444   3.059 -0.1406 -0.2016  0.3036
  218SOL    HW1  653   1.857   1.490   3.046 -0.8785  0.1318 -2.4247
  218SOL    HW2  654   1.952   1.348   3.091 -0.8239 -0.3248 -0.7677
  219SOL     OW  655   2.371   1.298   2.598  0.3495 -0.1031  0.3127
  219SOL    HW1  656   2.344   1.254   2.508 -3.0668 -2.4023 -1.6205
  219SOL    HW2  657   2.367   1.237   2.678 -3.2185  3.3810 -2.4108
  220SOL     OW  658   1.503   1.008   1.303 -0.1302  0.3114 -0.0465
  220SOL    HW1  659   1.594   1.049   1.330 -2.4932 -1.0261  0.7929
  220SOL    HW2  660   1.443   1.077   1.253  1.2738 -1.9065  1.1780
  221SOL     OW  661   1.303   1.106   2.193 -0.5122 -0.1864  0.2929
  221SOL    HW1  662   1.239   1.171   2.146 -1.1475 -2.1623 -0.8122
  221SOL    HW2  663   1.394   1.101   2.145 -0.2660  1.7167  0.0022
  222SOL     OW  664   1.347   0.153   1.110 -0.5025  0.2195 -0.2897
  222SOL    HW1  665   1.419   0.098   1.060  1.8451 -0.6941 -0.0798
  222SOL    HW2  666   1.387   0.190   1.199  1.1537 -3.2085 -0.5581
  223SOL     OW  667   2.904   0.760   2.004  0.1859 -0.3635 -0.3402
  223SOL    HW1  668   2.933   0.743   2.103 -1.1356  2.4566  2.1518
  223SOL    HW2  669   2.910   0.863   1.983  1.6361  1.5210 -0.4374
  224SOL     OW  670   1.556   1.052   2.794 -0.2530  0.6837  0.5206
  224SOL    HW1  671   1.558   0.969   2.734 -0.7307 -1.9726 -2.2532
  224SOL    HW2  672   1.512   1.130   2.744 -0.6458 -2.2425  2.1219
  225SOL     OW  673   2.956   2.830   2.921 -0.1390 -0.3399  0.1696
  225SOL    HW1  674   2.947   2.745   2.867  0.1787 -0.1098  1.3338
  225SOL    HW2  675   3.003   2.913   2.876 -0.7521  0.7902 -0.6506
  226SOL     OW  676   2.462   1.672   2.874 -0.0259 -0.5035 -0.1319
  226SOL    HW1  677   2.494   1.624   2.789  0.5246 -1.0611  1.4091
  226SOL    HW2  678   2.460   1.611   2.953  0.2380 -0.0592 -5.3856
  227SOL     OW  679   0.794   0.168   2.952 -0.5485 -0.2810 -0.1386
  227SOL    HW1  680   0.821   0.102   3.027 -1.2072 -1.0382 -0.8931
  227SOL    HW2  681   0.814   0.135   2.853 -1.2511  0.1109  1.7444
  228SOL     OW  682   2.336   0.545   2.763  0.2919  0.2138  0.0052
  228SOL    HW1  683   2.289   0.609   2.698  0.5984  1.2931  2.2405
  228SOL    HW2  684   2.396   0.473   2.719 -1.7194 -2.1610 -2.0685
  229SOL     OW  685   0.576   0.473   1.897  0.5436  0.3807 -0.4551
  229SOL    HW1  686   0.608   0.514   1.807 -1.9938 -0.5323  5.2168
  229SOL    HW2  687   0.660   0.444   1.960  0.3606  0.0547 -2.8492
  230SOL     OW  688   1.937   1.256   2.116 -0.0024 -0.4828 -0.3073
  230SOL    HW1  689   2.015   1.289   2.061 -0.9140  0.0181  0.6258
  230SOL    HW2  690   1.842   1.292   2.082  1.4272 -0.8497 -2.0555
  231SOL     OW  691   0.597   1.121   2.935  0.3019 -0.5393 -0.2422
  231SOL    HW1  692   0.697   1.132   2.954 -0.3940  3.9378  3.5595
  231SOL    HW2  693   0.538   1.100   3.015  1.4696  1.1403 -1.1156
  232SOL     OW  694   2.499   0.054   2.704  0.5674 -0.9194  0.2648
  232SOL    HW1  695   2.531  -0.033   2.747  0.2692 -0.7574 -1.1089
  232SOL    HW2  696   2.538   0.076   2.609  0.6221  0.7990 -1.1522
  233SOL     OW  697   1.740   1.291   1.090  0.1430  0.5216 -0.4796
  233SOL    HW1  698   1.667   1.275   1.016 -2.1001  0.5292  0.5113
  233SOL    HW2  699   1.806   1.210   1.110  1.0100 -2.0821  2.2513
  234SOL     OW  700   1.662   2.595   1.953 -0.2992  0.1800 -0.6525
  234SOL    HW1  701   1.679   2.667   2.029 -0.4260 -1.7698  1.8764
  234SOL    HW2  702   1.609   2.511   1.990  0.9504 -1.2186 -0.1402
  235SOL     OW  703   3.062   3.066   2.834  0.6390  0.0019  0.4247
  235SOL    HW1  704   3.139   3.079   2.765 -0.5368  1.3146 -1.8655
  235SOL    HW2  705   3.035   3.159   2.870  0.4533 -1.2845 -2.2455
  236SOL     OW  706   2.881   0.701   0.041 -0.4076 -0.8082 -0.0568
  236SOL    HW1  707   2.921   0.727   0.133  0.4390  1.1850 -1.2846
  236SOL    HW2  708   2.948   0.663  -0.025 -0.1384 -1.1508 -0.7808
  237SOL     OW  709   1.492   1.590   1.056 -0.1614  0.4996  0.1915
  237SOL    HW1  710   1.594   1.576   1.040 -1.3837  0.7242  0.0016
  237SOL    HW2  711   1.476   1.651   1.135  0.2049 -0.3711 -0.8582
  238SOL     OW  712   1.734   1.343   0.747  0.3006  0.6208  0.3302
  238SOL    HW1  713   1.814   1.348   0.672  2.0172  0.3148 -3.0740
  238SOL    HW2  714   1.681   1.433   0.756  0.5344  1.2506  0.3686
  239SOL     OW  715   2.145   0.292   2.661  0.1117  0.0942 -0.3283
  239SOL    HW1  716   2.211   0.260   2.741 -0.3376 -0.1878  0.5913
  239SOL    HW2  717   2.079   0.363   2.696  0.3590 -1.6031 -0.9591
  240SOL     OW  718   0.892   0.735   0.224 -0.4954 -0.0645 -0.2676
  240SOL    HW1  719   0.867   0.666   0.152  1.6929  2.2048 -0.9658
  240SOL    HW2  720   0.880   0.703   0.327 -1.2813  0.1497  2.4240
  241SOL     OW  721   0.572   0.031   0.358 -0.3401 -0.7908  0.2860
  241SOL    HW1  722   0.605  -0.017   0.267  0.2591 -1.4922 -2.7988
  241SOL    HW2  723   0.496  -0.020   0.403  1.5936  1.6809 -4.5327
  242SOL     OW  724   0.692   2.434   1.110 -0.1926  0.1353  0.6865
  242SOL    HW1  725   0.670   2.495   1.192  0.2741  0.9979  2.8442
  242SOL    HW2  726   0.781   2.453   1.061  0.4903  0.8026  0.2424
  243SOL     OW  727   1.064   0.656   2.507  0.9008 -0.0333  0.2391
  243SOL    HW1  728   1.041   0.727   2.440  1.6601 -1.6191  0.4882
  243SOL    HW2  729   0.988   0.588   2.525  0.8799 -0.2512  0.9228
  244SOL     OW  730   2.824   1.981   2.341  0.2903  0.7466 -0.3203
  244SOL    HW1  731   2.859   1.962   2.248  0.8971  0.0155 -1.7052
  244SOL    HW2  732   2.725   1.948   2.356 -1.2434 -0.9999 -1.0051
  245SOL     OW  733   2.471   0.719   2.197 -0.3183 -0.0143  0.2698
  245SOL    HW1  734   2.490   0.806   2.255 -0.8648 -0.3026  0.1812
  245SOL    HW2  735   2.555   0.684   2.146  0.8126  1.7740 -0.0100
  246SOL     OW  736   0.335   2.871   1.775  0.0082  0.0643 -0.1578
  246SOL    HW1  737   0.240   2.839   1.744  0.2994 -0.3467 -1.7437
  246SOL    HW2  738   0.359   2.970   1.753 -2.8857 -1.1849  2.2060
  247SOL     OW  739   2.189   0.523   2.998  0.0214 -0.6446 -0.1565
  247SOL    HW1  740   2.264   0.519   2.921  0.6393 -3.8466  1.0446
  247SOL    HW2  741   2.152   0.620   3.009  0.8117  0.7538 -0.4370
  248SOL     OW  742   2.187   1.840   1.533 -0.4829  0.4870  1.0914
  248SOL    HW1  743   2.229   1.765   1.591  0.9235  1.0204 -0.8381
  248SOL    HW2  744   2.090   1.868   1.562 -1.8371 -1.3051 -1.2935
  249SOL     OW  745   1.987   2.008   1.917  0.1359 -1.0403 -0.1296
  249SOL    HW1  746   1.994   1.930   1.850 -1.6714 -0.5651 -1.2515
  249SOL    HW2  747   2.072   2.062   1.934  0.6181  0.2430 -0.5848
  250SOL     OW  748   1.053   0.627   1.907 -0.2798  0.4770 -0.4388
  250SOL    HW1  749   1.084   0.573   1.985 -4.6807  0.6241  1.8913
  250SOL    HW2  750   1.092   0.597   1.816  0.0726  3.1036  0.4591
  251SOL     OW  751   3.051   1.539   2.613 -0.4065 -0.6637 -0.1675
  251SOL    HW1  752   3.066   1.627   2.561 -1.3380 -1.6417  1.0541
  251SOL    HW2  753   2.952   1.538   2.640  0.4422  0.5458 -1.9113
  252SOL     OW  754   1.539   0.896   1.588 -0.0118 -0.1321  0.5246
  252SOL    HW1  755   1.618   0.925   1.523  3.2886 -0.9141  2.3104
  252SOL    HW2  756   1.505   0.972   1.649 -1.5591  0.4760  0.4171
  253SOL     OW  757   1.009   1.531   0.380  0.4593  0.4413 -0.6856
  253SOL    HW1  758   1.067   1.486   0.303  2.1507  2.4234  1.3297
  253SOL    HW2  759   0.908   1.520   0.361 -5.1337 -0.9412  0.1538
  254SOL     OW  760   2.018   2.068   1.592 -0.4722  0.2834  0.1306
  254SOL    HW1  761   1.955   2.016   1.525  0.5521  0.8806 -1.5550
  254SOL    HW2  762   1.967   2.128   1.662  0.1143 -1.5297 -0.8726
  255SOL     OW  763   0.094   1.159   2.982  0.5020  0.3636 -0.3691
  255SOL    HW1  764   0.163   1.237   2.962 -0.3893  0.0248  1.9149
  255SOL    HW2  765   0.121   1.088   3.049 -1.0466  0.6516  3.2608
  256SOL     OW  766   2.756   1.318   1.826 -1.2377  0.0057 -0.4458
  256SOL    HW1  767   2.694   1.315   1.741  0.4456 -0.0637 -0.4830
  256SOL    HW2  768   2.709   1.268   1.908  0.1237 -1.6146 -2.4453
  257SOL     OW  769   0.822   0.190   1.857  0.7022 -0.2614  0.1281
  257SOL    HW1  770   0.872   0.269   1.813  0.8081  0.0036  1.1940
  257SOL    HW2  771   0.870   0.097   1.843 -3.7286 -1.6534 -2.3044
  258SOL     OW  772   2.956   1.262   0.410 -0.0026 -0.2102 -0.0924
  258SOL    HW1  773   2.925   1.361   0.383  0.0447  1.3965  0.7416
  258SOL    HW2  774   2.979   1.259   0.513  1.0418  1.2909 -0.1577
  259SOL     OW  775   0.472   2.925   2.971  0.1847  0.1982  0.4444
  259SOL    HW1  776   0.419   2.884   3.054  1.2760 -1.8664  3.0092
  259SOL    HW2  777   0.527   2.859   2.910  2.4155  0.0037 -2.5015
  260SOL     OW  778   2.673   0.757   2.686 -0.8822  0.1649  0.0918
  260SOL    HW1  779   2.588   0.818   2.686  0.3104  3.0132  2.2103
  260SOL    HW2  780   2.665   0.661   2.733  1.9493 -0.7488  1.3937
  261SOL     OW  781   2.710   1.298   1.351 -0.5957 -0.1011 -0.2169
  261SOL    HW1  782   2.655   1.234   1.286  0.3973  0.6572 -0.7252
  261SOL    HW2  783   2.815   1.291   1.336 -0.1393 -0.6483  0.9965
  262SOL     OW  784   1.491   2.950   2.060  0.0107 -0.0221  0.2477
  262SOL    HW1  785   1.525   3.028   1.998  1.6676  0.4568 -2.1344
  262SOL    HW2  786   1.438   2.881   2.004  1.2143  2.7679 -0.8018
  263SOL     OW  787   0.830   0.710   2.317  0.0269  0.0858  0.7097
  263SOL    HW1  788   0.747   0.644   2.313 -0.8840 -1.0862  0.0115
  263SOL    HW2  789   0.849   0.763   2.229  0.5641 -0.4956 -1.6882
  264SOL     OW  790   2.300   0.721   0.477  0.3508  0.6969  0.1042
  264SOL    HW1  791   2.207   0.733   0.426  3.0389 -0.1099 -0.7949
  264SOL    HW2  792   2.363   0.804   0.462  0.0447  1.8659 -1.5597
  265SOL     OW  793   0.913   2.278   2.710  0.0500  0.6070 -0.2568
  265SOL    HW1  794   0.973   2.348   2.759 -0.2437 -2.0142  1.2638
  265SOL    HW2  795   0.883   2.197   2.766  0.2061 -2.6803 -0.8207
  266SOL     OW  796   1.300   1.731   0.010 -0.5572  0.1790  0.0865
  266SOL    HW1  797   1.275   1.794   0.090 -1.6923  0.5583  0.8409
  266SOL    HW2  798   1.399   1.700   0.009  0.7705  1.1821  0.3501
  267SOL     OW  799   1.114   0.024   2.300 -0.2481  0.2047  0.5505
  267SOL    HW1  800   1.094  -0.059   2.240 -0.9554 -0.9468  2.1351
  267SOL    HW2  801   1.211   0.058   2.294 -0.5192  2.6763  0.3133
  268SOL     OW  802   0.681   1.141   1.093 -0.5213  0.3865  0.4610
  268SOL    HW1  803   0.703   1.167   1.193  1.9128 -3.0271 -1.2590
  268SOL    HW2  804   0.637   1.215   1.036  1.8972 -0.2255 -2.9386
  269SOL     OW  805   2.383   2.547   1.555  0.0963  0.5218  0.2332
  269SOL    HW1  806   2.454   2.469   1.546  0.2017  0.2725 -1.8747
  269SOL    HW2  807   2.349   2.566   1.652  0.7008  0.3909 -1.6371
  270SOL     OW  808   0.309   2.809   2.065 -0.2421 -0.7434  0.7477
  270SOL    HW1  809   0.324   2.815   1.961  1.8233  2.4573  1.7001
  270SOL    HW2  810   0.233   2.744   2.094 -1.6533 -1.4557 -1.5629
  271SOL     OW  811   0.376   1.382   1.150  0.0351  0.1786 -0.3738
  271SOL    HW1  812   0.352   1.373   1.047  1.5026 -1.9969 -5.2782
  271SOL    HW2  813   0.298   1.404   1.216  0.4907 -1.9307  1.4553
  272SOL     OW  814   1.978   2.811   1.904  0.0370  0.1586 -0.2441
  272SOL    HW1  815   1.899   2.771   1.847 -0.2293 -1.0492  0.3349
  272SOL    HW2  816   2.043   2.865   1.850  1.5006  0.3975 -1.1262
  273SOL     OW  817   1.414   1.462   2.884  0.1404 -0.7744  0.4621
  273SOL    HW1  818   1.502   1.422   2.925  2.9460  2.6864 -0.6247
  273SOL    HW2  819   1.332   1.472   2.948 -1.7230  0.2334  0.3507
  274SOL     OW  820   1.085   0.469   2.132  0.5251  0.3269 -0.1011
  274SOL    HW1  821   1.143   0.413   2.063 -1.4133 -1.1821 -1.7197
  274SOL    HW2  822   1.130   0.480   2.224 -0.6626 -1.5475 -4.1252
  275SOL     OW  823   0.678   2.090   1.880  0.4280 -0.5332 -0.0319
  275SOL    HW1  824   0.686   2.188   1.916 -1.1472  1.7123  1.7234
  275SOL    HW2  825   0.579   2.054   1.875 -0.9832 -0.5383  0.3990
  276SOL     OW  826   2.119   0.911   2.729  0.9304 -0.4328  0.1076
  276SOL    HW1  827   2.045   0.962   2.672  0.4859  1.6604  2.3334
  276SOL    HW2  828   2.085   0.833   2.787 -1.1772  4.4417  1.8446
  277SOL     OW  829   3.073   0.867   0.210  0.0395 -0.1296  0.0720
  277SOL    HW1  830   3.139   0.875   0.127  1.8548 -0.2430  0.6936
  277SOL    HW2  831   3.137   0.831   0.288  3.1710 -2.1729 -0.7321
  278SOL     OW  832   0.277   0.280   2.869 -0.0709 -0.2208  0.5783
  278SOL    HW1  833   0.374   0.241   2.867 -1.1601  0.8573 -0.5179
  278SOL    HW2  834   0.267   0.374   2.910 -0.9099  0.7872  2.9121
  279SOL     OW  835   0.118   0.047   0.903  0.2455  0.7923 -0.4522
  279SOL    HW1  836   0.163   0.041   0.995  2.9425 -2.2698  0.2804
  279SOL    HW2  837   0.195   0.046   0.833 -2.5042 -0.9882  0.6810
  280SOL     OW  838   1.627   2.982   2.490 -0.2912 -0.5998 -0.1835
  280SOL    HW1  839   1.673   3.015   2.580  0.8675  2.4274  0.8764
  280SOL    HW2  840   1.521   2.979   2.502  0.2383 -3.3948 -0.5350
  281SOL     OW  841   0.646   1.035   2.350  0.2004  0.5835  0.0948
  281SOL    HW1  842   0.578   0.989   2.285  0.0096  0.4319 -0.0063
  281SOL    HW2  843   0.702   0.967   2.407  2.8460 -0.1002 -0.3960
  282SOL     OW  844   1.658   2.515   0.562  0.2285 -0.5457  0.1118
  282SOL    HW1  845   1.586   2.458   0.513 -1.1187 -0.5293 -0.1653
  282SOL    HW2  846   1.640   2.618   0.537  0.9817  0.1534 -1.1713
  283SOL     OW  847   1.150   0.879   0.717 -0.7075  0.1004  0.0843
  283SOL    HW1  848   1.203   0.812   0.785 -0.9505 -2.1995  2.1181
  283SOL    HW2  849   1.051   0.886   0.739 -1.7195  0.7649 -2.6449
  284SOL     OW  850   2.206   2.825   2.415  0.3571 -0.3701  0.4139
  284SOL    HW1  851   2.233   2.878   2.503 -0.1783  2.9122  3.9214
  284SOL    HW2  852   2.220   2.879   2.331 -1.7586 -4.4589  1.0951
  285SOL     OW  853   1.365   3.054   2.539  1.0502 -0.1240 -0.6701
  285SOL    HW1  854   1.376   3.078   2.437 -0.3584  1.2040  3.9980
  285SOL    HW2  855   1.290   3.113   2.583  0.3062  2.0861  0.0055
  286SOL     OW  856   0.423   0.421   0.638  0.0301  0.3989 -0.0411
  286SOL    HW1  857   0.407   0.382   0.730  0.3687  1.2870  1.9797
  286SOL    HW2  858   0.427   0.341   0.577  1.1078 -1.3157 -0.7832
  287SOL     OW  859   0.085   1.309   2.544 -0.3007 -0.2101 -0.2012
  287SOL    HW1  860   0.086   1.233   2.611  0.2478 -0.4131  0.3370
  287SOL    HW2  861   0.028   1.386   2.575 -3.5316  0.4302  0.6130
  288SOL     OW  862   1.579   2.595   1.474  0.8185 -0.1853 -0.0975
  288SOL    HW1  863   1.672   2.609   1.493 -3.8130 -2.2649 -0.7796
  288SOL    HW2  864   1.552   2.605   1.372  1.4781 -0.8886 -0.3668
  289SOL     OW  865   0.625   2.708   0.852 -0.1649 -0.0917 -0.0465
  289SOL    HW1  866   0.664   2.777   0.782  1.7466  0.8605 -2.7166
  289SOL    HW2  867   0.626   2.739   0.950 -0.6134 -1.7841 -1.4814
  290SOL     OW  868   3.012   1.286   1.664 -0.3508  0.0948  0.0098
  290SOL    HW1  869   2.921   1.276   1.721 -1.8531 -0.5731 -2.9024
  290SOL    HW2  870   3.084   1.222   1.699 -1.2390 -0.9598 -1.1970
  291SOL     OW  871   1.989   0.047   0.122  0.0416 -0.2143 -0.7583
  291SOL    HW1  872   2.032  -0.004   0.200  0.7246  1.7291 -1.2689
  291SOL    HW2  873   2.049   0.122   0.084 -0.3049  0.1446  2.0502
  292SOL     OW  874   2.933   1.163   3.076  0.5690  0.5204  0.1719
  292SOL    HW1  875   2.867   1.228   3.028  1.9125  1.0751  1.1824
  292SOL    HW2  876   3.029   1.177   3.041 -1.2833 -0.4498 -2.1961
  293SOL     OW  877   0.543   2.124   0.177 -0.5307  0.6189 -0.5476
  293SOL    HW1  878   0.509   2.167   0.266 -1.3965 -2.5243  1.4470
  293SOL    HW2  879   0.636   2.080   0.181 -0.3556  1.1097 -2.3478
  294SOL     OW  880   1.603   2.133   1.817  0.5482 -1.0392  0.3116
  294SOL    HW1  881   1.627   2.170   1.908 -4.8792 -0.4866 -1.6745
  294SOL    HW2  882   1.661   2.165   1.736  2.6366  0.0798 -0.0214
  295SOL     OW  883   0.975   1.176   0.423  0.3796 -0.2518  0.3074
  295SOL    HW1  884   1.060   1.139   0.476  2.0803  1.2435 -0.6458
  295SOL    HW2  885   0.883   1.126   0.449 -0.2355  1.8392 -0.7150
  296SOL     OW  886   1.285   2.103   2.522 -0.2215 -0.1531 -0.6104
  296SOL    HW1  887   1.225   2.171   2.465  0.2269  0.5213  0.3627
  296SOL    HW2  888   1.291   2.006   2.486  1.9771  4.1363  2.9344
  297SOL     OW  889   1.490   0.703   1.398  0.2796  0.2791 -0.7608
  297SOL    HW1  890   1.562   0.630   1.406 -2.1013  0.2684  3.6794
  297SOL    HW2  891   1.518   0.786   1.455 -0.3540  0.6585  1.4832
  298SOL     OW  892   0.577   1.378   2.827 -0.5100 -0.4416  0.3315
  298SOL    HW1  893   0.559   1.284   2.869  0.1787  0.5421  1.0369
  298SOL    HW2  894   0.648   1.367   2.754 -0.3792 -3.0619 -1.0569
  299SOL     OW  895   0.357   0.387   1.510 -0.3017 -0.2315  0.1512
  299SOL    HW1  896   0.373   0.454   1.434  1.8022 -0.0947  2.1192
  299SOL    HW2  897   0.435   0.318   1.521  0.0228 -0.8893  1.5685
  300SOL     OW  898   1.246   1.827   2.859  0.7856  0.2197  0.0112
  300SOL    HW1  899   1.240   1.743   2.794  3.5118 -2.5785  0.3585
  300SOL    HW2  900   1.266   1.796   2.955  1.8108 -0.4831 -0.4364
  301SOL     OW  901   0.411   0.230   0.420  0.6800  0.8760  0.3236
  301SOL    HW1  902   0.312   0.222   0.388  0.6587  0.0837  0.3589
  301SOL    HW2  903   0.472   0.147   0.389 -1.2538 -2.0152  1.3081
  302SOL     OW  904   1.146   2.310   2.385  0.2259 -0.0097 -0.4843
  302SOL    HW1  905   1.088   2.393   2.400  2.7965 -2.5343 -1.8891
  302SOL    HW2  906   1.101   2.246   2.312 -1.7018 -3.2122 -2.1652
  303SOL     OW  907   0.927   2.406   0.773 -0.2914  0.0206  0.4668
  303SOL    HW1  908   0.978   2.485   0.728  0.9883  1.3139  0.4870
  303SOL    HW2  909   0.934   2.407   0.877 -0.1363  0.0547  0.0497
  304SOL     OW  910   0.074   1.989   0.662  0.1307  0.2762  0.9188
  304SOL    HW1  911   0.123   1.955   0.572  0.0950 -1.0877 -2.8058
  304SOL    HW2  912   0.035   2.079   0.633  4.3559 -2.4646 -2.1950
  305SOL     OW  913   1.621   0.865   0.679 -0.4349  0.3394  0.4338
  305SOL    HW1  914   1.580   0.879   0.586 -0.3467  0.9577 -0.6683
  305SOL    HW2  915   1.705   0.803   0.672  0.8681 -0.2102 -0.6387
  306SOL     OW  916   0.437   1.958   1.936 -0.6566 -0.0442 -0.3360
  306SOL    HW1  917   0.461   1.862   1.902  1.9361 -2.3775 -1.1798
  306SOL    HW2  918   0.410   1.964   2.039 -2.0503  1.3650  0.0851
  307SOL     OW  919   0.012   0.862   2.546 -0.4871 -0.5047  0.4480
  307SOL    HW1  920   0.017   0.944   2.605 -0.0621 -0.7143 -1.8813
  307SOL    HW2  921  -0.061   0.797   2.579 -0.9891  2.1702 -3.3135
  308SOL     OW  922   1.576   2.712   2.778 -0.2320 -0.7686  0.5037
  308SOL    HW1  923   1.511   2.707   2.695 -1.9969  1.4109 -0.9276
  308SOL    HW2  924   1.548   2.654   2.856  0.8932  0.3793 -3.9139
  309SOL     OW  925   1.244   0.028   1.800  0.6222 -0.4656  0.7773
  309SOL    HW1  926   1.344   0.026   1.836 -1.0887  0.2413 -3.2038
  309SOL    HW2  927   1.242   0.063   1.704  4.0166 -1.5890  2.8309
  310SOL     OW  928   1.435   2.632   0.743 -0.2707  0.0523 -0.7777
  310SOL    HW1  929   1.423   2.727   0.778 -0.7679 -0.7928 -4.1463
  310SOL    HW2  930   1.516   2.628   0.683 -2.9343  0.4868  1.0643
  311SOL     OW  931   1.218   1.023   1.458  0.3564 -0.3381 -0.1111
  311SOL    HW1  932   1.290   0.955   1.418  1.4175 -4.8279  2.2532
  311SOL    HW2  933   1.250   1.118   1.480 -0.8076 -1.3268  2.4537
  312SOL     OW  934   1.643   0.645   1.041 -0.3023  0.1063 -0.1463
  312SOL    HW1  935   1.639   0.748   1.028  0.6976 -0.4184 -1.2591
  312SOL    HW2  936   1.556   0.597   1.004  0.7577 -0.5320 -0.4169
  313SOL     OW  937   1.599   1.457   0.488  0.1598 -0.3679 -0.1084
  313SOL    HW1  938   1.502   1.443   0.517  0.0806  0.8099  1.0481
  313SOL    HW2  939   1.618   1.382   0.416 -4.6143 -0.4454 -2.2243
  314SOL     OW  940   2.963   0.089   3.087 -0.4332 -0.3649 -0.9444
  314SOL    HW1  941   2.975   0.102   3.189 -1.6355  1.1506 -1.1294
  314SOL    HW2  942   2.876   0.039   3.071 -0.2371  1.9927  0.3689
  315SOL     OW  943   1.293   0.259   2.753 -0.2381 -0.4209 -0.3600
  315SOL    HW1  944   1.227   0.228   2.680 -1.2249 -0.9699  1.0083
  315SOL    HW2  945   1.317   0.185   2.823 -1.1584 -2.0315  0.8427
  316SOL     OW  946   1.671   2.077   0.925  0.5794  0.1390 -0.1281
  316SOL    HW1  947   1.621   2.094   1.018  2.5637 -2.2675 -3.5930
  316SOL    HW2  948   1.691   2.170   0.880 -0.4561  3.7991  0.5446
  317SOL     OW  949   1.166   0.680   2.803  0.0056  0.2740 -0.0976
  317SOL    HW1  950   1.099   0.737   2.855 -2.9296 -0.0051  0.6791
  317SOL    HW2  951   1.126   0.593   2.765 -0.7367 -0.3908  2.4888
  318SOL     OW  952   1.390   3.081   2.282  0.4030  0.2335 -0.3328
  318SOL    HW1  953   1.408   3.182   2.256 -0.2764  3.5106 -1.5952
  318SOL    HW2  954   1.411   3.015   2.203 -0.9875  0.4849  1.2182
  319SOL     OW  955   0.659   2.397   2.926 -0.1855  0.3809 -0.2108
  319SOL    HW1  956   0.583   2.357   2.979  1.2412 -1.1291  0.0730
  319SOL    HW2  957   0.747   2.341   2.939 -1.9253 -2.0725  2.3744
  320SOL     OW  958   1.582   2.261   0.455 -0.0040 -0.0744 -0.1898
  320SOL    HW1  959   1.678   2.231   0.482 -1.4554  1.5072  1.6232
  320SOL    HW2  960   1.510   2.229   0.520 -1.1136  0.1075 -0.5996
  321SOL     OW  961   1.614   2.779   0.495  0.6733  0.6281 -0.1452
  321SOL    HW1  962   1.534   2.817   0.442  1.5138 -1.1228  1.4637
  321SOL    HW2  963   1.708   2.822   0.482  0.8473 -2.5307  0.0131
  322SOL     OW  964   2.650   1.149   2.289  0.7295 -0.7132 -0.4164
  322SOL    HW1  965   2.720   1.163   2.362 -0.7142 -2.4738 -2.7455
  322SOL    HW2  966   2.597   1.060   2.311  1.9620  1.1078  1.9048
  323SOL     OW  967   0.993   2.755   0.858  0.1341 -0.4294  0.6014
  323SOL    HW1  968   1.069   2.714   0.798  0.8196 -0.1223 -2.5286
  323SOL    HW2  969   1.014   2.858   0.865  1.4382 -2.9138 -0.9937
  324SOL     OW  970   0.093   2.511   2.405 -0.3976 -0.5138  0.2762
  324SOL    HW1  971   0.051   2.426   2.441  2.1693  2.2266  0.5418
  324SOL    HW2  972   0.062   2.594   2.457 -1.8397 -1.6142 -0.9227
  325SOL     OW  973   1.199   3.048   0.491  0.2047  0.5951 -0.0088
  325SOL    HW1  974   1.194   3.091   0.398 -1.0381  2.0439 -3.0771
  325SOL    HW2  975   1.192   3.119   0.568 -2.0333 -2.0694  2.5487
  326SOL     OW  976   2.313   0.830   0.088 -0.2243  0.0034  0.0203
  326SOL    HW1  977   2.238   0.787   0.033  2.5454 -1.2107 -0.9059
  326SOL    HW2  978   2.330   0.778   0.177  0.7952  0.5795  0.5412
  327SOL     OW  979   2.702   0.427   0.538 -0.2693  0.2451 -0.3419
  327SOL    HW1  980   2.731   0.386   0.446  0.5698  0.2194  0.5933
  327SOL    HW2  981   2.611   0.386   0.574 -2.0647  0.8078  0.1620
  328SOL     OW  982   2.556   0.613   0.358 -0.0441 -0.0022 -0.3436
  328SOL    HW1  983   2.466   0.656   0.383 -0.2111  3.9887 -1.2479
  328SOL    HW2  984   2.615   0.566   0.429 -2.8813 -2.6652  2.2800
  329SOL     OW  985   3.013   2.943   2.130 -0.2197 -0.1982  0.0128
  329SOL    HW1  986   3.069   2.902   2.206  2.3405  1.3631  0.7442
  329SOL    HW2  987   3.041   3.039   2.123  0.2132  1.9792 -0.1361
  330SOL     OW  988   0.486   0.209   1.889 -0.1276  0.5317 -0.6797
  330SOL    HW1  989   0.523   0.307   1.888 -0.7527  1.6884  2.7489
  330SOL    HW2  990   0.543   0.151   1.956  0.3133 -0.2605 -0.0669
  331SOL     OW  991   2.876   1.922   1.079 -0.2895  0.4736  0.3484
  331SOL    HW1  992   2.922   2.010   1.048  0.0620 -0.5607  0.4917
  331SOL    HW2  993   2.797   1.940   1.143 -3.5274  3.6708  2.1792
  332SOL     OW  994   0.405   1.020   0.024 -0.1003  0.2754  0.3665
  332SOL    HW1  995   0.334   0.982  -0.037 -1.4451  2.4343 -0.6973
  332SOL    HW2  996   0.371   1.076   0.109 -0.8054  1.4121  3.5562
  333SOL     OW  997   2.871   1.025   0.317 -0.1323  0.4658  0.1561
  333SOL    HW1  998   2.906   1.108   0.368 -1.6187 -2.5166  0.2653
  333SOL    HW2  999   2.948   0.973   0.263 -0.7682  1.5052  3.8525
  334SOL     OW 1000   1.633   1.150   1.893  0.0454 -0.0929 -0.1663
  334SOL    HW1 1001   1.714   1.134   1.827 -1.3137  1.6392 -0.7829
  334SOL    HW2 1002   1.639   1.230   1.955 -1.5176 -1.7357 -3.0581
  335SOL     OW 1003   1.903   2.810   2.624  0.6604 -0.1561 -0.3654
  335SOL    HW1 1004   2.002   2.803   2.656 -1.4601  0.2297  1.2762
  335SOL    HW2 1005   1.869   2.908   2.636  3.8001 -0.8432 -0.4188
  336SOL     OW 1006   0.217   0.070   2.712 -0.4071  0.0872 -0.0225
  336SOL    HW1 1007   0.305   0.007   2.709  1.0009 -0.2273 -2.4153
  336SOL    HW2 1008   0.232   0.164   2.756  1.4898 -1.0519 -1.4399
  337SOL     OW 1009   1.022   2.804   2.827 -0.2832 -0.0744  0.2980
  337SOL    HW1 1010   0.971   2.759   2.905  0.3881  0.6680  0.1885
  337SOL    HW2 1011   1.119   2.777   2.818 -1.1052 -0.3848  0.8909
  338SOL     OW 1012   0.017   1.028   0.646 -0.1306 -0.0425 -1.0153
  338SOL    HW1 1013  -0.078   0.995   0.670  2.4000  0.9613 -1.0434
  338SOL    HW2 1014   0.017   1.136   0.646 -3.4789 -0.9586  0.6027
  339SOL     OW 1015   1.705   1.384   2.027 -0.2556  0.4476  0.9393
  339SOL    HW1 1016   1.607   1.383   2.071 -0.8780  1.3583  0.1025
  339SOL    HW2 1017   1.747   1.479   2.016  1.9580  0.3581  0.4456
  340SOL     OW 1018   2.276   0.793   1.277  0.2122  0.1388  0.1764
  340SOL    HW1 1019   2.184   0.812   1.239  2.4250  0.6839  0.1370
  340SOL    HW2 1020   2.343   0.741   1.216  0.5595 -0.9897 -0.1638
  341SOL     OW 1021   1.839   2.174   0.453  0.7993 -0.4448  0.1943
  341SOL    HW1 1022   1.865   2.166   0.356  1.0082 -0.1058  0.5442
  341SOL    HW2 1023   1.917   2.208   0.514  2.9594  0.0621  3.2662
  342SOL     OW 1024   2.241   2.168   2.777 -0.1759  0.6489  0.5669
  342SOL    HW1 1025   2.325   2.106   2.780  2.7871 -0.8152 -1.4799
  342SOL    HW2 1026   2.148   2.119   2.777  2.9368  0.5114  2.6397
  343SOL     OW 1027   0.313   0.892   2.850 -0.2282 -0.2671  0.3316
  343SOL    HW1 1028   0.323   0.956   2.769 -0.8610 -1.7788  2.9350
  343SOL    HW2 1029   0.410   0.864   2.885 -0.1859 -2.3515  1.1306
  344SOL     OW 1030   1.913   1.463   0.287 -0.2593 -0.3625  0.1769
  344SOL    HW1 1031   1.846   1.389   0.265 -1.1875 -0.6375  1.6299
  344SOL    HW2 1032   1.897   1.549   0.236 -2.0913  2.5762  1.4876
  345SOL     OW 1033   1.474   2.219   2.884  0.0206 -0.2525 -0.5454
  345SOL    HW1 1034   1.380   2.185   2.859 -2.3195  1.4937  1.5044
  345SOL    HW2 1035   1.547   2.180   2.819 -1.1074 -0.6816 -1.8506
  346SOL     OW 1036   2.370   0.875   1.525  1.1635  0.1454 -0.0574
  346SOL    HW1 1037   2.347   0.977   1.543 -2.1589  0.6828  0.6389
  346SOL    HW2 1038   2.328   0.847   1.437  1.7496  0.3924  1.6950
  347SOL     OW 1039   0.688   2.842   1.546 -0.4778 -0.2172 -0.6399
  347SOL    HW1 1040   0.689   2.797   1.641 -2.8523  0.1857  0.6208
  347SOL    HW2 1041   0.608   2.905   1.529 -0.5578 -1.3290 -1.1231
  348SOL     OW 1042   0.129   0.706   2.827 -0.0190 -0.1935 -0.2399
  348SOL    HW1 1043   0.040   0.747   2.784 -0.5860  1.1320  2.9460
  348SOL    HW2 1044   0.208   0.777   2.823 -2.4270 -0.2841 -0.7137
  349SOL     OW 1045   1.939   0.472   2.719 -0.0221  0.1902  0.3062
  349SOL    HW1 1046   1.884   0.536   2.661 -2.0760 -3.4750 -0.2260
  349SOL    HW2 1047   1.897   0.464   2.814  0.2320 -0.8428  0.7955
  350SOL     OW 1048   1.687   0.373   0.343  0.1495  0.3454  0.1671
  350SOL    HW1 1049   1.742   0.400   0.427  2.8408  1.3904  1.6083
  350SOL    HW2 1050   1.633   0.444   0.291 -0.5581 -2.6676 -2.5233
  351SOL     OW 1051   0.895   0.893   2.121  0.7480  0.2707 -0.0988
  351SOL    HW1 1052   0.914   0.994   2.094  1.4425  4.8160 -1.1623
  351SOL    HW2 1053   0.848   0.838   2.044  0.1393 -0.6134 -0.3327
  352SOL     OW 1054   1.962   1.374   0.544  0.6363 -0.2116  0.2866
  352SOL    HW1 1055   1.940   1.410   0.449 -0.0350  1.0862  1.8130
  352SOL    HW2 1056   2.031   1.430   0.599  0.3272  2.1853  2.0344
  353SOL     OW 1057   2.122   2.799   1.190  0.2662  0.0699 -0.3214
  353SOL    HW1 1058   2.219   2.754   1.193  2.2488 -1.1867  3.2610
  353SOL    HW2 1059   2.050   2.742   1.137  0.4742  0.6687  3.0643
  354SOL     OW 1060   0.288   1.365   2.934  0.2233  0.2458 -0.2731
  354SOL    HW1 1061   0.249   1.445   2.877  0.6162 -0.3297  0.9330
  354SOL    HW2 1062   0.391   1.363   2.932 -0.6634  0.9593 -0.4442
  355SOL     OW 1063   0.451   1.482   0.475  0.3518  0.5653  0.9812
  355SOL    HW1 1064   0.501   1.570   0.487  0.6933  0.3477 -2.5675
  355SOL    HW2 1065   0.520   1.407   0.471  1.0395  2.6969  1.8019
  356SOL     OW 1066   0.773   0.392   2.077  0.3783  0.3356 -0.0644
  356SOL    HW1 1067   0.854   0.445   2.115  2.6420  0.3985  0.7286
  356SOL    HW2 1068   0.795   0.293   2.057 -2.2303 -0.8683 -0.6069
  357SOL     OW 1069   1.078   1.316   0.175 -0.6211  0.1227 -0.1103
  357SOL    HW1 1070   1.053   1.247   0.101 -0.2340 -1.8538 -0.0927
  357SOL    HW2 1071   1.032   1.282   0.262 -1.6384  1.3846 -0.4280
  358SOL     OW 1072   1.599   1.643   0.273  0.4437 -0.2744  0.0755
  358SOL    HW1 1073   1.611   1.562   0.336 -1.3780  0.2492 -0.4382
  358SOL    HW2 1074   1.554   1.725   0.312  0.4166 -2.0987 -1.4298
  359SOL     OW 1075   1.569   2.707   0.118  0.0533  0.2720  0.1339
  359SOL    HW1 1076   1.575   2.621   0.063 -0.7759 -1.8129 -2.0433
  359SOL    HW2 1077   1.496   2.701   0.190  0.2105  0.7587 -0.9142
  360SOL     OW 1078   0.830   0.574   0.442  0.4956  0.1780 -0.0479
  360SOL    HW1 1079   0.752   0.583   0.508 -2.3422 -0.8345  2.1688
  360SOL    HW2 1080   0.866   0.473   0.442  1.7412 -0.5348  0.5684
  361SOL     OW 1081   1.282   1.375   0.635 -0.2280 -0.1023 -0.2254
  361SOL    HW1 1082   1.326   1.373   0.731 -0.1237  0.3585  0.9601
  361SOL    HW2 1083   1.181   1.399   0.628  0.0510  0.1981 -1.1504
  362SOL     OW 1084   1.374   1.739   0.801  0.5047  0.1204 -0.4608
  362SOL    HW1 1085   1.411   1.683   0.882 -0.6295 -2.1908 -1.7167
  362SOL    HW2 1086   1.442   1.816   0.780 -0.1809 -0.8846  3.5778
  363SOL     OW 1087   1.126   1.273   2.055 -0.3560  0.2224 -0.1945
  363SOL    HW1 1088   1.092   1.366   2.083  0.4289 -0.0972  0.0174
  363SOL    HW2 1089   1.188   1.276   1.972  0.7459 -0.3767  2.4707
  364SOL     OW 1090   0.570   2.389   1.976  0.2656 -0.1544  0.7921
  364SOL    HW1 1091   0.468   2.384   1.977  0.7040 -1.8083 -2.0350
  364SOL    HW2 1092   0.609   2.394   1.882 -1.0655 -2.1116 -0.5102
  365SOL     OW 1093   1.137   1.752   1.438  0.2457  0.5752  0.3005
  365SOL    HW1 1094   1.065   1.799   1.498  0.4281  0.0562  0.4389
  365SOL    HW2 1095   1.132   1.646   1.438  2.5754  0.8077 -0.4890
  366SOL     OW 1096   2.833   2.076   0.488  0.0066  0.2381  0.3217
  366SOL    HW1 1097   2.751   2.014   0.506 -2.6301  1.7987 -2.2356
  366SOL    HW2 1098   2.904   2.036   0.425  1.4331 -0.1389 -1.2897
  367SOL     OW 1099   0.838   1.173   0.080 -0.1478  0.0590 -0.0254
  367SOL    HW1 1100   0.863   1.103   0.153  0.3082  0.8825 -1.8153
  367SOL    HW2 1101   0.846   1.124  -0.010 -2.0016  0.6138  3.1300
  368SOL     OW 1102   1.498   0.500   0.600 -0.0114  0.1421 -0.5219
  368SOL    HW1 1103   1.441   0.559   0.541  1.1986 -0.7987  1.8626
  368SOL    HW2 1104   1.598   0.487   0.573 -0.9644  0.7170  0.0777
  369SOL     OW 1105   0.261   1.665   0.139  0.4502  0.3890 -0.4130
  369SOL    HW1 1106   0.266   1.766   0.162  2.2855 -4.1948 -1.0640
  369SOL    HW2 1107   0.170   1.622   0.167 -0.1675  0.8688 -3.8341
  370SOL     OW 1108   0.458   2.120   0.980  0.1417  0.0550 -0.0307
  370SOL    HW1 1109   0.457   2.221   0.950 -1.8842 -0.5659 -3.0607
  370SOL    HW2 1110   0.366   2.079   0.958  0.2115  0.7016  1.6768
  371SOL     OW 1111   2.974   2.158   2.786  0.1215  0.1931  0.2715
  371SOL    HW1 1112   2.986   2.152   2.889 -1.2957  2.1048 -1.0147
  371SOL    HW2 1113   3.043   2.219   2.740  1.7828  4.0240 -0.4241
  372SOL     OW 1114   0.857   1.931   1.010  0.3185 -0.2399 -0.1292
  372SOL    HW1 1115   0.883   2.031   1.020 -0.4970  0.2977  2.2349
  372SOL    HW2 1116   0.889   1.896   0.917  0.4824  0.4267  1.1531
  373SOL     OW 1117   1.921   1.940   0.913  0.5155 -0.7196 -0.0284
  373SOL    HW1 1118   1.995   1.953   0.982  0.5672 -0.1622 -0.5475
  373SOL    HW2 1119   1.832   1.988   0.947 -0.4478  1.0681  0.1534
  374SOL     OW 1120   1.809   0.440   0.573 -0.1940  0.0890 -0.1761
  374SOL    HW1 1121   1.791   0.397   0.670  1.4958 -1.7781  1.0388
  374SOL    HW2 1122   1.903   0.413   0.550 -0.5827 -1.1767  1.0941
  375SOL     OW 1123   2.461   2.323   1.171 -0.0251  0.1432 -1.0145
  375SOL    HW1 1124   2.505   2.284   1.085  1.1382 -0.3138  0.8205
  375SOL    HW2 1125   2.492   2.273   1.262  0.6389 -1.0500  0.6298
  376SOL     OW 1126   3.029   0.665   1.481 -0.0117 -0.0217  0.1403
  376SOL    HW1 1127   3.086   0.733   1.536 -0.4026 -3.9040  0.2709
  376SOL    HW2 1128   2.926   0.684   1.467 -1.7271  0.0506  1.1130
  377SOL     OW 1129   2.167   2.817   0.312  0.3193 -0.5936  0.3309
  377SOL    HW1 1130   2.089   2.885   0.338 -1.2483 -0.2030 -0.2081
  377SOL    HW2 1131   2.261   2.845   0.343 -2.1002 -2.6802 -0.4862
  378SOL     OW 1132   1.868   1.820   2.688  0.2521 -0.1297 -0.3428
  378SOL    HW1 1133   1.954   1.765   2.668  0.9672  2.4324  0.8002
  378SOL    HW2 1134   1.794   1.765   2.739 -0.3239  1.7163 -0.6517
  379SOL     OW 1135   0.866   0.126   2.674  0.5128 -0.5678  0.2981
  379SOL    HW1 1136   0.863   0.021   2.662  0.3104 -1.3442 -2.0898
  379SOL    HW2 1137   0.818   0.176   2.598  0.3926 -0.9847  0.5496
  380SOL     OW 1138   1.599   1.137   0.505 -0.7462 -0.7460  0.2003
  380SOL    HW1 1139   1.535   1.056   0.509  3.6069 -0.8967  1.5812
  380SOL    HW2 1140   1.586   1.197   0.591  1.3959  0.2749  0.9258
  381SOL     OW 1141   1.304   1.272   1.493 -0.0455 -0.1445  0.7361
  381SOL    HW1 1142   1.337   1.355   1.436 -1.5603  0.0283 -2.6589
  381SOL    HW2 1143   1.366   1.256   1.575 -0.5378  1.2301 -1.4057
  382SOL     OW 1144   1.730   0.795   0.233 -0.4844  0.3405  0.5291
  382SOL    HW1 1145   1.737   0.765   0.135 -0.6124  1.3271  2.9759
  382SOL    HW2 1146   1.826   0.808   0.276  3.3831 -0.9189 -0.9653
  383SOL     OW 1147   2.634   1.009   1.528  0.3486 -0.3267 -0.2190
  383SOL    HW1 1148   2.554   0.991   1.465  2.8158  0.6148  3.4866
  383SOL    HW2 1149   2.724   1.022   1.471  2.9504  1.7719 -2.8008
  384SOL     OW 1150   1.025   2.304   0.131 -0.1918 -0.1550 -0.4878
  384SOL    HW1 1151   0.948   2.369   0.165 -0.5367  1.0462  2.5044
  384SOL    HW2 1152   1.036   2.229   0.194  1.1954  1.3771 -2.4974
  385SOL     OW 1153   2.954   2.037   1.681  0.1155  0.2125 -0.3606
  385SOL    HW1 1154   3.043   2.085   1.675  1.2327  2.1329 -0.1382
  385SOL    HW2 1155   2.968   1.938   1.688 -2.2390  3.9545 -1.5643
  386SOL     OW 1156   0.405   1.066   0.426  0.1625 -0.0655  0.0199
  386SOL    HW1 1157   0.395   0.966   0.452 -1.7253 -2.7085  0.6263
  386SOL    HW2 1158   0.347   1.099   0.350 -1.1731 -1.2651  1.7598
  387SOL     OW 1159   1.031   0.346   1.701 -0.3246  0.4631  0.0194
  387SOL    HW1 1160   1.060   0.435   1.664 -0.1372  0.6229  1.5810
  387SOL    HW2 1161   1.002   0.280   1.621 -0.6488  0.3811 -1.6679
  388SOL     OW 1162   1.255   2.554   1.775  0.1034  0.4591 -0.5200
  388SOL    HW1 1163   1.252   2.524   1.677 -0.4802 -0.8116  2.0294
  388SOL    HW2 1164   1.303   2.479   1.832 -0.0521 -1.3363 -0.3819
  389SOL     OW 1165   0.228   0.011   1.151 -0.0342 -0.1118 -0.7925
  389SOL    HW1 1166   0.191  -0.033   1.237 -0.0626  0.5949 -0.6712
  389SOL    HW2 1167   0.278  -0.054   1.089  2.7131 -1.6427 -1.3326
  390SOL     OW 1168   1.066   0.851   1.191  0.7845  0.1820 -0.3850
  390SOL    HW1 1169   1.166   0.824   1.184 -1.8895  1.6644  0.5176
  390SOL    HW2 1170   1.023   0.853   1.286 -2.1448  1.0704  1.2617
  391SOL     OW 1171   2.099   1.145   1.112 -0.5580 -0.2935 -0.5287
  391SOL    HW1 1172   2.047   1.059   1.150 -3.1249 -1.4149  0.7027
  391SOL    HW2 1173   2.134   1.132   1.014  3.1387 -1.3963 -1.1867
  392SOL     OW 1174   0.930   2.722   3.061 -0.0704 -0.2695 -0.0085
  392SOL    HW1 1175   0.852   2.717   3.127  0.9819  1.0037 -0.6925
  392SOL    HW2 1176   0.993   2.796   3.099 -1.1416 -0.0073  0.7743
  393SOL     OW 1177   0.347   0.596   1.986  0.5750 -0.2791  0.2913
  393SOL    HW1 1178   0.267   0.528   1.984  1.4560 -1.8067 -0.2474
  393SOL    HW2 1179   0.425   0.561   1.927  0.5128  0.3935  1.1799
  394SOL     OW 1180   2.811   1.835   2.751 -0.3051 -0.5164  0.0161
  394SOL    HW1 1181   2.891   1.814   2.684  3.0016  0.6810  0.5633
  394SOL    HW2 1182   2.800   1.934   2.771  2.6566  1.8025 -2.4630
  395SOL     OW 1183   1.539   1.951   0.715  0.4621 -0.1050  0.1240
  395SOL    HW1 1184   1.617   1.905   0.661 -3.3911  0.7040 -2.2590
  395SOL    HW2 1185   1.570   1.999   0.807 -0.0731  1.7213 -1.6528
  396SOL     OW 1186   2.740   1.947   1.316 -0.0978  0.3709  0.3510
  396SOL    HW1 1187   2.710   2.021   1.383 -2.9568  0.2556 -0.0337
  396SOL    HW2 1188   2.670   1.871   1.317  0.3859 -1.6363  0.4106
  397SOL     OW 1189   0.945   2.155   0.634 -0.2213 -0.0257  0.0754
  397SOL    HW1 1190   0.838   2.167   0.630  1.5105  0.3444  0.3425
  397SOL    HW2 1191   0.984   2.237   0.685  0.5410 -0.6603 -0.6102
  398SOL     OW 1192   2.227   3.071   1.154 -0.2727  0.4921 -1.1291
  398SOL    HW1 1193   2.186   2.977   1.170 -0.9445 -1.2310 -1.0389
  398SOL    HW2 1194   2.160   3.137   1.107  2.5226 -0.9484 -0.2553
  399SOL     OW 1195   2.888   2.604   2.801  0.3058 -0.0627 -0.3129
  399SOL    HW1 1196   2.862   2.533   2.726 -2.4542 -1.1551 -3.2660
  399SOL    HW2 1197   2.832   2.583   2.890  1.5907  0.0451  3.4653
  400SOL     OW 1198   0.814   1.582   1.294 -0.0736 -0.6126  0.4748
  400SOL    HW1 1199   0.751   1.615   1.370  1.6748 -0.0657 -0.1609
  400SOL    HW2 1200   0.785   1.623   1.202  2.7306  1.1311 -0.6616
  401SOL     OW 1201   1.870   0.150   1.272 -0.1509  0.4138  0.0272
  401SOL    HW1 1202   1.898   0.221   1.345  0.0959 -0.3662 -0.4687
  401SOL    HW2 1203   1.784   0.101   1.302  2.2345  0.9661  0.1451
  402SOL     OW 1204   1.396   0.144   3.020 -0.3143 -0.0494  0.1780
  402SOL    HW1 1205   1.479   0.128   2.967 -2.0712 -2.0159 -1.8107
  402SOL    HW2 1206   1.392   0.218   3.090  0.9391  2.7269  0.4537
  403SOL     OW 1207   2.258   1.853   0.943  0.2062  0.1284  0.3006
  403SOL    HW1 1208   2.362   1.852   0.952 -0.9848  0.1038  1.3972
  403SOL    HW2 1209   2.224   1.945   0.976 -0.3568  1.5048  1.8558
  404SOL     OW 1210   0.215   2.496   2.773 -0.0382  0.2938 -0.4284
  404SOL    HW1 1211   0.306   2.474   2.731 -1.4034  0.1936  0.6391
  404SOL    HW2 1212   0.198   2.599   2.792 -1.5927  0.2880  0.5408
  405SOL     OW 1213   0.184   2.553   0.556 -0.0319 -0.5146 -0.0505
  405SOL    HW1 1214   0.218   2.455   0.566  1.0603  0.1777  1.7727
  405SOL    HW2 1215   0.256   2.624   0.574 -2.7004 -1.5194 -1.6420
  406SOL     OW 1216   0.041   1.639   3.005 -0.1496 -0.0777  1.1963
  406SOL    HW1 1217   0.100   1.613   2.920  3.6498 -1.6080 -0.3335
  406SOL    HW2 1218   0.086   1.621   3.094  0.0812  2.7505 -0.9849
  407SOL     OW 1219   1.527   0.904   0.934  0.7611  0.2904 -0.1922
  407SOL    HW1 1220   1.544   0.853   0.845  0.8509  0.7567 -0.4422
  407SOL    HW2 1221   1.490   0.996   0.903  0.9389  0.3377  0.4952
  408SOL     OW 1222   1.463   2.321   0.913  0.2501 -0.2335  0.1011
  408SOL    HW1 1223   1.514   2.288   0.831  1.3105  0.4430 -0.5814
  408SOL    HW2 1224   1.486   2.416   0.943 -1.4729  0.3546 -0.5450
  409SOL     OW 1225   0.611   0.840   0.698 -0.1256  0.2134 -0.4387
  409SOL    HW1 1226   0.514   0.831   0.660  1.4608 -0.2444  0.4727
  409SOL    HW2 1227   0.657   0.745   0.683 -1.7022  1.8455  0.2156
  410SOL     OW 1228   1.352   1.908   1.472 -0.1025 -0.1867 -0.3473
  410SOL    HW1 1229   1.306   2.003   1.492 -3.3130 -0.6095 -0.1277
  410SOL    HW2 1230   1.272   1.845   1.445  0.7005  2.9329  2.2300
  411SOL     OW 1231   2.368   1.866   0.061 -0.0499  0.1214  0.0642
  411SOL    HW1 1232   2.276   1.859   0.022  3.0836 -1.8237  0.8122
  411SOL    HW2 1233   2.436   1.897  -0.011  0.4646 -1.6209 -1.0393
  412SOL     OW 1234   1.634   2.446   2.245 -0.3726 -0.3729  0.2376
  412SOL    HW1 1235   1.653   2.546   2.225 -2.7688 -2.0699 -1.2438
  412SOL    HW2 1236   1.535   2.438   2.271  1.7618  2.0374  0.5693
  413SOL     OW 1237   3.075   0.233   2.911 -0.6065 -0.0004 -0.0221
  413SOL    HW1 1238   3.043   0.173   2.995  2.0869  1.7592  0.0829
  413SOL    HW2 1239   3.181   0.230   2.895  0.6840 -1.4040 -0.5013
  414SOL     OW 1240   1.712   1.362   1.399  0.0701 -0.2274 -0.9389
  414SOL    HW1 1241   1.629   1.422   1.436 -3.5284  2.2906  2.9527
  414SOL    HW2 1242   1.703   1.325   1.306 -0.2402  1.1686  1.8190
  415SOL     OW 1243   0.223   2.263   0.678 -0.5207 -0.1541 -0.8452
  415SOL    HW1 1244   0.257   2.244   0.773 -0.0647 -0.1053  3.1190
  415SOL    HW2 1245   0.122   2.266   0.662 -2.3591  0.5794  2.3659
  416SOL     OW 1246   0.316   1.080   1.089  0.0694 -0.1579  0.0858
  416SOL    HW1 1247   0.310   1.053   0.992 -2.3392  0.1840  0.6375
  416SOL    HW2 1248   0.352   1.180   1.096  2.0469 -0.5815 -0.7137
  417SOL     OW 1249   2.209   2.322   1.835  0.1130  0.3579  0.4554
  417SOL    HW1 1250   2.269   2.245   1.868 -0.5919  1.1418 -0.0351
  417SOL    HW2 1251   2.126   2.328   1.900  1.0034 -0.1352  2.0008
  418SOL     OW 1252   1.157   0.567   1.348 -0.1327 -0.3558 -0.1776
  418SOL    HW1 1253   1.058   0.554   1.312 -0.4034 -1.2774  1.8355
  418SOL    HW2 1254   1.230   0.517   1.296 -4.0195  5.3059  1.6526
  419SOL     OW 1255   0.955   0.384   2.986  0.1123  0.0576  0.3166
  419SOL    HW1 1256   0.998   0.417   2.897  0.4609 -1.6856 -0.3239
  419SOL    HW2 1257   0.890   0.303   2.973 -2.9386  2.4400  0.4614
  420SOL     OW 1258   0.201   2.211   0.314 -0.2243  0.6861  0.5688
  420SOL    HW1 1259   0.162   2.184   0.221 -1.3716 -4.1552 -2.2333
  420SOL    HW2 1260   0.118   2.235   0.374  1.3752 -0.2032  3.0020
  421SOL     OW 1261   0.291   0.054   0.697  0.1738  0.0712  0.3003
  421SOL    HW1 1262   0.344  -0.021   0.645  0.2173  0.0869  1.3380
  421SOL    HW2 1263   0.360   0.119   0.737  0.1104 -1.9378  0.0831
  422SOL     OW 1264   0.912   2.542   0.998  0.4021 -0.2662  0.3490
  422SOL    HW1 1265   0.926   2.621   0.927 -1.5070 -2.7157  0.6971
  422SOL    HW2 1266   0.952   2.561   1.095  0.3041 -1.3519  0.8901
  423SOL     OW 1267   0.055   0.651   1.217 -0.1614  0.6523 -0.1301
  423SOL    HW1 1268   0.022   0.640   1.319 -0.6227  1.3485  1.8836
  423SOL    HW2 1269  -0.006   0.602   1.151  2.9791  1.0762  0.5247
  424SOL     OW 1270   1.017   2.167   2.214 -0.0302  0.2199 -0.0779
  424SOL    HW1 1271   0.980   2.218   2.131 -0.2405  1.3464  1.5498
  424SOL    HW2 1272   0.943   2.131   2.279 -0.0426 -0.2365  2.4011
  425SOL     OW 1273   2.079   1.420   1.127 -0.2445  0.0438  0.0322
  425SOL    HW1 1274   2.078   1.318   1.129 -3.2531  2.0705 -0.2164
  425SOL    HW2 1275   2.125   1.465   1.043  1.4303 -2.7223 -1.6160
  426SOL     OW 1276   1.448   1.552   1.439  0.5005 -0.1375 -0.1769
  426SOL    HW1 1277   1.436   1.625   1.370  0.5630  0.2869  1.2256
  426SOL    HW2 1278   1.453   1.589   1.536  0.0842 -0.0343  1.2475
  427SOL     OW 1279   1.985   2.336   2.027  0.0462 -0.2128 -0.3134
  427SOL    HW1 1280   2.005   2.284   2.116 -0.5003  3.0695 -3.2618
  427SOL    HW2 1281   1.988   2.435   2.045 -1.3283 -2.7336 -0.6403
  428SOL     OW 1282   0.912   0.019   0.060 -0.0453  0.1707 -0.3061
  428SOL    HW1 1283   0.946   0.104   0.107  1.2753  0.4546 -0.9875
  428SOL    HW2 1284   0.986  -0.057   0.061  2.5739 -0.8693  1.4804
  429SOL     OW 1285   1.242   0.065   0.232 -0.5052  0.0800 -0.0887
  429SOL    HW1 1286   1.327   0.125   0.253  3.5865  1.2185  2.1459
  429SOL    HW2 1287   1.279  -0.016   0.185  1.2632  1.1486 -1.3039
  430SOL     OW 1288   2.783   1.453   0.277 -0.1105  0.5003  0.7226
  430SOL    HW1 1289   2.764   1.504   0.186 -1.4599  0.2137  0.3819
  430SOL    HW2 1290   2.809   1.522   0.348  0.7466 -1.8478 -2.9168
  431SOL     OW 1291   2.131   1.593   0.928 -0.3649  0.1269 -0.2031
  431SOL    HW1 1292   2.204   1.658   0.958 -0.9285 -1.2487  1.2407
  431SOL    HW2 1293   2.041   1.637   0.895 -0.7151  2.0353  3.9857
  432SOL     OW 1294   2.942   2.158   1.281 -0.1883  0.4605 -0.6651
  432SOL    HW1 1295   2.868   2.096   1.319 -0.7410 -1.3798 -0.0728
  432SOL    HW2 1296   2.940   2.258   1.299 -0.8842  0.2524 -0.1945
  433SOL     OW 1297   1.843   0.362   0.839  0.4928 -1.3775 -0.2305
  433SOL    HW1 1298   1.781   0.296   0.892  0.9856 -2.0277 -0.1913
  433SOL    HW2 1299   1.898   0.412   0.908 -2.0403 -3.1320 -1.8436
  434SOL     OW 1300   1.467   0.222   0.743  0.2612 -0.2236 -0.2164
  434SOL    HW1 1301   1.457   0.298   0.670 -1.5832  2.1475 -2.4445
  434SOL    HW2 1302   1.506   0.254   0.835 -1.3324 -2.4679 -1.1712
  435SOL     OW 1303   1.439   1.383   2.085  0.3388  0.1994 -0.4575
  435SOL    HW1 1304   1.393   1.395   2.175  1.1116 -1.1254 -0.4048
  435SOL    HW2 1305   1.400   1.434   2.006 -0.1660  0.1443  1.5738
  436SOL     OW 1306   1.674   2.704   2.434  0.0805 -0.4976  0.2617
  436SOL    HW1 1307   1.682   2.793   2.487 -0.8042 -1.7854  2.5389
  436SOL    HW2 1308   1.605   2.645   2.490 -1.8679  0.6942  2.2844
  437SOL     OW 1309   1.039   3.029   0.871 -0.5554 -0.0982 -0.2118
  437SOL    HW1 1310   1.006   3.115   0.829 -2.3945 -0.6955  0.6676
  437SOL    HW2 1311   1.063   3.052   0.970  0.8663  0.9376  1.9596
  438SOL     OW 1312   1.003   2.572   1.260 -0.1761 -0.3826  0.3816
  438SOL    HW1 1313   1.067   2.650   1.286 -0.7638  1.0201 -2.5271
  438SOL    HW2 1314   1.031   2.485   1.312 -1.2678  1.0062 -0.1486
  439SOL     OW 1315   0.729   1.692   1.069 -0.1990 -0.4742 -0.1337
  439SOL    HW1 1316   0.783   1.782   1.066 -1.7736 -1.2647 -0.2802
  439SOL    HW2 1317   0.633   1.704   1.110 -1.2664  0.3895  0.2251
  440SOL     OW 1318   0.934   2.324   2.010  0.5283  0.4774 -0.0257
  440SOL    HW1 1319   0.970   2.418   1.976  0.1819 -0.2368 -2.4338
  440SOL    HW2 1320   0.968   2.250   1.946 -2.0034 -1.8799  0.3472
  441SOL     OW 1321   0.361   2.797   1.309  0.0141  0.5678  0.4463
  441SOL    HW1 1322   0.414   2.704   1.297 -0.3129 -0.8716 -0.3484
  441SOL    HW2 1323   0.338   2.833   1.215  0.1212 -1.8041 -0.1924
  442SOL     OW 1324   2.224   0.687   2.559 -0.1102 -0.5747  0.1362
  442SOL    HW1 1325   2.222   0.618   2.482  0.0480 -0.5379  1.5878
  442SOL    HW2 1326   2.135   0.744   2.562 -0.6156  1.1656  1.5934
  443SOL     OW 1327   1.340   2.487   2.255 -0.7467  0.1948 -0.5288
  443SOL    HW1 1328   1.291   2.406   2.300  1.2685  0.9707  1.7059
  443SOL    HW2 1329   1.297   2.580   2.280  2.9151  0.5597 -0.9757
  444SOL     OW 1330   0.942   1.118   1.420 -0.5526  0.6913  0.6472
  444SOL    HW1 1331   1.043   1.087   1.439  0.4615  2.1100 -0.6637
  444SOL    HW2 1332   0.944   1.217   1.389  2.1793  2.0659  0.9982
  445SOL     OW 1333   0.157   2.101   2.012  0.0260  0.1821  0.0948
  445SOL    HW1 1334   0.172   2.012   2.059  1.9040  0.2076  2.6074
  445SOL    HW2 1335   0.112   2.167   2.076  0.2942 -2.7282 -0.4941
  446SOL     OW 1336   0.149   1.996   2.384 -0.6385 -0.1494  0.0480
  446SOL    HW1 1337   0.116   2.091   2.355 -1.9334  3.1768 -1.0906
  446SOL    HW2 1338   0.133   1.922   2.311  1.9220 -0.3380 -2.0957
  447SOL     OW 1339   1.333   1.573   1.884 -0.6565  0.9667  0.6848
  447SOL    HW1 1340   1.277   1.632   1.821 -0.6232  2.1571  1.6425
  447SOL    HW2 1341   1.403   1.625   1.941  0.5832  0.3711  2.5468
  448SOL     OW 1342   0.143   1.472   2.027 -0.0542  0.0547 -0.0168
  448SOL    HW1 1343   0.134   1.553   1.966 -0.2504 -1.2918  2.1681
  448SOL    HW2 1344   0.097   1.487   2.120  0.5959 -0.2449  2.2111
  449SOL     OW 1345   1.864   3.025   0.834  0.2167  0.2811 -0.1678
  449SOL    HW1 1346   1.884   3.035   0.941  1.1040 -1.3914  2.6977
  449SOL    HW2 1347   1.876   2.924   0.811 -1.5114  1.8391  2.5680
  450SOL     OW 1348   2.156   1.503   0.674  0.0877 -0.2729  0.1748
  450SOL    HW1 1349   2.136   1.529   0.775 -0.0074 -0.3866 -0.1933
  450SOL    HW2 1350   2.213   1.582   0.629  1.4174 -1.6253  1.9340
  451SOL     OW 1351   1.394   2.979   1.499  0.5933 -0.2548 -0.2235
  451SOL    HW1 1352   1.321   3.049   1.534 -0.1523  2.0275 -0.2189
  451SOL    HW2 1353   1.438   2.909   1.568 -1.2652  0.2749 -1.9680
  452SOL     OW 1354   2.685   2.289   2.256  0.0054  1.1501  0.0429
  452SOL    HW1 1355   2.629   2.377   2.268 -1.8031  2.0575  1.3113
  452SOL    HW2 1356   2.722   2.257   2.348 -2.1491  0.3008  1.6023
  453SOL     OW 1357   2.481   2.689   0.008  0.1887 -0.4628  0.1474
  453SOL    HW1 1358   2.389   2.711   0.039  1.9021  2.1672 -2.5612
  453SOL    HW2 1359   2.478   2.612  -0.061  0.0393  1.4941 -2.1592
  454SOL     OW 1360   0.868   1.170   2.011  0.2570 -0.1284  0.6313
  454SOL    HW1 1361   0.843   1.175   1.910  1.3886 -0.8015 -0.2125
  454SOL    HW2 1362   0.969   1.170   2.023 -0.2558  0.0052 -0.9069
  455SOL     OW 1363   0.794   2.607   2.783 -0.2725  0.4038 -0.4346
  455SOL    HW1 1364   0.893   2.634   2.791  1.3123 -2.8013  1.4784
  455SOL    HW2 1365   0.768   2.540   2.863  0.0382 -2.8091  2.0613
  456SOL     OW 1366   0.296   1.937   0.188 -0.0308 -0.4715  0.6466
  456SOL    HW1 1367   0.395   1.973   0.186  0.5152 -1.4819 -2.6951
  456SOL    HW2 1368   0.227   2.000   0.144  2.0198  0.3941  2.2992
  457SOL     OW 1369   0.412   2.705   0.633  0.2584 -0.3462  0.0791
  457SOL    HW1 1370   0.471   2.751   0.558  1.7902  0.4865 -0.3098
  457SOL    HW2 1371   0.469   2.633   0.676 -2.2316 -0.6895 -0.2275
  458SOL     OW 1372   2.971   0.016   1.306  0.1292 -0.2547 -0.4649
  458SOL    HW1 1373   3.044   0.078   1.265 -2.6510  2.5680 -1.9270
  458SOL    HW2 1374   2.941  -0.062   1.241  0.6323 -1.9206 -1.0068
  459SOL     OW 1375   2.113   2.541   0.749 -0.1069 -0.5996 -0.3196
  459SOL    HW1 1376   2.190   2.568   0.816  2.5826 -0.7649 -1.6852
  459SOL    HW2 1377   2.159   2.542   0.653 -1.1547  1.0138  2.5587
  460SOL     OW 1378   1.223   2.092   2.801 -0.0719 -0.6425 -0.1613
  460SOL    HW1 1379   1.226   2.107   2.699  0.4247 -0.6685  2.4871
  460SOL    HW2 1380   1.227   1.991   2.827 -4.0308 -1.1548  1.7466
  461SOL     OW 1381   0.471   2.116   2.717 -0.1244 -0.2171  0.7975
  461SOL    HW1 1382   0.371   2.094   2.727  2.4868 -0.4295 -0.9661
  461SOL    HW2 1383   0.526   2.032   2.748 -1.4615 -1.4982  1.1635
  462SOL     OW 1384   0.980   1.047   1.735 -0.3753 -0.2352 -0.4471
  462SOL    HW1 1385   0.981   0.993   1.646 -0.3991  0.2302 -0.6254
  462SOL    HW2 1386   0.895   1.109   1.741  0.9234 -1.5171 -0.9914
  463SOL     OW 1387   0.414   0.790   0.501  0.5623 -0.3050  0.0073
  463SOL    HW1 1388   0.444   0.720   0.434 -2.1847 -0.3663  0.0115
  463SOL    HW2 1389   0.309   0.788   0.510 -0.4499 -3.3956  2.7935
  464SOL     OW 1390   0.551   2.338   2.290 -0.5941 -0.0727 -0.0877
  464SOL    HW1 1391   0.491   2.411   2.341 -1.1437  0.8645  0.9033
  464SOL    HW2 1392   0.553   2.359   2.187  0.1382  0.8202 -1.0919
  465SOL     OW 1393   0.236   0.949   0.812  0.1322  0.4990  0.0307
  465SOL    HW1 1394   0.157   0.971   0.748  0.1788  2.1079 -0.5627
  465SOL    HW2 1395   0.263   0.851   0.811  2.1049  0.4672  0.0508
  466SOL     OW 1396   1.366   1.136   0.849 -0.5011  0.7610 -0.0999
  466SOL    HW1 1397   1.356   1.226   0.896  0.0502  0.1132 -0.0582
  466SOL    HW2 1398   1.278   1.078   0.850  0.9732 -0.8280 -0.3089
  467SOL     OW 1399   0.590   0.454   2.530  0.9358 -0.4162  1.1296
  467SOL    HW1 1400   0.525   0.532   2.556  1.1909  2.0338 -0.4170
  467SOL    HW2 1401   0.596   0.366   2.589 -1.1749 -1.3179 -1.4837
  468SOL     OW 1402   0.485   2.276   1.614 -0.0634 -0.3053 -0.5571
  468SOL    HW1 1403   0.568   2.335   1.641 -0.0558 -0.3900 -0.1194
  468SOL    HW2 1404   0.498   2.239   1.516 -0.8114  0.9207 -1.9259
  469SOL     OW 1405   1.451   1.350   1.201 -0.5644  0.1032  0.3556
  469SOL    HW1 1406   1.541   1.347   1.151  0.1551 -1.3941  1.1069
  469SOL    HW2 1407   1.429   1.437   1.255  0.4792  0.9513 -0.5156
  470SOL     OW 1408   2.960   1.843   0.802  0.4924  0.1360 -0.0142
  470SOL    HW1 1409   3.035   1.880   0.743 -1.3774  0.2623  1.5591
  470SOL    HW2 1410   2.988   1.836   0.901 -0.2715 -0.9630 -0.1052
  471SOL     OW 1411   2.684   1.391   2.162  0.4563 -0.0208  0.7090
  471SOL    HW1 1412   2.668   1.298   2.203 -0.9244 -1.1429 -0.7917
  471SOL    HW2 1413   2.698   1.455   2.239 -1.6516 -2.5122  0.5337
  472SOL     OW 1414   1.284   2.402   0.047  0.5935 -0.3982  0.5520
  472SOL    HW1 1415   1.338   2.317   0.057  0.7372 -0.3815  2.7219
  472SOL    HW2 1416   1.185   2.380   0.067 -0.2441  0.3561  2.6827
  473SOL     OW 1417   1.067   1.489   0.964  0.0916  0.3636 -0.2195
  473SOL    HW1 1418   0.965   1.481   0.941 -0.1270 -0.4170 -0.7784
  473SOL    HW2 1419   1.101   1.410   1.021  0.0478  1.0553 -0.7512
  474SOL     OW 1420   0.621   1.271   0.417  0.5276  0.3005  0.3965
  474SOL    HW1 1421   0.542   1.204   0.420  0.9812  0.3555 -3.4324
  474SOL    HW2 1422   0.701   1.225   0.471  0.8418 -0.5723  2.7964
  475SOL     OW 1423   2.895   0.004   0.887 -0.1698  0.2778 -0.3800
  475SOL    HW1 1424   2.929   0.086   0.941 -1.5482 -0.6452 -1.0365
  475SOL    HW2 1425   2.792   0.004   0.860  1.3350  0.4225 -5.0315
  476SOL     OW 1426   0.971   3.067   1.821 -0.1463  0.5650  0.2145
  476SOL    HW1 1427   1.076   3.089   1.827  0.1120 -1.3005  1.0347
  476SOL    HW2 1428   0.945   3.052   1.718  3.8339 -3.2535 -1.0183
  477SOL     OW 1429   1.472   0.302   2.452 -0.0821  0.1858  0.1745
  477SOL    HW1 1430   1.488   0.348   2.541 -0.7511 -0.9866 -0.5028
  477SOL    HW2 1431   1.534   0.222   2.436 -2.4444  2.6595 -3.2935
  478SOL     OW 1432   2.270   1.954   0.343 -0.3349 -0.1189  0.4940
  478SOL    HW1 1433   2.181   1.910   0.368  2.7967  1.5940  1.7156
  478SOL    HW2 1434   2.341   1.887   0.303  0.1718 -3.4948 -2.1146
  479SOL     OW 1435   1.291   1.033   2.890  0.1255 -0.2834 -0.4723
  479SOL    HW1 1436   1.374   1.033   2.835  0.7705 -1.4567  2.0568
  479SOL    HW2 1437   1.221   0.973   2.848 -1.1971 -2.0550 -0.6411
  480SOL     OW 1438   2.634   2.246   0.429  0.0972  0.2132  0.3126
  480SOL    HW1 1439   2.707   2.196   0.484  1.8371 -0.9463  1.4943
  480SOL    HW2 1440   2.542   2.227   0.467  0.6518  0.1836 -2.4755
  481SOL     OW 1441   0.942   1.107   0.736 -0.0070  0.1783 -0.4464
  481SOL    HW1 1442   0.993   1.177   0.677 -1.2136 -3.0329  2.7624
  481SOL    HW2 1443   0.989   1.094   0.829 -0.1539 -1.5563 -0.9626
  482SOL     OW 1444   1.577   0.278   2.007 -0.2168 -0.0322  0.4525
  482SOL    HW1 1445   1.596   0.381   1.995 -0.0612 -1.2060 -2.3572
  482SOL    HW2 1446   1.663   0.225   2.035 -0.0498  2.6272  2.2928
  483SOL     OW 1447   0.173   2.357   1.206 -0.4087  0.7355 -0.4288
  483SOL    HW1 1448   0.160   2.419   1.285  2.5119 -0.7571 -3.7826
  483SOL    HW2 1449   0.197   2.404   1.113  2.6419 -0.9176 -3.1279
  484SOL     OW 1450   1.727   1.055   1.444 -0.1464 -0.6166  0.1874
  484SOL    HW1 1451   1.819   1.001   1.437  1.2523  0.2775 -0.3152
  484SOL    HW2 1452   1.748   1.158   1.448  1.8277 -2.3309 -1.8398
  485SOL     OW 1453   0.795   0.738   1.921 -0.2294  0.0250  0.2265
  485SOL    HW1 1454   0.743   0.754   1.833 -0.6054  0.5778  1.2436
  485SOL    HW2 1455   0.883   0.684   1.911 -2.0317  0.3884  0.8055
  486SOL     OW 1456   0.916   1.835   2.474 -0.2132  0.8627  0.2365
  486SOL    HW1 1457   0.916   1.817   2.576  1.9832 -2.7831  3.1411
  486SOL    HW2 1458   0.912   1.935   2.453 -1.7664  0.1263  0.6845
  487SOL     OW 1459   1.760   1.557   1.041 -0.2697  0.0902 -0.2948
  487SOL    HW1 1460   1.786   1.455   1.048 -1.6568  0.4935  0.6358
  487SOL    HW2 1461   1.815   1.600   0.963 -1.7690  0.7306 -2.5335
  488SOL     OW 1462   2.873   0.862   2.291  0.5309 -0.8631 -0.4085
  488SOL    HW1 1463   2.972   0.841   2.314  0.0875 -1.1158 -2.6190
  488SOL    HW2 1464   2.807   0.794   2.339  0.2867 -1.5737  0.1446
  489SOL     OW 1465   2.876   0.316   1.285 -0.8688  0.1131  0.1883
  489SOL    HW1 1466   2.849   0.309   1.384  1.3166  1.2158  1.2863
  489SOL    HW2 1467   2.964   0.266   1.269 -2.3834  2.2094  0.0025
  490SOL     OW 1468   1.531   3.004   2.786 -0.3903  0.5615  0.1746
  490SOL    HW1 1469   1.544   2.901   2.793 -2.8335 -0.7794  0.6618
  490SOL    HW2 1470   1.481   3.026   2.699 -2.2576  0.6419  0.2154
  491SOL     OW 1471   1.785   1.524   2.735 -0.0097 -0.6210  0.7623
  491SOL    HW1 1472   1.775   1.449   2.802 -2.0731 -0.9665  1.6205
  491SOL    HW2 1473   1.878   1.564   2.723  1.8751  0.1485  1.1252
  492SOL     OW 1474   0.684   2.158   0.586  0.0361 -0.7000  0.2494
  492SOL    HW1 1475   0.670   2.168   0.686  1.3476  2.7210  3.4781
  492SOL    HW2 1476   0.594   2.174   0.535  1.7933 -0.6445  0.7316
  493SOL     OW 1477   0.388   1.345   2.099  0.1647 -0.3391 -0.0547
  493SOL    HW1 1478   0.296   1.379   2.064  0.4415  1.5790  1.1552
  493SOL    HW2 1479   0.393   1.246   2.128 -0.2376  0.9365 -0.4763
  494SOL     OW 1480   2.723   2.654   0.152 -0.2153 -0.1154  0.3209
  494SOL    HW1 1481   2.722   2.640   0.252 -2.6265 -0.4321  1.6276
  494SOL    HW2 1482   2.627   2.654   0.114 -2.1429 -1.2687 -2.0944
  495SOL     OW 1483   2.541   2.804   2.685  0.2178 -0.0117 -0.6062
  495SOL    HW1 1484   2.528   2.703   2.695 -2.2088  2.8846 -0.6316
  495SOL    HW2 1485   2.617   2.834   2.622 -0.6226  0.2704 -4.8004
  496SOL     OW 1486   1.997   2.237   0.846 -0.0008  0.2191  0.1531
  496SOL    HW1 1487   2.046   2.146   0.819 -0.5561 -0.7542 -0.2403
  496SOL    HW2 1488   2.040   2.293   0.923 -1.3730  1.9673  0.2239
  497SOL     OW 1489   0.351   2.976   2.349  0.2274 -0.2798 -0.4528
  497SOL    HW1 1490   0.287   3.037   2.395  1.9161 -3.3933 -0.9688
  497SOL    HW2 1491   0.382   3.008   2.257  0.0918  1.2007  2.4929
  498SOL     OW 1492   1.142   1.279   1.139  0.8820  0.1864  0.6218
  498SOL    HW1 1493   1.243   1.282   1.165 -1.0677 -1.1553  0.6314
  498SOL    HW2 1494   1.085   1.322   1.218 -0.7006  1.3784 -2.1827
  499SOL     OW 1495   0.628   1.680   0.456 -0.2065  0.4257  0.2747
  499SOL    HW1 1496   0.620   1.682   0.351  0.7929  0.9668 -1.6271
  499SOL    HW2 1497   0.685   1.760   0.490  0.8328 -1.5157 -0.2603
  500SOL     OW 1498   1.467   2.790   1.656 -0.4308  0.0544  0.2884
  500SOL    HW1 1499   1.449   2.772   1.756  2.1365  0.5982 -2.8275
  500SOL    HW2 1500   1.509   2.713   1.599  0.7377  1.3810 -0.5296
  501SOL     OW 1501   0.811   1.254   2.254 -0.5942 -0.2871  0.5074
  501SOL    HW1 1502   0.734   1.196   2.289  0.7929 -1.4365 -0.8483
  501SOL    HW2 1503   0.830   1.242   2.151 -0.0979  0.9307  2.6999
  502SOL     OW 1504   2.531   0.956   1.782 -0.0050 -0.3972  0.0432
  502SOL    HW1 1505   2.560   0.967   1.678 -1.6252  1.1469  1.2979
  502SOL    HW2 1506   2.534   0.857   1.813  0.2022 -2.9345  0.9734
  503SOL     OW 1507   1.194   0.135   0.686  0.4467 -0.5057  0.0409
  503SOL    HW1 1508   1.127   0.218   0.689  0.1430  1.1557  4.5579
  503SOL    HW2 1509   1.290   0.166   0.706 -0.0779  1.9497 -1.1517
  504SOL     OW 1510   2.958   2.383   1.492 -0.5347  0.2441  0.7837
  504SOL    HW1 1511   2.889   2.432   1.547  4.4300  0.6863  0.2283
  504SOL    HW2 1512   3.007   2.311   1.546 -0.9004 -2.5720 -0.2870
  505SOL     OW 1513   2.337   1.164   1.519 -0.3727 -0.3715 -0.4743
  505SOL    HW1 1514   2.327   1.190   1.418  1.0766  2.2720 -1.8214
  505SOL    HW2 1515   2.378   1.245   1.567  1.6601  1.6537 -0.9456
  506SOL     OW 1516   1.932   0.245   1.899 -0.4640 -0.1398  0.3415
  506SOL    HW1 1517   2.021   0.191   1.886 -0.1495 -1.2134 -1.0016
  506SOL    HW2 1518   1.947   0.352   1.908 -0.9372 -1.5674 -0.6732
  507SOL     OW 1519   0.501   0.767   2.171 -0.4717 -0.1689 -0.3195
  507SOL    HW1 1520   0.447   0.701   2.118  1.1538  1.9177 -2.9640
  507SOL    HW2 1521   0.577   0.712   2.218 -2.2966 -1.1722 -1.4046
  508SOL     OW 1522   0.320   1.629   0.812 -0.0715 -0.2206 -0.9263
  508SOL    HW1 1523   0.419   1.655   0.791 -0.7714  2.9180 -1.7664
  508SOL    HW2 1524   0.288   1.692   0.892  0.8689  4.1559  1.3041
  509SOL     OW 1525   1.278   1.181   2.438  0.1356 -0.0291  0.2919
  509SOL    HW1 1526   1.301   1.162   2.336 -0.0177  1.2031 -2.3999
  509SOL    HW2 1527   1.179   1.166   2.470 -0.7226 -2.3944  4.2999
  510SOL     OW 1528   1.405   2.043   2.167  0.6325 -0.1113  0.7935
  510SOL    HW1 1529   1.340   2.110   2.117 -0.4302  1.4613 -2.0044
  510SOL    HW2 1530   1.382   1.944   2.167  2.3153  2.2720  4.0606
  511SOL     OW 1531   2.997   2.641   1.391  0.4164  0.3276 -0.4466
  511SOL    HW1 1532   2.933   2.672   1.314  0.5365 -0.3877 -0.5623
  511SOL    HW2 1533   2.982   2.539   1.415 -1.1593  0.0610 -1.7035
  512SOL     OW 1534   2.386   0.434   1.373 -0.2515  0.1136 -0.6066
  512SOL    HW1 1535   2.293   0.449   1.334 -0.8700  0.0794  1.9150
  512SOL    HW2 1536   2.452   0.370   1.323  0.3661 -2.3450  1.7335
  513SOL     OW 1537   2.587   2.158   0.958 -0.5772 -0.4087 -0.7779
  513SOL    HW1 1538   2.522   2.213   0.903  2.5103 -1.7089  0.7440
  513SOL    HW2 1539   2.660   2.117   0.895  1.6346  0.8654 -0.2333
  514SOL     OW 1540   0.569   2.798   0.431 -0.2895  0.0478  0.6499
  514SOL    HW1 1541   0.607   2.827   0.343 -1.3864 -0.3676  1.3485
  514SOL    HW2 1542   0.634   2.836   0.508  0.8730 -2.1569  0.6401
  515SOL     OW 1543   1.945   1.349   2.391 -0.4641  0.0272  0.9871
  515SOL    HW1 1544   1.951   1.317   2.292  2.8719 -1.1880  2.7688
  515SOL    HW2 1545   1.863   1.311   2.440  0.3282 -0.1594 -1.3755
  516SOL     OW 1546   0.220   0.149   1.924  0.6405 -0.3645  0.2771
  516SOL    HW1 1547   0.311   0.185   1.887  0.4236 -0.1570 -1.3686
  516SOL    HW2 1548   0.168   0.080   1.860 -0.9813  3.1772 -0.6611
  517SOL     OW 1549   0.479   0.248   1.118  0.3825  0.1318 -0.5277
  517SOL    HW1 1550   0.544   0.212   1.191 -0.5530  1.0413 -1.2683
  517SOL    HW2 1551   0.387   0.198   1.109  2.1966  2.1494 -2.9341
  518SOL     OW 1552   2.239   3.050   1.867 -0.3297 -0.5018  0.5955
  518SOL    HW1 1553   2.235   3.154   1.858 -1.0116 -1.0467 -2.4732
  518SOL    HW2 1554   2.230   3.003   1.776 -1.6678  0.0118  2.8695
  519SOL     OW 1555   2.384   2.242   2.531 -0.1993 -0.3043  0.2675
  519SOL    HW1 1556   2.294   2.236   2.583  0.2054  0.3573 -1.7170
  519SOL    HW2 1557   2.439   2.322   2.561 -1.3675 -0.2079 -0.8295
  520SOL     OW 1558   1.784   2.635   1.712 -0.4077 -0.0513 -0.2948
  520SOL    HW1 1559   1.735   2.609   1.799 -2.7350 -0.2588  0.2495
  520SOL    HW2 1560   1.864   2.572   1.687 -1.8208  1.5416 -1.7115
  521SOL     OW 1561   0.618   0.089   2.157  0.8249 -0.3126 -0.3030
  521SOL    HW1 1562   0.529   0.048   2.141  2.1505  0.3343  0.6857
  521SOL    HW2 1563   0.648   0.082   2.258 -2.6839 -0.5443  0.1498
  522SOL     OW 1564   0.198   1.894   1.547  0.1834  0.9391  0.0174
  522SOL    HW1 1565   0.255   1.970   1.589 -1.1313  0.2666 -2.3511
  522SOL    HW2 1566   0.172   1.927   1.451  0.5300  0.6633 -0.5749
  523SOL     OW 1567   2.211   2.996   1.585 -0.4515 -0.1922 -0.0422
  523SOL    HW1 1568   2.298   2.937   1.561  4.5201 -3.4305 -2.4820
  523SOL    HW2 1569   2.133   2.950   1.536  0.7289 -0.2305 -0.7076
  524SOL     OW 1570   0.204   2.748   2.804 -0.3538  0.1188  0.6484
  524SOL    HW1 1571   0.176   2.767   2.900 -1.1665 -0.7635 -3.3202
  524SOL    HW2 1572   0.311   2.756   2.793  2.5127 -1.7704  0.3732
  525SOL     OW 1573   2.146   2.144   0.499 -0.4465 -0.4293  0.0801
  525SOL    HW1 1574   2.102   2.085   0.571 -1.2481  0.6919 -1.6700
  525SOL    HW2 1575   2.191   2.082   0.430 -0.2713 -2.2846 -2.4452
  526SOL     OW 1576   0.417   1.483   1.672 -0.3142 -0.0258  0.0195
  526SOL    HW1 1577   0.458   1.562   1.728 -1.2770  1.5170  2.2343
  526SOL    HW2 1578   0.425   1.396   1.726 -1.9335  1.8865 -1.2517
  527SOL     OW 1579   1.143   3.072   1.124  0.3673  0.0236 -0.5610
  527SOL    HW1 1580   1.165   2.997   1.191  0.8855 -2.6199 -0.5800
  527SOL    HW2 1581   1.214   3.146   1.101 -0.6333  1.1540  0.2753
  528SOL     OW 1582   1.310   2.426   0.629 -0.4251  0.4174  0.1276
  528SOL    HW1 1583   1.340   2.330   0.651  0.8576 -2.6099  0.8958
  528SOL    HW2 1584   1.375   2.500   0.674  0.3852 -0.7784 -4.3356
  529SOL     OW 1585   1.883   1.686   0.808 -0.3630  0.6676  0.2358
  529SOL    HW1 1586   1.804   1.690   0.743 -0.5461 -1.7279 -0.8775
  529SOL    HW2 1587   1.910   1.778   0.844 -1.0020  0.2624 -1.5043
  530SOL     OW 1588   0.479   2.553   0.146 -0.2547 -0.4085 -0.5396
  530SOL    HW1 1589   0.476   2.520   0.243  0.4528  1.8776 -1.2849
  530SOL    HW2 1590   0.468   2.477   0.077 -1.6472 -1.5731 -1.3169
  531SOL     OW 1591   1.791   0.962   1.033  0.7105  0.3671  0.1754
  531SOL    HW1 1592   1.806   0.969   0.930 -0.0070 -0.2549 -0.8120
  531SOL    HW2 1593   1.690   0.944   1.049 -0.2316  0.8771  1.2169
  532SOL     OW 1594   0.389   1.141   0.690  0.3458  0.5531  0.0671
  532SOL    HW1 1595   0.407   1.132   0.587  0.3930  3.1198 -3.3805
  532SOL    HW2 1596   0.330   1.066   0.732  0.5443  1.7302 -0.5781
  533SOL     OW 1597   1.828   3.081   2.661 -0.6830 -0.0250  0.0037
  533SOL    HW1 1598   1.932   3.100   2.666 -2.4119  1.8687 -1.8034
  533SOL    HW2 1599   1.783   3.176   2.665  0.1239  0.9726  0.0053
  534SOL     OW 1600   0.186   0.186   1.566 -0.6623 -0.0470 -0.0433
  534SOL    HW1 1601   0.245   0.274   1.557 -0.4692 -3.1370 -1.7045
  534SOL    HW2 1602   0.083   0.213   1.564  1.7703 -0.5537 -2.3857
  535SOL     OW 1603   1.886   0.398   0.173  0.6402 -0.3116 -0.0292
  535SOL    HW1 1604   1.916   0.492   0.213  1.4576 -1.9235  1.2611
  535SOL    HW2 1605   1.820   0.349   0.236 -6.6807  0.2877  3.5669
  536SOL     OW 1606   1.220   2.491   0.920  0.2913 -0.5160 -0.1787
  536SOL    HW1 1607   1.298   2.436   0.886 -0.7597  2.4156 -0.1977
  536SOL    HW2 1608   1.163   2.532   0.845  0.4007  0.7910 -0.9210
  537SOL     OW 1609   0.910   0.202   2.311 -0.1424  0.5418 -0.1105
  537SOL    HW1 1610   0.845   0.164   2.243  0.7428 -2.6638  1.0613
  537SOL    HW2 1611   0.997   0.148   2.312  0.8424 -1.3845  1.1832
  538SOL     OW 1612   1.746   2.210   1.609 -0.4042 -0.1269  0.4604
  538SOL    HW1 1613   1.690   2.142   1.554  0.1573  1.5944  0.2935
  538SOL    HW2 1614   1.792   2.274   1.541  0.4636 -1.2638 -4.1391
  539SOL     OW 1615   0.170   1.561   2.775 -0.3547 -0.4270  0.0543
  539SOL    HW1 1616   0.085   1.539   2.718  2.9121  1.2174  2.8683
  539SOL    HW2 1617   0.250   1.597   2.718 -2.5204  0.1733 -0.4923
  540SOL     OW 1618   2.695   1.791   2.126 -0.5110 -0.2039  0.4401
  540SOL    HW1 1619   2.619   1.721   2.125 -1.3187  1.1747 -2.1877
  540SOL    HW2 1620   2.662   1.872   2.075 -1.4179 -2.5860  0.9207
  541SOL     OW 1621   0.446   2.323   0.024 -0.7483 -0.6639  0.2852
  541SOL    HW1 1622   0.487   2.238   0.069  0.6827  0.7748 -0.2955
  541SOL    HW2 1623   0.367   2.299  -0.038  3.0206  2.8733  1.0350
  542SOL     OW 1624   2.181   2.587   0.482 -0.4106 -0.4265 -0.2744
  542SOL    HW1 1625   2.164   2.668   0.418 -3.4812  0.1346  1.4737
  542SOL    HW2 1626   2.099   2.520   0.481  0.9533  2.0927  1.0003
  543SOL     OW 1627   1.105   1.708   1.787  0.1691  0.7403 -0.6172
  543SOL    HW1 1628   1.127   1.772   1.863 -1.1149  1.0696 -0.8206
  543SOL    HW2 1629   1.051   1.758   1.708  0.1557 -1.3152 -1.0772
  544SOL     OW 1630   0.844   0.493   0.105 -0.4885 -0.1387  0.2487
  544SOL    HW1 1631   0.894   0.443   0.184  0.0980 -2.6066 -1.2823
  544SOL    HW2 1632   0.876   0.460   0.012  0.2401  2.0399 -0.1759
  545SOL     OW 1633   1.146   1.727   0.623 -0.3821 -0.4922  0.0253
  545SOL    HW1 1634   1.234   1.687   0.658 -0.8275  0.1653 -1.3481
  545SOL    HW2 1635   1.147   1.757   0.522 -1.2881 -1.3022  1.8701
  546SOL     OW 1636   2.676   1.610   0.033  0.6683 -0.3009 -0.5865
  546SOL    HW1 1637   2.700   1.620  -0.070  1.7113  0.8872  3.5857
  546SOL    HW2 1638   2.588   1.557   0.047  2.1517  0.5005  1.8407
  547SOL     OW 1639   0.464   3.043   2.725  0.2878 -0.0237 -0.2002
  547SOL    HW1 1640   0.489   2.968   2.654  0.5384  0.1803 -0.9440
  547SOL    HW2 1641   0.450   3.011   2.828 -0.1537  1.2846  0.2257
  548SOL     OW 1642   2.071   0.776   2.971  0.2530 -0.4875 -0.2782
  548SOL    HW1 1643   1.974   0.751   2.978 -3.3892  0.8087  0.0050
  548SOL    HW2 1644   2.091   0.876   2.996 -2.3407 -0.5769  1.9834
  549SOL     OW 1645   0.576   0.466   0.062  0.1752 -0.2740  0.4042
  549SOL    HW1 1646   0.560   0.548  -0.000 -0.2990 -1.1051  1.8170
  549SOL    HW2 1647   0.676   0.459   0.085 -2.3414  1.6198 -2.7512
  550SOL     OW 1648   2.527   2.901   2.942 -0.5360  0.4135 -0.9171
  550SOL    HW1 1649   2.518   2.819   3.005  1.2554  0.4236  0.7033
  550SOL    HW2 1650   2.516   2.867   2.844  1.9223 -3.8554  0.8363
  551SOL     OW 1651   0.275   0.815   0.230 -0.3165  0.7568 -0.0954
  551SOL    HW1 1652   0.362   0.758   0.206 -0.0801 -0.7901 -1.5030
  551SOL    HW2 1653   0.250   0.806   0.328  0.5637 -0.3813 -0.5563
  552SOL     OW 1654   0.857   2.821   1.902  0.0666  0.4798 -0.0741
  552SOL    HW1 1655   0.801   2.812   1.987 -1.0137 -0.5023  0.3611
  552SOL    HW2 1656   0.905   2.912   1.888 -0.9955 -0.7150  0.0981
  553SOL     OW 1657   0.002   2.555   0.349 -0.2658  0.1227  0.2912
  553SOL    HW1 1658  -0.072   2.483   0.361 -1.8137 -1.2130  1.0964
  553SOL    HW2 1659   0.045   2.589   0.437  0.5652 -1.5675  0.0651
  554SOL     OW 1660   2.109   0.343   0.499  0.0804  0.3955  0.1609
  554SOL    HW1 1661   2.093   0.299   0.407  1.4457 -0.7657 -1.7202
  554SOL    HW2 1662   2.097   0.281   0.582 -1.5746  2.2543 -1.6834
  555SOL     OW 1663   0.519   2.861   2.547  0.1037  0.3622 -0.4249
  555SOL    HW1 1664   0.453   2.889   2.474  1.2390  2.1243  1.6833
  555SOL    HW2 1665   0.600   2.807   2.509  1.7455 -3.7672  0.5467
  556SOL     OW 1666   0.983   2.351   1.617  0.0940  0.4966  0.3197
  556SOL    HW1 1667   0.998   2.428   1.684  1.2332  2.6559  0.1957
  556SOL    HW2 1668   1.019   2.373   1.524  0.2211 -1.4458  1.4792
  557SOL     OW 1669   0.118   2.114   0.075 -0.4190  0.0805  0.1047
  557SOL    HW1 1670   0.028   2.071   0.048 -0.6505  2.2350  1.8832
  557SOL    HW2 1671   0.156   2.170  -0.007  1.7144 -0.5145 -0.2711
  558SOL     OW 1672   2.990   2.312   0.281  0.4373 -0.0402 -0.2199
  558SOL    HW1 1673   2.920   2.246   0.255  1.9475  2.1151  1.0336
  558SOL    HW2 1674   3.027   2.354   0.194 -0.2006  0.9805  0.1680
  559SOL     OW 1675   0.439   2.263   1.353 -0.2148  0.1442  0.2044
  559SOL    HW1 1676   0.357   2.292   1.300 -0.8310 -0.8481  0.7114
  559SOL    HW2 1677   0.475   2.172   1.314 -0.0378 -1.0831 -0.4908
  560SOL     OW 1678   2.094   1.048   3.025 -0.2975  0.5540 -0.5236
  560SOL    HW1 1679   2.084   1.097   2.937 -0.3583 -1.1155 -1.2863
  560SOL    HW2 1680   2.048   1.087   3.109 -1.4888  0.0730 -1.8328
  561SOL     OW 1681   3.005   1.965   0.055  0.4742  0.3155  0.6603
  561SOL    HW1 1682   2.989   1.861   0.040 -0.6746 -0.9330  2.0418
  561SOL    HW2 1683   2.944   2.025  -0.004  0.5427 -0.6572  1.0446
  562SOL     OW 1684   0.856   2.109   2.463 -0.3770  0.4220  0.3325
  562SOL    HW1 1685   0.759   2.087   2.482 -0.0429 -0.0957  0.9181
  562SOL    HW2 1686   0.887   2.175   2.536  1.8859 -2.9615 -2.4404
  563SOL     OW 1687   0.692   2.571   2.547 -0.4187  0.3703  0.0401
  563SOL    HW1 1688   0.635   2.485   2.547  1.9291  1.2679  2.6592
  563SOL    HW2 1689   0.730   2.588   2.643 -3.4790 -1.3388  0.0207
  564SOL     OW 1690   2.762   1.340   2.934 -0.0778 -0.2459  0.3553
  564SOL    HW1 1691   2.665   1.329   2.963 -1.7625  3.3085  1.6669
  564SOL    HW2 1692   2.788   1.442   2.924  0.5061  0.9639 -4.6013
  565SOL     OW 1693   2.571   2.038   2.596 -0.2052 -0.2540 -0.2647
  565SOL    HW1 1694   2.518   2.106   2.533 -1.3521  2.6346 -1.4941
  565SOL    HW2 1695   2.621   2.093   2.668 -1.5890  1.1961 -0.3240
  566SOL     OW 1696   2.025   2.808   1.462  0.4092  0.4465 -0.1667
  566SOL    HW1 1697   2.061   2.713   1.498 -0.2233 -1.2719 -2.6427
  566SOL    HW2 1698   2.058   2.825   1.366 -0.6348  0.0912  3.0943
  567SOL     OW 1699   2.394   0.070   2.221 -0.0412  0.5834 -0.3175
  567SOL    HW1 1700   2.416   0.044   2.123 -1.3482 -1.4984  0.4636
  567SOL    HW2 1701   2.292   0.077   2.230  0.6573  1.0744 -2.7804
  568SOL     OW 1702   1.391   1.802   0.437  0.4310  0.0519  0.6756
  568SOL    HW1 1703   1.359   1.874   0.363  1.2799 -0.1940  4.1567
  568SOL    HW2 1704   1.376   1.831   0.534 -0.3906 -0.2258  2.6946
  569SOL     OW 1705   0.285   0.692   0.766  0.0298  0.0904 -0.4722
  569SOL    HW1 1706   0.358   0.645   0.715 -1.5696  1.4979  0.4816
  569SOL    HW2 1707   0.186   0.663   0.759 -2.4488 -1.9117  1.8353
  570SOL     OW 1708   0.584   0.876   2.809 -0.0564  0.1126 -0.1377
  570SOL    HW1 1709   0.643   0.872   2.725 -1.6712  2.8534  0.4946
  570SOL    HW2 1710   0.586   0.973   2.846  1.9910  1.2797  2.3420
  571SOL     OW 1711   0.863   3.081   1.184 -0.3703 -0.2986  0.3485
  571SOL    HW1 1712   0.840   3.139   1.100 -1.1763 -0.4859  0.1730
  571SOL    HW2 1713   0.964   3.066   1.191  0.4903  0.3853  0.2593
  572SOL     OW 1714   1.483   2.559   1.179  0.3469  0.4441 -0.1543
  572SOL    HW1 1715   1.428   2.480   1.210 -1.6467  0.5359  1.1927
  572SOL    HW2 1716   1.423   2.641   1.156 -1.9550  2.5206  1.0454
  573SOL     OW 1717   2.937   0.475   2.079 -0.2501  0.4745 -0.5853
  573SOL    HW1 1718   2.919   0.378   2.106  1.8331  0.2569  0.3977
  573SOL    HW2 1719   2.856   0.506   2.021 -0.0557 -1.6803  3.2910
  574SOL     OW 1720   0.259   1.791   1.028  0.2544 -1.0928  0.2570
  574SOL    HW1 1721   0.275   1.882   0.983  0.0207 -0.3806 -2.4209
  574SOL    HW2 1722   0.163   1.780   1.067 -0.9073 -1.4077 -0.9485
  575SOL     OW 1723   0.974   2.187   1.026  0.0953 -0.1004  0.2041
  575SOL    HW1 1724   0.957   2.256   1.098  1.3122  0.4663 -0.2970
  575SOL    HW2 1725   1.077   2.169   1.014 -1.1365  1.6177 -5.0100
  576SOL     OW 1726   2.858   2.895   1.740  0.0747  0.2557 -0.0894
  576SOL    HW1 1727   2.814   2.826   1.672  2.1396  1.7046  1.9749
  576SOL    HW2 1728   2.789   2.916   1.815  0.1617  0.6824  0.3397
  577SOL     OW 1729   2.536   1.253   3.061 -0.1970  0.1354 -0.5683
  577SOL    HW1 1730   2.508   1.159   3.023 -0.7874  0.7438  1.7474
  577SOL    HW2 1731   2.588   1.244   3.151  1.8957 -2.4057  1.5257
  578SOL     OW 1732   1.298   2.783   2.540  0.3935 -0.3845  0.6991
  578SOL    HW1 1733   1.246   2.747   2.452  1.0189  1.0302  2.0857
  578SOL    HW2 1734   1.297   2.889   2.543  2.6472  0.0043 -0.3175
  579SOL     OW 1735   0.154   2.584   0.101 -0.7005 -0.0282  0.3396
  579SOL    HW1 1736   0.106   2.574   0.191  0.8573 -1.0415 -2.1995
  579SOL    HW2 1737   0.251   2.542   0.096  1.5909  0.2774 -0.1454
  580SOL     OW 1738   0.932   2.670   0.391 -0.1415  0.4016 -0.1482
  580SOL    HW1 1739   1.018   2.698   0.341 -0.6020  0.1164  2.2777
  580SOL    HW2 1740   0.881   2.588   0.353 -0.0491 -2.2535 -3.3290
  581SOL     OW 1741   1.231   2.478   1.459 -0.2616 -0.0021 -0.4524
  581SOL    HW1 1742   1.296   2.417   1.404 -1.6146  2.4477 -0.9986
  581SOL    HW2 1743   1.247   2.575   1.428 -1.3255  0.0100  0.7863
  582SOL     OW 1744   1.527   0.058   1.870 -0.3819  0.3031  0.0078
  582SOL    HW1 1745   1.536   0.146   1.931  0.4657 -0.5191 -3.9046
  582SOL    HW2 1746   1.598   0.057   1.795  0.2902  2.1187  0.6014
  583SOL     OW 1747   2.341   2.959   0.535  0.3674  0.3499  0.4569
  583SOL    HW1 1748   2.412   2.904   0.479 -0.1922 -1.5917  0.0496
  583SOL    HW2 1749   2.319   2.904   0.622  1.8905 -0.5915  1.5894
  584SOL     OW 1750   1.524   0.961   2.074  0.0013 -0.0381 -0.3778
  584SOL    HW1 1751   1.593   1.003   2.014  0.2211  0.1455 -1.5037
  584SOL    HW2 1752   1.560   0.934   2.165  1.9683  1.4492  0.7267
  585SOL     OW 1753   2.092   2.738   2.858 -0.0711 -0.1418 -0.0089
  585SOL    HW1 1754   2.114   2.640   2.839  0.7320 -1.8257 -1.0988
  585SOL    HW2 1755   1.992   2.761   2.842 -3.7576 -0.5834  0.3710
  586SOL     OW 1756   2.786   0.272   1.545  1.2809  0.0756  0.2832
  586SOL    HW1 1757   2.771   0.345   1.615 -2.1592 -1.5671  0.0892
  586SOL    HW2 1758   2.719   0.200   1.566  2.3208  0.6196 -0.0717
  587SOL     OW 1759   2.052   1.607   2.707 -0.3237 -0.0144  0.0065
  587SOL    HW1 1760   2.108   1.534   2.660  1.3628  0.5896  2.9979
  587SOL    HW2 1761   2.099   1.615   2.803  2.0257 -0.1526 -0.1530
  588SOL     OW 1762   0.508   2.713   2.239 -0.0580 -0.1417  0.0695
  588SOL    HW1 1763   0.440   2.753   2.177  0.3927 -0.9700 -0.4907
  588SOL    HW2 1764   0.469   2.641   2.301  0.1239 -1.6281  0.3864
  589SOL     OW 1765   2.167   1.455   2.518 -0.0500  0.6380 -0.1133
  589SOL    HW1 1766   2.081   1.403   2.493  1.8668 -0.5759 -0.0178
  589SOL    HW2 1767   2.236   1.389   2.561 -0.2723 -0.4853  2.3903
  590SOL     OW 1768   2.326   1.756   2.024 -0.2679 -0.2508 -0.2689
  590SOL    HW1 1769   2.418   1.702   2.019  2.1962  0.6545  0.0023
  590SOL    HW2 1770   2.319   1.820   2.106 -2.5084  2.3894  1.1622
  591SOL     OW 1771   1.335   2.442   0.341 -0.1911  0.1329 -0.2263
  591SOL    HW1 1772   1.414   2.393   0.300 -0.6611  0.3138 -1.4480
  591SOL    HW2 1773   1.330   2.447   0.446  0.3595  3.5099  1.9406
  592SOL     OW 1774   1.734   2.340   0.774 -0.6565 -0.3300  0.0780
  592SOL    HW1 1775   1.719   2.423   0.711 -2.0453  1.7213 -2.5570
  592SOL    HW2 1776   1.831   2.307   0.780 -1.9325  1.1474 -0.5485
  593SOL     OW 1777   0.545   0.256   2.990 -0.0323  0.6354  0.2535
  593SOL    HW1 1778   0.642   0.213   2.979 -0.2896 -1.0584 -2.9698
  593SOL    HW2 1779   0.527   0.325   3.071  2.2709 -0.9444  1.3068
  594SOL     OW 1780   0.961   1.874   2.764 -0.8007 -0.2379 -0.6497
  594SOL    HW1 1781   1.061   1.894   2.763  0.0610 -0.2384 -3.0154
  594SOL    HW2 1782   0.899   1.949   2.804  0.7909  1.7166  1.3039
  595SOL     OW 1783   1.544   3.075   1.042 -0.0822 -0.1388  0.3784
  595SOL    HW1 1784   1.600   3.010   1.097  0.2252 -0.0202 -1.6711
  595SOL    HW2 1785   1.517   3.035   0.947 -0.0587 -0.3869 -1.2704
  596SOL     OW 1786   3.067   1.486   2.228  0.0347  0.2686 -0.0958
  596SOL    HW1 1787   2.972   1.519   2.250  3.0485 -3.0686 -0.5221
  596SOL    HW2 1788   3.110   1.485   2.322  0.4635  1.6289  0.6061
  597SOL     OW 1789   2.085   2.560   1.627 -0.5606  0.3190 -0.6546
  597SOL    HW1 1790   2.123   2.468   1.586  0.3250  2.0301  3.2391
  597SOL    HW2 1791   2.155   2.594   1.697 -2.8935 -1.5316  0.3072
  598SOL     OW 1792   2.585   2.850   1.252  0.4713  0.1827 -0.3801
  598SOL    HW1 1793   2.648   2.898   1.321  1.5116 -1.6312  2.2795
  598SOL    HW2 1794   2.616   2.860   1.153  4.3696  1.8264 -1.6355
  599SOL     OW 1795   2.935   0.368   2.443 -0.3683 -0.0264 -0.7697
  599SOL    HW1 1796   3.027   0.397   2.400  2.8734 -1.7064  2.7448
  599SOL    HW2 1797   2.850   0.405   2.397  0.5646  0.3050 -1.5423
  600SOL     OW 1798   2.802   1.111   2.744 -0.8264 -0.5456  0.3103
  600SOL    HW1 1799   2.802   1.042   2.820  2.8199  1.0779  1.9075
  600SOL    HW2 1800   2.750   1.202   2.768 -2.1221 -1.6059 -0.4311
  601SOL     OW 1801   2.962   1.284   2.033  0.0515  0.1146  0.3972
  601SOL    HW1 1802   2.873   1.305   1.988 -2.0289 -2.1585 -1.5494
  601SOL    HW2 1803   2.990   1.361   2.100  1.8331  0.6074  2.4495
  602SOL     OW 1804   1.524   1.623   2.282  0.9396  0.4013  0.2381
  602SOL    HW1 1805   1.434   1.578   2.308  0.0682  0.3805 -0.4625
  602SOL    HW2 1806   1.611   1.611   2.334  1.6232 -0.1695 -2.1680
  603SOL     OW 1807   0.723   1.249   2.597  0.1637 -0.6735 -0.1679
  603SOL    HW1 1808   0.637   1.204   2.562  1.0507  0.1032 -0.7409
  603SOL    HW2 1809   0.792   1.183   2.636 -3.1131  2.4407 -1.7623
  604SOL     OW 1810   2.395   1.055   0.212  0.0411 -0.2024  0.1615
  604SOL    HW1 1811   2.477   1.096   0.167 -0.4085 -2.7093 -0.8990
  604SOL    HW2 1812   2.348   0.983   0.152 -4.5855  1.1479 -1.4569
  605SOL     OW 1813   2.578   1.115   2.001  0.3903 -0.7439 -0.3891
  605SOL    HW1 1814   2.590   1.040   1.929  1.1245  1.1859 -0.0355
  605SOL    HW2 1815   2.593   1.095   2.101 -0.7681 -0.9274  1.1085
  606SOL     OW 1816   1.481   2.539   2.555 -0.1953 -0.2457 -0.0821
  606SOL    HW1 1817   1.385   2.583   2.535 -1.8992  1.7829 -0.6494
  606SOL    HW2 1818   1.485   2.443   2.512 -1.8349  0.7530 -0.4962
  607SOL     OW 1819   1.312   1.530   0.402 -0.1028 -0.1897  0.6515
  607SOL    HW1 1820   1.269   1.511   0.493  1.5649  3.3001 -0.4543
  607SOL    HW2 1821   1.322   1.634   0.387 -3.9352  0.7606  0.0203
  608SOL     OW 1822   1.389   2.872   0.369 -0.0425 -0.4331  0.5309
  608SOL    HW1 1823   1.416   2.956   0.307  0.0787  0.1273 -0.3979
  608SOL    HW2 1824   1.334   2.905   0.453  0.2716 -0.0943  1.1434
  609SOL     OW 1825   1.357   1.361   0.229 -0.0358 -0.1855 -0.1526
  609SOL    HW1 1826   1.343   1.441   0.302 -1.8356 -0.7264 -0.1251
  609SOL    HW2 1827   1.269   1.348   0.178  1.6225  0.7670  1.4205
  610SOL     OW 1828   2.986   1.134   2.264  0.0970  0.2981 -0.2436
  610SOL    HW1 1829   2.918   1.055   2.253  0.1130  0.4149  1.9122
  610SOL    HW2 1830   3.002   1.180   2.171  1.3277 -1.1864 -1.9754
  611SOL     OW 1831   2.595   0.300   1.197  0.1364  0.2749  0.5044
  611SOL    HW1 1832   2.571   0.216   1.138 -0.0896 -0.0355  1.5813
  611SOL    HW2 1833   2.694   0.309   1.228  0.5097 -2.0947  3.6221
  612SOL     OW 1834   0.731   2.219   1.278  0.1602 -0.4836 -0.3639
  612SOL    HW1 1835   0.677   2.130   1.264 -0.8189 -1.2836  0.0648
  612SOL    HW2 1836   0.699   2.300   1.220  1.1945 -4.1999  0.4930
  613SOL     OW 1837   0.966   1.505   2.340 -0.0712 -0.5977  0.1263
  613SOL    HW1 1838   0.988   1.554   2.255 -0.0064 -3.1802  1.4223
  613SOL    HW2 1839   0.913   1.418   2.329  2.1570 -2.1755 -0.9742
  614SOL     OW 1840   1.607   1.521   1.732 -0.1694  0.9000 -0.0666
  614SOL    HW1 1841   1.551   1.606   1.720  2.0373  0.2820 -1.5385
  614SOL    HW2 1842   1.659   1.508   1.819 -0.2796  0.9038  0.1522
  615SOL     OW 1843   0.790   1.235   1.762 -0.3177 -0.2115 -0.7068
  615SOL    HW1 1844   0.716   1.208   1.695  3.8083  3.7488  2.2081
  615SOL    HW2 1845   0.819   1.334   1.741  0.3657  0.5244  1.9792
  616SOL     OW 1846   1.073   1.556   2.085  0.2722  0.0903  0.0369
  616SOL    HW1 1847   1.055   1.589   1.990 -1.5538 -0.8641 -1.9416
  616SOL    HW2 1848   1.119   1.624   2.153 -1.9596  0.5341  0.0239
  617SOL     OW 1849   3.006   1.563   1.589 -0.2451 -0.4546 -0.0782
  617SOL    HW1 1850   3.015   1.466   1.625  0.7018  0.3892  0.7253
  617SOL    HW2 1851   3.035   1.570   1.492 -1.2590 -3.1783 -0.3833
  618SOL     OW 1852   1.874   1.945   1.406  0.0599  0.6310  0.0224
  618SOL    HW1 1853   1.900   2.022   1.343  0.1040 -2.8518  1.3020
  618SOL    HW2 1854   1.850   1.857   1.359  1.0887 -1.4304  0.5502
  619SOL     OW 1855   1.715   0.437   2.344  0.1253 -0.5948 -0.4091
  619SOL    HW1 1856   1.620   0.487   2.327 -3.7990  1.2941  0.8299
  619SOL    HW2 1857   1.708   0.338   2.374  1.8413  0.4893  0.4612
  620SOL     OW 1858   2.254   2.816   0.775 -0.3985  0.1873 -0.0173
  620SOL    HW1 1859   2.154   2.835   0.793  1.1430  0.4408  1.2959
  620SOL    HW2 1860   2.291   2.736   0.832  0.4957 -2.4188  0.6494
  621SOL     OW 1861   2.199   1.910   1.270  0.1543 -0.2778  0.5234
  621SOL    HW1 1862   2.187   1.931   1.371  0.0072 -0.1520 -0.3564
  621SOL    HW2 1863   2.203   1.806   1.251 -0.0706 -0.6620  2.6177
  622SOL     OW 1864   2.231   0.897   1.875  0.1764  0.6932  0.0378
  622SOL    HW1 1865   2.334   0.891   1.851 -0.9364  1.1676  2.1433
  622SOL    HW2 1866   2.191   0.822   1.935 -3.7337 -0.7301 -0.5961
  623SOL     OW 1867   1.280   0.852   2.538 -0.2492 -0.4933 -0.0361
  623SOL    HW1 1868   1.232   0.766   2.573 -0.2789  1.4559 -1.1869
  623SOL    HW2 1869   1.240   0.880   2.441 -1.6247 -0.3819 -0.2212
  624SOL     OW 1870   0.506   0.687   3.029 -0.4956 -0.5875  0.2567
  624SOL    HW1 1871   0.541   0.706   2.933  0.0883 -1.7079  1.3824
  624SOL    HW2 1872   0.548   0.745   3.105 -0.4797  0.7802 -0.8482
  625SOL     OW 1873   2.718   1.690   0.991  0.2292 -0.0573 -0.0603
  625SOL    HW1 1874   2.626   1.732   0.978 -0.6983 -1.3618  1.2522
  625SOL    HW2 1875   2.790   1.762   0.970 -0.3088  2.2898 -0.0054
  626SOL     OW 1876   0.643   2.668   1.790  0.4187 -0.2938 -0.4812
  626SOL    HW1 1877   0.703   2.724   1.852 -0.0338 -1.4759  2.1564
  626SOL    HW2 1878   0.553   2.639   1.830 -2.3129 -3.2217 -0.6179
  627SOL     OW 1879   0.653   0.834   1.677  0.0189  0.2672  0.5392
  627SOL    HW1 1880   0.561   0.799   1.651  1.1191 -2.1051  0.8639
  627SOL    HW2 1881   0.691   0.885   1.596 -0.9750 -3.8280  1.2549
  628SOL     OW 1882   2.399   0.031   0.739 -0.4631  0.2818 -0.0079
  628SOL    HW1 1883   2.392  -0.032   0.660  0.0002  3.4466  2.9877
  628SOL    HW2 1884   2.309   0.040   0.794 -0.7207 -2.7266  1.4596
  629SOL     OW 1885   1.846   0.958   1.947  0.0478 -0.4170  0.1886
  629SOL    HW1 1886   1.862   1.034   1.874  2.4311 -0.0593 -1.5039
  629SOL    HW2 1887   1.902   0.985   2.031 -0.1865 -0.5995  2.0967
  630SOL     OW 1888   2.916   2.210   0.796  0.0183 -0.4429 -0.5473
  630SOL    HW1 1889   2.868   2.302   0.774 -0.6317  0.0442 -3.3430
  630SOL    HW2 1890   2.864   2.130   0.755  0.1415 -0.0128  2.5351
  631SOL     OW 1891   3.078   0.093   2.053 -0.8501 -0.1329 -0.3981
  631SOL    HW1 1892   3.172   0.130   2.042 -1.3583  1.4965 -0.0873
  631SOL    HW2 1893   3.044   0.070   1.960  2.9432 -0.0828  1.6406
  632SOL     OW 1894   2.463   2.584   0.639  0.6099 -0.0543 -0.3341
  632SOL    HW1 1895   2.511   2.674   0.660  1.9945  0.8468 -1.7176
  632SOL    HW2 1896   2.367   2.600   0.610  3.2299 -1.0846  1.8500
  633SOL     OW 1897   1.433   1.241   2.638  0.0247 -0.2938  0.4860
  633SOL    HW1 1898   1.429   1.343   2.660  0.7745  1.4766  2.1544
  633SOL    HW2 1899   1.358   1.205   2.576  1.0457  1.0393  1.6117
  634SOL     OW 1900   0.716   2.197   0.872  0.1404 -0.1457 -0.3463
  634SOL    HW1 1901   0.639   2.150   0.925  0.5958 -1.5836  0.6085
  634SOL    HW2 1902   0.810   2.163   0.901 -1.3504 -0.9939  0.6259
  635SOL     OW 1903   3.011   2.447   0.031  0.3696 -0.4352 -0.5868
  635SOL    HW1 1904   2.924   2.485  -0.010 -0.2428 -1.7449 -1.8865
  635SOL    HW2 1905   3.090   2.513   0.033  1.6366 -1.4054 -0.0268
  636SOL     OW 1906   2.369   2.689   2.082  0.2348 -0.4189  0.3888
  636SOL    HW1 1907   2.333   2.784   2.074 -0.1817 -1.0528 -4.0512
  636SOL    HW2 1908   2.317   2.624   2.146 -0.9440 -0.4150 -0.3136
  637SOL     OW 1909   2.667   0.619   1.943 -0.0827 -0.3784  0.2642
  637SOL    HW1 1910   2.591   0.662   1.888  0.3548  1.0148 -0.0766
  637SOL    HW2 1911   2.741   0.685   1.961  2.0944  0.5013 -1.0521
  638SOL     OW 1912   2.457   1.869   1.322  0.1412 -0.5928  0.6829
  638SOL    HW1 1913   2.373   1.922   1.291  0.8011 -0.2996 -1.8091
  638SOL    HW2 1914   2.424   1.779   1.363 -1.8164 -1.8139  1.4492
  639SOL     OW 1915   1.255   2.187   1.532  0.0982  0.0075  0.4997
  639SOL    HW1 1916   1.321   2.252   1.572  0.1658  1.5724  0.3543
  639SOL    HW2 1917   1.153   2.201   1.557  0.1282  2.2905 -1.1689
  640SOL     OW 1918   0.209   1.236   1.526 -0.3935  0.6443  0.1926
  640SOL    HW1 1919   0.193   1.284   1.618 -1.8551  0.9195 -3.0928
  640SOL    HW2 1920   0.281   1.160   1.540 -0.3824  0.8201 -0.5978
  641SOL     OW 1921   1.961   0.298   1.486  0.1671 -0.5796  0.3292
  641SOL    HW1 1922   1.868   0.307   1.529 -2.3031 -1.8176 -0.3760
  641SOL    HW2 1923   2.040   0.318   1.547 -1.6727  0.9201 -2.5844
  642SOL     OW 1924   2.035   3.073   0.415  0.0830 -0.0997  0.0320
  642SOL    HW1 1925   2.121   3.132   0.419  1.7488  1.5658 -1.8107
  642SOL    HW2 1926   1.953   3.121   0.457 -3.0539  2.5739 -3.2080
  643SOL     OW 1927   2.947   1.932   2.087 -0.4994  0.0644  0.2684
  643SOL    HW1 1928   2.887   1.856   2.046 -0.4315  0.4272 -0.0953
  643SOL    HW2 1929   2.947   2.021   2.029  0.6983 -1.5615 -0.7677
  644SOL     OW 1930   2.271   2.466   1.296  0.3011 -0.2980  0.3579
  644SOL    HW1 1931   2.322   2.395   1.240 -1.2687 -1.1805 -3.0661
  644SOL    HW2 1932   2.280   2.434   1.395 -0.4406 -2.3478  0.0049
  645SOL     OW 1933   0.627   0.784   1.282  0.5937 -0.0748 -0.4744
  645SOL    HW1 1934   0.570   0.699   1.307 -0.5160  0.3126  3.2153
  645SOL    HW2 1935   0.607   0.818   1.184  3.0165 -0.9112  0.5960
  646SOL     OW 1936   1.503   1.737   2.015 -0.0208 -0.0265 -0.4982
  646SOL    HW1 1937   1.577   1.776   1.954  1.9196  2.7427  1.9832
  646SOL    HW2 1938   1.533   1.715   2.111  1.5715  1.1910 -0.6077
  647SOL     OW 1939   0.758   1.050   0.556 -0.3197  0.7769  0.3429
  647SOL    HW1 1940   0.834   1.069   0.623 -0.2181  1.0553 -1.5953
  647SOL    HW2 1941   0.685   0.990   0.599  2.5734 -3.5897  0.2370
  648SOL     OW 1942   0.132   0.251   0.371  0.0145 -0.6882  0.0194
  648SOL    HW1 1943   0.043   0.200   0.352 -0.6716  1.6264 -1.5796
  648SOL    HW2 1944   0.114   0.350   0.340  1.4347 -0.8217  1.1002
  649SOL     OW 1945   3.015   0.268   0.969  0.1933 -0.2296 -0.4828
  649SOL    HW1 1946   3.049   0.274   0.872  2.0336  0.1194  1.1816
  649SOL    HW2 1947   3.090   0.252   1.044  0.7235  0.5797  0.8012
  650SOL     OW 1948   2.770   0.685   1.423 -0.1811  0.6806  0.1620
  650SOL    HW1 1949   2.679   0.656   1.457 -0.0320 -2.3041  0.4318
  650SOL    HW2 1950   2.784   0.785   1.414 -0.6475  0.3817 -0.2645
  651SOL     OW 1951   0.878   1.508   1.694  0.3087  0.5540 -0.2191
  651SOL    HW1 1952   0.856   1.567   1.776  0.8268 -0.9329  1.2159
  651SOL    HW2 1953   0.981   1.498   1.674 -0.0910 -0.8389  0.4146
  652SOL     OW 1954   2.270   2.567   2.492  0.2286  0.1511  0.4642
  652SOL    HW1 1955   2.195   2.504   2.528  0.7821  3.1611 -1.1929
  652SOL    HW2 1956   2.236   2.667   2.483 -0.2606  2.1969  1.7480
  653SOL     OW 1957   2.676   1.210   0.215  0.2251  0.8583 -0.4661
  653SOL    HW1 1958   2.734   1.295   0.229  1.7582 -1.3396 -1.7120
  653SOL    HW2 1959   2.726   1.120   0.234  0.1065 -1.9285 -1.4499
  654SOL     OW 1960   1.163   2.058   1.255  0.8341 -0.2154  0.4344
  654SOL    HW1 1961   1.122   1.968   1.290 -1.5872 -0.3489 -0.4269
  654SOL    HW2 1962   1.208   2.054   1.162  1.2455  2.1917 -2.7317
  655SOL     OW 1963   0.140   0.999   1.871  0.1494 -0.4718  0.1852
  655SOL    HW1 1964   0.218   0.944   1.830 -0.0422 -1.4410 -1.0165
  655SOL    HW2 1965   0.147   1.102   1.856 -1.9533  1.3486  1.0270
  656SOL     OW 1966   2.503   2.533   2.641  0.9483  0.2412  0.0755
  656SOL    HW1 1967   2.600   2.513   2.609  1.8977 -0.1407 -2.4253
  656SOL    HW2 1968   2.432   2.529   2.564  0.7675  1.3362  0.8505
  657SOL     OW 1969   2.970   1.032   1.932  0.6459 -0.3278  0.4548
  657SOL    HW1 1970   2.949   1.132   1.957 -1.5189 -1.6248  0.3745
  657SOL    HW2 1971   3.074   1.023   1.912  3.3477  1.5845  0.6666
  658SOL     OW 1972   1.678   0.131   2.353  0.1886  0.6586 -0.2428
  658SOL    HW1 1973   1.681   0.037   2.406  2.0432  1.5886  1.1345
  658SOL    HW2 1974   1.701   0.119   2.252 -0.9922 -1.3669  2.6869
  659SOL     OW 1975   1.447   0.670   2.765 -0.5525  0.2316  0.5349
  659SOL    HW1 1976   1.474   0.740   2.696  0.8998 -0.2247  1.0732
  659SOL    HW2 1977   1.345   0.656   2.777  2.2997 -0.5914 -1.6106
  660SOL     OW 1978   1.435   0.310   1.421 -0.0943 -0.1454 -0.0596
  660SOL    HW1 1979   1.445   0.365   1.506 -0.6830  1.4473  0.3149
  660SOL    HW2 1980   1.505   0.237   1.406 -2.5865  0.0534  0.7748
  661SOL     OW 1981   2.326   1.305   0.697  0.5513 -0.6084 -0.0616
  661SOL    HW1 1982   2.395   1.285   0.629 -0.7078  1.6781 -5.0875
  661SOL    HW2 1983   2.256   1.378   0.670  2.6840  0.2136  0.8480
  662SOL     OW 1984   1.458   0.390   1.694  0.2735 -0.7745 -0.2632
  662SOL    HW1 1985   1.412   0.338   1.772  1.0635  1.4792 -1.3234
  662SOL    HW2 1986   1.419   0.489   1.682  0.9533  2.0190 -2.5615
  663SOL     OW 1987   0.775   1.641   1.917  0.3549  0.0842  0.1351
  663SOL    HW1 1988   0.809   1.704   1.990 -2.6534  1.0264  0.8364
  663SOL    HW2 1989   0.739   1.552   1.956 -2.1530 -2.9117  2.0799
  664SOL     OW 1990   1.595   2.036   1.450  0.6148  0.6078  0.5479
  664SOL    HW1 1991   1.509   1.987   1.468  1.0636  2.2828  0.3571
  664SOL    HW2 1992   1.675   1.971   1.439  0.6254  2.0166  0.4563
  665SOL     OW 1993   2.280   0.655   2.006  0.4584  0.8643  0.1490
  665SOL    HW1 1994   2.263   0.556   2.001 -0.0902  0.7072 -0.4806
  665SOL    HW2 1995   2.345   0.683   2.085  0.5319  0.9289 -1.1103
  666SOL     OW 1996   0.473   2.236   0.400 -0.7482 -0.1901 -0.7210
  666SOL    HW1 1997   0.505   2.334   0.417 -0.0885  1.9981 -0.9581
  666SOL    HW2 1998   0.371   2.221   0.380 -0.3001 -2.0131 -1.4660
  667SOL     OW 1999   2.060   0.167   1.069 -0.4107  0.3853  0.2783
  667SOL    HW1 2000   2.096   0.263   1.051 -0.6822 -0.2957  2.7881
  667SOL    HW2 2001   1.990   0.174   1.146  0.1196  2.2601  0.3076
  668SOL     OW 2002   2.009   0.444   1.073 -0.4152  0.8532 -0.3720
  668SOL    HW1 2003   2.077   0.468   0.999 -2.4175 -1.2348  0.1626
  668SOL    HW2 2004   2.039   0.464   1.171  0.9158  1.4058  2.5235
  669SOL     OW 2005   3.063   2.136   1.029  0.2733 -0.1557  0.3356
  669SOL    HW1 2006   2.999   2.185   0.959 -0.1357  1.9640  0.5164
  669SOL    HW2 2007   3.044   2.161   1.126  3.0765  1.4363 -1.6638
  670SOL     OW 2008   2.907   2.388   2.163 -0.1164  0.3454  0.8634
  670SOL    HW1 2009   2.820   2.336   2.196  1.1159 -0.3945 -1.3635
  670SOL    HW2 2010   2.893   2.489   2.138 -0.2924 -2.9960 -0.7565
  671SOL     OW 2011   1.820   1.656   1.529 -0.0741 -0.5179 -0.2907
  671SOL    HW1 2012   1.787   1.652   1.432  2.5354  4.5597  0.8425
  671SOL    HW2 2013   1.822   1.562   1.570 -1.1070  1.0917 -3.8601
  672SOL     OW 2014   0.456   0.723   2.538  0.0837  0.5357  0.6118
  672SOL    HW1 2015   0.377   0.758   2.475 -2.7783  2.8649 -2.3151
  672SOL    HW2 2016   0.451   0.762   2.630  1.4047 -0.7486  0.7802
  673SOL     OW 2017   0.079   1.449   0.996  0.2299 -0.4486  0.2862
  673SOL    HW1 2018   0.113   1.424   1.087 -0.3531 -1.0883 -0.8590
  673SOL    HW2 2019   0.139   1.524   0.956 -1.9979 -2.0971 -0.5346
  674SOL     OW 2020   1.542   3.042   0.212  0.3570 -0.0100  0.0899
  674SOL    HW1 2021   1.618   3.107   0.178  0.3064  1.6320  1.8024
  674SOL    HW2 2022   1.506   2.971   0.144  0.3797  0.5816  1.7494
  675SOL     OW 2023   1.656   0.833   2.304 -0.4880 -0.0170 -0.2448
  675SOL    HW1 2024   1.746   0.817   2.353 -0.4955  1.5873  2.0504
  675SOL    HW2 2025   1.602   0.743   2.281  1.4763  0.4978  1.5954
  676SOL     OW 2026   2.522   1.568   1.995  0.0546  0.2983 -0.1522
  676SOL    HW1 2027   2.492   1.498   1.926 -0.1560  1.3278  2.4474
  676SOL    HW2 2028   2.592   1.522   2.056  2.6565 -0.1932  1.6060
  677SOL     OW 2029   1.931   0.672   0.900 -0.9095  0.1476  0.1232
  677SOL    HW1 2030   1.845   0.657   0.959 -0.4701  0.5328 -2.2993
  677SOL    HW2 2031   2.018   0.644   0.951 -1.7708  0.0282  0.0780
  678SOL     OW 2032   0.113   0.782   1.643  0.0558  0.8857 -0.3419
  678SOL    HW1 2033   0.192   0.840   1.673  1.1084 -2.6516 -0.2821
  678SOL    HW2 2034   0.085   0.717   1.721 -1.6360  1.9648  1.8682
  679SOL     OW 2035   2.572   1.111   1.225 -0.0428 -0.5357 -0.3589
  679SOL    HW1 2036   2.477   1.140   1.213  0.2214  0.5327  1.0461
  679SOL    HW2 2037   2.578   1.006   1.212 -0.9694 -0.4282  2.1752
  680SOL     OW 2038   2.848   0.522   1.669 -0.2794 -0.2116  0.0177
  680SOL    HW1 2039   2.814   0.577   1.587 -1.1000  0.1908 -0.9683
  680SOL    HW2 2040   2.933   0.563   1.713  0.2112 -1.4073 -1.9892
  681SOL     OW 2041   3.011   0.124   1.580 -0.2857  0.0156 -0.1130
  681SOL    HW1 2042   3.030   0.078   1.488 -1.0171  3.8843  1.7998
  681SOL    HW2 2043   2.917   0.171   1.579  0.7779  2.2148 -2.3253
  682SOL     OW 2044   0.635   0.087   1.309 -0.7073  0.6591 -0.2641
  682SOL    HW1 2045   0.576   0.011   1.344 -1.5658  0.0150  1.2957
  682SOL    HW2 2046   0.732   0.056   1.283  0.2202  0.5070  0.1421
  683SOL     OW 2047   1.353   0.259   2.182  0.0179 -0.0647  0.0672
  683SOL    HW1 2048   1.334   0.318   2.267 -0.5723 -0.8341  1.1018
  683SOL    HW2 2049   1.449   0.277   2.146  3.4679 -0.1895 -1.5024
  684SOL     OW 2050   1.369   2.150   0.589  0.2915  0.5978 -0.6301
  684SOL    HW1 2051   1.418   2.063   0.619  2.1340  4.6197 -1.0650
  684SOL    HW2 2052   1.278   2.136   0.540  1.2064 -0.3390 -0.0638
  685SOL     OW 2053   2.256   2.063   1.984  0.7875  0.5140  0.1383
  685SOL    HW1 2054   2.273   1.959   1.975 -2.5495  1.1194 -0.2610
  685SOL    HW2 2055   2.320   2.115   2.047 -2.9022  2.3818  1.4326
  686SOL     OW 2056   1.576   1.834   2.899 -0.8815  0.1517 -0.0988
  686SOL    HW1 2057   1.602   1.758   2.966  1.2211 -1.3429 -0.9271
  686SOL    HW2 2058   1.477   1.843   2.880  0.4335 -0.2656  0.2132
  687SOL     OW 2059   1.421   2.442   2.001 -0.0296 -0.7270 -0.6439
  687SOL    HW1 2060   1.396   2.349   1.964 -4.2251  2.2818 -0.1839
  687SOL    HW2 2061   1.386   2.456   2.101 -3.0316 -0.8779 -0.1604
  688SOL     OW 2062   2.051   1.490   1.703 -0.1922  0.3526  0.3576
  688SOL    HW1 2063   2.124   1.562   1.717  1.0423  0.2166  1.5129
  688SOL    HW2 2064   2.045   1.455   1.603 -2.0806 -0.8449 -0.3129
  689SOL     OW 2065   2.298   1.095   2.801 -0.3276  0.3724  0.2022
  689SOL    HW1 2066   2.232   1.025   2.764  0.4465  1.1818  0.7641
  689SOL    HW2 2067   2.364   1.064   2.877  1.2051  1.0771 -1.0513
  690SOL     OW 2068   2.218   2.793   0.014  0.4891 -0.2177 -0.4098
  690SOL    HW1 2069   2.189   2.733  -0.063  2.1986  0.2221  2.5917
  690SOL    HW2 2070   2.159   2.808   0.100 -0.5206  0.2910  1.1304
  691SOL     OW 2071   2.566   0.397   2.089  0.7515  0.5293  0.2248
  691SOL    HW1 2072   2.595   0.302   2.064  0.4979 -0.6094 -1.9423
  691SOL    HW2 2073   2.582   0.464   2.014  0.3472  0.3762 -0.9698
  692SOL     OW 2074   2.669   1.232   0.706 -0.5162  0.1672 -0.1147
  692SOL    HW1 2075   2.621   1.241   0.613 -0.8539  1.1981 -0.5572
  692SOL    HW2 2076   2.686   1.319   0.754  0.8543  0.7636  1.4223
  693SOL     OW 2077   2.910   2.920   0.681  0.0007 -0.3247 -0.0964
  693SOL    HW1 2078   2.920   3.007   0.740 -0.6272  0.5371 -0.5829
  693SOL    HW2 2079   2.902   2.938   0.578 -0.6730  0.6193 -0.7041
  694SOL     OW 2080   2.377   2.268   0.103  0.7246  0.1522  0.4517
  694SOL    HW1 2081   2.392   2.329   0.187  1.3515 -0.6552 -1.4622
  694SOL    HW2 2082   2.276   2.245   0.087 -1.7648 -1.3527 -3.8793
  695SOL     OW 2083   0.483   3.017   1.485  0.6104  0.1129  0.2068
  695SOL    HW1 2084   0.428   2.937   1.453  1.6490 -1.4739 -0.4689
  695SOL    HW2 2085   0.451   3.076   1.566 -2.3033  1.1620 -0.6880
  696SOL     OW 2086   2.726   1.996   0.770  0.1490 -0.3314 -0.2261
  696SOL    HW1 2087   2.811   1.935   0.782  1.4269 -2.2513 -3.6099
  696SOL    HW2 2088   2.675   1.976   0.683 -1.4140 -1.2932 -2.3730
  697SOL     OW 2089   1.669   1.854   1.838  0.4500  0.1131  0.3520
  697SOL    HW1 2090   1.774   1.856   1.837  2.3342 -0.2888  2.0185
  697SOL    HW2 2091   1.628   1.947   1.830  0.2690 -2.3022  0.6038
  698SOL     OW 2092   2.940   0.406   2.721 -0.8856 -0.2829 -0.5598
  698SOL    HW1 2093   2.949   0.392   2.619 -2.5592  0.8493  1.0411
  698SOL    HW2 2094   2.995   0.337   2.779  1.3313 -0.1495 -1.3026
  699SOL     OW 2095   1.629   0.131   2.915 -0.0962 -0.3101  0.3247
  699SOL    HW1 2096   1.596   0.050   2.862  2.7097  0.0793 -1.5576
  699SOL    HW2 2097   1.681   0.197   2.854 -0.6118  0.3150 -0.5511
  700SOL     OW 2098   0.982   2.281   1.349 -0.3670 -0.4233  0.4151
  700SOL    HW1 2099   1.028   2.199   1.307  0.7179  4.4884  2.5148
  700SOL    HW2 2100   0.877   2.267   1.340  0.0528  1.0676  0.4836
  701SOL     OW 2101   1.858   2.908   0.009  0.2857  0.0523  0.3473
  701SOL    HW1 2102   1.848   2.855   0.101  0.2659 -1.9300  1.7115
  701SOL    HW2 2103   1.909   2.997   0.003 -1.6331  0.3291 -0.2746
  702SOL     OW 2104   2.122   1.362   1.930 -0.5170  0.2435  0.5022
  702SOL    HW1 2105   2.186   1.283   1.908 -0.0976 -0.6764 -1.5995
  702SOL    HW2 2106   2.087   1.413   1.845  1.0270  3.8751 -0.1627
  703SOL     OW 2107   1.967   0.918   1.446  0.4971  0.1953 -0.1649
  703SOL    HW1 2108   1.946   0.827   1.491  1.1204 -0.3015 -0.5362
  703SOL    HW2 2109   2.019   0.985   1.511 -0.5321  2.2994 -0.9453
  704SOL     OW 2110   0.334   2.075   1.707  0.3082 -0.3075 -0.0378
  704SOL    HW1 2111   0.353   2.032   1.802 -0.4910 -1.6048  0.1786
  704SOL    HW2 2112   0.407   2.139   1.675  0.4170 -0.1830  0.6408
  705SOL     OW 2113   2.488   1.409   0.913 -0.3231  0.0251  0.5090
  705SOL    HW1 2114   2.433   1.369   0.835 -0.2942 -0.6967  1.2718
  705SOL    HW2 2115   2.591   1.404   0.903 -0.6669  0.8975  1.1387
  706SOL     OW 2116   0.524   1.729   1.805  0.1647 -0.0214 -0.4732
  706SOL    HW1 2117   0.525   1.786   1.723 -0.1455 -1.3340  3.8105
  706SOL    HW2 2118   0.620   1.700   1.837  1.8165 -2.2686 -2.3745
  707SOL     OW 2119   2.316   1.180   1.870  0.1343  0.3246 -0.2640
  707SOL    HW1 2120   2.408   1.156   1.916 -2.1013 -0.5310  4.6791
  707SOL    HW2 2121   2.261   1.094   1.847  0.1472 -2.9574 -1.8947
  708SOL     OW 2122   3.029   0.543   2.959  0.2233  0.2623  0.8291
  708SOL    HW1 2123   3.112   0.568   2.908 -1.1490  1.9887 -1.3759
  708SOL    HW2 2124   2.988   0.460   2.914 -2.1742 -1.7991 -2.1170
  709SOL     OW 2125   1.830   1.879   0.422  0.4501  0.8696  0.3462
  709SOL    HW1 2126   1.828   1.981   0.440 -2.4624 -0.7155  0.8192
  709SOL    HW2 2127   1.839   1.860   0.317 -0.5351  2.0492 -0.3951
  710SOL     OW 2128   1.759   1.560   2.426 -0.1451 -0.6865 -0.3584
  710SOL    HW1 2129   1.846   1.520   2.391 -1.7307  3.3727 -1.4085
  710SOL    HW2 2130   1.768   1.593   2.527 -0.8888  1.0141  2.9551
  711SOL     OW 2131   2.727   2.847   0.983 -0.1692 -0.7264  0.0123
  711SOL    HW1 2132   2.671   2.931   0.957  0.6875  3.8144  0.3548
  711SOL    HW2 2133   2.809   2.872   1.041  1.6024 -0.8861 -0.1225
  712SOL     OW 2134   1.314   2.195   1.913  0.3489  0.1733  0.2630
  712SOL    HW1 2135   1.395   2.131   1.896  1.0397 -4.1152 -3.1611
  712SOL    HW2 2136   1.220   2.150   1.894 -0.2861  0.5728  2.7586
  713SOL     OW 2137   2.788   1.482   2.547  0.1559 -0.5426  0.1999
  713SOL    HW1 2138   2.826   1.390   2.506  0.9130 -0.3884 -2.3051
  713SOL    HW2 2139   2.685   1.484   2.568  0.5487 -1.5373 -1.2297
  714SOL     OW 2140   2.684   0.423   2.346 -0.3302 -0.4984 -0.0032
  714SOL    HW1 2141   2.614   0.439   2.426 -2.0066 -0.3625 -0.7272
  714SOL    HW2 2142   2.632   0.396   2.258  0.0874  3.1252  3.1972
  715SOL     OW 2143   1.587   2.184   1.191  0.4669 -0.0210 -0.4848
  715SOL    HW1 2144   1.535   2.273   1.179 -0.0123  2.0369 -0.0712
  715SOL    HW2 2145   1.571   2.130   1.279  2.2118  2.2171 -1.0780
  716SOL     OW 2146   1.231   0.129   1.514  0.7914 -0.1765  0.3694
  716SOL    HW1 2147   1.130   0.143   1.485 -2.7145 -0.3241  1.3964
  716SOL    HW2 2148   1.296   0.208   1.479  2.3347  2.5776 -1.3947
  717SOL     OW 2149   1.164   0.597   1.621 -0.0692  0.0330 -0.1255
  717SOL    HW1 2150   1.249   0.636   1.656  0.3104 -4.4516 -0.9931
  717SOL    HW2 2151   1.162   0.594   1.515  0.9576  1.1733 -0.3039
  718SOL     OW 2152   0.686   0.902   0.968 -0.2413 -0.3700  0.0415
  718SOL    HW1 2153   0.639   0.912   0.874 -1.1066  0.9391 -0.0768
  718SOL    HW2 2154   0.706   0.992   1.020 -1.3843  0.0516 -0.0533
  719SOL     OW 2155   0.739   1.753   2.288  0.1412 -0.4535 -0.5167
  719SOL    HW1 2156   0.812   1.776   2.357 -2.0948  0.4736 -0.2102
  719SOL    HW2 2157   0.659   1.703   2.333 -1.2089 -1.6150  2.3033
  720SOL     OW 2158   2.198   1.219   0.271 -0.6050 -0.0586 -0.3544
  720SOL    HW1 2159   2.286   1.165   0.250  1.9663 -0.1087 -1.1549
  720SOL    HW2 2160   2.156   1.189   0.360 -1.5178  1.2273  1.4986
  721SOL     OW 2161   2.237   2.909   2.110  0.3300  0.2593 -0.0459
  721SOL    HW1 2162   2.258   2.951   2.019 -0.4007  1.1835  0.2030
  721SOL    HW2 2163   2.137   2.903   2.135 -3.0438 -1.6856  0.7723
  722SOL     OW 2164   2.339   1.709   0.581  0.0164 -0.2670 -0.4973
  722SOL    HW1 2165   2.410   1.687   0.509  0.5508  0.1593  0.1984
  722SOL    HW2 2166   2.260   1.769   0.544  0.3637 -1.9935 -0.3559
  723SOL     OW 2167   2.592   2.751   1.952  0.0795  0.2498 -0.2619
  723SOL    HW1 2168   2.633   2.819   2.019 -1.0344 -2.1837  0.4420
  723SOL    HW2 2169   2.508   2.712   1.998  0.1639 -0.0892  2.2193
  724SOL     OW 2170   0.362   2.505   2.451  0.3548  0.3042 -0.5000
  724SOL    HW1 2171   0.260   2.523   2.441 -1.4597  1.1620 -1.4327
  724SOL    HW2 2172   0.395   2.495   2.549  0.3679  1.2324 -3.0441
  725SOL     OW 2173   2.416   2.811   1.516  0.5203 -0.0210 -0.5778
  725SOL    HW1 2174   2.456   2.814   1.423  3.6786  0.3884  5.2687
  725SOL    HW2 2175   2.396   2.710   1.531  2.0557 -1.8938  1.3698
  726SOL     OW 2176   2.471   2.327   0.756  0.3378 -0.1810 -0.5589
  726SOL    HW1 2177   2.461   2.421   0.706 -0.1864  1.2610 -0.9493
  726SOL    HW2 2178   2.429   2.250   0.701 -1.0918 -2.3590  0.0796
  727SOL     OW 2179   0.114   3.079   0.128 -0.0898  0.2057  0.2161
  727SOL    HW1 2180   0.206   3.115   0.084 -0.8717  2.1898 -0.7221
  727SOL    HW2 2181   0.065   3.020   0.057 -0.1199  2.9694  1.3276
  728SOL     OW 2182   2.929   0.731   0.922  1.0592  0.2667  0.2430
  728SOL    HW1 2183   2.856   0.704   0.853 -1.4249 -0.2823  0.8604
  728SOL    HW2 2184   2.905   0.681   1.010  1.2469 -0.2607  1.4519
  729SOL     OW 2185   0.008   2.503   0.780  0.0894  0.8740  0.1220
  729SOL    HW1 2186   0.054   2.474   0.870  0.3136 -0.7976 -0.5164
  729SOL    HW2 2187   0.079   2.533   0.708 -0.1277 -1.9119  0.8296
  730SOL     OW 2188   2.594   0.746   0.932 -0.3337 -0.4014 -0.5260
  730SOL    HW1 2189   2.549   0.834   0.896  0.3600 -0.1295  1.4076
  730SOL    HW2 2190   2.646   0.693   0.860 -1.5175 -0.9474 -0.9953
  731SOL     OW 2191   3.091   2.238   2.310 -0.0616 -0.1702  0.6032
  731SOL    HW1 2192   3.033   2.186   2.375  2.2619  1.9978  1.8416
  731SOL    HW2 2193   3.041   2.301   2.246 -0.0458  1.5878  0.8051
  732SOL     OW 2194   1.346   2.733   1.976 -0.1195  0.1517  0.2520
  732SOL    HW1 2195   1.393   2.659   2.030  0.6654  1.1430  0.8687
  732SOL    HW2 2196   1.317   2.693   1.884 -2.5703  1.0603 -1.0570
  733SOL     OW 2197   3.088   0.657   2.231  0.4072 -0.2052 -0.0737
  733SOL    HW1 2198   3.166   0.702   2.179  1.5227 -0.4335 -0.3304
  733SOL    HW2 2199   3.035   0.583   2.183 -1.8124 -0.4519  0.6085
  734SOL     OW 2200   1.520   0.417   2.722 -0.1936  0.0915 -0.0094
  734SOL    HW1 2201   1.508   0.510   2.768  0.1981 -1.4662  2.7057
  734SOL    HW2 2202   1.439   0.358   2.754 -1.2688  1.2883  0.3432
  735SOL     OW 2203   2.871   2.680   2.304  0.3171 -0.0500  0.3358
  735SOL    HW1 2204   2.857   2.690   2.201  1.8978 -0.2544 -0.0352
  735SOL    HW2 2205   2.970   2.688   2.333 -2.9091 -0.6635 -0.7515
  736SOL     OW 2206   0.879   0.414   2.520 -0.2150  0.1176 -0.0501
  736SOL    HW1 2207   0.780   0.440   2.535  0.9455  0.3545  3.3512
  736SOL    HW2 2208   0.893   0.354   2.436  0.0436 -1.4439 -1.0517
  737SOL     OW 2209   2.677   0.481   2.789  0.0881 -0.1493  0.3395
  737SOL    HW1 2210   2.646   0.438   2.874  3.1534  0.3046 -2.8533
  737SOL    HW2 2211   2.771   0.440   2.770 -0.9164 -1.3235  0.5684
  738SOL     OW 2212   1.771   1.239   2.856 -0.4759  0.0040 -0.0684
  738SOL    HW1 2213   1.874   1.221   2.865  2.7818  0.5180  1.8990
  738SOL    HW2 2214   1.716   1.152   2.838  0.2618 -0.5285  1.7874
  739SOL     OW 2215   1.838   0.733   0.625 -0.1533  0.0511 -0.7113
  739SOL    HW1 2216   1.863   0.749   0.727 -0.0634  2.1533  2.8248
  739SOL    HW2 2217   1.856   0.640   0.593 -0.5349  4.1967  0.9323
  740SOL     OW 2218   1.987   1.910   2.354  0.0461  0.1411 -0.2191
  740SOL    HW1 2219   2.037   1.826   2.396  1.5555 -4.7711  1.4540
  740SOL    HW2 2220   1.925   1.891   2.276 -0.7769 -1.2844  3.5163
  741SOL     OW 2221   2.539   0.123   2.450  0.2798 -0.2944  0.3690
  741SOL    HW1 2222   2.639   0.134   2.440 -0.4218 -2.1055  0.3539
  741SOL    HW2 2223   2.492   0.105   2.358 -0.7838 -0.4181  1.3393
  742SOL     OW 2224   2.203   1.469   0.187  0.2752 -0.4847  0.2183
  742SOL    HW1 2225   2.103   1.494   0.213 -2.8522 -2.0653 -1.2379
  742SOL    HW2 2226   2.214   1.364   0.195 -0.3335  0.7622 -0.2727
  743SOL     OW 2227   1.756   0.649   2.545  0.0387  0.0231  0.2078
  743SOL    HW1 2228   1.742   0.556   2.500  0.9047  0.4823  0.9952
  743SOL    HW2 2229   1.671   0.706   2.554  1.3993  0.0280  2.7109
  744SOL     OW 2230   2.752   2.148   0.185 -1.4396 -0.8246  0.2136
  744SOL    HW1 2231   2.688   2.194   0.250  1.2253  1.1818 -1.8613
  744SOL    HW2 2232   2.730   2.046   0.174 -1.2478  0.4061  0.1715
  745SOL     OW 2233   2.224   2.509   2.227  0.0715  0.1704 -0.7264
  745SOL    HW1 2234   2.125   2.532   2.199  1.7703 -0.4600 -1.0573
  745SOL    HW2 2235   2.235   2.520   2.329  0.6860  0.9596  0.1290
  746SOL     OW 2236   3.078   2.538   1.800  0.1345  0.1817 -0.3400
  746SOL    HW1 2237   3.161   2.493   1.761 -0.9244 -0.3695  1.3536
  746SOL    HW2 2238   3.105   2.617   1.862  0.1614  0.0044  1.7894
  747SOL     OW 2239   3.088   1.808   1.673  0.2745  0.0970 -0.5142
  747SOL    HW1 2240   3.067   1.713   1.630 -1.5843  3.5046 -2.6621
  747SOL    HW2 2241   3.144   1.870   1.615 -2.2108 -1.6590 -0.2563
  748SOL     OW 2242   1.818   2.677   2.952  0.0135 -0.2846  0.2045
  748SOL    HW1 2243   1.844   2.758   3.005  1.8958 -1.6746 -2.6442
  748SOL    HW2 2244   1.745   2.682   2.878  2.7473 -0.4033  0.5913
  749SOL     OW 2245   1.291   2.872   0.813 -0.8762 -0.1613  0.1357
  749SOL    HW1 2246   1.210   2.926   0.831  3.2172 -0.6934  0.6226
  749SOL    HW2 2247   1.372   2.934   0.791  1.9832  2.3833 -1.2502
  750SOL     OW 2248   2.242   0.202   1.851  0.8722  0.1310  0.0362
  750SOL    HW1 2249   2.281   0.240   1.759  2.3869  2.0719 -1.8682
  750SOL    HW2 2250   2.268   0.264   1.935  2.6080  1.9042 -2.2274
  751SOL     OW 2251   0.830   2.094   2.899 -0.4588  0.6324  0.3765
  751SOL    HW1 2252   0.912   2.100   2.967 -0.3766  4.2480  2.8455
  751SOL    HW2 2253   0.747   2.048   2.940  1.8252 -1.2955 -1.3989
  752SOL     OW 2254   1.319   0.766   1.158  0.3977 -0.1577 -0.6610
  752SOL    HW1 2255   1.398   0.824   1.189 -0.3122  2.5765  0.8581
  752SOL    HW2 2256   1.331   0.672   1.197  1.0490  1.5450  0.8303
  753SOL     OW 2257   0.997   2.536   1.857  0.1030 -0.3341 -0.6550
  753SOL    HW1 2258   1.095   2.537   1.817  4.6876 -0.2011 -2.2543
  753SOL    HW2 2259   0.960   2.632   1.872 -1.0862  4.3930  0.7371
  754SOL     OW 2260   1.135   1.241   3.005  0.4286 -0.1188  0.1215
  754SOL    HW1 2261   1.203   1.171   2.974 -1.3026  1.1996 -1.9695
  754SOL    HW2 2262   1.173   1.339   3.013 -0.0843 -1.0956  0.0863
  755SOL     OW 2263   1.924   0.500   2.183  0.2288 -0.3855  0.6879
  755SOL    HW1 2264   1.992   0.425   2.209  1.6463  0.2901  0.4699
  755SOL    HW2 2265   1.846   0.501   2.251  3.0654  0.0728 -5.1093
  756SOL     OW 2266   2.497   0.987   2.992  0.1837 -0.2701 -0.4057
  756SOL    HW1 2267   2.598   0.964   2.975  0.1080 -0.6335 -1.7254
  756SOL    HW2 2268   2.443   0.924   3.055  2.4128 -0.8094 -1.6722
  757SOL     OW 2269   0.134   0.419   1.958  0.1397 -0.3736 -0.1578
  757SOL    HW1 2270   0.174   0.325   1.951 -0.6592  2.5897 -2.8499
  757SOL    HW2 2271   0.047   0.414   2.017 -2.9017  1.7196  1.8680
  758SOL     OW 2272   2.342   0.079   1.408 -0.3121  0.1749  0.0396
  758SOL    HW1 2273   2.299   0.015   1.476 -1.0916  0.3744  0.2914
  758SOL    HW2 2274   2.287   0.077   1.319 -1.0227 -1.2421 -2.0770
  759SOL     OW 2275   1.712   0.119   0.095  0.5776  0.0019  0.0627
  759SOL    HW1 2276   1.704   0.127  -0.008  3.1369  0.6107  1.2433
  759SOL    HW2 2277   1.814   0.113   0.124 -0.4619 -1.3907 -3.0061
  760SOL     OW 2278   2.704   2.118   2.799  0.4612 -0.5545  0.3330
  760SOL    HW1 2279   2.665   2.168   2.882 -2.5492 -1.1663 -0.2537
  760SOL    HW2 2280   2.801   2.147   2.776 -2.7462  0.2405  0.1865
  761SOL     OW 2281   1.956   1.782   1.765  0.0747 -0.0150 -0.1908
  761SOL    HW1 2282   1.994   1.687   1.777  0.4164 -0.7583 -1.2463
  761SOL    HW2 2283   1.893   1.776   1.682 -2.5009  1.7725  0.1728
  762SOL     OW 2284   0.487   2.388   0.926  0.3533 -0.0593  0.2489
  762SOL    HW1 2285   0.523   2.403   0.830 -0.8723  0.7566 -0.4873
  762SOL    HW2 2286   0.564   2.391   0.995  1.8695 -1.4085  0.8656
  763SOL     OW 2287   2.143   1.611   2.965 -0.7955 -0.0381  0.5869
  763SOL    HW1 2288   2.233   1.569   2.996  0.5472 -2.1308  1.8183
  763SOL    HW2 2289   2.061   1.559   3.005  1.1803  0.3562 -2.2701
  764SOL     OW 2290   0.658   0.575   0.666 -0.1586 -0.4055 -0.4982
  764SOL    HW1 2291   0.586   0.505   0.646  2.6986  2.9846  0.7527
  764SOL    HW2 2292   0.740   0.539   0.723  0.4472  0.6703 -1.8012
  765SOL     OW 2293   0.815   0.241   0.729  0.1480  0.4099  0.2447
  765SOL    HW1 2294   0.803   0.177   0.649  2.8819  1.6568  4.6478
  765SOL    HW2 2295   0.865   0.333   0.706  0.9844  4.8195 -3.5570
  766SOL     OW 2296   2.904   2.202   3.057 -0.2801  0.4253  0.0896
  766SOL    HW1 2297   2.841   2.182   3.140 -1.2242  1.0276 -1.1848
  766SOL    HW2 2298   2.956   2.289   3.071 -0.3588 -0.1376 -2.0962
  767SOL     OW 2299   2.842   1.626   0.498  0.4239 -0.0308  0.3129
  767SOL    HW1 2300   2.763   1.675   0.546 -1.7645 -2.2142  0.9842
  767SOL    HW2 2301   2.932   1.636   0.549 -0.0732  0.8171  3.1853
  768SOL     OW 2302   1.021   0.233   0.207  0.2092 -0.2432 -0.5073
  768SOL    HW1 2303   0.998   0.261   0.305  0.8073 -1.1654 -0.5406
  768SOL    HW2 2304   1.116   0.186   0.202 -1.1365 -1.3942 -0.2439
  769SOL     OW 2305   1.144   1.786   2.282 -0.5059  0.3954 -0.0979
  769SOL    HW1 2306   1.061   1.803   2.341  0.9903 -1.8692 -1.0569
  769SOL    HW2 2307   1.228   1.802   2.341  2.9268  1.4249  0.2210
  770SOL     OW 2308   0.179   1.157   2.282  0.3165 -0.2037  0.1852
  770SOL    HW1 2309   0.240   1.187   2.359  1.8670  3.5630 -0.6301
  770SOL    HW2 2310   0.074   1.164   2.298  1.3096  0.6129 -0.7423
  771SOL     OW 2311   3.072   2.812   1.891 -0.0375  0.0968 -0.2836
  771SOL    HW1 2312   3.005   2.865   1.829  1.7201  0.0945  1.1905
  771SOL    HW2 2313   3.083   2.852   1.988  0.5908 -0.2583  0.7480
  772SOL     OW 2314   2.333   0.209   2.849  0.6670 -0.1732 -0.2841
  772SOL    HW1 2315   2.383   0.145   2.781  0.5819  0.4342  0.4836
  772SOL    HW2 2316   2.399   0.247   2.914 -4.4233 -1.2689 -0.4584
  773SOL     OW 2317   0.580   2.074   2.454 -0.1428 -0.2244 -0.3024
  773SOL    HW1 2318   0.581   2.168   2.409  1.2208  3.7933 -1.5367
  773SOL    HW2 2319   0.505   2.067   2.523 -0.9164  2.7845 -1.0562
  774SOL     OW 2320   2.096   0.010   2.636  0.0299 -0.2664  0.4274
  774SOL    HW1 2321   2.116   0.112   2.644  2.1202  0.9565  1.4128
  774SOL    HW2 2322   2.184  -0.041   2.650  0.4861  1.2370 -0.1699
  775SOL     OW 2323   2.524   2.863   2.304  0.2025  0.0447 -0.4432
  775SOL    HW1 2324   2.441   2.846   2.249  1.5194  1.5304  0.9605
  775SOL    HW2 2325   2.501   2.891   2.402  0.2687  0.7207  3.5010
  776SOL     OW 2326   0.008   1.236   0.185  0.0259 -0.2828  0.1158
  776SOL    HW1 2327  -0.060   1.190   0.118  0.5769  2.1920  1.0319
  776SOL    HW2 2328  -0.026   1.244   0.282 -1.7721 -1.6227 -1.9635
  777SOL     OW 2329   0.378   3.001   0.496  0.8158  0.6748  0.3496
  777SOL    HW1 2330   0.277   2.974   0.475  1.2826 -0.7099  2.2560
  777SOL    HW2 2331   0.440   2.921   0.465 -1.4009  0.1998 -1.3069
  778SOL     OW 2332   1.322   1.991   0.255  0.0757  0.5739  0.6522
  778SOL    HW1 2333   1.238   2.023   0.304 -0.2312 -1.0276  0.3788
  778SOL    HW2 2334   1.356   2.052   0.175  3.4052 -0.5995  0.3412
  779SOL     OW 2335   0.141   0.786   0.502 -0.3672  0.0456 -0.1071
  779SOL    HW1 2336   0.083   0.699   0.472 -2.6637 -3.4939 -1.8165
  779SOL    HW2 2337   0.094   0.847   0.568  0.6123 -0.5137 -0.7648
  780SOL     OW 2338   0.127   0.328   2.349  0.2297  0.6417 -0.1963
  780SOL    HW1 2339   0.129   0.417   2.400  1.3811 -1.4588 -0.9551
  780SOL    HW2 2340   0.217   0.312   2.298 -0.1603  0.4955  0.5818
  781SOL     OW 2341   0.704   1.666   1.528 -0.2874 -0.1856 -0.0142
  781SOL    HW1 2342   0.770   1.610   1.587  1.1567 -0.6844  0.3195
  781SOL    HW2 2343   0.612   1.619   1.510 -0.7950  2.0000 -0.7990
  782SOL     OW 2344   2.625   3.095   0.885 -0.4184  0.3689  0.0457
  782SOL    HW1 2345   2.546   3.098   0.817 -1.2387 -0.1389  1.3923
  782SOL    HW2 2346   2.592   3.103   0.988 -1.7854 -2.6941  3.1490
  783SOL     OW 2347   2.718   0.693   2.426  0.1067  0.4923 -0.7253
  783SOL    HW1 2348   2.707   0.705   2.530  1.0963 -0.1351  0.2979
  783SOL    HW2 2349   2.691   0.600   2.387  1.4716 -0.0875  1.1338
  784SOL     OW 2350   1.428   2.144   0.044  0.0162 -0.6087  0.0369
  784SOL    HW1 2351   1.489   2.192   0.108  2.3427 -0.3973 -0.9184
  784SOL    HW2 2352   1.447   2.174  -0.054 -0.4802 -0.1206  1.4560
  785SOL     OW 2353   2.109   0.290   0.041 -0.3355  0.1019  0.0251
  785SOL    HW1 2354   2.025   0.333   0.091  1.8378  4.3137  1.2746
  785SOL    HW2 2355   2.122   0.346  -0.046  0.0978  0.4093 -2.7156
  786SOL     OW 2356   2.048   2.176   2.272 -0.1828  0.2364  0.6130
  786SOL    HW1 2357   2.001   2.100   2.319 -0.0596  2.1122  0.3951
  786SOL    HW2 2358   2.153   2.158   2.256  3.1754 -1.8992 -1.5787
  787SOL     OW 2359   1.417   0.520   0.874 -0.2572  0.1445  0.7421
  787SOL    HW1 2360   1.330   0.580   0.882  0.7715 -0.1588 -0.8704
  787SOL    HW2 2361   1.445   0.509   0.773 -1.2396  2.2061 -1.7487
  788SOL     OW 2362   1.231   0.439   0.004 -0.1011 -0.3253 -0.1552
  788SOL    HW1 2363   1.148   0.399  -0.041 -0.0851  1.3260  1.4828
  788SOL    HW2 2364   1.214   0.511   0.079  0.5609  1.4432 -2.3021
  789SOL     OW 2365   2.578   0.097   1.984 -0.0208  0.3322  0.0098
  789SOL    HW1 2366   2.536   0.047   1.899 -1.8893 -2.4587 -2.9316
  789SOL    HW2 2367   2.666   0.050   2.019  2.0991  1.1591 -1.2087
  790SOL     OW 2368   2.592   2.814   0.706  0.0748  0.5663 -0.0684
  790SOL    HW1 2369   2.659   2.880   0.665 -0.5935 -4.9181  0.8903
  790SOL    HW2 2370   2.592   2.820   0.812  1.6739 -1.0181  2.3789
  791SOL     OW 2371   1.943   1.183   0.150 -0.1177  0.1567 -0.2883
  791SOL    HW1 2372   1.858   1.146   0.193  0.6304 -0.0207  0.1708
  791SOL    HW2 2373   2.001   1.213   0.229 -2.4268  2.6868 -1.8390
  792SOL     OW 2374   0.474   1.907   2.227 -0.4856 -0.5226 -0.3532
  792SOL    HW1 2375   0.526   1.963   2.299  1.3178 -2.8678  0.6973
  792SOL    HW2 2376   0.469   1.806   2.257  0.0346 -2.1525  1.4077
  793SOL     OW 2377   2.112   1.602   2.077 -0.0504  0.7934 -0.2257
  793SOL    HW1 2378   2.203   1.646   2.057 -3.5667 -2.1527  0.7056
  793SOL    HW2 2379   2.114   1.498   2.059  0.4626  1.5192  0.5265
  794SOL     OW 2380   0.435   1.605   2.244  0.2301 -1.0797  0.0446
  794SOL    HW1 2381   0.464   1.554   2.156  1.0921  1.2118 -1.7435
  794SOL    HW2 2382   0.377   1.544   2.304  0.6041  1.2648  1.2274
  795SOL     OW 2383   2.475   2.233   1.801 -0.4104 -0.2888 -0.3338
  795SOL    HW1 2384   2.498   2.190   1.891 -2.0899 -1.7752 -1.6964
  795SOL    HW2 2385   2.441   2.165   1.733 -0.6574  3.7113  0.5267
  796SOL     OW 2386   3.088   1.099   2.736  0.0812 -0.6817 -0.0655
  796SOL    HW1 2387   2.987   1.110   2.731 -0.8531 -0.6575 -2.2732
  796SOL    HW2 2388   3.126   1.123   2.827  0.3829 -0.4147 -1.8867
  797SOL     OW 2389   0.806   0.681   1.450 -0.1646 -0.0074  0.4691
  797SOL    HW1 2390   0.863   0.742   1.511  1.2464  0.4570  1.8991
  797SOL    HW2 2391   0.750   0.735   1.380 -3.1137 -1.5194  0.2734
  798SOL     OW 2392   1.371   0.490   1.172  0.2225 -0.1886  0.2069
  798SOL    HW1 2393   1.412   0.433   1.250  1.8505 -1.8467 -1.9028
  798SOL    HW2 2394   1.412   0.468   1.079 -0.7030  3.4515  0.5464
  799SOL     OW 2395   1.943   2.641   1.064 -0.0081 -0.1002 -0.1396
  799SOL    HW1 2396   1.861   2.601   1.116 -1.1965  0.5425  2.6575
  799SOL    HW2 2397   1.924   2.684   0.972 -1.0764  0.6256  1.5235
  800SOL     OW 2398   3.050   0.627   1.829  0.1335  0.0928  0.1654
  800SOL    HW1 2399   2.999   0.693   1.893  0.2185  0.9015  0.7538
  800SOL    HW2 2400   3.080   0.544   1.883 -1.5984 -2.6361  0.8653
  801SOL     OW 2401   1.881   2.184   0.181  0.1313  0.3293  0.4334
  801SOL    HW1 2402   1.818   2.157   0.104  3.7575 -0.3975  0.0571
  801SOL    HW2 2403   1.979   2.155   0.162  1.2069 -1.0388  0.5790
  802SOL     OW 2404   0.734   0.830   2.554  0.4967 -0.1119  0.3505
  802SOL    HW1 2405   0.792   0.794   2.476  1.8660  0.5004 -0.5735
  802SOL    HW2 2406   0.631   0.809   2.550  1.9728  2.1871  1.4036
  803SOL     OW 2407   0.881   0.163   0.984  0.2615 -0.0216 -0.6549
  803SOL    HW1 2408   0.965   0.224   1.005  2.1944 -0.0393  0.6857
  803SOL    HW2 2409   0.838   0.184   0.890 -1.2690  0.9534 -1.1455
  804SOL     OW 2410   0.378   3.075   2.072  0.3620 -0.0241 -0.1264
  804SOL    HW1 2411   0.323   3.141   2.015  0.9206  0.8686 -1.7983
  804SOL    HW2 2412   0.336   2.980   2.073 -0.3474 -2.0146 -1.3394
  805SOL     OW 2413   2.435   0.290   0.297  0.0106  0.4677  0.2094
  805SOL    HW1 2414   2.539   0.287   0.307  3.0845 -1.2050  0.7861
  805SOL    HW2 2415   2.415   0.237   0.212  0.9621 -3.1296 -1.0664
  806SOL     OW 2416   0.708   2.395   1.673 -0.2547  0.3092 -0.2714
  806SOL    HW1 2417   0.699   2.497   1.704 -1.5101 -0.0984  0.1978
  806SOL    HW2 2418   0.804   2.371   1.634 -1.0092  0.6656 -0.1961
  807SOL     OW 2419   2.493   0.930   0.443 -0.0484 -0.2191 -0.2332
  807SOL    HW1 2420   2.595   0.907   0.452  0.1507  3.0060  0.7683
  807SOL    HW2 2421   2.452   0.975   0.357 -0.4938  1.7903 -2.3974
  808SOL     OW 2422   0.619   1.972   3.014 -0.8807  0.4581 -0.2762
  808SOL    HW1 2423   0.559   2.028   3.077  0.3356 -2.3327 -1.0814
  808SOL    HW2 2424   0.578   1.882   2.984  0.7911 -0.5943  1.2694
  809SOL     OW 2425   2.698   2.003   1.916 -0.0227 -0.2156 -0.0929
  809SOL    HW1 2426   2.791   2.049   1.908 -0.0786  1.5678  0.4023
  809SOL    HW2 2427   2.673   1.951   1.828 -2.2239  1.9724 -1.3931
  810SOL     OW 2428   2.101   1.129   0.517  0.2268  0.1566  0.6044
  810SOL    HW1 2429   2.168   1.107   0.587 -0.1945 -0.9209  0.3524
  810SOL    HW2 2430   2.039   1.210   0.543 -3.0667  4.2567  2.6354
  811SOL     OW 2431   1.346   2.303   1.214 -0.4860  0.4447 -0.2064
  811SOL    HW1 2432   1.311   2.243   1.293  2.4261 -0.5719  2.4232
  811SOL    HW2 2433   1.322   2.265   1.121  2.9320 -0.6090 -1.4244
  812SOL     OW 2434   1.360   0.755   1.983 -0.1505  0.0674  0.0763
  812SOL    HW1 2435   1.418   0.834   2.019 -2.8789  1.7820 -0.8530
  812SOL    HW2 2436   1.258   0.780   1.972 -0.3690  2.1240  2.2902
  813SOL     OW 2437   1.709   2.021   2.463 -0.3784  0.1957 -0.0638
  813SOL    HW1 2438   1.783   1.948   2.467 -2.6223  0.7400 -0.8497
  813SOL    HW2 2439   1.675   2.038   2.372 -1.5812 -1.5110 -0.2454
  814SOL     OW 2440   2.865   1.604   2.921 -0.0093 -1.2175  0.2042
  814SOL    HW1 2441   2.963   1.608   2.959 -0.3950 -0.8880 -3.4912
  814SOL    HW2 2442   2.854   1.675   2.848  0.2562 -1.4840 -1.0514
  815SOL     OW 2443   2.277   2.886   2.676  0.2324  0.2330  0.0064
  815SOL    HW1 2444   2.219   2.839   2.747  1.0551 -3.7833 -0.5852
  815SOL    HW2 2445   2.380   2.884   2.697  0.5457 -1.8167 -0.3773
  816SOL     OW 2446   1.743   0.333   1.634  0.5724 -0.0917  0.3626
  816SOL    HW1 2447   1.643   0.355   1.645 -0.6141 -0.7146 -2.0685
  816SOL    HW2 2448   1.793   0.306   1.720 -0.7808  3.2812 -1.2124
  817SOL     OW 2449   0.471   1.203   2.465  0.0583 -0.4114  0.4577
  817SOL    HW1 2450   0.428   1.291   2.434 -0.1666  0.7940 -1.3469
  817SOL    HW2 2451   0.557   1.168   2.412 -1.5581 -1.9106 -1.3037
  818SOL     OW 2452   2.029   0.818   0.444 -0.5524  0.1424  0.0759
  818SOL    HW1 2453   2.071   0.914   0.438  0.8086 -0.2404 -0.0398
  818SOL    HW2 2454   1.954   0.814   0.511  1.0863 -0.3773 -2.5811
  819SOL     OW 2455   2.759   2.977   3.055  0.0269 -0.2667 -0.2828
  819SOL    HW1 2456   2.843   2.923   3.024 -0.7718 -1.0251  1.9825
  819SOL    HW2 2457   2.669   2.940   3.022 -1.1140 -1.2446 -1.0783
  820SOL     OW 2458   1.193   1.090   0.564 -0.4072 -0.3948 -0.3485
  820SOL    HW1 2459   1.248   1.176   0.582  1.0219  0.9946  1.4451
  820SOL    HW2 2460   1.206   1.025   0.643  0.0753 -0.1527 -0.4205
  821SOL     OW 2461   3.081   1.315   0.646 -0.2505 -0.7547 -0.0751
  821SOL    HW1 2462   3.043   1.308   0.748 -1.6476  1.1162  3.7481
  821SOL    HW2 2463   3.151   1.390   0.639 -2.2252  0.9333  0.0700
  822SOL     OW 2464   2.561   1.771   2.480  0.2321 -0.0585 -0.0389
  822SOL    HW1 2465   2.602   1.847   2.541  0.3415  1.7741 -0.9661
  822SOL    HW2 2466   2.480   1.803   2.426  1.5618  2.3746 -1.8273
  823SOL     OW 2467   2.006   0.873   1.185  0.1987  0.6274 -0.0802
  823SOL    HW1 2468   1.992   0.887   1.286  1.3453  1.5222  0.6029
  823SOL    HW2 2469   1.920   0.885   1.129  1.3757  0.2653 -0.3386
  824SOL     OW 2470   0.205   2.061   2.731 -0.7964  0.2881  0.1377
  824SOL    HW1 2471   0.170   1.998   2.813  0.8717 -1.1909  2.4271
  824SOL    HW2 2472   0.231   2.003   2.643  3.8664 -2.2366  0.6203
  825SOL     OW 2473   1.268   1.087   0.290 -0.7123 -0.7987 -0.4253
  825SOL    HW1 2474   1.234   1.102   0.389 -2.6190 -0.7450 -0.5521
  825SOL    HW2 2475   1.283   1.170   0.228  0.9071  1.2688 -0.6760
  826SOL     OW 2476   1.909   0.683   1.551  0.1106 -0.1609 -0.0566
  826SOL    HW1 2477   1.946   0.617   1.620  0.5530  4.1265 -0.3526
  826SOL    HW2 2478   1.837   0.644   1.488 -0.5108 -0.0488  2.9878
  827SOL     OW 2479   0.788   1.400   0.241  0.1033 -0.2135  0.0223
  827SOL    HW1 2480   0.806   1.333   0.165 -0.2956  2.4685  0.8502
  827SOL    HW2 2481   0.735   1.360   0.321 -1.2995 -1.1088  1.1627
  828SOL     OW 2482   2.574   0.056   1.596  0.1004 -0.1124  0.0623
  828SOL    HW1 2483   2.478   0.085   1.569 -0.5406  0.5525  1.9450
  828SOL    HW2 2484   2.562  -0.026   1.658 -1.3210  0.5643 -1.6229
  829SOL     OW 2485   2.740   2.506   3.000 -0.0382 -0.5059  0.1505
  829SOL    HW1 2486   2.686   2.422   3.019 -1.1519  1.0786  4.2520
  829SOL    HW2 2487   2.725   2.576   3.075 -1.2991  1.1087 -1.8623
  830SOL     OW 2488   2.783   0.925   2.985 -0.1747 -0.2419  0.0094
  830SOL    HW1 2489   2.826   1.002   3.035 -2.3754 -1.8570 -1.1155
  830SOL    HW2 2490   2.817   0.831   3.018  2.8665  1.4732 -1.3217
  831SOL     OW 2491   0.007   0.600   0.387 -0.3401  0.1396  0.6237
  831SOL    HW1 2492  -0.029   0.525   0.447  0.1396  0.0784 -1.8805
  831SOL    HW2 2493   0.003   0.575   0.284  1.2582 -0.7101 -1.6409
  832SOL     OW 2494   1.797   0.746   3.068  0.2952  0.2751 -0.1276
  832SOL    HW1 2495   1.717   0.812   3.046 -0.0641  0.2326  1.0799
  832SOL    HW2 2496   1.786   0.649   3.041  0.4592  0.8299 -1.6105
  833SOL     OW 2497   2.407   2.123   0.589  0.5153  0.1816 -0.6543
  833SOL    HW1 2498   2.316   2.154   0.542 -1.8156 -0.6280  0.6481
  833SOL    HW2 2499   2.456   2.036   0.554  3.2745 -0.7787  0.5969
  834SOL     OW 2500   0.036   0.219   0.701  0.5108  0.1264 -0.3971
  834SOL    HW1 2501   0.073   0.181   0.790 -1.0544 -0.2369 -2.6752
  834SOL    HW2 2502   0.107   0.203   0.628  4.0930 -1.7011  1.7278
  835SOL     OW 2503   2.465   1.480   1.190 -0.6083 -0.1535  0.2907
  835SOL    HW1 2504   2.559   1.514   1.209 -1.4512 -1.3495 -3.3284
  835SOL    HW2 2505   2.459   1.451   1.090 -1.7290 -3.4097 -1.9372
  836SOL     OW 2506   1.551   0.865   2.587 -0.2899  0.0366  0.1855
  836SOL    HW1 2507   1.450   0.872   2.569  1.4337  0.6266 -0.9200
  836SOL    HW2 2508   1.607   0.901   2.509  0.4421 -1.6082  0.8899
  837SOL     OW 2509   1.516   0.084   0.452 -0.0220 -0.3727  0.9558
  837SOL    HW1 2510   1.500   0.180   0.426 -0.2358 -0.9239  1.3753
  837SOL    HW2 2511   1.533   0.022   0.368 -0.5066 -4.2786  2.4626
  838SOL     OW 2512   1.345   1.631   2.675 -0.4189 -0.2854 -0.2087
  838SOL    HW1 2513   1.390   1.576   2.755  0.3627 -1.0948  0.4085
  838SOL    HW2 2514   1.275   1.565   2.636  0.7683 -1.7384 -1.4701
  839SOL     OW 2515   1.618   0.243   0.968 -0.4815  0.6537  0.3503
  839SOL    HW1 2516   1.645   0.306   1.046  0.2813 -0.6728 -2.1535
  839SOL    HW2 2517   1.616   0.140   0.996 -3.3883 -1.6885  1.1463
  840SOL     OW 2518   2.565   2.906   1.721 -0.1395  0.0136 -0.1634
  840SOL    HW1 2519   2.509   2.886   1.636  0.6497  1.4695 -2.2785
  840SOL    HW2 2520   2.589   2.824   1.783  2.7483 -4.2924  1.5408
  841SOL     OW 2521   1.586   0.908   3.053 -0.5633  0.5263 -0.1923
  841SOL    HW1 2522   1.505   0.918   3.125 -0.1333 -0.4907  0.0706
  841SOL    HW2 2523   1.570   0.955   2.963  0.8718  1.2982 -0.7201
  842SOL     OW 2524   0.797   1.488   0.886  0.1999  0.3147 -0.2939
  842SOL    HW1 2525   0.759   1.561   0.950  0.7371  1.4005  0.0285
  842SOL    HW2 2526   0.719   1.421   0.867 -1.3320 -1.5227  1.4698
  843SOL     OW 2527   0.132   3.063   1.399 -0.1281  0.0805 -0.1548
  843SOL    HW1 2528   0.157   3.147   1.456 -2.3047 -2.1850  1.7183
  843SOL    HW2 2529   0.099   2.992   1.465  2.6272  0.2668 -0.7814
  844SOL     OW 2530   0.789   2.456   0.235 -0.2020 -0.1154  0.2172
  844SOL    HW1 2531   0.741   2.413   0.315  1.8418 -0.3750  0.1334
  844SOL    HW2 2532   0.758   2.551   0.210 -0.1623 -0.6057  0.3311
  845SOL     OW 2533   1.660   2.839   1.278 -0.6983 -0.3661 -0.3439
  845SOL    HW1 2534   1.692   2.745   1.257  0.3759 -1.6197 -1.9325
  845SOL    HW2 2535   1.647   2.863   1.381  0.8588  0.1279  4.5221
  846SOL     OW 2536   1.511   3.034   0.764  0.1095 -0.3867 -0.2170
  846SOL    HW1 2537   1.505   3.136   0.735  5.4848 -0.9685 -0.8446
  846SOL    HW2 2538   1.535   2.983   0.675  1.4404 -0.4166 -1.2972
  847SOL     OW 2539   2.086   1.764   0.454  0.0091  0.2130 -0.4158
  847SOL    HW1 2540   2.092   1.668   0.426 -1.5240  5.6775  4.1331
  847SOL    HW2 2541   1.989   1.797   0.475  1.8155  0.7472 -0.4026
  848SOL     OW 2542   2.419   0.880   2.629  0.6200 -0.1091  0.3082
  848SOL    HW1 2543   2.395   0.937   2.712 -0.4205  0.8650 -1.9041
  848SOL    HW2 2544   2.347   0.807   2.616  1.2863  2.5532  1.6422
  849SOL     OW 2545   2.543   0.917   2.378 -0.6131 -0.7641 -0.1372
  849SOL    HW1 2546   2.619   0.852   2.399 -1.3334  0.4317 -2.8623
  849SOL    HW2 2547   2.471   0.915   2.457 -2.0544  0.5146  0.5735
  850SOL     OW 2548   1.571   0.028   1.353 -0.1684  0.2097  0.0106
  850SOL    HW1 2549   1.594  -0.031   1.266  1.2483  0.0476 -2.3451
  850SOL    HW2 2550   1.491  -0.023   1.403 -2.1668 -1.0498  0.3475
  851SOL     OW 2551   0.580   1.705   0.735  0.1381  0.2311 -0.4253
  851SOL    HW1 2552   0.680   1.724   0.762  3.9200 -0.5342  0.5218
  851SOL    HW2 2553   0.573   1.681   0.635  1.2012 -0.8759 -4.2970
  852SOL     OW 2554   0.837   2.088   1.656 -0.0884  0.0753 -0.0580
  852SOL    HW1 2555   0.807   2.163   1.594  3.2088 -0.2417  0.4214
  852SOL    HW2 2556   0.774   2.064   1.738 -1.1803  1.4433 -0.1576
  853SOL     OW 2557   2.534   1.537   2.638  0.1596 -0.3102 -0.2190
  853SOL    HW1 2558   2.461   1.470   2.611 -0.2965 -0.6990 -0.5900
  853SOL    HW2 2559   2.545   1.620   2.577  1.4471 -0.5037  0.8576
  854SOL     OW 2560   2.420   1.416   1.768 -0.4626 -0.3887  0.3048
  854SOL    HW1 2561   2.488   1.374   1.702  1.2889  0.6477  0.4381
  854SOL    HW2 2562   2.366   1.345   1.814  0.6657 -1.2660 -0.6816
  855SOL     OW 2563   2.068   2.382   1.131 -0.3377  0.0879 -0.0547
  855SOL    HW1 2564   1.997   2.454   1.106  0.1639 -0.1942 -2.2745
  855SOL    HW2 2565   2.145   2.424   1.189  0.7495  1.1407  0.6342
  856SOL     OW 2566   1.349   1.409   0.903 -0.1573  0.1670  0.5683
  856SOL    HW1 2567   1.420   1.462   0.957 -2.9165 -0.4717 -1.0477
  856SOL    HW2 2568   1.255   1.445   0.924 -0.5446  2.1474 -1.2953
  857SOL     OW 2569   0.041   2.710   1.051 -0.5505  0.3250  0.6067
  857SOL    HW1 2570   0.057   2.762   0.963 -0.1876 -0.8637  2.6664
  857SOL    HW2 2571   0.103   2.627   1.060  1.9809 -1.4511  0.0640
  858SOL     OW 2572   2.382   2.041   1.639  0.5465  0.4742 -0.1317
  858SOL    HW1 2573   2.302   1.999   1.590 -3.1050  0.6803 -2.8536
  858SOL    HW2 2574   2.450   1.967   1.672  0.4713 -1.3027  0.4887
  859SOL     OW 2575   2.419   0.574   1.095  0.6135 -0.4549  0.0819
  859SOL    HW1 2576   2.479   0.640   1.038 -0.4459  0.1513  1.4233
  859SOL    HW2 2577   2.463   0.482   1.118 -0.9785  0.5943 -1.5695
  860SOL     OW 2578   1.887   2.832   0.468 -0.5326 -0.7008  0.1186
  860SOL    HW1 2579   1.871   2.775   0.383  1.3368 -1.3376  1.6309
  860SOL    HW2 2580   1.935   2.925   0.453 -0.3972  3.2040  2.9692
  861SOL     OW 2581   1.056   2.481   2.887 -0.5353  0.5018 -0.1937
  861SOL    HW1 2582   1.123   2.548   2.843  2.3859 -0.4090 -1.6182
  861SOL    HW2 2583   1.039   2.509   2.985 -0.9467 -0.7749  1.6545
  862SOL     OW 2584   2.812   2.533   1.712  0.0607  0.4634 -0.6935
  862SOL    HW1 2585   2.909   2.523   1.752  2.4278 -0.2487 -1.5740
  862SOL    HW2 2586   2.815   2.609   1.641  3.5097  1.8593  2.6299
  863SOL     OW 2587   1.827   2.726   0.228  0.3689  0.3705  0.2942
  863SOL    HW1 2588   1.840   2.628   0.238 -0.0051  0.5735 -2.5121
  863SOL    HW2 2589   1.731   2.744   0.188 -2.1077 -0.1894  0.2649
  864SOL     OW 2590   2.058   1.214   2.775 -0.0802 -0.3111  0.0714
  864SOL    HW1 2591   2.008   1.180   2.694 -0.3038  0.4086 -2.2048
  864SOL    HW2 2592   2.157   1.185   2.779 -1.0258 -0.0365  2.2439
  865SOL     OW 2593   2.096   1.978   0.710  0.2423 -0.1404 -0.1597
  865SOL    HW1 2594   2.180   1.930   0.741 -2.8213 -1.0279  0.4153
  865SOL    HW2 2595   2.023   1.972   0.782  1.2561 -1.7534 -0.4385
  866SOL     OW 2596   2.963   2.926   1.089 -0.4256  0.5030 -0.1959
  866SOL    HW1 2597   2.970   2.987   1.004  1.8094  1.5423 -3.9623
  866SOL    HW2 2598   3.029   2.846   1.083 -1.2222  2.4682  0.2156
  867SOL     OW 2599   0.345   1.362   0.877 -0.8219  0.1258  0.3065
  867SOL    HW1 2600   0.307   1.288   0.819 -0.3471  2.4216  0.9205
  867SOL    HW2 2601   0.332   1.457   0.834  0.2789  0.4160  1.1082
  868SOL     OW 2602   0.803   1.906   2.068 -0.2787  0.0770 -0.2986
  868SOL    HW1 2603   0.749   1.843   2.134  2.0785 -1.6542  3.2830
  868SOL    HW2 2604   0.747   1.966   2.013 -0.3028 -0.5734  0.2217
  869SOL     OW 2605   2.622   1.896   1.671 -0.0756 -0.8540 -0.4629
  869SOL    HW1 2606   2.684   1.971   1.631  0.1567  0.8366 -2.5731
  869SOL    HW2 2607   2.647   1.808   1.624  1.3051  2.2527  0.5529
  870SOL     OW 2608   2.379   2.671   1.154  0.3218  0.7672 -0.4739
  870SOL    HW1 2609   2.348   2.588   1.212 -0.4960 -3.2547 -2.8582
  870SOL    HW2 2610   2.455   2.724   1.194 -1.2408  0.5275 -2.5852
  871SOL     OW 2611   3.068   2.253   0.554 -0.3264  0.1995  0.1367
  871SOL    HW1 2612   3.017   2.301   0.630  3.2723  2.9654 -0.4621
  871SOL    HW2 2613   3.009   2.240   0.470  2.4801  2.7109 -0.3230
  872SOL     OW 2614   2.073   0.510   1.682  0.1496 -0.6768  0.5987
  872SOL    HW1 2615   2.034   0.532   1.779 -1.3500  0.5563  3.4897
  872SOL    HW2 2616   2.176   0.488   1.696 -0.7876 -0.9933  2.8362
  873SOL     OW 2617   1.731   2.051   3.090 -1.0770  0.8316 -0.2118
  873SOL    HW1 2618   1.656   1.980   3.074 -0.1518  0.2466 -2.4850
  873SOL    HW2 2619   1.740   2.106   3.002  1.3655  0.1089 -1.6024
  874SOL     OW 2620   0.653   2.487   0.703  0.4685  0.1244 -0.1930
  874SOL    HW1 2621   0.651   2.581   0.756  0.3153  4.0515 -1.5713
  874SOL    HW2 2622   0.741   2.441   0.724 -1.5750  3.0452  0.5037
  875SOL     OW 2623   2.370   1.593   1.406 -0.4232  1.2525 -0.6101
  875SOL    HW1 2624   2.441   1.612   1.479 -0.8648 -0.0458  0.2167
  875SOL    HW2 2625   2.414   1.550   1.323 -2.3656  1.5216  1.9895
  876SOL     OW 2626   0.073   2.299   2.657  0.3239 -0.1556 -0.0779
  876SOL    HW1 2627   0.129   2.215   2.667  0.6729  3.5604 -1.7387
  876SOL    HW2 2628   0.114   2.385   2.700 -0.7805 -2.0118  1.3358
  877SOL     OW 2629   2.881   2.621   0.679 -0.1923 -0.2269  0.0354
  877SOL    HW1 2630   2.863   2.713   0.723 -1.0402 -2.3125 -1.1022
  877SOL    HW2 2631   2.977   2.590   0.714 -2.8907 -1.2332  0.4310
  878SOL     OW 2632   2.838   1.615   2.305  0.1885  0.1416 -0.2583
  878SOL    HW1 2633   2.799   1.705   2.274  0.6088  1.9408  2.2327
  878SOL    HW2 2634   2.818   1.578   2.399  0.1204 -2.1682 -0.7911
  879SOL     OW 2635   2.514   0.007   1.125 -0.4631  0.0234 -0.0121
  879SOL    HW1 2636   2.537  -0.018   1.223  0.3582  0.3288  0.1551
  879SOL    HW2 2637   2.412   0.005   1.108 -2.0417 -1.1758 -0.4488
  880SOL     OW 2638   0.641   0.537   2.274  0.0138  0.3890 -0.4267
  880SOL    HW1 2639   0.634   0.509   2.375 -1.0659 -0.6043  0.5172
  880SOL    HW2 2640   0.661   0.454   2.214 -0.5892 -2.5057  0.1866
  881SOL     OW 2641   0.822   0.104   0.497 -0.2007 -0.1778 -0.6419
  881SOL    HW1 2642   0.874   0.014   0.481 -0.8453 -1.4437 -2.4405
  881SOL    HW2 2643   0.723   0.110   0.464 -2.0420  1.8706 -2.5958
  882SOL     OW 2644   2.758   1.622   1.750 -0.4471  0.4674 -0.5039
  882SOL    HW1 2645   2.853   1.595   1.713 -2.8505 -1.8356 -3.2731
  882SOL    HW2 2646   2.727   1.557   1.820 -2.9313 -0.9243 -0.5412
  883SOL     OW 2647   0.838   0.522   0.863 -0.6355 -1.0716 -0.6989
  883SOL    HW1 2648   0.874   0.616   0.893 -0.5110  0.2300  0.2630
  883SOL    HW2 2649   0.771   0.491   0.939 -1.0065  1.5246 -1.0644
  884SOL     OW 2650   1.195   1.735   1.072  0.2554  0.0420  0.5366
  884SOL    HW1 2651   1.123   1.655   1.070 -3.1609 -4.5002  0.7783
  884SOL    HW2 2652   1.183   1.799   0.991  0.5460 -3.4974  0.4723
  885SOL     OW 2653   2.354   1.863   2.291 -0.5935  0.3517 -0.2242
  885SOL    HW1 2654   2.276   1.800   2.320  0.9177  0.4635  0.0665
  885SOL    HW2 2655   2.314   1.959   2.280 -1.1989  0.5878 -0.6184
  886SOL     OW 2656   2.587   0.384   1.762  0.6447 -0.6218  0.7939
  886SOL    HW1 2657   2.617   0.296   1.809 -1.8100  1.6908 -2.1293
  886SOL    HW2 2658   2.643   0.467   1.792 -0.1414  0.9638  0.8635
  887SOL     OW 2659   0.110   2.054   1.353  0.7795 -0.2093  0.1216
  887SOL    HW1 2660   0.005   2.062   1.342 -0.3186 -3.8188  0.2446
  887SOL    HW2 2661   0.165   2.120   1.293 -0.8984 -0.5052  1.0290
  888SOL     OW 2662   0.609   1.215   1.565 -0.2262  0.3900  0.0699
  888SOL    HW1 2663   0.612   1.280   1.483  2.2519  1.6458 -0.5208
  888SOL    HW2 2664   0.609   1.118   1.529 -2.2442  5.3611 -0.6462
  889SOL     OW 2665   0.816   2.445   2.211  0.4546 -0.1401 -0.2984
  889SOL    HW1 2666   0.724   2.401   2.236 -0.2914 -3.9315  1.4585
  889SOL    HW2 2667   0.859   2.402   2.126  0.1733  0.2899 -0.2974
  890SOL     OW 2668   2.392   2.473   0.329  0.4016  0.1754 -0.3871
  890SOL    HW1 2669   2.493   2.495   0.339 -1.6020 -1.0086 -3.6622
  890SOL    HW2 2670   2.335   2.513   0.407 -0.6860  1.9003 -1.2943
  891SOL     OW 2671   2.604   1.721   0.738  0.3770  0.1580 -0.2759
  891SOL    HW1 2672   2.662   1.657   0.788  2.3197  0.2073  0.5164
  891SOL    HW2 2673   2.502   1.705   0.743 -0.2762 -0.9370  0.1514
  892SOL     OW 2674   0.372   0.278   2.241 -0.4397  0.7246  0.2270
  892SOL    HW1 2675   0.469   0.287   2.282 -0.2887  1.9869 -1.4576
  892SOL    HW2 2676   0.372   0.287   2.140 -2.1688  0.0445  2.5073
  893SOL     OW 2677   1.749   0.248   2.678  0.3833  0.0141 -0.1843
  893SOL    HW1 2678   1.851   0.266   2.702  2.6055  1.3875 -0.5034
  893SOL    HW2 2679   1.681   0.332   2.686 -4.0635 -0.8204 -0.7426
  894SOL     OW 2680   2.135   2.101   0.120 -0.0313 -0.4399 -0.1961
  894SOL    HW1 2681   2.128   2.044   0.029  0.4915  0.9570 -0.9094
  894SOL    HW2 2682   2.200   2.062   0.191 -3.8227 -0.7689 -1.0858
  895SOL     OW 2683   2.766   1.464   0.851  0.1629 -0.4694 -0.1595
  895SOL    HW1 2684   2.845   1.399   0.869  1.2160  1.8990  0.3213
  895SOL    HW2 2685   2.763   1.540   0.927  1.7622  2.0542  2.2412
  896SOL     OW 2686   1.837   1.697   1.261 -0.1994  0.5831  0.4835
  896SOL    HW1 2687   1.942   1.686   1.259  0.2903  2.1044 -1.3110
  896SOL    HW2 2688   1.798   1.652   1.177 -0.4783  1.1200  1.2201
  897SOL     OW 2689   0.263   0.530   2.996 -0.7169  0.6412 -0.0398
  897SOL    HW1 2690   0.194   0.584   2.936  1.6746 -0.4174 -2.2626
  897SOL    HW2 2691   0.361   0.572   2.997 -1.0208  0.6015 -0.0897
  898SOL     OW 2692   0.667   2.844   1.111  0.1480 -0.1522  0.1558
  898SOL    HW1 2693   0.757   2.896   1.099 -0.3846 -0.4704 -1.2622
  898SOL    HW2 2694   0.662   2.802   1.203  0.1785 -0.1597 -0.9632
  899SOL     OW 2695   2.871   0.938   1.381  0.4984 -0.0397 -0.7252
  899SOL    HW1 2696   2.849   1.018   1.316 -2.4610 -0.7072  0.1862
  899SOL    HW2 2697   2.967   0.940   1.422  0.4571 -0.7175  3.1404
  900SOL     OW 2698   0.961   2.511   2.438 -0.1583  0.1377  0.7590
  900SOL    HW1 2699   0.909   2.496   2.351  0.3053 -0.4976  3.1226
  900SOL    HW2 2700   0.895   2.509   2.516 -1.1541 -2.5780  0.8564
  901SOL     OW 2701   1.882   2.369   1.442  0.0714 -0.2199 -0.4296
  901SOL    HW1 2702   1.903   2.286   1.384 -1.2237 -1.2089 -1.3882
  901SOL    HW2 2703   1.957   2.442   1.438  2.3498 -0.5124 -0.6796
  902SOL     OW 2704   2.608   1.668   1.503 -0.9727 -0.0419 -0.1645
  902SOL    HW1 2705   2.664   1.649   1.588 -2.1926 -2.6609 -0.0304
  902SOL    HW2 2706   2.656   1.633   1.416  0.9494 -0.3456 -2.1106
  903SOL     OW 2707   0.286   2.354   2.006  0.2521  0.1196  0.0517
  903SOL    HW1 2708   0.270   2.251   1.993 -1.8750  1.3569 -2.8526
  903SOL    HW2 2709   0.283   2.405   1.916  1.5937  0.0384  2.6878
  904SOL     OW 2710   1.972   0.802   2.453  0.2727  0.2382 -0.1201
  904SOL    HW1 2711   1.921   0.724   2.493 -0.9460  0.6712 -0.8629
  904SOL    HW2 2712   2.046   0.771   2.383  3.1840  0.5930 -0.6529
  905SOL     OW 2713   2.815   0.117   2.405 -0.3335  0.3026 -0.0264
  905SOL    HW1 2714   2.890   0.047   2.399  1.7077 -0.4212  1.7089
  905SOL    HW2 2715   2.855   0.204   2.441  1.7051 -0.4410 -1.4896
  906SOL     OW 2716   0.158   1.730   1.899 -0.2523  0.2655  0.2899
  906SOL    HW1 2717   0.093   1.732   1.820 -1.1318  0.9838  1.7979
  906SOL    HW2 2718   0.207   1.817   1.912  1.0940  0.3292 -1.9669
  907SOL     OW 2719   0.252   2.490   0.981 -0.3327  0.4005  0.1679
  907SOL    HW1 2720   0.337   2.435   0.955 -1.8733  1.1928 -1.1051
  907SOL    HW2 2721   0.245   2.573   0.920  0.2449 -2.6935 -0.9993
  908SOL     OW 2722   2.873   2.950   0.395  0.0854  0.1174  0.0066
  908SOL    HW1 2723   2.781   2.980   0.361 -3.3823 -1.5167  1.4493
  908SOL    HW2 2724   2.916   2.887   0.324  0.1562  2.4983  0.2227
  909SOL     OW 2725   0.897   1.032   2.633  0.1930  0.0510 -0.6471
  909SOL    HW1 2726   0.845   0.943   2.616 -0.3647 -0.2648 -1.5020
  909SOL    HW2 2727   0.960   1.062   2.555 -1.6500 -0.6589  1.1015
  910SOL     OW 2728   1.856   1.870   2.108 -0.6491 -0.0563  0.4001
  910SOL    HW1 2729   1.922   1.900   2.030  1.3882 -0.5619 -1.5147
  910SOL    HW2 2730   1.781   1.936   2.138 -0.9469  0.0492  2.2312
  911SOL     OW 2731   1.772   2.850   1.553 -0.6156  0.3945  0.3635
  911SOL    HW1 2732   1.867   2.845   1.507 -0.5553  2.0026 -0.2680
  911SOL    HW2 2733   1.753   2.770   1.619 -1.9642 -1.1322 -0.0795
  912SOL     OW 2734   2.825   0.997   0.716  0.2464 -0.4719 -0.4916
  912SOL    HW1 2735   2.845   0.942   0.801  1.4604 -2.8126 -1.2985
  912SOL    HW2 2736   2.769   1.082   0.741 -1.1154 -1.1379  1.1936
  913SOL     OW 2737   2.592   1.294   1.598  0.1252 -0.1842  0.2119
  913SOL    HW1 2738   2.567   1.189   1.602 -2.6398  0.6390  0.0241
  913SOL    HW2 2739   2.626   1.315   1.502 -0.9174 -2.3928  0.5922
  914SOL     OW 2740   2.898   0.566   1.150 -0.4700 -0.1197  0.6369
  914SOL    HW1 2741   2.903   0.461   1.141  1.3679 -0.0976  0.1210
  914SOL    HW2 2742   2.862   0.604   1.241 -2.5192  1.6339 -1.1009
  915SOL     OW 2743   1.204   0.674   0.921  0.5019  0.6152 -0.3141
  915SOL    HW1 2744   1.257   0.730   0.989 -0.0498 -1.2427 -2.6548
  915SOL    HW2 2745   1.102   0.666   0.940 -0.3543  0.0850 -1.8150
  916SOL     OW 2746   0.596   0.094   0.669  0.5094 -0.2275 -0.0002
  916SOL    HW1 2747   0.637   0.145   0.747 -0.9815  0.8230  2.0005
  916SOL    HW2 2748   0.548   0.154   0.600  1.5587  2.8158 -3.2266
  917SOL     OW 2749   2.846   2.633   2.038 -0.1627 -0.4079  0.0089
  917SOL    HW1 2750   2.762   2.647   1.982  2.2844  1.1125 -0.1452
  917SOL    HW2 2751   2.919   2.681   1.985 -2.7700 -0.5687  0.9861
  918SOL     OW 2752   1.077   2.087   3.038  0.3205  0.0256  0.3117
  918SOL    HW1 2753   1.061   2.162   3.106 -0.5179 -2.3596  1.1912
  918SOL    HW2 2754   1.126   2.122   2.950 -1.3579  2.2945  0.6620
  919SOL     OW 2755   0.761   1.680   2.775 -0.1325 -0.3915  0.4529
  919SOL    HW1 2756   0.837   1.745   2.755 -1.5653 -2.4530  1.6869
  919SOL    HW2 2757   0.755   1.603   2.708  0.2211  0.7261  2.8677
  920SOL     OW 2758   1.354   1.807   2.468 -0.3571  0.4057  0.4371
  920SOL    HW1 2759   1.451   1.787   2.439  0.1555 -2.2319 -0.3104
  920SOL    HW2 2760   1.332   1.758   2.559 -1.5729 -0.6850  3.4625
  921SOL     OW 2761   1.120   0.137   2.566 -0.1746 -0.2172 -0.0636
  921SOL    HW1 2762   1.122   0.090   2.469 -2.7119 -1.4289 -1.9676
  921SOL    HW2 2763   1.027   0.132   2.607  3.2211  0.6782  1.8349
  922SOL     OW 2764   2.171   2.454   2.853  0.4922  0.5919 -0.4562
  922SOL    HW1 2765   2.210   2.359   2.847 -0.2215  1.3988  0.7382
  922SOL    HW2 2766   2.097   2.463   2.783 -0.4196  3.0483 -3.2680
  923SOL     OW 2767   1.171   2.708   0.284 -0.2007  0.0413 -0.1272
  923SOL    HW1 2768   1.247   2.773   0.308 -1.8199  0.7778 -5.0491
  923SOL    HW2 2769   1.203   2.611   0.266  0.6771  2.0456  0.8255
  924SOL     OW 2770   2.926   1.682   0.138  0.7171  0.0841  0.1643
  924SOL    HW1 2771   2.831   1.675   0.095 -3.3240  0.9658  0.9210
  924SOL    HW2 2772   2.994   1.611   0.115  2.2733 -0.8397  2.0075
  925SOL     OW 2773   3.091   2.891   1.586  0.7028  0.2351 -0.4272
  925SOL    HW1 2774   3.002   2.874   1.638 -1.3579  0.8564  3.2572
  925SOL    HW2 2775   3.106   2.820   1.517  0.3657  0.9648  2.1727
  926SOL     OW 2776   1.246   2.731   1.325  0.3966  0.7018 -0.0801
  926SOL    HW1 2777   1.278   2.740   1.227 -1.0944 -2.2150  1.6699
  926SOL    HW2 2778   1.284   2.812   1.379  2.9353 -0.3095 -2.9807
  927SOL     OW 2779   0.372   2.574   1.785 -0.2040  0.4709  0.1032
  927SOL    HW1 2780   0.336   2.519   1.704 -0.2669  0.9548 -1.4154
  927SOL    HW2 2781   0.362   2.675   1.768 -0.5696  0.0793 -1.9543
  928SOL     OW 2782   1.674   2.069   2.195  0.2515  0.2019  0.5916
  928SOL    HW1 2783   1.698   2.150   2.130 -3.0906  0.3365  3.4817
  928SOL    HW2 2784   1.570   2.052   2.201 -0.0222 -0.1222  0.9111
  929SOL     OW 2785   2.436   2.516   2.915 -0.4377 -0.0178 -0.2653
  929SOL    HW1 2786   2.336   2.487   2.926  1.5173 -1.7906  2.1219
  929SOL    HW2 2787   2.476   2.495   2.824  2.8114 -3.9082 -2.3308
  930SOL     OW 2788   2.134   2.063   1.061 -0.2727  0.8051  0.4414
  930SOL    HW1 2789   2.156   2.020   1.153 -0.5624  0.6546  0.3479
  930SOL    HW2 2790   2.130   2.168   1.062 -2.8716 -0.1181  1.3478
  931SOL     OW 2791   0.472   1.601   2.636  0.0725 -0.2024 -0.0583
  931SOL    HW1 2792   0.494   1.619   2.736  2.3149 -0.3272 -2.5439
  931SOL    HW2 2793   0.547   1.545   2.593 -0.3967  1.4194  2.0641
  932SOL     OW 2794   0.360   0.027   3.092  0.3232 -0.7848 -0.5335
  932SOL    HW1 2795   0.384   0.117   3.047 -0.8162 -1.1568  0.8467
  932SOL    HW2 2796   0.402  -0.049   3.040 -2.3893  3.5243 -1.9638
  933SOL     OW 2797   0.990   0.838   2.987  0.2497  0.2746  0.2672
  933SOL    HW1 2798   1.014   0.882   3.075 -1.2640 -1.4061 -0.1609
  933SOL    HW2 2799   0.974   0.738   3.003  0.9550 -0.7647  0.6196
  934SOL     OW 2800   0.880   2.944   2.608 -0.2178  0.3264 -0.5344
  934SOL    HW1 2801   0.835   2.875   2.537  0.3680  0.5948  1.3461
  934SOL    HW2 2802   0.918   2.896   2.693  0.0159 -2.7531  2.4503
  935SOL     OW 2803   0.026   0.635   0.747 -0.6488 -0.3120  0.2566
  935SOL    HW1 2804  -0.016   0.587   0.669 -0.3721 -1.3572  2.2946
  935SOL    HW2 2805  -0.037   0.702   0.799 -3.5967  3.1524  1.4784
  936SOL     OW 2806   1.108   2.888   0.085  0.2361 -0.4747  0.3694
  936SOL    HW1 2807   1.191   2.926   0.035  0.3718 -1.4450  0.2133
  936SOL    HW2 2808   1.136   2.818   0.155  0.7047 -0.8045 -0.3383
  937SOL     OW 2809   2.007   2.606   2.096 -0.6033 -0.1219 -0.0323
  937SOL    HW1 2810   1.979   2.657   2.178  2.6195 -2.2406 -1.1443
  937SOL    HW2 2811   2.009   2.668   2.010 -2.0884  1.8386 -1.7569
  938SOL     OW 2812   2.768   2.111   1.535 -0.1986  0.5233  0.2588
  938SOL    HW1 2813   2.751   2.212   1.533 -1.3654  0.4919  0.1942
  938SOL    HW2 2814   2.847   2.077   1.592  0.7065 -0.9148  1.8612
  939SOL     OW 2815   2.837   1.213   2.483 -0.1769 -0.3029 -0.0738
  939SOL    HW1 2816   2.918   1.174   2.432 -0.8989 -2.9141  0.6974
  939SOL    HW2 2817   2.827   1.161   2.570  1.7560  0.6983  1.7475
  940SOL     OW 2818   1.063   0.420   2.735 -0.3302  0.3697  0.1390
  940SOL    HW1 2819   1.152   0.365   2.735 -0.8813 -2.9202 -1.4489
  940SOL    HW2 2820   1.002   0.402   2.653  0.0028  0.8899  3.2379
  941SOL     OW 2821   0.087   2.811   2.292 -0.2416  0.2403 -0.6482
  941SOL    HW1 2822   0.090   2.712   2.263 -2.7163  1.6510  0.7821
  941SOL    HW2 2823   0.179   2.855   2.289  0.3090 -1.3554  2.4100
  942SOL     OW 2824   0.147   0.040   2.427 -0.4957  0.1028  0.1071
  942SOL    HW1 2825   0.141   0.059   2.529 -1.1196  0.1903  1.3241
  942SOL    HW2 2826   0.156   0.131   2.377  3.1764  1.7000 -1.6313
  943SOL     OW 2827   2.131   1.685   2.366 -0.1003  0.5029  0.0239
  943SOL    HW1 2828   2.116   1.650   2.269 -0.7145 -0.1066 -0.7705
  943SOL    HW2 2829   2.144   1.599   2.426 -2.4717  1.2529 -3.9002
  944SOL     OW 2830   2.183   2.309   1.563  0.6206 -0.0851  0.4422
  944SOL    HW1 2831   2.213   2.320   1.666  2.4933  0.0251 -0.6366
  944SOL    HW2 2832   2.123   2.224   1.560  0.2467 -1.0400 -0.3085
  945SOL     OW 2833   0.650   1.634   0.168  0.5120  0.6916 -0.1389
  945SOL    HW1 2834   0.558   1.617   0.124  0.1988  1.4803 -0.8234
  945SOL    HW2 2835   0.701   1.544   0.189  0.6678  1.5889  0.3101
  946SOL     OW 2836   0.371   0.992   2.587  0.5154  0.2106 -0.1754
  946SOL    HW1 2837   0.335   0.925   2.515 -1.9027 -0.6405 -1.9064
  946SOL    HW2 2838   0.408   1.076   2.541  0.5878  0.2305 -3.5263
  947SOL     OW 2839   1.483   0.539   3.032 -0.6598  0.1495  0.0931
  947SOL    HW1 2840   1.486   0.610   2.958  0.2933 -1.9540  0.5258
  947SOL    HW2 2841   1.394   0.486   3.028  0.3912  0.0691 -0.5307
  948SOL     OW 2842   1.940   2.946   2.139  0.5470 -0.4105  0.2997
  948SOL    HW1 2843   1.950   2.910   2.041  1.8950 -1.0103  3.6374
  948SOL    HW2 2844   1.907   2.866   2.197 -0.2238  0.3917  1.2397
  949SOL     OW 2845   0.584   2.516   0.437  0.2340 -0.3215  0.1007
  949SOL    HW1 2846   0.591   2.613   0.408 -2.2540 -1.6392  0.7716
  949SOL    HW2 2847   0.593   2.505   0.542 -3.1103 -0.1023  3.6824
  950SOL     OW 2848   0.228   2.234   2.959 -0.0285 -0.2433 -0.0343
  950SOL    HW1 2849   0.207   2.318   2.902  0.6998  1.7047 -0.1067
  950SOL    HW2 2850   0.232   2.145   2.896 -4.1985  0.5698  2.5509
  951SOL     OW 2851   1.258   2.681   2.800  0.2693 -0.0521  0.0340
  951SOL    HW1 2852   1.328   2.613   2.819 -1.9014  1.8693 -0.0450
  951SOL    HW2 2853   1.245   2.700   2.696 -0.3011 -0.1306 -2.5461
  952SOL     OW 2854   0.026   1.628   0.413 -0.1513  0.7889 -0.5374
  952SOL    HW1 2855   0.052   1.731   0.399  0.3214  1.2089 -2.7428
  952SOL    HW2 2856   0.079   1.574   0.490  1.7563 -1.2927  1.2363
  953SOL     OW 2857   2.469   1.733   0.316  0.1666 -0.8924  0.0167
  953SOL    HW1 2858   2.469   1.631   0.318 -0.8694  2.7738 -0.8518
  953SOL    HW2 2859   2.459   1.773   0.218  0.0828  0.5699 -0.8527
  954SOL     OW 2860   2.218   0.511   0.916 -0.1779  0.2175  0.4198
  954SOL    HW1 2861   2.242   0.530   0.813  1.6130 -2.0115 -0.0204
  954SOL    HW2 2862   2.300   0.545   0.971 -1.8826 -2.6284  0.4395
  955SOL     OW 2863   0.153   2.620   1.383  0.0179  0.2762 -0.1665
  955SOL    HW1 2864   0.048   2.635   1.379  0.6474 -1.1501  1.9203
  955SOL    HW2 2865   0.217   2.697   1.346  2.5562  0.1771 -0.9934
  956SOL     OW 2866   2.800   2.475   2.535 -0.1900  0.5238  0.2270
  956SOL    HW1 2867   2.827   2.377   2.526 -0.4117  0.4397  1.4433
  956SOL    HW2 2868   2.809   2.538   2.451  2.4537  2.1224 -0.0411
  957SOL     OW 2869   1.649   2.040   2.751 -0.2743  0.4060 -0.0932
  957SOL    HW1 2870   1.602   1.955   2.797 -1.4141 -0.1418 -0.4725
  957SOL    HW2 2871   1.669   2.022   2.653 -0.0964 -3.1634 -0.9199
  958SOL     OW 2872   2.600   2.239   3.024  0.4726  0.6605  0.3237
  958SOL    HW1 2873   2.496   2.260   3.039 -2.1358 -0.2747 -1.2834
  958SOL    HW2 2874   2.640   2.203   3.108 -2.3698  1.1804 -1.8040
  959SOL     OW 2875   0.381   2.814   0.112  0.0655 -0.3174  0.4518
  959SOL    HW1 2876   0.283   2.850   0.113 -2.6871  0.6494  2.5395
  959SOL    HW2 2877   0.395   2.714   0.122  0.0889  1.0187 -0.4856
  960SOL     OW 2878   1.924   0.526   1.911 -0.0827 -0.1372  0.2199
  960SOL    HW1 2879   1.863   0.607   1.874 -3.3088  1.2329  1.5425
  960SOL    HW2 2880   1.920   0.522   2.014 -0.1771 -1.0378 -2.8159
  961SOL     OW 2881   2.511   1.897   1.062 -0.2869  0.2843  0.2916
  961SOL    HW1 2882   2.545   1.993   1.053 -0.6489 -1.1254 -0.3196
  961SOL    HW2 2883   2.507   1.857   1.159 -1.9408 -1.5390  0.2932
  962SOL     OW 2884   1.326   0.916   0.044  0.1776 -0.1906 -0.3945
  962SOL    HW1 2885   1.307   0.970  -0.039 -0.6091 -0.0815  2.1803
  962SOL    HW2 2886   1.314   0.976   0.132  0.6588 -0.2713 -2.0058
  963SOL     OW 2887   2.275   2.587   1.812  0.6014 -0.3343  0.1547
  963SOL    HW1 2888   2.249   2.488   1.829  2.3745  0.7768  0.9245
  963SOL    HW2 2889   2.323   2.625   1.898  1.4213 -1.4513  0.4156
  964SOL     OW 2890   2.333   0.393   1.653  0.1015  0.2359  0.7498
  964SOL    HW1 2891   2.434   0.394   1.697  1.6351  2.0765 -0.4071
  964SOL    HW2 2892   2.339   0.404   1.549  1.2668 -1.0390  0.1445
  965SOL     OW 2893   2.655   3.029   0.222 -0.6055 -0.8641  0.2356
  965SOL    HW1 2894   2.697   2.997   0.131 -0.6266 -2.3974 -0.4657
  965SOL    HW2 2895   2.563   3.077   0.205 -1.8186 -0.6626  1.7660
  966SOL     OW 2896   2.502   2.498   2.251 -0.3580 -0.1515 -0.5816
  966SOL    HW1 2897   2.516   2.591   2.208 -0.5360 -0.7663 -0.7687
  966SOL    HW2 2898   2.401   2.468   2.249 -3.6584 -0.0211  1.8708
  967SOL     OW 2899   2.740   2.866   2.507 -0.1240 -1.0389 -0.5773
  967SOL    HW1 2900   2.766   2.788   2.445  0.3262  0.4473 -0.1637
  967SOL    HW2 2901   2.808   2.941   2.501 -0.5593 -2.5045  3.2942
  968SOL     OW 2902   1.944   1.066   2.579  0.5101  0.3014  0.4189
  968SOL    HW1 2903   1.868   1.138   2.576  1.6802 -0.6284  1.4875
  968SOL    HW2 2904   1.949   0.988   2.508  4.3447  1.1907  0.8702
  969SOL     OW 2905   2.683   2.588   1.056  0.7906 -0.0559  0.2579
  969SOL    HW1 2906   2.709   2.682   1.026  2.7714 -0.5526  0.1382
  969SOL    HW2 2907   2.691   2.513   0.982  2.0819 -0.4191 -1.4111
  970SOL     OW 2908   1.070   2.115   1.870  0.7067 -0.5667  0.1056
  970SOL    HW1 2909   1.057   2.039   1.941  0.0093 -1.4893 -0.3729
  970SOL    HW2 2910   0.998   2.112   1.795  0.7161 -0.2691  2.7419
  971SOL     OW 2911   2.928   2.178   1.970 -0.4065  0.2333 -0.4148
  971SOL    HW1 2912   2.898   2.256   2.033 -0.0576  1.6029 -1.6857
  971SOL    HW2 2913   3.011   2.199   1.916  1.7852 -0.4604  1.4494
  972SOL     OW 2914   1.874   2.453   0.261 -0.0926 -0.5043 -0.5198
  972SOL    HW1 2915   1.896   2.361   0.222  1.2590  3.7124  3.3183
  972SOL    HW2 2916   1.907   2.464   0.359  0.6656 -1.1243  2.1368
  973SOL     OW 2917   1.130   0.885   1.893  0.4917  0.1229 -0.2682
  973SOL    HW1 2918   1.077   0.794   1.909 -3.2483  0.1154  2.5223
  973SOL    HW2 2919   1.072   0.941   1.829 -0.6559 -1.5822  1.3296
  974SOL     OW 2920   1.560   0.545   1.968  0.5211 -0.4740  0.2874
  974SOL    HW1 2921   1.636   0.596   1.918 -0.0635 -0.7678  0.0557
  974SOL    HW2 2922   1.472   0.599   1.982  1.2547  0.6055  0.7505
  975SOL     OW 2923   2.383   3.011   0.034 -0.6853  0.0772  0.3016
  975SOL    HW1 2924   2.307   2.937   0.043 -0.6773 -1.7107 -2.0675
  975SOL    HW2 2925   2.435   2.992  -0.053  0.4335  2.4859 -2.3731
  976SOL     OW 2926   1.927   2.740   2.328 -0.4021  0.0661 -0.4232
  976SOL    HW1 2927   1.838   2.727   2.384 -0.3414 -1.6222  0.0071
  976SOL    HW2 2928   2.006   2.745   2.397  0.3020 -1.4250 -1.0997
  977SOL     OW 2929   0.503   0.665   0.965 -0.3926  0.7508  0.1570
  977SOL    HW1 2930   0.408   0.667   0.923  0.7892  1.7845 -0.7636
  977SOL    HW2 2931   0.556   0.749   0.950 -1.8319 -2.6411  2.0831
   3.10000   3.10000   3.10000
