1000 SPC/Fw water molecules t=   0.01000 step= 10
 2931
    1SOL     OW    1   2.520   0.403   2.575 -0.1584  0.4185  0.2294
    1SOL    HW1    2   2.505   0.301   2.547  1.0863 -2.4395 -0.2865
    1SOL    HW2    3   2.568   0.414   2.669  0.0653  3.9576 -0.5647
    2SOL     OW    4   2.755   3.011   1.415 -0.1631 -0.3909  0.0586
    2SOL    HW1    5   2.844   3.045   1.374 -1.9701 -1.9891 -0.1116
    2SOL    HW2    6   2.690   3.088   1.442 -0.4273  1.4790  2.3415
    3SOL     OW    7   2.732   2.630   0.448 -0.2077  0.3586 -0.1485
    3SOL    HW1    8   2.681   2.541   0.457  0.3020 -1.3363 -0.1551
    3SOL    HW2    9   2.800   2.638   0.527  1.2348 -0.2882  2.6600
    4SOL     OW   10   1.312   1.440   2.325  0.0397  0.1883  0.0685
    4SOL    HW1   11   1.237   1.498   2.359  0.9687 -3.4737 -0.6606
    4SOL    HW2   12   1.316   1.351   2.376  1.1929  0.3760 -1.6197
    5SOL     OW   13   1.170   1.517   3.024  0.1473 -1.1711  0.0384
    5SOL    HW1   14   1.212   1.605   3.056  1.8355 -0.8463 -0.3150
    5SOL    HW2   15   1.073   1.511   3.050  1.2610 -0.2574  1.8544
    6SOL     OW   16   0.162   1.919   2.951  0.0502 -0.3343 -0.4011
    6SOL    HW1   17   0.204   1.893   3.038 -1.4137  2.2604  0.0600
    6SOL    HW2   18   0.074   1.874   2.923  1.5783  2.3478 -0.8822
    7SOL     OW   19   2.603   0.839   1.212 -0.2257  0.0696 -0.1749
    7SOL    HW1   20   2.594   0.778   1.294  1.4869  0.7976 -0.0418
    7SOL    HW2   21   2.610   0.802   1.117 -0.5951  1.3723 -1.9041
    8SOL     OW   22   0.444   0.676   1.600  0.2090  0.5412 -0.7120
    8SOL    HW1   23   0.535   0.623   1.615  1.0212 -1.0835  0.8217
    8SOL    HW2   24   0.363   0.620   1.580  1.1040  2.4325 -0.2103
    9SOL     OW   25   1.144   0.894   2.273  0.4189  0.6919 -0.4307
    9SOL    HW1   26   1.217   0.958   2.249 -2.0823 -2.7578 -2.4687
    9SOL    HW2   27   1.099   0.850   2.188 -1.0228  0.0144  1.2891
   10SOL     OW   28   0.612   1.365   1.332  0.1541  0.0089  0.0479
   10SOL    HW1   29   0.545   1.382   1.252  1.9698 -0.9827  0.1907
   10SOL    HW2   30   0.687   1.434   1.329  0.3415  1.3583  0.8010
   11SOL     OW   31   2.345   2.548   0.908 -0.3625 -0.2960 -0.3092
   11SOL    HW1   32   2.371   2.591   0.996 -3.6228 -1.0547  0.4145
   11SOL    HW2   33   2.416   2.477   0.869  1.4559  0.3682 -1.7293
   12SOL     OW   34   1.445   0.908   0.456 -0.3855  0.1257  0.9935
   12SOL    HW1   35   1.373   0.977   0.427  2.0643  3.6060 -3.2223
   12SOL    HW2   36   1.409   0.808   0.455 -0.3197 -1.3698 -0.2084
   13SOL     OW   37   2.436   0.688   1.808 -0.6827 -0.0915 -0.1201
   13SOL    HW1   38   2.359   0.658   1.876 -2.6124  0.7528  0.4230
   13SOL    HW2   39   2.442   0.628   1.725  0.5611 -3.6467  0.8768
   14SOL     OW   40   1.789   0.033   0.543  0.0473  0.0532 -0.3240
   14SOL    HW1   41   1.704   0.048   0.488  1.0685 -3.3636  0.2366
   14SOL    HW2   42   1.767   0.008   0.641  0.4924  0.9276 -0.2479
   15SOL     OW   43   1.990   2.050   2.797 -0.5645  0.1939 -0.0169
   15SOL    HW1   44   1.938   2.117   2.857  1.5669 -0.4784 -0.6163
   15SOL    HW2   45   1.928   1.981   2.747 -1.7832 -0.6180 -1.4201
   16SOL     OW   46   1.557   1.647   3.096 -0.1290 -0.0179 -0.1828
   16SOL    HW1   47   1.577   1.553   3.063 -0.9051  0.5189 -0.6371
   16SOL    HW2   48   1.587   1.663   3.194  3.3332  0.8507 -0.3602
   17SOL     OW   49   0.044   0.507   0.118  0.7089 -0.9992  0.8786
   17SOL    HW1   50   0.150   0.519   0.100  2.9064  1.4505  0.1049
   17SOL    HW2   51  -0.020   0.520   0.033 -1.8061 -1.3232 -0.6415
   18SOL     OW   52   1.084   2.871   2.132  0.0030  0.2458  0.2728
   18SOL    HW1   53   0.983   2.888   2.113 -0.9827  0.6923 -1.7582
   18SOL    HW2   54   1.136   2.830   2.051  0.2126  1.8283  1.3868
   19SOL     OW   55   0.594   1.055   1.936  0.3734 -0.6188  0.0779
   19SOL    HW1   56   0.533   1.047   2.022 -3.2912  3.0832 -0.4619
   19SOL    HW2   57   0.676   0.991   1.942  0.3821 -2.3220  2.3355
   20SOL     OW   58   0.237   2.731   0.841 -0.0514 -0.4014  0.7574
   20SOL    HW1   59   0.167   2.809   0.827 -0.5440  0.8255 -0.3384
   20SOL    HW2   60   0.301   2.729   0.757  2.9781 -0.0266 -0.2076
   21SOL     OW   61   2.824   0.238   2.112 -0.2822  0.2343  0.2704
   21SOL    HW1   62   2.901   0.175   2.087  0.5983  1.3312 -0.7700
   21SOL    HW2   63   2.805   0.222   2.209 -0.1767  1.4292 -0.5556
   22SOL     OW   64   2.355   0.167   0.078 -0.0775  0.1473  0.3494
   22SOL    HW1   65   2.364   0.061   0.052  0.5821 -0.8523  0.6239
   22SOL    HW2   66   2.259   0.205   0.059  0.7225  1.9959 -1.3265
   23SOL     OW   67   2.738   0.643   0.730  0.5042  0.3294 -0.4946
   23SOL    HW1   68   2.710   0.542   0.711 -0.3077 -1.1519 -2.0517
   23SOL    HW2   69   2.709   0.702   0.648 -1.7944  0.3909  1.6553
   24SOL     OW   70   0.151   1.886   0.402 -0.3638 -0.7306  0.4090
   24SOL    HW1   71   0.057   1.906   0.359  1.4574  1.7758  0.4140
   24SOL    HW2   72   0.227   1.900   0.337 -0.7369  1.1177  2.0499
   25SOL     OW   73   2.279   0.535   0.198 -0.1706 -0.5794 -0.0693
   25SOL    HW1   74   2.324   0.469   0.256 -1.9942  1.1158 -2.0335
   25SOL    HW2   75   2.251   0.498   0.112  0.5468  1.5696  1.1991
   26SOL     OW   76   2.516   2.153   2.084 -0.0560  0.2892 -0.4172
   26SOL    HW1   77   2.577   2.220   2.138  0.7121  1.2675 -0.1543
   26SOL    HW2   78   2.577   2.079   2.039 -0.9944 -1.3436  0.7984
   27SOL     OW   79   0.661   3.011   0.133 -0.3232 -0.3543  0.6640
   27SOL    HW1   80   0.764   3.034   0.112  1.6078 -0.7790 -0.3464
   27SOL    HW2   81   0.607   3.044   0.052  3.5969 -0.8610 -2.4697
   28SOL     OW   82   1.463   0.236   0.179 -0.1552 -0.6083  0.3121
   28SOL    HW1   83   1.565   0.206   0.160  1.6343  0.7423 -1.2761
   28SOL    HW2   84   1.466   0.335   0.161 -1.4310 -2.7979 -0.2700
   29SOL     OW   85   2.023   0.579   0.321 -0.2585 -0.4303 -0.3221
   29SOL    HW1   86   2.031   0.684   0.342 -1.4055  1.5002  2.1198
   29SOL    HW2   87   2.112   0.536   0.299  1.8268 -0.1303  1.9089
   30SOL     OW   88   0.210   2.031   0.910 -0.2466  0.3564  0.0207
   30SOL    HW1   89   0.165   1.990   0.825 -0.9025  0.9094 -3.1830
   30SOL    HW2   90   0.138   2.087   0.954 -0.1940 -0.1614 -0.6570
   31SOL     OW   91   2.122   3.101   2.346 -0.2999  0.2768 -0.4012
   31SOL    HW1   92   2.096   3.113   2.443  1.1343 -0.1547  0.8355
   31SOL    HW2   93   2.042   3.063   2.294 -1.9167 -0.6885  1.6508
   32SOL     OW   94   3.003   0.093   0.272  0.0848  0.4091 -0.8997
   32SOL    HW1   95   2.966   0.034   0.349 -3.6246  1.6057 -2.2452
   32SOL    HW2   96   3.097   0.064   0.227  3.5309 -0.2892  1.1584
   33SOL     OW   97   0.963   0.327   0.463 -0.2248 -0.7731 -0.5212
   33SOL    HW1   98   0.908   0.242   0.484 -0.4635  0.7805  0.2960
   33SOL    HW2   99   1.031   0.365   0.533  3.7171 -0.0005  0.7973
   34SOL     OW  100   0.377   2.906   1.042 -0.1096 -0.3455 -0.2240
   34SOL    HW1  101   0.348   2.864   0.952 -1.9241 -1.1387  1.2954
   34SOL    HW2  102   0.477   2.898   1.064  0.3668  0.5936 -1.7053
   35SOL     OW  103   0.057   3.097   1.767 -0.0846 -0.1054  0.7696
   35SOL    HW1  104   0.021   3.002   1.742 -0.7179 -1.2271 -0.6603
   35SOL    HW2  105   0.012   3.174   1.703 -0.1864  1.8805  1.7731
   36SOL     OW  106   1.903   1.157   1.768  0.2594 -0.4452  0.3405
   36SOL    HW1  107   1.967   1.093   1.710  2.6864  0.5058  2.4510
   36SOL    HW2  108   1.894   1.260   1.733 -3.9023  2.0834  1.4005
   37SOL     OW  109   1.127   0.338   1.010 -0.2924 -0.2387  0.1446
   37SOL    HW1  110   1.172   0.428   1.023 -0.9437  0.7190 -0.9908
   37SOL    HW2  111   1.191   0.254   1.014  3.3826  1.4195  2.0481
   38SOL     OW  112   1.161   2.674   2.332 -0.0698  0.4359  0.4672
   38SOL    HW1  113   1.084   2.629   2.373  5.1196  2.1486  1.8846
   38SOL    HW2  114   1.136   2.742   2.256 -0.1948  0.2037 -0.1177
   39SOL     OW  115   2.426   1.498   0.042  0.0159  0.6717 -0.7264
   39SOL    HW1  116   2.459   1.402   0.007  1.2049 -3.4121 -1.4214
   39SOL    HW2  117   2.337   1.494   0.102 -0.9741 -0.0383  1.0414
   40SOL     OW  118   1.999   2.517   2.625  1.2966 -0.6523  0.0850
   40SOL    HW1  119   1.930   2.600   2.625  0.5876  1.9205 -0.2421
   40SOL    HW2  120   1.971   2.442   2.548 -1.2420 -1.5131 -4.4457
   41SOL     OW  121   2.960   0.713   2.702  0.4657  0.5991  0.5708
   41SOL    HW1  122   2.860   0.727   2.712 -0.5345 -1.2752 -2.3594
   41SOL    HW2  123   2.986   0.616   2.713 -1.5731  1.6380  2.2891
   42SOL     OW  124   1.695   1.715   0.600  0.1912  0.9485 -0.3213
   42SOL    HW1  125   1.652   1.628   0.554  1.5611 -1.1169 -1.4689
   42SOL    HW2  126   1.736   1.783   0.533 -1.3023  1.3494 -0.5804
   43SOL     OW  127   0.451   1.745   1.218 -0.0421 -0.0608 -0.4221
   43SOL    HW1  128   0.406   1.725   1.309 -1.7631 -0.3361 -1.7452
   43SOL    HW2  129   0.377   1.756   1.146 -0.6214  1.7631 -0.2242
   44SOL     OW  130   1.739   2.483   0.011  0.7178 -0.0951  0.2064
   44SOL    HW1  131   1.771   2.559  -0.053 -3.1842 -2.0230 -2.9620
   44SOL    HW2  132   1.801   2.473   0.088 -0.8288 -2.0213 -2.0186
   45SOL     OW  133   0.325   1.895   2.566  0.7629  0.2855  0.1025
   45SOL    HW1  134   0.285   1.927   2.472  3.0678  1.7223 -3.9684
   45SOL    HW2  135   0.408   1.828   2.559 -0.4913 -1.7681  0.6415
   46SOL     OW  136   1.211   0.691   0.134 -0.4474  0.4295  0.6128
   46SOL    HW1  137   1.282   0.765   0.115  0.4825 -3.4963 -0.9670
   46SOL    HW2  138   1.111   0.720   0.124 -0.7696 -0.8451  2.7042
   47SOL     OW  139   0.232   2.423   1.572 -0.4653 -0.1402  0.0853
   47SOL    HW1  140   0.328   2.372   1.558  3.2808 -3.4304 -0.5643
   47SOL    HW2  141   0.214   2.488   1.495  1.0554 -0.9148  0.2316
   48SOL     OW  142   2.668   0.539   0.109 -0.7600  0.7887  0.2239
   48SOL    HW1  143   2.640   0.560   0.207  1.8045  1.0978 -2.7085
   48SOL    HW2  144   2.738   0.608   0.082  0.3767 -0.5906 -1.6578
   49SOL     OW  145   0.372   0.887   1.768 -0.2434 -0.7070 -0.2792
   49SOL    HW1  146   0.466   0.934   1.790  3.0353 -0.6341  2.2396
   49SOL    HW2  147   0.381   0.792   1.723  0.1410 -1.5288 -1.7768
   50SOL     OW  148   1.684   1.064   0.263  0.3343 -0.3432  0.5251
   50SOL    HW1  149   1.673   0.967   0.224 -0.7097 -0.4593  0.2328
   50SOL    HW2  150   1.650   1.067   0.364  0.1495  0.7514  5.0219
   51SOL     OW  151   2.993   1.916   0.326  0.2405 -0.6698  0.3042
   51SOL    HW1  152   3.007   1.955   0.227  0.0754  0.0458 -2.4301
   51SOL    HW2  153   2.945   1.823   0.325  1.6631 -2.6715  2.5172
   52SOL     OW  154   0.803   1.886   0.517 -0.1031  0.2077 -1.2321
   52SOL    HW1  155   0.791   1.983   0.546  0.4001 -0.4957 -0.6300
   52SOL    HW2  156   0.852   1.822   0.586  4.1869 -2.1042  0.7238
   53SOL     OW  157   3.091   0.414   1.522  0.3804 -0.1596  0.2196
   53SOL    HW1  158   3.008   0.368   1.558 -1.4327 -1.1783  2.1222
   53SOL    HW2  159   3.078   0.516   1.513 -0.2866 -1.7366 -0.9157
   54SOL     OW  160   1.768   0.461   3.012 -0.1309  0.1220 -0.1118
   54SOL    HW1  161   1.818   0.417   3.097  2.0058  0.8235 -0.3171
   54SOL    HW2  162   1.669   0.490   3.028 -0.4406  1.1736 -1.7156
   55SOL     OW  163   0.690   2.903   0.647 -0.6357 -0.2692 -0.1188
   55SOL    HW1  164   0.649   2.996   0.675  1.8288  0.6990 -0.1281
   55SOL    HW2  165   0.785   2.917   0.616  1.3604 -0.2046 -1.0106
   56SOL     OW  166   0.459   1.544   3.095  0.5389 -0.1209  0.3318
   56SOL    HW1  167   0.381   1.597   3.139  0.3049 -1.0180 -1.3681
   56SOL    HW2  168   0.448   1.437   3.106  0.8585 -3.0271 -0.3923
   57SOL     OW  169   1.719   2.385   2.666  0.7870 -0.1811  0.1460
   57SOL    HW1  170   1.774   2.389   2.573  0.6671  0.3955 -1.3824
   57SOL    HW2  171   1.636   2.445   2.660 -0.7190 -0.9208  1.8181
   58SOL     OW  172   0.660   0.475   1.096  0.1061  0.3796  0.2855
   58SOL    HW1  173   0.600   0.541   1.040  0.3741 -0.1823 -0.2705
   58SOL    HW2  174   0.602   0.387   1.107 -2.3635 -2.8996  1.3999
   59SOL     OW  175   0.482   2.398   2.715 -0.0704 -0.0100 -0.0529
   59SOL    HW1  176   0.465   2.298   2.673 -2.8164 -2.1179 -1.5180
   59SOL    HW2  177   0.558   2.393   2.792  3.5661 -0.6229  0.1164
   60SOL     OW  178   2.330   2.150   2.274 -0.3003  0.6570 -0.7846
   60SOL    HW1  179   2.413   2.166   2.208  1.7568 -1.9095 -2.5772
   60SOL    HW2  180   2.341   2.197   2.368 -0.3826 -0.6951  1.9809
   61SOL     OW  181   1.340   0.651   0.442 -0.3387 -0.1076  0.3936
   61SOL    HW1  182   1.239   0.638   0.461 -0.6640  3.0890 -0.8422
   61SOL    HW2  183   1.370   0.609   0.350  0.8475  0.9347 -1.0530
   62SOL     OW  184   2.726   1.886   3.056  0.4037 -0.4210  0.3421
   62SOL    HW1  185   2.685   1.801   3.098  0.4185 -1.2927 -1.1111
   62SOL    HW2  186   2.698   1.891   2.956 -2.7960  2.3005  1.3868
   63SOL     OW  187   0.587   0.830   0.133 -0.5106 -0.7144 -0.4846
   63SOL    HW1  188   0.531   0.912   0.106 -0.7490 -0.4194 -1.0569
   63SOL    HW2  189   0.657   0.847   0.208 -1.1226 -2.6951  2.5468
   64SOL     OW  190   0.074   0.564   2.475  0.0131 -0.2518  0.5850
   64SOL    HW1  191   0.095   0.641   2.539 -0.0176  0.2221 -0.7248
   64SOL    HW2  192   0.028   0.592   2.381 -3.2623  0.4017 -0.8145
   65SOL     OW  193   0.186   1.494   0.612 -0.4705  0.0102  0.1148
   65SOL    HW1  194   0.228   1.554   0.686 -1.8537 -3.2562  2.2941
   65SOL    HW2  195   0.255   1.435   0.561 -0.2605 -1.9653  0.0556
   66SOL     OW  196   2.450   0.316   0.625  0.0113  0.4090 -0.0164
   66SOL    HW1  197   2.382   0.390   0.654 -1.7386  0.5586 -1.1507
   66SOL    HW2  198   2.423   0.224   0.650  2.3397  2.3406  0.4915
   67SOL     OW  199   0.480   2.538   1.308 -0.3279  0.8567 -0.2460
   67SOL    HW1  200   0.566   2.589   1.320 -3.0828 -1.8490 -2.5966
   67SOL    HW2  201   0.491   2.443   1.345  0.4316  0.1817 -1.7451
   68SOL     OW  202   1.000   1.106   2.382 -0.5950 -0.0847  0.4784
   68SOL    HW1  203   1.021   1.025   2.326 -2.1909  2.4982 -0.6084
   68SOL    HW2  204   0.934   1.163   2.330  0.4176 -3.2531 -1.0639
   69SOL     OW  205   0.767   2.713   2.162  0.5474  0.0259  0.8064
   69SOL    HW1  206   0.803   2.618   2.148 -3.1773  1.3807  1.4197
   69SOL    HW2  207   0.666   2.712   2.199 -1.8772  0.2585 -0.1901
   70SOL     OW  208   0.530   0.229   2.696  0.3836 -0.1239 -0.1943
   70SOL    HW1  209   0.574   0.237   2.791 -3.1656  0.7990  2.9270
   70SOL    HW2  210   0.497   0.132   2.683  3.7327 -0.3865 -0.8365
   71SOL     OW  211   1.090   1.781   0.341  0.7255 -0.9303  0.6324
   71SOL    HW1  212   1.049   1.691   0.358 -0.6183  0.6196  0.8434
   71SOL    HW2  213   1.063   1.823   0.250  0.0948  0.6684  0.9231
   72SOL     OW  214   1.796   0.132   2.091 -0.2860 -0.0999 -1.1164
   72SOL    HW1  215   1.852   0.194   2.026 -0.4791  1.2310  0.8761
   72SOL    HW2  216   1.823   0.036   2.082  0.1391 -0.4705 -0.7172
   73SOL     OW  217   2.850   2.201   2.505 -0.0279 -0.0536 -0.0883
   73SOL    HW1  218   2.849   2.107   2.457  2.8018  1.1195 -2.6389
   73SOL    HW2  219   2.869   2.197   2.604 -0.9222 -0.8377 -0.6871
   74SOL     OW  220   2.704   2.957   2.122  0.0286  0.1090 -0.1791
   74SOL    HW1  221   2.648   2.946   2.208 -3.7062  0.8101 -4.2994
   74SOL    HW2  222   2.809   2.952   2.133  1.3970  3.2829 -0.0912
   75SOL     OW  223   0.926   0.764   0.966 -0.9302 -0.0181 -0.7125
   75SOL    HW1  224   0.838   0.811   0.947  3.0825  0.4889  1.4428
   75SOL    HW2  225   0.969   0.801   1.053  2.8339 -0.1542 -0.3527
   76SOL     OW  226   1.747   1.260   2.544  0.5620 -0.3328  0.2580
   76SOL    HW1  227   1.648   1.247   2.525  0.4580  0.5293  0.5891
   76SOL    HW2  228   1.758   1.335   2.609  0.4926 -0.9564 -0.0853
   77SOL     OW  229   2.985   1.001   1.033  0.2107 -0.2314 -0.2429
   77SOL    HW1  230   3.010   0.904   1.013 -0.0189  0.3751 -2.4616
   77SOL    HW2  231   3.049   1.047   1.097 -2.3789 -0.0325  0.0545
   78SOL     OW  232   1.993   1.391   1.435 -0.1587  0.0776 -0.1239
   78SOL    HW1  233   2.045   1.401   1.347  0.2138 -0.3034  1.3779
   78SOL    HW2  234   1.893   1.364   1.430 -1.4715  0.2738  3.2694
   79SOL     OW  235   0.647   1.281   0.824 -0.4610  0.5982  0.2770
   79SOL    HW1  236   0.558   1.257   0.780  1.8352 -0.2817  2.2873
   79SOL    HW2  237   0.726   1.233   0.783  0.6311  0.6300  0.4279
   80SOL     OW  238   0.663   0.508   1.623 -0.0863 -0.2832 -0.5649
   80SOL    HW1  239   0.730   0.568   1.569  1.2890  1.3150 -1.8691
   80SOL    HW2  240   0.644   0.415   1.582 -0.1703 -3.2459  2.7336
   81SOL     OW  241   1.109   1.468   2.599  0.1876 -0.4659  0.2194
   81SOL    HW1  242   1.047   1.424   2.669 -1.4614 -0.7202 -0.7029
   81SOL    HW2  243   1.066   1.482   2.506 -0.8489  0.0568  2.3014
   82SOL     OW  244   0.905   3.002   1.535 -0.5036 -0.1325 -0.0475
   82SOL    HW1  245   0.914   3.006   1.434  2.9667  1.0336 -1.0953
   82SOL    HW2  246   0.823   2.945   1.561 -0.4905 -2.1586 -0.8086
   83SOL     OW  247   2.716   2.425   0.799 -0.3364 -0.4027  0.0298
   83SOL    HW1  248   2.629   2.395   0.758  2.3645  3.9898 -0.0428
   83SOL    HW2  249   2.763   2.504   0.746 -1.4463 -0.6727 -1.8592
   84SOL     OW  250   0.669   0.007   2.416 -0.2495  0.1833 -0.0717
   84SOL    HW1  251   0.575  -0.009   2.452  0.1467 -0.1809 -0.2231
   84SOL    HW2  252   0.741  -0.066   2.435 -2.4140  1.1258 -3.5244
   85SOL     OW  253   0.337   1.650   1.456  0.4300 -0.0609  0.3225
   85SOL    HW1  254   0.292   1.731   1.490 -0.0260 -4.3128  0.3074
   85SOL    HW2  255   0.350   1.578   1.529 -2.7461  0.1806 -0.3814
   86SOL     OW  256   0.342   0.974   1.484  0.3644  0.1888 -0.3690
   86SOL    HW1  257   0.329   0.937   1.386 -0.0897 -2.2593 -0.3352
   86SOL    HW2  258   0.352   0.900   1.557 -0.6952  0.4320  1.3715
   87SOL     OW  259   1.532   0.552   0.201  0.3434 -0.1961 -0.3598
   87SOL    HW1  260   1.585   0.637   0.220 -0.7268 -0.4495  0.0805
   87SOL    HW2  261   1.483   0.560   0.112  0.7229  1.0314  1.0812
   88SOL     OW  262   1.626   1.348   0.200 -0.6850  0.4164 -0.0088
   88SOL    HW1  263   1.644   1.249   0.223 -1.4386 -0.6723  1.5563
   88SOL    HW2  264   1.522   1.368   0.204 -1.5838 -0.8777 -2.2014
   89SOL     OW  265   2.994   0.445   0.597  0.1083 -0.7202  0.1961
   89SOL    HW1  266   3.033   0.367   0.648 -0.0329  4.6249 -2.3098
   89SOL    HW2  267   2.894   0.434   0.583  0.4852  0.0232  1.0100
   90SOL     OW  268   0.843   1.647   3.081  0.0096 -0.4593  0.2225
   90SOL    HW1  269   0.761   1.671   3.141 -0.3914  1.9315  0.3359
   90SOL    HW2  270   0.811   1.599   2.994 -0.8778 -2.4909  1.6829
   91SOL     OW  271   1.262   1.325   1.798 -0.2263  1.5157  0.1455
   91SOL    HW1  272   1.296   1.418   1.831  1.5438 -0.1982  1.2124
   91SOL    HW2  273   1.335   1.269   1.745  1.4525 -0.1478 -0.7689
   92SOL     OW  274   0.065   1.101   1.229  0.5742 -0.0011 -0.5955
   92SOL    HW1  275   0.162   1.101   1.192 -1.3037  0.3756  1.8102
   92SOL    HW2  276   0.054   1.054   1.324 -1.4183  0.6633 -1.1505
   93SOL     OW  277   0.099   2.811   3.070  0.9037  0.1783 -0.4290
   93SOL    HW1  278   0.010   2.843   3.023 -1.1458  0.8525 -1.0116
   93SOL    HW2  279   0.098   2.712   3.107 -2.1345 -0.9831  0.9482
   94SOL     OW  280   1.504   1.274   1.683  0.1149 -0.3243 -0.0400
   94SOL    HW1  281   1.521   1.210   1.763  2.5321 -0.3051 -1.1521
   94SOL    HW2  282   1.562   1.360   1.686 -2.2570 -1.2906  4.2655
   95SOL     OW  283   1.443   2.493   2.949 -0.6578 -0.0756 -0.3180
   95SOL    HW1  284   1.372   2.472   3.024 -1.3872 -0.2545 -0.5405
   95SOL    HW2  285   1.466   2.406   2.891 -3.3473 -2.7695 -1.6364
   96SOL     OW  286   0.529   2.034   1.235 -0.0510  0.5329  0.4680
   96SOL    HW1  287   0.495   2.058   1.138 -0.2530 -1.8904  0.0049
   96SOL    HW2  288   0.540   1.931   1.246 -0.6627  0.3702 -0.4412
   97SOL     OW  289   0.333   1.454   2.455 -0.4312 -0.1681  0.0469
   97SOL    HW1  290   0.269   1.395   2.511 -0.2606  2.1865 -0.2087
   97SOL    HW2  291   0.379   1.524   2.521  0.0058 -1.3860 -0.0400
   98SOL     OW  292   2.123   1.657   1.234 -0.0287 -0.1686 -0.5683
   98SOL    HW1  293   2.102   1.573   1.180  2.4403  0.7503  2.5908
   98SOL    HW2  294   2.174   1.638   1.320 -2.6834 -0.6084  2.5169
   99SOL     OW  295   2.524   2.213   1.403  0.3337 -0.5961 -1.0622
   99SOL    HW1  296   2.498   2.111   1.407 -0.5147  0.0207  1.9096
   99SOL    HW2  297   2.560   2.247   1.495 -1.3890 -1.2533 -0.3422
  100SOL     OW  298   2.277   0.372   2.063 -0.2893  0.2438  0.2241
  100SOL    HW1  299   2.222   0.345   2.145 -0.1910 -0.6394 -1.3102
  100SOL    HW2  300   2.383   0.362   2.082  1.3355  2.4648  2.0372
  101SOL     OW  301   0.384   1.406   0.231  0.8587  0.7271  0.1945
  101SOL    HW1  302   0.401   1.426   0.327  1.2071  0.1976 -0.8364
  101SOL    HW2  303   0.350   1.488   0.177  2.9262  0.5684 -1.8367
  102SOL     OW  304   2.237   1.138   0.878  0.2319  0.0331 -0.3063
  102SOL    HW1  305   2.185   1.059   0.837  0.2047  1.6202 -0.4652
  102SOL    HW2  306   2.282   1.203   0.807  2.0341 -0.5256 -0.2270
  103SOL     OW  307   2.276   0.098   0.410  0.4394 -0.3608 -0.2445
  103SOL    HW1  308   2.341   0.176   0.389  0.2105 -2.2497  0.0642
  103SOL    HW2  309   2.327   0.017   0.439  1.3612  1.3509 -4.0616
  104SOL     OW  310   0.104   1.853   2.161 -0.2209 -0.0168 -0.0108
  104SOL    HW1  311   0.142   1.771   2.125  1.6314  3.6071  1.2055
  104SOL    HW2  312   0.004   1.868   2.135 -2.1997  2.4568  0.6658
  105SOL     OW  313   1.059   1.969   0.800 -0.0389  0.2864  0.5495
  105SOL    HW1  314   1.015   2.052   0.753 -1.0065 -2.7782 -1.0311
  105SOL    HW2  315   1.098   1.900   0.734  1.9237  1.7080  1.9895
  106SOL     OW  316   2.086   0.515   1.349 -0.4985 -0.0623  0.2428
  106SOL    HW1  317   2.046   0.431   1.399 -0.5849 -2.2537  0.4081
  106SOL    HW2  318   2.072   0.604   1.404  0.0077  1.3854  1.5145
  107SOL     OW  319   1.843   3.005   1.122  0.3975 -0.0631  0.2324
  107SOL    HW1  320   1.878   3.089   1.169 -0.3063  0.3707  1.0962
  107SOL    HW2  321   1.797   2.936   1.185 -0.7076  0.2154 -0.0274
  108SOL     OW  322   0.718   2.671   1.317  0.5041 -0.4467 -0.1084
  108SOL    HW1  323   0.727   2.719   1.404  2.3110 -2.3962 -0.9899
  108SOL    HW2  324   0.810   2.640   1.275  0.6457 -2.0647 -2.4925
  109SOL     OW  325   2.024   0.178   0.678  0.1035 -0.0563 -0.6069
  109SOL    HW1  326   2.007   0.076   0.692 -0.1929  0.5520 -0.8771
  109SOL    HW2  327   1.952   0.236   0.720  2.0307 -2.7825 -1.3011
  110SOL     OW  328   0.512   2.709   2.814 -0.3165 -0.6206 -0.0937
  110SOL    HW1  329   0.504   2.749   2.715 -0.5806 -1.8468 -0.3403
  110SOL    HW2  330   0.592   2.652   2.827  0.1763  1.2345  1.8269
  111SOL     OW  331   1.281   0.520   2.348  0.5762  0.2584 -0.2326
  111SOL    HW1  332   1.223   0.599   2.380  0.3578  1.9385  1.2285
  111SOL    HW2  333   1.312   0.461   2.427 -2.1299  3.2542  2.9870
  112SOL     OW  334   1.739   0.528   1.415 -0.3603 -0.5174  0.4284
  112SOL    HW1  335   1.718   0.488   1.324 -0.0705  4.9434 -1.1221
  112SOL    HW2  336   1.755   0.464   1.491 -0.3606 -0.2934 -2.1450
  113SOL     OW  337   2.261   1.681   1.771  0.3327  0.0385  0.9097
  113SOL    HW1  338   2.332   1.614   1.741  2.0827  0.7048 -2.9692
  113SOL    HW2  339   2.284   1.725   1.865  0.7556 -1.9739 -0.0122
  114SOL     OW  340   0.427   0.577   1.306 -0.0770 -0.2309  0.0726
  114SOL    HW1  341   0.371   0.662   1.278 -1.3842  1.3116 -0.6344
  114SOL    HW2  342   0.492   0.545   1.234  0.6704 -0.1675  0.2914
  115SOL     OW  343   2.711   1.587   1.267 -0.0614  0.1976  0.4850
  115SOL    HW1  344   2.732   1.486   1.279 -0.6076 -0.1294 -0.9365
  115SOL    HW2  345   2.743   1.621   1.172  1.3460 -1.9691 -0.2234
  116SOL     OW  346   1.806   1.069   0.755  0.1183  0.1676 -0.2116
  116SOL    HW1  347   1.722   1.020   0.727  1.3914  1.1176  1.5851
  116SOL    HW2  348   1.790   1.165   0.793 -0.5452 -1.0859 -0.3183
  117SOL     OW  349   1.074   0.406   0.716 -0.0588  0.8107 -0.2117
  117SOL    HW1  350   1.102   0.386   0.814 -0.1148  0.4521 -1.4664
  117SOL    HW2  351   1.103   0.499   0.684  3.1782  0.4517  0.0348
  118SOL     OW  352   1.117   1.063   0.959 -0.5187 -0.5124  0.3625
  118SOL    HW1  353   1.101   0.981   1.019 -1.3154 -1.0536 -1.2348
  118SOL    HW2  354   1.130   1.143   1.025  3.1136  0.7252  1.7608
  119SOL     OW  355   1.854   1.612   2.000  0.3832  0.1276 -0.5731
  119SOL    HW1  356   1.840   1.710   2.047 -0.0838  3.3245  0.3754
  119SOL    HW2  357   1.949   1.583   2.009 -1.4114  3.0505 -3.7088
  120SOL     OW  358   2.992   2.767   0.216  0.0940  0.5634  0.2676
  120SOL    HW1  359   2.902   2.734   0.179 -0.9055 -0.7404  2.2164
  120SOL    HW2  360   3.058   2.693   0.247 -2.7383 -3.5553  0.0108
  121SOL     OW  361   2.107   0.692   2.251 -0.0302  0.3218 -0.2255
  121SOL    HW1  362   2.196   0.695   2.209 -1.7371 -1.1081  0.0925
  121SOL    HW2  363   2.045   0.612   2.213 -2.3578 -0.3886 -2.2794
  122SOL     OW  364   2.706   2.569   1.330 -0.1021 -0.5842 -0.1329
  122SOL    HW1  365   2.707   2.581   1.221  2.9851 -0.1816 -1.0468
  122SOL    HW2  366   2.651   2.490   1.353 -0.8797  1.3862 -1.5400
  123SOL     OW  367   1.723   3.090   1.693  0.2933  0.5770  0.2857
  123SOL    HW1  368   1.713   2.987   1.681 -3.2419  0.5993 -1.9432
  123SOL    HW2  369   1.777   3.132   1.609  1.3088  2.7947 -0.7565
  124SOL     OW  370   0.150   0.463   0.929  0.0939  1.0768  0.3143
  124SOL    HW1  371   0.137   0.492   1.028  2.0240 -3.2582  2.4414
  124SOL    HW2  372   0.118   0.531   0.858  2.8606 -3.3924 -2.2789
  125SOL     OW  373   0.890   1.691   0.707  0.3567 -0.1415 -0.6375
  125SOL    HW1  374   0.992   1.677   0.683  0.6641 -0.5672 -0.4555
  125SOL    HW2  375   0.852   1.621   0.768 -0.8512  1.5771 -0.6513
  126SOL     OW  376   1.872   2.357   2.415  0.6775  0.0654 -0.1885
  126SOL    HW1  377   1.936   2.279   2.387  1.4785  2.5594 -0.8949
  126SOL    HW2  378   1.806   2.383   2.335 -2.8357  0.2685  1.2751
  127SOL     OW  379   1.045   0.957   0.135 -0.4929  0.0521  1.0624
  127SOL    HW1  380   1.097   1.004   0.208 -0.5376  0.8014 -1.6739
  127SOL    HW2  381   0.979   0.885   0.176  0.1700  0.6771 -0.0678
  128SOL     OW  382   0.962   0.210   1.442  0.3345 -0.3315 -0.0964
  128SOL    HW1  383   0.946   0.283   1.365 -1.0329 -1.7642 -2.3745
  128SOL    HW2  384   0.887   0.132   1.439 -1.1210 -0.7514  0.1551
  129SOL     OW  385   1.762   0.729   1.821  0.0850 -0.1285 -0.4152
  129SOL    HW1  386   1.761   0.742   1.724 -0.0046  1.2973  3.5466
  129SOL    HW2  387   1.798   0.816   1.863 -0.4992  2.0540 -1.9073
  130SOL     OW  388   1.244   2.107   0.975  0.0430 -0.1968  0.4441
  130SOL    HW1  389   1.178   2.040   0.924 -0.1484 -2.7256  0.8790
  130SOL    HW2  390   1.314   2.150   0.916  1.2903 -0.3669 -0.3705
  131SOL     OW  391   3.018   1.530   1.283  0.0196 -0.5364  0.7757
  131SOL    HW1  392   2.964   1.444   1.296 -0.3314  0.0259  0.8457
  131SOL    HW2  393   3.121   1.515   1.282 -1.2854 -0.2568  2.1377
  132SOL     OW  394   1.950   2.464   0.554 -0.0719  0.4882 -0.9996
  132SOL    HW1  395   1.848   2.488   0.558 -1.4667  0.5483 -1.2103
  132SOL    HW2  396   1.997   2.486   0.645 -0.8353  0.4332  0.8389
  133SOL     OW  397   1.822   2.253   2.903 -0.4910  0.7867  0.0964
  133SOL    HW1  398   1.814   2.330   2.973 -0.0545 -1.3158  1.6878
  133SOL    HW2  399   1.793   2.276   2.805 -3.3108  3.0664 -1.3103
  134SOL     OW  400   2.637   2.355   1.614  0.2062 -1.1656 -0.2645
  134SOL    HW1  401   2.564   2.320   1.673  2.4909  2.0841 -0.6289
  134SOL    HW2  402   2.698   2.421   1.669 -1.2306  1.6010 -1.3701
  135SOL     OW  403   0.773   1.510   2.548  0.3973 -0.5217 -0.5275
  135SOL    HW1  404   0.752   1.414   2.559  0.6492  2.0004  2.4854
  135SOL    HW2  405   0.840   1.529   2.464 -0.9206 -0.9065 -0.9813
  136SOL     OW  406   1.137   2.034   0.452  0.6917  0.3785 -0.2513
  136SOL    HW1  407   1.080   2.083   0.526  0.1967  2.1563 -0.2760
  136SOL    HW2  408   1.104   1.938   0.440 -1.6452  1.7080 -0.6681
  137SOL     OW  409   0.397   1.032   2.139 -0.5392  0.1193 -0.3510
  137SOL    HW1  410   0.321   1.066   2.195  0.3194 -2.6961 -1.3777
  137SOL    HW2  411   0.419   0.929   2.154  2.1184 -0.9562 -0.9847
  138SOL     OW  412   2.407   1.478   0.376  0.4025 -0.1228 -0.2892
  138SOL    HW1  413   2.328   1.450   0.314 -1.0870 -2.7759 -1.4667
  138SOL    HW2  414   2.460   1.401   0.428  1.9116 -1.1368 -1.3647
  139SOL     OW  415   1.751   2.497   1.183 -0.1440  0.0883 -0.0120
  139SOL    HW1  416   1.650   2.508   1.179  0.8479  0.3174 -2.4699
  139SOL    HW2  417   1.782   2.434   1.260  1.3296 -0.9308  3.1485
  140SOL     OW  418   2.998   2.982   2.461 -0.2982 -0.0551  0.7944
  140SOL    HW1  419   2.986   2.880   2.473 -0.9985  0.5437 -0.1086
  140SOL    HW2  420   3.090   3.008   2.434 -3.8188  2.6856 -2.5642
  141SOL     OW  421   1.133   1.485   1.598  0.2999  0.5844 -0.0882
  141SOL    HW1  422   1.165   1.545   1.672 -1.4326  0.2790 -2.1467
  141SOL    HW2  423   1.169   1.391   1.609  0.4231  2.3017 -0.9538
  142SOL     OW  424   1.509   0.609   2.236  0.0687 -0.1967  0.4557
  142SOL    HW1  425   1.540   0.591   2.133  3.4751 -2.8310 -0.3888
  142SOL    HW2  426   1.412   0.579   2.265 -1.1417 -0.0055 -3.7603
  143SOL     OW  427   2.754   0.848   0.494  0.5936 -0.0919  0.3004
  143SOL    HW1  428   2.795   0.878   0.406 -0.2006 -1.5453  0.5195
  143SOL    HW2  429   2.792   0.897   0.578  3.0086 -0.2006  1.4254
  144SOL     OW  430   2.984   1.261   1.352  0.4297 -0.8362  0.0918
  144SOL    HW1  431   2.994   1.255   1.451  3.6437  1.2653 -1.6720
  144SOL    HW2  432   3.053   1.212   1.296 -2.7188  2.4117 -0.7931
  145SOL     OW  433   0.992   1.854   0.073 -0.0465  0.1249 -0.2591
  145SOL    HW1  434   1.027   1.928   0.013  0.4656 -1.6034 -0.5900
  145SOL    HW2  435   0.945   1.778   0.024  0.7507  2.5164  0.6410
  146SOL     OW  436   2.501   0.638   1.513  0.2876 -0.1424  0.0017
  146SOL    HW1  437   2.435   0.567   1.473 -0.2165 -2.7524 -0.5258
  146SOL    HW2  438   2.449   0.728   1.529 -0.2126  0.1920 -0.5787
  147SOL     OW  439   1.104   2.600   0.659 -0.1317  0.6530 -0.3933
  147SOL    HW1  440   1.038   2.622   0.584 -0.3880 -2.1690  0.4367
  147SOL    HW2  441   1.181   2.529   0.634  2.0436 -0.8945 -0.1913
  148SOL     OW  442   1.655   1.392   3.040 -0.0939  0.7544 -0.3336
  148SOL    HW1  443   1.710   1.325   2.977 -0.3394  1.9490 -2.0549
  148SOL    HW2  444   1.655   1.374   3.140  4.5463  0.5156 -0.7912
  149SOL     OW  445   0.604   1.429   1.968 -0.3115 -0.5272 -0.3774
  149SOL    HW1  446   0.523   1.391   2.025 -0.8128  1.0746 -0.3162
  149SOL    HW2  447   0.656   1.360   1.910  0.4455 -1.4340  0.8056
  150SOL     OW  448   2.998   1.273   0.890  0.0293  0.2499  0.2075
  150SOL    HW1  449   3.060   1.341   0.935 -1.3759 -0.9414  0.1603
  150SOL    HW2  450   2.983   1.181   0.941 -0.9591  0.2158  2.7502
  151SOL     OW  451   0.178   0.806   2.090  0.4221 -0.3659 -0.0607
  151SOL    HW1  452   0.165   0.887   2.025 -1.4693 -0.4075  0.1731
  151SOL    HW2  453   0.244   0.736   2.060 -3.5409 -0.2641 -0.6948
  152SOL     OW  454   1.392   1.741   1.256  0.5203  0.2487  0.1370
  152SOL    HW1  455   1.377   1.817   1.327 -0.0319  0.6358  2.8011
  152SOL    HW2  456   1.312   1.741   1.185 -0.5489  1.0774 -0.8985
  153SOL     OW  457   0.053   1.502   0.160  0.5222  0.2116  0.0491
  153SOL    HW1  458   0.040   1.402   0.165  0.6965  1.1277  1.2493
  153SOL    HW2  459   0.046   1.547   0.259 -1.9589  0.3128  2.3754
  154SOL     OW  460   2.426   1.950   2.818 -0.2228  0.6866  0.1785
  154SOL    HW1  461   2.434   1.848   2.857 -4.1391 -1.8301  1.3183
  154SOL    HW2  462   2.492   1.970   2.737  0.7710  0.7067 -0.9930
  155SOL     OW  463   2.538   1.240   0.484  0.2858 -0.0889 -0.3888
  155SOL    HW1  464   2.620   1.244   0.425 -0.8472  0.1358  0.8935
  155SOL    HW2  465   2.474   1.159   0.469  0.0625  0.5809  1.6024
  156SOL     OW  466   2.481   0.997   0.889  0.1484 -0.0408  0.3449
  156SOL    HW1  467   2.376   1.021   0.907 -2.3990 -0.9583  0.2964
  156SOL    HW2  468   2.542   1.078   0.887  0.7182  0.0944 -1.7478
  157SOL     OW  469   1.351   2.964   3.089  0.3795 -0.0443  0.1125
  157SOL    HW1  470   1.398   2.899   3.023  0.8945  0.1396  2.1234
  157SOL    HW2  471   1.364   3.065   3.057 -3.2959 -0.8945 -0.2379
  158SOL     OW  472   1.061   1.896   2.027 -0.2690  0.6431 -0.1846
  158SOL    HW1  473   1.109   1.876   2.118  1.5147 -0.6967 -1.9607
  158SOL    HW2  474   0.956   1.891   2.029 -0.4101 -0.7132 -0.7417
  159SOL     OW  475   0.873   0.469   1.276 -0.1252 -0.3481  0.4169
  159SOL    HW1  476   0.852   0.542   1.348  2.8091  0.1996  1.1385
  159SOL    HW2  477   0.799   0.469   1.199 -1.1933 -0.4548  0.4190
  160SOL     OW  478   1.455   2.327   1.653  0.1076  0.2662 -0.1018
  160SOL    HW1  479   1.512   2.405   1.624 -1.1237 -1.9107  1.4225
  160SOL    HW2  480   1.489   2.278   1.738  0.9962 -0.7814 -0.0978
  161SOL     OW  481   0.092   2.937   0.362 -0.4551 -0.3374 -0.0702
  161SOL    HW1  482   0.017   2.867   0.348 -1.1636  3.0746  1.6843
  161SOL    HW2  483   0.114   2.990   0.278 -1.9704  0.4026 -1.4196
  162SOL     OW  484   2.604   1.889   0.517  0.4474  0.1601  0.2947
  162SOL    HW1  485   2.575   1.856   0.421 -0.3043 -1.3254 -0.3884
  162SOL    HW2  486   2.582   1.819   0.589  1.1803  0.4304 -0.8484
  163SOL     OW  487   1.945   2.768   0.743  0.3126 -0.0794  0.1671
  163SOL    HW1  488   1.915   2.798   0.650  0.0494  1.2893  2.5262
  163SOL    HW2  489   1.995   2.676   0.743  1.6058  0.5291 -0.9010
  164SOL     OW  490   0.059   0.217   1.208 -0.2071  0.3463 -0.3973
  164SOL    HW1  491   0.139   0.157   1.187 -1.8665  1.0131 -3.7412
  164SOL    HW2  492   0.083   0.299   1.264  0.7921 -1.5666  1.2995
  165SOL     OW  493   1.019   1.434   0.643  0.2050 -0.1053  0.0931
  165SOL    HW1  494   0.941   1.459   0.702  1.6517  0.3641 -0.3321
  165SOL    HW2  495   1.013   1.472   0.543 -3.5787  3.3862  1.0112
  166SOL     OW  496   1.386   1.017   1.810  0.1712  0.3489 -0.1203
  166SOL    HW1  497   1.302   0.963   1.822  0.9430 -0.2859  0.7258
  166SOL    HW2  498   1.451   1.031   1.895 -1.3545  0.5521  1.1718
  167SOL     OW  499   0.929   1.834   1.590  0.0213  0.0775  0.1467
  167SOL    HW1  500   0.906   1.930   1.632  0.8881  1.5593 -0.9470
  167SOL    HW2  501   0.842   1.790   1.555  0.8221 -0.7682  2.0303
  168SOL     OW  502   1.560   2.329   0.203 -0.6557  0.6140 -0.5182
  168SOL    HW1  503   1.642   2.368   0.153  0.3374  0.8702  0.6564
  168SOL    HW2  504   1.576   2.307   0.305 -0.9266 -1.8796 -0.4047
  169SOL     OW  505   0.175   2.560   2.149 -0.0959 -0.3648  0.2679
  169SOL    HW1  506   0.225   2.492   2.091 -0.8871  0.2965 -0.0465
  169SOL    HW2  507   0.156   2.517   2.245 -0.4225 -1.0641 -0.3942
  170SOL     OW  508   1.234   0.342   1.922  0.8281 -0.3709  0.5379
  170SOL    HW1  509   1.289   0.279   1.984  0.2231 -0.1724 -1.4447
  170SOL    HW2  510   1.161   0.298   1.861 -0.0907 -1.8226 -1.3190
  171SOL     OW  511   0.232   0.817   2.390 -0.1499  0.1364  0.6133
  171SOL    HW1  512   0.154   0.825   2.457 -1.3570  0.7200  3.2898
  171SOL    HW2  513   0.210   0.826   2.294 -0.0135 -2.6111  3.2387
  172SOL     OW  514   0.885   1.128   2.893  0.1521 -0.4725 -0.0347
  172SOL    HW1  515   0.978   1.160   2.934  0.4626  2.9098 -0.6387
  172SOL    HW2  516   0.885   1.086   2.796 -0.5028 -1.6127 -3.2318
  173SOL     OW  517   0.703   2.720   0.133 -0.2204  0.2777  0.5083
  173SOL    HW1  518   0.677   2.821   0.147 -2.5640  0.2265  2.1702
  173SOL    HW2  519   0.622   2.662   0.104  0.5982 -1.4474  0.4480
  174SOL     OW  520   1.266   2.733   1.055  0.3121  0.7257  0.0157
  174SOL    HW1  521   1.294   2.786   0.969  0.3055  1.1476  0.7804
  174SOL    HW2  522   1.208   2.648   1.035 -0.8584  1.0915  1.4281
  175SOL     OW  523   0.378   0.039   1.698 -0.2753 -0.2764 -0.3657
  175SOL    HW1  524   0.421   0.097   1.773 -0.4060 -2.1983 -0.8178
  175SOL    HW2  525   0.293   0.085   1.661 -0.3340 -0.0214 -2.1336
  176SOL     OW  526   2.607   0.318   3.029  0.1658  0.0252 -0.4968
  176SOL    HW1  527   2.610   0.383   3.106  3.9769  1.8759 -2.1257
  176SOL    HW2  528   2.602   0.220   3.058  2.6511 -1.9727  1.3531
  177SOL     OW  529   0.391   0.304   0.871  0.2198  0.0473 -0.1649
  177SOL    HW1  530   0.433   0.288   0.963  0.4215  0.9079 -0.3986
  177SOL    HW2  531   0.293   0.328   0.890  1.3481 -0.5888  1.7447
  178SOL     OW  532   3.098   2.700   2.606 -0.1830 -0.6247 -0.4008
  178SOL    HW1  533   3.006   2.688   2.654  0.1385  2.8217  1.2548
  178SOL    HW2  534   3.161   2.747   2.670 -4.4320  0.5264  2.6128
  179SOL     OW  535   0.010   1.759   1.175  0.4179  0.1497  0.3416
  179SOL    HW1  536  -0.045   1.850   1.175 -3.7339 -0.2930 -1.4122
  179SOL    HW2  537  -0.042   1.678   1.208 -1.8679  1.2671  1.0683
  180SOL     OW  538   0.170   1.269   1.800 -0.3425 -0.0724  0.3387
  180SOL    HW1  539   0.269   1.250   1.816 -1.0506 -1.9109 -2.6068
  180SOL    HW2  540   0.125   1.326   1.882 -2.2879  1.1297 -1.6866
  181SOL     OW  541   3.020   1.835   2.522 -0.6836 -0.2495  0.3731
  181SOL    HW1  542   3.113   1.881   2.476  3.9943 -0.3132 -1.8745
  181SOL    HW2  543   2.934   1.862   2.477  3.1011  1.3252 -0.4367
  182SOL     OW  544   2.317   1.224   1.246  0.2313  0.1492  0.2338
  182SOL    HW1  545   2.232   1.189   1.189 -0.7627  3.9586 -0.7945
  182SOL    HW2  546   2.335   1.326   1.235 -0.2213  0.7604  0.4885
  183SOL     OW  547   1.518   2.269   2.492  0.3109  0.1106  0.3076
  183SOL    HW1  548   1.432   2.210   2.492  0.2660  1.3066 -0.5059
  183SOL    HW2  549   1.591   2.228   2.552  0.0555 -0.6994  0.0298
  184SOL     OW  550   2.080   0.950   0.764 -0.1501 -0.5787 -0.5639
  184SOL    HW1  551   1.988   0.996   0.748  2.6737  0.1430 -0.7936
  184SOL    HW2  552   2.078   0.851   0.791 -1.6687 -1.1589 -2.1325
  185SOL     OW  553   1.630   2.742   2.170  0.2770  0.0477 -0.1865
  185SOL    HW1  554   1.580   2.836   2.153 -1.5774  0.5529 -2.4506
  185SOL    HW2  555   1.666   2.737   2.267 -0.0764  1.9104 -0.2350
  186SOL     OW  556   0.083   2.196   1.649 -0.1328  0.1126  0.3145
  186SOL    HW1  557   0.139   2.272   1.611 -1.7398  0.0332 -1.7245
  186SOL    HW2  558   0.152   2.127   1.689  2.3597  0.5929  1.1593
  187SOL     OW  559   1.416   0.685   1.707  0.5276 -0.0589  0.0348
  187SOL    HW1  560   1.460   0.765   1.656  0.4789  2.4713  2.2290
  187SOL    HW2  561   1.437   0.697   1.808 -2.3033  0.9176 -1.6095
  188SOL     OW  562   2.761   2.740   1.540  0.0769  0.3100  0.3845
  188SOL    HW1  563   2.762   2.836   1.505  0.6704  0.1112  2.3282
  188SOL    HW2  564   2.742   2.674   1.464  0.3304  0.8043  0.2579
  189SOL     OW  565   0.728   0.978   1.468  0.5452 -0.0821  0.7914
  189SOL    HW1  566   0.808   1.045   1.459 -0.5308 -1.6681  2.3139
  189SOL    HW2  567   0.693   0.939   1.381  0.8245  0.7273  0.5736
  190SOL     OW  568   1.492   1.765   1.657  0.0351 -0.0529  0.1355
  190SOL    HW1  569   1.450   1.834   1.589 -0.2289  1.9770  1.1543
  190SOL    HW2  570   1.561   1.807   1.730  0.1697 -0.4108  2.4286
  191SOL     OW  571   1.033   0.845   1.544 -0.4823 -0.5707 -0.0419
  191SOL    HW1  572   1.060   0.753   1.580  2.6700  4.4283  1.3356
  191SOL    HW2  573   1.113   0.909   1.535 -3.1700 -1.2963 -2.8734
  192SOL     OW  574   1.888   2.172   1.239  0.2397  0.7420 -0.2548
  192SOL    HW1  575   1.787   2.186   1.203 -1.6586 -1.3042 -0.7644
  192SOL    HW2  576   1.955   2.232   1.189  4.4365 -0.6686  1.5116
  193SOL     OW  577   0.497   0.567   0.341  0.3783  0.0410 -0.2662
  193SOL    HW1  578   0.447   0.491   0.401  1.3645 -1.5995  1.3528
  193SOL    HW2  579   0.531   0.533   0.247 -0.0409 -0.5132 -1.1440
  194SOL     OW  580   0.303   0.864   1.238 -0.1533 -0.0145  0.2197
  194SOL    HW1  581   0.208   0.822   1.240 -0.5107  0.2743 -0.3598
  194SOL    HW2  582   0.301   0.942   1.168 -0.3831  1.0696  1.3355
  195SOL     OW  583   0.958   2.926   0.528 -0.0091  0.4693  0.1070
  195SOL    HW1  584   0.957   2.840   0.464 -2.1243 -0.2138 -3.4745
  195SOL    HW2  585   1.055   2.964   0.539  4.3701 -1.1488 -3.1459
  196SOL     OW  586   0.179   1.448   1.322  0.1400 -0.0743  0.6375
  196SOL    HW1  587   0.232   1.530   1.361  1.2174  0.6813 -2.2107
  196SOL    HW2  588   0.187   1.373   1.391  1.3467  0.9107  0.6714
  197SOL     OW  589   0.784   1.999   0.242  0.1023  0.1153 -0.1602
  197SOL    HW1  590   0.756   1.947   0.328 -0.2439  1.0122 -0.6805
  197SOL    HW2  591   0.871   1.958   0.207  0.8200 -0.2780  0.8582
  198SOL     OW  592   0.270   1.162   0.217  0.8542 -0.3931  0.2548
  198SOL    HW1  593   0.167   1.179   0.209 -0.3344 -0.5899  0.4389
  198SOL    HW2  594   0.323   1.251   0.227  1.3535 -1.6510  0.2632
  199SOL     OW  595   2.254   0.425   2.457 -0.5307 -0.3091 -0.1483
  199SOL    HW1  596   2.207   0.388   2.544 -1.1440  2.1215  1.4244
  199SOL    HW2  597   2.358   0.438   2.479  2.5239 -2.3787 -0.2045
  200SOL     OW  598   0.040   2.899   0.827  0.4886  0.1663 -0.0545
  200SOL    HW1  599  -0.050   2.882   0.763 -1.9126  0.4127 -3.0276
  200SOL    HW2  600   0.038   3.000   0.859 -0.0565 -0.4964  0.3105
  201SOL     OW  601   1.094   0.649   0.577  0.3022  0.2588 -0.3487
  201SOL    HW1  602   1.130   0.738   0.619  1.6218  2.6305  1.6047
  201SOL    HW2  603   0.994   0.658   0.555  4.3165  0.8798  0.3660
  202SOL     OW  604   0.428   1.201   1.795  0.3761 -0.1552  0.4357
  202SOL    HW1  605   0.440   1.195   1.697  0.0168  2.8718  2.2455
  202SOL    HW2  606   0.493   1.142   1.854 -0.7361  0.4423  0.1446
  203SOL     OW  607   0.601   0.251   1.545 -0.6324 -0.3922 -0.7836
  203SOL    HW1  608   0.619   0.187   1.470 -0.0533  0.8986  1.6520
  203SOL    HW2  609   0.642   0.224   1.638 -0.1216 -1.2429 -1.6054
  204SOL     OW  610   2.130   1.896   3.012 -0.4481 -0.4351 -0.8173
  204SOL    HW1  611   2.129   1.799   2.984  0.2409  0.9817  3.2437
  204SOL    HW2  612   2.093   1.957   2.937 -1.9915  0.2471 -1.2669
  205SOL     OW  613   1.876   1.855   0.165  0.2887 -0.2008  0.3597
  205SOL    HW1  614   1.963   1.851   0.119 -2.6737 -0.4089  1.8631
  205SOL    HW2  615   1.816   1.925   0.114  0.6356 -0.4920  0.2084
  206SOL     OW  616   2.500   2.804   0.362  0.4852  0.5426 -0.5735
  206SOL    HW1  617   2.576   2.754   0.413  1.5898 -0.1587 -0.9106
  206SOL    HW2  618   2.529   2.861   0.278  0.6882  1.7031 -0.7805
  207SOL     OW  619   0.535   1.723   2.893  0.0366 -0.4970 -0.2245
  207SOL    HW1  620   0.636   1.716   2.867  0.2369 -0.4079  1.3987
  207SOL    HW2  621   0.503   1.647   2.953  2.6357  2.2867 -0.6101
  208SOL     OW  622   1.034   1.424   1.352 -0.0358  0.7686  0.0210
  208SOL    HW1  623   0.956   1.491   1.327  1.2707  2.3151  0.9369
  208SOL    HW2  624   1.087   1.450   1.439 -0.0556  1.0461  0.2146
  209SOL     OW  625   0.146   0.899   0.008  0.0605 -0.5015  0.2370
  209SOL    HW1  626   0.162   0.865  -0.092  1.8622  0.2667 -2.3072
  209SOL    HW2  627   0.206   0.856   0.081 -1.4093  0.5398 -1.8904
  210SOL     OW  628   1.727   0.424   1.156  0.0416 -0.7174  0.7009
  210SOL    HW1  629   1.700   0.525   1.119 -1.9999  1.7626 -1.2121
  210SOL    HW2  630   1.825   0.400   1.143 -0.8017 -0.5599  0.2018
  211SOL     OW  631   2.107   1.047   1.636  0.1751 -0.0966  0.0997
  211SOL    HW1  632   2.151   0.983   1.701 -1.8353 -1.7161  1.1566
  211SOL    HW2  633   2.183   1.098   1.585 -0.6307  1.0035 -0.5239
  212SOL     OW  634   0.027   1.002   1.485 -0.3682  0.4095 -0.3525
  212SOL    HW1  635   0.075   1.088   1.530  1.1546 -0.8285  0.1243
  212SOL    HW2  636   0.052   0.913   1.531  1.9104 -0.9269 -1.1099
  213SOL     OW  637   2.791   0.328   0.309 -0.3067 -0.9534  0.2376
  213SOL    HW1  638   2.879   0.278   0.309 -0.6157 -1.5201  0.7433
  213SOL    HW2  639   2.783   0.394   0.224  0.8361  3.9646  1.0594
  214SOL     OW  640   2.102   0.311   2.272  0.3093  0.4333  0.2940
  214SOL    HW1  641   2.160   0.374   2.339  1.6203  0.1990  0.0691
  214SOL    HW2  642   2.105   0.213   2.299 -0.6616  2.0970 -0.3296
  215SOL     OW  643   1.724   2.288   2.047 -0.3864 -0.0913  0.5854
  215SOL    HW1  644   1.821   2.313   2.020 -0.8637  0.3936  0.9595
  215SOL    HW2  645   1.691   2.353   2.125  2.1229  1.8173  0.8800
  216SOL     OW  646   2.261   0.521   0.645 -0.2715 -0.2410 -0.1000
  216SOL    HW1  647   2.190   0.466   0.589  1.1427  1.2857 -0.7271
  216SOL    HW2  648   2.303   0.604   0.590  0.4523  4.1188 -2.2094
  217SOL     OW  649   0.785   2.782   2.437  0.4667  0.1063  0.6887
  217SOL    HW1  650   0.751   2.685   2.469  1.6566 -2.4049  1.5166
  217SOL    HW2  651   0.790   2.782   2.333  2.6537  0.4112 -1.5701
  218SOL     OW  652   1.949   1.447   3.057 -0.0943 -0.2169  0.0204
  218SOL    HW1  653   1.853   1.478   3.066  1.9801 -1.4544  0.2599
  218SOL    HW2  654   1.954   1.352   3.099 -3.6272  1.2082 -0.7005
  219SOL     OW  655   2.369   1.299   2.598  0.1343  0.2277 -0.0482
  219SOL    HW1  656   2.377   1.259   2.508 -3.9910 -0.7811  1.9864
  219SOL    HW2  657   2.393   1.221   2.671 -0.9704 -0.7547  0.0764
  220SOL     OW  658   1.503   1.006   1.301  0.1271  0.0587  0.3832
  220SOL    HW1  659   1.601   1.037   1.336  1.6790  1.1954 -0.7470
  220SOL    HW2  660   1.444   1.083   1.256 -3.4452  0.1372 -1.9581
  221SOL     OW  661   1.308   1.108   2.189 -0.5843 -0.0570  0.3605
  221SOL    HW1  662   1.255   1.185   2.142 -1.1750 -1.6050  2.3363
  221SOL    HW2  663   1.393   1.083   2.136  0.1222  1.9786  2.1331
  222SOL     OW  664   1.349   0.153   1.113  0.0165 -0.1241 -0.3185
  222SOL    HW1  665   1.427   0.100   1.073 -3.1162  0.5194 -2.6345
  222SOL    HW2  666   1.384   0.209   1.194  0.0059 -0.1468  1.5071
  223SOL     OW  667   2.901   0.763   2.007  0.3810 -0.3177 -0.1928
  223SOL    HW1  668   2.944   0.739   2.096 -0.4944 -1.4642 -0.2719
  223SOL    HW2  669   2.904   0.865   1.995 -0.0157 -0.8199 -1.5774
  224SOL     OW  670   1.558   1.048   2.789 -0.1843  0.1444  0.2719
  224SOL    HW1  671   1.572   0.969   2.731 -2.1841  2.8942  3.6706
  224SOL    HW2  672   1.529   1.134   2.731 -1.1360  0.4926  1.0786
  225SOL     OW  673   2.959   2.834   2.921 -0.4191 -0.5175 -0.0827
  225SOL    HW1  674   2.936   2.753   2.858  3.0192  1.3695  0.2057
  225SOL    HW2  675   3.001   2.914   2.870  1.3544 -2.2282  0.6605
  226SOL     OW  676   2.462   1.678   2.877  0.0090 -0.6663 -0.4383
  226SOL    HW1  677   2.490   1.619   2.794  0.2475  1.7426 -1.1570
  226SOL    HW2  678   2.461   1.617   2.967 -0.0304 -0.1729  0.2484
  227SOL     OW  679   0.800   0.170   2.953 -0.7083  0.0675  0.0784
  227SOL    HW1  680   0.843   0.107   3.024 -2.3388 -0.1209 -0.3766
  227SOL    HW2  681   0.828   0.140   2.854 -0.1302 -2.4832 -1.8054
  228SOL     OW  682   2.332   0.543   2.763  0.3075  0.1045  0.0481
  228SOL    HW1  683   2.286   0.590   2.682  1.5174  0.6047  0.9215
  228SOL    HW2  684   2.413   0.489   2.734 -2.4933 -0.5222 -2.1048
  229SOL     OW  685   0.572   0.469   1.898  0.0455  0.3234  0.0381
  229SOL    HW1  686   0.623   0.495   1.801  0.6490  2.7604 -3.5058
  229SOL    HW2  687   0.644   0.456   1.977  4.2558 -1.7764  1.7391
  230SOL     OW  688   1.937   1.261   2.120  0.2768 -0.6568 -0.3419
  230SOL    HW1  689   2.008   1.290   2.048 -0.7255  0.6433  1.7215
  230SOL    HW2  690   1.845   1.305   2.093 -2.5485  0.4014 -1.6812
  231SOL     OW  691   0.593   1.126   2.937  0.4130 -0.4384 -0.0802
  231SOL    HW1  692   0.691   1.095   2.935 -0.7336  2.0501  2.6013
  231SOL    HW2  693   0.549   1.089   3.025  0.5292  0.5474 -1.3880
  232SOL     OW  694   2.493   0.062   2.703  0.5674 -0.6111 -0.0640
  232SOL    HW1  695   2.536  -0.018   2.753 -0.7496 -2.3930 -0.8302
  232SOL    HW2  696   2.522   0.068   2.605  3.0365 -0.3612  2.5984
  233SOL     OW  697   1.738   1.285   1.094  0.3322  0.8647 -0.1483
  233SOL    HW1  698   1.686   1.274   1.006 -1.4616 -1.9643 -0.4585
  233SOL    HW2  699   1.813   1.220   1.100 -2.2198 -1.6838 -1.8982
  234SOL     OW  700   1.667   2.593   1.957 -0.3825  0.2738 -0.3302
  234SOL    HW1  701   1.667   2.672   2.026  1.5431  1.0522  0.0267
  234SOL    HW2  702   1.594   2.527   1.989  0.2195 -2.1131  2.6448
  235SOL     OW  703   3.056   3.066   2.829  0.5598  0.1468  0.4550
  235SOL    HW1  704   3.148   3.072   2.782 -1.1954 -0.5629 -1.3098
  235SOL    HW2  705   3.036   3.156   2.881 -0.6085  1.0402  0.7264
  236SOL     OW  706   2.884   0.709   0.042 -0.2087 -0.7976 -0.2039
  236SOL    HW1  707   2.925   0.724   0.136 -1.3691 -1.1869  0.5282
  236SOL    HW2  708   2.950   0.668  -0.025 -0.6592  0.6865  2.2775
  237SOL     OW  709   1.495   1.586   1.054 -0.4798  0.4569  0.5201
  237SOL    HW1  710   1.600   1.576   1.046 -0.2758 -1.4099 -1.5947
  237SOL    HW2  711   1.463   1.649   1.132  1.6312 -0.8830 -0.5632
  238SOL     OW  712   1.731   1.337   0.745  0.2622  0.5154  0.2021
  238SOL    HW1  713   1.809   1.347   0.684  1.3611  1.0076 -1.4718
  238SOL    HW2  714   1.674   1.422   0.748  0.6740  2.3416  0.7274
  239SOL     OW  715   2.143   0.291   2.666  0.1708  0.1646 -0.6339
  239SOL    HW1  716   2.217   0.268   2.737  1.5150 -2.3382  0.6041
  239SOL    HW2  717   2.078   0.370   2.697  0.1949  0.3886 -0.1592
  240SOL     OW  718   0.897   0.735   0.225 -0.3849  0.2566 -0.2597
  240SOL    HW1  719   0.856   0.660   0.162 -0.0668 -1.7250  1.9231
  240SOL    HW2  720   0.889   0.703   0.321 -1.7673 -2.9380 -0.1729
  241SOL     OW  721   0.575   0.038   0.359 -0.3660 -0.5418 -0.1646
  241SOL    HW1  722   0.601  -0.012   0.275  1.2743 -0.0384 -0.8197
  241SOL    HW2  723   0.505  -0.018   0.424 -2.0202 -1.3618  0.8707
  242SOL     OW  724   0.693   2.431   1.103 -0.0469  0.2541  0.5047
  242SOL    HW1  725   0.667   2.504   1.167  2.4374 -0.9806  2.3768
  242SOL    HW2  726   0.777   2.463   1.051  0.3908 -0.6967  3.3537
  243SOL     OW  727   1.055   0.657   2.504  0.8876 -0.1062  0.4228
  243SOL    HW1  728   1.022   0.734   2.441  1.8748 -1.0243  0.5204
  243SOL    HW2  729   0.983   0.584   2.516 -0.4138  1.5624  0.2490
  244SOL     OW  730   2.822   1.974   2.346  0.1172  0.6524 -0.6866
  244SOL    HW1  731   2.852   1.955   2.251 -0.5309  1.4619  2.2012
  244SOL    HW2  732   2.725   1.949   2.360  0.5112  0.3992 -0.3241
  245SOL     OW  733   2.473   0.719   2.194 -0.2376 -0.0439  0.4016
  245SOL    HW1  734   2.504   0.801   2.252 -0.2954  1.7596  0.7212
  245SOL    HW2  735   2.554   0.671   2.152  0.5861  1.1474 -1.2183
  246SOL     OW  736   0.335   2.869   1.777  0.1510  0.0585 -0.0075
  246SOL    HW1  737   0.234   2.861   1.756 -0.0254 -1.6351 -1.9695
  246SOL    HW2  738   0.369   2.961   1.734 -1.4930  2.6440 -0.7272
  247SOL     OW  739   2.189   0.530   2.999 -0.2124 -0.7472 -0.0063
  247SOL    HW1  740   2.250   0.538   2.913  3.0309 -0.0726 -1.2584
  247SOL    HW2  741   2.130   0.612   3.014  2.4728  0.8115  0.1642
  248SOL     OW  742   2.191   1.835   1.524 -0.2857  0.5368  0.4776
  248SOL    HW1  743   2.227   1.761   1.591 -0.1394 -0.4636  1.1890
  248SOL    HW2  744   2.116   1.895   1.564 -4.2323 -2.7587  1.6943
  249SOL     OW  745   1.985   2.018   1.917  0.0736 -0.9745  0.0202
  249SOL    HW1  746   2.001   1.936   1.857  1.3898  0.6264  0.9952
  249SOL    HW2  747   2.073   2.062   1.946 -1.4781 -1.1179 -2.7761
  250SOL     OW  748   1.058   0.621   1.909 -0.4746  0.4707  0.2900
  250SOL    HW1  749   1.101   0.573   1.990 -0.5694  1.8842 -3.8113
  250SOL    HW2  750   1.074   0.580   1.813  1.8311  1.4466 -1.3337
  251SOL     OW  751   3.056   1.547   2.615 -0.6894 -0.7707 -0.1925
  251SOL    HW1  752   3.064   1.637   2.560  2.8122 -0.8905 -0.9506
  251SOL    HW2  753   2.955   1.527   2.641  0.3576  0.3605  1.9415
  252SOL     OW  754   1.540   0.898   1.583 -0.2703 -0.4405  0.6328
  252SOL    HW1  755   1.586   0.948   1.505  3.5240 -1.7993  0.3468
  252SOL    HW2  756   1.508   0.965   1.654  1.7509  1.6466 -2.2618
  253SOL     OW  757   1.005   1.525   0.385  0.1720  0.8386 -0.2264
  253SOL    HW1  758   1.063   1.471   0.315  1.3844 -0.9517 -4.1611
  253SOL    HW2  759   0.910   1.530   0.366  4.2282 -0.9456  0.3100
  254SOL     OW  760   2.022   2.067   1.591 -0.2212 -0.0216 -0.1568
  254SOL    HW1  761   1.955   2.008   1.537 -1.2016  0.6577  0.2552
  254SOL    HW2  762   1.972   2.126   1.664 -2.3455  2.1530  1.1569
  255SOL     OW  763   0.089   1.156   2.984  0.1616 -0.0508 -0.1459
  255SOL    HW1  764   0.164   1.227   2.958  2.7174  0.6434 -0.5994
  255SOL    HW2  765   0.133   1.076   3.027 -0.1135  4.5818  0.3203
  256SOL     OW  766   2.767   1.317   1.831 -0.8521  0.1356 -0.7363
  256SOL    HW1  767   2.706   1.320   1.744 -2.3276 -0.4150 -1.3995
  256SOL    HW2  768   2.713   1.290   1.919 -0.9630 -2.1911  2.8704
  257SOL     OW  769   0.817   0.192   1.854  0.3538 -0.2048  0.2763
  257SOL    HW1  770   0.856   0.277   1.809  1.2261 -1.0839 -0.2039
  257SOL    HW2  771   0.886   0.117   1.880  1.0334 -2.8444 -3.1862
  258SOL     OW  772   2.956   1.263   0.411  0.0435 -0.0507 -0.1114
  258SOL    HW1  773   2.916   1.352   0.378  1.0613  2.1355 -0.5633
  258SOL    HW2  774   2.979   1.267   0.513 -0.9921 -3.3767  2.1087
  259SOL     OW  775   0.470   2.924   2.967  0.2782  0.4921  0.2409
  259SOL    HW1  776   0.411   2.889   3.043  0.3807 -2.7461 -1.3835
  259SOL    HW2  777   0.507   2.842   2.922  0.4924  0.4601  2.0007
  260SOL     OW  778   2.680   0.753   2.686 -0.3128  0.5499 -0.0158
  260SOL    HW1  779   2.594   0.805   2.659 -2.2215 -1.0761  2.6937
  260SOL    HW2  780   2.664   0.662   2.731 -2.6007 -0.1833 -0.9196
  261SOL     OW  781   2.716   1.301   1.352 -0.7189 -0.4227  0.1133
  261SOL    HW1  782   2.656   1.225   1.307 -0.5779 -0.2877 -3.2337
  261SOL    HW2  783   2.818   1.282   1.339  0.8837  1.8787 -1.9496
  262SOL     OW  784   1.491   2.949   2.058  0.1181  0.1160 -0.0425
  262SOL    HW1  785   1.505   3.025   1.991  2.8138  1.0191  3.0361
  262SOL    HW2  786   1.431   2.872   2.015  0.2613 -0.5803 -1.0632
  263SOL     OW  787   0.831   0.711   2.313 -0.0553 -0.1846  0.2785
  263SOL    HW1  788   0.757   0.643   2.290 -2.3793  1.1395  2.1138
  263SOL    HW2  789   0.846   0.776   2.235 -1.5953 -2.6388 -1.0554
  264SOL     OW  790   2.296   0.714   0.474  0.3899  0.4370  0.3786
  264SOL    HW1  791   2.196   0.745   0.452 -3.0994 -0.8026 -4.1196
  264SOL    HW2  792   2.359   0.796   0.481  1.1665  0.4802 -1.6988
  265SOL     OW  793   0.913   2.274   2.711 -0.0718  0.1845 -0.1327
  265SOL    HW1  794   0.971   2.352   2.749  0.4218  0.8718  2.1265
  265SOL    HW2  795   0.881   2.215   2.787  1.2243  0.9466 -2.2817
  266SOL     OW  796   1.305   1.730   0.009 -0.4044  0.0060  0.0015
  266SOL    HW1  797   1.292   1.793   0.088 -0.7281  0.1635  0.5029
  266SOL    HW2  798   1.401   1.691   0.008 -1.7627  1.6099  1.0695
  267SOL     OW  799   1.117   0.022   2.293 -0.4987  0.3462  0.8100
  267SOL    HW1  800   1.090  -0.055   2.229  2.4265 -0.2010 -0.6176
  267SOL    HW2  801   1.220   0.033   2.294 -1.4568  1.8772 -0.5691
  268SOL     OW  802   0.686   1.141   1.092 -0.3389 -0.2898 -0.1689
  268SOL    HW1  803   0.695   1.168   1.194 -0.0723  2.2604  2.4081
  268SOL    HW2  804   0.625   1.200   1.031  0.1478  2.8006  2.8399
  269SOL     OW  805   2.383   2.541   1.555  0.0168  0.6506 -0.3606
  269SOL    HW1  806   2.454   2.467   1.556 -0.0988 -0.3692  1.4797
  269SOL    HW2  807   2.344   2.559   1.653  0.7534  0.2329  1.5699
  270SOL     OW  808   0.311   2.816   2.057  0.0086 -0.5175  0.8040
  270SOL    HW1  809   0.312   2.800   1.954 -0.1560 -0.7431 -0.3576
  270SOL    HW2  810   0.252   2.747   2.106 -2.4413  0.4740 -0.8139
  271SOL     OW  811   0.375   1.379   1.154  0.1676  0.2711 -0.4864
  271SOL    HW1  812   0.359   1.389   1.057 -3.2976 -1.5486  1.7272
  271SOL    HW2  813   0.304   1.419   1.220 -1.9701 -0.3137 -0.9219
  272SOL     OW  814   1.977   2.809   1.906  0.2866  0.2335  0.0231
  272SOL    HW1  815   1.899   2.775   1.848 -0.7689  0.0120 -0.5906
  272SOL    HW2  816   2.043   2.869   1.858 -2.2630 -1.6858  0.3240
  273SOL     OW  817   1.414   1.469   2.880 -0.0095 -0.4625  0.1362
  273SOL    HW1  818   1.483   1.402   2.919  1.0507  0.4466  1.9937
  273SOL    HW2  819   1.327   1.480   2.935  2.0384 -2.0187  2.8153
  274SOL     OW  820   1.082   0.465   2.135  0.1410  0.3132 -0.5476
  274SOL    HW1  821   1.153   0.416   2.077 -0.0795  0.5516 -0.7699
  274SOL    HW2  822   1.120   0.491   2.234  2.1935 -0.2549  1.8143
  275SOL     OW  823   0.675   2.094   1.880  0.2741 -0.3092  0.0771
  275SOL    HW1  824   0.684   2.189   1.910 -0.0793 -1.4728  0.1147
  275SOL    HW2  825   0.578   2.064   1.889 -0.6395  0.0258 -2.6288
  276SOL     OW  826   2.110   0.915   2.727  0.9122 -0.1393  0.2568
  276SOL    HW1  827   2.038   0.940   2.657 -0.1727  0.5421  0.4153
  276SOL    HW2  828   2.097   0.815   2.762 -1.7694 -0.1356  1.0077
  277SOL     OW  829   3.070   0.869   0.209  0.7706 -0.1783 -0.0101
  277SOL    HW1  830   3.130   0.882   0.125 -1.9589  0.0126 -3.8715
  277SOL    HW2  831   3.119   0.847   0.295 -1.4090 -1.5731  3.6395
  278SOL     OW  832   0.278   0.281   2.863 -0.2858 -0.0715  0.4848
  278SOL    HW1  833   0.376   0.245   2.877  1.6681 -0.3235  0.0045
  278SOL    HW2  834   0.274   0.377   2.895  1.7594 -2.4743  0.2717
  279SOL     OW  835   0.117   0.040   0.906  0.4140  0.5349 -0.1060
  279SOL    HW1  836   0.140   0.056   1.003 -2.3111 -1.1689 -2.1721
  279SOL    HW2  837   0.196   0.047   0.832 -0.9094  1.2333 -2.8366
  280SOL     OW  838   1.629   2.988   2.492 -0.0874 -0.4531 -0.0297
  280SOL    HW1  839   1.686   2.999   2.576 -0.6495 -0.0159  0.0990
  280SOL    HW2  840   1.526   3.012   2.498 -3.6237 -2.7621 -1.6644
  281SOL     OW  841   0.644   1.030   2.348  0.1144  0.5591  0.2122
  281SOL    HW1  842   0.578   0.986   2.282 -0.3128 -0.1208  0.5128
  281SOL    HW2  843   0.680   0.965   2.418  1.8732 -0.1394 -1.1902
  282SOL     OW  844   1.656   2.522   0.562 -0.0070 -0.6997 -0.2293
  282SOL    HW1  845   1.605   2.450   0.508 -2.1926 -0.4602  1.2453
  282SOL    HW2  846   1.638   2.621   0.535  1.3593  2.2625  2.8940
  283SOL     OW  847   1.157   0.877   0.717 -0.8805  0.4310 -0.1340
  283SOL    HW1  848   1.222   0.826   0.775 -0.6266 -2.0315  1.2120
  283SOL    HW2  849   1.065   0.891   0.762 -0.2306 -1.7348 -3.0723
  284SOL     OW  850   2.203   2.829   2.408  0.2826 -0.4244  0.7272
  284SOL    HW1  851   2.237   2.848   2.499 -0.2280  3.1794 -1.4425
  284SOL    HW2  852   2.223   2.904   2.334  0.6045 -2.0795 -1.0061
  285SOL     OW  853   1.356   3.055   2.545  0.8454 -0.0750 -0.5218
  285SOL    HW1  854   1.362   3.057   2.434  2.4607  1.6281 -3.5457
  285SOL    HW2  855   1.274   3.107   2.576  1.9225 -0.4909  0.9358
  286SOL     OW  856   0.424   0.416   0.637 -0.3202 -0.0616  0.4053
  286SOL    HW1  857   0.405   0.382   0.731  0.7640  4.1239 -1.7841
  286SOL    HW2  858   0.408   0.358   0.556  4.1236  1.7956  2.3523
  287SOL     OW  859   0.091   1.311   2.545 -0.8160  0.0035 -0.1291
  287SOL    HW1  860   0.072   1.232   2.608  3.0724  0.4607 -0.0963
  287SOL    HW2  861   0.041   1.394   2.572  1.8907 -3.4292 -0.5083
  288SOL     OW  862   1.572   2.598   1.475  0.7704 -0.2398 -0.1410
  288SOL    HW1  863   1.677   2.623   1.492 -0.8103 -1.1942 -0.2029
  288SOL    HW2  864   1.542   2.608   1.377  0.7444  0.4997 -1.5495
  289SOL     OW  865   0.626   2.710   0.854 -0.1541 -0.3318 -0.4280
  289SOL    HW1  866   0.652   2.780   0.787  1.0752 -0.0338  1.7709
  289SOL    HW2  867   0.635   2.743   0.955 -0.9860  1.0641 -0.1410
  290SOL     OW  868   3.015   1.284   1.665 -0.0833  0.1601 -0.2219
  290SOL    HW1  869   2.937   1.293   1.735 -3.1299 -1.5202  1.4457
  290SOL    HW2  870   3.104   1.247   1.705 -1.9701 -3.8188 -0.7347
  291SOL     OW  871   1.987   0.049   0.129  0.1440 -0.0695 -0.6351
  291SOL    HW1  872   2.032   0.002   0.212  0.5966 -2.3057 -1.6068
  291SOL    HW2  873   2.057   0.112   0.082 -0.9141  0.8291 -0.4009
  292SOL     OW  874   2.927   1.158   3.074  0.6289  0.5060  0.1086
  292SOL    HW1  875   2.864   1.219   3.016 -0.8791  0.5183  1.0872
  292SOL    HW2  876   3.028   1.176   3.049  0.6779  0.9049  0.8557
  293SOL     OW  877   0.548   2.117   0.181 -0.6210  0.6776 -0.2904
  293SOL    HW1  878   0.526   2.181   0.259  0.4672 -0.8388 -0.5216
  293SOL    HW2  879   0.638   2.068   0.204 -1.2465  2.9606  0.2180
  294SOL     OW  880   1.597   2.143   1.818  0.3017 -1.1526 -0.2556
  294SOL    HW1  881   1.664   2.169   1.897 -1.1183  0.3338 -0.3385
  294SOL    HW2  882   1.645   2.166   1.729  2.5849  0.9460  2.6294
  295SOL     OW  883   0.970   1.176   0.421  0.4801  0.2848  0.0865
  295SOL    HW1  884   1.055   1.143   0.473  1.0771 -2.2507  2.2014
  295SOL    HW2  885   0.882   1.122   0.441 -1.6281 -1.6216  1.7435
  296SOL     OW  886   1.286   2.102   2.526  0.0782  0.2595 -0.1147
  296SOL    HW1  887   1.229   2.175   2.474 -1.1646 -0.6978 -2.4692
  296SOL    HW2  888   1.285   2.001   2.480 -1.0988 -2.8270 -2.1321
  297SOL     OW  889   1.489   0.698   1.404  0.1374  0.7381 -0.3434
  297SOL    HW1  890   1.572   0.642   1.376 -0.6220 -2.9509  0.7998
  297SOL    HW2  891   1.510   0.786   1.452  0.8797  0.2134 -1.2840
  298SOL     OW  892   0.581   1.382   2.824 -0.1736 -0.3067  0.1345
  298SOL    HW1  893   0.573   1.282   2.857 -3.4264 -0.5808  1.2308
  298SOL    HW2  894   0.657   1.393   2.758 -2.2211 -1.8338  0.3022
  299SOL     OW  895   0.360   0.390   1.508 -0.3217 -0.3692  0.3481
  299SOL    HW1  896   0.357   0.452   1.423  0.9108 -0.2122  0.2674
  299SOL    HW2  897   0.445   0.332   1.511 -1.6007 -2.0753  0.0162
  300SOL     OW  898   1.238   1.827   2.859  0.8443 -0.1493  0.0250
  300SOL    HW1  899   1.218   1.753   2.793  0.4509 -0.5356 -0.6094
  300SOL    HW2  900   1.244   1.789   2.956  1.6714  1.4880 -0.0846
  301SOL     OW  901   0.404   0.224   0.419  0.6336  0.3850  0.0357
  301SOL    HW1  902   0.308   0.213   0.381  0.5983  0.6241  0.0746
  301SOL    HW2  903   0.472   0.166   0.365  1.9112 -2.7996  0.7849
  302SOL     OW  904   1.145   2.314   2.391 -0.0557 -0.4995 -0.7060
  302SOL    HW1  905   1.076   2.389   2.429  0.4082  2.3778 -2.1618
  302SOL    HW2  906   1.105   2.256   2.319  1.3845 -0.1770 -0.4153
  303SOL     OW  907   0.931   2.404   0.767 -0.4131  0.3018  0.6958
  303SOL    HW1  908   0.976   2.483   0.721 -0.2169 -0.4375  1.6217
  303SOL    HW2  909   0.929   2.418   0.870  1.8353 -1.3871  1.5228
  304SOL     OW  910   0.071   1.987   0.655  0.3857  0.3637  0.2081
  304SOL    HW1  911   0.124   1.964   0.573  2.0988 -4.1324  2.4777
  304SOL    HW2  912   0.011   2.076   0.645 -0.2658  1.0528  3.3639
  305SOL     OW  913   1.624   0.862   0.676 -0.0572  0.1548  0.2311
  305SOL    HW1  914   1.567   0.872   0.591  2.8155  0.0788 -0.3013
  305SOL    HW2  915   1.706   0.802   0.661 -0.9969 -0.1520  3.0119
  306SOL     OW  916   0.442   1.959   1.940 -0.3753 -0.0577 -0.6630
  306SOL    HW1  917   0.453   1.867   1.899 -0.2137  0.5651  2.1784
  306SOL    HW2  918   0.442   1.958   2.044 -4.1606 -0.5416  0.7649
  307SOL     OW  919   0.016   0.867   2.544 -0.3997 -0.4009 -0.0420
  307SOL    HW1  920   0.025   0.956   2.600 -0.5357 -2.6496  1.4832
  307SOL    HW2  921  -0.038   0.789   2.596 -0.8966 -1.3165 -0.3630
  308SOL     OW  922   1.577   2.719   2.777 -0.0594 -0.6049 -0.0916
  308SOL    HW1  923   1.533   2.684   2.693 -3.5598  2.5038  1.4022
  308SOL    HW2  924   1.544   2.663   2.864 -0.3015 -1.4547  0.5737
  309SOL     OW  925   1.237   0.032   1.793  0.5955 -0.5059  0.6690
  309SOL    HW1  926   1.339   0.035   1.830  3.4996 -1.3875  3.8606
  309SOL    HW2  927   1.235   0.078   1.696 -1.2619 -1.4103 -0.0410
  310SOL     OW  928   1.440   2.631   0.751 -0.5516  0.3108 -0.8298
  310SOL    HW1  929   1.418   2.719   0.805  0.1881  0.0419 -0.4955
  310SOL    HW2  930   1.529   2.633   0.690 -0.8679 -2.9188 -1.6755
  311SOL     OW  931   1.215   1.027   1.458  0.1078 -0.4619  0.2332
  311SOL    HW1  932   1.281   0.980   1.398  1.8764  0.8592  1.2049
  311SOL    HW2  933   1.238   1.130   1.468  3.6915 -2.4928 -1.2080
  312SOL     OW  934   1.644   0.645   1.042  0.0461 -0.0536  0.0869
  312SOL    HW1  935   1.636   0.748   1.046 -0.1935  0.2981 -2.0655
  312SOL    HW2  936   1.558   0.599   1.003 -2.3905 -0.1203  0.3387
  313SOL     OW  937   1.598   1.460   0.489 -0.1306 -0.6402 -0.1423
  313SOL    HW1  938   1.498   1.436   0.503  0.5208  2.8172  3.0494
  313SOL    HW2  939   1.656   1.387   0.445 -0.1272  0.1918 -3.8292
  314SOL     OW  940   2.965   0.092  -0.002 -0.1196 -0.1545 -0.9340
  314SOL    HW1  941   2.990   0.090   0.099  0.2236  1.7102 -1.7331
  314SOL    HW2  942   2.891   0.020  -0.027 -1.5104  2.0735 -2.1504
  315SOL     OW  943   1.296   0.265   2.756 -0.2233 -0.4664 -0.1181
  315SOL    HW1  944   1.244   0.217   2.678 -1.4044  1.6014 -0.1541
  315SOL    HW2  945   1.321   0.197   2.827 -0.3665 -1.6926 -2.3250
  316SOL     OW  946   1.663   2.076   0.929  0.9849  0.0717 -0.7684
  316SOL    HW1  947   1.620   2.115   1.023 -3.0317 -0.7325  4.4660
  316SOL    HW2  948   1.703   2.147   0.871 -1.5194  0.8924  0.4020
  317SOL     OW  949   1.169   0.677   2.803 -0.4585  0.3130  0.1090
  317SOL    HW1  950   1.105   0.737   2.851  0.4821 -1.5632 -0.9080
  317SOL    HW2  951   1.114   0.605   2.752  1.4206 -0.5536  0.7971
  318SOL     OW  952   1.387   3.078   2.283  0.2302  0.3369  0.1065
  318SOL    HW1  953   1.413   3.174   2.268 -0.2691 -0.9534 -1.1294
  318SOL    HW2  954   1.423   3.013   2.206 -0.3879 -0.6507 -2.2704
  319SOL     OW  955   0.661   2.395   2.926 -0.2898  0.0697  0.0004
  319SOL    HW1  956   0.592   2.355   2.993 -1.8073  0.9150 -2.7962
  319SOL    HW2  957   0.748   2.339   2.932  1.8958  1.4277 -0.0188
  320SOL     OW  958   1.583   2.263   0.458 -0.0262 -0.2273 -0.3038
  320SOL    HW1  959   1.679   2.217   0.457  0.8541  0.9714  2.2008
  320SOL    HW2  960   1.517   2.214   0.521 -0.0319  2.9640 -0.0270
  321SOL     OW  961   1.607   2.774   0.496  0.6276  0.1999 -0.0377
  321SOL    HW1  962   1.525   2.812   0.437  1.7601  2.3763 -0.5044
  321SOL    HW2  963   1.695   2.832   0.489  1.0915  1.2881 -1.9128
  322SOL     OW  964   2.643   1.157   2.293  0.7497 -0.7247 -0.2718
  322SOL    HW1  965   2.710   1.180   2.374  1.3671 -0.7558 -0.7863
  322SOL    HW2  966   2.596   1.062   2.310 -2.0420 -1.9365 -2.4667
  323SOL     OW  967   0.991   2.761   0.854  0.3749 -0.6089  0.1273
  323SOL    HW1  968   1.065   2.722   0.795  0.2598 -3.6776  2.9334
  323SOL    HW2  969   0.994   2.869   0.860  0.0097  1.6577  2.8764
  324SOL     OW  970   0.096   2.516   2.404 -0.1613 -0.4930 -0.0280
  324SOL    HW1  971   0.043   2.425   2.426 -0.2081 -1.0943  1.8938
  324SOL    HW2  972   0.074   2.592   2.474  0.0555  1.0815 -2.4377
  325SOL     OW  973   1.198   3.043   0.492  0.1170  0.4624 -0.1805
  325SOL    HW1  974   1.206   3.071   0.396 -1.8593  0.7799  2.9895
  325SOL    HW2  975   1.213   3.118   0.563 -1.5280  1.4436 -0.3090
  326SOL     OW  976   2.314   0.829   0.088 -0.1070  0.0563 -0.0600
  326SOL    HW1  977   2.225   0.811   0.036  0.4561 -2.8575  0.4724
  326SOL    HW2  978   2.332   0.761   0.165 -0.5655  3.2245  2.6228
  327SOL     OW  979   2.704   0.424   0.542 -0.1640  0.2943 -0.3921
  327SOL    HW1  980   2.734   0.384   0.448 -1.0617  0.1571 -1.1280
  327SOL    HW2  981   2.620   0.378   0.579 -0.1423  0.7120 -0.7626
  328SOL     OW  982   2.558   0.614   0.360 -0.1610  0.0023 -0.3706
  328SOL    HW1  983   2.470   0.608   0.408  1.7424  4.6132  0.1880
  328SOL    HW2  984   2.630   0.591   0.428 -3.8775 -2.3229  0.8983
  329SOL     OW  985   3.014   2.944   2.130  0.3214  0.2978  0.2072
  329SOL    HW1  986   3.057   2.889   2.204 -1.4636 -0.5604 -1.5819
  329SOL    HW2  987   3.047   3.038   2.123 -3.7944 -3.8384 -1.7147
  330SOL     OW  988   0.487   0.203   1.896 -0.0341  0.6584 -0.5580
  330SOL    HW1  989   0.527   0.294   1.866 -0.2885  0.8479  0.6749
  330SOL    HW2  990   0.548   0.154   1.961 -1.2486 -1.1987 -0.7832
  331SOL     OW  991   2.881   1.916   1.073 -0.6852  0.5766  0.8748
  331SOL    HW1  992   2.918   2.011   1.054  0.4231  1.2066 -0.8561
  331SOL    HW2  993   2.820   1.917   1.152 -1.5626  2.0789 -4.5378
  332SOL     OW  994   0.409   1.017   0.019 -0.3395  0.2177  0.3257
  332SOL    HW1  995   0.339   0.960  -0.030 -0.8508  3.6591  1.5529
  332SOL    HW2  996   0.361   1.070   0.089 -0.5434 -0.5850  1.3018
  333SOL     OW  997   2.873   1.020   0.314 -0.3523  0.3945  0.5404
  333SOL    HW1  998   2.917   1.113   0.349 -0.0142  0.8398  1.4919
  333SOL    HW2  999   2.940   0.969   0.246  2.7075 -0.2930 -1.8810
  334SOL     OW 1000   1.633   1.152   1.895 -0.3561 -0.2825 -0.3252
  334SOL    HW1 1001   1.721   1.124   1.845  1.6843  2.1634 -0.3508
  334SOL    HW2 1002   1.661   1.233   1.961  0.8054 -0.5490  0.0272
  335SOL     OW 1003   1.897   2.811   2.628  0.4418 -0.0443 -0.4102
  335SOL    HW1 1004   2.002   2.820   2.638  2.8688 -2.8509  1.8262
  335SOL    HW2 1005   1.850   2.906   2.643 -0.1750  0.6858 -1.0959
  336SOL     OW 1006   0.219   0.069   2.711 -0.2914  0.1791 -0.1011
  336SOL    HW1 1007   0.305   0.016   2.730  1.9119 -1.2629  0.5887
  336SOL    HW2 1008   0.224   0.160   2.766  1.6998  1.2980  0.9296
  337SOL     OW 1009   1.023   2.805   2.822  0.0511 -0.0350  0.5079
  337SOL    HW1 1010   0.982   2.770   2.912  0.0247 -3.2948 -1.8200
  337SOL    HW2 1011   1.124   2.777   2.821 -2.2098  0.1342  0.7518
  338SOL     OW 1012   0.018   1.027   0.657 -0.0398  0.0379 -1.0514
  338SOL    HW1 1013  -0.088   1.014   0.675 -1.2657 -3.4316 -0.1415
  338SOL    HW2 1014   0.037   1.130   0.639 -0.0871  3.4668  0.0728
  339SOL     OW 1015   1.707   1.379   2.018  0.0407  0.3671  0.7295
  339SOL    HW1 1016   1.614   1.375   2.067 -1.2517  0.5617  1.7495
  339SOL    HW2 1017   1.746   1.475   2.016 -2.3477  0.7972 -0.1363
  340SOL     OW 1018   2.273   0.792   1.276  0.4042  0.1554  0.2225
  340SOL    HW1 1019   2.176   0.803   1.235  1.2316 -0.4016 -0.5255
  340SOL    HW2 1020   2.333   0.744   1.210 -0.0989  0.0936 -0.0885
  341SOL     OW 1021   1.832   2.177   0.450  0.7255 -0.1207  0.2616
  341SOL    HW1 1022   1.845   2.175   0.347  2.2947 -1.1400  2.9776
  341SOL    HW2 1023   1.908   2.217   0.498 -0.7952 -1.8197  0.2129
  342SOL     OW 1024   2.241   2.163   2.771  0.2767  0.5725  0.7657
  342SOL    HW1 1025   2.303   2.091   2.803  0.2907  2.0020 -3.4358
  342SOL    HW2 1026   2.143   2.119   2.757 -1.1939 -2.5200  1.0421
  343SOL     OW 1027   0.317   0.897   2.846 -0.2951 -0.6210  0.4483
  343SOL    HW1 1028   0.312   0.954   2.753  1.1962  1.8334  0.2140
  343SOL    HW2 1029   0.413   0.879   2.877  0.1942 -1.3427  2.0640
  344SOL     OW 1030   1.916   1.466   0.285 -0.3072 -0.2728  0.2722
  344SOL    HW1 1031   1.855   1.390   0.253 -0.3415  1.5227  0.4858
  344SOL    HW2 1032   1.912   1.545   0.223 -1.0567 -3.1271  2.1643
  345SOL     OW 1033   1.474   2.221   2.888 -0.0572 -0.1590 -0.2612
  345SOL    HW1 1034   1.391   2.176   2.848 -0.1809  1.0337  1.9091
  345SOL    HW2 1035   1.565   2.188   2.850 -0.7000  0.0224 -3.0641
  346SOL     OW 1036   2.358   0.873   1.524  1.1700  0.1782  0.0736
  346SOL    HW1 1037   2.367   0.974   1.539 -0.7909  0.9027  1.5572
  346SOL    HW2 1038   2.316   0.847   1.429  1.5566 -1.3594  1.3048
  347SOL     OW 1039   0.694   2.844   1.552 -0.5824 -0.0885 -0.6801
  347SOL    HW1 1040   0.692   2.792   1.641  0.9013  1.9281  0.2185
  347SOL    HW2 1041   0.612   2.909   1.548 -0.1542 -0.1822 -0.1381
  348SOL     OW 1042   0.129   0.707   2.829 -0.0079 -0.1397 -0.2074
  348SOL    HW1 1043   0.053   0.735   2.763 -2.6966  1.3180 -0.4851
  348SOL    HW2 1044   0.211   0.777   2.828  2.7209  0.6842  0.1464
  349SOL     OW 1045   1.938   0.472   2.716  0.1192  0.0480  0.2024
  349SOL    HW1 1046   1.913   0.559   2.664 -2.1308 -1.7496 -0.3482
  349SOL    HW2 1047   1.902   0.470   2.813 -0.5002 -1.0216 -0.2596
  350SOL     OW 1048   1.683   0.369   0.342  0.4867  0.3118 -0.1452
  350SOL    HW1 1049   1.727   0.384   0.431 -0.2945  3.0350 -2.2080
  350SOL    HW2 1050   1.633   0.452   0.303  1.5206  0.8263  2.1261
  351SOL     OW 1051   0.887   0.888   2.122  0.8513  0.4259 -0.0016
  351SOL    HW1 1052   0.901   0.982   2.097  1.6119 -0.4635 -0.2349
  351SOL    HW2 1053   0.848   0.832   2.044 -0.6973  1.5872 -0.4615
  352SOL     OW 1054   1.955   1.375   0.541  0.7283  0.0430  0.4875
  352SOL    HW1 1055   1.943   1.408   0.442  1.3749  0.5376 -0.0397
  352SOL    HW2 1056   2.032   1.423   0.585 -0.5720 -0.1033 -1.4622
  353SOL     OW 1057   2.119   2.798   1.192  0.1964  0.2363 -0.0440
  353SOL    HW1 1058   2.213   2.768   1.167  0.0711 -1.8343  1.1861
  353SOL    HW2 1059   2.044   2.753   1.129  0.3382 -2.5846 -3.0743
  354SOL     OW 1060   0.286   1.363   2.936  0.2441  0.2804 -0.1360
  354SOL    HW1 1061   0.243   1.437   2.875  0.7418  1.9289 -1.0759
  354SOL    HW2 1062   0.390   1.359   2.924  0.5991  0.0337  1.6714
  355SOL     OW 1063   0.447   1.475   0.467  0.6494  0.8445  0.4269
  355SOL    HW1 1064   0.502   1.560   0.495 -2.1774  0.1428  0.6632
  355SOL    HW2 1065   0.512   1.393   0.452 -1.2768  0.7890  1.7202
  356SOL     OW 1066   0.769   0.388   2.078  0.3428  0.3448 -0.2191
  356SOL    HW1 1067   0.841   0.453   2.107 -0.1485 -1.2784  1.3626
  356SOL    HW2 1068   0.806   0.297   2.047 -0.0059  0.0772  2.8894
  357SOL     OW 1069   1.085   1.314   0.178 -0.9682  0.0451 -0.5403
  357SOL    HW1 1070   1.054   1.275   0.088  1.7166 -1.9110  0.4515
  357SOL    HW2 1071   1.044   1.274   0.265  0.8562  2.4808  2.5466
  358SOL     OW 1072   1.595   1.647   0.272  0.3514 -0.5543 -0.1430
  358SOL    HW1 1073   1.613   1.568   0.338 -0.1847  0.6642  1.6207
  358SOL    HW2 1074   1.550   1.726   0.327  1.2504 -0.9655  0.3434
  359SOL     OW 1075   1.568   2.706   0.118  0.1474 -0.0210 -0.1316
  359SOL    HW1 1076   1.588   2.621   0.069 -1.6454  2.5561  0.7548
  359SOL    HW2 1077   1.497   2.694   0.194  0.0024  1.0720  0.4420
  360SOL     OW 1078   0.827   0.573   0.442  0.0149  0.1064  0.2393
  360SOL    HW1 1079   0.752   0.590   0.505  2.5561  0.4064 -2.3572
  360SOL    HW2 1080   0.856   0.474   0.438  1.7223 -2.0977 -1.0817
  361SOL     OW 1081   1.284   1.375   0.636 -0.0613  0.0217 -0.3126
  361SOL    HW1 1082   1.326   1.379   0.730 -2.5986 -1.0962  1.2329
  361SOL    HW2 1083   1.182   1.395   0.648  0.3623  0.4461  0.8470
  362SOL     OW 1084   1.371   1.739   0.805  0.4405  0.0515 -0.3427
  362SOL    HW1 1085   1.410   1.705   0.896 -0.4175 -3.8630  0.8989
  362SOL    HW2 1086   1.430   1.808   0.750  0.1206  2.1389 -0.7935
  363SOL     OW 1087   1.131   1.271   2.056 -0.4597  0.0199  0.1426
  363SOL    HW1 1088   1.091   1.364   2.085 -0.2871  0.2780 -1.0737
  363SOL    HW2 1089   1.165   1.274   1.956  2.2860  1.3114  0.5597
  364SOL     OW 1090   0.569   2.390   1.971  0.1150 -0.0316  0.4017
  364SOL    HW1 1091   0.466   2.404   1.976  0.5665 -1.7046  0.5534
  364SOL    HW2 1092   0.599   2.418   1.877  1.0689 -2.8285  1.2694
  365SOL     OW 1093   1.134   1.746   1.435  0.4438  0.6725  0.1936
  365SOL    HW1 1094   1.059   1.799   1.487  0.3019 -0.1703  1.7003
  365SOL    HW2 1095   1.118   1.643   1.438 -0.9225 -1.5341  0.9195
  366SOL     OW 1096   2.832   2.073   0.486  0.0412  0.5587  0.1439
  366SOL    HW1 1097   2.773   2.000   0.526 -0.5563 -0.2757 -2.2375
  366SOL    HW2 1098   2.905   2.031   0.428 -2.3340  0.1168  1.0661
  367SOL     OW 1099   0.839   1.171   0.079 -0.0085  0.1009 -0.0014
  367SOL    HW1 1100   0.861   1.104   0.157 -1.0964  0.8345  3.7526
  367SOL    HW2 1101   0.869   1.141  -0.020 -2.4411 -0.5502 -1.6577
  368SOL     OW 1102   1.499   0.498   0.606 -0.2117  0.3166 -0.4468
  368SOL    HW1 1103   1.441   0.557   0.537  1.8469 -0.3205 -0.8572
  368SOL    HW2 1104   1.597   0.488   0.571  0.6428  0.1474 -1.3231
  369SOL     OW 1105   0.257   1.664   0.144  0.0204 -0.2383 -0.3935
  369SOL    HW1 1106   0.255   1.772   0.168  0.9027  2.7408 -0.7496
  369SOL    HW2 1107   0.187   1.603   0.191 -1.2802  0.6382 -0.6215
  370SOL     OW 1108   0.457   2.119   0.981 -0.0649  0.1587 -0.2402
  370SOL    HW1 1109   0.466   2.223   0.977  1.4847  0.6503 -1.0615
  370SOL    HW2 1110   0.367   2.085   0.937 -0.1277 -2.3853  2.2594
  371SOL     OW 1111   2.971   2.154   2.783  0.4128  0.5832  0.1698
  371SOL    HW1 1112   2.990   2.146   2.887  1.4073 -0.8496  1.5033
  371SOL    HW2 1113   3.045   2.202   2.737 -2.7875 -1.1448  2.2954
  372SOL     OW 1114   0.854   1.934   1.009  0.3576 -0.1000  0.1498
  372SOL    HW1 1115   0.892   2.029   1.023 -2.0934 -0.0476 -0.8853
  372SOL    HW2 1116   0.884   1.885   0.921 -0.3379 -0.6611 -1.4584
  373SOL     OW 1117   1.916   1.946   0.914  0.4661 -0.3866 -0.0431
  373SOL    HW1 1118   1.990   1.962   0.987  1.5875 -3.0591 -1.8038
  373SOL    HW2 1119   1.824   1.984   0.936 -0.1195 -0.3593  0.7538
  374SOL     OW 1120   1.810   0.440   0.573  0.1060 -0.1515 -0.0074
  374SOL    HW1 1121   1.794   0.415   0.672 -4.9254 -1.4676  0.3606
  374SOL    HW2 1122   1.909   0.423   0.544 -2.1530  0.2832 -1.2623
  375SOL     OW 1123   2.460   2.323   1.178  0.0121  0.1593 -0.5254
  375SOL    HW1 1124   2.503   2.280   1.093  0.0419 -0.2480 -1.8334
  375SOL    HW2 1125   2.495   2.273   1.262  1.0555 -1.5186 -0.2105
  376SOL     OW 1126   3.032   0.666   1.479 -0.3266 -0.4609  0.3948
  376SOL    HW1 1127   3.078   0.745   1.535  0.2349  2.5654 -0.5020
  376SOL    HW2 1128   2.934   0.684   1.454 -0.0716  1.5499  1.7865
  377SOL     OW 1129   2.166   2.824   0.310 -0.0520 -0.8995  0.1296
  377SOL    HW1 1130   2.096   2.891   0.342 -0.0713  0.4188  0.2493
  377SOL    HW2 1131   2.265   2.856   0.336  0.9185  1.5441  2.0441
  378SOL     OW 1132   1.865   1.819   2.692  0.2736  0.2175 -0.3771
  378SOL    HW1 1133   1.946   1.759   2.660  0.7463 -0.0179  0.0296
  378SOL    HW2 1134   1.788   1.770   2.742 -0.1056 -1.9694  0.6567
  379SOL     OW 1135   0.861   0.131   2.672  0.5044 -0.3913  0.1934
  379SOL    HW1 1136   0.854   0.029   2.664  0.6253 -0.4647  0.6325
  379SOL    HW2 1137   0.810   0.175   2.592  1.1845 -0.2797  0.2780
  380SOL     OW 1138   1.603   1.143   0.505 -0.2961 -0.6124 -0.0260
  380SOL    HW1 1139   1.524   1.074   0.483 -0.4260 -2.3653  0.4517
  380SOL    HW2 1140   1.589   1.208   0.583 -0.6098 -0.2826  0.7686
  381SOL     OW 1141   1.306   1.275   1.488 -0.4362 -0.3120  0.4323
  381SOL    HW1 1142   1.345   1.361   1.450  0.2267 -0.2531 -1.0208
  381SOL    HW2 1143   1.364   1.237   1.570  0.2769  1.1727  2.5604
  382SOL     OW 1144   1.732   0.790   0.226 -0.1800  0.6329  0.7049
  382SOL    HW1 1145   1.766   0.770   0.125 -3.0723 -1.5756 -0.4581
  382SOL    HW2 1146   1.811   0.814   0.283  1.3591 -0.2146 -1.0323
  383SOL     OW 1147   2.627   1.012   1.529  0.8384 -0.2839  0.0049
  383SOL    HW1 1148   2.549   0.989   1.457 -2.8496 -0.8295 -1.2350
  383SOL    HW2 1149   2.720   1.001   1.494  0.5344  2.9682 -1.9894
  384SOL     OW 1150   1.027   2.304   0.136 -0.1422 -0.0672 -0.3712
  384SOL    HW1 1151   0.946   2.365   0.141  0.3010  1.1371  1.3197
  384SOL    HW2 1152   1.026   2.228   0.209  1.1897  0.1176 -2.4984
  385SOL     OW 1153   2.956   2.032   1.687 -0.1512  0.6063 -0.8262
  385SOL    HW1 1154   3.035   2.094   1.673 -1.6639 -3.1347  0.5875
  385SOL    HW2 1155   2.980   1.926   1.700 -2.8860  0.1950 -0.4377
  386SOL     OW 1156   0.406   1.069   0.427 -0.1257 -0.2840 -0.1729
  386SOL    HW1 1157   0.408   0.970   0.437 -2.9496  1.3571  0.1120
  386SOL    HW2 1158   0.355   1.090   0.337  0.0586 -0.6946  1.6983
  387SOL     OW 1159   1.034   0.341   1.700 -0.1377  0.6649  0.0573
  387SOL    HW1 1160   1.070   0.430   1.661 -2.4400 -0.8215  0.7398
  387SOL    HW2 1161   1.009   0.272   1.629 -1.5918 -0.9317 -0.4315
  388SOL     OW 1162   1.254   2.549   1.778  0.1151  0.3966 -0.2697
  388SOL    HW1 1163   1.265   2.530   1.674 -1.9417  0.8009 -0.7742
  388SOL    HW2 1164   1.311   2.487   1.836 -0.7293 -0.7120  0.6995
  389SOL     OW 1165   0.228   0.013   1.158 -0.0235 -0.2528 -0.5861
  389SOL    HW1 1166   0.195  -0.024   1.251 -0.1770 -2.3651 -2.4750
  389SOL    HW2 1167   0.273  -0.059   1.104 -1.6815  2.1879 -1.2046
  390SOL     OW 1168   1.060   0.849   1.193  0.3441  0.4032 -0.1638
  390SOL    HW1 1169   1.163   0.814   1.183  1.7518 -0.1191  1.4300
  390SOL    HW2 1170   1.033   0.848   1.289  1.8486 -0.8162 -1.3156
  391SOL     OW 1171   2.102   1.148   1.117 -0.1342 -0.2179 -0.5033
  391SOL    HW1 1172   2.077   1.057   1.152 -3.4407  0.2334 -0.3365
  391SOL    HW2 1173   2.126   1.150   1.017 -1.7445 -1.7095  0.3603
  392SOL     OW 1174   0.930   2.724   3.062  0.0601  0.0363  0.1308
  392SOL    HW1 1175   0.848   2.711   3.128 -0.0793 -1.5427 -1.5155
  392SOL    HW2 1176   1.002   2.790   3.099  0.2642  0.1002 -3.0702
  393SOL     OW 1177   0.340   0.600   1.983  0.7224 -0.4807  0.2397
  393SOL    HW1 1178   0.255   0.540   1.979  0.1374  0.1466  1.8418
  393SOL    HW2 1179   0.423   0.556   1.934  0.4180  0.8478 -2.3837
  394SOL     OW 1180   2.813   1.837   2.752 -0.2950 -0.0481 -0.0959
  394SOL    HW1 1181   2.872   1.840   2.670  2.0396 -2.8189  0.4602
  394SOL    HW2 1182   2.789   1.933   2.773  1.6978 -2.0329  0.0015
  395SOL     OW 1183   1.537   1.951   0.715 -0.1106  0.1297 -0.2316
  395SOL    HW1 1184   1.618   1.894   0.674  3.7321  0.6461  0.1751
  395SOL    HW2 1185   1.557   1.988   0.813  2.8815  0.4533  2.6573
  396SOL     OW 1186   2.740   1.944   1.313 -0.0293  0.2035  0.4321
  396SOL    HW1 1187   2.745   2.009   1.393 -2.9289  3.3882 -1.7213
  396SOL    HW2 1188   2.658   1.883   1.318  2.2377 -1.3529 -1.0560
  397SOL     OW 1189   0.947   2.156   0.634 -0.2036 -0.1021 -0.0495
  397SOL    HW1 1190   0.844   2.157   0.606 -4.3416 -0.1447  2.2635
  397SOL    HW2 1191   0.972   2.244   0.687  3.3423 -0.6185  0.5085
  398SOL     OW 1192   2.229   3.068   1.165 -0.1175  0.1160 -0.9575
  398SOL    HW1 1193   2.191   2.974   1.180  0.4394  1.9069 -0.8936
  398SOL    HW2 1194   2.157   3.137   1.122 -2.2532  1.4644 -2.2342
  399SOL     OW 1195   2.885   2.604   2.803  0.2488 -0.0626  0.1068
  399SOL    HW1 1196   2.891   2.539   2.727 -2.3686 -0.7416  0.0217
  399SOL    HW2 1197   2.816   2.584   2.875  0.4322  1.1966  1.6070
  400SOL     OW 1198   0.813   1.588   1.291  0.0216 -0.1863  0.0828
  400SOL    HW1 1199   0.763   1.625   1.377 -2.3689 -3.1569  0.9548
  400SOL    HW2 1200   0.777   1.615   1.197  0.5207 -1.3151  0.3680
  401SOL     OW 1201   1.870   0.145   1.272  0.1270  0.5271 -0.0522
  401SOL    HW1 1202   1.907   0.213   1.345 -0.5169  2.5794  0.1341
  401SOL    HW2 1203   1.773   0.106   1.296 -0.8576 -2.7213 -0.0900
  402SOL     OW 1204   1.397   0.143   3.017  0.1282  0.0360  0.1903
  402SOL    HW1 1205   1.496   0.155   2.993 -4.2381 -0.8000  1.3267
  402SOL    HW2 1206   1.381   0.197   3.101  5.4794  2.4763 -3.9565
  403SOL     OW 1207   2.258   1.850   0.938 -0.1122  0.4277  0.7670
  403SOL    HW1 1208   2.363   1.850   0.952  1.4402 -1.1520 -2.1096
  403SOL    HW2 1209   2.212   1.934   0.974  1.0522  0.8181 -1.8764
  404SOL     OW 1210   0.217   2.490   2.777 -0.4179  0.7245 -0.2422
  404SOL    HW1 1211   0.317   2.465   2.748 -1.0891  1.8613 -3.7488
  404SOL    HW2 1212   0.203   2.593   2.787  0.9610  1.0979  0.2512
  405SOL     OW 1213   0.185   2.559   0.558 -0.1963 -0.6084 -0.2651
  405SOL    HW1 1214   0.208   2.459   0.550  1.4177 -0.6693  0.7314
  405SOL    HW2 1215   0.272   2.617   0.585 -0.6343  1.1276 -0.6595
  406SOL     OW 1216   0.040   1.641   2.996  0.1037 -0.1589  0.6967
  406SOL    HW1 1217   0.088   1.615   2.912  0.8937 -0.4312  2.3166
  406SOL    HW2 1218   0.084   1.586   3.076  1.5852  2.5985  2.4706
  407SOL     OW 1219   1.519   0.902   0.935  0.7208  0.2626 -0.3441
  407SOL    HW1 1220   1.543   0.844   0.852  0.5114 -1.9158  1.1201
  407SOL    HW2 1221   1.471   0.992   0.915  2.2825  1.8915  0.4813
  408SOL     OW 1222   1.459   2.324   0.912  0.4095 -0.3523  0.2480
  408SOL    HW1 1223   1.516   2.287   0.836 -0.9258  1.4984  0.1171
  408SOL    HW2 1224   1.506   2.409   0.948 -1.4447  0.3373 -2.1550
  409SOL     OW 1225   0.611   0.838   0.702  0.0452  0.1427 -0.4237
  409SOL    HW1 1226   0.517   0.840   0.652 -2.6801  0.0684  0.7176
  409SOL    HW2 1227   0.660   0.742   0.689  2.7689 -1.4218 -0.9393
  410SOL     OW 1228   1.353   1.909   1.475 -0.0256 -0.1869 -0.1571
  410SOL    HW1 1229   1.323   2.007   1.490  1.4037  1.1010  0.7058
  410SOL    HW2 1230   1.266   1.845   1.455  0.5802 -3.7706 -4.1909
  411SOL     OW 1231   2.367   1.865   0.060  0.0293  0.1317  0.1732
  411SOL    HW1 1232   2.267   1.881   0.023  0.7399 -1.4768  0.1491
  411SOL    HW2 1233   2.435   1.915   0.002 -0.4498 -1.7935 -1.8692
  412SOL     OW 1234   1.638   2.450   2.243 -0.5713 -0.4391  0.1956
  412SOL    HW1 1235   1.661   2.554   2.246  2.4847  0.3554 -2.3853
  412SOL    HW2 1236   1.536   2.432   2.265 -1.0877 -1.8854 -0.2342
  413SOL     OW 1237   3.080   0.235   2.909 -0.5877 -0.2676  0.1954
  413SOL    HW1 1238   3.038   0.177   2.991 -1.0838 -3.8995  1.4627
  413SOL    HW2 1239   3.183   0.236   2.916  1.6805 -0.6792 -2.5487
  414SOL     OW 1240   1.713   1.362   1.406 -0.1200  0.1311 -0.4490
  414SOL    HW1 1241   1.637   1.418   1.428  0.3646 -0.9780 -2.0065
  414SOL    HW2 1242   1.710   1.326   1.305 -1.9433 -0.0964 -0.6290
  415SOL     OW 1243   0.230   2.266   0.683 -0.8078 -0.4633 -0.3768
  415SOL    HW1 1244   0.238   2.233   0.775  1.1028  1.7101 -2.3970
  415SOL    HW2 1245   0.133   2.253   0.656  0.2133  0.8617  2.8578
  416SOL     OW 1246   0.316   1.083   1.087  0.1491 -0.4189 -0.0115
  416SOL    HW1 1247   0.326   1.050   0.989 -1.6370 -0.7216  1.9250
  416SOL    HW2 1248   0.338   1.182   1.104  0.4444  1.3527  1.2119
  417SOL     OW 1249   2.206   2.319   1.831  0.4143  0.0842  0.3371
  417SOL    HW1 1250   2.271   2.241   1.859  1.6150 -0.0908  0.7527
  417SOL    HW2 1251   2.116   2.320   1.883 -0.7747  3.2662  0.7508
  418SOL     OW 1252   1.160   0.568   1.348 -0.1435  0.1440  0.1831
  418SOL    HW1 1253   1.069   0.563   1.295 -1.8829 -1.1643 -0.2335
  418SOL    HW2 1254   1.236   0.499   1.303  1.0943 -1.9740 -2.3916
  419SOL     OW 1255   0.955   0.384   2.983 -0.1146 -0.0085  0.3945
  419SOL    HW1 1256   0.990   0.422   2.892  0.6310 -0.2715  0.6967
  419SOL    HW2 1257   0.918   0.288   2.968 -1.3323  0.3708 -0.6258
  420SOL     OW 1258   0.202   2.206   0.310 -0.2506  0.2422 -0.0517
  420SOL    HW1 1259   0.190   2.198   0.212 -0.0125  0.1199  2.6840
  420SOL    HW2 1260   0.125   2.239   0.371 -1.1202  0.2942  2.2873
  421SOL     OW 1261   0.290   0.054   0.696  0.1320 -0.0360 -0.1046
  421SOL    HW1 1262   0.329  -0.008   0.621  1.2219 -4.2851  1.5569
  421SOL    HW2 1263   0.354   0.132   0.727 -0.7395  0.4945  2.7926
  422SOL     OW 1264   0.909   2.547   0.996  0.0886 -0.8796  0.0463
  422SOL    HW1 1265   0.930   2.631   0.931  1.5201  2.0105 -1.4927
  422SOL    HW2 1266   0.952   2.559   1.091  0.4260  2.3484  0.7597
  423SOL     OW 1267   0.056   0.643   1.217  0.0006  0.8952 -0.0291
  423SOL    HW1 1268   0.034   0.638   1.317 -2.5051 -0.6755  0.5012
  423SOL    HW2 1269  -0.027   0.616   1.155  0.3468 -2.9898 -1.3522
  424SOL     OW 1270   1.017   2.164   2.213  0.0845  0.4114  0.1128
  424SOL    HW1 1271   0.987   2.208   2.123 -1.1005  0.4953 -0.1829
  424SOL    HW2 1272   0.940   2.128   2.269  0.0666  0.4771 -0.3276
  425SOL     OW 1273   2.081   1.418   1.129 -0.2950  0.2973 -0.0671
  425SOL    HW1 1274   2.111   1.318   1.110 -1.5046 -0.1105  1.1054
  425SOL    HW2 1275   2.105   1.476   1.047  3.3276 -0.8894 -0.5813
  426SOL     OW 1276   1.443   1.552   1.440  0.4607  0.1849 -0.0771
  426SOL    HW1 1277   1.428   1.623   1.364  1.3071 -0.5997  1.2097
  426SOL    HW2 1278   1.459   1.597   1.530 -1.3593 -0.8298  0.3327
  427SOL     OW 1279   1.986   2.339   2.032 -0.2346 -0.0578 -0.5005
  427SOL    HW1 1280   2.007   2.270   2.115 -0.0750 -2.1159  2.2718
  427SOL    HW2 1281   2.001   2.442   2.057 -1.5404 -0.5510 -3.3074
  428SOL     OW 1282   0.910   0.017   0.063  0.2194  0.1981 -0.1893
  428SOL    HW1 1283   0.946   0.096   0.121 -1.0461  0.6326 -2.1357
  428SOL    HW2 1284   0.980  -0.055   0.054 -0.1349 -0.6208 -0.3882
  429SOL     OW 1285   1.245   0.063   0.234 -0.1412  0.1661 -0.4046
  429SOL    HW1 1286   1.318   0.130   0.224 -1.8966  0.7277  5.4568
  429SOL    HW2 1287   1.264  -0.025   0.185 -0.4400  0.3630  1.8215
  430SOL     OW 1288   2.785   1.450   0.272 -0.1399  0.2623  0.4605
  430SOL    HW1 1289   2.777   1.502   0.183 -1.3314 -0.4439 -2.0556
  430SOL    HW2 1290   2.792   1.515   0.360  1.6440  0.5430  1.2826
  431SOL     OW 1291   2.135   1.592   0.929 -0.2591 -0.1521  0.1807
  431SOL    HW1 1292   2.194   1.678   0.943  0.1938 -1.6085 -0.0866
  431SOL    HW2 1293   2.055   1.620   0.867 -0.5239  3.6500  0.6499
  432SOL     OW 1294   2.946   2.154   1.286 -0.3971  0.1854 -0.5801
  432SOL    HW1 1295   2.866   2.105   1.323  0.5674  3.0866  0.4815
  432SOL    HW2 1296   2.939   2.253   1.316 -2.1169 -0.8108 -1.6676
  433SOL     OW 1297   1.839   0.376   0.842  0.3935 -1.3145 -0.0630
  433SOL    HW1 1298   1.764   0.319   0.887  0.2568 -4.2844 -1.6721
  433SOL    HW2 1299   1.907   0.429   0.907  1.6010  0.6723 -1.5009
  434SOL     OW 1300   1.463   0.225   0.747  0.3928 -0.3677 -0.4622
  434SOL    HW1 1301   1.473   0.291   0.673 -1.4585  0.5765  1.2535
  434SOL    HW2 1302   1.520   0.252   0.834 -0.4488  3.4749  1.2613
  435SOL     OW 1303   1.436   1.380   2.089  0.4041  0.1361 -0.2697
  435SOL    HW1 1304   1.385   1.414   2.173 -0.1756 -0.8176 -2.0909
  435SOL    HW2 1305   1.401   1.434   2.006 -1.1307  0.5679  1.0576
  436SOL     OW 1306   1.675   2.710   2.430 -0.3116 -0.5223  0.5788
  436SOL    HW1 1307   1.671   2.805   2.473  4.3201  0.3906 -0.8204
  436SOL    HW2 1308   1.615   2.643   2.480 -0.3285 -2.6147 -0.8096
  437SOL     OW 1309   1.045   3.030   0.873 -0.5342  0.2829  0.0746
  437SOL    HW1 1310   1.033   3.114   0.814 -3.4777 -1.2431  0.1489
  437SOL    HW2 1311   1.065   3.044   0.970 -1.0887 -2.4901 -1.6697
  438SOL     OW 1312   1.006   2.575   1.259 -0.1908 -0.1750  0.1014
  438SOL    HW1 1313   1.073   2.646   1.295 -1.9292  1.2211 -0.5285
  438SOL    HW2 1314   1.021   2.474   1.290  1.4313 -1.6694  3.2478
  439SOL     OW 1315   0.731   1.697   1.069 -0.0884 -0.5703 -0.0069
  439SOL    HW1 1316   0.784   1.789   1.062  1.3011  0.1723  0.9654
  439SOL    HW2 1317   0.636   1.712   1.104 -0.2387 -1.3675  1.3712
  440SOL     OW 1318   0.930   2.319   2.009  0.2863  0.4158  0.1754
  440SOL    HW1 1319   0.955   2.419   1.991  2.4651  1.4477  0.6679
  440SOL    HW2 1320   0.984   2.254   1.948 -1.3766  0.6354 -0.0068
  441SOL     OW 1321   0.360   2.792   1.305  0.1426  0.3747  0.2208
  441SOL    HW1 1322   0.410   2.702   1.296  2.4271 -0.6086  1.2337
  441SOL    HW2 1323   0.351   2.843   1.214 -2.7423  0.7631  1.2739
  442SOL     OW 1324   2.224   0.692   2.556 -0.1106 -0.4583  0.2633
  442SOL    HW1 1325   2.235   0.621   2.479 -0.5408 -0.7792 -0.2634
  442SOL    HW2 1326   2.140   0.750   2.552 -0.7494 -0.9600  2.2751
  443SOL     OW 1327   1.345   2.484   2.262 -0.2576  0.2958 -0.7616
  443SOL    HW1 1328   1.294   2.394   2.279 -2.5666  0.7604  1.5956
  443SOL    HW2 1329   1.283   2.568   2.280 -1.0068  1.4948  0.4252
  444SOL     OW 1330   0.947   1.111   1.414 -0.6223  0.7487  0.5895
  444SOL    HW1 1331   1.045   1.085   1.438  1.2329 -1.9734  1.8754
  444SOL    HW2 1332   0.942   1.207   1.381 -2.2980  0.0367  0.4085
  445SOL     OW 1333   0.157   2.101   2.011 -0.0165 -0.1554  0.0882
  445SOL    HW1 1334   0.145   2.007   2.049  3.7130  1.7535 -0.8279
  445SOL    HW2 1335   0.112   2.172   2.075  0.1616  0.9536  0.3701
  446SOL     OW 1336   0.155   1.997   2.385 -0.3785  0.0328 -0.0585
  446SOL    HW1 1337   0.129   2.089   2.360 -1.5146 -2.6222 -0.8797
  446SOL    HW2 1338   0.126   1.929   2.312 -1.5519 -0.8376  1.4621
  447SOL     OW 1339   1.341   1.564   1.877 -0.8388  0.7718  0.6390
  447SOL    HW1 1340   1.277   1.612   1.812  1.2034  1.9476  0.7161
  447SOL    HW2 1341   1.401   1.630   1.926 -0.6107 -0.6885 -0.2941
  448SOL     OW 1342   0.144   1.472   2.024 -0.1855  0.0300  0.4762
  448SOL    HW1 1343   0.149   1.558   1.961 -2.3802 -0.7510 -0.9877
  448SOL    HW2 1344   0.078   1.481   2.102  3.1077  0.9028  1.2424
  449SOL     OW 1345   1.862   3.022   0.833  0.1774  0.2505  0.2639
  449SOL    HW1 1346   1.872   3.037   0.932  1.5761  3.3833  2.1569
  449SOL    HW2 1347   1.895   2.924   0.803 -1.3742 -2.2958 -2.8293
  450SOL     OW 1348   2.155   1.508   0.671  0.2240 -0.7874  0.5860
  450SOL    HW1 1349   2.145   1.526   0.774 -2.5806  0.8888  1.3299
  450SOL    HW2 1350   2.201   1.589   0.620  1.4403  1.1637 -2.2359
  451SOL     OW 1351   1.389   2.982   1.500  0.6443 -0.3187 -0.3632
  451SOL    HW1 1352   1.317   3.039   1.542  0.5309 -0.6703  2.2858
  451SOL    HW2 1353   1.429   2.914   1.575  0.8966 -0.1646  3.9831
  452SOL     OW 1354   2.685   2.277   2.256 -0.0669  1.2273  0.0713
  452SOL    HW1 1355   2.631   2.364   2.263  1.5681  0.4225 -1.3934
  452SOL    HW2 1356   2.736   2.253   2.341  0.0510 -0.0701 -0.5956
  453SOL     OW 1357   2.478   2.692   0.009  0.1040 -0.3130 -0.3418
  453SOL    HW1 1358   2.386   2.705   0.059  1.5794 -0.5950 -1.6957
  453SOL    HW2 1359   2.482   2.607  -0.052  0.4314  0.7383  1.1328
  454SOL     OW 1360   0.867   1.169   2.007  0.0858  0.1895  0.3475
  454SOL    HW1 1361   0.833   1.193   1.911  1.1164 -2.3666 -0.5658
  454SOL    HW2 1362   0.970   1.187   2.012 -1.3535 -3.0335  2.0762
  455SOL     OW 1363   0.796   2.605   2.785 -0.0719  0.1124 -0.1642
  455SOL    HW1 1364   0.885   2.656   2.794  0.6490 -1.7189 -2.4280
  455SOL    HW2 1365   0.777   2.549   2.865 -2.8320 -0.2560 -0.7943
  456SOL     OW 1366   0.297   1.941   0.180 -0.2078 -0.5104  0.8304
  456SOL    HW1 1367   0.379   1.998   0.207  1.9704 -0.6629 -1.8530
  456SOL    HW2 1368   0.227   2.007   0.134  0.2099 -0.3513  0.1240
  457SOL     OW 1369   0.410   2.706   0.632  0.3591 -0.0980 -0.0808
  457SOL    HW1 1370   0.446   2.752   0.549  0.6901  1.7512  0.7853
  457SOL    HW2 1371   0.478   2.646   0.687 -2.1865 -2.2394 -0.1695
  458SOL     OW 1372   2.970   0.019   1.310 -0.0036 -0.1562 -0.0760
  458SOL    HW1 1373   3.066   0.053   1.292 -1.3784  1.2488 -4.7387
  458SOL    HW2 1374   2.945  -0.050   1.238 -0.9098 -0.9950  0.2998
  459SOL     OW 1375   2.114   2.548   0.751  0.1496 -0.6953 -0.0492
  459SOL    HW1 1376   2.178   2.553   0.832 -1.6065  3.8535  0.3797
  459SOL    HW2 1377   2.167   2.539   0.656 -1.0707 -1.6173 -5.0203
  460SOL     OW 1378   1.224   2.097   2.800 -0.2254 -0.5815  0.1248
  460SOL    HW1 1379   1.227   2.122   2.696 -0.5611 -1.6952 -1.0009
  460SOL    HW2 1380   1.266   2.005   2.820 -3.0843 -0.7846  0.2214
  461SOL     OW 1381   0.471   2.118   2.710  0.0117 -0.3828  0.7385
  461SOL    HW1 1382   0.369   2.091   2.729 -1.8151  2.2175  0.9764
  461SOL    HW2 1383   0.539   2.047   2.741 -0.1457 -1.1532 -0.0460
  462SOL     OW 1384   0.983   1.049   1.740 -0.3568 -0.1410 -0.4230
  462SOL    HW1 1385   0.980   0.990   1.654  1.3813 -0.3572 -1.1282
  462SOL    HW2 1386   0.905   1.122   1.746 -2.6492 -0.3833  0.7231
  463SOL     OW 1387   0.409   0.794   0.501  0.2032 -0.7479  0.0169
  463SOL    HW1 1388   0.454   0.719   0.444 -0.1106  2.4329 -0.4007
  463SOL    HW2 1389   0.307   0.797   0.491  0.8298  2.5426  0.4503
  464SOL     OW 1390   0.558   2.340   2.291 -0.6481 -0.2412 -0.0379
  464SOL    HW1 1391   0.490   2.398   2.342  0.2603  2.4182  1.3980
  464SOL    HW2 1392   0.547   2.339   2.189  1.9002  2.1055 -1.6581
  465SOL     OW 1393   0.234   0.944   0.812  0.2371  0.1975  0.0318
  465SOL    HW1 1394   0.147   0.970   0.760  1.8311 -1.2054 -1.6957
  465SOL    HW2 1395   0.256   0.844   0.812 -0.8324  3.1386  0.1600
  466SOL     OW 1396   1.370   1.128   0.851 -0.3435  0.8224 -0.2843
  466SOL    HW1 1397   1.372   1.229   0.880 -2.7479 -0.7542  2.8082
  466SOL    HW2 1398   1.275   1.084   0.855 -0.4672 -0.6769 -1.0657
  467SOL     OW 1399   0.582   0.457   2.520  0.7177 -0.0458  0.3608
  467SOL    HW1 1400   0.508   0.523   2.546  1.9109 -2.4568  4.8673
  467SOL    HW2 1401   0.588   0.381   2.593  0.5664 -0.2501  3.4464
  468SOL     OW 1402   0.486   2.278   1.620  0.0605 -0.1827 -0.6322
  468SOL    HW1 1403   0.571   2.333   1.648 -0.6520  1.4389 -0.2065
  468SOL    HW2 1404   0.490   2.242   1.523  1.3712 -2.5860 -0.1937
  469SOL     OW 1405   1.455   1.347   1.198 -0.4911  0.1823  0.1693
  469SOL    HW1 1406   1.540   1.369   1.144  0.5295 -0.3646  1.1817
  469SOL    HW2 1407   1.432   1.428   1.258  0.8593  2.7835 -0.3902
  470SOL     OW 1408   2.957   1.842   0.801  0.2994  0.0528  0.0366
  470SOL    HW1 1409   3.034   1.874   0.735 -0.1803  0.3774  0.4844
  470SOL    HW2 1410   2.982   1.847   0.902  1.0858 -1.4139  0.4495
  471SOL     OW 1411   2.680   1.393   2.156  0.4499 -0.5963  0.7877
  471SOL    HW1 1412   2.672   1.300   2.201 -0.3986  0.3464 -2.1078
  471SOL    HW2 1413   2.725   1.470   2.213 -3.4346  2.1077  1.4129
  472SOL     OW 1414   1.277   2.405   0.040  0.7221 -0.4926  0.8027
  472SOL    HW1 1415   1.341   2.325   0.036 -0.0255  0.9755  0.9975
  472SOL    HW2 1416   1.178   2.382   0.053  1.1379  1.4339 -0.5910
  473SOL     OW 1417   1.067   1.484   0.967  0.0529  0.5314 -0.3845
  473SOL    HW1 1418   0.966   1.488   0.945 -0.6631 -1.2273  0.3770
  473SOL    HW2 1419   1.089   1.404   1.032  1.7068  0.3408 -1.4527
  474SOL     OW 1420   0.615   1.267   0.415  0.5587  0.3982  0.0799
  474SOL    HW1 1421   0.530   1.207   0.433 -0.7914  1.3191 -0.0366
  474SOL    HW2 1422   0.704   1.229   0.446  2.2689  1.3640  2.0493
  475SOL     OW 1423   2.896   0.002   0.892 -0.1841 -0.1112 -0.7683
  475SOL    HW1 1424   2.942   0.091   0.930 -2.1543  0.2891  3.1219
  475SOL    HW2 1425   2.793   0.001   0.910 -1.1613  1.6717 -2.0954
  476SOL     OW 1426   0.972   3.062   1.819 -0.0685  0.4897  0.2417
  476SOL    HW1 1427   1.072   3.095   1.812  1.5522  1.1947  2.1572
  476SOL    HW2 1428   0.921   3.076   1.730 -0.6519 -1.0160 -1.8944
  477SOL     OW 1429   1.475   0.299   2.452 -0.2403  0.2861 -0.2361
  477SOL    HW1 1430   1.485   0.359   2.538  0.2809 -0.8939 -0.2140
  477SOL    HW2 1431   1.541   0.214   2.449 -0.5273  0.0036  0.3869
  478SOL     OW 1432   2.270   1.956   0.339  0.2278 -0.1453  0.3703
  478SOL    HW1 1433   2.186   1.891   0.349 -1.6997  0.1256  0.8445
  478SOL    HW2 1434   2.351   1.903   0.316 -3.1638 -1.3647 -0.7979
  479SOL     OW 1435   1.290   1.036   2.894  0.0680 -0.3176 -0.7984
  479SOL    HW1 1436   1.371   1.058   2.832 -1.0194 -2.5533  1.8229
  479SOL    HW2 1437   1.213   0.986   2.854  2.4782  0.0686  1.9456
  480SOL     OW 1438   2.630   2.245   0.427  0.5207 -0.0663  0.4017
  480SOL    HW1 1439   2.714   2.198   0.460 -1.3317  1.2527  2.0195
  480SOL    HW2 1440   2.542   2.232   0.483 -1.0704  0.5349 -2.1428
  481SOL     OW 1441   0.944   1.108   0.740 -0.2364 -0.3905 -0.3015
  481SOL    HW1 1442   0.988   1.182   0.674  1.8093  2.3100 -2.7123
  481SOL    HW2 1443   0.991   1.105   0.834 -0.6053 -0.2772 -0.3192
  482SOL     OW 1444   1.579   0.278   2.004 -0.1387  0.0184  0.1880
  482SOL    HW1 1445   1.595   0.382   2.007  0.3699  1.5347  0.5386
  482SOL    HW2 1446   1.668   0.223   2.018 -1.2441 -2.2184 -0.0389
  483SOL     OW 1447   0.177   2.351   1.213 -0.3384  0.3913 -1.0486
  483SOL    HW1 1448   0.137   2.407   1.297  1.3437  3.2003  0.0165
  483SOL    HW2 1449   0.183   2.407   1.129 -0.6418  1.8631  0.6114
  484SOL     OW 1450   1.728   1.062   1.441 -0.0516 -0.8186  0.2512
  484SOL    HW1 1451   1.820   1.012   1.445 -0.3137 -3.4656 -1.1436
  484SOL    HW2 1452   1.738   1.163   1.472 -0.0289  2.3488 -1.8271
  485SOL     OW 1453   0.798   0.737   1.917 -0.3750  0.0764  0.4608
  485SOL    HW1 1454   0.749   0.754   1.826  0.0806 -0.8033  0.5048
  485SOL    HW2 1455   0.890   0.686   1.908  0.1374 -0.3814 -0.6587
  486SOL     OW 1456   0.919   1.829   2.471 -0.4574  0.4727  0.4617
  486SOL    HW1 1457   0.906   1.822   2.569  0.0705  0.8324 -3.0027
  486SOL    HW2 1458   0.922   1.928   2.437 -0.2546 -0.2250  1.6706
  487SOL     OW 1459   1.764   1.555   1.042 -0.3229  0.1864 -0.0842
  487SOL    HW1 1460   1.786   1.454   1.062 -0.3222 -1.6363 -0.8962
  487SOL    HW2 1461   1.826   1.608   0.979 -1.9814  0.7131  0.1216
  488SOL     OW 1462   2.869   0.871   2.295  0.2962 -0.8934 -0.4585
  488SOL    HW1 1463   2.965   0.860   2.334  2.0619 -2.1956 -1.2627
  488SOL    HW2 1464   2.801   0.806   2.340 -0.5449 -0.8421 -0.0329
  489SOL     OW 1465   2.885   0.314   1.283 -0.8090  0.1055  0.3945
  489SOL    HW1 1466   2.837   0.296   1.372  0.5028  2.3511 -0.1949
  489SOL    HW2 1467   2.971   0.253   1.267  0.5291  0.9518 -0.5814
  490SOL     OW 1468   1.535   2.999   2.784 -0.4263  0.3809  0.0269
  490SOL    HW1 1469   1.576   2.905   2.789 -2.6395  0.4848  1.6186
  490SOL    HW2 1470   1.492   3.021   2.695  0.3696  1.6799  1.0703
  491SOL     OW 1471   1.785   1.530   2.726 -0.0440 -0.4568  0.8842
  491SOL    HW1 1472   1.788   1.452   2.792  1.1947  1.5662 -0.8763
  491SOL    HW2 1473   1.878   1.567   2.712 -2.9686 -2.4558  2.0515
  492SOL     OW 1474   0.682   2.164   0.583  0.2367 -0.5636  0.6451
  492SOL    HW1 1475   0.663   2.152   0.680  2.9601  0.6421 -3.0939
  492SOL    HW2 1476   0.599   2.177   0.517 -1.7317  0.0432 -0.5561
  493SOL     OW 1477   0.386   1.347   2.099  0.2961  0.1055 -0.0913
  493SOL    HW1 1478   0.292   1.373   2.062  0.5003 -2.2880 -0.4911
  493SOL    HW2 1479   0.389   1.247   2.130 -0.2106 -1.2487 -0.2262
  494SOL     OW 1480   2.726   2.655   0.149 -0.6004  0.0117  0.4204
  494SOL    HW1 1481   2.743   2.644   0.248 -0.6652 -0.5019 -2.1472
  494SOL    HW2 1482   2.631   2.677   0.125  1.5876 -3.7029 -0.9710
  495SOL     OW 1483   2.539   2.803   2.692  0.1282  0.1102 -0.7969
  495SOL    HW1 1484   2.536   2.696   2.692  2.1614  0.1951  0.3811
  495SOL    HW2 1485   2.626   2.839   2.654 -2.6957 -2.8667 -0.9974
  496SOL     OW 1486   1.997   2.235   0.845 -0.1740  0.2451  0.1419
  496SOL    HW1 1487   2.048   2.152   0.811  1.9934 -2.1682  1.4794
  496SOL    HW2 1488   2.046   2.288   0.919  0.9553 -1.0637  0.4755
  497SOL     OW 1489   0.349   2.979   2.353  0.1865 -0.3266 -0.2924
  497SOL    HW1 1490   0.277   3.053   2.386  2.0739 -1.0613 -0.1666
  497SOL    HW2 1491   0.376   2.998   2.253 -0.3307  0.9038 -0.2524
  498SOL     OW 1492   1.136   1.278   1.135  0.4262  0.0444  0.3145
  498SOL    HW1 1493   1.242   1.287   1.140  2.3579 -0.7415  1.4821
  498SOL    HW2 1494   1.082   1.306   1.222 -1.5580  1.0935  1.4121
  499SOL     OW 1495   0.630   1.677   0.454 -0.1296  0.0676  0.0326
  499SOL    HW1 1496   0.621   1.668   0.353 -0.9729  2.3015  0.7539
  499SOL    HW2 1497   0.683   1.765   0.480 -0.6476  0.7081  1.9356
  500SOL     OW 1498   1.471   2.788   1.656 -0.4315  0.5205 -0.3946
  500SOL    HW1 1499   1.439   2.766   1.756 -0.0589 -1.5093  1.8272
  500SOL    HW2 1500   1.501   2.701   1.607 -0.0177  0.0763  1.4134
  501SOL     OW 1501   0.817   1.257   2.249 -0.4053 -0.3746  0.5328
  501SOL    HW1 1502   0.735   1.207   2.291 -0.4673 -0.7902 -1.2891
  501SOL    HW2 1503   0.826   1.229   2.145 -0.8346  0.0356 -1.1544
  502SOL     OW 1504   2.532   0.960   1.780 -0.2821 -0.3355  0.3619
  502SOL    HW1 1505   2.573   0.973   1.682  0.4760 -1.7526 -4.1950
  502SOL    HW2 1506   2.519   0.863   1.807  3.0178  1.0183  1.1039
  503SOL     OW 1507   1.189   0.139   0.685  0.5313 -0.3473  0.1944
  503SOL    HW1 1508   1.140   0.223   0.656 -3.2686 -0.5139  1.2743
  503SOL    HW2 1509   1.285   0.164   0.719  0.1790 -1.6083 -1.7423
  504SOL     OW 1510   2.962   2.382   1.485 -0.1757  0.0775  0.6971
  504SOL    HW1 1511   2.867   2.408   1.528  0.3388  3.1504  1.6160
  504SOL    HW2 1512   3.024   2.328   1.547 -2.4611 -0.9660 -1.0610
  505SOL     OW 1513   2.339   1.165   1.524  0.0197  0.2967 -0.6101
  505SOL    HW1 1514   2.325   1.181   1.425 -1.1734 -1.7975  0.3306
  505SOL    HW2 1515   2.371   1.248   1.571 -0.4909 -2.9638  0.9566
  506SOL     OW 1516   1.938   0.249   1.895 -0.7366 -0.7172  0.3932
  506SOL    HW1 1517   2.030   0.203   1.889 -1.1202 -1.3003  0.7270
  506SOL    HW2 1518   1.946   0.355   1.906  1.6952  3.1555  1.5264
  507SOL     OW 1519   0.505   0.768   2.174 -0.5813 -0.3815 -0.4656
  507SOL    HW1 1520   0.436   0.697   2.141  0.6742  1.9612 -1.3497
  507SOL    HW2 1521   0.587   0.727   2.226  1.8888  0.1326  0.9766
  508SOL     OW 1522   0.321   1.629   0.819  0.0502  0.3214 -0.7637
  508SOL    HW1 1523   0.423   1.643   0.809 -0.0870 -1.1252 -1.4955
  508SOL    HW2 1524   0.289   1.681   0.898 -1.8877 -1.6477 -0.7702
  509SOL     OW 1525   1.275   1.182   2.436  0.5918 -0.0724  0.3851
  509SOL    HW1 1526   1.308   1.137   2.350 -3.4908  2.4540 -1.4687
  509SOL    HW2 1527   1.175   1.185   2.435  1.3701 -2.3574  0.6756
  510SOL     OW 1528   1.399   2.041   2.160  0.8516  0.2773  0.9406
  510SOL    HW1 1529   1.333   2.111   2.130  0.1373 -1.7079 -1.9142
  510SOL    HW2 1530   1.371   1.943   2.129 -1.0840 -0.1943  2.3279
  511SOL     OW 1531   2.993   2.639   1.395  0.4371  0.1604 -0.3044
  511SOL    HW1 1532   2.921   2.661   1.323  1.1970  2.1428 -2.1214
  511SOL    HW2 1533   2.984   2.540   1.426  0.4137 -0.9177 -0.6203
  512SOL     OW 1534   2.387   0.432   1.378 -0.0564  0.2844 -0.2385
  512SOL    HW1 1535   2.301   0.459   1.326  0.8974 -2.5541 -0.7946
  512SOL    HW2 1536   2.460   0.390   1.318 -2.8099 -1.1255 -2.1094
  513SOL     OW 1537   2.591   2.163   0.965 -0.1985 -0.5014 -0.6167
  513SOL    HW1 1538   2.520   2.221   0.907 -1.9582 -0.4500 -0.1588
  513SOL    HW2 1539   2.648   2.101   0.905  1.0414  1.6362 -0.9601
  514SOL     OW 1540   0.574   2.799   0.424 -0.2466 -0.0868  0.5652
  514SOL    HW1 1541   0.608   2.825   0.328 -1.7213 -1.6643  1.0907
  514SOL    HW2 1542   0.615   2.848   0.508 -0.1445 -0.3507  3.0897
  515SOL     OW 1543   1.949   1.348   2.381 -0.3017 -0.0737  1.0966
  515SOL    HW1 1544   1.931   1.327   2.279 -0.0279  0.0523  0.6987
  515SOL    HW2 1545   1.872   1.312   2.444 -0.9966  0.9808 -0.2562
  516SOL     OW 1546   0.213   0.153   1.923  0.4144 -0.2093  0.1688
  516SOL    HW1 1547   0.309   0.183   1.896 -0.2530 -0.4094 -1.6323
  516SOL    HW2 1548   0.182   0.070   1.864  0.4928 -2.5720 -0.9016
  517SOL     OW 1549   0.475   0.245   1.126  0.4585  0.6674 -1.1163
  517SOL    HW1 1550   0.548   0.203   1.191 -1.5103 -0.7030  1.7330
  517SOL    HW2 1551   0.383   0.192   1.137 -1.0060 -1.9082 -0.8524
  518SOL     OW 1552   2.242   3.051   1.862 -0.3920  0.5043  0.6833
  518SOL    HW1 1553   2.244   3.155   1.872 -0.1748 -0.5446 -1.6833
  518SOL    HW2 1554   2.246   3.031   1.757 -0.8582 -2.8030  0.1695
  519SOL     OW 1555   2.385   2.246   2.529  0.0141 -0.4189  0.1835
  519SOL    HW1 1556   2.310   2.220   2.600 -3.6882  2.1881 -0.9671
  519SOL    HW2 1557   2.450   2.318   2.568 -1.1611  0.1644 -0.7302
  520SOL     OW 1558   1.790   2.634   1.715 -0.8693  0.2186 -0.3367
  520SOL    HW1 1559   1.742   2.617   1.805  1.5971 -0.5537 -2.1849
  520SOL    HW2 1560   1.875   2.572   1.698  0.0896 -1.4786 -0.6372
  521SOL     OW 1561   0.611   0.093   2.159  0.5685 -0.5153 -0.2486
  521SOL    HW1 1562   0.520   0.042   2.147  2.1928  1.1734  0.6307
  521SOL    HW2 1563   0.649   0.068   2.254  1.2358  1.7762  0.9907
  522SOL     OW 1564   0.199   1.886   1.546 -0.2937  0.9579  0.1617
  522SOL    HW1 1565   0.253   1.951   1.611  1.1801  1.6470 -0.1162
  522SOL    HW2 1566   0.160   1.936   1.462  0.4972 -3.3469 -2.6734
  523SOL     OW 1567   2.214   2.998   1.585 -0.1893 -0.4509 -0.1344
  523SOL    HW1 1568   2.290   2.940   1.577  0.4503  3.5411  0.0008
  523SOL    HW2 1569   2.124   2.957   1.550 -0.6884  0.3292 -1.2074
  524SOL     OW 1570   0.207   2.750   2.801 -0.2753 -0.4353  0.0977
  524SOL    HW1 1571   0.177   2.774   2.903 -0.1287 -0.9940  1.4008
  524SOL    HW2 1572   0.302   2.772   2.778  0.8834 -1.6211  0.9785
  525SOL     OW 1573   2.149   2.148   0.499 -0.2129 -0.6150 -0.1524
  525SOL    HW1 1574   2.123   2.093   0.586 -2.5115  0.0508 -0.6017
  525SOL    HW2 1575   2.199   2.096   0.429 -0.7400  1.5104  2.1386
  526SOL     OW 1576   0.421   1.482   1.673 -0.3949  0.1932 -0.0426
  526SOL    HW1 1577   0.467   1.562   1.715 -0.2667 -0.4157 -0.7455
  526SOL    HW2 1578   0.439   1.391   1.725 -1.0873 -1.3643  0.5330
  527SOL     OW 1579   1.139   3.072   1.129  0.0863  0.0032 -0.7059
  527SOL    HW1 1580   1.169   3.012   1.204  1.6660  1.3641 -2.1076
  527SOL    HW2 1581   1.219   3.135   1.108  2.2883 -1.3584  1.1333
  528SOL     OW 1582   1.315   2.425   0.628 -0.3582 -0.1050  0.0458
  528SOL    HW1 1583   1.339   2.328   0.641 -1.4061  2.7874  0.0648
  528SOL    HW2 1584   1.351   2.493   0.703  2.0044  3.5800  0.9262
  529SOL     OW 1585   1.886   1.681   0.807 -0.4518  0.4039 -0.1469
  529SOL    HW1 1586   1.813   1.696   0.737 -0.1924  0.9408  3.2260
  529SOL    HW2 1587   1.915   1.771   0.854 -0.4254  0.3626 -0.9201
  530SOL     OW 1588   0.481   2.557   0.153 -0.1100 -0.3568 -0.8521
  530SOL    HW1 1589   0.477   2.520   0.251 -0.9031 -2.0789 -0.9711
  530SOL    HW2 1590   0.484   2.483   0.082 -1.3734  0.9854  1.1523
  531SOL     OW 1591   1.784   0.958   1.031  0.5413  0.4118  0.0953
  531SOL    HW1 1592   1.816   0.979   0.936  0.8185 -1.1831 -0.6940
  531SOL    HW2 1593   1.683   0.941   1.040  1.7078 -0.6591  3.2142
  532SOL     OW 1594   0.385   1.135   0.691  0.4336  0.7413 -0.2478
  532SOL    HW1 1595   0.402   1.107   0.597  0.3591  1.0271  1.3972
  532SOL    HW2 1596   0.332   1.060   0.745 -0.8498 -1.1747 -2.2978
  533SOL     OW 1597   1.835   3.081   2.661 -0.4438  0.3606 -0.0890
  533SOL    HW1 1598   1.941   3.084   2.673  1.1174 -1.7804  0.8053
  533SOL    HW2 1599   1.789   3.174   2.665 -3.7423 -0.7158  0.0030
  534SOL     OW 1600   0.191   0.189   1.567 -0.3671 -0.3961 -0.1386
  534SOL    HW1 1601   0.248   0.282   1.564  1.2569  1.4611  0.9037
  534SOL    HW2 1602   0.086   0.202   1.587 -4.2239  0.9057 -0.4609
  535SOL     OW 1603   1.883   0.402   0.167  0.0066 -0.5561  0.9026
  535SOL    HW1 1604   1.910   0.491   0.217 -1.0865  2.3913  0.5818
  535SOL    HW2 1605   1.842   0.346   0.233  2.4780  2.2431 -2.4592
  536SOL     OW 1606   1.218   2.496   0.922  0.2379 -0.3200 -0.2701
  536SOL    HW1 1607   1.290   2.421   0.898  1.2730  0.8935 -2.3179
  536SOL    HW2 1608   1.161   2.523   0.842  0.3165  0.6344  1.2937
  537SOL     OW 1609   0.910   0.198   2.313  0.1537  0.0158 -0.2206
  537SOL    HW1 1610   0.841   0.186   2.237  0.6614 -1.7929  0.3205
  537SOL    HW2 1611   0.994   0.143   2.297 -1.1904  3.3284  1.9122
  538SOL     OW 1612   1.749   2.209   1.606 -0.1057  0.3163  0.0236
  538SOL    HW1 1613   1.698   2.148   1.537 -1.6392 -2.8161  2.8078
  538SOL    HW2 1614   1.791   2.287   1.559 -0.3327 -1.6231  1.0751
  539SOL     OW 1615   0.173   1.565   2.774 -0.3659 -0.2595  0.3398
  539SOL    HW1 1616   0.089   1.545   2.703 -2.8093 -2.3813 -1.1436
  539SOL    HW2 1617   0.260   1.594   2.723  0.4939  0.0618 -1.0079
  540SOL     OW 1618   2.701   1.793   2.122 -0.7823 -0.2664  0.1520
  540SOL    HW1 1619   2.625   1.722   2.129  1.4272 -1.7325  2.0961
  540SOL    HW2 1620   2.673   1.875   2.060  0.6267  1.5272  2.6623
  541SOL     OW 1621   0.451   2.325   0.018 -0.3971 -0.0791  0.7488
  541SOL    HW1 1622   0.491   2.254   0.085 -0.3536 -2.2405 -1.3021
  541SOL    HW2 1623   0.359   2.297  -0.034 -1.1419 -0.5663 -1.0198
  542SOL     OW 1624   2.186   2.591   0.485 -0.5322 -0.1748 -0.1581
  542SOL    HW1 1625   2.194   2.661   0.407 -2.2234  0.2794  0.5955
  542SOL    HW2 1626   2.102   2.525   0.468 -1.8085 -3.1533  0.0924
  543SOL     OW 1627   1.103   1.703   1.793  0.2150  0.3832 -0.4055
  543SOL    HW1 1628   1.132   1.760   1.875 -0.0676  0.3778 -2.0994
  543SOL    HW2 1629   1.046   1.757   1.723 -0.7373  2.8830 -3.2767
  544SOL     OW 1630   0.849   0.494   0.103 -0.4976 -0.0238  0.0887
  544SOL    HW1 1631   0.896   0.463   0.189  0.6108 -1.9619  0.7149
  544SOL    HW2 1632   0.885   0.439   0.021 -1.2105  0.9384 -0.5465
  545SOL     OW 1633   1.150   1.733   0.622 -0.5342 -0.6610  0.1936
  545SOL    HW1 1634   1.237   1.698   0.671  0.2912 -1.9309 -2.1222
  545SOL    HW2 1635   1.165   1.752   0.518 -1.1963  2.1656 -1.1644
  546SOL     OW 1636   2.668   1.612   0.035  0.6625 -0.2177  0.1138
  546SOL    HW1 1637   2.706   1.615  -0.068  0.5055  1.0820 -4.5588
  546SOL    HW2 1638   2.571   1.571   0.052  1.1478 -2.5155 -0.3026
  547SOL     OW 1639   0.460   3.044   2.727  0.3901  0.1244 -0.5926
  547SOL    HW1 1640   0.487   2.971   2.657  0.1163 -2.4884  1.4782
  547SOL    HW2 1641   0.462   3.004   2.825 -1.7374 -3.3083  2.6746
  548SOL     OW 1642   2.072   0.779   2.973 -0.2261 -0.3919 -0.2919
  548SOL    HW1 1643   1.976   0.765   2.997  3.7908 -0.7879 -4.0137
  548SOL    HW2 1644   2.085   0.882   2.980  0.3414 -0.0622  1.7166
  549SOL     OW 1645   0.575   0.468   0.060  0.0913 -0.0671  0.1465
  549SOL    HW1 1646   0.563   0.554  -0.002 -0.5609 -0.0548 -1.0639
  549SOL    HW2 1647   0.676   0.461   0.098  0.4614 -2.0691  0.7816
  550SOL     OW 1648   2.532   2.897   2.949 -0.5275  0.2545 -0.6216
  550SOL    HW1 1649   2.504   2.810   2.998  1.2464  2.1442  0.6801
  550SOL    HW2 1650   2.513   2.891   2.847 -1.0646  0.9012 -0.1093
  551SOL     OW 1651   0.279   0.807   0.231 -0.4147  0.8875  0.0424
  551SOL    HW1 1652   0.370   0.763   0.223  0.1275 -0.9456 -2.7252
  551SOL    HW2 1653   0.240   0.808   0.328  1.2727  0.4313 -0.2444
  552SOL     OW 1654   0.856   2.816   1.903 -0.0514  0.3050  0.0043
  552SOL    HW1 1655   0.815   2.814   1.997 -0.7987  1.0113 -3.8103
  552SOL    HW2 1656   0.904   2.909   1.880  0.8747  1.5086  1.9656
  553SOL     OW 1657   0.005   2.556   0.345 -0.3022 -0.3365  0.4786
  553SOL    HW1 1658  -0.054   2.474   0.357 -1.6871  3.0786  1.3728
  553SOL    HW2 1659   0.047   2.583   0.437 -2.0799  1.7227  0.5918
  554SOL     OW 1660   2.108   0.341   0.498  0.0546  0.2493  0.0439
  554SOL    HW1 1661   2.084   0.300   0.410 -0.0259 -1.4588  2.6399
  554SOL    HW2 1662   2.104   0.264   0.573  0.2219 -1.1729  1.1234
  555SOL     OW 1663   0.517   2.856   2.549  0.3403  0.5831 -0.0800
  555SOL    HW1 1664   0.439   2.873   2.478  1.2234  0.7482 -0.4483
  555SOL    HW2 1665   0.607   2.833   2.511 -2.4142 -2.1855 -0.0233
  556SOL     OW 1666   0.982   2.347   1.614  0.3297  0.5590  0.2885
  556SOL    HW1 1667   0.995   2.412   1.691 -1.6100 -0.4819 -1.4077
  556SOL    HW2 1668   1.019   2.376   1.520 -0.8810 -0.3516 -0.5350
  557SOL     OW 1669   0.122   2.114   0.073 -0.4717 -0.0806  0.2077
  557SOL    HW1 1670   0.041   2.046   0.056 -1.4210  0.6578 -0.1450
  557SOL    HW2 1671   0.151   2.175  -0.006  2.1093  2.0953  1.1915
  558SOL     OW 1672   2.985   2.310   0.282  0.5259  0.2550 -0.2314
  558SOL    HW1 1673   2.906   2.239   0.263  2.0585  0.0339  1.2910
  558SOL    HW2 1674   3.028   2.355   0.198  2.1047  0.3715  1.0618
  559SOL     OW 1675   0.440   2.262   1.350 -0.0635 -0.0950  0.2778
  559SOL    HW1 1676   0.361   2.299   1.293  0.6549  0.1298  1.5649
  559SOL    HW2 1677   0.478   2.174   1.314  0.3722  0.6627  1.2430
  560SOL     OW 1678   2.097   1.042   3.031 -0.1583  0.3121 -0.7079
  560SOL    HW1 1679   2.088   1.110   2.953 -1.4604 -0.8735  0.9580
  560SOL    HW2 1680   2.062   1.086   3.119 -1.4161  1.9007 -1.7023
  561SOL     OW 1681   3.000   1.961   0.048  0.4419  0.5911  0.7662
  561SOL    HW1 1682   2.984   1.863   0.024  1.2530 -0.6051  0.3978
  561SOL    HW2 1683   2.940   2.027  -0.008  0.0093 -0.1996  0.0739
  562SOL     OW 1684   0.859   2.107   2.463 -0.6105  0.2013  0.0415
  562SOL    HW1 1685   0.760   2.079   2.449  2.1055 -0.5412  2.4305
  562SOL    HW2 1686   0.883   2.186   2.532  2.2623  0.9552  1.0649
  563SOL     OW 1687   0.696   2.566   2.545 -0.3552  0.6810  0.2307
  563SOL    HW1 1688   0.629   2.484   2.545 -0.2770 -0.4800 -1.2949
  563SOL    HW2 1689   0.738   2.574   2.644  1.3831  2.6893 -0.3348
  564SOL     OW 1690   2.764   1.342   2.930 -0.4071  0.0710  0.4904
  564SOL    HW1 1691   2.672   1.309   2.958  1.8110  0.5386 -1.2920
  564SOL    HW2 1692   2.783   1.437   2.959  0.6245 -0.0530 -2.1756
  565SOL     OW 1693   2.573   2.038   2.596 -0.1808  0.4892  0.2778
  565SOL    HW1 1694   2.515   2.105   2.550  0.6501 -2.1841 -3.9473
  565SOL    HW2 1695   2.629   2.080   2.675  0.7238 -0.2578 -0.6337
  566SOL     OW 1696   2.022   2.804   1.462  0.0769  0.3575  0.0781
  566SOL    HW1 1697   2.062   2.726   1.518  0.5300 -1.6583 -0.2345
  566SOL    HW2 1698   2.058   2.803   1.359  0.4763  3.6176 -1.6017
  567SOL     OW 1699   2.395   0.065   2.225 -0.2628  0.3967 -0.5716
  567SOL    HW1 1700   2.421   0.063   2.124  2.8829 -1.8172 -0.4661
  567SOL    HW2 1701   2.293   0.052   2.248 -0.3337  4.1836  1.6120
  568SOL     OW 1702   1.388   1.800   0.428  0.3894  0.0927  1.1733
  568SOL    HW1 1703   1.356   1.868   0.348 -1.4890  3.1115 -1.3204
  568SOL    HW2 1704   1.379   1.847   0.517 -0.8555 -2.4791  0.0848
  569SOL     OW 1705   0.288   0.690   0.771 -0.6905  0.4410 -0.3703
  569SOL    HW1 1706   0.352   0.631   0.713 -2.4765  0.5365 -0.7812
  569SOL    HW2 1707   0.196   0.675   0.736  3.8540 -3.3917  0.3473
  570SOL     OW 1708   0.585   0.873   2.809 -0.1322  0.6105 -0.0378
  570SOL    HW1 1709   0.658   0.850   2.736 -1.5981  0.2164 -1.7251
  570SOL    HW2 1710   0.578   0.973   2.828 -0.8785 -1.9604  2.4684
  571SOL     OW 1711   0.867   3.084   1.181 -0.3275 -0.2316  0.3287
  571SOL    HW1 1712   0.850   3.152   1.103 -0.4506 -1.2446 -1.5347
  571SOL    HW2 1713   0.967   3.063   1.185 -1.3999  0.6725  0.4739
  572SOL     OW 1714   1.481   2.554   1.181  0.0342  0.4721 -0.2910
  572SOL    HW1 1715   1.427   2.469   1.193  1.6186  3.6321  1.4264
  572SOL    HW2 1716   1.424   2.622   1.135  0.8404  0.8451  3.4403
  573SOL     OW 1717   2.939   0.471   2.083 -0.3804  0.0905 -0.2189
  573SOL    HW1 1718   2.893   0.379   2.106  4.7837 -0.2017  1.0054
  573SOL    HW2 1719   2.886   0.528   2.009 -3.9613  0.0720 -1.6702
  574SOL     OW 1720   0.256   1.801   1.027  0.4633 -0.8056 -0.0690
  574SOL    HW1 1721   0.264   1.897   0.994  1.3206 -2.4362  1.1721
  574SOL    HW2 1722   0.172   1.791   1.086 -1.1749  0.5695 -2.3629
  575SOL     OW 1723   0.974   2.188   1.025 -0.0573 -0.0521  0.0643
  575SOL    HW1 1724   0.931   2.250   1.096  2.6992  0.2053 -0.5387
  575SOL    HW2 1725   1.069   2.151   1.048  2.5163  0.1968 -2.1724
  576SOL     OW 1726   2.856   2.891   1.741  0.1482  0.5878 -0.0790
  576SOL    HW1 1727   2.810   2.826   1.665 -0.7501 -1.9862 -2.2129
  576SOL    HW2 1728   2.789   2.921   1.813  0.6108 -0.9922  1.1154
  577SOL     OW 1729   2.536   1.253   3.065  0.0124  0.0211 -0.3678
  577SOL    HW1 1730   2.525   1.155   3.025 -1.2145 -1.1622 -1.3254
  577SOL    HW2 1731   2.585   1.246   3.153 -1.5191  1.0459 -1.7428
  578SOL     OW 1732   1.293   2.786   2.533  0.6102 -0.0718  0.6702
  578SOL    HW1 1733   1.246   2.747   2.444 -1.3948 -1.9281 -2.2700
  578SOL    HW2 1734   1.283   2.889   2.543 -0.1523  1.0796  0.7226
  579SOL     OW 1735   0.159   2.583   0.100 -0.3860  0.1940 -0.1480
  579SOL    HW1 1736   0.117   2.582   0.199 -0.4770 -1.1585  0.5003
  579SOL    HW2 1737   0.246   2.533   0.100 -0.2332  0.6778  1.5704
  580SOL     OW 1738   0.934   2.668   0.394 -0.1927  0.1303 -0.2672
  580SOL    HW1 1739   1.016   2.679   0.328 -0.6194  0.7979 -1.0657
  580SOL    HW2 1740   0.881   2.589   0.366  1.7944  1.6847 -1.4051
  581SOL     OW 1741   1.235   2.479   1.462 -0.2925 -0.0194 -0.5876
  581SOL    HW1 1742   1.293   2.397   1.431  1.0817 -1.7002 -2.4940
  581SOL    HW2 1743   1.254   2.572   1.418 -2.3177  1.4912  3.4405
  582SOL     OW 1744   1.528   0.054   1.872  0.0690  0.3127 -0.3332
  582SOL    HW1 1745   1.548   0.143   1.932 -0.3049  2.4278  3.8705
  582SOL    HW2 1746   1.607   0.043   1.803 -1.8434  2.1007 -0.5475
  583SOL     OW 1747   2.339   2.955   0.530  0.2199  0.3546  0.4068
  583SOL    HW1 1748   2.414   2.906   0.479  1.1213  1.9266 -1.6348
  583SOL    HW2 1749   2.298   2.899   0.606  0.5543  1.9609  2.9246
  584SOL     OW 1750   1.523   0.961   2.077  0.2156  0.0600 -0.4164
  584SOL    HW1 1751   1.599   1.006   2.026 -2.0058 -2.0807  0.7003
  584SOL    HW2 1752   1.558   0.918   2.162 -1.2915  2.3328 -1.6380
  585SOL     OW 1753   2.095   2.741   2.857 -0.4593 -0.3681  0.1730
  585SOL    HW1 1754   2.111   2.641   2.855 -0.4237  1.8878 -1.9816
  585SOL    HW2 1755   1.998   2.762   2.851  1.9195  0.5658 -2.3889
  586SOL     OW 1756   2.773   0.270   1.543  0.9795  0.3108  0.3825
  586SOL    HW1 1757   2.784   0.357   1.600  1.6914 -0.9080  0.5507
  586SOL    HW2 1758   2.689   0.211   1.567  5.0790 -3.4879 -2.4355
  587SOL     OW 1759   2.053   1.607   2.706  0.3485 -0.3392  0.0495
  587SOL    HW1 1760   2.101   1.543   2.638 -2.8869 -0.4726 -0.9086
  587SOL    HW2 1761   2.093   1.608   2.802 -2.4772  3.9766  3.2590
  588SOL     OW 1762   0.508   2.714   2.238 -0.1022 -0.0991  0.0812
  588SOL    HW1 1763   0.440   2.765   2.179  1.0629 -2.0802  1.4210
  588SOL    HW2 1764   0.466   2.653   2.307  1.2215 -0.2411 -2.3596
  589SOL     OW 1765   2.166   1.450   2.520  0.2550  0.2632 -0.0765
  589SOL    HW1 1766   2.081   1.401   2.478 -2.3924  1.8190  2.8318
  589SOL    HW2 1767   2.241   1.384   2.543  0.2904  1.9980  1.1245
  590SOL     OW 1768   2.330   1.759   2.027 -0.6191 -0.3006 -0.2944
  590SOL    HW1 1769   2.399   1.683   2.012  3.0917  1.5884  1.4078
  590SOL    HW2 1770   2.342   1.803   2.117 -1.8914  1.2788 -2.6085
  591SOL     OW 1771   1.337   2.441   0.344 -0.0780 -0.0172 -0.4255
  591SOL    HW1 1772   1.417   2.395   0.296 -0.6357 -0.1560  3.1572
  591SOL    HW2 1773   1.322   2.414   0.440  1.2261  2.6579 -0.2375
  592SOL     OW 1774   1.741   2.341   0.775 -0.7775  0.1101 -0.2316
  592SOL    HW1 1775   1.735   2.419   0.715 -0.4084 -0.3304  1.3208
  592SOL    HW2 1776   1.840   2.305   0.788 -0.4543 -0.2216 -1.2884
  593SOL     OW 1777   0.543   0.249   2.988  0.1429  0.3907 -0.0559
  593SOL    HW1 1778   0.644   0.228   3.003  0.5960  1.0189  1.7492
  593SOL    HW2 1779   0.520   0.331   3.050  1.8790  1.3340  4.5847
  594SOL     OW 1780   0.968   1.875   2.768 -0.5350 -0.2435 -0.4633
  594SOL    HW1 1781   1.061   1.901   2.804 -1.4148  1.1510 -3.9113
  594SOL    HW2 1782   0.902   1.947   2.800  0.1566  0.5344  1.2455
  595SOL     OW 1783   1.545   3.076   1.040 -0.1167  0.0609  0.2101
  595SOL    HW1 1784   1.600   3.005   1.094 -0.4729  0.6353  1.3865
  595SOL    HW2 1785   1.529   3.042   0.944 -2.3047 -2.2769  1.2424
  596SOL     OW 1786   3.063   1.484   2.231  0.3133  0.2529  0.1883
  596SOL    HW1 1787   2.973   1.545   2.242 -2.7312 -1.5281 -4.3288
  596SOL    HW2 1788   3.117   1.459   2.314  2.0901  1.4418 -1.6529
  597SOL     OW 1789   2.089   2.557   1.631 -0.2103  0.2109 -0.0088
  597SOL    HW1 1790   2.117   2.467   1.576 -0.1027 -2.3201 -3.0932
  597SOL    HW2 1791   2.171   2.592   1.691  0.2777  2.9226  0.4403
  598SOL     OW 1792   2.578   2.848   1.257  0.7867  0.1381 -0.5699
  598SOL    HW1 1793   2.644   2.913   1.299 -0.2904 -0.2202  0.9263
  598SOL    HW2 1794   2.588   2.845   1.157  1.5215  1.8136  0.9054
  599SOL     OW 1795   2.938   0.369   2.450 -0.1065 -0.1253 -0.5712
  599SOL    HW1 1796   3.013   0.400   2.387  0.3073  1.0108 -0.2995
  599SOL    HW2 1797   2.841   0.398   2.422  0.6380  0.4198 -2.4438
  600SOL     OW 1798   2.810   1.117   2.741 -0.7185 -0.7157  0.1930
  600SOL    HW1 1799   2.774   1.035   2.795  2.5757  0.8689  2.3940
  600SOL    HW2 1800   2.782   1.210   2.781 -4.6781  2.2682 -1.1742
  601SOL     OW 1801   2.961   1.286   2.030 -0.0177 -0.1702  0.1363
  601SOL    HW1 1802   2.880   1.312   1.976  0.9189 -1.6303  3.5280
  601SOL    HW2 1803   3.006   1.354   2.090 -2.4508  0.0377  0.9299
  602SOL     OW 1804   1.516   1.620   2.280  0.8434  0.3078 -0.0618
  602SOL    HW1 1805   1.437   1.561   2.310  2.2564  1.7711  3.3727
  602SOL    HW2 1806   1.595   1.605   2.346 -3.3849 -1.1008  0.5282
  603SOL     OW 1807   0.723   1.254   2.601 -0.0602 -0.2281 -0.4012
  603SOL    HW1 1808   0.629   1.212   2.578  0.9046 -2.3479 -2.0153
  603SOL    HW2 1809   0.795   1.176   2.630  1.0899 -1.8028  1.9619
  604SOL     OW 1810   2.397   1.057   0.211 -0.3793 -0.2647  0.0430
  604SOL    HW1 1811   2.478   1.115   0.178 -0.6321 -1.3232 -0.9002
  604SOL    HW2 1812   2.387   0.969   0.161 -2.9067  1.9457  0.2232
  605SOL     OW 1813   2.574   1.123   2.003  0.3541 -0.6591 -0.1312
  605SOL    HW1 1814   2.574   1.038   1.939  2.1157 -2.4912 -0.1506
  605SOL    HW2 1815   2.608   1.102   2.097 -1.7625 -2.7480 -0.8109
  606SOL     OW 1816   1.484   2.540   2.556 -0.4264 -0.1853 -0.1657
  606SOL    HW1 1817   1.391   2.574   2.534 -1.7538  2.4777  1.1571
  606SOL    HW2 1818   1.502   2.440   2.525  0.7349 -0.6617 -1.0776
  607SOL     OW 1819   1.312   1.535   0.398 -0.1034 -0.7014  0.1095
  607SOL    HW1 1820   1.268   1.497   0.487 -1.1207 -0.5351  0.8843
  607SOL    HW2 1821   1.352   1.630   0.413 -1.1217  0.6628 -4.3912
  608SOL     OW 1822   1.388   2.876   0.365  0.1378 -0.4362  0.4144
  608SOL    HW1 1823   1.434   2.951   0.308 -2.0413  2.2339 -1.8529
  608SOL    HW2 1824   1.327   2.912   0.440  0.2669 -1.9052  2.5603
  609SOL     OW 1825   1.357   1.360   0.226  0.1151  0.4114  0.7122
  609SOL    HW1 1826   1.352   1.437   0.299 -0.1929  2.4263  1.8304
  609SOL    HW2 1827   1.261   1.357   0.178 -0.1130 -1.5153 -0.4051
  610SOL     OW 1828   2.985   1.130   2.266  0.0140  0.3666 -0.2143
  610SOL    HW1 1829   2.925   1.045   2.249 -1.8001  0.1078 -0.0026
  610SOL    HW2 1830   2.990   1.197   2.189  2.7363 -0.0607 -1.2539
  611SOL     OW 1831   2.592   0.299   1.192  0.1811  0.2358  0.7408
  611SOL    HW1 1832   2.579   0.215   1.132  0.9664 -0.8004 -1.6524
  611SOL    HW2 1833   2.692   0.323   1.194  0.2503 -2.3312  1.4754
  612SOL     OW 1834   0.730   2.226   1.281  0.3076 -0.8106 -0.1697
  612SOL    HW1 1835   0.673   2.143   1.260  0.0538 -0.5718 -0.9558
  612SOL    HW2 1836   0.696   2.309   1.219 -2.1847  1.2213 -1.2844
  613SOL     OW 1837   0.966   1.511   2.340  0.1629 -0.5038  0.0536
  613SOL    HW1 1838   0.982   1.563   2.249 -1.7116 -1.7567 -0.2348
  613SOL    HW2 1839   0.900   1.436   2.317  1.0263  0.9289  0.4575
  614SOL     OW 1840   1.608   1.511   1.733 -0.1640  0.8226 -0.2992
  614SOL    HW1 1841   1.548   1.598   1.732  0.3357  0.6557  1.7116
  614SOL    HW2 1842   1.665   1.509   1.818 -1.9536  1.1241  0.2678
  615SOL     OW 1843   0.790   1.238   1.766  0.1180 -0.2251 -0.2227
  615SOL    HW1 1844   0.710   1.190   1.704 -1.6161 -2.3877 -2.1060
  615SOL    HW2 1845   0.824   1.329   1.727 -0.0250  0.7458  1.4522
  616SOL     OW 1846   1.071   1.556   2.086 -0.0103 -0.3471 -0.2403
  616SOL    HW1 1847   1.067   1.593   1.992  0.0138  1.0569  3.1529
  616SOL    HW2 1848   1.138   1.612   2.145 -0.0969  3.7492  0.4854
  617SOL     OW 1849   3.009   1.567   1.591 -0.4076 -0.2953 -0.2577
  617SOL    HW1 1850   3.007   1.463   1.607  0.8236  0.0963  2.4409
  617SOL    HW2 1851   3.033   1.590   1.492  1.6195 -0.9439  1.4759
  618SOL     OW 1852   1.872   1.940   1.404  0.2141  0.1295  0.2874
  618SOL    HW1 1853   1.887   2.026   1.340  1.3814  0.7785 -0.7309
  618SOL    HW2 1854   1.849   1.857   1.351 -0.5306  3.5372  1.0792
  619SOL     OW 1855   1.714   0.442   2.349  0.2176 -0.4311 -0.5994
  619SOL    HW1 1856   1.635   0.488   2.313 -1.9378 -1.6688  1.5557
  619SOL    HW2 1857   1.696   0.339   2.363 -0.6795 -0.5152  0.6977
  620SOL     OW 1858   2.257   2.815   0.774 -0.2072 -0.1222  0.1995
  620SOL    HW1 1859   2.153   2.825   0.780 -1.3440  1.8850  1.1025
  620SOL    HW2 1860   2.294   2.745   0.835 -0.5436  0.2709 -0.9119
  621SOL     OW 1861   2.198   1.915   1.265  0.1651 -0.5232  0.3697
  621SOL    HW1 1862   2.182   1.907   1.370  0.5482  2.6594  1.2327
  621SOL    HW2 1863   2.182   1.819   1.226  3.6000 -3.1234  3.1325
  622SOL     OW 1864   2.230   0.892   1.873 -0.2956  0.4810  0.3465
  622SOL    HW1 1865   2.323   0.882   1.824  4.7760 -0.9677  2.9318
  622SOL    HW2 1866   2.221   0.820   1.944 -0.8075  0.7347 -1.7597
  623SOL     OW 1867   1.283   0.856   2.539 -0.3049 -0.2168 -0.0057
  623SOL    HW1 1868   1.228   0.772   2.577  0.5664 -3.6680  1.0303
  623SOL    HW2 1869   1.249   0.884   2.445 -0.3437  0.5891 -3.1640
  624SOL     OW 1870   0.510   0.691   3.023 -0.4954 -0.5115  0.9374
  624SOL    HW1 1871   0.549   0.738   2.937  0.0802 -2.3505 -1.5085
  624SOL    HW2 1872   0.549   0.740   3.107  1.5461  1.1621 -1.1136
  625SOL     OW 1873   2.716   1.690   0.992  0.1848  0.0967 -0.2201
  625SOL    HW1 1874   2.630   1.747   0.978 -0.5390 -3.0422 -1.1539
  625SOL    HW2 1875   2.802   1.744   0.980 -1.3348  0.0891 -1.8999
  626SOL     OW 1876   0.641   2.672   1.793 -0.0255 -0.3346 -0.0701
  626SOL    HW1 1877   0.709   2.736   1.836 -1.8155 -1.0797  0.4630
  626SOL    HW2 1878   0.557   2.661   1.844  2.0409 -1.3507 -2.6025
  627SOL     OW 1879   0.654   0.832   1.672 -0.2155  0.0685  0.1028
  627SOL    HW1 1880   0.559   0.801   1.642 -0.0601  1.0912  3.2269
  627SOL    HW2 1881   0.699   0.907   1.609  0.6573 -0.1998 -0.1113
  628SOL     OW 1882   2.404   0.027   0.738 -0.2705  0.3336  0.2933
  628SOL    HW1 1883   2.383  -0.040   0.653 -0.0722 -0.4564 -0.5810
  628SOL    HW2 1884   2.316   0.065   0.774 -2.3604 -2.1937  1.6897
  629SOL     OW 1885   1.846   0.962   1.946  0.0726 -0.2354  0.0991
  629SOL    HW1 1886   1.847   1.034   1.873 -2.0087 -0.1478 -1.0732
  629SOL    HW2 1887   1.904   0.981   2.027 -0.1013 -0.2865  0.9058
  630SOL     OW 1888   2.916   2.215   0.800 -0.0027 -0.4940 -0.3606
  630SOL    HW1 1889   2.861   2.300   0.820  1.3057  2.3825 -5.0149
  630SOL    HW2 1890   2.861   2.143   0.744  0.7962 -2.7917 -1.3136
  631SOL     OW 1891   3.084   0.095   2.056 -0.2778 -0.1427 -0.3284
  631SOL    HW1 1892   3.185   0.115   2.040 -2.2649  0.6719  2.1376
  631SOL    HW2 1893   3.035   0.071   1.964 -1.8652 -0.5384 -0.1639
  632SOL     OW 1894   2.455   2.584   0.641  1.0003  0.1699 -0.0861
  632SOL    HW1 1895   2.505   2.667   0.675 -0.1489 -0.1700 -0.6404
  632SOL    HW2 1896   2.359   2.606   0.596 -1.2368 -1.2341  0.6984
  633SOL     OW 1897   1.434   1.243   2.634 -0.0903 -0.2044  0.4266
  633SOL    HW1 1898   1.418   1.341   2.649  0.3525 -0.6653 -1.0576
  633SOL    HW2 1899   1.367   1.206   2.558 -2.8190  0.2838  1.1118
  634SOL     OW 1900   0.715   2.198   0.873  0.1027 -0.0792  0.0120
  634SOL    HW1 1901   0.642   2.154   0.930 -1.0927  0.4022 -1.0450
  634SOL    HW2 1902   0.810   2.179   0.911  1.4419 -2.3135 -1.9201
  635SOL     OW 1903   3.007   2.452   0.036  0.4648 -0.5100 -0.5248
  635SOL    HW1 1904   2.919   2.494   0.004  0.9597 -0.4470 -0.6411
  635SOL    HW2 1905   3.089   2.515   0.037 -1.7111  0.1870 -0.4788
  636SOL     OW 1906   2.367   2.692   2.079  0.3116 -0.1320  0.1028
  636SOL    HW1 1907   2.324   2.783   2.107  1.7359 -1.3043 -0.2597
  636SOL    HW2 1908   2.323   2.616   2.135 -1.1970  3.4060  3.2906
  637SOL     OW 1909   2.666   0.621   1.941  0.1197  0.1057  0.1136
  637SOL    HW1 1910   2.586   0.658   1.887  0.7733 -1.0810  0.5581
  637SOL    HW2 1911   2.735   0.691   1.966 -1.5493 -3.3896  0.0441
  638SOL     OW 1912   2.456   1.875   1.316 -0.1851 -0.6163  0.4842
  638SOL    HW1 1913   2.364   1.923   1.303  1.4648  1.7797 -0.9526
  638SOL    HW2 1914   2.448   1.784   1.360 -1.7021 -0.0191 -0.6375
  639SOL     OW 1915   1.254   2.184   1.526  0.3435  0.3479  0.5093
  639SOL    HW1 1916   1.320   2.241   1.580 -3.6458  0.4328 -1.6362
  639SOL    HW2 1917   1.161   2.192   1.571 -1.5722  0.9855  0.9190
  640SOL     OW 1918   0.214   1.230   1.527 -0.3940  0.6155 -0.0448
  640SOL    HW1 1919   0.201   1.273   1.625 -2.4036  3.8175  0.9306
  640SOL    HW2 1920   0.280   1.149   1.512  1.1643 -0.5668  1.9242
  641SOL     OW 1921   1.961   0.305   1.484 -0.3826 -0.6541  0.0010
  641SOL    HW1 1922   1.875   0.322   1.534  3.1039 -1.3403 -0.2506
  641SOL    HW2 1923   2.045   0.301   1.551 -0.5723  1.9795  2.4690
  642SOL     OW 1924   2.033   3.073   0.415  0.1182  0.1715  0.0635
  642SOL    HW1 1925   2.123   3.118   0.429 -1.5861  0.7727 -0.0470
  642SOL    HW2 1926   1.963   3.098   0.483  1.4427  1.2464 -2.4507
  643SOL     OW 1927   2.953   1.931   2.085 -0.4962  0.0753  0.2260
  643SOL    HW1 1928   2.886   1.860   2.047 -0.4142 -1.8090 -0.8373
  643SOL    HW2 1929   2.938   2.027   2.042 -0.1638  1.7676 -2.0103
  644SOL     OW 1930   2.268   2.467   1.295  0.5127 -0.0760  0.0628
  644SOL    HW1 1931   2.346   2.416   1.249 -3.7431 -2.0100 -2.4926
  644SOL    HW2 1932   2.273   2.478   1.397 -1.0583 -3.3954  1.0144
  645SOL     OW 1933   0.620   0.785   1.283  0.6509 -0.3123  0.1552
  645SOL    HW1 1934   0.572   0.696   1.303  0.7082 -1.1942 -0.6204
  645SOL    HW2 1935   0.592   0.839   1.196  0.7745 -0.1420 -3.4026
  646SOL     OW 1936   1.500   1.736   2.019  0.3923  0.1971 -0.4445
  646SOL    HW1 1937   1.581   1.758   1.960 -1.4515 -0.2853 -0.4763
  646SOL    HW2 1938   1.538   1.705   2.111  0.3713  1.5669 -1.3806
  647SOL     OW 1939   0.761   1.044   0.553 -0.2371  0.5518  0.3126
  647SOL    HW1 1940   0.830   1.052   0.633 -0.0547  2.2396 -1.3139
  647SOL    HW2 1941   0.667   1.014   0.585  1.3622 -0.4808  1.8366
  648SOL     OW 1942   0.130   0.258   0.371 -0.0570 -0.7932 -0.0827
  648SOL    HW1 1943   0.057   0.185   0.366  0.1131 -1.1266  0.4363
  648SOL    HW2 1944   0.109   0.351   0.328  2.1829  3.0631  1.3357
  649SOL     OW 1945   3.010   0.270   0.973  0.5322 -0.0548 -0.3200
  649SOL    HW1 1946   3.040   0.275   0.872  0.3678 -0.6031 -1.0225
  649SOL    HW2 1947   3.090   0.252   1.036  1.5654 -1.0210  0.8476
  650SOL     OW 1948   2.770   0.679   1.422 -0.0232  0.5011  0.0265
  650SOL    HW1 1949   2.674   0.666   1.455  3.0346  0.6773 -0.7430
  650SOL    HW2 1950   2.798   0.778   1.405 -1.7090 -0.8976  2.3702
  651SOL     OW 1951   0.874   1.502   1.695  0.3918  0.4895 -0.0788
  651SOL    HW1 1952   0.850   1.571   1.770  0.4478  0.1329 -0.6642
  651SOL    HW2 1953   0.975   1.504   1.667  2.6693 -0.0478  0.4707
  652SOL     OW 1954   2.267   2.562   2.488  0.3939  0.6745  0.3598
  652SOL    HW1 1955   2.195   2.506   2.545 -0.9696 -3.9083 -1.2129
  652SOL    HW2 1956   2.235   2.656   2.467  0.3093  0.8460  1.2463
  653SOL     OW 1957   2.673   1.203   0.220  0.3135  0.7008 -0.5106
  653SOL    HW1 1958   2.709   1.299   0.245  3.1988 -0.6612 -0.4101
  653SOL    HW2 1959   2.739   1.131   0.248 -1.6962  0.2659 -0.6506
  654SOL     OW 1960   1.154   2.059   1.251  1.0326  0.0477  0.3149
  654SOL    HW1 1961   1.133   1.973   1.302 -0.5279 -1.9324 -1.9780
  654SOL    HW2 1962   1.206   2.044   1.167 -1.6732 -0.8374  2.1324
  655SOL     OW 1963   0.139   1.003   1.869 -0.1161 -0.2874  0.2874
  655SOL    HW1 1964   0.225   0.949   1.849 -0.9691 -0.1802 -2.6637
  655SOL    HW2 1965   0.150   1.104   1.854  1.6022 -1.6691 -0.4900
  656SOL     OW 1966   2.494   2.530   2.642  0.8634  0.4368 -0.0677
  656SOL    HW1 1967   2.590   2.511   2.616  0.3294  0.7834  1.3991
  656SOL    HW2 1968   2.427   2.533   2.560 -0.4943 -1.9374 -1.1719
  657SOL     OW 1969   2.963   1.036   1.927  0.7260 -0.1906  0.4766
  657SOL    HW1 1970   2.964   1.136   1.961 -2.2815  1.4503 -0.7781
  657SOL    HW2 1971   3.053   0.999   1.902  2.0941  0.8852  0.6796
  658SOL     OW 1972   1.676   0.124   2.354  0.2396  0.7288  0.0585
  658SOL    HW1 1973   1.663   0.025   2.386  0.6368 -1.7040  3.2412
  658SOL    HW2 1974   1.716   0.133   2.254 -1.2218 -0.1541 -3.5070
  659SOL     OW 1975   1.450   0.668   2.761  0.0447  0.1405  0.2856
  659SOL    HW1 1976   1.476   0.740   2.690 -2.2416 -0.6589  0.6209
  659SOL    HW2 1977   1.347   0.674   2.792 -2.2797 -1.6631 -0.9184
  660SOL     OW 1978   1.437   0.310   1.420 -0.3361  0.0737  0.1735
  660SOL    HW1 1979   1.446   0.354   1.513  1.3077 -0.6259 -2.9798
  660SOL    HW2 1980   1.517   0.244   1.401 -0.0882  0.0241  1.5110
  661SOL     OW 1981   2.322   1.309   0.700  0.3414 -0.2122 -0.3114
  661SOL    HW1 1982   2.400   1.294   0.638 -3.6736 -1.0039  2.9429
  661SOL    HW2 1983   2.258   1.379   0.653 -0.7134 -1.0009 -0.4405
  662SOL     OW 1984   1.454   0.396   1.697  0.4451 -0.5138 -0.3508
  662SOL    HW1 1985   1.416   0.333   1.774 -1.4036 -1.4049  1.2560
  662SOL    HW2 1986   1.421   0.492   1.703 -1.8661 -0.6605 -1.4734
  663SOL     OW 1987   0.773   1.642   1.915  0.0257 -0.3248  0.4774
  663SOL    HW1 1988   0.828   1.695   1.984 -1.3982  0.8446 -0.6799
  663SOL    HW2 1989   0.733   1.559   1.949  3.7547  1.2473 -1.1858
  664SOL     OW 1990   1.590   2.028   1.445  0.3411  0.6331  0.6045
  664SOL    HW1 1991   1.497   1.979   1.459  1.9462  2.2287  1.0291
  664SOL    HW2 1992   1.675   1.968   1.435  0.0823  0.5641  0.2639
  665SOL     OW 1993   2.275   0.646   2.008  0.6063  0.9254 -0.5355
  665SOL    HW1 1994   2.258   0.543   2.010  1.5132  3.7874 -1.3617
  665SOL    HW2 1995   2.343   0.677   2.083  0.0491  0.3829  1.9777
  666SOL     OW 1996   0.479   2.238   0.408 -0.3624 -0.5097 -0.8037
  666SOL    HW1 1997   0.512   2.331   0.432 -2.0437 -0.7522 -2.3894
  666SOL    HW2 1998   0.376   2.234   0.399 -1.4108  1.2871 -2.1670
  667SOL     OW 1999   2.065   0.162   1.066 -0.6302  0.6822  0.3334
  667SOL    HW1 2000   2.082   0.260   1.029  4.0817  1.1194  0.3723
  667SOL    HW2 2001   1.988   0.162   1.137  0.3160 -0.8793  1.2101
  668SOL     OW 2002   2.013   0.436   1.074 -0.7028  0.5549 -0.1913
  668SOL    HW1 2003   2.095   0.467   1.012 -0.7427  1.8150  0.0462
  668SOL    HW2 2004   2.033   0.459   1.170  2.1633  0.2873 -2.3919
  669SOL     OW 2005   3.060   2.137   1.026  0.3297 -0.0894  0.2318
  669SOL    HW1 2006   3.002   2.170   0.948 -1.4453  1.0033  1.1918
  669SOL    HW2 2007   3.011   2.146   1.121  2.1558  0.7003  1.0703
  670SOL     OW 2008   2.908   2.386   2.155  0.1197  0.0682  0.7111
  670SOL    HW1 2009   2.818   2.351   2.199 -2.2320 -0.1788  1.5908
  670SOL    HW2 2010   2.901   2.492   2.136 -2.9461  2.1228  2.3254
  671SOL     OW 2011   1.820   1.658   1.532 -0.0104 -0.2308 -0.6514
  671SOL    HW1 2012   1.782   1.628   1.437 -1.1476  2.1577 -1.3960
  671SOL    HW2 2013   1.833   1.583   1.607  0.0680 -2.7277 -0.8389
  672SOL     OW 2014   0.457   0.718   2.534 -0.1860  0.5635  0.3846
  672SOL    HW1 2015   0.385   0.725   2.468 -0.4873  4.0209  1.6631
  672SOL    HW2 2016   0.440   0.766   2.624  2.0581 -1.5036 -0.5601
  673SOL     OW 2017   0.079   1.455   0.994  0.0444 -0.5730  0.2997
  673SOL    HW1 2018   0.097   1.428   1.094  0.8344 -1.5379 -1.8498
  673SOL    HW2 2019   0.136   1.534   0.952  1.2804  0.5150 -1.3945
  674SOL     OW 2020   1.539   3.040   0.209  0.2547  0.3482  0.6562
  674SOL    HW1 2021   1.614   3.100   0.167  0.2672 -1.6557 -1.5761
  674SOL    HW2 2022   1.501   2.973   0.137  1.8501 -0.4776 -2.1570
  675SOL     OW 2023   1.660   0.832   2.306 -0.2193  0.2344 -0.1587
  675SOL    HW1 2024   1.755   0.799   2.327 -1.3640  0.8058  2.8386
  675SOL    HW2 2025   1.598   0.752   2.273 -0.9622 -3.2333 -0.8576
  676SOL     OW 2026   2.521   1.564   1.996  0.2179  0.2395  0.1102
  676SOL    HW1 2027   2.488   1.515   1.906 -0.8223 -1.6607  0.0705
  676SOL    HW2 2028   2.579   1.508   2.056  0.8751  5.7100  0.0411
  677SOL     OW 2029   1.939   0.671   0.900 -0.7873  0.0225 -0.0216
  677SOL    HW1 2030   1.858   0.656   0.967 -3.0219 -0.2526  0.9216
  677SOL    HW2 2031   2.033   0.649   0.940  0.3088 -0.7147  1.7676
  678SOL     OW 2032   0.114   0.775   1.645 -0.1543  0.4860 -0.0348
  678SOL    HW1 2033   0.172   0.851   1.690  2.2573  0.6965 -3.8978
  678SOL    HW2 2034   0.091   0.699   1.710  0.1699  0.9386  0.0605
  679SOL     OW 2035   2.572   1.115   1.227 -0.3033 -0.2747 -0.2074
  679SOL    HW1 2036   2.474   1.146   1.212  3.3088 -0.5482  0.0522
  679SOL    HW2 2037   2.596   1.018   1.197  0.6483 -1.9473  0.7261
  680SOL     OW 2038   2.851   0.524   1.670 -0.1668 -0.1170 -0.1629
  680SOL    HW1 2039   2.824   0.579   1.588 -0.8360 -0.1558  0.5899
  680SOL    HW2 2040   2.923   0.572   1.729  1.2641  0.3973 -0.9462
  681SOL     OW 2041   3.014   0.123   1.579 -0.2065  0.2426  0.1768
  681SOL    HW1 2042   3.022   0.053   1.497  1.1888 -0.1685 -2.9693
  681SOL    HW2 2043   2.914   0.151   1.590 -0.7557  0.6434 -0.3110
  682SOL     OW 2044   0.642   0.081   1.312 -0.8731  0.4894 -0.2896
  682SOL    HW1 2045   0.581   0.006   1.342  1.3341  1.3066 -1.4993
  682SOL    HW2 2046   0.728   0.047   1.265  1.5020  0.8930  2.8127
  683SOL     OW 2047   1.352   0.260   2.183  0.1884  0.0188 -0.1214
  683SOL    HW1 2048   1.332   0.323   2.262 -1.0025 -0.0636  1.3092
  683SOL    HW2 2049   1.438   0.274   2.134 -0.3125 -0.3177  2.5677
  684SOL     OW 2050   1.365   2.142   0.596  0.4662  0.8943 -0.7643
  684SOL    HW1 2051   1.401   2.046   0.630 -0.5050 -1.3758 -1.9101
  684SOL    HW2 2052   1.280   2.135   0.536 -1.0818 -0.1437  1.0534
  685SOL     OW 2053   2.251   2.056   1.983  0.1668  0.8899  0.0312
  685SOL    HW1 2054   2.272   1.955   1.961  2.6377 -1.6481  1.9074
  685SOL    HW2 2055   2.330   2.111   2.026  0.7841 -0.8673  2.0251
  686SOL     OW 2056   1.583   1.832   2.900 -0.4320  0.3153 -0.2487
  686SOL    HW1 2057   1.590   1.765   2.978 -0.4920  0.2561 -1.3471
  686SOL    HW2 2058   1.482   1.844   2.873 -0.3430 -1.0600  2.6433
  687SOL     OW 2059   1.422   2.448   2.006 -0.1783 -0.4906 -0.5161
  687SOL    HW1 2060   1.430   2.345   1.982 -1.7788 -1.1856 -1.1439
  687SOL    HW2 2061   1.409   2.457   2.107 -1.1332 -0.8633  0.6107
  688SOL     OW 2062   2.053   1.487   1.698 -0.2323  0.3226  0.6343
  688SOL    HW1 2063   2.121   1.562   1.717 -0.6909 -0.2604 -0.3576
  688SOL    HW2 2064   2.049   1.452   1.601  0.5310 -0.0499 -0.5696
  689SOL     OW 2065   2.303   1.091   2.798 -0.6132  0.7213  0.1268
  689SOL    HW1 2066   2.231   1.019   2.767  1.7931 -0.5905  0.8929
  689SOL    HW2 2067   2.348   1.059   2.886  0.5767 -2.2617 -0.3559
  690SOL     OW 2068   2.214   2.794   0.017  0.8644  0.0731 -0.2470
  690SOL    HW1 2069   2.159   2.759  -0.068 -0.4916 -4.9298  1.5159
  690SOL    HW2 2070   2.152   2.791   0.097 -1.5337  1.1684 -2.8985
  691SOL     OW 2071   2.557   0.392   2.088  1.0596  0.5561 -0.0129
  691SOL    HW1 2072   2.597   0.300   2.069 -1.2806  2.1723  0.6558
  691SOL    HW2 2073   2.593   0.461   2.021 -2.5396 -0.8580 -0.5205
  692SOL     OW 2074   2.674   1.229   0.709 -0.5615  0.2746 -0.3912
  692SOL    HW1 2075   2.628   1.228   0.617 -0.2180  2.3206 -0.7597
  692SOL    HW2 2076   2.692   1.324   0.741 -2.9859 -2.7805  0.3257
  693SOL     OW 2077   2.910   2.922   0.681 -0.0217 -0.1453 -0.0309
  693SOL    HW1 2078   2.915   3.007   0.741  2.1317  0.4515  0.0331
  693SOL    HW2 2079   2.908   2.944   0.581 -0.2063 -0.6622  0.0287
  694SOL     OW 2080   2.370   2.269   0.102  0.6273 -0.2511 -0.0785
  694SOL    HW1 2081   2.398   2.334   0.182  0.2623  0.5377  2.7681
  694SOL    HW2 2082   2.276   2.235   0.098  0.9981  1.7851 -0.0736
  695SOL     OW 2083   0.479   3.015   1.481  0.4328  0.2862  0.1392
  695SOL    HW1 2084   0.401   2.955   1.454  2.7704 -0.0255  4.3471
  695SOL    HW2 2085   0.452   3.060   1.571 -1.3274 -1.0063  0.2386
  696SOL     OW 2086   2.725   2.002   0.774  0.0042 -0.7746 -0.5314
  696SOL    HW1 2087   2.798   1.937   0.804  1.2331  0.7396 -1.6622
  696SOL    HW2 2088   2.682   1.965   0.692  1.1106  2.6777  0.1511
  697SOL     OW 2089   1.664   1.856   1.834  0.4461 -0.4183  0.4002
  697SOL    HW1 2090   1.765   1.842   1.821  0.0223  2.5804  1.2230
  697SOL    HW2 2091   1.632   1.957   1.832 -1.0920 -0.7245 -0.7656
  698SOL     OW 2092   2.949   0.408   2.726 -0.8905 -0.0353 -0.3796
  698SOL    HW1 2093   2.971   0.388   2.624 -0.9241 -1.0305 -0.8577
  698SOL    HW2 2094   2.984   0.331   2.786  0.8670  0.3813 -0.7934
  699SOL     OW 2095   1.631   0.134   2.913 -0.4093 -0.2292  0.1749
  699SOL    HW1 2096   1.591   0.048   2.869 -0.6533  1.4589  0.3249
  699SOL    HW2 2097   1.684   0.186   2.842  0.2350  1.2133  2.5807
  700SOL     OW 2098   0.985   2.282   1.341 -0.5155 -0.1010  0.9609
  700SOL    HW1 2099   1.045   2.194   1.314  0.0361 -1.6593 -2.3511
  700SOL    HW2 2100   0.879   2.274   1.344 -1.7143  1.5969  0.6560
  701SOL     OW 2101   1.856   2.908   0.004  0.0307 -0.0730  0.1289
  701SOL    HW1 2102   1.848   2.866   0.095  2.1079  2.2466  1.9338
  701SOL    HW2 2103   1.918   2.992   0.012  0.1710 -0.8810  2.2868
  702SOL     OW 2104   2.126   1.359   1.927 -0.2750  0.2962  0.1210
  702SOL    HW1 2105   2.198   1.287   1.918 -1.9775 -0.4222 -0.8855
  702SOL    HW2 2106   2.082   1.381   1.838 -0.2092  2.0714  1.0422
  703SOL     OW 2107   1.962   0.917   1.449  0.4562  0.0416 -0.4001
  703SOL    HW1 2108   1.933   0.823   1.488  1.6698  1.5599  0.8154
  703SOL    HW2 2109   2.028   0.967   1.513 -0.1176  1.2582  1.7332
  704SOL     OW 2110   0.330   2.077   1.707  0.3289  0.0001 -0.2122
  704SOL    HW1 2111   0.359   2.047   1.803 -0.0275 -1.3201  0.6781
  704SOL    HW2 2112   0.392   2.153   1.670  1.8865 -3.0978  0.7117
  705SOL     OW 2113   2.491   1.409   0.908 -0.3862  0.0003  0.4674
  705SOL    HW1 2114   2.430   1.380   0.829  1.0844 -1.1336 -0.4250
  705SOL    HW2 2115   2.594   1.402   0.890  0.4042 -0.6812  1.1530
  706SOL     OW 2116   0.522   1.730   1.807  0.2588 -0.2232 -0.1191
  706SOL    HW1 2117   0.537   1.777   1.711 -1.9780  1.7722 -0.4729
  706SOL    HW2 2118   0.608   1.715   1.859  0.5852 -0.4495 -1.8007
  707SOL     OW 2119   2.315   1.179   1.873 -0.0972  0.1190 -0.2010
  707SOL    HW1 2120   2.416   1.155   1.874  0.8036  0.0428  2.9819
  707SOL    HW2 2121   2.260   1.095   1.868 -0.0827  1.8662 -3.0212
  708SOL     OW 2122   3.028   0.542   2.953  0.1184 -0.1421  0.0407
  708SOL    HW1 2123   3.121   0.565   2.917 -1.9468 -0.0046  1.9121
  708SOL    HW2 2124   2.991   0.456   2.923 -0.1789  3.5677  1.6779
  709SOL     OW 2125   1.825   1.872   0.420  0.4005  0.6103  0.0633
  709SOL    HW1 2126   1.847   1.974   0.435 -0.7802  2.0842  0.3206
  709SOL    HW2 2127   1.843   1.844   0.321  0.5297 -0.0341 -1.0801
  710SOL     OW 2128   1.762   1.566   2.429 -0.3483 -0.4889 -0.1847
  710SOL    HW1 2129   1.835   1.494   2.398  2.3273  0.5614 -1.1687
  710SOL    HW2 2130   1.764   1.594   2.523  0.5626 -0.0075 -0.5938
  711SOL     OW 2131   2.726   2.852   0.984  0.3350 -0.3125 -0.1792
  711SOL    HW1 2132   2.673   2.927   0.945 -1.5194 -2.3806  2.4751
  711SOL    HW2 2133   2.808   2.888   1.034 -1.8453 -0.9349  1.1227
  712SOL     OW 2134   1.312   2.196   1.912  0.0348 -0.2333 -0.0091
  712SOL    HW1 2135   1.394   2.142   1.908 -0.4521  1.0120  0.5077
  712SOL    HW2 2136   1.230   2.149   1.866 -1.6710 -1.2972  1.3695
  713SOL     OW 2137   2.786   1.488   2.544  0.3861 -0.2746  0.0917
  713SOL    HW1 2138   2.806   1.387   2.532  1.2970 -2.0635 -1.8466
  713SOL    HW2 2139   2.691   1.500   2.590 -2.7285 -3.4584 -2.2677
  714SOL     OW 2140   2.687   0.428   2.344 -0.1507 -0.3835  0.1295
  714SOL    HW1 2141   2.623   0.424   2.427 -0.6863  3.0123  1.8631
  714SOL    HW2 2142   2.638   0.386   2.256 -1.1862 -2.0266 -2.4604
  715SOL     OW 2143   1.585   2.182   1.196  0.0839  0.3942 -0.6623
  715SOL    HW1 2144   1.514   2.253   1.187  3.0343  1.5708  1.2188
  715SOL    HW2 2145   1.557   2.123   1.280 -2.5377  1.4581  1.1809
  716SOL     OW 2146   1.223   0.129   1.511  0.7312 -0.0859  0.2297
  716SOL    HW1 2147   1.134   0.150   1.470  0.5439 -0.7956  0.8529
  716SOL    HW2 2148   1.294   0.196   1.488 -0.0255  2.0183 -0.9599
  717SOL     OW 2149   1.164   0.598   1.623  0.1188 -0.1556 -0.2122
  717SOL    HW1 2150   1.245   0.661   1.648 -1.6724 -1.0046  0.3058
  717SOL    HW2 2151   1.165   0.581   1.520 -0.6611  1.9451 -0.3707
  718SOL     OW 2152   0.689   0.904   0.967 -0.2229 -0.3347  0.1664
  718SOL    HW1 2153   0.657   0.914   0.870 -2.4824  1.6625  0.4684
  718SOL    HW2 2154   0.699   0.999   1.010  1.7432  1.0978 -0.1629
  719SOL     OW 2155   0.738   1.758   2.292  0.0910 -0.3681 -0.1582
  719SOL    HW1 2156   0.814   1.769   2.365  1.2163  0.4438 -1.4125
  719SOL    HW2 2157   0.660   1.707   2.326  0.3379  0.6296 -0.5546
  720SOL     OW 2158   2.204   1.219   0.276 -0.4866 -0.0758 -0.5573
  720SOL    HW1 2159   2.277   1.157   0.239  0.8390  1.3612  2.3317
  720SOL    HW2 2160   2.158   1.184   0.360  0.3445  0.4846 -1.8922
  721SOL     OW 2161   2.235   2.908   2.110  0.3109 -0.1272  0.1259
  721SOL    HW1 2162   2.253   2.953   2.019 -1.5722 -1.3207  1.0228
  721SOL    HW2 2163   2.140   2.923   2.132  2.5614 -1.6221 -2.7028
  722SOL     OW 2164   2.338   1.712   0.585  0.2307 -0.4760 -0.4000
  722SOL    HW1 2165   2.399   1.683   0.506  1.0433  0.8709  0.5511
  722SOL    HW2 2166   2.261   1.777   0.555 -1.2235  1.1840 -2.3674
  723SOL     OW 2167   2.594   2.750   1.954 -0.4685  0.0892  0.0350
  723SOL    HW1 2168   2.631   2.832   2.009  2.2618  0.1668 -0.1782
  723SOL    HW2 2169   2.502   2.718   1.989  0.8150 -2.1398 -1.8207
  724SOL     OW 2170   0.361   2.502   2.458 -0.2190  0.3227 -0.8185
  724SOL    HW1 2171   0.260   2.505   2.444  1.6858  2.2864  1.2456
  724SOL    HW2 2172   0.390   2.482   2.558  0.1164  0.9088  1.4634
  725SOL     OW 2173   2.411   2.811   1.517  0.5859 -0.4102 -0.0040
  725SOL    HW1 2174   2.420   2.838   1.412  2.6672 -0.1498 -1.3620
  725SOL    HW2 2175   2.379   2.717   1.540  0.6299  2.4063  1.1655
  726SOL     OW 2176   2.466   2.330   0.761  0.5389 -0.4985 -0.4245
  726SOL    HW1 2177   2.458   2.421   0.714  1.3632  0.6433 -0.1343
  726SOL    HW2 2178   2.442   2.248   0.704 -1.4021  1.8514 -0.0867
  727SOL     OW 2179   0.116   3.075   0.124 -0.2352  0.4810  0.3439
  727SOL    HW1 2180   0.214   3.100   0.098  1.4931  1.4010 -0.4642
  727SOL    HW2 2181   0.071   3.001   0.061 -2.4009  0.0116 -1.4268
  728SOL     OW 2182   2.919   0.729   0.919  0.7726 -0.0357  0.4115
  728SOL    HW1 2183   2.863   0.700   0.838  1.0207  2.2127  0.4600
  728SOL    HW2 2184   2.899   0.676   1.005  1.4499  2.2955  0.6958
  729SOL     OW 2185   0.008   2.495   0.778 -0.1121  0.6363  0.2823
  729SOL    HW1 2186   0.052   2.481   0.871  0.2844 -0.4229  1.7120
  729SOL    HW2 2187   0.075   2.541   0.709  1.1061  1.5123 -1.6633
  730SOL     OW 2188   2.596   0.749   0.937 -0.0652 -0.3313 -0.6324
  730SOL    HW1 2189   2.550   0.837   0.899 -0.4995 -0.3924 -2.2542
  730SOL    HW2 2190   2.662   0.705   0.870 -1.8269 -1.3490 -0.6006
  731SOL     OW 2191   3.091   2.238   2.305  0.1075  0.1452  0.5751
  731SOL    HW1 2192   3.023   2.178   2.357 -0.4987  0.5914  0.3189
  731SOL    HW2 2193   3.043   2.297   2.235 -0.8218 -2.1274  2.5333
  732SOL     OW 2194   1.348   2.730   1.972 -0.2799  0.2139  0.3745
  732SOL    HW1 2195   1.389   2.662   2.040  0.5916 -0.0364 -1.0958
  732SOL    HW2 2196   1.314   2.690   1.884  2.4157  1.5501 -0.2195
  733SOL     OW 2197   3.084   0.658   2.232  0.3762 -0.1462  0.0485
  733SOL    HW1 2198   3.154   0.715   2.181  0.6202 -2.9293 -1.1620
  733SOL    HW2 2199   3.045   0.582   2.176  1.1055  1.7626  0.4099
  734SOL     OW 2200   1.523   0.415   2.721 -0.5664  0.2488  0.2761
  734SOL    HW1 2201   1.498   0.517   2.731  2.7238  1.5211  2.6791
  734SOL    HW2 2202   1.444   0.353   2.748  0.7856 -1.8866 -0.1133
  735SOL     OW 2203   2.868   2.681   2.304  0.0277 -0.1427 -0.1505
  735SOL    HW1 2204   2.846   2.685   2.202  0.7583  1.3011  0.1063
  735SOL    HW2 2205   2.974   2.692   2.320  2.8972  0.1259  1.9751
  736SOL     OW 2206   0.880   0.413   2.520  0.0100  0.0246  0.2025
  736SOL    HW1 2207   0.779   0.443   2.517 -0.5140 -0.0616  0.8709
  736SOL    HW2 2208   0.911   0.354   2.443 -2.2702  1.4127 -0.2436
  737SOL     OW 2209   2.675   0.482   2.787  0.3902 -0.1919  0.3932
  737SOL    HW1 2210   2.634   0.442   2.879 -2.4422  0.9169 -0.5166
  737SOL    HW2 2211   2.776   0.458   2.772 -0.4652 -0.5012 -2.7503
  738SOL     OW 2212   1.775   1.239   2.856 -0.3381  0.0661 -0.0483
  738SOL    HW1 2213   1.871   1.218   2.843 -1.0832  0.3961  3.2215
  738SOL    HW2 2214   1.708   1.166   2.822 -0.0066 -1.6839  0.9285
  739SOL     OW 2215   1.842   0.729   0.631 -0.6781  0.8366 -0.5904
  739SOL    HW1 2216   1.874   0.726   0.725 -1.8749  2.2607 -1.8038
  739SOL    HW2 2217   1.841   0.629   0.586  2.7548 -0.9523  1.1405
  740SOL     OW 2218   1.984   1.913   2.354  0.3902 -0.2597  0.1592
  740SOL    HW1 2219   2.034   1.834   2.381 -1.3970  0.4811 -0.9750
  740SOL    HW2 2220   1.951   1.891   2.256 -1.0841 -1.8426  1.2535
  741SOL     OW 2221   2.538   0.127   2.445  0.0773 -0.6209  0.5202
  741SOL    HW1 2222   2.642   0.137   2.434 -1.8023  1.5515  1.7963
  741SOL    HW2 2223   2.487   0.103   2.356  1.0524  0.8266 -0.6993
  742SOL     OW 2224   2.201   1.473   0.184  0.2192 -0.2054  0.1377
  742SOL    HW1 2225   2.118   1.514   0.224 -1.2802 -1.5016 -0.0512
  742SOL    HW2 2226   2.200   1.367   0.201  2.5489 -2.6894 -0.2534
  743SOL     OW 2227   1.755   0.647   2.542  0.1254  0.3601  0.3536
  743SOL    HW1 2228   1.742   0.558   2.488 -0.7218 -0.8175  0.9380
  743SOL    HW2 2229   1.671   0.711   2.542 -0.2245 -1.5687 -0.4137
  744SOL     OW 2230   2.763   2.155   0.184 -1.0958 -0.5164  0.2288
  744SOL    HW1 2231   2.702   2.191   0.264 -1.9455 -0.0568 -1.7963
  744SOL    HW2 2232   2.759   2.052   0.165 -2.8764 -2.3822  0.1360
  745SOL     OW 2233   2.223   2.508   2.234  0.0145  0.2597 -0.4270
  745SOL    HW1 2234   2.127   2.532   2.195 -2.2355 -0.0288 -1.4894
  745SOL    HW2 2235   2.236   2.514   2.337  1.6471 -0.4585 -2.1030
  746SOL     OW 2236   3.078   2.535   1.804  0.0363  0.3257 -0.3225
  746SOL    HW1 2237   3.155   2.497   1.744  0.9027 -1.5318  1.3121
  746SOL    HW2 2238   3.094   2.629   1.842  0.2131 -1.8832  3.0254
  747SOL     OW 2239   3.085   1.806   1.680  0.1697  0.5669 -0.6889
  747SOL    HW1 2240   3.078   1.702   1.656  2.6244 -1.4046 -3.2812
  747SOL    HW2 2241   3.169   1.845   1.623 -2.1948  2.7259 -1.7519
  748SOL     OW 2242   1.817   2.681   2.949  0.4968 -0.7636  0.4514
  748SOL    HW1 2243   1.818   2.764   3.015 -0.7779 -0.6199 -2.8837
  748SOL    HW2 2244   1.738   2.698   2.880 -1.5472  1.4099  1.5982
  749SOL     OW 2245   1.297   2.874   0.814 -0.4968 -0.0660 -0.2479
  749SOL    HW1 2246   1.201   2.922   0.808  1.0228  0.0356  2.8416
  749SOL    HW2 2247   1.370   2.936   0.794 -1.2516 -2.7723  0.3529
  750SOL     OW 2248   2.232   0.202   1.852  1.0138 -0.4275 -0.2365
  750SOL    HW1 2249   2.268   0.253   1.773  1.8394 -2.2202 -1.3525
  750SOL    HW2 2250   2.248   0.263   1.937  2.2918  0.4999  2.1040
  751SOL     OW 2251   0.834   2.088   2.895 -0.4345  0.6661  0.3009
  751SOL    HW1 2252   0.919   2.059   2.944  0.1292  2.4874  2.1143
  751SOL    HW2 2253   0.746   2.059   2.949 -0.7615  0.2094 -0.3272
  752SOL     OW 2254   1.315   0.767   1.164  0.4674 -0.0878 -0.4738
  752SOL    HW1 2255   1.403   0.813   1.186 -1.8164  0.2576 -1.0802
  752SOL    HW2 2256   1.317   0.664   1.184  0.1136  1.0060  0.5283
  753SOL     OW 2257   0.995   2.538   1.863  0.2954 -0.1928 -0.5876
  753SOL    HW1 2258   1.089   2.543   1.835 -1.9739 -1.2596 -2.1693
  753SOL    HW2 2259   0.951   2.625   1.871  2.4810 -2.0082 -0.0028
  754SOL     OW 2260   1.131   1.241   3.003  0.4479  0.0628  0.1419
  754SOL    HW1 2261   1.209   1.172   2.987 -0.3261 -0.6131  0.0564
  754SOL    HW2 2262   1.164   1.342   3.007  1.7447  0.7639  1.1341
  755SOL     OW 2263   1.920   0.503   2.180  0.5015 -0.2954  0.1385
  755SOL    HW1 2264   1.986   0.424   2.193  0.1499  0.7611  1.4333
  755SOL    HW2 2265   1.835   0.501   2.254 -0.7344  0.8015  3.0461
  756SOL     OW 2266   2.494   0.990   2.997  0.2339 -0.1297 -0.6251
  756SOL    HW1 2267   2.592   0.955   2.999  0.0313 -0.2886 -0.0845
  756SOL    HW2 2268   2.437   0.927   3.060  2.2297 -1.2091  1.1151
  757SOL     OW 2269   0.133   0.420   1.961  0.0141 -0.0696 -0.2987
  757SOL    HW1 2270   0.188   0.327   1.953  1.7332 -1.3429  0.2657
  757SOL    HW2 2271   0.048   0.422   2.013  0.8105  0.5595 -0.7455
  758SOL     OW 2272   2.346   0.077   1.409 -0.4950  0.1702 -0.2238
  758SOL    HW1 2273   2.300   0.014   1.477  1.9798  0.0140  0.4139
  758SOL    HW2 2274   2.296   0.085   1.322 -0.5790  0.4852  0.4055
  759SOL     OW 2275   1.706   0.119   0.096  0.5926 -0.0608 -0.0404
  759SOL    HW1 2276   1.696   0.118  -0.010 -0.3682  0.6601 -0.5421
  759SOL    HW2 2277   1.810   0.121   0.119  2.3043  0.3040  2.5898
  760SOL     OW 2278   2.704   2.125   2.797 -0.4607 -0.8753  0.0063
  760SOL    HW1 2279   2.667   2.171   2.884  2.4180  0.3872 -0.0906
  760SOL    HW2 2280   2.812   2.131   2.789  1.0478  1.3386 -2.2909
  761SOL     OW 2281   1.955   1.781   1.765  0.1512 -0.1402 -0.0324
  761SOL    HW1 2282   1.998   1.700   1.810  0.7786 -0.8450 -1.9384
  761SOL    HW2 2283   1.910   1.770   1.673 -2.1611  3.3397  1.5448
  762SOL     OW 2284   0.485   2.387   0.922  0.0535  0.1395  0.3414
  762SOL    HW1 2285   0.529   2.397   0.829 -0.5070  0.7000  1.0184
  762SOL    HW2 2286   0.549   2.411   0.999  0.2795 -2.7634 -1.5299
  763SOL     OW 2287   2.148   1.612   2.960 -0.3434 -0.1307  0.2837
  763SOL    HW1 2288   2.242   1.584   2.982 -1.9946 -1.0295  1.3171
  763SOL    HW2 2289   2.074   1.553   3.013 -3.5203  0.4110  1.6159
  764SOL     OW 2290   0.660   0.576   0.669 -0.1707  0.1909 -0.3028
  764SOL    HW1 2291   0.573   0.510   0.654  0.1226 -2.6720 -1.7421
  764SOL    HW2 2292   0.723   0.543   0.747  2.8029 -1.8041 -1.7032
  765SOL     OW 2293   0.812   0.234   0.728  0.3113  0.6131  0.1043
  765SOL    HW1 2294   0.799   0.195   0.626 -1.5101 -2.2121 -1.6298
  765SOL    HW2 2295   0.872   0.311   0.727 -1.7349  0.9694 -2.7795
  766SOL     OW 2296   2.907   2.198   3.058 -0.3431  0.3854 -0.2214
  766SOL    HW1 2297   2.849   2.167   3.140 -1.5142 -0.7681  1.2336
  766SOL    HW2 2298   2.959   2.289   3.074 -0.0949 -0.7679  0.0702
  767SOL     OW 2299   2.836   1.626   0.494  0.5929 -0.0077  0.4425
  767SOL    HW1 2300   2.783   1.697   0.544 -2.9472 -1.4249 -0.3463
  767SOL    HW2 2301   2.937   1.627   0.516  0.0900  1.0573  4.0367
  768SOL     OW 2302   1.019   0.235   0.212  0.1368 -0.2077 -0.3917
  768SOL    HW1 2303   0.994   0.274   0.306 -0.3277 -0.8883  0.1309
  768SOL    HW2 2304   1.117   0.197   0.209  2.2595 -0.8192 -1.4449
  769SOL     OW 2305   1.146   1.783   2.284 -0.0804  0.3505  0.0865
  769SOL    HW1 2306   1.055   1.809   2.331 -1.2330  0.4660 -0.3551
  769SOL    HW2 2307   1.230   1.784   2.340 -1.3463  1.2961 -2.3587
  770SOL     OW 2308   0.175   1.159   2.280  0.5942 -0.0377 -0.0335
  770SOL    HW1 2309   0.222   1.159   2.371 -0.1096  2.0448 -1.3169
  770SOL    HW2 2310   0.071   1.154   2.295 -1.9096  1.3568  3.9238
  771SOL     OW 2311   3.072   2.811   1.893  0.1509 -0.0003 -0.2906
  771SOL    HW1 2312   2.993   2.845   1.829 -0.8353  4.5252 -0.3054
  771SOL    HW2 2313   3.068   2.861   1.983  1.1494  0.0359  0.6372
  772SOL     OW 2314   2.330   0.211   2.852  0.3101 -0.2694 -0.2092
  772SOL    HW1 2315   2.369   0.141   2.783  0.3873 -0.4126 -1.9802
  772SOL    HW2 2316   2.404   0.258   2.915  1.1324 -0.7646 -0.5822
  773SOL     OW 2317   0.582   2.074   2.457 -0.2514  0.2166 -0.1073
  773SOL    HW1 2318   0.562   2.159   2.413  3.2108 -1.6073  0.1970
  773SOL    HW2 2319   0.518   2.055   2.536 -1.0698 -0.7677 -2.0915
  774SOL     OW 2320   2.096   0.012   2.631  0.1374 -0.1329  0.6408
  774SOL    HW1 2321   2.112   0.113   2.637 -2.5059 -0.6030 -0.5780
  774SOL    HW2 2322   2.179  -0.045   2.658 -0.7053 -0.9489 -1.3221
  775SOL     OW 2323   2.521   2.862   2.306  0.3064  0.1476  0.1030
  775SOL    HW1 2324   2.438   2.833   2.248  0.2977  0.6961 -1.5204
  775SOL    HW2 2325   2.502   2.890   2.398  0.3695 -0.3118 -1.7988
  776SOL     OW 2326   0.009   1.239   0.183  0.1595  0.0232 -0.0114
  776SOL    HW1 2327  -0.064   1.181   0.131 -2.0865 -1.4381 -0.9172
  776SOL    HW2 2328  -0.027   1.249   0.283  0.1450 -0.8058  0.6820
  777SOL     OW 2329   0.370   2.993   0.492  0.7987  0.7511  0.4817
  777SOL    HW1 2330   0.275   2.978   0.448 -2.2594  0.9776  2.3692
  777SOL    HW2 2331   0.435   2.913   0.475  3.5268  1.2298  0.2046
  778SOL     OW 2332   1.320   1.986   0.247  0.2503  0.3648  0.9638
  778SOL    HW1 2333   1.249   2.021   0.317 -1.3629  0.6009 -1.8434
  778SOL    HW2 2334   1.340   2.046   0.164  0.2750  1.5665  0.8025
  779SOL     OW 2335   0.146   0.789   0.504 -0.5245 -0.5509 -0.1914
  779SOL    HW1 2336   0.095   0.712   0.469 -1.1401 -1.2027  1.6456
  779SOL    HW2 2337   0.091   0.853   0.567  0.1101 -0.8796  0.5626
  780SOL     OW 2338   0.125   0.322   2.350  0.2216  0.6458 -0.0264
  780SOL    HW1 2339   0.116   0.412   2.407  0.5504  1.2375 -1.1129
  780SOL    HW2 2340   0.220   0.311   2.306 -0.3800 -0.4606 -2.0577
  781SOL     OW 2341   0.706   1.666   1.529 -0.0782  0.2588 -0.2053
  781SOL    HW1 2342   0.771   1.615   1.589 -0.8601 -0.5662 -0.3496
  781SOL    HW2 2343   0.614   1.618   1.517  0.0498 -2.0723 -0.3782
  782SOL     OW 2344   2.630   3.091   0.883 -0.2901  0.3331  0.1943
  782SOL    HW1 2345   2.556   3.110   0.810 -1.9410 -0.7198  1.2276
  782SOL    HW2 2346   2.596   3.129   0.970 -1.1499 -0.4900  1.0702
  783SOL     OW 2347   2.716   0.689   2.431  0.2851  0.2919 -0.4019
  783SOL    HW1 2348   2.696   0.696   2.532 -0.3685  0.3400 -0.2758
  783SOL    HW2 2349   2.685   0.597   2.392 -1.2326  0.5200 -0.3926
  784SOL     OW 2350   1.427   2.150   0.043  0.2661 -0.4952  0.1114
  784SOL    HW1 2351   1.477   2.209   0.111 -0.6855 -3.9866 -1.5687
  784SOL    HW2 2352   1.458   2.173  -0.055 -0.7116  0.3845 -0.4599
  785SOL     OW 2353   2.111   0.288   0.041 -0.1885  0.5011 -0.0640
  785SOL    HW1 2354   2.017   0.296   0.084 -0.8779 -0.3792  2.5547
  785SOL    HW2 2355   2.134   0.357  -0.029  0.2180 -3.6602 -2.1832
  786SOL     OW 2356   2.048   2.174   2.267  0.0855  0.2034  0.4481
  786SOL    HW1 2357   2.012   2.081   2.303 -0.8563  2.1003  2.1208
  786SOL    HW2 2358   2.147   2.177   2.266  0.1956 -2.5705 -0.1943
  787SOL     OW 2359   1.420   0.518   0.870 -0.3574  0.2113  0.2471
  787SOL    HW1 2360   1.332   0.576   0.872 -1.7857  1.2843  1.9447
  787SOL    HW2 2361   1.448   0.502   0.772  0.3622 -0.7499  1.1981
  788SOL     OW 2362   1.233   0.441   0.005 -0.0138 -0.1092 -0.2125
  788SOL    HW1 2363   1.148   0.398  -0.040 -1.1158  0.0291  0.5315
  788SOL    HW2 2364   1.201   0.500   0.085 -1.0167 -0.1736  1.1448
  789SOL     OW 2365   2.579   0.095   1.984 -0.1435  0.2342 -0.1447
  789SOL    HW1 2366   2.542   0.053   1.904 -0.2312 -0.1005 -0.1694
  789SOL    HW2 2367   2.641   0.033   2.038  4.5364  0.7574 -1.0926
  790SOL     OW 2368   2.593   2.811   0.705 -0.1641  0.0930  0.1383
  790SOL    HW1 2369   2.643   2.897   0.662  2.3427  1.4781 -0.8278
  790SOL    HW2 2370   2.573   2.820   0.804  1.3755  0.3660  0.5017
  791SOL     OW 2371   1.943   1.182   0.154 -0.1476 -0.1299 -0.0713
  791SOL    HW1 2372   1.855   1.135   0.183 -1.0177  2.8971 -2.6514
  791SOL    HW2 2373   2.027   1.179   0.219  0.9214  5.0761  0.7241
  792SOL     OW 2374   0.478   1.914   2.228 -0.2561 -0.8401  0.0633
  792SOL    HW1 2375   0.519   1.973   2.303  0.3777  2.0821 -1.4202
  792SOL    HW2 2376   0.474   1.816   2.253 -1.1444 -1.4607 -0.8409
  793SOL     OW 2377   2.115   1.594   2.080 -0.4073  0.9540 -0.3370
  793SOL    HW1 2378   2.202   1.654   2.049  2.2607 -0.0321  0.3278
  793SOL    HW2 2379   2.122   1.495   2.043 -1.7844 -1.8281  1.9216
  794SOL     OW 2380   0.432   1.613   2.244  0.2546 -0.8090  0.0769
  794SOL    HW1 2381   0.466   1.563   2.160  0.3852 -1.8114 -0.9826
  794SOL    HW2 2382   0.374   1.559   2.313 -0.4028 -2.1178 -1.1447
  795SOL     OW 2383   2.480   2.235   1.803 -0.5419 -0.1787 -0.1721
  795SOL    HW1 2384   2.515   2.216   1.900 -1.2432 -1.7125 -0.5449
  795SOL    HW2 2385   2.447   2.147   1.749  0.1750  1.0012 -2.6879
  796SOL     OW 2386   3.087   1.106   2.738 -0.0776 -0.7174 -0.0131
  796SOL    HW1 2387   2.985   1.111   2.738  2.4058  0.4296 -0.0980
  796SOL    HW2 2388   3.133   1.118   2.832 -1.0239  0.4366 -1.3588
  797SOL     OW 2389   0.809   0.681   1.445 -0.4642  0.1673  0.4816
  797SOL    HW1 2390   0.868   0.737   1.506 -1.6305 -0.8343 -0.1557
  797SOL    HW2 2391   0.757   0.733   1.372  1.2489  0.9567  0.1685
  798SOL     OW 2392   1.369   0.490   1.170  0.2206  0.1402  0.1872
  798SOL    HW1 2393   1.400   0.455   1.262  0.0639 -2.3282 -0.1153
  798SOL    HW2 2394   1.411   0.439   1.088  0.7426  1.6557 -2.0407
  799SOL     OW 2395   1.944   2.643   1.064  0.0763 -0.2095  0.3802
  799SOL    HW1 2396   1.863   2.588   1.093 -0.0652  2.2336 -0.1798
  799SOL    HW2 2397   1.933   2.672   0.964 -2.3705  0.8323 -0.3378
  800SOL     OW 2398   3.049   0.626   1.826  0.0191  0.0909  0.4571
  800SOL    HW1 2399   2.992   0.689   1.886 -0.0369  1.5408 -1.1233
  800SOL    HW2 2400   3.109   0.559   1.872 -3.3586 -1.7419 -0.0321
  801SOL     OW 2401   1.879   2.182   0.178  0.4190 -0.0551  0.2710
  801SOL    HW1 2402   1.806   2.146   0.109 -0.1784  2.2962 -0.8629
  801SOL    HW2 2403   1.971   2.156   0.142 -1.3471  0.5260  2.1869
  802SOL     OW 2404   0.726   0.831   2.549  1.1229  0.2403  0.7037
  802SOL    HW1 2405   0.787   0.785   2.481 -2.8745  0.4703 -0.4760
  802SOL    HW2 2406   0.628   0.788   2.543 -0.6013  0.2061 -1.6641
  803SOL     OW 2407   0.879   0.164   0.989  0.2172 -0.2474 -0.4497
  803SOL    HW1 2408   0.953   0.230   1.012  0.9404 -0.5160 -1.7955
  803SOL    HW2 2409   0.841   0.176   0.894  0.2524  0.9093 -0.3217
  804SOL     OW 2410   0.374   3.076   2.075  0.2845 -0.0914 -0.4918
  804SOL    HW1 2411   0.310   3.141   2.030  2.2185 -1.1204 -1.0123
  804SOL    HW2 2412   0.344   2.979   2.074 -1.3261  2.0371  2.2700
  805SOL     OW 2413   2.434   0.287   0.296  0.1513  0.0878 -0.4179
  805SOL    HW1 2414   2.531   0.305   0.303 -0.1718 -1.4579  3.2069
  805SOL    HW2 2415   2.400   0.259   0.206 -0.7092 -0.4559  4.2971
  806SOL     OW 2416   0.713   2.394   1.676 -0.7174 -0.1303 -0.3340
  806SOL    HW1 2417   0.709   2.495   1.703 -0.4250  1.9025  0.3196
  806SOL    HW2 2418   0.809   2.362   1.647  1.4443  0.4613 -2.6000
  807SOL     OW 2419   2.493   0.932   0.447 -0.0360 -0.0846 -0.1683
  807SOL    HW1 2420   2.584   0.881   0.440  1.6881  2.7233 -3.4919
  807SOL    HW2 2421   2.470   0.964   0.356  0.9425 -0.5447  0.3721
  808SOL     OW 2422   0.626   1.969   3.017 -0.5420  0.1758 -0.2897
  808SOL    HW1 2423   0.568   2.029   3.083 -2.4991  2.0938 -0.6881
  808SOL    HW2 2424   0.572   1.890   2.976  0.2241  0.1549  0.7590
  809SOL     OW 2425   2.699   2.003   1.917 -0.0198  0.0303 -0.3379
  809SOL    HW1 2426   2.789   2.053   1.910  0.6536 -1.5235  0.4603
  809SOL    HW2 2427   2.678   1.935   1.842  0.0242 -0.1367 -0.8258
  810SOL     OW 2428   2.101   1.126   0.509 -0.0798  0.3706  0.9205
  810SOL    HW1 2429   2.166   1.108   0.587  0.0438  1.0039 -1.7743
  810SOL    HW2 2430   2.039   1.198   0.526  3.0777 -0.8257  0.8486
  811SOL     OW 2431   1.348   2.299   1.216  0.1102  0.4148 -0.2112
  811SOL    HW1 2432   1.295   2.252   1.290  0.8357 -1.0929 -0.7952
  811SOL    HW2 2433   1.309   2.288   1.121 -0.0793 -3.4242  0.7886
  812SOL     OW 2434   1.363   0.751   1.982 -0.3132  0.3713  0.1380
  812SOL    HW1 2435   1.419   0.829   2.024  0.2300  0.9885 -0.2323
  812SOL    HW2 2436   1.272   0.795   1.957 -2.7350 -1.3763  1.2092
  813SOL     OW 2437   1.713   2.018   2.466 -0.5862  0.4945 -0.4380
  813SOL    HW1 2438   1.800   1.959   2.470 -0.0966 -2.5334 -1.1122
  813SOL    HW2 2439   1.702   2.052   2.369 -1.8799 -2.9801  3.2893
  814SOL     OW 2440   2.866   1.615   2.920  0.0143 -1.0667 -0.1401
  814SOL    HW1 2441   2.957   1.623   2.974  0.9091 -2.3463  2.0561
  814SOL    HW2 2442   2.849   1.697   2.859 -0.0656 -3.0789 -0.5521
  815SOL     OW 2443   2.273   2.886   2.676  0.4374 -0.1404 -0.0232
  815SOL    HW1 2444   2.219   2.865   2.761  0.1860 -1.0305 -1.4057
  815SOL    HW2 2445   2.375   2.881   2.695  1.3841  2.5008  2.2869
  816SOL     OW 2446   1.738   0.334   1.632  0.5586  0.0840 -0.1756
  816SOL    HW1 2447   1.645   0.366   1.666  1.2011 -2.0859 -0.4651
  816SOL    HW2 2448   1.789   0.282   1.711  0.3222  1.3080  3.2756
  817SOL     OW 2449   0.470   1.208   2.463 -0.0988 -0.5156  0.2983
  817SOL    HW1 2450   0.434   1.299   2.436  1.1454 -2.7542 -0.4131
  817SOL    HW2 2451   0.555   1.186   2.406  2.8302  0.7579  0.5245
  818SOL     OW 2452   2.033   0.819   0.444 -0.4748 -0.2282  0.0622
  818SOL    HW1 2453   2.064   0.917   0.438  1.5017 -0.0796 -1.0027
  818SOL    HW2 2454   1.958   0.800   0.520 -0.4899  2.0334 -0.8368
  819SOL     OW 2455   2.761   2.980   3.059 -0.4942 -0.2683 -0.3376
  819SOL    HW1 2456   2.836   2.932   3.002  0.0488 -1.4713  0.0852
  819SOL    HW2 2457   2.671   2.953   3.018  2.9223 -2.4577  0.0772
  820SOL     OW 2458   1.197   1.096   0.565 -0.3420 -0.7212  0.2796
  820SOL    HW1 2459   1.248   1.180   0.591 -1.2931 -0.8976 -5.3121
  820SOL    HW2 2460   1.198   1.020   0.637  0.3930 -0.0949  0.7656
  821SOL     OW 2461   3.084   1.321   0.645 -0.2221 -0.3436  0.2591
  821SOL    HW1 2462   3.053   1.301   0.737 -1.6975 -0.8994  0.7966
  821SOL    HW2 2463   3.168   1.384   0.642 -1.3038 -0.7075 -1.2999
  822SOL     OW 2464   2.559   1.770   2.481  0.1228  0.1213 -0.2156
  822SOL    HW1 2465   2.585   1.842   2.548  2.0933  0.3585  0.1447
  822SOL    HW2 2466   2.469   1.795   2.438  1.7243  0.0736  1.1094
  823SOL     OW 2467   2.003   0.867   1.185  0.2474  0.6384  0.0509
  823SOL    HW1 2468   1.987   0.876   1.287  0.3253  0.1909 -1.3984
  823SOL    HW2 2469   1.918   0.886   1.126 -0.1307 -0.7441  0.7473
  824SOL     OW 2470   0.211   2.061   2.729 -0.1541 -0.2210  0.1634
  824SOL    HW1 2471   0.174   2.000   2.803 -3.2714 -1.3953 -0.1335
  824SOL    HW2 2472   0.210   2.012   2.639 -1.0525 -0.7456 -0.3413
  825SOL     OW 2473   1.275   1.093   0.294 -0.6462 -0.6680 -0.5380
  825SOL    HW1 2474   1.255   1.115   0.392 -1.2309  2.4731 -0.1602
  825SOL    HW2 2475   1.281   1.182   0.246 -1.6741 -0.9448  0.2134
  826SOL     OW 2476   1.907   0.683   1.552  0.3519  0.2244 -0.0304
  826SOL    HW1 2477   1.956   0.602   1.605 -3.0876 -1.7392  1.4841
  826SOL    HW2 2478   1.847   0.646   1.472  0.1713 -0.5507  0.4703
  827SOL     OW 2479   0.787   1.402   0.239  0.0810 -0.0618  0.2502
  827SOL    HW1 2480   0.811   1.325   0.168 -1.1413 -0.8743  0.0913
  827SOL    HW2 2481   0.729   1.367   0.314  2.8648 -0.9226  0.1085
  828SOL     OW 2482   2.574   0.057   1.596 -0.2871 -0.4826  0.0087
  828SOL    HW1 2483   2.488   0.075   1.541 -0.3923  4.0774  1.8139
  828SOL    HW2 2484   2.575  -0.031   1.655  2.0179  1.2809  2.5715
  829SOL     OW 2485   2.741   2.511   2.999 -0.2781 -0.5915 -0.0793
  829SOL    HW1 2486   2.691   2.422   2.984  1.4385  0.2306  2.0070
  829SOL    HW2 2487   2.726   2.552   3.094  1.6524  4.0673 -1.2196
  830SOL     OW 2488   2.784   0.928   2.985 -0.0525 -0.3937 -0.2419
  830SOL    HW1 2489   2.851   0.998   3.034 -2.2854  0.6082  1.5803
  830SOL    HW2 2490   2.791   0.834   3.031  1.6173 -1.5679 -0.4277
  831SOL     OW 2491   0.009   0.597   0.382 -0.1214  0.3607  0.3051
  831SOL    HW1 2492  -0.035   0.531   0.452  0.9504 -0.9109  0.4012
  831SOL    HW2 2493  -0.003   0.566   0.287 -0.4333  2.0114  0.8204
  832SOL     OW 2494   1.796   0.742   3.069  0.0449  0.4605  0.0257
  832SOL    HW1 2495   1.715   0.804   3.043 -0.5607  0.2005 -1.4751
  832SOL    HW2 2496   1.776   0.642   3.050  0.3691  2.4392 -0.1648
  833SOL     OW 2497   2.403   2.122   0.594  0.4908  0.1118 -0.1908
  833SOL    HW1 2498   2.319   2.160   0.547 -0.1505 -1.2764 -3.9940
  833SOL    HW2 2499   2.432   2.033   0.555  0.2518  0.5396 -2.3575
  834SOL     OW 2500   0.030   0.220   0.706  0.7575 -0.2707 -0.7025
  834SOL    HW1 2501   0.081   0.168   0.785  0.1200  2.1121  4.4088
  834SOL    HW2 2502   0.078   0.208   0.617  0.9305  1.1255  1.0628
  835SOL     OW 2503   2.473   1.481   1.188 -0.5932 -0.0861  0.1539
  835SOL    HW1 2504   2.559   1.527   1.230 -0.6685 -1.4260  0.0397
  835SOL    HW2 2505   2.475   1.477   1.088 -2.7607 -2.1151  2.4988
  836SOL     OW 2506   1.552   0.865   2.585 -0.0556 -0.0312  0.3916
  836SOL    HW1 2507   1.447   0.867   2.571  0.9105  0.6219 -0.1387
  836SOL    HW2 2508   1.598   0.909   2.502 -0.0535  0.1055  0.5989
  837SOL     OW 2509   1.517   0.089   0.440 -0.1737 -0.4243  1.3037
  837SOL    HW1 2510   1.505   0.192   0.437 -0.7652 -2.0865 -1.5695
  837SOL    HW2 2511   1.533   0.041   0.350  1.1316 -0.9227  0.9293
  838SOL     OW 2512   1.347   1.632   2.677 -0.2196 -0.3019 -0.0678
  838SOL    HW1 2513   1.395   1.590   2.757  1.6182  0.4177  0.8575
  838SOL    HW2 2514   1.261   1.585   2.646  1.1844  0.1832 -2.8056
  839SOL     OW 2515   1.624   0.238   0.967 -0.7527  0.2128 -0.0447
  839SOL    HW1 2516   1.639   0.302   1.052  0.2259  2.1901  1.2868
  839SOL    HW2 2517   1.642   0.140   0.983 -1.4671  0.7665  1.0615
  840SOL     OW 2518   2.565   2.908   1.722  0.1811 -0.0893 -0.1624
  840SOL    HW1 2519   2.507   2.868   1.647 -0.5547  0.8031  1.6515
  840SOL    HW2 2520   2.572   2.847   1.799  0.1332 -3.2704 -4.5472
  841SOL     OW 2521   1.591   0.904   3.054 -0.0491  0.2836 -0.1699
  841SOL    HW1 2522   1.509   0.912   3.120 -3.1370  2.3231  2.2120
  841SOL    HW2 2523   1.572   0.948   2.963 -1.8291  0.0256  1.1500
  842SOL     OW 2524   0.796   1.488   0.888 -0.2934 -0.2562 -0.1704
  842SOL    HW1 2525   0.758   1.555   0.958  1.9343  1.5963 -1.1015
  842SOL    HW2 2526   0.732   1.417   0.853  0.9000  1.0840 -1.0165
  843SOL     OW 2527   0.134   3.062   1.402 -0.3030  0.1950 -0.2506
  843SOL    HW1 2528   0.173   3.152   1.443 -0.3858  0.8140 -1.3448
  843SOL    HW2 2529   0.075   3.009   1.472  1.3528 -3.6340 -1.5886
  844SOL     OW 2530   0.791   2.458   0.234 -0.2031 -0.2956  0.0498
  844SOL    HW1 2531   0.723   2.419   0.303  1.1156 -0.0789  1.7471
  844SOL    HW2 2532   0.762   2.551   0.197 -1.2615  0.2468  2.5488
  845SOL     OW 2533   1.667   2.843   1.279 -0.6496 -0.5479 -0.0517
  845SOL    HW1 2534   1.694   2.747   1.272 -1.1882  1.6721  0.8795
  845SOL    HW2 2535   1.644   2.865   1.372 -0.0467 -2.2667 -0.7040
  846SOL     OW 2536   1.508   3.039   0.766  0.3936 -0.4208 -0.3296
  846SOL    HW1 2537   1.462   3.133   0.752  1.2197  1.9399  0.8158
  846SOL    HW2 2538   1.528   2.986   0.681  0.7212 -3.7635  0.4155
  847SOL     OW 2539   2.086   1.759   0.457 -0.0068  0.7088 -0.0784
  847SOL    HW1 2540   2.094   1.663   0.403  0.0466 -2.5256  0.0010
  847SOL    HW2 2541   1.984   1.785   0.473 -0.3395  0.0778  0.0349
  848SOL     OW 2542   2.412   0.880   2.626  0.3995  0.1478  0.4015
  848SOL    HW1 2543   2.395   0.926   2.719  1.4656  1.5031  0.2205
  848SOL    HW2 2544   2.342   0.802   2.603  1.0970 -1.4851 -0.1221
  849SOL     OW 2545   2.549   0.922   2.381 -0.5981 -0.3130 -0.3023
  849SOL    HW1 2546   2.635   0.863   2.403 -0.9403 -1.7456 -0.0881
  849SOL    HW2 2547   2.477   0.928   2.454 -1.5594 -1.5495 -0.0942
  850SOL     OW 2548   1.573   0.027   1.352 -0.2564 -0.0715  0.0200
  850SOL    HW1 2549   1.593  -0.032   1.273  1.9639  0.7294 -2.7630
  850SOL    HW2 2550   1.508  -0.010   1.422 -2.5949  0.4139 -0.0474
  851SOL     OW 2551   0.577   1.702   0.741  0.3880  0.3382 -0.7306
  851SOL    HW1 2552   0.667   1.736   0.762  0.1948 -1.9286 -0.5319
  851SOL    HW2 2553   0.566   1.687   0.644  0.1878 -0.8365  1.6854
  852SOL     OW 2554   0.838   2.086   1.657  0.1541  0.2437 -0.1716
  852SOL    HW1 2555   0.785   2.158   1.600 -0.9069  0.8136  0.5846
  852SOL    HW2 2556   0.783   2.066   1.743 -2.3237 -0.7214 -0.9360
  853SOL     OW 2557   2.532   1.541   2.639  0.2196 -0.4505 -0.1542
  853SOL    HW1 2558   2.463   1.468   2.618  0.7333  2.3037 -1.1678
  853SOL    HW2 2559   2.530   1.622   2.573  0.6734 -1.0735  0.4078
  854SOL     OW 2560   2.424   1.420   1.766 -0.4417 -0.7304  0.1704
  854SOL    HW1 2561   2.484   1.375   1.694 -0.2464  0.1346  0.8339
  854SOL    HW2 2562   2.361   1.355   1.817  0.9952  1.6505 -0.4131
  855SOL     OW 2563   2.070   2.380   1.131 -0.0675  0.2548 -0.0081
  855SOL    HW1 2564   2.000   2.456   1.118 -1.5140 -0.5809 -0.2073
  855SOL    HW2 2565   2.150   2.409   1.189 -0.8665  1.6098 -0.1251
  856SOL     OW 2566   1.352   1.407   0.899 -0.3711  0.2081  0.2676
  856SOL    HW1 2567   1.424   1.463   0.956  1.9619 -0.1353  1.1060
  856SOL    HW2 2568   1.256   1.432   0.927  1.0059 -0.0771  0.6020
  857SOL     OW 2569   0.044   2.709   1.045 -0.1658 -0.0983  0.6063
  857SOL    HW1 2570   0.061   2.754   0.950 -0.2824  1.9417 -0.5094
  857SOL    HW2 2571   0.100   2.627   1.056 -1.2628  1.6407  0.0948
  858SOL     OW 2572   2.378   2.036   1.641  0.1617  0.4674 -0.3593
  858SOL    HW1 2573   2.302   1.987   1.604  2.2180  2.9388 -0.2682
  858SOL    HW2 2574   2.461   1.980   1.663 -0.5726 -1.3069  2.5008
  859SOL     OW 2575   2.414   0.579   1.094  0.0711 -0.3976  0.2765
  859SOL    HW1 2576   2.478   0.635   1.031  1.7138  0.3453 -0.5866
  859SOL    HW2 2577   2.465   0.494   1.134  1.7927 -3.2982 -1.1230
  860SOL     OW 2578   1.892   2.838   0.465 -0.4129 -0.5462  0.3984
  860SOL    HW1 2579   1.856   2.786   0.381  1.0796 -0.4841 -0.8657
  860SOL    HW2 2580   1.946   2.920   0.444 -1.4058 -1.9101 -1.4025
  861SOL     OW 2581   1.061   2.477   2.889 -0.4374  0.3747 -0.0785
  861SOL    HW1 2582   1.116   2.545   2.837 -0.4322  0.3209 -0.1255
  861SOL    HW2 2583   1.034   2.500   2.985  0.4074  0.2525 -1.0975
  862SOL     OW 2584   2.810   2.527   1.718  0.4255  0.6801 -0.4494
  862SOL    HW1 2585   2.902   2.540   1.761 -0.6368 -3.5234  0.7364
  862SOL    HW2 2586   2.794   2.600   1.643 -0.4218 -0.5635 -3.3208
  863SOL     OW 2587   1.824   2.723   0.226  0.3556 -0.0224  0.2010
  863SOL    HW1 2588   1.841   2.622   0.250 -0.9571  3.7322 -0.5274
  863SOL    HW2 2589   1.734   2.733   0.180  0.8761  2.8289  1.0105
  864SOL     OW 2590   2.059   1.217   2.775 -0.0537 -0.3279 -0.1150
  864SOL    HW1 2591   2.007   1.168   2.704  1.1729  2.7455  1.1181
  864SOL    HW2 2592   2.162   1.197   2.769 -0.9633 -2.3937 -0.6839
  865SOL     OW 2593   2.094   1.980   0.711  0.0351 -0.3972 -0.0584
  865SOL    HW1 2594   2.186   1.941   0.745  0.9390 -0.4482 -1.4704
  865SOL    HW2 2595   2.019   1.968   0.783  0.8022  2.5888 -0.7603
  866SOL     OW 2596   2.967   2.920   1.094 -0.4555  0.7326 -0.7685
  866SOL    HW1 2597   2.958   2.979   1.015  0.2343  0.4136  1.7629
  866SOL    HW2 2598   3.033   2.837   1.075  0.6838 -1.1459  0.7940
  867SOL     OW 2599   0.352   1.360   0.873 -0.5948  0.3327  0.1984
  867SOL    HW1 2600   0.330   1.276   0.811 -3.4258 -0.0064  1.8401
  867SOL    HW2 2601   0.339   1.453   0.829 -1.1901  0.9908  0.3742
  868SOL     OW 2602   0.803   1.905   2.069  0.0565  0.1926  0.0554
  868SOL    HW1 2603   0.741   1.855   2.132 -0.3293 -1.5442 -2.5322
  868SOL    HW2 2604   0.761   1.979   2.008  0.0387 -3.6214  1.9749
  869SOL     OW 2605   2.623   1.904   1.676  0.0727 -0.6083 -0.6747
  869SOL    HW1 2606   2.685   1.973   1.637 -0.7137  0.8434  2.6929
  869SOL    HW2 2607   2.620   1.811   1.622  1.9170 -4.2566  0.6048
  870SOL     OW 2608   2.377   2.665   1.161  0.1337  0.2682 -0.7181
  870SOL    HW1 2609   2.335   2.600   1.228  2.3141  0.8317 -0.5118
  870SOL    HW2 2610   2.463   2.719   1.193 -0.7564  1.1514  0.6085
  871SOL     OW 2611   3.068   2.251   0.553  0.0684  0.2691 -0.0011
  871SOL    HW1 2612   3.013   2.265   0.643 -1.1818  3.4287 -1.4109
  871SOL    HW2 2613   3.013   2.215   0.470 -1.7492  1.1599 -0.0252
  872SOL     OW 2614   2.073   0.516   1.675 -0.0158 -0.5009  0.9881
  872SOL    HW1 2615   2.039   0.523   1.769 -2.9849  2.1672 -1.2436
  872SOL    HW2 2616   2.175   0.494   1.665  1.9579 -0.3154 -0.2551
  873SOL     OW 2617   1.741   2.042   3.092 -0.9576  0.9325 -0.3491
  873SOL    HW1 2618   1.657   1.981   3.096  0.3415 -1.0996 -0.0927
  873SOL    HW2 2619   1.740   2.109   3.014 -0.2168  0.3240  0.0942
  874SOL     OW 2620   0.650   2.484   0.705  0.3287  0.2961 -0.1813
  874SOL    HW1 2621   0.645   2.552   0.781 -0.6435  3.3281 -1.3322
  874SOL    HW2 2622   0.734   2.416   0.715  1.1213  1.6317  0.0346
  875SOL     OW 2623   2.375   1.581   1.412 -0.2598  1.1324 -0.6665
  875SOL    HW1 2624   2.453   1.613   1.473 -2.3731  0.6256  1.3321
  875SOL    HW2 2625   2.406   1.539   1.317  2.0024  1.2987 -0.7492
  876SOL     OW 2626   0.070   2.299   2.658  0.3012  0.1110 -0.0818
  876SOL    HW1 2627   0.124   2.211   2.686  0.4795 -0.0436 -0.7830
  876SOL    HW2 2628   0.126   2.384   2.688  0.2775  0.2149  0.9051
  877SOL     OW 2629   2.885   2.626   0.681 -0.2743 -0.3661 -0.0510
  877SOL    HW1 2630   2.865   2.725   0.714 -3.0341 -0.0441  1.1836
  877SOL    HW2 2631   2.980   2.581   0.703  2.8497 -1.1286 -0.7463
  878SOL     OW 2632   2.836   1.612   2.307  0.2914  0.0985 -0.0989
  878SOL    HW1 2633   2.785   1.688   2.260  0.9666  1.1752  3.4424
  878SOL    HW2 2634   2.811   1.609   2.407 -0.4432 -0.3250 -1.7958
  879SOL     OW 2635   2.518   0.008   1.126 -0.4373 -0.1807 -0.2537
  879SOL    HW1 2636   2.539  -0.021   1.222 -0.7473  0.0769  0.7140
  879SOL    HW2 2637   2.418   0.012   1.110  1.4329 -0.0865  0.3407
  880SOL     OW 2638   0.641   0.535   2.278  0.0882  0.0421 -0.3486
  880SOL    HW1 2639   0.624   0.494   2.372  2.9500  3.6397  1.7968
  880SOL    HW2 2640   0.672   0.467   2.208 -1.1243  0.2779 -0.0490
  881SOL     OW 2641   0.825   0.105   0.503 -0.2513  0.2918 -0.4142
  881SOL    HW1 2642   0.881   0.018   0.505 -2.9637 -1.2934 -3.4919
  881SOL    HW2 2643   0.732   0.080   0.475  0.9529  1.1804  0.0185
  882SOL     OW 2644   2.764   1.617   1.754 -0.8396  0.3029 -0.1152
  882SOL    HW1 2645   2.866   1.628   1.735  1.3508 -2.5112 -2.1472
  882SOL    HW2 2646   2.738   1.561   1.834 -0.6714  1.5618 -3.7730
  883SOL     OW 2647   0.843   0.531   0.870 -0.3822 -0.6928 -0.5667
  883SOL    HW1 2648   0.881   0.622   0.900  0.6264 -0.0459 -3.2536
  883SOL    HW2 2649   0.794   0.479   0.948 -3.9960 -1.7523 -1.2066
  884SOL     OW 2650   1.194   1.738   1.066  0.1365 -0.5647  0.5509
  884SOL    HW1 2651   1.132   1.665   1.054 -0.7737  0.7305  2.9827
  884SOL    HW2 2652   1.180   1.816   0.995 -0.0535  1.2339 -1.3632
  885SOL     OW 2653   2.358   1.859   2.293 -0.3700  0.4540 -0.1330
  885SOL    HW1 2654   2.279   1.795   2.324  0.4941 -2.0908 -0.7781
  885SOL    HW2 2655   2.339   1.961   2.291 -1.1244  1.1645 -2.2355
  886SOL     OW 2656   2.582   0.388   1.757  0.4506 -0.2006  0.2831
  886SOL    HW1 2657   2.613   0.297   1.808  1.6159 -3.0116  2.1230
  886SOL    HW2 2658   2.644   0.470   1.769 -0.5504 -0.3498  3.2188
  887SOL     OW 2659   0.102   2.058   1.350  0.7326 -0.5925  0.5462
  887SOL    HW1 2660   0.006   2.095   1.343 -0.0963 -1.5386 -0.7760
  887SOL    HW2 2661   0.170   2.116   1.293  0.3861  2.4200 -1.7465
  888SOL     OW 2662   0.609   1.208   1.564  0.0284  0.9679 -0.0681
  888SOL    HW1 2663   0.592   1.265   1.480  1.4015  2.3504  1.8957
  888SOL    HW2 2664   0.641   1.105   1.541 -2.2108 -3.0309  0.7992
  889SOL     OW 2665   0.812   2.448   2.214  0.3645 -0.3620 -0.1658
  889SOL    HW1 2666   0.716   2.425   2.233  1.2214 -1.1766 -1.3488
  889SOL    HW2 2667   0.852   2.388   2.137  1.0145  1.9358 -2.1493
  890SOL     OW 2668   2.391   2.471   0.334 -0.0137  0.2863 -0.5275
  890SOL    HW1 2669   2.492   2.495   0.358  2.8739  0.2236 -1.4584
  890SOL    HW2 2670   2.317   2.493   0.403  1.7426  1.3186  1.5804
  891SOL     OW 2671   2.599   1.720   0.739  0.6907  0.0866  0.2079
  891SOL    HW1 2672   2.646   1.647   0.790 -1.5874  3.1231 -1.9367
  891SOL    HW2 2673   2.498   1.708   0.742  1.6885 -0.8952  0.8210
  892SOL     OW 2674   0.377   0.271   2.237 -0.5176  0.6509  0.4043
  892SOL    HW1 2675   0.462   0.265   2.296  2.7067  2.0023 -0.2056
  892SOL    HW2 2676   0.399   0.286   2.134 -3.1995  0.3901 -0.7827
  893SOL     OW 2677   1.746   0.248   2.681  0.2117 -0.2214 -0.4566
  893SOL    HW1 2678   1.845   0.255   2.700  0.5601  1.4581  1.7948
  893SOL    HW2 2679   1.696   0.336   2.689  1.1611  2.7312  0.6389
  894SOL     OW 2680   2.136   2.104   0.123 -0.3183 -0.0600 -0.1496
  894SOL    HW1 2681   2.126   2.039   0.041  0.2650 -1.7710 -2.4458
  894SOL    HW2 2682   2.221   2.077   0.184  0.3999 -2.1120  0.9347
  895SOL     OW 2683   2.763   1.466   0.851  0.3906  0.1852  0.1319
  895SOL    HW1 2684   2.839   1.396   0.872 -0.0136 -2.0429 -0.9558
  895SOL    HW2 2685   2.758   1.538   0.920 -1.0507 -0.4208  0.4538
  896SOL     OW 2686   1.840   1.692   1.255 -0.2194  0.4025  0.4593
  896SOL    HW1 2687   1.940   1.673   1.273  0.6378  1.1545 -0.0553
  896SOL    HW2 2688   1.800   1.641   1.172 -1.1211  1.9708  0.7380
  897SOL     OW 2689   0.270   0.524   2.996 -0.7385  0.2621  0.0678
  897SOL    HW1 2690   0.201   0.594   2.958 -2.2990  1.1147 -1.8207
  897SOL    HW2 2691   0.363   0.572   3.005  1.2391  2.1217 -1.9908
  898SOL     OW 2692   0.666   2.846   1.110  0.1552 -0.3434  0.2931
  898SOL    HW1 2693   0.750   2.907   1.103  2.0898 -0.7322 -1.0827
  898SOL    HW2 2694   0.655   2.793   1.200 -0.4068  1.5359  0.1848
  899SOL     OW 2695   2.867   0.940   1.387  0.2750 -0.5104 -0.4314
  899SOL    HW1 2696   2.847   1.008   1.310  2.4803  3.4212 -0.1600
  899SOL    HW2 2697   2.966   0.936   1.416 -0.0535  0.7211 -1.9104
  900SOL     OW 2698   0.963   2.511   2.429 -0.3603 -0.0387  0.9478
  900SOL    HW1 2699   0.909   2.494   2.338  1.3208  1.3287  0.1993
  900SOL    HW2 2700   0.901   2.528   2.508  1.3231 -1.2263  0.5960
  901SOL     OW 2701   1.881   2.372   1.446  0.1312 -0.5498 -0.2662
  901SOL    HW1 2702   1.915   2.292   1.391 -1.2279  0.4686  0.2012
  901SOL    HW2 2703   1.946   2.450   1.449  0.5489 -0.2935 -1.4490
  902SOL     OW 2704   2.618   1.669   1.508 -1.0523 -0.1732 -0.7212
  902SOL    HW1 2705   2.685   1.656   1.587 -1.9410  1.5656 -0.1242
  902SOL    HW2 2706   2.658   1.639   1.420 -1.2041 -0.9893  1.0767
  903SOL     OW 2707   0.284   2.353   2.004  0.0763 -0.0791  0.3930
  903SOL    HW1 2708   0.280   2.249   2.013  0.0044 -0.4083 -0.8916
  903SOL    HW2 2709   0.267   2.384   1.903  1.2290  3.6786 -1.2034
  904SOL     OW 2710   1.969   0.800   2.456  0.1729  0.1449 -0.3270
  904SOL    HW1 2711   1.908   0.729   2.502  3.3776 -0.4913 -0.0827
  904SOL    HW2 2712   2.016   0.770   2.370  3.8556  0.3448  1.4240
  905SOL     OW 2713   2.816   0.116   2.404  0.0693  0.0546  0.1459
  905SOL    HW1 2714   2.886   0.043   2.397 -1.4604  1.1555 -1.7188
  905SOL    HW2 2715   2.856   0.200   2.452 -2.8813  0.8099 -1.1500
  906SOL     OW 2716   0.160   1.726   1.896 -0.0924  0.4751  0.3355
  906SOL    HW1 2717   0.107   1.735   1.807 -0.6282 -0.7659  1.4579
  906SOL    HW2 2718   0.200   1.816   1.923 -0.7909 -1.5812 -1.8106
  907SOL     OW 2719   0.253   2.487   0.979  0.1024  0.0892  0.1821
  907SOL    HW1 2720   0.350   2.446   0.967  0.2684 -1.6608 -0.7946
  907SOL    HW2 2721   0.257   2.587   0.939 -1.1558 -0.0914 -1.7512
  908SOL     OW 2722   2.873   2.949   0.394 -0.1121  0.1486 -0.0080
  908SOL    HW1 2723   2.799   3.000   0.347 -0.3904 -1.3180  3.5833
  908SOL    HW2 2724   2.916   2.869   0.338  1.7616 -0.2179 -1.2701
  909SOL     OW 2725   0.897   1.033   2.640 -0.0688 -0.1228 -0.4336
  909SOL    HW1 2726   0.847   0.944   2.624  1.0515  0.0768 -1.5313
  909SOL    HW2 2727   0.954   1.057   2.551  1.6071 -0.3194 -1.4632
  910SOL     OW 2728   1.862   1.871   2.105 -0.4390 -0.3107  0.4306
  910SOL    HW1 2729   1.921   1.917   2.037 -1.8976 -0.5299 -0.2806
  910SOL    HW2 2730   1.783   1.933   2.130  1.7276  2.5708 -2.6838
  911SOL     OW 2731   1.778   2.845   1.549 -0.5947  0.5149  0.3155
  911SOL    HW1 2732   1.874   2.838   1.506 -0.1325 -1.0380  1.1506
  911SOL    HW2 2733   1.766   2.779   1.627  0.1144 -0.7949 -0.4644
  912SOL     OW 2734   2.824   1.001   0.722 -0.0166 -0.4068 -0.5015
  912SOL    HW1 2735   2.833   0.967   0.819  1.8585 -3.5353 -2.7568
  912SOL    HW2 2736   2.778   1.094   0.712 -0.5636  0.2516  2.1448
  913SOL     OW 2737   2.591   1.295   1.596  0.0445  0.1512  0.1706
  913SOL    HW1 2738   2.604   1.191   1.598 -3.1160 -3.3846  0.9227
  913SOL    HW2 2739   2.638   1.333   1.509 -0.8019 -1.0876 -1.0581
  914SOL     OW 2740   2.902   0.566   1.144 -0.3083  0.1052  0.3201
  914SOL    HW1 2741   2.889   0.464   1.134  0.2879 -0.7905  2.6312
  914SOL    HW2 2742   2.885   0.596   1.242 -1.8413 -1.4625  1.3640
  915SOL     OW 2743   1.199   0.670   0.926  0.4438  0.3031 -0.6508
  915SOL    HW1 2744   1.254   0.720   1.003  0.0635  2.2255 -0.5963
  915SOL    HW2 2745   1.097   0.664   0.944  1.3728  0.1534  1.2853
  916SOL     OW 2746   0.590   0.093   0.670  0.8090  0.4164 -0.1806
  916SOL    HW1 2747   0.650   0.153   0.726 -2.6023 -2.4188  2.2987
  916SOL    HW2 2748   0.524   0.144   0.617  3.6709 -0.3759 -0.3190
  917SOL     OW 2749   2.848   2.639   2.037 -0.2974 -0.4953 -0.1548
  917SOL    HW1 2750   2.754   2.636   1.988 -0.6385 -0.6519  2.3566
  917SOL    HW2 2751   2.929   2.674   1.977  2.0341  0.7488  2.8700
  918SOL     OW 2752   1.073   2.088   3.035  0.3360 -0.1085  0.4779
  918SOL    HW1 2753   1.071   2.180   3.087 -1.2822 -1.4715  1.9865
  918SOL    HW2 2754   1.140   2.090   2.954 -0.1717  2.8173 -2.2825
  919SOL     OW 2755   0.765   1.683   2.769 -0.5348 -0.2627  0.7637
  919SOL    HW1 2756   0.843   1.756   2.760 -0.6502 -0.1397 -2.1136
  919SOL    HW2 2757   0.760   1.617   2.685 -1.3725 -2.3370  2.3858
  920SOL     OW 2758   1.358   1.804   2.463 -0.2340  0.1674  0.6409
  920SOL    HW1 2759   1.454   1.812   2.431 -0.4348 -3.0486  1.7353
  920SOL    HW2 2760   1.349   1.750   2.547 -2.5462  1.8993 -0.0517
  921SOL     OW 2761   1.122   0.139   2.567 -0.2463 -0.0941 -0.0948
  921SOL    HW1 2762   1.141   0.102   2.475  0.1489 -1.8042 -0.4874
  921SOL    HW2 2763   1.018   0.133   2.592 -0.3626 -0.8329  0.3068
  922SOL     OW 2764   2.167   2.446   2.857  0.2591  0.8391 -0.4391
  922SOL    HW1 2765   2.216   2.353   2.855  0.5013  0.9115 -0.5954
  922SOL    HW2 2766   2.083   2.453   2.803  3.5557  1.1020  0.0653
  923SOL     OW 2767   1.176   2.707   0.284 -0.7158  0.2233 -0.0856
  923SOL    HW1 2768   1.250   2.745   0.350  1.1814  1.6369 -2.5116
  923SOL    HW2 2769   1.200   2.606   0.264  1.0094 -0.3376  0.7696
  924SOL     OW 2770   2.920   1.681   0.135  0.6022  0.0214  0.3631
  924SOL    HW1 2771   2.833   1.673   0.087  2.9075 -0.6569  0.2647
  924SOL    HW2 2772   2.995   1.617   0.109 -3.6146  0.3135 -0.8656
  925SOL     OW 2773   3.086   2.886   1.587  0.3686  0.4491  0.0162
  925SOL    HW1 2774   2.994   2.880   1.627  2.5934 -1.6588 -0.0821
  925SOL    HW2 2775   3.104   2.819   1.507  0.6943  1.1823  0.8440
  926SOL     OW 2776   1.243   2.725   1.326  0.3992  0.5660 -0.3299
  926SOL    HW1 2777   1.266   2.755   1.225  1.8640 -2.3884 -1.6859
  926SOL    HW2 2778   1.253   2.799   1.401  1.2965  0.9082  0.9682
  927SOL     OW 2779   0.374   2.569   1.786 -0.1141  0.4945 -0.2077
  927SOL    HW1 2780   0.334   2.518   1.706  0.6716 -0.6722  0.7642
  927SOL    HW2 2781   0.365   2.671   1.772 -0.0738  0.6451  1.1253
  928SOL     OW 2782   1.672   2.066   2.189  0.1375  0.3266  0.8359
  928SOL    HW1 2783   1.711   2.140   2.120  0.1248  1.4554 -2.5361
  928SOL    HW2 2784   1.568   2.064   2.181 -0.4036 -0.8428  1.4465
  929SOL     OW 2785   2.438   2.515   2.918  0.2409  0.2415 -0.1431
  929SOL    HW1 2786   2.333   2.511   2.916 -0.9102 -1.8420 -1.2702
  929SOL    HW2 2787   2.474   2.533   2.827 -3.5125 -4.6263  2.3859
  930SOL     OW 2788   2.136   2.057   1.056 -0.2573  0.2937  0.6484
  930SOL    HW1 2789   2.161   2.007   1.146 -0.1027  2.7225  0.3655
  930SOL    HW2 2790   2.163   2.158   1.061 -2.6962  2.7159 -0.3184
  931SOL     OW 2791   0.471   1.603   2.636  0.2248 -0.1363  0.0161
  931SOL    HW1 2792   0.485   1.622   2.740 -0.2297 -1.0892  1.3868
  931SOL    HW2 2793   0.554   1.548   2.600 -1.0999 -1.8434 -2.2959
  932SOL     OW 2794   0.357   0.035   3.096  0.3504 -0.8870 -0.5677
  932SOL    HW1 2795   0.394   0.122   3.050 -1.3536  0.2991 -0.9893
  932SOL    HW2 2796   0.414  -0.053   3.068 -0.9292 -1.3264 -1.4393
  933SOL     OW 2797   0.989   0.835   2.984 -0.0410  0.2271  0.5320
  933SOL    HW1 2798   1.017   0.894   3.067  0.3883  0.1432 -0.2860
  933SOL    HW2 2799   0.956   0.742   3.007  2.5518 -0.0549 -3.4822
  934SOL     OW 2800   0.882   2.944   2.613 -0.1286 -0.1703 -0.5817
  934SOL    HW1 2801   0.850   2.870   2.542 -2.6393 -2.5771 -2.6022
  934SOL    HW2 2802   0.932   2.899   2.687 -3.1988  0.4733 -1.3491
  935SOL     OW 2803   0.034   0.637   0.743 -0.6270 -0.3546  0.5505
  935SOL    HW1 2804  -0.019   0.592   0.664  0.3120  2.0081  0.5003
  935SOL    HW2 2805  -0.029   0.680   0.805 -0.2484  2.0441 -3.5816
  936SOL     OW 2806   1.105   2.894   0.081  0.3220 -0.6372  0.3809
  936SOL    HW1 2807   1.193   2.929   0.036 -0.9922  0.8817 -0.2224
  936SOL    HW2 2808   1.127   2.827   0.157  0.8429 -0.8218 -0.5163
  937SOL     OW 2809   2.012   2.608   2.098 -0.4484 -0.0899 -0.2901
  937SOL    HW1 2810   1.957   2.660   2.175  1.7392  0.4563 -0.0030
  937SOL    HW2 2811   2.026   2.663   2.015 -0.7937 -1.1426 -0.0397
  938SOL     OW 2812   2.767   2.107   1.530  0.1715  0.2277  0.7330
  938SOL    HW1 2813   2.750   2.208   1.539  3.1930 -0.2311 -0.5500
  938SOL    HW2 2814   2.847   2.078   1.587 -1.3216  2.9704 -1.2266
  939SOL     OW 2815   2.838   1.217   2.483  0.1282 -0.7470  0.0010
  939SOL    HW1 2816   2.921   1.197   2.424 -0.5419  0.2786  0.3650
  939SOL    HW2 2817   2.823   1.150   2.560 -2.4294  3.2694 -0.2553
  940SOL     OW 2818   1.065   0.418   2.733 -0.1865  0.0213  0.2079
  940SOL    HW1 2819   1.160   0.381   2.742 -0.6601 -0.1437 -0.4863
  940SOL    HW2 2820   1.019   0.391   2.640 -1.8182  0.9007 -0.7053
  941SOL     OW 2821   0.090   2.806   2.296 -0.3252  0.5329 -0.3215
  941SOL    HW1 2822   0.112   2.708   2.264 -2.3814 -0.1193 -0.7342
  941SOL    HW2 2823   0.167   2.876   2.286  0.7140 -2.4053 -1.5709
  942SOL     OW 2824   0.151   0.040   2.426 -0.3537  0.0935  0.0424
  942SOL    HW1 2825   0.158   0.045   2.529 -2.4407  0.6192 -0.4943
  942SOL    HW2 2826   0.124   0.125   2.381  3.6556 -1.4158 -1.2588
  943SOL     OW 2827   2.134   1.679   2.367 -0.4702  0.3954 -0.2657
  943SOL    HW1 2828   2.115   1.640   2.273  0.5806  4.2920 -0.6194
  943SOL    HW2 2829   2.162   1.603   2.440  0.1171 -0.2321  3.2991
  944SOL     OW 2830   2.176   2.309   1.561  0.7729 -0.2115  0.2451
  944SOL    HW1 2831   2.201   2.324   1.662  1.5501  2.3173  2.3818
  944SOL    HW2 2832   2.124   2.223   1.539 -1.0280  1.7436  1.5481
  945SOL     OW 2833   0.644   1.626   0.172  0.4775  0.7874 -0.6128
  945SOL    HW1 2834   0.560   1.606   0.115 -0.3909  1.1995  2.9181
  945SOL    HW2 2835   0.704   1.541   0.190 -0.4026 -1.2413 -0.1389
  946SOL     OW 2836   0.365   0.990   2.591  0.6285  0.3428 -0.6595
  946SOL    HW1 2837   0.341   0.932   2.512  0.3079 -1.4109  1.8416
  946SOL    HW2 2838   0.403   1.079   2.560 -0.0197 -1.6759 -0.0695
  947SOL     OW 2839   1.489   0.538   3.029 -0.5780  0.0171  0.3028
  947SOL    HW1 2840   1.483   0.619   2.961  0.4589  0.4613 -0.0868
  947SOL    HW2 2841   1.395   0.492   3.044  0.0380 -0.9667 -1.6147
  948SOL     OW 2842   1.935   2.949   2.134  0.4968 -0.6154  0.4639
  948SOL    HW1 2843   1.930   2.926   2.029  1.9232  1.2020 -2.3538
  948SOL    HW2 2844   1.911   2.871   2.199 -0.6630 -0.0729  0.6550
  949SOL     OW 2845   0.582   2.519   0.435  0.1047 -0.2417  0.3391
  949SOL    HW1 2846   0.600   2.620   0.409  0.8384 -1.2450 -0.5786
  949SOL    HW2 2847   0.624   2.497   0.523 -2.5365  1.9623  0.4580
  950SOL     OW 2848   0.229   2.235   2.957 -0.3465  0.0274  0.3141
  950SOL    HW1 2849   0.198   2.320   2.908  0.9952 -1.3895  0.0706
  950SOL    HW2 2850   0.270   2.159   2.895 -0.2253 -5.5223 -2.9447
  951SOL     OW 2851   1.256   2.679   2.800  0.1934  0.2714  0.0698
  951SOL    HW1 2852   1.333   2.610   2.827 -0.6167  0.1289 -1.8642
  951SOL    HW2 2853   1.263   2.712   2.704 -3.7515 -1.7757 -0.4168
  952SOL     OW 2854   0.028   1.621   0.417 -0.3933  0.4921 -0.7424
  952SOL    HW1 2855   0.057   1.720   0.423  0.6141  1.6616  0.3955
  952SOL    HW2 2856   0.073   1.568   0.490  1.5059  3.7235  1.0967
  953SOL     OW 2857   2.468   1.741   0.315  0.0355 -0.8000  0.1658
  953SOL    HW1 2858   2.467   1.633   0.331  1.1153 -1.6439 -1.5169
  953SOL    HW2 2859   2.454   1.764   0.216  0.7718  0.9253  0.0245
  954SOL     OW 2860   2.221   0.511   0.912  0.0690 -0.0048  0.1975
  954SOL    HW1 2861   2.219   0.530   0.809 -1.7409  0.4103 -1.0992
  954SOL    HW2 2862   2.298   0.554   0.974  0.3768 -0.1036  2.9067
  955SOL     OW 2863   0.153   2.617   1.384 -0.0260  0.2184 -0.0400
  955SOL    HW1 2864   0.049   2.634   1.370 -1.2069  2.3000 -1.0388
  955SOL    HW2 2865   0.213   2.696   1.356 -1.8913  1.6488 -1.4052
  956SOL     OW 2866   2.801   2.470   2.533 -0.0591  0.4650  0.3805
  956SOL    HW1 2867   2.832   2.372   2.514 -0.6531  2.0678 -1.2810
  956SOL    HW2 2868   2.791   2.524   2.447  1.4520 -0.8972 -0.8853
  957SOL     OW 2869   1.651   2.039   2.752 -0.0778 -0.1539 -0.2408
  957SOL    HW1 2870   1.636   1.946   2.794 -5.4000 -0.9355  1.5165
  957SOL    HW2 2871   1.673   2.031   2.652 -1.3349  1.0681  2.8339
  958SOL     OW 2872   2.596   2.232   3.023  0.2910  0.5773  0.0697
  958SOL    HW1 2873   2.505   2.264   3.053 -0.9246  0.0715 -1.6197
  958SOL    HW2 2874   2.657   2.199   3.104 -1.2782  0.3042  0.4479
  959SOL     OW 2875   0.381   2.817   0.107 -0.0015 -0.2197  0.5723
  959SOL    HW1 2876   0.285   2.839   0.093  1.8608  0.0703  2.1435
  959SOL    HW2 2877   0.392   2.715   0.130 -2.1069 -0.4632 -1.2660
  960SOL     OW 2878   1.926   0.527   1.910 -0.2901 -0.0578  0.0226
  960SOL    HW1 2879   1.880   0.605   1.865 -0.1778  0.2590 -0.3988
  960SOL    HW2 2880   1.919   0.536   2.018  0.2141 -1.0570  0.9605
  961SOL     OW 2881   2.515   1.895   1.058 -0.6101  0.1284  0.4787
  961SOL    HW1 2882   2.545   1.994   1.038  0.3851  0.0473  3.8021
  961SOL    HW2 2883   2.511   1.874   1.159  1.9057 -1.1397  0.2113
  962SOL     OW 2884   1.326   0.919   0.049 -0.1585 -0.3626 -0.6995
  962SOL    HW1 2885   1.308   0.967  -0.045  0.9087 -0.7530  0.0109
  962SOL    HW2 2886   1.300   0.979   0.132  1.4716  0.1547  3.7951
  963SOL     OW 2887   2.270   2.590   1.811  0.3390 -0.4257  0.0552
  963SOL    HW1 2888   2.239   2.489   1.827 -0.2903  0.1579 -0.9657
  963SOL    HW2 2889   2.305   2.632   1.899  2.2332  0.1902 -0.3958
  964SOL     OW 2890   2.331   0.391   1.647  0.0986  0.2657  0.5786
  964SOL    HW1 2891   2.425   0.375   1.689  3.2419  0.3471  3.0428
  964SOL    HW2 2892   2.342   0.408   1.544 -1.4376  0.9285 -0.3746
  965SOL     OW 2893   2.661   3.037   0.218 -0.5162 -0.7757  0.3916
  965SOL    HW1 2894   2.718   3.017   0.135 -1.6940 -2.1395 -0.4745
  965SOL    HW2 2895   2.575   3.090   0.200 -1.9210 -1.0818  0.4690
  966SOL     OW 2896   2.508   2.499   2.257 -0.7483 -0.1095 -0.5361
  966SOL    HW1 2897   2.524   2.595   2.220 -0.9233  0.2762 -1.9232
  966SOL    HW2 2898   2.418   2.463   2.232 -0.5119  0.5620  1.1665
  967SOL     OW 2899   2.743   2.876   2.513 -0.2421 -0.8961 -0.5807
  967SOL    HW1 2900   2.749   2.792   2.450  1.7252 -1.5264  0.1228
  967SOL    HW2 2901   2.802   2.958   2.481  0.1422 -1.6224  1.4382
  968SOL     OW 2902   1.937   1.063   2.574  1.2155  0.3981  0.8449
  968SOL    HW1 2903   1.863   1.138   2.557 -1.8693 -1.5263 -0.5529
  968SOL    HW2 2904   1.919   0.980   2.511 -1.5607  1.9882 -1.9630
  969SOL     OW 2905   2.675   2.588   1.055  0.7385 -0.0175  0.2582
  969SOL    HW1 2906   2.684   2.682   1.012  1.5498 -1.0683  0.9947
  969SOL    HW2 2907   2.677   2.517   0.982  0.7963  0.3345 -0.5553
  970SOL     OW 2908   1.061   2.122   1.867  1.1974 -0.6238  0.4526
  970SOL    HW1 2909   1.055   2.041   1.933  0.1278  0.6935  1.7652
  970SOL    HW2 2910   1.001   2.107   1.781 -0.8310  0.5135 -0.1130
  971SOL     OW 2911   2.931   2.174   1.974 -0.3126  0.2992 -0.5177
  971SOL    HW1 2912   2.911   2.251   2.042 -1.8887  0.1781 -0.3719
  971SOL    HW2 2913   2.992   2.210   1.899  1.6265 -0.8286  2.9765
  972SOL     OW 2914   1.875   2.457   0.263 -0.0826 -0.0310 -0.0606
  972SOL    HW1 2915   1.878   2.352   0.229  1.9627 -1.9576 -1.6234
  972SOL    HW2 2916   1.911   2.456   0.357 -1.1413  0.4853 -1.9980
  973SOL     OW 2917   1.127   0.884   1.895  0.0019  0.0225 -0.3044
  973SOL    HW1 2918   1.095   0.789   1.883  0.9236 -0.6640  3.7864
  973SOL    HW2 2919   1.079   0.955   1.831  1.4478  0.0632 -1.0933
  974SOL     OW 2920   1.556   0.550   1.966  0.3399 -0.8244  0.1519
  974SOL    HW1 2921   1.627   0.606   1.913  0.4670  0.5653  0.3029
  974SOL    HW2 2922   1.464   0.600   1.964  1.2068  0.7875  1.3554
  975SOL     OW 2923   2.389   3.010   0.033 -0.3797 -0.0937 -0.1979
  975SOL    HW1 2924   2.312   2.949   0.060 -1.2812 -0.1929  0.1835
  975SOL    HW2 2925   2.447   2.970  -0.040 -2.6979  3.3003  0.0492
  976SOL     OW 2926   1.931   2.739   2.332 -0.4582  0.0194 -0.2581
  976SOL    HW1 2927   1.836   2.734   2.375 -1.8576  0.1361 -1.3001
  976SOL    HW2 2928   2.010   2.766   2.394  1.8196 -1.9777  0.5181
  977SOL     OW 2929   0.508   0.658   0.964 -0.4350  0.5634  0.0734
  977SOL    HW1 2930   0.411   0.654   0.926 -1.0266  1.2528  0.3401
  977SOL    HW2 2931   0.557   0.750   0.932 -0.4367  1.2867  1.0872
   3.10000   3.10000   3.10000
