1000 SPC/Fw water molecules t=   0.81000 step= 810
 2931
    1SOL     OW    1   2.480   0.357   2.606  0.3960 -1.0006  0.3609
    1SOL    HW1    2   2.510   0.261   2.576 -0.6855 -1.8367  1.2695
    1SOL    HW2    3   2.512   0.387   2.702  1.8360 -3.8497  0.0034
    2SOL     OW    4   2.750   3.081   1.426  0.0762 -0.2062 -0.1419
    2SOL    HW1    5   2.818   3.101   1.347 -0.1545  3.3068  2.1324
    2SOL    HW2    6   2.694   3.164   1.461 -1.7640 -0.1696  0.9645
    3SOL     OW    7   2.736   2.616   0.357 -0.4706 -0.5440  0.3809
    3SOL    HW1    8   2.707   2.516   0.351 -0.4576  1.4094  1.9285
    3SOL    HW2    9   2.793   2.631   0.442 -0.5951 -1.1262  0.1880
    4SOL     OW   10   1.281   1.474   2.351 -0.0920 -0.2062 -0.2315
    4SOL    HW1   11   1.189   1.515   2.318  2.0561  1.5044 -3.0815
    4SOL    HW2   12   1.270   1.376   2.390  1.0910  2.0842 -2.5528
    5SOL     OW   13   1.139   1.505   3.083  0.1462 -0.2885 -0.1223
    5SOL    HW1   14   1.209   1.587   3.086  0.0922  0.6656  0.7516
    5SOL    HW2   15   1.056   1.521   3.139 -0.6960 -1.0820 -0.7852
    6SOL     OW   16   0.115   1.860   2.943  0.6479 -0.4938  0.3733
    6SOL    HW1   17   0.029   1.890   2.988  0.2782 -0.4605 -3.7291
    6SOL    HW2   18   0.182   1.813   3.009  2.5986 -2.1666 -0.2402
    7SOL     OW   19   2.597   0.929   1.141  0.6511 -0.5820 -0.2636
    7SOL    HW1   20   2.504   0.881   1.161  2.7825 -0.7655 -0.8735
    7SOL    HW2   21   2.602   0.937   1.036 -0.3453 -2.3978 -0.8560
    8SOL     OW   22   0.392   0.621   1.535  0.2059  0.2390  0.4725
    8SOL    HW1   23   0.464   0.544   1.546  0.6250 -0.2602 -1.3418
    8SOL    HW2   24   0.371   0.633   1.435 -1.0928  0.3083  1.2151
    9SOL     OW   25   1.175   0.871   2.388  0.1468 -0.4756  0.4150
    9SOL    HW1   26   1.255   0.898   2.325  0.0925 -0.3003 -0.0971
    9SOL    HW2   27   1.116   0.804   2.334  1.9006  0.6442 -3.2523
   10SOL     OW   28   0.639   1.333   1.300 -0.1930  0.5962  0.0665
   10SOL    HW1   29   0.544   1.338   1.258  0.7986  0.5592  1.9044
   10SOL    HW2   30   0.699   1.413   1.280  3.9888  0.2870  0.6774
   11SOL     OW   31   2.356   2.738   0.840 -0.4600  0.0864 -0.8316
   11SOL    HW1   32   2.293   2.779   0.918  1.7091  1.4636  1.3562
   11SOL    HW2   33   2.459   2.761   0.849  0.3831 -1.6170 -0.5310
   12SOL     OW   34   1.484   0.901   0.350  0.3613 -0.1136 -0.2378
   12SOL    HW1   35   1.418   0.968   0.310  0.0553 -1.2840 -3.3825
   12SOL    HW2   36   1.470   0.809   0.307 -2.5112  0.6331 -0.4878
   13SOL     OW   37   2.469   0.657   1.782  0.0533  0.1498  0.1395
   13SOL    HW1   38   2.378   0.659   1.833  1.0529 -2.7515 -1.3343
   13SOL    HW2   39   2.454   0.650   1.681  1.6617 -2.4909  0.2050
   14SOL     OW   40   1.892   0.052   0.738 -0.5193 -0.3201  0.1410
   14SOL    HW1   41   1.830   0.077   0.658 -1.3515  1.5639 -1.4089
   14SOL    HW2   42   1.853  -0.021   0.801  0.8179 -1.2506  0.9590
   15SOL     OW   43   1.991   2.087   2.732  0.3338  0.3449  0.0589
   15SOL    HW1   44   1.945   2.159   2.792  2.7856  0.9975 -1.3956
   15SOL    HW2   45   1.935   2.000   2.719 -0.5525 -0.2130  0.5825
   16SOL     OW   46   1.617   1.724   2.964  0.0294  0.3074  0.0645
   16SOL    HW1   47   1.628   1.626   2.996 -0.2009  2.2307  2.8663
   16SOL    HW2   48   1.703   1.780   2.992  2.5181 -1.2838 -2.7843
   17SOL     OW   49   0.145   0.521   0.200 -0.3979 -0.0589  0.5074
   17SOL    HW1   50   0.243   0.549   0.201  1.3129  1.1501  2.3335
   17SOL    HW2   51   0.110   0.531   0.102  1.2275  1.2867  1.4952
   18SOL     OW   52   0.965   2.946   2.096  1.0349 -0.6210 -0.1550
   18SOL    HW1   53   0.887   2.872   2.097 -2.4489 -0.9962  0.5162
   18SOL    HW2   54   1.046   2.924   2.037 -0.8763  0.9655  1.3057
   19SOL     OW   55   0.525   0.819   1.894 -0.3601  0.0425  0.1137
   19SOL    HW1   56   0.545   0.772   1.986  1.3398 -4.0223 -0.4424
   19SOL    HW2   57   0.618   0.833   1.837  3.7046 -1.0908 -1.3573
   20SOL     OW   58   0.218   2.701   0.843 -0.5370 -0.4397 -0.5761
   20SOL    HW1   59   0.143   2.768   0.820  0.1340  0.6763  2.5434
   20SOL    HW2   60   0.295   2.695   0.773 -0.9210 -0.7704 -0.5715
   21SOL     OW   61   2.739   0.211   2.099 -0.0516 -0.0998  0.2826
   21SOL    HW1   62   2.684   0.155   2.027 -1.8003 -0.7724 -0.5801
   21SOL    HW2   63   2.840   0.181   2.104  0.7960  0.7746 -1.2005
   22SOL     OW   64   2.387   0.232   0.124 -0.1149  0.0069  0.6738
   22SOL    HW1   65   2.387   0.126   0.111  2.0028 -0.6478  0.0013
   22SOL    HW2   66   2.290   0.269   0.118  3.2896 -0.3601 -2.6978
   23SOL     OW   67   2.774   0.655   0.644  0.2323  0.2919  0.1076
   23SOL    HW1   68   2.839   0.576   0.637  1.2120  1.3333  0.1617
   23SOL    HW2   69   2.777   0.722   0.569 -0.0690  0.1086 -2.6351
   24SOL     OW   70   0.196   1.913   0.370  0.8137 -0.3840 -0.2702
   24SOL    HW1   71   0.158   1.974   0.296 -2.0337 -1.3507 -0.2052
   24SOL    HW2   72   0.272   1.861   0.328 -0.9584  1.4734  0.1589
   25SOL     OW   73   2.200   0.549   0.328 -0.0388  0.0208 -0.7433
   25SOL    HW1   74   2.229   0.597   0.243 -0.9445 -0.3904  0.8838
   25SOL    HW2   75   2.270   0.470   0.343 -0.2440  0.8763  1.6543
   26SOL     OW   76   2.526   2.091   2.085 -0.0034 -0.3889 -0.2318
   26SOL    HW1   77   2.571   2.161   2.151  1.7617  1.2936 -0.0041
   26SOL    HW2   78   2.601   2.044   2.026 -2.1706 -0.4410  0.7583
   27SOL     OW   79   0.599   2.972   0.226 -0.2153 -0.0995  0.1782
   27SOL    HW1   80   0.699   2.956   0.208  1.1305 -0.1305 -1.3268
   27SOL    HW2   81   0.552   2.990   0.137  1.2774  0.1199 -0.2620
   28SOL     OW   82   1.574   0.154   0.281 -0.4969 -0.1967 -0.3365
   28SOL    HW1   83   1.619   0.145   0.190 -2.2671 -1.3505 -1.3277
   28SOL    HW2   84   1.589   0.249   0.323  1.0596 -0.0796  0.1417
   29SOL     OW   85   1.964   0.597   0.423  0.0183 -0.1725 -0.0367
   29SOL    HW1   86   1.928   0.698   0.430 -1.3385  1.8632  1.2734
   29SOL    HW2   87   2.060   0.595   0.385  1.0777  1.6324  1.8617
   30SOL     OW   88   0.185   1.983   0.917 -0.0063 -0.4015  0.1923
   30SOL    HW1   89   0.189   1.999   0.813 -1.1947 -0.4413 -2.7067
   30SOL    HW2   90   0.121   2.053   0.970 -0.7008  1.5778  1.8020
   31SOL     OW   91   2.115   3.066   2.321 -0.5580 -0.0999  0.5602
   31SOL    HW1   92   2.079   3.058   2.419 -0.8517 -0.1206  0.1593
   31SOL    HW2   93   2.096   2.984   2.262  2.6485  1.3104 -3.4614
   32SOL     OW   94   2.956   0.100   0.205 -0.4698  0.1152  0.3845
   32SOL    HW1   95   2.933   0.028   0.271  0.6486 -0.1871  0.5623
   32SOL    HW2   96   3.053   0.142   0.222  1.3825 -0.2632  2.9388
   33SOL     OW   97   0.953   0.283   0.615  0.1205  0.2129 -0.0917
   33SOL    HW1   98   0.940   0.186   0.576  3.1180  1.3882 -0.3499
   33SOL    HW2   99   1.053   0.315   0.601  0.7289  0.8249 -0.5543
   34SOL     OW  100   0.302   2.784   1.085  0.0013  0.2041  0.9366
   34SOL    HW1  101   0.268   2.758   0.988  1.0242  0.9075 -2.9089
   34SOL    HW2  102   0.407   2.801   1.085 -0.3126 -0.3832 -0.5726
   35SOL     OW  103   0.022   0.152   1.862 -0.0931 -0.9226  0.3500
   35SOL    HW1  104   0.052   0.055   1.881  0.0780  0.7361  2.8530
   35SOL    HW2  105  -0.035   0.167   1.775  0.7253 -0.0185  0.2324
   36SOL     OW  106   1.947   1.163   1.743 -0.8318  0.2716  0.2487
   36SOL    HW1  107   2.011   1.111   1.676  0.1420  0.6160 -2.3818
   36SOL    HW2  108   1.998   1.226   1.812  0.5352 -1.1717 -3.4339
   37SOL     OW  109   1.198   0.151   0.930 -0.5328 -0.1515  0.6499
   37SOL    HW1  110   1.236   0.198   1.014  2.2847  1.3186  0.0518
   37SOL    HW2  111   1.273   0.101   0.876 -0.2207  1.8628 -1.7451
   38SOL     OW  112   1.077   2.791   2.477 -0.0453 -0.8495  0.4086
   38SOL    HW1  113   1.028   2.716   2.432  1.3811  0.8538 -3.6103
   38SOL    HW2  114   1.026   2.883   2.469  0.2831  0.2914  2.1393
   39SOL     OW  115   2.301   1.388   3.030 -0.1973 -0.1398  0.3764
   39SOL    HW1  116   2.391   1.334   3.028  2.4986  1.9585 -3.0281
   39SOL    HW2  117   2.297   1.446   3.114 -0.6418  0.2055 -0.2830
   40SOL     OW  118   2.085   2.482   2.561 -0.6355 -0.2316 -0.3211
   40SOL    HW1  119   2.099   2.583   2.554  0.3266  0.3669  1.7644
   40SOL    HW2  120   2.014   2.439   2.499 -1.2795  2.4102 -0.2289
   41SOL     OW  121   3.029   0.684   2.843  0.8663 -0.0022  0.3001
   41SOL    HW1  122   2.960   0.751   2.814  1.3849 -0.0409  1.1029
   41SOL    HW2  123   3.006   0.583   2.840  1.2826 -1.6244  3.4742
   42SOL     OW  124   1.761   1.734   0.486  0.3636 -0.6741 -0.5186
   42SOL    HW1  125   1.712   1.644   0.467  1.8378  1.7161 -2.0859
   42SOL    HW2  126   1.827   1.756   0.408 -0.0206 -1.8198  0.1062
   43SOL     OW  127   0.469   1.683   1.106  0.5328 -0.3339  0.3185
   43SOL    HW1  128   0.475   1.583   1.119 -0.9432  1.4871  1.1497
   43SOL    HW2  129   0.368   1.720   1.109  0.5085 -0.0916  3.8746
   44SOL     OW  130   1.816   2.495   3.059 -0.6348  0.0946 -0.2964
   44SOL    HW1  131   1.806   2.590   3.015 -1.2700  0.5939  2.6634
   44SOL    HW2  132   1.864   2.430   2.995 -2.3846 -1.1521  1.3006
   45SOL     OW  133   0.439   1.938   2.604  0.3213 -0.1638  0.1164
   45SOL    HW1  134   0.393   1.908   2.520 -0.6436  2.3583  2.5651
   45SOL    HW2  135   0.485   1.854   2.644  0.6482 -0.0894 -0.7781
   46SOL     OW  136   1.249   0.706   0.200  0.2740 -0.0275 -0.3499
   46SOL    HW1  137   1.268   0.796   0.150 -0.6599  1.9670  1.2348
   46SOL    HW2  138   1.147   0.684   0.209 -3.1705  1.0346  2.1407
   47SOL     OW  139   0.235   2.499   1.596  0.1979  0.2272 -0.7824
   47SOL    HW1  140   0.179   2.413   1.614 -2.5526  0.9280  2.8463
   47SOL    HW2  141   0.226   2.533   1.502 -1.4654 -3.8527  0.6550
   48SOL     OW  142   2.631   0.645   0.126 -0.6292 -0.2633  0.1106
   48SOL    HW1  143   2.612   0.598   0.218 -2.5788  0.8046 -1.5280
   48SOL    HW2  144   2.721   0.703   0.125  2.9912  0.3555  0.3717
   49SOL     OW  145   0.328   0.800   1.718  0.3029  0.2919  0.6469
   49SOL    HW1  146   0.400   0.812   1.795 -1.4899  0.6034  3.1535
   49SOL    HW2  147   0.353   0.721   1.653 -1.2446  1.0759  1.3017
   50SOL     OW  148   1.667   1.113   0.298 -0.2818  0.0439  0.2590
   50SOL    HW1  149   1.661   1.010   0.270  1.4112 -0.7638  2.7648
   50SOL    HW2  150   1.595   1.141   0.374  0.2894 -1.1115  2.5745
   51SOL     OW  151   2.898   1.877   0.315 -0.4508 -0.5297 -0.0462
   51SOL    HW1  152   2.824   1.813   0.276 -0.1313 -1.1370 -0.9652
   51SOL    HW2  153   2.978   1.829   0.354  2.6165  0.5194  1.5172
   52SOL     OW  154   0.782   2.000   0.494 -0.0801  0.2039 -0.0972
   52SOL    HW1  155   0.704   2.066   0.533 -2.3600  0.8397 -0.9847
   52SOL    HW2  156   0.815   1.929   0.566 -0.3967 -3.1495  0.0995
   53SOL     OW  157   0.172   0.419   1.613 -0.1651  0.1924 -0.3329
   53SOL    HW1  158   0.247   0.492   1.622  0.6734 -2.2918  3.7428
   53SOL    HW2  159   0.082   0.461   1.580 -0.1866  0.7627  0.3969
   54SOL     OW  160   1.805   0.476   3.055  0.7122 -0.1473 -0.2352
   54SOL    HW1  161   1.850   0.409   3.123 -1.3018 -1.4135  1.8920
   54SOL    HW2  162   1.704   0.488   3.070  1.7493 -0.1455  1.3220
   55SOL     OW  163   0.766   2.882   0.692 -0.0075  0.0384  0.1170
   55SOL    HW1  164   0.742   2.979   0.714 -0.8635 -1.5391  0.5346
   55SOL    HW2  165   0.867   2.881   0.664 -0.1025 -0.3932 -0.0150
   56SOL     OW  166   0.495   1.611   0.025  0.2988 -0.3376 -0.3729
   56SOL    HW1  167   0.404   1.652   0.038 -1.1970  0.5179 -2.3005
   56SOL    HW2  168   0.492   1.525  -0.037  0.6873 -0.8907  0.3774
   57SOL     OW  169   1.729   2.515   2.511  0.0648 -0.3204 -0.7400
   57SOL    HW1  170   1.790   2.433   2.498  1.7794 -1.9234 -0.1595
   57SOL    HW2  171   1.642   2.506   2.577 -0.3072  1.3877  0.8211
   58SOL     OW  172   0.642   0.285   1.038 -0.0395 -0.7036 -0.1562
   58SOL    HW1  173   0.537   0.305   1.028  1.5390  1.6841 -1.7606
   58SOL    HW2  174   0.665   0.183   1.052  1.7693 -2.5930  0.1925
   59SOL     OW  175   0.447   2.450   2.749 -0.3428 -0.0416  0.1237
   59SOL    HW1  176   0.504   2.382   2.704  1.5787  2.6932  0.4771
   59SOL    HW2  177   0.509   2.499   2.816  0.5842  0.3497 -2.8543
   60SOL     OW  178   2.289   2.045   2.196  0.0066 -0.3462  0.2534
   60SOL    HW1  179   2.387   2.054   2.148 -0.5989  0.1528 -2.8263
   60SOL    HW2  180   2.292   2.090   2.293 -2.4870 -0.8091 -1.6677
   61SOL     OW  181   1.343   0.629   0.510  0.2176  0.1248 -0.1098
   61SOL    HW1  182   1.283   0.698   0.559  0.4222 -1.6455 -2.0694
   61SOL    HW2  183   1.341   0.644   0.411  0.0439 -1.1607  2.0898
   62SOL     OW  184   2.773   1.804   2.898  0.1942 -0.3623  0.1996
   62SOL    HW1  185   2.762   1.742   2.983  0.0648 -0.6489  0.6056
   62SOL    HW2  186   2.860   1.780   2.850 -0.9655 -3.0936 -2.6032
   63SOL     OW  187   0.606   0.919   0.164 -0.0100 -0.2880  0.5885
   63SOL    HW1  188   0.645   0.931   0.069 -4.3079 -1.2418  2.2122
   63SOL    HW2  189   0.670   0.871   0.228 -1.4432  0.1550  0.5021
   64SOL     OW  190   0.106   0.486   2.475 -0.3727 -0.1447  0.4222
   64SOL    HW1  191   0.202   0.444   2.454  2.3902  0.4090 -0.7675
   64SOL    HW2  192   0.094   0.579   2.437 -0.2814 -0.1390 -2.3763
   65SOL     OW  193   0.158   1.479   0.561  0.0944  0.3155 -0.0538
   65SOL    HW1  194   0.195   1.546   0.637 -3.8257 -0.3025  2.3956
   65SOL    HW2  195   0.228   1.451   0.490 -0.3228  1.0885 -0.0540
   66SOL     OW  196   2.558   0.398   0.598  0.2050  0.1527 -0.0047
   66SOL    HW1  197   2.652   0.442   0.622 -1.0948 -0.1336 -0.0806
   66SOL    HW2  198   2.534   0.316   0.655  0.1526  2.4528  0.0411
   67SOL     OW  199   0.540   2.533   1.363  0.2077  0.0257 -0.2353
   67SOL    HW1  200   0.599   2.516   1.446 -1.0475  1.8651  3.5580
   67SOL    HW2  201   0.458   2.467   1.367 -0.5986 -1.9196  4.2297
   68SOL     OW  202   1.023   1.090   2.453 -0.2148  0.2977  0.3286
   68SOL    HW1  203   1.069   0.999   2.436 -0.2797  0.6402 -1.3389
   68SOL    HW2  204   0.942   1.109   2.392 -0.5003 -0.7012 -0.2866
   69SOL     OW  205   0.741   2.741   2.166 -0.2102 -1.0643  0.5110
   69SOL    HW1  206   0.759   2.639   2.178  0.8086  0.9177 -0.6426
   69SOL    HW2  207   0.639   2.767   2.162 -2.1940  0.9855 -1.8445
   70SOL     OW  208   0.523   0.329   2.699 -0.3569 -0.0672 -0.2396
   70SOL    HW1  209   0.479   0.339   2.792  1.7188 -1.0096 -0.7608
   70SOL    HW2  210   0.528   0.226   2.673 -0.5374 -0.6461  2.8397
   71SOL     OW  211   1.093   1.746   0.422  0.5002  0.0565  1.0841
   71SOL    HW1  212   1.022   1.694   0.467  0.9165  1.6780 -0.1958
   71SOL    HW2  213   1.064   1.769   0.322 -0.6395 -1.0942  0.2460
   72SOL     OW  214   1.842   0.196   2.147  0.0746  0.6273  0.5201
   72SOL    HW1  215   1.940   0.233   2.138 -1.4434  0.6117 -0.2003
   72SOL    HW2  216   1.839   0.093   2.134 -0.9464 -1.2706  1.2147
   73SOL     OW  217   2.820   2.161   2.415  0.0397  0.4670  0.7011
   73SOL    HW1  218   2.787   2.069   2.367  0.8658 -0.5662 -1.7300
   73SOL    HW2  219   2.826   2.145   2.515 -1.5718 -0.5369 -4.8791
   74SOL     OW  220   2.681   2.914   2.128 -1.3022 -0.1586  0.0599
   74SOL    HW1  221   2.628   2.914   2.219 -0.1924 -0.1463  1.4847
   74SOL    HW2  222   2.777   2.955   2.132  2.7343  0.1357 -0.0580
   75SOL     OW  223   0.906   0.764   1.102 -0.0872  0.4747  0.4124
   75SOL    HW1  224   0.825   0.817   1.066  0.3642 -0.8702 -2.2736
   75SOL    HW2  225   0.925   0.803   1.194 -2.4935  0.2570  0.6107
   76SOL     OW  226   1.698   1.210   2.506 -0.2930 -0.8335  0.1106
   76SOL    HW1  227   1.604   1.173   2.522  2.0307  0.3960 -0.4768
   76SOL    HW2  228   1.727   1.296   2.556  2.6152  1.3126 -1.8833
   77SOL     OW  229   2.987   0.923   0.962 -0.1743  0.3753 -0.2028
   77SOL    HW1  230   3.021   0.825   0.937  0.7416 -1.4547  0.7237
   77SOL    HW2  231   3.043   0.955   1.047 -0.5873  1.7980 -1.4209
   78SOL     OW  232   2.090   1.462   1.511 -0.5671  0.5097  0.2930
   78SOL    HW1  233   2.178   1.452   1.458 -1.7627 -1.4623  1.2084
   78SOL    HW2  234   2.004   1.458   1.453 -0.2005  2.7067 -1.6035
   79SOL     OW  235   0.610   1.363   0.877  0.3467  0.4310  0.0959
   79SOL    HW1  236   0.509   1.381   0.876  0.0037  0.7861  0.5006
   79SOL    HW2  237   0.643   1.310   0.793 -1.9890  0.4710  0.8737
   80SOL     OW  238   0.621   0.475   1.579  0.0612  0.1525  0.1277
   80SOL    HW1  239   0.685   0.542   1.529 -0.8397  1.8753  1.2026
   80SOL    HW2  240   0.644   0.378   1.559  2.1520  2.4445  1.0094
   81SOL     OW  241   1.042   1.398   2.631 -0.1723  0.1821  0.0545
   81SOL    HW1  242   1.077   1.300   2.634 -0.2873  2.3487  0.4285
   81SOL    HW2  243   0.965   1.407   2.566  1.9572 -3.3418 -1.6125
   82SOL     OW  244   1.013   2.933   1.501 -0.1399 -0.0069  0.0069
   82SOL    HW1  245   1.010   3.004   1.424  0.4779 -0.4491 -0.1440
   82SOL    HW2  246   0.925   2.875   1.508 -1.0280  0.0111  1.6707
   83SOL     OW  247   2.739   2.468   0.852 -0.3828 -0.6694 -0.1836
   83SOL    HW1  248   2.664   2.415   0.804 -0.1529  1.8258  4.0726
   83SOL    HW2  249   2.729   2.568   0.827 -1.5234  0.6819 -0.0897
   84SOL     OW  250   0.626   3.051   2.374 -0.2470 -0.5449  0.1756
   84SOL    HW1  251   0.540   3.007   2.416  1.4181  0.3300 -1.1237
   84SOL    HW2  252   0.711   3.008   2.403 -0.1898  1.8804 -0.0157
   85SOL     OW  253   0.284   1.567   1.496 -0.8150  0.0059 -0.2604
   85SOL    HW1  254   0.238   1.660   1.511 -2.8507  2.5531 -3.5046
   85SOL    HW2  255   0.366   1.546   1.561  0.8655 -1.0814  0.1429
   86SOL     OW  256   0.391   0.994   1.532  0.4125  0.0232  0.3146
   86SOL    HW1  257   0.392   0.950   1.438  0.3045  2.1725 -0.1552
   86SOL    HW2  258   0.397   0.928   1.611 -0.8497  1.3006 -0.8579
   87SOL     OW  259   1.600   0.661   0.212 -0.5244  0.5690 -0.1973
   87SOL    HW1  260   1.667   0.735   0.200 -0.8921 -3.0949 -1.8499
   87SOL    HW2  261   1.554   0.626   0.122  0.3699 -2.0575 -0.8265
   88SOL     OW  262   1.606   1.376   0.198  0.0829  0.3943 -0.3151
   88SOL    HW1  263   1.642   1.292   0.247  0.7140  1.2677 -0.1406
   88SOL    HW2  264   1.504   1.382   0.206  2.7739  3.6801 -1.5606
   89SOL     OW  265   0.016   0.428   0.577 -0.3414  0.1999  0.1025
   89SOL    HW1  266   0.072   0.362   0.519 -2.2176 -0.4575 -0.4338
   89SOL    HW2  267  -0.080   0.390   0.598 -0.2114 -0.0963  1.9197
   90SOL     OW  268   0.886   1.614   0.057 -0.5025 -0.3463  0.1378
   90SOL    HW1  269   0.811   1.564   0.114 -3.5804 -1.4246 -1.2202
   90SOL    HW2  270   0.864   1.616  -0.043  0.9370 -0.6869  0.7922
   91SOL     OW  271   1.223   1.438   1.791 -0.1995  0.8355  0.1271
   91SOL    HW1  272   1.218   1.521   1.856  1.1412  0.6606  2.8674
   91SOL    HW2  273   1.323   1.433   1.761  3.7530 -0.2935  3.3544
   92SOL     OW  274   0.013   0.973   1.200 -0.7999 -0.0094 -0.6231
   92SOL    HW1  275   0.051   1.062   1.164  1.9975 -1.7019 -1.0161
   92SOL    HW2  276   0.013   0.967   1.306  2.5665 -0.9566  0.2808
   93SOL     OW  277   0.004   2.717   3.081  0.0828 -0.2653 -0.3566
   93SOL    HW1  278  -0.073   2.720   3.011  0.0988 -0.8216  1.6560
   93SOL    HW2  279   0.027   2.620   3.115 -3.3762 -0.7008 -0.0614
   94SOL     OW  280   1.492   1.492   1.761 -0.6614  0.5064 -0.8338
   94SOL    HW1  281   1.542   1.403   1.767  0.5855  1.5069  2.2888
   94SOL    HW2  282   1.525   1.562   1.833 -1.6220 -1.2076 -1.4077
   95SOL     OW  283   1.370   2.556   2.998 -0.6511 -0.1228 -0.5590
   95SOL    HW1  284   1.293   2.573   3.064 -0.7039  1.3979  0.0314
   95SOL    HW2  285   1.399   2.456   2.999 -1.7839  0.6362 -0.2886
   96SOL     OW  286   0.528   2.105   1.264  0.3758  0.7656 -0.0432
   96SOL    HW1  287   0.490   2.076   1.171 -0.0205 -0.1074  0.0156
   96SOL    HW2  288   0.575   2.027   1.318  0.6124 -2.1428  0.3984
   97SOL     OW  289   0.400   1.631   2.451  0.4983 -0.5002  0.4967
   97SOL    HW1  290   0.326   1.691   2.403  2.0940 -0.2560 -0.3101
   97SOL    HW2  291   0.407   1.648   2.552 -0.7942 -2.0863 -0.5146
   98SOL     OW  292   1.985   1.599   1.240  0.2290 -0.0211 -0.1737
   98SOL    HW1  293   1.901   1.557   1.282  1.9668  0.7498  0.1955
   98SOL    HW2  294   2.020   1.541   1.160 -0.5069 -0.8798 -0.9126
   99SOL     OW  295   2.438   2.065   1.384 -0.1608 -0.3444  0.2381
   99SOL    HW1  296   2.422   2.058   1.487  2.5008 -1.4398  0.1495
   99SOL    HW2  297   2.456   1.973   1.338  1.0248  0.9494 -1.9899
  100SOL     OW  298   2.334   0.301   2.102  0.2569  0.1431  0.6271
  100SOL    HW1  299   2.280   0.282   2.184  0.3185 -0.4087 -2.1429
  100SOL    HW2  300   2.422   0.348   2.124 -0.0584 -2.6408  0.5442
  101SOL     OW  301   0.364   1.522   0.338  0.5741  0.0156  0.8054
  101SOL    HW1  302   0.428   1.513   0.422 -0.8320 -1.6196 -0.6595
  101SOL    HW2  303   0.409   1.574   0.262  0.6927  0.8982  2.0898
  102SOL     OW  304   2.251   1.020   0.822 -0.3346 -0.4091  0.1522
  102SOL    HW1  305   2.186   0.940   0.800  4.0433 -2.3224  1.3358
  102SOL    HW2  306   2.290   1.076   0.737 -0.6823  1.4261 -3.0705
  103SOL     OW  307   2.274   0.050   0.393 -0.0379  0.2125  0.0451
  103SOL    HW1  308   2.287   0.157   0.394  1.1054  2.4535  1.2192
  103SOL    HW2  309   2.357   0.009   0.439  0.7947  1.6754 -1.2242
  104SOL     OW  310   0.107   1.754   2.185 -0.5762 -0.3902  0.0128
  104SOL    HW1  311   0.171   1.719   2.111 -2.7357  0.2573  2.6253
  104SOL    HW2  312   0.009   1.777   2.158 -1.3069 -1.9514  0.0788
  105SOL     OW  313   1.229   2.110   0.796 -0.3504 -0.2798 -0.0123
  105SOL    HW1  314   1.148   2.125   0.730 -2.2287 -1.8584  1.4730
  105SOL    HW2  315   1.268   2.013   0.792  0.7815  0.4892 -1.2455
  106SOL     OW  316   2.124   0.426   1.428 -0.7687  0.1119 -0.1066
  106SOL    HW1  317   2.091   0.330   1.452  2.3102 -0.0260 -1.9201
  106SOL    HW2  318   2.090   0.493   1.497 -1.1195 -2.3564 -0.0437
  107SOL     OW  319   1.793   3.014   1.182  0.6851 -0.6694  0.3981
  107SOL    HW1  320   1.835   3.096   1.221  1.2767 -0.8556  0.3097
  107SOL    HW2  321   1.726   2.965   1.246  1.7653 -0.5316 -0.5859
  108SOL     OW  322   0.788   2.790   1.207 -0.4515  0.2920  0.2248
  108SOL    HW1  323   0.772   2.772   1.310  0.9134  0.5629  0.2718
  108SOL    HW2  324   0.887   2.818   1.186  0.4119  3.6960  1.5795
  109SOL     OW  325   2.146   0.127   0.718 -0.2296 -0.1885  0.5147
  109SOL    HW1  326   2.045   0.095   0.706 -0.2411 -1.0116 -2.3740
  109SOL    HW2  327   2.178   0.135   0.817 -2.4316  0.7125  1.3617
  110SOL     OW  328   0.469   2.859   2.766 -0.2338 -0.3818  0.3377
  110SOL    HW1  329   0.468   2.922   2.681 -0.8143  2.6650 -1.3663
  110SOL    HW2  330   0.547   2.790   2.768  0.6562 -0.2715 -2.3047
  111SOL     OW  331   1.304   0.574   2.332  0.1253  0.3967  0.0854
  111SOL    HW1  332   1.227   0.600   2.394  2.2880 -1.4018 -0.8087
  111SOL    HW2  333   1.351   0.485   2.363  1.6332  1.0615 -0.0932
  112SOL     OW  334   1.727   0.553   1.450  0.4051  0.0959 -0.5542
  112SOL    HW1  335   1.776   0.539   1.356 -0.9182  2.8815 -3.1164
  112SOL    HW2  336   1.701   0.462   1.493 -0.8004 -1.0184  0.0363
  113SOL     OW  337   2.266   1.673   1.786  0.1280  0.5901  0.1239
  113SOL    HW1  338   2.313   1.585   1.751 -1.2666 -1.6316 -0.4637
  113SOL    HW2  339   2.279   1.682   1.890 -1.5951 -2.0346  0.4714
  114SOL     OW  340   0.349   0.532   1.244  0.1246 -0.5374  0.2793
  114SOL    HW1  341   0.405   0.576   1.163  0.3813 -0.9591 -3.2164
  114SOL    HW2  342   0.246   0.528   1.224 -0.1309  0.3078 -0.9201
  115SOL     OW  343   2.774   1.574   1.268 -0.0510 -0.5184 -0.2080
  115SOL    HW1  344   2.780   1.470   1.267  0.0047  0.7944 -1.5654
  115SOL    HW2  345   2.823   1.619   1.193 -1.8044 -0.0657 -1.7332
  116SOL     OW  346   1.851   1.037   0.738 -0.4109  0.0693 -0.1685
  116SOL    HW1  347   1.765   1.002   0.689  1.3555 -1.6388  1.7521
  116SOL    HW2  348   1.839   1.137   0.765 -0.6580 -0.7539 -1.3822
  117SOL     OW  349   1.195   0.392   0.578  0.3914 -0.6598 -0.4361
  117SOL    HW1  350   1.164   0.430   0.664 -2.7050 -2.3567 -2.5500
  117SOL    HW2  351   1.271   0.458   0.539 -0.3590 -0.9676 -1.8490
  118SOL     OW  352   1.118   1.101   1.093  0.2215  0.2244  1.1303
  118SOL    HW1  353   1.056   1.040   1.158  0.6047  2.3024  0.4506
  118SOL    HW2  354   1.127   1.193   1.133  0.3070 -0.0514 -2.4410
  119SOL     OW  355   1.807   1.617   2.147 -0.2198  0.3062 -0.2728
  119SOL    HW1  356   1.788   1.720   2.156  0.5716  0.0463  0.1028
  119SOL    HW2  357   1.899   1.604   2.110  0.9692 -1.4276 -1.3490
  120SOL     OW  358   2.947   2.880   0.143  0.1160  0.0297 -1.0958
  120SOL    HW1  359   3.028   2.853   0.079  2.7969 -0.7917  1.2647
  120SOL    HW2  360   2.862   2.833   0.115  1.2395  0.0588  1.8582
  121SOL     OW  361   1.989   0.753   2.275 -0.4992 -0.1350 -0.4158
  121SOL    HW1  362   2.049   0.815   2.219  1.4350 -1.2610 -2.4427
  121SOL    HW2  363   2.007   0.651   2.255 -0.7575  0.8452 -0.3541
  122SOL     OW  364   2.598   2.664   1.220 -0.6799 -0.2619  0.1282
  122SOL    HW1  365   2.675   2.613   1.178 -0.7567  0.4707  0.8351
  122SOL    HW2  366   2.543   2.717   1.151 -2.2923 -0.4992 -3.1605
  123SOL     OW  367   1.749   0.088   1.725 -0.4189 -0.0439  0.3284
  123SOL    HW1  368   1.762   0.000   1.676 -0.2039 -0.0109 -0.0408
  123SOL    HW2  369   1.837   0.123   1.772  1.0733 -0.3603 -1.4474
  124SOL     OW  370   0.117   0.461   1.084 -0.3440  0.1991  0.0694
  124SOL    HW1  371   0.092   0.534   1.156 -0.8363 -0.0918  3.3469
  124SOL    HW2  372   0.113   0.498   0.993  3.0014  1.4627  0.2461
  125SOL     OW  373   0.847   1.860   0.706 -0.1756 -0.0522  0.2603
  125SOL    HW1  374   0.945   1.828   0.739 -0.5251 -2.0641  0.6281
  125SOL    HW2  375   0.796   1.921   0.774  0.9520  1.0811  0.9155
  126SOL     OW  376   1.874   2.287   2.446  0.1394  0.0776 -0.2852
  126SOL    HW1  377   1.949   2.265   2.376 -1.2144 -1.6881 -1.4502
  126SOL    HW2  378   1.822   2.200   2.472 -1.1477  0.2671  0.2079
  127SOL     OW  379   0.959   0.890   0.258  0.9218  0.1738 -0.8522
  127SOL    HW1  380   0.955   0.956   0.340 -1.2971  0.3999 -1.8487
  127SOL    HW2  381   0.973   0.795   0.296 -0.0907  0.5692  2.9973
  128SOL     OW  382   0.905   0.246   1.376 -0.1344 -0.6128 -0.2489
  128SOL    HW1  383   0.900   0.328   1.310  1.7071  0.5901  0.3369
  128SOL    HW2  384   0.868   0.158   1.339  0.2425  3.4254  4.4283
  129SOL     OW  385   1.838   0.721   1.897 -0.0507 -0.6104  0.3107
  129SOL    HW1  386   1.841   0.731   1.796 -0.6603 -2.2676 -1.1688
  129SOL    HW2  387   1.874   0.810   1.947  1.6553  0.4540  1.3596
  130SOL     OW  388   1.364   2.232   1.007  0.0904  0.3102 -0.2072
  130SOL    HW1  389   1.318   2.172   0.930  0.3052 -1.5045  0.8474
  130SOL    HW2  390   1.451   2.284   0.978  0.7537  1.6251 -0.6817
  131SOL     OW  391   3.048   1.449   1.368  0.8509  0.1944  0.9231
  131SOL    HW1  392   2.976   1.375   1.356  1.0730  1.1362 -2.0065
  131SOL    HW2  393   3.144   1.408   1.390 -1.3522 -3.7424 -0.6774
  132SOL     OW  394   2.040   2.433   0.517  0.3586 -0.0942 -0.0744
  132SOL    HW1  395   1.943   2.461   0.533 -1.2704 -0.3199 -0.4772
  132SOL    HW2  396   2.070   2.352   0.580  0.5257  0.7435  0.3142
  133SOL     OW  397   1.879   2.336   2.850 -0.4746 -0.1013  0.5143
  133SOL    HW1  398   1.786   2.330   2.806  2.8318 -0.7026 -4.2541
  133SOL    HW2  399   1.947   2.391   2.791 -0.4851 -1.1549  0.2101
  134SOL     OW  400   2.671   2.343   1.660 -0.4638  0.2253 -0.3649
  134SOL    HW1  401   2.614   2.345   1.749 -0.2280 -0.0489 -0.9195
  134SOL    HW2  402   2.729   2.429   1.640  1.9654 -0.4947  1.4098
  135SOL     OW  403   0.668   1.479   2.684 -0.4666 -0.3341  0.1802
  135SOL    HW1  404   0.656   1.386   2.709 -0.4952  2.4011 -0.5384
  135SOL    HW2  405   0.686   1.488   2.580 -2.9375 -0.1962 -1.9239
  136SOL     OW  406   1.213   1.984   0.407 -0.6991  0.4200 -0.0325
  136SOL    HW1  407   1.160   2.067   0.446 -0.0226  1.8750  1.7644
  136SOL    HW2  408   1.161   1.890   0.420  0.3358 -0.8918 -1.3908
  137SOL     OW  409   0.420   1.162   2.166 -0.0908  0.4347  0.4714
  137SOL    HW1  410   0.324   1.153   2.206  2.3562  2.5247 -2.2951
  137SOL    HW2  411   0.480   1.081   2.184 -1.5852  0.8145 -0.4890
  138SOL     OW  412   2.443   1.539   0.246  0.4675 -0.7056 -0.2072
  138SOL    HW1  413   2.378   1.461   0.238 -1.3190  1.0843 -0.3456
  138SOL    HW2  414   2.507   1.531   0.327  1.0193  3.0496  2.3078
  139SOL     OW  415   1.858   2.605   1.277  0.0171 -0.2805 -0.0402
  139SOL    HW1  416   1.753   2.607   1.250  1.6849 -0.5956  1.5239
  139SOL    HW2  417   1.885   2.513   1.321 -3.2200 -1.9334  1.0817
  140SOL     OW  418   3.027   2.978   2.541  0.2515  0.1770 -0.0556
  140SOL    HW1  419   3.048   2.881   2.564 -0.7311  0.4193 -1.0226
  140SOL    HW2  420   3.105   3.045   2.556 -1.9611  0.5232 -1.6346
  141SOL     OW  421   1.321   1.674   1.626  0.0889 -0.2723 -0.0287
  141SOL    HW1  422   1.222   1.690   1.659  0.7115  1.1800 -0.3255
  141SOL    HW2  423   1.379   1.622   1.693 -1.1969  0.6921 -0.6167
  142SOL     OW  424   1.573   0.584   2.266 -0.3724 -0.1886  0.2631
  142SOL    HW1  425   1.577   0.567   2.162 -1.2585 -2.0976 -1.2431
  142SOL    HW2  426   1.476   0.582   2.310  0.1105  1.5478 -0.0342
  143SOL     OW  427   2.735   0.895   0.516 -0.1377 -0.0715  0.7694
  143SOL    HW1  428   2.771   0.959   0.444 -1.5086 -2.0100  0.6108
  143SOL    HW2  429   2.753   0.925   0.614 -3.7380 -0.1934 -0.1938
  144SOL     OW  430   2.934   1.162   1.463  0.2170 -0.4865 -0.2131
  144SOL    HW1  431   2.862   1.145   1.537 -1.3275  0.9577 -0.4963
  144SOL    HW2  432   3.002   1.081   1.467  0.5711 -1.6631 -1.0127
  145SOL     OW  433   1.003   1.836   0.164 -0.4458 -0.0793  0.4598
  145SOL    HW1  434   1.083   1.871   0.107 -0.6580 -0.5157 -0.3165
  145SOL    HW2  435   0.948   1.754   0.123 -0.9105  0.0005  0.2493
  146SOL     OW  436   2.506   0.672   1.502  0.0556 -0.1027  0.0223
  146SOL    HW1  437   2.490   0.579   1.454 -1.3865  0.5031 -2.0168
  146SOL    HW2  438   2.450   0.755   1.464 -0.6704 -1.3885  0.0318
  147SOL     OW  439   1.103   2.452   0.612 -0.0446  0.0463 -0.3074
  147SOL    HW1  440   1.073   2.524   0.543  2.0507 -1.0902  2.1091
  147SOL    HW2  441   1.169   2.375   0.589 -0.5708 -1.1802  2.2223
  148SOL     OW  442   1.662   1.458   3.049 -0.9475  0.5431  0.5160
  148SOL    HW1  443   1.655   1.365   2.993  1.0614 -0.2490 -1.4365
  148SOL    HW2  444   1.633   1.452   3.151  0.8905 -1.4513  1.6213
  149SOL     OW  445   0.714   1.408   1.973  0.0888 -0.2623  0.5179
  149SOL    HW1  446   0.612   1.381   1.984 -2.0546  2.5474 -0.6199
  149SOL    HW2  447   0.764   1.346   1.906 -2.1916 -1.4472 -1.3521
  150SOL     OW  448   3.024   1.243   0.940 -0.1844 -0.2937  0.1858
  150SOL    HW1  449   3.086   1.250   1.023 -0.1795 -1.7775 -1.3661
  150SOL    HW2  450   3.016   1.143   0.910  2.2332  0.8707 -0.6239
  151SOL     OW  451   0.203   0.723   2.150 -0.5035  0.0417 -0.1311
  151SOL    HW1  452   0.182   0.813   2.103 -1.5091 -0.0317 -0.1607
  151SOL    HW2  453   0.231   0.654   2.078  0.1710  1.3413 -1.6923
  152SOL     OW  454   1.428   1.769   1.282  0.3218 -0.1087 -0.1194
  152SOL    HW1  455   1.429   1.871   1.289 -0.4434  1.7566  1.3854
  152SOL    HW2  456   1.330   1.733   1.261  0.0568 -0.3037 -1.3274
  153SOL     OW  457   0.014   1.510   0.153  0.4236  0.3532  0.0787
  153SOL    HW1  458   0.029   1.407   0.168  0.8307  0.0708  0.4396
  153SOL    HW2  459   0.020   1.560   0.246  2.7100 -0.8582  1.2569
  154SOL     OW  460   2.378   1.872   2.772  0.1959  0.4040 -0.0020
  154SOL    HW1  461   2.366   1.768   2.786  1.9233 -1.4536 -0.1928
  154SOL    HW2  462   2.468   1.892   2.718  1.5014  2.0747  0.5476
  155SOL     OW  463   2.465   1.209   0.406  0.5896 -0.0956 -0.2773
  155SOL    HW1  464   2.542   1.200   0.339 -0.2677 -2.4526 -0.4210
  155SOL    HW2  465   2.378   1.165   0.372  1.7863  1.4324 -1.1688
  156SOL     OW  466   2.526   0.967   0.875 -0.2916  0.0673 -0.0919
  156SOL    HW1  467   2.427   0.955   0.895  2.0630  0.6344 -0.8674
  156SOL    HW2  468   2.544   1.055   0.822 -0.7234  0.2782  1.1464
  157SOL     OW  469   1.298   2.927   3.023 -0.1443 -0.2061 -0.2575
  157SOL    HW1  470   1.377   2.923   2.960 -0.5268 -0.0490  3.4926
  157SOL    HW2  471   1.267   3.021   3.041  1.2340  1.1107 -1.3524
  158SOL     OW  472   1.017   1.821   1.896 -0.3987  0.2155 -0.1247
  158SOL    HW1  473   1.046   1.908   1.852 -1.1566 -1.9916 -1.5235
  158SOL    HW2  474   0.924   1.838   1.945 -0.3946 -0.3320 -2.6574
  159SOL     OW  475   0.823   0.447   1.197  0.1888 -0.2516  0.2113
  159SOL    HW1  476   0.786   0.519   1.262 -0.9830 -0.4305 -0.1335
  159SOL    HW2  477   0.746   0.393   1.144  0.4143  1.3286 -0.9912
  160SOL     OW  478   1.399   2.307   1.580  0.2470 -0.2047 -0.2316
  160SOL    HW1  479   1.405   2.314   1.684 -0.8710  0.1838 -0.0288
  160SOL    HW2  480   1.489   2.309   1.534 -0.4816  1.1056  1.8606
  161SOL     OW  481   0.103   2.943   0.295 -0.4830  0.3259  0.0535
  161SOL    HW1  482   0.013   2.898   0.297 -0.1458  3.0666 -0.5440
  161SOL    HW2  483   0.126   3.007   0.214  2.4649 -0.7505 -3.8685
  162SOL     OW  484   2.513   1.902   0.473  0.8874  0.0350  0.2663
  162SOL    HW1  485   2.498   1.859   0.375 -0.4446 -1.7676  1.7801
  162SOL    HW2  486   2.503   1.831   0.549 -2.2765  0.3685 -1.1523
  163SOL     OW  487   1.899   2.828   0.710  0.2072  0.4421  0.4629
  163SOL    HW1  488   1.919   2.824   0.607 -0.9148 -0.3572 -1.0492
  163SOL    HW2  489   1.959   2.765   0.766  0.1397 -0.2394  1.9668
  164SOL     OW  490   3.067   0.244   1.206 -0.1783  0.4831  0.5165
  164SOL    HW1  491   3.132   0.316   1.179 -1.0914  3.5843  1.9845
  164SOL    HW2  492   3.102   0.186   1.282 -1.9039  1.2265  0.4686
  165SOL     OW  493   0.959   1.449   0.747  0.6417  0.4088 -0.4190
  165SOL    HW1  494   0.905   1.489   0.834 -0.5092 -2.5410  1.8696
  165SOL    HW2  495   0.955   1.498   0.658  1.4149  0.5113  0.7064
  166SOL     OW  496   1.493   1.088   1.729  0.1229 -0.3091  0.9970
  166SOL    HW1  497   1.419   1.067   1.801 -1.8835 -3.6421  0.3454
  166SOL    HW2  498   1.576   1.135   1.773  0.6666  2.2234 -0.3950
  167SOL     OW  499   0.721   1.931   1.452 -0.2747  0.0165  0.1166
  167SOL    HW1  500   0.759   1.993   1.529 -0.9168  0.5775  1.9445
  167SOL    HW2  501   0.690   1.840   1.488  3.8925 -2.4052 -1.7063
  168SOL     OW  502   1.642   2.387   0.145  0.5438  0.2892 -0.6062
  168SOL    HW1  503   1.722   2.427   0.090 -2.9156  0.2700 -3.2158
  168SOL    HW2  504   1.672   2.358   0.240 -2.7816  0.3593  1.4138
  169SOL     OW  505   0.179   2.547   2.230  0.3597 -0.0626  0.5269
  169SOL    HW1  506   0.211   2.522   2.134 -1.8432  2.9407  0.2398
  169SOL    HW2  507   0.222   2.485   2.302  1.8271 -0.3584  2.1865
  170SOL     OW  508   1.123   0.239   1.997 -0.2879  0.2947  0.3301
  170SOL    HW1  509   1.199   0.217   2.070  0.9419  0.9680  1.0540
  170SOL    HW2  510   1.145   0.213   1.899  1.8636 -0.2125 -0.6523
  171SOL     OW  511   0.206   0.771   2.417 -0.4587  0.0093 -0.2881
  171SOL    HW1  512   0.121   0.822   2.446 -0.5193 -0.6572 -0.5786
  171SOL    HW2  513   0.216   0.750   2.318  1.2593  1.8231  1.4252
  172SOL     OW  514   0.913   1.035   2.910 -0.4834 -0.6180  0.2885
  172SOL    HW1  515   0.997   1.093   2.931 -0.6885 -0.5461  1.6418
  172SOL    HW2  516   0.870   1.055   2.814  0.0357  0.2298 -0.0232
  173SOL     OW  517   0.639   2.688   0.121  0.0666 -0.0948  0.7716
  173SOL    HW1  518   0.615   2.791   0.102  0.3732  2.7300  0.5600
  173SOL    HW2  519   0.552   2.630   0.152 -0.1149 -0.2390 -2.3798
  174SOL     OW  520   1.454   2.838   1.084  0.5059  0.2480 -0.4026
  174SOL    HW1  521   1.448   2.930   1.031  0.2625  1.8539 -1.6623
  174SOL    HW2  522   1.521   2.774   1.042 -3.3820 -1.3023  0.8432
  175SOL     OW  523   0.390   0.009   1.655  0.2275 -0.6523 -0.8052
  175SOL    HW1  524   0.478   0.045   1.700  0.8015  0.4162 -0.0260
  175SOL    HW2  525   0.351   0.071   1.582  1.8800  0.4385 -1.5030
  176SOL     OW  526   2.605   0.392   0.001  0.7552  0.4893 -0.2275
  176SOL    HW1  527   2.608   0.469   0.073 -4.1279 -1.4659  0.7844
  176SOL    HW2  528   2.531   0.325   0.021  0.5173  0.1567 -0.0841
  177SOL     OW  529   0.361   0.306   1.016  0.0753  0.0308 -0.0704
  177SOL    HW1  530   0.313   0.237   0.952 -1.7828 -2.9681  1.5579
  177SOL    HW2  531   0.293   0.346   1.087 -2.3504  0.6402  1.9508
  178SOL     OW  532   3.079   2.688   2.603  0.0118  0.8642 -0.7960
  178SOL    HW1  533   3.017   2.615   2.643  2.2128  0.6045 -0.6065
  178SOL    HW2  534   3.150   2.721   2.671  1.1815  0.2604 -0.1111
  179SOL     OW  535   3.103   1.630   1.171 -0.0050 -0.3138 -0.9832
  179SOL    HW1  536   3.062   1.728   1.174  0.9522 -2.3809  2.2172
  179SOL    HW2  537   3.066   1.566   1.243 -2.8644  1.1353  0.6629
  180SOL     OW  538   0.207   1.219   1.859 -0.5370  0.0686  0.3056
  180SOL    HW1  539   0.309   1.215   1.852 -2.8330  0.7866  1.5933
  180SOL    HW2  540   0.168   1.315   1.896 -1.6042  2.9696 -0.9176
  181SOL     OW  541   3.001   1.847   2.494  0.4932  0.1387  0.3573
  181SOL    HW1  542   3.084   1.903   2.482 -1.9803 -1.1639 -1.4893
  181SOL    HW2  543   2.920   1.880   2.439  0.7818 -0.0051  1.0206
  182SOL     OW  544   2.246   1.307   1.179  0.0538  0.0383 -0.0428
  182SOL    HW1  545   2.196   1.245   1.115 -1.3801  0.1866  1.0881
  182SOL    HW2  546   2.242   1.405   1.143 -0.1985 -0.6917  0.6080
  183SOL     OW  547   1.498   2.225   2.563 -0.8248 -0.3157  0.3826
  183SOL    HW1  548   1.404   2.180   2.554 -0.7534  0.8806 -0.7179
  183SOL    HW2  549   1.577   2.172   2.533  0.7689  0.3290  0.1962
  184SOL     OW  550   2.054   0.844   0.790  0.2267 -0.0753 -0.5044
  184SOL    HW1  551   1.977   0.909   0.757 -0.3786  0.4678  1.1029
  184SOL    HW2  552   2.014   0.757   0.837  0.1220 -1.3307 -0.0082
  185SOL     OW  553   1.600   2.784   2.072  0.3640 -0.0022 -0.6896
  185SOL    HW1  554   1.543   2.873   2.078  0.3642 -0.7834  0.2129
  185SOL    HW2  555   1.606   2.744   2.167  2.4655  1.9286  0.2013
  186SOL     OW  556   0.110   2.198   1.659  0.0723 -0.7386 -0.5443
  186SOL    HW1  557   0.077   2.247   1.744  1.9818 -1.5541  0.4528
  186SOL    HW2  558   0.202   2.146   1.673 -2.5905  0.3684  1.1016
  187SOL     OW  559   1.308   0.762   1.666 -0.3665  0.2212  0.0998
  187SOL    HW1  560   1.383   0.812   1.614 -1.4370 -0.8740  0.9706
  187SOL    HW2  561   1.327   0.762   1.765  1.3834  0.9768 -1.5391
  188SOL     OW  562   2.749   2.784   1.435  0.2849  0.2580  0.0654
  188SOL    HW1  563   2.755   2.884   1.411 -1.7622  0.5742 -0.9942
  188SOL    HW2  564   2.694   2.734   1.364  0.8834  1.7191  1.1682
  189SOL     OW  565   0.925   1.218   1.402  0.7532 -0.2614 -0.0447
  189SOL    HW1  566   0.994   1.260   1.465  1.0915 -1.0924  2.3637
  189SOL    HW2  567   0.849   1.282   1.375 -1.5419  0.3525 -0.2633
  190SOL     OW  568   1.467   1.904   1.585 -0.1988 -0.2958  0.3414
  190SOL    HW1  569   1.419   1.814   1.611  1.6678 -2.4358 -1.8547
  190SOL    HW2  570   1.443   1.984   1.648  0.5633  0.0976 -1.9681
  191SOL     OW  571   0.968   0.754   1.553 -0.1178 -0.3491  0.4273
  191SOL    HW1  572   1.046   0.688   1.560  0.0636  2.4669  1.6799
  191SOL    HW2  573   0.988   0.848   1.587 -0.5579 -2.4139 -0.0628
  192SOL     OW  574   1.862   2.262   1.112  0.5976 -0.0247  0.4182
  192SOL    HW1  575   1.762   2.268   1.094  0.5739  0.0831  1.2438
  192SOL    HW2  576   1.916   2.327   1.049  1.1520 -0.8210 -1.1229
  193SOL     OW  577   0.577   0.588   0.455  0.2653 -0.2308  0.1911
  193SOL    HW1  578   0.540   0.500   0.482  0.2627 -0.3976 -1.5377
  193SOL    HW2  579   0.606   0.591   0.352  1.5013  3.9036  0.8861
  194SOL     OW  580   0.346   0.852   1.290 -0.4518  0.1518 -0.1284
  194SOL    HW1  581   0.317   0.753   1.268  2.2310  0.1321  2.8052
  194SOL    HW2  582   0.316   0.919   1.217 -0.3969 -1.1907 -1.3806
  195SOL     OW  583   1.014   2.897   0.545 -0.0083 -0.0921  0.0271
  195SOL    HW1  584   1.022   2.794   0.512 -4.2953 -3.7471  0.3896
  195SOL    HW2  585   1.100   2.955   0.515  1.8695 -2.2340  1.0506
  196SOL     OW  586   0.223   1.346   1.375  0.0818 -0.0303 -0.1717
  196SOL    HW1  587   0.243   1.444   1.407  0.2850 -0.0167 -0.6640
  196SOL    HW2  588   0.225   1.280   1.455 -0.3586 -0.3620  0.0872
  197SOL     OW  589   0.831   2.037   0.232  0.0284 -0.1467  0.1736
  197SOL    HW1  590   0.806   2.024   0.333 -0.6595  0.5482  0.0894
  197SOL    HW2  591   0.901   1.966   0.205 -1.5429  0.9347 -0.1514
  198SOL     OW  592   0.307   1.240   0.218 -0.2694  0.0505 -0.0307
  198SOL    HW1  593   0.205   1.229   0.226 -0.6233  0.8478  0.1087
  198SOL    HW2  594   0.344   1.332   0.259  0.1913 -2.9216  0.1555
  199SOL     OW  595   2.227   0.389   2.551  0.2243 -0.1244 -0.0679
  199SOL    HW1  596   2.165   0.343   2.616 -0.4229 -2.2096 -1.4771
  199SOL    HW2  597   2.331   0.366   2.564  2.0332  0.2229  0.2665
  200SOL     OW  598   0.029   2.946   0.744 -0.0504  0.1167  0.1176
  200SOL    HW1  599  -0.057   2.937   0.690 -1.0370 -0.0670 -2.0167
  200SOL    HW2  600   0.039   3.040   0.784 -2.6787  0.3861  2.0354
  201SOL     OW  601   1.110   0.769   0.631 -0.5038  0.1600 -0.3595
  201SOL    HW1  602   1.115   0.840   0.711 -2.0340 -0.2170  1.9797
  201SOL    HW2  603   1.017   0.717   0.641 -3.2287 -1.4002 -0.0140
  202SOL     OW  604   0.484   1.169   1.828 -0.5739 -0.5060  0.5750
  202SOL    HW1  605   0.523   1.155   1.735  1.4878 -2.1586  1.5103
  202SOL    HW2  606   0.540   1.142   1.909 -2.8302  1.3249 -1.1827
  203SOL     OW  607   0.666   0.212   1.560 -0.3273 -0.1792 -0.0270
  203SOL    HW1  608   0.737   0.195   1.486 -0.9605 -0.5869 -0.4680
  203SOL    HW2  609   0.683   0.165   1.648 -1.7797  1.6321 -1.5498
  204SOL     OW  610   2.052   1.869   2.931  0.4019 -0.0415  0.1937
  204SOL    HW1  611   2.062   1.765   2.960 -2.7328 -0.2449 -0.4563
  204SOL    HW2  612   2.093   1.899   2.844 -1.3274 -2.1569  1.3056
  205SOL     OW  613   1.821   1.875   3.066 -0.1847  0.1828 -0.1807
  205SOL    HW1  614   1.903   1.873   2.997  0.3692 -0.7912 -0.9127
  205SOL    HW2  615   1.785   1.971   3.089  1.0539 -1.6109 -0.4174
  206SOL     OW  616   2.496   2.792   0.320  0.0671 -0.0541  0.2726
  206SOL    HW1  617   2.558   2.729   0.368 -0.8790 -0.7383 -1.6887
  206SOL    HW2  618   2.538   2.831   0.236 -1.2701  0.5761 -1.2596
  207SOL     OW  619   0.633   1.795   2.963  0.2085  0.4327  0.1966
  207SOL    HW1  620   0.722   1.751   2.937 -1.7153 -1.9191 -2.2536
  207SOL    HW2  621   0.582   1.738   3.031  0.5083 -0.4930  0.1440
  208SOL     OW  622   1.129   1.570   1.412 -0.1665 -0.1257 -0.2623
  208SOL    HW1  623   1.121   1.617   1.320  0.6837 -0.8361 -0.9310
  208SOL    HW2  624   1.170   1.627   1.484 -0.4977 -0.2066 -2.8059
  209SOL     OW  625   0.249   0.965   3.069 -0.3238 -0.1734  0.7503
  209SOL    HW1  626   0.275   0.883   3.008 -0.5880 -0.1838 -0.8639
  209SOL    HW2  627   0.270   0.955   3.172  1.4321  0.2717  0.8756
  210SOL     OW  628   1.787   0.542   1.182  0.3863  0.0516 -0.0430
  210SOL    HW1  629   1.727   0.616   1.138 -2.5974  1.2542 -1.3603
  210SOL    HW2  630   1.884   0.538   1.149 -0.9537  0.0289  0.4168
  211SOL     OW  631   2.144   1.030   1.558  1.0994 -0.3175  0.0496
  211SOL    HW1  632   2.191   0.963   1.625  0.7021 -1.8681  2.4854
  211SOL    HW2  633   2.213   1.074   1.494 -0.1347  1.7919  1.4595
  212SOL     OW  634   0.017   0.961   1.474 -0.3478  0.0083  0.0341
  212SOL    HW1  635   0.076   1.042   1.504  0.5215  1.1901  1.4875
  212SOL    HW2  636   0.024   0.888   1.546 -1.0673  2.4285  1.9214
  213SOL     OW  637   2.825   0.309   0.378  0.4894 -0.9999  0.0471
  213SOL    HW1  638   2.867   0.250   0.308  1.0892 -0.8942 -1.2862
  213SOL    HW2  639   2.758   0.361   0.333  3.0150 -2.4216  1.3972
  214SOL     OW  640   2.177   0.243   2.307 -0.0110 -0.4240 -0.0801
  214SOL    HW1  641   2.192   0.285   2.403  0.3905  4.0217 -1.9466
  214SOL    HW2  642   2.143   0.144   2.311  0.4121  0.2724 -0.8863
  215SOL     OW  643   1.627   2.278   2.129 -0.2939 -0.0835  0.6447
  215SOL    HW1  644   1.713   2.318   2.089 -1.7772 -2.3456  0.1311
  215SOL    HW2  645   1.569   2.348   2.184 -1.8540  0.9148  2.1890
  216SOL     OW  646   2.193   0.651   0.644 -0.2681  0.5812  0.1100
  216SOL    HW1  647   2.156   0.569   0.598  1.0871  1.8880  1.2119
  216SOL    HW2  648   2.115   0.716   0.673 -1.9429  1.0125 -0.0730
  217SOL     OW  649   0.765   2.790   2.447  0.3718  0.2783 -0.5849
  217SOL    HW1  650   0.738   2.710   2.506 -0.8977  0.0228 -3.1256
  217SOL    HW2  651   0.750   2.770   2.346 -0.6280  0.4396  1.1936
  218SOL     OW  652   1.918   1.441   0.054  0.0793 -0.1487 -0.2847
  218SOL    HW1  653   1.832   1.455  -0.002  0.2262  0.4762  0.0131
  218SOL    HW2  654   1.914   1.368   0.120  0.1647  0.1727 -3.9558
  219SOL     OW  655   2.362   1.276   2.539  0.1037  0.7725 -0.3354
  219SOL    HW1  656   2.424   1.245   2.459  0.3945 -2.6795 -2.3033
  219SOL    HW2  657   2.343   1.200   2.609 -1.7640  1.8996  0.1262
  220SOL     OW  658   1.524   1.053   1.236  0.2530  0.2671  0.0684
  220SOL    HW1  659   1.623   1.069   1.251 -0.8724  1.8067 -4.0802
  220SOL    HW2  660   1.490   1.084   1.142  1.1683  0.2977 -0.6690
  221SOL     OW  661   1.361   0.973   2.216 -0.2165 -0.2455  0.0041
  221SOL    HW1  662   1.308   0.998   2.129  0.5245 -0.2425  2.4038
  221SOL    HW2  663   1.462   0.971   2.196 -0.9653  1.8665  1.1262
  222SOL     OW  664   1.151   0.016   1.190 -0.8158 -0.1304 -0.6817
  222SOL    HW1  665   1.215  -0.007   1.270  0.4818  1.6056 -0.7512
  222SOL    HW2  666   1.173   0.091   1.127 -1.3602 -0.8490 -0.7197
  223SOL     OW  667   2.727   0.887   2.013 -0.0450 -0.1356  0.0629
  223SOL    HW1  668   2.703   0.874   2.112  0.5929  0.3884 -0.2240
  223SOL    HW2  669   2.811   0.949   2.000  0.2635  2.7315  0.1695
  224SOL     OW  670   1.553   1.017   2.762 -0.7098 -0.0737  0.3900
  224SOL    HW1  671   1.594   0.953   2.686  1.0691  1.5196  1.5518
  224SOL    HW2  672   1.494   1.090   2.722  0.4242 -0.2227 -2.2430
  225SOL     OW  673   2.911   2.787   2.882  0.0422 -0.2351 -0.3467
  225SOL    HW1  674   2.899   2.703   2.821 -0.6275  0.7898 -0.8707
  225SOL    HW2  675   2.985   2.853   2.857  0.7643 -4.0284 -1.7018
  226SOL     OW  676   2.407   1.594   2.803  0.5789 -0.4188  0.0991
  226SOL    HW1  677   2.470   1.563   2.725 -0.6203  0.3303  2.7023
  226SOL    HW2  678   2.361   1.514   2.854 -1.4249 -1.3568  2.4641
  227SOL     OW  679   0.818   0.149   3.055  0.3418  0.0764  0.5589
  227SOL    HW1  680   0.823   0.065   3.115 -2.3083 -0.5560  2.2386
  227SOL    HW2  681   0.832   0.138   2.951 -1.5297 -2.4200 -1.0660
  228SOL     OW  682   2.402   0.598   2.867 -0.2310  0.6097 -0.4566
  228SOL    HW1  683   2.363   0.637   2.779  2.2210  0.0426  1.3114
  228SOL    HW2  684   2.494   0.553   2.858 -0.1066  0.8398  0.6551
  229SOL     OW  685   0.630   0.424   1.886 -0.0253 -0.5232 -0.1258
  229SOL    HW1  686   0.616   0.319   1.875 -0.1473 -1.8443 -5.3557
  229SOL    HW2  687   0.636   0.459   1.785 -0.8788 -2.1134 -1.7842
  230SOL     OW  688   1.914   1.143   2.123 -0.4444  0.5023 -0.6046
  230SOL    HW1  689   1.968   1.211   2.069 -1.7112 -2.7810  0.6050
  230SOL    HW2  690   1.828   1.189   2.148 -0.2664 -2.2257 -0.8673
  231SOL     OW  691   0.674   0.999   3.018  0.7569  0.5057 -0.0146
  231SOL    HW1  692   0.769   1.026   2.985  0.6880 -0.8073  1.4582
  231SOL    HW2  693   0.612   1.079   3.033  2.7635 -0.6945  0.2246
  232SOL     OW  694   2.388   0.003   2.818 -0.7101  0.3314  0.1604
  232SOL    HW1  695   2.456  -0.074   2.827 -0.0565  0.0701  0.7257
  232SOL    HW2  696   2.400   0.059   2.733 -1.0863 -1.1536  0.3734
  233SOL     OW  697   1.732   1.289   1.152 -0.2936  0.2618 -0.6623
  233SOL    HW1  698   1.748   1.272   1.050 -0.7886 -0.4106 -1.7682
  233SOL    HW2  699   1.763   1.215   1.215  1.0300 -0.8099  1.4092
  234SOL     OW  700   1.607   2.602   1.863 -0.0305 -0.0496 -0.4364
  234SOL    HW1  701   1.587   2.686   1.919  2.1073  0.0316 -0.8124
  234SOL    HW2  702   1.573   2.511   1.902 -1.2819 -1.3763 -1.2972
  235SOL     OW  703   0.027   2.984   2.868 -0.5261 -0.4661  0.0352
  235SOL    HW1  704   0.080   3.038   2.798 -2.0514  2.1579 -0.1897
  235SOL    HW2  705  -0.039   3.042   2.921  1.8381  2.4393  0.7113
  236SOL     OW  706   2.893   0.737   0.085  0.9201 -0.0987 -0.7151
  236SOL    HW1  707   2.950   0.795   0.149 -0.4152 -0.4382 -1.2348
  236SOL    HW2  708   2.939   0.653   0.046 -0.4524 -0.3052 -1.8541
  237SOL     OW  709   1.504   1.714   1.021  0.2930  0.3138  0.8514
  237SOL    HW1  710   1.601   1.714   0.975  1.9466 -1.2875 -0.4011
  237SOL    HW2  711   1.505   1.729   1.123  2.3708 -0.4010 -1.0742
  238SOL     OW  712   1.760   1.285   0.878  0.1489  0.2304  0.1864
  238SOL    HW1  713   1.832   1.358   0.871  0.7312  3.0679 -1.5634
  238SOL    HW2  714   1.669   1.316   0.834 -1.6726  1.1185  1.0204
  239SOL     OW  715   2.046   0.250   2.737  0.3660  0.2877 -0.3764
  239SOL    HW1  716   2.098   0.218   2.825  0.6146  1.1416  1.6946
  239SOL    HW2  717   1.976   0.329   2.755  0.5674  4.0896  0.5304
  240SOL     OW  718   0.935   0.635   0.348 -0.8069 -0.5301 -0.1312
  240SOL    HW1  719   0.961   0.556   0.281 -0.9607  0.3146  0.7024
  240SOL    HW2  720   0.901   0.614   0.444 -0.7994  2.5704 -0.7990
  241SOL     OW  721   0.613   0.106   0.363 -0.3537 -0.0697 -0.2034
  241SOL    HW1  722   0.649   0.175   0.299  1.0853 -0.1049  0.3434
  241SOL    HW2  723   0.591   0.010   0.325  0.3893  2.5144 -1.1260
  242SOL     OW  724   0.666   2.524   1.117 -0.0385  0.2429 -0.0608
  242SOL    HW1  725   0.622   2.543   1.208  0.5050  1.9368 -0.9649
  242SOL    HW2  726   0.748   2.582   1.105 -2.5829 -0.0879 -1.4815
  243SOL     OW  727   1.077   0.581   2.491  0.2538 -0.0918  0.1654
  243SOL    HW1  728   1.008   0.625   2.424 -0.8677  2.0814 -1.6697
  243SOL    HW2  729   1.046   0.503   2.550  0.6590  1.7805  0.6469
  244SOL     OW  730   2.789   1.904   2.333 -0.0262 -0.1043 -0.7324
  244SOL    HW1  731   2.827   1.898   2.235  0.2440 -2.6445  3.1984
  244SOL    HW2  732   2.710   1.837   2.356 -0.9612  0.6200  0.8727
  245SOL     OW  733   2.396   0.659   2.214 -0.7653  0.4598  0.5318
  245SOL    HW1  734   2.462   0.734   2.247  0.9931 -1.9978 -0.2690
  245SOL    HW2  735   2.432   0.566   2.219  0.4977  0.7683 -3.0390
  246SOL     OW  736   0.217   2.907   1.687 -0.0761  0.0461  0.4977
  246SOL    HW1  737   0.159   2.903   1.599 -0.4529 -1.3866  1.4878
  246SOL    HW2  738   0.302   2.966   1.669 -2.5217 -0.4283 -1.4881
  247SOL     OW  739   2.144   0.567   3.043 -0.1023  0.3562 -0.0809
  247SOL    HW1  740   2.225   0.590   2.985 -3.0268  0.6819  0.7810
  247SOL    HW2  741   2.081   0.643   3.055  3.8914 -1.4561  3.5803
  248SOL     OW  742   2.141   1.836   1.576  0.4664  0.0495  0.4136
  248SOL    HW1  743   2.201   1.785   1.638  1.4098  2.9514 -2.1591
  248SOL    HW2  744   2.039   1.815   1.590  0.8783  0.9864  2.0001
  249SOL     OW  745   1.872   1.893   1.918 -0.6503  0.4046  0.2019
  249SOL    HW1  746   1.868   1.813   1.849 -0.3868  1.1693 -1.6415
  249SOL    HW2  747   1.960   1.948   1.907 -2.8897  0.4720 -1.0293
  250SOL     OW  748   1.126   0.711   1.924  0.2088 -0.3311  0.7340
  250SOL    HW1  749   1.176   0.621   1.949  0.2946 -1.1468  1.3479
  250SOL    HW2  750   1.050   0.695   1.855 -0.2145  2.1835  0.5181
  251SOL     OW  751   0.008   1.566   2.523  0.5493  0.0144 -0.2982
  251SOL    HW1  752  -0.016   1.661   2.494 -1.6597 -2.1773  0.7329
  251SOL    HW2  753  -0.081   1.528   2.560  0.3141  0.8483 -1.3671
  252SOL     OW  754   1.537   0.869   1.554 -0.5053 -0.2860 -0.2935
  252SOL    HW1  755   1.603   0.857   1.473  0.6610 -1.3148  1.3203
  252SOL    HW2  756   1.540   0.953   1.609 -2.4555 -3.9061 -1.1189
  253SOL     OW  757   0.865   1.537   0.482  0.8686 -0.3890  0.4545
  253SOL    HW1  758   0.904   1.472   0.417 -0.5587  1.8681  3.5796
  253SOL    HW2  759   0.762   1.517   0.502 -2.8536  0.6045 -2.1555
  254SOL     OW  760   2.029   2.142   1.606 -0.4583  0.3645  0.2586
  254SOL    HW1  761   2.003   2.052   1.561  1.0832 -0.9255  4.0488
  254SOL    HW2  762   1.971   2.168   1.686  0.7674 -0.5134 -1.7683
  255SOL     OW  763   0.123   1.164   2.896  0.1678 -0.4094 -0.4307
  255SOL    HW1  764   0.194   1.230   2.867 -0.8671  1.3569 -1.1493
  255SOL    HW2  765   0.163   1.092   2.955 -1.2165  2.0409 -0.7087
  256SOL     OW  766   2.798   1.370   1.741  0.3291 -0.5588  0.3990
  256SOL    HW1  767   2.708   1.416   1.763  1.1888  1.3982 -1.0585
  256SOL    HW2  768   2.782   1.271   1.716 -1.5248  0.7923 -0.1595
  257SOL     OW  769   0.827   0.211   1.794 -0.8485  0.3166  0.1056
  257SOL    HW1  770   0.856   0.291   1.738 -1.0798  0.8213 -1.8477
  257SOL    HW2  771   0.885   0.125   1.782  1.7093 -0.4239  2.8010
  258SOL     OW  772   2.922   1.294   0.471  0.1690 -0.3343  0.1011
  258SOL    HW1  773   2.849   1.363   0.456 -0.3021 -2.4040 -1.1934
  258SOL    HW2  774   2.977   1.296   0.563  4.7289 -1.7490  0.5522
  259SOL     OW  775   0.470   2.963   3.034  0.0790  0.1773  0.3309
  259SOL    HW1  776   0.395   2.907   3.074  1.5141  1.8329 -0.3491
  259SOL    HW2  777   0.483   2.941   2.931  1.6793 -1.9382 -2.8145
  260SOL     OW  778   2.765   0.842   2.762 -0.4843  0.2849  0.2259
  260SOL    HW1  779   2.676   0.790   2.768 -0.1455 -1.5129 -1.9526
  260SOL    HW2  780   2.802   0.892   2.846  1.8309 -2.4759 -3.1058
  261SOL     OW  781   2.742   1.303   1.294  0.1806  0.4110  0.2084
  261SOL    HW1  782   2.655   1.274   1.245  0.7809  1.2894  0.1072
  261SOL    HW2  783   2.812   1.227   1.311  0.7878 -4.2736 -2.7029
  262SOL     OW  784   1.433   2.985   2.042 -0.2768 -0.3514 -0.6265
  262SOL    HW1  785   1.476   3.060   1.985 -0.3507  0.4046  0.7349
  262SOL    HW2  786   1.341   2.948   2.006  0.4222  1.9405  0.4242
  263SOL     OW  787   0.876   0.697   2.349 -0.1557  0.1210 -0.2261
  263SOL    HW1  788   0.835   0.610   2.302  0.2322  1.4722 -1.1360
  263SOL    HW2  789   0.919   0.773   2.290 -2.6276 -0.2349  0.5700
  264SOL     OW  790   2.193   0.835   0.313 -0.1567  0.5052  0.4174
  264SOL    HW1  791   2.126   0.771   0.362 -0.1203 -3.3161  1.7960
  264SOL    HW2  792   2.296   0.824   0.350  3.8473  1.6210  0.1228
  265SOL     OW  793   0.901   2.340   2.678 -0.2033  0.6279 -0.0827
  265SOL    HW1  794   0.963   2.385   2.752  1.6231  1.0383 -0.8347
  265SOL    HW2  795   0.863   2.250   2.712  3.4582  3.6046 -0.2234
  266SOL     OW  796   1.332   1.707   0.013  0.3111 -0.4952 -0.4094
  266SOL    HW1  797   1.332   1.793   0.075 -2.5217 -1.1187  0.6030
  266SOL    HW2  798   1.422   1.690  -0.039  1.2766 -1.2922 -1.1264
  267SOL     OW  799   0.961   3.027   2.359 -0.2842  0.0967  0.1440
  267SOL    HW1  800   0.965   2.996   2.258  0.2856 -0.5478 -0.1912
  267SOL    HW2  801   0.935   3.126   2.365  1.5070  1.2720 -0.2644
  268SOL     OW  802   0.684   1.154   1.086 -0.2496  1.0082 -0.7043
  268SOL    HW1  803   0.677   1.194   1.186  0.5982  2.5652  1.7392
  268SOL    HW2  804   0.667   1.220   1.010 -0.0036 -0.7198 -1.2386
  269SOL     OW  805   2.384   2.517   1.547 -0.1786  0.3485 -0.0255
  269SOL    HW1  806   2.458   2.446   1.566 -0.2713 -0.6027  1.8000
  269SOL    HW2  807   2.340   2.548   1.638  0.9731  0.8217  0.9564
  270SOL     OW  808   0.159   3.000   1.933  0.4898 -0.6743  0.3830
  270SOL    HW1  809   0.174   2.965   1.834  0.1072  1.3761 -0.0344
  270SOL    HW2  810   0.171   2.925   2.004 -0.3945 -1.8699 -0.0148
  271SOL     OW  811   0.401   1.366   1.170  0.5681 -0.1338  0.1652
  271SOL    HW1  812   0.368   1.382   1.070 -0.0538 -0.5518  0.2059
  271SOL    HW2  813   0.319   1.377   1.241 -2.1840 -1.3656 -0.1123
  272SOL     OW  814   1.952   2.857   1.932  0.9511  0.1795  0.0543
  272SOL    HW1  815   1.917   2.785   1.854 -3.8290 -2.2430 -0.8627
  272SOL    HW2  816   2.012   2.931   1.894 -1.0883  0.5617 -0.8045
  273SOL     OW  817   1.456   1.446   2.772  0.2776 -0.2800 -0.3793
  273SOL    HW1  818   1.366   1.497   2.781 -1.5001 -0.9413  1.0116
  273SOL    HW2  819   1.508   1.430   2.860  0.3680 -2.1667  1.7923
  274SOL     OW  820   1.261   0.479   2.011 -0.6358 -0.6172 -0.0877
  274SOL    HW1  821   1.199   0.394   2.015  0.5451  0.6603  1.7805
  274SOL    HW2  822   1.277   0.510   2.111 -0.4690 -0.1919  2.2752
  275SOL     OW  823   0.607   2.101   1.862 -0.1447  0.1056  0.4110
  275SOL    HW1  824   0.569   2.189   1.901 -1.9421  0.3915 -1.0483
  275SOL    HW2  825   0.525   2.032   1.855 -2.0636 -0.6326  0.8959
  276SOL     OW  826   2.163   0.896   2.800  0.4476 -0.5039 -0.6315
  276SOL    HW1  827   2.088   0.864   2.730 -0.9983  0.0135 -0.7576
  276SOL    HW2  828   2.135   0.879   2.897 -1.0458  0.4103 -2.4620
  277SOL     OW  829   3.090   0.868   0.239 -0.4779  0.6973 -0.5593
  277SOL    HW1  830   3.179   0.878   0.188  1.0420 -2.0331  1.0994
  277SOL    HW2  831   3.086   0.778   0.292  0.9347  1.2747  0.4995
  278SOL     OW  832   0.235   0.283   0.017 -0.1562  0.5079  0.1395
  278SOL    HW1  833   0.298   0.210  -0.027 -0.1086 -0.4931 -1.7760
  278SOL    HW2  834   0.278   0.382   0.019  0.1318 -0.7934  1.0022
  279SOL     OW  835   0.156   0.092   0.893  0.4076 -0.7287 -0.6635
  279SOL    HW1  836   0.167   0.066   0.995  0.4879  1.2718  1.2381
  279SOL    HW2  837   0.219   0.031   0.834  0.5236 -0.3087  0.9296
  280SOL     OW  838   1.564   2.945   2.489  0.3578  0.6519 -0.3667
  280SOL    HW1  839   1.654   2.992   2.516 -0.0990  0.9256 -2.8041
  280SOL    HW2  840   1.482   3.007   2.491  1.8750  1.9516 -2.7658
  281SOL     OW  841   0.564   0.931   2.229 -0.4796  0.0027 -0.5653
  281SOL    HW1  842   0.589   0.835   2.195  1.4393 -2.2978 -0.6000
  281SOL    HW2  843   0.531   0.935   2.328  0.1593  1.6571  0.4646
  282SOL     OW  844   1.777   2.509   0.520 -0.2166 -0.0674  0.2093
  282SOL    HW1  845   1.739   2.424   0.476  0.3378 -0.0591  0.8063
  282SOL    HW2  846   1.715   2.594   0.533  2.3789  1.4202  1.2541
  283SOL     OW  847   1.126   0.915   0.848  0.0929  0.3149  0.1019
  283SOL    HW1  848   1.171   0.871   0.927 -2.1338  2.8226 -0.0131
  283SOL    HW2  849   1.081   1.002   0.876  0.8350 -2.6142  1.7871
  284SOL     OW  850   2.365   2.691   2.445  0.4055  0.3145  1.2510
  284SOL    HW1  851   2.386   2.786   2.402  3.3416 -0.5450 -0.3460
  284SOL    HW2  852   2.432   2.676   2.519 -0.9591  0.9281 -3.5353
  285SOL     OW  853   1.306   3.027   2.566 -0.1241 -0.1100  0.3223
  285SOL    HW1  854   1.305   3.050   2.461 -0.1520  0.1916 -0.5009
  285SOL    HW2  855   1.218   3.060   2.608  3.7255 -1.4347 -0.6876
  286SOL     OW  856   0.452   0.457   0.778  0.2182  0.5195  0.1330
  286SOL    HW1  857   0.409   0.406   0.858 -0.7534  0.7494  1.5353
  286SOL    HW2  858   0.434   0.406   0.688 -1.4603  0.7232 -1.9986
  287SOL     OW  859   0.127   1.282   2.542  0.0293 -0.0601 -0.5070
  287SOL    HW1  860   0.067   1.238   2.617 -1.6747  1.9693  1.1604
  287SOL    HW2  861   0.105   1.378   2.518  0.8225 -3.9137  3.1997
  288SOL     OW  862   1.579   2.688   1.580  0.4664 -0.2480  0.3634
  288SOL    HW1  863   1.617   2.658   1.666 -1.2638  0.3322  1.0073
  288SOL    HW2  864   1.623   2.640   1.497 -4.8007 -0.9124  1.7194
  289SOL     OW  865   0.623   2.729   0.845  0.8045 -0.3879  0.0023
  289SOL    HW1  866   0.682   2.787   0.781 -0.6913  0.5781  1.2313
  289SOL    HW2  867   0.583   2.783   0.926 -1.0995 -0.3271  2.3038
  290SOL     OW  868   2.792   1.099   1.703 -0.5208  0.1152 -0.2394
  290SOL    HW1  869   2.692   1.079   1.702  2.1599  0.0109 -1.3071
  290SOL    HW2  870   2.850   1.032   1.755  0.2933  2.4786  0.4395
  291SOL     OW  871   1.988   0.087   0.071  0.1304 -0.3126 -0.4246
  291SOL    HW1  872   1.984   0.080   0.175  2.2718  0.3747 -1.0243
  291SOL    HW2  873   2.045   0.170   0.054  0.6879  0.6838  1.5917
  292SOL     OW  874   3.007   1.196   3.066  0.3764 -0.0128 -0.5276
  292SOL    HW1  875   2.929   1.262   3.039 -0.9432  1.2500  0.4125
  292SOL    HW2  876   3.085   1.195   2.995  1.9637  0.5875 -1.8571
  293SOL     OW  877   0.573   2.143   0.145 -0.0421  0.0576  0.7190
  293SOL    HW1  878   0.524   2.195   0.225  0.3451 -3.0229  0.0560
  293SOL    HW2  879   0.665   2.111   0.171 -1.4918 -2.0699  0.3219
  294SOL     OW  880   1.786   2.207   1.772  0.6363 -0.0110 -0.3340
  294SOL    HW1  881   1.816   2.283   1.837 -1.1553  1.4146  1.5537
  294SOL    HW2  882   1.743   2.256   1.687 -1.1880 -0.2094  0.8680
  295SOL     OW  883   0.990   1.034   0.513 -0.1249  0.1041  0.4668
  295SOL    HW1  884   1.063   0.979   0.551 -2.3480  2.2014 -1.6576
  295SOL    HW2  885   0.916   1.051   0.587  1.9690  0.6524  0.7190
  296SOL     OW  886   1.249   2.117   2.531  0.4377 -0.0130  0.4233
  296SOL    HW1  887   1.238   2.164   2.438  0.1842  0.8537 -1.6254
  296SOL    HW2  888   1.249   2.016   2.514 -2.2150  3.0278  1.3024
  297SOL     OW  889   1.441   0.622   1.362 -0.1126  0.1620 -0.0393
  297SOL    HW1  890   1.420   0.527   1.327  0.1927 -0.9502  0.8193
  297SOL    HW2  891   1.534   0.618   1.415  1.6197 -0.1839 -1.3420
  298SOL     OW  892   0.532   1.375   2.983  0.4987 -0.0125 -0.2366
  298SOL    HW1  893   0.477   1.303   3.034  2.0661  0.9532 -3.3793
  298SOL    HW2  894   0.572   1.322   2.901  1.1916 -1.3781 -2.6525
  299SOL     OW  895   0.521   0.272   1.306 -0.3387  0.7500 -0.7465
  299SOL    HW1  896   0.474   0.362   1.291  2.1711 -1.4536  0.7646
  299SOL    HW2  897   0.570   0.257   1.397 -0.9354 -0.8487 -0.8755
  300SOL     OW  898   1.226   1.845   2.801 -0.2768  0.0750 -0.3737
  300SOL    HW1  899   1.199   1.757   2.844  0.6632 -0.4437 -1.8436
  300SOL    HW2  900   1.329   1.854   2.790 -3.1117 -1.9770  0.5678
  301SOL     OW  901   0.457   0.333   0.503 -0.3294  0.4591 -0.1222
  301SOL    HW1  902   0.363   0.291   0.500 -2.1353  0.6341 -1.5990
  301SOL    HW2  903   0.529   0.278   0.451  2.8168  2.0929  0.1213
  302SOL     OW  904   1.235   2.442   2.345 -0.3917  1.1977  0.5134
  302SOL    HW1  905   1.135   2.463   2.374  0.8564  1.4321 -1.3460
  302SOL    HW2  906   1.255   2.344   2.327  2.6543 -0.3235  0.4349
  303SOL     OW  907   0.969   2.367   0.829 -0.1464  0.4324  0.4438
  303SOL    HW1  908   1.029   2.397   0.751 -1.2364  0.6073  1.8413
  303SOL    HW2  909   0.977   2.420   0.916 -0.6823  0.9061 -1.8806
  304SOL     OW  910   0.116   2.026   0.633 -0.7463 -0.5526  0.2727
  304SOL    HW1  911   0.172   2.000   0.549  0.8023  2.1379  1.0032
  304SOL    HW2  912   0.049   2.105   0.610  1.7429  1.9996 -1.7254
  305SOL     OW  913   1.645   0.926   0.567  0.1042  0.2496 -0.0634
  305SOL    HW1  914   1.580   0.919   0.486  2.3118 -1.7360  1.5100
  305SOL    HW2  915   1.658   0.836   0.617  0.6706  0.1532 -0.5679
  306SOL     OW  916   0.441   1.866   1.912  0.0788 -0.1745  0.6465
  306SOL    HW1  917   0.508   1.800   1.881 -1.4034  2.9741 -0.4211
  306SOL    HW2  918   0.433   1.876   2.014 -1.0256  0.6200 -0.7562
  307SOL     OW  919   3.056   0.913   2.512 -0.0779 -0.3939  0.1637
  307SOL    HW1  920   3.078   0.988   2.584  2.3268  0.9637  0.4583
  307SOL    HW2  921   2.977   0.843   2.537 -1.8065 -0.5981  0.3799
  308SOL     OW  922   1.558   2.657   2.820  0.2784 -0.1501 -0.4654
  308SOL    HW1  923   1.519   2.605   2.732 -2.5853  2.0987 -2.7590
  308SOL    HW2  924   1.497   2.642   2.903  1.1331  0.4103 -2.2471
  309SOL     OW  925   1.231   0.115   1.759 -0.0378  0.7620  0.2897
  309SOL    HW1  926   1.331   0.093   1.787  1.5467  0.4115 -0.1644
  309SOL    HW2  927   1.216   0.118   1.655  1.2665 -0.4690  0.6953
  310SOL     OW  928   1.511   2.541   0.666  0.1137  0.2722  0.4957
  310SOL    HW1  929   1.494   2.549   0.768  0.7132 -0.3295 -0.5112
  310SOL    HW2  930   1.551   2.626   0.624  1.0525 -2.9885  0.2755
  311SOL     OW  931   1.167   1.002   1.625  0.3039  0.6471  0.4301
  311SOL    HW1  932   1.189   0.903   1.615 -1.8036  1.5327  0.0659
  311SOL    HW2  933   1.234   1.064   1.579 -2.0728 -0.6916 -0.8546
  312SOL     OW  934   1.602   0.681   1.054  0.1801 -0.0029  0.7153
  312SOL    HW1  935   1.593   0.771   0.995  2.6302  0.0469  0.7518
  312SOL    HW2  936   1.510   0.632   1.068  0.5567  1.2171 -0.3582
  313SOL     OW  937   1.549   1.378   0.713 -0.6567 -0.6361  0.0132
  313SOL    HW1  938   1.467   1.405   0.771  0.1766  1.1407  2.5119
  313SOL    HW2  939   1.542   1.297   0.647  0.0537  0.5409  1.8206
  314SOL     OW  940   2.934   0.037   3.029 -0.4465 -0.4374 -0.9604
  314SOL    HW1  941   2.931   0.059   3.133 -0.5099  1.3207  1.1374
  314SOL    HW2  942   2.847  -0.014   2.999  0.1868  0.3920 -1.8966
  315SOL     OW  943   1.247   0.218   2.801 -0.1273 -0.2621 -0.0944
  315SOL    HW1  944   1.191   0.154   2.736 -0.7193 -1.9021  0.5845
  315SOL    HW2  945   1.262   0.172   2.890  0.5601  0.9660 -3.9730
  316SOL     OW  946   1.717   2.043   0.853  0.0059 -0.1865 -0.5314
  316SOL    HW1  947   1.670   2.044   0.945 -1.5111 -0.2610  0.6418
  316SOL    HW2  948   1.726   2.137   0.811 -3.0910 -0.1939 -0.1102
  317SOL     OW  949   1.112   0.652   2.879  0.0638 -0.0013  0.0094
  317SOL    HW1  950   1.056   0.686   2.961  1.2318 -0.4609  0.7008
  317SOL    HW2  951   1.073   0.562   2.849 -1.8564 -2.5103  1.3345
  318SOL     OW  952   1.355   3.082   2.298  0.1226  0.2404  0.4509
  318SOL    HW1  953   1.336   3.169   2.249 -0.5388  0.9184  2.3694
  318SOL    HW2  954   1.415   3.013   2.252 -1.1420  1.2327  2.8794
  319SOL     OW  955   0.732   2.428   2.929 -0.2302  0.1692 -0.4871
  319SOL    HW1  956   0.665   2.361   2.965  0.5906  0.4354 -1.2476
  319SOL    HW2  957   0.831   2.401   2.949  0.6998 -1.8396  0.3066
  320SOL     OW  958   1.713   2.266   0.397  0.3743  0.1399  0.3625
  320SOL    HW1  959   1.806   2.218   0.383 -2.8293  1.2650 -1.9003
  320SOL    HW2  960   1.639   2.199   0.416 -0.4900  0.5005  2.8683
  321SOL     OW  961   1.657   2.738   0.495 -0.6525 -0.0799  0.6568
  321SOL    HW1  962   1.597   2.757   0.409  0.6907  1.5818 -0.4325
  321SOL    HW2  963   1.756   2.775   0.491 -1.5983 -0.5562 -1.1296
  322SOL     OW  964   2.590   1.160   2.402 -0.0630 -0.0047 -0.5903
  322SOL    HW1  965   2.680   1.209   2.410 -1.2480 -1.1374  1.8072
  322SOL    HW2  966   2.579   1.094   2.478 -0.7955  2.5364 -1.3394
  323SOL     OW  967   1.160   2.638   0.860  0.5959 -0.1276  0.4300
  323SOL    HW1  968   1.153   2.593   0.765 -1.2734 -0.8137  0.6086
  323SOL    HW2  969   1.135   2.739   0.861  0.3176 -0.0092  0.1639
  324SOL     OW  970   0.253   2.503   2.532  0.2219 -0.2548 -0.2875
  324SOL    HW1  971   0.292   2.462   2.623  1.0582 -0.2758  2.7298
  324SOL    HW2  972   0.151   2.529   2.539 -1.6670 -0.2114 -2.8048
  325SOL     OW  973   1.252   3.024   0.507  0.3009  0.4836  0.1153
  325SOL    HW1  974   1.275   3.095   0.429  0.1970  1.5480 -1.7387
  325SOL    HW2  975   1.274   3.063   0.601 -0.3325  1.5430  1.1768
  326SOL     OW  976   2.438   0.773   3.081  0.3504 -0.2601 -0.2888
  326SOL    HW1  977   2.424   0.716   2.994  2.1051  1.6438 -1.5604
  326SOL    HW2  978   2.496   0.720   3.149  3.3146  0.3812 -0.9208
  327SOL     OW  979   2.839   0.366   0.636  0.2937 -0.4691  0.0462
  327SOL    HW1  980   2.833   0.324   0.541  2.0106  0.1318  1.5027
  327SOL    HW2  981   2.889   0.303   0.700  1.0389 -0.6662 -0.9338
  328SOL     OW  982   2.559   0.570   0.391  0.5193 -0.5389  0.1678
  328SOL    HW1  983   2.511   0.661   0.387 -2.2475  0.6974  0.9285
  328SOL    HW2  984   2.559   0.530   0.485  0.9477 -0.1914  2.9641
  329SOL     OW  985   2.968   2.964   2.136  0.1746 -0.4923 -0.5915
  329SOL    HW1  986   3.026   2.889   2.176 -1.0664 -3.6788 -0.5546
  329SOL    HW2  987   2.969   3.048   2.195  0.6651 -3.3399  2.6024
  330SOL     OW  988   0.574   0.151   1.892  0.4691 -0.2197  0.2542
  330SOL    HW1  989   0.666   0.170   1.855 -0.9704 -0.0645 -0.9008
  330SOL    HW2  990   0.580   0.091   1.975  0.1542  1.0056 -1.3872
  331SOL     OW  991   2.968   1.898   1.139 -0.3056 -0.4113 -0.2238
  331SOL    HW1  992   3.005   1.980   1.086  1.4881 -0.2648  1.0770
  331SOL    HW2  993   2.897   1.922   1.216  1.1997  1.6686  0.8511
  332SOL     OW  994   0.434   1.156  -0.003 -0.2604  0.1040 -0.0940
  332SOL    HW1  995   0.365   1.082  -0.032 -3.5787  1.0784  0.4022
  332SOL    HW2  996   0.410   1.198   0.092  0.5584 -0.3029 -1.8478
  333SOL     OW  997   2.895   1.055   0.332 -0.0227  0.3518  0.4093
  333SOL    HW1  998   2.919   1.128   0.402 -0.8472 -0.9489 -1.4236
  333SOL    HW2  999   2.979   0.992   0.310  1.3092  0.3886  1.1341
  334SOL     OW 1000   1.677   1.245   1.839 -0.0990  0.4136 -0.0637
  334SOL    HW1 1001   1.763   1.216   1.793 -0.3099 -0.8386  0.8180
  334SOL    HW2 1002   1.686   1.279   1.937 -0.1819 -0.1372  0.3975
  335SOL     OW 1003   1.998   2.750   2.602  0.1356 -0.7591  0.0738
  335SOL    HW1 1004   1.911   2.716   2.646  2.2262 -0.3203 -0.9095
  335SOL    HW2 1005   2.056   2.808   2.669  0.9791 -2.2341 -2.2137
  336SOL     OW 1006   0.275   0.164   2.773  0.1670  0.3573 -0.0873
  336SOL    HW1 1007   0.349   0.134   2.837 -2.3007  2.5180  1.8170
  336SOL    HW2 1008   0.202   0.222   2.821  0.3179 -0.6252 -2.5933
  337SOL     OW 1009   0.965   2.772   2.818 -0.2057  0.8360 -0.2699
  337SOL    HW1 1010   0.950   2.727   2.911  1.1330 -2.3132 -0.8478
  337SOL    HW2 1011   1.065   2.767   2.785 -0.8114  1.1987 -1.7948
  338SOL     OW 1012   0.020   1.026   0.620  0.0119 -0.6472 -0.3148
  338SOL    HW1 1013  -0.068   0.982   0.651 -1.6701  1.5486 -0.9026
  338SOL    HW2 1014   0.016   1.130   0.619 -1.7577  1.2194  0.7588
  339SOL     OW 1015   1.708   1.342   2.097 -0.5335 -0.0708  0.4479
  339SOL    HW1 1016   1.611   1.374   2.105  1.1470  1.2804 -0.8809
  339SOL    HW2 1017   1.766   1.414   2.147 -1.3130  0.5836  1.3208
  340SOL     OW 1018   2.363   0.797   1.150  0.7638  0.3650 -0.6561
  340SOL    HW1 1019   2.264   0.823   1.166 -0.0558 -0.9524 -1.0855
  340SOL    HW2 1020   2.373   0.723   1.078 -1.0910  2.7531  0.3233
  341SOL     OW 1021   1.952   2.091   0.333 -1.1785  0.1383  0.3192
  341SOL    HW1 1022   1.946   2.126   0.234 -0.2050 -0.7389  0.3983
  341SOL    HW2 1023   2.048   2.063   0.355 -1.4553 -0.4679 -0.2309
  342SOL     OW 1024   2.267   2.101   2.711 -0.2813 -0.3147  0.0868
  342SOL    HW1 1025   2.308   2.008   2.738  0.4930  0.6200  0.2353
  342SOL    HW2 1026   2.161   2.091   2.709  0.0139 -0.4965 -0.7271
  343SOL     OW 1027   0.372   0.860   2.755 -0.2463  0.3829 -0.2513
  343SOL    HW1 1028   0.360   0.958   2.715  0.5758 -2.5301 -1.8273
  343SOL    HW2 1029   0.464   0.846   2.807  0.8137 -1.0376 -2.1606
  344SOL     OW 1030   1.927   1.434   0.375 -0.3149  0.9298 -0.0120
  344SOL    HW1 1031   1.939   1.347   0.316 -1.8946 -0.7343  0.4011
  344SOL    HW2 1032   1.828   1.438   0.408 -0.2684 -0.5342  0.3427
  345SOL     OW 1033   1.435   2.241   2.906  0.0830 -0.2159  0.4415
  345SOL    HW1 1034   1.342   2.198   2.887 -0.7888 -2.6472  0.0270
  345SOL    HW2 1035   1.490   2.244   2.817  0.7997  0.3397 -1.4357
  346SOL     OW 1036   2.372   0.885   1.406 -0.6185 -0.3402  0.1627
  346SOL    HW1 1037   2.338   0.983   1.416  1.8647 -0.1886  0.8465
  346SOL    HW2 1038   2.354   0.854   1.307 -2.4315 -0.0157 -0.4201
  347SOL     OW 1039   0.758   2.831   1.510 -0.0228  0.3892  0.4094
  347SOL    HW1 1040   0.702   2.790   1.592  1.4869  0.0592  1.5848
  347SOL    HW2 1041   0.716   2.923   1.483  0.7907  0.6208  0.3774
  348SOL     OW 1042   0.207   0.677   2.841 -0.0955 -0.4221  0.2828
  348SOL    HW1 1043   0.106   0.714   2.820 -2.6783  3.4878  1.0819
  348SOL    HW2 1044   0.276   0.748   2.807  1.1338 -0.2339  2.5805
  349SOL     OW 1045   1.875   0.447   2.795  0.0636  0.5743  0.1274
  349SOL    HW1 1046   1.871   0.535   2.736  2.2125  0.7916  1.4664
  349SOL    HW2 1047   1.869   0.457   2.902  1.1603 -1.0169  1.8559
  350SOL     OW 1048   1.650   0.410   0.336  0.3647 -0.1718  0.3899
  350SOL    HW1 1049   1.689   0.410   0.433 -0.6587 -1.8441  1.4167
  350SOL    HW2 1050   1.602   0.498   0.321 -1.0156 -0.0815  0.2729
  351SOL     OW 1051   1.001   0.881   2.154 -0.0888 -0.4020 -0.6662
  351SOL    HW1 1052   0.975   0.972   2.119  2.9103  0.8829  0.3934
  351SOL    HW2 1053   1.064   0.828   2.091  0.7496  3.0302  0.5392
  352SOL     OW 1054   2.045   1.331   0.632  0.4148 -0.2375  0.3263
  352SOL    HW1 1055   1.991   1.389   0.571  1.7918  1.7492 -1.7141
  352SOL    HW2 1056   2.112   1.377   0.694 -4.7148 -2.6636  3.8655
  353SOL     OW 1057   2.196   2.836   1.037 -0.6475 -0.1458 -0.1122
  353SOL    HW1 1058   2.220   2.802   1.134  2.8278 -0.2485  0.6937
  353SOL    HW2 1059   2.105   2.799   1.004 -0.1990 -2.5223 -3.3016
  354SOL     OW 1060   0.283   1.412   2.828  0.5424 -0.1597  0.5741
  354SOL    HW1 1061   0.267   1.497   2.774  2.3515  0.5625 -0.6728
  354SOL    HW2 1062   0.381   1.410   2.861  0.2831  0.5058 -0.5434
  355SOL     OW 1063   0.545   1.516   0.560  0.9127 -0.0970  0.7499
  355SOL    HW1 1064   0.566   1.569   0.645 -0.3066 -1.2504  2.5583
  355SOL    HW2 1065   0.604   1.431   0.551  2.4055  1.1221 -1.1120
  356SOL     OW 1066   0.866   0.255   2.094  0.6457  0.2059  0.7793
  356SOL    HW1 1067   0.967   0.237   2.081 -0.3052  0.4650  0.0871
  356SOL    HW2 1068   0.823   0.240   2.000  2.5681  2.2419  2.8939
  357SOL     OW 1069   0.994   1.270   0.351  0.1495 -0.0019 -0.6256
  357SOL    HW1 1070   0.960   1.242   0.257  1.9627 -0.1553 -0.9570
  357SOL    HW2 1071   1.006   1.185   0.412 -0.2082  2.0404 -0.0488
  358SOL     OW 1072   1.658   1.467   0.469 -0.3706  0.2408  0.1228
  358SOL    HW1 1073   1.606   1.440   0.556 -1.5694  2.9568 -0.5074
  358SOL    HW2 1074   1.603   1.454   0.379 -0.5315 -0.5726  1.1438
  359SOL     OW 1075   1.585   2.662   0.144  0.1259 -0.2459  0.6311
  359SOL    HW1 1076   1.565   2.556   0.145  2.3224 -3.9889 -0.1698
  359SOL    HW2 1077   1.507   2.726   0.150  0.9428 -1.9689 -0.7595
  360SOL     OW 1078   0.860   0.559   0.600 -0.0715  0.1491  0.1785
  360SOL    HW1 1079   0.756   0.561   0.583 -0.0593 -0.3832 -1.1430
  360SOL    HW2 1080   0.893   0.467   0.640 -0.2912 -1.4900  0.7961
  361SOL     OW 1081   1.203   1.316   0.763  0.0495 -0.3481 -0.3666
  361SOL    HW1 1082   1.250   1.398   0.805 -1.0717 -0.1367  2.2082
  361SOL    HW2 1083   1.105   1.345   0.729  1.0256  0.0496  1.9016
  362SOL     OW 1084   1.350   1.859   0.788  0.2459 -0.1633 -0.2965
  362SOL    HW1 1085   1.413   1.824   0.862 -1.5730 -1.3039  0.1051
  362SOL    HW2 1086   1.396   1.873   0.698  0.6656  0.6045 -1.5171
  363SOL     OW 1087   1.231   1.308   2.013  0.1041 -0.8720  0.5559
  363SOL    HW1 1088   1.321   1.327   2.056 -0.3236 -0.3759  1.8287
  363SOL    HW2 1089   1.220   1.361   1.923 -0.8608 -1.2842 -0.3408
  364SOL     OW 1090   0.474   2.320   1.978  0.0930  0.1688  0.5422
  364SOL    HW1 1091   0.375   2.348   1.998 -1.7708  1.2234  2.3065
  364SOL    HW2 1092   0.512   2.371   1.896 -1.6767 -1.8126 -1.5047
  365SOL     OW 1093   1.007   1.877   1.404  0.1849  0.4420 -0.3606
  365SOL    HW1 1094   0.911   1.919   1.409  1.3086  0.6121 -0.7805
  365SOL    HW2 1095   1.035   1.838   1.312 -2.3017 -3.6692 -0.7566
  366SOL     OW 1096   2.748   2.084   0.432  0.5171 -0.3885  0.1011
  366SOL    HW1 1097   2.648   2.057   0.442 -1.8582  0.9166 -0.3116
  366SOL    HW2 1098   2.797   2.010   0.377 -1.2704  1.5475  0.1356
  367SOL     OW 1099   0.929   1.121   0.088  0.7336  0.2750 -0.4419
  367SOL    HW1 1100   0.940   1.026   0.128 -1.2587 -1.2120 -0.5837
  367SOL    HW2 1101   1.010   1.156   0.034 -0.2214  0.0971 -1.7743
  368SOL     OW 1102   1.478   0.539   0.732  0.7297  0.5705 -0.0054
  368SOL    HW1 1103   1.424   0.549   0.643  2.2286  0.0926  0.6575
  368SOL    HW2 1104   1.554   0.606   0.740 -2.3050 -0.0840 -3.6997
  369SOL     OW 1105   0.237   1.744   0.054  1.0258  0.1212  0.2319
  369SOL    HW1 1106   0.296   1.797   0.123 -0.9236 -0.5014 -1.2899
  369SOL    HW2 1107   0.164   1.686   0.097  0.0737  0.8653 -0.3627
  370SOL     OW 1108   0.440   2.071   0.997 -0.6043 -0.0027 -0.8707
  370SOL    HW1 1109   0.455   2.170   0.968 -2.1135 -1.7253 -1.1481
  370SOL    HW2 1110   0.358   2.032   0.950 -1.1913 -1.5725 -2.0673
  371SOL     OW 1111   2.900   2.161   2.681  0.3167 -0.0076 -0.1072
  371SOL    HW1 1112   2.827   2.104   2.737 -2.1530 -0.8422 -0.2739
  371SOL    HW2 1113   2.976   2.194   2.745 -1.3118 -0.2440 -1.2179
  372SOL     OW 1114   1.128   1.981   1.130 -0.0250 -0.4162  0.1104
  372SOL    HW1 1115   1.077   2.027   1.056  0.6370  1.6222  0.2250
  372SOL    HW2 1116   1.151   2.052   1.197  2.7753 -0.2654 -1.8151
  373SOL     OW 1117   1.997   1.997   0.880  0.4195 -0.1839  0.1765
  373SOL    HW1 1118   2.059   2.009   0.962  0.1289  1.1918 -1.4988
  373SOL    HW2 1119   1.899   2.020   0.904  2.0277 -0.5822 -0.8808
  374SOL     OW 1120   1.793   0.449   0.577  0.1395 -0.3298 -0.3468
  374SOL    HW1 1121   1.830   0.388   0.658  4.8045 -2.7592  1.2717
  374SOL    HW2 1122   1.868   0.481   0.517  0.3700  0.3088  2.1581
  375SOL     OW 1123   2.433   2.204   1.157  0.6332 -0.3165 -0.1543
  375SOL    HW1 1124   2.517   2.175   1.103 -0.1358  0.3595 -1.2889
  375SOL    HW2 1125   2.421   2.160   1.251 -1.1525 -1.2444  0.3011
  376SOL     OW 1126   3.065   0.563   1.464  0.2701 -0.1937 -0.1332
  376SOL    HW1 1127   3.076   0.635   1.538  1.7704 -1.0317  1.0175
  376SOL    HW2 1128   2.966   0.538   1.443  0.5209 -1.9175  0.6394
  377SOL     OW 1129   2.233   2.850   0.363 -0.1760 -0.2317  0.0019
  377SOL    HW1 1130   2.214   2.956   0.365 -0.6618  1.3973 -1.8022
  377SOL    HW2 1131   2.335   2.823   0.361 -0.1398  0.9648 -1.4653
  378SOL     OW 1132   1.852   1.832   2.626  0.3787  0.6219 -0.6811
  378SOL    HW1 1133   1.806   1.754   2.681  2.3361 -0.1062  3.2199
  378SOL    HW2 1134   1.917   1.792   2.549 -1.1996  1.0319 -2.1279
  379SOL     OW 1135   0.825   0.144   2.791 -0.3468  0.1125  0.5902
  379SOL    HW1 1136   0.749   0.082   2.767 -2.9120  0.3990  0.6000
  379SOL    HW2 1137   0.843   0.215   2.720 -3.3660 -1.4812  3.0369
  380SOL     OW 1138   1.501   1.158   0.578  0.0923  0.4399  0.1089
  380SOL    HW1 1139   1.406   1.136   0.615 -1.5063 -1.0479 -2.7314
  380SOL    HW2 1140   1.565   1.069   0.576  1.2540 -2.5882 -1.7053
  381SOL     OW 1141   1.365   1.164   1.504 -0.2575  0.1818 -0.2336
  381SOL    HW1 1142   1.411   1.159   1.408  0.2427  0.5196 -2.1071
  381SOL    HW2 1143   1.425   1.128   1.582  1.8679 -0.3481 -0.2319
  382SOL     OW 1144   1.799   0.844   0.169  0.1563 -0.3333 -0.6500
  382SOL    HW1 1145   1.853   0.827   0.084  0.7732 -2.0856 -2.2801
  382SOL    HW2 1146   1.859   0.863   0.248 -1.6177 -0.1416 -1.4748
  383SOL     OW 1147   2.623   1.027   1.461  0.0559 -0.2703  0.3320
  383SOL    HW1 1148   2.546   0.974   1.423  4.0193  0.4177  0.5776
  383SOL    HW2 1149   2.716   1.002   1.417  1.3701 -1.2929 -0.7792
  384SOL     OW 1150   0.911   2.308   0.129 -0.5669  0.3482 -0.0741
  384SOL    HW1 1151   0.887   2.379   0.200 -0.8416 -0.1241  1.7338
  384SOL    HW2 1152   0.868   2.216   0.150  0.1422  1.8967  1.1499
  385SOL     OW 1153   3.008   2.007   1.725  0.6684 -0.2451 -0.2438
  385SOL    HW1 1154   3.074   2.050   1.658 -1.6179  1.4578 -0.8113
  385SOL    HW2 1155   3.027   1.909   1.734 -0.3697  1.9084  1.8536
  386SOL     OW 1156   0.440   1.090   0.439 -0.0405 -0.4508  0.5015
  386SOL    HW1 1157   0.427   0.988   0.445  0.0304 -0.2843 -0.4160
  386SOL    HW2 1158   0.403   1.132   0.347 -0.7605  0.7310 -2.1292
  387SOL     OW 1159   0.950   0.390   1.637 -0.8391  0.2728  0.0211
  387SOL    HW1 1160   1.031   0.460   1.638  0.8092  1.2144 -0.1155
  387SOL    HW2 1161   0.951   0.331   1.551 -0.9290  1.8699 -1.6993
  388SOL     OW 1162   1.193   2.639   1.766 -0.5212  0.1583 -0.0455
  388SOL    HW1 1163   1.220   2.609   1.667  2.2801 -0.7788  1.4779
  388SOL    HW2 1164   1.235   2.578   1.840 -0.2726 -1.0426 -1.5523
  389SOL     OW 1165   0.192   3.056   1.153 -0.1573 -0.6911 -1.1112
  389SOL    HW1 1166   0.126   3.072   1.233 -0.3068 -2.0379 -0.7741
  389SOL    HW2 1167   0.193   2.957   1.130 -3.7556  0.3417 -0.9699
  390SOL     OW 1168   1.009   0.966   1.298 -0.5061  0.3790  0.0802
  390SOL    HW1 1169   1.107   0.939   1.319 -1.2715 -0.0254 -0.7696
  390SOL    HW2 1170   0.971   1.046   1.351 -3.1553  0.0895 -1.0155
  391SOL     OW 1171   2.085   1.191   0.975 -0.1782  0.2590  0.4897
  391SOL    HW1 1172   2.004   1.138   1.024 -0.3724 -1.0390  2.7409
  391SOL    HW2 1173   2.136   1.135   0.906  1.3154  1.5089  1.2706
  392SOL     OW 1174   0.896   2.646   3.077  0.3557 -0.0246  0.2390
  392SOL    HW1 1175   0.803   2.636   3.125  1.1105 -0.4172  0.5059
  392SOL    HW2 1176   0.981   2.657   3.141 -0.3186  0.1246 -0.4231
  393SOL     OW 1177   0.421   0.455   2.022 -0.0326  0.1795 -0.8204
  393SOL    HW1 1178   0.354   0.376   1.999  3.1824 -0.4146 -1.6168
  393SOL    HW2 1179   0.510   0.448   1.966 -2.2661 -1.1970 -1.4162
  394SOL     OW 1180   3.020   1.781   2.767 -0.8530  0.4258 -0.0238
  394SOL    HW1 1181   3.099   1.839   2.806  0.6161  1.3691  1.7535
  394SOL    HW2 1182   3.004   1.800   2.665  0.8432 -0.4397  1.7395
  395SOL     OW 1183   1.582   1.919   0.632  0.4092 -0.1635  0.2438
  395SOL    HW1 1184   1.627   1.840   0.583 -2.4511 -0.2114 -2.2967
  395SOL    HW2 1185   1.638   1.964   0.703  0.3807  1.3995  0.1723
  396SOL     OW 1186   2.760   1.964   1.313  0.4377 -0.1341 -0.5203
  396SOL    HW1 1187   2.673   2.023   1.326 -1.8034 -0.9055 -0.2828
  396SOL    HW2 1188   2.755   1.870   1.349 -0.4446  1.0749  0.1403
  397SOL     OW 1189   1.030   2.157   0.593 -0.4531  0.7307 -0.4967
  397SOL    HW1 1190   0.943   2.103   0.562 -1.7211 -0.9209 -0.0574
  397SOL    HW2 1191   1.003   2.248   0.626  1.4348 -0.8652 -6.3751
  398SOL     OW 1192   2.241   0.041   1.003  0.0121 -0.2835  0.1723
  398SOL    HW1 1193   2.226  -0.064   0.997 -0.1212  1.2271 -1.9474
  398SOL    HW2 1194   2.176   0.090   1.069 -2.9620  0.4680  2.4822
  399SOL     OW 1195   2.886   2.537   2.764  0.1911 -0.1788 -0.0416
  399SOL    HW1 1196   2.864   2.485   2.680  1.4573  0.1089 -0.4838
  399SOL    HW2 1197   2.817   2.531   2.842  1.7500  1.4434 -1.9707
  400SOL     OW 1198   0.761   1.572   1.276  0.0457  0.1857  0.3035
  400SOL    HW1 1199   0.713   1.596   1.368 -3.4945  0.8403  0.9038
  400SOL    HW2 1200   0.773   1.650   1.209 -1.0179 -2.5708 -0.1330
  401SOL     OW 1201   1.841   0.151   1.363  0.1930 -0.3792  0.5998
  401SOL    HW1 1202   1.893   0.143   1.453  1.7898 -0.3183  2.6750
  401SOL    HW2 1203   1.736   0.137   1.367  0.3481 -1.7004 -0.5798
  402SOL     OW 1204   1.331   0.143   3.075 -0.1361 -0.2951 -0.0013
  402SOL    HW1 1205   1.424   0.127   3.032 -1.3075 -1.1560 -0.4803
  402SOL    HW2 1206   1.317   0.242   3.113 -0.8740 -1.9390 -0.1490
  403SOL     OW 1207   2.313   1.843   0.889  0.0096 -0.0790 -0.0229
  403SOL    HW1 1208   2.410   1.815   0.917  0.9390  0.8034 -0.0871
  403SOL    HW2 1209   2.278   1.912   0.956 -0.2038 -1.8819  2.6479
  404SOL     OW 1210   0.201   2.477   2.862  0.1103 -0.0184 -0.5307
  404SOL    HW1 1211   0.293   2.463   2.818 -0.4711  0.1555 -1.1116
  404SOL    HW2 1212   0.187   2.576   2.877  1.7717  1.2293 -0.2754
  405SOL     OW 1213   0.183   2.467   0.567 -0.4008 -0.6985 -0.4670
  405SOL    HW1 1214   0.129   2.456   0.479  0.2916 -2.8101  0.7622
  405SOL    HW2 1215   0.253   2.542   0.577 -0.7267 -0.8360  2.4500
  406SOL     OW 1216   0.035   1.454   2.970  0.1988 -0.2260 -0.0664
  406SOL    HW1 1217   0.134   1.448   2.941 -4.6011 -1.3185  2.6159
  406SOL    HW2 1218   0.027   1.473   3.072 -0.2844 -2.3684  0.3340
  407SOL     OW 1219   1.587   0.927   0.879  0.2780 -0.1817 -0.1872
  407SOL    HW1 1220   1.582   0.922   0.776  0.7590 -2.8599  1.4196
  407SOL    HW2 1221   1.511   0.986   0.917 -0.1567  1.2000  0.5666
  408SOL     OW 1222   1.619   2.336   0.994 -0.5880  1.0449 -0.3915
  408SOL    HW1 1223   1.693   2.314   0.918  2.0388 -2.3648 -2.1325
  408SOL    HW2 1224   1.592   2.434   0.994  0.4615 -3.5749 -2.5472
  409SOL     OW 1225   0.581   0.877   0.770  0.5055 -0.1654 -0.0272
  409SOL    HW1 1226   0.543   0.894   0.672 -1.1297 -1.7860 -1.9724
  409SOL    HW2 1227   0.604   0.776   0.785  0.6999  2.0788  0.4338
  410SOL     OW 1228   1.261   2.005   1.418  0.3979  0.1427  0.2198
  410SOL    HW1 1229   1.317   1.969   1.492 -3.0708  1.0674 -2.0962
  410SOL    HW2 1230   1.164   1.959   1.422  3.4343  0.9552 -1.0229
  411SOL     OW 1231   2.463   1.889   3.058  0.3705  0.3037  0.2378
  411SOL    HW1 1232   2.379   1.927   3.008  0.1638  1.1542 -0.7982
  411SOL    HW2 1233   2.549   1.886   2.998  1.2130  0.9366  0.6591
  412SOL     OW 1234   1.467   2.479   2.230  0.2374 -0.5188 -0.4557
  412SOL    HW1 1235   1.526   2.559   2.259 -0.5995  0.4486 -3.3565
  412SOL    HW2 1236   1.373   2.479   2.269  0.5859  1.6463  0.3423
  413SOL     OW 1237   0.018   0.253   2.923 -0.2244  0.1988 -0.0042
  413SOL    HW1 1238  -0.055   0.180   2.941  0.4636  2.2340 -1.6488
  413SOL    HW2 1239   0.083   0.270   3.002 -1.6611 -2.0543  1.6271
  414SOL     OW 1240   1.788   1.462   1.360  0.4118  0.3529 -0.0433
  414SOL    HW1 1241   1.706   1.514   1.392  1.6009 -0.2649  0.5616
  414SOL    HW2 1242   1.755   1.405   1.279 -2.5718 -0.7407 -0.9244
  415SOL     OW 1243   0.308   2.211   0.691 -0.6479 -0.2525  0.3394
  415SOL    HW1 1244   0.272   2.293   0.644 -3.0462 -0.6107 -0.2998
  415SOL    HW2 1245   0.248   2.126   0.679 -0.4931  1.2943  1.5589
  416SOL     OW 1246   0.340   1.062   1.063  0.1978  0.1890  0.2767
  416SOL    HW1 1247   0.291   1.030   0.977  1.0606  1.9018 -0.8081
  416SOL    HW2 1248   0.438   1.101   1.058  0.7849  2.0477 -0.1268
  417SOL     OW 1249   2.100   2.334   1.877 -0.2670  0.3682  0.1161
  417SOL    HW1 1250   2.123   2.235   1.906  1.2327 -2.1340  0.0429
  417SOL    HW2 1251   2.016   2.374   1.923 -0.6890  0.0639 -0.0318
  418SOL     OW 1252   1.104   0.505   1.266  0.5249  0.6011 -0.6406
  418SOL    HW1 1253   1.007   0.467   1.262 -0.7378 -1.2573  1.3917
  418SOL    HW2 1254   1.112   0.573   1.189 -1.3381 -1.2727  0.6807
  419SOL     OW 1255   1.039   0.354   3.019 -0.2711  0.3299 -0.7813
  419SOL    HW1 1256   1.072   0.383   2.929 -1.1455 -1.9942  1.8419
  419SOL    HW2 1257   0.962   0.290   3.014  0.7144  2.5910 -1.6932
  420SOL     OW 1258   0.175   2.230   0.365 -0.6146 -0.0577 -0.6129
  420SOL    HW1 1259   0.160   2.193   0.269 -0.9671 -1.7085 -0.4661
  420SOL    HW2 1260   0.092   2.212   0.427  2.1339 -2.2952  2.7123
  421SOL     OW 1261   0.320   3.077   0.681  0.0392 -0.6563  0.4329
  421SOL    HW1 1262   0.260   3.001   0.640 -3.4212  2.6795  0.9423
  421SOL    HW2 1263   0.418   3.071   0.656 -1.6152  0.4995  0.3519
  422SOL     OW 1264   0.966   2.548   1.066 -0.2005 -0.0948 -0.1866
  422SOL    HW1 1265   1.031   2.604   1.003 -0.3193  1.1102  0.2939
  422SOL    HW2 1266   0.996   2.563   1.168  0.3136  1.4319 -1.1132
  423SOL     OW 1267   0.096   0.678   1.266  0.3075  0.5823  0.4102
  423SOL    HW1 1268   0.053   0.624   1.344  0.6725  0.5663  0.7371
  423SOL    HW2 1269   0.107   0.771   1.294 -1.4939 -3.0155 -1.3575
  424SOL     OW 1270   1.011   2.218   2.057  0.1956  0.0519  0.0877
  424SOL    HW1 1271   0.997   2.318   2.026  1.5276  0.3441 -2.2064
  424SOL    HW2 1272   1.001   2.211   2.160 -3.0305  2.4756  0.4600
  425SOL     OW 1273   1.972   1.428   0.965 -0.0149 -0.1446 -0.5747
  425SOL    HW1 1274   2.006   1.332   0.968 -2.0026 -1.5773  0.4161
  425SOL    HW2 1275   2.041   1.503   0.947  0.6750  1.2019  1.0811
  426SOL     OW 1276   1.499   1.534   1.424 -0.4029 -0.3697 -0.2139
  426SOL    HW1 1277   1.471   1.621   1.380 -0.8994 -0.7413  1.0018
  426SOL    HW2 1278   1.476   1.523   1.524  0.0093  1.3349 -0.9996
  427SOL     OW 1279   1.883   2.375   2.043  0.2087  0.1691 -0.6862
  427SOL    HW1 1280   1.941   2.305   2.089 -2.2371  0.3660 -0.1818
  427SOL    HW2 1281   1.884   2.470   2.084 -1.6358 -0.0709 -0.5703
  428SOL     OW 1282   0.864   2.908   0.165 -0.2943  0.0113  0.2828
  428SOL    HW1 1283   0.922   2.984   0.208  0.4657  0.6125  1.5440
  428SOL    HW2 1284   0.910   2.853   0.090  2.6447 -0.7043 -0.2168
  429SOL     OW 1285   1.298   0.094   0.261 -0.0525  0.2037  0.0198
  429SOL    HW1 1286   1.398   0.099   0.289  1.5364  1.5835  1.7731
  429SOL    HW2 1287   1.292   0.114   0.160  1.9742  1.0027  1.6653
  430SOL     OW 1288   2.706   1.481   0.381  0.1735  0.0291 -0.2356
  430SOL    HW1 1289   2.763   1.530   0.307  0.7502  0.0564 -2.0158
  430SOL    HW2 1290   2.715   1.537   0.469 -2.2747  0.9949 -2.4589
  431SOL     OW 1291   2.123   1.630   0.865  0.5735  0.0178 -0.5998
  431SOL    HW1 1292   2.206   1.690   0.874  0.6175  0.5293  0.4605
  431SOL    HW2 1293   2.043   1.676   0.815  0.7339 -1.2673 -0.4709
  432SOL     OW 1294   2.890   2.238   1.272 -0.4121 -0.0498 -0.1513
  432SOL    HW1 1295   2.848   2.144   1.291 -0.7089 -2.7582  3.2386
  432SOL    HW2 1296   2.936   2.278   1.362  0.5597 -1.6976  1.7103
  433SOL     OW 1297   1.878   0.377   0.838  0.6292 -0.6883  0.1564
  433SOL    HW1 1298   1.806   0.342   0.904  0.7704 -0.0109 -1.1656
  433SOL    HW2 1299   1.970   0.331   0.850  1.9538  2.0577 -1.1467
  434SOL     OW 1300   1.584   0.274   0.745 -0.0114 -0.5783  0.6514
  434SOL    HW1 1301   1.558   0.374   0.747  0.1946 -0.7688  0.8453
  434SOL    HW2 1302   1.629   0.241   0.838  0.2538 -0.9345 -0.3439
  435SOL     OW 1303   1.432   1.454   2.119  0.3498 -0.6634  0.4683
  435SOL    HW1 1304   1.362   1.460   2.200 -2.3379  0.6287 -1.5267
  435SOL    HW2 1305   1.450   1.539   2.067 -0.1749  1.3669  0.1532
  436SOL     OW 1306   1.654   2.715   2.353  0.2686  0.3505  0.2238
  436SOL    HW1 1307   1.599   2.772   2.414  3.1010  1.8610  0.9091
  436SOL    HW2 1308   1.688   2.628   2.401 -0.4549  1.0420 -0.4167
  437SOL     OW 1309   1.104   2.911   0.874  0.1157  0.1847  0.4375
  437SOL    HW1 1310   1.053   2.990   0.836 -0.2916 -0.2947  2.0430
  437SOL    HW2 1311   1.069   2.879   0.965 -0.8143 -0.1498  0.9864
  438SOL     OW 1312   1.051   2.604   1.317  0.0644 -0.1147 -0.2104
  438SOL    HW1 1313   1.122   2.660   1.365  0.2910 -0.1201 -4.2051
  438SOL    HW2 1314   1.040   2.505   1.342 -0.0734 -1.3714 -1.6393
  439SOL     OW 1315   0.722   1.796   1.094 -0.1843 -0.4143 -0.0647
  439SOL    HW1 1316   0.736   1.897   1.112 -0.6391 -0.8114 -0.5314
  439SOL    HW2 1317   0.623   1.762   1.114  0.4494 -2.0051 -0.5482
  440SOL     OW 1318   0.981   2.481   1.967 -0.5509  0.0040 -0.0686
  440SOL    HW1 1319   0.920   2.509   1.888 -1.6672  0.4661  1.7455
  440SOL    HW2 1320   1.062   2.546   1.976  1.3628  1.6107  0.2624
  441SOL     OW 1321   0.403   2.805   1.352  0.0139  0.2459  0.3217
  441SOL    HW1 1322   0.451   2.711   1.371  1.0845  2.3118 -0.5694
  441SOL    HW2 1323   0.355   2.802   1.259 -1.8863 -2.1681 -0.4158
  442SOL     OW 1324   2.260   0.647   2.614 -0.0195  0.0949  0.4499
  442SOL    HW1 1325   2.239   0.549   2.598  2.3904  0.1876 -1.7917
  442SOL    HW2 1326   2.179   0.708   2.589 -0.7411 -1.2714 -1.8174
  443SOL     OW 1327   1.219   2.718   2.193  0.0406  0.5648 -0.0994
  443SOL    HW1 1328   1.198   2.625   2.234 -1.6214 -3.5364  0.4239
  443SOL    HW2 1329   1.191   2.791   2.261 -0.4296 -1.2050  1.5481
  444SOL     OW 1330   1.129   1.323   1.547  0.1684 -0.1052  0.1841
  444SOL    HW1 1331   1.215   1.269   1.528  0.4305  1.2042  0.7464
  444SOL    HW2 1332   1.144   1.378   1.638  3.3213 -5.2762  2.2662
  445SOL     OW 1333   3.099   2.375   1.848 -0.3418  0.0951  0.5179
  445SOL    HW1 1334   3.082   2.474   1.813 -0.4348  0.3364 -0.3869
  445SOL    HW2 1335   3.026   2.340   1.910  2.7597  0.3696 -0.0973
  446SOL     OW 1336   0.236   1.881   2.401  0.4796  0.3635 -0.2591
  446SOL    HW1 1337   0.198   1.962   2.451  2.3823 -2.5202  0.9523
  446SOL    HW2 1338   0.171   1.851   2.319 -1.0700 -1.3567  0.4877
  447SOL     OW 1339   1.243   1.659   1.979  0.1522  0.1665 -0.2047
  447SOL    HW1 1340   1.150   1.699   1.957 -0.0170 -0.1681 -1.9571
  447SOL    HW2 1341   1.301   1.723   2.039  2.0917 -0.7546  1.9619
  448SOL     OW 1342   0.086   1.457   1.973 -0.0138 -0.4757  0.4036
  448SOL    HW1 1343   0.148   1.538   1.952 -0.2193  1.0326 -0.4029
  448SOL    HW2 1344   0.060   1.453   2.075  0.4345  2.7688 -0.7611
  449SOL     OW 1345   1.726   2.941   0.911  0.3780 -0.0136  0.3059
  449SOL    HW1 1346   1.770   2.955   1.001  0.8129  3.5012 -1.6074
  449SOL    HW2 1347   1.793   2.901   0.840  0.1043  2.5888 -1.8444
  450SOL     OW 1348   2.321   1.439   0.749  0.2007 -0.2984 -0.1080
  450SOL    HW1 1349   2.265   1.492   0.824 -0.4328  1.0214  3.1987
  450SOL    HW2 1350   2.333   1.505   0.667  1.1725  1.1784  1.6565
  451SOL     OW 1351   1.298   3.042   1.432 -0.0893 -0.1622 -0.1261
  451SOL    HW1 1352   1.257   3.130   1.472  2.9925 -1.2791 -0.3431
  451SOL    HW2 1353   1.362   2.992   1.499 -0.0592 -2.4680  1.2990
  452SOL     OW 1354   2.653   2.302   2.217 -0.0887  0.0054 -0.1938
  452SOL    HW1 1355   2.605   2.397   2.232  0.9359  1.1006 -1.9073
  452SOL    HW2 1356   2.700   2.263   2.299  0.7117 -1.0830 -1.5762
  453SOL     OW 1357   2.459   2.679   3.076 -0.1040  0.0452  0.4954
  453SOL    HW1 1358   2.373   2.721   3.119  1.4506  2.3960  1.3382
  453SOL    HW2 1359   2.430   2.617   2.993 -4.6639 -2.5446 -1.8645
  454SOL     OW 1360   0.977   1.152   2.043  0.0397 -0.2696 -0.3386
  454SOL    HW1 1361   0.954   1.118   1.946 -0.1011 -2.9815 -0.3880
  454SOL    HW2 1362   1.059   1.217   2.045 -0.7919  0.9451  1.7359
  455SOL     OW 1363   0.697   2.673   2.811  0.3915 -0.6636  0.6904
  455SOL    HW1 1364   0.792   2.711   2.792  0.9707 -0.9966  3.4167
  455SOL    HW2 1365   0.709   2.593   2.882 -0.0378  1.2217 -2.5751
  456SOL     OW 1366   0.440   1.870   0.199  0.1758  0.5209  0.4824
  456SOL    HW1 1367   0.495   1.829   0.280  2.8350  2.0254  0.0109
  456SOL    HW2 1368   0.477   1.959   0.160  0.5707  1.2678 -0.1626
  457SOL     OW 1369   0.383   2.675   0.596 -0.5550 -0.4455 -0.1467
  457SOL    HW1 1370   0.376   2.729   0.511  1.2607 -2.3047  1.6182
  457SOL    HW2 1371   0.481   2.673   0.630 -0.4856 -0.8349 -1.2651
  458SOL     OW 1372   2.927  -0.000   1.222  0.0231 -0.5130  0.6324
  458SOL    HW1 1373   2.974   0.088   1.188 -0.0236 -1.0860 -0.7217
  458SOL    HW2 1374   2.926  -0.077   1.150 -2.5458  0.1017 -2.4240
  459SOL     OW 1375   2.075   2.632   0.771 -0.3247  0.3020 -0.4516
  459SOL    HW1 1376   2.179   2.637   0.795  0.0969  1.1292 -1.2520
  459SOL    HW2 1377   2.058   2.569   0.687 -1.1269 -2.7265 -1.5718
  460SOL     OW 1378   1.202   2.115   2.812  0.4295 -0.3623 -0.4976
  460SOL    HW1 1379   1.194   2.154   2.718 -2.1277  0.8080  1.4382
  460SOL    HW2 1380   1.190   2.013   2.799 -0.7522 -0.5250  1.9845
  461SOL     OW 1381   0.551   2.180   2.655 -0.3428  0.0358  0.0385
  461SOL    HW1 1382   0.500   2.100   2.614  0.1596 -0.2759 -1.5225
  461SOL    HW2 1383   0.587   2.152   2.747 -1.7456 -1.2512 -1.9386
  462SOL     OW 1384   0.952   1.089   1.745  0.6999  0.6972 -0.1220
  462SOL    HW1 1385   1.030   1.053   1.685  2.4769  0.2081 -0.4530
  462SOL    HW2 1386   0.905   1.177   1.713  0.0563  3.3726  2.6813
  463SOL     OW 1387   0.454   0.824   0.500 -0.3930  0.0273 -0.1136
  463SOL    HW1 1388   0.504   0.729   0.488 -0.5646 -2.8470 -0.4356
  463SOL    HW2 1389   0.357   0.812   0.532  1.2920 -1.8011 -0.0479
  464SOL     OW 1390   0.619   2.282   2.231  0.4351  0.2809  0.5992
  464SOL    HW1 1391   0.568   2.341   2.303 -0.9411  1.0320 -0.4101
  464SOL    HW2 1392   0.580   2.289   2.134 -2.1686  1.0555 -0.3018
  465SOL     OW 1393   0.207   0.946   0.822  0.1199  0.2144 -0.3699
  465SOL    HW1 1394   0.142   0.991   0.751  4.3450  2.1143  0.1056
  465SOL    HW2 1395   0.241   0.847   0.796 -0.2071 -2.7563  0.5752
  466SOL     OW 1396   1.400   1.111   0.995 -0.0889  0.3372  0.0201
  466SOL    HW1 1397   1.410   1.212   0.974 -0.1900  1.1499 -1.8623
  466SOL    HW2 1398   1.310   1.091   1.047 -0.1822 -2.6347 -0.6846
  467SOL     OW 1399   0.591   0.425   2.445 -0.9018 -0.1067  0.3843
  467SOL    HW1 1400   0.543   0.519   2.419 -1.4940 -0.3957  2.0169
  467SOL    HW2 1401   0.568   0.398   2.546  0.1575 -3.3814 -0.9943
  468SOL     OW 1402   0.437   2.248   1.618  0.2133 -0.0137 -0.0618
  468SOL    HW1 1403   0.462   2.339   1.658  3.6579  0.7172 -0.2928
  468SOL    HW2 1404   0.414   2.256   1.514 -1.0584  2.9026 -0.0141
  469SOL     OW 1405   1.465   1.347   1.235 -0.5563 -0.1966 -0.9544
  469SOL    HW1 1406   1.551   1.326   1.187 -0.6144 -2.4044  1.6968
  469SOL    HW2 1407   1.476   1.434   1.297  1.3652  0.0699  1.6087
  470SOL     OW 1408   3.033   1.846   0.766 -0.2094 -0.1221 -0.3926
  470SOL    HW1 1409   3.110   1.898   0.729  0.5893  0.0282  1.2374
  470SOL    HW2 1410   3.061   1.774   0.835 -1.8800  1.9652  0.2605
  471SOL     OW 1411   2.605   1.300   2.140  0.5550 -0.4761 -0.2672
  471SOL    HW1 1412   2.601   1.217   2.206  3.3385 -2.3851 -0.0184
  471SOL    HW2 1413   2.679   1.367   2.164  0.0871  0.7017 -0.1084
  472SOL     OW 1414   1.151   2.436   0.046  0.0057  0.8334  0.0223
  472SOL    HW1 1415   1.204   2.439   0.135 -1.6604  0.5182  0.9692
  472SOL    HW2 1416   1.061   2.384   0.058 -1.6325  0.8019  0.2258
  473SOL     OW 1417   1.081   1.526   1.020  0.3006  0.3888 -0.0019
  473SOL    HW1 1418   0.977   1.528   1.015  1.0132 -1.1573 -1.1797
  473SOL    HW2 1419   1.114   1.468   1.103  1.9296  1.3825 -0.0903
  474SOL     OW 1420   0.678   1.259   0.549  0.0265  0.4569 -0.0277
  474SOL    HW1 1421   0.644   1.221   0.459 -0.0002  0.0586 -0.3987
  474SOL    HW2 1422   0.702   1.181   0.616  1.3341 -0.5418  1.8491
  475SOL     OW 1423   2.845   0.019   0.840  0.4845 -0.5359  0.3227
  475SOL    HW1 1424   2.899   0.107   0.830  2.3570  2.0263 -1.9470
  475SOL    HW2 1425   2.756   0.031   0.896 -3.1096 -1.6395  0.7094
  476SOL     OW 1426   0.964   3.068   1.752  0.1847  0.7708  0.1425
  476SOL    HW1 1427   1.052   3.076   1.804 -1.0526 -1.9651 -0.8563
  476SOL    HW2 1428   0.979   3.031   1.657 -1.9679 -0.3509  0.4229
  477SOL     OW 1429   1.419   0.334   2.411 -0.2888 -0.1883  0.2199
  477SOL    HW1 1430   1.404   0.359   2.510 -0.7173  1.3806 -1.3112
  477SOL    HW2 1431   1.507   0.270   2.406  1.1298 -0.8164  0.5545
  478SOL     OW 1432   2.226   1.811   0.161 -0.7056  0.1576 -0.3019
  478SOL    HW1 1433   2.153   1.745   0.194  0.7035  0.9393 -2.0027
  478SOL    HW2 1434   2.298   1.779   0.092  3.4713 -0.1699  0.5841
  479SOL     OW 1435   1.192   0.989   2.831 -0.3196  0.0970  0.4339
  479SOL    HW1 1436   1.262   0.956   2.763 -1.0461 -1.1173 -0.1779
  479SOL    HW2 1437   1.101   0.954   2.812  1.1496  0.7608  2.1754
  480SOL     OW 1438   2.658   2.342   0.355 -0.2376 -0.2136 -0.1694
  480SOL    HW1 1439   2.662   2.278   0.435  1.3943  0.5863 -0.0827
  480SOL    HW2 1440   2.564   2.342   0.315  0.2060  0.2931  0.0205
  481SOL     OW 1441   0.972   1.169   0.867  0.2089 -0.5442  0.0144
  481SOL    HW1 1442   0.986   1.267   0.839 -2.2953  1.1243  1.5308
  481SOL    HW2 1443   1.003   1.154   0.962 -1.9840 -0.2539  0.1961
  482SOL     OW 1444   1.592   0.281   2.007 -0.3975 -0.1809  0.0061
  482SOL    HW1 1445   1.612   0.385   1.977  1.8965  2.3163  0.7033
  482SOL    HW2 1446   1.675   0.240   2.049  0.5314 -0.1572  1.5544
  483SOL     OW 1447   0.110   2.288   1.209 -0.2662  0.6037  0.4194
  483SOL    HW1 1448   0.040   2.347   1.259 -1.1744  0.0409 -0.3695
  483SOL    HW2 1449   0.174   2.342   1.146  1.5245 -3.8949  0.7412
  484SOL     OW 1450   1.779   1.117   1.366  0.0661 -0.3367  0.2516
  484SOL    HW1 1451   1.831   1.038   1.406 -0.1027 -1.9619  0.0015
  484SOL    HW2 1452   1.762   1.195   1.432 -1.3098 -1.3283 -0.9421
  485SOL     OW 1453   0.743   0.907   1.768 -0.5704  0.3608 -0.3770
  485SOL    HW1 1454   0.726   0.896   1.667 -0.9138 -1.9021  1.8486
  485SOL    HW2 1455   0.837   0.949   1.793  1.8586  1.9346 -1.3275
  486SOL     OW 1456   0.795   1.871   2.450  0.1806 -0.1513 -0.3645
  486SOL    HW1 1457   0.830   1.869   2.547  2.3886 -0.8214  0.8497
  486SOL    HW2 1458   0.761   1.971   2.430 -1.1485  1.0119 -0.1546
  487SOL     OW 1459   1.786   1.658   0.947  0.2553 -0.5362  0.5882
  487SOL    HW1 1460   1.814   1.563   0.963 -1.3786  3.3105  0.4384
  487SOL    HW2 1461   1.829   1.690   0.856  0.3498  1.3972  0.3069
  488SOL     OW 1462   2.979   0.860   2.258  0.3211 -0.3403 -0.5502
  488SOL    HW1 1463   2.989   0.757   2.244  3.3621  0.0038 -1.3749
  488SOL    HW2 1464   3.009   0.894   2.352 -0.4172  2.8478 -0.3851
  489SOL     OW 1465   2.808   0.332   1.263 -0.0063 -0.7449 -0.4494
  489SOL    HW1 1466   2.801   0.310   1.365  1.4065  0.3494  1.6167
  489SOL    HW2 1467   2.900   0.302   1.230 -0.3394 -2.0614 -3.6872
  490SOL     OW 1468   1.449   2.939   2.797  0.7587  0.2980 -0.2809
  490SOL    HW1 1469   1.472   2.846   2.767  0.1293  2.3034  0.3199
  490SOL    HW2 1470   1.408   2.988   2.714 -1.3444  0.5283  0.7762
  491SOL     OW 1471   1.696   1.450   2.623  0.0320 -0.6463 -0.2841
  491SOL    HW1 1472   1.615   1.466   2.684 -0.0018 -1.4356  0.7427
  491SOL    HW2 1473   1.787   1.448   2.675  3.3390  1.2759 -0.4412
  492SOL     OW 1474   0.575   2.114   0.638  0.5538  0.3504  0.2687
  492SOL    HW1 1475   0.640   2.103   0.717 -0.3451  0.7629 -3.0349
  492SOL    HW2 1476   0.491   2.175   0.659 -2.4352  0.3056  3.1201
  493SOL     OW 1477   0.425   1.397   2.038  0.0979  0.0308 -0.2800
  493SOL    HW1 1478   0.327   1.412   2.003  1.6373  1.5090  1.0424
  493SOL    HW2 1479   0.437   1.304   2.087 -1.1496 -1.9542  0.7088
  494SOL     OW 1480   2.717   2.724   0.092  0.3714  0.7025  0.2186
  494SOL    HW1 1481   2.740   2.683   0.187 -0.9704  0.9018  0.5793
  494SOL    HW2 1482   2.612   2.736   0.065 -0.6960 -0.0416 -2.2971
  495SOL     OW 1483   2.565   2.709   2.631 -0.0422 -0.2200 -0.9494
  495SOL    HW1 1484   2.600   2.617   2.645  0.2548  0.9064 -1.0902
  495SOL    HW2 1485   2.633   2.771   2.590 -2.1942 -3.6978  0.7443
  496SOL     OW 1486   2.086   2.258   0.714 -0.2439 -0.1794 -0.3152
  496SOL    HW1 1487   2.067   2.289   0.812  0.2524  0.4627  0.6785
  496SOL    HW2 1488   2.135   2.170   0.707  0.1626 -0.7046 -1.6951
  497SOL     OW 1489   0.206   2.990   2.362 -0.1932  0.1726  0.1452
  497SOL    HW1 1490   0.173   3.047   2.445 -0.6389  2.2655  1.7153
  497SOL    HW2 1491   0.228   3.048   2.281  2.2944 -1.8393  0.4613
  498SOL     OW 1492   1.185   1.351   1.215 -0.2895  0.2297 -0.4763
  498SOL    HW1 1493   1.286   1.356   1.203 -1.1970  0.5595  1.7856
  498SOL    HW2 1494   1.158   1.347   1.313 -0.4340 -2.7204 -2.3235
  499SOL     OW 1495   0.628   1.745   0.365  0.2390 -0.0860  0.0037
  499SOL    HW1 1496   0.664   1.656   0.320  2.5736 -0.8659  2.4298
  499SOL    HW2 1497   0.702   1.800   0.406 -2.1236 -0.8904 -1.0238
  500SOL     OW 1498   1.412   2.880   1.632  0.5411 -0.3297 -0.0079
  500SOL    HW1 1499   1.347   2.853   1.699  1.4803 -1.9811 -1.2065
  500SOL    HW2 1500   1.483   2.807   1.612 -0.4858 -2.4127  3.7321
  501SOL     OW 1501   0.818   1.124   2.274  0.0850 -0.3096  0.4195
  501SOL    HW1 1502   0.740   1.058   2.249  1.0458  0.1054  0.1063
  501SOL    HW2 1503   0.883   1.141   2.193  0.8593  0.9874 -5.1260
  502SOL     OW 1504   2.553   0.926   1.711 -0.2441  0.1280 -0.2264
  502SOL    HW1 1505   2.555   0.926   1.611 -2.5531 -0.5584  0.9728
  502SOL    HW2 1506   2.555   0.829   1.748 -1.0253  0.3347  0.3802
  503SOL     OW 1507   1.333   0.149   0.653  0.0281  0.1987  0.2031
  503SOL    HW1 1508   1.279   0.225   0.611  1.4651  0.1074  0.6442
  503SOL    HW2 1509   1.406   0.187   0.711 -0.7224  0.3458 -0.1662
  504SOL     OW 1510   3.012   2.334   1.485  0.0719  0.1685 -0.1909
  504SOL    HW1 1511   2.950   2.381   1.553 -0.9745  1.1909  1.4435
  504SOL    HW2 1512   3.096   2.285   1.529  3.2056 -1.5620 -0.6391
  505SOL     OW 1513   2.320   1.164   1.403  0.3917 -0.1491  0.1451
  505SOL    HW1 1514   2.274   1.209   1.330 -1.6595 -2.1164  1.2946
  505SOL    HW2 1515   2.392   1.224   1.442 -0.4429  0.9530 -1.6698
  506SOL     OW 1516   1.980   0.219   1.828 -0.3084 -0.2618 -0.3779
  506SOL    HW1 1517   2.066   0.163   1.844  0.2972  2.5562 -3.1702
  506SOL    HW2 1518   1.963   0.308   1.883  0.7773  0.2835 -2.6846
  507SOL     OW 1519   0.558   0.659   2.128 -0.5592  0.4256 -0.1510
  507SOL    HW1 1520   0.490   0.602   2.081 -2.2824 -1.4393  1.3152
  507SOL    HW2 1521   0.653   0.617   2.116  1.6940  0.5481  0.4159
  508SOL     OW 1522   0.283   1.648   0.739 -0.0097 -0.2933 -0.2596
  508SOL    HW1 1523   0.341   1.707   0.669 -1.6017 -2.3487 -2.7323
  508SOL    HW2 1524   0.274   1.688   0.836 -2.1718  0.4374 -0.6550
  509SOL     OW 1525   1.257   1.207   2.403 -0.4272  0.6730  0.3473
  509SOL    HW1 1526   1.302   1.138   2.338 -0.4182  0.0731 -4.8610
  509SOL    HW2 1527   1.157   1.176   2.417  3.8565  0.0361  0.0757
  510SOL     OW 1528   1.299   2.118   2.222 -0.1643 -0.0067 -0.3882
  510SOL    HW1 1529   1.328   2.162   2.134 -0.1132  1.9493 -2.1652
  510SOL    HW2 1530   1.197   2.098   2.216 -0.3021 -0.7451  1.6369
  511SOL     OW 1531   3.006   2.665   1.290 -0.2589  0.1882  0.0405
  511SOL    HW1 1532   3.010   2.648   1.187  2.7767  1.2231  1.5982
  511SOL    HW2 1533   2.908   2.675   1.336 -1.0995 -0.8667 -1.1613
  512SOL     OW 1534   2.410   0.457   1.376 -0.4950 -0.2427 -0.0998
  512SOL    HW1 1535   2.310   0.469   1.392  1.5162 -0.4053  1.0022
  512SOL    HW2 1536   2.442   0.365   1.341  1.9602  3.7554  0.9937
  513SOL     OW 1537   2.587   2.108   0.884  0.5026 -0.1340 -0.4298
  513SOL    HW1 1538   2.539   2.192   0.840  0.2481  3.7160 -1.5352
  513SOL    HW2 1539   2.667   2.070   0.826  1.7308  0.9008  0.3860
  514SOL     OW 1540   0.667   2.760   0.470 -0.4205  0.1839 -0.3436
  514SOL    HW1 1541   0.680   2.806   0.380 -0.6580  0.0879 -0.3412
  514SOL    HW2 1542   0.691   2.821   0.554  0.0154 -0.5642  2.4330
  515SOL     OW 1543   1.942   1.295   2.358  0.3294  0.0418 -0.2116
  515SOL    HW1 1544   1.966   1.245   2.270 -2.9547 -1.8790 -0.2389
  515SOL    HW2 1545   1.854   1.251   2.392  2.5878 -0.8029  0.5583
  516SOL     OW 1546   0.266   0.264   1.916 -0.1579 -0.3804  0.0231
  516SOL    HW1 1547   0.339   0.229   1.859  1.1319  0.7738  3.0859
  516SOL    HW2 1548   0.169   0.233   1.885 -0.0673  0.3571 -0.3874
  517SOL     OW 1549   0.474   0.031   1.165  0.6302 -0.7072  0.5300
  517SOL    HW1 1550   0.506   0.110   1.227  0.1162 -0.1128 -2.3758
  517SOL    HW2 1551   0.376  -0.000   1.164  0.4475  1.2616 -2.6018
  518SOL     OW 1552   2.163   3.055   1.834 -0.1232 -0.3253 -0.1527
  518SOL    HW1 1553   2.215   3.147   1.837  1.1532 -0.2377 -0.7866
  518SOL    HW2 1554   2.163   3.022   1.736  1.7264  2.9148  1.6523
  519SOL     OW 1555   2.350   2.131   2.452  0.1703  0.3645  0.0872
  519SOL    HW1 1556   2.305   2.108   2.543  3.5483  1.0713 -0.5845
  519SOL    HW2 1557   2.352   2.233   2.428  1.9298  1.0420 -1.1872
  520SOL     OW 1558   1.842   2.682   1.759 -0.1440  0.2029  0.0666
  520SOL    HW1 1559   1.756   2.646   1.804 -1.1932  1.3800 -4.0697
  520SOL    HW2 1560   1.897   2.612   1.706 -0.8392 -1.8474  0.1805
  521SOL     OW 1561   0.582   3.060   2.097  0.0321  0.2971  0.2554
  521SOL    HW1 1562   0.481   3.075   2.119  1.1152 -3.0974  0.3435
  521SOL    HW2 1563   0.638   3.058   2.186  2.6393  0.0107 -0.1452
  522SOL     OW 1564   0.220   1.842   1.582  0.4291  0.3225 -0.2280
  522SOL    HW1 1565   0.270   1.919   1.638  0.2015  2.6745 -0.1719
  522SOL    HW2 1566   0.176   1.886   1.499  0.4501 -1.5977 -2.2690
  523SOL     OW 1567   2.177   2.959   1.563  0.1980 -0.0877 -0.1759
  523SOL    HW1 1568   2.252   2.890   1.551  3.0238 -2.7274  1.9609
  523SOL    HW2 1569   2.088   2.929   1.516 -2.5590 -0.2027 -1.1338
  524SOL     OW 1570   0.179   2.751   2.792  0.2997  0.4840 -0.1160
  524SOL    HW1 1571   0.149   2.824   2.860 -1.4449 -0.9593  0.7377
  524SOL    HW2 1572   0.276   2.763   2.766  0.3186  3.0781 -0.9118
  525SOL     OW 1573   2.196   1.976   0.393  0.1716 -0.7829 -0.0712
  525SOL    HW1 1574   2.223   1.942   0.485  2.6305  0.9075  1.8418
  525SOL    HW2 1575   2.210   1.903   0.318 -0.9810  0.3670 -0.9301
  526SOL     OW 1576   0.491   1.508   1.666  0.1725  0.1559 -0.5184
  526SOL    HW1 1577   0.530   1.575   1.743  3.8968  1.1613 -0.3745
  526SOL    HW2 1578   0.497   1.406   1.689  1.6172  2.5368 -1.1550
  527SOL     OW 1579   1.051   2.876   1.149 -0.5551 -0.2011 -0.0190
  527SOL    HW1 1580   1.096   2.813   1.218  0.7587  0.6682  2.6333
  527SOL    HW2 1581   1.093   2.972   1.157  1.3218 -1.4186  2.4132
  528SOL     OW 1582   1.338   2.341   0.519 -0.6274  0.4886  0.1137
  528SOL    HW1 1583   1.385   2.250   0.516 -2.2701  1.0393  2.4023
  528SOL    HW2 1584   1.399   2.419   0.558  1.1282  0.2243  2.9784
  529SOL     OW 1585   1.940   1.783   0.702  0.2984  0.0351 -0.7812
  529SOL    HW1 1586   1.885   1.753   0.619  2.1698 -0.7011 -0.0260
  529SOL    HW2 1587   1.915   1.875   0.748 -1.1651  1.1883 -0.6057
  530SOL     OW 1588   0.407   2.594   0.213 -0.4854  0.5100 -0.3219
  530SOL    HW1 1589   0.388   2.657   0.297  1.6748 -0.2762  2.1177
  530SOL    HW2 1590   0.392   2.493   0.223  0.0969 -2.5239 -1.2607
  531SOL     OW 1591   1.878   1.014   1.018  0.3102  0.1311 -0.1423
  531SOL    HW1 1592   1.842   1.087   0.958 -2.3508  1.3748 -0.7083
  531SOL    HW2 1593   1.867   0.926   0.970 -0.9547  1.3264 -1.6408
  532SOL     OW 1594   0.377   1.159   0.699 -0.2017 -0.4141 -0.5373
  532SOL    HW1 1595   0.414   1.148   0.601  1.6170 -1.3067 -2.1314
  532SOL    HW2 1596   0.361   1.064   0.740 -0.3916 -3.6228 -0.2179
  533SOL     OW 1597   1.757   0.004   2.574 -0.8259  0.0811  0.0194
  533SOL    HW1 1598   1.863  -0.002   2.577 -0.5006  0.7114 -0.0250
  533SOL    HW2 1599   1.722   0.070   2.647  2.0377 -1.2900 -1.8373
  534SOL     OW 1600   0.274   0.196   1.454  0.2522 -0.8169  0.5441
  534SOL    HW1 1601   0.341   0.232   1.388  0.7683 -0.4604  0.9801
  534SOL    HW2 1602   0.240   0.260   1.529 -0.3873  1.1472  1.7597
  535SOL     OW 1603   1.893   0.390   0.205 -0.0720  0.7834 -0.2078
  535SOL    HW1 1604   1.924   0.486   0.226  2.3922 -1.3351 -1.5853
  535SOL    HW2 1605   1.795   0.375   0.244 -0.3679 -1.3552 -1.9206
  536SOL     OW 1606   1.438   2.576   0.942 -0.1134 -0.1307  0.2267
  536SOL    HW1 1607   1.408   2.521   1.027 -0.2066 -0.0827 -0.5394
  536SOL    HW2 1608   1.349   2.621   0.901 -2.5151  0.5941  0.1714
  537SOL     OW 1609   0.809   0.159   2.336 -0.1101 -0.0749 -0.2555
  537SOL    HW1 1610   0.809   0.197   2.239  0.4830 -1.0343  0.5466
  537SOL    HW2 1611   0.722   0.108   2.355  0.7930  1.5793  1.6948
  538SOL     OW 1612   1.669   2.283   1.499  0.0810  0.2457  0.5363
  538SOL    HW1 1613   1.643   2.200   1.440  2.4392  2.5621 -2.6015
  538SOL    HW2 1614   1.752   2.338   1.466 -1.3279 -0.2513  0.3969
  539SOL     OW 1615   0.183   1.654   2.727 -0.4875 -0.2418  0.0883
  539SOL    HW1 1616   0.101   1.629   2.673  1.1125 -0.7596 -0.8349
  539SOL    HW2 1617   0.156   1.705   2.808 -1.2476 -2.0429  1.4639
  540SOL     OW 1618   2.712   1.706   1.985 -0.1241  0.1369  0.1736
  540SOL    HW1 1619   2.660   1.619   1.963 -1.2069 -2.8170  3.3681
  540SOL    HW2 1620   2.654   1.792   1.975  0.8316  1.5334 -1.4128
  541SOL     OW 1621   0.486   2.312   3.036  0.1157 -0.5757 -0.3993
  541SOL    HW1 1622   0.503   2.246   3.110 -1.9458  2.2663 -2.0430
  541SOL    HW2 1623   0.386   2.339   3.012  0.8362  2.1785  0.8101
  542SOL     OW 1624   2.266   2.566   0.411  0.2438  0.0522 -0.0534
  542SOL    HW1 1625   2.241   2.655   0.366  1.4142 -1.3826 -0.2047
  542SOL    HW2 1626   2.185   2.511   0.442  1.4415 -0.2605  0.5554
  543SOL     OW 1627   1.046   1.702   1.661  0.8625  0.1546 -0.1424
  543SOL    HW1 1628   1.042   1.762   1.746  2.2331 -1.5154  0.9506
  543SOL    HW2 1629   1.007   1.749   1.573  0.0428  0.9187 -1.5573
  544SOL     OW 1630   0.978   0.398   0.208 -0.3334  0.3758  0.2741
  544SOL    HW1 1631   0.974   0.304   0.255  3.5235 -0.5820 -1.8089
  544SOL    HW2 1632   0.985   0.387   0.103 -2.5325 -0.0983  2.4872
  545SOL     OW 1633   1.096   1.758   0.765  0.3030  0.3653  0.7471
  545SOL    HW1 1634   1.197   1.773   0.743  2.1419 -1.5738  0.6211
  545SOL    HW2 1635   1.086   1.673   0.822  0.2212  0.9371  4.7591
  546SOL     OW 1636   2.624   1.567   3.076  0.2848  0.8327  0.4123
  546SOL    HW1 1637   2.575   1.630   3.014 -0.8787 -3.4147  2.5734
  546SOL    HW2 1638   2.565   1.521   3.144 -1.4229 -0.9714  1.8399
  547SOL     OW 1639   0.551   0.032   2.655 -0.3617 -0.2908 -0.4076
  547SOL    HW1 1640   0.619  -0.040   2.664  1.1109 -2.3000 -0.7468
  547SOL    HW2 1641   0.478   0.007   2.587  1.6213 -1.0394 -1.8193
  548SOL     OW 1642   2.046   0.838   3.034  0.1761 -0.1328  0.2743
  548SOL    HW1 1643   1.948   0.821   2.999  2.2330  2.8295  0.7805
  548SOL    HW2 1644   2.063   0.938   3.054  0.7374  0.6502 -2.7916
  549SOL     OW 1645   0.664   0.563   0.199  0.2923 -0.7983 -0.0973
  549SOL    HW1 1646   0.626   0.594   0.104  0.0556  0.5241 -0.2951
  549SOL    HW2 1647   0.750   0.607   0.230  0.2898  0.2687  2.4340
  550SOL     OW 1648   2.519   2.846   2.880  0.3039  0.2590  0.9456
  550SOL    HW1 1649   2.503   2.769   2.949 -2.7716 -1.8411 -0.1115
  550SOL    HW2 1650   2.520   2.809   2.779  2.8476 -0.9327 -0.2132
  551SOL     OW 1651   0.280   0.852   0.222 -0.2495  0.2400  0.0929
  551SOL    HW1 1652   0.379   0.831   0.212 -0.7928  1.0179 -0.5933
  551SOL    HW2 1653   0.244   0.868   0.319  0.7832 -5.2606 -0.9128
  552SOL     OW 1654   0.692   2.953   1.860 -0.4953  0.3123 -0.4855
  552SOL    HW1 1655   0.641   2.985   1.942  1.6123 -1.2831 -1.9972
  552SOL    HW2 1656   0.796   2.971   1.851  1.2567 -0.2267 -0.1623
  553SOL     OW 1657   3.062   2.569   0.364 -0.6398  0.2589 -0.4572
  553SOL    HW1 1658   3.011   2.489   0.324  1.2262 -0.1611  2.4089
  553SOL    HW2 1659   3.018   2.615   0.444  0.9226  1.4392  0.0042
  554SOL     OW 1660   2.164   0.358   0.561 -0.2896 -0.3289 -0.0992
  554SOL    HW1 1661   2.237   0.360   0.486  0.1187  1.1688  0.3652
  554SOL    HW2 1662   2.143   0.262   0.600 -3.2131  0.6103 -0.6500
  555SOL     OW 1663   0.431   2.939   2.498 -0.5714 -0.3553 -0.1170
  555SOL    HW1 1664   0.340   2.959   2.453 -1.1891  0.3079  1.6854
  555SOL    HW2 1665   0.478   2.851   2.461  1.9776  0.7065  1.1479
  556SOL     OW 1666   0.811   2.393   1.561 -0.9811  0.1429  0.3479
  556SOL    HW1 1667   0.858   2.478   1.594  1.6770 -1.9153 -0.4244
  556SOL    HW2 1668   0.856   2.349   1.477 -0.5798 -1.5416  1.7529
  557SOL     OW 1669   0.088   2.070   0.158 -0.0673 -0.0333 -0.0896
  557SOL    HW1 1670  -0.005   2.026   0.144  2.0076 -0.0327 -0.5134
  557SOL    HW2 1671   0.132   2.113   0.077 -0.9526  2.2438  1.5636
  558SOL     OW 1672   2.934   2.332   0.284  0.4641 -0.3993 -0.1141
  558SOL    HW1 1673   2.846   2.292   0.318  1.1588  0.3785  0.9905
  558SOL    HW2 1674   2.948   2.309   0.182 -2.0047 -1.0138 -1.0644
  559SOL     OW 1675   0.361   2.310   1.349 -0.2594 -0.1582 -0.2189
  559SOL    HW1 1676   0.272   2.295   1.303  1.9167 -0.4604  1.5485
  559SOL    HW2 1677   0.436   2.244   1.317  0.4245 -2.3859 -2.6933
  560SOL     OW 1678   2.078   1.126   3.074  0.2811 -0.0296  0.3599
  560SOL    HW1 1679   2.014   1.160   3.149  1.3888 -0.1575  1.0195
  560SOL    HW2 1680   2.163   1.184   3.063  0.1920  1.4400  1.1897
  561SOL     OW 1681   3.009   1.880   0.034 -0.1066  0.1114 -0.6007
  561SOL    HW1 1682   2.978   1.834   0.122  0.9144  1.8902 -0.2219
  561SOL    HW2 1683   2.943   1.957  -0.000  1.7851 -0.9535  0.8517
  562SOL     OW 1684   0.964   2.232   2.356  0.5373  0.0337  0.2799
  562SOL    HW1 1685   0.883   2.172   2.378  3.2747  1.2607 -0.8102
  562SOL    HW2 1686   0.957   2.325   2.408  1.1866  4.5606 -0.5301
  563SOL     OW 1687   0.714   2.529   2.577 -0.1382  0.5086 -0.5748
  563SOL    HW1 1688   0.775   2.447   2.591  2.4319 -1.3414  1.0957
  563SOL    HW2 1689   0.706   2.588   2.663 -1.6143 -1.0295 -0.3131
  564SOL     OW 1690   2.773   1.310   2.942 -0.0198 -0.2505  0.2802
  564SOL    HW1 1691   2.685   1.351   2.981 -0.2278 -0.8506  2.3123
  564SOL    HW2 1692   2.825   1.384   2.890 -2.3467 -0.2413  1.5853
  565SOL     OW 1693   2.580   1.946   2.584 -0.1201 -0.5674  0.7623
  565SOL    HW1 1694   2.527   2.018   2.534 -0.6201 -0.6481  1.9663
  565SOL    HW2 1695   2.646   1.983   2.656  1.0956 -0.7322 -0.9802
  566SOL     OW 1696   1.973   2.858   1.393 -0.8335 -0.2770 -0.6263
  566SOL    HW1 1697   1.963   2.754   1.386 -0.6393  0.6454 -0.4851
  566SOL    HW2 1698   1.955   2.900   1.297 -2.8775  3.2093 -2.8641
  567SOL     OW 1699   2.498   0.038   2.246  0.0073 -0.8853  1.0309
  567SOL    HW1 1700   2.530   0.092   2.167  2.1591 -2.0710 -0.1138
  567SOL    HW2 1701   2.394   0.017   2.249 -0.3433  0.2729 -1.7300
  568SOL     OW 1702   1.558   1.767   0.267 -0.0506  0.4100  0.4957
  568SOL    HW1 1703   1.488   1.833   0.231 -0.6062 -0.3479  0.2450
  568SOL    HW2 1704   1.651   1.810   0.275  1.3380  0.5458  0.0977
  569SOL     OW 1705   0.287   0.676   0.810 -0.4545  0.5046 -1.0235
  569SOL    HW1 1706   0.358   0.604   0.795 -3.5790  1.3655  0.4405
  569SOL    HW2 1707   0.192   0.643   0.799  2.0077  1.2346  1.9305
  570SOL     OW 1708   0.626   0.797   2.837 -0.4068  0.3377  0.3427
  570SOL    HW1 1709   0.642   0.775   2.736 -2.0033 -0.4985  2.3321
  570SOL    HW2 1710   0.677   0.875   2.881 -2.0659  2.3044 -0.9797
  571SOL     OW 1711   0.773   3.073   1.049  0.4158  0.4996 -0.1671
  571SOL    HW1 1712   0.829   3.121   0.978  0.9288  0.0382  1.9430
  571SOL    HW2 1713   0.772   2.969   1.032 -1.4207 -0.7119  1.3262
  572SOL     OW 1714   1.591   2.621   1.237 -0.1386  0.0187  0.3533
  572SOL    HW1 1715   1.500   2.568   1.219 -1.2077 -0.2413  0.3147
  572SOL    HW2 1716   1.579   2.725   1.244 -0.0233 -1.2610  0.3737
  573SOL     OW 1717   2.902   0.446   2.021 -0.8012  0.5869  0.3280
  573SOL    HW1 1718   2.851   0.359   2.051 -0.8937 -1.5938 -2.5938
  573SOL    HW2 1719   2.835   0.523   1.994 -0.2404 -0.1823  0.5612
  574SOL     OW 1720   0.201   1.727   0.998 -0.5006  0.0931  0.0955
  574SOL    HW1 1721   0.190   1.830   0.980  0.6474  1.2933  1.5151
  574SOL    HW2 1722   0.137   1.688   1.071 -1.9394  0.8408 -0.0071
  575SOL     OW 1723   0.950   2.136   0.978 -0.3134  0.7790 -0.5990
  575SOL    HW1 1724   0.910   2.185   1.063  1.4938 -0.4092  1.4253
  575SOL    HW2 1725   0.975   2.203   0.902 -2.3723  2.0089  0.5539
  576SOL     OW 1726   2.879   2.978   1.664  0.2186  0.2803  0.2340
  576SOL    HW1 1727   2.790   2.963   1.614  0.7262  1.4542  2.5019
  576SOL    HW2 1728   2.922   3.069   1.654 -1.6637 -1.6007  2.4343
  577SOL     OW 1729   2.517   1.231   0.027 -0.3963  0.1526  0.6172
  577SOL    HW1 1730   2.540   1.159  -0.041  0.8778 -0.3700  2.0651
  577SOL    HW2 1731   2.595   1.234   0.098  0.5222 -0.8118  0.6976
  578SOL     OW 1732   1.341   2.745   2.518 -0.6938  0.1483 -0.5399
  578SOL    HW1 1733   1.241   2.746   2.483 -0.5642  2.6735 -3.2964
  578SOL    HW2 1734   1.388   2.836   2.496  0.0833 -0.6772 -0.9458
  579SOL     OW 1735   0.087   2.498   0.127 -0.1663  0.1048  0.3621
  579SOL    HW1 1736   0.051   2.543   0.216 -0.8720  1.1097  1.9448
  579SOL    HW2 1737   0.189   2.488   0.122  1.2195 -0.2161 -1.4108
  580SOL     OW 1738   1.048   2.638   0.427  0.1053 -0.6057 -0.2258
  580SOL    HW1 1739   1.137   2.652   0.381 -1.9461  1.3072  0.9859
  580SOL    HW2 1740   0.970   2.613   0.357 -1.7101  0.7725 -1.4376
  581SOL     OW 1741   1.280   2.583   1.514  0.0890 -0.0547 -0.0059
  581SOL    HW1 1742   1.295   2.482   1.498 -1.9079 -2.8880  1.2066
  581SOL    HW2 1743   1.359   2.645   1.487  0.8391  0.3538  0.4041
  582SOL     OW 1744   1.495   0.090   1.841 -0.2001  0.0056  0.7297
  582SOL    HW1 1745   1.537   0.167   1.893  1.3274 -0.9772 -0.1525
  582SOL    HW2 1746   1.572   0.043   1.788  0.1341  0.4765  0.7577
  583SOL     OW 1747   2.510   3.037   0.503  0.0828  0.5262  0.0535
  583SOL    HW1 1748   2.573   2.976   0.455  0.1842  2.0183 -0.1561
  583SOL    HW2 1749   2.438   2.974   0.552 -2.2429 -2.9774 -0.7091
  584SOL     OW 1750   1.634   0.930   2.100 -0.1655 -0.3447 -0.0109
  584SOL    HW1 1751   1.646   1.027   2.074  2.5050  0.0085 -1.2377
  584SOL    HW2 1752   1.695   0.896   2.180  1.7660  0.8210 -0.7952
  585SOL     OW 1753   2.096   2.658   2.941 -0.1453 -0.3603 -0.4993
  585SOL    HW1 1754   2.128   2.563   2.910 -0.4332  1.8331 -0.3082
  585SOL    HW2 1755   1.998   2.680   2.917 -1.0169 -1.7642 -4.8129
  586SOL     OW 1756   2.774   0.292   1.556  0.8644  0.2656  0.2077
  586SOL    HW1 1757   2.775   0.379   1.615  0.3556  3.5709  0.2232
  586SOL    HW2 1758   2.682   0.240   1.560  0.1371 -0.3784 -2.9955
  587SOL     OW 1759   1.945   1.523   2.741  0.6817 -0.0600 -0.4000
  587SOL    HW1 1760   2.011   1.476   2.682  0.5501 -1.6071  1.5339
  587SOL    HW2 1761   1.981   1.541   2.837  1.5654  0.6446  0.9333
  588SOL     OW 1762   0.466   2.734   2.252 -0.0523  0.0161 -0.4671
  588SOL    HW1 1763   0.391   2.747   2.184 -0.5323 -0.5842  0.5547
  588SOL    HW2 1764   0.470   2.636   2.296  1.0760 -0.7685  1.3257
  589SOL     OW 1765   2.112   1.407   2.551  0.2657  0.0533  0.2456
  589SOL    HW1 1766   2.048   1.344   2.497  1.4440  0.4873 -2.5316
  589SOL    HW2 1767   2.210   1.378   2.547  0.8466 -0.0868 -0.4315
  590SOL     OW 1768   2.333   1.660   2.049 -0.0195 -0.0458 -0.3795
  590SOL    HW1 1769   2.412   1.596   2.027  0.4531  0.9423 -1.1938
  590SOL    HW2 1770   2.338   1.709   2.142 -1.6732  0.8253  0.2327
  591SOL     OW 1771   1.332   2.398   0.260 -0.0671  0.3804 -0.2232
  591SOL    HW1 1772   1.357   2.325   0.192 -0.0457 -0.6502  1.0379
  591SOL    HW2 1773   1.340   2.363   0.359  0.7082  1.1242  0.4392
  592SOL     OW 1774   1.778   2.314   0.783  0.4702  0.0995 -0.3628
  592SOL    HW1 1775   1.731   2.390   0.733  0.7119 -0.5600  0.2626
  592SOL    HW2 1776   1.878   2.300   0.750  1.9486  1.7259 -0.5892
  593SOL     OW 1777   0.701   0.283   0.167 -0.0909 -0.7111  1.5580
  593SOL    HW1 1778   0.774   0.266   0.095  0.0018 -0.5794  0.2592
  593SOL    HW2 1779   0.677   0.388   0.177  1.9987  1.1800  0.8999
  594SOL     OW 1780   0.935   1.842   2.715  0.0847  0.4751 -0.2970
  594SOL    HW1 1781   1.031   1.848   2.759 -1.5647  0.7874  0.5787
  594SOL    HW2 1782   0.881   1.933   2.728 -2.2007  1.6681  1.0609
  595SOL     OW 1783   1.542   0.065   1.051  0.4482 -0.2424  0.7672
  595SOL    HW1 1784   1.634   0.017   1.032  1.4025 -0.0001 -2.7086
  595SOL    HW2 1785   1.466   0.023   0.994  0.7915  0.6367  2.2731
  596SOL     OW 1786   0.007   1.453   2.234  0.3220 -0.3528 -1.0126
  596SOL    HW1 1787  -0.079   1.397   2.242  1.9547 -1.0820 -1.0049
  596SOL    HW2 1788   0.034   1.510   2.322  1.9358 -1.5745  1.5701
  597SOL     OW 1789   2.032   2.551   1.623  0.0919 -0.2671 -0.0354
  597SOL    HW1 1790   2.060   2.477   1.559 -2.3530  1.8473  1.8729
  597SOL    HW2 1791   2.099   2.579   1.691 -1.8190 -1.1276  0.7789
  598SOL     OW 1792   2.517   2.978   1.320  0.0325  0.0685 -0.2000
  598SOL    HW1 1793   2.594   3.033   1.358 -1.1615 -0.1194 -1.3122
  598SOL    HW2 1794   2.537   2.942   1.224 -0.3525 -1.1765  0.6673
  599SOL     OW 1795   2.956   0.382   2.498  0.4787 -0.6711  0.2445
  599SOL    HW1 1796   3.042   0.440   2.520 -0.0664  0.8312 -0.9031
  599SOL    HW2 1797   2.873   0.442   2.472 -0.6289  1.2271  1.9041
  600SOL     OW 1798   2.758   1.118   2.695  0.2092 -0.1612  0.6252
  600SOL    HW1 1799   2.734   1.016   2.709  1.7745  0.8225  0.3416
  600SOL    HW2 1800   2.732   1.182   2.774 -0.3013 -0.9091 -0.7630
  601SOL     OW 1801   2.962   1.281   1.933  0.2665  0.3997  0.4326
  601SOL    HW1 1802   2.885   1.332   1.886 -0.1923 -2.0106  1.1106
  601SOL    HW2 1803   3.044   1.339   1.940 -1.1082 -2.0673 -1.7995
  602SOL     OW 1804   1.423   1.711   2.360  0.4276 -0.1038  0.2239
  602SOL    HW1 1805   1.362   1.630   2.374 -1.1763 -0.0881 -0.2525
  602SOL    HW2 1806   1.524   1.683   2.362  0.4010 -2.0695  3.3175
  603SOL     OW 1807   0.591   1.217   2.753 -0.5935 -0.0114  0.2539
  603SOL    HW1 1808   0.501   1.187   2.713  0.7006 -2.6364  2.4674
  603SOL    HW2 1809   0.670   1.156   2.721 -0.7809  2.2675  2.4959
  604SOL     OW 1810   2.378   1.005   0.147 -0.1297  0.3732 -0.0823
  604SOL    HW1 1811   2.429   1.088   0.107 -0.5832 -1.6711  1.0096
  604SOL    HW2 1812   2.389   0.924   0.081  3.6793 -0.7528 -1.2302
  605SOL     OW 1813   2.550   1.170   1.887 -0.1151 -0.1158  0.1164
  605SOL    HW1 1814   2.563   1.071   1.875 -1.6999  0.1305  2.8791
  605SOL    HW2 1815   2.572   1.209   1.982 -0.1710  0.9296  3.6377
  606SOL     OW 1816   1.463   2.521   2.601 -0.0085  0.2090 -0.1311
  606SOL    HW1 1817   1.404   2.591   2.553 -1.0077  0.4593 -0.3096
  606SOL    HW2 1818   1.421   2.426   2.593 -1.7383  2.3577 -0.5323
  607SOL     OW 1819   1.371   1.616   0.400 -0.3427 -0.5962 -0.8189
  607SOL    HW1 1820   1.293   1.675   0.438 -1.4661 -0.6143  0.2385
  607SOL    HW2 1821   1.445   1.677   0.363 -1.4425  0.7751  0.5760
  608SOL     OW 1822   1.450   2.851   0.349 -0.2422  0.0794 -0.6697
  608SOL    HW1 1823   1.513   2.919   0.300 -0.9924 -0.7050 -2.1979
  608SOL    HW2 1824   1.393   2.893   0.425  0.9064  1.6655 -1.3271
  609SOL     OW 1825   1.347   1.399   0.256 -0.4170 -0.2067 -0.3583
  609SOL    HW1 1826   1.354   1.460   0.338 -1.9614  1.8754  1.2290
  609SOL    HW2 1827   1.283   1.443   0.191  1.8650 -0.2776  0.8728
  610SOL     OW 1828   3.027   1.134   2.170  0.2158 -0.0907 -0.0708
  610SOL    HW1 1829   2.993   1.037   2.179  1.6048 -1.4176 -0.3930
  610SOL    HW2 1830   3.034   1.160   2.073  0.7390 -0.9584  1.3386
  611SOL     OW 1831   2.578   0.280   1.112 -0.6553 -0.3343 -0.0459
  611SOL    HW1 1832   2.513   0.218   1.166  0.4419 -1.0930  0.6675
  611SOL    HW2 1833   2.665   0.309   1.163 -0.8723  1.1715 -0.6831
  612SOL     OW 1834   0.772   2.241   1.181 -0.0145 -0.1559 -0.3732
  612SOL    HW1 1835   0.695   2.168   1.201 -0.7671  0.3927 -0.3637
  612SOL    HW2 1836   0.736   2.331   1.141  0.6537  1.5336  0.6301
  613SOL     OW 1837   0.796   1.381   2.435  0.2291 -0.4571  0.5778
  613SOL    HW1 1838   0.813   1.442   2.355 -0.0975 -0.8709  0.0830
  613SOL    HW2 1839   0.756   1.292   2.408  2.9068 -0.7225  1.9639
  614SOL     OW 1840   1.581   1.632   1.972  0.7341  0.1560  0.2572
  614SOL    HW1 1841   1.537   1.719   2.007  1.4579 -1.0391  2.0353
  614SOL    HW2 1842   1.666   1.606   2.027 -0.0645  1.0812  0.9937
  615SOL     OW 1843   0.759   1.311   1.706  0.0837 -0.2600  0.0953
  615SOL    HW1 1844   0.686   1.262   1.645 -4.2223  0.6422 -0.9487
  615SOL    HW2 1845   0.788   1.403   1.667 -2.1313 -0.7288 -2.3024
  616SOL     OW 1846   1.064   1.664   2.257 -0.0430  0.3783 -0.8121
  616SOL    HW1 1847   0.979   1.627   2.203 -1.6495 -0.0110  1.5459
  616SOL    HW2 1848   1.072   1.770   2.250 -3.3609 -0.6234 -1.0910
  617SOL     OW 1849   2.945   1.574   1.606  0.0797  0.3608  0.3115
  617SOL    HW1 1850   2.903   1.497   1.658  2.4703  2.9445  0.1820
  617SOL    HW2 1851   2.982   1.539   1.513 -1.1730  0.8931 -2.4733
  618SOL     OW 1852   1.890   1.989   1.383 -0.7275 -0.2620  0.1567
  618SOL    HW1 1853   1.920   2.001   1.283  1.5078 -0.3975 -1.6760
  618SOL    HW2 1854   1.848   1.896   1.402  2.7447 -1.5583  0.8285
  619SOL     OW 1855   1.786   0.442   2.379  0.1097 -0.2240 -0.3215
  619SOL    HW1 1856   1.697   0.481   2.336 -0.3696 -1.3432 -1.4908
  619SOL    HW2 1857   1.771   0.338   2.382 -2.1441  0.1629  1.6882
  620SOL     OW 1858   2.321   2.912   0.647 -0.6155 -0.2483  0.2520
  620SOL    HW1 1859   2.230   2.954   0.654  1.5471  0.0935  0.2270
  620SOL    HW2 1860   2.338   2.834   0.723 -0.2893 -4.0088 -0.3783
  621SOL     OW 1861   2.162   1.824   1.283 -0.1812  0.8313 -0.4530
  621SOL    HW1 1862   2.148   1.851   1.378  2.9377 -3.2013  0.6566
  621SOL    HW2 1863   2.097   1.746   1.255 -0.6381  2.1668 -0.2406
  622SOL     OW 1864   2.285   0.899   1.773 -0.0414  0.5486 -0.8539
  622SOL    HW1 1865   2.386   0.917   1.755 -2.4050 -0.6677  1.9809
  622SOL    HW2 1866   2.266   0.821   1.839  0.1415  2.2270  1.4503
  623SOL     OW 1867   1.332   0.827   2.619  0.2055  0.0087  0.6447
  623SOL    HW1 1868   1.343   0.742   2.674  0.5192  1.0292 -0.2241
  623SOL    HW2 1869   1.266   0.827   2.538  0.2738 -1.2897  1.7705
  624SOL     OW 1870   0.567   0.711   3.102  0.4802 -0.0911  0.0126
  624SOL    HW1 1871   0.588   0.736   3.000 -1.7598  3.2956 -1.7327
  624SOL    HW2 1872   0.544   0.792   3.160  1.6424 -2.7885  0.0027
  625SOL     OW 1873   2.805   1.725   1.040  0.5715  0.4660 -0.4383
  625SOL    HW1 1874   2.720   1.777   1.011 -0.2376  1.0542 -2.2000
  625SOL    HW2 1875   2.883   1.787   1.073 -0.9609  0.6204 -1.4401
  626SOL     OW 1876   0.584   2.737   1.706  0.3928  0.6912  0.0796
  626SOL    HW1 1877   0.638   2.803   1.768  1.0651  2.8198 -1.2120
  626SOL    HW2 1878   0.484   2.728   1.739  0.1357  0.1637 -0.5561
  627SOL     OW 1879   0.750   0.943   1.477  0.7290 -0.1992 -0.1062
  627SOL    HW1 1880   0.681   0.926   1.400 -0.9628  1.2178  0.7196
  627SOL    HW2 1881   0.826   1.011   1.450 -1.1488  0.1001  1.2419
  628SOL     OW 1882   2.454   0.138   0.682 -0.8776  0.0380  0.2045
  628SOL    HW1 1883   2.486   0.066   0.612 -3.8443  1.0395 -4.2962
  628SOL    HW2 1884   2.358   0.163   0.670  2.9484 -0.4085 -1.3716
  629SOL     OW 1885   1.983   0.930   1.978 -0.1413 -0.3242 -0.1073
  629SOL    HW1 1886   2.024   0.970   1.890  1.4575  1.6299 -1.4418
  629SOL    HW2 1887   1.932   1.003   2.032 -0.4595  1.3016 -1.4746
  630SOL     OW 1888   2.920   2.231   0.837 -0.6612 -0.7823 -0.0751
  630SOL    HW1 1889   2.852   2.309   0.840  0.6840  1.1063 -0.2814
  630SOL    HW2 1890   2.881   2.142   0.799  1.4793 -3.3978  0.4184
  631SOL     OW 1891   3.015   0.144   2.117 -0.2295  0.5283 -0.2069
  631SOL    HW1 1892   3.086   0.163   2.193  1.7911  1.4607  0.4668
  631SOL    HW2 1893   3.049   0.171   2.023  0.8928 -1.4504  3.1067
  632SOL     OW 1894   2.401   2.536   0.644 -0.4957  0.1099 -0.2503
  632SOL    HW1 1895   2.409   2.619   0.700  0.6754  0.1668 -1.0601
  632SOL    HW2 1896   2.343   2.554   0.561 -2.3443  0.8885  0.7565
  633SOL     OW 1897   1.410   1.201   2.654  0.3005  0.0337 -0.3581
  633SOL    HW1 1898   1.417   1.297   2.694 -1.1940  0.0368 -0.5189
  633SOL    HW2 1899   1.335   1.200   2.579 -1.4713  1.6508 -2.1998
  634SOL     OW 1900   0.712   2.037   0.863  0.5579 -0.3594 -0.1565
  634SOL    HW1 1901   0.628   2.014   0.920  1.0836 -0.7748  0.2082
  634SOL    HW2 1902   0.784   2.094   0.916  1.3892 -0.6252 -0.1837
  635SOL     OW 1903   2.978   2.353   0.007  0.2120  0.2412 -0.1484
  635SOL    HW1 1904   2.899   2.411  -0.031  0.1940 -0.5075 -1.0297
  635SOL    HW2 1905   3.052   2.414   0.050  0.7356  3.5137 -0.1454
  636SOL     OW 1906   2.316   2.742   2.025 -0.9205 -0.1109  0.9747
  636SOL    HW1 1907   2.337   2.834   2.063  0.1262 -0.6555 -0.3708
  636SOL    HW2 1908   2.234   2.691   2.073 -1.5043 -0.5280  1.5809
  637SOL     OW 1909   2.659   0.627   1.963  0.0267  0.5433  0.6032
  637SOL    HW1 1910   2.595   0.625   1.882  0.2073 -0.4546 -2.7781
  637SOL    HW2 1911   2.689   0.729   1.984  2.7131  0.4276 -0.8247
  638SOL     OW 1912   2.454   1.824   1.258  0.3434 -0.2607 -0.2562
  638SOL    HW1 1913   2.355   1.822   1.283 -0.4489  1.0599 -0.2010
  638SOL    HW2 1914   2.508   1.754   1.312 -0.6946  0.6428  1.3517
  639SOL     OW 1915   1.284   2.078   1.693  0.4714  1.0413  0.0524
  639SOL    HW1 1916   1.310   2.145   1.622 -0.5485 -1.6358 -1.3477
  639SOL    HW2 1917   1.181   2.068   1.706 -0.3015  0.0194  0.8335
  640SOL     OW 1918   0.170   1.158   1.582 -0.2041 -0.0435  0.5078
  640SOL    HW1 1919   0.171   1.177   1.682 -0.2918  0.4598 -0.0386
  640SOL    HW2 1920   0.246   1.102   1.548 -1.3130  0.1897 -1.7190
  641SOL     OW 1921   2.022   0.183   1.557  0.5213 -0.6111 -0.0317
  641SOL    HW1 1922   1.995   0.227   1.650  0.5672 -1.6254  2.8845
  641SOL    HW2 1923   2.118   0.144   1.561  0.1348 -0.8793 -1.1379
  642SOL     OW 1924   2.011   3.078   0.350 -0.1991  0.0974  0.2746
  642SOL    HW1 1925   2.106   3.105   0.384  0.8514  0.4006 -0.8432
  642SOL    HW2 1926   1.973   2.991   0.391 -2.2364  0.4044  0.4503
  643SOL     OW 1927   2.947   1.824   2.102  0.3940  0.6476 -1.0409
  643SOL    HW1 1928   2.891   1.759   2.048  2.0544  0.5303 -1.1714
  643SOL    HW2 1929   2.959   1.920   2.060  0.9948 -0.4990 -0.6402
  644SOL     OW 1930   2.208   2.363   1.172 -0.0591  0.4287  0.1737
  644SOL    HW1 1931   2.304   2.334   1.142  1.4458  2.4269  0.5648
  644SOL    HW2 1932   2.186   2.327   1.269  0.2125 -2.3547  1.3853
  645SOL     OW 1933   0.618   0.839   1.284  0.2954 -0.3673  0.1054
  645SOL    HW1 1934   0.516   0.816   1.293  1.4173  1.1493 -0.8126
  645SOL    HW2 1935   0.651   0.847   1.189 -2.4749  1.0781  2.9162
  646SOL     OW 1936   1.441   1.845   2.086  0.0455  0.5380 -0.5286
  646SOL    HW1 1937   1.439   1.943   2.056 -0.7845  0.0979 -0.8135
  646SOL    HW2 1938   1.458   1.837   2.187 -2.7101  0.9627 -0.9850
  647SOL     OW 1939   0.771   1.050   0.711  0.4865  0.5761 -0.4494
  647SOL    HW1 1940   0.836   1.070   0.789 -0.6836  0.8334  3.1754
  647SOL    HW2 1941   0.693   0.991   0.741 -3.2470 -0.1419 -1.0128
  648SOL     OW 1942   0.085   0.239   0.258  0.0420 -0.4035 -0.5687
  648SOL    HW1 1943   0.124   0.217   0.165 -0.8595 -1.4162 -0.3122
  648SOL    HW2 1944   0.083   0.344   0.268 -0.5458  4.0346 -0.7696
  649SOL     OW 1945   3.012   0.253   0.813  0.2627  0.4554 -0.1215
  649SOL    HW1 1946   3.111   0.229   0.794 -1.5026  0.9166  1.1304
  649SOL    HW2 1947   3.009   0.323   0.890 -1.0676 -1.0198 -0.5677
  650SOL     OW 1948   2.780   0.730   1.523  0.3033  0.3472 -0.4077
  650SOL    HW1 1949   2.675   0.729   1.530  1.6529  1.2462  1.3181
  650SOL    HW2 1950   2.814   0.811   1.468 -0.2094 -0.2265  0.3686
  651SOL     OW 1951   0.869   1.515   1.556  0.4487  0.0388  0.1970
  651SOL    HW1 1952   0.927   1.573   1.616 -0.4007  0.3622  2.2798
  651SOL    HW2 1953   0.927   1.484   1.474 -0.0721 -1.4022  0.4087
  652SOL     OW 1954   2.329   2.424   2.459 -0.1178  0.1229  0.5872
  652SOL    HW1 1955   2.233   2.427   2.501 -0.6150 -1.4031  0.3645
  652SOL    HW2 1956   2.351   2.518   2.414  0.8842  0.5468  2.8712
  653SOL     OW 1957   2.691   1.237   0.243 -0.0308  0.2398 -0.0394
  653SOL    HW1 1958   2.709   1.330   0.281  0.7947 -2.4030  2.5214
  653SOL    HW2 1959   2.761   1.170   0.270 -2.7715  0.4817 -2.5424
  654SOL     OW 1960   1.230   2.240   1.252  0.2586  0.0390  0.2133
  654SOL    HW1 1961   1.251   2.163   1.318 -0.1612  0.9324  1.6202
  654SOL    HW2 1962   1.284   2.234   1.160  0.7391 -1.8364  0.8453
  655SOL     OW 1963   0.177   0.933   1.924  0.1057  0.4027  1.0928
  655SOL    HW1 1964   0.230   0.873   1.859 -1.6860  0.4005 -1.1601
  655SOL    HW2 1965   0.189   1.035   1.907  0.8817 -0.8013 -0.2766
  656SOL     OW 1966   2.581   2.436   2.616 -0.0490 -0.1135  0.1534
  656SOL    HW1 1967   2.666   2.399   2.575 -1.6120 -0.2339 -0.1360
  656SOL    HW2 1968   2.498   2.435   2.548  2.5166  0.1831 -1.1701
  657SOL     OW 1969   3.000   0.995   1.901  0.4535 -0.2888 -0.1583
  657SOL    HW1 1970   2.976   1.095   1.898 -0.3821  0.6040 -0.3902
  657SOL    HW2 1971   3.102   0.986   1.918 -1.5960 -1.3170  0.2724
  658SOL     OW 1972   1.634   0.168   2.374 -0.4686  0.2677 -0.3306
  658SOL    HW1 1973   1.669   0.106   2.452  0.0219 -1.0695  1.4609
  658SOL    HW2 1974   1.667   0.144   2.279 -1.4374 -0.2773  0.1053
  659SOL     OW 1975   1.401   0.624   2.834 -0.1298  0.2683  0.0870
  659SOL    HW1 1976   1.458   0.709   2.862  0.5083  0.9711  1.1353
  659SOL    HW2 1977   1.295   0.637   2.833  0.8416 -1.7731  0.5642
  660SOL     OW 1978   1.411   0.332   1.404  0.4994  0.4705 -0.3724
  660SOL    HW1 1979   1.437   0.387   1.492  1.0192 -1.0319 -1.7811
  660SOL    HW2 1980   1.466   0.241   1.403 -1.2796 -1.1007  1.3860
  661SOL     OW 1981   2.376   1.189   0.652  0.8358 -0.1125 -0.5834
  661SOL    HW1 1982   2.422   1.200   0.560  0.4205  0.7761  3.1180
  661SOL    HW2 1983   2.338   1.278   0.686  2.0377  0.3999  1.7644
  662SOL     OW 1984   1.406   0.371   1.722  0.2575 -0.0356  0.0957
  662SOL    HW1 1985   1.358   0.280   1.706  0.3083 -0.0295  0.6198
  662SOL    HW2 1986   1.385   0.417   1.813  0.7936  2.7648 -0.3901
  663SOL     OW 1987   0.794   1.548   2.196 -0.0408  0.0294  0.0421
  663SOL    HW1 1988   0.715   1.609   2.238 -2.8585  0.8528 -0.2847
  663SOL    HW2 1989   0.776   1.492   2.111 -0.4332 -1.7972 -4.6975
  664SOL     OW 1990   1.626   2.048   1.393 -0.3353 -0.2566 -0.1578
  664SOL    HW1 1991   1.580   1.990   1.462  1.3794 -0.7857  0.0510
  664SOL    HW2 1992   1.733   2.044   1.406  1.6235  1.9550  0.1261
  665SOL     OW 1993   2.237   0.700   1.947 -0.0551  0.0883 -0.6553
  665SOL    HW1 1994   2.137   0.678   1.964  0.7860 -1.0481 -2.5607
  665SOL    HW2 1995   2.297   0.690   2.037  1.3027  1.3594  1.8501
  666SOL     OW 1996   0.436   2.312   0.321  0.4096 -0.2123  0.6955
  666SOL    HW1 1997   0.493   2.357   0.396  1.1461 -3.4267  0.8480
  666SOL    HW2 1998   0.344   2.272   0.360 -0.6736 -2.0130  0.3282
  667SOL     OW 1999   2.080   0.186   1.172 -0.2777  0.2273  0.6835
  667SOL    HW1 2000   2.046   0.274   1.129  0.4494 -0.8565 -0.3439
  667SOL    HW2 2001   2.030   0.160   1.259  1.8360 -1.8072  1.3272
  668SOL     OW 2002   2.055   0.481   1.112  0.1975  0.2024  0.0802
  668SOL    HW1 2003   2.125   0.495   1.035 -0.2981 -0.1692  1.3419
  668SOL    HW2 2004   2.097   0.482   1.204 -2.3108 -0.2198 -2.8374
  669SOL     OW 2005   3.089   2.118   1.016  0.6650 -0.4403  0.4540
  669SOL    HW1 2006   3.020   2.148   0.951  0.5989 -2.2221  0.2613
  669SOL    HW2 2007   3.104   2.175   1.099 -2.1809 -2.1966  0.2657
  670SOL     OW 2008   2.857   2.347   2.041 -0.0876  0.1003 -0.6328
  670SOL    HW1 2009   2.768   2.312   2.081  0.5825  0.4560 -1.7456
  670SOL    HW2 2010   2.854   2.445   2.020  2.0102  1.4505 -3.1420
  671SOL     OW 2011   1.699   1.788   1.491 -0.1731  0.0571  0.0989
  671SOL    HW1 2012   1.689   1.764   1.389 -3.0897 -0.1405 -0.7460
  671SOL    HW2 2013   1.610   1.807   1.540 -0.9138  1.2491  2.4638
  672SOL     OW 2014   0.433   0.626   2.363  0.0054  0.2688  0.3494
  672SOL    HW1 2015   0.457   0.664   2.266 -2.1050  1.9591 -1.4804
  672SOL    HW2 2016   0.351   0.674   2.402  0.3672 -1.8608  0.5488
  673SOL     OW 2017   0.133   1.230   1.123 -0.5184  0.1245 -0.1903
  673SOL    HW1 2018   0.147   1.282   1.209 -1.3705 -1.4231 -0.5092
  673SOL    HW2 2019   0.224   1.181   1.099  0.6395  0.0084 -0.3508
  674SOL     OW 2020   1.711   2.982   0.267  0.1098 -0.3742 -0.4045
  674SOL    HW1 2021   1.745   3.078   0.240  2.2177 -0.4439 -1.6659
  674SOL    HW2 2022   1.768   2.901   0.229 -0.9491  0.1693  0.5033
  675SOL     OW 2023   1.716   0.810   2.335  0.6396  0.2728  0.2483
  675SOL    HW1 2024   1.817   0.802   2.320 -1.8680 -0.7399 -0.1156
  675SOL    HW2 2025   1.657   0.737   2.285  1.0895 -1.0972 -1.2398
  676SOL     OW 2026   2.563   1.485   1.933 -0.1131 -0.4627  0.2866
  676SOL    HW1 2027   2.503   1.457   1.851 -0.3372  0.9287 -2.2711
  676SOL    HW2 2028   2.598   1.404   1.980  0.4121  1.6462 -0.2841
  677SOL     OW 2029   1.883   0.658   0.907 -0.8037 -0.0172  0.1087
  677SOL    HW1 2030   1.797   0.642   0.957  1.2805 -0.3899 -2.5547
  677SOL    HW2 2031   1.933   0.566   0.893 -0.5242  2.0502 -0.8025
  678SOL     OW 2032   0.038   0.755   1.643 -0.5931 -0.1911  0.6030
  678SOL    HW1 2033   0.136   0.776   1.679 -0.0427  0.3493 -0.7620
  678SOL    HW2 2034  -0.034   0.747   1.714  0.4268  0.0965  0.9164
  679SOL     OW 2035   2.521   1.228   1.164 -0.0749 -0.3442 -0.8559
  679SOL    HW1 2036   2.425   1.259   1.140  1.6493  2.7679 -1.7265
  679SOL    HW2 2037   2.534   1.127   1.148  2.4550 -2.7515 -1.5325
  680SOL     OW 2038   2.813   0.524   1.695  0.4922  0.2900  0.3401
  680SOL    HW1 2039   2.796   0.605   1.632  2.0540  2.7538  1.3542
  680SOL    HW2 2040   2.878   0.558   1.767 -0.6174  0.5343 -2.2224
  681SOL     OW 2041   3.012   0.149   1.619  0.0290  0.4192  0.1845
  681SOL    HW1 2042   3.053   0.145   1.524 -4.3316 -0.8010  1.5135
  681SOL    HW2 2043   2.921   0.209   1.610  0.2445  1.8936 -3.4288
  682SOL     OW 2044   0.793   0.003   1.328  0.6863 -0.5590 -0.3166
  682SOL    HW1 2045   0.695  -0.021   1.361 -1.3448  0.1735 -4.8948
  682SOL    HW2 2046   0.799  -0.013   1.222 -1.4686  0.8810 -0.7635
  683SOL     OW 2047   1.354   0.239   2.164 -0.1750  0.3051 -0.4623
  683SOL    HW1 2048   1.381   0.259   2.265 -3.6278 -0.0051  1.5879
  683SOL    HW2 2049   1.419   0.274   2.088  1.3190 -3.6624 -3.1781
  684SOL     OW 2050   1.470   2.090   0.467  0.3695  0.2799 -0.2178
  684SOL    HW1 2051   1.528   2.033   0.536  0.1894  0.6859  1.6488
  684SOL    HW2 2052   1.388   2.038   0.426  2.6367 -1.0697  0.5559
  685SOL     OW 2053   2.182   2.052   1.933  0.0451 -0.2766  0.2632
  685SOL    HW1 2054   2.239   2.021   1.859  0.0281 -1.5608  0.2530
  685SOL    HW2 2055   2.217   2.037   2.033 -0.7194 -0.8235  1.6423
  686SOL     OW 2056   1.493   1.817   2.719  0.8353 -0.2723 -0.4002
  686SOL    HW1 2057   1.531   1.784   2.811 -0.3562 -0.4380  1.5624
  686SOL    HW2 2058   1.550   1.793   2.635  1.6740 -0.2578 -0.6649
  687SOL     OW 2059   1.312   2.477   1.955 -0.3173 -0.2062  0.5955
  687SOL    HW1 2060   1.334   2.375   1.969 -0.4611  2.0113  0.9149
  687SOL    HW2 2061   1.318   2.529   2.048  1.4504  1.7619  1.6799
  688SOL     OW 2062   2.037   1.503   1.807  0.2514  0.4750 -0.1519
  688SOL    HW1 2063   2.108   1.575   1.830  2.5023 -4.5707 -0.8871
  688SOL    HW2 2064   2.019   1.483   1.705 -0.3496 -0.6723  0.4122
  689SOL     OW 2065   2.351   1.082   2.762  0.0139 -0.2385  0.3347
  689SOL    HW1 2066   2.284   1.005   2.785 -1.8434  1.1810  2.7889
  689SOL    HW2 2067   2.412   1.097   2.846  2.5766  1.4518  0.1286
  690SOL     OW 2068   2.218   2.777   0.082  0.3976  0.2053 -0.0156
  690SOL    HW1 2069   2.157   2.738   0.011  0.6237  1.5252  1.4634
  690SOL    HW2 2070   2.166   2.809   0.168 -0.7559 -2.8187 -1.2412
  691SOL     OW 2071   2.590   0.434   2.182 -0.0778  0.7005  0.6614
  691SOL    HW1 2072   2.641   0.342   2.177  5.4134 -1.1478 -0.3651
  691SOL    HW2 2073   2.619   0.503   2.104  0.3617 -0.3286 -1.3377
  692SOL     OW 2074   2.727   1.244   0.727  0.2280 -0.0160 -0.1548
  692SOL    HW1 2075   2.640   1.279   0.692 -1.2092 -2.1283  0.5994
  692SOL    HW2 2076   2.754   1.291   0.818  0.5154  0.2626  1.3686
  693SOL     OW 2077   2.862   2.943   0.632  0.4562 -0.3860 -0.2178
  693SOL    HW1 2078   2.839   3.026   0.688 -0.5141 -0.4778 -2.8936
  693SOL    HW2 2079   2.851   2.957   0.529  0.5878  2.9649  1.6324
  694SOL     OW 2080   2.371   2.193   0.087 -0.1316 -0.6680 -0.1305
  694SOL    HW1 2081   2.384   2.271   0.159 -2.5358  1.3142  0.4012
  694SOL    HW2 2082   2.274   2.153   0.082 -1.3437 -0.9211 -2.7917
  695SOL     OW 2083   0.561   3.003   1.443  0.0318  0.0728 -0.1652
  695SOL    HW1 2084   0.494   2.946   1.379 -0.2325 -4.8750  0.2415
  695SOL    HW2 2085   0.519   3.005   1.538 -0.8123  0.8947  0.7216
  696SOL     OW 2086   2.803   2.025   0.709 -0.2268 -0.7312  0.1081
  696SOL    HW1 2087   2.873   1.949   0.728 -0.4329 -2.5796 -1.4749
  696SOL    HW2 2088   2.801   2.051   0.608 -1.0607 -2.6275  0.1162
  697SOL     OW 2089   1.621   2.018   1.840  0.2607 -0.0963 -0.0947
  697SOL    HW1 2090   1.664   1.930   1.864 -1.0813  2.1726 -0.4457
  697SOL    HW2 2091   1.697   2.083   1.802 -0.2572  0.3198  2.4492
  698SOL     OW 2092   2.915   0.441   2.787  0.2011 -0.0908 -0.6528
  698SOL    HW1 2093   2.920   0.432   2.687 -2.0954  1.3032  0.1781
  698SOL    HW2 2094   2.974   0.371   2.832  0.3553 -0.9595  1.7412
  699SOL     OW 2095   1.543   0.095   2.909 -0.0073 -0.3039 -0.2842
  699SOL    HW1 2096   1.520   0.005   2.859  3.1957  0.8702 -2.1268
  699SOL    HW2 2097   1.606   0.157   2.854  3.1665  0.6657  0.5250
  700SOL     OW 2098   0.974   2.325   1.334 -0.7398 -0.1020 -0.1705
  700SOL    HW1 2099   1.067   2.291   1.298 -2.0846 -0.8047 -1.0416
  700SOL    HW2 2100   0.898   2.292   1.273 -0.1206  0.2017  0.1914
  701SOL     OW 2101   1.865   2.937   3.058  0.1689 -0.3383 -0.2466
  701SOL    HW1 2102   1.842   2.870   3.135 -0.0989  1.8114  2.1398
  701SOL    HW2 2103   1.954   2.989   3.083  0.6189  1.9827 -0.6204
  702SOL     OW 2104   2.064   1.317   1.997 -0.3921  0.1617  0.4072
  702SOL    HW1 2105   2.154   1.266   1.990 -1.5430 -1.3290  1.2318
  702SOL    HW2 2106   2.057   1.395   1.928 -1.0056  2.3657 -0.4395
  703SOL     OW 2107   1.931   0.907   1.459 -0.4474 -0.0881 -0.1099
  703SOL    HW1 2108   1.905   0.835   1.531 -0.0043 -3.2618 -0.5353
  703SOL    HW2 2109   2.015   0.961   1.484  0.2716 -0.0259 -1.1266
  704SOL     OW 2110   0.318   2.042   1.720 -0.1565 -0.2538  0.1993
  704SOL    HW1 2111   0.351   1.976   1.787 -2.1369  0.3017 -1.2214
  704SOL    HW2 2112   0.396   2.105   1.688  0.2953  1.3063  1.1881
  705SOL     OW 2113   2.544   1.526   0.900 -0.6204 -0.4010 -0.0879
  705SOL    HW1 2114   2.487   1.444   0.864 -0.7775  0.2675  0.1966
  705SOL    HW2 2115   2.639   1.505   0.936 -0.4791 -1.2774  0.4502
  706SOL     OW 2116   0.611   1.647   1.872  0.4116 -0.3576 -0.0727
  706SOL    HW1 2117   0.627   1.548   1.905  1.1539 -0.4713  0.9418
  706SOL    HW2 2118   0.677   1.714   1.920  1.0902  1.7126  0.4171
  707SOL     OW 2119   2.268   1.178   1.844  0.3126  0.4517 -0.0334
  707SOL    HW1 2120   2.363   1.210   1.823 -0.3387  0.6220 -1.7377
  707SOL    HW2 2121   2.260   1.075   1.826 -0.7429 -0.8103  1.2283
  708SOL     OW 2122   3.068   0.547   3.074  0.1903 -0.2433  0.0677
  708SOL    HW1 2123   3.106   0.596   2.988 -0.6345  1.1900  0.9674
  708SOL    HW2 2124   3.044   0.445   3.055 -3.1780 -0.9671 -1.5329
  709SOL     OW 2125   1.862   1.829   0.247 -0.1385  0.3871 -0.1084
  709SOL    HW1 2126   1.870   1.928   0.268  1.9915 -1.2713 -0.4072
  709SOL    HW2 2127   1.863   1.804   0.149  2.1973 -1.0662  0.3727
  710SOL     OW 2128   1.676   1.651   2.404  0.6201  0.1505  0.0197
  710SOL    HW1 2129   1.735   1.623   2.327  0.2648  3.3237  2.0156
  710SOL    HW2 2130   1.675   1.576   2.476  0.4728 -0.6412 -0.7238
  711SOL     OW 2131   2.601   2.907   1.049  1.3887  0.4113 -0.0759
  711SOL    HW1 2132   2.577   3.001   1.005  1.3253  1.5826 -0.4548
  711SOL    HW2 2133   2.704   2.896   1.068  1.9570  0.8540  0.5343
  712SOL     OW 2134   1.399   2.210   1.965  0.0457 -0.2854  0.1354
  712SOL    HW1 2135   1.499   2.201   1.980 -1.7467  0.7522 -0.9012
  712SOL    HW2 2136   1.366   2.148   1.890  2.0404  3.1169  0.1170
  713SOL     OW 2137   2.847   1.464   2.534  0.2417  0.0305  0.5432
  713SOL    HW1 2138   2.867   1.365   2.510  3.3392  1.6996  0.4102
  713SOL    HW2 2139   2.747   1.478   2.561  1.3918 -1.2525 -1.8339
  714SOL     OW 2140   2.702   0.516   2.463  0.4702  0.3803  0.1801
  714SOL    HW1 2141   2.642   0.486   2.541  1.0591  2.5271 -0.5029
  714SOL    HW2 2142   2.663   0.489   2.370  0.3854  0.1665  1.2745
  715SOL     OW 2143   1.592   2.043   1.115  0.0429 -0.4510  1.2057
  715SOL    HW1 2144   1.545   2.124   1.075 -0.0461 -0.9036 -0.6572
  715SOL    HW2 2145   1.593   2.046   1.219 -2.0301  2.3330 -0.9191
  716SOL     OW 2146   1.174   0.171   1.507 -0.2389 -0.0754 -0.1990
  716SOL    HW1 2147   1.075   0.180   1.472 -0.0784 -2.0318  0.3300
  716SOL    HW2 2148   1.247   0.232   1.472 -2.4364 -2.1541  0.9424
  717SOL     OW 2149   1.171   0.553   1.524 -0.2036 -0.4161  0.3081
  717SOL    HW1 2150   1.243   0.623   1.553  3.2203 -0.2899  1.2536
  717SOL    HW2 2151   1.167   0.523   1.427  2.6606 -3.7860  1.1232
  718SOL     OW 2152   0.668   0.897   1.032  0.0181 -0.7544 -0.0743
  718SOL    HW1 2153   0.611   0.890   0.947  0.6889  2.1915  1.9950
  718SOL    HW2 2154   0.669   0.997   1.065 -0.3026 -0.0399  0.0632
  719SOL     OW 2155   0.608   1.738   2.314 -0.7684  1.0887 -0.3796
  719SOL    HW1 2156   0.689   1.784   2.370 -0.2370  0.2707 -1.0782
  719SOL    HW2 2157   0.534   1.685   2.370 -1.9318 -1.4143  0.3211
  720SOL     OW 2158   2.184   1.125   0.300 -0.2258  0.2407  0.1621
  720SOL    HW1 2159   2.230   1.063   0.232 -1.7314  0.2789  1.0585
  720SOL    HW2 2160   2.154   1.075   0.382  1.2787  3.6092 -2.0798
  721SOL     OW 2161   2.284   3.014   2.102  0.1495  0.0992  0.0487
  721SOL    HW1 2162   2.265   3.045   2.004 -2.2430 -4.0201  0.0798
  721SOL    HW2 2163   2.210   3.045   2.171  1.6928  0.0357  5.6592
  722SOL     OW 2164   2.350   1.604   0.536  0.1594  0.3883  0.0446
  722SOL    HW1 2165   2.324   1.562   0.444 -0.4205 -0.0638  1.5551
  722SOL    HW2 2166   2.293   1.690   0.562  0.5658  1.5591 -3.6059
  723SOL     OW 2167   2.592   2.737   1.944  0.0043  0.1249 -0.1616
  723SOL    HW1 2168   2.624   2.806   2.016 -1.1780  1.4428  0.1469
  723SOL    HW2 2169   2.491   2.710   1.962 -1.0983  0.9854 -1.1853
  724SOL     OW 2170   0.502   2.483   2.395  0.3868 -0.2692  0.2120
  724SOL    HW1 2171   0.411   2.502   2.441 -0.6283 -4.5902  1.3340
  724SOL    HW2 2172   0.586   2.497   2.457 -0.1079 -1.2979  2.3360
  725SOL     OW 2173   2.414   2.805   1.528  1.5335  0.4295  0.2237
  725SOL    HW1 2174   2.467   2.867   1.463  0.0089  1.2525  1.5074
  725SOL    HW2 2175   2.456   2.706   1.534 -0.8081  0.6073 -1.0049
  726SOL     OW 2176   2.537   2.332   0.730  0.0799 -0.0516  0.1138
  726SOL    HW1 2177   2.479   2.410   0.703 -0.0031 -2.9465  2.3743
  726SOL    HW2 2178   2.535   2.251   0.656  0.2676 -1.9962 -0.1976
  727SOL     OW 2179   0.111   3.075   0.072 -0.5215  0.3898  0.5330
  727SOL    HW1 2180   0.127   2.981   0.036  1.4594 -0.7723  1.8858
  727SOL    HW2 2181   0.063   3.139   0.009  3.4849 -0.4416  1.8897
  728SOL     OW 2182   2.901   0.635   0.954 -0.3430  0.0467  0.2466
  728SOL    HW1 2183   2.821   0.667   0.895 -3.1038  0.1751 -1.4176
  728SOL    HW2 2184   2.867   0.624   1.055  0.5841 -0.8810  1.9193
  729SOL     OW 2185   3.030   2.516   0.763  0.3965  0.3575 -0.1237
  729SOL    HW1 2186   2.990   2.427   0.805 -2.3377 -2.6893  2.1728
  729SOL    HW2 2187   3.117   2.490   0.706  0.9554 -1.0852  3.0279
  730SOL     OW 2188   2.647   0.718   0.869 -0.1144  0.5119  0.3727
  730SOL    HW1 2189   2.610   0.816   0.853  0.4300  1.0914  0.1667
  730SOL    HW2 2190   2.688   0.689   0.780  0.2202 -0.2084 -0.3482
  731SOL     OW 2191   0.054   2.115   2.481  0.4146 -0.0056  0.8936
  731SOL    HW1 2192   0.037   2.164   2.572  0.3384  0.1528  1.6445
  731SOL    HW2 2193  -0.022   2.144   2.413 -0.0460 -0.5479  0.9949
  732SOL     OW 2194   1.183   2.854   1.964 -0.6337  0.0782 -0.0544
  732SOL    HW1 2195   1.217   2.796   2.046 -0.2053 -0.3385  1.1838
  732SOL    HW2 2196   1.176   2.793   1.875  1.7550  0.4504 -1.3484
  733SOL     OW 2197   3.060   0.590   2.211 -0.0098  0.1362 -0.0686
  733SOL    HW1 2198   3.142   0.602   2.155 -2.1200  2.1728 -0.6852
  733SOL    HW2 2199   2.988   0.526   2.161 -0.8454 -1.1949 -2.7892
  734SOL     OW 2200   1.440   0.385   2.693  0.1821 -0.0691 -0.2625
  734SOL    HW1 2201   1.438   0.479   2.740  1.9860  0.8047 -0.4527
  734SOL    HW2 2202   1.371   0.322   2.735  0.4536  0.7565 -0.3350
  735SOL     OW 2203   2.888   2.662   2.296 -0.1983  0.0884 -0.0813
  735SOL    HW1 2204   2.879   2.695   2.198  1.4987  3.1531 -2.4315
  735SOL    HW2 2205   2.986   2.662   2.328 -0.0059 -0.5727 -1.0232
  736SOL     OW 2206   0.841   0.319   2.567 -0.4533 -0.3828 -0.6982
  736SOL    HW1 2207   0.766   0.381   2.531  2.1957 -1.8715  0.2458
  736SOL    HW2 2208   0.848   0.224   2.522  1.0310 -0.3552  1.9779
  737SOL     OW 2209   2.641   0.460   2.841  0.1669  0.0481  0.1330
  737SOL    HW1 2210   2.609   0.433   2.937 -0.2282  0.2976 -1.0538
  737SOL    HW2 2211   2.744   0.469   2.835  0.4790  1.8587  3.8118
  738SOL     OW 2212   1.648   1.246   2.884 -0.0804 -0.0937 -0.1079
  738SOL    HW1 2213   1.754   1.238   2.897 -1.6843 -0.3470  0.0109
  738SOL    HW2 2214   1.602   1.155   2.860  1.0296  1.5892 -1.9557
  739SOL     OW 2215   1.721   0.681   0.685 -0.4903 -0.5254  0.1980
  739SOL    HW1 2216   1.783   0.691   0.767  0.4668 -1.5692  0.1851
  739SOL    HW2 2217   1.744   0.593   0.633 -1.0471 -4.0363 -1.4003
  740SOL     OW 2218   1.983   1.934   2.358  0.1041 -0.0888 -0.7745
  740SOL    HW1 2219   2.047   1.853   2.355  2.8160  0.1109  1.5769
  740SOL    HW2 2220   1.910   1.926   2.285  3.4894  1.5625  1.2220
  741SOL     OW 2221   2.571   0.113   2.567 -0.0908  0.4995 -0.3261
  741SOL    HW1 2222   2.675   0.124   2.577 -0.7969  1.4919  2.1901
  741SOL    HW2 2223   2.540   0.073   2.480 -0.0972 -0.7531 -0.9418
  742SOL     OW 2224   2.193   1.386   0.203  0.5465  0.0482 -0.4489
  742SOL    HW1 2225   2.112   1.445   0.204 -0.9620 -0.2344 -0.9490
  742SOL    HW2 2226   2.185   1.299   0.249 -2.4128  2.0036 -0.8634
  743SOL     OW 2227   1.813   0.645   2.600  0.5563  0.1956  0.7189
  743SOL    HW1 2228   1.812   0.610   2.505  2.2325 -0.6693  6.0274
  743SOL    HW2 2229   1.743   0.716   2.621 -0.2299  0.6456  2.0022
  744SOL     OW 2230   2.621   2.055   0.160 -0.0897  0.7299  0.7250
  744SOL    HW1 2231   2.529   2.087   0.131 -1.6365  2.0350 -2.3264
  744SOL    HW2 2232   2.631   1.988   0.242  0.3276 -1.8510  0.9190
  745SOL     OW 2233   2.131   2.656   2.220  0.3601 -0.0536  0.7395
  745SOL    HW1 2234   2.031   2.640   2.202  1.9622  0.7829 -4.8388
  745SOL    HW2 2235   2.154   2.670   2.318 -1.2734 -0.9099 -0.7548
  746SOL     OW 2236   3.076   2.628   1.732 -0.6293 -0.0809  0.3600
  746SOL    HW1 2237   3.161   2.628   1.673 -1.3332 -2.1207  0.6374
  746SOL    HW2 2238   3.057   2.709   1.793 -0.9203 -1.7176  0.2911
  747SOL     OW 2239   0.019   1.754   1.741  0.3135 -0.3857 -0.6116
  747SOL    HW1 2240  -0.023   1.664   1.707  3.4756  2.4892  0.4504
  747SOL    HW2 2241   0.097   1.793   1.680  2.1243  0.7352  0.5247
  748SOL     OW 2242   1.828   2.722   2.872  0.1032  0.1828  0.0268
  748SOL    HW1 2243   1.831   2.812   2.922 -2.0806  1.1467  1.9630
  748SOL    HW2 2244   1.727   2.695   2.854 -2.2014  0.9188 -0.0556
  749SOL     OW 2245   1.381   3.028   0.889 -0.4828 -0.0302  0.4680
  749SOL    HW1 2246   1.286   2.992   0.897  2.8081  3.8559 -4.1866
  749SOL    HW2 2247   1.421   3.002   0.798  0.4476 -0.9083 -0.5521
  750SOL     OW 2248   2.295   0.213   1.854 -0.2332 -0.4188  0.2030
  750SOL    HW1 2249   2.296   0.289   1.780 -2.7120 -1.5989 -1.6178
  750SOL    HW2 2250   2.321   0.246   1.950  1.7852 -0.5591  2.2481
  751SOL     OW 2251   0.836   2.080   2.828  0.3018  0.5322  0.2874
  751SOL    HW1 2252   0.907   2.074   2.904 -0.2071 -1.0370 -0.6608
  751SOL    HW2 2253   0.736   2.076   2.860 -0.5578  0.9205 -0.6399
  752SOL     OW 2254   1.319   0.870   1.248 -0.3494  0.3352  0.2158
  752SOL    HW1 2255   1.395   0.943   1.250  0.8484 -0.1041  1.4851
  752SOL    HW2 2256   1.358   0.785   1.301  0.7329 -1.6130 -0.1695
  753SOL     OW 2257   0.918   2.621   1.669 -0.2068 -0.0043 -0.3142
  753SOL    HW1 2258   1.021   2.622   1.688  0.1465 -0.9088 -1.2921
  753SOL    HW2 2259   0.893   2.687   1.594 -0.3730 -5.1224 -0.4207
  754SOL     OW 2260   1.124   1.220   2.984 -0.1203  0.4265  0.1144
  754SOL    HW1 2261   1.196   1.165   2.940 -0.3442  0.1993  0.5443
  754SOL    HW2 2262   1.145   1.316   3.016  0.0937  1.7766  3.0452
  755SOL     OW 2263   2.005   0.472   2.205 -0.2125  0.1793 -0.0870
  755SOL    HW1 2264   2.086   0.417   2.235 -0.1487 -0.6661  0.5835
  755SOL    HW2 2265   1.916   0.456   2.255  1.1445  1.0318  0.2371
  756SOL     OW 2266   2.556   1.014   2.962 -0.1419  0.3314 -0.3769
  756SOL    HW1 2267   2.659   1.012   2.974 -2.1336  1.5948  0.1710
  756SOL    HW2 2268   2.501   0.932   3.008  0.9436 -1.6766  0.1513
  757SOL     OW 2269   0.078   0.526   1.955 -0.5289  0.3765 -0.4397
  757SOL    HW1 2270   0.169   0.504   1.911 -1.3018  1.9055 -2.0603
  757SOL    HW2 2271  -0.002   0.477   1.925 -0.3380  1.3402  1.6436
  758SOL     OW 2272   2.301   0.129   1.512  0.3533  0.2520  0.6782
  758SOL    HW1 2273   2.264   0.038   1.534 -0.3638 -0.3047  0.1492
  758SOL    HW2 2274   2.315   0.148   1.412  0.0808  0.4971  0.6832
  759SOL     OW 2275   1.709   0.120   0.034  0.1117  0.0307 -0.3912
  759SOL    HW1 2276   1.661   0.075  -0.043 -0.7922  0.3310  1.6829
  759SOL    HW2 2277   1.814   0.105   0.032 -0.3408  1.1141 -0.1713
  760SOL     OW 2278   2.702   2.061   2.824  0.3239  0.6846 -0.2168
  760SOL    HW1 2279   2.742   1.982   2.883 -0.0258 -0.4189 -0.3477
  760SOL    HW2 2280   2.661   2.135   2.879  0.7218 -1.3835 -0.1638
  761SOL     OW 2281   1.870   1.728   1.704  0.4203 -1.0864  0.0569
  761SOL    HW1 2282   1.890   1.631   1.739  2.1899 -2.3850  2.5356
  761SOL    HW2 2283   1.810   1.729   1.615  0.1138  0.8269 -1.8555
  762SOL     OW 2284   0.513   2.345   0.953  0.3116  0.4867  0.5219
  762SOL    HW1 2285   0.556   2.345   0.856 -0.5365 -0.0754 -2.7996
  762SOL    HW2 2286   0.553   2.417   1.016  0.0369 -1.2296 -0.2561
  763SOL     OW 2287   2.080   1.594   2.983  0.1146  0.3848 -0.1786
  763SOL    HW1 2288   2.165   1.540   2.953  0.2547 -2.1888  3.0113
  763SOL    HW2 2289   2.015   1.534   3.044 -0.5568 -0.9669 -2.7752
  764SOL     OW 2290   0.672   0.641   0.810  0.5649  0.1732 -0.0205
  764SOL    HW1 2291   0.600   0.565   0.813 -1.6189  0.8222 -0.8401
  764SOL    HW2 2292   0.763   0.616   0.855  2.1833 -0.0574  2.8458
  765SOL     OW 2293   0.729   0.220   0.769 -0.2275  0.3434  0.1508
  765SOL    HW1 2294   0.804   0.274   0.719 -2.7611 -1.7859  2.3239
  765SOL    HW2 2295   0.733   0.245   0.870  0.6763  1.7323  2.3171
  766SOL     OW 2296   2.859   2.095   3.076  0.3094 -0.4268  0.2874
  766SOL    HW1 2297   2.769   2.095   3.124 -1.0144 -1.4099  0.4946
  766SOL    HW2 2298   2.895   2.196   3.074 -0.4037  2.2769 -1.3280
  767SOL     OW 2299   2.765   1.636   0.596  0.0581 -0.2024  0.3152
  767SOL    HW1 2300   2.708   1.710   0.639 -2.0020 -1.0811 -0.2196
  767SOL    HW2 2301   2.850   1.618   0.650 -3.3886 -3.8580 -3.2753
  768SOL     OW 2302   0.998   0.063   0.259  0.9602  0.2144  0.7016
  768SOL    HW1 2303   0.964   0.068   0.353  0.5900 -0.2488 -1.7546
  768SOL    HW2 2304   1.103   0.078   0.255  2.9711 -4.4116 -0.7252
  769SOL     OW 2305   1.072   1.962   2.294 -0.5352  0.1414 -0.2774
  769SOL    HW1 2306   0.971   1.961   2.326 -0.4259 -0.2383  0.2037
  769SOL    HW2 2307   1.131   1.924   2.367  1.4823  1.2683 -1.2290
  770SOL     OW 2308   0.184   1.175   2.280 -0.2888 -0.6827  0.1336
  770SOL    HW1 2309   0.165   1.239   2.361  0.3126  1.1000  1.1176
  770SOL    HW2 2310   0.097   1.135   2.245  1.3406 -0.0364  0.3805
  771SOL     OW 2311   2.978   2.836   1.879 -0.4566 -0.1674  0.4305
  771SOL    HW1 2312   2.924   2.887   1.803 -1.9530 -0.7353 -1.4316
  771SOL    HW2 2313   2.985   2.885   1.971 -2.3496 -1.3365  0.7258
  772SOL     OW 2314   2.203   0.175   2.932 -0.4460  0.8103 -0.3418
  772SOL    HW1 2315   2.280   0.121   2.897 -0.5656 -0.3757  2.1534
  772SOL    HW2 2316   2.216   0.242   3.011 -1.2069  0.2173 -0.0443
  773SOL     OW 2317   0.727   2.139   2.437 -0.4230  0.2790 -0.5132
  773SOL    HW1 2318   0.674   2.174   2.353  1.0448  0.2228 -2.2908
  773SOL    HW2 2319   0.673   2.165   2.516  2.0626  1.4440 -1.4792
  774SOL     OW 2320   2.027   0.007   2.596  0.5613 -0.2648  0.2441
  774SOL    HW1 2321   2.026   0.100   2.630 -0.8503 -2.0772  0.2147
  774SOL    HW2 2322   2.081  -0.061   2.654  0.3049  1.0415 -2.8082
  775SOL     OW 2323   2.548   2.911   2.361 -0.1538 -0.1616  0.2582
  775SOL    HW1 2324   2.546   3.007   2.325 -0.0815  0.6624  1.2390
  775SOL    HW2 2325   2.632   2.880   2.415 -0.4983 -0.2841  4.1452
  776SOL     OW 2326   0.026   1.234   0.202 -0.6126 -0.1403 -0.5420
  776SOL    HW1 2327  -0.007   1.195   0.109 -1.6821 -2.1867 -0.7403
  776SOL    HW2 2328  -0.036   1.221   0.282  0.7338  2.3786 -2.0232
  777SOL     OW 2329   0.322   2.832   0.380  0.5562  0.3198  0.8854
  777SOL    HW1 2330   0.223   2.867   0.349  1.6313  1.0481  0.0406
  777SOL    HW2 2331   0.394   2.894   0.338 -0.8535 -0.6499 -1.0736
  778SOL     OW 2332   1.357   1.952   0.178  0.2691 -0.4672  0.1523
  778SOL    HW1 2333   1.299   1.970   0.259 -1.1930 -0.0517  0.4416
  778SOL    HW2 2334   1.410   2.032   0.138  1.5886 -2.2144  2.3181
  779SOL     OW 2335   0.182   0.861   0.481 -0.0021  0.1126  0.0829
  779SOL    HW1 2336   0.124   0.776   0.475  1.0118 -0.6164  1.2803
  779SOL    HW2 2337   0.135   0.937   0.540 -0.4907  2.5137  0.9614
  780SOL     OW 2338   0.085   0.215   2.346 -0.0066 -0.4994 -1.0556
  780SOL    HW1 2339   0.002   0.267   2.387  0.4549  1.1983  0.4028
  780SOL    HW2 2340   0.163   0.279   2.320  2.4404 -2.1541 -1.5526
  781SOL     OW 2341   0.665   1.677   1.534 -0.6718  0.5994 -0.1071
  781SOL    HW1 2342   0.750   1.619   1.558  1.0610  3.0527  1.2178
  781SOL    HW2 2343   0.584   1.617   1.553  1.9390  1.4167  1.4481
  782SOL     OW 2344   2.600   0.071   0.933 -0.0010  0.4907  0.0112
  782SOL    HW1 2345   2.556   0.083   0.839 -2.2698 -1.7980 -2.0589
  782SOL    HW2 2346   2.597   0.164   0.985 -0.9301 -1.3306  0.6652
  783SOL     OW 2347   2.863   0.743   2.531  0.5597  0.4118  0.1904
  783SOL    HW1 2348   2.838   0.792   2.615 -1.6060  2.4935 -0.0066
  783SOL    HW2 2349   2.797   0.667   2.506  0.7580 -0.1295  0.5535
  784SOL     OW 2350   1.442   2.214   0.096  0.4050  0.3273  0.1225
  784SOL    HW1 2351   1.514   2.286   0.120 -0.2773 -1.4182  2.3562
  784SOL    HW2 2352   1.420   2.215  -0.009  0.5878  2.8785  0.4009
  785SOL     OW 2353   2.122   0.345   0.074  0.0800 -0.4499 -0.2965
  785SOL    HW1 2354   2.046   0.347   0.150 -1.9040  0.1689  3.4424
  785SOL    HW2 2355   2.123   0.436   0.025 -1.5014 -0.1771 -0.7768
  786SOL     OW 2356   2.023   2.189   2.245 -0.6749 -0.7069  0.2407
  786SOL    HW1 2357   2.014   2.114   2.310  1.1692  2.9978 -3.2132
  786SOL    HW2 2358   2.103   2.184   2.184 -0.3633  0.2638  1.1110
  787SOL     OW 2359   1.365   0.528   0.998 -0.2571  0.4517  0.8979
  787SOL    HW1 2360   1.286   0.594   1.015  3.1162  2.0651  0.3727
  787SOL    HW2 2361   1.407   0.534   0.907  1.0247  0.8567  3.3197
  788SOL     OW 2362   1.286   0.387   0.065 -0.2891 -0.2751  0.3054
  788SOL    HW1 2363   1.191   0.369   0.032 -1.6999 -2.7984 -1.5714
  788SOL    HW2 2364   1.285   0.470   0.128  1.6729  0.6473  0.1230
  789SOL     OW 2365   2.575   0.093   1.915  0.1006 -0.0336 -0.9401
  789SOL    HW1 2366   2.512   0.176   1.895 -1.3825  1.2881 -1.3718
  789SOL    HW2 2367   2.553   0.008   1.867  0.4289  5.0597 -1.0807
  790SOL     OW 2368   2.681   2.771   0.811  0.1443  0.3024 -0.6941
  790SOL    HW1 2369   2.750   2.822   0.759  0.8480  1.3219  3.0753
  790SOL    HW2 2370   2.673   2.813   0.908  0.3684  2.0849 -1.1294
  791SOL     OW 2371   1.932   1.206   0.197  0.5427 -0.1510  0.0757
  791SOL    HW1 2372   1.836   1.175   0.232 -1.0738 -4.2020  1.8645
  791SOL    HW2 2373   2.015   1.158   0.243 -0.0634  0.9076 -1.0156
  792SOL     OW 2374   0.426   1.915   2.179  0.0436  0.9711 -0.6024
  792SOL    HW1 2375   0.487   1.842   2.225  2.1237  2.3374 -0.6379
  792SOL    HW2 2376   0.351   1.947   2.247  0.8444  0.6581  0.5041
  793SOL     OW 2377   2.076   1.566   2.130 -0.2702  0.3708  0.5121
  793SOL    HW1 2378   2.176   1.596   2.129  1.8571  1.4087  0.4630
  793SOL    HW2 2379   2.071   1.466   2.115  0.5857  0.7590 -0.2923
  794SOL     OW 2380   0.497   1.358   2.377 -0.4909 -0.3732  0.0247
  794SOL    HW1 2381   0.493   1.296   2.296 -1.4843 -2.4220  0.3740
  794SOL    HW2 2382   0.446   1.448   2.373 -0.1233  1.0815  1.0448
  795SOL     OW 2383   2.496   2.266   1.862 -0.2557  0.5675 -0.6702
  795SOL    HW1 2384   2.504   2.201   1.942 -1.9653  0.7242 -0.2196
  795SOL    HW2 2385   2.441   2.223   1.788  0.3188 -0.8347 -0.2659
  796SOL     OW 2386   3.038   1.135   2.684 -0.2479 -0.1295 -0.1680
  796SOL    HW1 2387   2.935   1.127   2.705 -1.7884 -0.7819  0.7470
  796SOL    HW2 2388   3.104   1.131   2.766  3.0724  0.6612  2.4097
  797SOL     OW 2389   0.784   0.641   1.388  0.1615 -0.1899  0.2688
  797SOL    HW1 2390   0.866   0.677   1.446  0.5080  1.7160 -0.4502
  797SOL    HW2 2391   0.720   0.718   1.356 -0.4957  0.4638 -0.1469
  798SOL     OW 2392   1.317   0.291   1.132  0.1328 -0.1392 -1.1287
  798SOL    HW1 2393   1.351   0.299   1.225 -1.9980 -0.1954  3.0765
  798SOL    HW2 2394   1.334   0.378   1.077 -0.5093  0.8826  0.7791
  799SOL     OW 2395   1.904   2.745   1.040 -0.3242  0.0712 -0.0015
  799SOL    HW1 2396   1.924   2.690   1.124  0.3389  0.1424  2.4097
  799SOL    HW2 2397   1.845   2.698   0.970  0.3675  1.1848  1.1826
  800SOL     OW 2398   2.985   0.701   1.862 -0.2140  0.8022  0.2012
  800SOL    HW1 2399   2.951   0.795   1.885 -0.7984 -0.9162 -0.4339
  800SOL    HW2 2400   3.056   0.658   1.924 -0.3945 -0.4360 -0.2935
  801SOL     OW 2401   1.940   2.225   0.089 -0.2828  0.0330 -0.5397
  801SOL    HW1 2402   1.848   2.202   0.049  1.2581 -4.3085 -2.2329
  801SOL    HW2 2403   2.024   2.183   0.038  0.8335  0.2994 -0.2705
  802SOL     OW 2404   0.676   0.801   2.544  0.1509 -0.4289 -0.4863
  802SOL    HW1 2405   0.731   0.754   2.471 -1.5622  2.1073 -1.3275
  802SOL    HW2 2406   0.576   0.816   2.512 -1.8510  0.3941 -0.3957
  803SOL     OW 2407   0.957   0.044   0.824  0.6502 -0.2058  0.2065
  803SOL    HW1 2408   1.038   0.084   0.873 -0.1824  2.2544  2.6633
  803SOL    HW2 2409   0.896   0.113   0.780  1.6269 -0.2589  0.0084
  804SOL     OW 2410   0.308   0.045   2.144 -0.1872  0.1438  0.4216
  804SOL    HW1 2411   0.326   0.146   2.168  1.9875 -0.5343 -0.0513
  804SOL    HW2 2412   0.247   0.037   2.061  1.4202 -1.2776 -0.5070
  805SOL     OW 2413   2.361   0.334   0.369 -0.2903  0.0967  0.7772
  805SOL    HW1 2414   2.436   0.393   0.406 -0.7866  0.5317  0.5896
  805SOL    HW2 2415   2.380   0.294   0.273 -2.6997  0.0384  0.0007
  806SOL     OW 2416   0.635   2.442   1.781  0.5900 -0.2432  0.1141
  806SOL    HW1 2417   0.638   2.546   1.784  2.1160  1.3925 -0.2361
  806SOL    HW2 2418   0.694   2.408   1.702 -1.0989 -0.2001 -0.8106
  807SOL     OW 2419   2.488   0.847   0.361  0.3282 -0.0093 -0.1733
  807SOL    HW1 2420   2.549   0.855   0.442 -3.8229  0.4227 -0.7513
  807SOL    HW2 2421   2.467   0.931   0.303 -0.9223  0.6369 -1.1208
  808SOL     OW 2422   0.594   2.081   2.901  0.5745 -0.2297  0.3161
  808SOL    HW1 2423   0.556   2.156   2.965 -0.2330  2.4663 -0.8351
  808SOL    HW2 2424   0.562   1.984   2.923 -1.2405 -0.5234  2.4750
  809SOL     OW 2425   2.691   1.988   1.905 -0.3340 -0.3226 -0.3009
  809SOL    HW1 2426   2.781   2.036   1.927 -1.9555  1.6596 -1.0238
  809SOL    HW2 2427   2.688   1.975   1.802 -0.7352  0.8219 -0.3978
  810SOL     OW 2428   2.104   1.041   0.548  0.0932  0.1245  0.7752
  810SOL    HW1 2429   2.119   0.973   0.623  2.6084  2.6545 -0.3198
  810SOL    HW2 2430   2.103   1.140   0.584  1.2347 -0.3291  3.0472
  811SOL     OW 2431   1.334   2.497   1.179 -0.0810  0.0554 -0.5607
  811SOL    HW1 2432   1.269   2.421   1.200  0.3025 -0.4920 -0.6844
  811SOL    HW2 2433   1.292   2.592   1.203 -0.2488 -0.1428  0.0130
  812SOL     OW 2434   1.415   0.750   1.967 -0.3864 -0.3557 -0.1505
  812SOL    HW1 2435   1.488   0.820   1.972  0.8305  1.6772 -0.5702
  812SOL    HW2 2436   1.321   0.793   1.963 -2.1713  2.1699 -0.4402
  813SOL     OW 2437   1.705   2.040   2.496 -0.1185  0.1596 -0.0988
  813SOL    HW1 2438   1.776   1.961   2.501 -3.3525  1.6178 -0.3714
  813SOL    HW2 2439   1.649   2.037   2.408  1.6040  0.3855  0.8549
  814SOL     OW 2440   2.902   1.552   2.830 -0.2535  0.3264 -0.7621
  814SOL    HW1 2441   2.992   1.511   2.864  0.3058  1.1813  0.6624
  814SOL    HW2 2442   2.918   1.646   2.793  0.7892  2.5330  0.8648
  815SOL     OW 2443   2.137   2.907   2.776  0.3011 -0.1777  0.0324
  815SOL    HW1 2444   2.115   2.829   2.838  1.0244 -0.7386  1.1195
  815SOL    HW2 2445   2.218   2.969   2.802 -2.2898  1.1067  0.2256
  816SOL     OW 2446   1.646   0.333   1.600 -0.0872 -0.3287 -0.0743
  816SOL    HW1 2447   1.696   0.253   1.638 -0.2316  1.9416 -1.6799
  816SOL    HW2 2448   1.570   0.366   1.665 -1.3101  1.7562  0.1774
  817SOL     OW 2449   0.378   1.184   2.560 -0.1909 -0.2690  0.2141
  817SOL    HW1 2450   0.278   1.212   2.571 -0.3511  0.6024 -1.8730
  817SOL    HW2 2451   0.437   1.247   2.503 -0.9801 -1.1940  0.8106
  818SOL     OW 2452   1.885   0.879   0.435 -0.2369  0.6245 -0.4536
  818SOL    HW1 2453   1.958   0.942   0.470 -1.8992  0.8272 -0.3129
  818SOL    HW2 2454   1.787   0.894   0.472  0.8049 -2.2595 -0.5769
  819SOL     OW 2455   2.737   2.971   2.974  0.3556 -0.2847 -0.6065
  819SOL    HW1 2456   2.806   2.901   2.949 -2.8937 -0.1736  1.2292
  819SOL    HW2 2457   2.648   2.934   2.938  0.4475  0.8195 -1.9330
  820SOL     OW 2458   1.259   1.066   0.668 -0.4650 -0.2107 -0.4020
  820SOL    HW1 2459   1.234   1.153   0.714 -0.1249 -3.2982  0.0134
  820SOL    HW2 2460   1.245   0.987   0.737 -0.3445 -1.1037  0.2976
  821SOL     OW 2461   3.087   1.315   0.669 -0.1140 -0.2537  0.3207
  821SOL    HW1 2462   3.054   1.334   0.760 -0.2280 -1.8538 -1.0029
  821SOL    HW2 2463   3.155   1.382   0.627  3.5758 -2.0038 -0.7391
  822SOL     OW 2464   2.560   1.707   2.420 -0.3719 -0.1105 -0.4743
  822SOL    HW1 2465   2.573   1.779   2.497 -0.4223 -1.3703  0.6649
  822SOL    HW2 2466   2.480   1.733   2.360  2.9525  1.5238 -1.6408
  823SOL     OW 2467   2.089   0.905   1.213 -0.5944  0.1054 -0.4731
  823SOL    HW1 2468   2.040   0.898   1.305 -0.0635  2.2290  1.9628
  823SOL    HW2 2469   2.042   0.972   1.155 -0.0332  0.1790  0.9842
  824SOL     OW 2470   0.242   2.046   2.788  0.3851 -0.3527  0.1038
  824SOL    HW1 2471   0.194   1.964   2.832  0.3609  1.0620 -0.8784
  824SOL    HW2 2472   0.319   2.018   2.728 -0.6206  1.9878  1.2323
  825SOL     OW 2473   1.292   1.127   0.273  0.0528  0.2507  0.1606
  825SOL    HW1 2474   1.332   1.221   0.252 -0.4945  1.1214 -0.3275
  825SOL    HW2 2475   1.240   1.127   0.365 -1.8808  1.3611  2.8506
  826SOL     OW 2476   1.903   0.697   1.628 -0.0749 -0.7162 -0.3451
  826SOL    HW1 2477   1.989   0.640   1.633  1.1415  0.8848 -0.2613
  826SOL    HW2 2478   1.829   0.644   1.573 -0.2198  0.5971 -1.0873
  827SOL     OW 2479   0.677   1.177   0.213 -0.0309 -0.4984 -0.4836
  827SOL    HW1 2480   0.767   1.187   0.164 -3.1782 -0.6008 -2.3799
  827SOL    HW2 2481   0.631   1.087   0.213 -1.1628  3.2537  1.3314
  828SOL     OW 2482   2.567   0.114   1.570 -0.0201  0.4586  0.0196
  828SOL    HW1 2483   2.475   0.126   1.528 -0.0645  0.2243  0.0220
  828SOL    HW2 2484   2.565   0.040   1.644  1.4022  2.6740  2.6758
  829SOL     OW 2485   2.756   2.502   3.037  0.2672 -0.2061 -0.1049
  829SOL    HW1 2486   2.682   2.433   3.066 -2.0301 -0.1353 -2.4630
  829SOL    HW2 2487   2.738   2.599   3.069  1.2161  1.8320  0.2230
  830SOL     OW 2488   2.837   0.933   3.019 -0.3029 -0.0714  1.5063
  830SOL    HW1 2489   2.885   1.022   3.038 -2.8197 -1.7058  2.4802
  830SOL    HW2 2490   2.857   0.863   3.090  1.3985  0.6466 -1.6504
  831SOL     OW 2491   0.014   0.646   0.400 -0.2030  0.1148 -0.2172
  831SOL    HW1 2492  -0.004   0.583   0.481 -1.1428  2.6659 -1.0093
  831SOL    HW2 2493   0.060   0.596   0.321 -2.0333  0.7862 -1.3923
  832SOL     OW 2494   1.801   0.747   2.992  0.6363  0.1007 -0.0904
  832SOL    HW1 2495   1.708   0.780   2.959 -1.6777  0.8195  1.4303
  832SOL    HW2 2496   1.793   0.646   3.014  0.0090  0.0925  1.1833
  833SOL     OW 2497   2.476   2.151   0.549 -0.2440 -0.5500 -0.3888
  833SOL    HW1 2498   2.403   2.179   0.483 -0.7198 -1.8707 -2.0216
  833SOL    HW2 2499   2.505   2.053   0.538  1.2669  1.9498  1.0375
  834SOL     OW 2500   0.208   0.214   0.505  0.1946  0.0232 -0.7356
  834SOL    HW1 2501   0.183   0.151   0.589 -1.2870 -1.0618 -1.2113
  834SOL    HW2 2502   0.177   0.184   0.411 -1.0053  0.4116  0.0266
  835SOL     OW 2503   2.332   1.570   1.096 -0.7015  0.3083 -0.2617
  835SOL    HW1 2504   2.316   1.672   1.113  0.2444  1.5086 -2.3544
  835SOL    HW2 2505   2.424   1.548   1.056  2.0609  1.4305 -0.8612
  836SOL     OW 2506   1.603   0.836   2.571  0.0580  0.0671  0.2411
  836SOL    HW1 2507   1.495   0.825   2.565  0.3814 -2.5420  0.5049
  836SOL    HW2 2508   1.649   0.824   2.475  0.0024  0.3695  0.8382
  837SOL     OW 2509   1.710   0.129   0.549 -0.0802  0.3593 -0.0324
  837SOL    HW1 2510   1.655   0.186   0.613  0.4174 -2.0616 -1.9183
  837SOL    HW2 2511   1.670   0.121   0.454  1.2055  0.7358 -0.7690
  838SOL     OW 2512   1.173   1.546   2.814 -0.3469 -0.0118  0.1701
  838SOL    HW1 2513   1.135   1.529   2.908  0.2855 -1.1116  0.5100
  838SOL    HW2 2514   1.126   1.494   2.737 -1.1530  0.7404  1.5880
  839SOL     OW 2515   1.690   0.321   1.035 -0.1108 -0.2174  0.4078
  839SOL    HW1 2516   1.698   0.395   1.106  1.1185  1.3501 -1.7993
  839SOL    HW2 2517   1.622   0.249   1.063  0.1196  2.3204 -0.2439
  840SOL     OW 2518   2.513   2.962   1.747  0.3504 -0.7048 -0.1673
  840SOL    HW1 2519   2.467   2.910   1.665 -0.7806 -0.3808  0.7711
  840SOL    HW2 2520   2.538   2.900   1.827  1.1804  1.5110  2.3167
  841SOL     OW 2521   1.530   0.829   2.958 -0.3762  0.1953  0.0310
  841SOL    HW1 2522   1.459   0.847   3.038 -0.9864 -0.5348 -1.2937
  841SOL    HW2 2523   1.539   0.915   2.896 -0.5944 -2.4511  0.2244
  842SOL     OW 2524   0.791   1.547   0.953 -0.3729  0.1244  0.1587
  842SOL    HW1 2525   0.772   1.634   1.011 -0.6158  0.4351  2.5656
  842SOL    HW2 2526   0.707   1.497   0.915 -1.6829  0.3447  1.7023
  843SOL     OW 2527   0.050   0.043   1.387  0.1327  0.5020  0.6243
  843SOL    HW1 2528   0.142   0.082   1.415 -0.2576 -1.5214 -0.9039
  843SOL    HW2 2529   0.025  -0.043   1.437  1.2430  0.3571  3.3141
  844SOL     OW 2530   0.815   2.539   0.290 -0.3288  0.4988  0.4252
  844SOL    HW1 2531   0.761   2.511   0.372 -1.4576  1.6809 -1.8608
  844SOL    HW2 2532   0.771   2.606   0.227  0.9098 -1.3151  2.2300
  845SOL     OW 2533   1.639   2.897   1.361  0.3992  0.0994 -0.2828
  845SOL    HW1 2534   1.717   2.880   1.425 -1.5498  0.7160  0.8567
  845SOL    HW2 2535   1.555   2.850   1.391 -0.5069  0.6274 -0.5156
  846SOL     OW 2536   1.562   2.901   0.681 -0.9064  0.2542  0.3766
  846SOL    HW1 2537   1.610   2.851   0.602  3.0140  1.3443 -0.4708
  846SOL    HW2 2538   1.619   2.897   0.771  1.4718  0.7506  1.0420
  847SOL     OW 2539   2.063   1.657   0.305 -0.1293 -0.0365  0.0336
  847SOL    HW1 2540   2.021   1.569   0.342 -0.1620  0.9224  0.0522
  847SOL    HW2 2541   1.998   1.742   0.297 -3.3304  3.1072 -1.3664
  848SOL     OW 2542   2.442   0.867   2.582  0.0921 -0.2859 -0.1509
  848SOL    HW1 2543   2.405   0.946   2.637  2.0122  2.4969 -0.2445
  848SOL    HW2 2544   2.384   0.782   2.572  2.2989 -1.8656  1.6130
  849SOL     OW 2545   2.590   0.806   2.348 -0.2247 -0.0088 -0.2774
  849SOL    HW1 2546   2.693   0.807   2.354  1.8298 -1.7223 -0.1368
  849SOL    HW2 2547   2.543   0.840   2.435  2.6017 -1.8961  1.1008
  850SOL     OW 2548   1.551   0.093   1.345 -0.4277 -0.0991  0.1273
  850SOL    HW1 2549   1.554   0.088   1.240  0.3014  3.1211 -2.5959
  850SOL    HW2 2550   1.490   0.026   1.400  0.2866 -0.4652  4.1714
  851SOL     OW 2551   0.457   1.803   0.596 -0.4056 -0.0377  0.0547
  851SOL    HW1 2552   0.512   1.892   0.614  1.2913 -0.7642  1.0593
  851SOL    HW2 2553   0.498   1.750   0.517  1.5246  0.0686  1.6697
  852SOL     OW 2554   0.780   2.118   1.657 -0.3185  0.5701 -0.1371
  852SOL    HW1 2555   0.811   2.218   1.636  0.0453  1.1308 -0.8991
  852SOL    HW2 2556   0.712   2.122   1.737 -0.0232 -2.5664 -0.0129
  853SOL     OW 2557   2.571   1.480   2.603  0.4395  0.0677 -0.3433
  853SOL    HW1 2558   2.514   1.396   2.592  0.3761  1.3283  0.3907
  853SOL    HW2 2559   2.572   1.550   2.524 -0.1327  0.9544  3.1173
  854SOL     OW 2560   2.379   1.408   1.733  0.1543 -0.2334 -0.5916
  854SOL    HW1 2561   2.421   1.398   1.643  0.7902 -3.3205  0.9738
  854SOL    HW2 2562   2.285   1.362   1.739  0.0990  1.1605  2.4123
  855SOL     OW 2563   2.018   2.432   0.984 -0.0193 -0.2729 -0.3291
  855SOL    HW1 2564   2.037   2.521   0.929  2.6766 -0.8439  0.3545
  855SOL    HW2 2565   2.100   2.415   1.052  1.0573  3.0249  1.0584
  856SOL     OW 2566   1.356   1.498   0.931  0.4698  0.0507 -0.5788
  856SOL    HW1 2567   1.408   1.581   0.966 -0.5763 -3.0459  0.7631
  856SOL    HW2 2568   1.256   1.494   0.968 -1.3536 -0.5157  0.4214
  857SOL     OW 2569   3.053   2.689   1.006 -0.9686  0.3084  0.5856
  857SOL    HW1 2570   3.034   2.662   0.910  1.7905  0.1285  3.6747
  857SOL    HW2 2571   3.152   2.676   1.033 -0.3698 -1.5511  2.3337
  858SOL     OW 2572   2.338   2.048   1.695 -0.2454 -0.8491  0.0482
  858SOL    HW1 2573   2.255   2.007   1.658  1.6642 -1.1214 -0.7641
  858SOL    HW2 2574   2.426   1.990   1.683 -0.7149 -1.5344 -0.2813
  859SOL     OW 2575   2.477   0.543   1.012  0.3101  0.1948  0.1748
  859SOL    HW1 2576   2.539   0.600   0.946 -0.1355  0.0248 -0.6477
  859SOL    HW2 2577   2.516   0.449   1.045  1.2217  0.0727 -0.1712
  860SOL     OW 2578   1.945   2.817   0.428  0.7871  0.4393 -0.6233
  860SOL    HW1 2579   1.896   2.799   0.335 -2.9091  0.2955  1.8621
  860SOL    HW2 2580   2.034   2.777   0.442 -2.2429  1.7087 -1.2175
  861SOL     OW 2581   1.074   2.445   2.878  0.9444  0.3253 -0.3828
  861SOL    HW1 2582   1.086   2.544   2.847  1.7642  2.1065  0.7802
  861SOL    HW2 2583   1.116   2.431   2.972 -0.9838 -0.1924  2.4630
  862SOL     OW 2584   2.820   2.579   1.606  0.2680  0.2942  0.1454
  862SOL    HW1 2585   2.905   2.609   1.657  1.3375  0.3201 -0.2544
  862SOL    HW2 2586   2.799   2.649   1.532 -1.1126 -1.4386 -0.9260
  863SOL     OW 2587   1.844   2.737   0.178 -0.2378 -0.4982 -0.3020
  863SOL    HW1 2588   1.889   2.645   0.200  1.2631 -2.1866 -0.9353
  863SOL    HW2 2589   1.745   2.721   0.151 -0.2406  0.5685  0.6035
  864SOL     OW 2590   1.909   1.192   2.866 -0.1803  0.0403 -0.3029
  864SOL    HW1 2591   1.917   1.128   2.785 -0.5544  0.2383 -1.0482
  864SOL    HW2 2592   1.989   1.184   2.929 -1.1768 -0.7215 -0.9228
  865SOL     OW 2593   2.212   1.816   0.630  0.0701 -0.9723 -0.1541
  865SOL    HW1 2594   2.278   1.843   0.705 -0.9554  3.3693 -1.6257
  865SOL    HW2 2595   2.111   1.833   0.655  0.5422 -1.1513 -0.2316
  866SOL     OW 2596   2.878   2.914   1.025  0.0734 -0.4564 -0.2685
  866SOL    HW1 2597   2.883   2.961   0.934 -0.0397  1.2447  3.0156
  866SOL    HW2 2598   2.909   2.814   1.025 -2.4330  0.0666 -1.1533
  867SOL     OW 2599   0.315   1.380   0.890 -0.5077 -0.6420  0.4158
  867SOL    HW1 2600   0.307   1.285   0.839 -2.8513 -0.1120  1.1758
  867SOL    HW2 2601   0.282   1.457   0.830  0.4755  1.6889  0.2396
  868SOL     OW 2602   0.769   1.883   1.987 -0.4143 -0.3259 -0.5098
  868SOL    HW1 2603   0.755   1.887   2.087 -4.5991 -0.1141 -0.3778
  868SOL    HW2 2604   0.739   1.976   1.949 -1.1676 -2.2294  0.1708
  869SOL     OW 2605   2.568   1.914   1.634 -0.1784  0.4245 -0.4191
  869SOL    HW1 2606   2.651   1.973   1.599  0.4596  2.3051 -0.9591
  869SOL    HW2 2607   2.588   1.809   1.640  1.6496  1.9887  0.0771
  870SOL     OW 2608   2.215   2.637   1.244 -0.2366 -0.4277  0.3581
  870SOL    HW1 2609   2.221   2.531   1.210 -0.0292 -0.4549 -3.4003
  870SOL    HW2 2610   2.228   2.640   1.347  0.6925 -3.5706 -0.6166
  871SOL     OW 2611   3.025   2.209   0.512 -0.4711  0.4034 -0.0851
  871SOL    HW1 2612   2.991   2.270   0.589 -0.9889 -1.9118  1.0046
  871SOL    HW2 2613   2.991   2.241   0.419  0.8383 -0.0485 -1.2154
  872SOL     OW 2614   2.108   0.537   1.692 -0.4572  0.0712 -0.1579
  872SOL    HW1 2615   2.068   0.520   1.787  0.9810 -0.7340 -1.0732
  872SOL    HW2 2616   2.209   0.519   1.689  0.2916 -0.1247  1.4173
  873SOL     OW 2617   1.723   2.120   3.065  0.6713 -0.2594 -0.3013
  873SOL    HW1 2618   1.631   2.108   3.111 -0.0476 -0.5278 -0.4689
  873SOL    HW2 2619   1.717   2.094   2.966 -1.2041  0.8515 -0.6221
  874SOL     OW 2620   0.684   2.472   0.768 -0.0421  0.1779  0.4230
  874SOL    HW1 2621   0.637   2.553   0.809  3.8190  0.7587 -0.4004
  874SOL    HW2 2622   0.777   2.451   0.813  2.2359 -2.3805 -2.0116
  875SOL     OW 2623   2.340   1.478   1.403  0.1453  0.4333 -0.3798
  875SOL    HW1 2624   2.402   1.547   1.441 -0.4764 -2.7387  1.1510
  875SOL    HW2 2625   2.358   1.458   1.301  2.1643  0.4052  2.9320
  876SOL     OW 2626   0.065   2.254   2.753  0.2226 -0.4197  0.0461
  876SOL    HW1 2627   0.145   2.177   2.761  0.6628 -2.3633  1.4817
  876SOL    HW2 2628   0.102   2.347   2.786  1.0184  1.7835 -2.6913
  877SOL     OW 2629   2.903   2.667   0.571  0.1015  0.0566  0.6834
  877SOL    HW1 2630   2.897   2.765   0.600 -0.0770 -1.9496 -1.9397
  877SOL    HW2 2631   2.943   2.605   0.641  0.5871  0.2397 -0.1685
  878SOL     OW 2632   2.774   1.483   2.262 -0.5036 -0.0976 -0.1103
  878SOL    HW1 2633   2.800   1.569   2.206  2.1420  0.8562 -2.1557
  878SOL    HW2 2634   2.818   1.476   2.356 -0.2067 -1.0187  0.3555
  879SOL     OW 2635   2.398   0.118   1.235 -0.3546  0.0488 -0.5146
  879SOL    HW1 2636   2.426   0.023   1.257 -0.1168  1.0952  0.8587
  879SOL    HW2 2637   2.347   0.125   1.144 -0.7549 -2.2079 -0.5399
  880SOL     OW 2638   0.766   0.481   2.220  0.2072  0.2297 -0.0524
  880SOL    HW1 2639   0.692   0.450   2.281 -1.8267  0.4019 -2.6464
  880SOL    HW2 2640   0.813   0.399   2.177 -1.0521 -0.2662 -1.5952
  881SOL     OW 2641   0.901   0.039   0.516 -0.4816  0.3006 -0.3359
  881SOL    HW1 2642   0.972  -0.041   0.532 -0.3999  0.9487 -2.8263
  881SOL    HW2 2643   0.799   0.016   0.501 -1.7530  0.7665 -0.8150
  882SOL     OW 2644   2.701   1.682   1.687  0.1985 -0.0989  0.0382
  882SOL    HW1 2645   2.796   1.646   1.655 -0.7876 -2.1564  0.0781
  882SOL    HW2 2646   2.705   1.698   1.787 -1.7387  2.3432  1.5454
  883SOL     OW 2647   0.898   0.522   0.935 -0.0283  0.6566  0.0027
  883SOL    HW1 2648   0.894   0.597   1.005 -0.1162  0.0837 -1.0541
  883SOL    HW2 2649   0.898   0.427   0.978 -0.8883  0.8781  0.2136
  884SOL     OW 2650   1.162   1.729   1.187  0.0743  0.1676 -0.3491
  884SOL    HW1 2651   1.134   1.663   1.115  0.9208 -1.7894 -0.4575
  884SOL    HW2 2652   1.154   1.830   1.163  0.9310 -2.6223  1.7101
  885SOL     OW 2653   2.330   1.779   2.288  0.0550  0.3110  0.4384
  885SOL    HW1 2654   2.265   1.730   2.357 -2.4858  1.7741 -1.4143
  885SOL    HW2 2655   2.301   1.869   2.244 -0.4511 -1.2203 -0.4749
  886SOL     OW 2656   2.604   0.364   1.803  0.1908  0.3872  0.0297
  886SOL    HW1 2657   2.651   0.274   1.813 -0.7658 -0.0336  1.4776
  886SOL    HW2 2658   2.669   0.449   1.800 -0.8105  1.3905  0.3886
  887SOL     OW 2659   0.108   1.967   1.350  0.3434  0.4261  0.1028
  887SOL    HW1 2660   0.077   1.908   1.272 -1.6232  0.7317  1.3932
  887SOL    HW2 2661   0.081   2.064   1.335 -2.6735 -0.5773  0.9333
  888SOL     OW 2662   0.573   1.212   1.547  0.2140 -0.1046 -0.2615
  888SOL    HW1 2663   0.589   1.266   1.459 -1.4751 -0.4991 -0.7948
  888SOL    HW2 2664   0.506   1.128   1.529  0.3134  0.1055  0.8661
  889SOL     OW 2665   0.826   2.480   2.192 -0.0346 -0.2178 -0.8890
  889SOL    HW1 2666   0.759   2.403   2.174 -1.6489  3.8050 -0.6238
  889SOL    HW2 2667   0.875   2.516   2.106 -1.9500 -3.1195  1.2718
  890SOL     OW 2668   2.424   2.415   0.231  0.1554  0.0626 -0.0856
  890SOL    HW1 2669   2.514   2.456   0.198  0.3785 -1.0377 -0.7883
  890SOL    HW2 2670   2.357   2.478   0.281  0.2350 -1.1854  1.4869
  891SOL     OW 2671   2.523   1.721   0.693  0.5988  0.0101  0.4957
  891SOL    HW1 2672   2.542   1.682   0.785  0.0717  0.4544  2.9112
  891SOL    HW2 2673   2.477   1.658   0.630  0.6137  1.0481 -2.1770
  892SOL     OW 2674   0.358   0.299   2.251 -0.2176  0.2679 -0.2385
  892SOL    HW1 2675   0.393   0.377   2.186 -0.7120 -0.3528 -0.4517
  892SOL    HW2 2676   0.409   0.294   2.340 -0.3233  1.0224 -0.0176
  893SOL     OW 2677   1.672   0.255   2.725  0.1166 -0.5070  0.1798
  893SOL    HW1 2678   1.757   0.314   2.736 -1.3945  0.9669  1.9097
  893SOL    HW2 2679   1.594   0.324   2.704  0.4646 -1.0868  1.6597
  894SOL     OW 2680   2.150   2.033   0.029 -0.9719 -0.2213 -0.1525
  894SOL    HW1 2681   2.122   1.995  -0.069 -1.9634 -0.4943 -1.7730
  894SOL    HW2 2682   2.168   1.953   0.095  0.1657  0.4480  0.6099
  895SOL     OW 2683   2.824   1.440   0.949  0.2196  0.0157  0.2676
  895SOL    HW1 2684   2.903   1.372   0.941  0.2703 -2.9987 -0.0595
  895SOL    HW2 2685   2.850   1.536   0.980  1.7032 -3.1358 -1.0710
  896SOL     OW 2686   1.727   1.807   1.190  0.9738  0.0239 -0.0633
  896SOL    HW1 2687   1.764   1.744   1.116  0.0476 -0.9940 -1.1610
  896SOL    HW2 2688   1.677   1.887   1.150 -0.7902 -1.4195  0.2709
  897SOL     OW 2689   0.313   0.549   3.057 -0.1856 -0.3527 -0.0063
  897SOL    HW1 2690   0.266   0.590   2.972  0.2731  0.4853  0.8881
  897SOL    HW2 2691   0.410   0.584   3.077  2.2198  0.4985 -1.1533
  898SOL     OW 2692   0.550   2.874   1.078 -0.3277  0.1154  0.5333
  898SOL    HW1 2693   0.533   2.968   1.119 -0.5529 -1.2490 -0.2313
  898SOL    HW2 2694   0.636   2.830   1.118 -2.7539 -1.1148 -1.8158
  899SOL     OW 2695   2.829   0.911   1.274 -0.5409  0.2020 -0.6966
  899SOL    HW1 2696   2.752   0.910   1.207  2.3712  2.6133 -2.3959
  899SOL    HW2 2697   2.916   0.924   1.223 -0.6924  2.2053  0.0319
  900SOL     OW 2698   0.975   2.535   2.402  0.7306  0.2330  0.5084
  900SOL    HW1 2699   0.903   2.507   2.336 -0.1489 -1.8974  2.2708
  900SOL    HW2 2700   0.949   2.511   2.499  1.7908  3.5566 -3.3940
  901SOL     OW 2701   1.896   2.343   1.367  0.0067  0.0317 -0.1726
  901SOL    HW1 2702   1.874   2.287   1.281 -0.9083 -0.8143 -0.0311
  901SOL    HW2 2703   1.992   2.323   1.400  2.1373 -0.2343 -0.6221
  902SOL     OW 2704   2.560   1.657   1.446 -0.1190  0.3418  0.6217
  902SOL    HW1 2705   2.588   1.637   1.543 -0.2373  0.8980  1.0107
  902SOL    HW2 2706   2.619   1.601   1.377 -0.2162  0.5534  2.0699
  903SOL     OW 2707   0.245   2.470   1.980  0.3436 -0.3192 -0.0715
  903SOL    HW1 2708   0.172   2.414   1.933  1.0338  0.4317 -0.8392
  903SOL    HW2 2709   0.280   2.539   1.915 -1.2828 -2.9337  0.0616
  904SOL     OW 2710   2.038   0.794   2.548 -0.1995 -0.0367 -0.7148
  904SOL    HW1 2711   1.954   0.736   2.565  2.2129  2.8089 -0.1328
  904SOL    HW2 2712   2.050   0.804   2.446  0.8727  1.8422 -0.8470
  905SOL     OW 2713   2.832   0.130   2.566  0.1511 -0.2440 -0.0382
  905SOL    HW1 2714   2.887   0.048   2.546 -0.1708  0.2062  0.7183
  905SOL    HW2 2715   2.877   0.220   2.552 -2.8154 -1.2652  0.0969
  906SOL     OW 2716   0.221   1.686   1.931 -0.3857 -0.1611 -0.3257
  906SOL    HW1 2717   0.141   1.708   1.870  0.8099 -0.4501 -0.1342
  906SOL    HW2 2718   0.317   1.714   1.911 -1.7171  0.8606  1.1443
  907SOL     OW 2719   0.265   2.437   1.032  0.0391  0.2418 -0.0854
  907SOL    HW1 2720   0.336   2.376   0.986 -0.5275 -0.7480  0.3758
  907SOL    HW2 2721   0.281   2.537   1.008  0.7311 -0.4399  2.0547
  908SOL     OW 2722   2.811   2.976   0.355 -0.7333  0.1261  0.0756
  908SOL    HW1 2723   2.727   3.003   0.301  2.2995  1.5270 -1.5409
  908SOL    HW2 2724   2.876   2.932   0.289  0.6947 -0.7162  1.0484
  909SOL     OW 2725   0.829   1.049   2.654 -0.4848  0.0501 -0.0367
  909SOL    HW1 2726   0.810   0.949   2.629 -0.4450 -0.7805 -2.1716
  909SOL    HW2 2727   0.896   1.095   2.585  2.4363  0.5060 -0.1542
  910SOL     OW 2728   1.777   1.898   2.177 -0.3737 -0.5308 -0.4926
  910SOL    HW1 2729   1.805   1.923   2.079 -0.1487 -1.1057  2.5168
  910SOL    HW2 2730   1.687   1.944   2.207 -0.7627 -1.3403  0.7220
  911SOL     OW 2731   1.807   2.945   1.593  0.0786  0.2439 -0.1401
  911SOL    HW1 2732   1.878   2.929   1.518 -1.0715 -0.1356  0.5766
  911SOL    HW2 2733   1.817   2.876   1.668  1.1348 -1.1947  0.9396
  912SOL     OW 2734   2.855   1.012   0.739  0.0714 -0.4426 -0.3487
  912SOL    HW1 2735   2.867   0.973   0.833  1.2182 -2.4877 -2.2589
  912SOL    HW2 2736   2.816   1.110   0.750 -1.8998 -0.8278  0.7299
  913SOL     OW 2737   2.558   1.281   1.521  0.2931 -0.0561 -0.5881
  913SOL    HW1 2738   2.585   1.180   1.515  1.5651 -0.0896  0.5882
  913SOL    HW2 2739   2.596   1.340   1.449  0.7643  1.3982 -0.3817
  914SOL     OW 2740   2.791   0.595   1.199  0.1661  0.7816  0.0485
  914SOL    HW1 2741   2.793   0.491   1.220 -1.8385  0.3858  0.9259
  914SOL    HW2 2742   2.703   0.646   1.227  1.2011 -0.5443  0.7862
  915SOL     OW 2743   1.179   0.711   1.070  0.4304 -0.0673  0.6527
  915SOL    HW1 2744   1.239   0.768   1.133 -0.7007 -2.4476 -1.2364
  915SOL    HW2 2745   1.080   0.735   1.055 -0.9401 -2.2807 -0.8128
  916SOL     OW 2746   0.586   0.021   0.643 -0.0916 -0.2153 -0.2843
  916SOL    HW1 2747   0.622   0.094   0.706 -0.0839  0.1254 -1.3120
  916SOL    HW2 2748   0.595   0.050   0.545  0.5412  2.7696 -2.8214
  917SOL     OW 2749   2.842   2.615   1.990  0.4311 -0.0884 -0.5152
  917SOL    HW1 2750   2.749   2.651   1.969  1.2898  1.8891  1.6632
  917SOL    HW2 2751   2.913   2.645   1.920 -1.0398 -0.0371  0.1473
  918SOL     OW 2752   1.012   2.108   3.036 -0.1991  0.2809 -0.0358
  918SOL    HW1 2753   0.961   2.160   3.110  2.1699  0.0877 -0.8434
  918SOL    HW2 2754   1.099   2.152   2.999  0.5345  0.2939  4.8788
  919SOL     OW 2755   0.854   1.625   2.854  0.2941  0.2159  0.4439
  919SOL    HW1 2756   0.892   1.701   2.795  2.1029 -1.4792  0.8002
  919SOL    HW2 2757   0.819   1.547   2.800  1.4365 -0.1962  3.3526
  920SOL     OW 2758   1.238   1.844   2.492 -0.9590  0.5369 -0.1426
  920SOL    HW1 2759   1.328   1.810   2.443  0.9236  1.1817 -0.5260
  920SOL    HW2 2760   1.190   1.777   2.559  0.3287  1.0574  2.1758
  921SOL     OW 2761   1.042   0.034   2.614  0.0760 -0.2104 -0.3591
  921SOL    HW1 2762   1.028   0.015   2.513  0.1264  2.4203 -0.2763
  921SOL    HW2 2763   0.969  -0.015   2.676 -1.4899  0.0359 -0.5637
  922SOL     OW 2764   2.190   2.378   2.778 -0.5886  0.4477 -0.0776
  922SOL    HW1 2765   2.221   2.279   2.769  1.7800  0.5828 -0.3134
  922SOL    HW2 2766   2.145   2.425   2.702 -2.4143 -0.2120  1.6861
  923SOL     OW 2767   1.266   2.667   0.292 -0.3614 -0.3997 -0.2931
  923SOL    HW1 2768   1.334   2.737   0.317 -1.9087 -0.3462  0.1612
  923SOL    HW2 2769   1.304   2.573   0.296  1.2154 -0.6154 -0.0650
  924SOL     OW 2770   2.839   1.601   0.175 -0.0861 -1.1389  0.5801
  924SOL    HW1 2771   2.771   1.584   0.100  0.6042 -2.1889  0.3610
  924SOL    HW2 2772   2.935   1.564   0.157  1.2246  0.0848  2.4978
  925SOL     OW 2773   0.019   2.873   1.490 -0.0381 -0.3335  0.2903
  925SOL    HW1 2774  -0.067   2.882   1.547  1.3545  2.2119 -1.3124
  925SOL    HW2 2775   0.001   2.809   1.412  0.2397  0.8381  3.1614
  926SOL     OW 2776   1.288   2.790   1.293  0.4759  0.0432 -0.8569
  926SOL    HW1 2777   1.348   2.800   1.210  2.0247  1.5774  0.8043
  926SOL    HW2 2778   1.295   2.880   1.345 -1.4381  1.2875 -1.0951
  927SOL     OW 2779   0.318   2.673   1.778  0.2407  0.2650 -0.2069
  927SOL    HW1 2780   0.291   2.599   1.710 -1.4530  2.1672  0.8496
  927SOL    HW2 2781   0.274   2.763   1.749 -0.5959  0.7357  1.7339
  928SOL     OW 2782   1.569   2.056   2.259 -0.1621  0.1412  0.3714
  928SOL    HW1 2783   1.608   2.131   2.197 -0.0085 -2.0453 -0.4441
  928SOL    HW2 2784   1.463   2.060   2.282 -2.4916 -0.2782  3.0450
  929SOL     OW 2785   2.396   2.526   2.869 -0.2222 -0.3835  0.0614
  929SOL    HW1 2786   2.310   2.471   2.846  1.0737  3.2264 -2.1934
  929SOL    HW2 2787   2.456   2.535   2.786 -0.7245 -0.3363  2.0452
  930SOL     OW 2788   2.186   2.017   1.084  0.1816 -0.6156  0.2133
  930SOL    HW1 2789   2.192   1.955   1.166  2.1846 -0.1629  0.4663
  930SOL    HW2 2790   2.219   2.119   1.097  0.3738  2.5018  1.8154
  931SOL     OW 2791   0.528   1.715   2.718  0.0443  0.1562  0.3063
  931SOL    HW1 2792   0.565   1.764   2.799  2.4531 -2.1963  0.1324
  931SOL    HW2 2793   0.574   1.624   2.715  0.3561  2.3666  1.9763
  932SOL     OW 2794   0.485   0.145   3.035  0.2887 -0.0644 -0.5188
  932SOL    HW1 2795   0.584   0.171   3.042  1.6427  0.5367  0.6973
  932SOL    HW2 2796   0.473   0.038   3.038 -2.9299  0.3300  0.0101
  933SOL     OW 2797   0.988   0.801   0.010  0.4623  0.0015  0.1590
  933SOL    HW1 2798   0.987   0.843   0.103  1.1096  0.1687 -0.5628
  933SOL    HW2 2799   0.951   0.860  -0.068 -3.6228  0.8581 -0.2624
  934SOL     OW 2800   0.784   2.954   2.680  0.1893  0.3684 -0.2023
  934SOL    HW1 2801   0.769   2.914   2.586 -1.9743  0.0299 -0.4017
  934SOL    HW2 2802   0.860   2.913   2.737 -1.5177  1.1478  0.3502
  935SOL     OW 2803   0.034   0.556   0.843 -0.2168  0.3176 -0.2526
  935SOL    HW1 2804   0.018   0.499   0.754  1.0644 -0.5165  0.9395
  935SOL    HW2 2805  -0.053   0.585   0.892  3.0394 -0.3266 -1.7216
  936SOL     OW 2806   1.125   2.766   0.075  0.1259 -0.2682  0.1064
  936SOL    HW1 2807   1.185   2.808   0.005 -3.2174 -0.3055 -0.3098
  936SOL    HW2 2808   1.178   2.723   0.155 -0.2337  1.4975  1.0250
  937SOL     OW 2809   1.887   2.656   2.107  0.1402 -0.1899  0.0951
  937SOL    HW1 2810   1.796   2.693   2.115  1.7085 -2.5782  2.7809
  937SOL    HW2 2811   1.946   2.719   2.047  2.0749 -1.9241 -0.2065
  938SOL     OW 2812   2.770   2.092   1.607  0.1512 -0.0032  0.0581
  938SOL    HW1 2813   2.736   2.192   1.620 -0.2523  1.2169  1.2457
  938SOL    HW2 2814   2.865   2.078   1.651 -0.2136  0.1511 -0.9006
  939SOL     OW 2815   2.868   1.212   2.445  0.4066  0.5828  0.1386
  939SOL    HW1 2816   2.923   1.183   2.363 -0.3763 -0.0059 -1.7354
  939SOL    HW2 2817   2.849   1.145   2.520  0.2257 -0.8657 -0.0992
  940SOL     OW 2818   1.040   0.416   2.750 -0.1676 -0.0218 -0.0965
  940SOL    HW1 2819   1.124   0.357   2.739  1.2521 -0.9926  3.2122
  940SOL    HW2 2820   0.960   0.395   2.683 -2.7296 -1.9951  0.2962
  941SOL     OW 2821   0.054   2.781   2.263  0.8351  0.0768  0.4215
  941SOL    HW1 2822   0.093   2.690   2.247  1.2817  0.3186 -0.1925
  941SOL    HW2 2823   0.119   2.848   2.310 -0.9385  0.8815 -0.3112
  942SOL     OW 2824   0.137   0.055   2.574  0.6786  0.1699 -0.2954
  942SOL    HW1 2825   0.207   0.098   2.645 -0.6561  1.2977 -0.5974
  942SOL    HW2 2826   0.115   0.119   2.491 -2.8366 -2.1372 -1.2979
  943SOL     OW 2827   2.093   1.643   2.396  0.0491 -0.0199  0.2356
  943SOL    HW1 2828   2.054   1.609   2.302 -0.0233  0.7438 -2.0734
  943SOL    HW2 2829   2.086   1.564   2.468  0.0251  1.4980 -0.3110
  944SOL     OW 2830   2.172   2.326   1.450  0.2542 -0.4632  0.3751
  944SOL    HW1 2831   2.263   2.357   1.492  0.1702  2.0254 -1.5143
  944SOL    HW2 2832   2.124   2.243   1.491 -2.4187  2.3617 -1.7686
  945SOL     OW 2833   0.682   1.507   0.209  0.3142  0.0527  0.4219
  945SOL    HW1 2834   0.612   1.533   0.136  1.5336  0.8969  1.3456
  945SOL    HW2 2835   0.679   1.406   0.242 -3.4672  0.3525  2.7325
  946SOL     OW 2836   0.437   0.930   2.467 -0.2441 -0.5917 -0.5340
  946SOL    HW1 2837   0.353   0.874   2.477  2.1759  1.7103  0.6662
  946SOL    HW2 2838   0.426   1.032   2.483  1.8839 -1.7109 -1.6917
  947SOL     OW 2839   1.536   0.528   3.078  0.2271  0.5679  0.1752
  947SOL    HW1 2840   1.501   0.570   2.992 -0.2951  3.1684 -1.7772
  947SOL    HW2 2841   1.472   0.452   3.115  0.8706 -1.3122  1.3017
  948SOL     OW 2842   1.830   3.018   2.125  0.0073  0.4145  0.5620
  948SOL    HW1 2843   1.840   2.969   2.033 -1.4523 -0.7141 -3.6855
  948SOL    HW2 2844   1.835   2.958   2.210  0.8215  2.2888  0.6357
  949SOL     OW 2845   0.613   2.478   0.489 -0.3752 -0.6844 -0.1541
  949SOL    HW1 2846   0.600   2.583   0.487  0.6738  0.3570 -4.2813
  949SOL    HW2 2847   0.646   2.454   0.586 -0.1462 -1.5325  0.4330
  950SOL     OW 2848   0.204   2.242   3.040  0.0309 -0.5139  0.4959
  950SOL    HW1 2849   0.144   2.325   3.016 -1.7036  0.9976  1.2554
  950SOL    HW2 2850   0.231   2.192   2.956 -0.0083  0.4121  1.9932
  951SOL     OW 2851   1.209   2.693   2.798  0.3269 -0.2830  0.0524
  951SOL    HW1 2852   1.268   2.622   2.844  0.3825  1.8213  0.4788
  951SOL    HW2 2853   1.241   2.723   2.700 -0.2674 -0.5437 -1.5860
  952SOL     OW 2854   0.018   1.665   0.390 -0.9048  0.6829 -0.6408
  952SOL    HW1 2855   0.068   1.760   0.418  3.2521  1.5589  3.5274
  952SOL    HW2 2856   0.049   1.588   0.453  0.6411 -0.9858  1.3553
  953SOL     OW 2857   2.537   1.811   0.220  0.3809  0.2291 -0.1690
  953SOL    HW1 2858   2.510   1.712   0.229  0.0028  1.2987  0.1966
  953SOL    HW2 2859   2.514   1.864   0.132  0.7496  1.9109 -2.7708
  954SOL     OW 2860   2.232   0.535   0.898  0.0345  0.0248  0.1792
  954SOL    HW1 2861   2.229   0.567   0.800  1.1454 -0.5848  2.6616
  954SOL    HW2 2862   2.329   0.526   0.932 -2.0218 -0.9712  2.2332
  955SOL     OW 2863   0.174   2.600   1.329  0.1647  0.0403 -0.5459
  955SOL    HW1 2864   0.073   2.600   1.327  1.0153  0.2735  2.3939
  955SOL    HW2 2865   0.223   2.650   1.248 -0.2676  0.2933 -1.8376
  956SOL     OW 2866   2.844   2.452   2.512 -0.0070  0.2244  0.6316
  956SOL    HW1 2867   2.870   2.353   2.501 -0.6235 -1.5275  0.1538
  956SOL    HW2 2868   2.869   2.518   2.436 -0.5889 -0.3948  1.0017
  957SOL     OW 2869   1.683   2.049   2.773 -0.4619  0.1273 -0.3674
  957SOL    HW1 2870   1.596   1.994   2.798 -0.2446 -1.2706  2.2739
  957SOL    HW2 2871   1.706   2.049   2.672  0.5853 -1.8443  2.3223
  958SOL     OW 2872   2.549   2.291   3.008 -0.1523  0.1627  0.0679
  958SOL    HW1 2873   2.502   2.327   2.924 -1.0900 -0.3749 -0.7415
  958SOL    HW2 2874   2.482   2.234   3.064  1.3739 -0.9048  2.5141
  959SOL     OW 2875   0.262   2.808   0.040 -0.6213 -0.1470  0.2999
  959SOL    HW1 2876   0.160   2.782   0.024 -0.2217  0.2774 -0.9623
  959SOL    HW2 2877   0.312   2.748   0.111  0.7855 -1.8211  0.7278
  960SOL     OW 2878   1.964   0.478   1.934  0.6917  0.5443  0.0452
  960SOL    HW1 2879   1.925   0.573   1.928  1.4100 -1.8575 -0.0942
  960SOL    HW2 2880   1.995   0.462   2.032 -2.3870  0.6953  2.0540
  961SOL     OW 2881   2.570   1.868   1.000 -0.3260 -0.0018 -0.4638
  961SOL    HW1 2882   2.559   1.957   0.951 -0.4340  0.7716  2.8218
  961SOL    HW2 2883   2.551   1.880   1.101 -1.2499  0.3248 -0.1028
  962SOL     OW 2884   1.319   0.925   0.036  0.3517  0.0567  0.0123
  962SOL    HW1 2885   1.263   0.906  -0.051 -0.5681  1.5641  0.3804
  962SOL    HW2 2886   1.284   1.004   0.091 -1.7077 -0.6801 -1.2312
  963SOL     OW 2887   2.230   2.575   1.793 -0.9818 -0.2390  0.3174
  963SOL    HW1 2888   2.215   2.476   1.828  0.2716 -1.6721  1.0468
  963SOL    HW2 2889   2.276   2.636   1.863  0.7130  1.7485  2.6757
  964SOL     OW 2890   2.361   0.401   1.668 -0.1829 -0.6601 -0.2755
  964SOL    HW1 2891   2.454   0.400   1.707  0.0333  1.6871  0.9226
  964SOL    HW2 2892   2.359   0.348   1.580  0.9231 -0.2225  0.2104
  965SOL     OW 2893   2.634   3.030   0.136  0.3929  0.9357  0.2111
  965SOL    HW1 2894   2.681   2.994   0.053  0.3424 -0.2848  1.1066
  965SOL    HW2 2895   2.532   3.045   0.128  1.0127 -1.1763 -0.8486
  966SOL     OW 2896   2.604   2.567   2.228  0.4154  0.2922 -0.9848
  966SOL    HW1 2897   2.702   2.599   2.217  0.8314  0.0717  0.4937
  966SOL    HW2 2898   2.530   2.628   2.188 -0.3553  1.0422  0.6672
  967SOL     OW 2899   2.765   2.831   2.485 -0.2103  0.1184 -0.1882
  967SOL    HW1 2900   2.795   2.769   2.408  1.4622  0.2622 -0.6142
  967SOL    HW2 2901   2.843   2.889   2.519 -1.2846 -1.6186  0.7997
  968SOL     OW 2902   1.903   1.062   2.614 -0.2143  0.0223  0.3544
  968SOL    HW1 2903   1.820   1.116   2.580 -2.0745 -1.7017  0.3970
  968SOL    HW2 2904   1.926   0.970   2.558  0.2906 -1.3206 -1.4052
  969SOL     OW 2905   2.840   2.512   1.099  0.9303 -0.4167  0.0879
  969SOL    HW1 2906   2.814   2.504   1.000  1.0884 -0.8184  0.9208
  969SOL    HW2 2907   2.849   2.421   1.150  0.5700  0.4642  0.5882
  970SOL     OW 2908   1.022   2.093   1.792 -0.2338 -0.1834  0.2316
  970SOL    HW1 2909   0.936   2.112   1.738  0.4946  0.3810  0.9645
  970SOL    HW2 2910   1.022   2.132   1.889 -1.2282  0.4843 -0.0128
  971SOL     OW 2911   2.927   2.072   1.974 -0.0697  0.4025 -0.8158
  971SOL    HW1 2912   2.941   2.160   2.023 -0.9794  0.7133  1.5101
  971SOL    HW2 2913   2.966   2.056   1.881 -1.3245  0.8668  0.7253
  972SOL     OW 2914   1.974   2.479   0.242  0.2725 -0.0253  0.5698
  972SOL    HW1 2915   1.958   2.395   0.185 -0.2773 -1.5469 -2.7250
  972SOL    HW2 2916   2.015   2.456   0.333 -0.1076  2.4961 -0.3906
  973SOL     OW 2917   1.265   1.050   1.894  0.2401 -0.0510 -0.1469
  973SOL    HW1 2918   1.194   1.002   1.836 -0.1691 -0.4431  0.0405
  973SOL    HW2 2919   1.237   1.146   1.927  1.1731  0.8820 -2.7221
  974SOL     OW 2920   1.608   0.553   1.976  0.4940 -0.3786  0.2255
  974SOL    HW1 2921   1.687   0.605   1.933 -2.5744 -0.4656 -1.0056
  974SOL    HW2 2922   1.522   0.595   1.940  2.5909 -0.5058 -1.1839
  975SOL     OW 2923   2.358   3.055   0.043 -0.1819  0.0070  0.4429
  975SOL    HW1 2924   2.317   2.968   0.077  0.0899 -0.3385  0.1354
  975SOL    HW2 2925   2.357   3.068  -0.059 -2.1429 -1.8798  0.2146
  976SOL     OW 2926   1.909   2.858   2.337 -0.1209 -0.0939  0.1039
  976SOL    HW1 2927   1.818   2.816   2.333  1.1983  2.3884  0.5230
  976SOL    HW2 2928   1.943   2.870   2.436  1.0744 -2.1570  1.1573
  977SOL     OW 2929   0.472   0.665   1.041 -0.0876 -0.1100 -0.6363
  977SOL    HW1 2930   0.418   0.696   0.961  2.5817 -0.3900  1.7240
  977SOL    HW2 2931   0.571   0.684   1.021 -3.2872 -0.7449 -4.9576
   3.10000   3.10000   3.10000
