1000 SPC/Fw water molecules t=   0.20000 step= 200
 2931
    1SOL     OW    1   2.542   0.330   2.545  0.5645 -0.1635 -0.3403
    1SOL    HW1    2   2.504   0.232   2.540  0.0686  0.0441  0.1228
    1SOL    HW2    3   2.536   0.367   2.642 -0.8289 -1.9456 -2.7813
    2SOL     OW    4   2.715   3.022   1.412  0.1168  0.0037 -0.4462
    2SOL    HW1    5   2.813   3.047   1.389 -1.6216 -1.4194  1.2584
    2SOL    HW2    6   2.654   3.098   1.442  1.0825  1.2345  0.1097
    3SOL     OW    7   2.746   2.588   0.399  0.1630  0.1214  0.1712
    3SOL    HW1    8   2.715   2.489   0.387  0.6728 -0.4078 -0.5958
    3SOL    HW2    9   2.787   2.616   0.492 -0.0875  3.5511  0.7502
    4SOL     OW   10   1.342   1.468   2.354  0.2601  0.2706  0.8690
    4SOL    HW1   11   1.260   1.522   2.384  0.0181  0.6324  0.2198
    4SOL    HW2   12   1.322   1.364   2.367 -1.8630 -1.3060 -0.6212
    5SOL     OW   13   1.191   1.497   3.064  0.2733  0.0344 -0.3841
    5SOL    HW1   14   1.261   1.571   3.095 -0.1007  2.1014  3.0089
    5SOL    HW2   15   1.097   1.541   3.052 -0.7056 -0.6056 -1.8019
    6SOL     OW   16   0.090   1.853   2.942 -0.7488 -0.4367  0.0601
    6SOL    HW1   17   0.091   1.891   3.035 -0.4867  0.3951  1.2858
    6SOL    HW2   18   0.048   1.759   2.930  0.0410 -2.7065  0.2030
    7SOL     OW   19   2.599   0.801   1.155  0.1119 -0.3354  0.0423
    7SOL    HW1   20   2.512   0.809   1.207  0.9117  0.2216 -2.3905
    7SOL    HW2   21   2.593   0.799   1.055  0.0974 -1.4109 -0.7830
    8SOL     OW   22   0.458   0.675   1.533 -0.0124  0.1368 -0.0577
    8SOL    HW1   23   0.521   0.596   1.568 -0.5257 -4.2945  1.4477
    8SOL    HW2   24   0.407   0.648   1.447 -0.7079 -1.7885  0.7247
    9SOL     OW   25   1.182   0.937   2.273 -0.0402  0.7061  0.2941
    9SOL    HW1   26   1.232   1.011   2.224 -2.7681  0.7214  1.1745
    9SOL    HW2   27   1.133   0.864   2.211  0.3643 -1.6734 -2.0252
   10SOL     OW   28   0.651   1.345   1.258  0.7826 -0.0881  0.1750
   10SOL    HW1   29   0.556   1.364   1.212 -0.3788 -1.1141  0.2370
   10SOL    HW2   30   0.716   1.421   1.252  2.9823  1.2663  0.4682
   11SOL     OW   31   2.322   2.581   0.938  0.6201 -0.0901  0.0604
   11SOL    HW1   32   2.334   2.630   1.027 -0.8329  0.4297  0.1394
   11SOL    HW2   33   2.367   2.485   0.928  1.8365  0.7155  0.5278
   12SOL     OW   34   1.471   0.906   0.481  0.2049 -0.2017 -0.1691
   12SOL    HW1   35   1.379   0.933   0.443  0.1019 -1.9650 -1.0617
   12SOL    HW2   36   1.488   0.805   0.473 -0.6481  1.3855 -0.6929
   13SOL     OW   37   2.479   0.648   1.810  0.2659 -0.0645  0.3095
   13SOL    HW1   38   2.392   0.640   1.867  0.7487 -3.6132  0.5982
   13SOL    HW2   39   2.479   0.594   1.723  0.3128  0.0155  1.0508
   14SOL     OW   40   1.872   3.074   0.581  0.6749  0.0828  0.4562
   14SOL    HW1   41   1.785   3.125   0.558 -1.1666 -0.0977 -1.1984
   14SOL    HW2   42   1.865   3.033   0.679 -1.5079  0.2911  2.5811
   15SOL     OW   43   1.955   2.041   2.852 -0.0317 -0.3220  0.6979
   15SOL    HW1   44   1.905   2.132   2.846  1.0241 -1.8036 -1.9981
   15SOL    HW2   45   1.916   1.970   2.786 -1.1506 -0.5007  0.4604
   16SOL     OW   46   1.592   1.710   0.063  0.3141 -0.2753 -0.3858
   16SOL    HW1   47   1.609   1.626   0.001  3.1620  0.5886 -0.7873
   16SOL    HW2   48   1.609   1.689   0.164  1.2937 -1.6314  0.3783
   17SOL     OW   49   0.132   0.427   0.168 -0.0364  0.2760  0.1263
   17SOL    HW1   50   0.192   0.454   0.088 -1.3232  0.8356 -0.4435
   17SOL    HW2   51   0.036   0.413   0.135  0.6249  2.2934 -3.4491
   18SOL     OW   52   1.105   2.875   2.148 -0.2780  0.4929  0.3485
   18SOL    HW1   53   1.013   2.872   2.106 -2.3146 -3.4218  0.7800
   18SOL    HW2   54   1.174   2.825   2.089 -1.6060  2.2186  2.2681
   19SOL     OW   55   0.507   0.995   1.931 -0.2387 -0.5902  0.2637
   19SOL    HW1   56   0.475   1.020   2.029 -1.1575 -0.7557 -0.2817
   19SOL    HW2   57   0.605   0.962   1.924 -0.9482 -2.1038 -0.6566
   20SOL     OW   58   0.251   2.755   0.876 -0.4090  0.3967  0.4824
   20SOL    HW1   59   0.161   2.802   0.842 -2.4082 -3.3977  0.0847
   20SOL    HW2   60   0.325   2.748   0.801  1.3962 -0.0362 -1.5319
   21SOL     OW   61   2.788   0.208   2.148 -0.2326 -1.0943 -0.3493
   21SOL    HW1   62   2.882   0.183   2.102  2.6677  0.7339  0.2308
   21SOL    HW2   63   2.771   0.154   2.238  1.3932  0.8554  2.0200
   22SOL     OW   64   2.376   0.202   0.019 -0.7532 -0.3000  0.2575
   22SOL    HW1   65   2.387   0.100  -0.003 -1.9941  1.3966 -0.5804
   22SOL    HW2   66   2.282   0.239   0.015  3.2574  0.2005  0.3885
   23SOL     OW   67   2.783   0.657   0.700  0.0291 -0.1095 -0.6253
   23SOL    HW1   68   2.794   0.567   0.649 -0.1007 -3.0592  0.3018
   23SOL    HW2   69   2.768   0.740   0.642 -1.3618  0.0998  1.0635
   24SOL     OW   70   0.177   1.889   0.483  0.2351 -0.2412  0.0451
   24SOL    HW1   71   0.085   1.915   0.443 -0.8319 -0.9532  1.8240
   24SOL    HW2   72   0.243   1.903   0.407  0.3147 -1.9037  0.1294
   25SOL     OW   73   2.253   0.523   0.188 -0.0408  0.1135  0.0961
   25SOL    HW1   74   2.293   0.459   0.264 -0.6600 -1.2759  1.3741
   25SOL    HW2   75   2.283   0.507   0.087  3.4176 -1.6989 -4.1114
   26SOL     OW   76   2.539   2.185   2.088 -0.3832 -0.1856  0.2338
   26SOL    HW1   77   2.613   2.229   2.149 -0.8597  0.6861  0.8287
   26SOL    HW2   78   2.567   2.098   2.036 -0.8071  0.2138  3.3282
   27SOL     OW   79   0.677   2.982   0.107 -0.1958  0.0787 -0.0344
   27SOL    HW1   80   0.765   3.041   0.110 -0.2412  0.8300  1.9283
   27SOL    HW2   81   0.649   2.954   0.013 -1.0587 -1.7050  2.4524
   28SOL     OW   82   1.502   0.227   0.218  0.3470 -0.1317  0.6544
   28SOL    HW1   83   1.565   0.165   0.162  2.7795 -2.2787  0.0285
   28SOL    HW2   84   1.549   0.273   0.295 -2.4884 -0.9120 -0.1172
   29SOL     OW   85   2.011   0.630   0.237  0.3308  0.7414  0.0448
   29SOL    HW1   86   2.022   0.720   0.289  0.8414 -0.2669 -0.3077
   29SOL    HW2   87   2.103   0.590   0.216 -1.1317  0.3294  1.1479
   30SOL     OW   88   0.189   2.055   0.942  0.0424  0.4357 -0.1227
   30SOL    HW1   89   0.173   2.058   0.835 -2.0917  0.6889 -3.1738
   30SOL    HW2   90   0.101   2.078   1.000 -0.4406  0.7950  2.7742
   31SOL     OW   91   2.030   0.049   2.321  0.3940  0.0648 -0.1363
   31SOL    HW1   92   2.053   0.024   2.420  0.9070 -0.4907  1.9051
   31SOL    HW2   93   1.971  -0.020   2.270  0.4274  0.4412 -3.3800
   32SOL     OW   94   2.955   0.111   0.192 -0.8699  0.4027 -0.8454
   32SOL    HW1   95   2.921   0.033   0.253  0.3615  1.5174 -0.2529
   32SOL    HW2   96   3.062   0.112   0.187  0.6880 -1.7617 -3.0356
   33SOL     OW   97   0.973   0.318   0.423 -0.5673 -0.3128 -0.1485
   33SOL    HW1   98   0.914   0.232   0.415  1.4224  1.1534  0.4828
   33SOL    HW2   99   1.049   0.297   0.488  1.2503 -0.5004  1.8933
   34SOL     OW  100   0.411   2.918   1.063  0.0074 -0.1325  0.0817
   34SOL    HW1  101   0.357   2.865   0.991 -0.8402 -0.7975 -1.5415
   34SOL    HW2  102   0.509   2.927   1.034  0.5321 -0.1541 -2.7022
   35SOL     OW  103   0.073   0.007   1.809 -0.0924  0.1625  0.2579
   35SOL    HW1  104   0.111  -0.085   1.789  0.7779  4.0577  0.3413
   35SOL    HW2  105  -0.001   0.037   1.743  3.3186 -0.4005  1.6796
   36SOL     OW  106   1.905   1.168   1.829  0.2671 -0.0197 -0.2086
   36SOL    HW1  107   1.983   1.128   1.780 -1.6563  2.3503  2.2362
   36SOL    HW2  108   1.937   1.256   1.875  2.5645 -2.1669  0.3105
   37SOL     OW  109   1.128   0.310   0.975 -0.1588 -0.4827 -0.3849
   37SOL    HW1  110   1.154   0.395   1.028 -0.7327  0.3285  0.4182
   37SOL    HW2  111   1.167   0.223   1.021  2.2812  0.2801 -0.1270
   38SOL     OW  112   1.139   2.693   2.407  0.0455  0.1581  0.4875
   38SOL    HW1  113   1.086   2.610   2.436  1.7716  1.2267 -1.0315
   38SOL    HW2  114   1.092   2.763   2.341 -2.7298  1.0915 -2.9023
   39SOL     OW  115   2.352   1.448   3.048 -0.1005 -0.4979 -0.1641
   39SOL    HW1  116   2.437   1.385   3.037 -0.0885 -1.3808  0.6981
   39SOL    HW2  117   2.290   1.416   3.132  0.0139 -0.1581 -0.3753
   40SOL     OW  118   2.067   2.524   2.543 -0.1455 -0.1911 -0.0734
   40SOL    HW1  119   2.013   2.615   2.547 -0.6788 -3.5261 -1.8227
   40SOL    HW2  120   2.008   2.453   2.492  0.5785  2.1491  0.2079
   41SOL     OW  121   2.920   0.677   2.762  0.4347  0.5878 -0.0484
   41SOL    HW1  122   2.821   0.718   2.761 -2.1960 -0.5178  4.8076
   41SOL    HW2  123   2.921   0.580   2.718  1.9358 -1.2255 -2.1906
   42SOL     OW  124   1.774   1.748   0.588  0.5377 -0.0902  0.3468
   42SOL    HW1  125   1.766   1.646   0.557  1.0039 -1.1911 -2.8237
   42SOL    HW2  126   1.820   1.808   0.516  0.8451  1.2251  0.6765
   43SOL     OW  127   0.448   1.744   1.192  0.7403  0.1226  0.0072
   43SOL    HW1  128   0.415   1.691   1.273  1.2257  2.1440 -0.2039
   43SOL    HW2  129   0.371   1.780   1.134  1.3265 -0.0041 -2.7095
   44SOL     OW  130   1.721   2.514   0.019 -0.0162 -0.4117  0.4616
   44SOL    HW1  131   1.767   2.563  -0.060  0.3521  2.5087  1.3344
   44SOL    HW2  132   1.782   2.509   0.101  2.8345  2.3273 -2.6981
   45SOL     OW  133   0.363   1.915   2.496 -0.3148  0.0279  0.4227
   45SOL    HW1  134   0.266   1.925   2.467  0.7118  0.7857  0.1352
   45SOL    HW2  135   0.393   1.817   2.511 -1.3021  2.2604 -0.2056
   46SOL     OW  136   1.150   0.642   0.170  0.0481 -0.5737 -0.2112
   46SOL    HW1  137   1.199   0.724   0.136 -2.9449 -0.2704 -1.8222
   46SOL    HW2  138   1.057   0.661   0.208  1.5273  0.8620  1.2479
   47SOL     OW  139   0.240   2.471   1.625 -0.4280  0.3476 -0.1459
   47SOL    HW1  140   0.299   2.384   1.620  2.6661 -2.0554  0.1993
   47SOL    HW2  141   0.202   2.499   1.531  1.8432 -0.5003  1.9979
   48SOL     OW  142   2.590   0.554   0.137 -0.5377 -0.2497  0.7602
   48SOL    HW1  143   2.554   0.576   0.232  0.6661 -0.1821 -2.1437
   48SOL    HW2  144   2.656   0.615   0.090 -1.8424  1.0449  0.1390
   49SOL     OW  145   0.340   0.858   1.749 -0.4106  0.4192 -0.4409
   49SOL    HW1  146   0.412   0.906   1.808 -0.4195 -0.0357 -1.0386
   49SOL    HW2  147   0.382   0.796   1.680  0.2613  2.7547  0.2071
   50SOL     OW  148   1.749   1.068   0.358 -0.3190  0.2223  0.1370
   50SOL    HW1  149   1.743   0.962   0.330  2.5120  0.5847  0.2334
   50SOL    HW2  150   1.708   1.092   0.452 -1.5913  1.6517  1.7386
   51SOL     OW  151   3.003   1.904   0.393  0.1662  0.0689  0.1534
   51SOL    HW1  152   3.025   1.953   0.305 -1.3919  0.3017  0.1891
   51SOL    HW2  153   2.984   1.805   0.376  0.2748  0.9728  0.0334
   52SOL     OW  154   0.816   1.965   0.497 -0.1041 -0.0124  0.6300
   52SOL    HW1  155   0.727   2.018   0.520  1.0944 -0.6953 -0.4953
   52SOL    HW2  156   0.837   1.892   0.567  0.7706 -0.5269  0.6104
   53SOL     OW  157   3.077   0.350   1.513 -0.2651  0.3067  0.4811
   53SOL    HW1  158   2.980   0.332   1.477 -2.3631 -2.4832 -0.4575
   53SOL    HW2  159   3.099   0.453   1.517 -1.7825 -0.3502  1.0366
   54SOL     OW  160   1.737   0.482   3.010 -0.2488 -0.2677 -0.0107
   54SOL    HW1  161   1.793   0.449   3.093 -0.3295 -0.9584 -2.4846
   54SOL    HW2  162   1.636   0.473   3.016  2.7845 -0.0615 -0.3578
   55SOL     OW  163   0.712   2.928   0.630  0.0165 -0.0183 -0.2676
   55SOL    HW1  164   0.663   3.024   0.624 -2.3270  1.9417 -1.5743
   55SOL    HW2  165   0.807   2.923   0.590  1.1517 -2.3739  0.2841
   56SOL     OW  166   0.494   1.549   3.052  0.0275  0.6461 -0.0237
   56SOL    HW1  167   0.438   1.603   3.120 -0.9174  1.2639 -2.3577
   56SOL    HW2  168   0.445   1.463   3.012 -0.4121 -2.1133 -1.8991
   57SOL     OW  169   1.774   2.377   2.628  0.1721  0.1765  0.3265
   57SOL    HW1  170   1.829   2.365   2.537  2.0040 -2.0499  0.3859
   57SOL    HW2  171   1.686   2.430   2.623 -1.4525 -0.8748  0.1344
   58SOL     OW  172   0.596   0.457   1.104 -0.0230 -0.4376 -0.1593
   58SOL    HW1  173   0.535   0.547   1.088 -2.3133  0.5388  0.8717
   58SOL    HW2  174   0.553   0.361   1.125 -3.1583 -3.0555  0.6754
   59SOL     OW  175   0.469   2.415   2.660  0.0478 -0.2258  0.7754
   59SOL    HW1  176   0.479   2.314   2.686 -1.2852  3.2618 -1.5176
   59SOL    HW2  177   0.559   2.465   2.650 -1.0446  1.1957  0.6483
   60SOL     OW  178   2.334   2.191   2.257 -0.0964 -0.3977  0.3648
   60SOL    HW1  179   2.426   2.206   2.204 -0.2188  3.0399  1.8877
   60SOL    HW2  180   2.335   2.225   2.356  1.6885 -0.5523 -0.4507
   61SOL     OW  181   1.377   0.578   0.432  0.2359 -0.0631  0.2493
   61SOL    HW1  182   1.287   0.622   0.454  2.9879 -0.4856  1.6290
   61SOL    HW2  183   1.397   0.565   0.331  0.6005  0.0246  0.5294
   62SOL     OW  184   2.660   1.870   3.095  0.1652 -0.4458 -0.4978
   62SOL    HW1  185   2.695   1.773   3.110 -1.8281 -1.8255 -0.6559
   62SOL    HW2  186   2.683   1.902   3.001  0.4386  2.8060  2.9418
   63SOL     OW  187   0.522   0.799   0.165  0.0267  0.2218 -0.0090
   63SOL    HW1  188   0.509   0.893   0.119  1.3910  1.6204  2.1084
   63SOL    HW2  189   0.617   0.786   0.207  0.3428  0.2990  0.9887
   64SOL     OW  190   0.093   0.507   2.523  0.3977 -0.8257  0.0810
   64SOL    HW1  191   0.060   0.552   2.607 -1.4375 -0.3724 -1.5420
   64SOL    HW2  192   0.068   0.560   2.435 -0.2553  3.8989  0.6573
   65SOL     OW  193   0.183   1.461   0.631  0.0463  0.9835 -0.3231
   65SOL    HW1  194   0.182   1.540   0.698  0.9304  0.2340  0.2221
   65SOL    HW2  195   0.278   1.431   0.611  0.4391 -1.8295 -0.7059
   66SOL     OW  196   2.473   0.379   0.697 -0.0609  0.1830  0.5163
   66SOL    HW1  197   2.389   0.446   0.698 -3.4839  2.8277  1.2381
   66SOL    HW2  198   2.446   0.283   0.725 -1.6262  0.6019 -0.9349
   67SOL     OW  199   0.494   2.535   1.337  0.3596  0.0219  0.1171
   67SOL    HW1  200   0.592   2.566   1.329  0.0562  0.1168  0.8052
   67SOL    HW2  201   0.486   2.433   1.326  0.1315 -2.1985 -0.2079
   68SOL     OW  202   1.015   1.098   2.449  0.3196 -0.1112 -0.4499
   68SOL    HW1  203   1.077   1.032   2.407  0.4310  1.0124 -0.5474
   68SOL    HW2  204   0.975   1.157   2.378 -0.8887 -1.3404  0.3718
   69SOL     OW  205   0.782   2.701   2.157 -0.0702 -0.1235  0.0603
   69SOL    HW1  206   0.831   2.621   2.200 -1.9170  2.2702 -1.5526
   69SOL    HW2  207   0.679   2.691   2.164 -1.8340  1.1990 -0.6111
   70SOL     OW  208   0.608   0.255   2.712 -0.1190  0.1151 -0.1992
   70SOL    HW1  209   0.556   0.294   2.793  1.0301  0.4141  0.5474
   70SOL    HW2  210   0.577   0.156   2.701  0.8850  0.8732  1.6569
   71SOL     OW  211   1.075   1.784   0.373 -0.2646 -0.3532 -0.3487
   71SOL    HW1  212   1.028   1.692   0.369  0.5242 -0.6298 -1.3517
   71SOL    HW2  213   1.080   1.826   0.277 -1.0516  0.2398 -3.3232
   72SOL     OW  214   1.808   0.070   2.083  0.4660  0.3798  0.0064
   72SOL    HW1  215   1.869   0.111   2.003  0.3792  0.7313 -0.3431
   72SOL    HW2  216   1.833  -0.027   2.113  1.1213 -1.6263 -1.0193
   73SOL     OW  217   2.827   2.221   2.521 -0.1613  0.4382  0.2717
   73SOL    HW1  218   2.813   2.124   2.490 -0.4178 -1.0691 -0.0586
   73SOL    HW2  219   2.837   2.224   2.621 -2.1288 -2.6988 -2.6441
   74SOL     OW  220   2.742   3.019   2.047  0.5310  0.0251 -0.2153
   74SOL    HW1  221   2.667   2.993   2.113  2.6677  0.6714 -1.0209
   74SOL    HW2  222   2.836   2.994   2.083 -0.2757 -2.2047  0.1373
   75SOL     OW  223   0.913   0.753   0.994 -0.2236  0.2639 -0.2320
   75SOL    HW1  224   0.827   0.812   0.979  1.6498  2.7799  2.7083
   75SOL    HW2  225   0.970   0.781   1.079  3.1100 -0.6361  3.0248
   76SOL     OW  226   1.752   1.229   2.555 -0.4832  0.4293 -0.1399
   76SOL    HW1  227   1.649   1.205   2.577  0.9069 -1.3638  2.0470
   76SOL    HW2  228   1.786   1.294   2.630  1.1652  1.8595  0.9297
   77SOL     OW  229   2.991   0.978   0.978  0.0382  0.3481  0.5008
   77SOL    HW1  230   2.967   0.876   0.971  0.7490 -1.5315  1.2844
   77SOL    HW2  231   3.070   0.994   1.042 -0.7057 -2.4645  0.2549
   78SOL     OW  232   1.972   1.399   1.478 -0.0143  0.2718 -0.0687
   78SOL    HW1  233   2.043   1.397   1.409 -0.6771 -1.1595  2.5223
   78SOL    HW2  234   1.881   1.358   1.450  1.3302 -1.9082  0.2402
   79SOL     OW  235   0.615   1.324   0.855 -0.7828 -0.0663 -0.1173
   79SOL    HW1  236   0.521   1.364   0.878 -0.7961 -1.3239  1.6002
   79SOL    HW2  237   0.612   1.266   0.767 -2.1922 -0.9740 -3.9914
   80SOL     OW  238   0.655   0.488   1.608  0.2459 -0.0277  0.3493
   80SOL    HW1  239   0.739   0.532   1.562  1.8670 -1.5304 -2.1386
   80SOL    HW2  240   0.639   0.392   1.569 -0.7096  1.0416 -0.0960
   81SOL     OW  241   1.073   1.395   2.630 -0.3614 -0.2055  0.2715
   81SOL    HW1  242   1.023   1.368   2.717 -2.5146 -1.5547  0.2667
   81SOL    HW2  243   1.005   1.391   2.550  2.6669 -1.4732  0.1388
   82SOL     OW  244   0.899   3.004   1.517  0.0531 -0.6287  0.0367
   82SOL    HW1  245   0.963   3.023   1.434 -2.5723 -2.5574 -1.5688
   82SOL    HW2  246   0.830   2.925   1.503  0.1887  0.1867  3.8898
   83SOL     OW  247   2.758   2.438   0.799 -0.4804  0.3241 -0.3034
   83SOL    HW1  248   2.671   2.403   0.754  1.0307  1.4462  1.4475
   83SOL    HW2  249   2.814   2.493   0.730  3.4041 -0.7258 -0.0595
   84SOL     OW  250   0.685   0.011   2.406  0.8213  0.1641 -0.3710
   84SOL    HW1  251   0.631  -0.077   2.410 -2.2409 -0.5485  0.1735
   84SOL    HW2  252   0.782   0.001   2.442 -0.9962 -1.9612  2.4768
   85SOL     OW  253   0.402   1.646   1.478 -0.6399  0.0954  0.0963
   85SOL    HW1  254   0.349   1.732   1.483  1.9783  0.3984 -0.6763
   85SOL    HW2  255   0.405   1.599   1.569  0.2111 -1.3753  0.8274
   86SOL     OW  256   0.349   1.014   1.479 -0.0980 -0.4467 -0.0899
   86SOL    HW1  257   0.325   0.948   1.402  1.4310 -2.7225  1.4035
   86SOL    HW2  258   0.401   0.970   1.556 -3.8402  0.5277  1.9273
   87SOL     OW  259   1.589   0.593   0.205 -0.0201  0.5571 -0.2215
   87SOL    HW1  260   1.643   0.678   0.190  0.6441 -0.2740  0.9736
   87SOL    HW2  261   1.566   0.552   0.112 -0.5009  1.4689 -1.1584
   88SOL     OW  262   1.585   1.246   0.190 -0.1101 -0.2418  0.1775
   88SOL    HW1  263   1.615   1.166   0.250  0.7491 -2.1700 -0.8546
   88SOL    HW2  264   1.480   1.262   0.193 -0.9214  2.6231  1.5155
   89SOL     OW  265   3.009   0.459   0.572  0.2908 -0.2324  0.0336
   89SOL    HW1  266   3.073   0.382   0.576 -0.8470  1.1053  1.9125
   89SOL    HW2  267   2.909   0.438   0.582 -2.2412 -0.3942  1.7985
   90SOL     OW  268   0.960   1.657   3.069  0.3931  0.0462 -0.2728
   90SOL    HW1  269   0.880   1.643   3.137 -0.1890 -1.2261  0.7231
   90SOL    HW2  270   0.930   1.649   2.968  2.4727  1.7834 -0.5411
   91SOL     OW  271   1.279   1.435   1.779 -0.2446  0.5054 -0.0459
   91SOL    HW1  272   1.294   1.528   1.823 -0.5037 -1.7913  0.5290
   91SOL    HW2  273   1.372   1.401   1.743  1.6007 -0.0182  2.4104
   92SOL     OW  274   0.090   1.053   1.174  0.2050 -0.2407 -0.2642
   92SOL    HW1  275   0.179   1.061   1.125 -1.7043 -1.2531  0.5011
   92SOL    HW2  276   0.099   1.011   1.264  2.3441 -0.0911 -1.2523
   93SOL     OW  277   0.053   2.842   0.038 -0.5017  0.3624  0.7944
   93SOL    HW1  278  -0.011   2.818  -0.046  1.8583 -2.3628 -0.6508
   93SOL    HW2  279   0.070   2.758   0.099 -0.3298  0.8099 -0.0985
   94SOL     OW  280   1.505   1.333   1.684  0.5836  0.3937  0.1942
   94SOL    HW1  281   1.521   1.231   1.681  1.0555  1.2328 -0.2055
   94SOL    HW2  282   1.587   1.380   1.732 -2.0586  1.3370  0.8021
   95SOL     OW  283   1.366   2.478   2.917 -0.6371 -0.2613  0.8622
   95SOL    HW1  284   1.306   2.467   3.000 -1.1232 -0.2168 -3.6275
   95SOL    HW2  285   1.401   2.384   2.889 -2.8731  0.0522  1.5304
   96SOL     OW  286   0.514   2.018   1.230 -0.2140 -0.8547 -0.4277
   96SOL    HW1  287   0.491   2.054   1.135 -2.4744  0.0791  2.7492
   96SOL    HW2  288   0.497   1.916   1.233  0.4369  0.4048  1.3339
   97SOL     OW  289   0.311   1.449   2.483  0.3975 -0.3096  0.4097
   97SOL    HW1  290   0.220   1.422   2.519 -0.6220  1.3015 -2.9742
   97SOL    HW2  291   0.367   1.521   2.531  0.4359 -0.9520 -1.3146
   98SOL     OW  292   2.047   1.705   1.303 -0.9221 -0.0390  0.3956
   98SOL    HW1  293   2.021   1.650   1.216  1.4321  1.3567 -0.5853
   98SOL    HW2  294   2.081   1.643   1.377 -0.1431 -0.3043  2.3898
   99SOL     OW  295   2.465   2.149   1.320 -0.2369 -0.5793 -0.0129
   99SOL    HW1  296   2.495   2.169   1.417  2.2573 -0.8081 -1.4097
   99SOL    HW2  297   2.453   2.048   1.311  0.2619 -0.7808  1.0448
  100SOL     OW  298   2.287   0.396   2.031 -0.3977 -0.6235  0.1521
  100SOL    HW1  299   2.252   0.350   2.112 -0.2504 -2.3126 -3.2303
  100SOL    HW2  300   2.388   0.421   2.035 -0.2225  2.1051 -0.0281
  101SOL     OW  301   0.419   1.438   0.280 -0.3202  0.3499 -0.1085
  101SOL    HW1  302   0.454   1.489   0.361 -0.1255 -1.5512  0.8249
  101SOL    HW2  303   0.480   1.437   0.196  1.4191  0.5570  0.4027
  102SOL     OW  304   2.278   1.064   0.801  0.1997 -0.6080 -0.3599
  102SOL    HW1  305   2.201   1.003   0.776  0.6433  2.4840  0.9839
  102SOL    HW2  306   2.299   1.136   0.730  0.0179  1.7952 -0.6498
  103SOL     OW  307   2.298   0.087   0.409  0.5033  0.2139  0.3587
  103SOL    HW1  308   2.366   0.152   0.366 -0.0710 -0.4989  0.3640
  103SOL    HW2  309   2.349   0.019   0.463 -1.1677  1.3571 -0.0052
  104SOL     OW  310   0.075   1.877   2.146  0.5558  0.0024 -0.5165
  104SOL    HW1  311   0.120   1.858   2.058 -2.4757 -1.3502  0.0491
  104SOL    HW2  312  -0.029   1.887   2.141 -0.6653 -2.0504 -2.5772
  105SOL     OW  313   1.116   1.970   0.844  0.3090 -0.3716 -0.0770
  105SOL    HW1  314   1.076   2.039   0.777 -1.4279 -0.0589  0.6075
  105SOL    HW2  315   1.129   1.876   0.802 -2.8019 -1.6519 -0.0653
  106SOL     OW  316   2.050   0.455   1.339 -0.0082 -0.3429  0.0332
  106SOL    HW1  317   2.032   0.366   1.392 -0.6260 -2.6583 -2.3279
  106SOL    HW2  318   2.001   0.537   1.384  2.0458  1.2129 -0.3898
  107SOL     OW  319   1.813   3.021   1.098  0.3322  0.0540 -0.3133
  107SOL    HW1  320   1.846   3.094   1.164  1.3773 -0.6360  0.3844
  107SOL    HW2  321   1.792   2.934   1.154 -1.6206 -0.8508  0.4280
  108SOL     OW  322   0.749   2.645   1.309 -0.2025  0.0467  0.2523
  108SOL    HW1  323   0.743   2.695   1.399  1.1405  0.5683 -2.6966
  108SOL    HW2  324   0.839   2.595   1.301  0.1303 -0.3363 -1.3980
  109SOL     OW  325   2.098   0.095   0.702  0.0291 -0.2655  0.3221
  109SOL    HW1  326   2.023   0.077   0.631 -1.0249  0.3395  0.3421
  109SOL    HW2  327   2.056   0.089   0.794  0.4247 -0.3800  0.1539
  110SOL     OW  328   0.491   2.771   2.736 -0.3625  0.7468 -0.4454
  110SOL    HW1  329   0.499   2.790   2.632  0.5797  1.9188 -2.4829
  110SOL    HW2  330   0.564   2.707   2.767 -0.6733 -0.0529 -1.2629
  111SOL     OW  331   1.294   0.519   2.301  0.3988 -0.2525 -0.4005
  111SOL    HW1  332   1.225   0.560   2.370 -0.8040  0.5622  0.2371
  111SOL    HW2  333   1.344   0.433   2.348 -0.2446 -0.9103  0.4330
  112SOL     OW  334   1.713   0.488   1.442  0.0406 -0.1294 -0.7999
  112SOL    HW1  335   1.688   0.456   1.347 -0.5477 -1.7824  1.4694
  112SOL    HW2  336   1.713   0.422   1.519  0.9839  0.5461 -1.8425
  113SOL     OW  337   2.311   1.664   1.746  0.0772  0.0799 -0.3793
  113SOL    HW1  338   2.361   1.578   1.725 -0.9864 -3.2391  1.0687
  113SOL    HW2  339   2.323   1.697   1.845  0.0851 -1.7460 -0.6135
  114SOL     OW  340   0.371   0.579   1.283 -0.7626  0.2308  0.2036
  114SOL    HW1  341   0.365   0.683   1.267  1.6961  0.4606 -0.7450
  114SOL    HW2  342   0.335   0.522   1.205 -0.9312  2.7038  0.9779
  115SOL     OW  343   2.651   1.591   1.240 -0.7091 -0.1668 -0.1434
  115SOL    HW1  344   2.690   1.500   1.267 -0.2995  3.1870  1.5743
  115SOL    HW2  345   2.689   1.623   1.150  0.0818  0.4843  0.9332
  116SOL     OW  346   1.827   1.056   0.768 -0.0667 -0.1138  0.4685
  116SOL    HW1  347   1.749   0.998   0.737  1.0228  1.3238 -2.8560
  116SOL    HW2  348   1.803   1.153   0.739  1.1948  0.3862 -0.2023
  117SOL     OW  349   1.144   0.368   0.649  0.3362 -0.6894  0.1830
  117SOL    HW1  350   1.145   0.354   0.752  2.4400  1.1701 -0.6255
  117SOL    HW2  351   1.182   0.461   0.624 -2.1237  1.0865 -1.3915
  118SOL     OW  352   1.057   1.087   1.092  0.4084  0.0819  0.8510
  118SOL    HW1  353   1.054   0.989   1.141 -1.1705 -1.0180  0.1039
  118SOL    HW2  354   1.089   1.169   1.153 -0.5100  1.2762  5.5659
  119SOL     OW  355   1.823   1.605   2.017 -0.0633  0.2601  0.2685
  119SOL    HW1  356   1.781   1.704   2.038  0.9184  3.1124  1.7612
  119SOL    HW2  357   1.922   1.607   2.045 -0.9109 -1.0482 -1.2026
  120SOL     OW  358   2.948   2.785   0.322  0.5292  0.0219  0.2852
  120SOL    HW1  359   2.883   2.770   0.243 -2.2917  2.0496  0.9538
  120SOL    HW2  360   3.004   2.698   0.336 -1.4896  0.9643  1.7222
  121SOL     OW  361   2.023   0.757   2.180 -0.1689  0.1814 -0.0896
  121SOL    HW1  362   2.075   0.779   2.096 -1.6339 -2.3065 -0.4083
  121SOL    HW2  363   1.997   0.653   2.186 -0.6562 -0.9547  1.5165
  122SOL     OW  364   2.728   2.545   1.366  0.6595  0.0723  0.4024
  122SOL    HW1  365   2.753   2.543   1.262 -0.2233  0.3697  0.5439
  122SOL    HW2  366   2.721   2.457   1.407 -1.6883  1.5582 -0.1477
  123SOL     OW  367   1.722   0.033   1.686 -0.5215  0.0384  0.3541
  123SOL    HW1  368   1.725  -0.037   1.613 -0.7465  0.7190  0.1834
  123SOL    HW2  369   1.817   0.067   1.718 -0.0452 -0.5841  1.7163
  124SOL     OW  370   0.179   0.493   1.040  0.1525 -0.6531  0.1557
  124SOL    HW1  371   0.147   0.573   1.102 -0.9058 -2.5290 -1.9103
  124SOL    HW2  372   0.119   0.482   0.958  0.1738  1.6447  4.7561
  125SOL     OW  373   0.871   1.764   0.680 -0.1220  0.4292 -0.2222
  125SOL    HW1  374   0.977   1.757   0.668  1.6350  0.4309 -0.1317
  125SOL    HW2  375   0.832   1.697   0.747 -0.2505  1.4536  0.6762
  126SOL     OW  376   1.903   2.373   2.391  0.6903  0.0296  0.1544
  126SOL    HW1  377   1.966   2.292   2.367  0.4169  1.0574 -0.9733
  126SOL    HW2  378   1.827   2.387   2.321  0.0161 -0.1883  0.5033
  127SOL     OW  379   0.886   0.982   0.183 -0.9086  0.1641 -0.0115
  127SOL    HW1  380   0.910   1.033   0.269 -2.6036 -0.0473  0.3351
  127SOL    HW2  381   0.891   0.876   0.185 -0.0663  0.0143 -0.8196
  128SOL     OW  382   0.997   0.161   1.476 -0.0013 -0.2871  0.2887
  128SOL    HW1  383   0.942   0.219   1.412  0.1648 -1.7698  0.0567
  128SOL    HW2  384   0.934   0.089   1.517 -0.5034  2.1909 -1.0405
  129SOL     OW  385   1.801   0.708   1.862  0.3924 -0.3262  0.4788
  129SOL    HW1  386   1.799   0.717   1.763  0.7685 -4.3250  0.0638
  129SOL    HW2  387   1.848   0.790   1.907  1.4271  2.4430  2.6091
  130SOL     OW  388   1.315   2.081   0.992  0.5362 -0.6240  0.0671
  130SOL    HW1  389   1.266   2.023   0.918  2.1210  0.9305 -1.2618
  130SOL    HW2  390   1.375   2.152   0.955 -1.8154 -0.5511  0.1525
  131SOL     OW  391   0.004   1.515   1.355  0.4700  0.2690  0.6826
  131SOL    HW1  392  -0.043   1.424   1.345  0.4423 -0.5905 -0.9959
  131SOL    HW2  393   0.106   1.502   1.344  0.1249  0.9079  0.6493
  132SOL     OW  394   1.925   2.505   0.529  0.6623 -0.0715 -0.1639
  132SOL    HW1  395   1.822   2.527   0.536 -0.2188  1.1463  0.8923
  132SOL    HW2  396   1.976   2.498   0.621 -0.6852  1.2910  0.2430
  133SOL     OW  397   1.818   2.284   2.913 -0.0076 -0.5113  0.2237
  133SOL    HW1  398   1.777   2.330   2.998 -0.7821  0.1366 -1.9998
  133SOL    HW2  399   1.788   2.334   2.825  2.0489  1.9059 -1.4885
  134SOL     OW  400   2.645   2.356   1.612  0.3318 -0.4690  0.2119
  134SOL    HW1  401   2.579   2.331   1.689 -0.9877  2.3531 -1.1382
  134SOL    HW2  402   2.721   2.424   1.643  0.8581  2.5216 -0.5514
  135SOL     OW  403   0.725   1.529   2.557 -0.3576 -0.0962  0.2361
  135SOL    HW1  404   0.699   1.436   2.581 -0.0439  2.5885  0.0064
  135SOL    HW2  405   0.790   1.522   2.469  0.6155  2.5847 -1.8692
  136SOL     OW  406   1.180   2.063   0.469  0.3595 -0.0483  0.2416
  136SOL    HW1  407   1.126   2.098   0.552 -0.6391 -0.4999  1.5605
  136SOL    HW2  408   1.143   1.974   0.427  3.2835 -3.2615  0.6479
  137SOL     OW  409   0.383   1.053   2.207 -0.2483  0.7738  0.0252
  137SOL    HW1  410   0.291   1.079   2.251  0.9609  1.2676  0.0304
  137SOL    HW2  411   0.411   0.958   2.241  0.4757 -0.6789  3.6023
  138SOL     OW  412   2.453   1.477   0.275 -0.1289 -0.2390 -0.5405
  138SOL    HW1  413   2.352   1.465   0.243 -1.7382 -2.6348  0.2883
  138SOL    HW2  414   2.487   1.384   0.314 -0.2552 -1.4076 -1.4542
  139SOL     OW  415   1.780   2.578   1.229  0.4733  0.6924 -0.3672
  139SOL    HW1  416   1.681   2.568   1.197  3.0106  1.8025 -0.7558
  139SOL    HW2  417   1.809   2.511   1.304 -1.2230 -0.1920  1.5419
  140SOL     OW  418   3.002   2.982   2.544  0.0380 -0.1691 -0.1876
  140SOL    HW1  419   3.035   2.889   2.583 -1.8598 -0.9924 -2.1383
  140SOL    HW2  420   3.072   3.053   2.519  2.1299 -1.6370  2.3596
  141SOL     OW  421   1.151   1.612   1.576  0.4996  0.5788 -0.5927
  141SOL    HW1  422   1.117   1.693   1.637  0.6461  3.5110 -0.3074
  141SOL    HW2  423   1.239   1.569   1.615  2.6031  0.0874  1.8843
  142SOL     OW  424   1.554   0.615   2.268 -0.2820 -0.0587  0.1406
  142SOL    HW1  425   1.575   0.581   2.169  0.5056 -0.2067 -1.7791
  142SOL    HW2  426   1.452   0.592   2.286  0.4065  0.3087  0.8668
  143SOL     OW  427   2.790   0.872   0.517 -0.3539 -0.5359 -0.6094
  143SOL    HW1  428   2.800   0.907   0.421 -0.3650 -0.2765  1.0934
  143SOL    HW2  429   2.818   0.937   0.593 -0.3243  2.9293 -2.3047
  144SOL     OW  430   2.996   1.261   1.364 -0.7729 -0.3358 -0.1693
  144SOL    HW1  431   3.018   1.244   1.464  1.0135  0.7935  0.5853
  144SOL    HW2  432   3.012   1.185   1.294  2.3857 -0.5056  0.1535
  145SOL     OW  433   1.074   1.881   0.078  0.1637  0.4207  0.0114
  145SOL    HW1  434   1.046   1.960   0.019  0.8525  0.1551 -1.5544
  145SOL    HW2  435   1.030   1.795   0.042  1.6215  0.6016  1.1475
  146SOL     OW  436   2.542   0.660   1.459 -0.4159 -0.1325 -0.3245
  146SOL    HW1  437   2.465   0.587   1.457 -0.8507 -2.5416  2.1618
  146SOL    HW2  438   2.509   0.763   1.465  0.3119 -0.0243  1.2537
  147SOL     OW  439   1.050   2.571   0.605 -0.5757 -0.6049  0.1265
  147SOL    HW1  440   1.027   2.633   0.526  0.8264 -0.4193  0.3799
  147SOL    HW2  441   1.145   2.522   0.594  1.9036 -2.0777 -0.9563
  148SOL     OW  442   1.627   1.438   3.055 -0.2808  0.1235  0.9424
  148SOL    HW1  443   1.674   1.363   2.997 -0.1394 -1.0254 -0.9108
  148SOL    HW2  444   1.607   1.410   3.151  0.1123  0.0459  0.5680
  149SOL     OW  445   0.659   1.405   1.965  0.6286  0.2749 -0.0806
  149SOL    HW1  446   0.576   1.358   2.007  0.2910 -1.1785 -0.2600
  149SOL    HW2  447   0.708   1.342   1.898  1.1594 -0.5821  1.5828
  150SOL     OW  448   2.974   1.289   0.934  0.2416 -0.0920 -0.1705
  150SOL    HW1  449   3.057   1.295   0.994  0.2153  0.0529 -3.0287
  150SOL    HW2  450   2.934   1.192   0.930  0.0030 -1.6156 -1.7155
  151SOL     OW  451   0.169   0.767   2.089 -0.0236 -0.0273  0.4301
  151SOL    HW1  452   0.173   0.853   2.034 -1.2812  2.2351  0.6073
  151SOL    HW2  453   0.224   0.691   2.051 -0.0973  3.3051 -1.0604
  152SOL     OW  454   1.405   1.755   1.281 -0.0500  0.1164  0.1310
  152SOL    HW1  455   1.413   1.843   1.333  1.1261  0.2992 -0.2852
  152SOL    HW2  456   1.316   1.748   1.220 -0.6486 -0.9094 -1.9171
  153SOL     OW  457   0.074   1.520   0.180  0.3695  0.1550 -0.4799
  153SOL    HW1  458   0.047   1.423   0.183  0.3345  1.3830 -0.0546
  153SOL    HW2  459   0.110   1.565   0.270  0.4749  2.8900  0.0136
  154SOL     OW  460   2.404   1.947   2.826  0.2345 -0.7297  0.0812
  154SOL    HW1  461   2.415   1.843   2.848 -1.7597 -0.7219  2.1989
  154SOL    HW2  462   2.426   1.977   2.727 -0.1692  0.2470  0.6866
  155SOL     OW  463   2.519   1.213   0.401  0.1322 -0.3092 -0.3701
  155SOL    HW1  464   2.596   1.210   0.338 -1.3068 -1.2702 -1.0432
  155SOL    HW2  465   2.467   1.125   0.408  0.5273 -1.1878  0.1883
  156SOL     OW  466   2.542   0.964   0.877 -0.2118 -0.3262 -0.3443
  156SOL    HW1  467   2.445   0.997   0.903  2.5636  0.7801  1.7309
  156SOL    HW2  468   2.613   1.031   0.898  0.0104 -4.7101  1.9190
  157SOL     OW  469   1.336   3.016   3.069 -0.4981  0.8320 -1.0880
  157SOL    HW1  470   1.371   2.987   2.975  0.6213 -1.4926  0.1469
  157SOL    HW2  471   1.311   3.119   3.081  1.8324  1.9414  1.2555
  158SOL     OW  472   1.051   1.889   2.007 -0.4014  0.5728  0.0550
  158SOL    HW1  473   1.118   1.860   2.079 -0.8605  1.8258 -0.9053
  158SOL    HW2  474   0.960   1.910   2.048  1.0597  2.8026  1.9136
  159SOL     OW  475   0.874   0.359   1.324 -0.3436  0.1893 -0.2324
  159SOL    HW1  476   0.853   0.462   1.338  1.5971 -0.7099 -1.6513
  159SOL    HW2  477   0.834   0.319   1.236 -0.5100 -0.0083  1.3245
  160SOL     OW  478   1.461   2.390   1.664  0.2863  0.2034 -0.0623
  160SOL    HW1  479   1.458   2.463   1.595 -0.5121  0.2250  1.4539
  160SOL    HW2  480   1.559   2.353   1.670  2.0407 -0.3371  0.1262
  161SOL     OW  481   0.115   2.940   0.346  0.2640 -0.4309  0.1412
  161SOL    HW1  482   0.024   2.887   0.369  0.1133 -0.8643 -0.1041
  161SOL    HW2  483   0.099   3.002   0.261 -0.4234  2.4042 -3.8726
  162SOL     OW  484   2.595   1.892   0.511 -0.6619 -0.0715  0.4972
  162SOL    HW1  485   2.606   1.821   0.437  0.9398  0.8557 -0.3699
  162SOL    HW2  486   2.574   1.854   0.603  0.8016 -0.8313 -0.9539
  163SOL     OW  487   1.983   2.731   0.763 -0.1700 -0.4104  0.1653
  163SOL    HW1  488   1.952   2.749   0.665 -0.1820 -1.0368 -1.1988
  163SOL    HW2  489   2.048   2.652   0.771  2.3201  0.1645 -0.7237
  164SOL     OW  490   3.081   0.273   1.257 -0.4643  0.7112 -0.5981
  164SOL    HW1  491   3.162   0.299   1.199  1.6414 -1.1067  0.7198
  164SOL    HW2  492   3.098   0.302   1.357 -0.7715 -1.2761  2.2351
  165SOL     OW  493   0.981   1.428   0.661 -0.1742  0.7139  0.4652
  165SOL    HW1  494   0.928   1.477   0.736 -2.3202  2.0847 -1.2111
  165SOL    HW2  495   0.987   1.487   0.572  0.7227  2.7307  2.3152
  166SOL     OW  496   1.421   1.045   1.768  0.6292 -0.0534 -0.5959
  166SOL    HW1  497   1.339   1.036   1.825 -0.2632 -0.2823  2.3389
  166SOL    HW2  498   1.510   1.066   1.823  1.2679  0.1119  2.2476
  167SOL     OW  499   0.883   1.888   1.556 -0.2041  0.7394  0.0116
  167SOL    HW1  500   0.856   1.968   1.621  0.5587  1.6563  0.8928
  167SOL    HW2  501   0.810   1.815   1.542 -0.2398  1.2703  0.5854
  168SOL     OW  502   1.500   2.367   0.135 -0.1061  0.0941 -0.1701
  168SOL    HW1  503   1.579   2.413   0.084 -0.2051 -1.3328  0.8017
  168SOL    HW2  504   1.531   2.305   0.213 -2.4173 -0.2280  0.2657
  169SOL     OW  505   0.174   2.571   2.173  0.1796  0.1693  0.5208
  169SOL    HW1  506   0.238   2.510   2.118 -0.2060  3.0987 -0.8473
  169SOL    HW2  507   0.109   2.516   2.237 -1.4819 -1.2969 -0.8965
  170SOL     OW  508   1.265   0.294   1.879 -0.3556  0.6341  0.0380
  170SOL    HW1  509   1.291   0.268   1.974  1.8393 -0.6524 -1.8852
  170SOL    HW2  510   1.245   0.207   1.826 -0.8187 -1.4797 -0.7542
  171SOL     OW  511   0.266   0.817   2.424  0.4164 -0.6552  0.1790
  171SOL    HW1  512   0.170   0.852   2.458 -4.0921  1.1600  0.9285
  171SOL    HW2  513   0.257   0.759   2.339 -1.5789  0.8003  0.6491
  172SOL     OW  514   0.911   1.121   2.921  0.0543  0.1488  0.3230
  172SOL    HW1  515   1.017   1.112   2.938 -0.1975  0.1610 -0.1589
  172SOL    HW2  516   0.890   1.093   2.818 -0.2668  0.2412 -1.9555
  173SOL     OW  517   0.668   2.709   0.149  0.2261  0.1007 -0.1289
  173SOL    HW1  518   0.660   2.814   0.143 -0.2726 -0.9546  0.3119
  173SOL    HW2  519   0.577   2.666   0.170  1.0216  0.6036 -0.9254
  174SOL     OW  520   1.331   2.751   1.046  0.3340  0.1593 -0.2575
  174SOL    HW1  521   1.334   2.829   0.978 -1.2169  0.9738  1.2386
  174SOL    HW2  522   1.301   2.661   1.007  0.8334  2.9524  0.4087
  175SOL     OW  523   0.368   0.011   1.709 -0.3366 -0.1082 -0.0412
  175SOL    HW1  524   0.460   0.049   1.745 -0.0937 -0.2574 -0.7313
  175SOL    HW2  525   0.299   0.083   1.680  1.3817  1.5798 -2.4696
  176SOL     OW  526   2.586   0.366   3.050 -0.2966  0.2191  0.0494
  176SOL    HW1  527   2.584   0.446   3.119 -4.0886  0.0381  0.4110
  176SOL    HW2  528   2.513   0.294   3.068 -0.9840  0.2190  3.4644
  177SOL     OW  529   0.381   0.383   0.880 -0.0642  0.7389  0.4415
  177SOL    HW1  530   0.451   0.323   0.927 -0.4759  1.3521  1.5969
  177SOL    HW2  531   0.298   0.404   0.941  0.0928  0.7616 -0.4813
  178SOL     OW  532   3.075   2.706   2.615 -0.3896  0.3157 -0.0630
  178SOL    HW1  533   2.990   2.651   2.637 -1.5463  3.6229 -2.7204
  178SOL    HW2  534   3.147   2.707   2.687 -0.0369  0.1329 -1.4413
  179SOL     OW  535   0.021   1.716   1.163 -0.1947 -0.5729 -0.2598
  179SOL    HW1  536  -0.059   1.788   1.154  0.5937  1.7467  2.4019
  179SOL    HW2  537  -0.016   1.631   1.204  1.4841  1.5989 -0.7600
  180SOL     OW  538   0.193   1.251   1.839  0.2519 -0.0883 -0.3415
  180SOL    HW1  539   0.289   1.245   1.806 -2.7218  1.0744  4.4359
  180SOL    HW2  540   0.178   1.338   1.901  1.8711 -0.8971  1.0583
  181SOL     OW  541   2.987   1.818   2.527 -0.1723 -0.1534  0.3225
  181SOL    HW1  542   3.088   1.846   2.507  1.5309 -1.5262 -0.2481
  181SOL    HW2  543   2.932   1.858   2.459  5.6060  3.0568  1.4957
  182SOL     OW  544   2.306   1.226   1.248  0.2835  0.6016 -0.5801
  182SOL    HW1  545   2.225   1.200   1.189  2.2141 -0.7386  1.4431
  182SOL    HW2  546   2.345   1.316   1.217  0.1217 -0.4740 -1.2783
  183SOL     OW  547   1.516   2.248   2.502 -0.7413  0.1693  0.4426
  183SOL    HW1  548   1.433   2.181   2.500 -2.5938  1.9187 -0.3140
  183SOL    HW2  549   1.596   2.197   2.541  0.2160 -1.3856 -1.7179
  184SOL     OW  550   2.052   0.915   0.752  0.3798  0.3188  0.0030
  184SOL    HW1  551   1.965   0.968   0.748  1.4930  0.7876  2.1859
  184SOL    HW2  552   2.044   0.841   0.820 -1.4855 -0.1740  0.9554
  185SOL     OW  553   1.679   2.736   2.108  0.1831 -0.0363 -0.2879
  185SOL    HW1  554   1.616   2.817   2.078 -2.9702 -1.2295 -1.2154
  185SOL    HW2  555   1.669   2.712   2.206  0.7239 -0.1855 -0.8552
  186SOL     OW  556   0.122   2.248   1.737 -0.3768 -0.0952  0.3052
  186SOL    HW1  557   0.129   2.345   1.703 -0.3399 -0.5870  0.3544
  186SOL    HW2  558   0.211   2.190   1.731  2.0660 -0.3842  0.3250
  187SOL     OW  559   1.411   0.660   1.709  0.2236  0.0140  0.1481
  187SOL    HW1  560   1.465   0.722   1.650  1.8180  0.1065  0.1156
  187SOL    HW2  561   1.392   0.702   1.802 -1.0052 -0.0761 -0.8160
  188SOL     OW  562   2.758   2.754   1.528 -0.3204 -0.0040 -0.4181
  188SOL    HW1  563   2.705   2.839   1.495 -1.6429  0.9308  1.5027
  188SOL    HW2  564   2.732   2.667   1.475 -2.9609 -1.9209  1.8750
  189SOL     OW  565   0.757   1.002   1.479 -0.0552 -0.4279  0.2329
  189SOL    HW1  566   0.845   1.064   1.481  1.6658 -1.1064 -0.3488
  189SOL    HW2  567   0.747   0.956   1.389  0.0017  0.3130 -0.9405
  190SOL     OW  568   1.460   1.727   1.645 -0.1751 -0.5621 -0.7199
  190SOL    HW1  569   1.395   1.801   1.609 -0.3900 -1.6874  1.8835
  190SOL    HW2  570   1.537   1.774   1.703 -1.4435  0.4286  1.1729
  191SOL     OW  571   1.019   0.803   1.542 -0.1059  0.1578 -0.0300
  191SOL    HW1  572   1.053   0.725   1.599 -1.8024  0.9484 -0.4483
  191SOL    HW2  573   1.101   0.856   1.510 -0.0378 -1.0285 -1.3560
  192SOL     OW  574   1.887   2.258   1.225 -0.4429  0.4033  0.2915
  192SOL    HW1  575   1.788   2.241   1.188  0.5945  0.6456 -0.4833
  192SOL    HW2  576   1.953   2.307   1.160 -0.3518 -1.0960  0.8883
  193SOL     OW  577   0.524   0.559   0.319  0.2377  0.2844 -0.2839
  193SOL    HW1  578   0.499   0.469   0.369  0.5617  0.8819 -0.1664
  193SOL    HW2  579   0.527   0.543   0.220  0.6331 -0.6042  1.2459
  194SOL     OW  580   0.295   0.845   1.268 -0.5278  0.1949  0.2556
  194SOL    HW1  581   0.199   0.799   1.260 -0.9693 -2.4422  0.3663
  194SOL    HW2  582   0.325   0.900   1.184  0.2363 -0.9623 -0.8501
  195SOL     OW  583   0.947   2.936   0.481  0.2425  0.3276 -0.1452
  195SOL    HW1  584   0.967   2.841   0.435 -0.5014  0.7414  1.2210
  195SOL    HW2  585   1.033   2.994   0.491 -1.8381 -0.7772 -1.2476
  196SOL     OW  586   0.255   1.434   1.382  0.4159 -0.1314  0.4275
  196SOL    HW1  587   0.312   1.510   1.429  1.1245  1.0521  1.2620
  196SOL    HW2  588   0.224   1.356   1.443  3.6623 -1.0713 -0.6384
  197SOL     OW  589   0.836   2.005   0.193  0.8094  0.0327  0.0348
  197SOL    HW1  590   0.832   1.996   0.297  0.0615 -0.6317 -0.2545
  197SOL    HW2  591   0.912   1.952   0.150  0.6344 -1.1627 -1.2202
  198SOL     OW  592   0.279   1.213   0.244 -0.3190  0.5958 -0.2143
  198SOL    HW1  593   0.181   1.234   0.228  0.1830  1.7750 -0.3494
  198SOL    HW2  594   0.334   1.294   0.277 -0.8902 -0.6423 -1.4495
  199SOL     OW  595   2.275   0.389   2.519 -0.3865 -0.0033  0.5283
  199SOL    HW1  596   2.234   0.351   2.610 -1.6834  0.1221 -1.2308
  199SOL    HW2  597   2.381   0.386   2.510  1.6481  1.9089  0.2302
  200SOL     OW  598   3.092   2.878   0.794  0.0689 -0.0420 -0.0609
  200SOL    HW1  599   3.024   2.891   0.711 -1.8225  0.5022 -1.7922
  200SOL    HW2  600   3.147   2.962   0.827  0.7908 -1.3841 -0.4079
  201SOL     OW  601   1.144   0.689   0.537 -0.0762  0.0837 -0.1781
  201SOL    HW1  602   1.136   0.776   0.590  0.5362  3.5522 -0.6153
  201SOL    HW2  603   1.051   0.657   0.501 -0.1875 -1.1148  0.5497
  202SOL     OW  604   0.440   1.218   1.765 -0.4124  1.0821 -0.8403
  202SOL    HW1  605   0.493   1.225   1.679  1.7035  0.1269  0.4160
  202SOL    HW2  606   0.486   1.166   1.846  1.1991  0.0903  1.8187
  203SOL     OW  607   0.622   0.232   1.514  0.5661  0.5147  0.0857
  203SOL    HW1  608   0.609   0.173   1.428 -0.8342  0.4894 -0.5218
  203SOL    HW2  609   0.617   0.164   1.595  1.8111  0.6160  0.1169
  204SOL     OW  610   2.075   1.870   3.025  0.3590  0.5068  0.2965
  204SOL    HW1  611   2.099   1.771   3.003 -0.2824  0.4294 -0.0430
  204SOL    HW2  612   2.027   1.931   2.954 -1.2552 -0.5245 -1.2610
  205SOL     OW  613   1.854   1.857   0.105 -0.0409 -0.4793 -0.0037
  205SOL    HW1  614   1.933   1.841   0.044 -0.3115 -1.6381 -2.7045
  205SOL    HW2  615   1.784   1.927   0.062 -1.4465  2.6565  0.4430
  206SOL     OW  616   2.504   2.824   0.389 -0.0534 -0.0095  0.6012
  206SOL    HW1  617   2.565   2.749   0.429  0.3886  0.2449  1.1099
  206SOL    HW2  618   2.555   2.873   0.309  2.8445  0.5326 -0.5780
  207SOL     OW  619   0.564   1.724   2.861  0.2135 -0.2024  0.4571
  207SOL    HW1  620   0.666   1.694   2.858  1.5196 -2.2520  1.0879
  207SOL    HW2  621   0.513   1.664   2.933 -1.2437 -0.1718 -1.1565
  208SOL     OW  622   1.021   1.465   1.402 -0.5212 -0.1956  0.6029
  208SOL    HW1  623   0.946   1.521   1.363 -0.1144 -1.1793  0.4665
  208SOL    HW2  624   1.082   1.519   1.468  1.1386 -0.0668 -0.6932
  209SOL     OW  625   0.149   0.932   3.078  0.4390 -0.0508 -0.1416
  209SOL    HW1  626   0.179   0.892   2.987 -0.1092 -0.4774 -1.4698
  209SOL    HW2  627   0.198   0.896   3.162 -0.3187 -0.6971 -2.4440
  210SOL     OW  628   1.708   0.478   1.146  0.1859  0.4087 -0.2649
  210SOL    HW1  629   1.662   0.572   1.120 -0.8376  1.7545  0.5599
  210SOL    HW2  630   1.809   0.477   1.130 -2.7471  1.6265  0.9216
  211SOL     OW  631   2.112   1.032   1.683 -0.3180 -0.3795  0.1541
  211SOL    HW1  632   2.187   1.016   1.753  1.8591  1.5064 -1.8029
  211SOL    HW2  633   2.144   1.064   1.584 -0.2404  0.5515 -1.2257
  212SOL     OW  634   0.030   1.016   1.449  0.1353  0.4614  0.1525
  212SOL    HW1  635   0.077   1.107   1.481 -1.6379  1.2136  0.4027
  212SOL    HW2  636   0.050   0.940   1.516 -2.6346 -0.2967 -1.2216
  213SOL     OW  637   2.705   0.309   0.256 -0.1670  0.4745 -0.2322
  213SOL    HW1  638   2.782   0.258   0.214 -2.8469  0.0302  1.4136
  213SOL    HW2  639   2.676   0.396   0.201 -3.6352 -1.6561 -1.0694
  214SOL     OW  640   2.184   0.276   2.286  0.1259 -0.3583 -0.1344
  214SOL    HW1  641   2.222   0.319   2.377  1.1922  0.2430  2.8373
  214SOL    HW2  642   2.127   0.190   2.306 -0.5980  0.0848 -1.2652
  215SOL     OW  643   1.666   2.302   2.053  0.0100  0.6902  0.4077
  215SOL    HW1  644   1.753   2.333   2.008 -0.3326 -2.6991 -0.2131
  215SOL    HW2  645   1.627   2.369   2.125 -2.8780 -1.0594  2.1955
  216SOL     OW  646   2.241   0.520   0.643 -0.0077 -0.1335 -0.1751
  216SOL    HW1  647   2.200   0.444   0.581  2.5285  1.2715  0.9141
  216SOL    HW2  648   2.251   0.613   0.592 -0.8486  1.5332 -1.8987
  217SOL     OW  649   0.758   2.809   2.414 -0.0677  0.2920 -0.0778
  217SOL    HW1  650   0.755   2.717   2.470  1.3315 -1.6287  2.3111
  217SOL    HW2  651   0.757   2.794   2.311 -2.2623  1.6605 -0.5256
  218SOL     OW  652   1.923   1.447   0.046 -0.2169 -0.1138  0.6300
  218SOL    HW1  653   1.834   1.480   0.012  1.1705  0.2839  2.2625
  218SOL    HW2  654   1.914   1.358   0.094  2.9920  2.0280 -0.0889
  219SOL     OW  655   2.388   1.318   2.564 -0.0786  0.2151 -0.3778
  219SOL    HW1  656   2.453   1.287   2.496  1.9975  1.3258  0.8991
  219SOL    HW2  657   2.362   1.244   2.637 -0.9081  0.2487  0.6802
  220SOL     OW  658   1.414   1.039   1.260  0.1967  0.1980  0.4210
  220SOL    HW1  659   1.515   1.043   1.257 -2.5696  1.1437 -1.8005
  220SOL    HW2  660   1.375   1.133   1.255  1.4312 -1.3774 -0.0215
  221SOL     OW  661   1.303   1.155   2.137 -0.1819  0.8786 -0.0935
  221SOL    HW1  662   1.274   1.241   2.087  0.4031 -0.0913 -1.1191
  221SOL    HW2  663   1.391   1.115   2.105 -1.0518 -0.9509 -0.9266
  222SOL     OW  664   1.277   0.099   1.147 -0.0195 -0.9032 -0.0524
  222SOL    HW1  665   1.343   0.081   1.069 -0.0070 -0.9815  0.7760
  222SOL    HW2  666   1.316   0.155   1.228 -2.3511  2.4075 -0.3463
  223SOL     OW  667   2.898   0.810   1.979  0.1386 -0.6736 -0.0111
  223SOL    HW1  668   2.919   0.805   2.082  0.9461  2.4509  0.8601
  223SOL    HW2  669   2.943   0.891   1.932  1.6509 -1.6654 -1.6950
  224SOL     OW  670   1.571   1.010   2.784 -0.1801 -0.9281  0.1190
  224SOL    HW1  671   1.608   0.949   2.717 -2.0035  0.6397  1.7096
  224SOL    HW2  672   1.538   1.100   2.740  1.5394  1.8089 -1.0767
  225SOL     OW  673   2.993   2.799   2.930  0.1369  0.2388 -0.3614
  225SOL    HW1  674   2.934   2.731   2.878 -1.6176 -0.2992 -0.1477
  225SOL    HW2  675   3.063   2.854   2.880  1.0910 -0.3514  1.0960
  226SOL     OW  676   2.452   1.667   2.857  0.0807 -0.8944  0.1117
  226SOL    HW1  677   2.503   1.649   2.767 -1.0292  0.6716  0.9601
  226SOL    HW2  678   2.437   1.580   2.915  0.2577  0.8777  2.6898
  227SOL     OW  679   0.798   0.134   2.975  0.3500  0.0627  0.0633
  227SOL    HW1  680   0.840   0.061   3.037 -1.9504 -0.4140 -0.1832
  227SOL    HW2  681   0.828   0.124   2.876 -2.8275 -0.8623 -1.6094
  228SOL     OW  682   2.358   0.565   2.789 -0.0012  0.2712  0.2653
  228SOL    HW1  683   2.332   0.650   2.734  0.0356 -0.0264 -0.7006
  228SOL    HW2  684   2.453   0.532   2.781 -0.1287 -1.7465 -0.4642
  229SOL     OW  685   0.592   0.498   1.881 -0.1024  0.2894 -0.5642
  229SOL    HW1  686   0.611   0.480   1.776 -1.9610 -3.1376  1.4830
  229SOL    HW2  687   0.641   0.581   1.919  0.4076 -1.2884  2.3741
  230SOL     OW  688   1.924   1.238   2.143 -0.3632  0.4089  0.2835
  230SOL    HW1  689   2.002   1.277   2.082  0.1132  1.3514  2.4488
  230SOL    HW2  690   1.826   1.245   2.111 -0.1787 -1.0393 -0.4174
  231SOL     OW  691   0.624   1.045   2.952  0.2902 -0.2017 -0.0360
  231SOL    HW1  692   0.724   1.047   2.960  1.2136 -3.4839 -1.0099
  231SOL    HW2  693   0.568   1.048   3.041 -1.3057 -2.2011  1.1439
  232SOL     OW  694   2.545   0.042   2.747 -0.4302  0.3104  0.3065
  232SOL    HW1  695   2.567  -0.051   2.791  0.9924 -0.1323 -0.0671
  232SOL    HW2  696   2.551   0.034   2.643 -0.1043  0.2238  0.6369
  233SOL     OW  697   1.740   1.274   1.049  0.1186 -0.2086  0.0705
  233SOL    HW1  698   1.718   1.319   0.955 -2.1024  2.5781  0.5390
  233SOL    HW2  699   1.793   1.188   1.033 -2.2816 -0.1099 -0.0180
  234SOL     OW  700   1.625   2.640   1.857 -0.2144  0.3059 -0.5497
  234SOL    HW1  701   1.655   2.672   1.954 -0.0492 -0.6417  0.7591
  234SOL    HW2  702   1.580   2.546   1.852 -1.6157 -0.5111 -2.6698
  235SOL     OW  703   0.037   3.002   2.819  0.3361 -0.1588  0.2209
  235SOL    HW1  704   0.081   3.062   2.749 -0.2840 -0.3686  2.0450
  235SOL    HW2  705  -0.034   3.053   2.878  0.4774  1.2807  0.1008
  236SOL     OW  706   2.816   0.699   0.035 -0.0075  0.8180  0.3503
  236SOL    HW1  707   2.871   0.742   0.109 -0.4360 -1.1303 -0.5390
  236SOL    HW2  708   2.865   0.615   0.002 -2.6886 -0.8840  0.2549
  237SOL     OW  709   1.499   1.655   1.025 -0.2455 -0.2063  0.1312
  237SOL    HW1  710   1.591   1.609   1.021 -0.8748 -1.9633  0.3286
  237SOL    HW2  711   1.474   1.693   1.120  1.3051 -0.2876 -1.3759
  238SOL     OW  712   1.770   1.353   0.768 -0.0930  0.2541 -0.5272
  238SOL    HW1  713   1.850   1.380   0.707  1.1724  0.0571  0.3952
  238SOL    HW2  714   1.684   1.409   0.737 -0.4391  2.0078  3.1637
  239SOL     OW  715   2.119   0.270   2.716 -0.4783 -0.6943  0.0057
  239SOL    HW1  716   2.200   0.247   2.780  1.6664  2.6445  0.0029
  239SOL    HW2  717   2.046   0.338   2.761 -0.0751  0.3017  0.8987
  240SOL     OW  718   0.860   0.694   0.204 -0.4117 -0.3448 -0.0164
  240SOL    HW1  719   0.842   0.610   0.141  1.7862  1.6767 -3.7693
  240SOL    HW2  720   0.856   0.674   0.302  1.2095  1.4243 -0.7355
  241SOL     OW  721   0.572   0.033   0.316  0.4038 -0.2235 -0.8058
  241SOL    HW1  722   0.569  -0.017   0.230  1.6319 -1.9430  2.5092
  241SOL    HW2  723   0.509  -0.014   0.391  1.1230 -2.9684  0.9530
  242SOL     OW  724   0.695   2.398   1.103 -0.1698 -0.0311 -0.1846
  242SOL    HW1  725   0.693   2.471   1.174 -0.4155  1.2548  1.3985
  242SOL    HW2  726   0.791   2.396   1.057  0.1393  0.0286 -0.9597
  243SOL     OW  727   1.081   0.608   2.465  0.0053 -0.0002 -0.4662
  243SOL    HW1  728   1.016   0.667   2.411 -1.1054  0.5243 -1.4374
  243SOL    HW2  729   1.034   0.521   2.494  0.1029 -0.2895 -1.9311
  244SOL     OW  730   2.799   1.958   2.381 -0.4659 -0.7104 -0.0235
  244SOL    HW1  731   2.859   1.952   2.293 -0.2504  1.7460  0.0022
  244SOL    HW2  732   2.720   1.889   2.380 -1.7960 -4.3882 -1.2387
  245SOL     OW  733   2.459   0.731   2.167  0.4213  0.6335  0.1696
  245SOL    HW1  734   2.441   0.803   2.241 -1.4427  1.0402 -0.2063
  245SOL    HW2  735   2.559   0.727   2.142 -1.6972  1.3979  0.7251
  246SOL     OW  736   0.209   2.872   1.735  0.0508  0.2119 -0.3462
  246SOL    HW1  737   0.157   2.844   1.650  0.0770 -1.0714  0.4946
  246SOL    HW2  738   0.276   2.954   1.728  0.4616  0.9399  1.4839
  247SOL     OW  739   2.196   0.529   3.003 -0.1790 -0.0146  0.0410
  247SOL    HW1  740   2.240   0.521   2.909 -0.7800 -0.4096 -1.4540
  247SOL    HW2  741   2.137   0.615   3.007  2.7370 -0.0027  0.1711
  248SOL     OW  742   2.175   1.903   1.619  0.1814  0.0995  0.4467
  248SOL    HW1  743   2.241   1.828   1.646 -0.3679  0.2608 -0.2567
  248SOL    HW2  744   2.076   1.874   1.628  0.1844  0.3978  0.4784
  249SOL     OW  745   2.001   1.918   1.945 -0.2068  0.0297 -0.1277
  249SOL    HW1  746   2.003   1.884   1.849  1.2109 -0.5680 -0.0568
  249SOL    HW2  747   2.087   1.970   1.963 -1.2336 -2.1789  0.3551
  250SOL     OW  748   1.005   0.645   1.868 -0.0777 -0.5848  0.3557
  250SOL    HW1  749   1.040   0.584   1.944 -1.1299  1.0585 -1.4312
  250SOL    HW2  750   0.976   0.587   1.785 -1.1210  0.1504 -1.5507
  251SOL     OW  751   3.015   1.549   2.569 -0.2564  0.2587 -0.0506
  251SOL    HW1  752   2.992   1.648   2.544  0.5373 -0.8969 -0.3314
  251SOL    HW2  753   2.936   1.485   2.542 -0.4549  1.2524  1.4410
  252SOL     OW  754   1.551   0.875   1.589 -0.1721  0.8539  0.0416
  252SOL    HW1  755   1.615   0.940   1.539  2.9040 -0.8994 -1.0878
  252SOL    HW2  756   1.483   0.931   1.646  0.0331  1.5675 -1.1229
  253SOL     OW  757   0.998   1.525   0.387 -0.5366 -0.1096  0.0914
  253SOL    HW1  758   1.075   1.484   0.321  1.3228 -4.5778 -3.7925
  253SOL    HW2  759   0.901   1.502   0.367  0.3760 -0.4069  1.4655
  254SOL     OW  760   1.986   2.147   1.598  0.2611  0.0009 -0.0882
  254SOL    HW1  761   1.955   2.087   1.520  0.0170  1.7763  1.3053
  254SOL    HW2  762   1.913   2.148   1.675 -0.0900 -1.5157  1.2350
  255SOL     OW  763   0.112   1.153   2.897 -0.7941  0.1876 -0.2967
  255SOL    HW1  764   0.181   1.232   2.874  1.3965  1.4064 -3.9707
  255SOL    HW2  765   0.140   1.085   2.972 -1.8218  0.3001 -2.3937
  256SOL     OW  766   2.739   1.321   1.858  0.3326 -0.0735  0.4671
  256SOL    HW1  767   2.675   1.371   1.790 -0.5197 -0.1524  2.5029
  256SOL    HW2  768   2.684   1.244   1.908 -1.2999 -0.6598  0.8828
  257SOL     OW  769   0.840   0.242   1.882 -0.1760 -0.1186  0.3556
  257SOL    HW1  770   0.869   0.302   1.803 -0.2774 -0.9914 -0.7257
  257SOL    HW2  771   0.869   0.144   1.866  1.1859 -0.7628  2.2132
  258SOL     OW  772   2.949   1.251   0.420  0.0806 -0.4682 -0.5409
  258SOL    HW1  773   2.892   1.334   0.388  1.0876 -0.1226  0.1042
  258SOL    HW2  774   2.982   1.264   0.522  0.8224 -0.7058  3.0872
  259SOL     OW  775   0.509   2.882   2.991 -0.5079  0.3650  0.0499
  259SOL    HW1  776   0.455   2.823   3.053 -2.3670  1.7795  0.8353
  259SOL    HW2  777   0.524   2.841   2.898  3.8725  0.8267 -0.9189
  260SOL     OW  778   2.643   0.730   2.716 -0.1198 -0.3088  0.7557
  260SOL    HW1  779   2.546   0.772   2.715 -0.7725 -0.6687  1.7526
  260SOL    HW2  780   2.640   0.628   2.735  2.6348 -0.6305 -0.3336
  261SOL     OW  781   2.704   1.316   1.301 -0.1383 -0.0687 -0.1570
  261SOL    HW1  782   2.658   1.234   1.253 -0.4525  1.4745 -0.8780
  261SOL    HW2  783   2.806   1.301   1.322  0.4718 -0.6363  0.0223
  262SOL     OW  784   1.482   2.938   2.035 -0.3316 -0.2003 -0.1969
  262SOL    HW1  785   1.501   3.011   1.965  2.0919 -1.1245  0.5329
  262SOL    HW2  786   1.398   2.875   2.014 -2.9297  1.0880  0.1238
  263SOL     OW  787   0.860   0.751   2.350 -0.4235  0.1594  0.3030
  263SOL    HW1  788   0.792   0.675   2.318 -1.4216 -1.7920 -2.8651
  263SOL    HW2  789   0.872   0.820   2.272  2.5992  0.7728 -0.8218
  264SOL     OW  790   2.272   0.772   0.517  0.0131 -0.3343  0.2919
  264SOL    HW1  791   2.176   0.801   0.477 -0.4500  2.2965 -0.1862
  264SOL    HW2  792   2.342   0.849   0.506 -3.0569 -1.6568 -1.5264
  265SOL     OW  793   0.862   2.331   2.695 -0.6205 -0.1060  0.5531
  265SOL    HW1  794   0.921   2.397   2.750 -0.3661  1.7289  0.5402
  265SOL    HW2  795   0.815   2.259   2.753  1.2840  2.4991 -1.2560
  266SOL     OW  796   1.315   1.736   0.022  0.4089 -0.4508  0.0567
  266SOL    HW1  797   1.243   1.785   0.074  0.9286  1.6627  1.7727
  266SOL    HW2  798   1.403   1.739   0.075  2.3285  0.3577 -0.7002
  267SOL     OW  799   1.092   0.030   2.329 -0.3694 -0.0016  0.3010
  267SOL    HW1  800   1.075  -0.047   2.260 -1.3068  0.3847 -0.0630
  267SOL    HW2  801   1.016   0.100   2.323  0.6577  0.6157  2.1841
  268SOL     OW  802   0.591   1.126   1.073  0.2416 -0.0302 -0.8741
  268SOL    HW1  803   0.627   1.157   1.168  0.4672  1.6268  1.5298
  268SOL    HW2  804   0.577   1.212   1.015  0.4063 -0.2290  0.9361
  269SOL     OW  805   2.463   2.566   1.573  0.1886 -0.4929  0.2252
  269SOL    HW1  806   2.531   2.487   1.583  0.9312  0.8633 -0.2830
  269SOL    HW2  807   2.394   2.579   1.653 -0.3501  0.1128 -0.6278
  270SOL     OW  808   0.285   2.783   2.023 -1.2111  0.4753  0.3828
  270SOL    HW1  809   0.214   2.837   1.971 -0.3345 -0.5714 -2.3163
  270SOL    HW2  810   0.245   2.693   2.052 -1.6838  1.7572 -0.6429
  271SOL     OW  811   0.416   1.377   1.155 -0.3523  0.2681  0.0946
  271SOL    HW1  812   0.376   1.372   1.062  2.4102  1.8490  0.0846
  271SOL    HW2  813   0.346   1.367   1.233 -0.7033 -1.4728  4.1222
  272SOL     OW  814   1.982   2.849   1.914 -0.2170  0.2311  0.4320
  272SOL    HW1  815   1.913   2.829   1.836 -1.4593  0.2789 -2.8290
  272SOL    HW2  816   2.047   2.929   1.888 -1.9113  0.8139  0.7824
  273SOL     OW  817   1.406   1.448   2.878  0.0788  0.1297 -0.5631
  273SOL    HW1  818   1.486   1.467   2.941  1.6992  0.7657 -0.6922
  273SOL    HW2  819   1.312   1.473   2.921 -1.4014 -0.3811 -1.6302
  274SOL     OW  820   1.152   0.488   2.053  0.5589 -0.3093 -0.6252
  274SOL    HW1  821   1.189   0.430   1.981  0.3025  4.7485 -0.1544
  274SOL    HW2  822   1.225   0.511   2.127  0.6391  0.5150  0.2218
  275SOL     OW  823   0.644   2.075   1.923 -0.2101  0.3960  0.0549
  275SOL    HW1  824   0.633   2.175   1.949  1.9881  2.7743 -2.8927
  275SOL    HW2  825   0.553   2.023   1.925 -2.5807 -1.3632  2.3710
  276SOL     OW  826   2.149   0.985   2.787  0.4416  0.8475  0.2737
  276SOL    HW1  827   2.068   1.004   2.724 -0.4085 -2.6107  0.2404
  276SOL    HW2  828   2.124   1.006   2.890 -0.8959 -1.2592  0.3733
  277SOL     OW  829   2.991   0.821   0.212 -0.4533  0.2647 -0.2693
  277SOL    HW1  830   3.042   0.857   0.131  2.3501 -3.1544  1.6658
  277SOL    HW2  831   3.037   0.741   0.260  2.5467  1.1262 -3.1033
  278SOL     OW  832   0.201   0.281   2.926 -0.2627 -0.3320 -0.1159
  278SOL    HW1  833   0.255   0.240   3.005  1.2248  0.4706  3.1327
  278SOL    HW2  834   0.225   0.379   2.922 -1.4796 -0.7727 -3.1394
  279SOL     OW  835   0.137   3.096   0.878  0.2236 -0.1807  0.0454
  279SOL    HW1  836   0.160   3.133   0.971 -0.4299 -1.6281 -0.3287
  279SOL    HW2  837   0.214   3.120   0.811  1.9396 -1.6121  0.1131
  280SOL     OW  838   1.646   2.930   2.504 -0.1818 -0.2327 -0.0528
  280SOL    HW1  839   1.739   2.973   2.511  0.2982  1.6691  2.4164
  280SOL    HW2  840   1.572   2.989   2.546 -1.7434  3.0889  2.2545
  281SOL     OW  841   0.634   0.964   2.328 -0.0404 -1.0167  0.5846
  281SOL    HW1  842   0.586   0.882   2.279 -0.7199  0.2611 -1.9552
  281SOL    HW2  843   0.699   0.931   2.402  1.1687 -2.3662  0.1893
  282SOL     OW  844   1.638   2.482   0.551 -0.0330 -0.4757 -0.0124
  282SOL    HW1  845   1.605   2.418   0.476 -1.8714  0.4348  0.2890
  282SOL    HW2  846   1.593   2.578   0.554 -1.3301  1.1664  0.3926
  283SOL     OW  847   1.121   0.933   0.698  0.6454  0.0625  0.3098
  283SOL    HW1  848   1.161   0.857   0.761  2.4407 -2.0433  0.7985
  283SOL    HW2  849   1.068   1.007   0.754  1.4381 -1.9016  1.0250
  284SOL     OW  850   2.258   2.824   2.411  0.1972 -0.3768  0.0991
  284SOL    HW1  851   2.305   2.888   2.474  2.6602  1.6496 -0.7682
  284SOL    HW2  852   2.282   2.843   2.308  0.8736 -1.6323 -1.7689
  285SOL     OW  853   1.404   3.053   2.545  0.2043  0.4029  0.0479
  285SOL    HW1  854   1.416   3.068   2.439 -1.4587  0.0782 -2.7044
  285SOL    HW2  855   1.311   3.087   2.576  2.1162 -2.3420 -0.3809
  286SOL     OW  856   0.420   0.497   0.635  0.0620  0.1267  0.1282
  286SOL    HW1  857   0.403   0.456   0.726 -0.9968 -1.4553 -0.7827
  286SOL    HW2  858   0.431   0.421   0.569  1.5130 -0.1846  1.3120
  287SOL     OW  859   0.075   1.333   2.515  0.6061  0.4748 -0.1465
  287SOL    HW1  860   0.050   1.244   2.558 -1.6354 -1.2473 -0.4847
  287SOL    HW2  861   0.016   1.412   2.548  0.7422 -0.3699 -0.4876
  288SOL     OW  862   1.589   2.602   1.457  0.1203  0.7884 -0.0073
  288SOL    HW1  863   1.691   2.608   1.467 -2.9237  1.3612  0.5051
  288SOL    HW2  864   1.553   2.614   1.367 -1.0675 -0.8202 -0.1436
  289SOL     OW  865   0.655   2.726   0.824  0.7877 -0.0958  0.2151
  289SOL    HW1  866   0.704   2.794   0.766 -0.6425 -1.6993 -2.2636
  289SOL    HW2  867   0.655   2.761   0.924 -1.0804  2.3337  0.6899
  290SOL     OW  868   2.966   1.230   1.680  0.4051 -0.3491 -0.4334
  290SOL    HW1  869   2.878   1.272   1.721  0.5088  1.5923  0.6198
  290SOL    HW2  870   3.006   1.160   1.748 -1.6413  0.8416 -1.1796
  291SOL     OW  871   1.966   0.047   0.060  0.1240  0.1256 -0.0056
  291SOL    HW1  872   1.993   0.030   0.157 -0.9820  0.8474  0.5351
  291SOL    HW2  873   2.012   0.127   0.013 -3.8253  0.2953 -0.4695
  292SOL     OW  874   2.968   1.162   3.064  0.0134  0.2527 -0.3345
  292SOL    HW1  875   2.892   1.198   3.003 -1.3362 -1.0108 -0.9016
  292SOL    HW2  876   3.061   1.173   3.020 -0.8891 -1.7105 -0.2456
  293SOL     OW  877   0.577   2.055   0.167  0.2200  0.0571  0.0619
  293SOL    HW1  878   0.534   2.121   0.232 -0.2377 -1.3910 -0.9347
  293SOL    HW2  879   0.679   2.048   0.179 -0.1801 -0.5301 -2.4679
  294SOL     OW  880   1.680   2.133   1.847  0.3422  0.1623 -0.4221
  294SOL    HW1  881   1.667   2.192   1.933 -0.8953 -0.9169  1.8667
  294SOL    HW2  882   1.687   2.189   1.763  1.2135 -1.7656  0.3482
  295SOL     OW  883   0.953   1.185   0.415 -0.1673 -0.1352 -0.5343
  295SOL    HW1  884   1.052   1.162   0.453 -0.8227 -2.3825 -0.8171
  295SOL    HW2  885   0.881   1.160   0.490 -0.1609 -4.5111  1.4046
  296SOL     OW  886   1.276   2.084   2.534 -0.0046  0.1711  0.5284
  296SOL    HW1  887   1.271   2.130   2.442  1.5488 -3.6018 -0.4824
  296SOL    HW2  888   1.299   1.979   2.522 -1.2824 -1.4105 -3.3778
  297SOL     OW  889   1.525   0.708   1.340 -0.1280 -0.0445  0.0427
  297SOL    HW1  890   1.569   0.633   1.396  0.4732 -0.9579 -1.6392
  297SOL    HW2  891   1.505   0.792   1.392  1.2093 -0.3299  0.3069
  298SOL     OW  892   0.522   1.280   2.839  0.3453 -0.5277 -0.0534
  298SOL    HW1  893   0.569   1.199   2.884 -0.6509 -2.2546 -0.1764
  298SOL    HW2  894   0.572   1.309   2.755 -1.6600 -1.9969 -0.0022
  299SOL     OW  895   0.385   0.350   1.462  0.2214 -0.3989 -0.4392
  299SOL    HW1  896   0.391   0.439   1.405 -0.6529  0.0249 -0.6800
  299SOL    HW2  897   0.482   0.313   1.477  1.3734  0.0507 -1.0021
  300SOL     OW  898   1.224   1.784   2.859 -0.3291  0.1498 -0.3562
  300SOL    HW1  899   1.239   1.702   2.799 -0.5484  0.5082  0.5334
  300SOL    HW2  900   1.260   1.774   2.959  0.2102 -1.0599 -0.5121
  301SOL     OW  901   0.460   0.272   0.430 -0.1995  0.1904  0.6369
  301SOL    HW1  902   0.363   0.239   0.461  1.2630  0.1531  1.4132
  301SOL    HW2  903   0.503   0.211   0.355  1.3484 -0.2196 -0.1123
  302SOL     OW  904   1.202   2.292   2.347  0.6747 -0.0329 -0.5535
  302SOL    HW1  905   1.126   2.346   2.403 -3.1419 -0.6244  3.3237
  302SOL    HW2  906   1.168   2.215   2.291  1.0372  1.1343  0.0395
  303SOL     OW  907   0.926   2.387   0.795 -0.0602 -0.2053  0.0938
  303SOL    HW1  908   0.944   2.457   0.720  1.9066  1.1270 -0.4865
  303SOL    HW2  909   0.927   2.422   0.894 -0.8391 -0.1829  0.4495
  304SOL     OW  910   0.082   2.046   0.679  0.4966  0.4677 -0.0192
  304SOL    HW1  911   0.139   1.982   0.626 -1.0451  2.2015 -0.7478
  304SOL    HW2  912   0.003   2.084   0.619  0.4298 -4.3876  0.0033
  305SOL     OW  913   1.628   0.883   0.696 -0.1387  0.0008 -0.1232
  305SOL    HW1  914   1.555   0.913   0.625  1.1591 -0.0397 -0.3204
  305SOL    HW2  915   1.688   0.801   0.675 -1.5696 -1.7321  0.6375
  306SOL     OW  916   0.423   1.864   1.927  0.5744 -0.7005 -0.0952
  306SOL    HW1  917   0.484   1.794   1.883 -0.3010  0.6567 -1.1247
  306SOL    HW2  918   0.405   1.835   2.027 -2.0931 -0.2067  1.0774
  307SOL     OW  919   0.016   0.861   2.532  0.6593  0.0422 -0.0679
  307SOL    HW1  920   0.012   0.956   2.571 -3.3921 -1.2982  2.2569
  307SOL    HW2  921  -0.055   0.804   2.579  0.8537 -0.1972  2.0478
  308SOL     OW  922   1.568   2.697   2.818 -0.1354  0.1005 -0.2302
  308SOL    HW1  923   1.568   2.674   2.720 -0.9905  0.9009 -0.3630
  308SOL    HW2  924   1.498   2.639   2.874  3.7123 -0.2200  0.0669
  309SOL     OW  925   1.245   0.025   1.798 -0.2901 -0.4386 -0.4988
  309SOL    HW1  926   1.339  -0.000   1.838  1.8859  0.1240 -0.1092
  309SOL    HW2  927   1.244   0.048   1.690 -0.8543  1.9361 -1.6229
  310SOL     OW  928   1.310   2.684   0.733 -0.1149  0.1846 -0.1903
  310SOL    HW1  929   1.312   2.755   0.806 -0.7285 -2.7383  0.7857
  310SOL    HW2  930   1.375   2.696   0.657 -1.4182 -2.3154  2.1466
  311SOL     OW  931   1.215   0.950   1.436 -0.2224 -0.2334  0.1111
  311SOL    HW1  932   1.282   0.931   1.366 -2.2392 -2.0152  0.9826
  311SOL    HW2  933   1.245   1.037   1.487 -1.7861 -2.3479 -0.8486
  312SOL     OW  934   1.562   0.686   1.022  0.1794 -0.1196 -0.3466
  312SOL    HW1  935   1.532   0.786   1.023  1.1903 -0.0275 -1.7843
  312SOL    HW2  936   1.492   0.623   0.971 -0.5386  0.2099 -1.0883
  313SOL     OW  937   1.581   1.456   0.548 -0.7949 -0.2892  0.6728
  313SOL    HW1  938   1.490   1.500   0.522  0.8107  1.0708  3.5056
  313SOL    HW2  939   1.584   1.350   0.534  0.0347 -1.0912 -0.7224
  314SOL     OW  940   2.925   0.056   3.005  0.3981 -0.6813  0.0589
  314SOL    HW1  941   2.968   0.094   3.088 -0.0389 -0.3742 -0.9060
  314SOL    HW2  942   2.840   0.001   3.026 -1.1181  2.7077 -1.4803
  315SOL     OW  943   1.244   0.228   2.773  0.0798 -0.2031  0.2437
  315SOL    HW1  944   1.220   0.151   2.705 -0.1171 -2.1544 -0.2115
  315SOL    HW2  945   1.304   0.201   2.853  0.7850  1.2916 -1.0850
  316SOL     OW  946   1.677   2.064   0.911 -0.1380  0.0574 -0.5377
  316SOL    HW1  947   1.636   2.080   1.011 -0.7217  2.5601  1.7881
  316SOL    HW2  948   1.685   2.152   0.860 -2.9331 -0.7706  1.7557
  317SOL     OW  949   1.147   0.714   2.830 -0.0293  0.0005  0.4767
  317SOL    HW1  950   1.080   0.761   2.893 -1.9679 -1.7688 -1.6142
  317SOL    HW2  951   1.119   0.617   2.801 -0.0751 -0.7486  0.0859
  318SOL     OW  952   1.403   3.075   2.269  0.0480 -0.1055  0.4041
  318SOL    HW1  953   1.326   3.131   2.238  0.7405  1.6566  3.4252
  318SOL    HW2  954   1.448   3.025   2.188  0.7634 -3.2460 -0.7984
  319SOL     OW  955   0.629   2.378   2.935 -0.2900 -0.2423  0.1933
  319SOL    HW1  956   0.535   2.356   2.979 -1.5386  0.3076  2.2453
  319SOL    HW2  957   0.697   2.298   2.928  0.7113 -2.7001 -1.2995
  320SOL     OW  958   1.600   2.271   0.389  0.3294  0.2342 -0.1188
  320SOL    HW1  959   1.692   2.226   0.386 -0.5076 -1.2233 -3.3424
  320SOL    HW2  960   1.537   2.226   0.454  2.5745 -0.8912 -2.7555
  321SOL     OW  961   1.599   2.755   0.530 -0.4356 -0.2678 -0.2601
  321SOL    HW1  962   1.517   2.805   0.484  2.1541  0.5732  0.2542
  321SOL    HW2  963   1.675   2.821   0.547 -0.7546 -1.8466  2.1787
  322SOL     OW  964   2.680   1.085   2.246 -0.6099  0.3165 -0.0992
  322SOL    HW1  965   2.738   1.107   2.333  0.1314  2.6482 -2.7596
  322SOL    HW2  966   2.601   1.019   2.263 -0.2541  0.0158 -1.2191
  323SOL     OW  967   1.031   2.698   0.858  0.0269 -0.2666 -0.1155
  323SOL    HW1  968   1.057   2.662   0.763  0.2559  1.2483  0.5254
  323SOL    HW2  969   1.015   2.804   0.854 -0.2873  1.8257 -2.1647
  324SOL     OW  970   0.097   2.505   2.450  0.3075 -0.4084 -0.0628
  324SOL    HW1  971   0.098   2.406   2.484  1.7290 -1.2286 -1.0411
  324SOL    HW2  972   0.056   2.578   2.512  2.8539  0.2428 -1.5074
  325SOL     OW  973   1.197   3.070   0.472  0.1238 -0.2483 -0.3972
  325SOL    HW1  974   1.215   3.121   0.384  0.3766 -1.5639 -1.4499
  325SOL    HW2  975   1.212   3.139   0.548 -0.5624  1.3611  2.0783
  326SOL     OW  976   2.353   0.759   0.023  0.4467 -0.4111 -0.4748
  326SOL    HW1  977   2.255   0.734   0.029  1.8560 -0.5761  0.5030
  326SOL    HW2  978   2.414   0.687   0.061  1.5823 -0.0149 -1.4221
  327SOL     OW  979   2.695   0.399   0.533  0.4960  0.0940 -0.0634
  327SOL    HW1  980   2.689   0.349   0.443  1.8667  1.1691 -0.9997
  327SOL    HW2  981   2.613   0.386   0.595  1.7249  1.0793 -0.2062
  328SOL     OW  982   2.485   0.627   0.390 -0.5064 -0.5614  0.6416
  328SOL    HW1  983   2.401   0.662   0.432 -0.2276 -1.8741  0.6413
  328SOL    HW2  984   2.545   0.597   0.466 -0.1030  2.6070  0.9663
  329SOL     OW  985   2.981   2.967   2.155  0.4108  0.7477  0.0358
  329SOL    HW1  986   3.032   2.900   2.214  1.9440 -0.3359 -1.5103
  329SOL    HW2  987   3.024   3.060   2.148  1.5723 -3.1230  0.3299
  330SOL     OW  988   0.560   0.190   1.855  0.2379 -0.2995  0.2593
  330SOL    HW1  989   0.552   0.293   1.868  0.2159  0.0151  0.0371
  330SOL    HW2  990   0.656   0.153   1.877  0.6462 -0.7354  3.3254
  331SOL     OW  991   2.930   1.901   1.108  0.0834 -0.0551  0.4108
  331SOL    HW1  992   2.983   1.984   1.075  1.2954  2.6070  0.2569
  331SOL    HW2  993   2.872   1.928   1.189  1.0696 -0.4757  0.2800
  332SOL     OW  994   0.445   1.048   0.052 -0.3059  0.1605  0.2225
  332SOL    HW1  995   0.378   0.998  -0.011  0.5189 -1.0556 -0.7670
  332SOL    HW2  996   0.394   1.109   0.116 -1.2467  1.0556  1.6701
  333SOL     OW  997   2.858   1.057   0.258  0.0222  0.0512  0.1992
  333SOL    HW1  998   2.896   1.123   0.333 -1.4584  1.3931 -0.9798
  333SOL    HW2  999   2.921   0.975   0.236  0.0435 -0.4677  1.4253
  334SOL     OW 1000   1.630   1.153   1.905  0.1870  0.0235 -0.3597
  334SOL    HW1 1001   1.712   1.136   1.854 -1.5001  0.6682  0.9245
  334SOL    HW2 1002   1.634   1.237   1.969 -3.9796 -1.5191 -0.2881
  335SOL     OW 1003   1.980   2.801   2.619 -0.3272  0.3237  0.2931
  335SOL    HW1 1004   1.915   2.836   2.696 -1.4350 -0.0638 -1.7791
  335SOL    HW2 1005   2.061   2.866   2.599  0.1374 -2.1459 -0.6535
  336SOL     OW 1006   0.229   0.084   2.729  0.1731  0.4601  0.3306
  336SOL    HW1 1007   0.322   0.039   2.726 -1.6933 -2.2251  0.2733
  336SOL    HW2 1008   0.225   0.165   2.795 -1.8648  2.1567 -0.0071
  337SOL     OW 1009   0.947   2.820   2.844 -0.2968  0.0168 -0.4451
  337SOL    HW1 1010   0.930   2.798   2.940 -0.1512  2.2748  0.1615
  337SOL    HW2 1011   1.037   2.780   2.815 -0.0851  0.4439  0.9986
  338SOL     OW 1012   0.039   1.009   0.605  0.2607  0.4053  0.1312
  338SOL    HW1 1013  -0.040   0.960   0.656  2.8113 -1.1942  0.4650
  338SOL    HW2 1014   0.021   1.109   0.585  0.4761 -0.5910 -1.1530
  339SOL     OW 1015   1.684   1.364   2.079  0.1189 -0.2212  0.0959
  339SOL    HW1 1016   1.583   1.389   2.092 -0.6965 -2.3425  0.5980
  339SOL    HW2 1017   1.746   1.452   2.070  0.8259  0.3762 -0.3624
  340SOL     OW 1018   2.332   0.734   1.210  0.1609  0.3855 -0.4725
  340SOL    HW1 1019   2.242   0.768   1.172 -0.3228  1.1922  0.5864
  340SOL    HW2 1020   2.369   0.648   1.167  0.8883  1.1332  1.4873
  341SOL     OW 1021   1.884   2.172   0.448 -0.1474 -0.8409  0.3334
  341SOL    HW1 1022   1.904   2.193   0.347  0.6331  0.0009 -1.3707
  341SOL    HW2 1023   1.964   2.186   0.505  0.7419  0.8451  0.5375
  342SOL     OW 1024   2.207   2.156   2.793  0.0339  0.1281 -0.6295
  342SOL    HW1 1025   2.271   2.086   2.830 -1.3830  2.7143 -1.3499
  342SOL    HW2 1026   2.103   2.132   2.801 -2.9671 -0.5631 -1.3739
  343SOL     OW 1027   0.339   0.889   2.855  0.1601  0.0209 -0.3639
  343SOL    HW1 1028   0.338   0.963   2.778  0.7992 -0.5137  0.3175
  343SOL    HW2 1029   0.435   0.868   2.877 -1.3346  1.2461 -2.8438
  344SOL     OW 1030   1.882   1.503   0.353  1.2195  0.2341  0.1914
  344SOL    HW1 1031   1.842   1.414   0.318  0.8564 -0.0127 -0.3882
  344SOL    HW2 1032   1.821   1.580   0.325  2.0133 -0.4326  1.1789
  345SOL     OW 1033   1.404   2.193   2.853  0.0195 -0.1147 -0.4794
  345SOL    HW1 1034   1.317   2.158   2.810  0.9895 -1.2817 -0.2647
  345SOL    HW2 1035   1.487   2.172   2.795  0.0725 -0.4441 -0.5700
  346SOL     OW 1036   2.425   0.897   1.405 -0.4095  0.1128  0.1234
  346SOL    HW1 1037   2.377   0.981   1.439 -2.1108 -1.5545  0.1329
  346SOL    HW2 1038   2.359   0.832   1.354  0.2182 -2.6200  1.5530
  347SOL     OW 1039   0.703   2.816   1.509  0.5865  0.1932  0.3370
  347SOL    HW1 1040   0.704   2.775   1.604  0.6595 -1.5896  0.9129
  347SOL    HW2 1041   0.614   2.859   1.479  1.1961 -1.8146 -0.4341
  348SOL     OW 1042   0.079   0.694   2.837  0.3544  0.3785  0.5962
  348SOL    HW1 1043  -0.024   0.683   2.813 -1.0753 -2.6547  0.5418
  348SOL    HW2 1044   0.115   0.791   2.820  0.3915  0.2171 -1.2486
  349SOL     OW 1045   1.920   0.427   2.805 -0.1611 -0.5984  0.6788
  349SOL    HW1 1046   1.911   0.490   2.720 -1.4605 -1.7377 -1.0106
  349SOL    HW2 1047   1.866   0.456   2.888 -0.2524  0.7668  0.8580
  350SOL     OW 1048   1.644   0.381   0.378  0.1582 -0.2427  0.5389
  350SOL    HW1 1049   1.700   0.403   0.463 -0.1692 -0.4544 -2.8064
  350SOL    HW2 1050   1.617   0.472   0.333  0.6087 -0.9448 -1.9423
  351SOL     OW 1051   0.904   0.939   2.143 -0.4492 -0.1223 -0.3493
  351SOL    HW1 1052   0.933   1.024   2.094  0.9367 -0.3050  1.5089
  351SOL    HW2 1053   0.838   0.889   2.079 -1.5770  0.1451 -1.8815
  352SOL     OW 1054   1.981   1.379   0.583  0.1248 -0.2426  0.5211
  352SOL    HW1 1055   1.941   1.427   0.502 -1.5299  1.8483 -1.7332
  352SOL    HW2 1056   2.074   1.409   0.612 -2.7389  1.6012  2.5931
  353SOL     OW 1057   2.130   2.834   1.170  0.2973  0.1199 -0.3074
  353SOL    HW1 1058   2.228   2.800   1.162 -0.6134 -0.1219  2.4138
  353SOL    HW2 1059   2.061   2.764   1.128 -0.0780 -0.6554 -1.0745
  354SOL     OW 1060   0.279   1.362   2.909 -0.3037  0.4552 -0.1134
  354SOL    HW1 1061   0.241   1.437   2.846 -0.9107  0.1359  0.1286
  354SOL    HW2 1062   0.377   1.330   2.877 -0.9601  2.4459 -0.1323
  355SOL     OW 1063   0.467   1.487   0.575  0.0735  0.3021  0.2838
  355SOL    HW1 1064   0.481   1.583   0.607  0.4665 -1.2793  0.3528
  355SOL    HW2 1065   0.550   1.430   0.555 -1.1027  0.7161 -1.5627
  356SOL     OW 1066   0.881   0.451   2.085  0.3221  0.3414  0.1776
  356SOL    HW1 1067   0.983   0.467   2.074  0.7192  1.2185  1.4899
  356SOL    HW2 1068   0.843   0.380   2.015 -0.2757 -1.5134 -0.7223
  357SOL     OW 1069   1.063   1.282   0.184 -0.2069  0.1844  0.4464
  357SOL    HW1 1070   1.033   1.229   0.104 -0.9483 -0.3719  1.5315
  357SOL    HW2 1071   1.000   1.269   0.268 -2.9375 -1.6381  2.1930
  358SOL     OW 1072   1.641   1.648   0.333  0.0449 -0.4297  0.5572
  358SOL    HW1 1073   1.644   1.561   0.383  1.5949  0.8804  0.5190
  358SOL    HW2 1074   1.565   1.705   0.371  2.4949  0.2847  1.5100
  359SOL     OW 1075   1.567   2.713   0.165  0.1405  0.1703  0.3458
  359SOL    HW1 1076   1.594   2.637   0.102 -1.1465  0.3021  1.4068
  359SOL    HW2 1077   1.463   2.720   0.193 -1.8747  2.0047  1.1758
  360SOL     OW 1078   0.895   0.601   0.481  0.0513  0.5305  0.5828
  360SOL    HW1 1079   0.819   0.616   0.550  1.9106 -1.3812  1.2656
  360SOL    HW2 1080   0.905   0.503   0.447 -0.5519 -3.0010 -1.7766
  361SOL     OW 1081   1.253   1.384   0.645  0.0150  0.5495  0.2348
  361SOL    HW1 1082   1.286   1.394   0.740  0.4756  0.0779 -0.4459
  361SOL    HW2 1083   1.147   1.385   0.641 -1.2459  1.0335 -1.2421
  362SOL     OW 1084   1.393   1.760   0.778 -0.3031  0.0642  0.5472
  362SOL    HW1 1085   1.407   1.731   0.878  3.1186  1.1032 -0.7192
  362SOL    HW2 1086   1.437   1.854   0.757 -1.2888  0.4634  0.7685
  363SOL     OW 1087   1.140   1.361   2.012 -0.0546  0.5274 -0.5530
  363SOL    HW1 1088   1.108   1.445   2.062  1.8097 -0.9062 -0.6631
  363SOL    HW2 1089   1.202   1.386   1.933  1.2462  1.2550  0.8689
  364SOL     OW 1090   0.593   2.332   1.978  0.2867  0.0190 -0.5840
  364SOL    HW1 1091   0.491   2.360   1.989 -0.5136  2.3432  2.4615
  364SOL    HW2 1092   0.648   2.378   1.903 -0.1490  0.0993 -1.1517
  365SOL     OW 1093   1.131   1.881   1.420 -0.0780  0.4882 -0.1815
  365SOL    HW1 1094   1.038   1.894   1.465  0.5963  0.6896 -1.9263
  365SOL    HW2 1095   1.142   1.787   1.380 -0.0288  0.7216 -2.9251
  366SOL     OW 1096   2.794   2.053   0.464  0.4596  0.1996  0.1800
  366SOL    HW1 1097   2.706   1.999   0.474 -1.4622 -0.4166  0.5418
  366SOL    HW2 1098   2.874   1.992   0.432 -0.7452  1.3060 -0.5069
  367SOL     OW 1099   0.778   1.212   0.060 -0.3612  0.2698  0.4155
  367SOL    HW1 1100   0.821   1.138   0.117  4.4022  0.7478 -2.9974
  367SOL    HW2 1101   0.824   1.209  -0.032  0.9505  0.6471  2.6997
  368SOL     OW 1102   1.550   0.519   0.665  0.6668 -0.2944  0.3524
  368SOL    HW1 1103   1.506   0.543   0.573  0.6308 -1.6950 -0.3746
  368SOL    HW2 1104   1.652   0.521   0.660  0.8769  1.2091  2.5587
  369SOL     OW 1105   0.301   1.679   0.093 -0.2978 -0.4660  0.0066
  369SOL    HW1 1106   0.275   1.775   0.138 -1.7566  0.0405  2.6337
  369SOL    HW2 1107   0.224   1.613   0.115  2.1809  1.2718  0.1073
  370SOL     OW 1108   0.458   2.130   0.972 -0.3411 -0.1469 -0.1859
  370SOL    HW1 1109   0.460   2.230   0.952 -2.4953 -0.1996  1.0912
  370SOL    HW2 1110   0.362   2.089   0.960 -0.2642 -0.3473 -0.9685
  371SOL     OW 1111   2.919   2.227   2.785 -0.0359  0.0811 -0.5825
  371SOL    HW1 1112   2.945   2.191   2.881  0.6466 -2.2335  2.4607
  371SOL    HW2 1113   3.000   2.242   2.722 -1.5296 -0.6542  1.1397
  372SOL     OW 1114   0.897   1.886   0.994 -0.1695 -0.2757 -0.1167
  372SOL    HW1 1115   0.845   1.970   0.971  0.2838 -1.3143 -1.5536
  372SOL    HW2 1116   0.986   1.879   0.942  0.1507 -1.0308  0.2521
  373SOL     OW 1117   1.944   1.980   0.938  0.3662  0.4922  0.0469
  373SOL    HW1 1118   2.016   2.036   0.991  0.2628  1.9833 -1.0222
  373SOL    HW2 1119   1.848   2.018   0.956  0.3094  1.3514  1.0875
  374SOL     OW 1120   1.822   0.406   0.577 -0.2532  0.2207 -0.1008
  374SOL    HW1 1121   1.810   0.344   0.660  3.4540 -0.3550  0.0935
  374SOL    HW2 1122   1.913   0.385   0.527 -2.6646 -0.5698  2.9432
  375SOL     OW 1123   2.466   2.281   1.076 -0.1621 -0.1448 -0.1199
  375SOL    HW1 1124   2.497   2.249   0.980  0.1727  0.8771 -1.2574
  375SOL    HW2 1125   2.502   2.226   1.158  1.6356  1.3874  1.4213
  376SOL     OW 1126   3.082   0.635   1.424 -0.1741 -0.1148 -0.1814
  376SOL    HW1 1127   3.133   0.713   1.475  0.5569  0.6129 -0.2503
  376SOL    HW2 1128   2.982   0.646   1.428  2.2228  0.6295 -0.8933
  377SOL     OW 1129   2.241   2.838   0.352  0.2102  0.3653  0.3219
  377SOL    HW1 1130   2.222   2.886   0.264  1.7913  0.2699 -1.2057
  377SOL    HW2 1131   2.345   2.842   0.376  0.5584  0.4951 -1.8138
  378SOL     OW 1132   1.896   1.856   2.667  0.2297 -0.1723  0.3739
  378SOL    HW1 1133   1.929   1.762   2.706  0.8114 -0.1186 -3.6242
  378SOL    HW2 1134   1.886   1.857   2.563  1.2653  0.6571 -0.9835
  379SOL     OW 1135   0.880   0.116   2.729 -0.0845 -0.4945  0.0844
  379SOL    HW1 1136   0.859   0.020   2.697  1.8373 -0.9080 -3.4765
  379SOL    HW2 1137   0.804   0.184   2.705 -0.1914  0.6502  0.1638
  380SOL     OW 1138   1.548   1.172   0.545 -0.1464  0.6841  0.1173
  380SOL    HW1 1139   1.525   1.093   0.477 -1.5628 -1.6916  2.0477
  380SOL    HW2 1140   1.482   1.178   0.624 -0.3123  0.2690  0.9411
  381SOL     OW 1141   1.279   1.217   1.490 -0.4352  0.0473 -0.1428
  381SOL    HW1 1142   1.332   1.263   1.416  1.5287 -1.6044  0.6018
  381SOL    HW2 1143   1.319   1.245   1.584  1.4488 -1.6083 -1.3336
  382SOL     OW 1144   1.786   0.804   0.271 -0.0721 -0.1197  0.2383
  382SOL    HW1 1145   1.784   0.762   0.174 -0.1822 -2.3279 -0.4225
  382SOL    HW2 1146   1.850   0.754   0.333  0.0740  2.2659  4.2216
  383SOL     OW 1147   2.674   0.998   1.563 -0.4757  0.1727 -0.2649
  383SOL    HW1 1148   2.585   0.969   1.507 -0.2983 -1.5811 -0.0849
  383SOL    HW2 1149   2.759   0.979   1.512 -2.7710 -0.8191  0.0045
  384SOL     OW 1150   1.023   2.288   0.162 -0.1414 -0.5563  0.0120
  384SOL    HW1 1151   0.945   2.348   0.187 -0.5141  0.5373  4.5903
  384SOL    HW2 1152   1.036   2.208   0.227  1.7375  1.5418 -1.8050
  385SOL     OW 1153   3.014   2.058   1.706  0.0757  0.5218 -0.3976
  385SOL    HW1 1154   3.095   2.119   1.716 -0.3515 -5.9128  1.5628
  385SOL    HW2 1155   3.053   1.975   1.654 -1.2474 -0.3025 -0.1481
  386SOL     OW 1156   0.459   1.076   0.427  0.2886 -0.1194  0.0334
  386SOL    HW1 1157   0.451   0.976   0.426  0.2812 -0.4583  1.0748
  386SOL    HW2 1158   0.381   1.127   0.380 -1.1270  0.6358 -1.1781
  387SOL     OW 1159   0.972   0.374   1.674 -0.4630 -0.1090  0.1601
  387SOL    HW1 1160   1.060   0.438   1.668  0.2277  0.2550 -3.3133
  387SOL    HW2 1161   0.980   0.298   1.607  0.8417 -0.4513  0.3139
  388SOL     OW 1162   1.257   2.591   1.776 -0.0411 -0.2560 -0.1051
  388SOL    HW1 1163   1.274   2.585   1.674 -0.3899  0.5684  1.2523
  388SOL    HW2 1164   1.298   2.519   1.836  0.1226  1.2501 -0.5969
  389SOL     OW 1165   0.274   0.041   1.144 -0.0981 -0.1206  0.2066
  389SOL    HW1 1166   0.229   0.023   1.238 -1.2165 -1.1127  2.4645
  389SOL    HW2 1167   0.330  -0.036   1.106  0.3761  0.9019 -0.3943
  390SOL     OW 1168   1.059   0.831   1.207 -0.9059  0.0048  0.8096
  390SOL    HW1 1169   1.164   0.812   1.200 -0.2405  1.0195 -0.0876
  390SOL    HW2 1170   1.038   0.859   1.300  2.8872 -1.2948  0.5307
  391SOL     OW 1171   2.138   1.177   1.015  0.2801  0.4837 -0.1446
  391SOL    HW1 1172   2.080   1.103   1.057 -0.2851 -2.2906 -0.8259
  391SOL    HW2 1173   2.187   1.145   0.926 -0.0078  1.5571 -1.6062
  392SOL     OW 1174   0.916   2.690   0.017 -0.0027 -0.2121 -0.0164
  392SOL    HW1 1175   0.838   2.686   0.085  0.9715 -0.2742 -1.7877
  392SOL    HW2 1176   1.002   2.734   0.050 -2.4259 -1.5080  0.1287
  393SOL     OW 1177   0.344   0.567   1.982  0.3775 -0.1977  0.1990
  393SOL    HW1 1178   0.265   0.527   1.925 -1.6296  0.1849  1.0017
  393SOL    HW2 1179   0.441   0.537   1.949 -1.4467 -1.7465 -2.0513
  394SOL     OW 1180   2.840   1.758   2.749  0.1212 -0.5598  0.2891
  394SOL    HW1 1181   2.894   1.786   2.663  0.1717  0.8249 -4.3070
  394SOL    HW2 1182   2.785   1.836   2.796 -1.7198 -0.1515  1.2778
  395SOL     OW 1183   1.577   1.940   0.684  0.7785  0.0446 -0.5398
  395SOL    HW1 1184   1.641   1.874   0.626  1.9887  0.9565  1.2691
  395SOL    HW2 1185   1.622   1.970   0.776  0.4305 -1.0612 -0.5334
  396SOL     OW 1186   2.774   2.026   1.306  0.0853  0.1290 -0.3071
  396SOL    HW1 1187   2.764   2.095   1.380 -0.1405  0.5078  0.3431
  396SOL    HW2 1188   2.689   1.969   1.294  1.1814  0.2621  0.3352
  397SOL     OW 1189   0.988   2.134   0.677  0.2997  0.1865 -0.1277
  397SOL    HW1 1190   0.918   2.092   0.614 -0.6306 -1.3581 -0.0824
  397SOL    HW2 1191   0.945   2.211   0.734 -1.3812 -4.6926 -0.9308
  398SOL     OW 1192   2.200   0.009   1.081 -0.8584  0.2585  0.1842
  398SOL    HW1 1193   2.163  -0.073   1.129  0.5246  2.7296  0.1645
  398SOL    HW2 1194   2.123   0.076   1.052 -4.3219  0.0178 -2.7502
  399SOL     OW 1195   2.877   2.603   2.750  0.3456  0.2242 -0.1567
  399SOL    HW1 1196   2.843   2.577   2.655  0.2732 -1.4049 -1.4464
  399SOL    HW2 1197   2.844   2.535   2.826 -3.4243 -0.8783 -0.0273
  400SOL     OW 1198   0.806   1.585   1.285 -0.2698  0.0760 -0.3470
  400SOL    HW1 1199   0.764   1.626   1.374 -2.8356  1.9055  0.0213
  400SOL    HW2 1200   0.752   1.612   1.200 -0.9996 -1.0224 -0.3422
  401SOL     OW 1201   1.866   0.103   1.295  0.1203 -0.5195 -0.1462
  401SOL    HW1 1202   1.913   0.146   1.377 -2.8516  0.1292  0.7052
  401SOL    HW2 1203   1.767   0.073   1.321 -0.1106  0.4397  0.5131
  402SOL     OW 1204   1.350   0.191   3.032  0.2167  0.1538 -0.2057
  402SOL    HW1 1205   1.454   0.180   3.034 -3.9862  1.9840  1.8277
  402SOL    HW2 1206   1.332   0.280   3.082  3.3141 -1.3428  0.1322
  403SOL     OW 1207   2.264   1.797   1.003 -0.2378 -0.3071  0.2254
  403SOL    HW1 1208   2.366   1.791   1.033  1.4740 -3.0263  0.6190
  403SOL    HW2 1209   2.228   1.892   1.018  2.8743 -0.6130  0.4803
  404SOL     OW 1210   0.222   2.448   2.749  0.0913  0.0476 -0.2996
  404SOL    HW1 1211   0.329   2.445   2.731 -0.5440 -1.0928 -0.8938
  404SOL    HW2 1212   0.196   2.540   2.793 -0.6607 -0.8630  3.6006
  405SOL     OW 1213   0.207   2.518   0.571  0.6348 -0.5791  0.2047
  405SOL    HW1 1214   0.250   2.445   0.517  1.2309  2.4851 -1.8595
  405SOL    HW2 1215   0.276   2.586   0.608 -1.1870 -0.7771  0.4124
  406SOL     OW 1216   0.017   1.580   2.991 -0.3090 -0.5199 -0.5773
  406SOL    HW1 1217   0.073   1.527   2.924  0.7571  0.5219  0.0638
  406SOL    HW2 1218   0.031   1.554   3.093  1.5791  1.5031  2.0898
  407SOL     OW 1219   1.557   0.977   0.954 -0.0925 -0.0241 -0.0093
  407SOL    HW1 1220   1.587   0.929   0.868  1.2407 -0.5490  0.6992
  407SOL    HW2 1221   1.475   1.037   0.942  0.8402 -0.4194 -3.1790
  408SOL     OW 1222   1.440   2.327   0.943 -0.0975  1.1883 -0.0331
  408SOL    HW1 1223   1.524   2.313   0.889 -1.1546  0.1182 -0.8982
  408SOL    HW2 1224   1.450   2.401   1.014  0.2327  0.4182 -1.1311
  409SOL     OW 1225   0.626   0.872   0.675 -0.1074 -0.3589 -0.0789
  409SOL    HW1 1226   0.550   0.903   0.610  1.4283  1.8254  2.3078
  409SOL    HW2 1227   0.661   0.777   0.655 -2.9938  1.0838  0.2961
  410SOL     OW 1228   1.360   1.996   1.501 -0.3585  0.2785 -0.2490
  410SOL    HW1 1229   1.319   2.070   1.564 -2.2820 -2.8511  0.9038
  410SOL    HW2 1230   1.277   1.929   1.475 -2.3236 -1.5081  0.4301
  411SOL     OW 1231   2.384   1.845   0.062 -0.6851  0.2141 -0.0147
  411SOL    HW1 1232   2.306   1.889   0.007 -1.4450 -0.9379  0.7114
  411SOL    HW2 1233   2.475   1.876   0.028 -0.4738  0.9308 -0.1781
  412SOL     OW 1234   1.572   2.410   2.298 -0.5478 -0.0425 -0.2452
  412SOL    HW1 1235   1.558   2.508   2.332 -1.6374  1.0599 -0.0565
  412SOL    HW2 1236   1.556   2.332   2.368  0.4786 -3.2007 -4.4420
  413SOL     OW 1237   3.032   0.295   2.857  0.0263  0.0719  0.4426
  413SOL    HW1 1238   2.978   0.209   2.893 -0.0641 -2.5113 -0.2966
  413SOL    HW2 1239   3.132   0.302   2.890  0.3444  1.3016 -0.1191
  414SOL     OW 1240   1.761   1.310   1.318  0.3393 -0.3443 -0.0355
  414SOL    HW1 1241   1.706   1.392   1.330  0.7127  1.4214  1.5890
  414SOL    HW2 1242   1.768   1.280   1.214  0.0675 -0.5093 -1.3362
  415SOL     OW 1243   0.281   2.261   0.719  0.6853  0.1455  0.2065
  415SOL    HW1 1244   0.238   2.354   0.723 -0.9617  3.6538  0.0794
  415SOL    HW2 1245   0.204   2.193   0.688 -0.3706 -2.4140  1.6204
  416SOL     OW 1246   0.335   1.025   1.037 -0.7758 -0.0139 -0.5432
  416SOL    HW1 1247   0.293   0.995   0.948  1.1233  1.6206  0.9045
  416SOL    HW2 1248   0.435   1.047   1.030  1.2741 -3.7311 -0.7286
  417SOL     OW 1249   2.173   2.343   1.882  0.2367 -0.0074 -0.3523
  417SOL    HW1 1250   2.214   2.246   1.891 -1.7334 -0.9808  1.1291
  417SOL    HW2 1251   2.080   2.353   1.928  2.0630 -1.2960  1.7583
  418SOL     OW 1252   1.115   0.493   1.380 -0.0830 -0.7731 -0.1307
  418SOL    HW1 1253   1.040   0.426   1.365  0.7339  1.6642  2.2434
  418SOL    HW2 1254   1.186   0.495   1.298 -1.6716 -0.8016  1.9103
  419SOL     OW 1255   0.956   0.366   2.981  0.5178 -0.0799 -0.5106
  419SOL    HW1 1256   0.987   0.414   2.893 -3.8991  1.4589 -1.1401
  419SOL    HW2 1257   0.922   0.270   2.960 -1.0581 -0.6958 -0.3528
  420SOL     OW 1258   0.185   2.274   0.358  0.1708  0.2100 -0.0273
  420SOL    HW1 1259   0.179   2.252   0.259  0.3103 -1.5226  0.3636
  420SOL    HW2 1260   0.093   2.259   0.408 -3.2540 -4.3576 -0.6906
  421SOL     OW 1261   0.331   0.070   0.688 -0.0853  0.1318 -0.1328
  421SOL    HW1 1262   0.340  -0.004   0.615  0.6800  2.6872 -0.1705
  421SOL    HW2 1263   0.425   0.106   0.716 -0.5288 -2.0271  1.1058
  422SOL     OW 1264   0.941   2.524   1.053  0.0330 -0.0661  0.4015
  422SOL    HW1 1265   0.958   2.619   1.005  1.2828 -0.0675 -2.1470
  422SOL    HW2 1266   0.942   2.530   1.157 -1.7164 -1.2895 -1.2840
  423SOL     OW 1267   0.047   0.720   1.166 -0.0865  0.5072  0.2617
  423SOL    HW1 1268   0.002   0.651   1.228  0.7602  1.8597  1.0715
  423SOL    HW2 1269  -0.022   0.784   1.117  0.9078  0.4273  2.2837
  424SOL     OW 1270   0.971   2.131   2.232 -0.0046 -0.0773 -0.1770
  424SOL    HW1 1271   0.935   2.194   2.155 -1.0189  0.3330 -1.1626
  424SOL    HW2 1272   0.918   2.147   2.321  0.4784  0.4597  0.9009
  425SOL     OW 1273   1.997   1.436   1.096  0.2014 -0.0479 -0.4421
  425SOL    HW1 1274   2.023   1.333   1.096 -3.1690 -1.2205  2.1304
  425SOL    HW2 1275   2.037   1.498   1.025 -0.4696 -0.8416 -0.7349
  426SOL     OW 1276   1.554   1.545   1.388  0.7524  0.0521  0.2209
  426SOL    HW1 1277   1.508   1.632   1.348 -0.2927  0.7950 -0.4706
  426SOL    HW2 1278   1.545   1.538   1.490 -0.4502 -0.8264  1.1861
  427SOL     OW 1279   1.938   2.349   2.035 -0.7698 -0.0750 -0.2077
  427SOL    HW1 1280   1.981   2.302   2.117 -0.8901  0.7135  0.4689
  427SOL    HW2 1281   1.931   2.455   2.048  0.1599 -2.6489  0.6240
  428SOL     OW 1282   0.915   3.085   0.066 -0.0666 -0.2140  0.5745
  428SOL    HW1 1283   0.972   3.169   0.101  1.2699  1.2944 -1.1674
  428SOL    HW2 1284   0.972   2.998   0.063  2.0106 -1.0871 -0.6461
  429SOL     OW 1285   1.282   0.059   0.237  0.5685  0.1680  0.2327
  429SOL    HW1 1286   1.357   0.123   0.213  0.3819 -0.3344  0.4892
  429SOL    HW2 1287   1.270  -0.027   0.177  1.1383  1.4603 -0.3511
  430SOL     OW 1288   2.781   1.493   0.336  0.2362 -0.0194  0.1833
  430SOL    HW1 1289   2.715   1.554   0.290 -0.1096  2.0635  0.8836
  430SOL    HW2 1290   2.809   1.538   0.429 -0.5526  1.3557 -0.6647
  431SOL     OW 1291   2.113   1.611   0.895  0.3922 -0.3054 -0.7653
  431SOL    HW1 1292   2.180   1.674   0.948 -0.4038 -0.0894 -1.5018
  431SOL    HW2 1293   2.029   1.658   0.860  0.4622 -1.1232 -1.4988
  432SOL     OW 1294   2.890   2.271   1.215 -0.3638  0.6265  0.0144
  432SOL    HW1 1295   2.870   2.174   1.227  0.3732  1.6341 -2.6085
  432SOL    HW2 1296   2.926   2.313   1.301 -1.0490  0.0113 -2.5948
  433SOL     OW 1297   1.854   0.257   0.811  0.1409 -0.0696  0.1891
  433SOL    HW1 1298   1.779   0.255   0.880  2.9249  1.5928 -0.6308
  433SOL    HW2 1299   1.948   0.278   0.852 -0.9607 -0.1736 -0.1935
  434SOL     OW 1300   1.503   0.243   0.717  0.4413  0.4064 -0.4751
  434SOL    HW1 1301   1.509   0.337   0.682 -1.9806 -2.3102 -1.6428
  434SOL    HW2 1302   1.547   0.239   0.815  2.6314  1.0462  2.8164
  435SOL     OW 1303   1.421   1.467   2.091 -0.1108  0.2701  0.1723
  435SOL    HW1 1304   1.386   1.470   2.187  0.7086  0.5186 -1.2989
  435SOL    HW2 1305   1.378   1.534   2.031  1.5455 -0.7625  0.3061
  436SOL     OW 1306   1.646   2.690   2.392 -0.1712 -0.1877 -0.3489
  436SOL    HW1 1307   1.651   2.791   2.425 -0.9100  1.6565  1.7974
  436SOL    HW2 1308   1.580   2.642   2.459 -1.7287 -0.4460 -0.0289
  437SOL     OW 1309   0.987   2.963   0.888  0.2394  0.2706 -0.4209
  437SOL    HW1 1310   0.960   3.059   0.860  1.3197  0.6498  0.4865
  437SOL    HW2 1311   1.023   2.954   0.982 -1.9029 -1.2466 -1.6544
  438SOL     OW 1312   0.995   2.518   1.318 -0.0284  0.2260  0.0249
  438SOL    HW1 1313   1.076   2.576   1.346  1.4205 -2.1578  0.3495
  438SOL    HW2 1314   1.006   2.419   1.354  3.0680 -1.3419  1.5816
  439SOL     OW 1315   0.709   1.688   1.040  0.2237  0.5754 -0.0518
  439SOL    HW1 1316   0.774   1.772   1.033  0.4142  0.2530 -0.7372
  439SOL    HW2 1317   0.617   1.711   1.079  1.0577 -0.5954 -1.1916
  440SOL     OW 1318   0.950   2.376   1.998 -0.1446 -0.0915  0.2741
  440SOL    HW1 1319   0.923   2.436   1.918  1.7134  0.7242 -2.3980
  440SOL    HW2 1320   1.025   2.312   1.974  0.3559  1.9278  3.3150
  441SOL     OW 1321   0.363   2.786   1.321  0.5439 -0.6325 -0.2681
  441SOL    HW1 1322   0.412   2.697   1.314  2.2003  0.9816 -1.5526
  441SOL    HW2 1323   0.375   2.846   1.237  2.4953 -0.2797  2.5235
  442SOL     OW 1324   2.235   0.682   2.559  0.1111 -0.4027  0.0624
  442SOL    HW1 1325   2.255   0.583   2.527 -1.9007 -1.0576  0.4083
  442SOL    HW2 1326   2.153   0.720   2.510 -0.2593 -0.1333 -1.3632
  443SOL     OW 1327   1.260   2.565   2.186 -0.3354 -0.2245 -0.4163
  443SOL    HW1 1328   1.250   2.466   2.211  1.2509  1.0401 -0.8281
  443SOL    HW2 1329   1.214   2.625   2.258 -0.8700 -1.3864 -0.8522
  444SOL     OW 1330   0.956   1.192   1.485  0.5626  0.6372 -0.2412
  444SOL    HW1 1331   1.057   1.161   1.489  0.6268 -0.5684  1.5126
  444SOL    HW2 1332   0.947   1.296   1.464 -0.2998  0.6697  1.1366
  445SOL     OW 1333   0.149   2.230   2.105  0.3450  0.5386  0.3250
  445SOL    HW1 1334   0.194   2.143   2.075  0.5287  1.6217 -2.7451
  445SOL    HW2 1335   0.103   2.225   2.203 -2.3974 -0.6148  2.5227
  446SOL     OW 1336   0.118   1.946   2.407  0.0505  0.2350 -0.0174
  446SOL    HW1 1337   0.087   2.044   2.398 -1.6137 -0.0962  1.1132
  446SOL    HW2 1338   0.112   1.894   2.315  2.1454 -2.0120 -2.8078
  447SOL     OW 1339   1.304   1.681   1.907  0.2718  1.1674 -0.2674
  447SOL    HW1 1340   1.243   1.760   1.883 -0.8594  0.0665  0.2730
  447SOL    HW2 1341   1.391   1.708   1.959  0.3924 -1.2540  1.0546
  448SOL     OW 1342   0.170   1.472   1.998  0.1738 -0.1331  0.3556
  448SOL    HW1 1343   0.175   1.574   1.968  1.5436  1.2943  0.1954
  448SOL    HW2 1344   0.100   1.460   2.072  2.8642 -0.9574 -3.0167
  449SOL     OW 1345   1.847   2.963   0.823 -0.1828 -0.5201 -0.4895
  449SOL    HW1 1346   1.844   3.007   0.916  0.9434 -4.1491 -0.5375
  449SOL    HW2 1347   1.904   2.869   0.819 -0.9447 -0.8839  0.0687
  450SOL     OW 1348   2.241   1.490   0.686 -0.1142 -0.2955  0.0304
  450SOL    HW1 1349   2.215   1.532   0.779  2.9465  0.2971  0.1184
  450SOL    HW2 1350   2.303   1.555   0.629 -0.0586 -1.9477  0.4184
  451SOL     OW 1351   1.418   2.979   1.469  0.1950  0.2795 -0.6407
  451SOL    HW1 1352   1.351   3.052   1.507 -1.2498  0.4113 -2.7089
  451SOL    HW2 1353   1.471   2.920   1.542  2.9754 -0.7419  0.8890
  452SOL     OW 1354   2.698   2.307   2.273 -0.1655 -0.2177 -0.2952
  452SOL    HW1 1355   2.638   2.395   2.266 -1.5726  1.0615  1.8672
  452SOL    HW2 1356   2.730   2.286   2.369  1.9351  0.9083 -0.1286
  453SOL     OW 1357   2.452   2.652   0.011 -0.2692 -0.0753 -0.0798
  453SOL    HW1 1358   2.363   2.698   0.033  2.4706 -2.9472 -0.3902
  453SOL    HW2 1359   2.439   2.591  -0.070  0.2652  3.0873 -2.2400
  454SOL     OW 1360   0.917   1.190   2.000  0.5004  0.3268 -0.0613
  454SOL    HW1 1361   0.900   1.175   1.898  0.1747  0.7456 -0.5546
  454SOL    HW2 1362   0.997   1.256   2.023  0.7340  0.0574 -0.3359
  455SOL     OW 1363   0.701   2.620   2.817  0.1349  0.1017 -0.3144
  455SOL    HW1 1364   0.800   2.653   2.804 -0.5583 -1.4536  0.7995
  455SOL    HW2 1365   0.683   2.536   2.880  1.6909 -0.3628  2.2010
  456SOL     OW 1366   0.303   1.930   0.217 -0.0178  0.3034 -0.0998
  456SOL    HW1 1367   0.405   1.920   0.204 -0.4198 -1.1207  1.3753
  456SOL    HW2 1368   0.263   2.019   0.180  0.4706 -0.5892 -1.2279
  457SOL     OW 1369   0.414   2.681   0.658 -0.5490  0.7003 -0.1692
  457SOL    HW1 1370   0.464   2.719   0.579  0.0125  2.0833  2.9929
  457SOL    HW2 1371   0.475   2.624   0.721  0.4370  1.2371  1.0240
  458SOL     OW 1372   2.924   0.020   1.278 -0.0888 -0.0355  0.0117
  458SOL    HW1 1373   2.990   0.098   1.260  0.4909  2.0827  1.1942
  458SOL    HW2 1374   2.931  -0.049   1.203 -1.9282  0.6397 -0.3005
  459SOL     OW 1375   2.145   2.529   0.719 -0.1926 -0.2500 -0.1245
  459SOL    HW1 1376   2.217   2.524   0.793  0.2461  2.9042 -1.6821
  459SOL    HW2 1377   2.185   2.574   0.631  2.3519 -0.0018 -0.2050
  460SOL     OW 1378   1.152   2.036   2.776 -0.1213 -0.4403 -0.5136
  460SOL    HW1 1379   1.187   2.065   2.680  1.0363  0.1162 -1.1771
  460SOL    HW2 1380   1.194   1.944   2.801 -0.2021  0.6839 -1.1185
  461SOL     OW 1381   0.471   2.136   2.726  0.1945 -0.2211 -0.5210
  461SOL    HW1 1382   0.391   2.087   2.671 -0.9012  1.9356  1.1203
  461SOL    HW2 1383   0.493   2.093   2.818 -2.0744  1.8891 -0.8578
  462SOL     OW 1384   0.936   1.026   1.740 -0.2269  0.0130  0.3026
  462SOL    HW1 1385   0.938   0.961   1.658  2.4963 -0.4537  2.3167
  462SOL    HW2 1386   0.907   1.123   1.715  1.8640 -0.7784  0.2744
  463SOL     OW 1387   0.420   0.802   0.476 -0.2203  0.2590 -0.1836
  463SOL    HW1 1388   0.458   0.716   0.430 -0.5095  1.6214  0.5345
  463SOL    HW2 1389   0.318   0.808   0.477  1.0567 -2.3808  0.2081
  464SOL     OW 1390   0.586   2.365   2.285  1.0490  0.0601  0.1206
  464SOL    HW1 1391   0.523   2.434   2.334 -2.0266  1.2039 -2.3847
  464SOL    HW2 1392   0.589   2.379   2.181  0.2556 -1.0752 -1.9503
  465SOL     OW 1393   0.234   0.975   0.788 -0.0585 -0.0243  0.0633
  465SOL    HW1 1394   0.156   0.988   0.720 -1.5942  1.5622  2.2153
  465SOL    HW2 1395   0.266   0.876   0.783 -0.0949  1.9564 -1.7218
  466SOL     OW 1396   1.330   1.138   0.965  0.0987  0.2163  1.1095
  466SOL    HW1 1397   1.332   1.240   0.951  0.2181 -1.7322 -0.9932
  466SOL    HW2 1398   1.236   1.098   0.976 -1.0084  1.1022 -0.4681
  467SOL     OW 1399   0.636   0.474   2.550 -0.4521 -0.4282 -0.3402
  467SOL    HW1 1400   0.552   0.536   2.558  2.4350  0.0265 -1.5515
  467SOL    HW2 1401   0.626   0.393   2.615  0.7181  1.1056  1.0446
  468SOL     OW 1402   0.449   2.266   1.567  0.3936 -0.1608  0.3029
  468SOL    HW1 1403   0.527   2.327   1.600  0.7388 -1.4650 -0.3402
  468SOL    HW2 1404   0.457   2.245   1.466  2.0445 -1.5847  0.6802
  469SOL     OW 1405   1.447   1.342   1.243  0.2955  0.0874 -0.8171
  469SOL    HW1 1406   1.509   1.338   1.163 -3.2020  1.8385 -0.8023
  469SOL    HW2 1407   1.467   1.423   1.307 -2.2891  1.5155  2.5180
  470SOL     OW 1408   2.998   1.811   0.810  0.3527  0.1215 -0.5403
  470SOL    HW1 1409   3.050   1.883   0.759 -0.2891 -0.0962  1.8986
  470SOL    HW2 1410   3.017   1.799   0.910 -2.0775 -3.0888  1.2576
  471SOL     OW 1411   2.661   1.379   2.197 -0.4068 -0.0585 -0.0969
  471SOL    HW1 1412   2.642   1.281   2.190 -1.5001  1.1952  0.1770
  471SOL    HW2 1413   2.752   1.406   2.238 -0.6173 -0.0836  0.3073
  472SOL     OW 1414   1.212   2.444   0.031 -0.4339  0.5904 -0.3200
  472SOL    HW1 1415   1.268   2.489   0.106 -1.8901  1.0127  0.1307
  472SOL    HW2 1416   1.136   2.384   0.068 -1.6511 -0.1414 -0.0810
  473SOL     OW 1417   1.080   1.520   0.998  0.3793  0.3271 -0.0639
  473SOL    HW1 1418   0.996   1.524   0.938 -0.8238  0.0838 -0.3350
  473SOL    HW2 1419   1.071   1.447   1.073  0.8892 -0.7474 -0.5772
  474SOL     OW 1420   0.626   1.283   0.492 -0.1445  0.5112  0.2065
  474SOL    HW1 1421   0.561   1.212   0.453  3.3389 -1.2182  0.0669
  474SOL    HW2 1422   0.697   1.241   0.553 -1.1303 -0.7279  1.3061
  475SOL     OW 1423   2.828   0.059   0.823 -0.4257  0.2323  0.1326
  475SOL    HW1 1424   2.879   0.144   0.855  1.4426 -1.9640  2.9911
  475SOL    HW2 1425   2.731   0.054   0.857 -1.5316 -1.6765 -2.7111
  476SOL     OW 1426   0.947   3.054   1.824  0.0363  0.3901  0.0029
  476SOL    HW1 1427   1.048   3.087   1.834 -0.0225  2.5963 -0.2157
  476SOL    HW2 1428   0.922   3.031   1.725 -1.1696 -1.9655  0.3017
  477SOL     OW 1429   1.436   0.329   2.435 -0.2275  0.1009 -0.5660
  477SOL    HW1 1430   1.434   0.344   2.537  1.3954  1.0042 -0.5156
  477SOL    HW2 1431   1.519   0.269   2.413  0.4363  1.1827  0.4298
  478SOL     OW 1432   2.227   1.906   0.291 -0.6474 -0.6061 -0.3513
  478SOL    HW1 1433   2.166   1.844   0.357 -0.8885 -0.8418  0.8413
  478SOL    HW2 1434   2.285   1.856   0.224  0.8678  0.9230  0.3776
  479SOL     OW 1435   1.307   0.946   2.879  0.6654 -0.1734  0.4082
  479SOL    HW1 1436   1.406   0.946   2.848  1.3886 -1.3853  0.5256
  479SOL    HW2 1437   1.245   0.885   2.828  0.0638 -0.7115  0.9342
  480SOL     OW 1438   2.697   2.303   0.417 -0.3918 -0.2465 -0.3558
  480SOL    HW1 1439   2.732   2.206   0.420 -0.8215 -1.5915  1.5019
  480SOL    HW2 1440   2.595   2.294   0.441 -1.9483 -1.5606  1.5555
  481SOL     OW 1441   0.965   1.150   0.823  0.4281  0.1543  0.8561
  481SOL    HW1 1442   0.949   1.249   0.797  0.3668  1.7828  1.8164
  481SOL    HW2 1443   0.997   1.135   0.920  0.1133  0.0956 -1.4378
  482SOL     OW 1444   1.619   0.299   2.035  0.4147  0.0143 -0.2289
  482SOL    HW1 1445   1.630   0.400   2.014  0.1185  0.1374  0.7672
  482SOL    HW2 1446   1.702   0.248   2.070  0.1516  1.1086 -1.6146
  483SOL     OW 1447   0.123   2.361   1.198  0.8562 -0.3186 -0.5142
  483SOL    HW1 1448   0.126   2.413   1.289 -0.1719 -1.1838  1.2538
  483SOL    HW2 1449   0.158   2.412   1.119 -0.2648 -3.5502 -0.2460
  484SOL     OW 1450   1.710   1.061   1.472  0.0159 -0.2518 -0.3870
  484SOL    HW1 1451   1.804   1.015   1.479 -1.4115 -0.8464 -2.2761
  484SOL    HW2 1452   1.715   1.163   1.441  0.4101  0.4677 -0.2060
  485SOL     OW 1453   0.749   0.751   1.936  0.1546  0.4401 -1.0523
  485SOL    HW1 1454   0.724   0.791   1.844 -0.3873 -1.7028  1.9965
  485SOL    HW2 1455   0.841   0.703   1.931 -0.7934  0.5546 -2.7533
  486SOL     OW 1456   0.881   1.891   2.442 -0.3133 -0.0023  0.0653
  486SOL    HW1 1457   0.894   1.872   2.541  2.6707  0.7817 -1.6874
  486SOL    HW2 1458   0.857   1.992   2.430 -0.9856  2.3412  1.9750
  487SOL     OW 1459   1.768   1.587   1.060  0.0214 -0.1240  0.7123
  487SOL    HW1 1460   1.839   1.511   1.081  1.6702  0.0369 -2.5112
  487SOL    HW2 1461   1.797   1.636   0.972  0.7374  2.0716  0.6462
  488SOL     OW 1462   2.936   0.795   2.231 -0.3196  0.3966 -0.4707
  488SOL    HW1 1463   3.026   0.747   2.260  0.2101 -1.5148 -1.7623
  488SOL    HW2 1464   2.862   0.783   2.301 -0.0831  0.2134 -1.3711
  489SOL     OW 1465   2.787   0.353   1.311 -0.3218 -0.2960  0.3087
  489SOL    HW1 1466   2.771   0.308   1.404  1.7427  0.9271  0.5050
  489SOL    HW2 1467   2.855   0.303   1.248 -1.9266 -0.9599 -1.3631
  490SOL     OW 1468   1.486   2.942   2.820  0.0778 -0.2851  0.0377
  490SOL    HW1 1469   1.532   2.848   2.811 -0.3753 -1.8788  2.3760
  490SOL    HW2 1470   1.437   2.974   2.735 -1.0809 -1.7217 -1.0085
  491SOL     OW 1471   1.803   1.444   2.722 -0.5172  0.0352 -0.2371
  491SOL    HW1 1472   1.778   1.413   2.819  2.0216 -2.3378  1.1932
  491SOL    HW2 1473   1.868   1.523   2.734 -0.5112  1.0980 -0.5846
  492SOL     OW 1474   0.609   2.089   0.584 -0.2993  0.1228 -0.0017
  492SOL    HW1 1475   0.640   2.100   0.680 -2.0316 -0.5408  0.6731
  492SOL    HW2 1476   0.507   2.114   0.567 -5.7196  2.0777 -0.5211
  493SOL     OW 1477   0.405   1.327   2.080 -0.3399  0.1243  0.0845
  493SOL    HW1 1478   0.325   1.372   2.031 -0.6541 -2.5280  2.4706
  493SOL    HW2 1479   0.370   1.252   2.144  0.8040 -0.7747  0.3531
  494SOL     OW 1480   2.698   2.643   0.149  0.2222  0.2223 -0.5234
  494SOL    HW1 1481   2.704   2.626   0.252 -0.3752 -1.1095  0.1521
  494SOL    HW2 1482   2.603   2.660   0.118 -0.9838  0.9059  0.6697
  495SOL     OW 1483   2.521   2.803   2.631  0.4997  0.1370 -0.2818
  495SOL    HW1 1484   2.541   2.702   2.633 -0.6133  1.5068 -0.5227
  495SOL    HW2 1485   2.591   2.849   2.577 -2.5876 -0.9369  2.2499
  496SOL     OW 1486   1.945   2.319   0.815  0.1851  0.3252  0.3922
  496SOL    HW1 1487   1.994   2.332   0.906 -0.2544  0.3831  1.7210
  496SOL    HW2 1488   2.011   2.282   0.742 -1.5821 -2.5789  4.0162
  497SOL     OW 1489   0.267   2.993   2.354 -0.2529  0.1011 -0.2861
  497SOL    HW1 1490   0.222   3.063   2.409 -0.3257 -2.0021 -2.7224
  497SOL    HW2 1491   0.341   3.023   2.294 -1.4593 -1.8193  0.4843
  498SOL     OW 1492   1.158   1.335   1.213 -0.6256  0.0138 -0.0088
  498SOL    HW1 1493   1.262   1.365   1.214  1.8626 -0.7623  1.0366
  498SOL    HW2 1494   1.108   1.387   1.289  2.3335  1.8291  1.7922
  499SOL     OW 1495   0.594   1.814   0.371  0.0280  0.6636 -0.6472
  499SOL    HW1 1496   0.608   1.813   0.271 -0.9037 -0.7343 -1.1601
  499SOL    HW2 1497   0.677   1.842   0.430  0.3724  2.3853 -0.2028
  500SOL     OW 1498   1.521   2.808   1.663  0.6661 -0.1994 -0.0181
  500SOL    HW1 1499   1.558   2.765   1.753  1.1079  1.3768 -1.0489
  500SOL    HW2 1500   1.520   2.741   1.590 -0.5772  3.0661  2.1496
  501SOL     OW 1501   0.786   1.184   2.269  0.0930 -0.7878 -0.5055
  501SOL    HW1 1502   0.733   1.101   2.308  2.4772  0.8956  2.2624
  501SOL    HW2 1503   0.798   1.187   2.166  0.7057  0.5662 -0.6778
  502SOL     OW 1504   2.573   0.921   1.799  0.2173 -0.2871  0.2581
  502SOL    HW1 1505   2.619   0.952   1.708  0.7930  2.9260 -4.0321
  502SOL    HW2 1506   2.542   0.821   1.796  0.9827  0.5414 -0.9153
  503SOL     OW 1507   1.255   0.119   0.686  0.5443  0.0529 -0.1066
  503SOL    HW1 1508   1.197   0.203   0.669 -2.0776 -0.2911  1.6100
  503SOL    HW2 1509   1.349   0.136   0.730 -0.7777 -0.0809  0.9964
  504SOL     OW 1510   2.990   2.368   1.493  0.2284  0.0101  0.3495
  504SOL    HW1 1511   2.930   2.429   1.557  1.3492  1.4772 -0.5408
  504SOL    HW2 1512   3.059   2.313   1.538  0.2924  0.4907 -1.1319
  505SOL     OW 1513   2.315   1.143   1.496 -0.1275 -0.2597 -0.1187
  505SOL    HW1 1514   2.312   1.175   1.398  1.1306  2.4670  2.2230
  505SOL    HW2 1515   2.377   1.191   1.564 -0.6178 -0.0022 -0.9779
  506SOL     OW 1516   1.952   0.177   1.876  0.2032 -0.8819  0.2737
  506SOL    HW1 1517   2.053   0.152   1.890 -0.6214  1.8183 -1.8221
  506SOL    HW2 1518   1.935   0.280   1.895  0.4024 -0.2584  1.9086
  507SOL     OW 1519   0.500   0.750   2.202  0.1183  0.2459  0.4950
  507SOL    HW1 1520   0.474   0.741   2.105  0.6358 -0.4979  3.8806
  507SOL    HW2 1521   0.560   0.673   2.237 -0.2534 -0.1491  2.9797
  508SOL     OW 1522   0.280   1.665   0.818 -0.5901 -0.2396  0.0796
  508SOL    HW1 1523   0.336   1.705   0.739  0.1944  1.1991 -1.1283
  508SOL    HW2 1524   0.277   1.720   0.902  1.1408 -0.6870 -1.1664
  509SOL     OW 1525   1.292   1.221   2.464  0.1715  0.0860  0.0558
  509SOL    HW1 1526   1.344   1.135   2.449 -0.1625  2.3698 -2.5922
  509SOL    HW2 1527   1.214   1.203   2.525  2.8660 -0.7261 -0.3082
  510SOL     OW 1528   1.317   2.035   2.239 -0.9815 -0.4040  0.0381
  510SOL    HW1 1529   1.338   2.065   2.143  0.6099  1.0398  0.7986
  510SOL    HW2 1530   1.241   1.960   2.242 -0.4837 -1.2933 -1.0482
  511SOL     OW 1531   2.999   2.661   1.345 -0.1026  0.4378 -0.3704
  511SOL    HW1 1532   2.997   2.675   1.241  3.4649  0.2197 -0.4860
  511SOL    HW2 1533   2.912   2.615   1.376 -0.6548 -0.1046 -0.5581
  512SOL     OW 1534   2.323   0.445   1.415  0.1806  0.0692  0.4266
  512SOL    HW1 1535   2.226   0.463   1.379  0.6080 -0.6067  0.7688
  512SOL    HW2 1536   2.373   0.390   1.342  0.4711  0.6403 -0.0086
  513SOL     OW 1537   2.525   2.084   0.872  0.3040 -0.5735 -0.4521
  513SOL    HW1 1538   2.501   2.166   0.814  1.4782  1.0623  0.0958
  513SOL    HW2 1539   2.601   2.034   0.828 -1.9294  1.1743 -1.2494
  514SOL     OW 1540   0.607   2.743   0.464  0.2436 -0.4950  0.1921
  514SOL    HW1 1541   0.647   2.732   0.370  1.8805 -1.1103  3.2951
  514SOL    HW2 1542   0.654   2.813   0.521  0.6021 -0.2716  0.2069
  515SOL     OW 1543   1.943   1.336   2.406 -0.0657 -0.0345 -0.5013
  515SOL    HW1 1544   1.947   1.317   2.306 -1.0298  0.1650 -0.0399
  515SOL    HW2 1545   1.872   1.281   2.458  1.5429  1.0309  0.5514
  516SOL     OW 1546   0.269   0.153   1.941  0.1319 -0.4019 -0.2176
  516SOL    HW1 1547   0.369   0.149   1.913 -0.9043  1.6529 -1.1209
  516SOL    HW2 1548   0.201   0.107   1.874 -3.2402  0.9191 -0.7823
  517SOL     OW 1549   0.458   0.216   1.129 -0.0006 -0.5438  0.6631
  517SOL    HW1 1550   0.539   0.163   1.161 -1.8190  1.3548 -1.0849
  517SOL    HW2 1551   0.373   0.160   1.144  1.5353  1.9881  1.6570
  518SOL     OW 1552   2.168   3.022   1.828 -0.1172 -0.3775 -0.5187
  518SOL    HW1 1553   2.209   3.115   1.841  0.5734 -2.7668  2.8082
  518SOL    HW2 1554   2.195   2.972   1.742  2.0751 -0.4583 -0.1988
  519SOL     OW 1555   2.325   2.247   2.540  0.3215 -0.1945 -0.0383
  519SOL    HW1 1556   2.270   2.207   2.620 -0.7984 -1.3896  0.4787
  519SOL    HW2 1557   2.339   2.350   2.547  1.2355  0.2603 -0.4301
  520SOL     OW 1558   1.805   2.676   1.655  0.6225  0.7765 -0.2357
  520SOL    HW1 1559   1.749   2.644   1.735  2.1002  2.1408 -0.9483
  520SOL    HW2 1560   1.902   2.638   1.656  3.0588 -1.1179  0.1101
  521SOL     OW 1561   0.647   0.066   2.140 -0.2595 -0.2754  0.6684
  521SOL    HW1 1562   0.552   0.024   2.120  0.8167  2.1975 -0.6116
  521SOL    HW2 1563   0.677   0.067   2.237  0.4923  0.9717  0.4931
  522SOL     OW 1564   0.229   1.937   1.483 -0.1634  0.0323 -0.2442
  522SOL    HW1 1565   0.262   2.000   1.561  2.2509  1.1810 -0.9007
  522SOL    HW2 1566   0.234   1.985   1.392 -0.1937  0.7006  1.4260
  523SOL     OW 1567   2.218   2.913   1.566 -0.1050  0.2234  0.7567
  523SOL    HW1 1568   2.304   2.891   1.520 -3.6081  1.5353 -2.2126
  523SOL    HW2 1569   2.129   2.887   1.513 -1.7989 -1.1322 -1.3832
  524SOL     OW 1570   0.215   2.756   2.776 -0.2290  0.0264  0.4792
  524SOL    HW1 1571   0.183   2.851   2.817  0.5669  0.3892  0.6059
  524SOL    HW2 1572   0.318   2.751   2.771  0.8187  3.0112  0.8038
  525SOL     OW 1573   2.204   2.090   0.504  0.1688 -0.4746 -0.6082
  525SOL    HW1 1574   2.186   2.041   0.594  1.0372 -1.0889  1.6533
  525SOL    HW2 1575   2.215   2.029   0.423 -2.1227  1.3848  1.1382
  526SOL     OW 1576   0.394   1.535   1.729  0.3519  0.0652  0.3909
  526SOL    HW1 1577   0.447   1.584   1.795  0.9438 -4.4042 -1.1816
  526SOL    HW2 1578   0.389   1.434   1.754  1.0689 -0.0599  0.9194
  527SOL     OW 1579   1.126   2.985   1.117 -0.7308 -0.5948  0.2026
  527SOL    HW1 1580   1.176   2.900   1.126 -2.3763  1.8576  1.3580
  527SOL    HW2 1581   1.194   3.063   1.127 -3.0240 -1.4468 -0.2261
  528SOL     OW 1582   1.281   2.417   0.628  0.1271 -0.6341 -0.3573
  528SOL    HW1 1583   1.327   2.324   0.629 -2.1452  2.1821  1.0307
  528SOL    HW2 1584   1.328   2.487   0.692  2.3655  1.3593  0.9707
  529SOL     OW 1585   1.846   1.729   0.854  0.3158  0.3381 -0.1622
  529SOL    HW1 1586   1.805   1.715   0.763  1.7797  2.4321  0.8501
  529SOL    HW2 1587   1.875   1.827   0.867  1.0080  0.0335  2.2542
  530SOL     OW 1588   0.398   2.479   0.192  0.4660 -0.4679  0.1363
  530SOL    HW1 1589   0.414   2.436   0.287  0.3173 -4.0366 -0.0045
  530SOL    HW2 1590   0.405   2.408   0.118 -0.2708  1.4303  0.1132
  531SOL     OW 1591   1.847   1.026   1.041 -0.2389 -0.1702 -0.6693
  531SOL    HW1 1592   1.846   1.046   0.939 -0.6398 -0.6032 -0.4170
  531SOL    HW2 1593   1.762   0.982   1.078 -0.2159  1.2917 -1.2377
  532SOL     OW 1594   0.389   1.191   0.712  0.0018 -0.5693  0.3379
  532SOL    HW1 1595   0.423   1.161   0.622 -0.7298  1.8372  2.2473
  532SOL    HW2 1596   0.345   1.112   0.764 -3.5182  1.1146  0.6655
  533SOL     OW 1597   1.818   0.052   2.572 -0.3360  0.7582 -0.6917
  533SOL    HW1 1598   1.917   0.075   2.553  1.2921  2.1878 -0.1749
  533SOL    HW2 1599   1.774   0.119   2.639  1.3908  1.1521 -1.0937
  534SOL     OW 1600   0.203   0.177   1.568  0.3044 -0.1802  0.4662
  534SOL    HW1 1601   0.262   0.250   1.516 -1.0002 -2.2330  1.0211
  534SOL    HW2 1602   0.110   0.220   1.595  0.2838  0.9234 -1.1388
  535SOL     OW 1603   1.868   0.407   0.136 -0.2841 -0.5917 -0.0830
  535SOL    HW1 1604   1.923   0.488   0.188  0.3691  4.1990 -0.6277
  535SOL    HW2 1605   1.795   0.354   0.185  1.3284  2.5086  0.9494
  536SOL     OW 1606   1.209   2.501   0.984  0.0428 -0.0328  0.0445
  536SOL    HW1 1607   1.227   2.482   0.882 -1.2132  0.7716 -0.7716
  536SOL    HW2 1608   1.111   2.520   1.004  1.3102  1.6753  2.5655
  537SOL     OW 1609   0.872   0.259   2.284 -0.1560 -0.0217  0.4109
  537SOL    HW1 1610   0.925   0.327   2.225  3.4083 -0.3083 -2.0806
  537SOL    HW2 1611   0.773   0.249   2.260 -0.7251 -1.5447 -2.2080
  538SOL     OW 1612   1.714   2.264   1.612 -0.3994  0.8557 -0.1008
  538SOL    HW1 1613   1.671   2.207   1.534  0.8316  2.8174 -0.4309
  538SOL    HW2 1614   1.780   2.335   1.580 -3.7965 -1.0891 -0.5925
  539SOL     OW 1615   0.166   1.555   2.741  0.0694  0.2627 -0.8782
  539SOL    HW1 1616   0.071   1.551   2.691 -1.6622 -0.5571  1.2455
  539SOL    HW2 1617   0.223   1.637   2.712  2.2409 -0.6819  2.8613
  540SOL     OW 1618   2.662   1.788   2.151  0.3497 -0.0738 -0.3169
  540SOL    HW1 1619   2.637   1.693   2.122 -0.5663  2.9194  1.2673
  540SOL    HW2 1620   2.654   1.862   2.075 -0.2545 -1.7216  0.9690
  541SOL     OW 1621   0.410   2.283   3.079  0.4688  0.1275  0.4769
  541SOL    HW1 1622   0.433   2.207   3.145 -2.4777 -2.5715 -0.7270
  541SOL    HW2 1623   0.325   2.255   3.019 -1.4198 -1.4795 -0.4237
  542SOL     OW 1624   2.190   2.604   0.449 -0.3698  0.3545 -0.1153
  542SOL    HW1 1625   2.195   2.704   0.409 -0.3253 -0.4385  1.5961
  542SOL    HW2 1626   2.093   2.566   0.463 -1.9505 -1.4836 -2.2209
  543SOL     OW 1627   1.085   1.812   1.742 -0.4018 -0.2010  0.1281
  543SOL    HW1 1628   1.045   1.810   1.839 -1.0688  0.7688 -3.0485
  543SOL    HW2 1629   1.015   1.853   1.678 -1.8383 -1.4331 -1.3135
  544SOL     OW 1630   0.841   0.432   0.111  0.5477 -0.2636  0.3070
  544SOL    HW1 1631   0.883   0.359   0.171 -0.7315 -0.7938  2.7664
  544SOL    HW2 1632   0.864   0.413   0.010  0.1624  0.1745  0.5595
  545SOL     OW 1633   1.161   1.766   0.631  0.2556  0.3612  0.0809
  545SOL    HW1 1634   1.259   1.751   0.663 -2.1095 -2.3865 -0.4711
  545SOL    HW2 1635   1.147   1.770   0.528  0.0522  0.9366 -0.7572
  546SOL     OW 1636   2.697   1.600   0.044 -0.7271  0.4801  0.6799
  546SOL    HW1 1637   2.758   1.581  -0.045 -0.6616 -2.5094 -3.6066
  546SOL    HW2 1638   2.607   1.553   0.033 -0.2641  0.8142 -0.0590
  547SOL     OW 1639   0.480   3.075   2.740  0.2717  0.5100  0.0364
  547SOL    HW1 1640   0.495   2.996   2.674 -1.8276  2.9809 -0.1253
  547SOL    HW2 1641   0.519   3.050   2.830 -1.6847  0.8811  2.6963
  548SOL     OW 1642   2.069   0.781   3.082 -0.1457 -0.1853  0.6216
  548SOL    HW1 1643   1.974   0.759   3.116  1.0099  1.7459  0.6738
  548SOL    HW2 1644   2.085   0.875   3.040  0.3523  3.4703  1.6787
  549SOL     OW 1645   0.573   0.440   0.073 -0.6643 -0.4203  0.0515
  549SOL    HW1 1646   0.555   0.519   0.005  1.9894  0.6765  2.6512
  549SOL    HW2 1647   0.675   0.435   0.109 -1.5118 -0.2504 -1.6401
  550SOL     OW 1648   2.523   2.869   2.909  0.1142 -0.0544  0.4339
  550SOL    HW1 1649   2.508   2.787   2.971  1.4545  0.9916 -1.3649
  550SOL    HW2 1650   2.526   2.848   2.805  1.7669 -0.5883  0.6049
  551SOL     OW 1651   0.236   0.797   0.202 -0.3997 -0.4728  0.0969
  551SOL    HW1 1652   0.336   0.788   0.186  0.0811 -1.7864  1.5234
  551SOL    HW2 1653   0.208   0.813   0.302  0.3837 -1.6244  0.3839
  552SOL     OW 1654   0.841   2.797   1.909 -0.0556 -0.0893  0.2512
  552SOL    HW1 1655   0.831   2.783   2.006 -0.1196 -0.4079 -2.4514
  552SOL    HW2 1656   0.886   2.886   1.887  0.4889  1.0059  0.5321
  553SOL     OW 1657   3.083   2.542   0.365 -0.4987 -0.0619  0.1724
  553SOL    HW1 1658   3.013   2.475   0.329  1.7476 -1.2510 -1.6789
  553SOL    HW2 1659   3.153   2.501   0.432  0.7634 -1.8410 -0.0185
  554SOL     OW 1660   2.136   0.321   0.503  0.6495  0.0218 -0.2610
  554SOL    HW1 1661   2.174   0.283   0.419 -1.4462 -1.0683  1.1757
  554SOL    HW2 1662   2.128   0.248   0.579  3.0396  1.0032  4.7764
  555SOL     OW 1663   0.491   2.897   2.470 -0.1579  0.3712 -0.1342
  555SOL    HW1 1664   0.390   2.925   2.454 -2.2913  1.2836  0.4407
  555SOL    HW2 1665   0.516   2.821   2.404 -2.2302  1.4751 -2.5018
  556SOL     OW 1666   0.952   2.331   1.628 -0.9628 -0.7591  0.0652
  556SOL    HW1 1667   0.994   2.418   1.661  0.7781 -1.0777 -1.4976
  556SOL    HW2 1668   1.001   2.280   1.552 -3.0995 -1.8821 -1.2660
  557SOL     OW 1669   0.165   2.152   0.111 -0.2061 -0.0830  0.5885
  557SOL    HW1 1670   0.072   2.104   0.107 -3.3393  1.7266 -2.1100
  557SOL    HW2 1671   0.195   2.171   0.016 -0.0151 -1.8259 -1.5062
  558SOL     OW 1672   2.919   2.346   0.267  0.2378  0.4072  0.5630
  558SOL    HW1 1673   2.819   2.333   0.297  1.4899 -1.0208  1.4450
  558SOL    HW2 1674   2.927   2.338   0.168 -2.5756  1.3398  1.2184
  559SOL     OW 1675   0.431   2.278   1.283 -0.2912 -0.0349 -0.1220
  559SOL    HW1 1676   0.331   2.297   1.264  0.4448 -2.3560 -2.3907
  559SOL    HW2 1677   0.460   2.185   1.251  1.3727  0.3185  1.4050
  560SOL     OW 1678   2.025   1.064   3.020 -0.2577  1.0402  0.4491
  560SOL    HW1 1679   2.025   1.130   2.940 -0.8619 -2.1050 -1.0185
  560SOL    HW2 1680   1.981   1.101   3.104 -0.4860 -0.1359 -0.4069
  561SOL     OW 1681   3.038   1.953   0.112  0.4244  0.0701 -0.2526
  561SOL    HW1 1682   3.002   1.855   0.117 -1.0990  0.8373 -2.0379
  561SOL    HW2 1683   2.984   2.018   0.049  1.5883  0.7236  1.7518
  562SOL     OW 1684   0.818   2.184   2.447  0.0325 -0.0681 -0.4111
  562SOL    HW1 1685   0.721   2.151   2.445  2.4052  1.5012  2.7655
  562SOL    HW2 1686   0.828   2.226   2.541 -1.9963  1.4372  0.6800
  563SOL     OW 1687   0.734   2.534   2.530  0.5933 -0.3752 -0.1258
  563SOL    HW1 1688   0.765   2.441   2.492  2.7690  1.7580 -1.0840
  563SOL    HW2 1689   0.765   2.560   2.629  1.0865  1.7562  0.4549
  564SOL     OW 1690   2.753   1.285   2.878 -0.1146 -0.4173 -0.0014
  564SOL    HW1 1691   2.664   1.292   2.932 -0.2693 -0.4053  1.2399
  564SOL    HW2 1692   2.803   1.376   2.867  0.9151 -0.1678 -1.5576
  565SOL     OW 1693   2.528   2.021   2.595 -0.1846 -0.1105 -0.3679
  565SOL    HW1 1694   2.481   2.113   2.588  0.3889  1.1965 -0.8142
  565SOL    HW2 1695   2.614   2.019   2.656  0.3584  0.4710 -1.7039
  566SOL     OW 1696   2.017   2.811   1.418  0.0638 -0.3137 -0.5105
  566SOL    HW1 1697   2.026   2.719   1.464 -1.7782  0.0424 -3.2880
  566SOL    HW2 1698   2.074   2.821   1.328  0.6154 -0.3841 -0.9729
  567SOL     OW 1699   2.453   0.144   2.223  0.5492  0.3218  0.5083
  567SOL    HW1 1700   2.481   0.135   2.121  1.4802  1.0246  1.1454
  567SOL    HW2 1701   2.358   0.181   2.243 -0.1750 -2.0895 -0.3532
  568SOL     OW 1702   1.417   1.798   0.453 -0.4153  0.1707 -0.5766
  568SOL    HW1 1703   1.402   1.863   0.367 -0.8629  1.1220 -4.3120
  568SOL    HW2 1704   1.430   1.851   0.538 -2.8086 -1.6141 -2.5141
  569SOL     OW 1705   0.280   0.715   0.791 -0.1368 -0.9645  0.2598
  569SOL    HW1 1706   0.322   0.666   0.714 -0.6966 -1.7898  2.6783
  569SOL    HW2 1707   0.202   0.667   0.819  0.0994  2.8879 -1.0792
  570SOL     OW 1708   0.626   0.795   2.827  0.3689 -0.3582  0.3578
  570SOL    HW1 1709   0.687   0.772   2.745  1.3048  0.6878  0.7360
  570SOL    HW2 1710   0.658   0.878   2.877 -1.6408 -0.7854 -2.6700
  571SOL     OW 1711   0.857   3.042   1.134 -0.3601  0.1147  0.2446
  571SOL    HW1 1712   0.865   3.106   1.050  1.5972 -0.5018 -2.0035
  571SOL    HW2 1713   0.955   3.020   1.164 -0.4975  1.8173 -0.7207
  572SOL     OW 1714   1.511   2.560   1.193  0.1904 -0.5000 -0.1253
  572SOL    HW1 1715   1.428   2.503   1.218 -1.0234 -0.6082  0.9157
  572SOL    HW2 1716   1.498   2.654   1.160  0.4524  0.6242 -0.0511
  573SOL     OW 1717   2.947   0.432   2.102  0.0242 -0.6451  0.4409
  573SOL    HW1 1718   2.902   0.358   2.155  2.3609  1.2914  0.6998
  573SOL    HW2 1719   2.882   0.494   2.048  0.4449  1.8861 -0.3426
  574SOL     OW 1720   0.247   1.802   1.051  0.3157  0.3585  0.0224
  574SOL    HW1 1721   0.217   1.894   1.014 -0.7613  1.8648  1.3452
  574SOL    HW2 1722   0.171   1.759   1.107 -0.4913 -0.4885  1.8245
  575SOL     OW 1723   0.912   2.170   1.015  0.1579 -1.0390 -0.1412
  575SOL    HW1 1724   0.911   2.146   1.114 -0.1298  1.4956 -0.3257
  575SOL    HW2 1725   1.008   2.191   0.981  0.8292  0.6187 -0.7797
  576SOL     OW 1726   2.899   2.897   1.704  0.7855  0.2453  0.0774
  576SOL    HW1 1727   2.864   2.840   1.622  1.6603 -0.1178  0.4415
  576SOL    HW2 1728   2.899   2.998   1.686 -2.9985 -1.6122  1.1708
  577SOL     OW 1729   2.543   1.253   3.055  0.3968  0.5395 -0.6902
  577SOL    HW1 1730   2.513   1.155   3.034 -0.6817 -2.5301  1.5165
  577SOL    HW2 1731   2.595   1.271   3.143  0.4276  0.6805 -2.3503
  578SOL     OW 1732   1.337   2.783   2.575  0.1874 -0.4950 -0.3244
  578SOL    HW1 1733   1.264   2.754   2.501 -1.3352 -2.2402 -0.9344
  578SOL    HW2 1734   1.377   2.880   2.558 -2.3941 -1.5555 -0.3402
  579SOL     OW 1735   0.130   2.572   0.151 -0.4864 -0.6112  0.0478
  579SOL    HW1 1736   0.072   2.556   0.240 -0.1557 -0.1798  0.6141
  579SOL    HW2 1737   0.228   2.549   0.167 -1.9463  1.7216  1.2597
  580SOL     OW 1738   0.969   2.699   0.366  0.5180 -0.0146 -0.4718
  580SOL    HW1 1739   1.066   2.714   0.325  2.7313  1.0402 -0.0766
  580SOL    HW2 1740   0.931   2.607   0.341  1.0584 -0.5693  1.2163
  581SOL     OW 1741   1.284   2.572   1.479 -0.6084  0.2034  0.3914
  581SOL    HW1 1742   1.291   2.514   1.392  0.7894  0.9593 -1.1135
  581SOL    HW2 1743   1.266   2.670   1.456  0.6148 -1.9035 -3.3742
  582SOL     OW 1744   1.522   0.064   1.870  0.0786 -0.5388 -0.1529
  582SOL    HW1 1745   1.543   0.149   1.933  1.4540  3.1374  0.4322
  582SOL    HW2 1746   1.603   0.040   1.800 -1.4511 -0.5296 -1.0164
  583SOL     OW 1747   2.400   2.992   0.596  0.8255  0.0092 -0.1196
  583SOL    HW1 1748   2.439   2.921   0.530  0.9222 -0.9505  1.0001
  583SOL    HW2 1749   2.343   2.941   0.669 -1.7509 -0.8498 -0.8609
  584SOL     OW 1750   1.543   0.978   2.096 -0.0794 -0.2879  0.5433
  584SOL    HW1 1751   1.586   1.038   2.025  0.2111 -2.0250 -1.1757
  584SOL    HW2 1752   1.602   0.961   2.179  3.0865 -2.3499  0.2087
  585SOL     OW 1753   2.111   2.671   2.909  0.9094 -0.3657  0.5234
  585SOL    HW1 1754   2.154   2.585   2.860  0.7574 -4.2357 -0.9429
  585SOL    HW2 1755   2.008   2.675   2.895 -0.2280  0.2785  1.8972
  586SOL     OW 1756   2.785   0.222   1.545  0.1040 -0.0217 -0.1010
  586SOL    HW1 1757   2.805   0.287   1.623  0.5505 -0.2292  0.3759
  586SOL    HW2 1758   2.686   0.182   1.541  2.7947 -0.1654 -0.0827
  587SOL     OW 1759   2.013   1.614   2.734 -0.3029  0.2218  0.0438
  587SOL    HW1 1760   2.061   1.559   2.657  0.6287  3.3748  2.1082
  587SOL    HW2 1761   2.070   1.620   2.818  1.6588 -2.0877 -3.1055
  588SOL     OW 1762   0.480   2.695   2.230  0.2024 -0.1472  0.1489
  588SOL    HW1 1763   0.413   2.728   2.157  2.3515 -0.4350 -1.7317
  588SOL    HW2 1764   0.434   2.623   2.288 -2.5927  1.4599  0.4282
  589SOL     OW 1765   2.124   1.470   2.547 -0.1310  0.0649  0.3379
  589SOL    HW1 1766   2.054   1.413   2.490  0.2648 -0.1698  0.1014
  589SOL    HW2 1767   2.220   1.429   2.547 -1.4838 -1.0443 -3.1138
  590SOL     OW 1768   2.351   1.751   2.003 -0.1117 -0.1126  0.0570
  590SOL    HW1 1769   2.440   1.695   2.016  1.7315 -3.0618  2.8918
  590SOL    HW2 1770   2.335   1.819   2.083 -0.0115  1.6928 -1.5156
  591SOL     OW 1771   1.325   2.493   0.310  0.6178  0.2421 -0.0806
  591SOL    HW1 1772   1.397   2.429   0.267 -1.2355 -0.7545 -1.3842
  591SOL    HW2 1773   1.296   2.455   0.402 -1.3246  0.2775  0.3206
  592SOL     OW 1774   1.680   2.318   0.777 -0.1260  0.1298 -0.0746
  592SOL    HW1 1775   1.640   2.368   0.697  2.9929 -2.0445 -2.0058
  592SOL    HW2 1776   1.785   2.331   0.790  4.0223 -0.9697 -0.0679
  593SOL     OW 1777   0.532   0.223   3.008  0.5528 -0.4592  0.1900
  593SOL    HW1 1778   0.621   0.177   2.976 -1.5623 -3.7126 -1.1058
  593SOL    HW2 1779   0.546   0.318   3.054  0.0115  2.4711  0.3414
  594SOL     OW 1780   0.907   1.909   2.746 -0.1776  0.7735 -0.6760
  594SOL    HW1 1781   1.000   1.950   2.770 -1.8784  1.0121  2.5319
  594SOL    HW2 1782   0.834   1.978   2.775 -4.0297  0.2631 -0.8982
  595SOL     OW 1783   1.554   3.090   1.013 -0.1991  0.6747  0.5941
  595SOL    HW1 1784   1.649   3.065   1.052  1.9736 -0.8757 -0.2107
  595SOL    HW2 1785   1.541   3.066   0.914 -1.8117  1.4436  0.3597
  596SOL     OW 1786   3.070   1.464   2.210  0.0002  0.5257  0.1573
  596SOL    HW1 1787   3.009   1.540   2.240  0.0262 -2.0979  3.0164
  596SOL    HW2 1788   3.091   1.405   2.283 -1.8109  1.1814 -0.7540
  597SOL     OW 1789   2.071   2.627   1.621  0.6041  0.6689  0.4870
  597SOL    HW1 1790   2.115   2.545   1.566 -2.5017  1.6677 -2.5393
  597SOL    HW2 1791   2.132   2.665   1.696 -2.4717 -1.2614  0.1367
  598SOL     OW 1792   2.590   2.899   1.194 -0.2118  0.4921 -0.1972
  598SOL    HW1 1793   2.661   2.931   1.261 -0.3165  0.2372  0.0184
  598SOL    HW2 1794   2.621   2.880   1.099 -2.0300 -0.6332 -1.4531
  599SOL     OW 1795   2.923   0.333   2.405  0.4072  0.6157  0.0514
  599SOL    HW1 1796   3.020   0.340   2.369  0.9480  0.2075 -1.7307
  599SOL    HW2 1797   2.855   0.396   2.352  1.1590 -0.6320 -2.1657
  600SOL     OW 1798   2.819   1.045   2.771 -0.1986 -0.4733 -0.1305
  600SOL    HW1 1799   2.797   0.984   2.849  1.6795  3.3608 -0.9809
  600SOL    HW2 1800   2.780   1.140   2.788  2.0937  1.3353 -1.3717
  601SOL     OW 1801   2.932   1.280   2.059 -0.1679 -1.0914  0.2884
  601SOL    HW1 1802   2.858   1.316   1.991  1.3677  0.3649 -2.3628
  601SOL    HW2 1803   2.979   1.358   2.106  1.7296  0.6515 -0.1838
  602SOL     OW 1804   1.538   1.670   2.363 -0.3456 -0.1829  0.1040
  602SOL    HW1 1805   1.478   1.594   2.343 -0.4542  0.5605  1.1717
  602SOL    HW2 1806   1.629   1.637   2.391 -2.9178  1.6250 -2.0947
  603SOL     OW 1807   0.705   1.263   2.596 -0.7803  0.4915 -0.2298
  603SOL    HW1 1808   0.621   1.228   2.549  2.1915 -0.7625  2.1363
  603SOL    HW2 1809   0.770   1.182   2.625  0.6381  1.5403  0.0291
  604SOL     OW 1810   2.379   0.995   0.176  0.5663 -0.8654  0.0189
  604SOL    HW1 1811   2.408   1.061   0.099 -1.3757  0.0089 -1.6154
  604SOL    HW2 1812   2.361   0.899   0.144  0.1367 -0.1008  0.6188
  605SOL     OW 1813   2.603   1.131   1.978  0.9002  0.5095 -0.1729
  605SOL    HW1 1814   2.595   1.046   1.915 -0.8751 -0.4810 -1.9519
  605SOL    HW2 1815   2.665   1.113   2.058 -0.4827  0.9864 -0.0824
  606SOL     OW 1816   1.530   2.513   2.589  0.4945  0.1356  0.0426
  606SOL    HW1 1817   1.442   2.565   2.603  1.3985  2.0969  0.1570
  606SOL    HW2 1818   1.520   2.408   2.566 -2.2446  0.7599  1.0864
  607SOL     OW 1819   1.344   1.538   0.420  0.2018  0.1797  0.8560
  607SOL    HW1 1820   1.284   1.502   0.502 -1.7188  0.6290  1.7772
  607SOL    HW2 1821   1.378   1.640   0.427  3.1744 -1.5701  1.1975
  608SOL     OW 1822   1.393   2.900   0.425  0.2230 -0.0603  0.2346
  608SOL    HW1 1823   1.473   2.960   0.387 -0.9027  0.8731 -0.9677
  608SOL    HW2 1824   1.302   2.958   0.434 -1.1085  0.6843  0.6312
  609SOL     OW 1825   1.309   1.335   0.253  0.2596 -0.1048  0.0841
  609SOL    HW1 1826   1.340   1.418   0.309 -0.8835  1.0733 -0.5117
  609SOL    HW2 1827   1.203   1.321   0.242  0.6091 -0.2816 -0.2447
  610SOL     OW 1828   2.991   1.058   2.259 -0.0777  0.0450 -0.2880
  610SOL    HW1 1829   2.980   0.953   2.250 -0.8544 -0.5191 -2.0639
  610SOL    HW2 1830   2.953   1.111   2.178 -0.2504 -0.6010 -1.1302
  611SOL     OW 1831   2.519   0.336   1.239 -0.1203  0.4619 -0.0890
  611SOL    HW1 1832   2.492   0.236   1.224 -2.2115 -0.7069  1.6553
  611SOL    HW2 1833   2.619   0.349   1.265 -1.4743  1.6170 -1.1387
  612SOL     OW 1834   0.750   2.129   1.257 -0.2847 -0.4512  0.1072
  612SOL    HW1 1835   0.678   2.057   1.258  1.9737  0.4629  0.1343
  612SOL    HW2 1836   0.715   2.219   1.211 -1.6016  1.7497  2.1794
  613SOL     OW 1837   0.925   1.400   2.385 -0.9401  0.2650  0.4644
  613SOL    HW1 1838   0.947   1.474   2.312  0.7470  0.0341  1.2600
  613SOL    HW2 1839   0.878   1.314   2.356  0.3222  0.9568  2.0731
  614SOL     OW 1840   1.664   1.539   1.777  0.0048 -0.3413  0.4051
  614SOL    HW1 1841   1.603   1.610   1.732 -0.2019 -0.0573  1.0267
  614SOL    HW2 1842   1.706   1.571   1.864  0.9658 -1.5357 -0.6246
  615SOL     OW 1843   0.788   1.269   1.750  0.2419  0.5627  0.3083
  615SOL    HW1 1844   0.720   1.237   1.674 -0.2672  1.6918  1.9119
  615SOL    HW2 1845   0.832   1.357   1.725 -0.8192 -4.3049  0.7914
  616SOL     OW 1846   1.016   1.577   2.170  0.4441 -0.3566  0.6733
  616SOL    HW1 1847   0.966   1.568   2.081 -0.8870 -1.6242  4.9822
  616SOL    HW2 1848   1.048   1.675   2.184 -0.2454 -1.0179 -1.8863
  617SOL     OW 1849   2.960   1.513   1.601 -0.2640 -0.1844  0.3376
  617SOL    HW1 1850   2.955   1.410   1.609  0.9367  2.2190 -0.2910
  617SOL    HW2 1851   3.009   1.547   1.517  1.5338 -0.3200  2.9980
  618SOL     OW 1852   1.868   2.029   1.385 -0.3794  0.3342 -0.3857
  618SOL    HW1 1853   1.902   2.100   1.316 -1.2899  2.4770 -0.8050
  618SOL    HW2 1854   1.816   1.954   1.336  1.7345  0.5750  1.6995
  619SOL     OW 1855   1.741   0.438   2.376  0.4270  0.2140 -0.1135
  619SOL    HW1 1856   1.660   0.501   2.363 -0.1423  2.5097  1.6117
  619SOL    HW2 1857   1.705   0.336   2.379  2.8357 -1.8442  0.4181
  620SOL     OW 1858   2.261   2.813   0.749  0.0504 -0.0773  0.2054
  620SOL    HW1 1859   2.158   2.817   0.770 -0.2388  0.7626  0.5241
  620SOL    HW2 1860   2.310   2.741   0.801 -0.3499  0.6139  1.1350
  621SOL     OW 1861   2.198   1.926   1.345  0.6613 -0.2078 -0.0890
  621SOL    HW1 1862   2.178   1.945   1.445 -0.4291  1.6176 -1.8005
  621SOL    HW2 1863   2.148   1.838   1.315 -0.6072  0.2315 -0.8078
  622SOL     OW 1864   2.308   0.952   1.858  0.4231  0.0465  0.1209
  622SOL    HW1 1865   2.414   0.944   1.846  1.9030  0.7722  0.9526
  622SOL    HW2 1866   2.269   0.860   1.869  0.1328  2.5941  0.2001
  623SOL     OW 1867   1.247   0.830   2.532 -0.0919 -0.0122  0.0492
  623SOL    HW1 1868   1.170   0.758   2.539  0.2507  2.3607 -2.5125
  623SOL    HW2 1869   1.241   0.883   2.443 -2.0337 -1.6457  2.1787
  624SOL     OW 1870   0.498   0.661   3.023  0.0338  0.1654  0.4376
  624SOL    HW1 1871   0.535   0.700   2.934 -2.6444  1.3375 -1.7148
  624SOL    HW2 1872   0.521   0.719   3.107  1.6247  0.1852  0.8181
  625SOL     OW 1873   2.737   1.712   0.996  0.4215  0.0665 -0.0374
  625SOL    HW1 1874   2.651   1.770   1.001 -0.0612  0.5331 -0.2734
  625SOL    HW2 1875   2.823   1.766   1.009  1.1326  1.3321  0.1191
  626SOL     OW 1876   0.647   2.678   1.749  0.3182 -0.3527 -1.1869
  626SOL    HW1 1877   0.707   2.739   1.810  1.4209  0.1705  1.3899
  626SOL    HW2 1878   0.559   2.655   1.800 -0.3551 -3.1614 -0.6884
  627SOL     OW 1879   0.675   0.826   1.676  0.5689  0.2836 -0.3102
  627SOL    HW1 1880   0.620   0.764   1.622  1.2492  1.1626  1.5847
  627SOL    HW2 1881   0.708   0.911   1.627  0.8029  0.1734  0.6972
  628SOL     OW 1882   2.370   0.119   0.751  0.6520  0.4083 -0.4315
  628SOL    HW1 1883   2.393   0.027   0.706  1.0676  0.6032  1.0325
  628SOL    HW2 1884   2.273   0.142   0.748  1.4734  0.3755  2.1308
  629SOL     OW 1885   1.911   0.932   1.987  0.2345 -0.0109 -0.2156
  629SOL    HW1 1886   1.896   1.025   1.950  1.8061  0.4906  2.2861
  629SOL    HW2 1887   1.962   0.926   2.074 -2.9411  0.7135  0.5795
  630SOL     OW 1888   2.901   2.204   0.801 -0.2818  0.2360  0.5953
  630SOL    HW1 1889   2.864   2.301   0.792  1.8391 -0.4011  0.2173
  630SOL    HW2 1890   2.830   2.132   0.769 -0.3133 -1.1613 -1.4369
  631SOL     OW 1891   3.050   0.106   2.080  0.5886  0.0868  0.2369
  631SOL    HW1 1892   3.110   0.173   2.124 -1.5377 -0.4393  0.6383
  631SOL    HW2 1893   3.086   0.076   1.987  0.9309  0.4495  0.2939
  632SOL     OW 1894   2.400   2.578   0.649 -0.3224 -0.1364  0.4789
  632SOL    HW1 1895   2.470   2.651   0.654  0.2974 -1.6349 -2.2033
  632SOL    HW2 1896   2.344   2.592   0.559 -0.1410  0.8215 -1.9973
  633SOL     OW 1897   1.500   1.259   2.664 -0.2082  0.3709  0.4327
  633SOL    HW1 1898   1.473   1.321   2.741  1.3595 -0.7441 -0.7766
  633SOL    HW2 1899   1.429   1.267   2.588  1.0317 -1.0615  0.8170
  634SOL     OW 1900   0.704   2.084   0.845 -0.3680 -0.5318 -0.0551
  634SOL    HW1 1901   0.607   2.103   0.883 -0.0103  1.3737 -0.3489
  634SOL    HW2 1902   0.785   2.116   0.904 -0.7909  0.3227 -0.9414
  635SOL     OW 1903   3.075   2.385   0.024  0.1179  0.0352 -0.0815
  635SOL    HW1 1904   3.004   2.442  -0.026 -0.6597 -1.4488  0.6830
  635SOL    HW2 1905   3.152   2.444   0.064 -1.5714  0.1067  1.4822
  636SOL     OW 1906   2.369   2.697   2.068 -0.1908 -0.3526  0.1116
  636SOL    HW1 1907   2.320   2.785   2.071  0.0738 -3.3279 -1.2612
  636SOL    HW2 1908   2.315   2.630   2.123  0.8534 -1.0913 -1.0364
  637SOL     OW 1909   2.705   0.595   1.980  0.6183  0.9218  0.3453
  637SOL    HW1 1910   2.625   0.604   1.920  1.5058  0.9761  0.2543
  637SOL    HW2 1911   2.766   0.678   1.985 -1.8645  0.5977  0.4984
  638SOL     OW 1912   2.455   1.866   1.315 -0.2127  0.2794 -0.1946
  638SOL    HW1 1913   2.355   1.895   1.333 -2.0175 -3.9521 -0.3712
  638SOL    HW2 1914   2.484   1.783   1.370 -0.2393 -0.7416 -2.5353
  639SOL     OW 1915   1.247   2.205   1.638  0.2747  0.3505  0.2591
  639SOL    HW1 1916   1.324   2.272   1.658  0.9630 -0.9040  2.6057
  639SOL    HW2 1917   1.208   2.161   1.723 -4.4150 -0.6944  0.4614
  640SOL     OW 1918   0.180   1.236   1.542  0.0102 -0.7078 -0.1155
  640SOL    HW1 1919   0.159   1.234   1.647  0.7128 -2.3523  0.2578
  640SOL    HW2 1920   0.253   1.168   1.513 -0.1040  0.6365  0.0170
  641SOL     OW 1921   1.975   0.244   1.527 -0.3295 -0.1558  0.2585
  641SOL    HW1 1922   1.903   0.272   1.592  0.3541 -1.9882 -0.1901
  641SOL    HW2 1923   2.057   0.201   1.578  1.3298 -0.7804  0.0141
  642SOL     OW 1924   2.045   3.095   0.339 -0.4151  0.3453 -0.6615
  642SOL    HW1 1925   2.133   3.142   0.364  0.3337  0.9933 -0.1178
  642SOL    HW2 1926   1.993   3.069   0.425  0.7132 -0.4905  2.3663
  643SOL     OW 1927   2.904   1.937   2.136 -0.6816  0.3323  0.8696
  643SOL    HW1 1928   2.816   1.883   2.131  2.1144 -2.0383  0.6784
  643SOL    HW2 1929   2.904   2.025   2.083 -1.9129 -0.4338  1.5103
  644SOL     OW 1930   2.293   2.415   1.244 -0.1022  0.6340 -0.3069
  644SOL    HW1 1931   2.362   2.365   1.188 -1.9544 -0.6994 -1.5472
  644SOL    HW2 1932   2.269   2.375   1.336 -0.3227 -0.1128  1.2764
  645SOL     OW 1933   0.690   0.846   1.253 -0.1296  0.2222 -0.0150
  645SOL    HW1 1934   0.593   0.848   1.280 -0.6658  1.2343 -3.3209
  645SOL    HW2 1935   0.708   0.859   1.151 -0.6513 -2.7117 -0.8695
  646SOL     OW 1936   1.523   1.798   2.036 -0.1571  0.5250  0.1222
  646SOL    HW1 1937   1.591   1.826   1.960  0.2172 -1.4795 -0.6734
  646SOL    HW2 1938   1.559   1.784   2.132 -0.5494 -0.3855  1.1428
  647SOL     OW 1939   0.770   1.086   0.636  0.3723  0.1389  0.4842
  647SOL    HW1 1940   0.844   1.103   0.710  0.6038 -0.5453  1.5094
  647SOL    HW2 1941   0.711   0.999   0.655 -0.0167  0.4672 -0.1226
  648SOL     OW 1942   0.181   0.217   0.377  0.1095 -0.3596 -0.4361
  648SOL    HW1 1943   0.166   0.124   0.336  0.9493  2.1685  0.5185
  648SOL    HW2 1944   0.182   0.295   0.309  0.0718 -2.6657 -0.6216
  649SOL     OW 1945   2.997   0.271   0.900 -0.0929  0.0208 -0.6643
  649SOL    HW1 1946   3.049   0.286   0.810 -1.4858 -1.5766 -1.0343
  649SOL    HW2 1947   3.006   0.350   0.967 -0.3325  0.9046 -1.2712
  650SOL     OW 1948   2.809   0.718   1.497  0.2979 -0.3311  0.5472
  650SOL    HW1 1949   2.710   0.711   1.476  1.4537 -0.6069  0.6729
  650SOL    HW2 1950   2.840   0.808   1.459  1.0681  1.7756  2.7621
  651SOL     OW 1951   0.877   1.516   1.673 -0.6039 -0.4821  0.2195
  651SOL    HW1 1952   0.893   1.536   1.773 -0.1415 -3.7387  1.1204
  651SOL    HW2 1953   0.966   1.512   1.618  0.7728  0.1412 -0.1737
  652SOL     OW 1954   2.356   2.518   2.501  0.4761 -0.6084 -0.1399
  652SOL    HW1 1955   2.261   2.560   2.529  0.8675  1.0404 -1.7426
  652SOL    HW2 1956   2.382   2.528   2.401  0.7068 -0.4119  0.9420
  653SOL     OW 1957   2.693   1.276   0.186 -0.0263 -0.1573  0.0581
  653SOL    HW1 1958   2.732   1.362   0.234 -0.4695  1.2320  3.0299
  653SOL    HW2 1959   2.738   1.187   0.214 -0.3836 -1.1429  0.4550
  654SOL     OW 1960   1.229   2.117   1.255  0.3040  1.1656  0.6272
  654SOL    HW1 1961   1.277   2.064   1.332  0.7805 -2.8496  3.0360
  654SOL    HW2 1962   1.259   2.092   1.158 -1.5003 -0.0254 -0.3737
  655SOL     OW 1963   0.190   0.989   1.935 -0.3047  0.0974  0.1349
  655SOL    HW1 1964   0.256   0.944   1.868  0.4593 -2.7191  0.1100
  655SOL    HW2 1965   0.190   1.094   1.933 -2.6504  1.2629  0.1555
  656SOL     OW 1966   2.579   2.534   2.633  0.1249  0.3792 -0.0216
  656SOL    HW1 1967   2.658   2.510   2.569 -0.2873  0.0691  0.9768
  656SOL    HW2 1968   2.481   2.531   2.588 -0.9297  0.1219 -1.9284
  657SOL     OW 1969   3.023   1.055   1.893  0.1173 -0.0251 -0.7277
  657SOL    HW1 1970   3.010   1.154   1.920  2.0593  2.9547 -1.0352
  657SOL    HW2 1971   3.117   1.024   1.916 -1.1071 -0.0046 -1.6063
  658SOL     OW 1972   1.654   0.181   2.374  0.4018 -0.2232  0.5137
  658SOL    HW1 1973   1.687   0.127   2.455  0.9781  1.5442  1.1783
  658SOL    HW2 1974   1.675   0.136   2.282 -2.3473  1.2941  1.8228
  659SOL     OW 1975   1.454   0.662   2.802  0.0357 -0.1246 -0.4693
  659SOL    HW1 1976   1.478   0.723   2.723 -1.3555  0.0286  4.4795
  659SOL    HW2 1977   1.350   0.651   2.812 -0.1390  0.4208 -1.1823
  660SOL     OW 1978   1.438   0.304   1.412  0.3378  0.1040  0.0361
  660SOL    HW1 1979   1.451   0.357   1.498  1.8099  1.5473 -2.3380
  660SOL    HW2 1980   1.531   0.262   1.387  2.2887 -1.4105  2.9515
  661SOL     OW 1981   2.398   1.272   0.644  0.4824  0.0546 -0.3976
  661SOL    HW1 1982   2.457   1.259   0.561 -1.5638 -0.1951 -0.6710
  661SOL    HW2 1983   2.327   1.351   0.641 -2.7329  3.2879  2.1606
  662SOL     OW 1984   1.463   0.368   1.708 -0.0129  0.4530  0.1453
  662SOL    HW1 1985   1.392   0.333   1.783  1.2785 -1.2638  2.3719
  662SOL    HW2 1986   1.455   0.469   1.697 -0.7723 -2.1127 -1.0836
  663SOL     OW 1987   0.847   1.597   1.950  0.2107 -0.5349 -0.2420
  663SOL    HW1 1988   0.831   1.698   1.984 -1.5008  3.6027 -2.9568
  663SOL    HW2 1989   0.776   1.529   1.977 -0.0042  0.5553  1.0937
  664SOL     OW 1990   1.596   2.109   1.414 -0.7976 -0.2763  0.0899
  664SOL    HW1 1991   1.510   2.056   1.444  1.0835 -0.9527 -1.5743
  664SOL    HW2 1992   1.683   2.055   1.421  0.3556  0.8363  3.9546
  665SOL     OW 1993   2.259   0.680   1.988 -0.1401  0.0103 -0.4725
  665SOL    HW1 1994   2.241   0.578   1.992 -0.6882  1.4792 -1.8188
  665SOL    HW2 1995   2.328   0.704   2.062  1.5551  0.3618 -0.0808
  666SOL     OW 1996   0.450   2.230   0.353 -0.1157  0.3183 -0.0242
  666SOL    HW1 1997   0.499   2.298   0.413  2.1975 -2.7755 -1.3237
  666SOL    HW2 1998   0.352   2.215   0.381 -1.5475  0.9994 -0.8415
  667SOL     OW 1999   1.997   0.218   1.080 -0.4731 -0.2830 -0.4716
  667SOL    HW1 2000   2.013   0.322   1.074 -2.6890 -0.3635  0.1072
  667SOL    HW2 2001   1.952   0.186   1.168  3.4040 -0.0445 -1.0513
  668SOL     OW 2002   1.990   0.502   1.088 -0.2382  0.2303  0.5776
  668SOL    HW1 2003   2.061   0.533   1.013  1.5976  2.1531 -3.5700
  668SOL    HW2 2004   2.024   0.496   1.188  1.0567 -2.2466 -1.0868
  669SOL     OW 2005   3.061   2.151   1.030 -0.3960  0.1047 -0.1940
  669SOL    HW1 2006   3.005   2.166   0.947  2.1067  0.8874  0.2241
  669SOL    HW2 2007   3.046   2.229   1.097  1.1537  0.0699 -0.7331
  670SOL     OW 2008   2.919   2.327   2.112 -0.1213  0.4500 -0.2697
  670SOL    HW1 2009   2.835   2.318   2.173  0.7464 -3.3288 -1.0318
  670SOL    HW2 2010   2.945   2.424   2.083  2.2979 -1.3889 -1.0696
  671SOL     OW 2011   1.771   1.691   1.499  0.4915  0.4963 -0.3058
  671SOL    HW1 2012   1.738   1.754   1.427  3.5721  0.4219 -1.1109
  671SOL    HW2 2013   1.775   1.596   1.464 -2.4545  2.0506 -2.6644
  672SOL     OW 2014   0.432   0.664   2.590 -0.2428 -0.3603 -0.2641
  672SOL    HW1 2015   0.375   0.720   2.523 -2.7062  1.9700 -0.7415
  672SOL    HW2 2016   0.405   0.682   2.693  1.5747 -0.3863  0.4848
  673SOL     OW 2017   0.091   1.385   1.075  0.4479 -0.2673  0.0840
  673SOL    HW1 2018   0.135   1.409   1.163 -0.3558 -0.5136 -1.1909
  673SOL    HW2 2019   0.145   1.412   0.993  0.5143  1.8365 -0.8636
  674SOL     OW 2020   1.593   2.987   0.254  0.3781 -0.3604  0.0448
  674SOL    HW1 2021   1.631   3.059   0.190 -0.0337 -0.7403  2.5338
  674SOL    HW2 2022   1.579   2.897   0.202  2.5378 -2.2750  0.9673
  675SOL     OW 2023   1.661   0.861   2.334  0.8810  0.4217  0.0377
  675SOL    HW1 2024   1.761   0.853   2.323 -2.4300  1.2845 -0.6653
  675SOL    HW2 2025   1.611   0.777   2.293 -0.3927  0.5341  0.6190
  676SOL     OW 2026   2.552   1.551   2.001  0.0583 -0.2267  0.2286
  676SOL    HW1 2027   2.527   1.493   1.915  0.1350 -0.9682 -2.6130
  676SOL    HW2 2028   2.621   1.500   2.053 -0.7944 -0.3689 -2.8737
  677SOL     OW 2029   1.859   0.723   0.886  0.3515 -0.0912  0.0933
  677SOL    HW1 2030   1.791   0.771   0.949 -0.1795 -2.1994  0.3783
  677SOL    HW2 2031   1.891   0.632   0.922 -1.2518 -0.7062  0.4938
  678SOL     OW 2032   0.081   0.820   1.646  0.1465 -0.7504 -0.1371
  678SOL    HW1 2033   0.163   0.867   1.693  0.6971 -1.6823  0.0995
  678SOL    HW2 2034   0.033   0.751   1.707  0.5722 -0.1039  2.2637
  679SOL     OW 2035   2.564   1.091   1.205  0.5088  1.0478 -0.0385
  679SOL    HW1 2036   2.462   1.106   1.216  1.9914  1.0631 -2.1187
  679SOL    HW2 2037   2.587   0.992   1.197  0.2582 -0.7306 -1.5514
  680SOL     OW 2038   2.831   0.525   1.688  0.3582 -1.0164 -0.3192
  680SOL    HW1 2039   2.806   0.582   1.606 -0.9785  0.1768  1.5325
  680SOL    HW2 2040   2.925   0.551   1.729 -1.0736  1.5470  2.7359
  681SOL     OW 2041   2.989   0.017   1.553 -0.0242  0.0948  0.1884
  681SOL    HW1 2042   3.024  -0.010   1.456 -1.8884 -3.1651  1.3992
  681SOL    HW2 2043   2.930   0.103   1.551  2.1732  0.0937  2.6375
  682SOL     OW 2044   0.637   0.061   1.279  0.3924 -0.7552 -0.0326
  682SOL    HW1 2045   0.575  -0.010   1.321  1.9206 -0.0424  0.7965
  682SOL    HW2 2046   0.717   0.015   1.231  1.9128 -0.9628 -1.6498
  683SOL     OW 2047   1.383   0.245   2.144  0.0285 -0.6898 -0.4823
  683SOL    HW1 2048   1.374   0.271   2.245  0.2236  0.1940  3.3109
  683SOL    HW2 2049   1.475   0.272   2.102  1.1295  1.2632  0.1536
  684SOL     OW 2050   1.425   2.177   0.578 -0.3193  0.1908 -0.0396
  684SOL    HW1 2051   1.489   2.098   0.606  1.4141 -0.1638 -1.1082
  684SOL    HW2 2052   1.345   2.142   0.522  0.8953 -1.2246  1.4625
  685SOL     OW 2053   2.263   2.073   1.980  0.0902  0.2001 -0.3088
  685SOL    HW1 2054   2.340   2.005   1.978  0.4127  0.4784  1.9699
  685SOL    HW2 2055   2.237   2.110   2.075  0.2023  0.3783  0.0876
  686SOL     OW 2056   1.553   1.883   2.950 -0.4022 -0.0384 -0.1370
  686SOL    HW1 2057   1.580   1.815   3.020  0.0473  1.4283 -0.7253
  686SOL    HW2 2058   1.458   1.865   2.914 -1.1161  0.5465  1.3424
  687SOL     OW 2059   1.364   2.395   1.952 -0.5047 -0.1367  0.0115
  687SOL    HW1 2060   1.394   2.293   1.972  2.1390 -1.7172  0.9198
  687SOL    HW2 2061   1.386   2.462   2.026  0.3589  0.7386 -2.0931
  688SOL     OW 2062   2.085   1.483   1.729  0.3743  0.0163  0.3606
  688SOL    HW1 2063   2.149   1.563   1.710  0.2959 -0.4043  1.8795
  688SOL    HW2 2064   2.042   1.450   1.641  1.4011 -0.2802  0.0475
  689SOL     OW 2065   2.374   1.128   2.778  0.0610 -0.1701 -0.0107
  689SOL    HW1 2066   2.280   1.079   2.777  1.3699  1.4042 -1.0694
  689SOL    HW2 2067   2.443   1.069   2.827  0.7279  0.7517 -3.7347
  690SOL     OW 2068   2.203   2.746   0.071 -0.4524  0.0998 -0.1444
  690SOL    HW1 2069   2.149   2.725  -0.014  1.9507 -0.4554  0.4958
  690SOL    HW2 2070   2.146   2.758   0.148  1.5408  2.3799  0.2526
  691SOL     OW 2071   2.567   0.404   2.130  0.1026  0.3886 -0.1448
  691SOL    HW1 2072   2.600   0.308   2.124 -2.3073  0.1121  0.9777
  691SOL    HW2 2073   2.625   0.470   2.078  1.9070  0.5029 -0.1523
  692SOL     OW 2074   2.666   1.220   0.769  0.1981  0.4906  0.3554
  692SOL    HW1 2075   2.583   1.221   0.709 -1.8514 -1.5780  0.0207
  692SOL    HW2 2076   2.676   1.309   0.825 -1.2076  1.1112  0.7994
  693SOL     OW 2077   2.870   2.931   0.605 -0.4586  0.0430 -0.0438
  693SOL    HW1 2078   2.816   2.993   0.670 -1.9250  1.1263 -0.5637
  693SOL    HW2 2079   2.849   2.945   0.502 -0.5195 -0.6947 -0.3837
  694SOL     OW 2080   2.385   2.235   0.153  0.0393  0.5323  0.5597
  694SOL    HW1 2081   2.377   2.341   0.182 -0.7460  3.6847  2.4720
  694SOL    HW2 2082   2.290   2.194   0.132 -0.1754  1.0249 -1.2378
  695SOL     OW 2083   0.479   2.997   1.466 -0.4168  0.0017 -0.2754
  695SOL    HW1 2084   0.402   2.950   1.419  0.5775  1.6012 -3.1025
  695SOL    HW2 2085   0.454   3.042   1.553 -2.3459 -0.4099  0.7656
  696SOL     OW 2086   2.766   1.976   0.758  0.0641  0.1410 -0.3996
  696SOL    HW1 2087   2.831   1.893   0.779  1.9008 -1.3829  1.1184
  696SOL    HW2 2088   2.748   1.997   0.657  1.2979 -1.2736 -0.7934
  697SOL     OW 2089   1.679   1.868   1.812  0.2641  0.2870  0.0596
  697SOL    HW1 2090   1.769   1.832   1.783 -2.0870  1.0462  0.1779
  697SOL    HW2 2091   1.678   1.972   1.832 -0.2651 -0.0765 -0.0022
  698SOL     OW 2092   2.916   0.430   2.654 -0.2012  0.2324 -0.2236
  698SOL    HW1 2093   2.917   0.374   2.563 -3.5089 -2.9233 -0.7523
  698SOL    HW2 2094   2.975   0.382   2.727  1.4217  0.1338  0.2640
  699SOL     OW 2095   1.579   0.083   2.926 -0.8853  0.1418 -0.0171
  699SOL    HW1 2096   1.561  -0.018   2.899 -2.3791 -0.8154 -1.1032
  699SOL    HW2 2097   1.622   0.142   2.853 -1.3747  1.1657 -0.5970
  700SOL     OW 2098   0.994   2.237   1.348 -0.0477 -0.0244  0.2608
  700SOL    HW1 2099   1.068   2.161   1.321  0.9369 -2.5483 -1.4862
  700SOL    HW2 2100   0.903   2.192   1.325  0.8961  0.7276 -1.0070
  701SOL     OW 2101   1.914   2.856   0.052 -0.1711 -0.2640  0.6152
  701SOL    HW1 2102   1.864   2.818   0.134 -1.6462 -3.9607  0.0879
  701SOL    HW2 2103   1.930   2.960   0.040  1.5292 -0.2829 -3.0786
  702SOL     OW 2104   2.100   1.352   1.962  0.2417  0.2557 -0.1252
  702SOL    HW1 2105   2.194   1.307   1.974  1.1949 -1.0298 -0.0891
  702SOL    HW2 2106   2.092   1.403   1.871 -0.2185  2.5060 -1.4375
  703SOL     OW 2107   1.939   0.894   1.500 -0.3850  0.5013  0.6252
  703SOL    HW1 2108   1.920   0.792   1.514 -2.2311  1.7069  1.5359
  703SOL    HW2 2109   2.012   0.930   1.568  0.8474  0.9856  2.6124
  704SOL     OW 2110   0.317   2.062   1.717 -0.2040 -0.2577 -0.6334
  704SOL    HW1 2111   0.355   1.995   1.783  0.4987 -1.3420 -1.9282
  704SOL    HW2 2112   0.382   2.141   1.693 -1.0567 -0.2494  1.0065
  705SOL     OW 2113   2.439   1.437   0.917 -0.3415  0.4696  0.5233
  705SOL    HW1 2114   2.390   1.380   0.845 -1.9386  0.2246  1.8784
  705SOL    HW2 2115   2.541   1.437   0.907 -1.1104  0.7544 -0.6030
  706SOL     OW 2116   0.619   1.705   1.815  0.3075 -0.0226  0.1063
  706SOL    HW1 2117   0.641   1.746   1.722 -0.3938  2.0145  1.7526
  706SOL    HW2 2118   0.697   1.661   1.855  1.1172 -0.7195 -1.4359
  707SOL     OW 2119   2.334   1.220   1.989 -0.3302  0.0834  0.2307
  707SOL    HW1 2120   2.436   1.223   2.012  0.4547 -2.0076  4.9424
  707SOL    HW2 2121   2.304   1.132   1.943  0.1876  1.0633 -2.1800
  708SOL     OW 2122   3.014   0.489   3.073  0.2366 -0.7271  0.3911
  708SOL    HW1 2123   3.102   0.542   3.052  1.3632  1.9940 -2.0892
  708SOL    HW2 2124   2.998   0.413   3.007  0.8282 -2.6730 -1.6689
  709SOL     OW 2125   1.876   1.899   0.379  0.3553  0.0436 -0.1109
  709SOL    HW1 2126   1.894   1.996   0.419  0.2034 -0.4998 -0.3088
  709SOL    HW2 2127   1.866   1.900   0.275 -1.4669  0.8373  1.1830
  710SOL     OW 2128   1.778   1.570   2.452  0.8604  0.1474  0.2191
  710SOL    HW1 2129   1.844   1.510   2.392  1.6467 -0.8697  1.4802
  710SOL    HW2 2130   1.781   1.537   2.549  2.6167  0.5094 -0.8236
  711SOL     OW 2131   2.698   2.877   0.946  0.1739  0.3552 -0.5015
  711SOL    HW1 2132   2.639   2.957   0.921 -0.0514  2.7427 -0.8489
  711SOL    HW2 2133   2.789   2.896   0.992  0.8168  0.0545  0.5228
  712SOL     OW 2134   1.396   2.116   1.970  0.5992  0.0975  0.6766
  712SOL    HW1 2135   1.473   2.098   1.901 -0.0119  3.5022 -1.0562
  712SOL    HW2 2136   1.295   2.101   1.930 -2.7783 -1.5682  1.3587
  713SOL     OW 2137   2.790   1.411   2.512 -0.3731 -0.2637 -0.1818
  713SOL    HW1 2138   2.790   1.307   2.498  1.5907 -0.3479 -1.1531
  713SOL    HW2 2139   2.700   1.452   2.554  0.3306  1.8692  0.9379
  714SOL     OW 2140   2.686   0.492   2.370  0.1738  0.2210  0.3819
  714SOL    HW1 2141   2.646   0.446   2.453  0.0276  4.7747  1.3996
  714SOL    HW2 2142   2.625   0.491   2.281  2.2343  1.6070 -0.4153
  715SOL     OW 2143   1.577   2.159   1.154 -0.2331  0.3010 -0.2827
  715SOL    HW1 2144   1.515   2.233   1.128  0.8029 -0.4943  0.9931
  715SOL    HW2 2145   1.579   2.137   1.258  3.5426 -1.8416 -0.1975
  716SOL     OW 2146   1.270   0.120   1.523 -0.1445 -0.1821 -0.0992
  716SOL    HW1 2147   1.179   0.165   1.493 -2.1357  1.1929 -1.0831
  716SOL    HW2 2148   1.344   0.190   1.497  2.7616 -0.1526 -0.1599
  717SOL     OW 2149   1.167   0.579   1.633 -0.2620 -0.1075 -0.2680
  717SOL    HW1 2150   1.257   0.604   1.681 -0.4892  1.2045  0.4319
  717SOL    HW2 2151   1.168   0.564   1.531 -1.7081  1.8857  1.5707
  718SOL     OW 2152   0.661   0.873   0.961  0.3043 -0.3806  0.0639
  718SOL    HW1 2153   0.661   0.854   0.858 -0.5218 -1.8983  0.3378
  718SOL    HW2 2154   0.625   0.970   0.992 -0.4844  3.4735  0.3786
  719SOL     OW 2155   0.686   1.725   2.267 -0.4131  0.1853  0.8676
  719SOL    HW1 2156   0.739   1.765   2.350 -0.0357 -1.4405  0.1327
  719SOL    HW2 2157   0.645   1.634   2.284  0.5762 -1.3948 -2.3189
  720SOL     OW 2158   2.193   1.165   0.269 -0.0927  0.3578  0.6375
  720SOL    HW1 2159   2.264   1.096   0.249 -1.3487  1.6743  0.8180
  720SOL    HW2 2160   2.159   1.156   0.368 -0.6343  0.7955  1.3796
  721SOL     OW 2161   2.249   3.012   2.131 -0.1095  0.4758 -0.2671
  721SOL    HW1 2162   2.243   3.024   2.029 -2.4795  0.0618 -2.2510
  721SOL    HW2 2163   2.183   3.074   2.172  0.9838  0.4474  0.9858
  722SOL     OW 2164   2.354   1.680   0.547  0.0273  0.0884 -0.0204
  722SOL    HW1 2165   2.412   1.687   0.458  0.0522 -1.7832  0.9325
  722SOL    HW2 2166   2.263   1.735   0.538 -1.0618 -1.3342 -0.5150
  723SOL     OW 2167   2.648   2.776   1.947 -0.1195  0.0047  0.0083
  723SOL    HW1 2168   2.698   2.864   1.979 -1.2612  0.0869  0.0957
  723SOL    HW2 2169   2.557   2.759   1.994  1.2531  0.9185 -0.7287
  724SOL     OW 2170   0.378   2.514   2.409 -0.2183  0.3001 -0.6028
  724SOL    HW1 2171   0.274   2.517   2.414  1.4669  0.7582  3.5589
  724SOL    HW2 2172   0.418   2.490   2.505  2.0469 -1.1301  0.8557
  725SOL     OW 2173   2.458   2.849   1.452 -0.5423  0.0081  0.9246
  725SOL    HW1 2174   2.534   2.878   1.387  0.3722 -0.2196  0.4027
  725SOL    HW2 2175   2.466   2.754   1.481 -3.3001  2.5855  2.5751
  726SOL     OW 2176   2.532   2.332   0.687  0.4829 -0.0182  0.0680
  726SOL    HW1 2177   2.479   2.420   0.672 -3.0476  1.4312 -0.7422
  726SOL    HW2 2178   2.522   2.268   0.600 -0.8079 -1.1547  0.7933
  727SOL     OW 2179   0.107   3.102   0.097 -0.0343  0.3159 -0.1643
  727SOL    HW1 2180   0.206   3.117   0.071 -0.4266 -1.9510  0.8668
  727SOL    HW2 2181   0.077   3.001   0.072  0.7097 -0.4920  0.0365
  728SOL     OW 2182   2.900   0.714   0.946  0.6133 -0.6096 -0.2451
  728SOL    HW1 2183   2.842   0.694   0.864  0.7216 -1.3249 -0.7262
  728SOL    HW2 2184   2.871   0.666   1.035 -0.3312 -1.7230 -0.8686
  729SOL     OW 2185   0.032   2.559   0.779 -0.0358 -0.4290  0.2628
  729SOL    HW1 2186   0.094   2.524   0.857  2.8127 -0.3366 -2.0765
  729SOL    HW2 2187   0.072   2.541   0.682 -1.1957 -0.0558  2.1618
  730SOL     OW 2188   2.571   0.701   0.893  0.0192 -0.5212  0.2302
  730SOL    HW1 2189   2.543   0.802   0.869  0.5977  0.9293  2.4906
  730SOL    HW2 2190   2.642   0.660   0.827  1.4351 -0.2757  0.9649
  731SOL     OW 2191   3.088   2.201   2.328 -0.0868 -0.3317  0.1433
  731SOL    HW1 2192   3.073   2.242   2.422 -0.6342  0.1961  0.7679
  731SOL    HW2 2193   3.004   2.205   2.271  1.8932 -1.6447  0.7520
  732SOL     OW 2194   1.276   2.744   1.989  0.1462 -0.0117  0.6515
  732SOL    HW1 2195   1.274   2.670   2.066  0.4996 -1.7814  1.2387
  732SOL    HW2 2196   1.278   2.702   1.894 -0.1795 -0.2293  0.9296
  733SOL     OW 2197   0.026   0.602   2.253  0.2982 -0.5567  0.1889
  733SOL    HW1 2198   0.091   0.656   2.193 -1.4519 -0.2318  0.2315
  733SOL    HW2 2199  -0.027   0.530   2.201 -0.4769  0.7722  0.8202
  734SOL     OW 2200   1.463   0.407   2.719 -0.1043 -0.2134 -0.0475
  734SOL    HW1 2201   1.445   0.505   2.747 -3.5120 -1.6441 -1.1045
  734SOL    HW2 2202   1.404   0.338   2.766  1.0285  0.3352  1.0362
  735SOL     OW 2203   2.959   2.638   2.300 -0.0041  0.3406 -0.3592
  735SOL    HW1 2204   2.923   2.640   2.203 -2.5223  1.6870  1.9590
  735SOL    HW2 2205   3.054   2.688   2.312  1.7810  0.2526  1.5841
  736SOL     OW 2206   0.925   0.412   2.554  0.2512  0.1326 -0.1406
  736SOL    HW1 2207   0.829   0.458   2.556  0.4097  1.2700 -0.5699
  736SOL    HW2 2208   0.912   0.321   2.505 -1.4167 -1.0093  2.0795
  737SOL     OW 2209   2.637   0.449   2.775 -0.8632 -0.0830 -0.0148
  737SOL    HW1 2210   2.615   0.396   2.866  1.8235 -2.1344  1.5688
  737SOL    HW2 2211   2.726   0.415   2.739 -1.8375 -1.0227  0.5061
  738SOL     OW 2212   1.745   1.225   2.944 -0.0481  0.3238  0.2942
  738SOL    HW1 2213   1.812   1.202   2.871 -1.1913 -1.1986 -0.7128
  738SOL    HW2 2214   1.699   1.140   2.980  1.4489 -1.6990 -0.5368
  739SOL     OW 2215   1.837   0.701   0.599  0.1727 -0.2708  0.3615
  739SOL    HW1 2216   1.873   0.732   0.687 -1.5666 -2.1576 -0.3606
  739SOL    HW2 2217   1.847   0.594   0.587 -0.4116 -3.5495 -1.2166
  740SOL     OW 2218   1.972   1.940   2.341 -0.0642 -0.0214 -0.1541
  740SOL    HW1 2219   2.026   1.858   2.345  0.3749  1.7024 -1.5883
  740SOL    HW2 2220   1.896   1.933   2.267 -2.6376  1.7657 -1.0422
  741SOL     OW 2221   2.532   0.033   2.464 -0.5459 -1.4845 -0.0994
  741SOL    HW1 2222   2.633   0.013   2.442  0.4453  2.2147  0.1548
  741SOL    HW2 2223   2.486   0.074   2.381 -0.8373  1.5003  1.9852
  742SOL     OW 2224   2.185   1.406   0.189 -0.1767 -0.1981 -0.1607
  742SOL    HW1 2225   2.087   1.439   0.181  0.5562  0.8637 -1.5803
  742SOL    HW2 2226   2.197   1.302   0.220 -3.4892 -2.7131 -0.3204
  743SOL     OW 2227   1.834   0.616   2.616  0.0232 -0.0996  0.2562
  743SOL    HW1 2228   1.793   0.559   2.541 -1.6416 -0.5861  1.8722
  743SOL    HW2 2229   1.768   0.686   2.647  0.5130  1.2323 -1.2945
  744SOL     OW 2230   2.644   2.168   0.102  0.6702  0.3605 -1.3603
  744SOL    HW1 2231   2.541   2.186   0.094  2.1186 -1.0109  0.3114
  744SOL    HW2 2232   2.657   2.066   0.113 -1.6508 -0.2905  0.1878
  745SOL     OW 2233   2.192   2.539   2.219  0.7095  0.6696  0.1627
  745SOL    HW1 2234   2.105   2.559   2.167  0.0933 -0.5525 -1.1152
  745SOL    HW2 2235   2.178   2.519   2.317 -0.5834  1.2157 -2.8594
  746SOL     OW 2236   0.019   2.579   1.756  0.3346  0.3124 -0.0998
  746SOL    HW1 2237   0.096   2.564   1.686  0.7294 -0.1725 -1.9144
  746SOL    HW2 2238   0.026   2.673   1.802  1.1409  1.8092 -2.3135
  747SOL     OW 2239   0.024   1.793   1.646  0.7743 -0.1712 -0.4557
  747SOL    HW1 2240  -0.036   1.705   1.645 -1.3813 -0.4305  0.8773
  747SOL    HW2 2241   0.090   1.810   1.566  0.6842  3.7274  1.7620
  748SOL     OW 2242   1.837   2.717   2.915 -0.2347  0.7027 -0.1457
  748SOL    HW1 2243   1.843   2.766   3.003  1.2802 -3.5158 -3.1898
  748SOL    HW2 2244   1.748   2.718   2.866  1.4669 -1.1512  0.1930
  749SOL     OW 2245   1.309   2.949   0.841  0.2371  0.6886  0.5834
  749SOL    HW1 2246   1.225   3.005   0.799 -0.4617  1.3367 -0.4190
  749SOL    HW2 2247   1.401   2.974   0.807  1.5747 -2.2948  0.5423
  750SOL     OW 2248   2.231   0.177   1.854 -0.7694 -0.2443 -0.0627
  750SOL    HW1 2249   2.259   0.231   1.766  1.2326 -1.8227 -2.1659
  750SOL    HW2 2250   2.252   0.244   1.934  0.9272  1.7227  2.8437
  751SOL     OW 2251   0.780   2.139   2.892  0.1258 -0.1893 -0.6040
  751SOL    HW1 2252   0.862   2.144   2.954  0.3065  1.4386 -2.1119
  751SOL    HW2 2253   0.696   2.089   2.936  0.9538 -1.5276  1.1225
  752SOL     OW 2254   1.328   0.801   1.170 -0.7170 -0.1443  0.0500
  752SOL    HW1 2255   1.347   0.902   1.178  0.8717 -1.1720 -0.1843
  752SOL    HW2 2256   1.409   0.740   1.201 -0.6021 -1.2283 -1.1755
  753SOL     OW 2257   0.966   2.564   1.782 -0.4439  0.0445  0.0137
  753SOL    HW1 2258   1.068   2.577   1.794  3.0936  0.9183  2.5027
  753SOL    HW2 2259   0.912   2.640   1.828 -3.9774  1.2005  0.9945
  754SOL     OW 2260   1.179   1.149   2.989  0.1092 -0.0982 -0.0986
  754SOL    HW1 2261   1.232   1.074   2.942 -0.1117  1.3771  1.4497
  754SOL    HW2 2262   1.223   1.241   2.981 -0.0602 -0.7656  0.4672
  755SOL     OW 2263   1.966   0.467   2.213  0.1477 -0.3747 -0.0629
  755SOL    HW1 2264   2.026   0.395   2.246 -2.4655  2.9014  1.2845
  755SOL    HW2 2265   1.881   0.474   2.279 -1.0163  0.0942 -0.1081
  756SOL     OW 2266   2.495   0.970   3.002  0.1866  0.0017  0.1005
  756SOL    HW1 2267   2.596   0.965   2.999 -0.5416  1.9261 -0.6436
  756SOL    HW2 2268   2.446   0.884   3.038 -2.3667  1.6408  1.5347
  757SOL     OW 2269   0.091   0.425   1.967 -0.2032 -0.1499 -0.0777
  757SOL    HW1 2270   0.122   0.324   1.944 -2.5187 -3.1138 -1.5460
  757SOL    HW2 2271   0.014   0.424   2.030 -1.2156 -0.4929 -0.7956
  758SOL     OW 2272   2.271   0.077   1.493 -1.0146  0.4895  0.3610
  758SOL    HW1 2273   2.239  -0.011   1.545  1.3679 -1.2482  1.6771
  758SOL    HW2 2274   2.290   0.062   1.393  1.6853 -1.2431 -0.1509
  759SOL     OW 2275   1.701   0.077   0.060 -0.1281 -0.8755 -0.3634
  759SOL    HW1 2276   1.667   0.073  -0.041 -1.4855  1.1742  1.5384
  759SOL    HW2 2277   1.806   0.087   0.071 -0.2122  0.4625 -0.4970
  760SOL     OW 2278   2.703   2.013   2.848 -0.1684 -0.0410 -0.4037
  760SOL    HW1 2279   2.608   2.025   2.881  1.5573 -0.8238  0.2260
  760SOL    HW2 2280   2.746   2.108   2.841 -2.1404  1.4262  3.0258
  761SOL     OW 2281   1.917   1.759   1.710  0.1479 -0.1716  0.4278
  761SOL    HW1 2282   1.937   1.680   1.773 -0.0848 -1.8998 -1.3232
  761SOL    HW2 2283   1.855   1.735   1.632 -1.0553 -0.9717  2.4466
  762SOL     OW 2284   0.488   2.421   0.930 -0.0763 -0.2681 -0.1085
  762SOL    HW1 2285   0.538   2.420   0.840  0.7559 -0.6560 -1.1601
  762SOL    HW2 2286   0.560   2.418   1.005  0.5745  1.1783  0.1491
  763SOL     OW 2287   2.123   1.598   2.982 -0.2894 -0.2906 -0.3302
  763SOL    HW1 2288   2.222   1.564   2.994 -2.7326 -1.4758 -0.6561
  763SOL    HW2 2289   2.058   1.552   3.053 -0.6729 -1.9976  0.5423
  764SOL     OW 2290   0.668   0.601   0.671  0.2896  0.0872  0.2052
  764SOL    HW1 2291   0.572   0.564   0.645  1.9321  0.3075  0.3294
  764SOL    HW2 2292   0.702   0.550   0.753 -1.5327  0.4226 -1.5188
  765SOL     OW 2293   0.814   0.331   0.712 -0.0897  0.4129 -0.2729
  765SOL    HW1 2294   0.859   0.345   0.614  1.5462 -0.5591 -0.2661
  765SOL    HW2 2295   0.824   0.408   0.773 -1.6695  0.2996 -1.2029
  766SOL     OW 2296   2.915   2.163   3.059  0.2400 -0.4578  0.3152
  766SOL    HW1 2297   2.820   2.196   3.052  0.0972  1.2625  0.3061
  766SOL    HW2 2298   2.979   2.241   3.092 -0.6528  0.7279 -0.6399
  767SOL     OW 2299   2.834   1.599   0.579 -0.0046  0.0914  0.5202
  767SOL    HW1 2300   2.741   1.630   0.616 -0.4062 -0.1726  0.6536
  767SOL    HW2 2301   2.914   1.641   0.629 -1.6473 -1.0859  1.7799
  768SOL     OW 2302   1.056   0.194   0.181  0.7107 -0.0848  0.4555
  768SOL    HW1 2303   1.038   0.240   0.273 -0.0456 -0.4525 -0.3598
  768SOL    HW2 2304   1.150   0.153   0.174  1.6754  0.6426 -3.2108
  769SOL     OW 2305   1.135   1.819   2.286  0.2816  0.2579  0.0612
  769SOL    HW1 2306   1.043   1.833   2.329 -1.6199 -0.4660  1.9017
  769SOL    HW2 2307   1.206   1.803   2.356 -1.9104  0.2305 -1.0627
  770SOL     OW 2308   0.175   1.154   2.339 -0.2972 -0.1912  0.3818
  770SOL    HW1 2309   0.176   1.224   2.413 -2.2198  0.7949 -2.9118
  770SOL    HW2 2310   0.076   1.128   2.315 -0.2875 -1.0965 -1.0869
  771SOL     OW 2311   3.045   2.817   1.925 -0.4990  0.4459  0.5090
  771SOL    HW1 2312   2.984   2.845   1.841  0.0798  0.0135 -0.9920
  771SOL    HW2 2313   3.046   2.887   2.005 -1.2872 -2.3155  1.8804
  772SOL     OW 2314   2.352   0.238   2.836  0.0531  0.1392 -0.6897
  772SOL    HW1 2315   2.415   0.158   2.813  3.1137  1.6797  0.8632
  772SOL    HW2 2316   2.334   0.241   2.942 -1.6071 -0.5854 -2.6780
  773SOL     OW 2317   0.585   2.060   2.419  0.2797 -0.2246  0.0842
  773SOL    HW1 2318   0.539   2.142   2.375  0.2117  2.0028 -0.5463
  773SOL    HW2 2319   0.517   1.987   2.460 -1.5787 -2.4236 -2.0606
  774SOL     OW 2320   2.131   0.016   2.589 -0.0087  0.3314 -0.2883
  774SOL    HW1 2321   2.135   0.112   2.623 -0.1720 -2.3273  2.8927
  774SOL    HW2 2322   2.183  -0.055   2.645  1.9612  1.0092 -0.8752
  775SOL     OW 2323   2.554   2.920   2.237 -0.5332  0.6740  0.0301
  775SOL    HW1 2324   2.482   3.001   2.246  0.4063  2.2472  0.1553
  775SOL    HW2 2325   2.607   2.898   2.323  0.9441 -0.9031  0.9212
  776SOL     OW 2326   0.023   1.241   0.200 -0.1484  0.1208  0.1043
  776SOL    HW1 2327  -0.039   1.199   0.125 -1.0919  2.0792 -1.7842
  776SOL    HW2 2328  -0.013   1.242   0.301  0.0751 -1.1351 -0.4567
  777SOL     OW 2329   0.397   2.967   0.487 -0.0919 -0.6386 -0.4611
  777SOL    HW1 2330   0.299   2.937   0.464  1.1968  2.0294  0.2531
  777SOL    HW2 2331   0.473   2.913   0.441 -1.5844  1.5807 -2.7954
  778SOL     OW 2332   1.389   2.011   0.266 -0.2828  0.0733  0.1326
  778SOL    HW1 2333   1.301   2.054   0.305  0.7350 -0.3496  0.4439
  778SOL    HW2 2334   1.398   2.040   0.165 -0.6692 -1.2709 -0.1289
  779SOL     OW 2335   0.150   0.802   0.467  0.3954 -0.1239  0.1207
  779SOL    HW1 2336   0.098   0.718   0.486  0.1590 -0.9270 -0.9353
  779SOL    HW2 2337   0.115   0.889   0.520  0.1486  2.2844  1.4892
  780SOL     OW 2338   0.121   0.318   2.334 -0.0894 -0.3747 -0.1802
  780SOL    HW1 2339   0.140   0.381   2.418 -1.2664 -2.1729  1.0174
  780SOL    HW2 2340   0.202   0.316   2.268  0.0266 -0.2411  2.8077
  781SOL     OW 2341   0.696   1.667   1.519  0.8342  0.6513 -0.3285
  781SOL    HW1 2342   0.744   1.591   1.572 -0.7736 -0.8673  0.1109
  781SOL    HW2 2343   0.600   1.641   1.486  1.5353  0.2644 -1.1969
  782SOL     OW 2344   2.574   0.050   0.918 -0.2057  0.5619  0.0464
  782SOL    HW1 2345   2.491   0.065   0.853  0.4234  1.2587 -1.6015
  782SOL    HW2 2346   2.552   0.066   1.019 -1.1233 -4.0080  2.1531
  783SOL     OW 2347   2.752   0.729   2.461  0.0743 -0.1603  0.1841
  783SOL    HW1 2348   2.731   0.737   2.563 -0.8475  1.4402  2.4925
  783SOL    HW2 2349   2.737   0.635   2.413 -0.3333 -1.3634 -0.4832
  784SOL     OW 2350   1.427   2.130   0.026  0.0297  0.9112  0.1308
  784SOL    HW1 2351   1.454   2.227   0.039  2.5556 -1.9299 -0.0308
  784SOL    HW2 2352   1.405   2.103  -0.073 -0.7843  0.0563 -3.1913
  785SOL     OW 2353   2.086   0.296   3.086  0.3653  0.4378 -0.0836
  785SOL    HW1 2354   1.997   0.310   3.144 -3.4183 -0.4417  1.6133
  785SOL    HW2 2355   2.123   0.387   3.048 -1.0258  0.2646 -0.0877
  786SOL     OW 2356   2.059   2.191   2.271  0.0820 -0.2894 -0.0919
  786SOL    HW1 2357   2.024   2.096   2.315 -1.7807 -1.5255  2.0555
  786SOL    HW2 2358   2.160   2.190   2.261 -0.4780  0.7645 -1.8513
  787SOL     OW 2359   1.378   0.545   0.870 -0.1927 -0.0501  0.2419
  787SOL    HW1 2360   1.300   0.616   0.841 -1.0508  2.1321 -0.4506
  787SOL    HW2 2361   1.452   0.534   0.796 -1.3835  1.5703 -0.3988
  788SOL     OW 2362   1.228   0.420   0.012  0.4513 -0.1120 -0.2752
  788SOL    HW1 2363   1.144   0.386  -0.042 -0.1510 -0.5669  2.6607
  788SOL    HW2 2364   1.203   0.494   0.082  5.2805 -0.6292  0.9138
  789SOL     OW 2365   2.532   0.122   1.960 -0.5829  0.0215 -0.3425
  789SOL    HW1 2366   2.480   0.110   1.871 -1.0818  0.5951  0.0918
  789SOL    HW2 2367   2.611   0.046   1.973  1.3236 -1.4503 -1.6731
  790SOL     OW 2368   2.620   2.766   0.701 -0.4502 -0.1501 -0.2685
  790SOL    HW1 2369   2.680   2.826   0.637 -0.7132  0.0495  0.3542
  790SOL    HW2 2370   2.655   2.763   0.794 -0.2912  2.8831 -1.5602
  791SOL     OW 2371   1.927   1.198   0.176  0.2579  0.1909  0.4671
  791SOL    HW1 2372   1.863   1.139   0.230  4.4658  1.7146  1.3962
  791SOL    HW2 2373   2.023   1.180   0.206 -2.4210 -3.0205 -0.6455
  792SOL     OW 2374   0.427   1.771   2.180 -0.1450 -0.4394 -0.5715
  792SOL    HW1 2375   0.488   1.830   2.241 -2.3099 -3.0173  1.0678
  792SOL    HW2 2376   0.434   1.670   2.194 -1.7918  0.1895 -0.7455
  793SOL     OW 2377   2.126   1.607   2.072  0.0391 -0.3874  0.2365
  793SOL    HW1 2378   2.203   1.670   2.033 -0.1966  0.6637  2.6070
  793SOL    HW2 2379   2.127   1.511   2.039  0.8475  0.2005  0.9268
  794SOL     OW 2380   0.498   1.494   2.288  0.4858 -0.0757 -0.0219
  794SOL    HW1 2381   0.489   1.438   2.199 -1.0975 -3.7448 -0.0250
  794SOL    HW2 2382   0.420   1.474   2.355  0.1397 -1.1641  1.0699
  795SOL     OW 2383   2.497   2.245   1.811  0.1075  0.1796 -0.1643
  795SOL    HW1 2384   2.439   2.242   1.890  1.5656  2.4986 -1.3703
  795SOL    HW2 2385   2.464   2.187   1.732 -0.8969  0.8558  0.4677
  796SOL     OW 2386   3.079   1.096   2.658  0.1969 -0.1338 -0.6958
  796SOL    HW1 2387   2.987   1.062   2.682  2.3864 -1.0874 -2.5780
  796SOL    HW2 2388   3.127   1.134   2.741 -0.9268  2.2848 -1.2325
  797SOL     OW 2389   0.819   0.637   1.422  0.2472 -0.3209 -0.3856
  797SOL    HW1 2390   0.900   0.688   1.467  1.1886 -0.4153  1.1841
  797SOL    HW2 2391   0.765   0.704   1.362  1.3588  2.0365 -2.2558
  798SOL     OW 2392   1.317   0.437   1.187 -0.1432 -0.0105 -0.0613
  798SOL    HW1 2393   1.370   0.402   1.269 -0.4572  1.8784 -1.1343
  798SOL    HW2 2394   1.377   0.467   1.106  0.3816  1.9921  2.7047
  799SOL     OW 2395   1.963   2.646   1.037 -0.0974 -0.2566  0.0151
  799SOL    HW1 2396   1.897   2.617   1.111 -0.4969 -0.3242 -1.1690
  799SOL    HW2 2397   1.914   2.648   0.945 -0.6636  1.4402 -1.4860
  800SOL     OW 2398   3.041   0.626   1.842 -0.3286  0.1690  0.6278
  800SOL    HW1 2399   2.985   0.703   1.889  0.4323  1.4232  0.6168
  800SOL    HW2 2400   3.104   0.571   1.900  0.9227  1.0681  1.7035
  801SOL     OW 2401   1.902   2.202   0.155 -0.0095  0.8543 -0.4804
  801SOL    HW1 2402   1.820   2.145   0.120 -0.1685  0.0053 -0.8387
  801SOL    HW2 2403   1.997   2.175   0.121 -1.3102  4.3595 -1.4537
  802SOL     OW 2404   0.740   0.783   2.590 -0.2740 -0.4033 -0.4370
  802SOL    HW1 2405   0.805   0.779   2.512 -1.1400  2.7290  2.4142
  802SOL    HW2 2406   0.667   0.711   2.581 -0.8821 -2.4591 -1.1951
  803SOL     OW 2407   0.896   0.164   0.933  0.1156 -0.4012  0.0097
  803SOL    HW1 2408   0.991   0.207   0.947  3.5480 -0.4464 -0.9430
  803SOL    HW2 2409   0.848   0.209   0.851 -0.5566 -0.3225 -0.1596
  804SOL     OW 2410   0.410   3.029   2.114 -0.3894  0.8820  0.5141
  804SOL    HW1 2411   0.343   3.081   2.052  0.3470  2.6261 -1.1307
  804SOL    HW2 2412   0.415   2.928   2.090 -0.5926 -0.4916 -0.5700
  805SOL     OW 2413   2.433   0.262   0.271  0.0217 -0.6359 -0.7316
  805SOL    HW1 2414   2.534   0.263   0.274 -1.2692 -0.0530 -0.8187
  805SOL    HW2 2415   2.395   0.236   0.179  2.1972  1.0479  2.1788
  806SOL     OW 2416   0.671   2.414   1.683 -0.2707  0.5268  0.1377
  806SOL    HW1 2417   0.665   2.518   1.669 -0.4464 -0.4314  0.6078
  806SOL    HW2 2418   0.764   2.378   1.653 -1.3720 -0.1745  1.6885
  807SOL     OW 2419   2.470   0.946   0.429 -0.5259  0.9165  0.3266
  807SOL    HW1 2420   2.553   0.892   0.452 -2.0603 -0.5224 -2.0627
  807SOL    HW2 2421   2.450   0.938   0.330  0.4882  3.0558  0.5689
  808SOL     OW 2422   0.573   2.011   2.981 -0.4684 -0.1390 -0.1557
  808SOL    HW1 2423   0.560   2.045   3.079 -0.8830 -0.2462  0.2472
  808SOL    HW2 2424   0.548   1.913   2.966  3.6839  1.2410 -1.7958
  809SOL     OW 2425   2.646   1.978   1.950 -0.7952 -0.5144  0.3451
  809SOL    HW1 2426   2.728   2.048   1.946 -0.3359  2.3505  0.5993
  809SOL    HW2 2427   2.610   1.967   1.851 -1.1541 -0.1528  0.4911
  810SOL     OW 2428   2.064   1.128   0.518 -0.3931 -0.2698 -0.6172
  810SOL    HW1 2429   2.095   1.072   0.600  0.7235 -1.6044  0.9657
  810SOL    HW2 2430   2.013   1.210   0.541 -0.1675 -0.5680 -0.7534
  811SOL     OW 2431   1.274   2.412   1.242  0.2568  0.2966  0.7773
  811SOL    HW1 2432   1.232   2.318   1.261 -0.4640  0.6320  1.0233
  811SOL    HW2 2433   1.250   2.438   1.143  0.0318  0.3392 -0.0931
  812SOL     OW 2434   1.378   0.781   1.953  0.1267 -0.0216 -0.5341
  812SOL    HW1 2435   1.444   0.846   2.005  2.7551  0.8213 -2.2186
  812SOL    HW2 2436   1.288   0.825   1.925 -1.1453  0.6512  0.6306
  813SOL     OW 2437   1.747   2.073   2.473  0.2215  0.6021 -0.5004
  813SOL    HW1 2438   1.841   2.038   2.451  3.9361  0.7988 -1.5409
  813SOL    HW2 2439   1.683   2.066   2.395  1.2297 -0.3824  1.2601
  814SOL     OW 2440   2.849   1.538   2.901 -0.1517 -0.0910 -0.1189
  814SOL    HW1 2441   2.940   1.548   2.946 -0.1941 -0.0607 -0.4065
  814SOL    HW2 2442   2.834   1.608   2.828  1.0319  1.0621  2.4626
  815SOL     OW 2443   2.243   2.905   2.725  0.0958  0.1670 -0.2123
  815SOL    HW1 2444   2.203   2.827   2.783  1.2654  3.0119  3.8613
  815SOL    HW2 2445   2.344   2.893   2.721  0.8472  0.1250 -0.9538
  816SOL     OW 2446   1.750   0.357   1.695 -0.0006 -0.0402 -0.0202
  816SOL    HW1 2447   1.652   0.328   1.706  1.9201 -2.6169 -1.0649
  816SOL    HW2 2448   1.785   0.400   1.786 -3.1866  2.3569  0.4174
  817SOL     OW 2449   0.474   1.205   2.456  0.1371 -0.3424 -0.4163
  817SOL    HW1 2450   0.416   1.287   2.462  4.4343  0.3017 -0.0269
  817SOL    HW2 2451   0.452   1.155   2.366 -1.1077 -0.3392 -1.1548
  818SOL     OW 2452   2.028   0.860   0.423  0.6646 -0.4902  0.1253
  818SOL    HW1 2453   2.028   0.957   0.392 -1.9397  0.3669  0.9961
  818SOL    HW2 2454   1.973   0.852   0.510 -0.9506  1.1676 -1.7034
  819SOL     OW 2455   2.768   2.949   3.043 -0.2021 -0.1718  0.0110
  819SOL    HW1 2456   2.853   2.891   3.027  2.2211 -0.8461  1.4554
  819SOL    HW2 2457   2.683   2.923   2.991  1.1673  0.3132  1.4330
  820SOL     OW 2458   1.214   1.120   0.518  0.5089  0.0950 -0.6625
  820SOL    HW1 2459   1.253   1.204   0.558  3.1528 -1.9087 -1.1553
  820SOL    HW2 2460   1.169   1.049   0.584  0.8197 -1.5893  2.7771
  821SOL     OW 2461   3.062   1.281   0.661 -0.4102 -0.0708  0.3098
  821SOL    HW1 2462   3.017   1.299   0.751  1.6624 -0.0387  1.7864
  821SOL    HW2 2463   3.159   1.323   0.651  2.1304  0.7975 -0.0105
  822SOL     OW 2464   2.525   1.772   2.420 -0.2114  0.3901 -0.1886
  822SOL    HW1 2465   2.516   1.848   2.493  0.3534  2.0437  2.3672
  822SOL    HW2 2466   2.503   1.805   2.325 -0.8001 -0.7426  0.1320
  823SOL     OW 2467   2.036   0.896   1.209  0.0714 -0.0587  0.6195
  823SOL    HW1 2468   1.989   0.876   1.297 -0.5538 -2.4832 -1.2339
  823SOL    HW2 2469   1.969   0.914   1.133  1.0712  0.4611  0.3154
  824SOL     OW 2470   0.166   2.016   2.727 -0.3478 -0.1110  0.0113
  824SOL    HW1 2471   0.134   1.967   2.814 -1.7556  1.5814  1.9683
  824SOL    HW2 2472   0.163   1.955   2.645  0.0775  2.3492 -0.9358
  825SOL     OW 2473   1.236   1.044   0.245 -0.0600 -0.1386 -0.5633
  825SOL    HW1 2474   1.241   1.063   0.348 -0.1493 -2.1966  3.1051
  825SOL    HW2 2475   1.227   1.129   0.188 -0.1249 -1.4941 -2.1110
  826SOL     OW 2476   1.939   0.620   1.528  0.3080  0.0402 -0.4147
  826SOL    HW1 2477   1.990   0.552   1.588 -2.5957  0.4913 -0.1331
  826SOL    HW2 2478   1.846   0.586   1.499  1.6600  1.0199  0.1670
  827SOL     OW 2479   0.756   1.421   0.297  0.2336  0.4243  0.3809
  827SOL    HW1 2480   0.775   1.361   0.213  1.9226  0.1730 -0.5155
  827SOL    HW2 2481   0.700   1.370   0.368 -0.2101  1.5181 -0.6544
  828SOL     OW 2482   2.556   0.084   1.575  0.0746 -0.1769 -0.1837
  828SOL    HW1 2483   2.463   0.123   1.557  1.5619 -2.6441  0.9521
  828SOL    HW2 2484   2.549  -0.002   1.635 -2.3040  1.1525 -1.8835
  829SOL     OW 2485   2.837   2.481   3.032  0.7183 -0.1417  0.1164
  829SOL    HW1 2486   2.770   2.405   3.016  1.2051  2.7684  2.0496
  829SOL    HW2 2487   2.803   2.551   3.096 -0.0868 -1.8819  0.6621
  830SOL     OW 2488   2.782   0.966   3.040 -0.0258 -0.1457  0.4843
  830SOL    HW1 2489   2.842   1.039   3.087 -1.7827 -0.8955  1.1567
  830SOL    HW2 2490   2.814   0.868   3.045 -0.8037  0.1552 -2.4878
  831SOL     OW 2491   0.005   0.585   0.359  0.5859  0.0386 -0.6932
  831SOL    HW1 2492  -0.040   0.529   0.439 -1.4095 -1.5209 -0.8356
  831SOL    HW2 2493   0.074   0.538   0.300  0.3255 -0.1089  0.1630
  832SOL     OW 2494   1.773   0.738   3.089 -0.4768 -0.0686 -0.3549
  832SOL    HW1 2495   1.696   0.803   3.063 -1.4618  0.8437  0.6559
  832SOL    HW2 2496   1.780   0.650   3.036  0.6425  0.2938 -0.1446
  833SOL     OW 2497   2.468   2.157   0.497  0.3579 -0.0147 -0.2658
  833SOL    HW1 2498   2.362   2.160   0.506  0.1396  1.9809  0.8056
  833SOL    HW2 2499   2.498   2.061   0.469 -1.0938  2.3583 -2.2071
  834SOL     OW 2500   0.072   0.254   0.639  0.0900  0.1581 -0.1717
  834SOL    HW1 2501   0.141   0.190   0.693  0.8590 -0.3801  1.9404
  834SOL    HW2 2502   0.089   0.254   0.536 -2.8005  1.8255  1.6502
  835SOL     OW 2503   2.368   1.496   1.170 -0.7759 -0.4743 -0.2637
  835SOL    HW1 2504   2.452   1.539   1.217 -1.5001 -1.1706  0.5418
  835SOL    HW2 2505   2.379   1.474   1.071  1.5941  0.3046  3.1165
  836SOL     OW 2506   1.516   0.809   2.576  0.1505 -0.6168  0.4875
  836SOL    HW1 2507   1.410   0.817   2.574 -0.3431  1.0363  0.3208
  836SOL    HW2 2508   1.557   0.817   2.479  0.9909 -1.4475 -0.1598
  837SOL     OW 2509   1.587   0.044   0.512  1.0886  0.2792  0.7354
  837SOL    HW1 2510   1.550   0.117   0.579 -0.0374  1.2392 -0.6314
  837SOL    HW2 2511   1.577   0.071   0.412  1.9010  2.2701 -1.2598
  838SOL     OW 2512   1.289   1.596   2.672 -0.2637  0.2417  0.2372
  838SOL    HW1 2513   1.348   1.541   2.733 -0.9705 -2.0021  0.8372
  838SOL    HW2 2514   1.225   1.535   2.622  0.5091 -1.3904  0.8657
  839SOL     OW 2515   1.636   0.272   0.984  0.1615  0.4192 -0.1617
  839SOL    HW1 2516   1.668   0.343   1.059  0.5915 -0.7018  2.0351
  839SOL    HW2 2517   1.611   0.178   1.019 -0.2157  1.4127  1.4891
  840SOL     OW 2518   2.541   2.965   1.722  0.1184 -0.2215  0.1786
  840SOL    HW1 2519   2.510   2.903   1.644  0.4047  0.7408 -3.2128
  840SOL    HW2 2520   2.584   2.905   1.791 -1.1434  0.2845  0.8320
  841SOL     OW 2521   1.568   0.904   3.052 -0.1224 -0.2200 -0.4940
  841SOL    HW1 2522   1.479   0.877   3.100 -1.0486 -1.9231  1.8896
  841SOL    HW2 2523   1.552   0.966   2.969  2.0768 -0.9653  2.3294
  842SOL     OW 2524   0.830   1.540   0.844  0.1117  0.3126  0.2876
  842SOL    HW1 2525   0.802   1.599   0.923  0.2661  0.4994  1.8104
  842SOL    HW2 2526   0.758   1.470   0.829 -0.7662  0.1246  2.0811
  843SOL     OW 2527   0.196   3.056   1.393 -0.1960  0.4360 -0.3722
  843SOL    HW1 2528   0.205   3.130   1.466 -0.2278 -2.5430 -1.1075
  843SOL    HW2 2529   0.161   2.963   1.426 -0.1061  1.0636  1.3716
  844SOL     OW 2530   0.820   2.464   0.256 -0.4381 -0.4819 -0.1754
  844SOL    HW1 2531   0.741   2.441   0.318 -0.9642  0.5313 -1.3409
  844SOL    HW2 2532   0.785   2.512   0.171  0.0418  0.4710  1.0471
  845SOL     OW 2533   1.654   2.834   1.247  0.4713  0.1465  0.0148
  845SOL    HW1 2534   1.718   2.752   1.240  0.2857 -1.0019  0.8184
  845SOL    HW2 2535   1.675   2.877   1.335  0.4828  2.0126 -0.7265
  846SOL     OW 2536   1.569   2.973   0.749 -0.1570 -0.5901 -0.9999
  846SOL    HW1 2537   1.577   3.028   0.660  1.1132  0.2536  1.1704
  846SOL    HW2 2538   1.653   2.918   0.772  0.5798  3.9119 -0.8306
  847SOL     OW 2539   2.092   1.726   0.446 -0.1890 -0.2610 -0.4948
  847SOL    HW1 2540   2.091   1.626   0.409  2.3741  1.0632 -3.1919
  847SOL    HW2 2541   2.006   1.764   0.470  2.4995  0.0121 -0.1342
  848SOL     OW 2542   2.406   0.888   2.619 -0.1348  0.2685 -0.4561
  848SOL    HW1 2543   2.372   0.977   2.660  0.4154 -0.8736 -0.6742
  848SOL    HW2 2544   2.332   0.818   2.593 -0.6543 -0.1982 -0.1966
  849SOL     OW 2545   2.530   0.889   2.374  0.1218 -0.5123 -0.4560
  849SOL    HW1 2546   2.624   0.840   2.398  2.9293 -1.9925 -0.5037
  849SOL    HW2 2547   2.474   0.895   2.461  1.9648 -1.8004  0.2561
  850SOL     OW 2548   1.564   0.043   1.310 -0.6821  0.2490  1.0315
  850SOL    HW1 2549   1.567   0.005   1.217 -1.4498 -2.6102  0.5930
  850SOL    HW2 2550   1.509  -0.015   1.373  1.3072 -1.7269 -0.9127
  851SOL     OW 2551   0.522   1.753   0.646 -0.7143  0.3488 -0.4290
  851SOL    HW1 2552   0.603   1.807   0.680  2.4854  1.6621 -0.7034
  851SOL    HW2 2553   0.509   1.752   0.541 -2.2609 -0.4207 -3.0991
  852SOL     OW 2554   0.851   2.096   1.734  0.1009 -0.3884  0.6697
  852SOL    HW1 2555   0.897   2.186   1.712 -2.0065 -0.8639 -2.0992
  852SOL    HW2 2556   0.781   2.099   1.808  1.5358 -2.9094 -0.1468
  853SOL     OW 2557   2.545   1.554   2.609  0.1288 -0.0592 -0.1240
  853SOL    HW1 2558   2.461   1.497   2.597 -0.5843  2.7247  1.4785
  853SOL    HW2 2559   2.552   1.625   2.532  1.1511  0.7885 -0.8510
  854SOL     OW 2560   2.468   1.398   1.767 -0.3211 -0.1533 -0.0833
  854SOL    HW1 2561   2.518   1.367   1.685  0.1305 -1.7899  1.4862
  854SOL    HW2 2562   2.412   1.323   1.810 -1.3248  1.4681  0.9123
  855SOL     OW 2563   2.081   2.398   1.063 -0.3594  0.0215 -0.6734
  855SOL    HW1 2564   2.053   2.492   1.024  1.2722  0.9622 -1.4090
  855SOL    HW2 2565   2.171   2.406   1.115  0.3684 -0.9707 -0.5663
  856SOL     OW 2566   1.332   1.432   0.918 -0.4078 -0.0422  0.2227
  856SOL    HW1 2567   1.419   1.488   0.941 -0.5442 -0.0220 -0.1990
  856SOL    HW2 2568   1.247   1.469   0.960  1.1444 -3.6430 -0.1182
  857SOL     OW 2569   3.096   2.749   1.073  0.2588  0.2059 -0.5661
  857SOL    HW1 2570   3.080   2.713   0.974  0.5321 -0.8385 -1.3139
  857SOL    HW2 2571   3.181   2.798   1.082 -1.2312  0.2497  1.3220
  858SOL     OW 2572   2.405   2.075   1.622 -0.0328  0.5201  1.0225
  858SOL    HW1 2573   2.306   2.051   1.649 -0.1584 -1.9300  1.1079
  858SOL    HW2 2574   2.464   1.986   1.618  0.7386 -4.4611 -2.4439
  859SOL     OW 2575   2.437   0.531   1.067  0.2621 -0.3003 -0.6599
  859SOL    HW1 2576   2.500   0.564   0.989 -1.0336 -0.2962  1.1119
  859SOL    HW2 2577   2.486   0.462   1.132  1.4268 -1.1866 -2.5954
  860SOL     OW 2578   1.895   2.802   0.523 -0.0949  0.1964  0.3604
  860SOL    HW1 2579   1.891   2.745   0.434 -2.1798 -0.4984 -0.3347
  860SOL    HW2 2580   1.909   2.900   0.505  1.0441 -2.0511  1.7816
  861SOL     OW 2581   0.985   2.507   2.876 -0.4503 -0.0218  0.1930
  861SOL    HW1 2582   1.066   2.556   2.831 -0.1181  2.7257  0.5206
  861SOL    HW2 2583   0.969   2.532   2.976 -0.4970 -1.1735  1.0730
  862SOL     OW 2584   2.853   2.525   1.673  0.3805 -0.4096 -0.8633
  862SOL    HW1 2585   2.935   2.531   1.732 -2.6349  1.1036 -0.2231
  862SOL    HW2 2586   2.820   2.622   1.651  2.4757  1.6369  1.1846
  863SOL     OW 2587   1.825   2.708   0.272  0.1736  0.0906 -0.1758
  863SOL    HW1 2588   1.856   2.615   0.235 -0.6353 -0.9224  0.7544
  863SOL    HW2 2589   1.724   2.716   0.270 -1.5015 -1.1923  1.1658
  864SOL     OW 2590   2.029   1.247   2.817 -0.1302 -0.2220  0.5901
  864SOL    HW1 2591   2.026   1.205   2.724  1.7737  0.5658  1.0385
  864SOL    HW2 2592   2.092   1.332   2.808  0.1851  0.4050  0.1112
  865SOL     OW 2593   2.146   1.941   0.742  0.1168 -0.2077  0.2479
  865SOL    HW1 2594   2.224   1.887   0.785  0.5920  0.7100 -0.9557
  865SOL    HW2 2595   2.060   1.958   0.799  1.2495  1.4076 -1.2158
  866SOL     OW 2596   2.949   2.992   1.027 -0.2809  0.4583 -0.7271
  866SOL    HW1 2597   2.935   3.055   0.950  1.4270 -0.0847  2.0141
  866SOL    HW2 2598   3.011   2.907   1.007 -2.3259 -3.1041 -1.3529
  867SOL     OW 2599   0.333   1.395   0.883  0.5476  0.0184  0.3971
  867SOL    HW1 2600   0.340   1.344   0.793  0.9107  0.7221  1.9216
  867SOL    HW2 2601   0.328   1.495   0.875 -1.4582 -1.5662  1.0414
  868SOL     OW 2602   0.784   1.842   2.047  0.5574 -0.3434 -0.1651
  868SOL    HW1 2603   0.757   1.824   2.143  0.8242 -0.0877  1.0205
  868SOL    HW2 2604   0.718   1.908   2.005  1.4550 -1.1732 -0.0425
  869SOL     OW 2605   2.621   1.900   1.665 -0.0288  0.5051  0.3053
  869SOL    HW1 2606   2.688   1.961   1.623 -1.8842 -2.4543 -0.7906
  869SOL    HW2 2607   2.621   1.802   1.625  0.2322  0.8206 -0.0547
  870SOL     OW 2608   2.367   2.681   1.186 -0.3526  0.3230  0.8803
  870SOL    HW1 2609   2.361   2.589   1.235 -0.7820 -1.6864 -0.7491
  870SOL    HW2 2610   2.449   2.735   1.233 -1.0579 -0.8556  2.1807
  871SOL     OW 2611   3.050   2.239   0.517  0.4089  0.0165 -0.5779
  871SOL    HW1 2612   3.005   2.254   0.608  0.1891  0.7851 -3.4120
  871SOL    HW2 2613   2.980   2.244   0.443 -0.0083 -0.2318  0.2759
  872SOL     OW 2614   2.106   0.495   1.697 -0.1896  0.2941  0.4353
  872SOL    HW1 2615   2.064   0.477   1.787  1.9631 -1.7260 -1.5177
  872SOL    HW2 2616   2.183   0.430   1.673  0.8390 -1.1710  1.3816
  873SOL     OW 2617   1.711   2.078   3.099 -0.1746  0.7997 -0.2246
  873SOL    HW1 2618   1.608   2.072   3.101 -0.8131  0.2050  1.1348
  873SOL    HW2 2619   1.749   2.104   3.008 -1.5737 -0.9140 -0.2008
  874SOL     OW 2620   0.672   2.451   0.726 -0.3650 -0.1350  0.2305
  874SOL    HW1 2621   0.674   2.550   0.746  2.0397 -2.4665 -0.1476
  874SOL    HW2 2622   0.760   2.400   0.758  1.2645 -1.1265 -0.7362
  875SOL     OW 2623   2.252   1.514   1.434 -0.5928 -0.6238 -0.4132
  875SOL    HW1 2624   2.338   1.552   1.471 -1.1039 -1.8132 -3.4620
  875SOL    HW2 2625   2.264   1.497   1.332  0.0803 -1.0677 -0.2403
  876SOL     OW 2626   0.059   2.257   2.640 -0.4943 -0.2203  0.1369
  876SOL    HW1 2627   0.106   2.165   2.666 -1.7904 -0.3921 -0.9825
  876SOL    HW2 2628   0.113   2.335   2.669 -0.4207 -0.5267 -3.5762
  877SOL     OW 2629   2.899   2.634   0.636  0.2833  0.5084 -0.6627
  877SOL    HW1 2630   2.885   2.740   0.634  3.3911  0.4782  0.1078
  877SOL    HW2 2631   2.982   2.616   0.701  1.8867 -1.0833 -1.6552
  878SOL     OW 2632   2.844   1.612   2.302 -0.1044 -0.4500 -0.4306
  878SOL    HW1 2633   2.766   1.664   2.266  0.4267 -1.7719 -0.2891
  878SOL    HW2 2634   2.818   1.555   2.382  2.6189 -0.5339 -0.9927
  879SOL     OW 2635   2.444   0.045   1.176  0.2707  0.1141  0.6347
  879SOL    HW1 2636   2.497  -0.044   1.182  0.4892 -1.3632 -1.9358
  879SOL    HW2 2637   2.359   0.032   1.115 -1.9582  1.7784  0.7496
  880SOL     OW 2638   0.698   0.561   2.285  0.9350  0.3076  0.1812
  880SOL    HW1 2639   0.701   0.521   2.382  0.3345 -0.0131  0.6812
  880SOL    HW2 2640   0.735   0.496   2.211 -2.0407 -2.0549 -1.3004
  881SOL     OW 2641   0.827   0.072   0.385 -0.4527  0.1114  0.1309
  881SOL    HW1 2642   0.854  -0.026   0.405  0.8658 -1.0237  0.6966
  881SOL    HW2 2643   0.733   0.068   0.348  0.3452 -0.0309  0.0592
  882SOL     OW 2644   2.697   1.615   1.708  0.2742  0.4255  0.1240
  882SOL    HW1 2645   2.797   1.602   1.679  1.7092  0.0429 -1.5135
  882SOL    HW2 2646   2.689   1.646   1.804  1.7506  0.6733 -3.2351
  883SOL     OW 2647   0.787   0.521   0.929  0.2705  0.2788  0.5025
  883SOL    HW1 2648   0.852   0.600   0.950  1.0686 -1.8004  3.6795
  883SOL    HW2 2649   0.713   0.501   1.006 -2.7942  0.8653  0.3510
  884SOL     OW 2650   1.192   1.755   1.120 -0.4604  0.5776  0.1290
  884SOL    HW1 2651   1.161   1.663   1.084 -1.1843  1.0092 -2.3531
  884SOL    HW2 2652   1.129   1.840   1.092 -1.2548  0.8439  1.7351
  885SOL     OW 2653   2.356   1.896   2.215  0.4217 -0.2380 -0.4626
  885SOL    HW1 2654   2.282   1.852   2.273 -0.9375  0.8282 -2.5170
  885SOL    HW2 2655   2.368   1.997   2.223  0.6697  0.3262  1.6157
  886SOL     OW 2656   2.617   0.364   1.778 -0.0287  0.5657 -0.5014
  886SOL    HW1 2657   2.659   0.295   1.847 -0.0265  0.3932  1.4848
  886SOL    HW2 2658   2.683   0.442   1.763  0.2652 -1.1665  0.0404
  887SOL     OW 2659   0.159   2.085   1.253  0.1076  0.2722  0.0072
  887SOL    HW1 2660   0.072   2.030   1.247  0.5596  2.6109 -3.2260
  887SOL    HW2 2661   0.143   2.186   1.221 -0.8285 -0.0843  1.5570
  888SOL     OW 2662   0.593   1.250   1.515  0.1735  0.1246 -1.0466
  888SOL    HW1 2663   0.604   1.312   1.438 -1.5756 -2.7862  2.1312
  888SOL    HW2 2664   0.593   1.150   1.480  1.3810  0.2411 -3.1640
  889SOL     OW 2665   0.849   2.424   2.236  0.3232 -0.1828 -0.1382
  889SOL    HW1 2666   0.757   2.379   2.252 -0.8103  0.9436  1.1370
  889SOL    HW2 2667   0.898   2.394   2.146  1.6494 -1.2567 -0.3594
  890SOL     OW 2668   2.364   2.493   0.219 -0.3224 -1.0491 -0.6174
  890SOL    HW1 2669   2.385   2.555   0.138 -0.2365  2.1051 -1.2624
  890SOL    HW2 2670   2.313   2.540   0.294  1.8672  1.9675  0.3463
  891SOL     OW 2671   2.584   1.688   0.708 -0.1812  0.0436  0.0785
  891SOL    HW1 2672   2.567   1.643   0.797 -0.9524 -1.7326 -0.6462
  891SOL    HW2 2673   2.492   1.687   0.658 -2.1110  2.0622 -0.4353
  892SOL     OW 2674   0.353   0.369   2.200  0.1025  0.6813 -0.2067
  892SOL    HW1 2675   0.366   0.440   2.124 -1.5972  2.2762 -0.0058
  892SOL    HW2 2676   0.438   0.326   2.234 -1.6620  2.2342 -2.3524
  893SOL     OW 2677   1.702   0.258   2.744 -0.3155 -0.0440  0.6246
  893SOL    HW1 2678   1.780   0.308   2.795  1.0939 -1.4934  1.9556
  893SOL    HW2 2679   1.619   0.326   2.733 -3.5594 -1.1069 -1.2820
  894SOL     OW 2680   2.150   2.088   0.093  0.3749 -0.5785 -0.0764
  894SOL    HW1 2681   2.114   2.016   0.026 -3.7534  1.6382  1.5208
  894SOL    HW2 2682   2.177   2.041   0.185 -0.4504 -1.8638 -0.4586
  895SOL     OW 2683   2.731   1.437   0.921 -0.5274 -0.4698  0.2060
  895SOL    HW1 2684   2.813   1.379   0.956  1.3681 -0.4327  2.2465
  895SOL    HW2 2685   2.747   1.538   0.929  0.8222 -2.9286 -1.3274
  896SOL     OW 2686   1.784   1.816   1.247 -0.0923  0.3472  0.1936
  896SOL    HW1 2687   1.881   1.788   1.271  0.1580 -1.3406 -1.7873
  896SOL    HW2 2688   1.754   1.755   1.167  0.1644  1.6731 -0.7856
  897SOL     OW 2689   0.235   0.552   3.002 -0.5207 -0.5611 -0.0823
  897SOL    HW1 2690   0.170   0.614   2.940 -1.5526 -3.8876 -1.9437
  897SOL    HW2 2691   0.331   0.596   3.024  1.7060  2.8691 -0.5873
  898SOL     OW 2692   0.700   2.815   1.078  0.0307  0.0658 -0.1799
  898SOL    HW1 2693   0.768   2.890   1.098  1.7037 -1.3562  1.1401
  898SOL    HW2 2694   0.704   2.742   1.149  1.9604 -0.5891 -4.0008
  899SOL     OW 2695   2.862   0.950   1.354  0.2152  0.1976  0.4180
  899SOL    HW1 2696   2.842   0.905   1.258 -0.3377  0.8415 -0.9128
  899SOL    HW2 2697   2.965   0.978   1.364  0.2649 -2.0479 -0.1531
  900SOL     OW 2698   1.007   2.450   2.464 -0.2884 -0.2947 -0.0810
  900SOL    HW1 2699   0.945   2.453   2.383  0.2042 -0.1001 -0.2316
  900SOL    HW2 2700   0.970   2.407   2.549  0.6323 -0.9869 -1.7389
  901SOL     OW 2701   1.876   2.422   1.447  0.1226  0.7481 -0.2602
  901SOL    HW1 2702   1.864   2.349   1.369 -0.1034  1.2403 -3.0465
  901SOL    HW2 2703   1.974   2.424   1.485  3.7911  1.4015  1.4978
  902SOL     OW 2704   2.538   1.651   1.487 -0.0717  0.5728 -0.8616
  902SOL    HW1 2705   2.573   1.616   1.581  0.5508 -1.4099  0.7649
  902SOL    HW2 2706   2.586   1.607   1.407 -2.1866 -1.2315 -0.3029
  903SOL     OW 2707   0.326   2.409   2.000 -0.3341  0.2629  0.2132
  903SOL    HW1 2708   0.241   2.350   2.016  2.2536 -0.8332  0.7443
  903SOL    HW2 2709   0.332   2.457   1.907  0.8210  1.4659  0.8879
  904SOL     OW 2710   2.004   0.821   2.469  0.5881 -0.6230 -0.5312
  904SOL    HW1 2711   1.954   0.735   2.499  0.7254 -1.1889  1.2614
  904SOL    HW2 2712   2.027   0.817   2.367 -1.9662 -0.0802 -2.7662
  905SOL     OW 2713   2.806   0.091   2.408  0.2835 -0.2894 -0.3816
  905SOL    HW1 2714   2.872   0.020   2.436  0.8000  1.6390  2.2281
  905SOL    HW2 2715   2.842   0.187   2.418  0.3238 -0.2044  0.7996
  906SOL     OW 2716   0.188   1.738   1.901 -0.2501 -0.0295  0.2710
  906SOL    HW1 2717   0.141   1.756   1.811 -1.5586  1.2412 -1.3855
  906SOL    HW2 2718   0.273   1.792   1.916  2.6411 -2.7994  0.0843
  907SOL     OW 2719   0.235   2.502   0.980 -0.1431  0.5191  0.3449
  907SOL    HW1 2720   0.325   2.449   0.966  1.3613  0.9388 -0.2118
  907SOL    HW2 2721   0.241   2.605   0.953 -1.0234 -0.5973  1.6569
  908SOL     OW 2722   2.807   3.015   0.351 -0.2155  0.2469 -0.1193
  908SOL    HW1 2723   2.719   3.021   0.298  0.0753 -1.2256  0.4082
  908SOL    HW2 2724   2.858   2.926   0.325  1.3730 -2.0067 -0.0794
  909SOL     OW 2725   0.864   1.033   2.668 -0.8334 -0.4584  0.1791
  909SOL    HW1 2726   0.827   0.935   2.658  1.3013  1.2909  0.4008
  909SOL    HW2 2727   0.936   1.060   2.594  1.5723  1.1935  2.1196
  910SOL     OW 2728   1.783   1.900   2.136 -0.3988  0.2645  0.2101
  910SOL    HW1 2729   1.847   1.917   2.061  0.3897 -1.5535  2.1231
  910SOL    HW2 2730   1.712   1.972   2.151 -0.3504 -2.2286  4.4488
  911SOL     OW 2731   1.758   2.914   1.480 -0.1527 -0.1391 -0.2682
  911SOL    HW1 2732   1.864   2.928   1.476  0.8698  0.9270 -1.6808
  911SOL    HW2 2733   1.731   2.848   1.557 -1.8891  0.1848  0.4322
  912SOL     OW 2734   2.874   1.014   0.746 -0.1604  0.6175 -0.1756
  912SOL    HW1 2735   2.921   0.998   0.837 -0.7593 -0.4112 -1.4025
  912SOL    HW2 2736   2.815   1.098   0.748 -0.7005  2.1160  4.4065
  913SOL     OW 2737   2.621   1.275   1.573  0.5303  0.1543 -0.0868
  913SOL    HW1 2738   2.630   1.172   1.597 -1.1027 -0.5682 -3.2583
  913SOL    HW2 2739   2.638   1.297   1.472 -1.3296  1.5084  0.9717
  914SOL     OW 2740   2.823   0.605   1.185 -0.8768 -0.0018 -0.3157
  914SOL    HW1 2741   2.806   0.516   1.237 -3.1310  3.1338 -1.2672
  914SOL    HW2 2742   2.736   0.664   1.190  0.1841  0.4214 -0.2029
  915SOL     OW 2743   1.193   0.769   0.891 -0.8097  0.6311  0.0188
  915SOL    HW1 2744   1.254   0.772   0.978 -2.1981  2.7743  0.3145
  915SOL    HW2 2745   1.098   0.744   0.918 -0.6016  0.9029  0.2933
  916SOL     OW 2746   0.629   0.102   0.643 -0.1451  0.1096 -0.6431
  916SOL    HW1 2747   0.701   0.161   0.691  1.5845  1.7396  1.1813
  916SOL    HW2 2748   0.600   0.145   0.555 -1.0677  2.1655 -1.9552
  917SOL     OW 2749   2.901   2.597   2.013  0.3043 -0.0830 -0.3573
  917SOL    HW1 2750   2.800   2.612   1.991  3.0566 -2.3213  1.5879
  917SOL    HW2 2751   2.968   2.672   1.976 -0.1665 -0.9576 -1.1492
  918SOL     OW 2752   1.016   2.108   3.028 -0.2788  0.2744  0.1314
  918SOL    HW1 2753   1.027   2.194   3.087 -3.1140  0.5369 -2.6966
  918SOL    HW2 2754   1.093   2.093   2.962 -0.2860  2.1496  0.2394
  919SOL     OW 2755   0.843   1.646   2.805  0.5835  0.1083 -0.2617
  919SOL    HW1 2756   0.861   1.741   2.772  1.0435 -2.3554  1.4308
  919SOL    HW2 2757   0.820   1.585   2.727  2.6261  3.1795 -0.6482
  920SOL     OW 2758   1.335   1.803   2.486 -0.5905 -0.1299  0.4828
  920SOL    HW1 2759   1.416   1.774   2.423  0.2857 -0.5653  0.4584
  920SOL    HW2 2760   1.323   1.741   2.571 -1.1663 -2.8933  0.5193
  921SOL     OW 2761   1.144   0.044   2.602  0.3909 -0.0093 -0.1356
  921SOL    HW1 2762   1.137   0.040   2.501 -0.1452  2.0906 -0.1567
  921SOL    HW2 2763   1.048   0.059   2.648 -1.1325 -1.9090  2.6142
  922SOL     OW 2764   2.208   2.425   2.790 -0.1977  0.0194 -0.3544
  922SOL    HW1 2765   2.195   2.323   2.810  2.0414 -4.2547 -1.5184
  922SOL    HW2 2766   2.176   2.448   2.698 -1.4256  0.9228  2.2729
  923SOL     OW 2767   1.233   2.732   0.275  0.8193  0.1088 -0.2379
  923SOL    HW1 2768   1.268   2.808   0.334 -1.0599  0.6430 -1.7308
  923SOL    HW2 2769   1.273   2.639   0.296 -1.3900  0.1949  1.1791
  924SOL     OW 2770   2.943   1.706   0.153  0.2453 -0.0746 -0.0635
  924SOL    HW1 2771   2.850   1.673   0.126 -2.8422 -0.5858 -1.7524
  924SOL    HW2 2772   3.012   1.628   0.162  0.0299  0.1602  0.5717
  925SOL     OW 2773   0.040   2.838   1.516 -0.2166  0.5135 -0.6207
  925SOL    HW1 2774  -0.035   2.879   1.571 -0.5100 -2.0059  2.9267
  925SOL    HW2 2775  -0.006   2.768   1.449 -1.0337 -0.8676 -0.6210
  926SOL     OW 2776   1.277   2.794   1.307  0.2404  0.6308  0.0295
  926SOL    HW1 2777   1.314   2.774   1.210  1.8491 -0.3453  1.3071
  926SOL    HW2 2778   1.340   2.860   1.358 -1.0774  1.1091 -1.5403
  927SOL     OW 2779   0.361   2.634   1.783  0.1567  0.4440 -0.2226
  927SOL    HW1 2780   0.318   2.564   1.719  1.1430 -0.0499  0.3286
  927SOL    HW2 2781   0.314   2.726   1.785 -3.0252 -0.0831 -0.8358
  928SOL     OW 2782   1.600   2.085   2.232 -0.4965 -0.2854 -0.1186
  928SOL    HW1 2783   1.607   2.158   2.156  0.6300 -0.1727 -0.9897
  928SOL    HW2 2784   1.504   2.047   2.244  1.1351 -1.6738 -0.7067
  929SOL     OW 2785   2.454   2.485   2.877 -0.1354  0.1876 -0.4327
  929SOL    HW1 2786   2.353   2.464   2.852 -3.1033 -0.9649  2.5086
  929SOL    HW2 2787   2.509   2.487   2.791 -1.7172 -5.2387  1.9343
  930SOL     OW 2788   2.180   2.065   1.116  0.3880 -0.6424  0.3684
  930SOL    HW1 2789   2.178   2.015   1.205 -4.0618  1.5707 -0.7226
  930SOL    HW2 2790   2.224   2.158   1.124  0.7694  1.7618 -0.7629
  931SOL     OW 2791   0.479   1.673   2.591  0.4066  0.7823 -0.0447
  931SOL    HW1 2792   0.502   1.705   2.690 -2.2910  1.5946  0.4644
  931SOL    HW2 2793   0.557   1.618   2.545  0.8597  1.7599 -1.5758
  932SOL     OW 2794   0.377   0.036   0.044  0.5352 -0.2487  0.1585
  932SOL    HW1 2795   0.433   0.116   0.015  0.5153 -2.7037  1.1810
  932SOL    HW2 2796   0.410  -0.056   0.007 -2.2381 -0.5435 -0.6304
  933SOL     OW 2797   1.021   0.823   3.047  0.0452  0.1222  0.0033
  933SOL    HW1 2798   1.116   0.794   3.081  0.7252 -1.4055 -0.9248
  933SOL    HW2 2799   0.968   0.887   3.106 -0.7629 -0.0401  0.3086
  934SOL     OW 2800   0.848   2.951   2.633 -0.9921  0.0019  0.3081
  934SOL    HW1 2801   0.816   2.894   2.546  0.0218 -2.2770 -4.5634
  934SOL    HW2 2802   0.883   2.897   2.716 -1.5010  0.7082  0.3118
  935SOL     OW 2803   0.035   0.555   0.805 -0.2105  0.2329  0.3497
  935SOL    HW1 2804   0.012   0.491   0.722 -0.7932 -2.3958  0.2581
  935SOL    HW2 2805  -0.047   0.602   0.840  0.4459  0.8623  1.3736
  936SOL     OW 2806   1.121   2.866   0.058 -0.0012 -0.7596  0.4092
  936SOL    HW1 2807   1.205   2.900   0.003 -0.0949 -0.7237 -1.5099
  936SOL    HW2 2808   1.149   2.822   0.150 -1.0592 -0.9256  0.1429
  937SOL     OW 2809   1.955   2.612   2.059  0.6381  0.4209 -0.4262
  937SOL    HW1 2810   1.904   2.652   2.143 -1.8763  1.6225 -0.8730
  937SOL    HW2 2811   1.980   2.687   1.994  1.9932 -0.3234  0.2413
  938SOL     OW 2812   2.771   2.119   1.568  0.7782 -0.3971  0.5974
  938SOL    HW1 2813   2.726   2.211   1.577 -0.3311 -0.5107 -0.0045
  938SOL    HW2 2814   2.853   2.106   1.625 -0.7427 -1.4363 -0.6046
  939SOL     OW 2815   2.827   1.137   2.472  0.3187  0.2996  0.6005
  939SOL    HW1 2816   2.910   1.106   2.415  0.2075 -0.0679  0.2645
  939SOL    HW2 2817   2.821   1.103   2.569  2.2234  0.5640 -0.7042
  940SOL     OW 2818   1.086   0.459   2.762 -0.0271 -0.3685 -0.0292
  940SOL    HW1 2819   1.151   0.381   2.763 -0.5718  2.2420  1.0639
  940SOL    HW2 2820   1.019   0.465   2.679 -0.5996  0.8274 -0.7880
  941SOL     OW 2821   0.077   2.808   2.257 -0.1033 -0.1926 -0.3841
  941SOL    HW1 2822   0.123   2.721   2.218  0.9435  0.9975 -1.0012
  941SOL    HW2 2823   0.151   2.877   2.279 -3.4084 -1.6213  0.0685
  942SOL     OW 2824   0.098   0.081   2.486 -0.2391  0.0441  0.8740
  942SOL    HW1 2825   0.147   0.087   2.580  4.0440  1.7927  0.6683
  942SOL    HW2 2826   0.085   0.173   2.440 -0.0049  0.0761  0.3884
  943SOL     OW 2827   2.117   1.713   2.362 -0.0611 -0.1789 -0.1664
  943SOL    HW1 2828   2.118   1.649   2.283  1.4194  1.2269  4.9062
  943SOL    HW2 2829   2.132   1.666   2.456  0.6152 -0.6491 -0.1888
  944SOL     OW 2830   2.173   2.350   1.553 -0.0437  0.0256 -0.7416
  944SOL    HW1 2831   2.235   2.338   1.637 -0.4872 -1.3417  2.8862
  944SOL    HW2 2832   2.100   2.273   1.545 -1.4570  0.8913  2.0374
  945SOL     OW 2833   0.741   1.616   0.098 -0.2675 -0.4495 -0.5181
  945SOL    HW1 2834   0.657   1.589   0.041  1.3884  0.4756 -0.7388
  945SOL    HW2 2835   0.753   1.555   0.181 -0.8083 -1.7545 -0.4311
  946SOL     OW 2836   0.315   1.028   2.614 -0.3833  0.0183  0.2470
  946SOL    HW1 2837   0.296   0.952   2.548  1.9143 -0.2126 -0.9889
  946SOL    HW2 2838   0.385   1.097   2.586  0.3242 -1.2080  3.6672
  947SOL     OW 2839   1.471   0.510   3.046 -0.3092  0.0342  0.3316
  947SOL    HW1 2840   1.457   0.584   2.971 -1.2776 -2.4594  0.2956
  947SOL    HW2 2841   1.377   0.481   3.085 -0.2854  1.4043 -0.3713
  948SOL     OW 2842   1.930   2.938   2.167 -0.3011  0.8955  0.2261
  948SOL    HW1 2843   1.946   2.903   2.070  2.2276 -0.4313 -0.7398
  948SOL    HW2 2844   1.950   2.867   2.234 -0.4051  4.2853 -1.3383
  949SOL     OW 2845   0.594   2.446   0.460  0.3685 -0.5311  0.4448
  949SOL    HW1 2846   0.591   2.548   0.430 -0.7140  0.2821 -0.6966
  949SOL    HW2 2847   0.618   2.448   0.559  0.3929  1.3681 -1.0606
  950SOL     OW 2848   0.182   2.205   2.937  0.3133 -0.6375  0.5854
  950SOL    HW1 2849   0.148   2.301   2.920  3.1842 -1.7112 -0.9227
  950SOL    HW2 2850   0.176   2.143   2.851 -0.4305  1.0575 -3.9298
  951SOL     OW 2851   1.185   2.677   2.796 -0.8383 -0.0656  0.2097
  951SOL    HW1 2852   1.243   2.609   2.854 -1.2132 -1.0176 -0.0524
  951SOL    HW2 2853   1.236   2.723   2.723 -0.5090 -0.0568  1.5200
  952SOL     OW 2854   0.079   1.606   0.427  1.2365 -0.0373  0.8828
  952SOL    HW1 2855   0.126   1.692   0.465 -0.6057  1.8363  3.0869
  952SOL    HW2 2856   0.100   1.527   0.486 -2.0231 -1.5392 -1.7957
  953SOL     OW 2857   2.544   1.746   0.281  0.2305  0.3147 -0.0761
  953SOL    HW1 2858   2.508   1.645   0.268 -1.0046  0.0790 -0.6245
  953SOL    HW2 2859   2.525   1.806   0.204  2.8867 -2.2829 -0.2724
  954SOL     OW 2860   2.193   0.551   0.916 -1.0413  0.4188 -0.2979
  954SOL    HW1 2861   2.218   0.533   0.816  0.8400 -0.4685 -0.6882
  954SOL    HW2 2862   2.282   0.535   0.974  2.6097 -2.2656  0.0115
  955SOL     OW 2863   0.150   2.573   1.399 -1.3984 -0.4902 -0.3471
  955SOL    HW1 2864   0.049   2.605   1.378 -1.6407  0.3352  0.0557
  955SOL    HW2 2865   0.216   2.643   1.361  2.6088 -2.7326 -0.5283
  956SOL     OW 2866   2.835   2.508   2.497  0.5274 -0.0254  0.1747
  956SOL    HW1 2867   2.846   2.404   2.498 -2.5040 -1.1210  0.0252
  956SOL    HW2 2868   2.887   2.556   2.422 -1.0490  1.0861 -1.9120
  957SOL     OW 2869   1.642   2.083   2.750 -0.0317  0.0014  0.2466
  957SOL    HW1 2870   1.633   1.996   2.803  2.4012 -1.6345 -0.5115
  957SOL    HW2 2871   1.711   2.081   2.673 -1.7505 -0.5198  1.7282
  958SOL     OW 2872   2.649   2.286   2.951  0.1320 -0.6044 -0.2797
  958SOL    HW1 2873   2.565   2.327   2.913  1.0018 -0.0491  0.8849
  958SOL    HW2 2874   2.637   2.242   3.048 -0.3315  1.3475  0.0158
  959SOL     OW 2875   0.360   2.779   0.153 -0.6471 -0.4669  0.1627
  959SOL    HW1 2876   0.279   2.821   0.192  0.7858  0.4402 -3.0944
  959SOL    HW2 2877   0.362   2.675   0.158 -2.4845 -2.6886 -2.1283
  960SOL     OW 2878   1.953   0.478   1.923  0.6161 -0.3324 -0.0609
  960SOL    HW1 2879   1.906   0.568   1.899 -0.7228 -0.2734  1.1005
  960SOL    HW2 2880   1.951   0.465   2.031 -1.8001 -0.4994  1.1695
  961SOL     OW 2881   2.523   1.876   1.054  0.0757 -0.0232 -0.0170
  961SOL    HW1 2882   2.512   1.967   1.001 -1.4838 -1.5303  0.3590
  961SOL    HW2 2883   2.515   1.889   1.156 -2.8499  1.9092 -0.6882
  962SOL     OW 2884   1.281   0.857   0.051 -0.1014  0.3438  0.1072
  962SOL    HW1 2885   1.286   0.900  -0.046 -1.0381 -0.5729  3.2471
  962SOL    HW2 2886   1.258   0.924   0.128 -1.1199 -1.3102 -0.2791
  963SOL     OW 2887   2.290   2.578   1.792 -0.4313  0.0012  0.1084
  963SOL    HW1 2888   2.238   2.493   1.835  0.8180 -1.1751  0.9237
  963SOL    HW2 2889   2.335   2.637   1.863 -1.2151  0.4114  0.1815
  964SOL     OW 2890   2.341   0.342   1.674 -0.2168 -0.7241 -0.4917
  964SOL    HW1 2891   2.441   0.334   1.710  1.7979  0.3607  1.7770
  964SOL    HW2 2892   2.340   0.383   1.573  1.3641  1.9185 -2.0440
  965SOL     OW 2893   2.592   2.976   0.197  0.1481 -0.3945 -0.9599
  965SOL    HW1 2894   2.674   2.966   0.133 -0.4922  0.1838 -3.3645
  965SOL    HW2 2895   2.511   3.019   0.147 -1.2882 -0.1357 -1.4432
  966SOL     OW 2896   2.502   2.476   2.249 -0.0693  0.0927 -0.3599
  966SOL    HW1 2897   2.513   2.567   2.197 -0.2817  2.1622 -1.0769
  966SOL    HW2 2898   2.425   2.417   2.219  0.9748 -0.6096 -1.6938
  967SOL     OW 2899   2.762   2.871   2.463 -0.1176 -0.2945  0.2802
  967SOL    HW1 2900   2.802   2.790   2.414 -0.6166 -0.3706 -2.9058
  967SOL    HW2 2901   2.838   2.935   2.491  1.2318 -1.7629  0.3021
  968SOL     OW 2902   1.953   1.042   2.617 -0.1217  0.0858  0.0309
  968SOL    HW1 2903   1.886   1.114   2.578 -0.6118 -0.4708  3.1826
  968SOL    HW2 2904   1.984   0.966   2.554 -1.9809 -1.5308  1.7213
  969SOL     OW 2905   2.825   2.581   1.106  0.2600  0.2020  0.0210
  969SOL    HW1 2906   2.764   2.615   1.029 -0.6048 -0.4931 -0.0240
  969SOL    HW2 2907   2.845   2.481   1.100  1.2653 -0.7718  1.9098
  970SOL     OW 2908   1.145   2.086   1.859 -0.0330 -0.2520  0.4593
  970SOL    HW1 2909   1.119   2.019   1.930 -1.2732  0.9360 -1.6241
  970SOL    HW2 2910   1.067   2.099   1.789  1.1890  4.6693  1.2224
  971SOL     OW 2911   2.860   2.138   1.917 -0.5444 -0.9967 -0.3394
  971SOL    HW1 2912   2.914   2.217   1.964  1.2792 -1.4909  1.9806
  971SOL    HW2 2913   2.919   2.092   1.843 -1.2545 -2.9801 -0.5722
  972SOL     OW 2914   1.934   2.466   0.231 -0.1976  0.3446  0.0824
  972SOL    HW1 2915   1.917   2.367   0.191  1.1755 -0.5045 -4.0135
  972SOL    HW2 2916   2.001   2.479   0.307 -1.2672  0.1663 -2.3738
  973SOL     OW 2917   1.132   0.899   1.877  0.6584  0.0170 -0.1421
  973SOL    HW1 2918   1.094   0.805   1.886 -0.6602  1.2505  0.4382
  973SOL    HW2 2919   1.062   0.965   1.835 -2.0294 -1.4842  0.0377
  974SOL     OW 2920   1.597   0.582   1.979 -0.0193  0.3293 -0.2521
  974SOL    HW1 2921   1.671   0.629   1.924  0.2130 -0.1175  1.2672
  974SOL    HW2 2922   1.502   0.613   1.956  1.3337  1.4488  2.7907
  975SOL     OW 2923   2.399   3.030   3.088  0.2425 -0.0922 -0.2562
  975SOL    HW1 2924   2.318   2.967   3.111 -1.4161 -1.5975 -2.7813
  975SOL    HW2 2925   2.463   2.991   3.015 -1.1852  0.5660 -0.5339
  976SOL     OW 2926   1.941   2.690   2.325 -0.3505  0.0277 -0.1084
  976SOL    HW1 2927   1.844   2.688   2.359  0.3748  1.5940 -0.8159
  976SOL    HW2 2928   2.005   2.742   2.385 -1.1405 -0.1533  1.0481
  977SOL     OW 2929   0.453   0.707   1.011  0.2476  0.3712 -0.0920
  977SOL    HW1 2930   0.393   0.707   0.932  3.6882 -0.3251  1.3760
  977SOL    HW2 2931   0.536   0.768   1.005  0.6809 -1.3905  0.3246
   3.10000   3.10000   3.10000
