1000 SPC/Fw water molecules t=   1.24000 step= 1240
 2931
    1SOL     OW    1   2.544   0.345   2.605  0.2414 -0.1370  0.3831
    1SOL    HW1    2   2.539   0.238   2.612  2.5869 -0.4482  0.2951
    1SOL    HW2    3   2.606   0.388   2.674 -0.8741 -0.6200 -0.3760
    2SOL     OW    4   2.769   2.983   1.379 -0.0169 -0.0525 -0.2359
    2SOL    HW1    5   2.818   3.018   1.294 -0.3574  0.1682 -1.7211
    2SOL    HW2    6   2.710   3.058   1.425  0.7375  2.3275  1.0879
    3SOL     OW    7   2.628   2.593   0.434 -0.5203 -0.5041  0.1797
    3SOL    HW1    8   2.593   2.497   0.435  1.6544 -1.3620 -1.8229
    3SOL    HW2    9   2.688   2.616   0.516 -3.1273 -2.2869  0.5459
    4SOL     OW   10   1.255   1.527   2.375 -0.1036 -0.2473  0.3559
    4SOL    HW1   11   1.188   1.547   2.292  0.4831  0.5743 -0.2683
    4SOL    HW2   12   1.274   1.425   2.389  1.1285 -2.0001 -0.1425
    5SOL     OW   13   1.175   1.580   2.983  0.4085  0.0000 -1.1818
    5SOL    HW1   14   1.233   1.657   3.020  0.8595 -0.1209 -2.1799
    5SOL    HW2   15   1.076   1.609   2.958 -0.6919  0.3892  1.3235
    6SOL     OW   16   0.256   1.820   3.024  1.3423  0.3372  0.6281
    6SOL    HW1   17   0.156   1.785   3.043  0.8426 -0.8809  1.3064
    6SOL    HW2   18   0.325   1.792   3.100 -1.4553  0.2787 -1.1992
    7SOL     OW   19   2.529   0.842   1.066 -0.0007 -0.5770  0.1534
    7SOL    HW1   20   2.437   0.816   1.104  0.4857  1.0041  0.8185
    7SOL    HW2   21   2.563   0.774   0.997 -2.1380  1.3900 -0.7510
    8SOL     OW   22   0.432   0.602   1.454 -0.5127  0.1145  0.2742
    8SOL    HW1   23   0.514   0.550   1.483 -2.5638  2.9387  0.4166
    8SOL    HW2   24   0.401   0.580   1.356  0.4199 -1.7906 -0.0395
    9SOL     OW   25   1.169   0.844   2.410  0.0743 -0.3152  0.3171
    9SOL    HW1   26   1.204   0.859   2.312 -2.8760  0.3180 -0.3440
    9SOL    HW2   27   1.127   0.745   2.423 -2.1702 -2.4158 -2.0001
   10SOL     OW   28   0.655   1.363   1.303 -0.2248  0.0933 -0.1836
   10SOL    HW1   29   0.565   1.373   1.260  1.6745  2.0503  2.2703
   10SOL    HW2   30   0.707   1.453   1.287  1.4048  1.2103 -1.2176
   11SOL     OW   31   2.309   2.809   0.825  0.2915  0.3222 -0.6341
   11SOL    HW1   32   2.272   2.827   0.923 -0.1388  1.9926  3.2380
   11SOL    HW2   33   2.408   2.791   0.817 -0.5952  2.1264 -1.1611
   12SOL     OW   34   1.476   0.816   0.436  0.6293 -0.2335  0.3948
   12SOL    HW1   35   1.403   0.857   0.373  2.0226 -0.0729 -0.4261
   12SOL    HW2   36   1.549   0.759   0.385  0.2309 -2.0240  2.6375
   13SOL     OW   37   2.428   0.741   1.753 -0.1872 -0.0905 -0.1451
   13SOL    HW1   38   2.354   0.682   1.787 -0.1064 -0.4227 -1.2025
   13SOL    HW2   39   2.456   0.700   1.662 -1.1991  0.3256  1.6173
   14SOL     OW   40   1.881   0.064   0.681  0.5300 -0.1300 -0.4438
   14SOL    HW1   41   1.795   0.064   0.622  1.0236  2.8282 -0.8145
   14SOL    HW2   42   1.883  -0.017   0.747  0.0345  0.2271 -1.0514
   15SOL     OW   43   1.883   2.098   2.693  0.4250 -0.0110 -0.7198
   15SOL    HW1   44   1.830   2.187   2.700 -0.7978  0.5147  1.8953
   15SOL    HW2   45   1.828   2.011   2.712  1.7928 -0.8473  0.9597
   16SOL     OW   46   1.585   1.694   2.999  0.0438  0.4615  0.0178
   16SOL    HW1   47   1.579   1.611   3.064  0.2607 -2.9432  0.5007
   16SOL    HW2   48   1.662   1.757   3.021  2.4927  0.2720 -1.6268
   17SOL     OW   49   0.104   0.466   0.160  0.7334 -0.3941  0.2213
   17SOL    HW1   50   0.179   0.499   0.099  0.6079  3.8761  2.5947
   17SOL    HW2   51   0.013   0.494   0.130  0.0544  0.6706  1.4464
   18SOL     OW   52   0.937   2.957   2.159 -0.2911 -0.7232  0.2062
   18SOL    HW1   53   0.861   2.892   2.174 -0.9085  1.2612 -1.1475
   18SOL    HW2   54   0.971   2.966   2.061  1.3244  2.6855 -2.1677
   19SOL     OW   55   0.485   0.840   1.893  0.4929  0.0721 -0.0198
   19SOL    HW1   56   0.520   0.809   1.984  1.0016  1.0965  1.4487
   19SOL    HW2   57   0.551   0.911   1.860 -1.1556 -1.7244 -1.4072
   20SOL     OW   58   0.202   2.825   0.859  0.2967 -0.2011  0.0136
   20SOL    HW1   59   0.114   2.868   0.826  1.0759  2.8836 -2.5017
   20SOL    HW2   60   0.223   2.734   0.818 -0.0938  0.5970 -3.4581
   21SOL     OW   61   2.747   0.253   1.963 -0.4989 -0.0247 -0.4803
   21SOL    HW1   62   2.699   0.178   1.913  0.9027 -0.7591  0.4823
   21SOL    HW2   63   2.815   0.218   2.037  1.1620  0.3974  1.2812
   22SOL     OW   64   2.328   0.199   0.146  0.1930 -0.4687 -0.1924
   22SOL    HW1   65   2.355   0.108   0.115  0.0549  1.1406 -0.7348
   22SOL    HW2   66   2.271   0.250   0.080  0.8488  2.9138 -0.6566
   23SOL     OW   67   2.814   0.580   0.679  0.3321 -0.4410 -0.2197
   23SOL    HW1   68   2.802   0.490   0.634 -1.4207 -0.2096  0.1251
   23SOL    HW2   69   2.823   0.657   0.614  0.5824  0.5624  2.0401
   24SOL     OW   70   0.234   1.922   0.456  0.1850 -0.1252  0.5030
   24SOL    HW1   71   0.179   1.976   0.391  3.7868 -0.1365  0.8289
   24SOL    HW2   72   0.325   1.905   0.411  1.8863 -1.1037 -0.1782
   25SOL     OW   73   2.217   0.627   0.201 -0.0078 -0.0136 -0.3593
   25SOL    HW1   74   2.204   0.613   0.099  1.5587 -0.0353  0.6700
   25SOL    HW2   75   2.250   0.539   0.245 -0.3229 -0.2409  0.2628
   26SOL     OW   76   2.472   2.150   2.044 -0.1328 -0.4235  0.6173
   26SOL    HW1   77   2.560   2.192   2.075 -1.1550  3.4601 -0.6783
   26SOL    HW2   78   2.489   2.095   1.959 -3.0014  0.5727 -0.9158
   27SOL     OW   79   0.655   2.907   0.287  0.1570  0.0805  0.0005
   27SOL    HW1   80   0.742   2.952   0.254 -0.8525 -1.7760  2.1062
   27SOL    HW2   81   0.601   2.872   0.206 -0.8805  0.1718  0.3196
   28SOL     OW   82   1.573   0.145   0.303 -0.4198 -0.4066  0.4550
   28SOL    HW1   83   1.641   0.118   0.228  0.6630 -1.5401  1.0352
   28SOL    HW2   84   1.580   0.247   0.327 -0.5624 -2.2114  0.5549
   29SOL     OW   85   1.967   0.563   0.289 -0.2268  0.4363  0.0461
   29SOL    HW1   86   1.903   0.613   0.350 -1.1609 -3.7689 -0.3971
   29SOL    HW2   87   2.036   0.615   0.233 -2.0202 -0.3768  1.0805
   30SOL     OW   88   0.197   2.081   0.903 -0.4077 -0.0288 -0.6673
   30SOL    HW1   89   0.155   2.004   0.844 -1.4900 -1.9443  1.6585
   30SOL    HW2   90   0.134   2.162   0.927  1.1301  0.1798  1.4794
   31SOL     OW   91   2.113   0.089   2.388  0.1404 -0.0708 -0.0284
   31SOL    HW1   92   2.068   0.039   2.470 -0.0655  0.0116  1.4382
   31SOL    HW2   93   2.077   0.055   2.295 -0.5618  1.3421  1.5918
   32SOL     OW   94   2.955   0.039   0.240 -0.6281  0.5271  0.1216
   32SOL    HW1   95   2.942  -0.060   0.273 -0.5393 -0.7979  1.5792
   32SOL    HW2   96   3.045   0.075   0.256 -0.9645 -1.8572  1.6298
   33SOL     OW   97   0.876   0.318   0.614 -0.1877 -0.2648 -0.3282
   33SOL    HW1   98   0.867   0.223   0.575  1.6129  1.5780  0.7976
   33SOL    HW2   99   0.973   0.338   0.637 -0.2761  0.4858 -0.3666
   34SOL     OW  100   0.336   2.712   1.111 -0.1333 -0.1087  0.3082
   34SOL    HW1  101   0.300   2.757   1.024 -0.8952  1.7131  1.7557
   34SOL    HW2  102   0.421   2.755   1.150  0.9274  0.7129  0.8121
   35SOL     OW  103   0.014   0.131   1.881 -0.5604  0.0606  0.0307
   35SOL    HW1  104   0.073   0.049   1.908 -1.7269 -0.7515 -1.4170
   35SOL    HW2  105  -0.038   0.118   1.791 -1.1298 -2.1340 -1.4891
   36SOL     OW  106   1.860   1.230   1.565  0.2734 -0.1626 -0.3072
   36SOL    HW1  107   1.944   1.175   1.602  0.8907  0.0445 -2.1895
   36SOL    HW2  108   1.878   1.313   1.504  0.1918  0.1885 -1.1322
   37SOL     OW  109   1.196   0.237   0.947  0.2576 -0.1388  0.1384
   37SOL    HW1  110   1.251   0.318   0.980 -0.6090 -2.7154 -2.0679
   37SOL    HW2  111   1.257   0.168   0.907  0.4144 -0.1647  3.0219
   38SOL     OW  112   1.158   2.842   2.375 -0.0068  0.7528 -0.6249
   38SOL    HW1  113   1.106   2.750   2.378  2.5209  0.1070  0.4382
   38SOL    HW2  114   1.116   2.917   2.326  1.9045 -0.4020 -0.3299
   39SOL     OW  115   2.322   1.378   3.029  0.4931 -0.6942 -0.3932
   39SOL    HW1  116   2.393   1.303   3.031  0.1641 -2.8088 -0.0743
   39SOL    HW2  117   2.296   1.410   3.125  0.1005  0.6547  1.7130
   40SOL     OW  118   1.979   2.469   2.631 -0.0431 -0.1450 -0.6230
   40SOL    HW1  119   1.964   2.574   2.622  1.3721  2.2109 -0.4183
   40SOL    HW2  120   1.957   2.415   2.547  0.7551  0.9109  0.3515
   41SOL     OW  121   3.019   0.646   2.815  0.2653 -0.1483  0.2008
   41SOL    HW1  122   2.926   0.674   2.781  2.0362  0.3788  0.5452
   41SOL    HW2  123   3.046   0.561   2.768 -0.9545  0.3612 -0.7688
   42SOL     OW  124   1.731   1.801   0.489  0.2249  0.0248  0.2657
   42SOL    HW1  125   1.695   1.699   0.491 -0.0279  1.6622  2.4201
   42SOL    HW2  126   1.743   1.838   0.393  1.8553 -0.4023 -0.3879
   43SOL     OW  127   0.443   1.675   1.189  0.4350 -0.6493  0.5663
   43SOL    HW1  128   0.427   1.579   1.143 -0.9952 -1.5934 -0.4786
   43SOL    HW2  129   0.397   1.688   1.277  1.8953  1.2770  0.8033
   44SOL     OW  130   1.692   2.348   3.008  0.2680  0.4729  0.3679
   44SOL    HW1  131   1.628   2.421   3.036 -2.4562 -1.0571 -0.0222
   44SOL    HW2  132   1.730   2.358   2.911 -0.2904  0.5245 -1.7164
   45SOL     OW  133   0.344   1.891   2.581 -0.0440  0.4171 -0.2498
   45SOL    HW1  134   0.310   1.879   2.482 -0.1048 -0.4145 -1.7855
   45SOL    HW2  135   0.411   1.819   2.618  1.8212  1.4815  0.6405
   46SOL     OW  136   1.267   0.639   0.140 -0.0801  0.0327  0.0284
   46SOL    HW1  137   1.263   0.744   0.125  1.8460  1.2580 -0.7355
   46SOL    HW2  138   1.177   0.593   0.160  0.0979  2.3634  0.2422
   47SOL     OW  139   0.202   2.501   1.591 -0.2723 -0.2689 -0.1359
   47SOL    HW1  140   0.177   2.402   1.603  0.6885 -0.4543  1.1686
   47SOL    HW2  141   0.222   2.540   1.493 -2.4096 -1.4267 -0.6453
   48SOL     OW  142   2.629   0.612   0.141  0.5373 -0.1973 -0.2002
   48SOL    HW1  143   2.628   0.597   0.242  1.2562  0.2033  1.1656
   48SOL    HW2  144   2.715   0.656   0.109 -0.5988 -0.9835  0.7671
   49SOL     OW  145   0.315   0.754   1.651 -0.1690  0.6107  0.4215
   49SOL    HW1  146   0.384   0.755   1.730  1.1782 -1.9908 -0.0147
   49SOL    HW2  147   0.353   0.713   1.566  1.0511 -0.3474  1.8236
   50SOL     OW  148   1.696   1.110   0.323  0.1355  0.4808 -0.3770
   50SOL    HW1  149   1.718   1.036   0.254  1.8494 -3.5543  0.2606
   50SOL    HW2  150   1.635   1.076   0.400 -0.2992  1.2043  2.8420
   51SOL     OW  151   2.991   1.733   0.257  0.4414 -0.1193 -0.2669
   51SOL    HW1  152   2.929   1.676   0.199 -3.5576  0.0960  2.2677
   51SOL    HW2  153   3.068   1.682   0.307  0.8302  0.2637 -1.2893
   52SOL     OW  154   0.808   2.145   0.622 -0.1684  0.2979 -0.0187
   52SOL    HW1  155   0.806   2.203   0.703  2.7967  0.8749 -0.2854
   52SOL    HW2  156   0.845   2.048   0.644  1.7563  0.5639 -0.3094
   53SOL     OW  157   0.180   0.463   1.584  0.3826 -0.6688 -0.0640
   53SOL    HW1  158   0.255   0.529   1.551 -0.3266  2.2649 -2.3709
   53SOL    HW2  159   0.096   0.467   1.523 -1.2868  1.6747  0.2451
   54SOL     OW  160   1.799   0.501   3.040  0.4341 -0.1275  0.4176
   54SOL    HW1  161   1.859   0.444   3.099 -2.5244  1.4317  0.9156
   54SOL    HW2  162   1.708   0.510   3.085  0.1550 -1.6404 -0.2499
   55SOL     OW  163   0.765   2.870   0.697  0.0309  0.4072  0.4910
   55SOL    HW1  164   0.755   2.973   0.700  0.9492 -2.0891  2.5080
   55SOL    HW2  165   0.856   2.852   0.649 -0.2036 -0.3437  2.0655
   56SOL     OW  166   0.575   1.594   0.032 -0.5583  0.4030  0.0295
   56SOL    HW1  167   0.499   1.649   0.076  0.2707  1.8289 -0.2617
   56SOL    HW2  168   0.551   1.506  -0.017 -1.9588  1.6528  1.1832
   57SOL     OW  169   1.741   2.516   2.370  0.5122  0.0034  0.4128
   57SOL    HW1  170   1.819   2.440   2.364  2.6069 -1.7788 -0.9122
   57SOL    HW2  171   1.674   2.494   2.444 -1.5794 -2.0525  0.9755
   58SOL     OW  172   0.668   0.257   1.108 -0.3764 -0.9322  0.8670
   58SOL    HW1  173   0.594   0.287   1.180  0.1564  0.9753  1.3118
   58SOL    HW2  174   0.693   0.156   1.121 -1.4457  0.5128 -1.0732
   59SOL     OW  175   0.388   2.361   2.732  0.2917  0.3784  0.2430
   59SOL    HW1  176   0.403   2.285   2.664  1.6278  0.8378  2.6136
   59SOL    HW2  177   0.470   2.383   2.792  2.8048 -0.2927  1.1339
   60SOL     OW  178   2.323   2.104   2.321  0.1044  0.1617  0.0443
   60SOL    HW1  179   2.370   2.123   2.231  2.8000 -1.8297  0.3587
   60SOL    HW2  180   2.360   2.156   2.398 -0.3806  0.7848  2.0656
   61SOL     OW  181   1.254   0.594   0.422 -0.7261  0.1803 -0.0500
   61SOL    HW1  182   1.159   0.618   0.424  0.4881 -2.6278  0.7480
   61SOL    HW2  183   1.303   0.601   0.331 -0.0631  1.7901  0.2131
   62SOL     OW  184   2.734   1.732   2.878 -0.4690 -0.7398 -0.4454
   62SOL    HW1  185   2.705   1.766   2.784  1.1384  3.1052 -1.1638
   62SOL    HW2  186   2.831   1.700   2.883 -0.9516  0.7693 -1.3888
   63SOL     OW  187   0.574   0.858   0.211  0.5269  0.9378  0.3189
   63SOL    HW1  188   0.595   0.938   0.149 -1.1284  1.3227  0.5291
   63SOL    HW2  189   0.623   0.860   0.301 -0.3271 -0.4820 -0.4490
   64SOL     OW  190   3.065   0.533   2.460 -1.0161  0.8337 -0.5550
   64SOL    HW1  191   2.983   0.583   2.492 -2.2331  0.3129 -0.9755
   64SOL    HW2  192   3.089   0.579   2.369  1.3970  0.1306 -1.1545
   65SOL     OW  193   0.224   1.486   0.670  0.2012 -0.4905  0.5124
   65SOL    HW1  194   0.232   1.557   0.744 -0.4765 -3.3935 -0.2936
   65SOL    HW2  195   0.309   1.494   0.606  1.4213 -3.1164 -0.7694
   66SOL     OW  196   2.513   0.385   0.550 -0.1314  0.1571 -0.3181
   66SOL    HW1  197   2.610   0.344   0.538 -2.4019  1.2337 -2.5194
   66SOL    HW2  198   2.449   0.325   0.604 -0.4986 -0.5875 -2.5062
   67SOL     OW  199   0.617   2.462   1.417  0.0401  0.3069  0.1436
   67SOL    HW1  200   0.700   2.449   1.477 -2.0198  0.6316 -0.7084
   67SOL    HW2  201   0.555   2.378   1.405  0.8647 -0.8759 -1.8167
   68SOL     OW  202   0.976   1.019   2.527  0.3190 -0.4855  0.3247
   68SOL    HW1  203   1.032   0.934   2.515  2.1915 -3.1947  0.2572
   68SOL    HW2  204   0.943   1.059   2.438 -2.6084  0.0901 -0.7517
   69SOL     OW  205   0.725   2.773   2.209  0.8242 -0.1758  0.1835
   69SOL    HW1  206   0.766   2.677   2.207  0.8010 -2.2400  2.2454
   69SOL    HW2  207   0.620   2.762   2.184  0.0898  0.8830  2.0333
   70SOL     OW  208   0.456   0.128   2.572  0.0222 -0.5543 -0.3049
   70SOL    HW1  209   0.360   0.104   2.610  1.3622 -1.4159 -0.4651
   70SOL    HW2  210   0.521   0.053   2.595 -0.4389  2.4059 -1.1024
   71SOL     OW  211   1.117   1.796   0.369  0.7210 -0.2366 -0.3522
   71SOL    HW1  212   1.066   1.723   0.428 -0.2894 -0.0189 -1.1086
   71SOL    HW2  213   1.086   1.795   0.275  0.2828 -1.5618 -0.0990
   72SOL     OW  214   1.828   0.172   2.172 -0.2463 -0.4718 -0.0122
   72SOL    HW1  215   1.888   0.244   2.205  1.1518 -1.6034  1.1294
   72SOL    HW2  216   1.892   0.089   2.160 -1.0820  3.0856 -2.3957
   73SOL     OW  217   2.807   2.159   2.356 -0.1582 -0.7825  0.1661
   73SOL    HW1  218   2.791   2.058   2.358  2.3153  0.8752 -0.0229
   73SOL    HW2  219   2.863   2.188   2.437  2.3081  1.8303 -1.3226
   74SOL     OW  220   2.629   2.862   2.191  0.5706  0.1823 -0.0786
   74SOL    HW1  221   2.605   2.823   2.284 -2.6335  0.4467  2.3970
   74SOL    HW2  222   2.721   2.905   2.190 -2.9492  0.6748 -0.5292
   75SOL     OW  223   0.978   0.850   1.066 -0.4366  0.2176  0.0019
   75SOL    HW1  224   0.900   0.894   1.007 -0.7642  0.3147 -0.8663
   75SOL    HW2  225   0.980   0.869   1.171 -0.1295  0.4887  1.7925
   76SOL     OW  226   1.793   1.219   2.466  0.3132  0.0048 -0.0135
   76SOL    HW1  227   1.694   1.198   2.461  0.2006 -0.6568  1.2373
   76SOL    HW2  228   1.818   1.305   2.513  2.7769 -0.3775 -3.6169
   77SOL     OW  229   2.948   0.927   1.026 -0.1998 -0.5043  0.3775
   77SOL    HW1  230   2.932   0.828   0.991  2.2929 -1.5212  0.0103
   77SOL    HW2  231   3.021   0.933   1.102  2.2138  0.3872 -1.7526
   78SOL     OW  232   1.987   1.445   1.444  0.0467 -0.7400 -0.3644
   78SOL    HW1  233   2.091   1.430   1.433  1.0258 -1.6944  2.5976
   78SOL    HW2  234   1.944   1.497   1.365 -0.1931 -0.6311  0.6666
   79SOL     OW  235   0.622   1.428   0.790 -0.3528 -0.1737  0.4198
   79SOL    HW1  236   0.534   1.404   0.841 -0.2273  3.0088 -1.6571
   79SOL    HW2  237   0.661   1.362   0.718  0.5364  0.5847 -1.2643
   80SOL     OW  238   0.657   0.461   1.542  0.2751  0.1624 -0.2972
   80SOL    HW1  239   0.704   0.532   1.483 -0.6295 -0.7656  1.4142
   80SOL    HW2  240   0.681   0.361   1.519  0.6669  0.2129 -0.5178
   81SOL     OW  241   1.003   1.293   2.606 -0.2734  0.4924 -0.0421
   81SOL    HW1  242   1.007   1.190   2.585 -1.3363  1.3670  1.9022
   81SOL    HW2  243   0.930   1.348   2.557  0.2567 -0.5102  0.5049
   82SOL     OW  244   0.926   2.953   1.492  0.9309 -1.2690  0.1259
   82SOL    HW1  245   0.842   2.981   1.439  1.5401 -1.7001  1.1366
   82SOL    HW2  246   1.009   2.946   1.430 -0.4116 -0.0282  0.4025
   83SOL     OW  247   2.587   2.373   0.859 -0.2439  0.0412 -0.2549
   83SOL    HW1  248   2.553   2.393   0.957 -0.3126 -1.8649  1.7227
   83SOL    HW2  249   2.509   2.363   0.794  2.9083 -2.1194  2.5393
   84SOL     OW  250   0.733   3.085   2.392  0.0054  0.3196  0.0270
   84SOL    HW1  251   0.686   3.049   2.478 -0.9411 -1.5743  0.3925
   84SOL    HW2  252   0.807   3.016   2.367 -1.7003  2.4344 -1.1249
   85SOL     OW  253   0.254   1.622   1.459 -0.1693 -0.3024 -0.1038
   85SOL    HW1  254   0.244   1.719   1.443 -1.4748 -1.7326 -1.3242
   85SOL    HW2  255   0.293   1.593   1.550  1.4178 -1.2244 -0.3193
   86SOL     OW  256   0.459   1.087   1.480 -0.3216 -0.0826  0.3893
   86SOL    HW1  257   0.411   1.022   1.410 -1.2103 -2.1171  1.0984
   86SOL    HW2  258   0.561   1.062   1.503  0.5263  0.2201 -0.7726
   87SOL     OW  259   1.658   0.671   0.283 -0.3059  0.2911  0.1784
   87SOL    HW1  260   1.721   0.753   0.255 -0.2986  1.7687 -1.5657
   87SOL    HW2  261   1.600   0.642   0.199  2.1292  1.1206  1.2356
   88SOL     OW  262   1.575   1.346   0.266 -0.9361 -0.1890  0.1086
   88SOL    HW1  263   1.629   1.260   0.285 -3.0716 -0.7607 -2.4598
   88SOL    HW2  264   1.477   1.332   0.288  1.3242 -0.7221  1.0538
   89SOL     OW  265   3.091   0.381   0.604  0.0258 -0.6437  0.1530
   89SOL    HW1  266   3.143   0.291   0.586  1.5290 -0.1237 -0.3080
   89SOL    HW2  267   2.985   0.372   0.578 -2.6937  0.3956 -1.3444
   90SOL     OW  268   0.847   1.564   0.093  0.1218 -0.2591  0.6606
   90SOL    HW1  269   0.892   1.477   0.069 -1.6720  1.3668 -2.6818
   90SOL    HW2  270   0.748   1.575   0.059  0.5078  0.9845  1.8751
   91SOL     OW  271   1.216   1.455   1.778 -0.4903 -0.2460 -0.2916
   91SOL    HW1  272   1.179   1.512   1.853  0.4039  1.3327 -1.1519
   91SOL    HW2  273   1.318   1.432   1.777 -0.2191  0.9788 -2.3728
   92SOL     OW  274   0.014   0.949   1.251  0.2405 -0.4156 -0.3761
   92SOL    HW1  275   0.068   1.035   1.224 -2.3597  2.3200  0.7600
   92SOL    HW2  276  -0.009   0.951   1.354  0.1049  1.4522  1.2780
   93SOL     OW  277   3.053   2.710   0.055  0.4184 -0.3733  0.3560
   93SOL    HW1  278   3.018   2.720  -0.045  0.1119 -1.3238 -1.3408
   93SOL    HW2  279   3.105   2.623   0.081  2.1347 -0.9754 -0.3713
   94SOL     OW  280   1.487   1.452   1.787  0.1821 -0.1565 -0.3021
   94SOL    HW1  281   1.561   1.379   1.797  0.7511  0.1907  2.5055
   94SOL    HW2  282   1.519   1.548   1.806  2.6489 -1.9384 -1.1380
   95SOL     OW  283   1.461   2.507   2.966 -0.8818  0.1006  0.4302
   95SOL    HW1  284   1.376   2.529   3.018  0.1631  0.3824 -2.1733
   95SOL    HW2  285   1.445   2.428   2.904 -1.3262 -0.6831 -2.0584
   96SOL     OW  286   0.559   2.103   1.314  0.2090 -0.2341  0.2138
   96SOL    HW1  287   0.506   2.062   1.233  0.7310 -1.5396  1.2526
   96SOL    HW2  288   0.629   2.037   1.351 -0.7357  0.4262 -0.5334
   97SOL     OW  289   0.311   1.596   2.461 -0.1837 -0.1462  0.2095
   97SOL    HW1  290   0.294   1.657   2.379 -1.2883  1.9863  0.4571
   97SOL    HW2  291   0.277   1.635   2.552 -0.5261  0.0926 -1.7072
   98SOL     OW  292   2.122   1.595   1.221  0.7422  0.0949 -0.1708
   98SOL    HW1  293   2.030   1.561   1.186  2.6820 -0.4193 -0.5577
   98SOL    HW2  294   2.198   1.568   1.155 -1.5047 -0.6976  0.2762
   99SOL     OW  295   2.571   2.074   1.286  0.4432  0.3837 -0.2818
   99SOL    HW1  296   2.634   2.082   1.364 -5.2404  1.6448  0.3418
   99SOL    HW2  297   2.525   1.981   1.279  1.7603 -0.4780  0.7477
  100SOL     OW  298   2.280   0.407   2.080  0.0623  0.0824  0.6515
  100SOL    HW1  299   2.213   0.378   2.152  1.0937  2.5211 -1.2332
  100SOL    HW2  300   2.371   0.430   2.124 -1.0473 -1.3363 -0.4906
  101SOL     OW  301   0.427   1.509   0.452 -1.0672  0.3365  0.2212
  101SOL    HW1  302   0.442   1.575   0.531  0.5464  0.3892  2.6290
  101SOL    HW2  303   0.511   1.510   0.385  0.4660 -2.7871  2.0914
  102SOL     OW  304   2.286   1.080   0.837  0.0901 -0.2521  0.3391
  102SOL    HW1  305   2.215   1.030   0.777 -1.3325 -3.1200 -1.6442
  102SOL    HW2  306   2.375   1.079   0.791  0.1814 -1.6656  0.3518
  103SOL     OW  307   2.214   0.120   0.388 -0.5317  0.2993 -0.1629
  103SOL    HW1  308   2.250   0.148   0.297  1.6609 -1.1122  0.9540
  103SOL    HW2  309   2.291   0.099   0.459  0.6901 -0.2152  0.1936
  104SOL     OW  310   0.052   1.899   2.104  0.0430  0.3391 -0.1842
  104SOL    HW1  311   0.083   1.867   2.012  0.6419  0.5225 -1.8443
  104SOL    HW2  312  -0.053   1.911   2.114 -0.2007  0.8180  0.3308
  105SOL     OW  313   1.258   2.122   0.810 -0.4071  0.0283  0.1397
  105SOL    HW1  314   1.223   2.185   0.737 -1.5173 -1.7024  1.5105
  105SOL    HW2  315   1.282   2.025   0.776  0.2161 -0.3689  1.7404
  106SOL     OW  316   2.105   0.354   1.448 -0.5269  0.0066 -0.2136
  106SOL    HW1  317   2.096   0.251   1.473 -1.3085 -0.5450  2.5449
  106SOL    HW2  318   2.094   0.419   1.532 -0.9512  2.1386  0.7876
  107SOL     OW  319   1.928   2.944   1.203  0.5110  0.2445 -0.7488
  107SOL    HW1  320   1.904   3.036   1.236 -0.2826 -2.4001  0.8163
  107SOL    HW2  321   1.846   2.884   1.200  1.2110 -1.1617 -0.1233
  108SOL     OW  322   0.854   2.810   1.222  0.3493  0.2389 -0.8810
  108SOL    HW1  323   0.861   2.731   1.289 -0.1055  1.1067  2.3674
  108SOL    HW2  324   0.945   2.863   1.214  1.9612 -0.4538 -0.8011
  109SOL     OW  325   2.131   0.144   0.756  0.1178 -0.0010  0.3497
  109SOL    HW1  326   2.033   0.122   0.729  1.2991 -1.2162 -1.4478
  109SOL    HW2  327   2.152   0.109   0.851 -2.1238  1.4665  1.3250
  110SOL     OW  328   0.446   2.799   2.769  0.4930 -0.0907 -0.5447
  110SOL    HW1  329   0.438   2.769   2.670  0.9933  2.2783  2.4930
  110SOL    HW2  330   0.510   2.735   2.821  0.3685 -2.6302  0.3716
  111SOL     OW  331   1.268   0.472   2.318  0.3448  0.1907  0.3650
  111SOL    HW1  332   1.191   0.512   2.376 -0.5477  0.8408  0.9068
  111SOL    HW2  333   1.337   0.422   2.378 -1.6257  2.2805 -1.6622
  112SOL     OW  334   1.763   0.455   1.484 -0.1518 -0.1637 -0.6085
  112SOL    HW1  335   1.742   0.469   1.386 -0.4387 -0.7889  0.2586
  112SOL    HW2  336   1.685   0.441   1.552 -0.6528 -1.3794  1.3334
  113SOL     OW  337   2.354   1.661   1.722  0.3476  0.9719  0.2000
  113SOL    HW1  338   2.434   1.594   1.737 -0.0301  0.8794  0.1864
  113SOL    HW2  339   2.349   1.734   1.799  2.1412  2.0236 -2.1721
  114SOL     OW  340   0.325   0.549   1.217 -0.0430 -0.4193 -0.0582
  114SOL    HW1  341   0.360   0.603   1.135 -0.0003 -1.7500 -0.4196
  114SOL    HW2  342   0.230   0.583   1.246 -4.9728 -1.4886  0.8120
  115SOL     OW  343   2.797   1.583   1.290  0.6560 -0.7655 -0.1947
  115SOL    HW1  344   2.768   1.489   1.310  3.3775  2.1775 -3.0833
  115SOL    HW2  345   2.886   1.583   1.232  0.7196  0.6413  0.3486
  116SOL     OW  346   1.842   1.006   0.640  0.7523 -0.5654  0.4959
  116SOL    HW1  347   1.739   0.973   0.629 -1.3271 -2.5052 -0.7195
  116SOL    HW2  348   1.842   1.114   0.635 -0.3282  1.1008 -1.8827
  117SOL     OW  349   1.168   0.362   0.567  0.5823  0.4585 -0.4729
  117SOL    HW1  350   1.228   0.446   0.546  0.0881 -2.0843 -0.8849
  117SOL    HW2  351   1.142   0.313   0.480 -1.1951 -0.2321 -2.1313
  118SOL     OW  352   1.060   1.205   1.102  0.0951  0.1855 -0.3645
  118SOL    HW1  353   1.039   1.139   1.179 -0.6328  1.6638 -1.5544
  118SOL    HW2  354   1.105   1.294   1.138 -2.3838  1.1505 -2.6324
  119SOL     OW  355   1.835   1.595   2.193  0.2514  0.3828  0.5865
  119SOL    HW1  356   1.808   1.695   2.173 -1.0428 -1.8732 -2.2851
  119SOL    HW2  357   1.933   1.579   2.164 -1.3882  1.0051 -2.3615
  120SOL     OW  358   2.894   2.831   0.226  0.1363 -0.6243  0.2995
  120SOL    HW1  359   2.962   2.785   0.164 -1.8521  0.7224  0.0020
  120SOL    HW2  360   2.796   2.799   0.220  0.6626 -0.0460  2.2581
  121SOL     OW  361   1.879   0.719   2.176 -0.4237  0.1132 -0.8147
  121SOL    HW1  362   1.900   0.754   2.081  0.6697 -0.7233 -0.9840
  121SOL    HW2  363   1.860   0.620   2.186  1.2632  0.5893  1.2530
  122SOL     OW  364   2.650   2.555   1.342  0.2475  0.1153  0.5713
  122SOL    HW1  365   2.632   2.584   1.245 -1.5682 -2.6506 -0.9138
  122SOL    HW2  366   2.596   2.475   1.369 -1.0702  1.8127  0.5986
  123SOL     OW  367   1.721   0.106   1.707  0.4051  0.8809  0.3292
  123SOL    HW1  368   1.717   0.007   1.666  0.3019  1.8822 -0.6401
  123SOL    HW2  369   1.811   0.124   1.748 -3.4973  0.1441 -0.4127
  124SOL     OW  370   3.096   0.444   1.081 -0.7574  0.4761  0.1122
  124SOL    HW1  371   3.015   0.490   1.117  1.0721 -0.5485 -1.1640
  124SOL    HW2  372   3.131   0.478   0.987  0.0151  0.2806  1.1193
  125SOL     OW  373   0.910   1.930   0.763  0.1748 -0.2425  0.3585
  125SOL    HW1  374   0.985   1.864   0.758 -1.5249  0.1863 -0.6378
  125SOL    HW2  375   0.839   1.909   0.838 -1.2300 -1.5971  1.0969
  126SOL     OW  376   1.883   2.289   2.402  0.5451  0.0399  0.1414
  126SOL    HW1  377   1.967   2.257   2.352  3.4388  3.8084 -1.1319
  126SOL    HW2  378   1.820   2.209   2.419  0.3660 -0.0560 -0.4485
  127SOL     OW  379   0.907   0.949   0.196 -0.2817  0.2671 -0.0933
  127SOL    HW1  380   0.931   0.982   0.293  2.1069  0.0388  2.0048
  127SOL    HW2  381   0.923   0.845   0.187 -0.3090 -0.6697  0.1228
  128SOL     OW  382   0.937   0.257   1.420  0.7849 -0.2091  0.0538
  128SOL    HW1  383   0.930   0.344   1.368  0.2727  0.5688  0.9887
  128SOL    HW2  384   0.880   0.175   1.388 -3.2277 -2.5128  0.7406
  129SOL     OW  385   1.852   0.689   1.840  0.0652  0.1624  0.3355
  129SOL    HW1  386   1.883   0.679   1.735  1.2547 -2.3293 -1.8062
  129SOL    HW2  387   1.888   0.778   1.883  0.6971  1.2367 -0.8466
  130SOL     OW  388   1.440   2.185   1.020 -0.0260  0.6221  0.1428
  130SOL    HW1  389   1.384   2.151   0.941 -0.0455 -0.4510 -1.0077
  130SOL    HW2  390   1.483   2.276   0.995  0.8594 -0.0491 -2.2988
  131SOL     OW  391   3.013   1.349   1.362 -0.1133 -0.2276 -0.3139
  131SOL    HW1  392   2.966   1.285   1.424  0.9303  1.3418 -0.3542
  131SOL    HW2  393   3.111   1.335   1.337 -1.4128  2.3291 -0.6021
  132SOL     OW  394   2.040   2.396   0.471  0.2182 -0.4670  0.5633
  132SOL    HW1  395   1.939   2.433   0.475 -0.0022  0.2590 -0.4259
  132SOL    HW2  396   2.056   2.325   0.542 -2.1184 -3.5484  0.0395
  133SOL     OW  397   1.753   2.357   2.732  0.1739 -0.5216  0.7929
  133SOL    HW1  398   1.657   2.368   2.698 -1.2089  1.3937 -0.2880
  133SOL    HW2  399   1.811   2.430   2.688  0.8706  0.8813  0.5309
  134SOL     OW  400   2.671   2.313   1.600  0.1687  0.4516  0.0384
  134SOL    HW1  401   2.598   2.345   1.668 -0.4376  4.1075 -2.6600
  134SOL    HW2  402   2.756   2.375   1.596 -1.3464  0.6652 -1.1539
  135SOL     OW  403   0.719   1.471   2.650 -0.1528 -0.0116 -0.2463
  135SOL    HW1  404   0.649   1.399   2.678 -0.7789 -0.2514 -2.5806
  135SOL    HW2  405   0.748   1.458   2.553 -1.9763 -2.2199  0.0002
  136SOL     OW  406   1.251   2.032   0.503  0.0389 -0.0505  0.0921
  136SOL    HW1  407   1.197   2.119   0.482  0.4026  1.9152  0.1598
  136SOL    HW2  408   1.211   1.947   0.461  0.9432 -0.2964  0.2901
  137SOL     OW  409   0.434   1.211   2.253 -0.3318  0.1765  0.2183
  137SOL    HW1  410   0.339   1.173   2.259  0.0499  0.9219  0.2817
  137SOL    HW2  411   0.511   1.136   2.272  3.7416  0.8718  0.1139
  138SOL     OW  412   2.495   1.499   0.279 -0.4457  0.3311  0.2655
  138SOL    HW1  413   2.429   1.420   0.268  1.1603  2.0287  0.3606
  138SOL    HW2  414   2.594   1.463   0.285 -1.7758  2.4504  0.0145
  139SOL     OW  415   1.888   2.625   1.494 -0.0579  0.3510  0.3421
  139SOL    HW1  416   1.806   2.681   1.470 -0.9256  0.2836 -1.8475
  139SOL    HW2  417   1.893   2.537   1.444  0.5969 -1.1062  1.2391
  140SOL     OW  418   3.022   2.978   2.559  0.2451  0.4015  0.6326
  140SOL    HW1  419   3.044   2.872   2.556  0.0334 -1.7341 -1.1379
  140SOL    HW2  420   3.096   3.039   2.513  1.8546  1.5164 -1.0694
  141SOL     OW  421   1.310   1.674   1.602 -0.1972 -0.6828 -0.8540
  141SOL    HW1  422   1.234   1.746   1.596  0.2091  0.0584 -2.0884
  141SOL    HW2  423   1.276   1.579   1.627 -0.8414 -1.8170 -1.6680
  142SOL     OW  424   1.528   0.584   2.268  0.1608  0.1684  0.4011
  142SOL    HW1  425   1.537   0.586   2.163 -1.1278  0.6365  0.7863
  142SOL    HW2  426   1.434   0.571   2.307 -0.3565  0.4559 -1.6114
  143SOL     OW  427   2.789   0.892   0.512 -0.1900 -0.6595  1.0726
  143SOL    HW1  428   2.833   0.920   0.416  1.1830  0.2058 -0.7469
  143SOL    HW2  429   2.847   0.928   0.590 -0.3471  0.2562 -2.2817
  144SOL     OW  430   2.878   1.148   1.523 -0.3002  0.2328 -0.1967
  144SOL    HW1  431   2.838   1.152   1.620  1.6081  1.1028  1.0605
  144SOL    HW2  432   2.955   1.080   1.510  0.7404 -1.3093 -1.2856
  145SOL     OW  433   0.990   1.815   0.116 -0.7270  0.4391  0.1620
  145SOL    HW1  434   1.010   1.884   0.042  2.6987  0.0028 -2.7567
  145SOL    HW2  435   0.949   1.724   0.084 -1.9270 -0.2282  2.2058
  146SOL     OW  436   2.445   0.678   1.478  0.0997  0.1505 -0.0795
  146SOL    HW1  437   2.396   0.593   1.436 -0.8136 -0.1536 -2.7003
  146SOL    HW2  438   2.405   0.773   1.450 -1.2236  1.9799  0.7455
  147SOL     OW  439   1.073   2.516   0.589  0.0482 -1.2042  0.0742
  147SOL    HW1  440   1.028   2.577   0.515  0.4535  0.5600 -2.0151
  147SOL    HW2  441   1.174   2.487   0.568  1.3075  1.0202  2.5567
  148SOL     OW  442   1.631   1.429   3.098  0.1676  0.1567 -0.2243
  148SOL    HW1  443   1.611   1.355   3.027  1.4579  0.0092  0.3128
  148SOL    HW2  444   1.611   1.394   3.195  2.2126 -2.0733 -0.3511
  149SOL     OW  445   0.630   1.483   1.965  0.3740  0.8944  0.5000
  149SOL    HW1  446   0.540   1.445   1.999  0.8251  1.1972  0.6314
  149SOL    HW2  447   0.684   1.419   1.907  1.5418  2.6699 -0.1266
  150SOL     OW  448   3.009   1.227   0.993 -0.0272 -0.0138 -0.3509
  150SOL    HW1  449   3.091   1.224   1.061 -0.4980 -0.6353  1.8319
  150SOL    HW2  450   2.956   1.136   1.002  1.3930 -1.1488  0.3550
  151SOL     OW  451   0.190   0.770   2.074 -0.0537  0.6809 -0.1655
  151SOL    HW1  452   0.192   0.850   2.007  3.5736  2.3175 -0.4483
  151SOL    HW2  453   0.271   0.709   2.056  1.1566  1.8400  2.8067
  152SOL     OW  454   1.451   1.806   1.177 -0.3998 -0.0264  0.4523
  152SOL    HW1  455   1.494   1.900   1.200 -1.5753 -0.9970 -0.1243
  152SOL    HW2  456   1.349   1.812   1.152 -2.1398 -1.4468 -1.7162
  153SOL     OW  457   0.175   1.502   0.223  0.2817 -0.5369 -0.3570
  153SOL    HW1  458   0.134   1.407   0.233 -0.1538 -0.3195  0.8517
  153SOL    HW2  459   0.147   1.562   0.299 -1.0042 -0.3174 -3.1034
  154SOL     OW  460   2.345   1.897   2.819 -0.3701  0.6954 -0.4295
  154SOL    HW1  461   2.370   1.795   2.846 -3.5920 -2.9246  0.2258
  154SOL    HW2  462   2.412   1.940   2.756 -0.1853 -1.5697 -0.7389
  155SOL     OW  463   2.528   1.218   0.395 -0.0618  0.9927 -0.6967
  155SOL    HW1  464   2.612   1.217   0.330  1.5807  1.2176 -1.9482
  155SOL    HW2  465   2.441   1.194   0.344  0.4209  2.0578  0.7246
  156SOL     OW  466   2.483   0.826   0.751 -0.1699 -0.2130  0.3710
  156SOL    HW1  467   2.391   0.795   0.789  1.3193 -0.3828  0.6701
  156SOL    HW2  468   2.474   0.881   0.662  2.2796 -0.2465 -1.5697
  157SOL     OW  469   1.242   3.013   2.977 -0.2312  0.1182 -0.2005
  157SOL    HW1  470   1.298   2.952   2.916  4.0046 -2.5328  0.4853
  157SOL    HW2  471   1.285   3.104   3.000 -2.2611 -1.2868  1.7294
  158SOL     OW  472   0.974   1.880   1.832  0.4297  0.1768 -0.2114
  158SOL    HW1  473   1.024   1.972   1.829 -0.8459  1.1335 -0.9113
  158SOL    HW2  474   0.892   1.891   1.895  0.6872  0.9633 -0.1181
  159SOL     OW  475   0.850   0.432   1.215 -0.0412 -0.0929  0.1253
  159SOL    HW1  476   0.793   0.518   1.241 -2.4082  2.6394  0.6216
  159SOL    HW2  477   0.803   0.356   1.163  0.5388 -0.2613  2.5581
  160SOL     OW  478   1.369   2.462   1.544  0.5532 -0.2019 -0.4662
  160SOL    HW1  479   1.319   2.377   1.573 -1.9243  0.7217  2.0778
  160SOL    HW2  480   1.473   2.455   1.533  2.4108  0.0186  0.6649
  161SOL     OW  481   3.059   2.782   0.452 -0.3799 -0.6218 -0.3669
  161SOL    HW1  482   2.974   2.760   0.502  4.0885 -1.9177 -1.2630
  161SOL    HW2  483   3.040   2.792   0.354  0.9364  0.0885  2.8589
  162SOL     OW  484   2.565   1.824   0.475 -0.0753 -0.0230 -0.0046
  162SOL    HW1  485   2.551   1.811   0.370 -1.4750 -3.6487 -1.1834
  162SOL    HW2  486   2.558   1.729   0.522  0.3644 -1.3165  0.7068
  163SOL     OW  487   1.968   2.685   0.737  0.1195 -0.1507  0.2649
  163SOL    HW1  488   1.945   2.697   0.636 -0.3146 -0.5415  1.5206
  163SOL    HW2  489   2.045   2.616   0.754  0.4233 -1.4782  3.3616
  164SOL     OW  490   3.075   0.262   1.267 -0.2702  0.1624 -0.0761
  164SOL    HW1  491   3.103   0.338   1.204  1.7288  0.2338  0.8418
  164SOL    HW2  492   3.150   0.245   1.331 -1.3515  1.6643 -0.7783
  165SOL     OW  493   1.067   1.416   0.706  0.2470  0.7451 -0.9445
  165SOL    HW1  494   1.011   1.458   0.782  0.1640 -0.9372  0.6780
  165SOL    HW2  495   1.062   1.462   0.610 -0.3938 -0.4415 -1.7929
  166SOL     OW  496   1.589   1.020   1.786  0.2092  0.1109 -0.2063
  166SOL    HW1  497   1.486   1.014   1.806 -2.6336 -1.1520 -1.1147
  166SOL    HW2  498   1.631   1.116   1.800  2.4487  1.5589 -1.5611
  167SOL     OW  499   0.763   1.962   1.450  0.6103 -0.0002  0.1350
  167SOL    HW1  500   0.789   2.020   1.529 -1.2011 -2.1955 -0.5282
  167SOL    HW2  501   0.710   1.880   1.474  0.4323 -0.0933 -2.6944
  168SOL     OW  502   1.596   2.346   0.172 -0.2691  0.1748 -0.5161
  168SOL    HW1  503   1.659   2.322   0.095 -1.9140 -0.8393 -1.8488
  168SOL    HW2  504   1.636   2.309   0.259 -0.1122  2.2738  0.2330
  169SOL     OW  505   0.153   2.569   2.230 -0.5023  0.1299 -0.1753
  169SOL    HW1  506   0.176   2.515   2.146 -2.3699  1.4789 -3.3036
  169SOL    HW2  507   0.171   2.519   2.320 -0.8376  0.5873 -0.4388
  170SOL     OW  508   1.098   0.246   2.014 -0.0179 -0.4525  0.1117
  170SOL    HW1  509   1.178   0.246   2.081  2.2440 -0.1218 -0.9961
  170SOL    HW2  510   1.125   0.194   1.922  1.9900  2.2021 -1.0670
  171SOL     OW  511   0.203   0.819   2.379  0.1327  0.3379 -0.2268
  171SOL    HW1  512   0.115   0.817   2.434  0.2993 -1.6702  0.7742
  171SOL    HW2  513   0.191   0.797   2.275 -0.8997  0.2802  0.8580
  172SOL     OW  514   0.982   0.990   2.916 -0.3444  0.3609  0.2993
  172SOL    HW1  515   0.967   1.060   2.990 -1.9244 -1.0384 -0.1029
  172SOL    HW2  516   0.911   0.990   2.843  0.1837 -1.6750 -0.2160
  173SOL     OW  517   0.520   2.467   0.125 -0.0692 -0.7096  0.5498
  173SOL    HW1  518   0.485   2.383   0.083 -1.6285  0.2095 -1.8273
  173SOL    HW2  519   0.454   2.519   0.185 -3.9678 -0.9810  0.4971
  174SOL     OW  520   1.490   2.831   1.045 -0.1495  0.3018  0.1083
  174SOL    HW1  521   1.546   2.890   0.988  0.0267 -1.9014  0.8415
  174SOL    HW2  522   1.447   2.749   0.994 -2.5426 -1.9975  1.4399
  175SOL     OW  523   0.468   3.040   1.690  0.2630  0.3147 -0.1900
  175SOL    HW1  524   0.517   3.017   1.776  0.2197 -0.9099 -1.1449
  175SOL    HW2  525   0.457   3.140   1.673  0.1236  0.3606  0.3823
  176SOL     OW  526   2.565   0.376   0.010  0.5218  0.0904  0.2002
  176SOL    HW1  527   2.583   0.469   0.054 -2.5768 -1.6593  1.9037
  176SOL    HW2  528   2.537   0.299   0.079  0.1257  0.3769 -1.0930
  177SOL     OW  529   0.298   0.278   0.943  0.2491 -0.4484  0.3055
  177SOL    HW1  530   0.277   0.178   0.927 -2.8560 -0.8190 -0.9556
  177SOL    HW2  531   0.342   0.297   1.034 -0.0517  1.6068 -0.1895
  178SOL     OW  532   0.007   2.726   2.608 -0.2007 -0.1407  0.0818
  178SOL    HW1  533  -0.008   2.632   2.568 -0.7952  0.7214 -0.3624
  178SOL    HW2  534   0.085   2.729   2.677 -1.9537  1.3812 -0.6475
  179SOL     OW  535   3.027   1.556   1.151 -0.2401 -0.1649  0.1140
  179SOL    HW1  536   3.114   1.590   1.104  2.3748  0.8256  1.9825
  179SOL    HW2  537   3.031   1.464   1.194 -3.4026 -0.0211 -3.4476
  180SOL     OW  538   0.198   1.322   1.803 -0.8929  0.7595 -0.3110
  180SOL    HW1  539   0.288   1.272   1.829  2.7185  0.6039  2.1223
  180SOL    HW2  540   0.191   1.417   1.847  0.2390  0.3002  1.0023
  181SOL     OW  541   3.022   1.951   2.505 -0.5801  0.4940 -0.5239
  181SOL    HW1  542   3.089   2.024   2.467  0.0843 -1.5524 -1.1835
  181SOL    HW2  543   2.947   1.918   2.445  0.0062  1.7935 -2.4848
  182SOL     OW  544   2.342   1.236   1.241 -0.2081  0.0544  0.2006
  182SOL    HW1  545   2.265   1.191   1.185  0.6409  4.0865  3.0907
  182SOL    HW2  546   2.329   1.340   1.241  0.2015  0.7754 -0.5810
  183SOL     OW  547   1.432   2.241   2.535 -0.0310  0.3552 -0.0388
  183SOL    HW1  548   1.361   2.190   2.589 -0.3592  0.5903 -0.3578
  183SOL    HW2  549   1.507   2.183   2.487 -0.6848  0.6276  0.2647
  184SOL     OW  550   2.092   0.919   0.719  0.7464 -0.5680 -0.2688
  184SOL    HW1  551   1.995   0.955   0.696 -3.2008  1.3102 -0.3898
  184SOL    HW2  552   2.082   0.837   0.778  2.8863 -0.6992  1.8280
  185SOL     OW  553   1.562   2.738   1.993 -0.3752  0.0516  0.2063
  185SOL    HW1  554   1.489   2.812   1.990 -0.3876 -0.0392  1.3764
  185SOL    HW2  555   1.626   2.745   2.078 -0.6805 -0.2426 -1.1154
  186SOL     OW  556   0.082   2.211   1.635 -0.5097 -0.0456  0.0624
  186SOL    HW1  557   0.058   2.269   1.720  3.2207  0.7669 -0.2229
  186SOL    HW2  558   0.161   2.145   1.648  0.6494 -1.2611  0.1665
  187SOL     OW  559   1.388   0.624   1.644 -0.2224 -0.0397 -0.3855
  187SOL    HW1  560   1.475   0.688   1.640 -1.9730  1.7737  0.4984
  187SOL    HW2  561   1.397   0.552   1.720 -3.0106 -4.2052 -0.1836
  188SOL     OW  562   2.832   2.721   1.461 -0.4305 -0.9571 -0.9794
  188SOL    HW1  563   2.787   2.819   1.454 -2.2711 -1.0401  0.1149
  188SOL    HW2  564   2.765   2.653   1.418 -1.9569 -2.3492  0.3354
  189SOL     OW  565   0.873   1.181   1.423  0.4578 -0.5044  0.0231
  189SOL    HW1  566   0.933   1.237   1.489  4.4236 -1.6311 -1.1841
  189SOL    HW2  567   0.801   1.239   1.379 -3.0499 -2.5421  1.8711
  190SOL     OW  568   1.497   1.905   1.584  0.3392 -0.5005 -0.1550
  190SOL    HW1  569   1.454   1.809   1.578 -0.7340 -1.3985 -1.7491
  190SOL    HW2  570   1.499   1.941   1.683  1.2174  1.9415  3.1685
  191SOL     OW  571   0.931   0.779   1.494 -0.1927  0.5227  0.1750
  191SOL    HW1  572   1.000   0.746   1.561  0.4233  2.8590 -0.0908
  191SOL    HW2  573   0.973   0.853   1.435  3.5232 -1.4894 -1.4944
  192SOL     OW  574   1.852   2.396   1.115  0.1847  0.8021 -0.3667
  192SOL    HW1  575   1.756   2.378   1.081  1.1979  0.8958  3.9953
  192SOL    HW2  576   1.932   2.349   1.065 -0.0918 -1.3903 -1.0359
  193SOL     OW  577   0.519   0.520   0.401 -0.2500  0.1887  0.3669
  193SOL    HW1  578   0.463   0.431   0.408  0.1012  2.8794 -1.8878
  193SOL    HW2  579   0.597   0.514   0.338  1.3781 -0.7374  2.1981
  194SOL     OW  580   0.308   0.910   1.295 -0.5116  0.1246 -0.3543
  194SOL    HW1  581   0.274   0.812   1.286 -0.0456  0.0163 -1.0982
  194SOL    HW2  582   0.346   0.952   1.209  0.6509 -0.0847  1.8553
  195SOL     OW  583   0.986   2.897   0.517 -0.2950 -0.2126 -0.2637
  195SOL    HW1  584   0.965   2.815   0.457 -1.7059  0.2110 -0.2762
  195SOL    HW2  585   1.089   2.909   0.504  0.4829 -0.5430 -1.0395
  196SOL     OW  586   0.202   1.366   1.347 -0.1905  0.3724 -0.1421
  196SOL    HW1  587   0.224   1.464   1.373  1.3614  0.7520  1.1491
  196SOL    HW2  588   0.178   1.305   1.429  1.3203 -2.1198 -1.6077
  197SOL     OW  589   0.811   2.016   0.268 -0.0857 -0.6779  0.6381
  197SOL    HW1  590   0.788   1.969   0.356  1.2530 -1.6568 -1.9083
  197SOL    HW2  591   0.869   1.950   0.212  0.8548  1.9082  1.0287
  198SOL     OW  592   0.340   1.258   0.341 -0.3111 -0.1393  0.1818
  198SOL    HW1  593   0.239   1.259   0.317  3.3274  1.2896 -2.9364
  198SOL    HW2  594   0.364   1.344   0.393 -0.9749 -1.0012 -1.1760
  199SOL     OW  595   2.294   0.442   2.591 -0.2816 -0.0588  0.0583
  199SOL    HW1  596   2.216   0.381   2.624 -2.5401 -2.5637 -1.8001
  199SOL    HW2  597   2.386   0.406   2.609  0.1729  0.0468 -1.8750
  200SOL     OW  598   3.090   3.009   0.744  0.1007  0.3878  0.4409
  200SOL    HW1  599   3.142   3.090   0.718 -2.8992 -0.1461  0.9770
  200SOL    HW2  600   3.005   2.993   0.694  2.2095 -0.2165  0.9830
  201SOL     OW  601   0.986   0.702   0.507 -0.4884  0.1219 -0.2917
  201SOL    HW1  602   1.020   0.732   0.598  0.3937  1.5180  1.3870
  201SOL    HW2  603   0.908   0.636   0.522  0.1889  0.6105 -2.9804
  202SOL     OW  604   0.422   1.197   1.886  0.6435  0.2316 -0.0184
  202SOL    HW1  605   0.510   1.144   1.869 -2.6362 -0.4939 -1.7514
  202SOL    HW2  606   0.438   1.278   1.950 -1.3265  0.6196 -0.9891
  203SOL     OW  607   0.579   0.178   1.514 -0.4851  0.1721  0.6022
  203SOL    HW1  608   0.586   0.094   1.457 -1.8368  0.6810  2.0802
  203SOL    HW2  609   0.664   0.181   1.573 -1.1632 -1.6528 -0.9973
  204SOL     OW  610   2.120   1.808   2.962 -0.0969 -0.1187  0.7491
  204SOL    HW1  611   2.109   1.708   2.967 -0.6892 -0.4625 -2.3523
  204SOL    HW2  612   2.200   1.847   2.907  1.4993 -0.7620  0.3215
  205SOL     OW  613   1.837   1.828   3.036  0.0403 -0.6566  0.3291
  205SOL    HW1  614   1.926   1.802   2.995  0.1022  0.7859  1.6185
  205SOL    HW2  615   1.814   1.927   3.015  0.6940 -0.8609 -1.8408
  206SOL     OW  616   2.417   2.814   0.369  0.1897  0.0703  0.1781
  206SOL    HW1  617   2.444   2.722   0.414  0.1743 -2.5706  0.8550
  206SOL    HW2  618   2.488   2.851   0.301  0.3818 -0.1534 -0.8220
  207SOL     OW  619   0.682   1.791   2.945 -0.1852 -0.2960 -0.1782
  207SOL    HW1  620   0.771   1.758   2.904 -1.3399 -0.8595 -3.5817
  207SOL    HW2  621   0.647   1.725   3.018  1.2447 -0.4401  3.0990
  208SOL     OW  622   1.166   1.659   1.348 -0.1558  0.2086 -0.0597
  208SOL    HW1  623   1.138   1.710   1.264  0.2858  0.4823 -0.2834
  208SOL    HW2  624   1.171   1.718   1.434 -0.7181  0.0745  0.6051
  209SOL     OW  625   0.255   0.980   3.084 -0.3380  0.1114  0.3169
  209SOL    HW1  626   0.250   0.903   3.009  0.8770  0.4087 -2.0509
  209SOL    HW2  627   0.261   0.937   3.181  0.5455  0.2831 -0.5946
  210SOL     OW  628   1.706   0.492   1.223  0.3076  0.0508  0.2531
  210SOL    HW1  629   1.657   0.568   1.168 -1.7542 -0.0440  0.4167
  210SOL    HW2  630   1.799   0.484   1.187  1.6375  0.8561  2.1416
  211SOL     OW  631   2.051   1.028   1.582 -0.8412  0.9459 -0.0286
  211SOL    HW1  632   2.057   0.953   1.655  0.8078  0.0706 -1.1576
  211SOL    HW2  633   2.143   1.084   1.564 -2.1148  1.3101 -1.9492
  212SOL     OW  634   0.022   0.975   1.534  0.0051  0.3733 -0.1942
  212SOL    HW1  635   0.087   1.053   1.550  0.4299  0.1888 -0.0043
  212SOL    HW2  636   0.055   0.887   1.575 -0.4849  0.7288  1.8099
  213SOL     OW  637   2.708   0.165   0.343  0.3511  0.1179 -0.8870
  213SOL    HW1  638   2.802   0.146   0.316 -1.5626 -0.0283  0.0587
  213SOL    HW2  639   2.637   0.106   0.292  3.1370  1.8890  1.9317
  214SOL     OW  640   2.192   0.376   2.336  0.0401  1.0880 -0.0026
  214SOL    HW1  641   2.215   0.429   2.424 -1.9833  0.0936 -0.7499
  214SOL    HW2  642   2.188   0.273   2.355 -1.2642 -0.3071 -3.1179
  215SOL     OW  643   1.634   2.278   2.107  0.1148  0.4178  0.0825
  215SOL    HW1  644   1.728   2.306   2.068  1.1272  2.4902  2.0576
  215SOL    HW2  645   1.567   2.359   2.112 -0.3201 -0.7058 -0.2268
  216SOL     OW  646   2.229   0.602   0.714 -0.4933 -0.3885  0.5222
  216SOL    HW1  647   2.206   0.512   0.664  2.1153 -2.2429  0.0796
  216SOL    HW2  648   2.222   0.674   0.644 -0.2749 -0.1482 -0.6503
  217SOL     OW  649   0.810   2.819   2.472  0.6296 -0.3101  0.8518
  217SOL    HW1  650   0.790   2.731   2.528 -0.6512 -0.8877  0.2737
  217SOL    HW2  651   0.750   2.831   2.389  0.7770 -0.2344 -1.2541
  218SOL     OW  652   1.910   1.478   0.045 -0.3973  0.3094 -0.3406
  218SOL    HW1  653   1.814   1.492   0.015  0.2273  0.0905  0.8573
  218SOL    HW2  654   1.922   1.404   0.116 -0.1604  2.4094  2.8817
  219SOL     OW  655   2.438   1.286   2.510 -0.0253 -0.1782  0.3273
  219SOL    HW1  656   2.472   1.247   2.417  1.9300  0.4448  1.1318
  219SOL    HW2  657   2.445   1.211   2.585  0.5000 -2.4106 -0.8280
  220SOL     OW  658   1.446   1.000   1.332 -0.2584 -0.1164  0.2745
  220SOL    HW1  659   1.541   1.027   1.355  0.7291 -1.9527 -0.1973
  220SOL    HW2  660   1.410   1.050   1.251  0.4801  2.4808  2.4491
  221SOL     OW  661   1.279   0.983   2.186 -0.1821 -0.4449  0.3465
  221SOL    HW1  662   1.230   1.038   2.112 -0.4258 -1.0546 -2.8887
  221SOL    HW2  663   1.378   1.016   2.190 -0.8569 -1.2945  1.9558
  222SOL     OW  664   1.129   0.124   1.194  0.0228  0.7583 -0.3426
  222SOL    HW1  665   1.095   0.188   1.266  0.4665  0.0949  1.7853
  222SOL    HW2  666   1.168   0.164   1.105 -3.2005  1.0879 -0.7005
  223SOL     OW  667   2.705   0.934   2.148 -0.0029 -0.3933 -0.0802
  223SOL    HW1  668   2.670   1.004   2.218  0.0173 -1.0212  2.4333
  223SOL    HW2  669   2.791   0.888   2.186 -1.7040 -1.5910  0.0546
  224SOL     OW  670   1.469   1.094   2.725 -0.6090 -0.0175  0.4560
  224SOL    HW1  671   1.509   1.007   2.696  0.3979  1.2281  1.0530
  224SOL    HW2  672   1.447   1.162   2.639  2.0737  0.2516 -3.7769
  225SOL     OW  673   2.966   2.724   2.880 -0.0033  0.0908 -0.5856
  225SOL    HW1  674   2.906   2.698   2.799  3.5102  0.4144 -0.2758
  225SOL    HW2  675   3.066   2.745   2.853 -1.0363  1.6203  1.5106
  226SOL     OW  676   2.366   1.631   2.865 -0.9609 -0.8756 -0.0521
  226SOL    HW1  677   2.394   1.613   2.767  3.2095 -0.8933 -0.3791
  226SOL    HW2  678   2.340   1.552   2.922 -0.7853  3.3075 -0.3386
  227SOL     OW  679   0.841   0.207   3.070  0.2450  0.2084  0.3408
  227SOL    HW1  680   0.865   0.306   3.073 -0.3174 -1.4787  1.1329
  227SOL    HW2  681   0.804   0.177   2.981 -0.3103 -0.9837  2.3038
  228SOL     OW  682   2.439   0.590   2.846 -0.3634  0.0035 -0.2443
  228SOL    HW1  683   2.454   0.658   2.771 -2.0354  0.7221  3.3332
  228SOL    HW2  684   2.506   0.509   2.838 -3.2053  2.1369 -0.6185
  229SOL     OW  685   0.573   0.438   1.817 -0.2821 -0.4558  0.2780
  229SOL    HW1  686   0.570   0.336   1.843  1.6131  2.3555  1.4428
  229SOL    HW2  687   0.619   0.448   1.726 -0.8329  1.2968 -0.9041
  230SOL     OW  688   1.901   1.175   2.037 -0.8015 -0.2706  0.0591
  230SOL    HW1  689   1.974   1.236   1.996 -0.1540 -0.0053 -1.5294
  230SOL    HW2  690   1.835   1.228   2.096  0.1283  1.0583 -0.7879
  231SOL     OW  691   0.628   1.062   0.025  0.6185  0.1563 -0.3561
  231SOL    HW1  692   0.680   1.109  -0.048  1.0007  0.1622  2.9913
  231SOL    HW2  693   0.533   1.113   0.038 -2.0850  1.6155  0.2717
  232SOL     OW  694   2.428   3.047   2.855  0.2654 -0.4899 -0.9168
  232SOL    HW1  695   2.486   2.962   2.856 -1.5723 -1.4691 -0.9221
  232SOL    HW2  696   2.465   3.117   2.789  2.8379  2.5243  2.4980
  233SOL     OW  697   1.782   1.253   1.193 -0.1270  0.5180  1.0157
  233SOL    HW1  698   1.836   1.229   1.105  2.6251  1.2239  0.2604
  233SOL    HW2  699   1.766   1.169   1.254 -1.3335  0.8078  0.6485
  234SOL     OW  700   1.592   2.497   1.852 -0.2888  0.8243  0.1984
  234SOL    HW1  701   1.596   2.589   1.908  1.3651  0.8317  3.0571
  234SOL    HW2  702   1.500   2.451   1.857  0.9394  0.1933  0.1676
  235SOL     OW  703   0.024   3.040   2.819  0.1125  0.2921  0.4345
  235SOL    HW1  704  -0.020   3.003   2.738  2.3835 -0.5713  0.2587
  235SOL    HW2  705  -0.039   3.042   2.902 -1.8592 -2.1665 -0.3315
  236SOL     OW  706   2.872   0.739   0.059 -0.4190  0.0595  0.4056
  236SOL    HW1  707   2.936   0.769   0.130 -0.7256 -1.7743  2.0104
  236SOL    HW2  708   2.898   0.642   0.023  1.0655 -0.7894 -2.1216
  237SOL     OW  709   1.530   1.629   0.959 -0.3454 -0.2072 -0.3345
  237SOL    HW1  710   1.630   1.612   0.935 -0.4027  0.5374  3.1574
  237SOL    HW2  711   1.516   1.705   1.030 -0.9397  3.1915 -0.0468
  238SOL     OW  712   1.863   1.281   0.769 -0.0210 -0.2782 -0.3121
  238SOL    HW1  713   1.920   1.297   0.857 -2.1999  0.8634  0.7070
  238SOL    HW2  714   1.777   1.331   0.758  2.4446 -2.3225 -0.3056
  239SOL     OW  715   2.098   0.297   2.740 -0.0169  0.4063 -0.0828
  239SOL    HW1  716   2.142   0.312   2.829 -1.4339 -0.2246 -0.0039
  239SOL    HW2  717   2.001   0.338   2.740  0.4504 -0.3636  2.5543
  240SOL     OW  718   0.932   0.672   0.242 -0.3315 -0.0279  0.1266
  240SOL    HW1  719   0.991   0.591   0.230 -0.2682 -1.6374  1.1555
  240SOL    HW2  720   0.934   0.699   0.340  1.3546 -0.3814  1.2188
  241SOL     OW  721   0.597   0.086   0.406  0.1271  0.5097  0.0450
  241SOL    HW1  722   0.626   0.157   0.332 -1.9874  1.2041 -2.4738
  241SOL    HW2  723   0.618  -0.010   0.370 -3.3610  2.7925  0.1361
  242SOL     OW  724   0.603   2.517   1.132  0.3178  0.6958  0.0517
  242SOL    HW1  725   0.592   2.506   1.237  2.2950 -1.4454  0.9328
  242SOL    HW2  726   0.602   2.614   1.096 -0.0809  1.4200 -0.3001
  243SOL     OW  727   1.059   0.615   2.479  0.0862 -0.1702 -0.4715
  243SOL    HW1  728   0.981   0.629   2.412  0.2503 -2.2325 -0.2632
  243SOL    HW2  729   1.041   0.549   2.555 -1.5010  1.7760  0.2469
  244SOL     OW  730   2.808   1.874   2.349 -0.1464  0.4067  0.0112
  244SOL    HW1  731   2.814   1.884   2.243  0.7241  1.4765 -1.6120
  244SOL    HW2  732   2.710   1.849   2.388 -2.3054  1.5325 -1.6503
  245SOL     OW  733   2.213   0.898   2.168  0.0350  0.2246  0.6494
  245SOL    HW1  734   2.310   0.919   2.206  1.4770  0.9455  3.1721
  245SOL    HW2  735   2.148   0.956   2.224 -1.0121 -0.5604 -1.9229
  246SOL     OW  736   0.210   2.911   1.691 -0.6725 -0.2854  0.2151
  246SOL    HW1  737   0.133   2.928   1.620 -0.8313 -3.8759 -0.2965
  246SOL    HW2  738   0.307   2.936   1.650  1.3975  0.5414 -0.7320
  247SOL     OW  739   2.220   0.646   2.979  0.3037  0.1248  0.2601
  247SOL    HW1  740   2.296   0.618   2.910 -0.2909 -0.6361 -0.4313
  247SOL    HW2  741   2.171   0.732   2.942  2.4416 -1.5239 -3.1457
  248SOL     OW  742   2.179   1.829   1.563 -0.2826 -0.1266 -0.4685
  248SOL    HW1  743   2.248   1.768   1.618  0.4831  1.6152  2.5208
  248SOL    HW2  744   2.089   1.814   1.604  2.3484 -0.9518 -0.4148
  249SOL     OW  745   1.919   1.913   1.903  0.8110 -0.9991 -0.4944
  249SOL    HW1  746   1.917   1.852   1.819  0.9152  0.5683 -0.8576
  249SOL    HW2  747   2.011   1.956   1.909  0.4702 -0.3841 -2.3960
  250SOL     OW  748   1.080   0.689   1.896 -0.1030  0.8225  0.0975
  250SOL    HW1  749   1.095   0.618   1.976 -0.8400 -1.6374 -0.6582
  250SOL    HW2  750   1.099   0.650   1.800 -0.5793  1.6777 -0.5189
  251SOL     OW  751   3.085   1.664   2.520 -0.1668  0.2053 -0.4001
  251SOL    HW1  752   3.074   1.764   2.494 -0.0562  1.6181  0.4852
  251SOL    HW2  753   2.994   1.612   2.534  1.3293 -2.3716  1.4248
  252SOL     OW  754   1.621   0.765   1.674  0.5745 -0.5426  0.2898
  252SOL    HW1  755   1.715   0.732   1.653 -1.5019 -1.2650  2.5921
  252SOL    HW2  756   1.619   0.851   1.736 -2.8147 -1.9733  1.0556
  253SOL     OW  757   0.998   1.570   0.460 -0.1911  0.1629 -0.2441
  253SOL    HW1  758   0.994   1.478   0.404 -0.2529 -1.2324 -2.2546
  253SOL    HW2  759   0.909   1.585   0.504 -0.3626 -0.3750 -1.8415
  254SOL     OW  760   2.043   2.180   1.649 -0.1927  0.0609 -0.0145
  254SOL    HW1  761   2.012   2.100   1.591  0.0204  0.4570  1.2335
  254SOL    HW2  762   1.961   2.222   1.699 -1.0941 -0.3476  0.5927
  255SOL     OW  763   0.140   1.174   2.921  0.2379  0.2964 -0.1020
  255SOL    HW1  764   0.202   1.253   2.881 -0.2874  1.7638 -1.1922
  255SOL    HW2  765   0.186   1.102   2.978 -1.8530  0.9026 -1.5950
  256SOL     OW  766   2.880   1.423   1.801  0.3091 -0.1327  0.2565
  256SOL    HW1  767   2.783   1.457   1.817 -1.9143 -1.2821 -0.5563
  256SOL    HW2  768   2.882   1.316   1.790 -0.6608  0.6823 -0.7324
  257SOL     OW  769   0.779   0.169   1.734  0.0035  0.2065  0.4982
  257SOL    HW1  770   0.846   0.253   1.747 -1.0612  0.4572  0.1260
  257SOL    HW2  771   0.824   0.078   1.745  3.1498  2.7704 -0.9403
  258SOL     OW  772   2.998   1.229   0.468 -0.2244 -0.0032  0.4056
  258SOL    HW1  773   2.935   1.308   0.495  0.8770  0.8602  2.3231
  258SOL    HW2  774   3.080   1.217   0.527 -1.5363  0.7094  0.1980
  259SOL     OW  775   0.443   2.908   3.057 -0.2338  0.1306 -0.2330
  259SOL    HW1  776   0.376   2.852   3.113 -2.0399 -1.7782  1.3933
  259SOL    HW2  777   0.447   2.879   2.959 -1.3210 -0.2324  2.1473
  260SOL     OW  778   2.731   0.666   2.786 -0.0720 -0.2063 -0.8470
  260SOL    HW1  779   2.673   0.752   2.800 -1.9304 -0.7142  2.3111
  260SOL    HW2  780   2.699   0.588   2.849  0.0702 -1.5865  1.8490
  261SOL     OW  781   2.718   1.323   1.323  0.6176 -0.7595  0.7063
  261SOL    HW1  782   2.662   1.290   1.238  0.3717 -0.9828  1.1837
  261SOL    HW2  783   2.778   1.254   1.368 -0.3849 -1.2459 -1.2273
  262SOL     OW  784   1.401   2.950   1.928  0.1558 -0.3329 -0.2295
  262SOL    HW1  785   1.432   3.048   1.924 -0.2248 -1.0108 -2.8326
  262SOL    HW2  786   1.301   2.927   1.911 -0.0568  2.7425  1.0033
  263SOL     OW  787   0.872   0.672   2.286 -0.3258 -0.0219  0.2500
  263SOL    HW1  788   0.836   0.587   2.235 -1.2993 -1.5195 -3.4657
  263SOL    HW2  789   0.917   0.737   2.217  1.2737 -1.0271 -1.4158
  264SOL     OW  790   2.232   0.800   0.412  0.0980 -0.0804 -0.6492
  264SOL    HW1  791   2.239   0.734   0.333  0.6534  0.3179 -1.3125
  264SOL    HW2  792   2.323   0.811   0.456  2.5240 -0.7022 -2.1822
  265SOL     OW  793   0.917   2.463   2.654 -0.0207 -0.3482 -0.0204
  265SOL    HW1  794   0.991   2.518   2.702 -3.0541 -2.0725 -2.0481
  265SOL    HW2  795   0.929   2.365   2.673  0.9775  0.5570 -0.3737
  266SOL     OW  796   1.334   1.821   3.034  0.2023 -0.6160  0.5029
  266SOL    HW1  797   1.336   1.877   3.121 -3.1247  2.2719 -1.1041
  266SOL    HW2  798   1.426   1.773   3.016  0.6711  0.1185 -0.0690
  267SOL     OW  799   1.023   0.053   2.333  0.3052  0.5504 -0.5078
  267SOL    HW1  800   0.996  -0.011   2.259  0.4340  1.4658 -2.7521
  267SOL    HW2  801   0.956   0.134   2.335 -2.2235 -0.4674  2.2666
  268SOL     OW  802   0.644   1.192   1.073  0.7900  1.0411  0.5980
  268SOL    HW1  803   0.633   1.205   1.173  1.5086  1.2780  2.1728
  268SOL    HW2  804   0.695   1.277   1.031  2.0939 -0.5661 -1.2127
  269SOL     OW  805   2.316   2.532   1.620  0.5990 -0.0566  0.0278
  269SOL    HW1  806   2.383   2.464   1.660 -2.5687  0.5540  2.4586
  269SOL    HW2  807   2.238   2.554   1.681  0.7757 -1.7090 -0.6132
  270SOL     OW  808   0.156   2.958   1.959  0.2094 -0.0417 -0.1024
  270SOL    HW1  809   0.174   2.938   1.857 -0.3724  0.9224  0.4678
  270SOL    HW2  810   0.120   2.875   2.011 -4.5018  1.5497 -0.6620
  271SOL     OW  811   0.426   1.385   1.170  0.3217  0.0676 -0.8540
  271SOL    HW1  812   0.406   1.359   1.070 -0.0272  0.7507 -0.4324
  271SOL    HW2  813   0.351   1.356   1.242 -0.2365  1.1057 -0.1594
  272SOL     OW  814   2.027   2.949   1.932  0.0636  0.2447 -0.1158
  272SOL    HW1  815   1.956   2.892   1.886 -0.7533 -0.7269  3.0645
  272SOL    HW2  816   2.075   3.027   1.875  1.5472  3.6593 -1.8565
  273SOL     OW  817   1.495   1.455   2.746  0.2423 -0.4259  0.1114
  273SOL    HW1  818   1.395   1.429   2.755  0.3237  0.0602 -1.0786
  273SOL    HW2  819   1.557   1.405   2.812  0.6787 -0.2427  1.2549
  274SOL     OW  820   1.181   0.510   2.062  0.0194 -0.1859 -0.1697
  274SOL    HW1  821   1.146   0.418   2.031  0.4390 -0.1428 -1.5238
  274SOL    HW2  822   1.227   0.504   2.154  0.3560  1.7633 -0.2769
  275SOL     OW  823   0.640   2.138   1.877  0.5242  0.1195  0.0508
  275SOL    HW1  824   0.583   2.202   1.933  0.0316 -0.7436  0.6613
  275SOL    HW2  825   0.589   2.058   1.839  0.1353 -0.4240 -2.0248
  276SOL     OW  826   2.213   1.104   2.770 -0.3655  0.4081  0.0730
  276SOL    HW1  827   2.135   1.145   2.717 -1.4793  1.9197  0.8759
  276SOL    HW2  828   2.174   1.041   2.845 -0.6193  1.5990  0.4235
  277SOL     OW  829   3.088   0.752   0.245  0.3220  0.0498 -0.1080
  277SOL    HW1  830   3.188   0.777   0.215  1.3341  0.0254 -0.0545
  277SOL    HW2  831   3.087   0.699   0.336  0.0935  1.2359  0.4858
  278SOL     OW  832   0.220   0.299   2.927  0.0537 -0.2613 -0.3147
  278SOL    HW1  833   0.288   0.222   2.902  0.2655  0.9308  0.6493
  278SOL    HW2  834   0.260   0.385   2.967  0.3508 -1.2039  2.4013
  279SOL     OW  835   0.228   0.025   0.893 -0.2169  0.1390  0.3571
  279SOL    HW1  836   0.218  -0.048   0.963  0.6844  1.3043 -0.8938
  279SOL    HW2  837   0.303   0.007   0.823  0.7311 -0.4322 -1.8237
  280SOL     OW  838   1.611   2.944   2.388  0.0249  0.0191 -0.0276
  280SOL    HW1  839   1.667   3.007   2.454  2.6398  0.0191 -1.2049
  280SOL    HW2  840   1.550   2.993   2.321 -0.1587  4.1086  0.3404
  281SOL     OW  841   0.593   0.975   2.272 -0.1009  0.4252 -0.4091
  281SOL    HW1  842   0.572   0.907   2.194  1.8874  0.7300 -0.0417
  281SOL    HW2  843   0.561   0.942   2.365 -1.1936 -0.4481  0.6616
  282SOL     OW  844   1.779   2.487   0.494 -0.1669 -0.2590 -0.0191
  282SOL    HW1  845   1.726   2.406   0.466 -0.6914  1.5654  2.3098
  282SOL    HW2  846   1.723   2.574   0.497  2.0328  1.3840 -4.0454
  283SOL     OW  847   1.222   0.938   0.782 -0.0750  0.0288 -0.5937
  283SOL    HW1  848   1.249   0.884   0.868 -0.0458  1.2260  0.6230
  283SOL    HW2  849   1.156   1.015   0.807  0.5697  0.7219  1.9214
  284SOL     OW  850   2.237   2.830   2.505  0.2793 -0.3831  0.2224
  284SOL    HW1  851   2.333   2.793   2.506 -1.4943 -0.9386 -0.2441
  284SOL    HW2  852   2.208   2.880   2.598  0.1827  0.1935  2.5830
  285SOL     OW  853   1.364   3.055   2.579  0.4503  0.1165 -0.3095
  285SOL    HW1  854   1.389   3.079   2.483 -2.2316  1.5832  1.2708
  285SOL    HW2  855   1.265   3.092   2.606 -0.2107  3.4086  1.0426
  286SOL     OW  856   0.432   0.426   0.761 -0.0507 -0.0665  0.1302
  286SOL    HW1  857   0.368   0.376   0.822 -3.0961  0.5549 -0.3857
  286SOL    HW2  858   0.435   0.388   0.666 -2.3862  0.1853  1.9804
  287SOL     OW  859   0.072   1.262   2.501 -0.2014  0.1732 -0.2281
  287SOL    HW1  860   0.058   1.171   2.538  3.9205  0.7985  1.7257
  287SOL    HW2  861   0.091   1.335   2.575 -0.5511  0.8461  1.6693
  288SOL     OW  862   1.597   2.685   1.611  0.3045  0.1542  0.8675
  288SOL    HW1  863   1.603   2.612   1.683  1.2022  3.4491 -3.1200
  288SOL    HW2  864   1.606   2.646   1.511 -3.7173 -1.5196 -0.7674
  289SOL     OW  865   0.586   2.727   0.852 -0.3427 -0.5135 -0.0525
  289SOL    HW1  866   0.675   2.754   0.809 -0.9965 -1.4037  0.5003
  289SOL    HW2  867   0.573   2.760   0.952  0.3486 -1.0561 -0.8388
  290SOL     OW  868   2.843   1.154   1.796  0.2920  0.1901 -0.3528
  290SOL    HW1  869   2.768   1.081   1.818 -1.7797  0.3029  0.1252
  290SOL    HW2  870   2.936   1.112   1.816  0.2139  0.6141 -2.3383
  291SOL     OW  871   1.981   3.082   0.032  0.2403 -0.1789 -0.1277
  291SOL    HW1  872   1.997   3.137   0.121  2.9249  1.4731  1.5521
  291SOL    HW2  873   2.058   3.108  -0.039 -0.6398  2.3470 -0.1925
  292SOL     OW  874   3.019   1.225   3.077  0.0607  0.0318  0.3446
  292SOL    HW1  875   2.937   1.257   3.013 -1.0547 -2.8598 -0.6373
  292SOL    HW2  876   3.112   1.218   3.024  1.1436  1.4654 -1.1934
  293SOL     OW  877   0.536   2.171   0.278  0.0051  0.2121  0.4769
  293SOL    HW1  878   0.469   2.222   0.335  0.1994 -0.5899  0.0002
  293SOL    HW2  879   0.635   2.196   0.300 -2.0784 -0.8218 -2.5677
  294SOL     OW  880   1.829   2.298   1.771  0.2936 -0.2250 -0.2231
  294SOL    HW1  881   1.844   2.318   1.871  0.8210  0.8609 -2.5129
  294SOL    HW2  882   1.764   2.360   1.726 -0.1319  2.5154  1.4275
  295SOL     OW  883   0.979   1.065   0.441 -0.0765  0.1031  0.0893
  295SOL    HW1  884   1.081   1.066   0.475  0.8257  0.1190  1.1151
  295SOL    HW2  885   0.915   1.038   0.518  1.7669  0.1894 -4.0010
  296SOL     OW  886   1.226   2.111   2.670 -0.0747 -0.5783  0.1703
  296SOL    HW1  887   1.129   2.138   2.687  4.0287  1.4125  3.2969
  296SOL    HW2  888   1.237   2.052   2.584  1.2599  0.5757  0.8823
  297SOL     OW  889   1.356   0.594   1.317  0.3713 -0.3601  0.3246
  297SOL    HW1  890   1.396   0.536   1.393  1.1489 -0.1261 -2.2016
  297SOL    HW2  891   1.429   0.649   1.264  2.4260 -0.1222 -0.3565
  298SOL     OW  892   0.525   1.368   3.006  0.5908 -0.4072 -0.4284
  298SOL    HW1  893   0.466   1.311   3.068  0.1548 -4.5277 -0.5690
  298SOL    HW2  894   0.569   1.311   2.927  1.8482 -0.6358  0.6637
  299SOL     OW  895   0.467   0.293   1.276 -0.0544  0.1613  0.2505
  299SOL    HW1  896   0.413   0.382   1.264 -1.3883  1.8238 -1.2420
  299SOL    HW2  897   0.467   0.256   1.372  1.2789 -0.9859 -2.6619
  300SOL     OW  898   1.264   1.705   2.610 -0.2606  0.2130 -0.5845
  300SOL    HW1  899   1.265   1.649   2.521  0.1942  2.0463  0.3411
  300SOL    HW2  900   1.350   1.697   2.663 -0.0299 -1.1453 -0.4513
  301SOL     OW  901   0.388   0.262   0.495  0.7788 -0.2537  0.2218
  301SOL    HW1  902   0.296   0.216   0.510  3.6223 -0.7584 -1.7706
  301SOL    HW2  903   0.462   0.188   0.481 -0.0336 -0.6397  4.2586
  302SOL     OW  904   1.250   2.429   2.328  0.3082 -0.0529 -0.6264
  302SOL    HW1  905   1.159   2.465   2.357 -1.5931 -0.0535 -2.4168
  302SOL    HW2  906   1.288   2.353   2.387  0.9712  3.1315 -0.0304
  303SOL     OW  907   0.925   2.436   0.802  0.0334 -0.0563  0.4328
  303SOL    HW1  908   0.983   2.465   0.719 -1.6038 -0.8331 -0.4711
  303SOL    HW2  909   0.977   2.449   0.890  0.5769  1.2248  3.5740
  304SOL     OW  910   0.086   1.925   0.700 -0.1490 -0.3213  0.1939
  304SOL    HW1  911   0.166   1.921   0.633  0.6180  1.6405 -1.4343
  304SOL    HW2  912   0.021   1.998   0.665  3.9482 -0.7493  0.8323
  305SOL     OW  913   1.590   0.875   0.663  0.0471  0.1111 -0.6472
  305SOL    HW1  914   1.536   0.859   0.581 -0.8024  1.5387  0.8376
  305SOL    HW2  915   1.646   0.791   0.682  0.8049  2.3054  2.1968
  306SOL     OW  916   0.433   1.901   1.880  0.8886  0.6233  0.7714
  306SOL    HW1  917   0.508   1.832   1.858 -1.8901  1.3826 -0.0218
  306SOL    HW2  918   0.437   1.934   1.978  2.2957 -0.6199 -1.8273
  307SOL     OW  919   3.025   0.876   2.516 -0.7753 -0.3831 -0.1916
  307SOL    HW1  920   3.058   0.943   2.588  0.9132 -0.7142  1.1870
  307SOL    HW2  921   2.952   0.810   2.548 -1.2786 -0.1608 -0.6140
  308SOL     OW  922   1.603   2.663   2.774 -0.0375 -0.4654 -0.1919
  308SOL    HW1  923   1.599   2.594   2.698 -0.0026  1.6000 -2.2849
  308SOL    HW2  924   1.558   2.627   2.863 -1.0878  0.9318 -0.0252
  309SOL     OW  925   1.235   0.182   1.784 -0.7129 -0.1862  0.1511
  309SOL    HW1  926   1.328   0.142   1.794 -0.4534  0.7440  1.7095
  309SOL    HW2  927   1.198   0.181   1.686 -1.0290 -0.8195 -2.1690
  310SOL     OW  928   1.534   2.550   0.673 -0.3754 -0.1688 -0.0354
  310SOL    HW1  929   1.493   2.541   0.771 -0.7897 -1.7078 -2.2931
  310SOL    HW2  930   1.582   2.635   0.648  0.5532 -0.1190  0.4878
  311SOL     OW  931   1.125   0.929   1.746  0.2986 -0.0315  0.1050
  311SOL    HW1  932   1.119   0.847   1.806 -2.3621  0.9303  0.3837
  311SOL    HW2  933   1.174   0.913   1.657  3.1800  0.1220  2.4119
  312SOL     OW  934   1.545   0.700   1.097 -0.1531 -0.7233 -0.0076
  312SOL    HW1  935   1.555   0.802   1.111 -0.8708 -2.7721  0.9778
  312SOL    HW2  936   1.521   0.676   0.996  1.1799 -1.8794  1.9479
  313SOL     OW  937   1.628   1.378   0.712  0.0424 -0.5117  0.4819
  313SOL    HW1  938   1.574   1.398   0.793  0.4886  0.1683 -1.0210
  313SOL    HW2  939   1.587   1.304   0.650 -2.6244 -2.8594 -0.7523
  314SOL     OW  940   2.986   3.089   3.056  0.3546 -0.1561  0.3411
  314SOL    HW1  941   3.016   3.117   3.151  0.8350  0.0552  0.1564
  314SOL    HW2  942   2.895   3.038   3.048  0.7319  1.6571  0.7217
  315SOL     OW  943   1.163   0.261   2.787  0.8908  0.1334 -0.3966
  315SOL    HW1  944   1.153   0.181   2.721 -1.5152  1.3147  0.9886
  315SOL    HW2  945   1.174   0.227   2.885  2.1267 -1.2573  0.3602
  316SOL     OW  946   1.712   2.085   0.914  0.0132  0.2219 -0.2682
  316SOL    HW1  947   1.645   2.077   0.989  3.1074  0.1930 -2.0317
  316SOL    HW2  948   1.709   2.178   0.868 -0.2136  1.5276 -1.5799
  317SOL     OW  949   1.201   0.638   2.794 -0.4337  0.2368 -0.6937
  317SOL    HW1  950   1.148   0.670   2.872 -1.2843  2.2319 -0.6286
  317SOL    HW2  951   1.135   0.599   2.722 -0.9262 -1.4288  3.2451
  318SOL     OW  952   1.436   3.087   2.237 -0.1271  0.0380 -0.2695
  318SOL    HW1  953   1.404   3.181   2.205  1.9564 -0.6373 -1.1399
  318SOL    HW2  954   1.395   3.014   2.177  0.2141  0.2463  0.9546
  319SOL     OW  955   0.595   2.341   2.926  0.4036 -0.4215 -0.5602
  319SOL    HW1  956   0.565   2.319   3.028  3.1098 -1.0643 -0.6427
  319SOL    HW2  957   0.649   2.263   2.881 -1.7414  0.4895 -0.2524
  320SOL     OW  958   1.717   2.232   0.410 -0.5265 -0.2498  0.2957
  320SOL    HW1  959   1.811   2.189   0.402  0.3922  1.1625  0.1973
  320SOL    HW2  960   1.662   2.184   0.487  3.0250  1.2257 -0.6592
  321SOL     OW  961   1.676   2.753   0.563 -0.2028  0.0142  0.3832
  321SOL    HW1  962   1.599   2.781   0.498 -0.1788 -2.1496  1.2352
  321SOL    HW2  963   1.761   2.814   0.551  2.8002  1.9244  0.1125
  322SOL     OW  964   2.603   1.119   2.351 -0.1193  0.3606 -0.0184
  322SOL    HW1  965   2.677   1.140   2.419 -0.1983 -2.0476 -2.7578
  322SOL    HW2  966   2.551   1.027   2.367 -1.2797  0.8331 -3.0691
  323SOL     OW  967   1.153   2.687   0.841  0.1799 -0.6891 -0.4538
  323SOL    HW1  968   1.126   2.643   0.755 -0.9923 -0.9129 -1.8881
  323SOL    HW2  969   1.108   2.782   0.864 -1.1975  3.9511 -1.6207
  324SOL     OW  970   0.269   2.497   2.470 -0.2893  0.2067 -0.6945
  324SOL    HW1  971   0.235   2.457   2.563 -0.2382 -0.0975  0.6668
  324SOL    HW2  972   0.312   2.592   2.477  0.9106  0.3551  0.6154
  325SOL     OW  973   1.268   2.999   0.503  0.4511 -0.0568  0.4644
  325SOL    HW1  974   1.277   3.043   0.408 -0.7926  0.1233 -2.5674
  325SOL    HW2  975   1.250   3.076   0.574 -2.8128  1.2598 -0.7886
  326SOL     OW  976   2.442   0.788   0.001 -0.2864  0.2524 -0.1406
  326SOL    HW1  977   2.372   0.726  -0.044 -0.8823 -1.3080 -0.5609
  326SOL    HW2  978   2.519   0.738   0.057  4.4846 -0.3973  1.4420
  327SOL     OW  979   2.818   0.310   0.559 -0.4545 -0.7422 -0.0450
  327SOL    HW1  980   2.778   0.273   0.474  2.2247  2.4380 -0.3260
  327SOL    HW2  981   2.819   0.236   0.632  1.2337  1.1138 -0.0693
  328SOL     OW  982   2.608   0.624   0.420  0.0576 -0.6702 -0.0211
  328SOL    HW1  983   2.544   0.701   0.442  2.0702  1.3355  1.9400
  328SOL    HW2  984   2.568   0.529   0.437 -1.1891  0.4186  1.8700
  329SOL     OW  985   2.918   2.952   2.141 -0.1519 -0.4181 -0.5052
  329SOL    HW1  986   3.013   2.917   2.156 -1.7056  0.2437  0.6858
  329SOL    HW2  987   2.907   3.053   2.162 -0.1289  0.9653 -2.1257
  330SOL     OW  988   0.587   0.198   1.913  0.1765 -0.1980 -0.1342
  330SOL    HW1  989   0.644   0.143   1.848 -1.0660 -0.2254  3.5243
  330SOL    HW2  990   0.564   0.146   1.998  0.9386 -1.1907 -2.7881
  331SOL     OW  991   3.014   1.944   1.084  0.0590  0.0113 -0.1586
  331SOL    HW1  992   2.990   1.902   0.991 -0.2077 -1.5378  0.4328
  331SOL    HW2  993   2.944   1.924   1.156  1.1971 -1.3826 -2.6813
  332SOL     OW  994   0.393   1.196   0.071 -0.6790 -0.3750  0.0607
  332SOL    HW1  995   0.324   1.121   0.056 -0.1970  1.0800 -3.0591
  332SOL    HW2  996   0.383   1.229   0.171 -0.0386  0.5676  0.7068
  333SOL     OW  997   2.919   0.984   0.296 -0.0403  0.1295  0.2879
  333SOL    HW1  998   2.966   1.060   0.357  2.3179  0.2921 -0.2406
  333SOL    HW2  999   2.991   0.913   0.264  1.5182 -1.0237 -1.3346
  334SOL     OW 1000   1.690   1.270   1.803  0.0696  0.3485  0.1725
  334SOL    HW1 1001   1.738   1.279   1.713 -1.1544 -0.3902 -0.1733
  334SOL    HW2 1002   1.752   1.267   1.880 -0.1830  0.5313 -0.6909
  335SOL     OW 1003   1.982   2.731   2.575  0.4139  0.3962  0.1692
  335SOL    HW1 1004   1.949   2.772   2.668 -1.1982 -2.2226  0.1987
  335SOL    HW2 1005   2.083   2.753   2.554 -0.5181  0.9430 -0.3117
  336SOL     OW 1006   0.253   0.045   2.720  0.4339 -0.4403  0.1699
  336SOL    HW1 1007   0.322   0.026   2.794  1.2002 -2.3153 -2.9683
  336SOL    HW2 1008   0.155   0.021   2.741 -1.7435  0.4074 -0.7851
  337SOL     OW 1009   0.979   2.920   2.918  0.2608  0.3451  0.9112
  337SOL    HW1 1010   0.944   2.879   3.005 -0.9538 -0.6652  1.4393
  337SOL    HW2 1011   1.081   2.959   2.928  2.5699  2.7791  1.3419
  338SOL     OW 1012   0.073   0.988   0.695 -0.2852 -0.0870  0.2855
  338SOL    HW1 1013  -0.025   0.963   0.715  0.6238  1.0089 -0.2238
  338SOL    HW2 1014   0.090   1.089   0.705 -1.2022  0.8107 -1.5787
  339SOL     OW 1015   1.709   1.335   2.135  0.3918  0.3987  0.3726
  339SOL    HW1 1016   1.621   1.381   2.102  1.4158  0.1562  3.0187
  339SOL    HW2 1017   1.747   1.398   2.209 -1.4761  1.1016 -2.8764
  340SOL     OW 1018   2.296   0.751   1.164 -0.1542  0.1586  0.1079
  340SOL    HW1 1019   2.196   0.751   1.137  0.5527  2.0333  1.7722
  340SOL    HW2 1020   2.345   0.656   1.153  1.1332 -1.6036 -2.7496
  341SOL     OW 1021   1.944   2.113   0.316  0.2820  0.2020  0.2292
  341SOL    HW1 1022   1.961   2.133   0.217 -1.7554  1.2298  2.1687
  341SOL    HW2 1023   2.032   2.102   0.374 -0.4260 -1.8799 -1.8506
  342SOL     OW 1024   2.152   2.136   2.786 -0.1613 -0.3096 -0.1135
  342SOL    HW1 1025   2.192   2.040   2.800 -0.7878  0.1597  0.2332
  342SOL    HW2 1026   2.054   2.133   2.748 -0.6959  1.2468 -1.8328
  343SOL     OW 1027   0.398   0.798   2.782  0.1379 -0.2744 -0.0773
  343SOL    HW1 1028   0.419   0.846   2.691  1.1300 -0.0597 -2.6718
  343SOL    HW2 1029   0.479   0.795   2.848 -2.4543 -1.1658  0.5939
  344SOL     OW 1030   1.921   1.497   0.432 -0.2446  0.0341 -0.3690
  344SOL    HW1 1031   1.937   1.418   0.368 -0.8431  0.6129 -1.0455
  344SOL    HW2 1032   1.818   1.506   0.445  0.4951  0.1543 -1.3368
  345SOL     OW 1033   1.373   2.256   2.860  0.1832  0.0880  0.0349
  345SOL    HW1 1034   1.296   2.229   2.795  1.0772 -0.9711 -1.6635
  345SOL    HW2 1035   1.460   2.205   2.845 -2.6852 -2.2970 -0.4119
  346SOL     OW 1036   2.336   0.910   1.389 -0.0692  0.4297  0.1888
  346SOL    HW1 1037   2.275   0.983   1.426 -1.1670  0.9020  1.6247
  346SOL    HW2 1038   2.304   0.879   1.297  1.6123  1.3182 -0.2664
  347SOL     OW 1039   0.741   2.736   1.635  0.1109 -0.0990  0.2706
  347SOL    HW1 1040   0.663   2.731   1.700  1.1372 -1.8676  0.5425
  347SOL    HW2 1041   0.754   2.831   1.593 -0.2494  0.2370 -0.5707
  348SOL     OW 1042   0.164   0.759   2.925  0.4094  0.4177  0.2430
  348SOL    HW1 1043   0.077   0.726   2.877  1.2881  0.9360 -1.6700
  348SOL    HW2 1044   0.244   0.789   2.858  1.7894  3.1613 -1.6296
  349SOL     OW 1045   1.862   0.421   2.770 -0.5611 -0.2619  0.2485
  349SOL    HW1 1046   1.861   0.495   2.697  1.7477  0.7589 -1.1503
  349SOL    HW2 1047   1.853   0.454   2.868  3.6551  1.1354 -1.4474
  350SOL     OW 1048   1.648   0.405   0.385  0.2381 -0.0387 -0.2589
  350SOL    HW1 1049   1.721   0.383   0.453 -0.9797  1.2055 -1.7560
  350SOL    HW2 1050   1.668   0.492   0.327 -1.8028 -1.2345 -0.8885
  351SOL     OW 1051   0.966   0.846   2.090 -0.1037  0.6132 -0.5126
  351SOL    HW1 1052   0.986   0.941   2.118 -0.9213 -1.9997 -0.1544
  351SOL    HW2 1053   1.013   0.811   2.003  2.1653  1.5911 -1.3337
  352SOL     OW 1054   2.065   1.349   0.606  0.3067  0.7772 -0.8974
  352SOL    HW1 1055   2.032   1.412   0.527 -1.5296 -1.8970 -1.9973
  352SOL    HW2 1056   1.995   1.312   0.677  0.2727  0.0733  1.3261
  353SOL     OW 1057   2.188   2.800   1.085 -0.4206  0.1692 -0.2945
  353SOL    HW1 1058   2.241   2.738   1.150 -0.0485  2.0713 -0.9047
  353SOL    HW2 1059   2.089   2.776   1.064  1.8261  1.2222 -1.4836
  354SOL     OW 1060   0.280   1.400   2.840 -0.1595  0.4645  0.1291
  354SOL    HW1 1061   0.263   1.488   2.781  0.8911  1.0621  0.6315
  354SOL    HW2 1062   0.366   1.413   2.898  1.0601 -0.3216 -1.3406
  355SOL     OW 1063   0.733   1.598   0.596  0.4473 -0.1827  0.0235
  355SOL    HW1 1064   0.710   1.565   0.692 -0.9559  0.8538 -1.0946
  355SOL    HW2 1065   0.709   1.534   0.516 -0.0217  0.0607 -1.1411
  356SOL     OW 1066   0.848   0.326   2.049  0.3498  0.2848  0.1029
  356SOL    HW1 1067   0.937   0.283   2.038 -2.3297  1.2982  0.7092
  356SOL    HW2 1068   0.780   0.296   1.983  0.2902 -1.9188  1.1864
  357SOL     OW 1069   0.981   1.331   0.371  0.6349  0.2635  0.2853
  357SOL    HW1 1070   1.086   1.316   0.366 -0.1047 -2.3724  0.6325
  357SOL    HW2 1071   0.933   1.252   0.420  2.2692 -0.8524 -0.9074
  358SOL     OW 1072   1.628   1.541   0.491  0.0770  0.1565 -0.0051
  358SOL    HW1 1073   1.618   1.496   0.590 -0.2273 -2.2116  1.0311
  358SOL    HW2 1074   1.572   1.487   0.419  1.1554  0.3911 -1.3111
  359SOL     OW 1075   1.606   2.626   0.239  0.6200  0.1385  0.1353
  359SOL    HW1 1076   1.578   2.531   0.211  0.2173  0.4239  0.8855
  359SOL    HW2 1077   1.558   2.652   0.332 -1.2118 -0.1460 -0.7311
  360SOL     OW 1078   0.760   0.550   0.544  0.3171 -0.0896  0.2230
  360SOL    HW1 1079   0.670   0.554   0.495 -1.0845  0.7184 -2.2190
  360SOL    HW2 1080   0.794   0.454   0.577  1.4414 -3.7515 -1.9961
  361SOL     OW 1081   1.295   1.284   0.661  0.1838 -0.5951 -0.1687
  361SOL    HW1 1082   1.355   1.325   0.733  3.0419  1.9893 -2.0311
  361SOL    HW2 1083   1.200   1.328   0.665 -1.1228 -0.7846  0.6597
  362SOL     OW 1084   1.380   1.757   0.761  0.1895 -0.2271 -0.3733
  362SOL    HW1 1085   1.441   1.710   0.832  2.3261 -0.3246 -1.1523
  362SOL    HW2 1086   1.429   1.784   0.675 -1.6261 -0.5359 -2.0432
  363SOL     OW 1087   1.252   1.336   2.080 -0.1310  0.0217 -0.0322
  363SOL    HW1 1088   1.343   1.378   2.093 -1.6969 -0.7523 -0.4883
  363SOL    HW2 1089   1.186   1.407   2.052 -1.0075 -1.4137  0.2838
  364SOL     OW 1090   0.525   2.364   2.008 -0.2911 -0.1650  0.7128
  364SOL    HW1 1091   0.424   2.381   2.006  1.4749  1.7654  1.8505
  364SOL    HW2 1092   0.574   2.394   1.922 -1.6096 -0.0387 -0.8204
  365SOL     OW 1093   1.028   1.967   1.330  0.3761 -0.2103  0.0816
  365SOL    HW1 1094   0.928   1.954   1.361 -0.4222  2.2437  2.0524
  365SOL    HW2 1095   1.039   1.956   1.227 -1.6449 -0.7528  0.6754
  366SOL     OW 1096   2.844   1.945   0.366 -0.1802  0.0072 -0.0897
  366SOL    HW1 1097   2.762   1.901   0.410  2.7101 -0.4458  1.9623
  366SOL    HW2 1098   2.900   1.877   0.314 -0.0149 -0.7974 -3.2055
  367SOL     OW 1099   0.958   1.182   0.013  0.7357  0.4064  0.2474
  367SOL    HW1 1100   0.946   1.116   0.096 -1.7377  1.5540  2.3116
  367SOL    HW2 1101   1.052   1.228   0.017  2.9019 -0.1828 -0.9969
  368SOL     OW 1102   1.417   0.551   0.629 -0.0906 -0.5496  0.3676
  368SOL    HW1 1103   1.359   0.593   0.553 -3.8006 -0.0382 -0.7955
  368SOL    HW2 1104   1.519   0.557   0.598  2.3486  1.7097 -3.1276
  369SOL     OW 1105   0.368   1.740   0.159 -0.0224  0.7727  0.4461
  369SOL    HW1 1106   0.415   1.807   0.225  0.5763 -0.0297  0.3380
  369SOL    HW2 1107   0.314   1.663   0.198  0.0658  1.9900 -1.8875
  370SOL     OW 1108   0.431   2.056   1.060  0.3828  0.2001 -0.4032
  370SOL    HW1 1109   0.451   2.155   1.057 -0.5103  0.3052  0.9234
  370SOL    HW2 1110   0.333   2.047   1.022  1.8827 -0.9873 -0.0941
  371SOL     OW 1111   2.893   2.207   2.610 -0.8090 -0.3438 -0.2028
  371SOL    HW1 1112   2.831   2.137   2.652 -2.0607 -1.8653 -1.6936
  371SOL    HW2 1113   2.922   2.275   2.684  0.4705  0.9482  1.3270
  372SOL     OW 1114   1.034   2.036   1.015  0.7517  0.3572 -0.6342
  372SOL    HW1 1115   0.940   2.055   0.979  0.8690  0.1276 -0.6357
  372SOL    HW2 1116   1.105   2.093   0.969 -0.5775 -0.3992  0.5703
  373SOL     OW 1117   1.959   1.927   0.903 -0.5117 -0.4795  0.8610
  373SOL    HW1 1118   2.048   1.959   0.949  2.7637 -1.1330 -2.1154
  373SOL    HW2 1119   1.871   1.983   0.917 -2.5731 -0.1849 -0.9451
  374SOL     OW 1120   1.865   0.384   0.553  0.0345 -0.0753 -0.1684
  374SOL    HW1 1121   1.849   0.367   0.649 -0.1995  2.6564 -0.1816
  374SOL    HW2 1122   1.966   0.403   0.538  0.2024 -1.1577  1.5409
  375SOL     OW 1123   2.405   2.154   1.083 -0.3818  0.4139  0.1672
  375SOL    HW1 1124   2.438   2.139   0.987 -0.6095 -1.5160  1.3831
  375SOL    HW2 1125   2.474   2.122   1.154 -1.5814  0.1246  0.5352
  376SOL     OW 1126   3.023   0.522   1.485  0.1019 -0.2195  0.3557
  376SOL    HW1 1127   2.987   0.590   1.557 -0.6940 -2.6283 -1.2944
  376SOL    HW2 1128   2.951   0.454   1.457 -1.6612  1.0087 -1.1143
  377SOL     OW 1129   2.170   2.906   0.308  0.1242  0.2210  0.3255
  377SOL    HW1 1130   2.129   2.993   0.343  1.9112  0.1041 -0.9146
  377SOL    HW2 1131   2.272   2.891   0.336  2.1629  1.0171 -2.6899
  378SOL     OW 1132   1.739   1.845   2.550 -0.0480  0.5279 -0.1560
  378SOL    HW1 1133   1.812   1.904   2.512 -1.3530  1.8269 -4.5299
  378SOL    HW2 1134   1.729   1.753   2.501  1.8215  0.3664 -1.8558
  379SOL     OW 1135   0.684   0.152   2.845  0.0923 -0.0848  0.0602
  379SOL    HW1 1136   0.733   0.076   2.798 -0.2247  0.9346 -0.1278
  379SOL    HW2 1137   0.674   0.240   2.784 -2.2205 -1.2383 -2.8785
  380SOL     OW 1138   1.533   1.132   0.600  0.7840 -0.0543 -0.3999
  380SOL    HW1 1139   1.436   1.175   0.606  0.8045 -1.2101 -1.6815
  380SOL    HW2 1140   1.542   1.039   0.646  0.3528 -0.6902  0.0689
  381SOL     OW 1141   1.340   1.193   1.571  0.3370  0.4307  0.1779
  381SOL    HW1 1142   1.384   1.120   1.512 -0.7654 -1.8048 -0.8914
  381SOL    HW2 1143   1.403   1.237   1.639 -2.0927  0.0030  1.0482
  382SOL     OW 1144   1.808   0.897   0.187  0.4755 -0.1381  0.0149
  382SOL    HW1 1145   1.827   0.885   0.086  2.1469 -1.6943  1.9940
  382SOL    HW2 1146   1.891   0.866   0.242 -0.4973  1.8931 -0.4453
  383SOL     OW 1147   2.583   1.008   1.470 -0.0001  0.0349 -0.2093
  383SOL    HW1 1148   2.486   0.971   1.440 -0.0418 -0.1456  0.2597
  383SOL    HW2 1149   2.657   0.986   1.399 -2.3188 -1.1756  2.2958
  384SOL     OW 1150   0.954   2.226   0.147 -0.3305 -0.1439  0.0899
  384SOL    HW1 1151   0.949   2.305   0.210 -1.0189  0.8462 -1.4280
  384SOL    HW2 1152   0.894   2.149   0.179 -0.8247  1.8900  0.3704
  385SOL     OW 1153   2.968   2.012   1.656 -0.0820 -0.2614  0.1384
  385SOL    HW1 1154   3.032   2.083   1.623 -0.7393  1.9211  2.4995
  385SOL    HW2 1155   3.015   1.919   1.646  0.6035 -3.0861  2.1284
  386SOL     OW 1156   0.520   1.032   0.460  0.0017 -0.3327  0.3662
  386SOL    HW1 1157   0.494   0.934   0.486 -1.3566 -2.9522  2.3280
  386SOL    HW2 1158   0.440   1.091   0.424  0.0797 -1.2855 -0.0931
  387SOL     OW 1159   0.946   0.395   1.681 -0.4129  0.9789  0.2669
  387SOL    HW1 1160   0.970   0.494   1.687 -1.6996 -0.7150 -1.5150
  387SOL    HW2 1161   0.966   0.353   1.589  1.8497  1.2080 -1.0168
  388SOL     OW 1162   1.210   2.712   1.751 -0.4278  0.2326 -0.2619
  388SOL    HW1 1163   1.238   2.704   1.651  0.3859 -0.6774 -1.4578
  388SOL    HW2 1164   1.252   2.637   1.810  1.8538 -0.6480  1.2355
  389SOL     OW 1165   0.165   3.034   1.200  0.1318 -0.0212  0.4806
  389SOL    HW1 1166   0.084   3.093   1.189  1.7433 -3.7663  2.4095
  389SOL    HW2 1167   0.145   2.932   1.207  1.3832  0.3189 -0.2567
  390SOL     OW 1168   1.036   0.984   1.326 -0.1174 -0.4080  0.0024
  390SOL    HW1 1169   1.122   0.968   1.378 -1.0624  1.8247 -2.2454
  390SOL    HW2 1170   0.980   1.064   1.366  2.1716  1.7894 -0.4021
  391SOL     OW 1171   2.166   1.118   1.078  0.6275  0.4443  0.3376
  391SOL    HW1 1172   2.111   1.031   1.088  2.0279  0.8346 -1.0535
  391SOL    HW2 1173   2.236   1.112   0.995  2.3401 -0.8570 -0.3329
  392SOL     OW 1174   0.848   2.688   3.093  0.2042 -0.3805 -0.2737
  392SOL    HW1 1175   0.892   2.594   3.059 -0.4787 -0.3584 -1.3225
  392SOL    HW2 1176   0.890   2.718   3.182  0.3128 -2.0299 -0.8262
  393SOL     OW 1177   0.380   0.567   1.974  0.7305  0.4493 -0.4364
  393SOL    HW1 1178   0.321   0.486   1.975  1.7964  2.7342  0.2948
  393SOL    HW2 1179   0.466   0.540   1.917  0.7270  2.0636 -0.1178
  394SOL     OW 1180   2.964   1.870   2.773 -0.4406  0.0303  0.7574
  394SOL    HW1 1181   3.039   1.888   2.837 -2.1771  3.3394  0.9603
  394SOL    HW2 1182   2.982   1.913   2.679 -3.1246  3.2718 -1.2872
  395SOL     OW 1183   1.619   1.986   0.667 -0.3870 -0.0527 -0.0754
  395SOL    HW1 1184   1.648   1.900   0.620 -2.1306 -0.4724  0.9251
  395SOL    HW2 1185   1.670   2.002   0.755  0.6281 -0.6484 -0.5304
  396SOL     OW 1186   2.822   1.866   1.280 -0.5658 -0.3606 -0.0145
  396SOL    HW1 1187   2.822   1.768   1.302  2.0146 -0.2356  0.7593
  396SOL    HW2 1188   2.776   1.929   1.348  0.3411  0.6443  1.0851
  397SOL     OW 1189   1.032   2.231   0.495 -0.0925  0.3684 -0.0929
  397SOL    HW1 1190   0.941   2.191   0.512  0.4472  0.8327 -0.9559
  397SOL    HW2 1191   1.060   2.303   0.565  0.3759  0.3716  1.7427
  398SOL     OW 1192   2.146   3.099   1.012  0.3499 -0.0784  0.1133
  398SOL    HW1 1193   2.152   3.018   1.070  0.6817  0.4902 -0.2868
  398SOL    HW2 1194   2.094   3.181   1.056 -0.1559  0.2655 -0.2529
  399SOL     OW 1195   3.045   2.471   2.507 -0.1453  0.0153  0.0045
  399SOL    HW1 1196   2.946   2.487   2.501  2.0632 -1.0368 -0.8184
  399SOL    HW2 1197   3.071   2.403   2.582  0.4762  0.9633  3.5443
  400SOL     OW 1198   0.775   1.621   1.329  0.2049  0.2192  0.2342
  400SOL    HW1 1199   0.745   1.640   1.424  3.1232 -1.2295 -0.9739
  400SOL    HW2 1200   0.740   1.690   1.256 -2.9436  0.3758 -0.6797
  401SOL     OW 1201   1.838   0.080   1.307  0.5358  0.0860 -0.1235
  401SOL    HW1 1202   1.891   0.087   1.395  1.9696 -0.8476 -3.0259
  401SOL    HW2 1203   1.737   0.081   1.320  0.4063 -1.1051  2.5396
  402SOL     OW 1204   1.317   0.163   3.072 -0.1954 -0.0466  0.3390
  402SOL    HW1 1205   1.413   0.133   3.033 -1.8542 -2.6961  0.0731
  402SOL    HW2 1206   1.292   0.263   3.067  0.1831 -1.2231 -1.1955
  403SOL     OW 1207   2.280   1.746   0.933 -0.3012  0.0852  0.9715
  403SOL    HW1 1208   2.380   1.722   0.940 -0.1703 -0.9444 -1.2052
  403SOL    HW2 1209   2.261   1.840   0.982  2.4039  0.3667  2.2646
  404SOL     OW 1210   0.173   2.513   2.786 -0.0125 -0.0383  0.1679
  404SOL    HW1 1211   0.255   2.453   2.771  0.6035  1.5898 -0.5704
  404SOL    HW2 1212   0.191   2.604   2.826 -2.9831 -1.9970 -0.9734
  405SOL     OW 1213   0.135   2.407   0.728 -0.0554  0.3841  0.7012
  405SOL    HW1 1214   0.102   2.377   0.635 -0.8818  2.3627 -3.1369
  405SOL    HW2 1215   0.205   2.484   0.723  0.8893 -1.1056  2.5675
  406SOL     OW 1216   0.080   1.528   3.046  0.3275 -0.0704  0.7487
  406SOL    HW1 1217   0.126   1.470   2.971  4.2248 -1.9793 -1.7549
  406SOL    HW2 1218   0.130   1.517   3.135  0.4642  1.3688 -1.5785
  407SOL     OW 1219   1.524   0.967   0.990 -0.6874  0.1268  1.2687
  407SOL    HW1 1220   1.490   0.949   0.891 -2.2568  1.8696 -2.3276
  407SOL    HW2 1221   1.469   1.036   1.044  1.3952  0.7637 -0.9635
  408SOL     OW 1222   1.612   2.389   0.960 -0.0309  0.6686  0.0374
  408SOL    HW1 1223   1.659   2.382   0.869 -0.9653 -0.7541  0.6179
  408SOL    HW2 1224   1.574   2.483   0.977 -0.6738  3.1545 -1.0129
  409SOL     OW 1225   0.612   0.861   0.733 -0.6070 -0.5029 -0.3463
  409SOL    HW1 1226   0.549   0.850   0.651  0.0309  0.6299  2.9394
  409SOL    HW2 1227   0.628   0.768   0.775  0.1495  1.0370  1.9160
  410SOL     OW 1228   1.319   2.069   1.416  0.3879  0.3734  0.0314
  410SOL    HW1 1229   1.396   2.013   1.452 -4.0596  3.0387  0.6588
  410SOL    HW2 1230   1.228   2.027   1.422 -0.9833  0.8216 -1.7371
  411SOL     OW 1231   2.584   1.894   3.041  0.2214  0.2422 -0.1870
  411SOL    HW1 1232   2.529   1.953   2.978  2.2131 -0.4712  0.0463
  411SOL    HW2 1233   2.661   1.840   2.995  0.1644 -0.3760  1.6987
  412SOL     OW 1234   1.455   2.469   2.169  0.1954 -0.6608 -0.1246
  412SOL    HW1 1235   1.530   2.530   2.201  0.2403 -0.4125  0.6152
  412SOL    HW2 1236   1.377   2.453   2.238 -1.9888 -1.4432  0.3650
  413SOL     OW 1237   3.044   0.248   2.955 -0.3486 -1.0745 -0.4671
  413SOL    HW1 1238   3.023   0.163   3.008 -1.8775 -0.3498  0.2350
  413SOL    HW2 1239   3.145   0.269   2.963 -1.4239 -0.2085 -0.7105
  414SOL     OW 1240   1.839   1.505   1.199  0.1731 -0.8578 -0.3903
  414SOL    HW1 1241   1.774   1.576   1.157 -2.0831  1.6217 -0.2790
  414SOL    HW2 1242   1.795   1.412   1.200 -1.5409  1.9677 -0.1544
  415SOL     OW 1243   0.360   2.217   0.690 -0.1575  0.8125 -0.0576
  415SOL    HW1 1244   0.267   2.266   0.674  1.0240  2.2535 -2.4348
  415SOL    HW2 1245   0.357   2.154   0.773  0.0239 -1.4119  0.6785
  416SOL     OW 1246   0.379   1.019   1.065 -0.0463  0.2850  0.3347
  416SOL    HW1 1247   0.353   0.965   0.975 -1.7734 -1.4067 -2.1903
  416SOL    HW2 1248   0.466   1.075   1.055  1.2466  2.1950 -0.2288
  417SOL     OW 1249   2.227   2.339   1.998  0.1413 -0.0181  0.8559
  417SOL    HW1 1250   2.311   2.280   2.002 -1.5360  0.3154 -2.0248
  417SOL    HW2 1251   2.144   2.276   1.986  0.4037 -0.1263 -0.9737
  418SOL     OW 1252   1.088   0.527   1.351 -0.3118  0.2676 -0.0102
  418SOL    HW1 1253   1.036   0.504   1.270  0.5159  3.0004  0.4498
  418SOL    HW2 1254   1.185   0.560   1.331 -0.3598 -0.6997 -0.7887
  419SOL     OW 1255   0.914   0.465   3.011  0.2955  0.6773 -0.0179
  419SOL    HW1 1256   0.875   0.445   2.915 -0.2703 -0.2735  1.3359
  419SOL    HW2 1257   0.975   0.550   3.017  0.2728 -1.9132 -0.1004
  420SOL     OW 1258   0.093   2.261   0.453  0.2045 -0.1527  0.5204
  420SOL    HW1 1259   0.132   2.221   0.364 -0.8148 -1.8660  1.7706
  420SOL    HW2 1260   0.003   2.215   0.477 -1.2074  1.4713 -0.0401
  421SOL     OW 1261   0.361   3.021   0.659 -0.3147 -0.0412 -0.3124
  421SOL    HW1 1262   0.344   2.941   0.723  1.4800 -0.4652  1.6428
  421SOL    HW2 1263   0.459   3.062   0.677  0.2901 -0.8401 -1.8117
  422SOL     OW 1264   1.061   2.486   1.026 -0.2449  0.1364  0.3210
  422SOL    HW1 1265   1.083   2.567   0.961  1.5736 -0.3130 -0.6947
  422SOL    HW2 1266   1.036   2.509   1.125 -0.7463  0.6533  1.5224
  423SOL     OW 1267   0.086   0.676   1.305  0.4648  0.2756 -0.0795
  423SOL    HW1 1268   0.020   0.624   1.356  2.8613  1.6666 -2.5958
  423SOL    HW2 1269   0.050   0.767   1.274 -0.9348  0.1440  1.1253
  424SOL     OW 1270   0.985   2.212   2.039  0.0285  0.2998 -0.3272
  424SOL    HW1 1271   0.993   2.311   2.013  2.7013  2.5181  2.0182
  424SOL    HW2 1272   0.971   2.197   2.138  1.2244 -0.0893 -1.5868
  425SOL     OW 1273   2.025   1.329   0.978  0.1207  0.1459  0.2607
  425SOL    HW1 1274   2.085   1.251   1.011  0.2206  1.6458 -0.9040
  425SOL    HW2 1275   2.071   1.414   0.941 -3.0729  2.1557 -1.6483
  426SOL     OW 1276   1.475   1.594   1.391 -0.0931 -0.3452 -0.0599
  426SOL    HW1 1277   1.483   1.650   1.300 -0.4389  0.9400 -0.3156
  426SOL    HW2 1278   1.398   1.617   1.452  0.2115 -0.0517  2.8659
  427SOL     OW 1279   1.901   2.362   2.046  0.1774  0.0315  0.5241
  427SOL    HW1 1280   1.966   2.309   2.110  0.1670  0.7079 -0.5729
  427SOL    HW2 1281   1.919   2.462   2.041  0.8087 -1.2579 -0.8147
  428SOL     OW 1282   0.852   3.071   0.177 -0.6703  1.3313 -0.4836
  428SOL    HW1 1283   0.843   3.138   0.097 -2.6297  1.3906 -1.2413
  428SOL    HW2 1284   0.943   3.014   0.175  3.2065  1.3185  0.7383
  429SOL     OW 1285   1.311   0.057   0.255 -0.0695  0.1078 -0.0887
  429SOL    HW1 1286   1.411   0.087   0.273  0.8062 -0.5756 -0.1622
  429SOL    HW2 1287   1.296   0.055   0.152 -0.3959 -0.5446 -0.4985
  430SOL     OW 1288   2.764   1.432   0.308 -0.0344 -0.1520  0.0554
  430SOL    HW1 1289   2.807   1.478   0.220 -3.1805 -1.0499 -1.8390
  430SOL    HW2 1290   2.783   1.481   0.395  0.4335 -0.4707 -0.9086
  431SOL     OW 1291   2.100   1.557   0.882 -0.0144 -0.3621  0.1964
  431SOL    HW1 1292   2.190   1.611   0.894 -0.1327 -1.5284 -2.7112
  431SOL    HW2 1293   2.047   1.600   0.806  1.3164  2.0799  0.6073
  432SOL     OW 1294   2.839   2.240   1.252  0.4554 -0.0379  0.1186
  432SOL    HW1 1295   2.773   2.169   1.287 -2.1197  3.2910 -1.7483
  432SOL    HW2 1296   2.912   2.276   1.313  1.9387 -2.7720 -1.0211
  433SOL     OW 1297   1.859   0.366   0.848 -0.3209 -0.1473  0.4122
  433SOL    HW1 1298   1.767   0.359   0.903 -2.3476 -0.6775 -1.2952
  433SOL    HW2 1299   1.916   0.284   0.870 -3.8667  2.1013 -1.4558
  434SOL     OW 1300   1.511   0.240   0.760  0.0389 -0.1313  0.0243
  434SOL    HW1 1301   1.456   0.323   0.717 -0.3249  0.3056 -1.2835
  434SOL    HW2 1302   1.589   0.266   0.823 -0.9265  0.0192 -0.3407
  435SOL     OW 1303   1.475   1.483   2.125 -0.4091  0.0269 -0.7802
  435SOL    HW1 1304   1.454   1.542   2.203  1.3415  1.6347 -1.8896
  435SOL    HW2 1305   1.514   1.530   2.042  1.6793 -2.9364  0.6826
  436SOL     OW 1306   1.696   2.743   2.222  0.2547 -0.4999  0.2741
  436SOL    HW1 1307   1.669   2.836   2.265  1.1065  1.1073 -0.3725
  436SOL    HW2 1308   1.701   2.662   2.288  0.6069  0.6288 -0.4057
  437SOL     OW 1309   1.092   2.929   0.946  0.5015  0.3999  0.6981
  437SOL    HW1 1310   1.034   3.014   0.924  1.9447  0.1331  0.3746
  437SOL    HW2 1311   1.105   2.904   1.048  0.3894  0.1845  1.0648
  438SOL     OW 1312   0.995   2.597   1.304  0.1301  0.2679  0.2324
  438SOL    HW1 1313   1.077   2.614   1.361 -0.4607  1.2414 -2.0751
  438SOL    HW2 1314   0.968   2.496   1.308 -0.2448  0.2442  0.5576
  439SOL     OW 1315   0.683   1.759   1.079 -0.2055  0.4333 -0.1265
  439SOL    HW1 1316   0.692   1.831   1.004  2.6069 -0.4775 -0.0249
  439SOL    HW2 1317   0.585   1.748   1.114 -0.0571  0.5871 -0.8779
  440SOL     OW 1318   1.007   2.506   1.980 -0.1932 -0.0255 -0.4059
  440SOL    HW1 1319   0.985   2.554   1.890  1.8308  2.1512 -1.4757
  440SOL    HW2 1320   1.103   2.477   1.988 -1.6915  0.3342 -1.9041
  441SOL     OW 1321   0.500   2.727   1.430 -0.1509  0.1632  0.2054
  441SOL    HW1 1322   0.564   2.644   1.441  3.3109 -1.5184  1.7748
  441SOL    HW2 1323   0.405   2.711   1.456  2.2951 -1.8918 -0.9281
  442SOL     OW 1324   2.299   0.689   2.487 -0.8111  0.2222  0.7015
  442SOL    HW1 1325   2.304   0.599   2.541  1.1763  0.9898 -0.3940
  442SOL    HW2 1326   2.207   0.694   2.442  0.0701  0.0975  1.8133
  443SOL     OW 1327   1.262   2.698   2.138 -0.3250  0.1230  0.3098
  443SOL    HW1 1328   1.245   2.758   2.215 -2.6361  0.2727 -1.6144
  443SOL    HW2 1329   1.249   2.594   2.152  2.7173 -1.6630 -2.7540
  444SOL     OW 1330   1.079   1.265   1.596 -0.2670 -0.1731 -0.1284
  444SOL    HW1 1331   1.174   1.230   1.578 -0.9482 -0.3879  2.0093
  444SOL    HW2 1332   1.081   1.362   1.619 -2.4558 -0.9014 -3.0278
  445SOL     OW 1333   0.033   2.362   1.850 -0.0888 -0.2150  0.2326
  445SOL    HW1 1334   0.036   2.466   1.822 -0.6443  0.1622  0.3769
  445SOL    HW2 1335  -0.057   2.336   1.899 -0.6311 -0.2378  1.2085
  446SOL     OW 1336   0.252   1.903   2.303 -0.3616  0.2837 -0.1242
  446SOL    HW1 1337   0.231   1.997   2.343 -1.3434  0.5852  2.1209
  446SOL    HW2 1338   0.186   1.890   2.224 -0.2964 -3.7636 -0.1507
  447SOL     OW 1339   1.177   1.680   1.934 -0.1899 -0.1059  0.1226
  447SOL    HW1 1340   1.109   1.760   1.919 -0.6782  0.3305  1.6500
  447SOL    HW2 1341   1.272   1.695   1.897 -0.5100  1.3411  2.6589
  448SOL     OW 1342   0.156   1.536   2.028  0.5759 -0.2173  0.7128
  448SOL    HW1 1343   0.160   1.622   1.965  2.1858 -0.0380  1.1570
  448SOL    HW2 1344   0.118   1.551   2.124  0.7997  3.2913  2.4212
  449SOL     OW 1345   1.960   2.951   0.834  0.6818 -0.5463  0.0733
  449SOL    HW1 1346   2.019   2.948   0.914  0.2864 -0.1571 -1.0127
  449SOL    HW2 1347   1.957   2.865   0.780 -1.7087  2.2124 -1.5081
  450SOL     OW 1348   2.341   1.368   0.739  0.1271 -0.2002 -0.1730
  450SOL    HW1 1349   2.262   1.305   0.752  2.4151 -0.3289  1.5788
  450SOL    HW2 1350   2.327   1.432   0.657 -1.8398 -0.7893 -1.3369
  451SOL     OW 1351   1.317   3.048   1.445  0.0052  0.2026 -0.4930
  451SOL    HW1 1352   1.258   3.132   1.461  1.1979 -1.0393  0.0248
  451SOL    HW2 1353   1.368   3.013   1.533  0.5554  0.1464 -0.9319
  452SOL     OW 1354   2.674   2.286   2.162  0.4598 -0.1690  0.3110
  452SOL    HW1 1355   2.602   2.353   2.193  2.0284  1.6482  1.1393
  452SOL    HW2 1356   2.717   2.236   2.244 -1.5846 -2.7763  1.1636
  453SOL     OW 1357   2.466   2.669   3.088 -0.3510  0.1017 -0.5061
  453SOL    HW1 1358   2.384   2.712   3.134 -4.1440  0.3072 -0.7595
  453SOL    HW2 1359   2.443   2.592   3.023  0.3080 -0.6164 -2.4439
  454SOL     OW 1360   1.032   1.118   2.072  0.0694 -0.7899 -0.1817
  454SOL    HW1 1361   0.985   1.104   1.978  2.7929  2.1665 -1.3164
  454SOL    HW2 1362   1.106   1.191   2.065  0.7116 -2.5729 -0.6370
  455SOL     OW 1363   0.633   2.606   2.882 -0.2503 -0.4231  0.4080
  455SOL    HW1 1364   0.689   2.643   2.961 -0.6476 -1.9696 -1.7071
  455SOL    HW2 1365   0.591   2.514   2.907 -1.1198 -0.5416 -0.6437
  456SOL     OW 1366   0.491   1.920   0.329 -0.0405  0.3278  0.2561
  456SOL    HW1 1367   0.577   1.874   0.370  1.4878  0.7220 -1.7447
  456SOL    HW2 1368   0.511   2.020   0.296 -0.1574 -1.3244  0.8630
  457SOL     OW 1369   0.329   2.609   0.689  0.5212  0.1075  0.3299
  457SOL    HW1 1370   0.314   2.679   0.605  2.3859 -1.5226 -1.3800
  457SOL    HW2 1371   0.422   2.619   0.732 -0.2655  0.0895  1.8181
  458SOL     OW 1372   2.963   3.096   1.209 -0.4877  0.0407  0.0771
  458SOL    HW1 1373   2.991   3.196   1.210 -0.2046  1.3943  0.4475
  458SOL    HW2 1374   2.961   3.058   1.108  0.8518  3.2910 -2.9645
  459SOL     OW 1375   2.201   2.557   0.805 -0.3924 -0.6154  0.2166
  459SOL    HW1 1376   2.235   2.645   0.840  0.6924 -0.6150  1.6435
  459SOL    HW2 1377   2.276   2.493   0.777 -0.2681  0.2840  0.6570
  460SOL     OW 1378   1.136   1.971   2.891 -0.7674  0.3089  0.2666
  460SOL    HW1 1379   1.190   2.003   2.808 -0.6513  0.9958 -2.1474
  460SOL    HW2 1380   1.193   1.908   2.945  0.0498 -1.0777 -1.6868
  461SOL     OW 1381   0.516   2.096   2.664 -0.4210  0.4414  0.0050
  461SOL    HW1 1382   0.439   2.033   2.633  0.5974 -0.4947  2.1704
  461SOL    HW2 1383   0.558   2.069   2.756  0.1491 -1.3041  0.6767
  462SOL     OW 1384   0.911   1.078   1.817  0.3222  0.3556  0.1675
  462SOL    HW1 1385   0.991   1.035   1.771 -2.9852 -0.0922  0.7426
  462SOL    HW2 1386   0.882   1.174   1.785 -1.3353  2.9715 -0.0007
  463SOL     OW 1387   0.465   0.786   0.499  0.4470  0.1595  0.2136
  463SOL    HW1 1388   0.498   0.694   0.459 -2.2503  1.5580 -2.2574
  463SOL    HW2 1389   0.358   0.780   0.502 -3.0975  1.3508  1.0656
  464SOL     OW 1390   0.579   2.264   2.251 -0.2730 -0.2475  0.3628
  464SOL    HW1 1391   0.561   2.343   2.311 -1.2066 -1.3188  0.5357
  464SOL    HW2 1392   0.579   2.295   2.150  0.4945  1.0914  1.7697
  465SOL     OW 1393   0.316   0.922   0.810 -0.0433  0.2433  0.1125
  465SOL    HW1 1394   0.225   0.961   0.777 -0.9452  2.3882  1.4788
  465SOL    HW2 1395   0.317   0.817   0.821 -0.8319  3.0222 -1.8030
  466SOL     OW 1396   1.358   1.140   1.088  0.9085 -0.3495  0.4615
  466SOL    HW1 1397   1.416   1.226   1.091  0.8583 -0.0878 -1.2605
  466SOL    HW2 1398   1.257   1.156   1.054 -1.7730  2.9279  2.0784
  467SOL     OW 1399   0.489   0.303   2.354  0.0516 -0.6058  0.2642
  467SOL    HW1 1400   0.470   0.398   2.388 -0.5271  1.8511 -2.6365
  467SOL    HW2 1401   0.470   0.227   2.422 -2.1391 -1.2593  0.2136
  468SOL     OW 1402   0.469   2.303   1.679  0.3447  0.3141  0.1317
  468SOL    HW1 1403   0.561   2.351   1.695 -1.8107  0.3670  0.2694
  468SOL    HW2 1404   0.429   2.323   1.584 -0.4117  0.5326  1.0832
  469SOL     OW 1405   1.520   1.347   1.226 -0.1303 -0.1818  0.7012
  469SOL    HW1 1406   1.616   1.339   1.186  0.9980 -1.3430 -0.7385
  469SOL    HW2 1407   1.518   1.398   1.312 -1.8113 -0.7865 -1.5317
  470SOL     OW 1408   3.023   1.666   0.797 -0.0227  0.2244 -0.2417
  470SOL    HW1 1409   3.109   1.708   0.762 -0.0081 -1.6677 -1.4760
  470SOL    HW2 1410   2.988   1.702   0.889  0.7464  0.1997  2.9198
  471SOL     OW 1411   2.647   1.323   2.155 -0.1444  0.1708  0.1585
  471SOL    HW1 1412   2.652   1.250   2.225 -0.2892  0.6223 -0.5627
  471SOL    HW2 1413   2.724   1.394   2.169  1.6858  0.1235  1.6771
  472SOL     OW 1414   1.141   2.508   3.064  0.0244  0.1072 -0.1624
  472SOL    HW1 1415   1.185   2.494   3.153 -0.3100 -0.7004 -2.0772
  472SOL    HW2 1416   1.102   2.420   3.030  0.2412 -0.2337  1.6518
  473SOL     OW 1417   1.096   1.502   0.998 -0.4108 -0.1627 -0.1823
  473SOL    HW1 1418   0.995   1.528   1.000 -3.0172  1.8175 -0.0373
  473SOL    HW2 1419   1.137   1.482   1.090 -2.1017  0.4975 -2.9852
  474SOL     OW 1420   0.705   1.253   0.596  0.1806 -0.6141  0.0338
  474SOL    HW1 1421   0.673   1.248   0.499 -0.6081 -3.0302  3.3772
  474SOL    HW2 1422   0.769   1.176   0.620 -0.9401  0.2393  1.1065
  475SOL     OW 1423   2.842   0.126   0.761 -0.2532  0.8525 -0.4153
  475SOL    HW1 1424   2.928   0.135   0.817 -1.5529  1.7665 -0.7020
  475SOL    HW2 1425   2.762   0.129   0.821  2.8207 -2.0538  0.3946
  476SOL     OW 1426   0.869   2.979   1.768 -0.6601 -0.8385  0.0651
  476SOL    HW1 1427   0.949   2.961   1.832 -1.4862  2.2534  0.9297
  476SOL    HW2 1428   0.896   2.970   1.667 -0.1192  0.9675  1.8803
  477SOL     OW 1429   1.440   0.343   2.494  0.4132 -0.3766  0.0553
  477SOL    HW1 1430   1.442   0.367   2.595 -1.3081  0.9488  0.8806
  477SOL    HW2 1431   1.517   0.287   2.467 -2.0847  1.7158 -1.0412
  478SOL     OW 1432   2.218   1.841   0.271  0.7194 -0.6529 -0.1165
  478SOL    HW1 1433   2.139   1.775   0.257 -1.9522 -0.0692 -0.0012
  478SOL    HW2 1434   2.305   1.811   0.228 -1.9275 -0.8151  2.6512
  479SOL     OW 1435   1.273   1.095   2.936  0.9904  0.2259 -0.0072
  479SOL    HW1 1436   1.341   1.128   2.869 -2.4055 -1.3916  1.5111
  479SOL    HW2 1437   1.183   1.051   2.901  2.4423  2.1565 -0.1005
  480SOL     OW 1438   2.513   2.309   0.377 -0.0804  0.3187  0.3192
  480SOL    HW1 1439   2.486   2.216   0.413  2.6662 -2.7021 -0.4896
  480SOL    HW2 1440   2.450   2.344   0.301  1.9867  1.5722 -1.7983
  481SOL     OW 1441   1.029   1.150   0.831 -0.3526  0.1728  0.6372
  481SOL    HW1 1442   1.047   1.249   0.803  0.0884 -0.6276 -1.1181
  481SOL    HW2 1443   1.031   1.132   0.933  1.2148 -0.7194  0.0717
  482SOL     OW 1444   1.595   0.291   2.041  0.4689  0.4025  0.1221
  482SOL    HW1 1445   1.616   0.387   2.012  0.3608 -2.1067  0.7213
  482SOL    HW2 1446   1.682   0.240   2.081  1.8720  0.3266  1.4452
  483SOL     OW 1447   0.154   2.324   1.234  0.3607  0.0282 -0.1184
  483SOL    HW1 1448   0.085   2.368   1.299  1.4071 -0.8130 -0.0622
  483SOL    HW2 1449   0.168   2.380   1.146 -0.0363 -0.0458  0.7489
  484SOL     OW 1450   1.749   1.063   1.396 -0.3168 -0.2826 -0.3089
  484SOL    HW1 1451   1.798   0.976   1.418 -0.6956  1.3279 -0.0841
  484SOL    HW2 1452   1.781   1.134   1.466 -2.4483 -1.6338  0.8124
  485SOL     OW 1453   0.647   1.056   1.836 -0.4444 -0.3222 -0.0577
  485SOL    HW1 1454   0.647   1.032   1.730 -1.1003  1.5281 -0.9307
  485SOL    HW2 1455   0.741   1.063   1.875 -2.4237 -0.1746 -2.7835
  486SOL     OW 1456   0.884   1.916   2.457  0.4880  0.1279  0.5621
  486SOL    HW1 1457   0.915   1.870   2.548  0.0331 -0.0328 -3.1142
  486SOL    HW2 1458   0.835   2.005   2.482  1.7742 -1.8775  0.2892
  487SOL     OW 1459   1.820   1.589   0.919 -0.2791 -0.5627 -0.3322
  487SOL    HW1 1460   1.879   1.525   0.978 -0.4157  2.8056  2.4283
  487SOL    HW2 1461   1.872   1.642   0.853 -1.7001  0.0715  0.4420
  488SOL     OW 1462   2.935   0.857   2.265 -0.2325  0.2442 -0.0847
  488SOL    HW1 1463   2.971   0.769   2.224 -1.6948  2.3567 -1.4347
  488SOL    HW2 1464   2.965   0.864   2.365  0.9168 -1.7493  0.3792
  489SOL     OW 1465   2.771   0.261   1.294  0.0754  0.0706  0.1767
  489SOL    HW1 1466   2.763   0.195   1.368  0.3783 -0.0616 -3.0273
  489SOL    HW2 1467   2.867   0.305   1.287 -0.2347  0.3811 -2.0428
  490SOL     OW 1468   1.451   2.911   2.809 -0.3247 -0.1406 -0.1207
  490SOL    HW1 1469   1.493   2.820   2.785 -1.4517 -2.7233  0.2141
  490SOL    HW2 1470   1.437   2.965   2.722  1.9854 -1.9636 -0.1596
  491SOL     OW 1471   1.827   1.468   2.596 -0.3385  0.1073  0.5714
  491SOL    HW1 1472   1.764   1.499   2.675  0.0053  2.0389 -1.2243
  491SOL    HW2 1473   1.929   1.491   2.617  0.1555 -1.2902  0.8527
  492SOL     OW 1474   0.517   1.985   0.648 -0.0617  0.3976  0.2667
  492SOL    HW1 1475   0.583   1.991   0.731  1.2815  1.0362  1.9355
  492SOL    HW2 1476   0.470   2.072   0.616 -0.3998 -2.0652 -2.1021
  493SOL     OW 1477   0.399   1.404   2.057 -0.2221 -0.1356 -0.1548
  493SOL    HW1 1478   0.312   1.463   2.070 -2.1148  1.7816  2.6748
  493SOL    HW2 1479   0.402   1.330   2.134  1.6756  1.0678  0.4895
  494SOL     OW 1480   2.638   2.746   0.202 -0.3377  0.5352  0.5835
  494SOL    HW1 1481   2.617   2.671   0.277  1.4671 -2.7737  0.1466
  494SOL    HW2 1482   2.590   2.727   0.114 -0.3196  2.2385 -1.2292
  495SOL     OW 1483   2.794   2.660   2.677 -0.3590  0.0737 -0.2315
  495SOL    HW1 1484   2.727   2.584   2.654  0.3352  0.3189  0.1440
  495SOL    HW2 1485   2.804   2.725   2.596 -0.3729  0.3195 -0.3504
  496SOL     OW 1486   2.030   2.230   0.708 -0.2770 -0.1490 -0.1325
  496SOL    HW1 1487   2.067   2.264   0.801 -1.3354 -0.0912  0.8867
  496SOL    HW2 1488   2.094   2.161   0.670 -1.6725  1.7402 -0.7204
  497SOL     OW 1489   0.234   2.999   2.472 -0.0236  0.4029 -0.0127
  497SOL    HW1 1490   0.243   3.073   2.542 -1.6966 -0.4393 -1.8534
  497SOL    HW2 1491   0.263   3.031   2.377 -0.7404 -2.1780 -0.2303
  498SOL     OW 1492   1.239   1.417   1.223  0.1777 -0.0666  0.0243
  498SOL    HW1 1493   1.333   1.376   1.239 -1.5622 -0.6358 -1.3474
  498SOL    HW2 1494   1.210   1.491   1.295 -0.7742  2.7110  0.2311
  499SOL     OW 1495   0.720   1.864   0.492  0.0193 -0.1471  0.5945
  499SOL    HW1 1496   0.751   1.771   0.527 -0.4446  0.6293  1.6622
  499SOL    HW2 1497   0.642   1.913   0.549  0.6699  1.3884  0.2693
  500SOL     OW 1498   1.460   2.937   1.640  0.1048  0.8168 -0.2352
  500SOL    HW1 1499   1.437   2.938   1.742 -1.2136  0.4051 -0.8037
  500SOL    HW2 1500   1.509   2.847   1.624  0.7991  0.7953  0.5552
  501SOL     OW 1501   0.851   1.107   2.292  0.1214 -0.0975 -0.5774
  501SOL    HW1 1502   0.775   1.046   2.264  1.5491 -2.2156  1.4579
  501SOL    HW2 1503   0.925   1.112   2.219 -2.4010  1.6029  0.4301
  502SOL     OW 1504   2.633   0.949   1.752 -0.0653  0.2797  0.5392
  502SOL    HW1 1505   2.640   0.965   1.649  0.8023 -1.8374 -1.9677
  502SOL    HW2 1506   2.549   0.896   1.780  1.3441  2.5581  0.7754
  503SOL     OW 1507   1.254   0.103   0.653  0.1002 -0.0062  0.0816
  503SOL    HW1 1508   1.192   0.180   0.630 -0.0510 -1.4080  2.2291
  503SOL    HW2 1509   1.348   0.148   0.661  0.5948  0.7697 -3.3573
  504SOL     OW 1510   3.046   2.352   1.441 -0.3992  0.1675 -0.2053
  504SOL    HW1 1511   2.983   2.403   1.500  2.9588  2.5695 -3.7357
  504SOL    HW2 1512   3.112   2.295   1.496  1.3460 -2.4399 -0.0355
  505SOL     OW 1513   2.265   1.174   1.497  0.0231  0.0710 -0.0242
  505SOL    HW1 1514   2.292   1.190   1.397  0.4889 -0.0511  1.4035
  505SOL    HW2 1515   2.327   1.218   1.558 -0.1233 -3.2474 -0.2883
  506SOL     OW 1516   1.990   0.151   1.796 -0.1794  0.1966 -0.3738
  506SOL    HW1 1517   2.085   0.115   1.817 -2.5932  0.1099 -1.7220
  506SOL    HW2 1518   1.970   0.234   1.848  1.0499 -0.8980 -1.2113
  507SOL     OW 1519   0.551   0.711   2.159 -0.3200 -0.4906  0.1731
  507SOL    HW1 1520   0.492   0.664   2.088  1.5087  0.6287 -0.8356
  507SOL    HW2 1521   0.629   0.651   2.169  0.4450  0.1624 -0.4140
  508SOL     OW 1522   0.239   1.659   0.871  0.7207  0.0502  0.1100
  508SOL    HW1 1523   0.329   1.683   0.826 -1.3881  0.5298 -2.1081
  508SOL    HW2 1524   0.226   1.711   0.959  0.5237  0.2086  2.2339
  509SOL     OW 1525   1.317   1.260   2.335  0.5910  0.5516  0.9396
  509SOL    HW1 1526   1.307   1.288   2.240  0.4534 -1.1669  3.4643
  509SOL    HW2 1527   1.314   1.152   2.334  1.8467 -3.5918 -3.1759
  510SOL     OW 1528   1.293   2.023   2.073  0.3324  0.3119 -0.4323
  510SOL    HW1 1529   1.280   2.122   2.047  2.0512 -0.3045  0.9360
  510SOL    HW2 1530   1.216   1.981   2.129 -3.0094 -1.2311 -0.7530
  511SOL     OW 1531   3.084   2.739   1.284  0.2385 -0.8421  0.3707
  511SOL    HW1 1532   3.063   2.669   1.205 -2.0680 -0.1847 -0.1799
  511SOL    HW2 1533   3.001   2.749   1.344  1.0837  0.7759 -3.1014
  512SOL     OW 1534   2.356   0.424   1.377 -0.2051 -0.5853  0.6753
  512SOL    HW1 1535   2.252   0.405   1.376 -0.2190  1.8523  1.4612
  512SOL    HW2 1536   2.410   0.358   1.312  0.9001 -2.7940  1.5085
  513SOL     OW 1537   2.509   2.069   0.852 -0.1093  0.1402  0.3335
  513SOL    HW1 1538   2.459   2.127   0.778  1.2362 -0.8614 -2.0422
  513SOL    HW2 1539   2.590   2.020   0.816 -0.5632  0.4679 -2.0737
  514SOL     OW 1540   0.560   2.767   0.506 -0.4970  0.0655  0.0960
  514SOL    HW1 1541   0.563   2.826   0.420  0.7651 -0.6283 -0.6805
  514SOL    HW2 1542   0.609   2.807   0.589 -1.5829 -0.4748 -0.0238
  515SOL     OW 1543   2.036   1.115   2.293  0.4327 -0.3120 -0.4984
  515SOL    HW1 1544   2.004   1.129   2.191 -1.1911  2.5131 -1.4506
  515SOL    HW2 1545   1.966   1.106   2.374 -2.8280  1.6438 -0.1951
  516SOL     OW 1546   0.272   0.308   1.913  0.6662 -1.0375 -0.0353
  516SOL    HW1 1547   0.328   0.305   1.821 -0.1699  0.2910  0.3063
  516SOL    HW2 1548   0.173   0.275   1.900  0.4979 -0.6280 -0.7913
  517SOL     OW 1549   0.442   3.079   1.169 -0.8178 -0.3113  0.0918
  517SOL    HW1 1550   0.468   3.181   1.185  0.5152  0.2297  0.6719
  517SOL    HW2 1551   0.343   3.051   1.193  1.2038 -0.2700 -0.4242
  518SOL     OW 1552   2.240   0.026   1.815 -0.2264  0.1781 -0.2069
  518SOL    HW1 1553   2.293   0.107   1.845 -5.4193 -0.1526 -0.5599
  518SOL    HW2 1554   2.281  -0.022   1.732  0.8223  0.5938  0.9902
  519SOL     OW 1555   2.365   2.230   2.585  0.1405 -0.0963  0.1098
  519SOL    HW1 1556   2.278   2.218   2.635 -0.2848  0.1438 -0.2231
  519SOL    HW2 1557   2.381   2.330   2.574 -0.5848 -0.1559  0.4331
  520SOL     OW 1558   1.789   2.824   1.873 -0.5419  0.4902  0.0888
  520SOL    HW1 1559   1.695   2.810   1.906 -0.1412  1.9457 -0.1187
  520SOL    HW2 1560   1.831   2.738   1.833  0.5897 -0.2607  0.7689
  521SOL     OW 1561   0.577   0.025   2.138 -0.0109 -0.0799  0.3187
  521SOL    HW1 1562   0.472   0.014   2.147 -0.1949  1.0841  0.7462
  521SOL    HW2 1563   0.623   0.020   2.231 -2.8403  0.5667  0.1161
  522SOL     OW 1564   0.209   1.918   1.442  0.1965  0.5279  0.3241
  522SOL    HW1 1565   0.233   1.963   1.532 -0.9470 -0.6194  0.1505
  522SOL    HW2 1566   0.181   1.981   1.364  0.4266  0.2591  0.0136
  523SOL     OW 1567   2.262   2.982   1.544 -0.0670  0.1281 -0.2131
  523SOL    HW1 1568   2.346   2.920   1.556  2.2775 -2.2365 -2.9223
  523SOL    HW2 1569   2.187   2.925   1.503 -2.5654  0.7429  2.6682
  524SOL     OW 1570   0.183   2.812   2.826 -0.2123 -0.8059 -0.2398
  524SOL    HW1 1571   0.130   2.901   2.832 -0.9373 -2.0109 -2.3659
  524SOL    HW2 1572   0.288   2.811   2.815 -0.9507  0.4410 -0.2556
  525SOL     OW 1573   2.147   2.012   0.467  0.0233 -0.4011 -0.1153
  525SOL    HW1 1574   2.159   1.952   0.553 -1.0700  2.9916  3.0249
  525SOL    HW2 1575   2.141   1.961   0.377 -3.1961 -0.9891  2.1417
  526SOL     OW 1576   0.413   1.551   1.676 -0.2755  0.2062  0.4381
  526SOL    HW1 1577   0.373   1.551   1.770 -1.6638 -1.0617 -0.7914
  526SOL    HW2 1578   0.477   1.471   1.646  1.4222  0.0435 -0.1363
  527SOL     OW 1579   1.099   2.948   1.230 -0.0259 -0.1744 -0.2509
  527SOL    HW1 1580   1.199   2.917   1.250  0.3656  1.8631  2.5542
  527SOL    HW2 1581   1.096   3.050   1.211  0.0075 -0.7227  0.2769
  528SOL     OW 1582   1.340   2.418   0.535  0.1470  0.3116 -0.4291
  528SOL    HW1 1583   1.370   2.317   0.529 -1.5621 -3.3467 -0.8258
  528SOL    HW2 1584   1.416   2.475   0.581  1.4515 -0.8144  0.4546
  529SOL     OW 1585   1.945   1.732   0.717  0.0487  0.5036  1.0342
  529SOL    HW1 1586   1.878   1.742   0.636 -3.3593  0.9281 -0.7291
  529SOL    HW2 1587   1.939   1.813   0.781 -2.0052  0.9547  0.5121
  530SOL     OW 1588   0.296   2.586   0.295  0.0910 -0.6810  0.3812
  530SOL    HW1 1589   0.292   2.665   0.361 -0.1447  0.4270  0.7421
  530SOL    HW2 1590   0.328   2.492   0.335  1.9117 -0.0126  0.8386
  531SOL     OW 1591   1.804   1.003   0.985 -0.3027  0.1141 -0.2714
  531SOL    HW1 1592   1.826   1.023   0.887 -0.9737  1.7868  2.8497
  531SOL    HW2 1593   1.702   0.990   0.999 -0.4093 -0.1900 -2.1282
  532SOL     OW 1594   0.453   1.159   0.751  0.4081 -0.5463  0.2451
  532SOL    HW1 1595   0.537   1.150   0.691  2.5116 -0.3385 -1.8318
  532SOL    HW2 1596   0.397   1.074   0.761  0.4923  0.5042  0.5369
  533SOL     OW 1597   1.758   0.025   2.616 -0.1683  0.3015  0.1414
  533SOL    HW1 1598   1.855  -0.007   2.647  1.1081 -1.9665 -2.2962
  533SOL    HW2 1599   1.710   0.091   2.684  1.1588  0.4987  0.4642
  534SOL     OW 1600   0.332   0.241   1.633 -0.6288  0.6951 -0.0964
  534SOL    HW1 1601   0.411   0.228   1.574 -1.6509 -0.2238 -0.2486
  534SOL    HW2 1602   0.272   0.321   1.612 -3.1294 -0.2205 -0.9287
  535SOL     OW 1603   1.971   0.340   0.128 -0.3771 -0.0876 -0.4842
  535SOL    HW1 1604   1.972   0.416   0.205 -2.1154  2.0377 -0.8964
  535SOL    HW2 1605   1.964   0.241   0.168 -0.5343 -2.9258  1.4569
  536SOL     OW 1606   1.407   2.589   0.927  0.1202  0.5529 -0.0194
  536SOL    HW1 1607   1.398   2.546   1.020  1.5477  1.2697  1.4800
  536SOL    HW2 1608   1.317   2.624   0.892  1.0171 -1.8254 -0.1959
  537SOL     OW 1609   0.815   0.260   2.409  0.5604  0.3247  0.3554
  537SOL    HW1 1610   0.815   0.293   2.312  0.7005  0.3642  0.8522
  537SOL    HW2 1611   0.771   0.166   2.412 -0.0090 -0.6996 -1.6234
  538SOL     OW 1612   1.632   2.372   1.549 -0.4809 -0.1204 -0.2750
  538SOL    HW1 1613   1.623   2.274   1.531 -1.1590  1.5525 -1.1393
  538SOL    HW2 1614   1.699   2.412   1.484 -1.0356 -3.1252 -1.9024
  539SOL     OW 1615   0.191   1.644   2.715 -0.3622  0.2444 -0.6173
  539SOL    HW1 1616   0.111   1.647   2.644 -2.9587 -0.3926 -0.6912
  539SOL    HW2 1617   0.203   1.723   2.781 -1.5245 -0.1846  2.0608
  540SOL     OW 1618   2.655   1.732   1.926  0.0848 -0.0473  0.6446
  540SOL    HW1 1619   2.598   1.665   1.974 -1.5094  4.1188 -0.0359
  540SOL    HW2 1620   2.620   1.825   1.937  0.4789 -0.2074  0.9642
  541SOL     OW 1621   0.474   2.202   0.020 -0.3446  0.0077 -0.2976
  541SOL    HW1 1622   0.499   2.184   0.123 -2.3793 -0.5530  2.5371
  541SOL    HW2 1623   0.381   2.161  -0.003  0.0424 -2.3374 -0.6331
  542SOL     OW 1624   2.230   2.581   0.427 -0.0468 -0.0388 -0.1594
  542SOL    HW1 1625   2.179   2.661   0.469 -0.9370 -1.8629 -0.9197
  542SOL    HW2 1626   2.167   2.494   0.433 -0.2349  0.2417  0.4748
  543SOL     OW 1627   1.100   1.847   1.571  0.3495 -0.2519  0.1757
  543SOL    HW1 1628   1.030   1.843   1.648  2.2776 -2.9984 -1.0403
  543SOL    HW2 1629   1.069   1.908   1.491 -1.8888  1.7994  0.0513
  544SOL     OW 1630   1.077   0.448   0.205  1.0990  0.4103 -0.5019
  544SOL    HW1 1631   1.069   0.354   0.258 -0.8568 -1.9371  1.5703
  544SOL    HW2 1632   1.081   0.435   0.099  0.7126  0.6942 -2.0655
  545SOL     OW 1633   1.111   1.742   0.817 -0.1153 -0.0139 -0.0753
  545SOL    HW1 1634   1.210   1.755   0.788  0.0158  1.1245  0.2350
  545SOL    HW2 1635   1.091   1.649   0.844 -0.2806  0.5299 -3.3306
  546SOL     OW 1636   2.619   1.497   3.037  0.3786  0.6848  0.0621
  546SOL    HW1 1637   2.638   1.584   2.982  2.3222  1.9894  2.1803
  546SOL    HW2 1638   2.525   1.460   3.034  2.6377  2.5597  0.9333
  547SOL     OW 1639   0.612   3.013   2.643 -0.4542 -0.1141 -0.6227
  547SOL    HW1 1640   0.711   3.000   2.676  2.8577  0.6455  0.3316
  547SOL    HW2 1641   0.547   2.957   2.693 -1.2513  1.3267  0.9851
  548SOL     OW 1642   2.068   0.918   2.962  0.0700 -0.5022  0.4357
  548SOL    HW1 1643   1.974   0.873   2.977 -0.3175  1.0561  1.9123
  548SOL    HW2 1644   2.083   1.005   3.024  0.1761 -0.5162 -0.4076
  549SOL     OW 1645   0.703   0.516   0.182  0.3635  0.0079 -0.4272
  549SOL    HW1 1646   0.632   0.551   0.119 -3.1512  1.5260 -1.0096
  549SOL    HW2 1647   0.800   0.556   0.175  0.5998  0.3587 -0.7864
  550SOL     OW 1648   2.609   2.826   2.881  0.2790 -0.4045 -0.1494
  550SOL    HW1 1649   2.563   2.764   2.955 -1.1743  0.9263  0.9313
  550SOL    HW2 1650   2.662   2.781   2.804  2.1916 -0.1164 -1.4393
  551SOL     OW 1651   0.274   0.849   0.240 -0.0134 -0.0127 -0.3909
  551SOL    HW1 1652   0.379   0.842   0.238  0.1728 -0.1421  1.4229
  551SOL    HW2 1653   0.237   0.846   0.339  1.1462 -2.5773  0.7724
  552SOL     OW 1654   0.629   2.972   1.909 -0.1827 -0.0643 -0.3903
  552SOL    HW1 1655   0.617   3.029   1.994  2.2932  0.1902  0.0939
  552SOL    HW2 1656   0.724   2.978   1.875 -3.8290  1.9929 -2.3907
  553SOL     OW 1657   2.944   2.498   0.368 -0.3649  0.0267  0.0278
  553SOL    HW1 1658   2.890   2.412   0.380 -0.2793  0.2806 -0.0760
  553SOL    HW2 1659   2.885   2.577   0.387 -0.8279 -3.9774 -1.2840
  554SOL     OW 1660   2.148   0.378   0.555  0.3531 -0.5185 -0.2050
  554SOL    HW1 1661   2.196   0.396   0.467 -0.8441  3.1401 -1.7319
  554SOL    HW2 1662   2.150   0.281   0.583 -0.6538  1.1666  0.1613
  555SOL     OW 1663   0.391   2.765   2.482 -0.0180  0.7427  0.1641
  555SOL    HW1 1664   0.327   2.845   2.495  0.1629  0.8378  0.7348
  555SOL    HW2 1665   0.423   2.758   2.389 -1.4482 -1.8564  2.1331
  556SOL     OW 1666   0.862   2.385   1.541  0.1479 -0.4993  0.2276
  556SOL    HW1 1667   0.912   2.458   1.602 -0.3675  1.8199  0.1330
  556SOL    HW2 1668   0.907   2.376   1.450  1.3357  0.9463  0.4565
  557SOL     OW 1669   0.152   2.088   0.236  0.2078 -0.3780 -0.6233
  557SOL    HW1 1670   0.080   2.012   0.228 -0.0698  0.0560  0.5852
  557SOL    HW2 1671   0.205   2.110   0.147 -0.4474  0.8485  0.4120
  558SOL     OW 1672   2.782   2.259   0.383 -0.5088 -0.4779  0.6472
  558SOL    HW1 1673   2.679   2.274   0.372  2.1800 -0.3331  2.3088
  558SOL    HW2 1674   2.809   2.169   0.340 -1.1474  1.8496 -2.5818
  559SOL     OW 1675   0.387   2.290   1.411  0.2799  0.6540  0.2713
  559SOL    HW1 1676   0.298   2.315   1.365 -1.4357 -1.2185  2.6975
  559SOL    HW2 1677   0.430   2.202   1.376 -1.3904  2.9638 -0.3365
  560SOL     OW 1678   2.104   1.186   3.052 -0.5251 -0.5829 -0.2459
  560SOL    HW1 1679   2.130   1.193   3.153  0.3308  0.0813  0.0980
  560SOL    HW2 1680   2.159   1.254   2.998 -1.7297  1.8063 -2.4425
  561SOL     OW 1681   3.078   1.849   0.014 -0.3923  0.2317  0.2396
  561SOL    HW1 1682   3.040   1.799   0.097  0.1279 -0.2008 -1.5405
  561SOL    HW2 1683   3.035   1.943   0.001  0.6358 -1.9152 -2.8436
  562SOL     OW 1684   0.954   2.201   2.330  0.1158 -0.6397 -0.3993
  562SOL    HW1 1685   0.970   2.261   2.416  3.6347 -0.6175  0.9310
  562SOL    HW2 1686   0.981   2.107   2.333  1.2977  1.5562  0.1614
  563SOL     OW 1687   0.685   2.589   2.616  0.1264  0.3545 -0.5502
  563SOL    HW1 1688   0.773   2.527   2.622 -0.0104 -0.7513 -1.0497
  563SOL    HW2 1689   0.647   2.611   2.711 -0.1279  1.5824  0.1200
  564SOL     OW 1690   2.818   1.329   2.894 -0.3529 -0.0724 -0.1334
  564SOL    HW1 1691   2.728   1.369   2.919  1.8870  1.3001 -0.7222
  564SOL    HW2 1692   2.887   1.397   2.852  1.5681  0.1326 -1.5523
  565SOL     OW 1693   2.536   2.024   2.646  0.2684  0.5782  0.3489
  565SOL    HW1 1694   2.484   2.113   2.633  0.8031  1.9287  1.5130
  565SOL    HW2 1695   2.614   2.040   2.707 -1.1604  1.5015 -0.1451
  566SOL     OW 1696   2.072   2.832   1.424 -0.2709  0.1894  0.2885
  566SOL    HW1 1697   2.013   2.749   1.430 -1.9002  0.6250 -1.1754
  566SOL    HW2 1698   2.066   2.873   1.329 -0.2019 -1.1535  2.3535
  567SOL     OW 1699   2.418   3.048   2.385 -0.4743 -0.3567 -0.6299
  567SOL    HW1 1700   2.318   3.047   2.395  1.9158 -0.0225 -1.3395
  567SOL    HW2 1701   2.444   3.004   2.292  0.1974  0.6756 -1.3284
  568SOL     OW 1702   1.535   1.743   0.206  0.2074  0.3609 -0.0236
  568SOL    HW1 1703   1.450   1.796   0.179 -0.0937 -0.6498  2.6857
  568SOL    HW2 1704   1.606   1.803   0.249 -2.0094  0.6162 -0.5736
  569SOL     OW 1705   0.273   0.657   0.828 -0.0059 -0.2381 -0.2254
  569SOL    HW1 1706   0.319   0.570   0.787 -1.4713 -3.4147 -1.2110
  569SOL    HW2 1707   0.174   0.670   0.791  1.8664 -1.8983 -1.7071
  570SOL     OW 1708   0.651   0.829   2.937 -0.1532 -0.4689  0.2028
  570SOL    HW1 1709   0.707   0.878   2.863  0.7815 -0.6192 -1.6278
  570SOL    HW2 1710   0.635   0.887   3.019  1.8796 -1.9986 -1.4805
  571SOL     OW 1711   0.772   3.084   1.072 -0.5196  0.3592  0.3851
  571SOL    HW1 1712   0.849   3.115   1.010  0.8914 -0.0387 -1.7035
  571SOL    HW2 1713   0.721   3.002   1.045 -0.6701 -1.4782  0.7689
  572SOL     OW 1714   1.639   2.647   1.342 -0.1685  0.4625 -0.3113
  572SOL    HW1 1715   1.580   2.603   1.268  0.7074  1.8131  0.6598
  572SOL    HW2 1716   1.642   2.754   1.342 -1.0525  2.4965 -1.0518
  573SOL     OW 1717   2.897   0.482   2.019  0.4236 -0.0081  0.4866
  573SOL    HW1 1718   2.833   0.408   2.001  1.2401  2.9006 -0.4868
  573SOL    HW2 1719   2.967   0.494   1.939  1.2659  0.1444  0.6791
  574SOL     OW 1720   0.147   1.775   1.111 -0.1321 -0.7224  0.2992
  574SOL    HW1 1721   0.202   1.834   1.174  1.2648  0.2723 -0.4515
  574SOL    HW2 1722   0.052   1.808   1.115  0.4730  0.7651 -0.8053
  575SOL     OW 1723   0.819   2.209   0.935 -0.3563  0.4709  0.1624
  575SOL    HW1 1724   0.807   2.223   1.041 -2.3296  1.0507  2.0320
  575SOL    HW2 1725   0.875   2.279   0.886  1.1739  0.4095 -1.1000
  576SOL     OW 1726   2.849   3.000   1.673  0.0043 -0.0230 -0.1091
  576SOL    HW1 1727   2.757   2.996   1.635  0.5807 -3.3255  1.9831
  576SOL    HW2 1728   2.890   3.092   1.657 -0.3615  0.5487 -1.4769
  577SOL     OW 1729   2.528   1.184   3.096  0.2378 -0.4814  0.2156
  577SOL    HW1 1730   2.526   1.099   3.037 -2.2579  0.0228 -1.7836
  577SOL    HW2 1731   2.608   1.182   3.162  0.3997  1.5718 -0.3561
  578SOL     OW 1732   1.451   2.706   2.460 -0.3980  0.7993  0.0563
  578SOL    HW1 1733   1.355   2.720   2.422 -2.3409  0.7954 -2.0677
  578SOL    HW2 1734   1.509   2.793   2.466 -2.0114  1.9915  0.0069
  579SOL     OW 1735   0.049   2.483   0.185 -0.2826  0.0258 -0.2266
  579SOL    HW1 1736  -0.032   2.463   0.247  0.5211 -3.3755 -1.0427
  579SOL    HW2 1737   0.135   2.510   0.240 -0.5432  0.9797 -0.1780
  580SOL     OW 1738   0.969   2.670   0.355  0.2472 -0.0451 -0.7043
  580SOL    HW1 1739   1.068   2.678   0.311  3.1521 -0.9391 -3.0588
  580SOL    HW2 1740   0.911   2.595   0.312  2.3829  1.6200 -0.2826
  581SOL     OW 1741   1.218   2.659   1.456 -0.1986  0.0062  0.0514
  581SOL    HW1 1742   1.278   2.581   1.493 -1.2944 -0.0045  0.6306
  581SOL    HW2 1743   1.266   2.732   1.397 -2.3133  4.1010  0.3386
  582SOL     OW 1744   1.493   0.098   1.855  0.1059 -0.1695  0.0767
  582SOL    HW1 1745   1.495   0.174   1.927 -0.3844 -0.1170  0.3194
  582SOL    HW2 1746   1.581   0.081   1.798  0.4287  1.0938 -1.1996
  583SOL     OW 1747   2.422   3.098   0.497 -0.1486 -0.0237 -0.0625
  583SOL    HW1 1748   2.509   3.045   0.477 -2.5299 -0.3418 -0.9588
  583SOL    HW2 1749   2.342   3.038   0.510  3.8685 -1.0216 -0.6399
  584SOL     OW 1750   1.541   1.108   2.223  0.0966  0.4303  0.6151
  584SOL    HW1 1751   1.600   1.183   2.182  2.7118 -4.6260  0.2152
  584SOL    HW2 1752   1.593   1.023   2.247  0.6978 -1.8153 -1.2363
  585SOL     OW 1753   2.131   2.698   2.923 -0.4518  0.0447  0.1202
  585SOL    HW1 1754   2.139   2.595   2.935  1.0044 -2.1021  0.0834
  585SOL    HW2 1755   2.033   2.731   2.897  1.3325 -1.1493 -3.5480
  586SOL     OW 1756   2.831   0.337   1.620  0.2906 -0.0270 -0.3635
  586SOL    HW1 1757   2.857   0.427   1.670  1.1947  1.0513 -2.2214
  586SOL    HW2 1758   2.741   0.296   1.633 -1.2168  1.5488 -0.6797
  587SOL     OW 1759   2.081   1.516   2.660 -0.2761 -0.2658  0.0395
  587SOL    HW1 1760   2.145   1.442   2.622 -0.5125 -0.2951 -0.9875
  587SOL    HW2 1761   2.111   1.542   2.756  0.8651 -0.3556 -1.1733
  588SOL     OW 1762   0.456   2.682   2.227 -0.3473  0.1503 -0.1509
  588SOL    HW1 1763   0.371   2.661   2.172  2.5972  1.8074 -0.8604
  588SOL    HW2 1764   0.509   2.602   2.266  0.9023 -1.3036  1.8099
  589SOL     OW 1765   2.178   1.328   2.471  0.4884 -0.0588  0.1102
  589SOL    HW1 1766   2.154   1.246   2.416  1.9909 -1.1286 -1.9661
  589SOL    HW2 1767   2.279   1.323   2.497  0.0415 -1.2490  1.7407
  590SOL     OW 1768   2.301   1.766   2.034 -0.6916  0.9070 -0.5374
  590SOL    HW1 1769   2.378   1.697   2.014 -0.7078  1.7774  2.1055
  590SOL    HW2 1770   2.315   1.807   2.129  3.2325 -1.8688 -1.4845
  591SOL     OW 1771   1.259   2.427   0.229 -0.0320 -0.2722  0.6719
  591SOL    HW1 1772   1.286   2.350   0.163  0.0197  0.4706 -0.1339
  591SOL    HW2 1773   1.289   2.405   0.321  2.4426  1.8552 -2.5567
  592SOL     OW 1774   1.776   2.309   0.728  0.1227  0.1591  0.3557
  592SOL    HW1 1775   1.747   2.379   0.659  1.9127 -0.9631  1.6477
  592SOL    HW2 1776   1.877   2.280   0.715  1.7826 -0.8961 -0.0937
  593SOL     OW 1777   0.708   0.252   0.214  0.2595 -0.2022 -0.0053
  593SOL    HW1 1778   0.735   0.223   0.117  0.7194  2.7323 -1.1263
  593SOL    HW2 1779   0.693   0.356   0.215 -2.2721  2.7544 -2.2141
  594SOL     OW 1780   1.023   1.823   2.690  0.2953 -0.0322 -0.1578
  594SOL    HW1 1781   1.113   1.784   2.651  0.2080 -2.7684 -1.5225
  594SOL    HW2 1782   1.046   1.877   2.780 -0.6633 -0.1203  1.3334
  595SOL     OW 1783   1.543   0.058   1.019 -0.3921  0.6640 -0.9419
  595SOL    HW1 1784   1.612  -0.009   0.984  0.0978  2.9355 -0.3337
  595SOL    HW2 1785   1.446   0.037   0.986  0.3651  1.0373 -0.1755
  596SOL     OW 1786   0.054   1.568   2.267 -0.1259  0.6850  0.0293
  596SOL    HW1 1787   0.061   1.469   2.303  2.2028 -2.8728 -0.6065
  596SOL    HW2 1788   0.033   1.631   2.347  0.9503  1.2937  1.9805
  597SOL     OW 1789   1.939   2.620   1.787 -0.6618  0.8324  0.6543
  597SOL    HW1 1790   1.916   2.576   1.693  0.2504 -2.7429  0.1147
  597SOL    HW2 1791   2.035   2.585   1.816 -0.3618  0.4981 -0.0463
  598SOL     OW 1792   2.527   2.915   1.222 -0.2315  0.2071  0.1636
  598SOL    HW1 1793   2.610   2.926   1.284 -1.4125 -0.3272  2.3380
  598SOL    HW2 1794   2.553   2.902   1.124  0.7960 -1.8321  0.0181
  599SOL     OW 1795   2.890   0.302   2.461  0.1802 -0.1880 -0.3530
  599SOL    HW1 1796   2.959   0.382   2.471 -1.0325  1.5301 -1.7583
  599SOL    HW2 1797   2.812   0.332   2.398 -0.3670  0.0717  0.6423
  600SOL     OW 1798   2.813   1.095   2.735 -0.5824  0.2363  0.1488
  600SOL    HW1 1799   2.735   1.031   2.721 -0.5705 -0.9445 -2.2631
  600SOL    HW2 1800   2.795   1.170   2.808  0.8808  0.8962  1.8679
  601SOL     OW 1801   3.056   1.324   2.002  0.0551 -0.0812 -0.4585
  601SOL    HW1 1802   2.983   1.380   1.958  0.0400 -2.2901  1.8927
  601SOL    HW2 1803   3.151   1.371   1.999  1.3975  1.3650 -2.1934
  602SOL     OW 1804   1.444   1.694   2.292  0.2386  0.0556  0.5921
  602SOL    HW1 1805   1.370   1.633   2.332 -1.3753 -1.6607  2.9408
  602SOL    HW2 1806   1.538   1.659   2.311  0.1548  0.9240 -0.1131
  603SOL     OW 1807   0.613   1.208   2.809 -0.2201 -0.2742 -0.1637
  603SOL    HW1 1808   0.522   1.213   2.756  0.1209  1.7296  1.5462
  603SOL    HW2 1809   0.690   1.150   2.771  1.6243  0.5056 -0.5158
  604SOL     OW 1810   2.402   1.000   0.177  0.2037  0.0175  0.1412
  604SOL    HW1 1811   2.459   1.060   0.112  0.0098  1.9311  0.3997
  604SOL    HW2 1812   2.398   0.900   0.143  1.1579  1.0196  2.5152
  605SOL     OW 1813   2.520   1.148   1.911  0.0165  0.2508  0.4128
  605SOL    HW1 1814   2.561   1.098   1.827  1.8751 -0.5813 -2.0582
  605SOL    HW2 1815   2.584   1.162   1.987 -0.1562  0.1040 -0.1231
  606SOL     OW 1816   1.534   2.478   2.595 -0.6643 -0.5683  0.3745
  606SOL    HW1 1817   1.474   2.562   2.580  0.8297 -0.5256  0.0775
  606SOL    HW2 1818   1.485   2.395   2.555  2.0347 -0.7572 -3.4534
  607SOL     OW 1819   1.335   1.584   0.306 -0.3089 -0.3514  0.0532
  607SOL    HW1 1820   1.268   1.659   0.317  0.4434 -2.9595 -2.2844
  607SOL    HW2 1821   1.431   1.620   0.279 -1.3261 -0.7957 -0.1214
  608SOL     OW 1822   1.465   2.831   0.404 -0.1775  0.2959  0.2267
  608SOL    HW1 1823   1.509   2.875   0.320 -1.2018 -0.6166  0.4041
  608SOL    HW2 1824   1.401   2.895   0.453  1.7916  1.0161 -1.5328
  609SOL     OW 1825   1.270   1.319   0.270 -0.0013  0.8799 -0.1430
  609SOL    HW1 1826   1.302   1.419   0.277 -0.9676 -1.8053  1.3336
  609SOL    HW2 1827   1.229   1.301   0.179  2.8508  1.5878 -1.7724
  610SOL     OW 1828   2.953   1.153   2.215 -0.0731 -0.0036  0.1950
  610SOL    HW1 1829   2.965   1.052   2.232 -0.1079  0.0379  0.4053
  610SOL    HW2 1830   2.966   1.177   2.114  2.5640 -0.4185  1.1667
  611SOL     OW 1831   2.526   0.279   1.182  0.4894 -0.2273  0.2904
  611SOL    HW1 1832   2.478   0.187   1.165  1.4200 -1.2133 -2.0158
  611SOL    HW2 1833   2.628   0.273   1.193 -0.7048  2.6365  0.8892
  612SOL     OW 1834   0.751   2.265   1.186 -0.0582  0.7303 -0.2620
  612SOL    HW1 1835   0.688   2.212   1.248 -2.1244 -3.9175 -0.5025
  612SOL    HW2 1836   0.729   2.368   1.170 -1.7492  0.8994 -0.6578
  613SOL     OW 1837   0.790   1.374   2.393  0.1073  0.2763 -0.0994
  613SOL    HW1 1838   0.803   1.446   2.320 -0.8187  0.6462  0.7578
  613SOL    HW2 1839   0.799   1.274   2.362  0.0486  0.4893  2.1240
  614SOL     OW 1840   1.579   1.708   1.950  0.0877 -0.5270 -0.5001
  614SOL    HW1 1841   1.532   1.780   1.892  1.4618 -1.0409  1.6852
  614SOL    HW2 1842   1.624   1.744   2.038  0.9925 -0.8837 -0.3577
  615SOL     OW 1843   0.779   1.343   1.727  0.3110 -0.2345 -0.0099
  615SOL    HW1 1844   0.694   1.376   1.679  2.5032 -2.8988 -1.7224
  615SOL    HW2 1845   0.859   1.397   1.706 -0.9380  0.8224 -1.7984
  616SOL     OW 1846   1.079   1.602   2.180  0.4361 -0.3778  0.2604
  616SOL    HW1 1847   0.976   1.586   2.178 -0.3940 -1.9636 -0.6415
  616SOL    HW2 1848   1.118   1.614   2.080 -1.0718 -1.5870 -1.8596
  617SOL     OW 1849   2.964   1.538   1.557  0.2337 -0.5180  0.8029
  617SOL    HW1 1850   2.958   1.487   1.651 -1.5578 -2.3906  1.5371
  617SOL    HW2 1851   2.984   1.468   1.481  0.2677  2.6637  0.7624
  618SOL     OW 1852   1.916   2.015   1.417 -0.1491 -0.5746  0.1514
  618SOL    HW1 1853   1.971   2.002   1.332 -2.1071 -1.8444  0.2374
  618SOL    HW2 1854   1.864   1.930   1.444  2.1227  0.8176  2.3682
  619SOL     OW 1855   1.771   0.494   2.394 -0.5085 -0.3774 -0.2232
  619SOL    HW1 1856   1.696   0.541   2.343  3.3179  1.3485  0.2932
  619SOL    HW2 1857   1.738   0.401   2.427  0.0887 -0.5910  1.4780
  620SOL     OW 1858   2.188   2.958   0.607  0.2432 -0.5500  0.0485
  620SOL    HW1 1859   2.136   3.046   0.640 -2.0603  0.5709 -2.5102
  620SOL    HW2 1860   2.226   2.904   0.686  0.7584  0.6949  1.1077
  621SOL     OW 1861   2.127   1.852   1.293  0.3399  0.2708 -0.2286
  621SOL    HW1 1862   2.144   1.858   1.400  1.8006 -1.6713  0.3844
  621SOL    HW2 1863   2.124   1.752   1.264 -1.0765  1.7122  1.3878
  622SOL     OW 1864   2.162   0.861   1.776 -0.7711 -0.1354 -0.5554
  622SOL    HW1 1865   2.257   0.835   1.740 -0.4635 -1.6209 -1.2568
  622SOL    HW2 1866   2.129   0.784   1.839 -1.2564 -2.2227  0.6245
  623SOL     OW 1867   1.372   0.772   2.631 -0.1783 -0.3185 -0.3688
  623SOL    HW1 1868   1.318   0.714   2.699 -0.8291 -1.3133  1.6251
  623SOL    HW2 1869   1.317   0.824   2.560 -0.7658 -0.7770 -1.5225
  624SOL     OW 1870   0.521   0.660   0.010 -0.1592  0.1904 -0.2655
  624SOL    HW1 1871   0.577   0.702  -0.069  0.3445 -0.6016  3.8074
  624SOL    HW2 1872   0.527   0.728   0.093 -0.1560  0.5413  2.1150
  625SOL     OW 1873   2.801   1.748   0.955 -0.5414  0.0795 -0.0706
  625SOL    HW1 1874   2.752   1.788   1.037  0.7157 -1.4785 -0.5831
  625SOL    HW2 1875   2.775   1.649   0.938 -0.2438  0.0226  0.2076
  626SOL     OW 1876   0.569   2.695   1.838 -0.3917  0.6322 -0.3018
  626SOL    HW1 1877   0.589   2.786   1.887 -1.3782  1.3965 -0.3378
  626SOL    HW2 1878   0.466   2.679   1.828 -0.3374 -1.1000  0.3574
  627SOL     OW 1879   0.726   0.988   1.547 -0.0710  0.0595  0.2981
  627SOL    HW1 1880   0.767   0.902   1.509 -2.6611  0.4283  0.8685
  627SOL    HW2 1881   0.788   1.069   1.520 -1.7250 -0.1703 -2.3421
  628SOL     OW 1882   2.399   0.174   0.695  0.3979  0.3067 -0.6649
  628SOL    HW1 1883   2.414   0.109   0.617 -0.0720  1.4906  1.1056
  628SOL    HW2 1884   2.297   0.169   0.729 -1.5662  0.3879  0.9734
  629SOL     OW 1885   1.953   0.895   1.996 -0.4101 -0.2769 -0.1269
  629SOL    HW1 1886   2.049   0.929   2.023  1.6956  3.2343 -0.6409
  629SOL    HW2 1887   1.892   0.980   1.988  0.1969  1.1370 -1.0684
  630SOL     OW 1888   2.811   2.223   0.771 -1.0165  0.2788  0.3239
  630SOL    HW1 1889   2.730   2.285   0.798  3.1751  1.1727  0.3967
  630SOL    HW2 1890   2.785   2.121   0.774 -1.7774 -1.4215 -1.2544
  631SOL     OW 1891   2.945   0.123   2.089  0.4918 -0.5111 -0.2657
  631SOL    HW1 1892   2.984   0.194   2.153 -2.4814  0.3227 -0.9920
  631SOL    HW2 1893   3.001   0.110   2.001  5.3344 -1.9870 -1.5621
  632SOL     OW 1894   2.435   2.500   0.633  0.0778 -0.6118 -0.1753
  632SOL    HW1 1895   2.501   2.579   0.655 -0.8575  3.0786 -2.4455
  632SOL    HW2 1896   2.357   2.536   0.576 -1.0237 -1.9743  1.2034
  633SOL     OW 1897   1.492   1.276   2.529  0.7032  0.0980 -0.2084
  633SOL    HW1 1898   1.492   1.361   2.586 -1.9643 -1.4970 -0.3697
  633SOL    HW2 1899   1.435   1.290   2.444  0.4496  1.2990  1.4379
  634SOL     OW 1900   0.657   1.982   0.915 -0.2472  0.3436  0.0094
  634SOL    HW1 1901   0.570   1.990   0.971 -0.8077 -0.4469 -1.9524
  634SOL    HW2 1902   0.713   2.068   0.912 -0.7246 -1.1876  0.4328
  635SOL     OW 1903   0.014   2.330   3.058  0.6964 -0.0430  0.4792
  635SOL    HW1 1904  -0.052   2.360   2.985 -0.8830 -1.8148 -1.4001
  635SOL    HW2 1905   0.017   2.388   3.142 -0.7620  1.5855 -1.2484
  636SOL     OW 1906   2.275   2.726   2.046 -0.3088  0.1514 -0.9488
  636SOL    HW1 1907   2.245   2.826   2.050  0.4576  0.4421  0.8989
  636SOL    HW2 1908   2.253   2.675   2.127  2.2106  1.3772 -1.0198
  637SOL     OW 1909   2.593   0.702   2.049  0.2265  0.2242  0.1828
  637SOL    HW1 1910   2.545   0.720   1.959 -0.0356 -0.9947  0.9236
  637SOL    HW2 1911   2.646   0.780   2.085 -1.5398  0.1435  0.8956
  638SOL     OW 1912   2.419   1.850   1.279  0.2563 -0.2905  0.4301
  638SOL    HW1 1913   2.313   1.855   1.304 -1.2816 -1.0441 -0.2872
  638SOL    HW2 1914   2.469   1.784   1.345  0.6951 -0.7389  0.5399
  639SOL     OW 1915   1.306   2.208   1.661 -0.3911 -0.7053 -1.0739
  639SOL    HW1 1916   1.311   2.158   1.568 -0.1169  0.2472 -0.6480
  639SOL    HW2 1917   1.221   2.185   1.721 -0.7930  1.4623  0.0433
  640SOL     OW 1918   0.199   1.182   1.561  0.4712 -0.1077  0.0172
  640SOL    HW1 1919   0.179   1.236   1.651  1.2013  0.4050 -0.2237
  640SOL    HW2 1920   0.296   1.149   1.546 -0.8638 -4.2742  1.8155
  641SOL     OW 1921   2.046   0.086   1.506 -0.3131 -0.2374 -0.0713
  641SOL    HW1 1922   2.014   0.094   1.604  1.7905 -2.4880  0.7609
  641SOL    HW2 1923   2.113   0.004   1.494  1.2616 -0.1950 -1.5690
  642SOL     OW 1924   1.971   0.106   0.292  0.0183 -0.2990  0.1450
  642SOL    HW1 1925   2.062   0.126   0.349  0.7373  1.3552 -0.0092
  642SOL    HW2 1926   1.885   0.140   0.341  1.5011 -0.4961  0.2261
  643SOL     OW 1927   2.879   1.893   2.062 -0.6775  0.1710 -0.1240
  643SOL    HW1 1928   2.823   1.810   2.028 -1.0881 -1.8436  1.7884
  643SOL    HW2 1929   2.868   1.973   1.995 -0.7967  2.4069 -0.6784
  644SOL     OW 1930   2.242   2.332   1.185 -0.6825 -0.3363 -0.1821
  644SOL    HW1 1931   2.311   2.268   1.150 -1.9112  1.3956  2.0442
  644SOL    HW2 1932   2.210   2.320   1.281  1.4407 -0.6579 -3.3668
  645SOL     OW 1933   0.637   0.872   1.192 -0.1095 -0.3403  0.1671
  645SOL    HW1 1934   0.544   0.831   1.179 -0.3115 -2.6201  0.5157
  645SOL    HW2 1935   0.682   0.905   1.101  1.6977  0.4909 -0.9970
  646SOL     OW 1936   1.446   1.926   1.854  0.1840  0.5529 -0.3528
  646SOL    HW1 1937   1.532   1.987   1.873  0.3177 -1.6365  0.9847
  646SOL    HW2 1938   1.365   1.959   1.906  0.4279 -0.8528 -0.8549
  647SOL     OW 1939   0.839   1.012   0.658  0.5142 -0.1642  1.0208
  647SOL    HW1 1940   0.897   1.045   0.735  0.8476 -0.3209 -0.7698
  647SOL    HW2 1941   0.778   0.932   0.685  0.3481  0.9067 -1.0347
  648SOL     OW 1942   0.131   0.182   0.245 -0.4399  0.2783  0.1509
  648SOL    HW1 1943   0.154   0.111   0.171 -1.0237 -1.6554 -0.2445
  648SOL    HW2 1944   0.123   0.277   0.211 -1.6012 -2.5056 -0.4456
  649SOL     OW 1945   3.062   0.191   0.909 -0.0590 -0.7536  0.4220
  649SOL    HW1 1946   3.118   0.254   0.848 -0.5405 -0.8250 -0.4193
  649SOL    HW2 1947   3.064   0.225   1.006  3.9235 -1.1491 -0.2248
  650SOL     OW 1948   2.718   0.691   1.437 -0.0703  0.1471  0.2995
  650SOL    HW1 1949   2.622   0.683   1.473 -0.1658  2.4090 -1.8802
  650SOL    HW2 1950   2.714   0.765   1.362  2.2851  0.0069 -4.0695
  651SOL     OW 1951   0.947   1.575   1.629 -0.1377  0.2920  0.5142
  651SOL    HW1 1952   0.959   1.678   1.643 -0.8565 -2.7301 -0.7076
  651SOL    HW2 1953   0.967   1.552   1.531 -1.2769  0.6920  0.4262
  652SOL     OW 1954   2.270   2.514   2.502  0.1383  0.3481 -0.3191
  652SOL    HW1 1955   2.191   2.472   2.561 -0.3236 -0.0761 -1.4031
  652SOL    HW2 1956   2.233   2.572   2.423 -2.4826  2.9595  0.9677
  653SOL     OW 1957   2.732   1.179   0.200  0.0484 -0.2077  0.7098
  653SOL    HW1 1958   2.771   1.269   0.226  0.1991  0.3082 -0.5889
  653SOL    HW2 1959   2.803   1.105   0.230  0.0813  0.6709  3.3327
  654SOL     OW 1960   1.247   2.253   1.232 -0.2944 -0.2941 -0.1283
  654SOL    HW1 1961   1.281   2.201   1.316  0.4283 -0.5179  2.2259
  654SOL    HW2 1962   1.304   2.242   1.145  0.7870  1.6522 -0.6331
  655SOL     OW 1963   0.214   0.938   1.856 -0.4140  0.0371  0.0414
  655SOL    HW1 1964   0.221   0.862   1.790  0.9394  0.5865 -0.6113
  655SOL    HW2 1965   0.302   0.993   1.865  0.6348 -1.4322 -2.2154
  656SOL     OW 1966   2.531   2.502   2.597 -0.3680 -0.1364  0.6638
  656SOL    HW1 1967   2.618   2.485   2.534  0.0918 -1.6741 -3.4297
  656SOL    HW2 1968   2.444   2.517   2.543 -2.0753  0.7745 -1.7684
  657SOL     OW 1969   3.084   1.055   1.902  0.4371  0.6632 -0.0659
  657SOL    HW1 1970   3.089   1.158   1.930  1.8888  3.0843 -0.5058
  657SOL    HW2 1971   3.178   1.011   1.887  0.6943 -1.7740 -2.6149
  658SOL     OW 1972   1.691   0.229   2.409 -0.6041  0.1227 -0.3937
  658SOL    HW1 1973   1.724   0.153   2.475 -1.7957 -0.3420  2.0013
  658SOL    HW2 1974   1.708   0.193   2.312  0.4667 -1.5428 -0.6413
  659SOL     OW 1975   1.454   0.644   2.919 -0.0518 -0.3360 -0.3525
  659SOL    HW1 1976   1.511   0.730   2.941 -1.6674  0.3839 -1.0891
  659SOL    HW2 1977   1.358   0.662   2.880 -0.7292  0.2938 -0.6278
  660SOL     OW 1978   1.437   0.346   1.449 -0.1086  0.3475 -0.1588
  660SOL    HW1 1979   1.493   0.340   1.537  1.6251 -0.1004 -0.4642
  660SOL    HW2 1980   1.495   0.330   1.362 -1.0136  2.1571  0.9632
  661SOL     OW 1981   2.498   1.149   0.665  0.1218  0.1392 -0.3585
  661SOL    HW1 1982   2.522   1.161   0.568  1.0929  0.3194  0.8697
  661SOL    HW2 1983   2.451   1.233   0.702  1.6314  0.9771  1.7860
  662SOL     OW 1984   1.343   0.422   1.839 -0.3750  0.2193  0.1865
  662SOL    HW1 1985   1.300   0.328   1.815 -0.6599 -0.7369 -0.1225
  662SOL    HW2 1986   1.312   0.456   1.934  1.2141  0.5480  1.8491
  663SOL     OW 1987   0.812   1.580   2.142  0.0229  0.3171 -0.0328
  663SOL    HW1 1988   0.797   1.674   2.175 -0.1148  1.3882 -0.0995
  663SOL    HW2 1989   0.736   1.539   2.085  2.2650 -0.9518  2.0558
  664SOL     OW 1990   1.640   2.100   1.457  0.4466 -0.0735 -0.2529
  664SOL    HW1 1991   1.600   2.019   1.511 -0.1807 -0.6223 -0.4885
  664SOL    HW2 1992   1.738   2.093   1.427  0.4562 -0.9565  0.9021
  665SOL     OW 1993   2.227   0.662   1.988 -0.3103 -0.2378  1.0193
  665SOL    HW1 1994   2.245   0.558   2.004 -0.4822  0.1691  0.6407
  665SOL    HW2 1995   2.210   0.720   2.074  0.5942 -0.2291 -0.1201
  666SOL     OW 1996   0.410   2.372   0.443  0.1374  0.3160  0.1570
  666SOL    HW1 1997   0.499   2.429   0.466  2.1885 -0.8839 -1.0346
  666SOL    HW2 1998   0.384   2.304   0.515  2.1263  1.4229 -2.4481
  667SOL     OW 1999   1.980   0.193   1.114 -0.3509 -0.5600 -0.7205
  667SOL    HW1 2000   2.000   0.292   1.144 -0.6572  2.2335 -0.2409
  667SOL    HW2 2001   1.926   0.133   1.178 -0.1707 -1.5921 -0.7846
  668SOL     OW 2002   1.996   0.494   1.160 -0.1227  0.7642 -0.2726
  668SOL    HW1 2003   2.073   0.510   1.086 -0.4017 -0.5943  1.7219
  668SOL    HW2 2004   2.035   0.467   1.251 -0.4594  3.6197  0.7618
  669SOL     OW 2005   3.013   2.276   0.984 -0.1327 -0.1602 -0.2983
  669SOL    HW1 2006   2.972   2.241   0.899  1.6460  2.8653  0.4256
  669SOL    HW2 2007   2.966   2.262   1.074  2.4483  0.5970 -0.4953
  670SOL     OW 2008   2.873   2.346   1.986  0.3647 -0.6192  0.4087
  670SOL    HW1 2009   2.815   2.317   2.065 -1.3827  1.2375 -1.1980
  670SOL    HW2 2010   2.861   2.451   1.972  1.6984  0.2139 -1.1226
  671SOL     OW 2011   1.803   1.775   1.447 -0.0751  0.5334 -0.4946
  671SOL    HW1 2012   1.807   1.767   1.344 -1.1541 -0.0335 -3.3014
  671SOL    HW2 2013   1.712   1.742   1.482  2.0401  1.3349  2.4302
  672SOL     OW 2014   0.396   0.586   2.386  0.6766 -0.3353  0.0551
  672SOL    HW1 2015   0.450   0.633   2.317 -1.5916 -0.8963  0.9270
  672SOL    HW2 2016   0.315   0.638   2.424 -0.0187 -0.8511  1.3723
  673SOL     OW 2017   0.148   1.183   1.128  0.1928 -0.0277  0.2251
  673SOL    HW1 2018   0.178   1.270   1.177  0.4371  1.0068  0.0334
  673SOL    HW2 2019   0.225   1.118   1.106 -1.6090  1.4824 -0.7108
  674SOL     OW 2020   1.593   2.910   0.181  0.0837 -0.1459 -0.5514
  674SOL    HW1 2021   1.624   2.995   0.130 -1.6617  1.1955 -2.3436
  674SOL    HW2 2022   1.649   2.821   0.160  0.6833 -3.8424 -1.6120
  675SOL     OW 2023   1.669   0.856   2.274 -0.3778 -0.4708  0.0922
  675SOL    HW1 2024   1.759   0.814   2.245 -0.1306  0.4870 -2.2721
  675SOL    HW2 2025   1.581   0.815   2.249  0.8571  2.7075  1.5142
  676SOL     OW 2026   2.494   1.547   2.023  0.3379  0.5486 -0.5002
  676SOL    HW1 2027   2.486   1.480   1.943  1.1582  2.3813  1.1017
  676SOL    HW2 2028   2.536   1.500   2.108  0.4775  1.5041  1.9050
  677SOL     OW 2029   1.902   0.658   0.874 -0.4134 -0.3481  0.6449
  677SOL    HW1 2030   1.950   0.684   0.959 -0.8375 -0.8225  1.8052
  677SOL    HW2 2031   1.891   0.555   0.875  1.2646 -1.3482  2.7041
  678SOL     OW 2032   0.039   0.740   1.658 -0.2069 -0.4793 -0.0001
  678SOL    HW1 2033   0.143   0.728   1.660 -1.4355 -2.3530  0.7590
  678SOL    HW2 2034  -0.012   0.758   1.750 -1.2191  0.4254  0.2789
  679SOL     OW 2035   2.570   1.151   1.128 -0.8024 -0.3688 -0.3592
  679SOL    HW1 2036   2.493   1.199   1.180  0.0902  2.3157 -0.4829
  679SOL    HW2 2037   2.554   1.051   1.116  1.8796  0.1678 -0.1758
  680SOL     OW 2038   2.818   0.629   1.680  0.3912 -0.1097 -0.7864
  680SOL    HW1 2039   2.780   0.663   1.589 -2.5317 -1.2852 -0.3471
  680SOL    HW2 2040   2.845   0.703   1.746  0.9529 -2.1405  0.6558
  681SOL     OW 2041   2.990   0.131   1.612 -0.0215  0.0366  0.4603
  681SOL    HW1 2042   3.069   0.124   1.537  3.3631  0.1790  0.8975
  681SOL    HW2 2043   2.933   0.217   1.595 -0.6666  0.5930  0.5364
  682SOL     OW 2044   0.789   0.071   1.328  0.1662  0.4311  0.2415
  682SOL    HW1 2045   0.728   0.009   1.386  0.0835 -1.2912  0.8060
  682SOL    HW2 2046   0.809   0.034   1.232 -3.8642  0.3273 -1.8210
  683SOL     OW 2047   1.344   0.241   2.158 -0.0555  0.6884 -0.0319
  683SOL    HW1 2048   1.298   0.311   2.216  0.7713  3.8071 -1.5235
  683SOL    HW2 2049   1.441   0.272   2.133  0.0038 -1.0520 -0.4401
  684SOL     OW 2050   1.463   2.176   0.565 -0.5451  0.2147 -0.6643
  684SOL    HW1 2051   1.534   2.114   0.609 -0.5750  0.2871  1.0314
  684SOL    HW2 2052   1.375   2.126   0.544 -0.9293 -1.1172 -1.9762
  685SOL     OW 2053   2.208   1.995   1.911  0.3570  0.0173 -0.1087
  685SOL    HW1 2054   2.243   2.046   1.825  1.4132 -1.1931  0.7527
  685SOL    HW2 2055   2.279   1.928   1.940  1.0728 -0.4267  0.0327
  686SOL     OW 2056   1.509   1.760   2.738  0.2328 -0.3613 -0.6709
  686SOL    HW1 2057   1.543   1.717   2.822 -0.1348 -1.7711 -3.6577
  686SOL    HW2 2058   1.578   1.758   2.664 -2.7724  2.6957 -2.0583
  687SOL     OW 2059   1.277   2.510   1.929  0.1160  0.4410 -0.3067
  687SOL    HW1 2060   1.313   2.408   1.911  3.7263 -2.3736  0.8695
  687SOL    HW2 2061   1.325   2.554   2.011  0.4461  1.0096 -1.2230
  688SOL     OW 2062   2.102   1.536   1.732 -0.6120 -0.7973 -0.1523
  688SOL    HW1 2063   2.201   1.573   1.735  2.4665 -0.8211 -0.7650
  688SOL    HW2 2064   2.068   1.497   1.640 -1.7116  0.7743 -0.6880
  689SOL     OW 2065   2.483   1.095   2.723 -0.0181 -0.0741  0.1470
  689SOL    HW1 2066   2.382   1.109   2.719 -1.9248  3.8769 -1.1159
  689SOL    HW2 2067   2.517   1.061   2.812  1.6581  1.5305 -1.9948
  690SOL     OW 2068   2.229   2.764   0.067 -0.6896 -0.6168  0.2827
  690SOL    HW1 2069   2.157   2.738  -0.003  0.0430  0.7392  2.6196
  690SOL    HW2 2070   2.198   2.805   0.157 -1.3828 -1.3839  0.1259
  691SOL     OW 2071   2.565   0.417   2.103 -0.1816 -0.7512 -0.4268
  691SOL    HW1 2072   2.631   0.342   2.072 -0.5751 -0.3998 -0.6814
  691SOL    HW2 2073   2.605   0.511   2.092 -0.1107  0.4507  0.5663
  692SOL     OW 2074   2.770   1.211   0.711 -0.1936  0.0865 -0.1255
  692SOL    HW1 2075   2.667   1.189   0.696 -1.2753  0.7178  0.6339
  692SOL    HW2 2076   2.793   1.310   0.714 -1.6661 -1.4216  0.8678
  693SOL     OW 2077   2.815   2.978   0.676  0.5816  0.4165  0.2359
  693SOL    HW1 2078   2.823   3.079   0.704 -0.6190  0.3881 -0.7043
  693SOL    HW2 2079   2.770   2.966   0.579  2.4803 -1.4127  0.1314
  694SOL     OW 2080   2.433   2.230   0.084 -0.0652  0.2500 -0.1204
  694SOL    HW1 2081   2.385   2.322   0.090  0.7933 -0.6460 -0.7802
  694SOL    HW2 2082   2.369   2.146   0.059 -0.3218 -1.4735 -2.5973
  695SOL     OW 2083   0.637   2.975   1.475  0.1556  0.0382 -0.2810
  695SOL    HW1 2084   0.604   2.897   1.417 -0.9816  0.2070 -1.1286
  695SOL    HW2 2085   0.593   2.980   1.569 -2.8707  0.5603 -0.1123
  696SOL     OW 2086   2.724   1.913   0.728 -0.6951  0.0624  0.0912
  696SOL    HW1 2087   2.742   1.834   0.795  0.7968 -0.5589 -2.0325
  696SOL    HW2 2088   2.647   1.896   0.661 -0.4227 -0.9796 -3.9517
  697SOL     OW 2089   1.666   2.075   1.862  0.0992  0.2118  0.1263
  697SOL    HW1 2090   1.755   2.028   1.894  0.6218 -0.1770 -2.3141
  697SOL    HW2 2091   1.697   2.155   1.810  1.5412 -2.3756 -1.1636
  698SOL     OW 2092   2.942   0.372   2.739 -0.4845 -0.4028  0.2186
  698SOL    HW1 2093   2.916   0.304   2.664  0.8225 -0.4462 -1.1293
  698SOL    HW2 2094   2.975   0.326   2.821  0.6031  1.2994 -3.6136
  699SOL     OW 2095   1.542   0.043   2.951 -0.4096  0.4137  0.0978
  699SOL    HW1 2096   1.515  -0.048   2.911  0.8068 -0.8801 -2.1288
  699SOL    HW2 2097   1.584   0.100   2.873 -1.2098  0.8944 -2.5868
  700SOL     OW 2098   0.988   2.325   1.302 -0.2042 -0.3957  0.0609
  700SOL    HW1 2099   1.071   2.278   1.267  0.1191  2.3458 -0.7067
  700SOL    HW2 2100   0.902   2.273   1.267 -0.0581 -2.3768 -0.0786
  701SOL     OW 2101   1.933   2.829   3.091  0.1388 -0.1178  1.0678
  701SOL    HW1 2102   1.912   2.772   3.177  0.8612  0.1808  0.2269
  701SOL    HW2 2103   1.968   2.922   3.119 -0.4589 -1.4682  0.2793
  702SOL     OW 2104   2.089   1.333   1.912  0.3453  0.6467 -0.0770
  702SOL    HW1 2105   2.135   1.242   1.894 -0.6195  0.1650  1.5123
  702SOL    HW2 2106   2.096   1.403   1.831 -2.5051 -1.0776  1.4275
  703SOL     OW 2107   1.939   0.851   1.396 -0.5733 -0.8126 -0.0277
  703SOL    HW1 2108   1.931   0.757   1.443  0.6690  1.0194  1.1314
  703SOL    HW2 2109   1.984   0.922   1.458 -0.4683 -0.2091 -1.4015
  704SOL     OW 2110   0.308   2.061   1.663 -0.3699  0.0699 -0.7180
  704SOL    HW1 2111   0.351   2.026   1.754 -1.8260 -1.6542  2.9338
  704SOL    HW2 2112   0.370   2.124   1.609 -1.8076  1.8286  0.8125
  705SOL     OW 2113   2.522   1.394   0.945 -0.0537  0.1114  0.0008
  705SOL    HW1 2114   2.467   1.383   0.861  0.5021  0.2848  2.7749
  705SOL    HW2 2115   2.558   1.303   0.982  2.4209  0.7673 -0.7200
  706SOL     OW 2116   0.657   1.755   1.832 -0.8406  0.1855 -0.1227
  706SOL    HW1 2117   0.654   1.655   1.851  3.5779  0.7669  1.4878
  706SOL    HW2 2118   0.697   1.806   1.916  1.1492 -0.6455  2.8199
  707SOL     OW 2119   2.229   1.099   1.895 -0.0843 -0.3044 -0.0611
  707SOL    HW1 2120   2.331   1.085   1.912 -0.0560 -0.2129 -0.3249
  707SOL    HW2 2121   2.192   1.027   1.836  2.6612  2.4968  0.5612
  708SOL     OW 2122   2.963   0.515   3.042  0.1041  0.3580  0.1115
  708SOL    HW1 2123   2.988   0.579   2.959 -0.8260  2.9734 -0.4283
  708SOL    HW2 2124   3.004   0.419   3.022 -0.9880  1.3489  0.8732
  709SOL     OW 2125   1.777   1.902   0.242  0.3001  0.0398  0.2267
  709SOL    HW1 2126   1.837   1.983   0.277  0.9047  1.0338  3.2369
  709SOL    HW2 2127   1.807   1.858   0.154  0.3220 -0.7216  2.7027
  710SOL     OW 2128   1.676   1.601   2.410  0.2086 -0.6572 -0.5715
  710SOL    HW1 2129   1.736   1.578   2.330 -0.7802 -1.2972  1.7238
  710SOL    HW2 2130   1.708   1.544   2.490 -1.2310  1.8564 -2.7171
  711SOL     OW 2131   2.634   2.948   0.969  0.8323 -0.4290  0.4988
  711SOL    HW1 2132   2.609   3.046   0.939  0.7731  0.0891 -2.2226
  711SOL    HW2 2133   2.733   2.925   0.945 -0.7095  1.3470 -2.2849
  712SOL     OW 2134   1.410   2.265   1.923  0.7639 -0.0808 -0.7001
  712SOL    HW1 2135   1.499   2.263   1.974  0.1749  0.8538 -1.7542
  712SOL    HW2 2136   1.401   2.199   1.845 -2.6344 -0.0853 -1.1030
  713SOL     OW 2137   2.852   1.513   2.549 -1.0230  0.3015 -0.3371
  713SOL    HW1 2138   2.850   1.418   2.507  0.4888 -0.0797 -0.3292
  713SOL    HW2 2139   2.782   1.515   2.624 -0.0732  3.8492 -0.6043
  714SOL     OW 2140   2.680   0.477   2.368  0.3261 -0.2113  0.8990
  714SOL    HW1 2141   2.638   0.446   2.455 -0.9843 -0.4034 -0.8639
  714SOL    HW2 2142   2.628   0.459   2.284  4.2119 -0.4533  0.3968
  715SOL     OW 2143   1.595   2.035   1.179 -0.3271  0.3121 -0.6602
  715SOL    HW1 2144   1.545   2.101   1.117  1.3292 -0.5012  0.7132
  715SOL    HW2 2145   1.600   2.060   1.278  2.8626 -1.3582  0.0834
  716SOL     OW 2146   1.202   0.203   1.517  0.2645  0.5029  0.0483
  716SOL    HW1 2147   1.112   0.217   1.466 -2.0082  1.0961  1.3251
  716SOL    HW2 2148   1.280   0.266   1.485 -0.7798  2.6674  1.7371
  717SOL     OW 2149   1.121   0.601   1.625 -0.4848  0.0179 -0.1166
  717SOL    HW1 2150   1.228   0.597   1.631 -0.0481 -2.2240 -2.3783
  717SOL    HW2 2151   1.092   0.567   1.529  3.0255 -0.5800 -2.8447
  718SOL     OW 2152   0.731   0.964   0.960  0.2918  0.5079 -0.1060
  718SOL    HW1 2153   0.694   0.946   0.862 -2.4547 -0.7913 -1.2294
  718SOL    HW2 2154   0.708   1.066   0.987 -0.6908  3.5769 -1.8174
  719SOL     OW 2155   0.700   1.811   2.283  0.4566 -0.2815 -0.4236
  719SOL    HW1 2156   0.761   1.819   2.373  2.9556 -1.4030  1.8566
  719SOL    HW2 2157   0.599   1.790   2.303  0.4325 -1.4155 -1.8907
  720SOL     OW 2158   2.183   1.150   0.234  0.2560 -0.2958 -0.1432
  720SOL    HW1 2159   2.250   1.081   0.192  0.8261  2.1075  0.1081
  720SOL    HW2 2160   2.183   1.137   0.340  2.5755 -1.2155  1.0288
  721SOL     OW 2161   2.297   3.002   2.093  0.1386  0.4845  0.2968
  721SOL    HW1 2162   2.261   3.030   1.999  1.0251 -0.4415 -0.0955
  721SOL    HW2 2163   2.256   3.049   2.172 -1.5475  3.5480 -1.5436
  722SOL     OW 2164   2.373   1.605   0.593  0.2666  0.0968 -0.1047
  722SOL    HW1 2165   2.354   1.587   0.490 -4.9562 -1.6596 -1.5585
  722SOL    HW2 2166   2.340   1.698   0.623 -4.1443 -0.6983  0.0145
  723SOL     OW 2167   2.550   2.685   2.003  0.0759  0.5127 -0.6370
  723SOL    HW1 2168   2.595   2.746   2.076  2.6108 -0.2851  0.3069
  723SOL    HW2 2169   2.449   2.702   1.999  2.3123  0.0813 -1.7792
  724SOL     OW 2170   0.537   2.470   2.424  0.0907  0.1127 -0.4063
  724SOL    HW1 2171   0.438   2.482   2.451 -0.7808  0.0760  0.4974
  724SOL    HW2 2172   0.601   2.496   2.498  1.0560 -1.5435  1.0071
  725SOL     OW 2173   2.438   2.767   1.534  0.6377 -0.5740  0.5426
  725SOL    HW1 2174   2.478   2.768   1.435 -1.2815  0.9890 -0.5003
  725SOL    HW2 2175   2.396   2.674   1.563 -0.3127 -2.0776 -0.7827
  726SOL     OW 2176   2.371   2.232   0.677 -0.0279  0.1240 -0.7499
  726SOL    HW1 2177   2.384   2.328   0.638  0.0890  2.0254 -2.1040
  726SOL    HW2 2178   2.376   2.158   0.605 -3.4144  2.8465  1.5979
  727SOL     OW 2179   0.165   3.082   0.051  0.5802  0.0588  0.0525
  727SOL    HW1 2180   0.238   3.014   0.071 -2.2297  0.9735  0.5655
  727SOL    HW2 2181   0.123   3.071  -0.040 -0.6733  0.3021 -0.2091
  728SOL     OW 2182   2.871   0.661   0.969 -0.2337  0.2540 -0.0346
  728SOL    HW1 2183   2.780   0.664   0.918 -0.4250 -0.2956  0.8334
  728SOL    HW2 2184   2.845   0.612   1.059 -0.4373 -1.4181  1.7009
  729SOL     OW 2185   2.966   2.463   0.744 -0.4081 -0.6990 -0.2772
  729SOL    HW1 2186   2.900   2.382   0.731 -0.3622 -0.0092 -0.9333
  729SOL    HW2 2187   3.064   2.426   0.768  3.8137 -0.5961  0.1731
  730SOL     OW 2188   2.602   0.622   0.864 -0.1655  0.3264 -0.3052
  730SOL    HW1 2189   2.559   0.702   0.821  0.0947 -3.9237  0.9506
  730SOL    HW2 2190   2.662   0.571   0.799 -0.9976 -1.3489  2.6226
  731SOL     OW 2191   0.119   2.133   2.435 -0.3249 -0.3302  0.3848
  731SOL    HW1 2192   0.118   2.154   2.535  0.2273 -0.5989 -1.9893
  731SOL    HW2 2193   0.099   2.209   2.373  0.4900  0.3760 -0.8608
  732SOL     OW 2194   1.093   2.888   1.913  0.1901  0.0139  0.0141
  732SOL    HW1 2195   1.120   2.873   2.012 -0.1501  0.6205  1.0584
  732SOL    HW2 2196   1.121   2.814   1.844 -0.1925  0.3507  1.2272
  733SOL     OW 2197   3.067   0.630   2.193  0.3653 -0.0119 -0.4078
  733SOL    HW1 2198   3.123   0.696   2.130  1.2888  2.5443 -3.5616
  733SOL    HW2 2199   3.009   0.567   2.139  0.4181  1.3539 -1.8417
  734SOL     OW 2200   1.412   0.397   2.767 -0.0740  0.2832  0.4680
  734SOL    HW1 2201   1.431   0.488   2.809 -0.7231 -0.7988  1.3013
  734SOL    HW2 2202   1.320   0.353   2.800 -1.3358  0.8514 -0.4915
  735SOL     OW 2203   2.927   2.595   2.251  0.0615 -0.3400  0.6805
  735SOL    HW1 2204   2.902   2.605   2.152 -2.2775 -1.8317  0.4884
  735SOL    HW2 2205   3.031   2.577   2.271  2.7547  2.0747  1.1942
  736SOL     OW 2206   0.709   0.345   2.651 -0.3998  0.9488 -1.1383
  736SOL    HW1 2207   0.636   0.415   2.636  1.5781  1.4487  0.3481
  736SOL    HW2 2208   0.744   0.318   2.563 -3.3433  3.5516  2.1029
  737SOL     OW 2209   2.654   0.399   2.848 -0.4415  0.5876 -0.4526
  737SOL    HW1 2210   2.623   0.388   2.948  0.7285 -2.2183  1.2812
  737SOL    HW2 2211   2.726   0.327   2.822  2.4399  0.7911 -0.2984
  738SOL     OW 2212   1.599   1.237   2.908 -0.0050  0.1441 -0.0192
  738SOL    HW1 2213   1.697   1.215   2.916 -3.5932 -0.4965 -1.3180
  738SOL    HW2 2214   1.559   1.181   2.830  1.2712  1.8914 -1.1257
  739SOL     OW 2215   1.696   0.616   0.642 -0.4932  0.6286 -0.2882
  739SOL    HW1 2216   1.738   0.611   0.735  0.8619  2.1580 -1.4081
  739SOL    HW2 2217   1.756   0.569   0.569 -0.6457 -0.0157 -0.4070
  740SOL     OW 2218   1.945   1.919   2.333  0.0508 -0.2668  0.7391
  740SOL    HW1 2219   2.013   1.840   2.328  0.7439  2.5889  0.8051
  740SOL    HW2 2220   1.873   1.917   2.257 -3.0684 -0.5571 -0.9174
  741SOL     OW 2221   2.529   0.076   2.622  0.1607  0.1313  0.3792
  741SOL    HW1 2222   2.631   0.072   2.638  0.2518  2.7604 -1.6220
  741SOL    HW2 2223   2.497   0.055   2.522 -0.5635  1.2369  0.1304
  742SOL     OW 2224   2.223   1.416   0.183  0.2381 -0.6998  0.0154
  742SOL    HW1 2225   2.168   1.492   0.224  1.5813 -2.2473 -1.6603
  742SOL    HW2 2226   2.212   1.320   0.221 -0.6210  0.1761 -0.6004
  743SOL     OW 2227   1.836   0.663   2.599 -0.8493  0.1979  0.0493
  743SOL    HW1 2228   1.808   0.595   2.524  1.7610 -1.9835 -0.8105
  743SOL    HW2 2229   1.766   0.736   2.615  1.2020 -0.7307 -2.3452
  744SOL     OW 2230   2.693   2.122   0.077 -0.1584  0.3517 -0.0244
  744SOL    HW1 2231   2.603   2.162   0.113  2.7685  0.0856  0.3593
  744SOL    HW2 2232   2.697   2.027   0.041  3.0677  1.9920  0.2277
  745SOL     OW 2233   2.163   2.661   2.296  0.0306 -0.0576  0.0724
  745SOL    HW1 2234   2.085   2.649   2.225 -1.7217  2.2609 -1.3335
  745SOL    HW2 2235   2.149   2.750   2.355 -2.9976  0.6321  1.4146
  746SOL     OW 2236   3.077   2.629   1.747  0.2302 -0.2161  0.8359
  746SOL    HW1 2237   3.154   2.635   1.678  0.6166  0.4166  0.3996
  746SOL    HW2 2238   3.036   2.722   1.768  1.0609 -0.2192 -0.8744
  747SOL     OW 2239   0.020   1.783   1.621  0.7487 -0.1816 -0.4131
  747SOL    HW1 2240  -0.041   1.703   1.599 -0.6566 -1.6209  0.7103
  747SOL    HW2 2241   0.094   1.793   1.548 -2.7023 -0.6662 -0.8939
  748SOL     OW 2242   1.865   2.758   2.839 -0.5328  0.2673  0.0509
  748SOL    HW1 2243   1.875   2.791   2.935  4.0130  1.6673 -2.6097
  748SOL    HW2 2244   1.765   2.745   2.821  0.3442  0.4306 -0.8620
  749SOL     OW 2245   1.323   3.082   0.878  0.4359 -0.0418 -0.0377
  749SOL    HW1 2246   1.253   3.005   0.901 -2.0531 -0.6408  2.9524
  749SOL    HW2 2247   1.297   3.135   0.792  3.3077  2.5258  1.2201
  750SOL     OW 2248   2.392   0.235   1.882 -0.6545 -0.1754 -0.4544
  750SOL    HW1 2249   2.391   0.297   1.798 -1.3403 -0.0298 -0.2375
  750SOL    HW2 2250   2.375   0.292   1.972  0.0508 -1.9306  0.6863
  751SOL     OW 2251   0.942   2.169   2.732 -0.1582  0.0433  0.1527
  751SOL    HW1 2252   0.924   2.146   2.831  0.8699 -1.7187 -0.6825
  751SOL    HW2 2253   0.858   2.160   2.670 -0.2527 -1.3755  0.6440
  752SOL     OW 2254   1.233   0.873   1.497 -0.0399 -0.1699  0.7527
  752SOL    HW1 2255   1.298   0.903   1.422 -1.0829  0.8608 -2.6864
  752SOL    HW2 2256   1.270   0.784   1.536 -1.2435 -1.0571  1.6538
  753SOL     OW 2257   0.955   2.580   1.698  0.3950  0.0148  0.4224
  753SOL    HW1 2258   1.035   2.632   1.668 -4.4243  2.1197 -1.5887
  753SOL    HW2 2259   0.868   2.628   1.664  0.1149  0.0230 -0.1290
  754SOL     OW 2260   1.210   1.319   3.098 -0.1104 -0.1067 -0.2332
  754SOL    HW1 2261   1.266   1.248   3.046  0.9617  0.3228  1.1421
  754SOL    HW2 2262   1.209   1.415   3.062  0.1303 -2.0677  1.5235
  755SOL     OW 2263   1.948   0.429   2.211 -0.1249 -0.0594  0.2987
  755SOL    HW1 2264   2.042   0.418   2.252 -1.9946 -0.7627  0.5301
  755SOL    HW2 2265   1.869   0.449   2.278 -1.3309  3.1780 -1.0343
  756SOL     OW 2266   2.601   0.965   2.937 -0.1259 -0.5401 -0.2757
  756SOL    HW1 2267   2.692   0.987   2.989  3.8518  1.1911 -0.2962
  756SOL    HW2 2268   2.566   0.876   2.966  0.0881 -0.1444  0.1767
  757SOL     OW 2269   3.052   0.455   1.795 -0.4959  0.5831 -0.4260
  757SOL    HW1 2270   3.145   0.497   1.792  0.0703 -0.9662 -1.6903
  757SOL    HW2 2271   3.046   0.375   1.732  0.2386  0.5405  4.3267
  758SOL     OW 2272   2.392   0.112   1.420 -0.1389 -0.2516  0.1958
  758SOL    HW1 2273   2.340   0.049   1.482 -1.5159 -0.1579 -3.4768
  758SOL    HW2 2274   2.376   0.089   1.324 -1.2865  0.6187  3.8979
  759SOL     OW 2275   1.694   0.034   0.056 -0.2987  0.0835  0.2655
  759SOL    HW1 2276   1.638   0.047  -0.032 -0.8460 -1.3359  2.7356
  759SOL    HW2 2277   1.791   0.002   0.041 -0.8169 -4.1207 -1.2907
  760SOL     OW 2278   2.749   2.079   2.822  0.2614  0.0567 -0.2263
  760SOL    HW1 2279   2.833   2.024   2.821 -1.8209 -0.3396 -1.3336
  760SOL    HW2 2280   2.739   2.142   2.903 -1.1063  0.4591 -0.3280
  761SOL     OW 2281   1.941   1.762   1.686  0.7304 -0.1834 -0.1227
  761SOL    HW1 2282   1.981   1.665   1.705  2.1064 -1.8335 -1.0814
  761SOL    HW2 2283   1.885   1.767   1.600  0.2763  1.0942 -2.4344
  762SOL     OW 2284   0.467   2.333   0.973  0.1525  0.5110 -0.4238
  762SOL    HW1 2285   0.488   2.369   0.880  0.5215  0.4495 -1.1028
  762SOL    HW2 2286   0.480   2.406   1.049  0.4333 -0.9125  3.6315
  763SOL     OW 2287   2.102   1.526   2.959  0.0840  0.5264  0.2967
  763SOL    HW1 2288   2.177   1.460   2.993 -1.2798 -0.1453 -0.5468
  763SOL    HW2 2289   2.015   1.518   3.020  1.7735 -0.3744  1.6272
  764SOL     OW 2290   0.661   0.596   0.839  0.2170 -0.1920  0.5154
  764SOL    HW1 2291   0.587   0.523   0.831  0.8738 -1.6419 -0.0679
  764SOL    HW2 2292   0.758   0.563   0.856  0.0311  3.7902  0.5632
  765SOL     OW 2293   0.716   0.218   0.831 -0.3164 -0.7137  0.4402
  765SOL    HW1 2294   0.767   0.289   0.777 -1.3253  2.8169  1.5988
  765SOL    HW2 2295   0.689   0.255   0.924 -0.8566 -0.9906 -0.2696
  766SOL     OW 2296   2.962   2.088   3.086  0.1169 -0.2135  0.0636
  766SOL    HW1 2297   2.872   2.123   3.133 -0.5141  0.7983  1.4503
  766SOL    HW2 2298   3.018   2.167   3.052  1.0467 -1.8464  2.0004
  767SOL     OW 2299   2.856   1.564   0.543  0.0152  0.1123  0.0726
  767SOL    HW1 2300   2.774   1.574   0.605 -1.9164 -0.5867 -3.1799
  767SOL    HW2 2301   2.933   1.635   0.560  3.4038  0.8019  2.7770
  768SOL     OW 2302   1.084   0.221   0.348 -0.2767  0.3554  0.4574
  768SOL    HW1 2303   0.998   0.176   0.386  2.0996  2.4625  0.5215
  768SOL    HW2 2304   1.158   0.156   0.329  0.2775  1.1513 -0.4363
  769SOL     OW 2305   1.115   1.897   2.245  0.2359 -0.2441  0.6252
  769SOL    HW1 2306   1.069   1.897   2.339  2.5435  0.9953  1.0912
  769SOL    HW2 2307   1.105   1.799   2.209  0.0174  3.6507  0.2266
  770SOL     OW 2308   0.128   1.250   2.238 -0.2139  0.6630  0.6721
  770SOL    HW1 2309   0.101   1.256   2.337 -0.4778  0.9715  0.2611
  770SOL    HW2 2310   0.043   1.228   2.177 -1.3281  0.5311  0.1438
  771SOL     OW 2311   2.939   2.833   1.880  0.0231 -0.1105  0.0248
  771SOL    HW1 2312   2.885   2.879   1.798  1.4366  0.3303 -1.4315
  771SOL    HW2 2313   2.946   2.898   1.961  0.8782  3.7167 -2.9196
  772SOL     OW 2314   2.173   0.102   2.970 -0.1436 -0.0950  0.3128
  772SOL    HW1 2315   2.271   0.073   2.949 -0.6665  1.5662 -0.2700
  772SOL    HW2 2316   2.169   0.199   3.001 -0.5569 -0.9109 -1.0101
  773SOL     OW 2317   0.731   2.155   2.508  0.1595 -0.9828 -0.0450
  773SOL    HW1 2318   0.710   2.177   2.412  0.2515 -2.0576  2.0793
  773SOL    HW2 2319   0.644   2.145   2.565  0.3854  1.0361 -0.3436
  774SOL     OW 2320   2.028   0.029   2.668  0.2897 -0.4312  0.0610
  774SOL    HW1 2321   2.059   0.124   2.709  0.0045 -0.2659  1.9370
  774SOL    HW2 2322   2.081  -0.044   2.718  0.8462 -2.4839  2.2825
  775SOL     OW 2323   2.531   2.801   2.482 -0.2630  0.1834  0.5050
  775SOL    HW1 2324   2.512   2.901   2.466  2.0807 -1.4750  0.4181
  775SOL    HW2 2325   2.633   2.779   2.471 -0.0500  1.2738  0.9678
  776SOL     OW 2326   0.066   1.262   0.226 -0.0329 -0.0690  0.1414
  776SOL    HW1 2327   0.021   1.254   0.135  0.4394 -1.1575 -0.6604
  776SOL    HW2 2328   0.009   1.257   0.314 -0.8835  1.3497  3.0843
  777SOL     OW 2329   0.248   2.802   0.479 -0.1771 -0.9924  0.1324
  777SOL    HW1 2330   0.157   2.809   0.431 -0.9145 -1.7728  2.1945
  777SOL    HW2 2331   0.275   2.890   0.531  2.1464 -1.4821 -1.3010
  778SOL     OW 2332   1.365   1.961   0.157  0.2068  0.3405  0.0766
  778SOL    HW1 2333   1.304   1.972   0.241  0.8391  1.7736  0.8892
  778SOL    HW2 2334   1.361   2.044   0.095 -1.4283  1.4095 -0.1800
  779SOL     OW 2335   0.189   0.815   0.494  0.0580 -0.6598  0.1863
  779SOL    HW1 2336   0.153   0.722   0.466  0.2020  0.2906 -0.1943
  779SOL    HW2 2337   0.133   0.866   0.566  0.2654 -0.6105 -1.4011
  780SOL     OW 2338   0.046   0.259   2.264 -0.2509  0.2235  0.7661
  780SOL    HW1 2339  -0.001   0.341   2.308  0.4886  2.6497  1.5194
  780SOL    HW2 2340   0.140   0.274   2.218  1.1083  0.1025  1.0206
  781SOL     OW 2341   0.661   1.731   1.565  0.0951 -0.3205  0.0848
  781SOL    HW1 2342   0.678   1.758   1.662 -0.2503 -1.4359 -1.8201
  781SOL    HW2 2343   0.591   1.653   1.573 -0.5048  1.8015 -0.1765
  782SOL     OW 2344   2.579   0.144   0.903  0.0816  0.4158 -0.4927
  782SOL    HW1 2345   2.504   0.167   0.834  0.7132 -1.3026  1.0858
  782SOL    HW2 2346   2.563   0.178   0.998  1.4175 -0.6511  0.9144
  783SOL     OW 2347   2.817   0.653   2.517  0.1501 -0.3928  0.1584
  783SOL    HW1 2348   2.782   0.646   2.615  0.2827 -0.8468  1.3763
  783SOL    HW2 2349   2.773   0.597   2.445 -1.9905  1.6988 -0.2602
  784SOL     OW 2350   1.380   2.219   0.048 -0.1840  0.5563 -0.1315
  784SOL    HW1 2351   1.458   2.265   0.097  1.1120 -2.3932 -1.4178
  784SOL    HW2 2352   1.379   2.233  -0.054 -0.4358  0.4353  2.6973
  785SOL     OW 2353   2.189   0.365   3.074  0.3532  0.1568  0.0027
  785SOL    HW1 2354   2.095   0.359   3.127 -0.1088  0.5062 -1.1062
  785SOL    HW2 2355   2.197   0.462   3.031  1.0814  2.7296  0.5509
  786SOL     OW 2356   2.052   2.162   2.196  0.4362 -0.7109 -0.0248
  786SOL    HW1 2357   2.025   2.083   2.257 -1.7971 -2.2876 -3.0163
  786SOL    HW2 2358   2.125   2.137   2.135 -2.4252 -0.3959  1.7535
  787SOL     OW 2359   1.415   0.615   0.884 -0.4020  0.0596 -0.2180
  787SOL    HW1 2360   1.331   0.672   0.910  0.1381 -1.6989  0.0947
  787SOL    HW2 2361   1.419   0.591   0.780  0.4294  0.0541  0.4410
  788SOL     OW 2362   1.219   0.421   3.033 -0.1929 -0.4540 -0.4128
  788SOL    HW1 2363   1.147   0.438   2.967  3.1149 -0.9259  2.1385
  788SOL    HW2 2364   1.273   0.507   3.041 -2.5684  1.2354  0.5318
  789SOL     OW 2365   2.595   0.072   1.809  0.2911  0.5670 -0.2437
  789SOL    HW1 2366   2.516   0.133   1.829  0.9559 -1.3081 -0.2035
  789SOL    HW2 2367   2.588  -0.031   1.840 -0.1275 -3.8679  1.0157
  790SOL     OW 2368   2.568   2.697   0.867 -0.4433 -0.3336 -0.3447
  790SOL    HW1 2369   2.579   2.790   0.906 -0.8991 -3.3451 -2.8104
  790SOL    HW2 2370   2.648   2.638   0.873 -0.6933 -0.2323  2.8935
  791SOL     OW 2371   1.912   1.268   0.252  0.3178 -0.2903  0.0952
  791SOL    HW1 2372   1.822   1.221   0.272 -0.2402  1.4243  1.1738
  791SOL    HW2 2373   1.995   1.215   0.279  1.6541  1.0749  0.1922
  792SOL     OW 2374   0.454   2.009   2.135 -0.0850  0.2647 -0.6430
  792SOL    HW1 2375   0.505   2.074   2.200  0.5205 -3.0465  2.8340
  792SOL    HW2 2376   0.376   1.962   2.183 -1.3693 -1.5378  1.4272
  793SOL     OW 2377   2.094   1.559   2.094 -0.1244 -0.3323 -0.1752
  793SOL    HW1 2378   2.156   1.638   2.067 -1.0162  1.2520  2.5459
  793SOL    HW2 2379   2.093   1.483   2.020  1.2051 -2.2732 -3.6815
  794SOL     OW 2380   0.459   1.383   2.492  0.0689 -0.4278  0.0515
  794SOL    HW1 2381   0.488   1.346   2.399  0.5510 -2.2985 -1.3511
  794SOL    HW2 2382   0.392   1.465   2.483 -1.1030  1.9135 -0.4974
  795SOL     OW 2383   2.474   2.369   1.787 -0.1909 -0.3393  0.2346
  795SOL    HW1 2384   2.509   2.378   1.887  0.7865  0.5710  1.6252
  795SOL    HW2 2385   2.442   2.272   1.759  1.0263  1.2042  0.2844
  796SOL     OW 2386   3.085   1.085   2.702  0.6002 -0.0607  0.0389
  796SOL    HW1 2387   2.986   1.081   2.729 -0.0246 -1.7780 -2.9838
  796SOL    HW2 2388   3.142   1.094   2.784  2.1301 -1.2120 -1.1404
  797SOL     OW 2389   0.764   0.663   1.334  0.6163  0.3784 -0.1049
  797SOL    HW1 2390   0.830   0.691   1.405 -0.9934 -0.2164 -0.0642
  797SOL    HW2 2391   0.718   0.742   1.283  1.1446  1.6967  2.0322
  798SOL     OW 2392   1.341   0.433   1.079 -0.1138  0.0800 -0.4278
  798SOL    HW1 2393   1.325   0.483   1.171  0.7359 -2.5144 -0.8989
  798SOL    HW2 2394   1.392   0.494   1.013 -0.1552  0.1698 -2.3290
  799SOL     OW 2395   1.951   2.677   1.044  0.3150  0.7727 -0.2598
  799SOL    HW1 2396   1.940   2.585   1.085 -0.5123  4.7760 -1.4192
  799SOL    HW2 2397   1.894   2.679   0.955 -2.5520 -0.7104  1.8815
  800SOL     OW 2398   2.915   0.830   1.850  0.2224 -0.3773  0.3912
  800SOL    HW1 2399   2.994   0.895   1.875 -0.2771  0.8706  2.1891
  800SOL    HW2 2400   2.827   0.869   1.884  1.4611  1.5462 -0.8512
  801SOL     OW 2401   1.977   2.166   0.048 -0.2561 -0.1538  0.1896
  801SOL    HW1 2402   1.898   2.138  -0.016  0.0981 -2.9422 -0.5434
  801SOL    HW2 2403   2.065   2.130   0.016 -0.6187 -2.7102  1.0353
  802SOL     OW 2404   0.681   0.768   2.531  0.2986 -0.7951 -0.1563
  802SOL    HW1 2405   0.731   0.798   2.445  1.5122  1.1839 -2.2863
  802SOL    HW2 2406   0.580   0.755   2.515  0.3327 -1.5584 -0.7814
  803SOL     OW 2407   0.949   0.094   0.890  0.0031  0.3860 -0.1058
  803SOL    HW1 2408   1.009   0.177   0.911  0.4598  0.0990  0.5313
  803SOL    HW2 2409   0.862   0.111   0.834  0.2204 -0.8392 -1.1216
  804SOL     OW 2410   0.303   3.042   2.201 -0.1233 -0.1576 -0.0164
  804SOL    HW1 2411   0.300   3.144   2.211 -2.1181 -0.4611  1.1715
  804SOL    HW2 2412   0.266   3.011   2.110  0.1568  2.1889 -0.6678
  805SOL     OW 2413   2.333   0.417   0.311 -0.0850  0.3039  0.4172
  805SOL    HW1 2414   2.400   0.419   0.396  0.7668  0.7495 -0.3596
  805SOL    HW2 2415   2.342   0.330   0.252  2.9622 -0.8204 -1.6717
  806SOL     OW 2416   0.699   2.446   1.808 -0.2314  0.6342 -0.3977
  806SOL    HW1 2417   0.650   2.537   1.811  0.4406  1.5832 -0.2233
  806SOL    HW2 2418   0.801   2.462   1.801  0.9035  0.6187 -1.5092
  807SOL     OW 2419   2.522   0.903   0.442 -0.7302  0.6503 -0.4171
  807SOL    HW1 2420   2.622   0.881   0.463  1.4812  3.4385 -1.2456
  807SOL    HW2 2421   2.511   0.952   0.355  4.2162  0.6343  2.4699
  808SOL     OW 2422   0.669   2.054   2.929 -0.2346 -0.0583 -0.5389
  808SOL    HW1 2423   0.611   2.081   3.015 -0.1897 -0.4345  0.1459
  808SOL    HW2 2424   0.688   1.949   2.929  1.2230 -1.5432 -0.6815
  809SOL     OW 2425   2.567   1.988   1.858 -0.3893 -0.1338 -0.6314
  809SOL    HW1 2426   2.647   2.058   1.856 -0.5432  0.5052 -0.8896
  809SOL    HW2 2427   2.551   1.957   1.761  1.3550  1.3014  1.1706
  810SOL     OW 2428   2.191   1.133   0.494 -0.2720 -0.5681 -0.2230
  810SOL    HW1 2429   2.179   1.040   0.543 -0.1517  0.9153 -1.5960
  810SOL    HW2 2430   2.134   1.212   0.543  1.0142 -0.1178  1.6530
  811SOL     OW 2431   1.402   2.528   1.195  0.0764  0.0505 -0.1166
  811SOL    HW1 2432   1.346   2.448   1.230 -0.0283 -0.5011  0.6208
  811SOL    HW2 2433   1.376   2.623   1.226 -2.1316  1.8999 -1.7474
  812SOL     OW 2434   1.416   0.751   1.982 -0.2600  0.5800 -0.0221
  812SOL    HW1 2435   1.321   0.719   2.004  1.7932 -1.2065 -1.5275
  812SOL    HW2 2436   1.427   0.847   1.943  0.3802  0.0160  0.2106
  813SOL     OW 2437   1.620   2.071   2.444  0.1048 -0.1821 -0.4764
  813SOL    HW1 2438   1.635   1.975   2.481 -2.2675 -1.1156  1.2721
  813SOL    HW2 2439   1.603   2.068   2.340 -0.0962 -2.0685  0.4212
  814SOL     OW 2440   2.976   1.588   2.848  0.3958  0.6202 -0.1639
  814SOL    HW1 2441   3.053   1.570   2.914  2.0705 -1.1349  1.3697
  814SOL    HW2 2442   3.002   1.659   2.772  1.9612  0.6746 -2.3964
  815SOL     OW 2443   2.186   2.921   2.779 -0.1082 -0.8705 -1.3641
  815SOL    HW1 2444   2.191   2.826   2.830  0.1342 -0.0269 -1.4851
  815SOL    HW2 2445   2.261   2.988   2.808 -0.5626  0.1975  1.1053
  816SOL     OW 2446   1.600   0.365   1.679  0.0806 -0.4926  0.1222
  816SOL    HW1 2447   1.670   0.292   1.707  0.5996  0.1167 -0.7177
  816SOL    HW2 2448   1.545   0.393   1.761  2.2429 -0.7780 -2.4164
  817SOL     OW 2449   0.385   1.197   2.654  0.6847 -0.2358  0.0492
  817SOL    HW1 2450   0.293   1.229   2.691  0.6000  2.3264  1.2588
  817SOL    HW2 2451   0.430   1.267   2.584  1.9976  1.3714  1.3110
  818SOL     OW 2452   1.945   0.833   0.431 -0.0942 -0.1565  0.5213
  818SOL    HW1 2453   2.049   0.831   0.445 -0.9060  0.2035 -0.4077
  818SOL    HW2 2454   1.893   0.884   0.503 -2.5201 -1.0466 -0.6673
  819SOL     OW 2455   2.761   2.940   0.014  0.0742  0.0330 -0.3361
  819SOL    HW1 2456   2.811   2.892   0.089 -1.3496  0.6976  1.6139
  819SOL    HW2 2457   2.721   2.883  -0.061 -0.9257 -0.0548 -1.2594
  820SOL     OW 2458   1.232   1.050   0.531  0.1462 -0.0628 -0.7028
  820SOL    HW1 2459   1.251   1.152   0.556  1.1124  1.3831  2.1517
  820SOL    HW2 2460   1.254   0.982   0.606 -2.8444 -0.6442  0.9660
  821SOL     OW 2461   0.040   1.268   0.715  0.3568  0.1481  0.0920
  821SOL    HW1 2462  -0.011   1.261   0.808 -2.2308  0.6839  0.0163
  821SOL    HW2 2463   0.080   1.360   0.687 -0.9728 -3.7351  0.1051
  822SOL     OW 2464   2.552   1.814   2.451 -0.3420 -0.3600  0.2208
  822SOL    HW1 2465   2.550   1.898   2.515  0.6223  0.7769  0.2862
  822SOL    HW2 2466   2.466   1.809   2.393 -0.6152  0.6301 -0.4704
  823SOL     OW 2467   2.036   0.888   1.125 -0.0264 -0.2451  0.4498
  823SOL    HW1 2468   2.026   0.863   1.224  0.7979 -0.1992 -2.0174
  823SOL    HW2 2469   1.942   0.898   1.076 -1.6023  1.5295 -1.7930
  824SOL     OW 2470   0.210   1.968   2.814  0.4183  0.1385 -0.3999
  824SOL    HW1 2471   0.236   1.914   2.896 -2.8272 -0.0770  0.6842
  824SOL    HW2 2472   0.274   1.951   2.735  0.0553  1.7233 -1.1857
  825SOL     OW 2473   1.319   1.039   0.273 -0.0932 -0.3719 -0.2845
  825SOL    HW1 2474   1.311   1.143   0.252 -1.4063  2.7294 -1.4933
  825SOL    HW2 2475   1.292   1.026   0.371  2.2102 -0.3643 -0.3826
  826SOL     OW 2476   1.927   0.644   1.588 -0.4785 -0.2031  0.0811
  826SOL    HW1 2477   2.017   0.601   1.620 -0.8445  3.0129  0.7937
  826SOL    HW2 2478   1.861   0.572   1.550  1.1538 -1.1574  0.1218
  827SOL     OW 2479   0.652   1.230   0.297 -0.2758  0.0989 -0.0816
  827SOL    HW1 2480   0.691   1.200   0.208 -1.3602 -0.0601  1.9888
  827SOL    HW2 2481   0.614   1.152   0.352  1.0426  2.7451  0.8949
  828SOL     OW 2482   2.642   0.105   1.514  0.1277  0.1403  0.2253
  828SOL    HW1 2483   2.544   0.127   1.476  1.4721  1.8261 -0.3461
  828SOL    HW2 2484   2.644   0.095   1.616  1.4995  1.8376 -0.4898
  829SOL     OW 2485   2.950   2.387   2.836  0.3969 -0.5011 -0.3789
  829SOL    HW1 2486   2.851   2.372   2.862  1.3537 -2.0887 -0.9715
  829SOL    HW2 2487   2.981   2.483   2.814 -1.9284 -1.7865 -0.7821
  830SOL     OW 2488   2.847   1.001   3.041  1.0707 -0.4165  0.6330
  830SOL    HW1 2489   2.910   1.080   3.061 -1.7467  0.5513  1.4842
  830SOL    HW2 2490   2.881   0.916   3.084  3.0709 -0.8612 -3.9331
  831SOL     OW 2491   0.087   0.562   0.433 -0.8542 -0.5927  0.0558
  831SOL    HW1 2492   0.060   0.483   0.495 -2.2071 -0.2233  1.4328
  831SOL    HW2 2493   0.124   0.532   0.342 -0.2490  0.8308  0.2058
  832SOL     OW 2494   1.833   0.785   3.025 -0.1651  0.1838  0.3918
  832SOL    HW1 2495   1.734   0.820   3.006 -0.2573 -3.4207 -1.1443
  832SOL    HW2 2496   1.840   0.682   3.030 -0.6457  0.3155 -0.7737
  833SOL     OW 2497   2.421   2.065   0.455 -0.6545  0.2793  0.5241
  833SOL    HW1 2498   2.320   2.050   0.444  0.2681 -1.1224 -1.3327
  833SOL    HW2 2499   2.482   1.980   0.463  4.3773 -1.6480  0.7571
  834SOL     OW 2500   0.125   0.121   0.518  0.1504 -0.6741  0.5945
  834SOL    HW1 2501   0.196   0.054   0.544  2.1251  0.2838  0.5446
  834SOL    HW2 2502   0.116   0.139   0.414  0.0360 -1.1537 -0.9568
  835SOL     OW 2503   2.401   1.506   1.153  0.0007  0.2411 -0.3591
  835SOL    HW1 2504   2.459   1.564   1.210  3.1328 -4.2076 -0.0980
  835SOL    HW2 2505   2.451   1.457   1.076  0.2097  0.8056  2.2278
  836SOL     OW 2506   1.628   0.877   2.582  0.1589 -0.3408 -0.2243
  836SOL    HW1 2507   1.541   0.820   2.600 -0.8436 -0.7514  1.6280
  836SOL    HW2 2508   1.644   0.887   2.479  0.5234 -0.5492 -0.7432
  837SOL     OW 2509   1.630   0.060   0.567  0.0360 -0.6296  0.0387
  837SOL    HW1 2510   1.573   0.122   0.632  1.2300  2.8093  0.3686
  837SOL    HW2 2511   1.594   0.058   0.471  0.7757 -0.4978  1.2066
  838SOL     OW 2512   1.229   1.384   2.785 -0.0358 -0.5254 -0.1759
  838SOL    HW1 2513   1.201   1.447   2.861 -1.3367  1.1775 -0.7282
  838SOL    HW2 2514   1.163   1.382   2.707 -0.1811 -0.1002  1.1896
  839SOL     OW 2515   1.643   0.330   0.994 -0.4337  0.3129  0.2894
  839SOL    HW1 2516   1.638   0.394   1.076 -1.5118  0.5892  0.8870
  839SOL    HW2 2517   1.604   0.239   1.022 -2.8634  0.0355 -1.4252
  840SOL     OW 2518   2.542   2.892   1.778  0.1974  0.4759  0.2489
  840SOL    HW1 2519   2.520   2.839   1.690  0.4774  0.8856  1.1129
  840SOL    HW2 2520   2.533   2.830   1.864  2.8301  1.1590  0.6465
  841SOL     OW 2521   1.578   0.878   2.980  0.0287 -0.5047 -0.0849
  841SOL    HW1 2522   1.546   0.940   3.054 -0.0819 -1.3502 -1.1125
  841SOL    HW2 2523   1.554   0.916   2.886 -2.3502  1.3425 -0.0198
  842SOL     OW 2524   0.806   1.531   1.001  0.1653  0.3828  0.2813
  842SOL    HW1 2525   0.773   1.619   1.040 -0.9981 -1.1986  0.0418
  842SOL    HW2 2526   0.737   1.485   0.942  0.1421 -1.8125  2.2408
  843SOL     OW 2527   0.132   0.110   1.477 -0.1283 -0.3379 -0.2198
  843SOL    HW1 2528   0.219   0.126   1.535 -0.3712  1.1266 -0.7406
  843SOL    HW2 2529   0.118   0.014   1.442  2.2014  1.8526 -1.0015
  844SOL     OW 2530   0.782   2.480   0.287  0.2555  0.2449 -0.2946
  844SOL    HW1 2531   0.759   2.497   0.386 -0.9382 -0.5184 -1.1980
  844SOL    HW2 2532   0.699   2.478   0.229  0.5592 -1.4253  2.2540
  845SOL     OW 2533   1.678   2.903   1.377  0.0834  0.7105 -0.3281
  845SOL    HW1 2534   1.746   2.900   1.457 -1.3561  1.1483 -1.7696
  845SOL    HW2 2535   1.611   2.983   1.379  0.5896  1.1670 -0.2715
  846SOL     OW 2536   1.684   2.969   0.898 -0.3224 -0.2007  0.5643
  846SOL    HW1 2537   1.642   2.989   0.805  2.7532 -0.2380  0.0191
  846SOL    HW2 2538   1.789   2.963   0.895  1.8761 -0.3165  0.1852
  847SOL     OW 2539   2.029   1.645   0.233  0.4485 -0.0734 -0.0151
  847SOL    HW1 2540   1.962   1.640   0.316  1.1613 -0.6002  2.7244
  847SOL    HW2 2541   1.990   1.608   0.148  0.2316  1.1321  0.3222
  848SOL     OW 2542   2.466   0.780   2.666 -0.3809  0.7407 -0.0894
  848SOL    HW1 2543   2.478   0.881   2.666  1.7806 -2.6343  0.1147
  848SOL    HW2 2544   2.404   0.740   2.588  0.0206 -0.9702 -1.2155
  849SOL     OW 2545   2.460   0.868   2.307 -0.0555 -0.1664 -0.6558
  849SOL    HW1 2546   2.535   0.813   2.267 -1.1011 -1.6637 -0.5662
  849SOL    HW2 2547   2.402   0.813   2.377 -1.8572 -0.8491 -1.1896
  850SOL     OW 2548   1.550   0.078   1.321  0.8619 -0.4820 -0.2888
  850SOL    HW1 2549   1.533   0.075   1.218  2.9025 -1.3318 -2.0763
  850SOL    HW2 2550   1.466   0.080   1.379 -1.8748  0.3513  0.3699
  851SOL     OW 2551   0.463   1.708   0.693 -0.1643  0.1460  0.3475
  851SOL    HW1 2552   0.414   1.798   0.681 -1.0731 -1.5637 -1.2096
  851SOL    HW2 2553   0.567   1.722   0.680 -0.4205  0.6342  0.8746
  852SOL     OW 2554   0.806   2.133   1.658 -0.3333 -0.4869 -0.4516
  852SOL    HW1 2555   0.827   2.220   1.610  2.0562 -4.5046  0.7316
  852SOL    HW2 2556   0.739   2.154   1.739 -0.8771  1.4176  0.2898
  853SOL     OW 2557   2.497   1.563   2.620  0.5456  0.0246 -0.4524
  853SOL    HW1 2558   2.495   1.467   2.574 -1.0812  1.6414 -0.6919
  853SOL    HW2 2559   2.514   1.641   2.557 -0.7908 -0.9605 -0.4846
  854SOL     OW 2560   2.507   1.392   1.803 -0.4429  0.1679  0.0514
  854SOL    HW1 2561   2.543   1.366   1.706 -0.0971  0.5065 -1.3939
  854SOL    HW2 2562   2.473   1.307   1.853  0.2316 -1.0405  0.3906
  855SOL     OW 2563   2.071   2.330   0.974 -0.3366 -0.0758  0.1682
  855SOL    HW1 2564   2.086   2.412   0.911  0.8361 -2.0545  1.2985
  855SOL    HW2 2565   2.139   2.329   1.051  0.0629  1.6599 -1.8044
  856SOL     OW 2566   1.387   1.395   0.901 -0.3555 -0.4078  0.5446
  856SOL    HW1 2567   1.423   1.489   0.929  0.1862  2.1783  2.4827
  856SOL    HW2 2568   1.289   1.389   0.931  1.6120 -4.8946  0.3928
  857SOL     OW 2569   2.999   2.597   1.085  0.7663  0.0817  0.5223
  857SOL    HW1 2570   2.911   2.533   1.086 -2.3703  0.3155  2.4198
  857SOL    HW2 2571   3.087   2.544   1.067 -0.6035 -1.9569  2.0073
  858SOL     OW 2572   2.311   2.158   1.696 -0.1384  0.5132  0.2164
  858SOL    HW1 2573   2.210   2.187   1.681  0.9012  1.4865 -0.0541
  858SOL    HW2 2574   2.363   2.114   1.619 -0.3545  0.1110 -1.3590
  859SOL     OW 2575   2.436   0.519   1.065 -0.5498 -0.1647 -0.3035
  859SOL    HW1 2576   2.489   0.571   0.991  0.5241 -0.2108  3.0561
  859SOL    HW2 2577   2.478   0.421   1.088  4.5224 -2.7815  0.1525
  860SOL     OW 2578   1.924   2.795   0.439 -0.4686 -0.6785 -0.2768
  860SOL    HW1 2579   1.887   2.766   0.348  3.4331 -1.0664 -2.4349
  860SOL    HW2 2580   2.019   2.841   0.420 -1.1277 -1.7153 -1.6851
  861SOL     OW 2581   1.116   2.592   2.789  0.3902 -0.1433  0.0205
  861SOL    HW1 2582   1.129   2.687   2.742  1.9860  2.3932 -0.5294
  861SOL    HW2 2583   1.105   2.602   2.893 -2.0950  3.1599  0.0540
  862SOL     OW 2584   2.879   2.498   1.610  0.8824 -0.2188  0.3690
  862SOL    HW1 2585   2.944   2.526   1.682 -3.2185  0.3690 -2.7280
  862SOL    HW2 2586   2.849   2.589   1.564  1.5187 -0.2776  0.0189
  863SOL     OW 2587   1.866   2.688   0.199 -0.0646 -0.2572  0.1668
  863SOL    HW1 2588   1.913   2.598   0.188 -3.8773  0.1826  3.9752
  863SOL    HW2 2589   1.765   2.675   0.223 -0.6126  0.5432  0.8481
  864SOL     OW 2590   1.878   1.154   2.929  0.1643  0.3355  0.8283
  864SOL    HW1 2591   1.918   1.109   2.841  2.1311  1.5545 -2.9274
  864SOL    HW2 2592   1.959   1.181   2.988 -0.8414  1.5600  0.4420
  865SOL     OW 2593   2.201   1.860   0.682  0.3602 -0.1869 -0.4484
  865SOL    HW1 2594   2.257   1.824   0.762  1.6599 -1.8753  0.2773
  865SOL    HW2 2595   2.108   1.817   0.689 -1.6168 -0.7599 -0.6466
  866SOL     OW 2596   2.948   2.901   0.979 -0.3883  0.0360  0.1157
  866SOL    HW1 2597   3.008   2.933   0.902 -0.1795  0.1309 -2.0797
  866SOL    HW2 2598   2.972   2.806   1.009 -0.9994  0.7159  0.8048
  867SOL     OW 2599   0.366   1.342   0.906  0.6664  0.0430 -0.1043
  867SOL    HW1 2600   0.408   1.257   0.867  1.0100 -0.3133  0.4166
  867SOL    HW2 2601   0.284   1.371   0.849  0.9061 -2.1814 -0.2017
  868SOL     OW 2602   0.773   1.912   2.029  0.1540  0.2653  0.1283
  868SOL    HW1 2603   0.738   1.895   2.129  0.2940  0.5983  2.2102
  868SOL    HW2 2604   0.757   2.007   1.999  1.3151  0.6533  1.7485
  869SOL     OW 2605   2.503   1.918   1.598 -0.1208  0.2114  0.2779
  869SOL    HW1 2606   2.598   1.942   1.559 -0.0888  1.4270 -0.0744
  869SOL    HW2 2607   2.445   1.861   1.536 -0.9426 -0.0681 -0.2036
  870SOL     OW 2608   2.277   2.606   1.259 -0.1763 -0.1117 -0.2078
  870SOL    HW1 2609   2.259   2.515   1.223  0.1693 -0.2668 -0.6198
  870SOL    HW2 2610   2.203   2.639   1.322  0.8711 -2.9557 -0.9684
  871SOL     OW 2611   2.996   2.095   0.584  0.3637  0.0290 -0.2680
  871SOL    HW1 2612   2.927   2.150   0.631 -0.6518 -1.6441 -1.7768
  871SOL    HW2 2613   2.956   2.049   0.501 -1.4752  1.4203 -0.0460
  872SOL     OW 2614   2.135   0.475   1.687  0.1028  0.1087  0.2987
  872SOL    HW1 2615   2.090   0.450   1.778 -0.6466 -1.1889 -0.0103
  872SOL    HW2 2616   2.233   0.438   1.689 -1.4661 -2.4753  1.5299
  873SOL     OW 2617   1.734   2.082   2.982 -0.5639  0.4188 -0.2021
  873SOL    HW1 2618   1.730   2.186   2.984  0.7609  2.0016 -2.8011
  873SOL    HW2 2619   1.661   2.048   2.914 -0.0668  0.1498 -1.2079
  874SOL     OW 2620   0.627   2.464   0.795 -0.1868  0.0082 -0.6347
  874SOL    HW1 2621   0.621   2.565   0.821 -1.4519  1.7630  2.6537
  874SOL    HW2 2622   0.718   2.423   0.819 -2.4579  0.2788  1.2165
  875SOL     OW 2623   2.284   1.469   1.433 -0.2148  0.1518  0.3447
  875SOL    HW1 2624   2.376   1.483   1.477 -0.7960  0.3334 -0.3768
  875SOL    HW2 2625   2.260   1.534   1.357 -3.9765  1.5833 -1.2396
  876SOL     OW 2626   0.100   2.253   2.711  0.7132  0.0197  0.0773
  876SOL    HW1 2627   0.120   2.173   2.774 -0.8602 -1.7197 -2.1509
  876SOL    HW2 2628   0.103   2.343   2.767 -2.5694  2.4843  1.6938
  877SOL     OW 2629   2.813   2.682   0.609 -0.6867  0.3612  0.9116
  877SOL    HW1 2630   2.796   2.759   0.672  0.2349 -1.4082  1.0334
  877SOL    HW2 2631   2.884   2.607   0.646 -0.5328 -3.9198  1.9272
  878SOL     OW 2632   2.851   1.559   2.198  0.3849 -0.8734  0.3336
  878SOL    HW1 2633   2.951   1.576   2.208 -1.0548 -0.7159  1.5067
  878SOL    HW2 2634   2.807   1.560   2.291 -1.3447 -1.0245 -0.8777
  879SOL     OW 2635   2.398   0.047   1.145  0.1157 -0.3221  0.3672
  879SOL    HW1 2636   2.443  -0.047   1.169 -2.4641 -1.3137 -0.1860
  879SOL    HW2 2637   2.310   0.028   1.092 -0.0152  0.9392  1.8956
  880SOL     OW 2638   0.685   0.455   2.216  0.8108 -0.2059 -0.7667
  880SOL    HW1 2639   0.603   0.397   2.244  0.8979  1.6830 -1.9789
  880SOL    HW2 2640   0.737   0.411   2.141 -1.1062  1.0719  1.7163
  881SOL     OW 2641   0.921   0.061   0.492  0.0355 -0.2179 -0.6662
  881SOL    HW1 2642   0.960  -0.036   0.509 -0.7242 -1.1331  0.1512
  881SOL    HW2 2643   0.835   0.064   0.439  1.2083 -1.6425  1.8483
  882SOL     OW 2644   2.702   1.633   1.667 -0.5958 -0.4501 -0.0672
  882SOL    HW1 2645   2.802   1.626   1.638  2.4566 -2.9221 -0.5776
  882SOL    HW2 2646   2.694   1.667   1.764 -1.4819 -1.4928 -1.3451
  883SOL     OW 2647   0.923   0.588   0.939  0.5236 -0.0541 -0.0872
  883SOL    HW1 2648   0.940   0.687   0.965  0.6404 -1.2131  0.1600
  883SOL    HW2 2649   0.933   0.526   1.015 -0.0762 -0.6278 -1.6173
  884SOL     OW 2650   1.175   1.811   1.080  0.2596  0.2214 -0.2541
  884SOL    HW1 2651   1.197   1.748   1.001 -0.8698  4.9643  0.2683
  884SOL    HW2 2652   1.118   1.891   1.049  2.0395 -0.4346  0.2468
  885SOL     OW 2653   2.321   1.831   2.299 -0.8431  0.1104 -0.2900
  885SOL    HW1 2654   2.254   1.762   2.328  1.4886  2.3265  0.3565
  885SOL    HW2 2655   2.295   1.925   2.329  0.3662  1.1235  2.4375
  886SOL     OW 2656   2.631   0.464   1.791  0.3793  0.2262 -0.5058
  886SOL    HW1 2657   2.687   0.398   1.850  0.2542  0.1204 -0.2569
  886SOL    HW2 2658   2.696   0.540   1.756  0.7339 -1.3377  0.8797
  887SOL     OW 2659   0.147   2.047   1.210 -0.3972  0.8014  0.0872
  887SOL    HW1 2660   0.073   2.023   1.149  0.6934  3.2718 -0.0876
  887SOL    HW2 2661   0.170   2.148   1.207  3.1872  0.3869 -1.4277
  888SOL     OW 2662   0.558   1.352   1.567  0.2022 -0.0678 -0.6473
  888SOL    HW1 2663   0.585   1.364   1.466 -1.0539 -1.0773 -0.3649
  888SOL    HW2 2664   0.498   1.268   1.579 -0.2850  2.7352  2.3411
  889SOL     OW 2665   0.807   2.514   2.159  0.2363 -0.3134 -0.1419
  889SOL    HW1 2666   0.756   2.428   2.177  2.3536 -0.2481  0.3218
  889SOL    HW2 2667   0.881   2.512   2.089 -0.1867 -3.9119 -1.7069
  890SOL     OW 2668   2.353   2.476   0.195  0.0640 -0.4156 -0.1603
  890SOL    HW1 2669   2.404   2.541   0.136  0.4913 -1.1546  0.3614
  890SOL    HW2 2670   2.292   2.526   0.261 -0.7809 -0.1754 -0.7317
  891SOL     OW 2671   2.637   1.564   0.715  0.8466 -0.7896 -0.4473
  891SOL    HW1 2672   2.644   1.493   0.786  1.1243  0.6210  1.0587
  891SOL    HW2 2673   2.539   1.570   0.687  2.5511  0.0840  0.2198
  892SOL     OW 2674   0.308   0.221   2.166 -0.4216  0.0281  0.3217
  892SOL    HW1 2675   0.303   0.245   2.064 -0.1413  0.4138 -0.1048
  892SOL    HW2 2676   0.387   0.273   2.216  0.9658  0.6146 -0.8222
  893SOL     OW 2677   1.639   0.236   2.770 -0.2083 -0.3120  0.2077
  893SOL    HW1 2678   1.727   0.289   2.757 -0.1115 -0.5279 -2.4947
  893SOL    HW2 2679   1.552   0.286   2.752 -0.4264 -0.7098  1.5826
  894SOL     OW 2680   2.265   2.008   0.024  0.4213  0.1912 -0.2711
  894SOL    HW1 2681   2.239   1.926  -0.028  1.8213  3.1799  0.0076
  894SOL    HW2 2682   2.251   1.994   0.128 -0.6185  2.2042  1.1143
  895SOL     OW 2683   2.872   1.459   0.869 -0.2989  0.0498 -0.3145
  895SOL    HW1 2684   2.915   1.370   0.897 -0.6695  2.0243 -3.4764
  895SOL    HW2 2685   2.936   1.531   0.827  1.5465  2.8577  3.3633
  896SOL     OW 2686   1.803   1.812   1.162 -0.1593 -0.6356 -0.2151
  896SOL    HW1 2687   1.876   1.818   1.089  0.2980  1.0248  0.6402
  896SOL    HW2 2688   1.736   1.888   1.155  0.8511 -2.4771 -2.3150
  897SOL     OW 2689   0.273   0.531   3.057 -0.4686 -0.0398 -0.5155
  897SOL    HW1 2690   0.238   0.607   3.001  1.1103  0.7416 -1.0198
  897SOL    HW2 2691   0.372   0.554   3.071 -1.9783  1.7503 -2.4817
  898SOL     OW 2692   0.595   2.828   1.104  0.1754 -0.2274 -0.1558
  898SOL    HW1 2693   0.539   2.913   1.127 -0.1489  0.4458 -2.2083
  898SOL    HW2 2694   0.684   2.815   1.155  0.5323 -0.2694  2.4635
  899SOL     OW 2695   2.724   0.892   1.229 -0.0641  0.5638 -0.3167
  899SOL    HW1 2696   2.637   0.869   1.170 -1.8778  2.1435 -1.1803
  899SOL    HW2 2697   2.796   0.936   1.163  0.4770 -0.0328 -2.0743
  900SOL     OW 2698   1.002   2.589   2.361 -0.9233  0.0229 -0.1530
  900SOL    HW1 2699   0.927   2.557   2.295  0.1721  0.6638  0.8052
  900SOL    HW2 2700   0.980   2.569   2.459 -1.7396 -0.0500 -0.6038
  901SOL     OW 2701   1.865   2.355   1.381  0.3583 -0.0303 -0.4825
  901SOL    HW1 2702   1.834   2.357   1.285  0.5524  0.5639  0.5104
  901SOL    HW2 2703   1.964   2.341   1.396 -0.6375  0.3552 -0.1667
  902SOL     OW 2704   2.552   1.652   1.433  0.5976  0.0250  0.5367
  902SOL    HW1 2705   2.583   1.648   1.533  0.5139  2.9229 -1.5644
  902SOL    HW2 2706   2.632   1.631   1.370 -1.3499  2.5985 -1.6524
  903SOL     OW 2707   0.238   2.468   1.994 -0.6038 -0.2930  0.3332
  903SOL    HW1 2708   0.154   2.416   1.958  1.1681  1.6812 -0.4181
  903SOL    HW2 2709   0.274   2.529   1.914  0.2383  0.8002 -0.1178
  904SOL     OW 2710   2.044   0.696   2.410 -0.0324  0.3362 -0.7063
  904SOL    HW1 2711   1.978   0.674   2.485 -1.6859  0.7321 -1.1382
  904SOL    HW2 2712   1.994   0.724   2.320  0.1370 -0.3020 -1.6817
  905SOL     OW 2713   2.811   0.074   2.597  0.2578  0.2672 -0.0311
  905SOL    HW1 2714   2.879  -0.006   2.588 -1.4140 -2.4187  2.2481
  905SOL    HW2 2715   2.842   0.155   2.543  0.3738 -1.2299 -1.5256
  906SOL     OW 2716   0.151   1.776   1.875 -0.4972 -0.6477  0.2654
  906SOL    HW1 2717   0.118   1.781   1.779 -1.5581  3.1734  1.1378
  906SOL    HW2 2718   0.239   1.831   1.887  0.7260  0.6311 -0.7458
  907SOL     OW 2719   0.127   2.489   1.023 -0.1321  0.1156 -0.1288
  907SOL    HW1 2720   0.204   2.539   0.968 -1.2990  1.6675  0.4051
  907SOL    HW2 2721   0.077   2.421   0.958 -1.2493  1.0394  0.0281
  908SOL     OW 2722   2.693   2.946   0.424  0.4468 -0.1713  0.4591
  908SOL    HW1 2723   2.641   3.000   0.353 -0.3732  1.5843 -0.0549
  908SOL    HW2 2724   2.732   2.861   0.377  0.9126 -0.7027  0.9428
  909SOL     OW 2725   0.779   0.970   2.709  0.4403 -0.2090 -0.7436
  909SOL    HW1 2726   0.745   0.881   2.664  0.7035  1.1065 -3.0297
  909SOL    HW2 2727   0.835   1.027   2.640  1.6807  1.2381  2.1752
  910SOL     OW 2728   1.767   1.844   2.123 -0.2703 -0.1961 -0.2506
  910SOL    HW1 2729   1.826   1.863   2.037  0.8104  0.5139 -1.5002
  910SOL    HW2 2730   1.688   1.914   2.132 -3.3832 -0.1251 -0.4706
  911SOL     OW 2731   1.830   2.944   1.601 -0.5690 -0.1007  0.6676
  911SOL    HW1 2732   1.916   2.913   1.551 -0.1861  1.8694  1.1740
  911SOL    HW2 2733   1.819   2.909   1.695 -0.6457 -0.0606 -1.3701
  912SOL     OW 2734   2.903   0.974   0.754 -0.1882 -0.2900  0.1216
  912SOL    HW1 2735   2.908   0.948   0.855  0.1547  0.9609  1.0467
  912SOL    HW2 2736   2.834   1.048   0.733  0.6872 -1.2639 -2.4149
  913SOL     OW 2737   2.568   1.274   1.559  0.1853 -0.2208  0.0610
  913SOL    HW1 2738   2.567   1.174   1.536 -0.8719  2.9304  0.8046
  913SOL    HW2 2739   2.624   1.325   1.486  2.7452  0.1723 -0.5759
  914SOL     OW 2740   2.807   0.513   1.200 -0.5402 -0.2933 -0.5562
  914SOL    HW1 2741   2.725   0.455   1.185  1.8704  0.9008  3.0146
  914SOL    HW2 2742   2.813   0.565   1.292  0.9440  0.4258 -0.8691
  915SOL     OW 2743   1.241   0.796   1.024  0.3600 -0.1641 -0.5615
  915SOL    HW1 2744   1.302   0.785   1.109  2.0311 -0.2780 -0.5590
  915SOL    HW2 2745   1.140   0.806   1.051  2.2109  0.3181  3.9163
  916SOL     OW 2746   0.605   0.030   0.666 -0.1960  0.4249  0.0574
  916SOL    HW1 2747   0.630   0.113   0.724 -0.9749 -0.1018  0.2702
  916SOL    HW2 2748   0.587   0.050   0.564 -0.3836 -1.5723  1.2636
  917SOL     OW 2749   2.825   2.609   1.974 -0.6231 -0.0229  0.0776
  917SOL    HW1 2750   2.724   2.624   1.990  1.3426  1.8152 -0.4731
  917SOL    HW2 2751   2.875   2.689   1.936  1.3157 -1.4243  0.5472
  918SOL     OW 2752   1.041   2.218   3.002 -0.2724 -0.0751  0.3522
  918SOL    HW1 2753   1.006   2.209   3.100 -1.4884 -0.6596 -1.6115
  918SOL    HW2 2754   1.081   2.132   2.961 -0.0264 -1.7208  2.6156
  919SOL     OW 2755   0.881   1.618   2.826  0.5737 -0.2564 -0.4478
  919SOL    HW1 2756   0.943   1.658   2.753 -0.7719 -1.6501  0.1693
  919SOL    HW2 2757   0.818   1.543   2.788 -0.3426  0.0402  1.6327
  920SOL     OW 2758   1.261   1.949   2.472 -0.0983  1.1763  0.0614
  920SOL    HW1 2759   1.264   1.934   2.369 -0.0557  1.0593  0.7909
  920SOL    HW2 2760   1.285   1.860   2.528 -0.0543  0.6511  2.4136
  921SOL     OW 2761   1.108   0.050   2.603 -0.0303  0.1093  0.1720
  921SOL    HW1 2762   1.101   0.075   2.499  0.5105  0.5567 -0.9729
  921SOL    HW2 2763   1.047  -0.029   2.629  3.4369  0.7154 -1.5058
  922SOL     OW 2764   2.146   2.416   2.891 -0.3812 -0.2212  0.3301
  922SOL    HW1 2765   2.155   2.318   2.910 -0.1300  2.7912 -0.0017
  922SOL    HW2 2766   2.059   2.432   2.840  1.2753 -1.2665  2.5207
  923SOL     OW 2767   1.238   2.697   0.261 -0.5509 -0.1994  0.3017
  923SOL    HW1 2768   1.306   2.742   0.322  0.0318 -2.4819 -1.8221
  923SOL    HW2 2769   1.263   2.597   0.245 -1.5920 -0.9509  0.2299
  924SOL     OW 2770   2.861   1.538   0.081  0.0068  0.4418 -0.0347
  924SOL    HW1 2771   2.771   1.526   0.030  1.0640  1.9283 -0.0559
  924SOL    HW2 2772   2.938   1.535   0.016 -1.5262  0.1748  2.2779
  925SOL     OW 2773   3.105   2.944   1.512 -0.0533 -0.3732  0.2347
  925SOL    HW1 2774   3.031   2.969   1.582 -2.5477  1.2716  1.0837
  925SOL    HW2 2775   3.066   2.885   1.435  2.1268 -0.3604  0.1228
  926SOL     OW 2776   1.350   2.831   1.288 -0.0701  0.1776  0.8073
  926SOL    HW1 2777   1.405   2.841   1.202 -1.0892  1.4495  0.7385
  926SOL    HW2 2778   1.378   2.898   1.360  0.7564  0.1757 -0.1549
  927SOL     OW 2779   0.304   2.659   1.780 -0.2957 -0.1614  0.2782
  927SOL    HW1 2780   0.276   2.592   1.706  0.6252 -1.4500 -0.0696
  927SOL    HW2 2781   0.283   2.761   1.764  0.8021 -0.2608  0.1152
  928SOL     OW 2782   1.553   2.027   2.188  0.1937 -0.4766 -0.1083
  928SOL    HW1 2783   1.582   2.125   2.160  1.2884  3.9675 -1.5248
  928SOL    HW2 2784   1.460   1.995   2.151 -0.5590 -1.9187  0.1589
  929SOL     OW 2785   2.438   2.457   2.890 -0.1379  0.1188 -0.7974
  929SOL    HW1 2786   2.337   2.440   2.876 -1.3686  1.3991  0.5874
  929SOL    HW2 2787   2.482   2.491   2.805 -2.8062  1.7923  1.2128
  930SOL     OW 2788   2.189   1.978   1.051 -0.2513  0.3425  0.1885
  930SOL    HW1 2789   2.164   1.948   1.150  0.4911 -1.3238  1.3816
  930SOL    HW2 2790   2.272   2.043   1.057  0.4325 -1.3264  1.5877
  931SOL     OW 2791   0.531   1.707   2.698  0.0920  0.1580 -0.1004
  931SOL    HW1 2792   0.569   1.736   2.795  1.5928 -3.4646  2.1250
  931SOL    HW2 2793   0.590   1.624   2.660  0.6134 -2.8610  0.3736
  932SOL     OW 2794   0.440   0.053   2.926  0.1460 -0.4593 -0.5629
  932SOL    HW1 2795   0.529   0.107   2.930 -2.3805 -0.2742  0.5235
  932SOL    HW2 2796   0.444  -0.024   2.994 -2.5260 -3.4596  0.4842
  933SOL     OW 2797   1.055   0.725   3.034  0.5957 -0.0197 -0.5906
  933SOL    HW1 2798   1.125   0.780   3.089  0.5596 -2.1314  1.8452
  933SOL    HW2 2799   0.994   0.794   2.987  1.9068  2.3188  2.2312
  934SOL     OW 2800   0.880   2.975   2.672 -0.1800  0.0693 -0.2904
  934SOL    HW1 2801   0.866   2.903   2.598  0.3022  2.4480  0.9672
  934SOL    HW2 2802   0.916   2.946   2.768  0.9130  0.5738 -0.6812
  935SOL     OW 2803   3.087   0.555   0.828  0.2958 -0.1543 -0.6727
  935SOL    HW1 2804   3.078   0.496   0.744 -3.8627 -0.5540  2.0146
  935SOL    HW2 2805   2.993   0.599   0.849 -2.8949 -0.1936  1.3448
  936SOL     OW 2806   1.094   2.923   0.129  0.7140 -0.5041  0.4177
  936SOL    HW1 2807   1.154   2.980   0.065 -0.5884  2.8696  0.6518
  936SOL    HW2 2808   1.138   2.839   0.169 -1.8151  1.2407 -1.9929
  937SOL     OW 2809   1.960   2.667   2.086 -0.6519 -0.1789  0.0517
  937SOL    HW1 2810   1.881   2.693   2.152 -0.7839  1.3891 -1.3534
  937SOL    HW2 2811   1.961   2.712   1.992 -0.7104  0.7660 -2.2441
  938SOL     OW 2812   2.715   2.061   1.508 -0.6381  0.0905  0.7692
  938SOL    HW1 2813   2.694   2.155   1.543 -0.8735 -0.7224 -0.9594
  938SOL    HW2 2814   2.813   2.044   1.530  0.6276  1.4974  1.6931
  939SOL     OW 2815   2.845   1.220   2.461  0.7623 -0.2644 -0.2146
  939SOL    HW1 2816   2.895   1.190   2.376  1.0653  2.0298  0.6308
  939SOL    HW2 2817   2.866   1.168   2.549 -0.0261  1.5868  0.1907
  940SOL     OW 2818   0.980   0.453   2.689  0.0711 -0.1022 -0.1025
  940SOL    HW1 2819   1.046   0.382   2.728  4.0392  2.1268  2.6822
  940SOL    HW2 2820   0.886   0.423   2.661 -2.1483  0.5491 -0.7738
  941SOL     OW 2821   0.067   2.829   2.211 -0.0845  0.0938 -0.1730
  941SOL    HW1 2822   0.089   2.727   2.224  1.3031  2.1243 -0.2633
  941SOL    HW2 2823   0.105   2.875   2.289  0.0286 -4.0879 -2.1906
  942SOL     OW 2824   0.064   0.124   2.510 -0.1193  0.0035  0.4666
  942SOL    HW1 2825   0.107   0.192   2.578 -1.7325  1.7144  1.2265
  942SOL    HW2 2826   0.061   0.164   2.412 -2.4662 -0.9491 -0.9727
  943SOL     OW 2827   2.134   1.651   2.347  0.1147 -0.0471  0.4544
  943SOL    HW1 2828   2.129   1.594   2.257  3.4695  0.4243  3.4758
  943SOL    HW2 2829   2.155   1.594   2.434  1.5446  0.7552  1.1693
  944SOL     OW 2830   2.157   2.338   1.447  0.0795 -0.5731 -0.0574
  944SOL    HW1 2831   2.218   2.412   1.492  1.9413  0.6725 -0.5071
  944SOL    HW2 2832   2.093   2.286   1.511  0.0331 -0.7363  0.8704
  945SOL     OW 2833   0.655   1.504   0.304 -0.0018  0.1625  0.2319
  945SOL    HW1 2834   0.717   1.571   0.250 -1.5306  2.0167 -1.5093
  945SOL    HW2 2835   0.676   1.403   0.278 -2.1424 -0.3508 -1.0291
  946SOL     OW 2836   0.413   0.932   2.519  0.4177  0.0893  0.8508
  946SOL    HW1 2837   0.333   0.880   2.472 -0.5838 -1.2817 -0.1963
  946SOL    HW2 2838   0.388   1.020   2.565  3.2157  2.0066 -1.4782
  947SOL     OW 2839   1.558   0.542   0.070 -0.0620  0.6882  0.1866
  947SOL    HW1 2840   1.524   0.596  -0.014  1.2111  0.3813  3.7157
  947SOL    HW2 2841   1.478   0.495   0.114 -2.4380 -0.2076  0.4617
  948SOL     OW 2842   2.004   3.069   2.181  0.6627  0.5142  0.0954
  948SOL    HW1 2843   2.021   3.022   2.090 -2.0955 -0.5732  2.1296
  948SOL    HW2 2844   1.950   3.012   2.246  0.6343  0.1932  0.6752
  949SOL     OW 2845   0.636   2.503   0.533  0.3099 -0.0579  0.0819
  949SOL    HW1 2846   0.600   2.597   0.524  1.8293 -1.3992  0.5504
  949SOL    HW2 2847   0.632   2.458   0.623 -1.4007  3.1110 -0.1405
  950SOL     OW 2848   0.213   2.147   3.053  0.2355  0.4121 -0.1972
  950SOL    HW1 2849   0.139   2.224   3.054  0.5620  0.9120 -0.6815
  950SOL    HW2 2850   0.195   2.061   2.995 -1.0816 -1.9766  2.0828
  951SOL     OW 2851   1.180   2.827   2.657  0.0533  0.7335  0.2438
  951SOL    HW1 2852   1.159   2.877   2.570  0.2943  3.6198  2.6708
  951SOL    HW2 2853   1.281   2.814   2.668  2.1048 -0.4166  0.6393
  952SOL     OW 2854   0.117   1.651   0.450 -0.2289 -0.4280 -0.4764
  952SOL    HW1 2855   0.162   1.737   0.463  0.9248 -2.5471  2.2856
  952SOL    HW2 2856   0.134   1.594   0.537  0.9023  0.3518  2.3342
  953SOL     OW 2857   2.499   1.767   0.212 -0.3714 -0.4919 -0.6102
  953SOL    HW1 2858   2.504   1.672   0.245  0.2740  0.4589 -0.9827
  953SOL    HW2 2859   2.545   1.783   0.116  1.4253  3.8558 -0.5157
  954SOL     OW 2860   2.184   0.533   0.967  0.2137  0.0841  0.0420
  954SOL    HW1 2861   2.182   0.552   0.865 -0.8347 -1.6564 -0.1921
  954SOL    HW2 2862   2.283   0.509   1.002  2.0341 -0.4209 -0.9772
  955SOL     OW 2863   0.230   2.633   1.343  0.6200  0.3833  0.3758
  955SOL    HW1 2864   0.130   2.669   1.330 -0.8811  1.8052  0.3628
  955SOL    HW2 2865   0.288   2.658   1.263  0.7025  0.9206  0.3881
  956SOL     OW 2866   2.763   2.449   2.447  0.7708 -0.3698 -0.2965
  956SOL    HW1 2867   2.751   2.347   2.431 -0.4393  2.0868  0.6015
  956SOL    HW2 2868   2.803   2.503   2.368 -0.6976  1.8900 -4.4764
  957SOL     OW 2869   1.538   2.036   2.732 -0.1822 -0.2292 -0.3187
  957SOL    HW1 2870   1.501   1.937   2.740 -1.5836  1.0098  1.5837
  957SOL    HW2 2871   1.560   2.073   2.637 -0.3228 -2.2027  1.2271
  958SOL     OW 2872   2.683   2.342   2.960  0.5577 -0.0720 -0.1626
  958SOL    HW1 2873   2.590   2.380   2.930 -0.4109 -1.4267  0.9459
  958SOL    HW2 2874   2.666   2.290   3.049  1.5638 -1.7437 -2.0535
  959SOL     OW 2875   0.258   2.764   0.091  0.2201 -0.4007  0.5356
  959SOL    HW1 2876   0.159   2.749   0.077  0.0315  0.8987  0.9197
  959SOL    HW2 2877   0.298   2.695   0.158 -0.1041  1.0556 -0.9236
  960SOL     OW 2878   1.979   0.431   1.920  0.6650 -0.1105  0.0293
  960SOL    HW1 2879   1.942   0.525   1.901 -1.0548 -0.4665  0.6331
  960SOL    HW2 2880   1.972   0.416   2.025  0.6800  0.2850  0.4526
  961SOL     OW 2881   2.548   1.859   1.019  0.0937 -0.1161 -0.0667
  961SOL    HW1 2882   2.513   1.938   0.962  1.0506 -1.6977 -0.7497
  961SOL    HW2 2883   2.518   1.854   1.119  3.7846 -0.2664  0.7250
  962SOL     OW 2884   1.255   0.895   0.036 -0.4240 -0.0639  0.1106
  962SOL    HW1 2885   1.261   0.969  -0.037  0.6625 -0.8865  0.0423
  962SOL    HW2 2886   1.263   0.937   0.131 -0.4394  0.8820 -1.4210
  963SOL     OW 2887   2.180   2.562   1.868  0.8367  0.3300 -0.3214
  963SOL    HW1 2888   2.205   2.471   1.905 -1.8180 -0.6566 -1.1329
  963SOL    HW2 2889   2.200   2.632   1.943  1.5393  0.3278  1.3733
  964SOL     OW 2890   2.400   0.392   1.659 -0.0684 -0.0163 -0.0830
  964SOL    HW1 2891   2.474   0.448   1.710  3.8434  0.0347  0.7147
  964SOL    HW2 2892   2.420   0.384   1.558  2.0343  0.8470 -0.6727
  965SOL     OW 2893   2.578   3.074   0.176 -0.3516  0.6569  0.9676
  965SOL    HW1 2894   2.656   3.031   0.112 -1.8803  1.8303 -2.4833
  965SOL    HW2 2895   2.486   3.045   0.137  2.7597  2.4610 -1.7501
  966SOL     OW 2896   2.477   2.478   2.220 -0.4403 -0.2163  0.4431
  966SOL    HW1 2897   2.400   2.468   2.290 -1.1001  1.9908  0.4580
  966SOL    HW2 2898   2.444   2.516   2.132  1.1996 -0.3620  2.5225
  967SOL     OW 2899   2.811   2.824   2.445 -0.4286 -0.1141 -0.5029
  967SOL    HW1 2900   2.865   2.797   2.359 -1.4158 -0.3794  0.9607
  967SOL    HW2 2901   2.843   2.910   2.492  1.1572  0.4426 -1.9283
  968SOL     OW 2902   1.947   1.078   2.659 -0.2352  0.3471 -0.0790
  968SOL    HW1 2903   1.916   1.141   2.577  0.5440  0.6266 -3.4611
  968SOL    HW2 2904   1.905   0.983   2.660 -2.3086 -1.7830  2.0563
  969SOL     OW 2905   2.767   2.432   1.081 -0.3403  0.2681 -0.4094
  969SOL    HW1 2906   2.779   2.395   0.984 -0.6197  0.3541  0.0642
  969SOL    HW2 2907   2.785   2.363   1.154 -0.2918 -1.3733 -2.5256
  970SOL     OW 2908   1.066   2.133   1.785  0.0200 -0.1564  1.0080
  970SOL    HW1 2909   0.989   2.150   1.718  0.1882  0.8350  1.4627
  970SOL    HW2 2910   1.038   2.161   1.880 -1.0662  0.9968 -2.0229
  971SOL     OW 2911   2.823   2.091   1.889  0.1356  0.3572 -0.0066
  971SOL    HW1 2912   2.841   2.194   1.911  1.2051 -0.2136  1.0950
  971SOL    HW2 2913   2.857   2.055   1.794 -0.7973 -1.8181 -1.0102
  972SOL     OW 2914   1.944   2.416   0.204  0.2974 -0.4063  0.1779
  972SOL    HW1 2915   1.943   2.338   0.140  0.1272  1.5283 -0.7208
  972SOL    HW2 2916   1.997   2.399   0.290 -0.5380  0.2388  1.3177
  973SOL     OW 2917   1.338   1.063   1.886 -0.6178  0.1446  0.5207
  973SOL    HW1 2918   1.267   1.032   1.819  2.0625  0.4085  0.1134
  973SOL    HW2 2919   1.339   1.162   1.901 -1.7636 -1.4090  1.0030
  974SOL     OW 2920   1.623   0.558   1.980 -0.0779  0.1789 -0.3440
  974SOL    HW1 2921   1.692   0.624   1.941 -0.6840 -0.0531 -0.7528
  974SOL    HW2 2922   1.531   0.587   1.954  1.0733 -0.2383  2.4591
  975SOL     OW 2923   2.375   3.018   0.020  0.3977 -0.0499  0.3363
  975SOL    HW1 2924   2.320   2.930   0.046  1.8021 -1.9010  0.2967
  975SOL    HW2 2925   2.389   3.021  -0.081 -1.2466 -0.5132 -1.1858
  976SOL     OW 2926   1.903   2.881   2.348  0.2115  0.5235  0.2855
  976SOL    HW1 2927   1.834   2.826   2.297 -0.9589 -1.2961  2.4768
  976SOL    HW2 2928   1.926   2.840   2.443 -0.1996 -0.4442 -2.1553
  977SOL     OW 2929   0.456   0.696   1.010 -0.2932 -0.4174 -0.8248
  977SOL    HW1 2930   0.381   0.670   0.945  1.0576  2.5191  1.5407
  977SOL    HW2 2931   0.550   0.667   0.971 -0.2437 -2.9703  0.5441
   3.10000   3.10000   3.10000
