1000 SPC/Fw water molecules t=   0.64000 step= 640
 2931
    1SOL     OW    1   2.475   0.373   2.608 -0.3846 -0.3104 -0.1133
    1SOL    HW1    2   2.502   0.279   2.571  0.6759  1.3032 -1.0775
    1SOL    HW2    3   2.534   0.408   2.689 -0.5500 -0.0554 -2.2150
    2SOL     OW    4   2.710   3.056   1.400  0.7117 -0.1038 -0.0624
    2SOL    HW1    5   2.735   3.071   1.297  0.3596 -0.0476 -0.4759
    2SOL    HW2    6   2.685   3.141   1.447 -1.7802 -1.3950 -1.5877
    3SOL     OW    7   2.731   2.596   0.365 -0.0983  0.7047 -0.1595
    3SOL    HW1    8   2.696   2.498   0.386  0.2485 -2.1185 -1.5961
    3SOL    HW2    9   2.817   2.617   0.417  0.2855  0.5515  0.1449
    4SOL     OW   10   1.286   1.460   2.362 -0.2248  0.0472  0.0797
    4SOL    HW1   11   1.202   1.511   2.344  2.1071 -3.9020 -0.7119
    4SOL    HW2   12   1.266   1.368   2.401  1.6103 -1.4814 -2.8601
    5SOL     OW   13   1.174   1.500   3.080 -0.5292 -0.0046  0.0039
    5SOL    HW1   14   1.235   1.585   3.090  1.1528  0.6486  0.8749
    5SOL    HW2   15   1.072   1.519   3.091  1.6715  1.1126  0.2080
    6SOL     OW   16   0.093   1.847   2.935  0.1539  0.4427  0.0487
    6SOL    HW1   17   0.042   1.900   3.008 -3.5308  1.1613 -2.6144
    6SOL    HW2   18   0.164   1.792   2.981  1.2447  0.6305  0.6514
    7SOL     OW   19   2.525   0.925   1.147  0.1510  0.8290 -0.1624
    7SOL    HW1   20   2.457   0.843   1.159 -1.2116 -3.1759 -2.0618
    7SOL    HW2   21   2.558   0.925   1.050  0.6034  1.4726 -1.3386
    8SOL     OW   22   0.425   0.583   1.529 -0.5615 -0.3774 -0.1262
    8SOL    HW1   23   0.510   0.539   1.566  2.1021  1.2371  0.1876
    8SOL    HW2   24   0.434   0.600   1.427 -1.0007 -0.6752  0.0089
    9SOL     OW   25   1.142   0.912   2.312 -0.1169 -0.1535  0.2582
    9SOL    HW1   26   1.230   0.928   2.259 -0.4401 -0.1014  0.1437
    9SOL    HW2   27   1.068   0.880   2.248 -1.8497 -0.6854 -1.8708
   10SOL     OW   28   0.659   1.330   1.271 -0.6202  0.1590  0.1936
   10SOL    HW1   29   0.559   1.356   1.235 -2.3193 -1.4230 -0.5728
   10SOL    HW2   30   0.709   1.420   1.267 -0.8586 -1.6545  0.2125
   11SOL     OW   31   2.368   2.748   0.899  0.0713  0.3570 -1.0276
   11SOL    HW1   32   2.352   2.735   1.002 -1.7022  1.3750 -1.4406
   11SOL    HW2   33   2.465   2.772   0.864 -1.2070 -1.9040 -1.8902
   12SOL     OW   34   1.476   0.872   0.337  0.1026 -0.2654  0.7540
   12SOL    HW1   35   1.384   0.913   0.322 -0.5588 -1.5917 -1.6585
   12SOL    HW2   36   1.498   0.800   0.269 -0.4963 -0.3770  0.2786
   13SOL     OW   37   2.506   0.661   1.809  0.1104  0.4331  0.1056
   13SOL    HW1   38   2.423   0.684   1.867  1.1289  1.1057  1.8423
   13SOL    HW2   39   2.479   0.649   1.710  0.5846 -1.8338  2.4291
   14SOL     OW   40   1.960   0.100   0.736  0.3787  0.1807 -0.3742
   14SOL    HW1   41   1.891   0.129   0.661  1.7958  1.3188 -1.6753
   14SOL    HW2   42   1.926   0.017   0.789 -0.9437 -0.5945  1.4731
   15SOL     OW   43   1.946   2.009   2.772  0.1511  0.2253 -0.7478
   15SOL    HW1   44   1.897   2.101   2.771 -1.8908  1.3336  2.1690
   15SOL    HW2   45   1.890   1.929   2.740  0.4446  0.5261  1.9918
   16SOL     OW   46   1.614   1.721   3.017 -0.1720  0.2098 -0.1689
   16SOL    HW1   47   1.627   1.619   3.016  2.2753  1.3714  1.8239
   16SOL    HW2   48   1.690   1.771   3.063 -3.6262  0.3086  3.1007
   17SOL     OW   49   0.099   0.521   0.149  0.1614  0.0527  0.1794
   17SOL    HW1   50   0.180   0.547   0.092 -0.0821  1.3876  1.1437
   17SOL    HW2   51   0.014   0.508   0.085 -0.5986 -0.4855 -2.6683
   18SOL     OW   52   0.951   2.992   2.123 -0.3910  0.2309 -0.6028
   18SOL    HW1   53   0.884   2.918   2.133  0.4971  2.2613  1.7611
   18SOL    HW2   54   1.023   2.977   2.045 -2.0928  1.0386 -1.6576
   19SOL     OW   55   0.516   0.827   1.914  0.4496 -0.0695 -0.0962
   19SOL    HW1   56   0.531   0.787   2.009  0.7839 -1.2083 -3.1375
   19SOL    HW2   57   0.606   0.832   1.867 -1.1726 -0.1586  3.0475
   20SOL     OW   58   0.211   2.781   0.836  0.3458 -0.3787  0.3282
   20SOL    HW1   59   0.140   2.855   0.810  1.3870  1.4316  1.8595
   20SOL    HW2   60   0.257   2.747   0.749  1.1990 -0.2199  1.4970
   21SOL     OW   61   2.780   0.180   2.068 -0.2062 -0.3178  0.2872
   21SOL    HW1   62   2.723   0.114   2.012  1.2049 -1.3098  1.4557
   21SOL    HW2   63   2.866   0.133   2.100  0.6004  1.1231 -0.2836
   22SOL     OW   64   2.357   0.206   0.086 -0.0223 -0.2918 -0.4780
   22SOL    HW1   65   2.352   0.107   0.069  0.5894 -0.2899 -0.3612
   22SOL    HW2   66   2.261   0.248   0.091  0.4174 -0.5708 -1.3125
   23SOL     OW   67   2.745   0.649   0.620  0.4249  0.3935  0.2694
   23SOL    HW1   68   2.744   0.557   0.568 -1.8909 -2.8733 -2.1952
   23SOL    HW2   69   2.743   0.733   0.554 -0.9687  1.1445 -1.2709
   24SOL     OW   70   0.152   1.927   0.382  0.0675  0.1290 -0.0503
   24SOL    HW1   71   0.108   2.008   0.336  0.4328 -1.9409 -1.6039
   24SOL    HW2   72   0.249   1.923   0.336  1.5200 -0.8093 -0.1014
   25SOL     OW   73   2.227   0.503   0.281  0.1275  0.1808  0.6483
   25SOL    HW1   74   2.234   0.607   0.256  1.3330  0.0863 -0.4713
   25SOL    HW2   75   2.179   0.460   0.203  0.0020 -1.1612 -0.2749
   26SOL     OW   76   2.526   2.111   2.078  0.0322  0.2950  0.3999
   26SOL    HW1   77   2.577   2.157   2.152  0.9157 -1.9967 -0.1314
   26SOL    HW2   78   2.582   2.032   2.032 -0.0553 -2.1487 -0.6930
   27SOL     OW   79   0.595   2.957   0.177 -0.0224  0.7240  0.1465
   27SOL    HW1   80   0.699   2.948   0.173 -0.6933  0.5355  0.6966
   27SOL    HW2   81   0.553   2.961   0.081  2.9095  1.7508 -1.5892
   28SOL     OW   82   1.541   0.177   0.290  0.3113 -0.2036 -0.2160
   28SOL    HW1   83   1.580   0.174   0.193  1.3099 -1.1316  1.6606
   28SOL    HW2   84   1.512   0.277   0.318  2.2338  1.6394  1.8413
   29SOL     OW   85   1.962   0.547   0.400 -0.2449  0.0051  0.5509
   29SOL    HW1   86   1.968   0.645   0.426 -0.7666  1.6630  1.1175
   29SOL    HW2   87   2.056   0.506   0.389 -1.9042  3.5499  0.7320
   30SOL     OW   88   0.220   2.035   0.898 -0.2979 -0.1133  0.0313
   30SOL    HW1   89   0.205   2.040   0.792  3.3377  0.2012  0.8441
   30SOL    HW2   90   0.154   2.092   0.961 -3.8194 -2.9530  3.0437
   31SOL     OW   91   2.100   3.075   2.309 -0.0047 -0.2866  0.1737
   31SOL    HW1   92   2.083   3.094   2.408  1.2916  2.5374  0.8107
   31SOL    HW2   93   2.022   3.031   2.261  0.9666  1.3051 -1.0427
   32SOL     OW   94   2.954   0.182   0.259 -0.1019 -0.7981  0.3202
   32SOL    HW1   95   2.915   0.104   0.321  1.3629  0.9379 -0.0673
   32SOL    HW2   96   3.052   0.213   0.280  0.1540  0.0560  0.0894
   33SOL     OW   97   0.934   0.338   0.592  0.1841  0.0150  0.0227
   33SOL    HW1   98   0.939   0.238   0.568  0.9128 -0.5746 -0.5494
   33SOL    HW2   99   1.014   0.368   0.640 -2.8817 -2.4939  0.1474
   34SOL     OW  100   0.351   2.818   1.121 -0.4855  0.0915 -0.1512
   34SOL    HW1  101   0.290   2.817   1.038 -1.2251  0.5789  0.2597
   34SOL    HW2  102   0.453   2.837   1.103 -0.3925 -1.8507 -1.0838
   35SOL     OW  103   0.002   0.226   1.835 -0.4699  0.0685 -0.5848
   35SOL    HW1  104   0.042   0.139   1.871 -0.0241  0.8623  0.8922
   35SOL    HW2  105  -0.045   0.208   1.746 -0.5865 -0.9874 -1.4894
   36SOL     OW  106   1.962   1.085   1.837  0.3653  0.4149 -0.7304
   36SOL    HW1  107   1.988   1.069   1.742 -0.7641  2.0237  3.9869
   36SOL    HW2  108   2.011   1.172   1.870  1.3525  0.1772 -0.9039
   37SOL     OW  109   1.210   0.173   0.884 -0.1354 -0.1514 -0.3982
   37SOL    HW1  110   1.263   0.231   0.956  0.0786  0.1604 -0.3327
   37SOL    HW2  111   1.261   0.085   0.856  0.7075 -1.3117 -1.9924
   38SOL     OW  112   1.112   2.784   2.415 -0.2494 -0.0062 -0.1013
   38SOL    HW1  113   1.041   2.709   2.428  2.0982  2.5344  0.8701
   38SOL    HW2  114   1.068   2.879   2.413  0.0570  2.4484 -1.4310
   39SOL     OW  115   2.346   1.398   3.021  0.0153 -0.0491  0.2534
   39SOL    HW1  116   2.436   1.349   3.049  0.6370 -2.3397  0.4154
   39SOL    HW2  117   2.279   1.398   3.105 -0.1838  4.9472  3.5860
   40SOL     OW  118   2.091   2.500   2.570  0.0643 -0.3279  0.6771
   40SOL    HW1  119   2.057   2.600   2.571 -2.2375 -1.8492  2.1321
   40SOL    HW2  120   2.024   2.423   2.534 -1.7602 -2.1814 -0.4750
   41SOL     OW  121   2.968   0.668   2.767  0.8031 -0.6155  0.6434
   41SOL    HW1  122   2.896   0.739   2.735 -1.0744  1.3364 -0.4895
   41SOL    HW2  123   2.942   0.566   2.755  0.9473 -4.1344  0.9230
   42SOL     OW  124   1.766   1.781   0.537 -0.1150  0.1245  0.1138
   42SOL    HW1  125   1.737   1.682   0.520 -3.6928  1.1586  0.3621
   42SOL    HW2  126   1.794   1.828   0.452 -0.3096  0.5242  1.1058
   43SOL     OW  127   0.470   1.702   1.080 -0.4687 -0.7245  0.1717
   43SOL    HW1  128   0.465   1.610   1.130 -1.7232  2.5042  1.6860
   43SOL    HW2  129   0.398   1.722   1.012  1.5108 -2.9889 -1.1112
   44SOL     OW  130   1.826   2.479   3.053  0.4780  0.1127  0.1364
   44SOL    HW1  131   1.831   2.559   2.990 -3.0870 -2.5094  1.3895
   44SOL    HW2  132   1.916   2.442   3.081 -3.4394  0.8255 -2.5402
   45SOL     OW  133   0.336   1.910   2.609  0.7176  0.5737 -0.2955
   45SOL    HW1  134   0.300   1.912   2.507 -0.0839  0.1964 -2.0325
   45SOL    HW2  135   0.410   1.832   2.619  1.8548 -2.3670  0.5951
   46SOL     OW  136   1.237   0.674   0.158  0.2820  0.3983  0.5731
   46SOL    HW1  137   1.263   0.767   0.112 -0.4862  4.2194  3.5058
   46SOL    HW2  138   1.141   0.676   0.202  0.1837  0.4716 -0.4229
   47SOL     OW  139   0.205   2.457   1.634 -0.0076  0.2937 -0.0159
   47SOL    HW1  140   0.274   2.385   1.649 -1.8816 -0.5460 -2.3162
   47SOL    HW2  141   0.193   2.489   1.532  1.2175  2.1732 -2.2769
   48SOL     OW  142   2.615   0.615   0.138 -0.0379  0.1003 -0.1312
   48SOL    HW1  143   2.582   0.616   0.241 -3.6297 -1.3017 -1.6681
   48SOL    HW2  144   2.707   0.648   0.114 -3.5702  0.1427  0.9467
   49SOL     OW  145   0.335   0.774   1.709 -0.4812  0.3658  0.0434
   49SOL    HW1  146   0.412   0.784   1.776 -0.1488 -0.2864 -1.2266
   49SOL    HW2  147   0.357   0.692   1.649 -0.8725  1.0070 -1.3348
   50SOL     OW  148   1.659   1.135   0.304  0.1360  0.2378 -0.4895
   50SOL    HW1  149   1.651   1.033   0.273  0.2648  1.4763  0.6802
   50SOL    HW2  150   1.603   1.151   0.390  1.2714  0.3191 -3.0093
   51SOL     OW  151   2.896   1.832   0.371 -0.2282  0.0298  0.4188
   51SOL    HW1  152   2.934   1.814   0.277 -1.0074 -1.7795 -2.3121
   51SOL    HW2  153   2.933   1.768   0.443 -1.0060  1.3186  0.9092
   52SOL     OW  154   0.776   1.988   0.478  0.2664  0.2185  0.1534
   52SOL    HW1  155   0.689   2.037   0.515 -2.4603 -0.1219 -2.4949
   52SOL    HW2  156   0.789   1.898   0.528  0.1033  2.6484 -1.8070
   53SOL     OW  157   0.064   0.416   1.574  1.0249  0.5572  0.5156
   53SOL    HW1  158   0.088   0.471   1.658  1.7638  0.2987 -0.6976
   53SOL    HW2  159  -0.025   0.445   1.527  5.1899  0.4433  0.6671
   54SOL     OW  160   1.768   0.468   3.079  0.8777 -0.2687 -0.4672
   54SOL    HW1  161   1.800   0.414   3.159 -0.4047  0.6068 -1.3717
   54SOL    HW2  162   1.663   0.467   3.064  1.6522  0.4183  0.4788
   55SOL     OW  163   0.775   2.904   0.674  0.6501  0.1920  0.2027
   55SOL    HW1  164   0.735   3.001   0.651 -2.0690 -0.8398  1.2081
   55SOL    HW2  165   0.877   2.909   0.656 -1.9232  2.4719 -2.4045
   56SOL     OW  166   0.443   1.562   3.070 -0.0382  0.9983  0.9397
   56SOL    HW1  167   0.345   1.587   3.053  1.9358 -0.6663 -0.1071
   56SOL    HW2  168   0.465   1.460   3.042  1.2138 -4.0517 -0.1525
   57SOL     OW  169   1.797   2.515   2.621 -0.7122 -0.2071 -1.2467
   57SOL    HW1  170   1.829   2.455   2.543  1.7329  1.8055  1.7174
   57SOL    HW2  171   1.693   2.510   2.636 -2.6993  0.3069  0.3854
   58SOL     OW  172   0.653   0.351   1.035  0.0193 -0.6194  0.1454
   58SOL    HW1  173   0.605   0.445   1.038 -0.9361  0.9372 -1.4734
   58SOL    HW2  174   0.600   0.268   1.064  2.8452 -0.5768 -1.1299
   59SOL     OW  175   0.421   2.399   2.777  0.4425  0.0586 -0.1767
   59SOL    HW1  176   0.443   2.304   2.738  0.7549  0.2807  1.2238
   59SOL    HW2  177   0.501   2.434   2.834  3.6911 -0.3121  1.3493
   60SOL     OW  178   2.302   2.034   2.204 -0.4881  0.1233 -0.4626
   60SOL    HW1  179   2.388   2.060   2.160  0.1908 -1.6550  4.0844
   60SOL    HW2  180   2.306   2.059   2.303 -1.4672  2.1481 -1.9102
   61SOL     OW  181   1.297   0.601   0.495 -0.1508  0.4090 -0.5459
   61SOL    HW1  182   1.225   0.654   0.546 -1.8533 -0.1795 -0.3707
   61SOL    HW2  183   1.298   0.619   0.396  0.9575  2.3237 -0.1728
   62SOL     OW  184   2.700   1.795   2.925  0.6848 -0.2871  0.0048
   62SOL    HW1  185   2.675   1.701   2.963  0.1461 -1.8756  3.0552
   62SOL    HW2  186   2.796   1.791   2.878 -0.5812 -1.0998  0.2060
   63SOL     OW  187   0.608   0.917   0.158  0.0644 -0.4907 -0.0905
   63SOL    HW1  188   0.591   1.016   0.161  2.8554 -1.3740 -1.7174
   63SOL    HW2  189   0.665   0.890   0.238  0.4830 -3.5570 -2.4572
   64SOL     OW  190   0.109   0.562   2.538  0.3991 -0.4025 -0.2746
   64SOL    HW1  191   0.192   0.527   2.588  0.7322  0.5239 -2.7956
   64SOL    HW2  192   0.134   0.642   2.472  2.3706 -0.0427  1.6454
   65SOL     OW  193   0.202   1.482   0.572 -0.4210 -0.2289 -0.2453
   65SOL    HW1  194   0.221   1.528   0.662 -1.0215  0.4090  0.3954
   65SOL    HW2  195   0.275   1.484   0.503 -1.0566 -1.1376 -0.2314
   66SOL     OW  196   2.530   0.393   0.580 -0.2379 -1.0849 -0.1648
   66SOL    HW1  197   2.518   0.430   0.674  2.5783 -1.7688  0.4927
   66SOL    HW2  198   2.532   0.289   0.584  2.2863  1.4115 -0.1216
   67SOL     OW  199   0.553   2.525   1.367 -0.3938  0.1309 -0.3365
   67SOL    HW1  200   0.608   2.510   1.452 -2.3310 -1.7115 -0.6321
   67SOL    HW2  201   0.482   2.451   1.353  0.8910 -1.2832  1.6106
   68SOL     OW  202   1.013   1.120   2.442  0.4152  0.3725 -0.2668
   68SOL    HW1  203   1.075   1.042   2.406 -0.2137 -1.3117  2.2916
   68SOL    HW2  204   0.917   1.130   2.399  1.0486 -1.6772  0.0116
   69SOL     OW  205   0.784   2.777   2.222 -0.7354  0.0603  0.2069
   69SOL    HW1  206   0.812   2.676   2.215  1.7035 -1.5139 -0.3846
   69SOL    HW2  207   0.692   2.800   2.188 -0.1990 -0.3686  0.9637
   70SOL     OW  208   0.595   0.305   2.715 -0.5316  0.3674  0.0295
   70SOL    HW1  209   0.568   0.348   2.803 -0.0056 -1.7119  1.2031
   70SOL    HW2  210   0.592   0.205   2.729  0.7556 -0.0898 -0.8650
   71SOL     OW  211   1.057   1.734   0.352 -0.0279 -0.6735  0.4769
   71SOL    HW1  212   0.986   1.663   0.378 -0.8975  1.7695 -0.1567
   71SOL    HW2  213   1.045   1.773   0.260 -0.4621 -1.6572 -1.3001
   72SOL     OW  214   1.799   0.167   2.076  0.4467 -0.2599  1.2696
   72SOL    HW1  215   1.869   0.189   2.002 -0.6994  0.8859 -1.0178
   72SOL    HW2  216   1.819   0.074   2.114  0.1308  2.0904 -1.8648
   73SOL     OW  217   2.814   2.148   2.449  0.4580 -0.2482 -0.4407
   73SOL    HW1  218   2.787   2.057   2.423  1.1128 -3.4782 -1.2377
   73SOL    HW2  219   2.842   2.154   2.550  0.8745 -2.1496 -0.3750
   74SOL     OW  220   2.720   2.898   2.043 -0.4015 -0.4517  0.7003
   74SOL    HW1  221   2.638   2.916   2.110  1.9550  0.5434  1.3000
   74SOL    HW2  222   2.803   2.955   2.069 -0.8814 -1.4891 -1.3662
   75SOL     OW  223   0.927   0.740   1.058 -0.0223 -0.7305  0.3090
   75SOL    HW1  224   0.835   0.788   1.019 -1.8575  2.7426  0.1385
   75SOL    HW2  225   0.978   0.807   1.123  3.0997 -1.0755 -0.0639
   76SOL     OW  226   1.680   1.280   2.532 -0.4472  0.2337  0.1138
   76SOL    HW1  227   1.578   1.248   2.534 -3.1602 -0.5805  0.1756
   76SOL    HW2  228   1.699   1.363   2.588  0.7769 -0.2057 -0.2695
   77SOL     OW  229   2.955   0.938   0.959  0.4917 -0.2241  0.1306
   77SOL    HW1  230   2.917   0.847   0.932  1.9046  0.8711  0.3118
   77SOL    HW2  231   2.973   0.935   1.061 -2.5376 -2.5013 -1.2401
   78SOL     OW  232   2.055   1.385   1.533  0.0225 -0.2244 -0.1755
   78SOL    HW1  233   2.144   1.436   1.513  0.4131  1.0877  1.2131
   78SOL    HW2  234   2.034   1.310   1.466  2.6315  0.3009 -3.5490
   79SOL     OW  235   0.659   1.347   0.882 -0.0639  0.0853 -0.1471
   79SOL    HW1  236   0.557   1.364   0.880  2.8414  0.9808 -1.2224
   79SOL    HW2  237   0.694   1.319   0.789  0.1019 -2.1187  0.1133
   80SOL     OW  238   0.672   0.459   1.619 -0.4002 -0.2016 -0.0262
   80SOL    HW1  239   0.724   0.529   1.563  0.1917 -0.3936 -1.2805
   80SOL    HW2  240   0.704   0.362   1.592 -0.4355 -0.7040  2.0250
   81SOL     OW  241   1.043   1.393   2.596 -0.1808 -0.0597  0.1973
   81SOL    HW1  242   1.058   1.295   2.589 -0.9572 -2.0037 -3.5346
   81SOL    HW2  243   0.951   1.413   2.557  2.3648  0.7045  0.8318
   82SOL     OW  244   0.929   2.939   1.501  0.2294 -0.0962 -0.3903
   82SOL    HW1  245   0.979   2.973   1.417  0.8427  0.9913 -0.7694
   82SOL    HW2  246   0.841   2.884   1.488  0.0033  0.8002  1.5205
   83SOL     OW  247   2.700   2.501   0.845  0.4786  0.1285  0.1603
   83SOL    HW1  248   2.630   2.425   0.818 -2.0408  0.1396 -0.7063
   83SOL    HW2  249   2.676   2.595   0.815  0.5448  0.8073  0.5070
   84SOL     OW  250   0.683   3.063   2.313 -0.2575 -0.5293 -0.0127
   84SOL    HW1  251   0.639   3.041   2.400  0.6610 -1.2605  1.7095
   84SOL    HW2  252   0.776   3.020   2.299  0.6406  3.5501  2.5174
   85SOL     OW  253   0.350   1.601   1.540 -0.1131 -0.4399  0.3637
   85SOL    HW1  254   0.302   1.688   1.547  0.9487 -2.8843 -3.7067
   85SOL    HW2  255   0.377   1.563   1.629 -3.9534 -2.0228 -1.6242
   86SOL     OW  256   0.377   0.971   1.517  0.4184 -0.0786 -0.1149
   86SOL    HW1  257   0.335   0.934   1.430 -0.4313 -0.2865 -0.7059
   86SOL    HW2  258   0.386   0.898   1.591  1.6352 -1.6441  0.3729
   87SOL     OW  259   1.551   0.665   0.181  0.1936 -0.0354  0.3177
   87SOL    HW1  260   1.642   0.722   0.192  1.3428  1.5743 -1.3780
   87SOL    HW2  261   1.530   0.628   0.087 -0.4166 -0.3779 -0.5489
   88SOL     OW  262   1.574   1.395   0.231 -0.1064 -0.4788 -0.2674
   88SOL    HW1  263   1.595   1.294   0.246 -1.8186 -1.2762 -0.6414
   88SOL    HW2  264   1.469   1.401   0.244 -2.5503 -1.2919  0.3253
   89SOL     OW  265   0.026   0.431   0.589 -0.2503  0.0676 -0.1059
   89SOL    HW1  266   0.096   0.354   0.603 -1.2970  0.1147  0.3989
   89SOL    HW2  267  -0.069   0.395   0.571 -1.7131 -0.6353 -0.1026
   90SOL     OW  268   0.925   1.605   0.008  0.1681  0.8697  0.6155
   90SOL    HW1  269   0.855   1.555   0.064  1.4299  1.3766  0.2695
   90SOL    HW2  270   0.886   1.632  -0.087 -1.2358 -0.6115  0.4050
   91SOL     OW  271   1.263   1.430   1.789 -0.0285  0.3944 -0.5068
   91SOL    HW1  272   1.233   1.504   1.861  0.8956 -0.7347  1.8596
   91SOL    HW2  273   1.366   1.429   1.772 -0.3173  1.8036  1.4575
   92SOL     OW  274   3.091   0.951   1.217  0.8348 -0.7030  0.0080
   92SOL    HW1  275   3.148   1.022   1.165 -0.1079 -1.2046 -0.6576
   92SOL    HW2  276   3.125   0.941   1.313 -1.6261 -0.9030  0.6097
   93SOL     OW  277   0.017   2.747   0.017  0.7493  0.0265 -0.1325
   93SOL    HW1  278  -0.047   2.751  -0.065  1.8537  0.0894  0.4130
   93SOL    HW2  279   0.049   2.655   0.056  1.8916  0.4231 -2.6516
   94SOL     OW  280   1.528   1.469   1.759 -0.5905 -0.8285  0.0929
   94SOL    HW1  281   1.594   1.392   1.770 -2.9036  0.2124  2.9199
   94SOL    HW2  282   1.553   1.556   1.816  0.3384 -0.4111  0.1504
   95SOL     OW  283   1.403   2.518   3.023  0.5538  0.0568  0.2258
   95SOL    HW1  284   1.312   2.508   3.068  1.1353  1.7485 -2.6673
   95SOL    HW2  285   1.428   2.430   2.976  0.5327 -0.1216 -1.4477
   96SOL     OW  286   0.536   2.056   1.318  0.4432  0.9220  0.2328
   96SOL    HW1  287   0.506   2.018   1.223 -0.2912 -1.5479  1.4704
   96SOL    HW2  288   0.599   1.986   1.362 -0.2261  1.4445 -0.9865
   97SOL     OW  289   0.409   1.622   2.440 -0.2032  0.2521 -0.1943
   97SOL    HW1  290   0.314   1.583   2.437 -0.4797 -0.3988 -0.7993
   97SOL    HW2  291   0.429   1.675   2.529 -0.4630 -2.2730  0.3598
   98SOL     OW  292   1.957   1.590   1.244 -0.1118  0.1746  0.1600
   98SOL    HW1  293   1.909   1.549   1.328  2.3646  0.6199 -0.7013
   98SOL    HW2  294   1.963   1.526   1.163  0.1194  1.6194 -0.1481
   99SOL     OW  295   2.470   2.132   1.362 -0.0897  0.1125 -0.0158
   99SOL    HW1  296   2.465   2.212   1.427 -1.6427  0.2104 -0.1541
   99SOL    HW2  297   2.418   2.047   1.386 -0.4039  0.4770 -1.3425
  100SOL     OW  298   2.291   0.356   2.076 -0.1313 -0.5798 -0.0923
  100SOL    HW1  299   2.252   0.309   2.158 -1.6589 -0.4309  0.7138
  100SOL    HW2  300   2.386   0.390   2.095  3.4681 -1.7539  0.1024
  101SOL     OW  301   0.354   1.509   0.252 -0.3569  0.6494 -0.3547
  101SOL    HW1  302   0.422   1.509   0.328 -0.8508  0.5239 -0.5900
  101SOL    HW2  303   0.365   1.590   0.193 -0.3780  0.4220  0.2216
  102SOL     OW  304   2.308   1.012   0.839 -0.2956 -0.3601  0.3192
  102SOL    HW1  305   2.216   0.959   0.834 -0.6344  0.3038  0.7861
  102SOL    HW2  306   2.322   1.079   0.763  1.8075  0.4101  1.6054
  103SOL     OW  307   2.298   0.018   0.404  0.0546 -0.1426 -0.2885
  103SOL    HW1  308   2.309   0.118   0.384  0.9550  0.3902  0.1637
  103SOL    HW2  309   2.383  -0.012   0.460 -1.2056  2.4170  0.5137
  104SOL     OW  310   0.092   1.749   2.192  0.4224  0.6954 -0.4693
  104SOL    HW1  311   0.138   1.720   2.098  2.2493  1.4035 -3.1342
  104SOL    HW2  312  -0.007   1.774   2.191 -0.8303 -0.7091  2.6935
  105SOL     OW  313   1.278   2.112   0.777 -0.1135  0.1478 -0.3382
  105SOL    HW1  314   1.197   2.140   0.719  0.8612  1.3763  0.4973
  105SOL    HW2  315   1.314   2.020   0.753 -2.2661  0.2823  0.9372
  106SOL     OW  316   2.149   0.529   1.398 -0.2089 -0.7938 -0.0146
  106SOL    HW1  317   2.101   0.454   1.448 -1.0683  0.1070  1.2407
  106SOL    HW2  318   2.142   0.617   1.448  1.8807 -0.9263 -0.7624
  107SOL     OW  319   1.756   2.998   1.136 -0.1365  0.4002  0.4457
  107SOL    HW1  320   1.788   3.089   1.173  1.4819 -0.6524  0.2143
  107SOL    HW2  321   1.701   2.943   1.206 -2.5902 -0.2540  2.2456
  108SOL     OW  322   0.829   2.778   1.192 -0.0256  0.3357 -0.3356
  108SOL    HW1  323   0.806   2.771   1.294  0.7197  2.7130  0.3891
  108SOL    HW2  324   0.925   2.755   1.169 -0.2665  0.0969  0.3301
  109SOL     OW  325   2.230   0.108   0.765 -0.8787 -0.4550 -0.1573
  109SOL    HW1  326   2.131   0.105   0.737 -1.0649  0.0755 -2.3292
  109SOL    HW2  327   2.245   0.119   0.866 -1.4081  1.2968 -0.6466
  110SOL     OW  328   0.447   2.865   2.753 -0.0625  0.0216  0.5832
  110SOL    HW1  329   0.423   2.860   2.649  0.2276 -0.5072 -0.6509
  110SOL    HW2  330   0.532   2.805   2.775 -0.9896 -0.9868  0.8072
  111SOL     OW  331   1.304   0.506   2.281 -0.2955 -0.2341  0.1624
  111SOL    HW1  332   1.241   0.543   2.358  0.9516  0.8015  0.9011
  111SOL    HW2  333   1.368   0.431   2.306 -0.1974  0.1955  0.2704
  112SOL     OW  334   1.741   0.510   1.492 -0.5839  0.3434  0.2118
  112SOL    HW1  335   1.764   0.468   1.398 -0.0316  0.9396 -0.0690
  112SOL    HW2  336   1.709   0.438   1.558 -1.2281  2.5402 -2.6392
  113SOL     OW  337   2.256   1.646   1.784  0.0534  0.1966 -0.2207
  113SOL    HW1  338   2.284   1.553   1.748 -0.7950 -1.4771  3.3752
  113SOL    HW2  339   2.302   1.669   1.877 -1.6974 -1.1198  1.0872
  114SOL     OW  340   0.404   0.498   1.240  0.0702 -0.6147  0.3411
  114SOL    HW1  341   0.449   0.576   1.183  0.9172 -1.1167 -0.6840
  114SOL    HW2  342   0.305   0.479   1.203  1.1913 -0.1101 -0.1729
  115SOL     OW  343   2.778   1.645   1.292  0.2354 -0.2679  0.5430
  115SOL    HW1  344   2.772   1.543   1.316 -0.1237 -2.2822  0.5113
  115SOL    HW2  345   2.793   1.663   1.193  0.8890 -0.3439  1.5143
  116SOL     OW  346   1.837   1.038   0.707  0.1952 -0.1042 -0.2542
  116SOL    HW1  347   1.758   1.012   0.650 -0.1883  2.3701 -1.0685
  116SOL    HW2  348   1.815   1.128   0.754 -0.0430 -0.3206 -1.8996
  117SOL     OW  349   1.182   0.384   0.709  0.7433  0.3200  0.1726
  117SOL    HW1  350   1.250   0.376   0.791 -2.0300 -1.8016  1.2455
  117SOL    HW2  351   1.195   0.469   0.656 -0.2935  0.2448  1.3314
  118SOL     OW  352   1.106   1.166   1.068  0.3247 -0.0443 -0.2837
  118SOL    HW1  353   1.071   1.081   1.118 -2.9487 -2.9137  1.9016
  118SOL    HW2  354   1.150   1.224   1.140 -0.3599 -2.9299 -0.6736
  119SOL     OW  355   1.829   1.610   2.104 -0.0224 -0.6375  0.2529
  119SOL    HW1  356   1.810   1.716   2.127 -0.1297  2.8362  1.5896
  119SOL    HW2  357   1.930   1.589   2.131 -1.2454 -1.6178 -0.6076
  120SOL     OW  358   2.934   2.834   0.213 -0.4679 -0.5424 -0.3203
  120SOL    HW1  359   2.988   2.805   0.132  1.2052 -0.3585 -0.5483
  120SOL    HW2  360   2.860   2.765   0.235 -0.1185  2.0441 -0.5701
  121SOL     OW  361   2.024   0.764   2.310 -0.0902  0.1300  0.8240
  121SOL    HW1  362   2.047   0.834   2.241  0.7967 -3.8220  1.0369
  121SOL    HW2  363   2.040   0.667   2.274  0.2275 -1.4791  0.9113
  122SOL     OW  364   2.614   2.700   1.248  0.9013 -0.0786  0.1166
  122SOL    HW1  365   2.659   2.608   1.209  1.9709 -2.2934 -0.8099
  122SOL    HW2  366   2.615   2.776   1.179 -0.3648 -1.6081 -0.6850
  123SOL     OW  367   1.723   0.064   1.672  0.0683  0.0983 -0.0454
  123SOL    HW1  368   1.756  -0.022   1.622 -0.5810  1.3317 -1.0372
  123SOL    HW2  369   1.795   0.100   1.743  2.3248 -0.6445  2.0377
  124SOL     OW  370   0.130   0.417   1.116 -0.2457  0.2060 -0.2874
  124SOL    HW1  371   0.113   0.507   1.169  0.5726  1.9737  3.7636
  124SOL    HW2  372   0.089   0.421   1.017  3.5539 -0.8155 -0.4631
  125SOL     OW  373   0.842   1.813   0.686 -0.1291  0.7279  0.1941
  125SOL    HW1  374   0.942   1.781   0.679 -0.0354  1.0840  1.8571
  125SOL    HW2  375   0.805   1.824   0.780 -1.0279  1.8349 -3.0083
  126SOL     OW  376   1.904   2.317   2.471 -0.2502  0.0071  0.7522
  126SOL    HW1  377   1.971   2.291   2.395 -1.2182 -1.5407 -0.4225
  126SOL    HW2  378   1.824   2.249   2.475  1.1900 -1.2284  1.6448
  127SOL     OW  379   0.846   0.884   0.309  0.2140 -0.1218 -0.4199
  127SOL    HW1  380   0.868   0.938   0.397  2.2537 -0.5671  0.9413
  127SOL    HW2  381   0.925   0.822   0.280  1.4397 -0.9474  1.8735
  128SOL     OW  382   0.969   0.225   1.370 -0.2902  0.4777 -0.0146
  128SOL    HW1  383   0.930   0.304   1.328 -0.0956  0.3775  0.4995
  128SOL    HW2  384   0.924   0.139   1.339  0.7468 -0.1817 -0.4114
  129SOL     OW  385   1.836   0.705   1.888 -0.0125  0.7669 -0.3653
  129SOL    HW1  386   1.856   0.727   1.788 -1.0156 -2.0160  3.2281
  129SOL    HW2  387   1.873   0.785   1.947  3.8628  1.6480  1.0898
  130SOL     OW  388   1.371   2.232   1.015  0.1539 -0.3995  0.1739
  130SOL    HW1  389   1.323   2.199   0.929 -0.0325 -1.1464 -0.3192
  130SOL    HW2  390   1.450   2.296   1.000 -0.2209 -1.4652  1.1698
  131SOL     OW  391   3.057   1.440   1.372 -0.6230 -0.1472 -0.1397
  131SOL    HW1  392   3.024   1.343   1.377 -1.4171  3.2623 -0.0065
  131SOL    HW2  393   3.158   1.453   1.364 -1.1470 -3.2488 -1.0685
  132SOL     OW  394   2.015   2.452   0.542  0.6525  0.2921  0.4845
  132SOL    HW1  395   1.925   2.420   0.502  2.5909  1.5216 -0.7035
  132SOL    HW2  396   2.046   2.396   0.629  2.2598 -2.7745  0.3482
  133SOL     OW  397   1.861   2.266   2.767  0.8673  0.5354 -0.2083
  133SOL    HW1  398   1.921   2.286   2.848 -0.0141  0.6710 -1.3065
  133SOL    HW2  399   1.844   2.350   2.714 -0.6010  0.5650  1.2876
  134SOL     OW  400   2.685   2.317   1.650  0.4640  0.2083  0.3477
  134SOL    HW1  401   2.629   2.291   1.735  0.5921 -0.7459  0.5464
  134SOL    HW2  402   2.733   2.409   1.651  2.4241 -2.0647  0.9387
  135SOL     OW  403   0.720   1.507   2.659 -0.0088 -0.4419  0.4762
  135SOL    HW1  404   0.666   1.426   2.701  2.0636 -0.6770 -0.8079
  135SOL    HW2  405   0.758   1.482   2.563 -1.4102 -4.2005 -4.5301
  136SOL     OW  406   1.192   1.946   0.442 -0.5995 -0.0871 -0.0474
  136SOL    HW1  407   1.144   1.996   0.516  2.3678 -1.3091 -0.7172
  136SOL    HW2  408   1.147   1.859   0.410  2.0990 -0.6542 -1.1443
  137SOL     OW  409   0.406   1.130   2.149  0.2205  0.1763  0.1629
  137SOL    HW1  410   0.321   1.126   2.208  0.1777 -0.7808  1.8516
  137SOL    HW2  411   0.474   1.058   2.171  0.2761 -0.1074 -3.2469
  138SOL     OW  412   2.480   1.490   0.278  0.4039  0.0707  0.1084
  138SOL    HW1  413   2.382   1.478   0.244 -0.2292  2.5137 -0.2991
  138SOL    HW2  414   2.516   1.410   0.332  1.1127  1.8739  0.1107
  139SOL     OW  415   1.819   2.649   1.297  0.3131 -0.2688  0.1701
  139SOL    HW1  416   1.733   2.653   1.240  2.0914  1.0120 -1.1246
  139SOL    HW2  417   1.858   2.560   1.317 -0.4656  2.7302  0.9443
  140SOL     OW  418   2.999   2.901   2.609  0.7004 -0.1486  0.0027
  140SOL    HW1  419   3.023   2.803   2.592 -0.2079 -2.3466  0.1678
  140SOL    HW2  420   3.080   2.953   2.639  0.1434  0.8116  0.0176
  141SOL     OW  421   1.272   1.702   1.615  0.1323 -0.3367  0.3270
  141SOL    HW1  422   1.198   1.768   1.634  4.0242  1.6406  1.9416
  141SOL    HW2  423   1.289   1.642   1.697 -0.0059  1.7654  0.4977
  142SOL     OW  424   1.550   0.616   2.199  0.3916 -0.3135  0.5239
  142SOL    HW1  425   1.560   0.579   2.103  0.1635  1.3580  0.0452
  142SOL    HW2  426   1.452   0.599   2.241 -0.6038 -0.5258  2.6237
  143SOL     OW  427   2.739   0.907   0.483  0.2831  0.0903  0.1222
  143SOL    HW1  428   2.776   0.946   0.396 -3.4847  0.7382 -0.3606
  143SOL    HW2  429   2.781   0.945   0.569 -0.2382 -0.1282  2.0712
  144SOL     OW  430   2.933   1.191   1.450  0.1597 -0.5243  0.1406
  144SOL    HW1  431   2.865   1.167   1.528 -2.4707 -0.6744 -1.6873
  144SOL    HW2  432   3.012   1.121   1.453 -0.7179 -1.5301  2.5061
  145SOL     OW  433   1.001   1.858   0.076 -0.0649  0.0518 -0.2148
  145SOL    HW1  434   0.993   1.934   0.008 -1.0583 -0.5538  1.0095
  145SOL    HW2  435   0.999   1.760   0.039 -1.7705 -0.5567  0.4986
  146SOL     OW  436   2.455   0.694   1.521  0.0973 -0.0018 -0.6329
  146SOL    HW1  437   2.426   0.603   1.482  2.4887  0.0924  0.8685
  146SOL    HW2  438   2.408   0.783   1.484  0.3324  3.4410 -0.6822
  147SOL     OW  439   1.106   2.478   0.611  0.5449  0.3534  0.0604
  147SOL    HW1  440   1.052   2.524   0.528 -2.1971  3.4834 -1.7081
  147SOL    HW2  441   1.196   2.434   0.588  1.3097 -1.0500 -1.8230
  148SOL     OW  442   1.661   1.456   3.077  0.2485  0.0880 -0.0708
  148SOL    HW1  443   1.676   1.370   3.022  0.2891  1.2301 -3.2329
  148SOL    HW2  444   1.618   1.445   3.172  0.0593  1.0332 -0.5238
  149SOL     OW  445   0.708   1.434   1.962 -0.1909 -0.2321  0.4649
  149SOL    HW1  446   0.622   1.421   2.018  0.6963 -0.4256 -0.6252
  149SOL    HW2  447   0.702   1.389   1.868  0.1799 -0.5785  2.0411
  150SOL     OW  448   3.042   1.267   0.976  0.0776  0.2957 -0.0617
  150SOL    HW1  449   3.132   1.239   1.020 -0.5006 -1.2738 -0.4562
  150SOL    HW2  450   2.981   1.185   0.971 -1.5429  0.5829 -0.8032
  151SOL     OW  451   0.228   0.759   2.101  0.5002 -0.4702  0.7110
  151SOL    HW1  452   0.240   0.839   2.035 -2.0551  2.5790  0.7424
  151SOL    HW2  453   0.202   0.672   2.049 -0.8445 -2.3478  0.8647
  152SOL     OW  454   1.387   1.793   1.290  0.3830 -0.5707 -0.5543
  152SOL    HW1  455   1.367   1.881   1.344  0.0095 -3.1053  1.4958
  152SOL    HW2  456   1.300   1.756   1.245 -0.6394 -1.0963 -1.5322
  153SOL     OW  457   3.061   1.516   0.184 -0.2975 -0.3778 -0.2532
  153SOL    HW1  458   3.081   1.414   0.195 -1.1288 -0.4210  1.2154
  153SOL    HW2  459   3.054   1.566   0.274 -1.7979 -0.6099  0.1201
  154SOL     OW  460   2.340   1.840   2.764  0.5677 -0.1916 -0.5423
  154SOL    HW1  461   2.347   1.737   2.777 -1.1530  1.2753  1.1104
  154SOL    HW2  462   2.430   1.879   2.731  1.4530 -4.1458 -1.3231
  155SOL     OW  463   2.421   1.236   0.410  0.1955  0.0678 -0.3218
  155SOL    HW1  464   2.502   1.190   0.369 -0.4431 -0.8586 -2.4377
  155SOL    HW2  465   2.338   1.227   0.349 -3.9249 -0.7383 -0.4000
  156SOL     OW  466   2.570   0.983   0.866  0.0227  0.4551 -0.2285
  156SOL    HW1  467   2.471   0.997   0.840  0.9877 -0.6876  0.0004
  156SOL    HW2  468   2.623   1.066   0.857  0.5284 -1.9903 -1.3013
  157SOL     OW  469   1.265   2.988   3.063 -0.0145 -0.6869  0.6954
  157SOL    HW1  470   1.313   2.983   2.968  1.9877  3.0767 -1.5455
  157SOL    HW2  471   1.259   3.082   3.104  0.8639  0.5057  0.7547
  158SOL     OW  472   1.015   1.837   1.981  0.3239  0.0759 -0.7393
  158SOL    HW1  473   1.052   1.930   1.991 -0.0232 -2.9560 -0.4524
  158SOL    HW2  474   0.922   1.830   2.020 -0.2847 -0.7921 -0.4743
  159SOL     OW  475   0.846   0.452   1.236 -0.9417  0.2161 -0.1473
  159SOL    HW1  476   0.802   0.525   1.296 -0.4317 -3.9285  0.8871
  159SOL    HW2  477   0.779   0.390   1.187  0.3163 -1.1937 -1.6105
  160SOL     OW  478   1.431   2.375   1.657 -0.9501 -0.8037 -0.3502
  160SOL    HW1  479   1.410   2.472   1.679  1.2834 -0.3838  0.6529
  160SOL    HW2  480   1.516   2.362   1.599 -0.1280  1.4785  0.9150
  161SOL     OW  481   0.099   2.907   0.310 -0.3953  0.3811 -0.5034
  161SOL    HW1  482   0.006   2.849   0.310 -2.1889 -1.1046 -1.9463
  161SOL    HW2  483   0.117   2.966   0.227 -0.8648  2.0756 -1.9549
  162SOL     OW  484   2.544   1.922   0.450 -0.1023 -0.4302  0.2696
  162SOL    HW1  485   2.563   1.879   0.358  1.4028 -2.2621  1.8566
  162SOL    HW2  486   2.500   1.864   0.527  0.3745  2.1325 -0.8551
  163SOL     OW  487   1.935   2.729   0.775  0.0087  0.0735 -0.3871
  163SOL    HW1  488   1.911   2.720   0.674 -0.6799 -0.3142 -0.7030
  163SOL    HW2  489   2.007   2.658   0.803 -0.4701  1.6583  0.2662
  164SOL     OW  490   3.037   0.199   1.181  0.8924  0.2916  0.4805
  164SOL    HW1  491   3.113   0.253   1.133 -0.8210  0.7510 -1.8993
  164SOL    HW2  492   3.076   0.143   1.263  0.2341 -0.9693  0.9935
  165SOL     OW  493   0.909   1.429   0.684 -0.3548  0.0939  0.3734
  165SOL    HW1  494   0.909   1.489   0.765  2.7791 -0.1370  1.5221
  165SOL    HW2  495   0.886   1.470   0.592  0.6480 -0.4819  0.3754
  166SOL     OW  496   1.470   1.082   1.732  0.4994 -0.2035  0.1112
  166SOL    HW1  497   1.409   1.056   1.812 -1.1556  1.8914 -2.7522
  166SOL    HW2  498   1.556   1.138   1.762  0.0846  0.1943  0.9465
  167SOL     OW  499   0.745   1.910   1.478 -0.4391 -0.1775 -0.2467
  167SOL    HW1  500   0.753   1.983   1.551 -2.5085  0.5864  1.0188
  167SOL    HW2  501   0.697   1.824   1.511 -0.5753  1.2594 -2.3363
  168SOL     OW  502   1.630   2.395   0.151  0.8489 -0.1114  0.0003
  168SOL    HW1  503   1.717   2.415   0.097 -0.2183 -2.6159 -1.9349
  168SOL    HW2  504   1.655   2.323   0.220  0.1376  2.2628  0.5885
  169SOL     OW  505   0.187   2.545   2.229 -0.2381 -0.3313  0.1018
  169SOL    HW1  506   0.206   2.493   2.138 -3.9028  2.0204 -1.7023
  169SOL    HW2  507   0.248   2.521   2.308 -0.6277 -0.7375 -1.1890
  170SOL     OW  508   1.194   0.248   1.985 -1.2541 -0.1393  0.2529
  170SOL    HW1  509   1.260   0.233   2.066 -2.1551  0.5403  1.5102
  170SOL    HW2  510   1.199   0.177   1.910 -0.8432  1.3243  0.4644
  171SOL     OW  511   0.226   0.827   2.372 -0.0110 -0.4500  0.1439
  171SOL    HW1  512   0.147   0.876   2.415 -0.4313  1.2162 -0.0998
  171SOL    HW2  513   0.221   0.822   2.266  1.4567 -0.7354 -1.8383
  172SOL     OW  514   0.915   1.075   2.923  0.9603 -0.3328  0.1498
  172SOL    HW1  515   0.997   1.130   2.960  0.5283 -0.4150 -2.0845
  172SOL    HW2  516   0.920   1.056   2.819 -2.6757 -0.4690  0.7415
  173SOL     OW  517   0.664   2.658   0.071  0.4411 -0.3880  0.2941
  173SOL    HW1  518   0.678   2.756   0.081 -0.4090 -4.7410 -1.8532
  173SOL    HW2  519   0.567   2.627   0.101  1.7782  1.0118  1.7027
  174SOL     OW  520   1.402   2.833   1.080 -0.2986 -0.6433 -0.4452
  174SOL    HW1  521   1.412   2.911   1.019  2.6902 -0.9311  2.8271
  174SOL    HW2  522   1.378   2.747   1.023  2.3010  0.9506 -1.3365
  175SOL     OW  523   0.389   0.044   1.673 -1.1569  0.0075 -0.1079
  175SOL    HW1  524   0.465   0.075   1.740 -0.9148 -0.7573  0.7367
  175SOL    HW2  525   0.363   0.116   1.602 -1.0193 -0.4818  0.6071
  176SOL     OW  526   2.567   0.377   3.081 -0.0686 -0.2461  0.2502
  176SOL    HW1  527   2.590   0.458   3.140 -2.5957 -0.0269  3.9819
  176SOL    HW2  528   2.505   0.310   3.121  1.6949  3.1139 -0.4192
  177SOL     OW  529   0.340   0.309   0.972  0.2419  0.3805  0.1336
  177SOL    HW1  530   0.381   0.225   1.019 -3.7189  0.4284  0.6411
  177SOL    HW2  531   0.278   0.356   1.039  0.5747 -4.1314 -0.2880
  178SOL     OW  532   0.046   2.669   2.651 -0.2227  0.0736  0.5992
  178SOL    HW1  533  -0.028   2.617   2.704 -2.5588 -0.5338 -0.3104
  178SOL    HW2  534   0.122   2.711   2.709  0.3703 -0.7793 -0.3166
  179SOL     OW  535   0.009   1.694   1.197 -0.1656 -0.1212  0.2546
  179SOL    HW1  536  -0.058   1.761   1.163 -1.0640 -1.4360 -0.9024
  179SOL    HW2  537  -0.031   1.625   1.256  1.3314  2.5800 -3.3517
  180SOL     OW  538   0.225   1.195   1.874 -0.0416  0.2118 -0.0487
  180SOL    HW1  539   0.330   1.212   1.875 -2.8541 -0.9265 -0.2682
  180SOL    HW2  540   0.179   1.257   1.941  0.1820  0.2517  1.6795
  181SOL     OW  541   3.011   1.833   2.512 -0.7211 -0.2523 -0.4078
  181SOL    HW1  542   3.105   1.875   2.485  0.8478  2.8543  0.4702
  181SOL    HW2  543   2.927   1.863   2.464  2.6271  3.7906  0.8455
  182SOL     OW  544   2.270   1.297   1.161  0.1156  0.1775  0.1011
  182SOL    HW1  545   2.181   1.264   1.119 -0.5685 -0.4148  0.7027
  182SOL    HW2  546   2.288   1.395   1.137  0.2343  0.8417 -2.5065
  183SOL     OW  547   1.501   2.244   2.555  0.4592  0.1057  0.2463
  183SOL    HW1  548   1.422   2.174   2.562 -2.2506 -3.6449  1.7891
  183SOL    HW2  549   1.596   2.204   2.570 -0.4653 -0.6024  2.5674
  184SOL     OW  550   2.061   0.896   0.768 -0.3479 -0.3069 -0.2429
  184SOL    HW1  551   1.980   0.956   0.740 -1.1678 -0.7085 -0.4149
  184SOL    HW2  552   2.026   0.819   0.823  1.2200 -1.7446 -2.9743
  185SOL     OW  553   1.568   2.744   2.089 -0.3812  0.2070  0.1338
  185SOL    HW1  554   1.523   2.834   2.059 -2.8492  0.9107 -0.1714
  185SOL    HW2  555   1.508   2.682   2.143 -1.5506  3.6246  2.1196
  186SOL     OW  556   0.054   2.201   1.691  0.1665  0.7577 -0.0770
  186SOL    HW1  557   0.060   2.299   1.659  0.4862 -2.2856  0.2218
  186SOL    HW2  558   0.140   2.142   1.683  0.2084  0.1174  0.4453
  187SOL     OW  559   1.388   0.722   1.667 -0.0769  0.5845  0.3043
  187SOL    HW1  560   1.472   0.753   1.617  2.5207 -1.4632  4.3223
  187SOL    HW2  561   1.383   0.759   1.766  1.5530 -0.4141  0.3628
  188SOL     OW  562   2.770   2.758   1.449 -0.3909 -0.5964 -0.2817
  188SOL    HW1  563   2.792   2.857   1.436  0.9440 -1.1006  1.5760
  188SOL    HW2  564   2.699   2.726   1.377 -1.9795  1.5795 -1.1376
  189SOL     OW  565   0.841   1.108   1.358  0.2376  0.8196  0.1063
  189SOL    HW1  566   0.925   1.140   1.415  1.0923 -2.6656  3.5583
  189SOL    HW2  567   0.795   1.186   1.309 -0.9524  1.0784  1.2496
  190SOL     OW  568   1.536   1.891   1.591 -0.3982  0.0404 -0.4602
  190SOL    HW1  569   1.446   1.847   1.592  1.0945 -0.3365 -0.6056
  190SOL    HW2  570   1.551   1.945   1.679  0.4670 -0.2755  0.4561
  191SOL     OW  571   0.984   0.752   1.532  0.3753 -0.1594 -0.3511
  191SOL    HW1  572   1.051   0.675   1.540  0.5085  0.4674 -0.0139
  191SOL    HW2  573   1.027   0.843   1.549  0.4910 -1.0102  2.2680
  192SOL     OW  574   1.863   2.214   1.126  0.1646 -0.6512  0.5923
  192SOL    HW1  575   1.797   2.168   1.058 -1.3363 -0.0071  0.7319
  192SOL    HW2  576   1.911   2.294   1.082  1.5242 -0.5777 -0.6198
  193SOL     OW  577   0.510   0.604   0.432 -0.2149 -0.2198  0.9666
  193SOL    HW1  578   0.469   0.524   0.486  0.5515  1.4865 -0.1537
  193SOL    HW2  579   0.565   0.571   0.351 -0.1548  0.6688 -1.0567
  194SOL     OW  580   0.310   0.832   1.272  0.0373  0.6066  0.1902
  194SOL    HW1  581   0.237   0.762   1.260  0.0806 -1.3631  1.1344
  194SOL    HW2  582   0.326   0.892   1.188  0.9281 -1.2080  0.5168
  195SOL     OW  583   1.002   2.912   0.527  0.4370 -0.1606  0.8366
  195SOL    HW1  584   0.992   2.822   0.485 -1.7012  3.4386  4.1519
  195SOL    HW2  585   1.097   2.950   0.534 -2.4002  0.0491 -1.0480
  196SOL     OW  586   0.249   1.379   1.364 -0.2041  0.0348 -0.3986
  196SOL    HW1  587   0.286   1.469   1.403 -1.6957  0.8924  1.0738
  196SOL    HW2  588   0.240   1.307   1.439 -0.4622 -1.4323  0.4289
  197SOL     OW  589   0.824   2.021   0.213  0.5418 -0.2145 -0.0472
  197SOL    HW1  590   0.808   2.005   0.314 -2.7269  0.1572  0.7379
  197SOL    HW2  591   0.890   1.950   0.177 -0.6702 -1.9064  1.1874
  198SOL     OW  592   0.292   1.247   0.243  0.1271 -0.3893 -0.3868
  198SOL    HW1  593   0.193   1.250   0.224  3.2300 -0.5153  3.9807
  198SOL    HW2  594   0.336   1.340   0.256  0.1383  1.2690  0.3240
  199SOL     OW  595   2.212   0.341   2.540 -0.1885 -0.2019  0.7150
  199SOL    HW1  596   2.169   0.289   2.621  2.4911  0.2399 -0.5215
  199SOL    HW2  597   2.302   0.384   2.562  1.3467  1.6915 -1.0530
  200SOL     OW  598   0.047   2.973   0.698 -0.3256 -0.6708  0.2442
  200SOL    HW1  599  -0.033   2.996   0.635  0.2984  0.5950 -2.0675
  200SOL    HW2  600   0.072   3.051   0.766  2.7004  2.0856 -0.4401
  201SOL     OW  601   1.122   0.737   0.632  0.5520 -0.2922 -0.5006
  201SOL    HW1  602   1.124   0.824   0.689 -1.9107 -0.5554 -1.0697
  201SOL    HW2  603   1.025   0.700   0.620  1.1887  1.7517  0.8887
  202SOL     OW  604   0.502   1.213   1.813  0.7615  0.1287 -0.6610
  202SOL    HW1  605   0.525   1.208   1.715 -2.1352 -2.3450  0.0125
  202SOL    HW2  606   0.516   1.127   1.870  0.4880 -2.8251 -0.4225
  203SOL     OW  607   0.706   0.192   1.570 -0.6247  0.2645 -0.5932
  203SOL    HW1  608   0.722   0.151   1.478  2.2870 -0.9564 -0.5686
  203SOL    HW2  609   0.771   0.158   1.645  0.3775 -0.5547  0.6880
  204SOL     OW  610   2.040   1.863   2.982 -0.2560  0.7246  0.1111
  204SOL    HW1  611   2.061   1.762   2.970 -1.6649 -2.4002  1.1092
  204SOL    HW2  612   2.005   1.923   2.901 -1.4952  1.8942 -1.6267
  205SOL     OW  613   1.821   1.860   0.022  0.1244 -0.5912  0.1352
  205SOL    HW1  614   1.914   1.844  -0.018 -2.3186 -2.3286 -1.3348
  205SOL    HW2  615   1.785   1.957   0.001 -2.6001 -0.5457 -1.0831
  206SOL     OW  616   2.512   2.786   0.332 -0.1028 -0.4369  0.7947
  206SOL    HW1  617   2.587   2.711   0.349 -0.2345 -1.8807 -0.8221
  206SOL    HW2  618   2.549   2.856   0.262 -2.3065  2.2397  1.2784
  207SOL     OW  619   0.552   1.773   2.928  0.2796 -0.0471  0.1653
  207SOL    HW1  620   0.656   1.763   2.906  2.4723  2.0701  0.8873
  207SOL    HW2  621   0.510   1.692   2.984  1.0721 -2.0137 -0.3095
  208SOL     OW  622   1.172   1.553   1.402  0.7134  0.0430  0.1165
  208SOL    HW1  623   1.128   1.625   1.341  0.2025  1.9344 -0.9142
  208SOL    HW2  624   1.229   1.594   1.484 -0.9198  1.4078  2.9962
  209SOL     OW  625   0.266   0.967   3.005  0.0926  0.2811 -0.0843
  209SOL    HW1  626   0.311   0.933   2.918  1.5565 -0.3536  0.4230
  209SOL    HW2  627   0.250   0.894   3.079 -1.3322  2.1668  1.8808
  210SOL     OW  628   1.766   0.462   1.210  0.2131  0.4903  0.3222
  210SOL    HW1  629   1.704   0.541   1.196 -1.8589 -2.0304  1.2293
  210SOL    HW2  630   1.868   0.479   1.188  1.6102  2.2641  2.1338
  211SOL     OW  631   2.123   1.047   1.614  0.3999 -0.3492 -0.2924
  211SOL    HW1  632   2.180   0.979   1.668 -2.5492 -0.7796 -2.3036
  211SOL    HW2  633   2.177   1.084   1.528  0.6707  1.4273 -0.9443
  212SOL     OW  634   0.046   0.992   1.478 -0.5120 -0.2519 -0.1558
  212SOL    HW1  635   0.114   1.059   1.522  1.7385 -3.0914  1.9609
  212SOL    HW2  636   0.010   0.919   1.548 -1.0802  1.7065  1.4295
  213SOL     OW  637   2.757   0.395   0.305  0.3187 -0.1803  0.4708
  213SOL    HW1  638   2.813   0.325   0.255 -0.9113  0.5091  4.2103
  213SOL    HW2  639   2.714   0.472   0.247 -4.2014  1.8617  4.1310
  214SOL     OW  640   2.143   0.268   2.293  0.1956 -0.4834 -0.2478
  214SOL    HW1  641   2.189   0.300   2.381  0.0111  1.7461 -1.5185
  214SOL    HW2  642   2.107   0.172   2.307  1.1761  0.1408  0.8999
  215SOL     OW  643   1.642   2.337   2.043 -0.5581 -0.0792  0.2058
  215SOL    HW1  644   1.746   2.363   2.043  1.1779  0.6156 -1.5437
  215SOL    HW2  645   1.592   2.383   2.122 -1.1898 -2.3118  0.5199
  216SOL     OW  646   2.217   0.593   0.681  0.0819  1.1421 -0.4457
  216SOL    HW1  647   2.199   0.493   0.648 -2.1437  0.0548  1.3539
  216SOL    HW2  648   2.275   0.643   0.617 -0.6984  0.3892 -2.2277
  217SOL     OW  649   0.729   2.763   2.486  0.2222  0.2979  0.0591
  217SOL    HW1  650   0.706   2.673   2.528 -1.7704  0.7822 -1.8307
  217SOL    HW2  651   0.738   2.761   2.383 -0.0511 -2.2647  0.8057
  218SOL     OW  652   1.927   1.450   0.073  0.5315  0.5365  0.1950
  218SOL    HW1  653   1.844   1.495   0.034 -3.4987 -1.2710  0.4970
  218SOL    HW2  654   1.904   1.358   0.116  1.1270 -0.2112  1.0825
  219SOL     OW  655   2.327   1.281   2.583 -0.0313  0.2680 -0.6061
  219SOL    HW1  656   2.344   1.236   2.494  1.2405 -2.0392  1.3913
  219SOL    HW2  657   2.313   1.210   2.664 -0.2420  0.7122  1.7246
  220SOL     OW  658   1.528   1.005   1.251 -0.4094  0.1568  0.9252
  220SOL    HW1  659   1.605   1.059   1.296 -1.3030  1.0587 -2.1463
  220SOL    HW2  660   1.478   1.051   1.173  1.1260 -0.5310  1.5412
  221SOL     OW  661   1.365   1.071   2.179  0.1573  0.0916  0.0729
  221SOL    HW1  662   1.308   1.087   2.095  0.4749 -0.6015 -1.7183
  221SOL    HW2  663   1.463   1.050   2.158 -1.4202 -0.4550  0.7862
  222SOL     OW  664   1.212   0.030   1.172 -0.4481 -0.0846  0.2237
  222SOL    HW1  665   1.294   0.034   1.232  0.5833 -0.0293 -1.0088
  222SOL    HW2  666   1.186   0.125   1.135  0.0075 -0.1990 -2.2748
  223SOL     OW  667   2.802   0.867   2.062 -0.2344 -0.0477 -0.2900
  223SOL    HW1  668   2.823   0.887   2.162 -0.5547  1.5301 -2.3802
  223SOL    HW2  669   2.877   0.902   2.000 -2.1582  0.6080  0.8773
  224SOL     OW  670   1.521   0.989   2.743  0.2058  0.0992  0.3760
  224SOL    HW1  671   1.570   0.934   2.668  2.1034  1.4822 -2.2401
  224SOL    HW2  672   1.492   1.084   2.718  2.2181  1.3288 -0.1055
  225SOL     OW  673   2.952   2.785   2.880 -0.3457  0.1787  0.3568
  225SOL    HW1  674   2.927   2.704   2.818 -0.1297  0.0201 -0.6282
  225SOL    HW2  675   2.990   2.873   2.834 -0.0195 -0.7817 -0.9907
  226SOL     OW  676   2.417   1.580   2.833 -0.0545  0.4547  0.4843
  226SOL    HW1  677   2.473   1.550   2.747 -0.5568  0.5090 -0.1315
  226SOL    HW2  678   2.374   1.502   2.882  2.0171  1.9159  0.1595
  227SOL     OW  679   0.833   0.146   3.034 -0.2446  0.2368  0.0914
  227SOL    HW1  680   0.856   0.071   3.108  2.1216 -4.0613 -0.5594
  227SOL    HW2  681   0.867   0.122   2.935  1.4952  1.7925 -4.2177
  228SOL     OW  682   2.403   0.620   2.866  0.1839 -0.0199  0.5800
  228SOL    HW1  683   2.345   0.641   2.779 -0.5230 -0.5069 -2.0132
  228SOL    HW2  684   2.496   0.581   2.847 -1.1180 -0.7024  0.7510
  229SOL     OW  685   0.609   0.500   1.892  0.0951 -0.2408 -0.0859
  229SOL    HW1  686   0.642   0.438   1.816  2.9914 -4.9096  0.6211
  229SOL    HW2  687   0.587   0.589   1.846  2.2013  3.0710 -2.3822
  230SOL     OW  688   1.917   1.192   2.135  0.0366 -0.1423 -0.3146
  230SOL    HW1  689   1.990   1.226   2.064  0.3829  1.3645 -4.4456
  230SOL    HW2  690   1.847   1.274   2.137 -1.5288 -0.4646  0.3008
  231SOL     OW  691   0.637   0.982   2.950 -0.7504 -0.2633 -0.1071
  231SOL    HW1  692   0.733   1.018   2.947 -0.6266  0.7496 -0.3241
  231SOL    HW2  693   0.575   1.039   3.009 -0.5159  1.6304  1.7575
  232SOL     OW  694   2.445   0.010   2.776  0.1622 -0.5799  0.5115
  232SOL    HW1  695   2.499  -0.062   2.828  0.9586  0.3255 -2.1475
  232SOL    HW2  696   2.500   0.061   2.703  1.3459  0.1317  0.0900
  233SOL     OW  697   1.696   1.307   1.140  0.0320 -0.1614  0.2890
  233SOL    HW1  698   1.703   1.287   1.035 -0.7336 -0.2784 -2.3896
  233SOL    HW2  699   1.753   1.241   1.199 -1.6178  1.5983  0.7804
  234SOL     OW  700   1.591   2.588   1.858 -0.1363  0.1093 -0.2553
  234SOL    HW1  701   1.628   2.654   1.929  1.0295  2.8403 -2.0230
  234SOL    HW2  702   1.549   2.504   1.895 -0.9024  0.0694  0.7748
  235SOL     OW  703   0.030   3.012   2.872  0.1718 -0.0823 -0.7044
  235SOL    HW1  704   0.112   3.068   2.843  0.1837 -3.3659 -0.2867
  235SOL    HW2  705  -0.009   3.035   2.964  2.7010  1.7236 -0.9109
  236SOL     OW  706   2.874   0.730   0.108  0.0695  0.5970 -1.0239
  236SOL    HW1  707   2.916   0.785   0.187  1.1707  0.3069  2.2488
  236SOL    HW2  708   2.933   0.652   0.071  1.1452 -2.0531 -0.6241
  237SOL     OW  709   1.450   1.701   1.039  0.4285  0.1689 -0.4494
  237SOL    HW1  710   1.544   1.689   1.007 -2.0102  2.5525 -1.6541
  237SOL    HW2  711   1.436   1.751   1.133  0.8522  0.4172 -0.3154
  238SOL     OW  712   1.787   1.278   0.831  0.0106 -0.0229  0.6775
  238SOL    HW1  713   1.886   1.297   0.805 -2.9306  4.3456  0.6857
  238SOL    HW2  714   1.725   1.345   0.778  0.1612 -0.6182 -2.2086
  239SOL     OW  715   2.009   0.240   2.720 -0.3114 -0.1539  0.3094
  239SOL    HW1  716   2.083   0.232   2.797 -0.1785 -0.5600  0.0093
  239SOL    HW2  717   1.930   0.304   2.746  1.2723 -0.6591  1.4028
  240SOL     OW  718   0.997   0.622   0.300  0.3352 -0.2340  0.0679
  240SOL    HW1  719   0.996   0.522   0.282 -1.1377 -3.1549 -2.0442
  240SOL    HW2  720   0.940   0.644   0.383  0.0552  2.4622 -1.2034
  241SOL     OW  721   0.613   0.109   0.312  0.7119  0.2590 -0.0396
  241SOL    HW1  722   0.645   0.183   0.245 -2.4250 -1.9965  1.8148
  241SOL    HW2  723   0.600   0.010   0.271  0.1593 -2.4946 -0.2941
  242SOL     OW  724   0.696   2.468   1.135  0.2675  0.4627 -0.2879
  242SOL    HW1  725   0.660   2.518   1.215 -1.6711 -1.9042  1.4540
  242SOL    HW2  726   0.791   2.501   1.105  1.6549  1.3480  0.8518
  243SOL     OW  727   1.132   0.603   2.454  0.3053 -0.4583  0.3431
  243SOL    HW1  728   1.080   0.685   2.419  0.9704  1.2911  1.0615
  243SOL    HW2  729   1.076   0.540   2.522 -3.4583 -0.9967  2.2676
  244SOL     OW  730   2.775   1.856   2.343 -0.0257  0.3893  0.0461
  244SOL    HW1  731   2.822   1.818   2.256  0.8030  0.5260 -0.3260
  244SOL    HW2  732   2.702   1.796   2.380  3.0098  0.7654  1.4739
  245SOL     OW  733   2.471   0.671   2.190 -0.1977 -0.6514  0.3031
  245SOL    HW1  734   2.518   0.752   2.236  0.6528  0.5857  1.6795
  245SOL    HW2  735   2.528   0.588   2.162 -0.7518  2.5427  0.0405
  246SOL     OW  736   0.228   2.927   1.654 -0.0655  0.3340 -0.4244
  246SOL    HW1  737   0.163   2.916   1.576  0.9824  1.8186 -0.5172
  246SOL    HW2  738   0.283   3.015   1.647  1.5599  0.6715  0.0106
  247SOL     OW  739   2.147   0.563   3.051 -0.3953  0.1900  0.1089
  247SOL    HW1  740   2.222   0.570   2.988 -1.7146 -1.6414 -1.1805
  247SOL    HW2  741   2.102   0.655   3.075 -0.8448  1.7009 -3.2373
  248SOL     OW  742   2.122   1.787   1.590 -0.2710 -0.0539  0.1430
  248SOL    HW1  743   2.188   1.746   1.659 -0.2149  0.3543 -0.2560
  248SOL    HW2  744   2.027   1.780   1.626 -2.1100 -0.4710 -1.5859
  249SOL     OW  745   1.953   1.908   1.939 -0.0520 -0.3899  0.0231
  249SOL    HW1  746   1.922   1.867   1.851  2.2718  1.5740  0.4067
  249SOL    HW2  747   2.031   1.973   1.930  0.9206 -0.1470  2.2943
  250SOL     OW  748   1.120   0.755   1.892 -0.2460  0.1513  0.4258
  250SOL    HW1  749   1.160   0.665   1.932 -1.6328  0.4978 -0.5329
  250SOL    HW2  750   1.159   0.774   1.798 -1.8154  0.5321  1.2960
  251SOL     OW  751   3.055   1.564   2.531  1.0442  0.0631 -0.1062
  251SOL    HW1  752   3.030   1.664   2.512 -1.6831  2.0261 -0.8990
  251SOL    HW2  753   2.968   1.508   2.527 -1.1762  0.0899  3.0076
  252SOL     OW  754   1.568   0.908   1.533  0.4452  0.3624  0.3498
  252SOL    HW1  755   1.529   0.920   1.442 -0.8184 -0.6201 -0.7611
  252SOL    HW2  756   1.544   0.981   1.606 -1.8603  1.0935  0.8753
  253SOL     OW  757   0.885   1.530   0.397 -0.1645  0.2127  0.2871
  253SOL    HW1  758   0.935   1.435   0.393 -1.5044 -3.3968  1.2463
  253SOL    HW2  759   0.789   1.526   0.389  0.3071  0.1402 -0.5699
  254SOL     OW  760   2.066   2.110   1.555  0.4478  0.0567  0.3938
  254SOL    HW1  761   2.020   2.096   1.463 -2.0053 -1.5727  2.0911
  254SOL    HW2  762   2.018   2.073   1.640  1.3363  0.3860  2.4962
  255SOL     OW  763   0.095   1.176   2.932  0.1319  0.0330  0.2953
  255SOL    HW1  764   0.149   1.261   2.908  0.8578 -0.5902  0.6677
  255SOL    HW2  765   0.160   1.097   2.963 -0.2244  1.0985  0.8249
  256SOL     OW  766   2.792   1.368   1.797 -0.7720  0.1867 -0.8582
  256SOL    HW1  767   2.719   1.420   1.850 -1.3263  1.1460  0.5752
  256SOL    HW2  768   2.770   1.267   1.792 -0.4434 -0.2031 -1.0076
  257SOL     OW  769   0.866   0.133   1.789 -0.3094  0.5150 -0.1530
  257SOL    HW1  770   0.922   0.222   1.759  0.3145  0.3160 -3.5037
  257SOL    HW2  771   0.932   0.056   1.815  2.1957 -1.6890 -1.3194
  258SOL     OW  772   2.945   1.308   0.419  0.2299 -0.0665  0.4860
  258SOL    HW1  773   2.915   1.407   0.389  0.6106 -2.3548 -3.5548
  258SOL    HW2  774   2.991   1.313   0.509 -1.2793  0.9852  1.8904
  259SOL     OW  775   0.511   2.943   3.020 -0.2761  0.2089  0.3400
  259SOL    HW1  776   0.446   2.866   3.050  0.7032 -0.4422  0.1458
  259SOL    HW2  777   0.515   2.944   2.920  0.6508  0.0212  0.0559
  260SOL     OW  778   2.709   0.820   2.700 -0.4917  0.2027  0.4583
  260SOL    HW1  779   2.613   0.835   2.667 -0.3039 -1.0238 -1.6545
  260SOL    HW2  780   2.740   0.888   2.769  1.6877  1.3889  0.3658
  261SOL     OW  781   2.725   1.370   1.362  0.1995 -0.3892 -0.2479
  261SOL    HW1  782   2.654   1.333   1.290 -0.5442  0.6366  0.7187
  261SOL    HW2  783   2.819   1.325   1.362 -0.7737  0.6457 -0.7976
  262SOL     OW  784   1.448   2.984   1.988  0.4198  0.7081 -0.0576
  262SOL    HW1  785   1.473   3.047   1.912 -0.2884 -0.4789 -0.0962
  262SOL    HW2  786   1.355   2.940   1.974 -0.2029 -0.3272  1.3910
  263SOL     OW  787   0.873   0.729   2.339 -0.5040 -0.3228 -0.2786
  263SOL    HW1  788   0.844   0.635   2.306 -1.5159 -3.3793 -0.4977
  263SOL    HW2  789   0.911   0.796   2.267  0.9651  1.6627 -0.3243
  264SOL     OW  790   2.232   0.796   0.325  0.0199  0.6491 -0.3169
  264SOL    HW1  791   2.148   0.801   0.389 -0.6324 -2.8331 -2.9958
  264SOL    HW2  792   2.320   0.848   0.349  0.3754  0.2920 -2.6040
  265SOL     OW  793   0.922   2.278   2.646 -0.0004  0.1008  0.5713
  265SOL    HW1  794   0.951   2.325   2.731 -2.3722  1.9738 -2.5405
  265SOL    HW2  795   0.866   2.191   2.660  1.3398 -0.1767  1.4914
  266SOL     OW  796   1.352   1.746   3.077  0.3398 -0.0863 -0.3197
  266SOL    HW1  797   1.337   1.809   3.157  1.9388 -0.1857  0.2287
  266SOL    HW2  798   1.449   1.730   3.049 -2.1290 -3.1877 -2.1258
  267SOL     OW  799   0.996   3.068   2.373 -0.3784 -0.0115  0.1165
  267SOL    HW1  800   0.997   3.043   2.270 -2.5611  0.7401 -2.0358
  267SOL    HW2  801   0.986   3.171   2.388  1.9097 -0.0692  1.1794
  268SOL     OW  802   0.650   1.138   1.086  0.7433  0.1892  0.0383
  268SOL    HW1  803   0.643   1.204   1.166  1.5181  0.8256  0.9662
  268SOL    HW2  804   0.674   1.194   0.996  1.4117 -0.7986  0.3800
  269SOL     OW  805   2.434   2.465   1.546 -0.7374  0.3133 -0.0412
  269SOL    HW1  806   2.518   2.413   1.571 -1.4893  0.5527 -0.2133
  269SOL    HW2  807   2.387   2.490   1.637 -0.4710 -1.1458  0.3991
  270SOL     OW  808   0.131   3.075   1.899 -0.0014 -0.5765  0.2411
  270SOL    HW1  809   0.187   3.048   1.816 -0.3886 -0.7207 -0.0471
  270SOL    HW2  810   0.068   2.999   1.931  0.8553  0.4583  1.0175
  271SOL     OW  811   0.411   1.431   1.164 -0.5118 -0.1859 -0.1665
  271SOL    HW1  812   0.390   1.410   1.066 -0.5665  0.4927  2.9170
  271SOL    HW2  813   0.331   1.412   1.223  0.7587  0.6963 -1.0067
  272SOL     OW  814   1.956   2.863   1.912  0.3353  0.5038 -0.1305
  272SOL    HW1  815   1.897   2.807   1.850 -0.4438  0.5709  1.9086
  272SOL    HW2  816   2.038   2.916   1.873 -2.1836  2.3730  1.7333
  273SOL     OW  817   1.412   1.441   2.834  0.9071 -0.2984 -0.3982
  273SOL    HW1  818   1.322   1.495   2.815  0.0887  0.5478  0.3541
  273SOL    HW2  819   1.454   1.458   2.928  1.2067  2.1840 -2.3146
  274SOL     OW  820   1.209   0.526   2.018  0.7902 -0.1319 -0.3354
  274SOL    HW1  821   1.175   0.428   1.991  0.0519 -2.3013  1.0822
  274SOL    HW2  822   1.250   0.518   2.110  1.6924 -1.0475 -0.6602
  275SOL     OW  823   0.639   2.086   1.883  0.4010  0.0862 -0.5000
  275SOL    HW1  824   0.587   2.169   1.917  0.1633 -3.9906 -0.2629
  275SOL    HW2  825   0.572   2.014   1.866 -0.6938  1.8239 -1.0582
  276SOL     OW  826   2.161   0.925   2.820 -0.3408 -0.1376 -0.2353
  276SOL    HW1  827   2.112   0.917   2.733 -0.8253  3.3813  1.1787
  276SOL    HW2  828   2.117   0.875   2.904  0.2614 -0.5080 -0.2713
  277SOL     OW  829   3.089   0.877   0.257  0.4046  0.0392  0.5157
  277SOL    HW1  830   3.162   0.926   0.203  0.7814 -2.0924  2.5101
  277SOL    HW2  831   3.132   0.818   0.329  1.8332 -0.4097 -1.3108
  278SOL     OW  832   0.238   0.288   3.054  0.3243 -0.3537  0.5087
  278SOL    HW1  833   0.312   0.225   3.075 -1.5515 -0.7656  0.4990
  278SOL    HW2  834   0.260   0.391   3.051 -0.7483  0.1467 -0.0730
  279SOL     OW  835   0.119   0.068   0.868  0.5335  0.6318  0.4350
  279SOL    HW1  836   0.163   0.036   0.956  1.6818 -1.1845 -0.4041
  279SOL    HW2  837   0.194   0.071   0.794  1.3060 -0.4268 -0.7468
  280SOL     OW  838   1.608   2.874   2.558 -0.6234  0.1610 -0.2127
  280SOL    HW1  839   1.686   2.935   2.593  1.7657  1.3462  0.0521
  280SOL    HW2  840   1.522   2.928   2.542 -0.7562  0.7818 -2.1300
  281SOL     OW  841   0.577   0.965   2.268  0.5230 -0.5615 -0.0991
  281SOL    HW1  842   0.596   0.880   2.208  2.7070  0.3779 -1.5656
  281SOL    HW2  843   0.532   0.942   2.361  0.5753 -2.0826 -0.9293
  282SOL     OW  844   1.757   2.398   0.509  0.0692  0.1894 -0.1419
  282SOL    HW1  845   1.725   2.331   0.439  1.4286 -0.9647 -0.1747
  282SOL    HW2  846   1.718   2.490   0.499  3.6155  2.1446  1.3621
  283SOL     OW  847   1.139   0.924   0.838 -0.2152 -0.0198  0.3254
  283SOL    HW1  848   1.150   0.848   0.904  0.3002 -1.2376  1.0382
  283SOL    HW2  849   1.054   0.981   0.856 -1.8764 -0.1871  0.4991
  284SOL     OW  850   2.348   2.777   2.323  0.2537 -0.0086  0.5640
  284SOL    HW1  851   2.405   2.858   2.313 -2.1837  1.4156  0.7459
  284SOL    HW2  852   2.291   2.785   2.412  0.2613 -1.0536  0.0504
  285SOL     OW  853   1.369   3.059   2.538 -0.3327  0.4528  0.6463
  285SOL    HW1  854   1.355   3.057   2.439 -2.9746 -0.1202  0.0267
  285SOL    HW2  855   1.289   3.107   2.584 -0.7321 -2.0197 -0.9950
  286SOL     OW  856   0.458   0.423   0.751  0.1018 -0.1397  0.4920
  286SOL    HW1  857   0.410   0.368   0.827  0.6578  0.4832 -0.7850
  286SOL    HW2  858   0.454   0.366   0.661 -0.4842 -2.0394  3.0992
  287SOL     OW  859   0.136   1.321   2.536 -0.4706  0.2191  0.0881
  287SOL    HW1  860   0.076   1.248   2.575  2.0043 -0.0828 -0.6604
  287SOL    HW2  861   0.100   1.421   2.541 -1.4714  0.2928 -0.4030
  288SOL     OW  862   1.544   2.670   1.584  0.3933  0.3730  0.9794
  288SOL    HW1  863   1.573   2.646   1.680 -1.7566 -0.6492 -1.0158
  288SOL    HW2  864   1.555   2.596   1.516 -1.1500 -0.7075 -2.4176
  289SOL     OW  865   0.630   2.703   0.823 -0.9071  0.4842  0.0107
  289SOL    HW1  866   0.707   2.761   0.777 -0.7206  0.5930  1.6331
  289SOL    HW2  867   0.587   2.758   0.896  0.0485  0.2939  1.5158
  290SOL     OW  868   2.829   1.073   1.699 -0.0626  0.0421  0.4399
  290SOL    HW1  869   2.736   1.032   1.695 -1.1951 -1.1367  2.1704
  290SOL    HW2  870   2.897   1.030   1.762  1.0742  1.8466 -1.1437
  291SOL     OW  871   1.945   0.077   0.059  0.0286 -0.0915 -0.3518
  291SOL    HW1  872   1.953   0.071   0.162  0.8658  3.0245  2.1517
  291SOL    HW2  873   2.014   0.145   0.023  2.1688 -0.7282  1.1615
  292SOL     OW  874   2.968   1.229   3.088  0.5911 -0.0416 -0.0529
  292SOL    HW1  875   2.879   1.245   3.031 -1.6729 -0.5813  1.3751
  292SOL    HW2  876   3.051   1.210   3.024 -0.3056  1.2849  0.8566
  293SOL     OW  877   0.557   2.096   0.159 -0.7525  0.0609 -0.2828
  293SOL    HW1  878   0.515   2.148   0.239 -1.5201  1.8985  1.7220
  293SOL    HW2  879   0.655   2.074   0.172 -2.5544  3.6389 -0.6354
  294SOL     OW  880   1.731   2.221   1.771  0.7917  0.3788  0.1622
  294SOL    HW1  881   1.748   2.302   1.832 -0.3042  1.5134 -1.7124
  294SOL    HW2  882   1.708   2.259   1.675  0.1242  1.0456 -1.6742
  295SOL     OW  883   1.058   1.018   0.518  0.0375  0.5112  0.4166
  295SOL    HW1  884   1.150   1.050   0.559 -1.3444  0.2038  1.1499
  295SOL    HW2  885   0.994   0.995   0.590 -0.6706 -2.0124 -2.8905
  296SOL     OW  886   1.266   2.071   2.511 -0.2428  0.3137  0.3375
  296SOL    HW1  887   1.262   2.086   2.411  2.7954  0.4093  3.6313
  296SOL    HW2  888   1.272   1.968   2.538  0.1921  0.7707  1.2022
  297SOL     OW  889   1.457   0.610   1.398 -0.3457  0.2786 -0.2810
  297SOL    HW1  890   1.409   0.520   1.390  2.8374  0.3315 -0.8153
  297SOL    HW2  891   1.552   0.596   1.435 -0.4783 -0.3458  1.9782
  298SOL     OW  892   0.511   1.343   2.949 -0.0468  0.1255 -0.3359
  298SOL    HW1  893   0.525   1.266   3.022  1.8659 -2.0003  0.0610
  298SOL    HW2  894   0.568   1.316   2.868  2.4511 -1.1928  1.3447
  299SOL     OW  895   0.488   0.283   1.353  0.3680 -0.2954 -0.5321
  299SOL    HW1  896   0.430   0.360   1.300 -1.2518  0.6995  1.9675
  299SOL    HW2  897   0.579   0.313   1.394 -1.0360  1.0082 -1.0469
  300SOL     OW  898   1.203   1.821   2.861  0.2512  0.2323 -0.0094
  300SOL    HW1  899   1.188   1.735   2.814  2.0418  2.5138  0.5470
  300SOL    HW2  900   1.244   1.802   2.953  3.5402  0.5312 -0.9966
  301SOL     OW  901   0.478   0.270   0.516 -0.2237 -0.1962 -0.0631
  301SOL    HW1  902   0.379   0.259   0.491  0.8667  3.3623  0.9127
  301SOL    HW2  903   0.536   0.219   0.446  0.9125 -0.5998  1.8328
  302SOL     OW  904   1.201   2.405   2.278  0.5437  0.2679  0.2512
  302SOL    HW1  905   1.132   2.459   2.336 -3.2682  3.0445  0.4407
  302SOL    HW2  906   1.207   2.305   2.301 -0.6653  2.5503 -1.1890
  303SOL     OW  907   0.977   2.336   0.816  0.1778  0.0344  0.4356
  303SOL    HW1  908   1.010   2.383   0.729  0.5297  1.3464  0.3300
  303SOL    HW2  909   0.976   2.395   0.903 -3.9499  1.6297  1.5246
  304SOL     OW  910   0.152   2.045   0.612 -0.2089 -0.3477  0.1300
  304SOL    HW1  911   0.167   1.982   0.531 -0.5030  2.3151  0.7713
  304SOL    HW2  912   0.078   2.115   0.599  1.5653  0.2245 -1.4858
  305SOL     OW  913   1.596   0.934   0.588  0.2907  0.6665  0.0527
  305SOL    HW1  914   1.543   0.894   0.506 -0.1522  2.1356 -3.1414
  305SOL    HW2  915   1.656   0.867   0.637  2.9688  0.9781 -3.5457
  306SOL     OW  916   0.435   1.859   1.893 -0.4091  0.6187  0.1785
  306SOL    HW1  917   0.522   1.807   1.877  0.5902  0.6380  0.5578
  306SOL    HW2  918   0.411   1.860   1.993 -1.6229  1.6203  2.6361
  307SOL     OW  919   3.058   0.883   2.533 -0.3347  0.4215 -0.6542
  307SOL    HW1  920   3.086   0.962   2.597  0.4450  1.1194 -4.0063
  307SOL    HW2  921   3.018   0.794   2.567 -0.1019 -0.1561  0.5330
  308SOL     OW  922   1.532   2.689   2.867  0.2239 -0.7472  0.3144
  308SOL    HW1  923   1.556   2.631   2.788  1.0963  0.0355  1.3997
  308SOL    HW2  924   1.488   2.631   2.946 -1.1232  0.3107 -1.8347
  309SOL     OW  925   1.233   0.076   1.779  0.1782 -0.1190 -0.3070
  309SOL    HW1  926   1.334   0.072   1.802 -2.3035 -0.0052 -1.0799
  309SOL    HW2  927   1.215   0.099   1.677  2.4117 -0.8328  0.2916
  310SOL     OW  928   1.500   2.549   0.687 -0.1080  0.4330  0.2496
  310SOL    HW1  929   1.463   2.599   0.767  1.8519  0.4030 -0.6677
  310SOL    HW2  930   1.559   2.605   0.625 -3.0432 -0.9896 -0.4161
  311SOL     OW  931   1.193   0.933   1.585 -0.3925  0.4759 -0.2010
  311SOL    HW1  932   1.259   0.859   1.574 -2.0403  0.8400 -1.7088
  311SOL    HW2  933   1.233   1.029   1.562  0.4040  1.0783 -2.9299
  312SOL     OW  934   1.618   0.660   0.982 -0.2914 -0.1276 -0.2560
  312SOL    HW1  935   1.571   0.750   0.966  2.2567 -0.5502 -0.6368
  312SOL    HW2  936   1.565   0.580   0.947  0.4094  1.8439 -0.6162
  313SOL     OW  937   1.586   1.402   0.695  0.6018  0.0450  0.3626
  313SOL    HW1  938   1.533   1.455   0.763  0.8553 -0.4122 -0.4044
  313SOL    HW2  939   1.534   1.331   0.637 -0.2640 -1.3082 -1.9770
  314SOL     OW  940   3.004   0.036   3.088 -0.3346 -0.2448 -0.9033
  314SOL    HW1  941   2.977   0.061   3.185  0.3559  0.4976 -2.6576
  314SOL    HW2  942   2.921  -0.011   3.041 -0.3963  1.2007 -1.1897
  315SOL     OW  943   1.222   0.203   2.807 -0.1797 -0.1289  0.0886
  315SOL    HW1  944   1.183   0.144   2.736  2.6879  0.8452 -2.0727
  315SOL    HW2  945   1.206   0.165   2.905 -0.8412 -0.9657 -0.5897
  316SOL     OW  946   1.710   2.087   0.911 -0.1249  0.0582 -0.5152
  316SOL    HW1  947   1.643   2.047   0.982 -1.7222  0.2214 -0.0047
  316SOL    HW2  948   1.680   2.180   0.867  0.2703  0.0164 -2.1191
  317SOL     OW  949   1.123   0.710   2.868  0.4659 -0.1153  0.1738
  317SOL    HW1  950   1.058   0.743   2.948 -0.5362 -1.9196  1.7683
  317SOL    HW2  951   1.102   0.612   2.843  0.5828  1.1722  2.1637
  318SOL     OW  952   1.326   3.053   2.239 -0.2219  0.3927  0.1478
  318SOL    HW1  953   1.342   3.145   2.196 -2.2236  2.3982 -1.2594
  318SOL    HW2  954   1.362   2.974   2.181  0.6792 -1.7846 -3.1711
  319SOL     OW  955   0.643   2.455   2.933  0.1534  0.0808  0.2125
  319SOL    HW1  956   0.580   2.396   2.995 -0.1267 -1.0818  0.7685
  319SOL    HW2  957   0.741   2.428   2.948 -0.1901  0.7189  0.5292
  320SOL     OW  958   1.679   2.187   0.317  0.3068  0.6432  0.6516
  320SOL    HW1  959   1.760   2.121   0.328  2.3953 -2.9415 -1.3209
  320SOL    HW2  960   1.595   2.147   0.356  1.9737  0.2324 -0.6884
  321SOL     OW  961   1.674   2.670   0.484 -0.0121 -0.0192 -0.0120
  321SOL    HW1  962   1.590   2.716   0.441  1.5410  1.0599  1.9329
  321SOL    HW2  963   1.766   2.712   0.462 -1.6088  0.7050  1.6367
  322SOL     OW  964   2.532   1.139   2.319 -0.0172 -0.2082  0.9503
  322SOL    HW1  965   2.598   1.165   2.393 -0.3505 -1.4546  0.6486
  322SOL    HW2  966   2.551   1.045   2.284  2.4435  2.2609 -1.1828
  323SOL     OW  967   1.080   2.634   0.829  1.0888 -0.1431 -0.3226
  323SOL    HW1  968   1.095   2.586   0.735 -0.4245  0.5022 -0.5785
  323SOL    HW2  969   1.065   2.737   0.823  1.0713  0.2894  1.1649
  324SOL     OW  970   0.247   2.538   2.511  0.5138  0.1975  0.2928
  324SOL    HW1  971   0.257   2.483   2.600 -2.3025 -0.5380  0.5217
  324SOL    HW2  972   0.171   2.614   2.513  0.5118  1.4549 -3.6344
  325SOL     OW  973   1.244   3.034   0.462 -0.2243  0.1714  0.2301
  325SOL    HW1  974   1.237   3.073   0.366  0.4000 -0.8754 -0.2110
  325SOL    HW2  975   1.267   3.106   0.532 -1.8260 -1.8148  0.8213
  326SOL     OW  976   2.440   0.787   3.077  0.2138  0.0338 -0.4967
  326SOL    HW1  977   2.411   0.739   2.989 -0.6706 -0.6813 -0.6029
  326SOL    HW2  978   2.490   0.719   3.137 -3.8650  0.3825  1.5431
  327SOL     OW  979   2.852   0.339   0.556  0.1294  0.3555  0.7352
  327SOL    HW1  980   2.811   0.366   0.464 -0.7141  1.1874 -0.5347
  327SOL    HW2  981   2.789   0.277   0.612 -0.2178 -0.1073 -1.2873
  328SOL     OW  982   2.514   0.604   0.391  0.4071 -0.4776 -0.5369
  328SOL    HW1  983   2.491   0.686   0.448 -0.6845 -2.4803  2.1109
  328SOL    HW2  984   2.527   0.519   0.451  0.9552  3.0237  1.9780
  329SOL     OW  985   2.974   3.001   2.132 -0.2807 -0.1604 -0.3315
  329SOL    HW1  986   3.030   2.924   2.177  1.1512 -0.6812 -1.5656
  329SOL    HW2  987   3.017   3.098   2.143 -0.9628  1.1691  3.4890
  330SOL     OW  988   0.580   0.151   1.841  0.4164  0.0421  0.0827
  330SOL    HW1  989   0.679   0.164   1.811 -0.1918 -0.8849 -3.0278
  330SOL    HW2  990   0.579   0.105   1.937  1.0646 -0.5797  0.6158
  331SOL     OW  991   2.964   1.925   1.129 -0.1428 -0.4102  0.4285
  331SOL    HW1  992   3.010   2.009   1.091 -2.5239 -0.9388 -0.7397
  331SOL    HW2  993   2.903   1.938   1.215  0.1665 -1.7846  0.8148
  332SOL     OW  994   0.447   1.140   0.026  0.0818 -0.2193 -0.8540
  332SOL    HW1  995   0.385   1.089  -0.040 -1.3388  1.0572 -1.4835
  332SOL    HW2  996   0.396   1.175   0.112  0.2939  3.4604 -2.0794
  333SOL     OW  997   2.861   1.050   0.295  0.3088  0.2006 -0.6586
  333SOL    HW1  998   2.878   1.135   0.355  1.5599  1.6134 -0.4395
  333SOL    HW2  999   2.947   0.998   0.280  0.4212 -0.1291 -0.7630
  334SOL     OW 1000   1.697   1.236   1.839  0.2364  0.6411 -0.3988
  334SOL    HW1 1001   1.776   1.172   1.817 -1.0517 -0.4125  1.0704
  334SOL    HW2 1002   1.699   1.275   1.937  0.0158 -0.0023  2.8646
  335SOL     OW 1003   1.957   2.753   2.619 -0.5543  0.4837 -0.1437
  335SOL    HW1 1004   1.884   2.683   2.638  0.2514  1.9763 -1.0867
  335SOL    HW2 1005   1.984   2.807   2.701  0.0109 -2.1523 -2.0302
  336SOL     OW 1006   0.243   0.083   2.847  0.4323  0.2262 -0.0407
  336SOL    HW1 1007   0.336   0.052   2.875 -2.8262  0.5895  1.9458
  336SOL    HW2 1008   0.212   0.163   2.900  1.5303  2.7013 -3.9192
  337SOL     OW 1009   0.920   2.794   2.810  0.2349 -0.4212  0.1683
  337SOL    HW1 1010   0.925   2.739   2.898 -1.4192  1.1128  1.7589
  337SOL    HW2 1011   1.003   2.783   2.750  2.3588 -1.2543  0.0198
  338SOL     OW 1012   0.017   1.030   0.676  0.1039 -0.1144 -0.3614
  338SOL    HW1 1013  -0.084   0.998   0.674  2.0978  0.6848 -1.0447
  338SOL    HW2 1014   0.030   1.129   0.655 -1.6829 -2.8567 -0.0690
  339SOL     OW 1015   1.715   1.359   2.093  0.2817 -0.0359 -0.2749
  339SOL    HW1 1016   1.620   1.372   2.139  1.1087 -0.0480 -0.3648
  339SOL    HW2 1017   1.764   1.452   2.088  2.3617  0.0368  1.6657
  340SOL     OW 1018   2.357   0.707   1.199 -0.3633 -0.2541  0.1626
  340SOL    HW1 1019   2.261   0.726   1.172  2.3227 -0.2171 -0.6485
  340SOL    HW2 1020   2.408   0.634   1.145 -1.5433 -1.7471  0.6998
  341SOL     OW 1021   1.950   2.107   0.325  0.8606  0.0685  0.1170
  341SOL    HW1 1022   1.964   2.169   0.240  1.1108  1.6175  1.4923
  341SOL    HW2 1023   2.029   2.107   0.390 -0.9659 -0.3571 -1.5397
  342SOL     OW 1024   2.203   2.088   2.736  0.2587  0.1520 -0.0732
  342SOL    HW1 1025   2.276   2.017   2.759 -1.4526 -0.6662 -2.7727
  342SOL    HW2 1026   2.109   2.049   2.756 -1.2096 -0.1645 -0.8071
  343SOL     OW 1027   0.405   0.826   2.758  0.7588  1.0438  0.3121
  343SOL    HW1 1028   0.401   0.901   2.689 -0.5163  1.1207  0.9047
  343SOL    HW2 1029   0.497   0.793   2.789 -3.1999  0.2993 -2.7059
  344SOL     OW 1030   1.950   1.393   0.424  0.1373 -0.0637 -0.7391
  344SOL    HW1 1031   1.938   1.326   0.348 -1.9640  0.0220 -1.2112
  344SOL    HW2 1032   1.858   1.433   0.446  1.0588 -0.7969 -1.0009
  345SOL     OW 1033   1.396   2.275   2.870  1.0490  0.0382 -0.6345
  345SOL    HW1 1034   1.307   2.240   2.823  1.1316 -0.4635 -0.0285
  345SOL    HW2 1035   1.479   2.222   2.831 -0.0523 -1.2791 -1.3594
  346SOL     OW 1036   2.341   0.907   1.417  0.2657  0.1720 -0.1505
  346SOL    HW1 1037   2.305   1.007   1.398  2.2642  2.9862 -2.7941
  346SOL    HW2 1038   2.321   0.850   1.331  0.4139  0.9842 -0.5522
  347SOL     OW 1039   0.716   2.782   1.455 -0.0713  0.1279 -0.2082
  347SOL    HW1 1040   0.696   2.728   1.540  0.0877 -0.1922 -1.4112
  347SOL    HW2 1041   0.651   2.865   1.457  1.2437 -1.3909  0.7095
  348SOL     OW 1042   0.155   0.672   2.823 -0.1156 -0.2902  0.3445
  348SOL    HW1 1043   0.056   0.664   2.793 -0.5637  1.9283 -1.0603
  348SOL    HW2 1044   0.210   0.734   2.753 -0.6281 -3.5529  0.8910
  349SOL     OW 1045   1.815   0.407   2.809  0.4536  0.1397 -0.0267
  349SOL    HW1 1046   1.790   0.491   2.750 -1.6819  0.7598 -1.7509
  349SOL    HW2 1047   1.811   0.420   2.911  0.0714 -4.0739 -0.3463
  350SOL     OW 1048   1.536   0.453   0.377  0.0925 -0.2094 -0.0391
  350SOL    HW1 1049   1.580   0.486   0.468  1.2379  1.3607  0.8566
  350SOL    HW2 1050   1.549   0.530   0.308 -0.4910  2.1887  1.0673
  351SOL     OW 1051   0.959   0.842   2.117  0.4636  0.3186  0.2587
  351SOL    HW1 1052   0.932   0.940   2.096  0.4417 -2.0127 -1.3433
  351SOL    HW2 1053   1.012   0.788   2.044  1.9867  1.0462 -0.5223
  352SOL     OW 1054   2.029   1.279   0.685 -0.0426  0.0012 -0.3693
  352SOL    HW1 1055   1.999   1.343   0.610  2.4549  1.2840 -0.1844
  352SOL    HW2 1056   2.131   1.291   0.712  4.9004 -1.1902  1.0487
  353SOL     OW 1057   2.189   2.906   1.079  0.2905 -0.7460  0.0660
  353SOL    HW1 1058   2.222   2.822   1.125 -3.4367  0.4933  0.7318
  353SOL    HW2 1059   2.117   2.883   1.011 -0.2977  1.3993  1.3597
  354SOL     OW 1060   0.235   1.393   2.856 -0.4935 -0.1694 -0.5704
  354SOL    HW1 1061   0.217   1.470   2.786  2.5072  1.5079  1.5264
  354SOL    HW2 1062   0.339   1.377   2.878  2.9339 -1.6666 -2.1730
  355SOL     OW 1063   0.492   1.516   0.487  0.0396 -0.8619  0.4264
  355SOL    HW1 1064   0.505   1.612   0.525  1.5238 -0.2902 -0.5349
  355SOL    HW2 1065   0.543   1.445   0.545  2.0567 -2.0686 -1.5721
  356SOL     OW 1066   0.937   0.271   2.078 -0.1857 -0.2900  0.1738
  356SOL    HW1 1067   1.028   0.261   2.029 -1.0566 -1.3970  1.6868
  356SOL    HW2 1068   0.867   0.221   2.018 -2.1257 -0.5188 -2.9908
  357SOL     OW 1069   0.993   1.293   0.403 -0.1411 -0.3956  0.0573
  357SOL    HW1 1070   0.955   1.238   0.323 -0.5840  2.6342 -1.3253
  357SOL    HW2 1071   1.045   1.228   0.464 -0.6992 -1.4403 -0.2829
  358SOL     OW 1072   1.712   1.500   0.459  0.1945 -0.0931  0.2372
  358SOL    HW1 1073   1.647   1.478   0.535  0.3725 -0.0578 -0.1319
  358SOL    HW2 1074   1.662   1.499   0.368 -0.8913  1.1141  0.5235
  359SOL     OW 1075   1.583   2.754   0.073  0.0092 -0.3825  0.3995
  359SOL    HW1 1076   1.557   2.670   0.024  0.4587  1.5338 -0.9761
  359SOL    HW2 1077   1.524   2.840   0.051  0.2300  1.9483  0.5793
  360SOL     OW 1078   0.860   0.615   0.559  0.0107 -0.2144  0.5130
  360SOL    HW1 1079   0.775   0.626   0.623  0.5827 -0.1936  2.3041
  360SOL    HW2 1080   0.886   0.514   0.554 -3.5880  0.0960 -0.7744
  361SOL     OW 1081   1.195   1.372   0.697  0.2846  0.0674  0.3890
  361SOL    HW1 1082   1.222   1.379   0.795 -2.7826  1.1405 -2.1991
  361SOL    HW2 1083   1.107   1.418   0.674 -1.3384 -0.1985 -0.6566
  362SOL     OW 1084   1.331   1.819   0.796  0.0026  0.7757  0.1907
  362SOL    HW1 1085   1.353   1.768   0.888  0.5778  1.1599  2.2343
  362SOL    HW2 1086   1.417   1.854   0.752 -0.9596 -0.0336 -0.1539
  363SOL     OW 1087   1.209   1.280   2.012  0.2034  0.2840 -0.1317
  363SOL    HW1 1088   1.289   1.332   2.053  0.7675 -1.9975  1.0207
  363SOL    HW2 1089   1.180   1.311   1.918 -0.3051  2.6906 -0.0723
  364SOL     OW 1090   0.513   2.328   1.936 -0.0336 -0.5835  0.5117
  364SOL    HW1 1091   0.414   2.355   1.952 -0.8008 -1.2079  2.4463
  364SOL    HW2 1092   0.556   2.381   1.854 -0.8113  0.4197 -1.3298
  365SOL     OW 1093   1.026   1.858   1.407  0.0426 -0.3273  0.4736
  365SOL    HW1 1094   0.922   1.874   1.418 -0.6233  3.0029  1.0623
  365SOL    HW2 1095   1.057   1.840   1.309 -1.0997  0.3406  1.0577
  366SOL     OW 1096   2.784   2.071   0.480 -0.8226 -0.0904 -0.2606
  366SOL    HW1 1097   2.698   2.036   0.444  1.5423 -1.2470  0.9097
  366SOL    HW2 1098   2.861   2.005   0.451  1.5744 -0.6508  0.1087
  367SOL     OW 1099   0.894   1.138   0.172  0.7369 -0.3042  0.4565
  367SOL    HW1 1100   0.841   1.059   0.212 -3.1889  1.3921  0.0194
  367SOL    HW2 1101   0.946   1.116   0.084  1.3274  0.8931 -0.6201
  368SOL     OW 1102   1.489   0.570   0.704  0.1787 -0.0655 -0.0935
  368SOL    HW1 1103   1.433   0.573   0.617 -0.5533  2.3978 -1.7942
  368SOL    HW2 1104   1.562   0.647   0.718  0.0944  1.8240  0.2707
  369SOL     OW 1105   0.218   1.729   0.054 -0.6762 -0.1938 -0.2461
  369SOL    HW1 1106   0.269   1.797   0.115 -1.3484  0.1367  2.3258
  369SOL    HW2 1107   0.145   1.680   0.105  0.7343 -0.7786 -2.6004
  370SOL     OW 1108   0.456   2.089   1.046 -0.2409 -0.4209 -0.1578
  370SOL    HW1 1109   0.471   2.194   1.046 -0.5176  1.5454  1.3020
  370SOL    HW2 1110   0.373   2.059   0.992 -0.8605  1.5554  2.2489
  371SOL     OW 1111   2.868   2.201   2.708 -0.0180 -0.3435  0.1010
  371SOL    HW1 1112   2.838   2.158   2.793 -0.2507 -1.4075 -2.1271
  371SOL    HW2 1113   2.963   2.241   2.720 -0.4703 -1.1225 -0.5969
  372SOL     OW 1114   1.082   1.972   1.089  0.1731  0.2582  0.8073
  372SOL    HW1 1115   0.982   1.977   1.074 -1.6197  2.3516 -0.7294
  372SOL    HW2 1116   1.135   2.030   1.019  1.0856  2.8987 -0.4675
  373SOL     OW 1117   1.971   2.011   0.893  0.7278  0.1580 -0.5896
  373SOL    HW1 1118   2.013   2.009   0.987 -1.0737 -1.1564 -1.3392
  373SOL    HW2 1119   1.872   2.038   0.895  1.7178 -0.8173 -2.2802
  374SOL     OW 1120   1.777   0.472   0.571  0.2487  0.2997 -0.0857
  374SOL    HW1 1121   1.804   0.408   0.645 -2.1920  1.5065 -1.4821
  374SOL    HW2 1122   1.851   0.492   0.492 -2.0224 -2.5606  0.1723
  375SOL     OW 1123   2.378   2.181   1.118  0.4857 -0.2079  0.2747
  375SOL    HW1 1124   2.452   2.167   1.046  1.5278  0.2723  0.5925
  375SOL    HW2 1125   2.404   2.158   1.214 -2.9889  1.1247 -0.5432
  376SOL     OW 1126   3.009   0.589   1.432  0.1689 -0.2173  0.0101
  376SOL    HW1 1127   3.073   0.648   1.491  2.8707 -0.4813 -0.6601
  376SOL    HW2 1128   2.907   0.611   1.435 -0.8955  0.4021  2.5376
  377SOL     OW 1129   2.223   2.841   0.338  0.5431  0.9341  0.1308
  377SOL    HW1 1130   2.229   2.937   0.376 -1.5493  1.8497 -1.5783
  377SOL    HW2 1131   2.315   2.802   0.302 -0.3036 -0.7395  0.2728
  378SOL     OW 1132   1.796   1.798   2.681  0.6736 -0.4997 -0.1487
  378SOL    HW1 1133   1.693   1.776   2.683  3.0381 -0.2591 -2.5528
  378SOL    HW2 1134   1.855   1.711   2.669 -0.5143 -0.8630  1.7081
  379SOL     OW 1135   0.887   0.129   2.727 -0.0098 -0.3960  0.2202
  379SOL    HW1 1136   0.843   0.066   2.660  0.7908  2.2655 -0.7922
  379SOL    HW2 1137   0.871   0.229   2.705  1.1531  2.7700 -1.0292
  380SOL     OW 1138   1.505   1.184   0.537 -0.2609 -0.6788  0.7874
  380SOL    HW1 1139   1.400   1.169   0.554  1.9999  1.0111  0.4368
  380SOL    HW2 1140   1.558   1.100   0.571 -0.4471 -1.0924 -0.7245
  381SOL     OW 1141   1.335   1.147   1.515 -0.0136 -0.4738 -0.6410
  381SOL    HW1 1142   1.371   1.158   1.419 -0.4533  0.0268 -0.8068
  381SOL    HW2 1143   1.408   1.132   1.591  0.7261 -0.3617 -0.2019
  382SOL     OW 1144   1.811   0.824   0.211  0.3466  0.3362 -0.2914
  382SOL    HW1 1145   1.819   0.796   0.112  0.4359  3.4319 -1.8683
  382SOL    HW2 1146   1.885   0.788   0.274 -0.2825 -2.2541  2.5776
  383SOL     OW 1147   2.609   0.993   1.494  0.7562  0.7998  0.2035
  383SOL    HW1 1148   2.513   0.969   1.448  0.4878  0.8008 -3.8608
  383SOL    HW2 1149   2.688   0.955   1.442  1.6810  1.9871  1.3778
  384SOL     OW 1150   0.916   2.262   0.112 -0.0512  0.3907  0.5045
  384SOL    HW1 1151   0.882   2.349   0.153  1.0296 -0.9165  0.8066
  384SOL    HW2 1152   0.885   2.171   0.158  1.2422 -2.1290  0.1132
  385SOL     OW 1153   2.987   2.000   1.783  0.1324  0.6680 -0.7120
  385SOL    HW1 1154   3.043   2.067   1.727 -0.8769  1.4207  0.6935
  385SOL    HW2 1155   3.024   1.904   1.754  1.1085  0.6465  1.5391
  386SOL     OW 1156   0.454   1.140   0.476  0.0828 -0.0557 -0.0290
  386SOL    HW1 1157   0.497   1.044   0.465  1.7748  2.3780  1.0943
  386SOL    HW2 1158   0.383   1.165   0.409 -0.1664 -0.0948  0.5702
  387SOL     OW 1159   0.998   0.360   1.683 -0.1261 -0.1699 -0.0212
  387SOL    HW1 1160   1.078   0.429   1.674  1.6074 -0.0547 -0.0863
  387SOL    HW2 1161   0.976   0.308   1.596 -1.2014  1.8893  3.4290
  388SOL     OW 1162   1.227   2.627   1.794 -0.0035 -0.2897  0.2274
  388SOL    HW1 1163   1.223   2.611   1.691  0.4185  1.5243 -3.1045
  388SOL    HW2 1164   1.272   2.557   1.854  0.2623  2.0815  0.8219
  389SOL     OW 1165   0.192   3.081   1.141 -0.2112 -0.3801 -0.3800
  389SOL    HW1 1166   0.147   3.098   1.230  1.3671  0.3269  1.7431
  389SOL    HW2 1167   0.242   2.990   1.142  2.4828  0.7185  1.7457
  390SOL     OW 1168   1.053   0.925   1.221 -0.2203 -0.0889  0.0485
  390SOL    HW1 1169   1.131   0.864   1.253  0.0321 -0.9977  0.5245
  390SOL    HW2 1170   0.986   0.961   1.291  1.5483  2.0021 -1.4457
  391SOL     OW 1171   2.031   1.171   1.019 -0.0938 -0.2148 -0.8418
  391SOL    HW1 1172   1.953   1.107   1.038 -1.5350  0.3149  3.3404
  391SOL    HW2 1173   2.106   1.138   0.955  0.0717  1.7527  2.2303
  392SOL     OW 1174   0.940   2.648   3.037 -0.5537  0.1365 -0.0807
  392SOL    HW1 1175   0.850   2.657   3.085  3.1238 -1.0894  1.1371
  392SOL    HW2 1176   1.015   2.690   3.090 -0.3749 -2.1607 -1.2913
  393SOL     OW 1177   0.400   0.492   2.099  0.2365 -0.0527 -0.0083
  393SOL    HW1 1178   0.305   0.455   2.104  0.0533  0.4803  0.4730
  393SOL    HW2 1179   0.465   0.461   2.023  2.0395 -0.2441 -0.6395
  394SOL     OW 1180   2.943   1.824   2.791  0.7100  0.1251 -0.2492
  394SOL    HW1 1181   3.023   1.851   2.848  1.2145 -0.3617 -1.0204
  394SOL    HW2 1182   2.968   1.838   2.688  2.7224 -1.4274 -0.4791
  395SOL     OW 1183   1.580   1.905   0.691  0.3444 -0.1234 -0.5828
  395SOL    HW1 1184   1.643   1.847   0.628 -0.1142 -2.1710 -0.5802
  395SOL    HW2 1185   1.638   1.952   0.767 -2.5597  1.4898  0.4313
  396SOL     OW 1186   2.761   2.025   1.338  0.0785 -0.8555  0.1994
  396SOL    HW1 1187   2.761   2.032   1.440 -0.9247 -0.9305 -0.6352
  396SOL    HW2 1188   2.666   2.024   1.294  0.6217 -2.4318  0.3537
  397SOL     OW 1189   1.021   2.107   0.631  0.0514 -0.2742  0.0604
  397SOL    HW1 1190   0.945   2.077   0.575  1.2471  1.1705 -0.5617
  397SOL    HW2 1191   0.981   2.162   0.713 -0.0571 -1.4943  1.1461
  398SOL     OW 1192   2.236   0.068   1.030  0.6730 -0.2001 -0.0165
  398SOL    HW1 1193   2.247  -0.038   1.049  1.5069 -0.9621  0.4629
  398SOL    HW2 1194   2.140   0.100   1.042  2.0989 -0.2279 -0.7566
  399SOL     OW 1195   2.870   2.577   2.725 -0.4585 -0.0536 -0.1061
  399SOL    HW1 1196   2.859   2.533   2.632  0.5337  2.0438  2.5909
  399SOL    HW2 1197   2.833   2.520   2.801 -1.3825 -0.1322  1.0332
  400SOL     OW 1198   0.788   1.599   1.266 -0.5590  0.2930 -0.1136
  400SOL    HW1 1199   0.740   1.630   1.352 -0.4344 -0.7600  0.6704
  400SOL    HW2 1200   0.790   1.668   1.185  0.3997 -0.6602 -1.9673
  401SOL     OW 1201   1.823   0.149   1.282  0.6706  0.4961  0.5679
  401SOL    HW1 1202   1.880   0.206   1.348  0.4877 -1.5337 -1.0773
  401SOL    HW2 1203   1.721   0.175   1.271 -1.1681  1.5861 -1.6348
  402SOL     OW 1204   1.341   0.169   3.063  0.0592  0.2199  0.0744
  402SOL    HW1 1205   1.432   0.137   3.025 -1.1449  0.5187  0.7760
  402SOL    HW2 1206   1.348   0.249   3.124 -0.3229  0.7601 -0.0293
  403SOL     OW 1207   2.304   1.843   0.919 -0.3792  0.1735 -0.5665
  403SOL    HW1 1208   2.407   1.846   0.937  1.2503 -1.7861  1.5302
  403SOL    HW2 1209   2.248   1.922   0.962  1.2344 -1.8591  2.9202
  404SOL     OW 1210   0.171   2.501   2.854 -0.2036  0.2296  0.0556
  404SOL    HW1 1211   0.267   2.455   2.830  3.2167 -1.2129 -0.1027
  404SOL    HW2 1212   0.183   2.606   2.863  0.8872  0.3298  0.9430
  405SOL     OW 1213   0.246   2.519   0.555  0.0631 -0.2185  0.4036
  405SOL    HW1 1214   0.179   2.516   0.473 -0.8872 -1.6068 -0.4901
  405SOL    HW2 1215   0.288   2.613   0.557  2.2449 -0.6189  1.3514
  406SOL     OW 1216   0.012   1.511   3.010 -0.1405 -0.2185  0.4256
  406SOL    HW1 1217   0.096   1.467   2.969  0.3857 -1.8109 -1.6358
  406SOL    HW2 1218   0.007   1.500   3.107  1.3745  0.8036 -1.3994
  407SOL     OW 1219   1.527   0.922   0.905  0.1600  0.3400 -0.1609
  407SOL    HW1 1220   1.516   0.940   0.803  2.3748  0.3140 -2.0666
  407SOL    HW2 1221   1.500   1.007   0.959 -1.5583 -2.6820  0.1159
  408SOL     OW 1222   1.574   2.412   0.981  0.3476  0.0841  0.2600
  408SOL    HW1 1223   1.645   2.400   0.912 -1.2890  1.7559  1.4670
  408SOL    HW2 1224   1.608   2.483   1.055  1.7373  0.7560  1.5307
  409SOL     OW 1225   0.590   0.846   0.741 -0.8644 -0.4735  0.8243
  409SOL    HW1 1226   0.522   0.868   0.670 -0.4409 -1.6055  1.3714
  409SOL    HW2 1227   0.622   0.745   0.734 -0.8034  0.5437  2.6702
  410SOL     OW 1228   1.262   1.995   1.447 -0.0807  0.4767  0.2792
  410SOL    HW1 1229   1.264   2.021   1.552 -1.1383  0.4272  1.5414
  410SOL    HW2 1230   1.172   1.946   1.435 -3.1512 -2.5425  0.1320
  411SOL     OW 1231   2.419   1.785   3.077  0.6109 -0.0050 -0.7195
  411SOL    HW1 1232   2.341   1.804   3.007 -0.2194 -0.6395 -0.7147
  411SOL    HW2 1233   2.506   1.747   3.032  0.4933 -2.5100 -0.5465
  412SOL     OW 1234   1.487   2.473   2.224 -0.8750 -0.1693 -0.3322
  412SOL    HW1 1235   1.538   2.521   2.306 -0.2182 -0.1945  3.0299
  412SOL    HW2 1236   1.401   2.414   2.244 -2.3689  3.5870 -1.3912
  413SOL     OW 1237   3.072   0.277   2.970  0.2548  0.2911 -0.1552
  413SOL    HW1 1238   3.016   0.201   3.018  0.8794 -3.1924 -0.4374
  413SOL    HW2 1239   3.172   0.280   2.988 -0.4887 -0.2113 -2.4678
  414SOL     OW 1240   1.771   1.408   1.392  0.5345  0.8836  0.3088
  414SOL    HW1 1241   1.707   1.485   1.424  0.9433  0.8743 -1.0379
  414SOL    HW2 1242   1.758   1.388   1.291 -0.2604  1.5100 -0.8450
  415SOL     OW 1243   0.373   2.275   0.611  0.6438  0.0548  0.2809
  415SOL    HW1 1244   0.342   2.375   0.603 -1.0315 -0.2409 -3.2867
  415SOL    HW2 1245   0.296   2.203   0.630 -2.8462 -0.9949 -0.6738
  416SOL     OW 1246   0.385   1.064   1.036 -0.3820 -0.3771  0.0340
  416SOL    HW1 1247   0.348   1.013   0.949 -1.2734  1.4008 -0.7629
  416SOL    HW2 1248   0.485   1.094   1.039  0.6208  0.7575  0.0924
  417SOL     OW 1249   2.118   2.360   1.894 -0.1361 -0.0366 -0.0187
  417SOL    HW1 1250   2.158   2.269   1.929 -1.2165 -0.4350 -2.2368
  417SOL    HW2 1251   2.041   2.398   1.956  1.2808  0.5712 -1.7424
  418SOL     OW 1252   1.112   0.509   1.293 -0.1476 -0.2369 -0.4976
  418SOL    HW1 1253   1.014   0.515   1.260  3.5003 -1.1393 -1.0000
  418SOL    HW2 1254   1.163   0.439   1.232 -0.4099 -2.6050 -1.1440
  419SOL     OW 1255   1.039   0.370   3.056  0.5723 -0.4841 -0.5679
  419SOL    HW1 1256   1.084   0.419   2.979  0.9812 -1.5800 -1.5479
  419SOL    HW2 1257   0.970   0.299   3.029  1.0884 -0.1321 -3.1139
  420SOL     OW 1258   0.213   2.253   0.331 -0.4297  0.0085  0.1497
  420SOL    HW1 1259   0.185   2.216   0.237 -0.0120 -1.7332  0.9557
  420SOL    HW2 1260   0.140   2.297   0.388 -0.7196  0.6123  1.0442
  421SOL     OW 1261   0.328   3.088   0.700 -0.6146 -0.0097  0.4870
  421SOL    HW1 1262   0.302   2.997   0.664 -0.7553  2.3102 -0.8230
  421SOL    HW2 1263   0.428   3.086   0.727 -2.6625  2.0933 -2.8650
  422SOL     OW 1264   0.964   2.514   1.037  0.2884 -0.3819  0.0498
  422SOL    HW1 1265   1.010   2.573   0.968 -0.7970  2.1528  2.2736
  422SOL    HW2 1266   0.985   2.556   1.130  1.4843  1.5547  0.4651
  423SOL     OW 1267   0.047   0.651   1.203  0.1543 -0.1978  0.1375
  423SOL    HW1 1268  -0.005   0.609   1.280 -0.0105 -0.1199  0.1019
  423SOL    HW2 1269  -0.005   0.740   1.174 -0.4922  0.3613  0.3151
  424SOL     OW 1270   0.975   2.207   2.063 -0.0675  0.2804  0.2766
  424SOL    HW1 1271   0.995   2.309   2.042 -0.6809  0.9477 -0.8583
  424SOL    HW2 1272   0.961   2.190   2.165  2.3620  1.2014 -1.1646
  425SOL     OW 1273   1.975   1.438   1.012  0.1037  0.4694 -0.4581
  425SOL    HW1 1274   2.001   1.334   1.022 -2.8040 -0.8963  1.2256
  425SOL    HW2 1275   2.049   1.494   0.966 -2.0839  1.2487 -0.6034
  426SOL     OW 1276   1.507   1.568   1.443 -0.0260  0.1063 -0.4028
  426SOL    HW1 1277   1.477   1.661   1.403 -0.5733 -0.1253  3.9177
  426SOL    HW2 1278   1.474   1.550   1.540 -0.3450 -1.2457 -0.4221
  427SOL     OW 1279   1.910   2.407   2.094  1.0221  0.0692 -0.3467
  427SOL    HW1 1280   1.977   2.379   2.166 -0.5117 -0.5146  3.3139
  427SOL    HW2 1281   1.885   2.510   2.092  0.3070  2.9571 -1.0613
  428SOL     OW 1282   0.866   2.955   0.144 -0.2262 -1.0749 -0.3027
  428SOL    HW1 1283   0.906   3.051   0.173 -0.5601  0.7164  0.8426
  428SOL    HW2 1284   0.947   2.886   0.135  0.0698  2.2138  0.8355
  429SOL     OW 1285   1.283   0.082   0.224  0.3191 -0.5882  0.3924
  429SOL    HW1 1286   1.361   0.086   0.288 -1.9788 -0.4390  0.6420
  429SOL    HW2 1287   1.309   0.113   0.127  0.9808 -0.6395 -0.1693
  430SOL     OW 1288   2.817   1.535   0.333 -1.0480  0.2758 -0.0133
  430SOL    HW1 1289   2.787   1.600   0.261  0.4423  1.4200  0.8532
  430SOL    HW2 1290   2.827   1.585   0.426 -1.4109 -0.2020  1.9888
  431SOL     OW 1291   2.130   1.633   0.885 -0.0869  0.3103  0.3053
  431SOL    HW1 1292   2.182   1.712   0.929 -1.1549 -1.1183  2.2664
  431SOL    HW2 1293   2.047   1.662   0.830  0.4071 -1.8525 -1.2038
  432SOL     OW 1294   2.919   2.225   1.238 -0.1962  0.2812  0.0623
  432SOL    HW1 1295   2.840   2.174   1.267  2.7880  5.8791  0.6230
  432SOL    HW2 1296   2.957   2.270   1.320 -1.3211  0.0197 -1.4930
  433SOL     OW 1297   1.877   0.351   0.795 -0.0910  0.4618  0.2349
  433SOL    HW1 1298   1.821   0.337   0.880  0.1890  1.1741 -2.2626
  433SOL    HW2 1299   1.956   0.283   0.795 -0.0118 -0.2173 -1.4100
  434SOL     OW 1300   1.548   0.301   0.740  0.0279 -0.5308  0.2760
  434SOL    HW1 1301   1.537   0.397   0.698 -1.9774 -3.8829  1.4200
  434SOL    HW2 1302   1.573   0.305   0.841  3.7441  1.2315  1.9258
  435SOL     OW 1303   1.449   1.380   2.150 -0.0481 -0.2691 -0.0153
  435SOL    HW1 1304   1.400   1.394   2.244 -1.8590 -0.0853  1.4891
  435SOL    HW2 1305   1.442   1.463   2.086  0.6462  0.6572  3.0042
  436SOL     OW 1306   1.607   2.644   2.411  0.1460  1.0342 -0.0131
  436SOL    HW1 1307   1.629   2.740   2.445 -3.3837  1.5073  2.2246
  436SOL    HW2 1308   1.598   2.577   2.490  4.9838 -3.9376  0.6155
  437SOL     OW 1309   1.076   2.915   0.892  0.0518 -0.1563 -0.6550
  437SOL    HW1 1310   1.011   2.998   0.893 -1.9366 -0.7664  1.7498
  437SOL    HW2 1311   1.099   2.889   0.988  0.0686  3.4490  0.3453
  438SOL     OW 1312   1.049   2.595   1.279 -0.4705  0.2426  0.1219
  438SOL    HW1 1313   1.055   2.676   1.346 -1.4199  2.4171  3.8044
  438SOL    HW2 1314   1.025   2.504   1.323 -2.3317 -3.5520 -2.4891
  439SOL     OW 1315   0.744   1.782   1.042  0.3474  0.2027  0.5918
  439SOL    HW1 1316   0.771   1.874   1.008  0.1151  0.5618  2.6416
  439SOL    HW2 1317   0.644   1.768   1.059  2.1274  0.1023 -0.6751
  440SOL     OW 1318   1.042   2.469   1.993 -0.1420  0.3142 -1.0177
  440SOL    HW1 1319   0.982   2.512   1.918 -1.2526  0.7433 -1.5703
  440SOL    HW2 1320   1.126   2.528   2.012 -0.0383 -0.9277 -3.2382
  441SOL     OW 1321   0.404   2.778   1.369  0.2758  0.3343 -0.8443
  441SOL    HW1 1322   0.440   2.687   1.399  0.8488 -0.3912  2.3049
  441SOL    HW2 1323   0.376   2.766   1.271 -1.4660 -3.5782  3.4183
  442SOL     OW 1324   2.242   0.680   2.599  0.3848 -0.2166  0.0712
  442SOL    HW1 1325   2.247   0.593   2.542 -1.5880 -1.0689  0.1338
  442SOL    HW2 1326   2.146   0.715   2.611 -0.5411  0.1251 -0.5967
  443SOL     OW 1327   1.236   2.662   2.196 -0.2012 -0.3762 -0.2393
  443SOL    HW1 1328   1.240   2.559   2.215  1.5623  1.1999  3.5376
  443SOL    HW2 1329   1.202   2.717   2.282  0.5205  3.1818  2.4120
  444SOL     OW 1330   1.045   1.230   1.503  0.4636  0.0508 -0.2011
  444SOL    HW1 1331   1.142   1.201   1.499 -3.7676  0.3249  0.7446
  444SOL    HW2 1332   1.030   1.295   1.579  2.7947  0.8367 -0.9154
  445SOL     OW 1333   3.089   2.396   1.918 -0.8732  0.3493 -0.8107
  445SOL    HW1 1334   3.038   2.380   1.833 -1.2580  0.8231  0.2808
  445SOL    HW2 1335   3.050   2.351   2.006  0.5886  1.1563  0.4208
  446SOL     OW 1336   0.189   1.933   2.374  0.0423 -0.1680  0.2686
  446SOL    HW1 1337   0.135   2.018   2.401  2.0914 -3.5619  0.5858
  446SOL    HW2 1338   0.144   1.880   2.302 -0.0553 -0.9348  1.9530
  447SOL     OW 1339   1.233   1.663   1.918  0.4296 -0.1045  0.2598
  447SOL    HW1 1340   1.152   1.716   1.957  0.4559 -0.3900 -2.2591
  447SOL    HW2 1341   1.321   1.711   1.948 -0.0523 -0.7874  0.3174
  448SOL     OW 1342   0.143   1.408   2.020 -0.4380 -0.6582  0.1269
  448SOL    HW1 1343   0.136   1.498   1.975  0.2533 -2.6115  1.9345
  448SOL    HW2 1344   0.110   1.412   2.120 -1.3915  0.8360 -0.1353
  449SOL     OW 1345   1.787   2.983   0.863 -0.9402 -0.0854  0.4584
  449SOL    HW1 1346   1.784   2.980   0.966 -1.6077  0.8021 -1.5460
  449SOL    HW2 1347   1.836   2.903   0.821  0.7665 -0.6989 -0.2436
  450SOL     OW 1348   2.288   1.461   0.738  0.4752 -0.1795  0.2044
  450SOL    HW1 1349   2.231   1.518   0.800 -0.1587  0.5890 -2.1908
  450SOL    HW2 1350   2.296   1.514   0.645  1.2455  1.2049  2.0917
  451SOL     OW 1351   1.401   3.056   1.484  0.2573  0.0626 -0.0554
  451SOL    HW1 1352   1.335   3.142   1.496 -1.2201  2.8374 -2.1248
  451SOL    HW2 1353   1.416   2.997   1.566 -0.6596  0.6593 -1.8590
  452SOL     OW 1354   2.665   2.287   2.245  0.2447  0.2974 -0.4569
  452SOL    HW1 1355   2.648   2.386   2.273 -2.1055  1.3439  0.1552
  452SOL    HW2 1356   2.711   2.232   2.319  0.8226  0.3321 -3.5462
  453SOL     OW 1357   2.447   2.646   3.101  0.4485 -0.2971 -0.3023
  453SOL    HW1 1358   2.370   2.720   3.092  1.1763  1.9925 -0.4285
  453SOL    HW2 1359   2.459   2.594   3.014 -3.5760  1.5166 -0.7503
  454SOL     OW 1360   0.966   1.110   2.055 -0.1927 -0.2122  0.2229
  454SOL    HW1 1361   0.945   1.131   1.957  0.1641 -0.6841  1.1144
  454SOL    HW2 1362   1.049   1.164   2.090 -2.1747 -1.0927  3.3066
  455SOL     OW 1363   0.664   2.691   2.779 -0.0961  0.3546 -0.3017
  455SOL    HW1 1364   0.761   2.713   2.784 -2.9686 -2.4311 -0.2417
  455SOL    HW2 1365   0.645   2.615   2.842 -1.4812  1.1087  0.8385
  456SOL     OW 1366   0.388   1.899   0.221  0.8947  0.6117 -0.1840
  456SOL    HW1 1367   0.472   1.835   0.240  0.3114 -0.7956 -1.4961
  456SOL    HW2 1368   0.415   1.998   0.199  2.5620 -0.1248  1.5177
  457SOL     OW 1369   0.401   2.759   0.592 -0.1887 -0.8134  0.0897
  457SOL    HW1 1370   0.412   2.816   0.506 -0.3660 -0.5533 -0.7470
  457SOL    HW2 1371   0.490   2.724   0.626  2.8773  0.5222  0.3801
  458SOL     OW 1372   2.811   0.027   1.158 -0.0870 -0.2296 -0.4924
  458SOL    HW1 1373   2.896   0.084   1.136 -0.2247  0.0041 -2.4114
  458SOL    HW2 1374   2.808  -0.055   1.098  1.3311  2.1956  0.4832
  459SOL     OW 1375   2.181   2.568   0.807 -0.3949  0.9968 -0.6977
  459SOL    HW1 1376   2.258   2.632   0.840 -0.0169 -2.7737 -0.0958
  459SOL    HW2 1377   2.214   2.499   0.740 -2.8539  0.0108  3.0255
  460SOL     OW 1378   1.194   2.096   2.781 -0.1746  0.4735 -0.2037
  460SOL    HW1 1379   1.189   2.111   2.676 -2.7634  1.9659  1.5621
  460SOL    HW2 1380   1.190   1.994   2.803  0.2131  1.5051  1.4092
  461SOL     OW 1381   0.502   2.147   2.696  0.1811  0.4761 -0.1964
  461SOL    HW1 1382   0.449   2.063   2.669 -2.0967  1.4308 -0.4332
  461SOL    HW2 1383   0.564   2.128   2.780 -0.7484  2.7496  1.1256
  462SOL     OW 1384   1.008   1.084   1.755 -0.2204  0.1028  0.8045
  462SOL    HW1 1385   1.043   1.027   1.676  3.3739 -0.0173  2.3286
  462SOL    HW2 1386   0.936   1.154   1.728  1.6629  1.4885  0.5916
  463SOL     OW 1387   0.467   0.865   0.493 -0.4991 -0.0545 -0.2846
  463SOL    HW1 1388   0.492   0.769   0.471 -1.5958 -0.8056  0.5143
  463SOL    HW2 1389   0.364   0.884   0.489  1.7793 -0.1088  1.4527
  464SOL     OW 1390   0.575   2.321   2.211 -0.6346 -0.1701  0.0659
  464SOL    HW1 1391   0.567   2.410   2.266 -1.0373 -1.3355 -0.6190
  464SOL    HW2 1392   0.511   2.319   2.128 -0.2154 -1.1739  2.9866
  465SOL     OW 1393   0.269   0.920   0.829 -0.6903 -0.0305 -0.4447
  465SOL    HW1 1394   0.178   0.952   0.791  1.1250 -1.4568 -0.6230
  465SOL    HW2 1395   0.285   0.821   0.822  0.3940  3.7605  1.3136
  466SOL     OW 1396   1.413   1.150   1.056 -0.1065  0.1723 -0.2916
  466SOL    HW1 1397   1.436   1.250   1.061 -0.2141 -1.1420  0.3929
  466SOL    HW2 1398   1.321   1.128   1.018  2.0796 -2.4781 -1.4556
  467SOL     OW 1399   0.614   0.414   2.461  0.1701  0.0820 -0.0732
  467SOL    HW1 1400   0.544   0.484   2.434 -0.4720 -0.2463  0.7707
  467SOL    HW2 1401   0.598   0.374   2.552  1.0096  1.7514 -2.7503
  468SOL     OW 1402   0.420   2.261   1.616  0.6074 -0.3197  0.7093
  468SOL    HW1 1403   0.502   2.295   1.670 -1.2592 -0.8556 -0.6731
  468SOL    HW2 1404   0.430   2.269   1.512  2.3964  2.4364  1.3497
  469SOL     OW 1405   1.474   1.320   1.309 -0.1116  0.4462 -0.6636
  469SOL    HW1 1406   1.556   1.310   1.242 -3.1095  0.4652  0.9504
  469SOL    HW2 1407   1.487   1.397   1.379  3.6467  3.0399 -1.7901
  470SOL     OW 1408   3.013   1.871   0.720  0.0000  0.7520  0.0534
  470SOL    HW1 1409   3.101   1.919   0.704  0.1662 -2.5343 -0.2046
  470SOL    HW2 1410   3.023   1.790   0.779 -1.2911 -1.0166  2.7547
  471SOL     OW 1411   2.584   1.342   2.158 -0.2524 -0.0713  0.2692
  471SOL    HW1 1412   2.563   1.262   2.221  3.7451 -2.2917 -1.7266
  471SOL    HW2 1413   2.651   1.411   2.204  0.3740 -1.1190  1.9118
  472SOL     OW 1414   1.168   2.380   0.034  0.1495  0.1759 -0.3704
  472SOL    HW1 1415   1.233   2.360   0.115 -0.4021  0.8739 -0.7073
  472SOL    HW2 1416   1.076   2.331   0.045  1.3649 -2.7932 -0.0559
  473SOL     OW 1417   1.048   1.466   1.047 -0.4867  0.0832  0.1468
  473SOL    HW1 1418   0.960   1.469   0.990  1.5635 -0.0993  0.9057
  473SOL    HW2 1419   1.038   1.414   1.137 -0.7018 -2.4313  0.5284
  474SOL     OW 1420   0.649   1.279   0.601 -0.2713 -0.1607  0.3043
  474SOL    HW1 1421   0.585   1.199   0.574  0.7370  1.6922 -0.1389
  474SOL    HW2 1422   0.751   1.264   0.588  0.5964  1.3153  0.3545
  475SOL     OW 1423   2.838   0.032   0.835  0.0548  0.4942  0.5896
  475SOL    HW1 1424   2.907   0.110   0.859  0.7981 -0.9698 -1.3113
  475SOL    HW2 1425   2.741   0.068   0.861 -0.5927  0.1098 -1.5905
  476SOL     OW 1426   1.021   2.971   1.755 -0.7886 -0.0957 -0.0908
  476SOL    HW1 1427   1.101   3.036   1.774 -2.0372  1.4648  2.0831
  476SOL    HW2 1428   0.988   2.969   1.658  2.4735 -1.4713  0.9909
  477SOL     OW 1429   1.465   0.322   2.433  0.2512  0.0053 -0.1217
  477SOL    HW1 1430   1.421   0.340   2.526  1.4566 -1.3829 -1.0444
  477SOL    HW2 1431   1.559   0.279   2.445  1.6743  1.9044 -0.4393
  478SOL     OW 1432   2.221   1.842   0.210  0.1868 -0.1740  0.0466
  478SOL    HW1 1433   2.170   1.758   0.252 -1.9795 -2.9064  1.2727
  478SOL    HW2 1434   2.299   1.825   0.148 -2.9112  1.7273 -0.7331
  479SOL     OW 1435   1.251   0.948   2.877 -0.1681  0.2595 -0.0650
  479SOL    HW1 1436   1.330   0.953   2.812  0.7841 -0.7209  0.7425
  479SOL    HW2 1437   1.198   0.858   2.868 -0.4337 -1.4520 -0.3677
  480SOL     OW 1438   2.631   2.345   0.394 -0.0488  0.2186 -0.0988
  480SOL    HW1 1439   2.559   2.310   0.459  0.2196 -0.7829  0.8288
  480SOL    HW2 1440   2.588   2.372   0.303 -1.0787  0.2827 -1.7165
  481SOL     OW 1441   0.933   1.162   0.845 -0.2649  0.1860  0.6338
  481SOL    HW1 1442   0.929   1.254   0.796 -0.8366  2.4099  0.4363
  481SOL    HW2 1443   0.984   1.170   0.938 -0.3291  1.8607  0.1532
  482SOL     OW 1444   1.554   0.315   1.986 -0.0970 -0.6116  0.1778
  482SOL    HW1 1445   1.576   0.407   1.943  1.5692  0.8379 -1.4977
  482SOL    HW2 1446   1.642   0.259   2.006 -0.7914  2.2784 -0.8539
  483SOL     OW 1447   0.141   2.285   1.210  0.4915 -0.0268 -0.3431
  483SOL    HW1 1448   0.121   2.348   1.285 -1.6483 -2.5176 -0.3811
  483SOL    HW2 1449   0.144   2.337   1.122 -1.7453 -2.6280  0.5316
  484SOL     OW 1450   1.770   1.127   1.353 -0.1910  0.0158  0.4386
  484SOL    HW1 1451   1.811   1.047   1.406  1.1047  0.9237 -2.1456
  484SOL    HW2 1452   1.773   1.215   1.412  0.3927  1.7671  1.1674
  485SOL     OW 1453   0.755   0.811   1.768 -0.3821  0.7401 -0.1269
  485SOL    HW1 1454   0.744   0.872   1.684 -1.1593  0.1982  1.8244
  485SOL    HW2 1455   0.846   0.772   1.781 -1.1053  1.3983 -1.4297
  486SOL     OW 1456   0.828   1.862   2.471 -0.2458 -0.5983  0.5256
  486SOL    HW1 1457   0.904   1.841   2.540 -1.6720 -1.3761 -2.8548
  486SOL    HW2 1458   0.783   1.953   2.496 -0.9384 -0.0889  2.8598
  487SOL     OW 1459   1.767   1.600   0.935 -0.0925  0.4863  0.0917
  487SOL    HW1 1460   1.839   1.527   0.969  0.6449  0.5654  0.9746
  487SOL    HW2 1461   1.813   1.679   0.893 -0.4837 -0.4152  0.3286
  488SOL     OW 1462   2.946   0.890   2.300 -0.1183 -0.3155 -0.3960
  488SOL    HW1 1463   2.956   0.789   2.286  1.0100 -0.0949 -0.5995
  488SOL    HW2 1464   2.974   0.914   2.398  0.7394  0.0524 -1.2418
  489SOL     OW 1465   2.842   0.364   1.270  0.8119 -0.4403 -0.2456
  489SOL    HW1 1466   2.801   0.322   1.356 -1.7065  1.2282 -0.2294
  489SOL    HW2 1467   2.928   0.312   1.238 -0.2538 -2.3775  0.7314
  490SOL     OW 1468   1.409   2.949   2.824  0.0141  0.3218  0.1817
  490SOL    HW1 1469   1.471   2.862   2.824  1.8623  0.0615  0.3305
  490SOL    HW2 1470   1.390   2.974   2.725  0.2035  1.6801 -0.4311
  491SOL     OW 1471   1.702   1.528   2.643 -0.1426 -0.0344 -0.1135
  491SOL    HW1 1472   1.612   1.545   2.702 -1.2778 -0.5384  2.6354
  491SOL    HW2 1473   1.790   1.522   2.706  1.0223 -1.9669 -0.6356
  492SOL     OW 1474   0.571   2.086   0.591 -1.0626  0.6872  0.3252
  492SOL    HW1 1475   0.593   2.054   0.690 -2.2601  2.0546  0.7608
  492SOL    HW2 1476   0.510   2.165   0.586 -0.4535  0.4207 -1.3876
  493SOL     OW 1477   0.447   1.399   2.085 -0.2451  0.1532  0.0387
  493SOL    HW1 1478   0.356   1.453   2.077 -2.4978 -0.3129 -2.9991
  493SOL    HW2 1479   0.433   1.296   2.102  1.4972  1.0680 -1.0977
  494SOL     OW 1480   2.719   2.610   0.106 -0.2139  0.8853 -0.1133
  494SOL    HW1 1481   2.710   2.591   0.207  0.2930  1.1049 -1.7098
  494SOL    HW2 1482   2.635   2.648   0.062  1.1477 -0.0954 -1.9461
  495SOL     OW 1483   2.559   2.738   2.632  0.0121 -0.0165  0.7920
  495SOL    HW1 1484   2.558   2.635   2.638  1.7585 -1.2854  0.1945
  495SOL    HW2 1485   2.633   2.782   2.568  2.6432 -0.4227 -2.5470
  496SOL     OW 1486   2.038   2.273   0.778  0.3574 -0.3068 -0.6074
  496SOL    HW1 1487   2.067   2.320   0.865  1.5179  0.7947  0.1340
  496SOL    HW2 1488   2.027   2.170   0.795 -0.7207  0.8988 -1.3478
  497SOL     OW 1489   0.194   2.992   2.371  0.5786 -0.2511  0.1553
  497SOL    HW1 1490   0.168   3.052   2.451  0.5591 -0.8457  1.4902
  497SOL    HW2 1491   0.233   3.049   2.290  0.9206  0.0836 -0.6613
  498SOL     OW 1492   1.202   1.321   1.264  0.1327  0.2869 -0.2373
  498SOL    HW1 1493   1.306   1.312   1.255  2.8712  0.1940  1.0292
  498SOL    HW2 1494   1.172   1.401   1.325  0.8570  1.5361  0.9372
  499SOL     OW 1495   0.626   1.807   0.281 -0.6338 -0.6123  0.6852
  499SOL    HW1 1496   0.666   1.735   0.228 -1.4598  1.2907  0.2735
  499SOL    HW2 1497   0.695   1.862   0.335  0.6659 -0.7491 -2.5031
  500SOL     OW 1498   1.393   2.874   1.685  0.0779 -0.2062 -0.2302
  500SOL    HW1 1499   1.300   2.834   1.719  0.5402  0.7497 -1.7791
  500SOL    HW2 1500   1.447   2.822   1.613 -1.9142 -1.2481  0.2487
  501SOL     OW 1501   0.788   1.150   2.310  0.3933 -0.3111 -0.4919
  501SOL    HW1 1502   0.682   1.123   2.310 -0.4058 -0.9106 -0.6565
  501SOL    HW2 1503   0.826   1.164   2.219 -1.3111  0.4455  4.3979
  502SOL     OW 1504   2.552   0.945   1.767  0.3492 -0.2261 -0.5451
  502SOL    HW1 1505   2.552   0.948   1.663 -0.5470 -0.3513 -1.4336
  502SOL    HW2 1506   2.573   0.850   1.802 -0.7311 -1.4776  0.8849
  503SOL     OW 1507   1.312   0.172   0.590  0.7333 -0.2343  0.0072
  503SOL    HW1 1508   1.244   0.236   0.630 -0.8655 -1.4660  1.0992
  503SOL    HW2 1509   1.403   0.193   0.628  0.4395  1.2647  0.5475
  504SOL     OW 1510   3.003   2.342   1.496 -0.3077  0.2900  0.4561
  504SOL    HW1 1511   2.948   2.429   1.523 -2.6968 -0.6970 -1.8506
  504SOL    HW2 1512   3.004   2.269   1.566  0.7531  0.1939 -0.6847
  505SOL     OW 1513   2.268   1.175   1.421 -0.3527 -0.1824 -0.0109
  505SOL    HW1 1514   2.239   1.210   1.329 -1.2960 -2.1334  0.0706
  505SOL    HW2 1515   2.344   1.233   1.460  1.6164 -0.1532  3.8147
  506SOL     OW 1516   1.933   0.207   1.818  0.1740 -0.0824  0.2830
  506SOL    HW1 1517   2.003   0.127   1.814  2.1042 -0.8657 -2.8783
  506SOL    HW2 1518   1.962   0.298   1.859  0.9966  2.4693 -2.3848
  507SOL     OW 1519   0.596   0.699   2.152  0.1595  0.0796 -0.1219
  507SOL    HW1 1520   0.539   0.624   2.100  0.3048  0.7278  0.0746
  507SOL    HW2 1521   0.690   0.658   2.180  3.3990 -0.5304  0.0916
  508SOL     OW 1522   0.306   1.636   0.755  0.1235  0.6039 -0.0486
  508SOL    HW1 1523   0.354   1.688   0.683  1.1273  1.1271 -0.3270
  508SOL    HW2 1524   0.275   1.694   0.832 -2.6349 -0.9365 -0.6733
  509SOL     OW 1525   1.281   1.182   2.435 -0.0884 -0.2362 -0.2153
  509SOL    HW1 1526   1.313   1.158   2.344 -1.4642 -1.0037  2.7562
  509SOL    HW2 1527   1.177   1.161   2.446 -2.5491 -0.1116 -2.8957
  510SOL     OW 1528   1.270   2.119   2.218 -0.1322  0.0609 -0.5104
  510SOL    HW1 1529   1.297   2.142   2.119  2.3264  1.0809  1.1803
  510SOL    HW2 1530   1.184   2.052   2.225 -1.5164 -1.9268  0.1519
  511SOL     OW 1531   2.998   2.697   1.262  0.1615 -0.1662  0.3526
  511SOL    HW1 1532   2.981   2.688   1.156  0.6245 -0.0456 -1.9558
  511SOL    HW2 1533   2.924   2.737   1.320 -1.7580  1.8664  1.4362
  512SOL     OW 1534   2.426   0.435   1.374  0.2698 -0.1249  0.1059
  512SOL    HW1 1535   2.330   0.467   1.354  0.8985  0.4179 -1.7572
  512SOL    HW2 1536   2.481   0.390   1.297  0.1867 -1.4666 -3.0611
  513SOL     OW 1537   2.617   2.127   0.931  0.4812 -0.6016 -0.2041
  513SOL    HW1 1538   2.576   2.207   0.878 -1.0907 -1.2709  1.7679
  513SOL    HW2 1539   2.705   2.092   0.877  0.4308  1.3526 -2.4280
  514SOL     OW 1540   0.678   2.759   0.428 -0.2679  0.1690  0.3337
  514SOL    HW1 1541   0.633   2.778   0.334  3.1869  0.3486 -0.6371
  514SOL    HW2 1542   0.685   2.843   0.486 -1.2522 -1.6594  0.9735
  515SOL     OW 1543   1.902   1.339   2.400  0.3743 -0.4002  0.1752
  515SOL    HW1 1544   1.911   1.267   2.327 -1.1742  0.6678 -0.5761
  515SOL    HW2 1545   1.801   1.339   2.436 -1.4936  0.1384  1.8231
  516SOL     OW 1546   0.291   0.305   1.883  0.1838 -0.2065 -0.2508
  516SOL    HW1 1547   0.383   0.282   1.837 -1.5465 -0.8080  0.7093
  516SOL    HW2 1548   0.219   0.242   1.856 -0.6116 -0.6672  0.4078
  517SOL     OW 1549   0.491   0.121   1.132 -0.1210  0.3721  0.0094
  517SOL    HW1 1550   0.515   0.164   1.225 -0.0785  0.9104  5.0793
  517SOL    HW2 1551   0.423   0.045   1.132  1.1032 -1.8828 -1.9900
  518SOL     OW 1552   2.147   0.001   1.808  0.2458  0.3876  0.6812
  518SOL    HW1 1553   2.212   0.079   1.807  2.4406 -1.6892 -1.7549
  518SOL    HW2 1554   2.146  -0.071   1.731  0.2974 -0.8093  2.3237
  519SOL     OW 1555   2.302   2.107   2.469  0.2408  0.3727 -0.1218
  519SOL    HW1 1556   2.246   2.100   2.557 -1.4634  0.2155  1.3505
  519SOL    HW2 1557   2.308   2.205   2.446  1.1296  1.2337 -2.2743
  520SOL     OW 1558   1.834   2.697   1.746 -0.0169 -0.4514 -0.2883
  520SOL    HW1 1559   1.749   2.630   1.768  0.3327 -3.4865  0.4312
  520SOL    HW2 1560   1.914   2.653   1.695 -1.4068  0.6620 -0.2251
  521SOL     OW 1561   0.554   3.087   2.067  0.0743 -0.4528 -0.0599
  521SOL    HW1 1562   0.462   3.080   2.115 -0.9508 -1.3536  0.0638
  521SOL    HW2 1563   0.629   3.061   2.130  0.6443  2.4224 -2.0414
  522SOL     OW 1564   0.179   1.843   1.552 -0.5299 -0.1144  0.3846
  522SOL    HW1 1565   0.236   1.907   1.615  2.2135  1.5452 -0.9975
  522SOL    HW2 1566   0.166   1.890   1.457  2.1460  0.9734  1.3947
  523SOL     OW 1567   2.177   2.944   1.580  0.0176  0.0231 -0.1091
  523SOL    HW1 1568   2.238   2.859   1.580 -0.8039  0.8771 -0.1572
  523SOL    HW2 1569   2.101   2.939   1.510 -3.7413  4.3333  1.7866
  524SOL     OW 1570   0.188   2.776   2.851  0.3255 -0.3169 -0.5774
  524SOL    HW1 1571   0.129   2.861   2.871 -1.0790  2.5771 -0.2199
  524SOL    HW2 1572   0.288   2.802   2.833 -1.1615 -0.9695  0.5752
  525SOL     OW 1573   2.202   2.030   0.423  0.2163  0.2117 -0.6836
  525SOL    HW1 1574   2.192   1.975   0.513 -0.7444  1.1026 -2.8542
  525SOL    HW2 1575   2.222   1.960   0.344 -3.3123 -1.0124 -5.4227
  526SOL     OW 1576   0.451   1.515   1.775  0.1475 -0.3098 -0.9351
  526SOL    HW1 1577   0.486   1.588   1.837 -1.0886 -1.0927 -2.5967
  526SOL    HW2 1578   0.454   1.412   1.800  0.6694 -1.3554 -1.3455
  527SOL     OW 1579   1.102   2.884   1.178 -0.0297  0.2510 -0.7664
  527SOL    HW1 1580   1.171   2.816   1.201 -0.0270  3.6216 -0.4519
  527SOL    HW2 1581   1.139   2.980   1.193  1.1476 -1.4148  1.2439
  528SOL     OW 1582   1.379   2.348   0.548 -0.3254 -0.1003 -0.1635
  528SOL    HW1 1583   1.416   2.246   0.553 -0.0137  0.4556 -0.3857
  528SOL    HW2 1584   1.435   2.416   0.601  1.2028 -0.4476  0.4862
  529SOL     OW 1585   1.920   1.777   0.779 -0.0279  0.5564 -0.3041
  529SOL    HW1 1586   1.854   1.796   0.700 -1.7229 -0.1197 -0.7478
  529SOL    HW2 1587   1.945   1.861   0.836  2.1924  1.7187 -1.2204
  530SOL     OW 1588   0.385   2.535   0.185 -0.5834 -0.2719 -0.3810
  530SOL    HW1 1589   0.395   2.531   0.287  0.0624  3.5599  1.5074
  530SOL    HW2 1590   0.405   2.447   0.137  1.8854  2.1728  1.3807
  531SOL     OW 1591   1.843   0.959   1.107  0.5839  0.3433 -0.3111
  531SOL    HW1 1592   1.795   0.886   1.056  0.8676 -0.2919 -0.9867
  531SOL    HW2 1593   1.819   0.964   1.209 -1.7181 -0.4620  2.0646
  532SOL     OW 1594   0.322   1.185   0.741  0.7513 -0.3699 -0.0593
  532SOL    HW1 1595   0.313   1.190   0.637 -0.0406 -0.1076 -1.3697
  532SOL    HW2 1596   0.338   1.086   0.767 -1.2319 -1.3602 -3.4416
  533SOL     OW 1597   1.787   0.007   2.588 -0.9263 -0.0889 -0.2317
  533SOL    HW1 1598   1.886   0.007   2.606 -1.9896  0.7302 -1.0050
  533SOL    HW2 1599   1.741   0.066   2.661 -0.5962 -0.2627  0.2419
  534SOL     OW 1600   0.223   0.215   1.487  0.9163  0.0085 -0.2044
  534SOL    HW1 1601   0.320   0.238   1.446  2.2320 -0.7750  0.6563
  534SOL    HW2 1602   0.167   0.297   1.526 -0.0699  0.7632  0.8624
  535SOL     OW 1603   1.846   0.338   0.198  0.0930  0.4289  0.5374
  535SOL    HW1 1604   1.867   0.420   0.260  0.5573 -1.8270 -1.7632
  535SOL    HW2 1605   1.778   0.276   0.240  4.1523  0.9074 -0.9211
  536SOL     OW 1606   1.365   2.598   0.924  0.5514  0.0370  0.2716
  536SOL    HW1 1607   1.444   2.526   0.924 -2.0553 -2.4816 -3.6783
  536SOL    HW2 1608   1.275   2.552   0.910  0.7813  3.4441  0.4319
  537SOL     OW 1609   0.876   0.223   2.352 -0.1890 -0.3666 -0.5444
  537SOL    HW1 1610   0.908   0.261   2.258 -0.3135  1.1539 -2.2586
  537SOL    HW2 1611   0.794   0.162   2.336 -2.0972 -0.0023  0.3326
  538SOL     OW 1612   1.652   2.341   1.489  0.4869 -0.6701 -0.2797
  538SOL    HW1 1613   1.618   2.250   1.455 -0.0414 -0.0420  1.1082
  538SOL    HW2 1614   1.743   2.378   1.457 -0.6345  0.5953  0.7025
  539SOL     OW 1615   0.194   1.594   2.673  0.5076  0.6270  0.1716
  539SOL    HW1 1616   0.107   1.603   2.610 -2.3239 -1.4806 -2.6318
  539SOL    HW2 1617   0.206   1.676   2.739  3.1328  0.0427 -0.0439
  540SOL     OW 1618   2.741   1.655   1.965  0.1083  0.1565 -0.7726
  540SOL    HW1 1619   2.663   1.589   1.949  2.3595  0.5639 -1.3520
  540SOL    HW2 1620   2.722   1.757   1.951  3.6750 -0.3568  1.9573
  541SOL     OW 1621   0.465   2.310   0.028  0.4511 -0.0858  0.0006
  541SOL    HW1 1622   0.521   2.231   0.077 -1.6533 -0.0337  2.1619
  541SOL    HW2 1623   0.365   2.289   0.004 -2.4766  0.2183 -0.6038
  542SOL     OW 1624   2.245   2.572   0.439 -0.4691 -0.0498  0.1197
  542SOL    HW1 1625   2.221   2.673   0.420 -1.8885  0.7089  0.9223
  542SOL    HW2 1626   2.165   2.518   0.474  2.8005 -2.2722  1.9090
  543SOL     OW 1627   1.003   1.747   1.715 -0.0379 -0.3383 -0.2619
  543SOL    HW1 1628   1.006   1.757   1.820  1.8415 -0.7480 -0.0764
  543SOL    HW2 1629   1.014   1.834   1.665 -1.3725 -0.7693 -1.4045
  544SOL     OW 1630   0.935   0.390   0.198  0.4921 -0.1176  0.4728
  544SOL    HW1 1631   0.936   0.300   0.246 -0.5036  0.3963 -1.3368
  544SOL    HW2 1632   0.981   0.388   0.105  2.7195  0.5551  3.2824
  545SOL     OW 1633   1.106   1.705   0.660  0.0718 -0.1878  0.5408
  545SOL    HW1 1634   1.186   1.755   0.708  1.7001  0.8593 -0.1541
  545SOL    HW2 1635   1.113   1.709   0.556  0.7663 -1.2259 -0.4349
  546SOL     OW 1636   2.605   1.557   3.028 -0.7598  0.3915 -0.4606
  546SOL    HW1 1637   2.530   1.546   2.953 -4.8504 -1.7594  0.2819
  546SOL    HW2 1638   2.578   1.516   3.115  1.3621  1.6170 -3.5677
  547SOL     OW 1639   0.545   0.019   2.754 -0.0045  0.5741 -0.3377
  547SOL    HW1 1640   0.635  -0.012   2.792 -0.1319 -1.2377 -1.7983
  547SOL    HW2 1641   0.499  -0.060   2.705  2.0622 -3.9633 -1.0003
  548SOL     OW 1642   2.031   0.815   3.051  0.1059 -0.0671  0.6978
  548SOL    HW1 1643   1.931   0.799   3.021 -1.6511  0.9648 -0.2094
  548SOL    HW2 1644   2.052   0.907   3.085  1.4694 -0.4414 -0.4325
  549SOL     OW 1645   0.677   0.558   0.201  0.5651  0.7011 -0.0404
  549SOL    HW1 1646   0.616   0.579   0.119 -0.2441  2.1949 -2.2313
  549SOL    HW2 1647   0.783   0.550   0.187  1.0009  2.6059 -0.4900
  550SOL     OW 1648   2.514   2.864   2.868 -0.5507  0.2231  0.1116
  550SOL    HW1 1649   2.472   2.804   2.942 -0.0555 -1.5481 -3.7022
  550SOL    HW2 1650   2.520   2.810   2.778 -2.2772 -1.1119  1.2622
  551SOL     OW 1651   0.291   0.906   0.228  0.3009 -0.3536 -0.4365
  551SOL    HW1 1652   0.361   0.831   0.226 -0.0302  0.2932  1.3504
  551SOL    HW2 1653   0.241   0.922   0.320 -0.5405  0.4694  1.2325
  552SOL     OW 1654   0.759   2.907   1.875 -0.2562  0.3508  0.2281
  552SOL    HW1 1655   0.712   3.004   1.894  0.0939  3.7791 -1.4367
  552SOL    HW2 1656   0.858   2.911   1.843  0.6363  0.5753  0.9146
  553SOL     OW 1657   0.041   2.521   0.368  0.6648 -0.5152  0.5074
  553SOL    HW1 1658  -0.033   2.448   0.345 -1.7506  0.4560 -3.2534
  553SOL    HW2 1659   0.006   2.609   0.414 -0.4054  0.3294  0.0821
  554SOL     OW 1660   2.213   0.335   0.582 -0.2815 -0.2242 -0.0900
  554SOL    HW1 1661   2.266   0.323   0.497 -1.9467  1.0025  1.9754
  554SOL    HW2 1662   2.191   0.247   0.633 -2.2865 -0.7131 -1.2325
  555SOL     OW 1663   0.412   2.898   2.489 -0.4408  0.2885  0.0405
  555SOL    HW1 1664   0.342   2.960   2.446  2.7419  2.4492  2.1244
  555SOL    HW2 1665   0.461   2.833   2.427 -0.1820  0.2176  0.2946
  556SOL     OW 1666   0.909   2.387   1.621 -0.3756  0.3128 -0.5773
  556SOL    HW1 1667   0.930   2.465   1.683 -1.3151 -0.0981 -0.6236
  556SOL    HW2 1668   0.959   2.388   1.530  0.1755 -0.1615 -1.0852
  557SOL     OW 1669   0.095   2.092   0.134  0.1338 -0.0241  0.1278
  557SOL    HW1 1670   0.008   2.036   0.127 -1.4380 -0.1539 -0.7885
  557SOL    HW2 1671   0.149   2.109   0.047 -0.5186 -1.0231  0.5893
  558SOL     OW 1672   2.933   2.298   0.344  0.2363  0.5388 -0.2214
  558SOL    HW1 1673   2.836   2.265   0.366 -1.0355  1.1163 -3.6383
  558SOL    HW2 1674   2.955   2.295   0.244  0.4755  0.8232  0.3288
  559SOL     OW 1675   0.389   2.300   1.353 -0.0185  0.3995 -0.1088
  559SOL    HW1 1676   0.300   2.304   1.294 -0.1975 -0.4254 -0.9697
  559SOL    HW2 1677   0.437   2.209   1.348  0.5358  0.7095  0.0127
  560SOL     OW 1678   2.096   1.102   3.055 -0.1150  0.1499 -0.0696
  560SOL    HW1 1679   2.051   1.175   3.113  0.6927  1.3892  1.3565
  560SOL    HW2 1680   2.198   1.106   3.062 -0.8233 -0.3852  1.6188
  561SOL     OW 1681   3.007   1.937   0.017  0.2862 -0.8969  0.6343
  561SOL    HW1 1682   2.952   1.855   0.039  0.6107 -0.4918  2.1231
  561SOL    HW2 1683   2.970   2.013  -0.046 -0.9920  0.0991  0.5622
  562SOL     OW 1684   0.942   2.163   2.373  0.4031  0.8580 -0.5364
  562SOL    HW1 1685   0.841   2.125   2.369 -0.3508  0.1671  0.0153
  562SOL    HW2 1686   0.964   2.210   2.456  0.9806 -2.2004 -1.3402
  563SOL     OW 1687   0.686   2.462   2.595  0.3738  0.3325 -0.3488
  563SOL    HW1 1688   0.766   2.402   2.571 -0.7847 -1.6331  0.1578
  563SOL    HW2 1689   0.657   2.461   2.696  0.2704  0.5129  4.2029
  564SOL     OW 1690   2.773   1.313   2.921 -0.1835  0.4852 -0.1583
  564SOL    HW1 1691   2.688   1.340   2.967  0.3526  0.3700 -0.6658
  564SOL    HW2 1692   2.819   1.399   2.881 -0.4633  0.5031 -0.9776
  565SOL     OW 1693   2.548   1.993   2.580  0.2393 -0.3252 -0.0532
  565SOL    HW1 1694   2.476   2.059   2.545 -0.0086 -0.3933 -1.0666
  565SOL    HW2 1695   2.586   2.026   2.673 -2.4494 -0.8785  2.1966
  566SOL     OW 1696   2.012   2.866   1.352 -0.1902 -0.1752  0.7150
  566SOL    HW1 1697   1.941   2.791   1.329  1.0131  1.1281  0.7252
  566SOL    HW2 1698   2.066   2.896   1.271  0.7609 -0.5838  4.6538
  567SOL     OW 1699   2.472   0.126   2.275  0.7899 -0.4626  1.0693
  567SOL    HW1 1700   2.375   0.091   2.249  1.3359  2.1892  1.1274
  567SOL    HW2 1701   2.533   0.132   2.193 -0.7860 -2.4676 -1.7564
  568SOL     OW 1702   1.530   1.796   0.251 -0.2456 -0.8216 -0.2663
  568SOL    HW1 1703   1.462   1.873   0.223 -1.8482 -0.6268 -1.9656
  568SOL    HW2 1704   1.627   1.814   0.218 -0.3004 -1.7402  2.0894
  569SOL     OW 1705   0.294   0.634   0.851 -0.2463 -0.2536  0.6762
  569SOL    HW1 1706   0.354   0.558   0.818  0.4599 -0.9804 -1.6363
  569SOL    HW2 1707   0.194   0.618   0.843 -1.6760 -1.1857 -2.9480
  570SOL     OW 1708   0.679   0.744   2.828  0.1541 -0.0420  0.1403
  570SOL    HW1 1709   0.735   0.750   2.739  0.8249 -0.0915 -3.0052
  570SOL    HW2 1710   0.663   0.836   2.876  2.1084  0.7456  1.2453
  571SOL     OW 1711   0.845   3.054   1.106 -0.1411 -0.5448 -0.4247
  571SOL    HW1 1712   0.891   3.090   1.018 -1.7059  1.0059 -0.0910
  571SOL    HW2 1713   0.875   2.959   1.127 -0.1690  0.3150 -2.5457
  572SOL     OW 1714   1.580   2.633   1.159  0.5252 -0.2442  0.7566
  572SOL    HW1 1715   1.519   2.578   1.217 -0.2292 -1.1114 -4.1936
  572SOL    HW2 1716   1.543   2.725   1.136  1.3045 -2.3433  2.4288
  573SOL     OW 1717   2.913   0.426   2.052 -0.6125  0.2536 -0.2851
  573SOL    HW1 1718   2.861   0.338   2.071  1.3620  2.2329 -0.2442
  573SOL    HW2 1719   2.860   0.496   1.997 -0.6913  1.2293  0.2655
  574SOL     OW 1720   0.217   1.771   0.984  0.1410 -0.1807 -0.0888
  574SOL    HW1 1721   0.196   1.873   0.971 -0.0933 -0.2759  0.9266
  574SOL    HW2 1722   0.155   1.722   1.047 -3.1839  0.7287 -3.3654
  575SOL     OW 1723   0.849   2.152   0.979  0.9005 -0.4927  0.3045
  575SOL    HW1 1724   0.834   2.189   1.074  2.0438 -1.2683 -1.2940
  575SOL    HW2 1725   0.923   2.205   0.927  0.3795  0.3855  1.4821
  576SOL     OW 1726   2.935   2.939   1.674  0.2571 -0.0210 -0.2672
  576SOL    HW1 1727   2.847   2.882   1.657 -3.0298  1.0690 -0.5927
  576SOL    HW2 1728   2.932   3.044   1.649 -0.4079  0.8795 -2.7721
  577SOL     OW 1729   2.535   1.229   3.080 -0.2115 -0.0158 -0.7858
  577SOL    HW1 1730   2.555   1.138   3.031  1.3657  0.4621  0.0598
  577SOL    HW2 1731   2.575   1.237   3.178  2.3534 -1.6958  1.7155
  578SOL     OW 1732   1.343   2.672   2.595  0.2943  0.0735 -0.1690
  578SOL    HW1 1733   1.255   2.675   2.545  2.6946  3.5095  0.3984
  578SOL    HW2 1734   1.416   2.727   2.547  0.1274 -1.6436 -1.2688
  579SOL     OW 1735   0.125   2.507   0.121  0.2588 -0.1052  0.0992
  579SOL    HW1 1736   0.093   2.527   0.219  0.2077  1.9920  0.8884
  579SOL    HW2 1737   0.230   2.517   0.113 -0.3363 -2.0356 -2.5599
  580SOL     OW 1738   1.019   2.598   0.391  0.6686  0.1178  0.0854
  580SOL    HW1 1739   1.119   2.615   0.358  0.1605  0.0968  2.2316
  580SOL    HW2 1740   0.951   2.579   0.316 -0.2441  0.2886  0.4139
  581SOL     OW 1741   1.231   2.593   1.516  0.4363 -0.3906  0.1543
  581SOL    HW1 1742   1.266   2.502   1.480 -0.9817 -1.5123  1.7410
  581SOL    HW2 1743   1.271   2.678   1.471  0.1889  1.1836  0.0319
  582SOL     OW 1744   1.492   0.096   1.808  0.2042  0.0753  0.0199
  582SOL    HW1 1745   1.507   0.162   1.886  3.4372 -0.6412 -0.7231
  582SOL    HW2 1746   1.580   0.078   1.755  3.3688 -0.0418 -0.0607
  583SOL     OW 1747   2.506   2.978   0.528  0.0381  0.3185 -0.0901
  583SOL    HW1 1748   2.503   2.901   0.455 -0.9493 -1.0625  2.0569
  583SOL    HW2 1749   2.448   2.952   0.608 -3.2287 -2.9093 -1.4705
  584SOL     OW 1750   1.614   0.998   2.094 -0.0624 -0.5241 -0.0386
  584SOL    HW1 1751   1.679   1.076   2.066 -0.6519 -0.5675  2.9983
  584SOL    HW2 1752   1.666   0.914   2.132  0.3395 -1.9144 -1.3424
  585SOL     OW 1753   2.089   2.677   2.946  0.0151  0.7568  0.6097
  585SOL    HW1 1754   2.126   2.599   2.890 -0.6017 -0.8164 -0.1500
  585SOL    HW2 1755   1.987   2.688   2.937  3.2683 -2.8750  0.7751
  586SOL     OW 1756   2.722   0.231   1.543 -0.0275  0.2003  0.6147
  586SOL    HW1 1757   2.749   0.309   1.606  0.0249 -2.0029  0.5319
  586SOL    HW2 1758   2.628   0.189   1.578 -1.3486 -0.0523 -1.0454
  587SOL     OW 1759   1.955   1.580   2.744 -0.7430 -0.6555  0.0502
  587SOL    HW1 1760   2.000   1.521   2.666  1.9209  1.9430 -1.9380
  587SOL    HW2 1761   1.998   1.565   2.837 -0.3473 -0.7904 -0.6019
  588SOL     OW 1762   0.465   2.735   2.252  0.2119  0.5679  0.1072
  588SOL    HW1 1763   0.366   2.728   2.212  0.2620 -1.5558  0.1245
  588SOL    HW2 1764   0.491   2.655   2.315  3.1504  0.4701 -1.5772
  589SOL     OW 1765   2.103   1.448   2.546  0.1250 -0.0070  0.6451
  589SOL    HW1 1766   2.033   1.400   2.483 -0.3494 -1.2367  0.0979
  589SOL    HW2 1767   2.186   1.390   2.571 -2.0429  0.7213  0.6646
  590SOL     OW 1768   2.334   1.671   2.042 -0.4765 -0.0044  0.6350
  590SOL    HW1 1769   2.425   1.620   2.039 -0.1243  0.4159  0.6497
  590SOL    HW2 1770   2.321   1.729   2.128 -1.7142 -0.4180 -0.6687
  591SOL     OW 1771   1.372   2.409   0.253 -1.2346 -0.1583  0.1869
  591SOL    HW1 1772   1.472   2.426   0.228 -1.8842  0.7284  0.9246
  591SOL    HW2 1773   1.357   2.384   0.354  0.5822 -1.7108  0.0726
  592SOL     OW 1774   1.762   2.358   0.798 -0.3148 -0.4793 -0.2591
  592SOL    HW1 1775   1.737   2.370   0.695 -0.8678 -0.9387  0.2672
  592SOL    HW2 1776   1.863   2.346   0.809  0.5370  0.2884 -3.4937
  593SOL     OW 1777   0.653   0.270   0.107 -0.3354 -0.2300  0.2428
  593SOL    HW1 1778   0.718   0.245   0.027 -1.1461  3.3973  0.6722
  593SOL    HW2 1779   0.675   0.360   0.147  1.5493 -1.9146  0.9780
  594SOL     OW 1780   0.973   1.855   2.714 -0.4690 -0.9838  0.0874
  594SOL    HW1 1781   1.058   1.857   2.779  0.8389  2.6082 -1.9589
  594SOL    HW2 1782   0.899   1.921   2.747 -0.8532 -0.7805 -0.6961
  595SOL     OW 1783   1.509   0.066   1.024 -0.1534 -0.2765  0.0876
  595SOL    HW1 1784   1.595   0.015   0.998  0.4385 -0.5582 -2.6487
  595SOL    HW2 1785   1.429   0.030   0.964 -1.9179  0.0508  1.4738
  596SOL     OW 1786   3.072   1.483   2.235 -0.1213  0.2197  0.3849
  596SOL    HW1 1787   2.965   1.489   2.239 -0.2490 -0.8806 -1.3913
  596SOL    HW2 1788   3.126   1.567   2.221  0.5505 -1.2222  0.7500
  597SOL     OW 1789   2.063   2.600   1.639 -0.3201 -0.1672 -0.2177
  597SOL    HW1 1790   2.083   2.556   1.550  0.6759 -2.1498 -2.9046
  597SOL    HW2 1791   2.141   2.595   1.704 -1.9154  0.9567  0.2401
  598SOL     OW 1792   2.458   2.945   1.333 -0.2985  0.2816 -0.1571
  598SOL    HW1 1793   2.526   2.962   1.408 -1.2422  2.0869  0.7090
  598SOL    HW2 1794   2.507   2.926   1.247  0.2562 -0.7506 -0.6209
  599SOL     OW 1795   2.931   0.417   2.475 -0.3031  0.3483  0.3134
  599SOL    HW1 1796   2.986   0.504   2.457  0.0519  1.8954  0.6780
  599SOL    HW2 1797   2.830   0.434   2.462  2.1343  0.3839 -0.8567
  600SOL     OW 1798   2.812   1.108   2.715 -0.3672  0.1751  0.1472
  600SOL    HW1 1799   2.729   1.069   2.669  1.6447  1.2821 -0.2620
  600SOL    HW2 1800   2.793   1.174   2.789 -0.0099 -3.5369 -0.2975
  601SOL     OW 1801   2.995   1.260   1.956 -0.0858 -0.0939 -0.3123
  601SOL    HW1 1802   2.922   1.320   1.910 -2.5763 -0.6001 -2.0327
  601SOL    HW2 1803   3.082   1.314   1.969 -0.5350 -2.8433 -1.0932
  602SOL     OW 1804   1.417   1.685   2.368 -0.6488  0.1297  0.0203
  602SOL    HW1 1805   1.370   1.593   2.367  0.3787 -0.3581  0.5970
  602SOL    HW2 1806   1.524   1.679   2.388  3.6285 -0.1334 -0.5693
  603SOL     OW 1807   0.626   1.240   2.725 -0.5079  0.4938  0.8431
  603SOL    HW1 1808   0.551   1.221   2.657  0.1706 -1.4328  1.7588
  603SOL    HW2 1809   0.713   1.188   2.702 -0.3311 -2.8568  1.2183
  604SOL     OW 1810   2.416   1.003   0.146  0.0293 -0.2036  0.7469
  604SOL    HW1 1811   2.481   1.068   0.095 -1.1072  4.3931 -3.3727
  604SOL    HW2 1812   2.411   0.915   0.091  1.8755  1.8920 -2.5568
  605SOL     OW 1813   2.633   1.163   1.925 -0.2950  0.3401 -0.4628
  605SOL    HW1 1814   2.635   1.073   1.866 -0.8168 -1.8646 -0.8018
  605SOL    HW2 1815   2.638   1.148   2.027  0.8968  0.1089 -0.5679
  606SOL     OW 1816   1.533   2.489   2.650  0.3212  0.1445  0.1971
  606SOL    HW1 1817   1.447   2.547   2.658  0.7366 -5.0076  0.7596
  606SOL    HW2 1818   1.514   2.390   2.616  2.1090 -1.6673 -1.2570
  607SOL     OW 1819   1.390   1.623   0.415  0.3425  0.5294  0.3575
  607SOL    HW1 1820   1.356   1.687   0.487  0.0112  3.8495 -0.7745
  607SOL    HW2 1821   1.445   1.679   0.341 -1.3214  0.7513 -1.0277
  608SOL     OW 1822   1.458   2.821   0.391  0.1586  0.3928 -0.2854
  608SOL    HW1 1823   1.511   2.863   0.314 -2.8269 -0.3772 -0.6574
  608SOL    HW2 1824   1.383   2.881   0.430  0.4085 -0.6341  1.0458
  609SOL     OW 1825   1.292   1.411   0.263  1.1445 -0.0886 -0.1635
  609SOL    HW1 1826   1.309   1.486   0.331  0.4997 -1.9933  1.4206
  609SOL    HW2 1827   1.195   1.414   0.222 -2.2801  1.6615 -1.3569
  610SOL     OW 1828   3.020   1.143   2.195 -0.1836  0.3094 -0.2153
  610SOL    HW1 1829   2.995   1.043   2.194 -2.7520 -0.4935  0.0384
  610SOL    HW2 1830   3.008   1.189   2.100  3.7474 -0.1676 -1.8432
  611SOL     OW 1831   2.591   0.295   1.163  0.4701 -0.1282 -0.3614
  611SOL    HW1 1832   2.527   0.220   1.197  0.4531  1.3444 -0.2353
  611SOL    HW2 1833   2.693   0.290   1.188  0.5997  0.4638 -0.0314
  612SOL     OW 1834   0.773   2.240   1.236 -0.5517 -0.4749  0.3839
  612SOL    HW1 1835   0.707   2.185   1.295 -0.4721  0.6655  0.3070
  612SOL    HW2 1836   0.735   2.329   1.196  2.4841 -0.2177  0.9744
  613SOL     OW 1837   0.819   1.420   2.423  0.0703  0.5656 -0.2583
  613SOL    HW1 1838   0.877   1.494   2.375  2.4755 -1.6816 -1.5362
  613SOL    HW2 1839   0.779   1.350   2.356 -2.2037 -0.0221  1.6424
  614SOL     OW 1840   1.623   1.642   1.929  0.0654 -0.0004  0.1964
  614SOL    HW1 1841   1.553   1.699   1.979 -0.9127  0.0900 -1.5145
  614SOL    HW2 1842   1.713   1.631   1.980 -0.2123  1.2546  2.7093
  615SOL     OW 1843   0.797   1.289   1.680  0.1136  0.2846  0.1178
  615SOL    HW1 1844   0.717   1.266   1.625  3.2397  2.9834 -0.1412
  615SOL    HW2 1845   0.845   1.373   1.644 -2.7363 -1.6177  2.0198
  616SOL     OW 1846   1.068   1.599   2.338 -0.3964  0.1386  0.6590
  616SOL    HW1 1847   1.001   1.601   2.262  2.2284  0.9916  2.9770
  616SOL    HW2 1848   1.099   1.695   2.357  0.6553 -0.6997 -2.7471
  617SOL     OW 1849   2.914   1.532   1.615  0.6160  0.0270 -0.5221
  617SOL    HW1 1850   2.900   1.460   1.692 -1.0939  1.4408  0.9711
  617SOL    HW2 1851   2.954   1.488   1.534 -1.0734 -1.2541  0.8074
  618SOL     OW 1852   1.961   2.048   1.322 -0.0991 -0.1924 -0.3169
  618SOL    HW1 1853   1.933   2.100   1.236 -1.5369 -0.1733  0.0558
  618SOL    HW2 1854   2.005   1.953   1.297  0.9596 -1.1683 -3.4503
  619SOL     OW 1855   1.754   0.472   2.372  0.2569 -0.0438 -0.0456
  619SOL    HW1 1856   1.686   0.513   2.308 -0.5022 -1.5918 -0.5791
  619SOL    HW2 1857   1.744   0.369   2.370 -1.1267 -0.3740 -3.1118
  620SOL     OW 1858   2.341   2.959   0.745  0.2004 -0.2902 -0.5011
  620SOL    HW1 1859   2.293   3.051   0.766  1.9526 -1.3225 -1.4478
  620SOL    HW2 1860   2.314   2.886   0.809  1.5359  1.9357  0.3566
  621SOL     OW 1861   2.125   1.800   1.296  0.2096 -0.6251  0.0453
  621SOL    HW1 1862   2.116   1.802   1.400  3.3879 -3.1233 -0.4776
  621SOL    HW2 1863   2.090   1.709   1.259  0.2455 -3.3660 -1.3396
  622SOL     OW 1864   2.273   0.896   1.771 -0.7996 -0.3545 -0.0520
  622SOL    HW1 1865   2.376   0.909   1.755  1.2817 -1.8927 -1.4870
  622SOL    HW2 1866   2.246   0.837   1.849  0.5996  2.2964 -0.8298
  623SOL     OW 1867   1.331   0.791   2.547 -0.1289  0.1410  1.2159
  623SOL    HW1 1868   1.310   0.688   2.555 -1.5385  1.1633  1.3514
  623SOL    HW2 1869   1.261   0.843   2.490 -0.1090 -3.4972 -0.2940
  624SOL     OW 1870   0.533   0.705   3.087 -0.3790  0.4209  0.3464
  624SOL    HW1 1871   0.605   0.719   3.013 -0.8728  2.3275  0.9953
  624SOL    HW2 1872   0.546   0.769   3.173 -1.3437  2.4301 -1.9121
  625SOL     OW 1873   2.805   1.742   1.014  0.7097  0.2799  0.1408
  625SOL    HW1 1874   2.710   1.783   1.009  0.6106 -0.7197  3.5262
  625SOL    HW2 1875   2.874   1.815   1.051  1.1031  1.4287  2.9992
  626SOL     OW 1876   0.597   2.692   1.711 -0.2301 -0.1730  0.2431
  626SOL    HW1 1877   0.651   2.770   1.755 -1.1959 -3.0800  1.6792
  626SOL    HW2 1878   0.496   2.707   1.736  0.4140  0.4723  0.8073
  627SOL     OW 1879   0.681   0.944   1.542 -0.2333 -0.1395 -0.5180
  627SOL    HW1 1880   0.586   0.933   1.509  2.7946  1.6965  0.4468
  627SOL    HW2 1881   0.746   1.002   1.484 -0.0610  1.5352 -0.7080
  628SOL     OW 1882   2.503   0.126   0.665  0.1489  0.2359 -0.0336
  628SOL    HW1 1883   2.532   0.055   0.600 -1.3561  0.5611 -0.3084
  628SOL    HW2 1884   2.404   0.116   0.699  0.9308 -0.3822 -0.4553
  629SOL     OW 1885   1.970   0.917   2.049  0.4307 -0.2225 -0.6755
  629SOL    HW1 1886   1.986   0.979   1.968  0.3668  0.2941  0.5336
  629SOL    HW2 1887   1.946   0.974   2.135  1.2335 -1.3635 -0.3250
  630SOL     OW 1888   2.955   2.306   0.817  0.2837 -0.2027 -0.4321
  630SOL    HW1 1889   2.896   2.391   0.843  0.6075  0.8147  0.7996
  630SOL    HW2 1890   2.893   2.223   0.824  0.2618 -0.2293 -0.0323
  631SOL     OW 1891   3.070   0.178   2.165 -0.0130  0.6221 -0.2426
  631SOL    HW1 1892   3.082   0.243   2.242 -0.1853  0.2425 -2.3821
  631SOL    HW2 1893   3.076   0.219   2.068 -1.0051  1.7309 -0.0489
  632SOL     OW 1894   2.448   2.597   0.641 -0.1541 -0.3384  0.1857
  632SOL    HW1 1895   2.434   2.676   0.706 -0.9085 -0.0269  2.2038
  632SOL    HW2 1896   2.373   2.586   0.569 -3.6051  0.4255 -3.1533
  633SOL     OW 1897   1.436   1.234   2.654 -0.0801 -0.0497 -0.1565
  633SOL    HW1 1898   1.422   1.322   2.714 -1.8095  0.8309 -1.8386
  633SOL    HW2 1899   1.363   1.229   2.580 -3.3684  0.8109  1.3890
  634SOL     OW 1900   0.648   1.994   0.867  0.5660  0.3517 -0.2846
  634SOL    HW1 1901   0.570   2.005   0.931 -0.5303  2.3388 -2.5720
  634SOL    HW2 1902   0.723   2.060   0.893  0.1429  0.4825 -2.2296
  635SOL     OW 1903   3.003   2.334   0.056 -0.1970 -0.0123 -0.2365
  635SOL    HW1 1904   2.935   2.390   0.001  0.2909 -2.1627  0.3944
  635SOL    HW2 1905   3.084   2.390   0.084 -2.3337 -0.1343 -0.7618
  636SOL     OW 1906   2.338   2.754   1.927  0.0383  0.3322 -0.2315
  636SOL    HW1 1907   2.343   2.852   1.965  0.5005 -0.2219 -0.4316
  636SOL    HW2 1908   2.280   2.693   1.985  0.5844 -1.3027  2.1489
  637SOL     OW 1909   2.730   0.614   1.956 -0.3034 -0.3260 -0.2479
  637SOL    HW1 1910   2.669   0.622   1.876  1.2575  0.3237  4.2897
  637SOL    HW2 1911   2.752   0.706   2.004 -0.3461 -0.4422  2.0227
  638SOL     OW 1912   2.400   1.820   1.314 -0.2805 -0.4498 -0.1876
  638SOL    HW1 1913   2.302   1.813   1.349 -0.0738  1.3312  1.0645
  638SOL    HW2 1914   2.465   1.763   1.379 -0.6582 -0.3065  2.5898
  639SOL     OW 1915   1.291   2.113   1.686 -0.0064 -0.9205 -0.1678
  639SOL    HW1 1916   1.335   2.206   1.660  2.8314 -1.5996 -2.0631
  639SOL    HW2 1917   1.199   2.123   1.736 -1.8248  3.4296  1.1436
  640SOL     OW 1918   0.223   1.187   1.551 -0.0668 -0.0089 -0.0805
  640SOL    HW1 1919   0.232   1.213   1.653  0.4968  3.8016  1.6633
  640SOL    HW2 1920   0.286   1.109   1.520 -1.4491 -3.1304 -2.6558
  641SOL     OW 1921   1.990   0.289   1.476  0.0294 -0.6701  0.3524
  641SOL    HW1 1922   1.983   0.344   1.562 -2.5699 -2.0229 -1.1403
  641SOL    HW2 1923   2.064   0.212   1.481  0.8239 -0.3609  1.2005
  642SOL     OW 1924   2.013   0.019   0.319  0.2114 -0.6391  0.1981
  642SOL    HW1 1925   2.112   0.042   0.343  0.0153  1.3605  0.6684
  642SOL    HW2 1926   1.952  -0.005   0.399 -0.7971 -1.1729 -1.2616
  643SOL     OW 1927   2.927   1.797   2.127  0.0685  0.0293 -0.1483
  643SOL    HW1 1928   2.871   1.743   2.060 -0.7623 -1.4654  3.4162
  643SOL    HW2 1929   2.942   1.899   2.104  1.6894  1.9619 -0.3359
  644SOL     OW 1930   2.232   2.423   1.194 -0.5574  0.2945  0.1077
  644SOL    HW1 1931   2.320   2.373   1.164 -0.1524 -0.0159 -0.7914
  644SOL    HW2 1932   2.206   2.405   1.294 -0.9473  1.3254  0.9951
  645SOL     OW 1933   0.586   0.868   1.287  0.3250 -0.2793  0.5280
  645SOL    HW1 1934   0.489   0.852   1.259  0.3816  2.1203 -3.8885
  645SOL    HW2 1935   0.644   0.936   1.235  1.5747 -1.3121 -0.4475
  646SOL     OW 1936   1.437   1.811   2.048 -1.0133  0.0974  0.3143
  646SOL    HW1 1937   1.456   1.903   2.005  1.0756  0.2204  0.9886
  646SOL    HW2 1938   1.460   1.807   2.148 -2.0058  0.3822  0.5398
  647SOL     OW 1939   0.783   1.028   0.667 -0.4151  0.2329 -0.0169
  647SOL    HW1 1940   0.831   1.077   0.753  0.1337 -0.8886  2.7163
  647SOL    HW2 1941   0.720   0.948   0.696  0.9491  0.5165 -0.6538
  648SOL     OW 1942   0.160   0.250   0.250 -0.1636  0.6103  0.2995
  648SOL    HW1 1943   0.183   0.168   0.184  0.8658 -0.9266  0.3509
  648SOL    HW2 1944   0.175   0.341   0.206  1.6627 -0.3102  1.9100
  649SOL     OW 1945   2.997   0.233   0.865  0.0717 -0.2494  0.1055
  649SOL    HW1 1946   3.091   0.193   0.854 -2.1837 -0.2283 -2.2454
  649SOL    HW2 1947   3.003   0.334   0.861  0.5839 -0.8538 -2.7002
  650SOL     OW 1948   2.733   0.641   1.499 -0.0729  0.2256  0.0472
  650SOL    HW1 1949   2.629   0.646   1.515 -0.4451  0.4311 -0.9667
  650SOL    HW2 1950   2.762   0.730   1.457 -0.3953  0.4431 -0.7080
  651SOL     OW 1951   0.929   1.512   1.591  0.1620  0.1715 -0.5234
  651SOL    HW1 1952   0.946   1.602   1.640 -3.5319 -1.4911 -1.4763
  651SOL    HW2 1953   0.998   1.500   1.515 -1.2436  0.1434 -2.6185
  652SOL     OW 1954   2.332   2.372   2.411  0.4397 -0.6077 -0.3361
  652SOL    HW1 1955   2.246   2.426   2.440  0.0354 -1.2697  0.2394
  652SOL    HW2 1956   2.405   2.433   2.368  1.5585  0.0060  2.7219
  653SOL     OW 1957   2.659   1.237   0.222  0.0243 -0.6946  0.1703
  653SOL    HW1 1958   2.697   1.332   0.228  0.0739  0.8800 -1.2263
  653SOL    HW2 1959   2.721   1.159   0.252  0.5441 -0.9105  2.0309
  654SOL     OW 1960   1.273   2.234   1.301 -0.1146  0.2516 -0.1348
  654SOL    HW1 1961   1.269   2.155   1.365  0.3368  1.8843  1.6226
  654SOL    HW2 1962   1.308   2.211   1.206  0.1882  1.0999 -1.9387
  655SOL     OW 1963   0.156   0.930   1.855 -0.7864 -0.0349 -0.4929
  655SOL    HW1 1964   0.219   0.875   1.800 -1.1730 -0.3137  1.7031
  655SOL    HW2 1965   0.187   1.029   1.877  0.0663  0.1951  1.2834
  656SOL     OW 1966   2.542   2.444   2.620 -0.1260 -0.2519 -0.0716
  656SOL    HW1 1967   2.636   2.438   2.577 -2.0181 -0.3376 -0.2719
  656SOL    HW2 1968   2.467   2.411   2.560  0.3068 -0.5456  0.1296
  657SOL     OW 1969   3.005   0.982   1.901 -0.4562 -0.3877  0.7941
  657SOL    HW1 1970   3.006   1.086   1.905  2.0380  0.9365  0.5164
  657SOL    HW2 1971   3.108   0.949   1.888  1.8760  0.6966  0.7929
  658SOL     OW 1972   1.708   0.182   2.378 -0.1858 -0.5013  0.3516
  658SOL    HW1 1973   1.733   0.109   2.445 -0.0820 -1.0720 -0.4400
  658SOL    HW2 1974   1.738   0.160   2.277 -1.1880  0.4692 -1.1119
  659SOL     OW 1975   1.394   0.622   2.823 -0.1396  0.4720 -0.1492
  659SOL    HW1 1976   1.450   0.691   2.869 -2.1098 -2.2553 -0.0864
  659SOL    HW2 1977   1.292   0.648   2.833 -1.7173  0.7723 -1.1900
  660SOL     OW 1978   1.367   0.319   1.444 -0.0249 -0.1905  0.4520
  660SOL    HW1 1979   1.375   0.362   1.537  1.7653 -2.6960 -1.0225
  660SOL    HW2 1980   1.455   0.286   1.410 -0.8367  0.2414  3.4326
  661SOL     OW 1981   2.334   1.217   0.687 -0.4796 -0.1714  0.2447
  661SOL    HW1 1982   2.383   1.218   0.592  0.9827 -1.6417 -2.4665
  661SOL    HW2 1983   2.322   1.315   0.719 -0.7749 -0.4964  0.7078
  662SOL     OW 1984   1.378   0.401   1.735 -0.0560  0.1425 -0.2187
  662SOL    HW1 1985   1.328   0.344   1.804 -0.6963 -2.6229 -2.7998
  662SOL    HW2 1986   1.365   0.502   1.746 -2.3938 -1.7254 -1.2974
  663SOL     OW 1987   0.878   1.580   2.142 -0.0315 -0.6733 -0.7122
  663SOL    HW1 1988   0.810   1.654   2.183 -0.2047  4.0480  0.8239
  663SOL    HW2 1989   0.837   1.511   2.075  1.3426 -0.4499  1.9990
  664SOL     OW 1990   1.643   2.070   1.394 -0.5086  0.4102 -0.1580
  664SOL    HW1 1991   1.589   2.011   1.464 -0.0958  0.4572 -0.3810
  664SOL    HW2 1992   1.743   2.071   1.409  0.3798 -0.9338 -0.3471
  665SOL     OW 1993   2.286   0.703   1.980 -0.9990  0.0765 -0.1139
  665SOL    HW1 1994   2.185   0.692   2.009 -1.4522  1.7119 -0.3861
  665SOL    HW2 1995   2.354   0.703   2.057 -1.6098  1.3930 -1.6851
  666SOL     OW 1996   0.497   2.312   0.324 -0.0694  0.5216 -0.7001
  666SOL    HW1 1997   0.539   2.380   0.391 -0.4598 -2.3733 -0.3486
  666SOL    HW2 1998   0.402   2.290   0.355  0.5921  1.5056  0.2852
  667SOL     OW 1999   1.996   0.209   1.082  0.7355 -0.2846  0.6587
  667SOL    HW1 2000   2.027   0.305   1.092  2.7814 -0.7875 -1.3791
  667SOL    HW2 2001   1.918   0.183   1.147 -0.8503  0.7675 -0.3719
  668SOL     OW 2002   2.035   0.472   1.145  0.3603 -0.4020  0.8101
  668SOL    HW1 2003   2.090   0.497   1.065 -2.0440  0.8984 -1.0947
  668SOL    HW2 2004   2.085   0.496   1.235  1.3626 -1.6524  1.5237
  669SOL     OW 2005   3.084   2.152   1.009  0.5160 -0.6624 -0.3748
  669SOL    HW1 2006   3.042   2.211   0.933 -0.6217 -0.7412 -0.5542
  669SOL    HW2 2007   3.093   2.203   1.099  0.6114  2.1155  1.8476
  670SOL     OW 2008   2.896   2.313   2.093 -0.2452  0.0648 -0.0521
  670SOL    HW1 2009   2.812   2.292   2.158 -2.7469 -1.5570  1.7131
  670SOL    HW2 2010   2.878   2.405   2.047  0.6004 -1.1910 -1.1632
  671SOL     OW 2011   1.769   1.813   1.452 -0.5746 -0.1473 -0.2377
  671SOL    HW1 2012   1.771   1.822   1.347 -0.5604 -0.7879 -1.5156
  671SOL    HW2 2013   1.675   1.826   1.500  0.2336 -1.1571  1.3431
  672SOL     OW 2014   0.440   0.634   2.392 -0.1795 -0.0310 -0.2997
  672SOL    HW1 2015   0.493   0.656   2.307 -2.5439 -2.3026 -1.3348
  672SOL    HW2 2016   0.346   0.683   2.385 -0.8839 -0.5323 -0.8961
  673SOL     OW 2017   0.158   1.183   1.157 -0.2251  0.7034  0.3519
  673SOL    HW1 2018   0.168   1.254   1.234  2.1435  1.0278 -0.6262
  673SOL    HW2 2019   0.251   1.159   1.114  0.5346  0.1141 -1.4738
  674SOL     OW 2020   1.656   2.991   0.318  0.4049  0.3132  0.2283
  674SOL    HW1 2021   1.635   3.092   0.317  0.7672 -3.3503 -1.2373
  674SOL    HW2 2022   1.756   2.966   0.329  1.2616  0.8687 -0.7744
  675SOL     OW 2023   1.737   0.808   2.254 -0.0241 -0.0231  0.1563
  675SOL    HW1 2024   1.835   0.779   2.271 -0.9692 -0.9016 -0.2683
  675SOL    HW2 2025   1.669   0.733   2.244  0.3702  0.6195  1.4291
  676SOL     OW 2026   2.537   1.483   1.929  0.0852  0.1728 -0.0383
  676SOL    HW1 2027   2.481   1.446   1.851 -1.0951 -3.4863 -0.4188
  676SOL    HW2 2028   2.534   1.412   2.010  0.7630  0.8387 -0.7764
  677SOL     OW 2029   1.920   0.719   0.931 -0.3539 -0.6123  0.1841
  677SOL    HW1 2030   1.845   0.662   0.965  0.8014  0.2998  1.1618
  677SOL    HW2 2031   2.006   0.668   0.942  1.7259  0.5312  0.1923
  678SOL     OW 2032   0.067   0.752   1.603  0.1876  0.0171  0.2297
  678SOL    HW1 2033   0.162   0.786   1.627  1.9244 -0.6692  1.2943
  678SOL    HW2 2034   0.012   0.720   1.688 -0.7700  0.9699 -0.6112
  679SOL     OW 2035   2.524   1.187   1.214 -0.7122  0.4306 -0.0188
  679SOL    HW1 2036   2.433   1.230   1.182 -0.3123 -0.6934  0.2938
  679SOL    HW2 2037   2.524   1.086   1.192  1.3827  2.1182  1.1131
  680SOL     OW 2038   2.827   0.459   1.695 -0.4437  0.2811  0.3854
  680SOL    HW1 2039   2.795   0.535   1.637 -0.2032  0.9026  1.6310
  680SOL    HW2 2040   2.915   0.483   1.747  1.8189  3.7300  0.3818
  681SOL     OW 2041   2.971   0.112   1.604  0.3243  0.3620  0.3068
  681SOL    HW1 2042   3.041   0.088   1.532 -0.5221  0.0160 -0.5104
  681SOL    HW2 2043   2.887   0.145   1.563  0.5834  1.0225 -0.9272
  682SOL     OW 2044   0.733   0.045   1.336  0.0782  0.8807  0.4310
  682SOL    HW1 2045   0.669  -0.016   1.389  0.2646  2.0771 -0.0695
  682SOL    HW2 2046   0.762   0.011   1.246  0.9813 -1.3743  3.0454
  683SOL     OW 2047   1.389   0.205   2.173  0.4300  0.2919  0.2275
  683SOL    HW1 2048   1.418   0.215   2.268 -1.6354 -1.3047  0.4008
  683SOL    HW2 2049   1.448   0.247   2.101 -0.9121  1.3728 -0.2614
  684SOL     OW 2050   1.451   2.055   0.469  0.6288 -0.0544 -0.1680
  684SOL    HW1 2051   1.517   2.011   0.534  1.4963 -0.2794  0.0702
  684SOL    HW2 2052   1.352   2.018   0.461 -0.9075  1.7908 -0.0094
  685SOL     OW 2053   2.201   2.112   1.949 -0.2159  0.2714 -0.4552
  685SOL    HW1 2054   2.247   2.101   1.854 -2.5581 -0.3747 -1.4692
  685SOL    HW2 2055   2.248   2.061   2.026  2.5077 -4.5952 -0.6383
  686SOL     OW 2056   1.492   1.843   2.779 -0.1807 -0.0634 -0.2857
  686SOL    HW1 2057   1.553   1.825   2.861  0.4095 -0.4976 -0.8275
  686SOL    HW2 2058   1.395   1.876   2.802 -2.9140  0.0888 -1.9486
  687SOL     OW 2059   1.351   2.460   1.971 -0.0241  0.8004 -0.0996
  687SOL    HW1 2060   1.369   2.356   1.964 -0.1512  0.1673 -0.8959
  687SOL    HW2 2061   1.389   2.496   2.058  1.2454 -1.3317 -0.7772
  688SOL     OW 2062   2.009   1.525   1.762  0.1403 -0.4332  0.4542
  688SOL    HW1 2063   2.080   1.597   1.789 -1.4736  2.3020  0.1101
  688SOL    HW2 2064   2.032   1.465   1.684 -0.8230 -1.0989  1.3409
  689SOL     OW 2065   2.386   1.069   2.783  0.6455 -0.2826  0.3590
  689SOL    HW1 2066   2.294   1.023   2.811 -0.2379  0.2688 -0.0098
  689SOL    HW2 2067   2.451   1.062   2.864 -3.9110 -0.3296  4.4986
  690SOL     OW 2068   2.218   2.809   0.059 -0.3052  0.3238 -0.1068
  690SOL    HW1 2069   2.155   2.797  -0.019 -0.2350 -0.1635  4.5827
  690SOL    HW2 2070   2.174   2.786   0.145  1.8221 -2.1768  0.9747
  691SOL     OW 2071   2.623   0.409   2.116  0.7112 -0.1291  0.0338
  691SOL    HW1 2072   2.677   0.323   2.124 -0.7892  3.7863 -1.0537
  691SOL    HW2 2073   2.654   0.469   2.037  0.5757 -0.7275  0.1333
  692SOL     OW 2074   2.690   1.223   0.736  0.3664  0.6540 -0.0141
  692SOL    HW1 2075   2.589   1.256   0.725 -0.5307 -1.9733 -0.4616
  692SOL    HW2 2076   2.735   1.268   0.817 -0.1336  0.6364  1.6496
  693SOL     OW 2077   2.813   2.937   0.631  0.0673 -0.5027  0.4639
  693SOL    HW1 2078   2.830   3.004   0.710 -0.2247 -1.2749  0.2270
  693SOL    HW2 2079   2.815   2.971   0.532 -1.7008 -1.1539 -0.8855
  694SOL     OW 2080   2.394   2.253   0.082  0.3980 -0.0752 -0.3169
  694SOL    HW1 2081   2.406   2.289   0.179  1.1610 -1.8697  0.4518
  694SOL    HW2 2082   2.306   2.199   0.066  1.9155  2.1827 -0.7677
  695SOL     OW 2083   0.567   3.010   1.493  0.5024 -0.1566  0.0952
  695SOL    HW1 2084   0.484   2.950   1.480  0.7654 -0.1638  0.2187
  695SOL    HW2 2085   0.544   3.095   1.550 -1.7887 -0.1750 -1.1518
  696SOL     OW 2086   2.813   2.077   0.765 -0.0648 -0.0234 -0.3969
  696SOL    HW1 2087   2.887   2.004   0.771 -1.1625 -0.7750 -0.3771
  696SOL    HW2 2088   2.778   2.094   0.667  0.1714 -0.8914  0.9066
  697SOL     OW 2089   1.613   1.990   1.835 -0.6904  0.0141  0.1220
  697SOL    HW1 2090   1.678   1.911   1.823 -0.9025  2.8551  1.9145
  697SOL    HW2 2091   1.652   2.074   1.791 -2.4346  0.0893  1.2952
  698SOL     OW 2092   2.908   0.398   2.752  0.4608 -0.0005  0.4554
  698SOL    HW1 2093   2.893   0.369   2.649 -1.0220  0.5685  0.0357
  698SOL    HW2 2094   2.984   0.340   2.794  1.3856  2.8673  0.6069
  699SOL     OW 2095   1.553   0.062   2.916  0.5364  0.0465  0.0611
  699SOL    HW1 2096   1.501  -0.019   2.871 -1.4063 -0.2052 -1.9726
  699SOL    HW2 2097   1.597   0.124   2.844 -1.5644 -0.6301 -1.2579
  700SOL     OW 2098   0.999   2.350   1.374 -0.9373 -0.1483 -0.3246
  700SOL    HW1 2099   1.090   2.299   1.385  2.4036  0.3700 -2.5415
  700SOL    HW2 2100   0.934   2.303   1.307  2.2453  0.0178 -1.1730
  701SOL     OW 2101   1.920   2.912   3.065 -0.1960  0.9021  0.3867
  701SOL    HW1 2102   1.853   2.878   3.139 -0.8772 -0.5464 -1.7581
  701SOL    HW2 2103   1.930   3.016   3.062  1.1390  0.4675  1.1745
  702SOL     OW 2104   2.092   1.338   1.957  0.2053  0.0395 -0.2531
  702SOL    HW1 2105   2.182   1.294   1.923 -0.2476 -0.1349  0.4593
  702SOL    HW2 2106   2.046   1.393   1.883  1.5029  2.1924  2.9361
  703SOL     OW 2107   1.925   0.924   1.451  0.4965 -0.2891  0.3013
  703SOL    HW1 2108   1.877   0.841   1.494 -1.3002  2.0846  1.0211
  703SOL    HW2 2109   2.010   0.953   1.506  0.7651  1.1410 -1.1672
  704SOL     OW 2110   0.303   2.017   1.722 -0.0690  0.0226 -0.7391
  704SOL    HW1 2111   0.342   1.947   1.791  0.0221 -0.3422 -1.9997
  704SOL    HW2 2112   0.369   2.095   1.698  2.1842  2.0166  1.3499
  705SOL     OW 2113   2.533   1.545   0.865 -0.4308 -0.0533 -0.3441
  705SOL    HW1 2114   2.464   1.473   0.831 -1.6837 -1.0499  0.5401
  705SOL    HW2 2115   2.633   1.520   0.863 -2.4870  0.6053  2.3527
  706SOL     OW 2116   0.690   1.712   1.891  0.0180  0.0457  0.1752
  706SOL    HW1 2117   0.725   1.611   1.902 -0.5439 -0.8069  0.0036
  706SOL    HW2 2118   0.693   1.766   1.978 -1.4009 -0.1267 -0.1855
  707SOL     OW 2119   2.288   1.170   1.878 -0.3837  0.0490  0.1639
  707SOL    HW1 2120   2.392   1.161   1.865 -0.2718  0.3955 -1.9156
  707SOL    HW2 2121   2.242   1.089   1.832 -0.4194 -0.0431  1.8357
  708SOL     OW 2122   3.000   0.532   3.048  0.4851  0.4890  0.2476
  708SOL    HW1 2123   2.962   0.598   2.974  0.1239  3.0673  1.7147
  708SOL    HW2 2124   3.034   0.438   3.011 -0.3590  2.5934 -1.0242
  709SOL     OW 2125   1.840   1.864   0.284  0.0204 -1.1380 -0.9296
  709SOL    HW1 2126   1.882   1.962   0.296  3.2413  1.2938 -0.2109
  709SOL    HW2 2127   1.843   1.837   0.182  3.5397 -1.7928 -2.0792
  710SOL     OW 2128   1.686   1.618   2.376 -0.0088 -0.0340 -0.1522
  710SOL    HW1 2129   1.754   1.562   2.319  0.8768 -0.3083  0.9423
  710SOL    HW2 2130   1.707   1.596   2.474 -2.1373 -1.2336 -1.4525
  711SOL     OW 2131   2.602   2.944   1.085  0.2796  0.2627 -0.5891
  711SOL    HW1 2132   2.573   3.037   1.045 -0.4091 -0.5876 -0.9521
  711SOL    HW2 2133   2.703   2.914   1.060 -0.2310 -0.6184 -0.3619
  712SOL     OW 2134   1.378   2.187   1.974 -0.1608 -0.0429 -0.0709
  712SOL    HW1 2135   1.474   2.191   2.004 -1.6996  0.6013 -0.1503
  712SOL    HW2 2136   1.358   2.124   1.896  0.1948  0.7692 -0.4769
  713SOL     OW 2137   2.798   1.473   2.508  0.4097 -0.8592  0.0803
  713SOL    HW1 2138   2.797   1.372   2.483 -1.0181  0.8645  0.4169
  713SOL    HW2 2139   2.711   1.493   2.561 -0.2445  1.7466 -1.8859
  714SOL     OW 2140   2.666   0.447   2.409  0.0991  0.0446 -0.4253
  714SOL    HW1 2141   2.585   0.415   2.460  2.4818  0.0872 -1.2610
  714SOL    HW2 2142   2.651   0.431   2.311 -0.5987 -1.2052  0.2388
  715SOL     OW 2143   1.549   2.024   1.111  0.1099 -0.5557 -0.4690
  715SOL    HW1 2144   1.479   2.094   1.088  2.4164 -1.6480 -0.7568
  715SOL    HW2 2145   1.584   2.030   1.212  0.9092  0.9256  1.5540
  716SOL     OW 2146   1.191   0.149   1.521  0.2995  0.5465 -0.0809
  716SOL    HW1 2147   1.108   0.157   1.461 -3.0482  2.0542 -4.5186
  716SOL    HW2 2148   1.264   0.226   1.500  2.4033  0.5802  1.0879
  717SOL     OW 2149   1.181   0.570   1.551 -0.2712  0.3013 -0.5281
  717SOL    HW1 2150   1.273   0.613   1.574  0.3914  0.4184  3.6740
  717SOL    HW2 2151   1.165   0.538   1.449 -2.2526  1.4999 -2.3144
  718SOL     OW 2152   0.697   0.860   0.995  0.0348  0.1350 -0.2882
  718SOL    HW1 2153   0.647   0.872   0.902 -0.2663  0.6816 -0.9083
  718SOL    HW2 2154   0.719   0.949   1.041 -0.9505  0.5053  2.8718
  719SOL     OW 2155   0.680   1.685   2.323 -0.7205 -0.2241  1.0504
  719SOL    HW1 2156   0.751   1.738   2.378  0.2850 -0.6520  0.0471
  719SOL    HW2 2157   0.599   1.659   2.369  0.9161  3.6272 -1.7727
  720SOL     OW 2158   2.182   1.107   0.269  0.0509  0.1761  0.0270
  720SOL    HW1 2159   2.265   1.058   0.237 -0.6471 -0.1640 -0.7512
  720SOL    HW2 2160   2.140   1.062   0.351 -0.6844 -0.6055  2.4673
  721SOL     OW 2161   2.286   3.019   2.068  0.2387 -0.0989  0.0759
  721SOL    HW1 2162   2.264   3.070   1.982  0.9872 -0.9299 -1.1387
  721SOL    HW2 2163   2.219   3.023   2.142  3.8686  1.3198 -0.3374
  722SOL     OW 2164   2.277   1.601   0.486 -0.2760 -0.0411  0.4927
  722SOL    HW1 2165   2.318   1.546   0.410 -0.0979 -0.7820  3.2419
  722SOL    HW2 2166   2.178   1.632   0.471  1.4806 -2.0168  0.1758
  723SOL     OW 2167   2.639   2.695   1.892 -0.0971  0.5502  0.3842
  723SOL    HW1 2168   2.677   2.757   1.965 -0.4820 -0.2318 -1.5707
  723SOL    HW2 2169   2.539   2.677   1.904 -0.6213  3.1408  0.6591
  724SOL     OW 2170   0.487   2.513   2.404 -0.4024 -0.4342  0.0513
  724SOL    HW1 2171   0.392   2.534   2.445 -0.1011 -1.8312 -2.5181
  724SOL    HW2 2172   0.556   2.470   2.468  0.9262  0.7516  0.5789
  725SOL     OW 2173   2.347   2.732   1.484  0.0167  0.3895 -0.3753
  725SOL    HW1 2174   2.396   2.801   1.430 -0.5290 -1.2628  3.6064
  725SOL    HW2 2175   2.399   2.647   1.497 -1.3662  2.1817  0.2060
  726SOL     OW 2176   2.516   2.323   0.733  0.2705  0.6260 -0.3015
  726SOL    HW1 2177   2.467   2.416   0.726  1.4417 -1.1685  1.7963
  726SOL    HW2 2178   2.473   2.255   0.670 -2.6645 -1.5103  0.4366
  727SOL     OW 2179   0.179   3.048   0.078 -0.1898  0.2532 -0.3070
  727SOL    HW1 2180   0.256   3.006   0.027 -2.2319 -1.9073  2.2417
  727SOL    HW2 2181   0.095   3.073   0.022 -1.7691 -2.1963 -1.6336
  728SOL     OW 2182   2.884   0.670   0.913  0.6677 -0.4735  0.1074
  728SOL    HW1 2183   2.805   0.661   0.847  1.7610  2.0064 -0.7608
  728SOL    HW2 2184   2.863   0.628   1.008  1.9716 -1.6889  0.8190
  729SOL     OW 2185   3.089   2.530   0.716 -0.8591 -0.0065  0.0787
  729SOL    HW1 2186   3.050   2.441   0.748  1.6011  2.5837  0.3430
  729SOL    HW2 2187   3.184   2.513   0.669  0.1094 -1.6920  0.4241
  730SOL     OW 2188   2.604   0.688   0.859  0.3793 -0.3216  0.3772
  730SOL    HW1 2189   2.589   0.793   0.864 -0.6030  0.9199  1.1128
  730SOL    HW2 2190   2.644   0.664   0.763  1.5978  1.9057  0.4373
  731SOL     OW 2191   0.025   2.148   2.415 -0.2233 -0.4037 -0.1156
  731SOL    HW1 2192   0.038   2.223   2.486  1.1420  1.4102 -2.8058
  731SOL    HW2 2193  -0.075   2.133   2.395  0.0596 -2.6934  0.7241
  732SOL     OW 2194   1.212   2.836   1.977  0.2543 -0.3129  0.0436
  732SOL    HW1 2195   1.253   2.781   2.054 -2.1277 -2.0341 -1.7507
  732SOL    HW2 2196   1.213   2.776   1.894  1.7303 -0.1516  1.8710
  733SOL     OW 2197   3.008   0.621   2.228 -0.2276 -0.0502  0.1148
  733SOL    HW1 2198   3.109   0.595   2.217 -1.5068 -0.7999  1.1126
  733SOL    HW2 2199   2.949   0.546   2.197  1.5457  0.5706 -1.6500
  734SOL     OW 2200   1.396   0.374   2.703 -0.1691  0.0149  0.4571
  734SOL    HW1 2201   1.400   0.474   2.735 -0.5667  1.9168  0.5813
  734SOL    HW2 2202   1.321   0.320   2.754 -0.6692 -1.6084  0.1219
  735SOL     OW 2203   2.899   2.626   2.299  0.1270  0.2668  0.2078
  735SOL    HW1 2204   2.868   2.573   2.213  2.3385  2.7101 -0.0102
  735SOL    HW2 2205   2.986   2.688   2.285  0.8639  0.0812  1.2415
  736SOL     OW 2206   0.921   0.392   2.569 -0.1931 -0.4190  0.6668
  736SOL    HW1 2207   0.826   0.438   2.574 -1.3803  1.8390 -1.5436
  736SOL    HW2 2208   0.948   0.343   2.482 -0.8280 -3.1021  1.6838
  737SOL     OW 2209   2.649   0.447   2.800  0.3287 -0.2069 -0.2083
  737SOL    HW1 2210   2.614   0.425   2.897  1.5567  1.0922  3.2543
  737SOL    HW2 2211   2.744   0.412   2.778 -1.0445 -1.5439  0.3931
  738SOL     OW 2212   1.701   1.245   2.889 -0.4243 -0.2554 -0.0134
  738SOL    HW1 2213   1.798   1.252   2.859 -1.6241  1.8793 -1.2550
  738SOL    HW2 2214   1.650   1.161   2.864  0.1892  0.4436  0.9045
  739SOL     OW 2215   1.766   0.721   0.668 -0.2869  0.2108  0.0111
  739SOL    HW1 2216   1.826   0.734   0.756  2.1734  0.4860 -0.2126
  739SOL    HW2 2217   1.775   0.623   0.626  1.6255 -0.4744  0.0797
  740SOL     OW 2218   1.975   1.924   2.380  0.7113  0.8222  0.1849
  740SOL    HW1 2219   2.045   1.852   2.394 -0.1317  2.0076 -0.1638
  740SOL    HW2 2220   1.925   1.899   2.289 -3.5838  0.6587 -1.0631
  741SOL     OW 2221   2.588   0.147   2.518 -0.0485  0.2179 -0.2141
  741SOL    HW1 2222   2.693   0.135   2.516  3.0650  0.8594  0.1526
  741SOL    HW2 2223   2.544   0.142   2.423 -1.5500  0.3822  1.7009
  742SOL     OW 2224   2.189   1.385   0.170 -0.1538  0.1099  0.2470
  742SOL    HW1 2225   2.094   1.425   0.145 -0.5835 -3.9590 -0.8843
  742SOL    HW2 2226   2.185   1.287   0.209 -3.5604  0.1664 -0.7221
  743SOL     OW 2227   1.762   0.599   2.611  0.1864  0.3056 -0.4546
  743SOL    HW1 2228   1.781   0.550   2.519  0.9048 -2.7747 -2.8780
  743SOL    HW2 2229   1.692   0.664   2.594 -0.2684 -2.7208  1.9263
  744SOL     OW 2230   2.678   2.013   0.083 -0.5801  0.4515  0.2442
  744SOL    HW1 2231   2.579   2.051   0.080 -1.9002  0.6980  1.1029
  744SOL    HW2 2232   2.689   1.917   0.124 -0.4402 -3.5276  1.3539
  745SOL     OW 2233   2.166   2.631   2.154 -0.2220 -0.1387  0.3685
  745SOL    HW1 2234   2.078   2.668   2.191  0.4105 -0.4683 -0.6860
  745SOL    HW2 2235   2.241   2.688   2.196  0.7376 -0.7737 -2.8750
  746SOL     OW 2236  -0.003   2.652   1.723 -0.0430 -0.3451 -0.1346
  746SOL    HW1 2237   0.086   2.603   1.707  2.7376 -1.1088 -0.8648
  746SOL    HW2 2238  -0.009   2.719   1.806 -0.3437  3.1281 -1.2270
  747SOL     OW 2239   3.063   1.750   1.704  0.0110 -0.4152  0.5712
  747SOL    HW1 2240   2.990   1.681   1.671 -1.1936 -0.9617  0.1089
  747SOL    HW2 2241   3.136   1.777   1.638 -2.2380  1.3840  2.9195
  748SOL     OW 2242   1.809   2.718   2.903 -0.1740 -0.3997 -0.4403
  748SOL    HW1 2243   1.834   2.818   2.932 -0.2875 -0.2423 -1.0142
  748SOL    HW2 2244   1.707   2.700   2.893 -1.7748  0.6182 -1.6374
  749SOL     OW 2245   1.341   3.009   0.858  0.7203  0.3581  0.1811
  749SOL    HW1 2246   1.246   2.961   0.850 -3.0427 -0.5003  0.4472
  749SOL    HW2 2247   1.405   2.973   0.792 -1.0324 -1.5485  3.4284
  750SOL     OW 2248   2.315   0.218   1.843  0.1184  0.2354 -0.1726
  750SOL    HW1 2249   2.308   0.276   1.752  0.7225 -0.4417 -2.4398
  750SOL    HW2 2250   2.307   0.279   1.927  0.5750 -1.5172 -0.6926
  751SOL     OW 2251   0.812   2.018   2.842 -0.0225 -0.1071 -0.2538
  751SOL    HW1 2252   0.885   2.055   2.904 -1.9683  2.2773 -0.7672
  751SOL    HW2 2253   0.718   2.016   2.884 -1.4863 -5.2518 -1.7444
  752SOL     OW 2254   1.317   0.815   1.268  0.3835 -0.6632  0.0894
  752SOL    HW1 2255   1.403   0.870   1.253 -1.3514 -1.3767 -0.0309
  752SOL    HW2 2256   1.341   0.725   1.314  3.5402 -0.1476  0.2667
  753SOL     OW 2257   0.943   2.631   1.794  0.1238 -0.4059 -0.5020
  753SOL    HW1 2258   1.036   2.664   1.777 -1.6830 -1.2498 -0.8390
  753SOL    HW2 2259   0.885   2.706   1.838  0.7247  0.8735  0.6055
  754SOL     OW 2260   1.155   1.168   3.012 -0.3161 -0.0783 -0.2900
  754SOL    HW1 2261   1.202   1.090   2.953  1.1236 -4.1391 -0.9202
  754SOL    HW2 2262   1.215   1.249   3.031  1.3723  0.7529 -0.1029
  755SOL     OW 2263   2.011   0.502   2.235 -0.2362  0.2615 -0.7769
  755SOL    HW1 2264   2.067   0.413   2.230  0.6852  1.9296  2.1502
  755SOL    HW2 2265   1.931   0.499   2.305 -3.3703  1.7136  0.8175
  756SOL     OW 2266   2.583   0.981   2.973 -0.0647 -0.3832  0.3319
  756SOL    HW1 2267   2.687   0.979   2.977 -1.0661  0.5660 -6.6850
  756SOL    HW2 2268   2.534   0.897   3.005 -0.9682 -0.0141  0.4509
  757SOL     OW 2269   0.084   0.460   2.003  0.1926  0.5388 -0.1651
  757SOL    HW1 2270   0.135   0.401   1.934  0.6009 -4.5020 -2.8853
  757SOL    HW2 2271  -0.016   0.429   2.020 -0.0820  0.0493  0.9417
  758SOL     OW 2272   2.259   0.127   1.463 -0.0769  0.5618  0.1364
  758SOL    HW1 2273   2.242   0.026   1.492 -0.5325 -0.4523  0.0233
  758SOL    HW2 2274   2.325   0.136   1.383  0.5016 -0.8413 -0.4516
  759SOL     OW 2275   1.667   0.124   0.056 -0.4907 -0.1438 -0.4086
  759SOL    HW1 2276   1.609   0.093  -0.026  0.8218 -0.1414  0.3165
  759SOL    HW2 2277   1.759   0.080   0.049  0.4591  0.0831 -0.8334
  760SOL     OW 2278   2.616   2.042   2.830  0.0132  0.7403 -0.2436
  760SOL    HW1 2279   2.657   1.965   2.883  2.3280  1.9222 -0.9099
  760SOL    HW2 2280   2.620   2.132   2.882  0.6160  0.3352 -1.9129
  761SOL     OW 2281   1.850   1.774   1.716  0.2266 -0.4579 -0.2262
  761SOL    HW1 2282   1.875   1.677   1.738  0.8795  3.5883  1.5091
  761SOL    HW2 2283   1.832   1.793   1.614 -1.1831  0.0404  1.2574
  762SOL     OW 2284   0.496   2.356   0.966 -0.2312 -0.4725 -0.3225
  762SOL    HW1 2285   0.517   2.345   0.867  0.1945 -0.4381  0.4433
  762SOL    HW2 2286   0.576   2.402   1.021 -0.0783  0.9584  1.6379
  763SOL     OW 2287   2.079   1.596   2.986  0.2018 -0.3839 -0.5247
  763SOL    HW1 2288   2.179   1.570   2.972 -2.0816  0.9557  2.3894
  763SOL    HW2 2289   2.036   1.531   3.055  1.0422  0.3527 -1.1823
  764SOL     OW 2290   0.686   0.566   0.751 -0.1806  0.3270  0.2082
  764SOL    HW1 2291   0.596   0.509   0.757 -0.6041  1.7184  0.1578
  764SOL    HW2 2292   0.753   0.539   0.822 -3.4279  1.7938  1.2364
  765SOL     OW 2293   0.749   0.232   0.782 -0.3435 -0.3612  0.8120
  765SOL    HW1 2294   0.813   0.285   0.714  2.2046 -0.0110 -1.3098
  765SOL    HW2 2295   0.732   0.289   0.862 -2.0858  1.2869 -2.8739
  766SOL     OW 2296   2.863   2.130   2.998 -0.0981 -0.0813  0.1261
  766SOL    HW1 2297   2.783   2.091   3.054  2.1061  1.5656  1.4247
  766SOL    HW2 2298   2.917   2.195   3.059 -1.1584  0.8024  0.4088
  767SOL     OW 2299   2.788   1.681   0.589 -0.0581 -0.0956  0.1695
  767SOL    HW1 2300   2.690   1.693   0.599  3.6190 -0.8523 -0.4802
  767SOL    HW2 2301   2.841   1.735   0.660  1.5847 -0.4213 -1.1991
  768SOL     OW 2302   1.004   0.078   0.212 -0.9774  0.2401 -0.2210
  768SOL    HW1 2303   0.973   0.074   0.313 -2.1276  1.5039 -1.6128
  768SOL    HW2 2304   1.103   0.095   0.214 -1.3236  2.4335  0.0101
  769SOL     OW 2305   1.123   1.878   2.328  0.3184  0.3750 -0.1290
  769SOL    HW1 2306   1.034   1.925   2.343 -0.9460 -0.6212 -0.9316
  769SOL    HW2 2307   1.183   1.883   2.414 -0.1380  1.1217 -1.3940
  770SOL     OW 2308   0.185   1.192   2.303  0.4936  0.5615 -0.2010
  770SOL    HW1 2309   0.185   1.248   2.388  0.8434  0.6586 -0.5606
  770SOL    HW2 2310   0.087   1.178   2.266 -0.3928 -1.5772 -0.8015
  771SOL     OW 2311   3.050   2.837   1.916 -0.3563  0.5415 -0.6184
  771SOL    HW1 2312   3.019   2.871   1.823  1.2978 -1.1715 -0.5470
  771SOL    HW2 2313   3.011   2.895   1.996 -0.3690 -0.6020  0.9414
  772SOL     OW 2314   2.239   0.144   2.916 -0.2198 -0.3379  0.5289
  772SOL    HW1 2315   2.330   0.124   2.865  0.2255  0.2250  2.7289
  772SOL    HW2 2316   2.243   0.223   2.985  0.2680  1.9259  1.3839
  773SOL     OW 2317   0.663   2.117   2.406  0.1927  0.0439  0.1776
  773SOL    HW1 2318   0.629   2.189   2.336  1.4013 -0.6574 -2.4509
  773SOL    HW2 2319   0.575   2.086   2.459 -0.4189  2.8389  0.3854
  774SOL     OW 2320   2.058   0.010   2.606 -0.0897  0.7683  0.1693
  774SOL    HW1 2321   2.045   0.104   2.645  1.2253 -1.0476 -1.3806
  774SOL    HW2 2322   2.124  -0.053   2.657  3.3672 -1.6633  0.5753
  775SOL     OW 2323   2.581   2.949   2.303  0.0856 -0.6150  0.1759
  775SOL    HW1 2324   2.552   3.048   2.330  0.2014  0.1617  1.7922
  775SOL    HW2 2325   2.664   2.918   2.360 -0.0241 -2.9788  1.5294
  776SOL     OW 2326   3.105   1.254   0.210 -0.1580  0.3629  0.5704
  776SOL    HW1 2327   3.057   1.246   0.118  0.5537  0.9896  0.5455
  776SOL    HW2 2328   3.040   1.254   0.295 -0.2574  1.8983  1.8889
  777SOL     OW 2329   0.379   2.870   0.334  0.1924 -0.5143 -0.0210
  777SOL    HW1 2330   0.278   2.886   0.327  1.6081 -0.0236 -0.6468
  777SOL    HW2 2331   0.427   2.933   0.272 -1.0433 -1.8948  1.7837
  778SOL     OW 2332   1.352   1.979   0.169 -0.0615  0.1933  0.1437
  778SOL    HW1 2333   1.288   2.003   0.246 -0.4511 -0.2564 -1.5677
  778SOL    HW2 2334   1.397   2.061   0.121 -1.0001  3.2568 -2.2798
  779SOL     OW 2335   0.206   0.885   0.511  0.1502 -0.6891  0.2915
  779SOL    HW1 2336   0.180   0.783   0.518  0.1922  0.9073  1.1679
  779SOL    HW2 2337   0.140   0.940   0.570 -2.4177  0.8733  0.0412
  780SOL     OW 2338   0.098   0.287   2.404  0.1319 -0.7269 -0.5815
  780SOL    HW1 2339   0.079   0.377   2.451  1.6617  0.9395  0.6360
  780SOL    HW2 2340   0.197   0.277   2.367 -1.2425 -2.2672 -2.5680
  781SOL     OW 2341   0.647   1.645   1.530  0.3942  0.0185 -0.3270
  781SOL    HW1 2342   0.724   1.596   1.575 -0.8644  0.9116  0.3881
  781SOL    HW2 2343   0.551   1.614   1.560 -0.0653  1.9708 -0.0333
  782SOL     OW 2344   2.590   0.117   0.925 -0.2951 -0.7836  0.2941
  782SOL    HW1 2345   2.549   0.147   0.835  0.5258 -0.1861  3.8311
  782SOL    HW2 2346   2.572   0.196   0.994 -1.2146  0.8178  1.1919
  783SOL     OW 2347   2.791   0.700   2.482  0.1359  0.5687  0.2173
  783SOL    HW1 2348   2.751   0.758   2.562 -2.1210  0.4242  2.6814
  783SOL    HW2 2349   2.721   0.629   2.438 -1.3964 -0.8648 -1.6781
  784SOL     OW 2350   1.464   2.203   0.033 -0.2324  0.5203  0.5856
  784SOL    HW1 2351   1.521   2.283   0.061 -2.4765 -2.6504 -0.6071
  784SOL    HW2 2352   1.429   2.213  -0.064 -1.7704  0.6230 -1.5624
  785SOL     OW 2353   2.109   0.307   0.064  0.4812 -0.2207  0.0864
  785SOL    HW1 2354   2.013   0.308   0.107 -1.2132 -0.4619  1.3965
  785SOL    HW2 2355   2.122   0.397   0.003 -0.4842  1.6612 -0.9377
  786SOL     OW 2356   2.062   2.184   2.295 -0.1051  0.2052  0.0675
  786SOL    HW1 2357   2.013   2.091   2.319 -1.1444 -3.4244  1.0842
  786SOL    HW2 2358   2.148   2.179   2.240 -0.4742 -3.3476  2.8882
  787SOL     OW 2359   1.337   0.468   0.941  0.0204 -0.1246  0.6524
  787SOL    HW1 2360   1.295   0.564   0.954  0.0684  2.4509  1.0574
  787SOL    HW2 2361   1.414   0.464   0.871 -2.9098  0.6959  1.2850
  788SOL     OW 2362   1.289   0.406   0.084 -0.1825  0.2150 -0.2784
  788SOL    HW1 2363   1.212   0.379   0.018 -0.7276 -0.1898  3.8693
  788SOL    HW2 2364   1.264   0.504   0.124  1.4061 -0.0492 -1.2142
  789SOL     OW 2365   2.568   0.059   1.952 -0.3498  0.2816  0.0620
  789SOL    HW1 2366   2.479   0.101   1.925  1.5102 -1.7157  0.1445
  789SOL    HW2 2367   2.595  -0.039   1.911  0.3888  0.2985 -1.3401
  790SOL     OW 2368   2.622   2.805   0.804  0.6150 -0.1318  0.3398
  790SOL    HW1 2369   2.670   2.826   0.713 -0.3661  0.6248 -0.1767
  790SOL    HW2 2370   2.634   2.882   0.864  0.3472  1.2821 -0.6471
  791SOL     OW 2371   1.904   1.199   0.186 -0.1197 -0.0589 -0.3139
  791SOL    HW1 2372   1.810   1.165   0.204  3.9698 -1.8137 -3.1155
  791SOL    HW2 2373   1.973   1.126   0.216 -0.7531  0.1293  3.2181
  792SOL     OW 2374   0.448   1.784   2.178  0.3044  0.1411  0.7430
  792SOL    HW1 2375   0.534   1.738   2.213 -0.7024 -0.4902  0.4380
  792SOL    HW2 2376   0.377   1.789   2.254 -0.3505 -0.7543  1.2846
  793SOL     OW 2377   2.100   1.546   2.144 -0.1784  0.0724 -0.0458
  793SOL    HW1 2378   2.184   1.604   2.124  2.5029 -0.8394  0.6140
  793SOL    HW2 2379   2.096   1.461   2.079 -0.3345 -0.1398 -2.3915
  794SOL     OW 2380   0.523   1.406   2.348 -0.2005  0.3860  0.0096
  794SOL    HW1 2381   0.518   1.392   2.243  0.8292 -0.1691 -1.8919
  794SOL    HW2 2382   0.488   1.501   2.380 -0.8071  2.7948 -0.5861
  795SOL     OW 2383   2.512   2.255   1.846 -0.3930 -0.2828  0.1254
  795SOL    HW1 2384   2.519   2.217   1.943  1.0312 -1.2688  0.4331
  795SOL    HW2 2385   2.425   2.219   1.800 -1.2736 -0.5176 -0.9851
  796SOL     OW 2386   3.097   1.125   2.679 -0.3239  0.3082  0.3884
  796SOL    HW1 2387   2.991   1.119   2.678  0.9498 -1.7095 -2.0415
  796SOL    HW2 2388   3.132   1.130   2.778  0.8589 -2.2884 -0.7835
  797SOL     OW 2389   0.736   0.645   1.392  0.2784 -0.3237 -0.3359
  797SOL    HW1 2390   0.816   0.698   1.436 -0.3747  1.1201  0.6092
  797SOL    HW2 2391   0.670   0.707   1.338  0.2572 -0.8613 -1.0569
  798SOL     OW 2392   1.267   0.314   1.157 -0.0506 -0.3475  0.7014
  798SOL    HW1 2393   1.319   0.316   1.247 -1.4050  1.7594 -1.4175
  798SOL    HW2 2394   1.308   0.381   1.078  0.0250  0.8654 -3.1399
  799SOL     OW 2395   1.960   2.722   1.057  0.0061 -0.0332  0.1541
  799SOL    HW1 2396   1.884   2.720   1.123  0.4639  0.0163  0.1291
  799SOL    HW2 2397   1.934   2.726   0.954  0.2638  0.7965 -3.8460
  800SOL     OW 2398   3.050   0.647   1.825 -0.2810 -0.2646  0.1615
  800SOL    HW1 2399   2.970   0.701   1.869  0.2407  2.3095  1.8714
  800SOL    HW2 2400   3.115   0.601   1.895  0.9066 -0.0526  2.8074
  801SOL     OW 2401   1.978   2.235   0.107  0.1841 -0.1288  0.4337
  801SOL    HW1 2402   1.882   2.209   0.069  0.7391 -0.4705  0.3361
  801SOL    HW2 2403   2.058   2.175   0.075  2.2957  1.9272  0.5947
  802SOL     OW 2404   0.710   0.827   2.575 -0.0811  0.0233 -0.0312
  802SOL    HW1 2405   0.751   0.785   2.486 -0.9088 -0.3901 -0.2196
  802SOL    HW2 2406   0.616   0.860   2.560 -0.7617  0.2084 -0.6151
  803SOL     OW 2407   0.947   0.040   0.860  0.0311 -0.1096 -0.2533
  803SOL    HW1 2408   1.037   0.097   0.873 -1.3718  2.7488 -1.1104
  803SOL    HW2 2409   0.862   0.095   0.822 -2.1569 -0.3555 -0.8534
  804SOL     OW 2410   0.278   0.041   2.135 -0.1433  0.4824 -0.3211
  804SOL    HW1 2411   0.262   0.139   2.120  0.0876 -0.9787  0.5082
  804SOL    HW2 2412   0.242  -0.021   2.064 -0.3203 -0.9302  2.6594
  805SOL     OW 2413   2.397   0.261   0.348 -0.2948 -0.0124  0.0532
  805SOL    HW1 2414   2.471   0.312   0.397  1.6861 -0.8772  0.2111
  805SOL    HW2 2415   2.382   0.292   0.251 -0.2480  1.5762 -0.5363
  806SOL     OW 2416   0.622   2.421   1.688 -0.2327  0.7161  0.2319
  806SOL    HW1 2417   0.620   2.524   1.699  0.6311  0.6581 -1.0387
  806SOL    HW2 2418   0.717   2.388   1.662  0.2232 -0.0103  1.0404
  807SOL     OW 2419   2.476   0.904   0.418 -0.1075 -0.1812 -0.5998
  807SOL    HW1 2420   2.576   0.907   0.452  1.1843 -0.1342  0.0169
  807SOL    HW2 2421   2.459   0.933   0.322 -2.7855  0.7040  0.9044
  808SOL     OW 2422   0.568   2.046   2.956  0.4116 -0.0583 -0.6440
  808SOL    HW1 2423   0.545   2.073   3.055 -2.7929  0.7794 -1.4113
  808SOL    HW2 2424   0.543   1.943   2.936  0.5448  0.5174 -2.0449
  809SOL     OW 2425   2.708   1.942   1.941 -0.0716  0.5016 -0.3400
  809SOL    HW1 2426   2.791   1.997   1.964 -0.0248 -1.1023  1.0716
  809SOL    HW2 2427   2.665   1.966   1.849 -0.7486  0.5466  1.4875
  810SOL     OW 2428   2.101   1.027   0.534 -0.0541  0.1203  0.1888
  810SOL    HW1 2429   2.120   0.973   0.623 -0.3290 -0.4795  2.6089
  810SOL    HW2 2430   2.062   1.118   0.563  0.2232  0.6004  0.0372
  811SOL     OW 2431   1.369   2.506   1.260 -0.2460  0.2704 -0.1788
  811SOL    HW1 2432   1.334   2.409   1.275  2.1212  0.0030 -1.4833
  811SOL    HW2 2433   1.297   2.563   1.218 -2.7818 -0.3360  0.0755
  812SOL     OW 2434   1.437   0.827   1.919 -0.2341 -0.8336 -0.5803
  812SOL    HW1 2435   1.503   0.896   1.962 -3.9340  2.5659  0.9223
  812SOL    HW2 2436   1.342   0.854   1.944  1.1001  1.9742  1.4164
  813SOL     OW 2437   1.764   2.077   2.475 -0.3244 -0.5800  0.1760
  813SOL    HW1 2438   1.850   2.021   2.480  0.1757  0.4907 -0.9006
  813SOL    HW2 2439   1.704   2.067   2.393  1.6219 -0.4495  2.0487
  814SOL     OW 2440   2.896   1.530   2.847  0.2697 -0.8733  0.5943
  814SOL    HW1 2441   2.987   1.528   2.903  2.2436 -1.4279  0.7940
  814SOL    HW2 2442   2.890   1.611   2.781  1.0879 -0.4251  0.1036
  815SOL     OW 2443   2.173   2.899   2.792 -0.4598  0.3981  0.1916
  815SOL    HW1 2444   2.142   2.814   2.850 -0.1937  0.1977 -0.0965
  815SOL    HW2 2445   2.266   2.943   2.813  2.7266  0.1673  1.3522
  816SOL     OW 2446   1.636   0.331   1.667  0.2407 -0.4480 -0.2777
  816SOL    HW1 2447   1.672   0.232   1.656 -1.6139  0.2255 -0.1750
  816SOL    HW2 2448   1.544   0.335   1.708  0.2276  1.2363  0.5259
  817SOL     OW 2449   0.412   1.233   2.536 -0.1398 -0.1886  0.6384
  817SOL    HW1 2450   0.319   1.273   2.561 -0.5000 -0.8804  0.6297
  817SOL    HW2 2451   0.472   1.292   2.468  2.9415  1.0818 -1.4188
  818SOL     OW 2452   1.945   0.807   0.480 -0.6685  0.6089  0.0298
  818SOL    HW1 2453   2.002   0.893   0.494 -0.5238 -0.0795 -2.7295
  818SOL    HW2 2454   1.866   0.790   0.548 -0.8855  0.1522  3.1079
  819SOL     OW 2455   2.756   2.942   3.006 -0.4188  0.5744 -0.0693
  819SOL    HW1 2456   2.828   2.875   2.975  1.0237 -1.5748 -1.1008
  819SOL    HW2 2457   2.677   2.945   2.942 -0.1192  1.6680 -1.0249
  820SOL     OW 2458   1.263   1.116   0.652  0.3592 -0.2062 -0.3225
  820SOL    HW1 2459   1.225   1.212   0.675 -2.2406 -2.4732  3.0710
  820SOL    HW2 2460   1.258   1.049   0.726  0.9608 -3.0979  2.3691
  821SOL     OW 2461   3.088   1.332   0.661 -0.1196  0.3522 -0.1006
  821SOL    HW1 2462   3.055   1.328   0.763 -1.5153  1.5854  0.1878
  821SOL    HW2 2463   3.152   1.411   0.645  1.9449  0.1892 -5.1202
  822SOL     OW 2464   2.536   1.748   2.457  0.0038  0.0911  0.5840
  822SOL    HW1 2465   2.550   1.841   2.500  1.8769  1.8652  1.2818
  822SOL    HW2 2466   2.448   1.749   2.400  0.4624  0.4035  1.2629
  823SOL     OW 2467   2.108   0.841   1.199 -0.1267  0.9807 -0.1611
  823SOL    HW1 2468   2.049   0.854   1.282 -1.5297 -0.4717  0.4336
  823SOL    HW2 2469   2.061   0.873   1.110 -1.9025  2.9555 -0.6034
  824SOL     OW 2470   0.183   2.070   2.780  0.4415  0.0261  0.3301
  824SOL    HW1 2471   0.132   1.994   2.820 -2.6246  1.1607  1.0937
  824SOL    HW2 2472   0.242   2.027   2.705 -1.8700  0.0740 -0.9106
  825SOL     OW 2473   1.267   1.094   0.287  0.4099 -0.2985 -0.9627
  825SOL    HW1 2474   1.299   1.197   0.281  0.3297  3.3416  1.6951
  825SOL    HW2 2475   1.187   1.084   0.353  2.0676 -2.6860  2.3398
  826SOL     OW 2476   1.894   0.688   1.608 -0.1262  0.1313  0.0186
  826SOL    HW1 2477   1.971   0.632   1.651 -0.6372  1.4965  0.0506
  826SOL    HW2 2478   1.821   0.622   1.572 -0.5063  0.9195  3.0663
  827SOL     OW 2479   0.679   1.346   0.291 -0.5105 -0.9402 -0.1240
  827SOL    HW1 2480   0.760   1.295   0.253 -0.8656 -3.8696 -1.2858
  827SOL    HW2 2481   0.598   1.289   0.326  0.5167 -1.5884  1.6565
  828SOL     OW 2482   2.503   0.066   1.590 -0.2397  0.0139  0.2489
  828SOL    HW1 2483   2.409   0.085   1.556  1.2431  1.2500 -0.9541
  828SOL    HW2 2484   2.518  -0.010   1.659  1.5855 -0.8671  0.4166
  829SOL     OW 2485   2.814   2.443   2.977 -0.4012  0.3107  0.5618
  829SOL    HW1 2486   2.785   2.344   2.964 -0.7672  0.0032 -0.1081
  829SOL    HW2 2487   2.755   2.492   3.046  0.5348 -0.1274 -0.4075
  830SOL     OW 2488   2.856   0.946   2.985 -0.2131 -0.2679 -0.0244
  830SOL    HW1 2489   2.902   1.029   3.020 -0.9697  0.4793  1.3900
  830SOL    HW2 2490   2.870   0.863   3.041 -0.1238 -0.5187  2.1426
  831SOL     OW 2491   0.113   0.633   0.433 -0.0722 -0.3359  0.4302
  831SOL    HW1 2492   0.061   0.561   0.487 -3.0372  0.7025 -0.0298
  831SOL    HW2 2493   0.118   0.598   0.338  1.0513  1.7025  0.5787
  832SOL     OW 2494   1.774   0.738   3.046 -0.3074  0.3096 -0.5403
  832SOL    HW1 2495   1.678   0.765   3.013 -0.2706  0.7744 -0.4730
  832SOL    HW2 2496   1.789   0.633   3.045 -1.0994 -2.1432 -0.3915
  833SOL     OW 2497   2.421   2.162   0.519 -0.2688  0.5898  0.5348
  833SOL    HW1 2498   2.326   2.149   0.485  1.5232  1.1347 -1.5647
  833SOL    HW2 2499   2.480   2.078   0.506 -1.5220  0.3314 -0.5150
  834SOL     OW 2500   0.198   0.211   0.521  0.4056  0.0671  0.2927
  834SOL    HW1 2501   0.231   0.119   0.549 -0.6800  0.4654  0.4882
  834SOL    HW2 2502   0.178   0.219   0.417 -0.8955 -2.0439  3.6749
  835SOL     OW 2503   2.397   1.567   1.148 -0.0317 -0.4829 -0.0249
  835SOL    HW1 2504   2.426   1.651   1.202  3.4659  0.0218 -1.9064
  835SOL    HW2 2505   2.439   1.571   1.054 -0.4452 -0.1416  4.3267
  836SOL     OW 2506   1.608   0.822   2.517 -0.0569 -0.2059 -0.0956
  836SOL    HW1 2507   1.513   0.784   2.531  0.9415  0.0503 -1.1601
  836SOL    HW2 2508   1.623   0.843   2.418 -0.8261  0.6538  0.7488
  837SOL     OW 2509   1.736   0.138   0.601 -0.0460 -0.6178 -0.0820
  837SOL    HW1 2510   1.663   0.176   0.664  0.3586 -1.9144 -1.3745
  837SOL    HW2 2511   1.731   0.180   0.510  1.2244  0.2114 -0.8033
  838SOL     OW 2512   1.140   1.552   2.792  0.0295 -0.0050  0.2496
  838SOL    HW1 2513   1.122   1.514   2.887  0.9161 -0.6980 -0.0231
  838SOL    HW2 2514   1.106   1.493   2.710 -2.2007 -0.6002 -0.0330
  839SOL     OW 2515   1.642   0.333   1.006 -0.0463  0.4207 -0.5780
  839SOL    HW1 2516   1.696   0.376   1.082  0.6287 -0.8094 -0.8561
  839SOL    HW2 2517   1.575   0.263   1.043  0.9264 -1.5215 -1.5326
  840SOL     OW 2518   2.480   2.955   1.760  0.6218 -0.1568  0.3038
  840SOL    HW1 2519   2.399   2.922   1.707 -0.7690 -1.5484  0.5512
  840SOL    HW2 2520   2.539   2.880   1.796 -2.3417  1.7527 -0.1444
  841SOL     OW 2521   1.541   0.841   2.972 -0.5401  0.2776 -0.4023
  841SOL    HW1 2522   1.458   0.852   3.027  0.6157  3.0363  0.2754
  841SOL    HW2 2523   1.545   0.926   2.912  0.3243  0.0906  2.6789
  842SOL     OW 2524   0.824   1.529   0.910 -0.1416 -0.5331  0.0533
  842SOL    HW1 2525   0.795   1.625   0.937 -1.0534 -0.0727 -0.9097
  842SOL    HW2 2526   0.746   1.456   0.921 -1.3514  0.2556  0.0272
  843SOL     OW 2527   0.047   0.030   1.375 -0.7119 -0.0423 -0.3056
  843SOL    HW1 2528   0.104   0.107   1.423  1.4863  0.5418  1.1580
  843SOL    HW2 2529   0.058  -0.064   1.416 -1.5332  3.3551  3.2041
  844SOL     OW 2530   0.808   2.492   0.226 -0.2993  0.4988 -0.2539
  844SOL    HW1 2531   0.759   2.459   0.311  0.9025 -2.1449  0.6008
  844SOL    HW2 2532   0.754   2.558   0.162 -1.9734 -0.6139 -3.2701
  845SOL     OW 2533   1.634   2.916   1.378 -0.5086  0.4219  0.4113
  845SOL    HW1 2534   1.688   2.918   1.469  0.9348  2.2259  1.4869
  845SOL    HW2 2535   1.534   2.904   1.393  1.2483 -1.9849  2.2898
  846SOL     OW 2536   1.553   2.890   0.713 -0.1011 -0.0319 -0.5536
  846SOL    HW1 2537   1.573   2.872   0.610  2.0001 -0.7739  0.3740
  846SOL    HW2 2538   1.633   2.939   0.762  1.5604 -1.0498 -1.4618
  847SOL     OW 2539   2.039   1.667   0.351 -0.0702  0.2904 -0.5754
  847SOL    HW1 2540   2.017   1.560   0.351  1.2712 -1.7500 -1.2795
  847SOL    HW2 2541   1.960   1.731   0.350  0.9964  0.3663  2.9299
  848SOL     OW 2542   2.468   0.879   2.609 -0.0365  0.2980 -0.2225
  848SOL    HW1 2543   2.434   0.961   2.667  3.4414  1.3138  0.3522
  848SOL    HW2 2544   2.394   0.806   2.606 -0.7834 -0.5664 -0.4728
  849SOL     OW 2545   2.598   0.863   2.348  0.4817 -0.1181  0.0197
  849SOL    HW1 2546   2.696   0.834   2.359  0.3775  1.2686 -1.3053
  849SOL    HW2 2547   2.541   0.875   2.438  2.2229 -0.2082  1.1918
  850SOL     OW 2548   1.530   0.164   1.268 -0.0620 -0.2730 -0.0414
  850SOL    HW1 2549   1.525   0.130   1.172 -1.6643  4.0130 -0.1361
  850SOL    HW2 2550   1.563   0.090   1.328 -0.0000  2.0683  1.0067
  851SOL     OW 2551   0.485   1.791   0.537  0.1890  0.2474  0.2082
  851SOL    HW1 2552   0.553   1.860   0.566  0.2209  1.2925 -1.3186
  851SOL    HW2 2553   0.431   1.827   0.457 -1.0719  0.2021  1.1944
  852SOL     OW 2554   0.797   2.115   1.659 -0.2448  0.1104 -0.5683
  852SOL    HW1 2555   0.833   2.213   1.658 -0.0958  0.4132 -0.1004
  852SOL    HW2 2556   0.733   2.108   1.743  0.3502  1.7055 -1.2097
  853SOL     OW 2557   2.534   1.516   2.605 -0.2398 -0.1291  0.0722
  853SOL    HW1 2558   2.457   1.455   2.573  0.0492  0.4614 -1.1269
  853SOL    HW2 2559   2.542   1.612   2.568 -1.7313  2.7459 -0.9027
  854SOL     OW 2560   2.377   1.403   1.716 -0.0177  0.5348 -0.1946
  854SOL    HW1 2561   2.436   1.368   1.634 -2.3081  2.0778 -1.6017
  854SOL    HW2 2562   2.323   1.325   1.756 -1.4660 -0.6167 -0.9105
  855SOL     OW 2563   2.018   2.413   1.031 -0.2333  0.0822 -0.6241
  855SOL    HW1 2564   1.982   2.509   1.027  3.4883  0.2779 -2.7194
  855SOL    HW2 2565   2.100   2.412   1.087 -3.7672  1.1484 -0.1665
  856SOL     OW 2566   1.322   1.455   0.950  0.1199  0.6399  0.1556
  856SOL    HW1 2567   1.375   1.535   0.987  0.6585 -0.2866 -0.0353
  856SOL    HW2 2568   1.228   1.452   0.986  0.0788  0.3151  0.6124
  857SOL     OW 2569   3.026   2.714   0.944  0.2669  0.4317  0.0104
  857SOL    HW1 2570   3.045   2.654   0.859  0.6122 -0.6345 -0.8474
  857SOL    HW2 2571   3.101   2.722   1.005 -2.0888 -1.8067 -0.6499
  858SOL     OW 2572   2.335   2.099   1.704 -0.3518  0.3885 -0.0737
  858SOL    HW1 2573   2.257   2.090   1.635  1.8474 -0.2098 -1.7010
  858SOL    HW2 2574   2.416   2.034   1.692  0.5476 -1.8964  1.8587
  859SOL     OW 2575   2.485   0.525   1.038  0.2139 -0.1266 -0.4558
  859SOL    HW1 2576   2.523   0.584   0.960  0.0804 -0.4539  1.6283
  859SOL    HW2 2577   2.545   0.449   1.071 -1.2722 -0.3111 -0.1248
  860SOL     OW 2578   1.971   2.790   0.418  0.6009 -0.1578  0.0709
  860SOL    HW1 2579   1.917   2.767   0.335 -2.4151 -0.3223 -3.2725
  860SOL    HW2 2580   2.072   2.814   0.400 -0.3731  0.5638 -0.0188
  861SOL     OW 2581   1.006   2.402   2.863  0.0802  0.3986 -0.2768
  861SOL    HW1 2582   1.020   2.506   2.856 -0.7483  2.0938  0.6459
  861SOL    HW2 2583   1.062   2.368   2.946  1.6591  1.8471  0.9434
  862SOL     OW 2584   2.861   2.546   1.630 -0.1999 -0.6819 -0.3112
  862SOL    HW1 2585   2.946   2.575   1.686 -1.5193  2.2064  0.2918
  862SOL    HW2 2586   2.830   2.628   1.573  0.2997  0.6391  0.2136
  863SOL     OW 2587   1.855   2.723   0.191  0.1679  0.4391 -0.2320
  863SOL    HW1 2588   1.900   2.629   0.182 -0.9355 -0.1621 -0.4778
  863SOL    HW2 2589   1.752   2.718   0.169  0.1719 -0.5487  2.1838
  864SOL     OW 2590   1.963   1.221   2.834 -0.3989 -0.0626  0.3722
  864SOL    HW1 2591   1.992   1.198   2.739  1.1782  0.4581  0.6030
  864SOL    HW2 2592   2.025   1.176   2.903 -0.2933 -0.7070  2.0968
  865SOL     OW 2593   2.184   1.901   0.656 -0.3541 -0.3514  0.4113
  865SOL    HW1 2594   2.241   1.940   0.734 -0.0494 -1.0919 -0.5335
  865SOL    HW2 2595   2.118   1.831   0.692  0.7602 -1.2495  1.3263
  866SOL     OW 2596   2.843   2.913   0.998  0.3211 -0.4867 -0.4287
  866SOL    HW1 2597   2.846   2.985   0.924  0.3247 -0.8630  1.2526
  866SOL    HW2 2598   2.906   2.838   0.975  0.6539 -0.5051 -1.7495
  867SOL     OW 2599   0.404   1.405   0.864  0.4540  0.8194  0.2891
  867SOL    HW1 2600   0.376   1.325   0.800 -0.1187 -0.8774 -3.0644
  867SOL    HW2 2601   0.379   1.492   0.820  2.6409 -1.1136  2.4724
  868SOL     OW 2602   0.764   1.898   2.097  0.4385 -0.3389 -0.7364
  868SOL    HW1 2603   0.763   1.923   2.197  1.0559 -0.1484 -1.8734
  868SOL    HW2 2604   0.728   1.979   2.039 -2.6659  1.6724 -3.1072
  869SOL     OW 2605   2.545   1.935   1.669 -0.2660 -0.1034 -0.0318
  869SOL    HW1 2606   2.635   1.982   1.653 -3.1015 -0.9949 -0.5244
  869SOL    HW2 2607   2.545   1.831   1.688 -0.6584 -1.3526 -1.7945
  870SOL     OW 2608   2.284   2.684   1.209 -0.7146  0.1150  0.4945
  870SOL    HW1 2609   2.287   2.583   1.203  1.3996  1.1060 -0.9125
  870SOL    HW2 2610   2.302   2.709   1.307 -2.4487 -2.4166 -3.8055
  871SOL     OW 2611   3.095   2.249   0.565 -0.8419 -0.5003  0.0819
  871SOL    HW1 2612   3.051   2.252   0.659  1.7514  1.3507 -0.7685
  871SOL    HW2 2613   3.024   2.262   0.491  0.2492 -1.1511  1.9700
  872SOL     OW 2614   2.100   0.516   1.706 -0.1217  0.4882  0.1216
  872SOL    HW1 2615   2.046   0.471   1.785  0.1583 -2.3912  0.9633
  872SOL    HW2 2616   2.200   0.493   1.708  0.4877  1.6138  0.7471
  873SOL     OW 2617   1.737   2.135   3.072 -0.2063  0.0321 -0.0934
  873SOL    HW1 2618   1.643   2.145   3.117 -2.4901 -0.9793 -0.9783
  873SOL    HW2 2619   1.730   2.130   2.970 -2.3008  0.0805 -0.5616
  874SOL     OW 2620   0.674   2.441   0.742  0.0099  0.2626 -0.5227
  874SOL    HW1 2621   0.646   2.542   0.760  0.7852  0.7264  1.4234
  874SOL    HW2 2622   0.760   2.412   0.784 -0.9266 -3.6429 -1.4119
  875SOL     OW 2623   2.308   1.511   1.421  0.3387 -0.6713 -0.2281
  875SOL    HW1 2624   2.394   1.533   1.469 -1.7309 -3.5252 -2.1853
  875SOL    HW2 2625   2.318   1.521   1.321  0.3404  0.2171 -2.2337
  876SOL     OW 2626   0.058   2.318   2.689 -0.1333  0.0169  0.1344
  876SOL    HW1 2627   0.097   2.227   2.721  2.0865 -0.9171 -0.0777
  876SOL    HW2 2628   0.100   2.392   2.747 -1.2236 -3.5370  0.4871
  877SOL     OW 2629   2.966   2.692   0.496 -0.4308 -0.1719 -0.1196
  877SOL    HW1 2630   2.922   2.779   0.533  0.7805  2.2992  0.8075
  877SOL    HW2 2631   2.988   2.627   0.572 -1.2867 -2.4159 -0.2436
  878SOL     OW 2632   2.784   1.536   2.231 -0.0711 -0.2323  0.1436
  878SOL    HW1 2633   2.761   1.607   2.161 -0.3946 -1.0761 -1.2433
  878SOL    HW2 2634   2.802   1.568   2.329 -0.9322  0.4286 -0.1246
  879SOL     OW 2635   2.422   0.097   1.243 -0.2279  0.2037 -0.9836
  879SOL    HW1 2636   2.445   0.003   1.284  1.5654  0.0950 -0.8882
  879SOL    HW2 2637   2.364   0.089   1.157 -1.0403 -1.1904 -2.3693
  880SOL     OW 2638   0.780   0.497   2.211  0.1476  0.1030  0.0140
  880SOL    HW1 2639   0.734   0.429   2.277 -0.4569 -0.8916 -0.5406
  880SOL    HW2 2640   0.785   0.457   2.115  0.9077  1.6442 -2.1862
  881SOL     OW 2641   0.909   0.077   0.472 -0.0840 -0.5097  0.4218
  881SOL    HW1 2642   0.942  -0.010   0.517 -0.4001 -1.2682  0.2574
  881SOL    HW2 2643   0.808   0.083   0.452  2.3494 -2.3529  0.3907
  882SOL     OW 2644   2.719   1.709   1.700 -0.2365 -0.6056  0.3971
  882SOL    HW1 2645   2.777   1.655   1.630  2.1298  1.2279 -1.9919
  882SOL    HW2 2646   2.744   1.677   1.795  0.0201  2.6333 -1.9888
  883SOL     OW 2647   0.876   0.517   0.941  0.1879  0.7962  0.0488
  883SOL    HW1 2648   0.900   0.606   0.990 -2.0260 -0.7596 -0.3636
  883SOL    HW2 2649   0.863   0.445   1.010  1.8325  0.4761 -0.4244
  884SOL     OW 2650   1.126   1.716   1.176  0.3108 -0.2756  0.0414
  884SOL    HW1 2651   1.093   1.627   1.137  2.7107  1.0072  3.2774
  884SOL    HW2 2652   1.101   1.800   1.115 -0.1342  3.0926 -2.6628
  885SOL     OW 2653   2.325   1.784   2.284  0.1954 -0.4391  0.0002
  885SOL    HW1 2654   2.239   1.746   2.331 -1.2665 -3.8416 -0.3290
  885SOL    HW2 2655   2.328   1.884   2.257  0.6522 -0.4480 -3.2095
  886SOL     OW 2656   2.593   0.365   1.819 -0.0337 -0.5609  0.0291
  886SOL    HW1 2657   2.591   0.313   1.908 -0.7321  0.3754 -1.3246
  886SOL    HW2 2658   2.680   0.412   1.794  1.2920 -1.8350 -3.9543
  887SOL     OW 2659   0.112   1.978   1.331 -0.1458 -0.1305  0.4559
  887SOL    HW1 2660   0.092   1.919   1.250 -0.2444 -1.7261  0.8767
  887SOL    HW2 2661   0.075   2.072   1.320 -0.8264 -1.2356 -2.2069
  888SOL     OW 2662   0.549   1.232   1.537 -0.4075  0.1559  0.4160
  888SOL    HW1 2663   0.592   1.269   1.451 -1.8724 -2.8846  2.0047
  888SOL    HW2 2664   0.491   1.147   1.523 -2.4980 -0.3848  1.0423
  889SOL     OW 2665   0.817   2.505   2.151 -0.4875  0.1975 -0.1905
  889SOL    HW1 2666   0.750   2.430   2.140  2.4032  1.4746  0.0334
  889SOL    HW2 2667   0.902   2.498   2.095  0.3382 -0.3546  1.5926
  890SOL     OW 2668   2.411   2.489   0.228  0.2538  0.0067  0.0215
  890SOL    HW1 2669   2.426   2.553   0.147 -0.7781 -1.5583 -3.6142
  890SOL    HW2 2670   2.362   2.527   0.311  0.1205 -0.3620  0.3772
  891SOL     OW 2671   2.505   1.704   0.617 -0.1082  0.1023  0.2124
  891SOL    HW1 2672   2.479   1.666   0.712  3.0316  0.9038  3.0630
  891SOL    HW2 2673   2.432   1.676   0.547 -1.1582  0.9815 -1.6903
  892SOL     OW 2674   0.360   0.267   2.338 -0.4341 -0.1751 -0.1224
  892SOL    HW1 2675   0.398   0.359   2.314 -0.5284 -0.1013  0.2130
  892SOL    HW2 2676   0.421   0.189   2.311 -1.2983  1.2595  1.6444
  893SOL     OW 2677   1.636   0.222   2.728  0.1542  0.3256  0.0334
  893SOL    HW1 2678   1.711   0.291   2.741 -0.7970  1.7773 -0.1705
  893SOL    HW2 2679   1.547   0.274   2.710 -1.6669  3.9528 -1.4691
  894SOL     OW 2680   2.187   2.062   0.052 -0.3577 -0.6626 -0.0562
  894SOL    HW1 2681   2.187   2.019  -0.041 -0.1075  2.5643  0.2659
  894SOL    HW2 2682   2.202   1.990   0.126 -1.1063 -0.5461 -3.3606
  895SOL     OW 2683   2.838   1.466   0.907  0.4225 -0.2980  0.0222
  895SOL    HW1 2684   2.920   1.415   0.933 -1.4918 -1.5230  0.5259
  895SOL    HW2 2685   2.834   1.567   0.939 -0.3736  0.1909  2.2068
  896SOL     OW 2686   1.760   1.814   1.176 -0.8997 -0.0770 -0.4118
  896SOL    HW1 2687   1.797   1.727   1.136  0.2668 -0.2052 -1.4698
  896SOL    HW2 2688   1.667   1.842   1.138 -1.6061 -0.3277 -0.9726
  897SOL     OW 2689   0.300   0.552   3.039  0.5338  0.2935 -0.3819
  897SOL    HW1 2690   0.237   0.594   2.964 -0.0029 -1.4215  0.0830
  897SOL    HW2 2691   0.387   0.602   3.053 -0.1915 -0.4895  1.8423
  898SOL     OW 2692   0.609   2.880   1.043 -0.4019 -0.1849  0.1577
  898SOL    HW1 2693   0.635   2.973   1.014 -1.9801 -0.8750 -0.0098
  898SOL    HW2 2694   0.684   2.833   1.090 -2.6043  0.6426  0.5449
  899SOL     OW 2695   2.845   0.879   1.360  0.3914  0.8759 -0.0022
  899SOL    HW1 2696   2.793   0.860   1.274 -1.0859 -1.0974 -0.7046
  899SOL    HW2 2697   2.942   0.904   1.338  1.7945  2.2179 -2.1806
  900SOL     OW 2698   1.013   2.512   2.431  0.2093 -0.0357  0.1559
  900SOL    HW1 2699   0.939   2.495   2.367  2.4882  2.3587  0.6349
  900SOL    HW2 2700   0.982   2.486   2.527 -2.0645  0.7530  4.0885
  901SOL     OW 2701   1.901   2.386   1.366 -0.0312  0.0060  0.1907
  901SOL    HW1 2702   1.912   2.328   1.277  1.2976 -1.7183 -1.7025
  901SOL    HW2 2703   1.988   2.380   1.423  0.2399 -2.1116  0.8123
  902SOL     OW 2704   2.564   1.641   1.460  0.4752  0.1383 -0.5779
  902SOL    HW1 2705   2.586   1.664   1.558 -2.1629 -0.1801 -0.6422
  902SOL    HW2 2706   2.651   1.644   1.400  2.1028  1.4001  0.4397
  903SOL     OW 2707   0.257   2.442   1.972 -0.0410 -0.1612  0.3288
  903SOL    HW1 2708   0.162   2.402   1.967 -1.2771  1.1667 -2.8901
  903SOL    HW2 2709   0.265   2.529   1.918 -0.1208  0.9079 -0.7882
  904SOL     OW 2710   1.987   0.788   2.578  0.4351  0.1693 -0.1919
  904SOL    HW1 2711   1.907   0.719   2.597  0.5677 -1.8343  0.9351
  904SOL    HW2 2712   2.007   0.783   2.476 -0.1314 -0.4289  0.4802
  905SOL     OW 2713   2.856   0.111   2.529 -1.5391  0.1236  0.4672
  905SOL    HW1 2714   2.912   0.038   2.572  0.3648  0.8913 -0.4437
  905SOL    HW2 2715   2.908   0.185   2.478  1.2106  1.3381  0.0226
  906SOL     OW 2716   0.146   1.686   1.918  0.4103  0.5903  0.5215
  906SOL    HW1 2717   0.071   1.722   1.846 -0.0974  2.9416 -1.3149
  906SOL    HW2 2718   0.244   1.678   1.880  2.0435  1.4362 -0.4462
  907SOL     OW 2719   0.215   2.427   0.986  0.3913  0.0244  0.3002
  907SOL    HW1 2720   0.309   2.390   0.974  0.5102  1.1136  0.8615
  907SOL    HW2 2721   0.202   2.515   0.934 -1.3324  0.1282  0.9365
  908SOL     OW 2722   2.807   3.037   0.376  0.1383  0.1808  0.9265
  908SOL    HW1 2723   2.707   3.037   0.341 -3.1059  1.1382 -1.1983
  908SOL    HW2 2724   2.862   2.979   0.311  0.8445 -2.6188  1.5126
  909SOL     OW 2725   0.851   1.057   2.650 -0.0335 -0.0802 -0.5109
  909SOL    HW1 2726   0.801   0.966   2.627  1.9457  0.1097 -0.9593
  909SOL    HW2 2727   0.910   1.093   2.572  0.9361 -0.6451  1.5435
  910SOL     OW 2728   1.805   1.885   2.156  0.0794  0.2642 -0.1719
  910SOL    HW1 2729   1.851   1.888   2.065  0.3674  0.4455  1.3327
  910SOL    HW2 2730   1.740   1.960   2.167  2.3804 -0.7103  0.4411
  911SOL     OW 2731   1.820   2.917   1.564 -0.5651  0.1489  0.1036
  911SOL    HW1 2732   1.881   2.893   1.479  1.6963 -0.7719 -0.8644
  911SOL    HW2 2733   1.831   2.844   1.637  0.9186  0.7511  0.7846
  912SOL     OW 2734   2.848   1.008   0.705 -0.1074 -0.2454  0.2625
  912SOL    HW1 2735   2.894   0.996   0.801 -0.4232  2.6653  0.9230
  912SOL    HW2 2736   2.784   1.091   0.707 -1.7711 -1.1096 -3.7402
  913SOL     OW 2737   2.527   1.284   1.524  0.4151  0.2163  0.1509
  913SOL    HW1 2738   2.534   1.184   1.499 -2.4459 -3.5624  1.1891
  913SOL    HW2 2739   2.585   1.347   1.464 -1.2457  1.6462  0.1269
  914SOL     OW 2740   2.785   0.607   1.161 -0.2495 -0.6799  0.3857
  914SOL    HW1 2741   2.832   0.525   1.203 -0.7572  3.4613 -1.5142
  914SOL    HW2 2742   2.685   0.621   1.183  1.4361 -0.9795  1.9329
  915SOL     OW 2743   1.212   0.722   1.029 -0.7951 -0.1854  0.1574
  915SOL    HW1 2744   1.247   0.766   1.120  3.5713  1.4175  1.0019
  915SOL    HW2 2745   1.111   0.704   1.036 -0.5429  0.5003 -2.1163
  916SOL     OW 2746   0.625   0.038   0.650 -0.1012 -0.5436 -0.1245
  916SOL    HW1 2747   0.693   0.094   0.711  1.6843  2.1974 -2.1140
  916SOL    HW2 2748   0.573   0.094   0.583  1.0473 -0.8619  2.1652
  917SOL     OW 2749   2.856   2.581   2.014 -0.9404  0.1628  0.1202
  917SOL    HW1 2750   2.768   2.611   1.966  1.5091 -0.0187 -2.7151
  917SOL    HW2 2751   2.939   2.623   1.968  1.0182  2.9888  2.8693
  918SOL     OW 2752   1.008   2.116   2.996  0.4078  0.0230  0.6771
  918SOL    HW1 2753   0.971   2.181   3.070  0.0774 -0.5860  1.1755
  918SOL    HW2 2754   1.095   2.137   2.945  0.5995  0.2067  2.2805
  919SOL     OW 2755   0.812   1.681   2.874 -0.0283 -0.1291 -0.1100
  919SOL    HW1 2756   0.882   1.735   2.819 -0.2578  1.2985 -0.3700
  919SOL    HW2 2757   0.772   1.608   2.811 -1.8358  0.3111 -1.6488
  920SOL     OW 2758   1.252   1.812   2.563  0.1429 -0.2005 -0.2775
  920SOL    HW1 2759   1.329   1.768   2.510 -0.1123  2.2777 -2.8548
  920SOL    HW2 2760   1.178   1.753   2.600 -0.8714  2.7583  1.1079
  921SOL     OW 2761   1.108   3.100   2.613  0.2232  0.1984 -0.2825
  921SOL    HW1 2762   1.075   3.058   2.522 -0.5177  0.1725  2.2505
  921SOL    HW2 2763   1.032   3.114   2.680  0.6456  1.5067  3.3064
  922SOL     OW 2764   2.232   2.393   2.773 -0.1486  0.4502 -0.4861
  922SOL    HW1 2765   2.226   2.292   2.750  3.4572 -4.0247  1.2925
  922SOL    HW2 2766   2.181   2.451   2.700  1.1924  2.6497 -1.7658
  923SOL     OW 2767   1.265   2.652   0.274 -0.2307 -0.1497  0.0184
  923SOL    HW1 2768   1.336   2.704   0.336  2.7648  1.8189  0.9860
  923SOL    HW2 2769   1.297   2.554   0.254  0.3548 -1.8374 -1.2311
  924SOL     OW 2770   2.863   1.697   0.087 -0.5271 -0.1277 -0.2366
  924SOL    HW1 2771   2.795   1.653   0.025 -1.5280 -0.4789 -0.0387
  924SOL    HW2 2772   2.946   1.635   0.112  1.3873 -0.3655  0.6043
  925SOL     OW 2773   0.048   2.880   1.468 -0.5430  0.2073 -0.2410
  925SOL    HW1 2774  -0.003   2.842   1.548 -1.2604  0.9287  0.6782
  925SOL    HW2 2775   0.066   2.801   1.401  0.5384 -3.1831  1.1429
  926SOL     OW 2776   1.344   2.820   1.340 -0.4563 -0.6922 -0.1066
  926SOL    HW1 2777   1.371   2.829   1.237 -1.2725  1.7737 -2.7177
  926SOL    HW2 2778   1.346   2.917   1.383  2.2032  1.4235 -0.8812
  927SOL     OW 2779   0.328   2.699   1.759 -0.2164 -0.1794  0.1478
  927SOL    HW1 2780   0.299   2.633   1.683 -0.9590 -1.3610 -1.6121
  927SOL    HW2 2781   0.285   2.794   1.743 -1.5237  0.4073  1.0727
  928SOL     OW 2782   1.606   2.088   2.227 -0.6579  0.0319 -0.0690
  928SOL    HW1 2783   1.608   2.159   2.151  1.6166  0.4478 -0.6834
  928SOL    HW2 2784   1.518   2.055   2.260  0.3536 -1.4911 -0.4609
  929SOL     OW 2785   2.453   2.514   2.867  0.8464  0.0437 -0.8730
  929SOL    HW1 2786   2.363   2.471   2.841  0.1129 -0.8638  3.5358
  929SOL    HW2 2787   2.520   2.483   2.795 -2.1396 -0.7248 -0.4131
  930SOL     OW 2788   2.143   1.995   1.094  0.0545  0.8405 -0.2665
  930SOL    HW1 2789   2.120   1.916   1.167 -0.5329  1.8753  0.6840
  930SOL    HW2 2790   2.229   2.050   1.119  1.0733 -0.8538  0.4595
  931SOL     OW 2791   0.534   1.736   2.661 -0.0920  0.1369  0.6695
  931SOL    HW1 2792   0.527   1.752   2.764 -0.1132 -1.9518  0.2329
  931SOL    HW2 2793   0.601   1.661   2.629  0.3933 -1.9398  1.6573
  932SOL     OW 2794   0.465   0.120   3.076  0.7328  0.1758  0.3292
  932SOL    HW1 2795   0.522   0.181   3.134 -3.5000 -1.1383 -1.5746
  932SOL    HW2 2796   0.518   0.038   3.045  0.6128 -0.3336 -0.6703
  933SOL     OW 2797   0.931   0.820   3.044  0.3896 -0.0579  0.0714
  933SOL    HW1 2798   0.835   0.798   3.083  0.2801  1.2398  0.8875
  933SOL    HW2 2799   0.936   0.913   2.998 -0.4517 -0.9817 -0.8859
  934SOL     OW 2800   0.786   2.968   2.657 -0.3119 -0.6059 -0.0141
  934SOL    HW1 2801   0.761   2.903   2.580 -0.9214 -0.2246 -0.3848
  934SOL    HW2 2802   0.852   2.919   2.727  1.3230 -0.4796  2.9294
  935SOL     OW 2803   0.018   0.504   0.850 -0.2269  0.6380 -0.1970
  935SOL    HW1 2804   0.022   0.494   0.748  3.0912 -0.0056 -2.1586
  935SOL    HW2 2805  -0.046   0.579   0.879 -0.4628 -1.5259 -0.5722
  936SOL     OW 2806   1.098   2.829   0.099  0.1914 -0.1242 -0.2192
  936SOL    HW1 2807   1.147   2.896   0.035 -0.9577 -2.6429 -0.2871
  936SOL    HW2 2808   1.172   2.779   0.156  1.4346 -0.1007  2.2302
  937SOL     OW 2809   1.828   2.667   2.085  0.0710 -0.5162  0.4073
  937SOL    HW1 2810   1.737   2.718   2.080  0.7646 -0.6036  0.3846
  937SOL    HW2 2811   1.901   2.721   2.040  1.2457 -2.3822  2.0878
  938SOL     OW 2812   2.777   2.059   1.636 -0.0639  0.2137 -0.5698
  938SOL    HW1 2813   2.746   2.157   1.643  1.8895 -0.6418  1.8522
  938SOL    HW2 2814   2.852   2.034   1.703 -1.2052 -1.5379  0.2366
  939SOL     OW 2815   2.818   1.184   2.412 -0.0895  0.0140  0.1066
  939SOL    HW1 2816   2.880   1.189   2.323  2.1839 -2.1542 -1.7768
  939SOL    HW2 2817   2.862   1.128   2.489  2.5445  0.7829 -0.8592
  940SOL     OW 2818   1.071   0.440   2.790 -0.2234 -0.3920 -0.3882
  940SOL    HW1 2819   1.132   0.356   2.791  0.9107  1.1326  1.3596
  940SOL    HW2 2820   1.004   0.439   2.711 -3.2839  2.0514  0.5305
  941SOL     OW 2821   0.020   2.784   2.298 -0.2833 -0.1450 -0.2353
  941SOL    HW1 2822   0.079   2.706   2.263 -0.9046  1.0669  1.7972
  941SOL    HW2 2823   0.081   2.856   2.349  1.5596  1.0023  1.2419
  942SOL     OW 2824   0.132   0.070   2.571 -0.1189 -0.5189 -0.3638
  942SOL    HW1 2825   0.185   0.098   2.654 -3.0453 -2.0991  0.7222
  942SOL    HW2 2826   0.116   0.147   2.505 -1.1549 -1.6325  2.2685
  943SOL     OW 2827   2.106   1.673   2.396  0.1318 -0.4134 -0.3180
  943SOL    HW1 2828   2.067   1.614   2.322 -0.0119  1.7531  2.1527
  943SOL    HW2 2829   2.104   1.610   2.480 -2.0339 -0.5496 -2.8292
  944SOL     OW 2830   2.157   2.373   1.466 -0.2246 -0.3220  0.0668
  944SOL    HW1 2831   2.245   2.402   1.507  2.5784  1.2837 -2.9659
  944SOL    HW2 2832   2.119   2.290   1.516 -1.4079 -1.2652 -0.7844
  945SOL     OW 2833   0.667   1.572   0.142  0.2534  0.1152  0.4982
  945SOL    HW1 2834   0.573   1.586   0.093 -0.2044  1.2233  1.1940
  945SOL    HW2 2835   0.670   1.487   0.203  0.0664  0.3478  0.9035
  946SOL     OW 2836   0.436   0.959   2.508  0.2446 -0.1158 -0.4419
  946SOL    HW1 2837   0.358   0.893   2.491  0.7692 -2.5750  1.2570
  946SOL    HW2 2838   0.414   1.059   2.499 -1.5760 -0.8348  2.3764
  947SOL     OW 2839   1.508   0.482   3.061 -0.6804 -0.1673 -0.2517
  947SOL    HW1 2840   1.467   0.517   2.975  1.8522 -1.3392  3.2696
  947SOL    HW2 2841   1.434   0.448   3.130 -0.4001 -1.8752  0.7428
  948SOL     OW 2842   1.858   3.007   2.124 -0.3703  0.0088 -0.8436
  948SOL    HW1 2843   1.899   2.960   2.044  0.3510  2.5251 -0.5124
  948SOL    HW2 2844   1.806   2.939   2.187 -1.8952 -2.2012 -0.7484
  949SOL     OW 2845   0.649   2.500   0.471  0.1041 -0.5201  0.2005
  949SOL    HW1 2846   0.657   2.604   0.477 -1.4790 -0.4814  0.5858
  949SOL    HW2 2847   0.672   2.462   0.565 -1.4601  4.7481  1.0091
  950SOL     OW 2848   0.223   2.225   3.024  0.4608 -0.2025  0.5029
  950SOL    HW1 2849   0.149   2.299   3.024 -1.8848 -1.3226 -2.2698
  950SOL    HW2 2850   0.226   2.173   2.929  2.5012 -0.9739  0.3031
  951SOL     OW 2851   1.158   2.635   2.820 -0.0478 -0.0368  0.3323
  951SOL    HW1 2852   1.204   2.557   2.875 -0.1640 -0.1155  0.4419
  951SOL    HW2 2853   1.220   2.682   2.754 -2.5277 -1.8874  0.6855
  952SOL     OW 2854   0.035   1.672   0.409  0.3873 -0.3907 -0.4120
  952SOL    HW1 2855   0.078   1.765   0.413  3.6802 -2.7951 -0.0748
  952SOL    HW2 2856   0.100   1.599   0.435 -3.9478  3.3378 -0.8212
  953SOL     OW 2857   2.564   1.762   0.229 -0.3608 -0.0946 -0.2117
  953SOL    HW1 2858   2.547   1.659   0.254  1.4458 -1.3672  4.2962
  953SOL    HW2 2859   2.516   1.797   0.145  1.3918 -0.9367 -0.3775
  954SOL     OW 2860   2.212   0.549   0.959  0.2265 -0.4719 -0.7445
  954SOL    HW1 2861   2.198   0.578   0.858  1.5771  1.6601 -3.0538
  954SOL    HW2 2862   2.307   0.514   0.970  1.2938 -0.7631  0.5173
  955SOL     OW 2863   0.139   2.572   1.385  0.1585  0.0149  0.0141
  955SOL    HW1 2864   0.040   2.601   1.358  0.6767  1.6031  0.0689
  955SOL    HW2 2865   0.211   2.599   1.321  2.1012 -0.0408  0.3298
  956SOL     OW 2866   2.810   2.446   2.501 -0.1226  0.0204 -0.1289
  956SOL    HW1 2867   2.824   2.344   2.491 -0.4073 -0.2524 -0.6240
  956SOL    HW2 2868   2.867   2.507   2.434  1.7958  0.3961 -3.1421
  957SOL     OW 2869   1.616   2.127   2.797 -0.8083 -0.1782 -0.2652
  957SOL    HW1 2870   1.595   2.037   2.756 -0.8280 -0.8849  1.0481
  957SOL    HW2 2871   1.715   2.167   2.786 -0.5638  0.5789  1.6519
  958SOL     OW 2872   2.564   2.286   2.975 -0.3669 -0.1885 -0.1834
  958SOL    HW1 2873   2.540   2.380   2.940 -0.2218 -0.8232  0.9970
  958SOL    HW2 2874   2.491   2.267   3.050 -1.9811 -1.8161 -0.1870
  959SOL     OW 2875   0.298   2.778   0.031 -0.0344 -0.1513 -0.0218
  959SOL    HW1 2876   0.195   2.785   0.013  1.9537 -0.6843 -2.3937
  959SOL    HW2 2877   0.319   2.702   0.097  0.0662 -0.9893  0.7184
  960SOL     OW 2878   1.980   0.488   1.953 -0.1732 -0.0308  0.4907
  960SOL    HW1 2879   1.916   0.566   1.918 -2.0999 -1.0036  0.4902
  960SOL    HW2 2880   1.993   0.497   2.053 -1.5026  0.6127  0.6457
  961SOL     OW 2881   2.554   1.867   1.060 -0.0483 -0.3813 -0.1697
  961SOL    HW1 2882   2.576   1.965   1.028 -1.8086 -1.1579 -1.1997
  961SOL    HW2 2883   2.508   1.865   1.152  0.9944  2.6869  1.3385
  962SOL     OW 2884   1.293   0.911   0.043 -0.1661  0.0772 -0.9755
  962SOL    HW1 2885   1.254   0.943  -0.044  1.0762  4.1769  0.8794
  962SOL    HW2 2886   1.283   0.983   0.117  0.5767 -2.8430 -1.2238
  963SOL     OW 2887   2.291   2.533   1.765  0.0220 -0.0168  0.0782
  963SOL    HW1 2888   2.244   2.449   1.819  1.8725 -0.1917  2.2488
  963SOL    HW2 2889   2.301   2.622   1.819 -0.3132 -1.4672 -0.8689
  964SOL     OW 2890   2.373   0.391   1.646 -0.3362 -0.2937  0.4829
  964SOL    HW1 2891   2.466   0.395   1.695 -1.2488 -0.3782  0.6157
  964SOL    HW2 2892   2.383   0.377   1.541 -0.0627 -0.4744 -3.0444
  965SOL     OW 2893   2.606   2.980   0.161 -0.1237  0.3722 -0.1361
  965SOL    HW1 2894   2.693   2.965   0.104  1.2276 -0.0929 -0.0835
  965SOL    HW2 2895   2.521   3.005   0.103 -1.0812  1.1261 -0.9589
  966SOL     OW 2896   2.567   2.560   2.342  0.1869 -0.1642  0.4323
  966SOL    HW1 2897   2.638   2.625   2.386  0.4023  1.7452 -0.0758
  966SOL    HW2 2898   2.492   2.606   2.289  1.3094 -1.2540 -1.3213
  967SOL     OW 2899   2.777   2.851   2.439 -0.5284  0.4885 -0.5348
  967SOL    HW1 2900   2.807   2.774   2.374 -2.8976 -1.9284  1.0243
  967SOL    HW2 2901   2.841   2.864   2.521 -0.8513 -0.4450  1.6381
  968SOL     OW 2902   1.939   1.070   2.598 -0.0497 -0.0183 -0.4324
  968SOL    HW1 2903   1.852   1.116   2.557  0.6778 -1.9423 -0.2172
  968SOL    HW2 2904   1.940   0.971   2.574 -1.4661  2.2420 -0.5729
  969SOL     OW 2905   2.759   2.481   1.134 -0.0565  0.6038  0.1332
  969SOL    HW1 2906   2.735   2.478   1.033  1.4144  2.2268 -0.0081
  969SOL    HW2 2907   2.806   2.396   1.171 -1.9255 -1.0192  1.2754
  970SOL     OW 2908   1.052   2.115   1.806  0.0784 -0.5748 -0.2863
  970SOL    HW1 2909   0.969   2.093   1.747 -0.3246 -0.0727  1.0869
  970SOL    HW2 2910   1.030   2.149   1.902 -0.1325  1.8240 -0.0664
  971SOL     OW 2911   2.972   2.044   2.048  0.4701 -0.5036  0.3031
  971SOL    HW1 2912   2.959   2.148   2.070  0.6099  2.4312 -0.2560
  971SOL    HW2 2913   2.986   2.021   1.943  1.5124  1.0214 -3.5933
  972SOL     OW 2914   1.993   2.474   0.226 -0.1824 -0.3780 -0.0140
  972SOL    HW1 2915   2.002   2.383   0.182  2.6587  2.7261  0.6669
  972SOL    HW2 2916   2.008   2.473   0.331 -2.1453  2.9528  1.9127
  973SOL     OW 2917   1.233   1.042   1.905 -0.1576  0.3966 -0.1363
  973SOL    HW1 2918   1.141   1.023   1.862  1.4720 -2.1554  2.2684
  973SOL    HW2 2919   1.233   1.137   1.952 -0.3804  1.3929  0.1400
  974SOL     OW 2920   1.560   0.585   1.927 -0.0538 -0.4348  0.4745
  974SOL    HW1 2921   1.653   0.618   1.907  0.2008 -0.5203 -0.6868
  974SOL    HW2 2922   1.499   0.666   1.929  1.5983 -0.2889  0.4068
  975SOL     OW 2923   2.373   3.052   3.087  0.2711 -0.2977 -0.2542
  975SOL    HW1 2924   2.296   2.983   3.096  0.1945  0.8922 -0.1147
  975SOL    HW2 2925   2.368   3.109   2.999 -3.2416 -1.3905 -0.8848
  976SOL     OW 2926   1.896   2.813   2.342  0.2368  0.0065 -0.1362
  976SOL    HW1 2927   1.827   2.740   2.306 -2.6279 -0.2986  2.0538
  976SOL    HW2 2928   1.901   2.830   2.441  0.6400  1.8621 -1.1453
  977SOL     OW 2929   0.486   0.673   1.063 -0.0488  0.4139  0.2516
  977SOL    HW1 2930   0.423   0.684   0.986 -1.3850  3.0157  0.5401
  977SOL    HW2 2931   0.571   0.726   1.048  2.5494  1.6164  0.1204
   3.10000   3.10000   3.10000
