1000 SPC/Fw water molecules t=   0.28000 step= 280
 2931
    1SOL     OW    1   2.553   0.308   2.536 -0.1275 -0.3160  0.3740
    1SOL    HW1    2   2.561   0.208   2.530 -1.9778  1.5388 -0.6850
    1SOL    HW2    3   2.549   0.340   2.634  2.6884 -0.4092  0.3965
    2SOL     OW    4   2.721   3.010   1.395  0.2001  0.0341 -0.4166
    2SOL    HW1    5   2.813   3.032   1.353  2.6579  4.4638 -0.8045
    2SOL    HW2    6   2.679   3.093   1.440  1.0511 -1.1414  1.7418
    3SOL     OW    7   2.708   2.586   0.431 -0.8089  0.1410  0.0688
    3SOL    HW1    8   2.704   2.482   0.427  1.3039  0.2655  1.6608
    3SOL    HW2    9   2.775   2.629   0.496 -1.5167 -1.6613 -0.7964
    4SOL     OW   10   1.335   1.494   2.393 -0.1160  0.0679  0.2075
    4SOL    HW1   11   1.234   1.518   2.405  0.3298  1.3826 -0.4542
    4SOL    HW2   12   1.350   1.394   2.405 -1.0763  0.8038 -3.1342
    5SOL     OW   13   1.226   1.489   3.022 -0.0273 -0.0149 -0.0949
    5SOL    HW1   14   1.277   1.554   3.086  1.5011  0.3800 -2.5407
    5SOL    HW2   15   1.127   1.522   3.008  1.1451  0.1381 -2.3372
    6SOL     OW   16   0.032   1.825   2.932 -0.5255 -0.2004 -0.5974
    6SOL    HW1   17   0.015   1.883   3.019 -0.4197 -0.8110  2.0162
    6SOL    HW2   18   0.033   1.720   2.942 -2.2648 -1.9641  0.2002
    7SOL     OW   19   2.589   0.830   1.155 -0.3003  1.2826 -0.1441
    7SOL    HW1   20   2.494   0.805   1.190 -3.4034 -2.1567  1.0357
    7SOL    HW2   21   2.592   0.834   1.050 -1.2345 -0.6445 -0.6294
    8SOL     OW   22   0.460   0.670   1.573  0.0580 -0.2729  0.2409
    8SOL    HW1   23   0.540   0.602   1.585 -1.3676 -0.6333  0.0486
    8SOL    HW2   24   0.394   0.632   1.498 -1.6605 -2.3977  0.7741
    9SOL     OW   25   1.191   0.973   2.277 -0.0811 -0.1967  0.1045
    9SOL    HW1   26   1.246   1.052   2.231  0.3387  1.1847 -2.2373
    9SOL    HW2   27   1.143   0.919   2.210  2.4699  1.3419  0.5363
   10SOL     OW   28   0.691   1.326   1.246  0.9115 -0.7125 -0.2426
   10SOL    HW1   29   0.593   1.340   1.212 -1.2108 -0.2533  0.4307
   10SOL    HW2   30   0.747   1.419   1.257 -0.1325  0.8520  0.4538
   11SOL     OW   31   2.352   2.593   0.941 -0.0811  0.5561  0.1280
   11SOL    HW1   32   2.330   2.603   1.042  0.8552 -1.5657 -0.4872
   11SOL    HW2   33   2.432   2.538   0.915  0.6164 -0.4618 -0.1952
   12SOL     OW   34   1.458   0.893   0.439 -0.1423  0.1314 -0.5233
   12SOL    HW1   35   1.393   0.922   0.365 -0.1871 -3.1977 -1.4380
   12SOL    HW2   36   1.465   0.789   0.443 -2.0460 -0.5700  2.5996
   13SOL     OW   37   2.525   0.647   1.831  0.1860 -0.1985 -0.0193
   13SOL    HW1   38   2.427   0.662   1.856 -0.1464 -1.9723 -0.0886
   13SOL    HW2   39   2.539   0.550   1.795 -0.3647 -0.3932  0.3166
   14SOL     OW   40   1.911   3.090   0.592  0.8825  0.0176  0.5858
   14SOL    HW1   41   1.827   3.137   0.544  0.5826  1.2033 -1.6895
   14SOL    HW2   42   1.875   3.045   0.680  0.7395  1.0238  1.6045
   15SOL     OW   43   1.965   2.037   2.869  0.1589 -0.1999 -0.2321
   15SOL    HW1   44   1.889   2.100   2.904 -1.1557  0.5458  1.3560
   15SOL    HW2   45   1.925   1.974   2.795  0.0945 -0.5534  0.2437
   16SOL     OW   46   1.621   1.690   0.040  0.7792  0.1999 -0.4993
   16SOL    HW1   47   1.620   1.587   0.046  1.3128  0.1890 -0.5231
   16SOL    HW2   48   1.717   1.729   0.048 -0.4758  0.3006  2.0130
   17SOL     OW   49   0.136   0.424   0.161  0.2500 -0.1839  0.1125
   17SOL    HW1   50   0.196   0.439   0.078 -0.8057 -0.1224  0.0006
   17SOL    HW2   51   0.039   0.413   0.124 -0.2935  0.3041  0.9859
   18SOL     OW   52   1.037   2.914   2.201 -1.2841  0.3792  0.4335
   18SOL    HW1   53   0.952   2.867   2.168  0.4300  1.5526  1.1994
   18SOL    HW2   54   1.125   2.868   2.167  1.7130 -2.5007  1.3887
   19SOL     OW   55   0.480   0.946   1.945 -0.0398 -0.3728  0.2978
   19SOL    HW1   56   0.444   1.004   2.022 -0.9175 -2.5972  0.0941
   19SOL    HW2   57   0.574   0.908   1.958 -2.3428 -1.0900 -0.2150
   20SOL     OW   58   0.228   2.790   0.883 -0.0611 -0.2310  0.0180
   20SOL    HW1   59   0.138   2.824   0.841 -0.3358 -0.8179 -0.9748
   20SOL    HW2   60   0.302   2.770   0.811 -1.8369 -1.2738  1.3943
   21SOL     OW   61   2.788   0.171   2.139 -0.4311 -0.0035  0.0063
   21SOL    HW1   62   2.733   0.105   2.085  1.7425  0.9329  1.6144
   21SOL    HW2   63   2.809   0.135   2.235 -0.7977 -0.0614 -2.0112
   22SOL     OW   64   2.321   0.189   3.082  0.3089 -0.1903 -0.4401
   22SOL    HW1   65   2.329   0.091   3.071 -1.5643  1.5565  0.0085
   22SOL    HW2   66   2.225   0.218   3.109 -0.8472 -0.4196 -0.7488
   23SOL     OW   67   2.770   0.650   0.676  0.1307  0.2775 -0.2086
   23SOL    HW1   68   2.760   0.562   0.624  0.2335  2.1955  0.1709
   23SOL    HW2   69   2.755   0.741   0.622  2.9265  1.6897 -2.2701
   24SOL     OW   70   0.189   1.903   0.465  0.4580  0.6359 -0.2184
   24SOL    HW1   71   0.088   1.926   0.459 -2.6760 -0.3000  2.7416
   24SOL    HW2   72   0.246   1.909   0.376  2.7065 -0.4601 -2.1291
   25SOL     OW   73   2.257   0.496   0.187 -0.2607 -0.2455 -0.2696
   25SOL    HW1   74   2.326   0.432   0.235 -0.0555 -1.6719 -1.1855
   25SOL    HW2   75   2.258   0.495   0.081  2.7704 -1.3836  3.0887
   26SOL     OW   76   2.523   2.180   2.105 -0.2640  0.2002  0.1535
   26SOL    HW1   77   2.609   2.209   2.153 -1.3526 -1.7859 -0.4268
   26SOL    HW2   78   2.540   2.108   2.033  1.4759  1.5815 -2.2102
   27SOL     OW   79   0.676   2.968   0.091  0.6743 -0.1337 -0.0367
   27SOL    HW1   80   0.777   2.990   0.095 -0.2041 -0.7889 -1.4086
   27SOL    HW2   81   0.626   2.978   0.001 -1.7074  0.5215  0.2469
   28SOL     OW   82   1.560   0.181   0.251  0.5523 -0.7000  0.6268
   28SOL    HW1   83   1.619   0.147   0.173 -1.7500 -0.4977  0.3747
   28SOL    HW2   84   1.585   0.277   0.288  2.1358  2.7510  1.2436
   29SOL     OW   85   2.025   0.623   0.261 -0.0613 -0.9747  0.5500
   29SOL    HW1   86   2.039   0.691   0.332 -0.9960 -0.5360  0.2493
   29SOL    HW2   87   2.116   0.575   0.233  1.5261 -0.0969 -1.0901
   30SOL     OW   88   0.168   2.057   0.941 -0.8920 -0.1772  0.5313
   30SOL    HW1   89   0.140   2.054   0.840 -2.4776 -0.0541  3.5547
   30SOL    HW2   90   0.097   2.104   1.002 -0.6851  1.3891 -2.7716
   31SOL     OW   91   2.098   0.035   2.301  0.9902 -0.2471 -0.6185
   31SOL    HW1   92   2.091   0.028   2.406 -2.7956  1.4233 -1.3843
   31SOL    HW2   93   2.024  -0.020   2.249  1.5162 -0.9384 -1.1608
   32SOL     OW   94   2.913   0.130   0.135 -0.0926  0.3816 -0.3059
   32SOL    HW1   95   2.865   0.069   0.206 -1.7018  0.7908 -1.5934
   32SOL    HW2   96   2.993   0.175   0.174 -3.4500 -0.7814 -0.5498
   33SOL     OW   97   0.959   0.331   0.441  0.5169  0.6718  0.5994
   33SOL    HW1   98   0.914   0.240   0.442 -1.3829 -1.4307 -1.2023
   33SOL    HW2   99   1.026   0.346   0.520 -0.4208  1.7477 -1.4900
   34SOL     OW  100   0.419   2.890   1.057  0.1617 -0.3619  0.1284
   34SOL    HW1  101   0.348   2.846   0.994 -1.0577  0.9908  0.3224
   34SOL    HW2  102   0.516   2.875   1.020  1.0943 -0.5652  1.4052
   35SOL     OW  103   0.039   0.027   1.829 -0.2623  0.3496  0.3827
   35SOL    HW1  104   0.039  -0.072   1.850  0.3582 -0.0119  0.2011
   35SOL    HW2  105  -0.002   0.047   1.739 -2.0264 -0.9857  0.6440
   36SOL     OW  106   1.932   1.165   1.824  0.2749 -0.0473 -0.5314
   36SOL    HW1  107   2.013   1.132   1.772  0.3807 -0.6776 -0.2319
   36SOL    HW2  108   1.964   1.247   1.871  2.0150 -2.2082  0.5925
   37SOL     OW  109   1.151   0.271   0.952  0.2064 -0.5076 -0.2899
   37SOL    HW1  110   1.186   0.349   1.013  2.3729 -0.8470 -2.2909
   37SOL    HW2  111   1.210   0.186   0.962  1.4919 -0.1623 -0.4899
   38SOL     OW  112   1.121   2.684   2.396 -0.1518 -0.1704 -0.2505
   38SOL    HW1  113   1.088   2.589   2.436 -2.3686 -2.1986  1.1716
   38SOL    HW2  114   1.046   2.740   2.357  0.7956 -4.3849 -0.6084
   39SOL     OW  115   2.334   1.433   3.020  0.0091 -0.4546 -0.2404
   39SOL    HW1  116   2.411   1.362   3.027 -1.9348  2.0582 -1.3481
   39SOL    HW2  117   2.291   1.451   3.111  1.4904 -1.3007 -2.1944
   40SOL     OW  118   2.089   2.549   2.544  0.3319  0.4492 -0.6753
   40SOL    HW1  119   2.067   2.648   2.555 -2.2860 -2.6019 -0.2177
   40SOL    HW2  120   2.011   2.510   2.493  2.8646  2.8966  0.0992
   41SOL     OW  121   2.927   0.713   2.739 -0.3661  0.2218 -0.5130
   41SOL    HW1  122   2.838   0.714   2.796  0.0849  1.2355  0.7838
   41SOL    HW2  123   2.940   0.616   2.694 -1.3802  0.8229 -0.7641
   42SOL     OW  124   1.796   1.743   0.602 -0.0325 -0.2249  0.4336
   42SOL    HW1  125   1.747   1.666   0.556  2.0635  0.8885 -0.5596
   42SOL    HW2  126   1.850   1.800   0.529 -2.1797 -0.1658  1.0480
   43SOL     OW  127   0.486   1.713   1.226 -0.9491 -0.1584  0.8074
   43SOL    HW1  128   0.458   1.686   1.322 -1.9357  1.6592  3.8172
   43SOL    HW2  129   0.409   1.715   1.156  0.3441 -0.5985 -0.1246
   44SOL     OW  130   1.739   2.517   0.025  0.4585  0.6174 -0.0589
   44SOL    HW1  131   1.775   2.572  -0.056 -1.0251 -0.3100 -0.0327
   44SOL    HW2  132   1.814   2.517   0.101  2.5532  2.7215 -0.9644
   45SOL     OW  133   0.355   1.947   2.554 -0.7236  0.3818  0.8374
   45SOL    HW1  134   0.281   1.951   2.481 -0.4298 -0.0341 -0.0541
   45SOL    HW2  135   0.404   1.857   2.559  1.8398  1.3027 -1.6645
   46SOL     OW  136   1.162   0.632   0.181 -0.1380  0.2543  0.4417
   46SOL    HW1  137   1.203   0.717   0.135  0.7181  0.6862  0.2307
   46SOL    HW2  138   1.061   0.651   0.200 -0.4339  1.6268  3.2715
   47SOL     OW  139   0.252   2.440   1.608  0.5015 -0.4262  0.0845
   47SOL    HW1  140   0.326   2.367   1.595 -1.4497  2.0545  0.5977
   47SOL    HW2  141   0.196   2.459   1.522 -2.8483 -1.2340 -2.4758
   48SOL     OW  142   2.565   0.575   0.166  0.1508  0.1339 -0.2797
   48SOL    HW1  143   2.524   0.583   0.256 -0.7884  2.1269  2.4757
   48SOL    HW2  144   2.647   0.638   0.153  1.7302 -1.7712  3.9816
   49SOL     OW  145   0.350   0.853   1.730 -0.1266 -0.5655  0.4771
   49SOL    HW1  146   0.412   0.889   1.803 -2.3750  0.0895  0.9979
   49SOL    HW2  147   0.401   0.785   1.667  1.9022 -0.6594  0.3687
   50SOL     OW  148   1.720   1.094   0.354 -0.5910 -0.0680  0.3640
   50SOL    HW1  149   1.715   0.992   0.334 -1.0954  0.9999  0.4106
   50SOL    HW2  150   1.668   1.124   0.440  0.8836  0.1952 -3.7423
   51SOL     OW  151   3.031   1.897   0.374 -0.1872 -0.0066 -0.4228
   51SOL    HW1  152   3.050   1.937   0.281 -1.2523  0.5694  0.0182
   51SOL    HW2  153   3.017   1.794   0.372  1.8342 -0.8281 -0.5610
   52SOL     OW  154   0.792   1.998   0.497 -0.6665  0.4096  0.2555
   52SOL    HW1  155   0.712   2.051   0.533 -2.9472  0.5911 -0.7568
   52SOL    HW2  156   0.824   1.918   0.559 -0.6214  0.9644 -0.1816
   53SOL     OW  157   3.084   0.364   1.541  0.8966  0.2890  0.0181
   53SOL    HW1  158   2.991   0.374   1.584  4.0734  0.2231 -1.3903
   53SOL    HW2  159   3.112   0.449   1.484  2.9140  0.3319 -0.2471
   54SOL     OW  160   1.730   0.449   3.029  0.3499 -0.2139  0.5349
   54SOL    HW1  161   1.782   0.432   3.113 -0.3943 -0.7816 -0.8424
   54SOL    HW2  162   1.633   0.475   3.051  1.0170 -0.5669  1.6397
   55SOL     OW  163   0.712   2.945   0.621 -0.1116  0.1366 -0.0672
   55SOL    HW1  164   0.665   3.035   0.622  1.6867  0.5752  0.1869
   55SOL    HW2  165   0.808   2.940   0.575 -0.4378  1.8920 -0.6291
   56SOL     OW  166   0.474   1.547   3.053 -0.4693 -0.3200 -0.6881
   56SOL    HW1  167   0.412   1.623   3.099 -1.3560  0.1307 -1.2827
   56SOL    HW2  168   0.421   1.470   3.014  0.0618  1.8260  1.0211
   57SOL     OW  169   1.793   2.388   2.669  0.1394  0.5049 -0.0385
   57SOL    HW1  170   1.843   2.349   2.588 -0.6747 -0.8870  0.2445
   57SOL    HW2  171   1.716   2.457   2.647  0.3635 -0.4606 -2.9257
   58SOL     OW  172   0.604   0.460   1.108  1.1802  0.0312  0.0581
   58SOL    HW1  173   0.550   0.549   1.122 -5.0693 -0.1334  0.9324
   58SOL    HW2  174   0.548   0.375   1.142 -3.2981  1.0221  1.2320
   59SOL     OW  175   0.480   2.407   2.674 -0.0143 -0.1934  0.3570
   59SOL    HW1  176   0.453   2.309   2.676 -0.5137  0.4599  0.9316
   59SOL    HW2  177   0.537   2.437   2.753 -1.5108  0.5231 -1.9363
   60SOL     OW  178   2.313   2.152   2.286 -0.1849 -0.3441 -0.0979
   60SOL    HW1  179   2.396   2.165   2.226 -1.1017 -1.8211  0.2548
   60SOL    HW2  180   2.338   2.187   2.383  1.4235  0.8650 -0.9475
   61SOL     OW  181   1.410   0.601   0.473  0.0270  0.6889 -0.0569
   61SOL    HW1  182   1.319   0.638   0.504 -0.5797 -1.3039  1.8211
   61SOL    HW2  183   1.424   0.589   0.374 -0.6339  1.0216  1.4166
   62SOL     OW  184   2.649   1.878   3.092 -0.3386 -0.2108  0.1938
   62SOL    HW1  185   2.667   1.780   3.119  0.5772  0.4315 -0.1947
   62SOL    HW2  186   2.650   1.904   2.989 -0.9547  2.6326 -1.6869
   63SOL     OW  187   0.523   0.826   0.164 -0.4733  0.1668  0.1441
   63SOL    HW1  188   0.499   0.923   0.134 -0.7856  0.1292  0.7648
   63SOL    HW2  189   0.595   0.825   0.237  1.2766  2.8751 -2.2832
   64SOL     OW  190   0.100   0.471   2.524 -0.2307 -0.4463 -0.1258
   64SOL    HW1  191   0.164   0.536   2.583  3.0060  0.6072 -2.5875
   64SOL    HW2  192   0.075   0.522   2.435  1.2585  1.3314  0.2199
   65SOL     OW  193   0.193   1.449   0.661  0.1395 -0.1860  0.0531
   65SOL    HW1  194   0.206   1.518   0.737 -0.1154  0.0483  2.7846
   65SOL    HW2  195   0.277   1.435   0.599  1.3361 -0.3103  1.6064
   66SOL     OW  196   2.498   0.411   0.695  0.8570  0.6101 -0.5742
   66SOL    HW1  197   2.422   0.475   0.726  3.1451 -0.5757 -2.3574
   66SOL    HW2  198   2.466   0.309   0.703 -0.6967 -1.9622 -1.5924
   67SOL     OW  199   0.508   2.506   1.346  0.1476 -0.4872 -0.0585
   67SOL    HW1  200   0.602   2.517   1.388  1.7203 -1.0335  3.2628
   67SOL    HW2  201   0.475   2.406   1.344 -2.2374 -0.3406 -1.6922
   68SOL     OW  202   0.997   1.101   2.450 -0.4098  0.0575  0.7306
   68SOL    HW1  203   1.058   1.030   2.406  2.1265 -1.0557 -0.0894
   68SOL    HW2  204   0.936   1.141   2.374 -0.5390  1.2878 -0.8292
   69SOL     OW  205   0.756   2.691   2.146  0.0745  0.2406 -0.1945
   69SOL    HW1  206   0.818   2.615   2.176  2.1821 -1.3683  1.4042
   69SOL    HW2  207   0.657   2.678   2.172  2.0212 -0.1121 -2.5055
   70SOL     OW  208   0.618   0.257   2.723  0.4679  0.5377  0.2458
   70SOL    HW1  209   0.591   0.285   2.817 -0.8533 -0.3586 -0.9581
   70SOL    HW2  210   0.580   0.164   2.703  0.3616  1.4236 -2.5009
   71SOL     OW  211   1.094   1.782   0.336  0.6148  0.2681 -0.1405
   71SOL    HW1  212   1.064   1.681   0.353 -0.4752 -1.6204  2.7261
   71SOL    HW2  213   1.084   1.804   0.235 -0.0686 -0.4943  1.0607
   72SOL     OW  214   1.801   0.125   2.101  0.1304  0.2956  0.3470
   72SOL    HW1  215   1.872   0.145   2.030  0.4486 -0.9500  2.6985
   72SOL    HW2  216   1.813   0.028   2.144 -0.6329  1.5132 -0.4957
   73SOL     OW  217   2.799   2.199   2.509 -0.4452 -0.9009 -0.2363
   73SOL    HW1  218   2.768   2.107   2.478 -1.3980  1.5967 -0.0257
   73SOL    HW2  219   2.806   2.196   2.613  0.4630  0.0881  3.2980
   74SOL     OW  220   2.736   2.998   2.047  0.0965 -0.2557  0.0510
   74SOL    HW1  221   2.660   2.963   2.112 -1.5481 -0.1347  0.2564
   74SOL    HW2  222   2.829   2.997   2.095 -2.0389  0.1752  1.9834
   75SOL     OW  223   0.912   0.768   1.011 -0.0167 -0.5089  0.5463
   75SOL    HW1  224   0.826   0.817   0.974 -2.5611  0.3759 -1.0802
   75SOL    HW2  225   0.928   0.788   1.114 -0.7495  2.6204 -1.3359
   76SOL     OW  226   1.739   1.243   2.569 -0.1819  0.3195  0.4464
   76SOL    HW1  227   1.651   1.194   2.583  1.3906 -1.8122 -0.3017
   76SOL    HW2  228   1.752   1.317   2.643 -1.8017 -2.4539 -1.2756
   77SOL     OW  229   2.959   0.986   0.981 -0.8031  0.0221 -0.6169
   77SOL    HW1  230   2.944   0.886   1.002 -4.2977  2.8395 -0.9436
   77SOL    HW2  231   3.036   1.019   1.041  0.1413 -0.4489 -1.8513
   78SOL     OW  232   1.981   1.413   1.505 -0.8105 -0.1822  0.6185
   78SOL    HW1  233   2.078   1.426   1.471  0.7810 -0.6295 -0.5461
   78SOL    HW2  234   1.923   1.355   1.446 -1.3020  0.1959 -1.6868
   79SOL     OW  235   0.606   1.327   0.831  0.1521  0.4738 -0.4319
   79SOL    HW1  236   0.525   1.375   0.879 -1.6847 -0.8387 -0.4970
   79SOL    HW2  237   0.574   1.261   0.757  2.6613  1.2407  1.5704
   80SOL     OW  238   0.673   0.506   1.590 -0.0932 -0.1371 -0.3255
   80SOL    HW1  239   0.754   0.560   1.549 -2.5510 -0.4803 -2.1754
   80SOL    HW2  240   0.688   0.402   1.580  1.6119 -0.3330  1.4099
   81SOL     OW  241   1.043   1.395   2.639 -0.7291 -0.4430  0.0941
   81SOL    HW1  242   1.053   1.308   2.688 -0.2113  1.3575 -2.5817
   81SOL    HW2  243   0.987   1.386   2.554  0.3254  2.4612 -1.2262
   82SOL     OW  244   0.939   2.998   1.526  0.6365 -0.1301  0.3949
   82SOL    HW1  245   1.013   2.954   1.576 -1.4575 -0.4338 -0.5338
   82SOL    HW2  246   0.862   2.936   1.502  1.5832  2.5436  0.8618
   83SOL     OW  247   2.751   2.485   0.789 -0.2278  0.7646 -0.0811
   83SOL    HW1  248   2.667   2.438   0.750 -1.9786 -0.9852 -0.5192
   83SOL    HW2  249   2.786   2.565   0.736  2.2132 -1.2868  2.0689
   84SOL     OW  250   0.722   0.013   2.418 -0.0010  0.6382 -0.0328
   84SOL    HW1  251   0.628  -0.007   2.460  1.1361  0.3824  0.3772
   84SOL    HW2  252   0.796  -0.054   2.449  2.0194 -0.8298 -0.4163
   85SOL     OW  253   0.386   1.683   1.511  0.2584  0.1821  0.3278
   85SOL    HW1  254   0.337   1.774   1.489 -0.6984  2.1734 -1.3838
   85SOL    HW2  255   0.389   1.652   1.611 -0.0408  1.4284  1.5631
   86SOL     OW  256   0.347   0.991   1.478  0.1907 -0.0032 -0.3208
   86SOL    HW1  257   0.333   0.931   1.394  0.8120  0.5699 -0.9125
   86SOL    HW2  258   0.345   0.936   1.566  0.3267 -3.3655 -1.3925
   87SOL     OW  259   1.565   0.604   0.220 -0.7088 -0.0842  0.3639
   87SOL    HW1  260   1.587   0.698   0.262  0.9370  0.7779  3.1712
   87SOL    HW2  261   1.518   0.611   0.128 -2.2063 -0.7775  1.8152
   88SOL     OW  262   1.582   1.252   0.196 -0.1518 -0.1120  0.7327
   88SOL    HW1  263   1.644   1.171   0.230  1.7835 -0.2415 -1.2537
   88SOL    HW2  264   1.496   1.274   0.251 -1.5878 -1.5910  0.0087
   89SOL     OW  265   3.012   0.445   0.576  0.6412  0.3596 -0.2452
   89SOL    HW1  266   3.073   0.360   0.590  2.2122 -3.1841  0.8993
   89SOL    HW2  267   2.910   0.426   0.567  0.6743 -1.5145  3.3506
   90SOL     OW  268   0.972   1.664   3.035 -0.2372 -0.1567 -0.2835
   90SOL    HW1  269   0.890   1.623   3.085 -0.0058  2.9486 -1.6819
   90SOL    HW2  270   0.955   1.677   2.933 -2.1770  0.8709  0.6420
   91SOL     OW  271   1.289   1.492   1.767  0.5287  0.1086  0.3008
   91SOL    HW1  272   1.300   1.570   1.837  2.6218  0.7925  0.9392
   91SOL    HW2  273   1.378   1.448   1.740 -2.6780 -0.6782 -2.2171
   92SOL     OW  274   0.056   1.048   1.180 -1.0696  0.2611  0.7000
   92SOL    HW1  275   0.148   1.048   1.136 -0.1504 -0.1987 -1.3487
   92SOL    HW2  276   0.064   1.011   1.277  1.6079  1.1215  1.1119
   93SOL     OW  277   0.026   2.824   0.067 -0.5699 -0.5858 -0.1333
   93SOL    HW1  278  -0.036   2.803  -0.012  1.8365 -0.4550  1.0188
   93SOL    HW2  279   0.067   2.735   0.103 -2.1707 -1.2215 -3.1163
   94SOL     OW  280   1.515   1.344   1.678 -0.2137  0.0248  0.0206
   94SOL    HW1  281   1.502   1.250   1.718 -0.4520  0.3074 -0.7757
   94SOL    HW2  282   1.596   1.394   1.715 -1.8812  1.7873 -0.0604
   95SOL     OW  283   1.335   2.471   2.913 -0.3325 -0.0918  0.0139
   95SOL    HW1  284   1.280   2.461   2.998 -0.2384  0.3381 -0.5249
   95SOL    HW2  285   1.362   2.381   2.878 -3.2836  1.6573  0.5536
   96SOL     OW  286   0.504   2.017   1.200  0.5300 -0.0933 -0.0467
   96SOL    HW1  287   0.479   2.061   1.109 -0.6808  2.2967  1.7226
   96SOL    HW2  288   0.477   1.920   1.218 -1.5720  1.7786  1.7076
   97SOL     OW  289   0.374   1.441   2.504  0.4188  0.4707  0.3985
   97SOL    HW1  290   0.279   1.423   2.538  0.1916  0.1200  0.0905
   97SOL    HW2  291   0.434   1.507   2.553  1.1596  0.4572  1.5203
   98SOL     OW  292   2.013   1.669   1.306 -0.2055 -0.3290  0.4175
   98SOL    HW1  293   2.069   1.581   1.305  0.4964 -1.7290 -3.0988
   98SOL    HW2  294   1.952   1.681   1.392  0.9121 -0.9201 -1.2898
   99SOL     OW  295   2.483   2.139   1.328  0.3596  0.1253  0.1854
   99SOL    HW1  296   2.425   2.181   1.401  1.6006  1.5213  1.5213
   99SOL    HW2  297   2.480   2.035   1.337  2.6171 -0.2567  0.9801
  100SOL     OW  298   2.295   0.363   2.036  0.8317  0.2161 -0.8159
  100SOL    HW1  299   2.235   0.329   2.117 -0.7099 -0.8825  1.3512
  100SOL    HW2  300   2.383   0.405   2.061  1.3105 -0.4461  1.1665
  101SOL     OW  301   0.411   1.473   0.295 -0.4843  0.3074  0.1528
  101SOL    HW1  302   0.450   1.495   0.389  1.0709  0.5736 -0.9198
  101SOL    HW2  303   0.372   1.553   0.246 -1.3153  0.5492  2.3933
  102SOL     OW  304   2.304   1.076   0.798  0.3144  0.5212  0.3837
  102SOL    HW1  305   2.256   1.020   0.725 -1.5162 -2.3071 -0.5418
  102SOL    HW2  306   2.378   1.135   0.759 -1.6435 -0.5878 -0.0963
  103SOL     OW  307   2.289   0.060   0.422  0.5121 -0.5110 -0.2773
  103SOL    HW1  308   2.341   0.124   0.365 -1.6792  2.0175  0.2422
  103SOL    HW2  309   2.346   0.011   0.495  0.6530 -0.7335  2.7560
  104SOL     OW  310   0.084   1.876   2.114 -0.3474 -0.0763 -0.1143
  104SOL    HW1  311   0.092   1.813   2.028 -1.3506 -1.1020 -4.9057
  104SOL    HW2  312  -0.017   1.891   2.131 -0.5794  0.2634 -1.0918
  105SOL     OW  313   1.135   1.949   0.842  0.6955  0.1843 -0.0986
  105SOL    HW1  314   1.095   2.028   0.786 -0.2590 -1.0671 -1.7362
  105SOL    HW2  315   1.169   1.870   0.781  2.2558  1.0108  0.1112
  106SOL     OW  316   2.076   0.423   1.366  0.4079 -0.0207  0.3234
  106SOL    HW1  317   2.052   0.332   1.415 -2.1271  0.0493 -2.2983
  106SOL    HW2  318   2.043   0.510   1.413  1.5251  0.9600 -1.7828
  107SOL     OW  319   1.820   3.023   1.071  0.0167  0.9232  0.0375
  107SOL    HW1  320   1.860   3.095   1.137 -0.1575  2.0664  0.1283
  107SOL    HW2  321   1.770   2.949   1.123  0.7223 -1.2491 -2.1508
  108SOL     OW  322   0.760   2.641   1.307  0.0398  0.1154  0.1433
  108SOL    HW1  323   0.732   2.720   1.366 -1.8497  2.5945 -0.4773
  108SOL    HW2  324   0.837   2.583   1.343  0.1785  1.9653  1.5730
  109SOL     OW  325   2.121   0.103   0.752  0.5968  0.0734  0.6108
  109SOL    HW1  326   2.036   0.055   0.718 -0.3781  0.8619 -0.4614
  109SOL    HW2  327   2.164   0.049   0.830  0.5347  0.2943  1.8573
  110SOL     OW  328   0.477   2.812   2.722 -0.4037  0.3757  0.6644
  110SOL    HW1  329   0.494   2.840   2.623  0.5915 -0.0889  0.2482
  110SOL    HW2  330   0.541   2.730   2.750  0.9529 -1.1204  3.3762
  111SOL     OW  331   1.295   0.518   2.280  0.5712 -0.1832  0.1413
  111SOL    HW1  332   1.219   0.567   2.338  0.4400 -0.6435 -1.4098
  111SOL    HW2  333   1.348   0.447   2.336 -0.8301  0.5001 -3.1984
  112SOL     OW  334   1.734   0.496   1.404  0.6036  0.3895 -0.3498
  112SOL    HW1  335   1.724   0.506   1.302 -2.7103  1.1008 -1.2969
  112SOL    HW2  336   1.680   0.414   1.435 -0.7228  0.1424 -1.1284
  113SOL     OW  337   2.319   1.644   1.708  0.3232 -0.2168 -0.4856
  113SOL    HW1  338   2.386   1.567   1.683 -1.5944 -0.9240  0.4438
  113SOL    HW2  339   2.347   1.676   1.805  1.1625 -1.8360  2.3362
  114SOL     OW  340   0.318   0.566   1.300 -0.3050 -0.2125  0.4591
  114SOL    HW1  341   0.337   0.663   1.274 -0.7225 -1.7938 -1.1239
  114SOL    HW2  342   0.275   0.515   1.220 -2.0191  1.1123 -0.4682
  115SOL     OW  343   2.606   1.564   1.208  0.0262  0.2397 -0.4598
  115SOL    HW1  344   2.641   1.469   1.232  1.7926  0.1976  1.2472
  115SOL    HW2  345   2.654   1.609   1.130 -0.3468  0.0577 -0.4122
  116SOL     OW  346   1.819   1.086   0.750 -0.1767 -0.1002 -0.1350
  116SOL    HW1  347   1.750   1.027   0.701  1.3896 -2.5135 -0.6220
  116SOL    HW2  348   1.803   1.185   0.734 -2.2828  0.6713  3.8046
  117SOL     OW  349   1.133   0.366   0.661 -0.3795  0.0079  0.2319
  117SOL    HW1  350   1.119   0.347   0.762  0.3894 -1.8508  1.5734
  117SOL    HW2  351   1.210   0.434   0.648 -1.0230 -0.4802 -0.4138
  118SOL     OW  352   1.091   1.098   1.135  0.3283  0.0528  0.3484
  118SOL    HW1  353   1.048   1.018   1.182  1.3302  0.7534  1.0259
  118SOL    HW2  354   1.096   1.188   1.193 -1.0023 -3.6382  0.8385
  119SOL     OW  355   1.831   1.627   2.045  0.3299  0.3036  0.4537
  119SOL    HW1  356   1.803   1.715   2.081 -0.4099 -3.5101  2.5240
  119SOL    HW2  357   1.935   1.609   2.067 -0.3378 -2.9919  0.4312
  120SOL     OW  358   2.980   2.795   0.325  0.5880  0.5800 -0.6452
  120SOL    HW1  359   3.019   2.822   0.232  1.6727  1.5301  1.7441
  120SOL    HW2  360   3.007   2.702   0.363 -0.6977 -1.2010  1.6848
  121SOL     OW  361   2.006   0.718   2.179  0.1184 -0.6196  0.0052
  121SOL    HW1  362   2.078   0.736   2.103 -2.1935 -0.6170 -2.4451
  121SOL    HW2  363   2.000   0.619   2.200 -0.8508 -0.3447 -3.0275
  122SOL     OW  364   2.748   2.561   1.369 -0.1695  0.8836  0.3349
  122SOL    HW1  365   2.765   2.548   1.271 -0.5528  1.2316 -1.4611
  122SOL    HW2  366   2.750   2.467   1.423  0.3925 -0.1621  0.3411
  123SOL     OW  367   1.719   0.037   1.691  0.1205  0.2956  0.3665
  123SOL    HW1  368   1.710  -0.038   1.614  0.4128  1.2259 -1.6941
  123SOL    HW2  369   1.816   0.055   1.718  0.1764  1.3034  1.4955
  124SOL     OW  370   0.146   0.493   1.081 -0.5053  0.1217  0.6699
  124SOL    HW1  371   0.125   0.579   1.129 -2.6970 -1.2136 -2.8410
  124SOL    HW2  372   0.094   0.504   0.990  0.3210  1.4866  0.8284
  125SOL     OW  373   0.883   1.769   0.676 -0.2533  0.0059 -0.1994
  125SOL    HW1  374   0.977   1.728   0.667 -0.6178  0.9971  0.5108
  125SOL    HW2  375   0.836   1.750   0.770  0.6469  0.6969  1.0411
  126SOL     OW  376   1.910   2.379   2.394 -0.1023  0.5068  0.1784
  126SOL    HW1  377   1.954   2.309   2.332 -2.1032 -0.5532  0.5608
  126SOL    HW2  378   1.808   2.381   2.377  0.5318 -1.3459  2.8899
  127SOL     OW  379   0.819   0.972   0.180 -0.8694  0.0626  0.0458
  127SOL    HW1  380   0.859   1.013   0.268 -2.1227 -0.6146  0.7926
  127SOL    HW2  381   0.801   0.872   0.188  1.7937 -0.3420  0.9295
  128SOL     OW  382   0.975   0.168   1.484 -0.7170  0.2244 -0.4306
  128SOL    HW1  383   0.899   0.208   1.428 -0.9891 -0.4378  0.9253
  128SOL    HW2  384   0.973   0.065   1.475  3.6361 -0.0567 -3.5566
  129SOL     OW  385   1.852   0.683   1.876  0.1672 -0.3531  0.0993
  129SOL    HW1  386   1.849   0.672   1.767  1.9364 -1.1701 -2.6716
  129SOL    HW2  387   1.871   0.780   1.916  0.2592  1.1607  0.1196
  130SOL     OW  388   1.336   2.080   1.023  0.0655  0.4452  0.4855
  130SOL    HW1  389   1.290   2.012   0.965 -0.0746  1.9930 -1.3351
  130SOL    HW2  390   1.364   2.161   0.962 -0.7058  0.9458  0.9331
  131SOL     OW  391   0.004   1.519   1.393 -0.1340 -0.1826  0.2008
  131SOL    HW1  392  -0.046   1.428   1.387 -1.1932  0.1393 -0.4715
  131SOL    HW2  393   0.106   1.502   1.399  1.4549 -0.6429 -2.3043
  132SOL     OW  394   1.939   2.467   0.516 -0.2676 -0.5731 -0.2292
  132SOL    HW1  395   1.840   2.442   0.540  1.9004 -2.8737  0.6751
  132SOL    HW2  396   2.002   2.415   0.582 -0.1061 -1.6177 -1.1101
  133SOL     OW  397   1.818   2.269   2.916  0.2332 -0.1200  0.4538
  133SOL    HW1  398   1.893   2.314   2.968  1.3802  0.1216  0.8582
  133SOL    HW2  399   1.802   2.315   2.824  0.4579 -3.7706  1.7211
  134SOL     OW  400   2.688   2.355   1.598  0.7539  0.1034 -0.1404
  134SOL    HW1  401   2.626   2.354   1.684 -1.9398  2.2322 -0.4456
  134SOL    HW2  402   2.745   2.441   1.598 -0.3889 -0.5105  0.4962
  135SOL     OW  403   0.725   1.551   2.576  0.3851 -0.3386  0.2157
  135SOL    HW1  404   0.678   1.471   2.632 -1.3890  0.3329  2.6643
  135SOL    HW2  405   0.782   1.519   2.498  0.6429  3.6281  1.4703
  136SOL     OW  406   1.195   2.035   0.486  0.0192 -0.4437 -0.1335
  136SOL    HW1  407   1.112   2.067   0.542  0.2798 -1.6549 -1.7265
  136SOL    HW2  408   1.178   1.950   0.429 -0.9687  0.1809  0.5975
  137SOL     OW  409   0.390   1.070   2.197  0.2138 -0.5738 -0.2887
  137SOL    HW1  410   0.293   1.080   2.240 -0.5566  1.6940 -1.1911
  137SOL    HW2  411   0.450   1.014   2.261 -1.0577  2.8616 -0.0929
  138SOL     OW  412   2.445   1.483   0.237  0.1384  0.0368 -0.5427
  138SOL    HW1  413   2.346   1.473   0.203  2.0025 -0.4260  0.6601
  138SOL    HW2  414   2.471   1.403   0.298  0.7729  2.7897  0.1335
  139SOL     OW  415   1.782   2.602   1.215  0.2249  0.1061 -0.3049
  139SOL    HW1  416   1.688   2.565   1.193 -1.5633 -1.2278  1.4516
  139SOL    HW2  417   1.821   2.563   1.304  1.0960 -1.9590 -3.0640
  140SOL     OW  418   2.982   2.984   2.498 -0.2093 -0.1073 -0.8615
  140SOL    HW1  419   3.024   2.894   2.517  2.9628  0.5764  0.4088
  140SOL    HW2  420   3.034   3.060   2.548 -1.8991  0.1236  2.4007
  141SOL     OW  421   1.209   1.627   1.557  0.0496  0.1550 -0.6887
  141SOL    HW1  422   1.171   1.721   1.593  2.4124 -0.2425  1.8339
  141SOL    HW2  423   1.205   1.555   1.636  3.0199  1.6914 -0.4246
  142SOL     OW  424   1.569   0.628   2.264  0.2162  0.1599  0.2679
  142SOL    HW1  425   1.598   0.632   2.162  2.6372  2.9082  1.8594
  142SOL    HW2  426   1.467   0.602   2.276 -1.1097  0.0086  2.2201
  143SOL     OW  427   2.748   0.873   0.497 -0.8714  0.4153  0.4388
  143SOL    HW1  428   2.751   0.915   0.400  0.1617  2.5522 -0.7402
  143SOL    HW2  429   2.799   0.937   0.562  0.8719  1.9054 -1.3746
  144SOL     OW  430   2.969   1.266   1.368  0.6890  0.3323  0.3575
  144SOL    HW1  431   2.975   1.246   1.471 -0.3827 -2.9042 -0.3602
  144SOL    HW2  432   2.995   1.189   1.304  0.9822 -0.7779  0.2870
  145SOL     OW  433   1.081   1.887   0.068 -0.1998 -0.2111 -0.2930
  145SOL    HW1  434   1.049   1.980   0.033  1.8683  0.5519 -1.5735
  145SOL    HW2  435   1.040   1.809   0.012  0.1361 -2.3938 -2.2403
  146SOL     OW  436   2.539   0.637   1.478  0.2745 -0.0588  0.4169
  146SOL    HW1  437   2.460   0.571   1.465  1.9342  3.0049  1.4152
  146SOL    HW2  438   2.505   0.732   1.495 -1.2018 -1.9368  2.4769
  147SOL     OW  439   1.033   2.525   0.603  0.1215 -0.1975 -0.3556
  147SOL    HW1  440   1.002   2.596   0.528 -0.0593  2.4603 -0.9213
  147SOL    HW2  441   1.132   2.493   0.585 -1.4300  0.2426  0.2062
  148SOL     OW  442   1.639   1.420   0.002  0.6658  0.3164 -0.6090
  148SOL    HW1  443   1.685   1.345  -0.055  2.3415 -0.8871  1.8278
  148SOL    HW2  444   1.599   1.376   0.091 -0.5679 -2.3195  1.1074
  149SOL     OW  445   0.659   1.401   1.979 -0.1348 -0.0800 -0.1840
  149SOL    HW1  446   0.562   1.380   2.010  1.1491  1.9731 -0.1928
  149SOL    HW2  447   0.691   1.334   1.909 -0.3341 -0.2512  1.3904
  150SOL     OW  448   2.982   1.267   0.945 -0.4602 -0.2278  0.2998
  150SOL    HW1  449   3.062   1.298   1.006  1.2353  1.9394  0.4914
  150SOL    HW2  450   2.950   1.171   0.959  3.5204 -0.7070  0.3211
  151SOL     OW  451   0.187   0.763   2.127  0.5449  0.2136  0.7988
  151SOL    HW1  452   0.167   0.857   2.086 -2.1028  0.3979  0.4920
  151SOL    HW2  453   0.254   0.709   2.063  1.4524 -0.6050 -4.3928
  152SOL     OW  454   1.417   1.754   1.267 -0.0664 -0.2288 -0.2275
  152SOL    HW1  455   1.392   1.772   1.368 -1.4849 -0.0727 -0.4216
  152SOL    HW2  456   1.342   1.779   1.201  1.7601  0.2724  0.9491
  153SOL     OW  457   0.050   1.530   0.169 -0.5714  0.4740 -0.0149
  153SOL    HW1  458   0.037   1.425   0.173  0.9787 -0.2711 -0.1424
  153SOL    HW2  459   0.075   1.572   0.259 -2.5218 -2.6076  0.9205
  154SOL     OW  460   2.422   1.889   2.833 -0.1484 -0.9066 -0.3317
  154SOL    HW1  461   2.434   1.789   2.861  0.3563  1.9841 -1.7722
  154SOL    HW2  462   2.441   1.905   2.734  0.1368 -0.8651  2.3533
  155SOL     OW  463   2.504   1.255   0.372 -0.6464  0.7555 -0.5726
  155SOL    HW1  464   2.595   1.249   0.319  2.6283 -1.2218 -0.9671
  155SOL    HW2  465   2.455   1.165   0.368 -1.5467 -0.7751  1.4712
  156SOL     OW  466   2.537   0.937   0.871  0.2078 -0.4163 -0.0266
  156SOL    HW1  467   2.448   0.984   0.875  0.8994  2.3836 -1.6545
  156SOL    HW2  468   2.602   0.997   0.816  0.9651 -0.7982  0.6571
  157SOL     OW  469   1.269   3.019   3.018 -1.1139 -0.3391 -0.4685
  157SOL    HW1  470   1.335   2.963   2.959  0.4840  1.8015  0.4671
  157SOL    HW2  471   1.278   3.120   3.009  0.8770 -4.2320 -0.6841
  158SOL     OW  472   1.055   1.889   2.032 -0.2036 -0.2962 -0.2075
  158SOL    HW1  473   1.096   1.840   2.113 -0.2989 -2.3919  1.4015
  158SOL    HW2  474   0.955   1.902   2.051  0.4004  1.3853  0.2776
  159SOL     OW  475   0.850   0.380   1.302 -0.0178  0.3894 -0.2922
  159SOL    HW1  476   0.832   0.473   1.341 -1.1161 -0.9218 -2.0297
  159SOL    HW2  477   0.782   0.354   1.234  0.1310  0.0471  0.7121
  160SOL     OW  478   1.455   2.447   1.653  0.1804  0.8863 -0.3346
  160SOL    HW1  479   1.457   2.550   1.622 -1.3733  3.6634  0.0956
  160SOL    HW2  480   1.542   2.399   1.630 -0.7009 -0.8378  0.4489
  161SOL     OW  481   0.136   2.928   0.326 -0.3606 -0.0277 -0.6606
  161SOL    HW1  482   0.048   2.873   0.339  0.2570 -2.1374  1.7315
  161SOL    HW2  483   0.125   3.004   0.250  1.8540 -2.9735  1.9019
  162SOL     OW  484   2.582   1.904   0.509  0.4017  0.2836 -0.5497
  162SOL    HW1  485   2.572   1.828   0.440 -2.6309 -0.9516  0.3154
  162SOL    HW2  486   2.572   1.867   0.605  0.6165 -0.9046  1.8742
  163SOL     OW  487   1.963   2.702   0.749 -0.1416 -0.4448 -0.6256
  163SOL    HW1  488   1.912   2.732   0.660  0.3446 -0.2433 -2.4144
  163SOL    HW2  489   2.013   2.608   0.733  0.8737 -1.9210 -0.0981
  164SOL     OW  490   3.041   0.290   1.219 -0.4658  0.2494 -0.4518
  164SOL    HW1  491   3.105   0.353   1.161 -1.0988  3.9386  0.5198
  164SOL    HW2  492   3.091   0.249   1.302 -1.0422 -1.4563 -1.2420
  165SOL     OW  493   0.989   1.473   0.668 -0.3256  0.3384  0.2152
  165SOL    HW1  494   0.894   1.482   0.712  0.5635  1.1371 -1.2070
  165SOL    HW2  495   0.984   1.511   0.572 -1.0732 -1.1634 -0.1758
  166SOL     OW  496   1.419   1.058   1.756 -0.0861  0.2949 -0.1031
  166SOL    HW1  497   1.334   1.002   1.797 -0.0030  0.6000  0.2361
  166SOL    HW2  498   1.487   1.081   1.832  0.3186 -0.3804  1.0540
  167SOL     OW  499   0.888   1.927   1.538 -0.4130  0.2935 -0.0068
  167SOL    HW1  500   0.878   1.979   1.626  0.1647  0.0908 -1.5421
  167SOL    HW2  501   0.816   1.850   1.530 -2.3398  1.9130  0.3105
  168SOL     OW  502   1.535   2.387   0.141  0.4854 -0.0065  0.0895
  168SOL    HW1  503   1.598   2.426   0.070 -1.5042 -1.8069 -1.7629
  168SOL    HW2  504   1.581   2.333   0.214  0.8619  0.8096 -2.4953
  169SOL     OW  505   0.176   2.569   2.200 -0.0469 -0.1129  0.2647
  169SOL    HW1  506   0.255   2.528   2.145  1.3160  0.8683  1.7383
  169SOL    HW2  507   0.141   2.510   2.278  2.2722  2.6019  0.0847
  170SOL     OW  508   1.266   0.278   1.898  0.0519 -0.4460 -0.0624
  170SOL    HW1  509   1.305   0.245   1.990  0.6996 -0.0994  2.6279
  170SOL    HW2  510   1.241   0.196   1.841  0.6002  0.9014  0.8581
  171SOL     OW  511   0.269   0.793   2.425 -0.2471 -0.0836  0.2103
  171SOL    HW1  512   0.166   0.796   2.459 -0.1774 -0.6081 -1.2151
  171SOL    HW2  513   0.274   0.765   2.322  0.4812 -2.2944 -3.2687
  172SOL     OW  514   0.891   1.136   2.938 -0.0031  0.1501 -0.1592
  172SOL    HW1  515   0.992   1.141   2.964 -1.3629  2.1459  1.0259
  172SOL    HW2  516   0.875   1.099   2.842  0.1542  1.5423  2.8824
  173SOL     OW  517   0.671   2.693   0.170 -0.3984 -0.1151  0.2900
  173SOL    HW1  518   0.674   2.794   0.152  0.9080 -2.3679 -0.7994
  173SOL    HW2  519   0.579   2.654   0.156  0.5087 -0.4332 -0.7158
  174SOL     OW  520   1.367   2.758   1.049  0.7389  0.0946  0.2752
  174SOL    HW1  521   1.361   2.848   1.003  0.7462 -0.8180  1.6786
  174SOL    HW2  522   1.313   2.681   1.006 -0.2529 -0.7240 -1.1612
  175SOL     OW  523   0.389   0.003   1.680  0.3683  0.2009 -0.4471
  175SOL    HW1  524   0.452   0.038   1.755 -1.1611  3.8336  0.5888
  175SOL    HW2  525   0.321   0.078   1.648  0.1209 -0.7413 -0.4726
  176SOL     OW  526   2.537   0.380   3.055 -0.5130  0.2198  0.4594
  176SOL    HW1  527   2.527   0.447   3.136 -5.0912 -0.7550  1.4434
  176SOL    HW2  528   2.468   0.299   3.076 -2.4197  1.4559 -1.4036
  177SOL     OW  529   0.387   0.402   0.911  0.1308 -0.5442  0.4724
  177SOL    HW1  530   0.461   0.398   0.983 -2.9158  2.3366  1.6709
  177SOL    HW2  531   0.298   0.405   0.963  1.3415  0.4369 -1.0945
  178SOL     OW  532   0.018   2.734   2.592  0.5287 -0.1748 -0.0178
  178SOL    HW1  533  -0.064   2.692   2.637 -0.1048  1.0788  1.4264
  178SOL    HW2  534   0.093   2.769   2.655  0.4443 -0.6403 -1.1820
  179SOL     OW  535   0.021   1.700   1.149 -0.0687  0.3464 -0.0720
  179SOL    HW1  536  -0.045   1.775   1.152  1.7133 -0.8143 -1.8875
  179SOL    HW2  537   0.002   1.615   1.209  2.0841 -1.9774  0.0475
  180SOL     OW  538   0.197   1.263   1.827  0.4627  0.8407 -0.0565
  180SOL    HW1  539   0.299   1.279   1.811  1.8080  1.7915  3.1735
  180SOL    HW2  540   0.165   1.340   1.880  2.2325 -3.2886 -1.0254
  181SOL     OW  541   3.008   1.829   2.537  0.3539  0.0996  0.1423
  181SOL    HW1  542   3.085   1.851   2.480 -1.2193 -0.3322 -0.5319
  181SOL    HW2  543   2.935   1.903   2.506 -0.9358  1.2859  2.2893
  182SOL     OW  544   2.332   1.206   1.204  0.1586 -0.4304 -0.1359
  182SOL    HW1  545   2.263   1.175   1.135 -0.3391 -0.8452 -0.7132
  182SOL    HW2  546   2.357   1.304   1.198 -0.1511 -1.8157 -0.3074
  183SOL     OW  547   1.482   2.275   2.545  0.1346  0.2533  0.6204
  183SOL    HW1  548   1.408   2.202   2.546 -3.9886  1.4229 -0.9704
  183SOL    HW2  549   1.578   2.235   2.557  1.6736  1.6069  0.4331
  184SOL     OW  550   2.059   0.936   0.747  0.1603 -0.0554 -0.0296
  184SOL    HW1  551   1.962   0.966   0.773 -2.8229  1.3483 -0.0121
  184SOL    HW2  552   2.080   0.845   0.793 -1.2804  0.6804  1.2721
  185SOL     OW  553   1.652   2.727   2.099 -0.3806 -0.5528 -0.1536
  185SOL    HW1  554   1.582   2.799   2.077  2.1295  1.5449  0.0528
  185SOL    HW2  555   1.669   2.719   2.204 -0.7010 -0.4776  1.9941
  186SOL     OW  556   0.118   2.230   1.753  0.6281 -0.1885  0.0095
  186SOL    HW1  557   0.130   2.327   1.715  1.9337  0.4549  0.7511
  186SOL    HW2  558   0.200   2.172   1.737 -0.8776  1.1181  0.6500
  187SOL     OW  559   1.432   0.670   1.690 -0.0406  0.3524 -0.4013
  187SOL    HW1  560   1.489   0.738   1.633 -0.3613  1.2819 -1.1001
  187SOL    HW2  561   1.424   0.699   1.790  0.1539  1.1066  2.0294
  188SOL     OW  562   2.740   2.776   1.541  0.4149 -0.1981  0.2032
  188SOL    HW1  563   2.691   2.856   1.495  0.3713 -0.3747  2.6245
  188SOL    HW2  564   2.744   2.689   1.481 -1.7588  0.7355  0.4306
  189SOL     OW  565   0.785   1.022   1.452  0.9928  0.3744 -0.7007
  189SOL    HW1  566   0.869   1.084   1.452  1.3115 -2.1748 -0.8946
  189SOL    HW2  567   0.779   0.968   1.359 -0.5264 -1.6606  0.4019
  190SOL     OW  568   1.486   1.689   1.606  0.4571 -0.2537 -0.3683
  190SOL    HW1  569   1.386   1.667   1.586  0.8645  1.2541 -1.1944
  190SOL    HW2  570   1.496   1.773   1.659  0.4856 -3.5570  0.1698
  191SOL     OW  571   0.989   0.793   1.551 -0.0743  0.1338 -0.0560
  191SOL    HW1  572   1.037   0.707   1.585 -0.7258 -2.3805 -0.2620
  191SOL    HW2  573   1.051   0.863   1.508 -1.1812  1.2022 -0.7821
  192SOL     OW  574   1.843   2.296   1.205 -0.5668  0.5707 -0.2857
  192SOL    HW1  575   1.765   2.256   1.154  0.8525  2.1791 -0.7408
  192SOL    HW2  576   1.911   2.348   1.146  0.0497 -2.7050  1.1506
  193SOL     OW  577   0.527   0.569   0.351 -0.2521  0.1364  0.6157
  193SOL    HW1  578   0.538   0.494   0.416  0.0044 -0.1990  0.2800
  193SOL    HW2  579   0.515   0.536   0.252  1.9517  0.5646  0.4497
  194SOL     OW  580   0.289   0.852   1.255  0.3891 -0.4960 -0.0298
  194SOL    HW1  581   0.193   0.811   1.253  2.2807 -1.0076  0.2498
  194SOL    HW2  582   0.302   0.935   1.190 -2.6147  1.4115  1.5145
  195SOL     OW  583   0.943   2.937   0.470  0.0626 -0.8126 -0.5163
  195SOL    HW1  584   0.937   2.852   0.418  0.4015  1.7620  0.2880
  195SOL    HW2  585   1.036   2.977   0.471 -0.4959 -1.0785  2.2300
  196SOL     OW  586   0.267   1.420   1.402 -0.3085 -0.1027  0.2881
  196SOL    HW1  587   0.329   1.495   1.435  0.0059 -0.2584  0.1799
  196SOL    HW2  588   0.243   1.348   1.476 -0.2614  0.2722  3.2293
  197SOL     OW  589   0.866   2.004   0.247  0.0508  0.3595  0.7564
  197SOL    HW1  590   0.838   2.001   0.347 -2.2379 -0.4583  0.5727
  197SOL    HW2  591   0.953   1.950   0.227 -1.4755 -1.4818  2.2070
  198SOL     OW  592   0.292   1.229   0.248 -0.1701  0.6099  0.3189
  198SOL    HW1  593   0.203   1.236   0.193 -1.2053  1.6613  1.4473
  198SOL    HW2  594   0.322   1.322   0.280 -0.0916  2.0000  3.1081
  199SOL     OW  595   2.246   0.380   2.524  0.0993 -0.5660  0.0403
  199SOL    HW1  596   2.175   0.327   2.583  0.2168 -1.4855 -0.6687
  199SOL    HW2  597   2.342   0.341   2.523 -2.7026  2.0897  2.1858
  200SOL     OW  598   3.096   2.893   0.764 -0.2383  0.5580 -0.3956
  200SOL    HW1  599   3.015   2.939   0.721  2.6766  2.4093  1.4321
  200SOL    HW2  600   3.170   2.965   0.785 -0.4362  1.3795 -3.1615
  201SOL     OW  601   1.166   0.703   0.535  0.3893  0.1614  0.1432
  201SOL    HW1  602   1.149   0.801   0.571  0.7879  0.6094 -1.0538
  201SOL    HW2  603   1.078   0.649   0.512 -1.9926 -1.7199  0.1236
  202SOL     OW  604   0.463   1.266   1.709 -0.3871  0.0390  0.2090
  202SOL    HW1  605   0.519   1.231   1.623  2.1908 -1.2273 -0.5498
  202SOL    HW2  606   0.481   1.209   1.791  2.5558  1.0472 -1.6784
  203SOL     OW  607   0.672   0.225   1.512  0.4068 -0.1212  0.2243
  203SOL    HW1  608   0.679   0.163   1.428  0.2989  0.9446 -1.3480
  203SOL    HW2  609   0.698   0.178   1.598  0.3402  2.2552  3.2675
  204SOL     OW  610   2.100   1.843   3.030  0.2503 -0.5581 -0.0165
  204SOL    HW1  611   2.089   1.740   3.014 -2.1989 -1.8587 -1.5658
  204SOL    HW2  612   2.050   1.899   2.959 -3.5877 -3.0576 -2.4353
  205SOL     OW  613   1.854   1.872   0.102 -0.0022  0.3714 -0.3129
  205SOL    HW1  614   1.953   1.870   0.055  0.1852  0.3988 -2.6042
  205SOL    HW2  615   1.812   1.967   0.103 -0.0691  0.9363  1.3205
  206SOL     OW  616   2.559   2.813   0.398  0.8634  0.0540 -0.7782
  206SOL    HW1  617   2.612   2.721   0.405  1.2956 -0.3815  0.5436
  206SOL    HW2  618   2.569   2.854   0.301  0.9869  0.3453  1.0103
  207SOL     OW  619   0.614   1.740   2.862  0.7196 -0.0814  0.2664
  207SOL    HW1  620   0.710   1.711   2.838 -2.4852  0.4415 -1.3290
  207SOL    HW2  621   0.558   1.664   2.908  1.6334  1.3079  2.8876
  208SOL     OW  622   0.992   1.486   1.429  0.4957  0.1915  0.4566
  208SOL    HW1  623   0.928   1.522   1.353 -0.8361  0.3586 -0.7625
  208SOL    HW2  624   1.072   1.547   1.457  2.2356  1.5390 -0.2667
  209SOL     OW  625   0.200   0.936   3.049  0.5446  0.3466  0.0005
  209SOL    HW1  626   0.281   0.914   2.989 -1.2322  1.0947  0.7215
  209SOL    HW2  627   0.189   0.867   3.127  1.7000 -0.6952  1.4712
  210SOL     OW  628   1.707   0.505   1.137 -0.3554  0.0092 -0.2421
  210SOL    HW1  629   1.653   0.576   1.087  2.7075 -1.1178  1.7590
  210SOL    HW2  630   1.810   0.510   1.113  1.2010 -1.0922 -1.4796
  211SOL     OW  631   2.126   1.038   1.676  0.5599  0.3653  0.3141
  211SOL    HW1  632   2.205   1.001   1.738  2.2926 -0.3425 -3.4127
  211SOL    HW2  633   2.162   1.078   1.592  2.0102  0.5914  1.8272
  212SOL     OW  634   0.026   0.990   1.459  0.3405 -0.5333  0.3056
  212SOL    HW1  635   0.078   1.077   1.482  0.5620 -2.0760 -1.2374
  212SOL    HW2  636   0.031   0.910   1.530 -1.5202 -1.4233 -0.2388
  213SOL     OW  637   2.723   0.347   0.262  0.3710  0.6065  0.0273
  213SOL    HW1  638   2.778   0.280   0.202  0.1749 -1.1116  2.6508
  213SOL    HW2  639   2.675   0.421   0.218  1.1673 -0.0913  0.9866
  214SOL     OW  640   2.197   0.291   2.289 -0.0648  0.2834  0.5463
  214SOL    HW1  641   2.224   0.341   2.377  1.3762  0.5906 -2.2037
  214SOL    HW2  642   2.162   0.191   2.303 -2.6403 -1.0343  2.0219
  215SOL     OW  643   1.656   2.286   2.057 -0.0009 -0.4039  0.2441
  215SOL    HW1  644   1.761   2.292   2.040  0.4739  0.4448 -0.5638
  215SOL    HW2  645   1.608   2.368   2.105  0.5516 -1.2899 -0.9707
  216SOL     OW  646   2.233   0.528   0.651 -0.1553 -0.0705  0.2306
  216SOL    HW1  647   2.181   0.451   0.605 -1.8213 -1.7448 -0.7486
  216SOL    HW2  648   2.259   0.607   0.585 -0.6520 -3.5370  0.2697
  217SOL     OW  649   0.773   2.797   2.406  0.2685  0.3252 -1.0047
  217SOL    HW1  650   0.775   2.702   2.458  0.4228  1.3236 -1.5429
  217SOL    HW2  651   0.744   2.790   2.303 -0.2790  1.7098 -1.9656
  218SOL     OW  652   1.922   1.447   0.080 -0.3889  0.0564  0.2767
  218SOL    HW1  653   1.820   1.449   0.055 -2.1087 -2.2121 -0.6347
  218SOL    HW2  654   1.955   1.364   0.133  3.2106  0.0066  1.3290
  219SOL     OW  655   2.385   1.339   2.553  0.2593 -0.0292 -0.2032
  219SOL    HW1  656   2.343   1.266   2.486  0.6596  0.2717  0.0993
  219SOL    HW2  657   2.407   1.299   2.645 -1.9008 -0.4776  0.4575
  220SOL     OW  658   1.451   1.039   1.266  0.6094 -0.4055  0.6107
  220SOL    HW1  659   1.546   1.034   1.308  3.9809  0.0272 -3.6233
  220SOL    HW2  660   1.456   1.092   1.180 -2.3499 -0.4618 -1.9491
  221SOL     OW  661   1.289   1.196   2.156  0.0435  0.7831  0.3307
  221SOL    HW1  662   1.234   1.251   2.090  0.2403  1.0481 -0.5077
  221SOL    HW2  663   1.384   1.178   2.120  0.5141  0.2807  0.8620
  222SOL     OW  664   1.266   0.070   1.133 -0.7683 -0.0863  0.1624
  222SOL    HW1  665   1.365   0.096   1.120 -2.8502  1.1130 -1.3003
  222SOL    HW2  666   1.216   0.132   1.195  1.8596 -1.2488  0.1081
  223SOL     OW  667   2.897   0.841   1.977 -0.0269 -0.0788  0.7192
  223SOL    HW1  668   2.908   0.865   2.078  0.2667 -1.1141  0.4217
  223SOL    HW2  669   2.908   0.926   1.917 -2.2131  0.0013  0.8316
  224SOL     OW  670   1.556   0.984   2.783 -0.3581  0.3121  0.1846
  224SOL    HW1  671   1.554   0.911   2.703 -0.2023 -0.9079 -3.4679
  224SOL    HW2  672   1.500   1.065   2.758  0.5554  0.6945  1.9148
  225SOL     OW  673   2.987   2.808   2.923  1.0957  0.1903  0.2270
  225SOL    HW1  674   2.961   2.722   2.872  2.8391  0.1663 -1.6663
  225SOL    HW2  675   3.054   2.874   2.875  1.8572  0.3779 -2.8468
  226SOL     OW  676   2.452   1.627   2.872  0.2058 -0.2863 -0.0637
  226SOL    HW1  677   2.499   1.586   2.789  0.1349  0.9980 -0.6589
  226SOL    HW2  678   2.424   1.563   2.950 -0.9638  2.3641 -1.1911
  227SOL     OW  679   0.827   0.115   2.984  0.7142 -0.5304 -0.2262
  227SOL    HW1  680   0.867   0.045   3.049  0.8147 -1.2383  1.4382
  227SOL    HW2  681   0.858   0.109   2.883  2.3384 -0.1696 -0.0882
  228SOL     OW  682   2.366   0.579   2.798 -0.0511  0.2783  0.3322
  228SOL    HW1  683   2.325   0.613   2.709 -0.4160 -1.6079 -2.1126
  228SOL    HW2  684   2.440   0.504   2.785  0.7722 -0.0034  0.4745
  229SOL     OW  685   0.579   0.501   1.867  0.1264  0.2034 -0.0755
  229SOL    HW1  686   0.589   0.499   1.765 -1.3115  0.1371  2.1822
  229SOL    HW2  687   0.653   0.549   1.923 -4.6498 -1.5047  0.9283
  230SOL     OW  688   1.911   1.246   2.129 -0.1414 -0.3439 -0.0183
  230SOL    HW1  689   1.986   1.295   2.083 -1.7650  0.5318 -2.6977
  230SOL    HW2  690   1.816   1.281   2.105  1.1402  2.7569  1.0529
  231SOL     OW  691   0.651   1.028   2.978 -0.1980 -0.2359  0.7117
  231SOL    HW1  692   0.753   1.064   2.970  0.8887  2.8930  0.4446
  231SOL    HW2  693   0.591   1.069   3.053 -1.7682 -0.5936  1.2869
  232SOL     OW  694   2.525   0.040   2.749 -0.1340 -0.3701 -0.0333
  232SOL    HW1  695   2.584  -0.024   2.804 -0.8908  0.0884 -0.2199
  232SOL    HW2  696   2.506   0.001   2.655 -0.4264  1.8251 -0.2320
  233SOL     OW  697   1.715   1.275   1.048 -0.5651 -0.1229 -0.3023
  233SOL    HW1  698   1.726   1.300   0.949 -0.1243  1.1616  1.1719
  233SOL    HW2  699   1.733   1.173   1.069  0.6677 -0.6949  2.3803
  234SOL     OW  700   1.632   2.627   1.840  0.4079 -0.1795 -0.0227
  234SOL    HW1  701   1.632   2.643   1.944  0.5514 -2.2035 -0.7709
  234SOL    HW2  702   1.590   2.538   1.810  0.4575  2.0234 -0.2629
  235SOL     OW  703   0.080   3.016   2.866  0.5271 -0.1922  0.7689
  235SOL    HW1  704   0.140   3.084   2.813  0.8027 -0.0844  0.9461
  235SOL    HW2  705   0.003   3.068   2.909  2.7131 -0.3438 -0.2754
  236SOL     OW  706   2.801   0.689   0.069 -0.0764 -0.6018  0.5543
  236SOL    HW1  707   2.873   0.736   0.126  1.5460  3.8129  0.3378
  236SOL    HW2  708   2.840   0.608   0.021 -0.3335 -0.7001 -0.1128
  237SOL     OW  709   1.491   1.608   1.032  0.2197 -0.6788  0.1990
  237SOL    HW1  710   1.595   1.602   1.048 -1.3307  3.2459  0.7373
  237SOL    HW2  711   1.448   1.656   1.110 -0.6447  0.7828 -0.6763
  238SOL     OW  712   1.755   1.351   0.765  0.0301  0.0851  0.3352
  238SOL    HW1  713   1.855   1.366   0.733  0.7488 -2.3401  0.5231
  238SOL    HW2  714   1.679   1.392   0.704 -2.1644 -1.0095  2.2622
  239SOL     OW  715   2.098   0.239   2.724  0.1394 -0.2071  0.1819
  239SOL    HW1  716   2.197   0.251   2.762 -1.7392  1.1192  0.3022
  239SOL    HW2  717   2.031   0.301   2.775  1.6301  0.8869 -1.5347
  240SOL     OW  718   0.857   0.695   0.233  0.0853 -0.4412  0.7507
  240SOL    HW1  719   0.836   0.617   0.172  1.1368  1.2909 -0.2854
  240SOL    HW2  720   0.869   0.679   0.340  0.2706 -0.7205  0.5792
  241SOL     OW  721   0.556   0.032   0.329 -0.5244  0.1491  0.5575
  241SOL    HW1  722   0.573  -0.022   0.238  0.2881  1.1044 -2.3627
  241SOL    HW2  723   0.487  -0.011   0.383  2.8518  0.6024 -0.3688
  242SOL     OW  724   0.693   2.404   1.134 -0.1458  0.2753  0.2844
  242SOL    HW1  725   0.660   2.477   1.203  0.9176 -2.0937  1.0981
  242SOL    HW2  726   0.779   2.438   1.086  2.0437 -1.6215  0.7939
  243SOL     OW  727   1.086   0.619   2.409  0.4134 -0.0976 -0.0377
  243SOL    HW1  728   1.010   0.693   2.396 -1.2604  0.6469 -0.7269
  243SOL    HW2  729   1.050   0.532   2.456 -0.8600 -2.7464 -0.0769
  244SOL     OW  730   2.763   1.938   2.440  0.4772  0.0810  0.6800
  244SOL    HW1  731   2.798   1.928   2.342 -1.2562 -0.0705 -0.9712
  244SOL    HW2  732   2.702   1.858   2.472  1.9439  1.6330  0.9422
  245SOL     OW  733   2.461   0.748   2.122  0.1156  0.0630  0.0262
  245SOL    HW1  734   2.471   0.826   2.186 -0.0191 -0.5281 -2.3005
  245SOL    HW2  735   2.515   0.665   2.150  2.6624 -0.5454 -0.2099
  246SOL     OW  736   0.220   2.873   1.718 -0.1568  0.0444 -0.1216
  246SOL    HW1  737   0.147   2.864   1.641  0.6777 -0.6029 -1.7713
  246SOL    HW2  738   0.282   2.953   1.705 -1.4317 -0.7482 -1.8045
  247SOL     OW  739   2.180   0.547   3.005 -0.1870  0.3597  0.2222
  247SOL    HW1  740   2.227   0.552   2.913 -1.3548 -1.2394  0.7524
  247SOL    HW2  741   2.115   0.625   3.022 -3.7185 -0.2733  1.1665
  248SOL     OW  742   2.186   1.872   1.652 -0.3495 -0.6581  0.1648
  248SOL    HW1  743   2.264   1.807   1.667  0.1876 -1.3833 -1.7896
  248SOL    HW2  744   2.096   1.830   1.677  0.6535 -1.6157 -0.0124
  249SOL     OW  745   1.968   1.931   1.948 -0.6013  0.2528  0.2717
  249SOL    HW1  746   1.984   1.866   1.871 -1.0619 -0.5858  1.1269
  249SOL    HW2  747   2.049   1.994   1.960  0.5573  1.5346  0.0350
  250SOL     OW  748   1.012   0.648   1.868  0.3752  0.3349 -0.6944
  250SOL    HW1  749   1.052   0.604   1.953  0.1432  3.0513  1.0757
  250SOL    HW2  750   1.041   0.607   1.779 -0.8783 -0.0779  1.4699
  251SOL     OW  751   3.024   1.556   2.581 -0.3405  0.1772 -0.0581
  251SOL    HW1  752   3.022   1.658   2.569 -0.2594 -0.8852 -0.9152
  251SOL    HW2  753   2.929   1.515   2.575  1.3788 -1.7345  2.0565
  252SOL     OW  754   1.537   0.884   1.545 -0.0928  0.2334 -0.5672
  252SOL    HW1  755   1.626   0.931   1.512 -1.6200  0.6098 -2.8915
  252SOL    HW2  756   1.479   0.939   1.612 -2.1186  0.8181  1.5361
  253SOL     OW  757   0.995   1.507   0.389  0.0832  0.4507  0.5086
  253SOL    HW1  758   1.062   1.471   0.324 -3.9143  0.8407 -2.0916
  253SOL    HW2  759   0.893   1.497   0.354 -1.6413  2.2027 -3.1619
  254SOL     OW  760   1.996   2.150   1.607 -0.1062  0.1865  0.1329
  254SOL    HW1  761   1.952   2.106   1.524  0.2814 -1.4000  0.4204
  254SOL    HW2  762   1.929   2.165   1.680  1.2990  0.4276 -1.2421
  255SOL     OW  763   0.087   1.151   2.899  0.7026  0.1497  0.1833
  255SOL    HW1  764   0.163   1.207   2.864 -1.9729 -2.6864  3.9195
  255SOL    HW2  765   0.113   1.083   2.973  2.0349 -1.5665 -1.1057
  256SOL     OW  766   2.806   1.348   1.852  0.2724  0.1870 -0.1044
  256SOL    HW1  767   2.761   1.420   1.795 -0.1223  0.4539  0.1676
  256SOL    HW2  768   2.737   1.285   1.900  3.3907  0.0569 -1.2476
  257SOL     OW  769   0.874   0.242   1.911  0.7747 -0.1608  0.1767
  257SOL    HW1  770   0.898   0.285   1.816 -1.4325 -0.9255 -2.3404
  257SOL    HW2  771   0.909   0.144   1.919 -0.4632 -1.1940  0.6225
  258SOL     OW  772   2.948   1.268   0.420 -0.0568  0.1190  0.0837
  258SOL    HW1  773   2.890   1.356   0.397  1.9360  1.8140 -1.5096
  258SOL    HW2  774   2.991   1.274   0.516  0.3648  0.7100 -3.1661
  259SOL     OW  775   0.457   2.901   2.994 -0.6999 -0.5202 -0.3669
  259SOL    HW1  776   0.398   2.852   3.067 -2.8718 -0.8834  0.4487
  259SOL    HW2  777   0.463   2.857   2.898  0.3459 -0.8492 -0.8621
  260SOL     OW  778   2.644   0.729   2.762  0.0982  0.6618  0.4049
  260SOL    HW1  779   2.566   0.771   2.709  0.4699 -0.5188 -1.1772
  260SOL    HW2  780   2.612   0.646   2.818  1.6806 -0.4329  0.2057
  261SOL     OW  781   2.715   1.349   1.305 -0.3643  0.0117  0.1457
  261SOL    HW1  782   2.670   1.276   1.245  2.3386 -1.0554  0.8937
  261SOL    HW2  783   2.817   1.336   1.314 -2.6100  3.7171 -0.4425
  262SOL     OW  784   1.487   2.928   2.051 -0.1626 -0.1303  0.0966
  262SOL    HW1  785   1.504   3.021   2.001 -1.4249  0.8974 -0.2344
  262SOL    HW2  786   1.406   2.872   2.015  1.1453 -1.0116 -0.4280
  263SOL     OW  787   0.900   0.789   2.329 -0.1529  0.1840 -0.6396
  263SOL    HW1  788   0.830   0.713   2.310  0.5854 -1.3488  1.4628
  263SOL    HW2  789   0.895   0.860   2.249 -0.4657 -0.0493 -2.6358
  264SOL     OW  790   2.277   0.764   0.514 -0.6082 -0.1624 -0.1013
  264SOL    HW1  791   2.179   0.796   0.499  2.9561 -1.0471 -0.8736
  264SOL    HW2  792   2.340   0.840   0.479 -0.9448 -0.1064  0.1025
  265SOL     OW  793   0.863   2.334   2.692  0.2052  0.0013 -0.4894
  265SOL    HW1  794   0.918   2.395   2.756 -0.4272 -1.5978 -1.8732
  265SOL    HW2  795   0.806   2.271   2.748  1.1358 -0.4551  2.8104
  266SOL     OW  796   1.340   1.722   0.038 -0.3119 -0.1251  0.3226
  266SOL    HW1  797   1.300   1.803   0.092 -0.5183  1.5220 -0.2857
  266SOL    HW2  798   1.444   1.717   0.059  1.9144 -2.5659  0.0883
  267SOL     OW  799   1.061   0.035   2.354 -0.0749 -0.1528  0.3298
  267SOL    HW1  800   1.057  -0.052   2.301  2.4381 -0.5383  1.8387
  267SOL    HW2  801   0.989   0.106   2.328 -1.4796 -0.2346  1.8608
  268SOL     OW  802   0.626   1.140   1.026  0.4560  0.5513  0.3590
  268SOL    HW1  803   0.666   1.179   1.113 -0.7423  1.3220 -2.4763
  268SOL    HW2  804   0.613   1.217   0.954  2.1062 -0.9708 -2.9383
  269SOL     OW  805   2.455   2.564   1.584 -0.4313 -0.5385  0.6308
  269SOL    HW1  806   2.539   2.507   1.568 -0.8759  1.9088 -0.7949
  269SOL    HW2  807   2.405   2.543   1.671  3.1286 -0.8763  0.5162
  270SOL     OW  808   0.236   2.872   2.025 -0.1932  1.4363 -0.2204
  270SOL    HW1  809   0.242   2.881   1.922  0.9671  1.5452  0.5104
  270SOL    HW2  810   0.147   2.824   2.047 -0.1521 -0.1605 -1.6139
  271SOL     OW  811   0.455   1.395   1.183  0.4110  0.2223  0.4605
  271SOL    HW1  812   0.407   1.362   1.095 -0.4360 -0.8992 -0.8111
  271SOL    HW2  813   0.397   1.399   1.271  0.5803  1.7170 -1.9659
  272SOL     OW  814   1.934   2.869   1.907 -0.8927  0.3001 -0.3037
  272SOL    HW1  815   1.884   2.853   1.819  2.0617  0.0008  2.0218
  272SOL    HW2  816   2.023   2.923   1.892 -0.5634  1.2111  0.8743
  273SOL     OW  817   1.435   1.451   2.866  0.6481 -0.0621 -0.0662
  273SOL    HW1  818   1.522   1.468   2.919  0.7445 -0.1052 -0.9273
  273SOL    HW2  819   1.347   1.473   2.920  0.9602 -0.0722  1.6561
  274SOL     OW  820   1.175   0.520   2.039  0.2028  0.3587  0.3084
  274SOL    HW1  821   1.206   0.446   1.971 -0.4238 -1.5221 -2.6122
  274SOL    HW2  822   1.221   0.517   2.128 -0.2530 -0.3582 -2.3266
  275SOL     OW  823   0.624   2.063   1.951 -0.2749 -0.1951  0.9020
  275SOL    HW1  824   0.625   2.170   1.966  1.1086  1.8259  0.4542
  275SOL    HW2  825   0.532   2.015   1.957 -0.1612  1.0639  0.3979
  276SOL     OW  826   2.160   0.993   2.809  0.0250  0.0268  0.1575
  276SOL    HW1  827   2.071   1.003   2.753  2.5499  2.1741  1.5073
  276SOL    HW2  828   2.143   0.961   2.902 -1.1651 -1.3307 -1.3135
  277SOL     OW  829   3.029   0.828   0.198  0.1872  0.5214  0.0776
  277SOL    HW1  830   3.111   0.862   0.137  1.7079 -1.4605 -2.4436
  277SOL    HW2  831   3.072   0.749   0.257  2.9552 -2.7869 -3.8019
  278SOL     OW  832   0.192   0.273   2.959 -0.2234 -0.3642  0.8323
  278SOL    HW1  833   0.226   0.228   3.043 -0.0848 -1.9221  0.2907
  278SOL    HW2  834   0.224   0.377   2.959 -0.1077  4.0031 -0.7693
  279SOL     OW  835   0.154   3.082   0.874 -0.0277  0.3166 -0.4587
  279SOL    HW1  836   0.175   3.094   0.977 -0.5602 -1.9156  1.4888
  279SOL    HW2  837   0.226   3.118   0.810 -1.3611 -1.3425 -1.0873
  280SOL     OW  838   1.668   2.945   2.520  0.6885 -0.1445 -0.0695
  280SOL    HW1  839   1.752   3.011   2.541  1.3124  3.1620  2.7058
  280SOL    HW2  840   1.577   2.997   2.546 -1.0783 -0.6887  0.1246
  281SOL     OW  841   0.629   0.942   2.365 -0.4503  0.1712  0.0357
  281SOL    HW1  842   0.616   0.866   2.296  0.9576  1.6111 -0.1576
  281SOL    HW2  843   0.625   0.911   2.466 -2.3055  2.3472 -0.2491
  282SOL     OW  844   1.662   2.449   0.550  0.7851 -0.4280 -0.3206
  282SOL    HW1  845   1.622   2.375   0.485 -0.3419 -1.5220 -1.6265
  282SOL    HW2  846   1.619   2.543   0.531  1.8793 -2.1016 -4.3016
  283SOL     OW  847   1.161   0.968   0.702  0.3207  0.1489  0.5556
  283SOL    HW1  848   1.221   0.908   0.762 -1.3078  1.1203 -0.9495
  283SOL    HW2  849   1.100   1.030   0.758  0.5263  0.3081  2.5678
  284SOL     OW  850   2.291   2.796   2.403  0.4538 -0.2723 -0.0637
  284SOL    HW1  851   2.388   2.841   2.400 -0.5956 -1.5272 -2.7077
  284SOL    HW2  852   2.215   2.863   2.390  0.9430  1.5927  1.3094
  285SOL     OW  853   1.394   3.030   2.560 -0.2469 -0.8392 -0.0323
  285SOL    HW1  854   1.410   3.038   2.458 -1.9430 -1.4621  1.3766
  285SOL    HW2  855   1.311   3.086   2.590 -0.6132  1.6017  2.2894
  286SOL     OW  856   0.445   0.476   0.654  0.7394 -0.3124  0.2156
  286SOL    HW1  857   0.428   0.436   0.749  1.8135  1.2046  1.5439
  286SOL    HW2  858   0.441   0.400   0.584 -1.7190 -0.4846 -0.3475
  287SOL     OW  859   0.077   1.337   2.502  0.4272 -0.2417 -0.2953
  287SOL    HW1  860   0.042   1.252   2.553 -1.3300  1.2605  0.1235
  287SOL    HW2  861   0.016   1.417   2.520  0.6623  2.0813 -1.4915
  288SOL     OW  862   1.583   2.630   1.476 -0.2211  0.0126 -0.3342
  288SOL    HW1  863   1.683   2.622   1.490  3.7366 -0.2916  1.9663
  288SOL    HW2  864   1.548   2.643   1.378  0.1653 -1.1775 -0.4802
  289SOL     OW  865   0.689   2.721   0.787  0.1095  0.6955 -0.4361
  289SOL    HW1  866   0.704   2.805   0.724 -1.1091  1.7534 -1.6633
  289SOL    HW2  867   0.705   2.740   0.887  2.2258 -1.2013 -1.1364
  290SOL     OW  868   2.945   1.243   1.630 -0.7539  0.0141 -0.7519
  290SOL    HW1  869   2.847   1.250   1.652  2.7086  0.7129 -1.4006
  290SOL    HW2  870   2.981   1.152   1.660 -0.2881  0.1493 -0.2683
  291SOL     OW  871   1.970   0.032   0.056 -0.3230 -0.5618 -0.4049
  291SOL    HW1  872   1.962   0.043   0.160 -2.1276 -0.2457 -0.3622
  291SOL    HW2  873   2.003   0.117   0.006 -0.9124  1.0842 -0.3912
  292SOL     OW  874   2.952   1.197   3.043 -0.3787  0.3405 -0.0900
  292SOL    HW1  875   2.876   1.224   2.976 -1.1416 -1.2339  1.1970
  292SOL    HW2  876   3.045   1.182   2.996 -0.7046 -2.2522 -0.6855
  293SOL     OW  877   0.574   2.083   0.133  0.4115  0.2540 -0.6305
  293SOL    HW1  878   0.519   2.133   0.205 -1.8307  0.9307 -0.6107
  293SOL    HW2  879   0.672   2.058   0.161  1.1359  0.4387  0.4922
  294SOL     OW  880   1.685   2.155   1.820 -0.0330 -0.0426 -0.6888
  294SOL    HW1  881   1.657   2.203   1.910 -0.6590 -1.2856 -0.4214
  294SOL    HW2  882   1.706   2.216   1.736 -0.4753  1.0344 -3.0771
  295SOL     OW  883   0.943   1.093   0.413  0.2300 -1.4059 -0.0744
  295SOL    HW1  884   1.037   1.056   0.429  0.3656 -0.8328 -1.1982
  295SOL    HW2  885   0.899   1.124   0.504  3.0019 -0.0006 -4.0504
  296SOL     OW  886   1.285   2.060   2.515  0.0477 -0.4988 -0.5738
  296SOL    HW1  887   1.297   2.063   2.406  0.6157 -1.3319 -0.1871
  296SOL    HW2  888   1.310   1.963   2.542  2.3377  1.7950 -1.5862
  297SOL     OW  889   1.513   0.695   1.360 -0.4807 -0.4054 -0.1442
  297SOL    HW1  890   1.569   0.624   1.409  0.4203 -0.3793  0.0914
  297SOL    HW2  891   1.513   0.790   1.405 -1.2700 -0.1567  0.5435
  298SOL     OW  892   0.508   1.242   2.843 -0.9298 -0.2618  0.5251
  298SOL    HW1  893   0.559   1.183   2.912 -0.4428 -0.0006  1.2691
  298SOL    HW2  894   0.561   1.255   2.752 -1.9007  0.6010 -0.2051
  299SOL     OW  895   0.388   0.330   1.431  0.3593  0.0041 -0.2388
  299SOL    HW1  896   0.350   0.409   1.377 -2.3148 -1.5173  1.0855
  299SOL    HW2  897   0.491   0.323   1.415 -0.8511 -1.0406  0.4203
  300SOL     OW  898   1.222   1.794   2.867  0.2910  0.1866  0.2501
  300SOL    HW1  899   1.211   1.709   2.806 -1.2025  0.7335 -0.0445
  300SOL    HW2  900   1.239   1.767   2.963  2.2582 -1.9996 -1.2905
  301SOL     OW  901   0.445   0.280   0.454 -0.2790 -0.1606 -0.6432
  301SOL    HW1  902   0.345   0.260   0.460  0.5077  0.8865  1.5729
  301SOL    HW2  903   0.487   0.243   0.367 -3.9726  0.5962  1.1000
  302SOL     OW  904   1.229   2.289   2.316  0.2758 -0.6956  0.2798
  302SOL    HW1  905   1.153   2.302   2.382  1.1623 -0.6425 -2.1199
  302SOL    HW2  906   1.209   2.208   2.246 -2.0789 -3.4452 -0.5659
  303SOL     OW  907   0.924   2.355   0.797 -0.3784 -0.9637 -0.0584
  303SOL    HW1  908   0.959   2.411   0.713  0.7245  0.1929  1.0481
  303SOL    HW2  909   0.925   2.410   0.885  0.0029  0.3782 -0.6308
  304SOL     OW  910   0.126   2.062   0.656  0.5737  0.5294 -0.6090
  304SOL    HW1  911   0.173   2.004   0.580 -1.2435  0.8073 -1.2570
  304SOL    HW2  912   0.060   2.121   0.609 -0.1256 -0.1928 -0.2242
  305SOL     OW  913   1.628   0.885   0.680  0.0034  0.5027 -0.2541
  305SOL    HW1  914   1.552   0.880   0.613  0.5355 -3.6385 -2.5502
  305SOL    HW2  915   1.680   0.796   0.684 -1.5167  0.0001 -0.9164
  306SOL     OW  916   0.445   1.869   1.904 -0.5385  0.1999 -0.2687
  306SOL    HW1  917   0.509   1.804   1.849  3.3931  0.2222 -1.9811
  306SOL    HW2  918   0.404   1.832   1.991  0.0157  0.3731 -0.3490
  307SOL     OW  919   0.023   0.830   2.553 -0.2146 -0.4352  0.4325
  307SOL    HW1  920   0.016   0.934   2.569  0.0909  0.4243 -0.2138
  307SOL    HW2  921  -0.055   0.788   2.609  1.2545  0.6305  1.7579
  308SOL     OW  922   1.579   2.645   2.839  0.1432 -0.6949  0.4273
  308SOL    HW1  923   1.554   2.606   2.745 -1.6876  3.2608  1.7847
  308SOL    HW2  924   1.530   2.599   2.915 -0.4874 -2.5316  1.4463
  309SOL     OW  925   1.231   0.022   1.770 -0.0897  0.2056  0.1144
  309SOL    HW1  926   1.330   0.015   1.815 -1.1412  0.6082 -0.5174
  309SOL    HW2  927   1.233   0.062   1.673  3.2621 -0.9721  0.5617
  310SOL     OW  928   1.333   2.658   0.715  0.2076 -0.4502 -0.0977
  310SOL    HW1  929   1.238   2.691   0.697  0.5240 -0.4385 -0.4999
  310SOL    HW2  930   1.414   2.722   0.713  2.4242 -1.4388  0.2560
  311SOL     OW  931   1.216   0.945   1.464  0.1610 -0.5268  0.9325
  311SOL    HW1  932   1.297   0.880   1.451 -1.1148 -1.2553 -2.1183
  311SOL    HW2  933   1.237   1.041   1.479 -0.2703 -0.0335  0.5938
  312SOL     OW  934   1.599   0.689   0.974  0.2485 -0.2457 -0.6335
  312SOL    HW1  935   1.589   0.793   0.996  0.4238 -0.7731 -0.5607
  312SOL    HW2  936   1.508   0.649   0.942  2.1086  0.5219 -1.1300
  313SOL     OW  937   1.576   1.444   0.602  0.1573 -0.2669  0.7638
  313SOL    HW1  938   1.504   1.517   0.620  0.2380 -0.4065 -0.1629
  313SOL    HW2  939   1.540   1.349   0.585  1.0133  1.9502  1.2384
  314SOL     OW  940   2.964   0.021   2.979 -0.2264 -0.8068  0.0387
  314SOL    HW1  941   2.955   0.081   3.066  0.0895 -1.5440  1.5359
  314SOL    HW2  942   2.881  -0.040   2.960 -1.1272 -1.7096 -0.8227
  315SOL     OW  943   1.249   0.231   2.780  0.0053 -0.0024  0.1289
  315SOL    HW1  944   1.237   0.150   2.716 -0.1866  1.7918 -0.0709
  315SOL    HW2  945   1.283   0.204   2.875  1.3226 -3.9582 -0.5495
  316SOL     OW  946   1.676   2.082   0.891  0.1289 -0.4088  0.3000
  316SOL    HW1  947   1.638   2.099   0.984 -0.6394 -0.1281 -3.4509
  316SOL    HW2  948   1.695   2.178   0.844  1.4452  0.9113 -0.5917
  317SOL     OW  949   1.158   0.702   2.849 -0.6093 -0.2472  0.2099
  317SOL    HW1  950   1.081   0.736   2.915 -2.0608 -1.6757  1.7010
  317SOL    HW2  951   1.124   0.616   2.801 -0.2266 -0.1673  1.6523
  318SOL     OW  952   1.430   3.067   2.268  0.4719  0.2091  0.1916
  318SOL    HW1  953   1.380   3.160   2.237 -0.9957  3.1831 -1.7115
  318SOL    HW2  954   1.452   2.995   2.192  2.3555 -1.0929 -0.0673
  319SOL     OW  955   0.636   2.388   2.941  0.1939  0.4354 -0.0425
  319SOL    HW1  956   0.560   2.372   3.015  1.4214 -0.9794  1.7987
  319SOL    HW2  957   0.706   2.309   2.934 -1.0808  0.3120 -1.5628
  320SOL     OW  958   1.624   2.248   0.369  0.3312 -0.5909  0.1362
  320SOL    HW1  959   1.720   2.215   0.385  0.7883 -2.0049  1.0709
  320SOL    HW2  960   1.560   2.198   0.436 -1.3945 -1.0073  2.0465
  321SOL     OW  961   1.579   2.708   0.526 -0.0933 -0.0970  0.0764
  321SOL    HW1  962   1.504   2.775   0.535  0.9448  1.3817 -0.2590
  321SOL    HW2  963   1.672   2.755   0.533  0.2271 -2.7858  0.2437
  322SOL     OW  964   2.632   1.119   2.265 -0.1918  0.4439  0.7707
  322SOL    HW1  965   2.695   1.160   2.332 -2.0856  2.7568 -0.1560
  322SOL    HW2  966   2.596   1.023   2.288  2.7696  1.3921 -1.7138
  323SOL     OW  967   1.002   2.709   0.839 -0.7046  0.2791 -0.6344
  323SOL    HW1  968   1.008   2.652   0.751  1.4065 -0.1227 -1.1905
  323SOL    HW2  969   0.988   2.810   0.818  1.3683 -2.1351  0.6254
  324SOL     OW  970   0.113   2.476   2.442 -0.1964 -0.3078  0.1436
  324SOL    HW1  971   0.084   2.393   2.492  2.5571  1.3968  0.2319
  324SOL    HW2  972   0.102   2.565   2.495  3.2029 -1.1546  1.1248
  325SOL     OW  973   1.191   3.085   0.468  0.2546  0.4024  0.0489
  325SOL    HW1  974   1.225   3.116   0.372  0.9091 -1.3110 -4.4003
  325SOL    HW2  975   1.233   3.142   0.548  0.0268  1.4652  1.7057
  326SOL     OW  976   2.394   0.750   0.001  0.1580  0.1255  0.0234
  326SOL    HW1  977   2.314   0.706  -0.050  0.0927 -1.8673 -3.5136
  326SOL    HW2  978   2.442   0.686   0.066  2.3109  0.6206 -0.1893
  327SOL     OW  979   2.736   0.417   0.539  0.0071 -0.6861 -0.1080
  327SOL    HW1  980   2.737   0.371   0.446 -0.1270  1.5507 -0.6046
  327SOL    HW2  981   2.645   0.413   0.594 -1.5844  1.0608  0.5000
  328SOL     OW  982   2.480   0.581   0.434  0.0698 -0.7425  0.5650
  328SOL    HW1  983   2.401   0.645   0.450  0.4735  0.3397 -1.2396
  328SOL    HW2  984   2.466   0.500   0.494 -0.1116 -0.9794  0.6654
  329SOL     OW  985   2.995   3.005   2.158 -0.0045  0.7443 -0.1803
  329SOL    HW1  986   3.054   2.951   2.223 -1.5640  1.7192 -0.4595
  329SOL    HW2  987   3.034   3.101   2.148  2.3528  2.2709  0.1903
  330SOL     OW  988   0.529   0.164   1.883 -0.6174 -0.4152  0.7627
  330SOL    HW1  989   0.543   0.266   1.868  0.1814 -1.4575  1.1684
  330SOL    HW2  990   0.589   0.126   1.957  2.1697  1.1779 -2.4168
  331SOL     OW  991   2.948   1.907   1.121  0.1942 -0.1901  0.0476
  331SOL    HW1  992   2.984   2.004   1.100  1.8080 -1.8245 -0.4143
  331SOL    HW2  993   2.882   1.913   1.204 -1.3360  0.3485  2.2757
  332SOL     OW  994   0.412   1.061   0.055  0.2596 -0.2656 -0.4269
  332SOL    HW1  995   0.329   1.015   0.013 -1.5955 -0.2905 -0.4379
  332SOL    HW2  996   0.384   1.130   0.133  1.6696  2.7349 -0.8545
  333SOL     OW  997   2.832   1.025   0.277 -0.0655 -0.5305  0.3263
  333SOL    HW1  998   2.878   1.083   0.349 -2.9015 -2.2114  2.2030
  333SOL    HW2  999   2.893   0.950   0.239  1.0031  1.7320  0.7342
  334SOL     OW 1000   1.661   1.158   1.900 -0.0326  0.1466  0.1518
  334SOL    HW1 1001   1.763   1.157   1.872  0.7265 -2.5122  1.1867
  334SOL    HW2 1002   1.632   1.229   1.965  0.8081  0.1294  0.8449
  335SOL     OW 1003   1.975   2.787   2.611  0.2686 -0.0401  0.2579
  335SOL    HW1 1004   1.932   2.746   2.693  0.5189 -2.5255 -3.5290
  335SOL    HW2 1005   2.050   2.855   2.627 -1.4888 -1.0370 -2.0589
  336SOL     OW 1006   0.243   0.095   2.742  0.2320  0.1095 -0.0934
  336SOL    HW1 1007   0.346   0.074   2.719  1.0913  1.1373 -2.6516
  336SOL    HW2 1008   0.219   0.159   2.821  0.6681 -1.1256  0.6206
  337SOL     OW 1009   0.918   2.814   2.832 -0.4599 -0.2777 -0.0024
  337SOL    HW1 1010   0.899   2.769   2.924 -1.4538 -2.7832 -0.3404
  337SOL    HW2 1011   1.017   2.794   2.807  1.6957  0.6214 -0.3920
  338SOL     OW 1012   0.005   1.025   0.610 -0.5326  0.0025  0.0361
  338SOL    HW1 1013  -0.083   1.002   0.657  0.6060 -1.5256 -1.0106
  338SOL    HW2 1014   0.027   1.126   0.606 -0.0198 -1.6161  0.3063
  339SOL     OW 1015   1.672   1.382   2.072  0.1249  0.5733 -0.1562
  339SOL    HW1 1016   1.570   1.410   2.077  0.9711 -1.2106 -0.0415
  339SOL    HW2 1017   1.739   1.461   2.073 -1.1474 -1.7777 -2.1025
  340SOL     OW 1018   2.315   0.774   1.178 -0.3965  0.6365 -0.2575
  340SOL    HW1 1019   2.220   0.816   1.183  0.6071  0.4439  0.6079
  340SOL    HW2 1020   2.324   0.689   1.122 -2.0249  1.1513 -0.1131
  341SOL     OW 1021   1.881   2.158   0.407  0.1922  0.1873 -1.0345
  341SOL    HW1 1022   1.889   2.184   0.306 -1.0514 -1.1745 -2.5039
  341SOL    HW2 1023   1.980   2.161   0.452  0.6203  0.3614 -1.5306
  342SOL     OW 1024   2.200   2.116   2.746 -0.1373 -0.6237 -0.4281
  342SOL    HW1 1025   2.271   2.071   2.811  1.7883 -2.1091  0.7587
  342SOL    HW2 1026   2.109   2.072   2.747  2.3303 -1.1344  1.9393
  343SOL     OW 1027   0.346   0.866   2.835  0.2514 -0.2080 -0.7579
  343SOL    HW1 1028   0.328   0.927   2.759  1.1073 -3.6709 -0.2104
  343SOL    HW2 1029   0.450   0.859   2.846  0.0146 -2.8964 -3.1713
  344SOL     OW 1030   1.933   1.487   0.363 -0.3614 -0.5318 -0.2176
  344SOL    HW1 1031   1.939   1.534   0.273 -2.9305 -3.2853 -1.6949
  344SOL    HW2 1032   1.840   1.504   0.408 -0.3092 -0.0224  2.9500
  345SOL     OW 1033   1.390   2.199   2.833 -0.2538  0.3880  0.1576
  345SOL    HW1 1034   1.307   2.157   2.785 -0.6782 -0.2300  0.1666
  345SOL    HW2 1035   1.482   2.161   2.799 -0.1452 -0.4502  1.2201
  346SOL     OW 1036   2.392   0.884   1.434 -0.9349 -0.7986 -0.2566
  346SOL    HW1 1037   2.355   0.976   1.469  0.1399 -0.9668  2.2550
  346SOL    HW2 1038   2.334   0.844   1.357 -0.3016  0.9675  0.0614
  347SOL     OW 1039   0.691   2.827   1.491  0.5869 -0.2090 -0.7242
  347SOL    HW1 1040   0.672   2.774   1.577  0.9039 -1.4231 -1.7503
  347SOL    HW2 1041   0.618   2.899   1.469 -2.3357 -0.0600  1.8386
  348SOL     OW 1042   0.101   0.715   2.858  0.1738 -0.0006  0.1757
  348SOL    HW1 1043  -0.000   0.740   2.839  1.3928 -0.5507 -0.8331
  348SOL    HW2 1044   0.170   0.795   2.855  2.1146 -0.7071  1.3736
  349SOL     OW 1045   1.904   0.409   2.814  0.1811  0.0930 -0.0648
  349SOL    HW1 1046   1.883   0.478   2.740 -2.2244  0.8662  0.6534
  349SOL    HW2 1047   1.857   0.428   2.906 -1.9690  0.9415 -1.2364
  350SOL     OW 1048   1.674   0.403   0.370  0.9514  0.6634 -0.5430
  350SOL    HW1 1049   1.742   0.411   0.445 -0.0153 -1.7002  1.4165
  350SOL    HW2 1050   1.652   0.486   0.314  0.2942 -1.2881  0.0823
  351SOL     OW 1051   0.886   0.912   2.084  0.2842  0.4056 -0.4033
  351SOL    HW1 1052   0.924   1.001   2.041  3.0046  2.1091  1.3106
  351SOL    HW2 1053   0.828   0.861   2.017  1.3982  0.1083  0.9511
  352SOL     OW 1054   1.993   1.372   0.603 -0.3089 -0.5329  0.0311
  352SOL    HW1 1055   1.972   1.405   0.506 -0.4236 -0.8976 -0.9790
  352SOL    HW2 1056   2.092   1.386   0.634  4.0766 -0.0232 -0.9328
  353SOL     OW 1057   2.133   2.852   1.126  0.1163  0.6633 -0.2872
  353SOL    HW1 1058   2.200   2.793   1.182 -1.0808  1.0654  0.4665
  353SOL    HW2 1059   2.067   2.794   1.072  0.0969  1.2849  1.6011
  354SOL     OW 1060   0.279   1.385   2.873  0.2984 -0.1114 -0.7919
  354SOL    HW1 1061   0.260   1.455   2.795  0.0119 -0.6852  0.8659
  354SOL    HW2 1062   0.367   1.334   2.860 -0.2926  0.3501  0.4152
  355SOL     OW 1063   0.448   1.498   0.563 -0.0872  0.2053 -0.6327
  355SOL    HW1 1064   0.497   1.573   0.616  2.1717  0.7185  1.6818
  355SOL    HW2 1065   0.500   1.410   0.562 -1.2404 -1.7735  1.7250
  356SOL     OW 1066   0.883   0.426   2.100 -0.2133 -0.5549  0.3823
  356SOL    HW1 1067   0.975   0.470   2.131  1.3753 -0.4613 -0.2125
  356SOL    HW2 1068   0.878   0.389   2.003 -0.5680  0.5441  0.4028
  357SOL     OW 1069   1.044   1.304   0.214  0.4560 -0.1592  0.6079
  357SOL    HW1 1070   0.962   1.322   0.145 -0.4554 -0.6534 -1.9875
  357SOL    HW2 1071   1.011   1.226   0.280  1.3173 -0.5863  0.2198
  358SOL     OW 1072   1.653   1.621   0.373  0.3159 -0.4752  0.1111
  358SOL    HW1 1073   1.608   1.528   0.391  0.1340 -1.8915  4.0904
  358SOL    HW2 1074   1.584   1.695   0.350 -1.0388  1.4350 -0.0701
  359SOL     OW 1075   1.549   2.710   0.189 -0.0867 -0.1129  0.0360
  359SOL    HW1 1076   1.606   2.662   0.114 -1.4708 -0.3775 -2.1526
  359SOL    HW2 1077   1.451   2.690   0.189  1.6147 -0.3549 -0.3596
  360SOL     OW 1078   0.882   0.582   0.486  0.2309 -0.0781 -0.5175
  360SOL    HW1 1079   0.811   0.600   0.561 -1.6274 -0.5050  1.2051
  360SOL    HW2 1080   0.876   0.485   0.444 -0.4367  0.8487  0.5317
  361SOL     OW 1081   1.246   1.401   0.675  0.0326 -0.4218  0.1013
  361SOL    HW1 1082   1.298   1.410   0.769  2.7035 -0.4565  1.2885
  361SOL    HW2 1083   1.143   1.423   0.681  0.1248  3.7777 -0.1301
  362SOL     OW 1084   1.395   1.765   0.800  0.3497  0.0986 -0.2262
  362SOL    HW1 1085   1.438   1.718   0.881  0.3335  1.3450 -1.0780
  362SOL    HW2 1086   1.460   1.835   0.760 -1.1629 -1.8810  1.1565
  363SOL     OW 1087   1.139   1.372   1.995  0.2257 -0.1398  0.0020
  363SOL    HW1 1088   1.156   1.434   2.075  1.3478 -0.6514  1.0055
  363SOL    HW2 1089   1.173   1.412   1.908 -0.5804 -0.9295  0.9852
  364SOL     OW 1090   0.585   2.358   1.951 -0.1585 -0.3751  0.7132
  364SOL    HW1 1091   0.486   2.376   1.980 -0.1664  1.3020 -2.2000
  364SOL    HW2 1092   0.598   2.360   1.847 -0.7786  0.1790 -0.7206
  365SOL     OW 1093   1.096   1.897   1.374  0.0435  0.4148 -0.4275
  365SOL    HW1 1094   0.996   1.908   1.409 -1.3775  0.0572 -0.3723
  365SOL    HW2 1095   1.105   1.858   1.276  0.7003 -0.4787  0.5467
  366SOL     OW 1096   2.811   2.061   0.489  0.0353  0.0759 -0.0255
  366SOL    HW1 1097   2.713   2.021   0.492  0.9327  0.4112 -0.7360
  366SOL    HW2 1098   2.875   1.997   0.442  0.7125 -1.1612 -1.3252
  367SOL     OW 1099   0.786   1.252   0.100  0.1403 -0.3023 -0.1920
  367SOL    HW1 1100   0.767   1.154   0.132  0.8529  1.6255 -3.0424
  367SOL    HW2 1101   0.826   1.234   0.005  1.3992  0.3233  1.2471
  368SOL     OW 1102   1.565   0.517   0.671  0.0820 -0.0947  0.1526
  368SOL    HW1 1103   1.508   0.550   0.591 -0.3596  0.9671  0.7080
  368SOL    HW2 1104   1.664   0.552   0.670  0.8215  1.7683  3.8398
  369SOL     OW 1105   0.292   1.698   0.096 -0.2703  0.5054  0.4070
  369SOL    HW1 1106   0.275   1.785   0.141  4.4029 -0.4626 -5.0324
  369SOL    HW2 1107   0.218   1.626   0.107 -0.7104  0.0705  0.0243
  370SOL     OW 1108   0.440   2.129   0.973 -0.5672 -0.3105 -0.1262
  370SOL    HW1 1109   0.456   2.233   0.960  1.4814  0.2974 -1.5007
  370SOL    HW2 1110   0.344   2.108   0.938  0.0118  1.3772 -0.9727
  371SOL     OW 1111   2.900   2.215   2.756 -0.1862 -0.3679  0.0046
  371SOL    HW1 1112   2.905   2.197   2.856 -0.4999  1.9798 -3.4160
  371SOL    HW2 1113   2.990   2.250   2.717  1.4058  0.8754 -0.1100
  372SOL     OW 1114   0.914   1.869   0.965  0.2342  0.0336 -0.0467
  372SOL    HW1 1115   0.888   1.969   0.988 -1.9258  0.5676 -0.7227
  372SOL    HW2 1116   0.980   1.863   0.885 -1.0692  1.1917 -2.5828
  373SOL     OW 1117   1.973   2.022   0.928  0.3553  0.4588 -0.1954
  373SOL    HW1 1118   2.041   2.060   0.996 -1.1484 -2.0015  0.9625
  373SOL    HW2 1119   1.876   2.055   0.946  1.3067 -0.3139 -2.3433
  374SOL     OW 1120   1.870   0.416   0.577  0.8290  0.1755 -0.6888
  374SOL    HW1 1121   1.852   0.376   0.673  1.4748  2.0868 -3.6447
  374SOL    HW2 1122   1.968   0.388   0.558  2.1596 -1.4050  0.2102
  375SOL     OW 1123   2.445   2.256   1.089 -0.3165 -0.6152  0.3335
  375SOL    HW1 1124   2.501   2.226   1.010 -1.7062 -1.8230  0.5773
  375SOL    HW2 1125   2.470   2.212   1.182 -0.9045 -1.0110 -1.9622
  376SOL     OW 1126   3.059   0.619   1.444 -0.3922 -0.7827  0.2425
  376SOL    HW1 1127   3.101   0.675   1.519 -0.4527 -2.3483 -1.0533
  376SOL    HW2 1128   2.953   0.627   1.449 -1.9847  2.9486 -1.4246
  377SOL     OW 1129   2.241   2.879   0.359 -0.3036  0.3188  0.3779
  377SOL    HW1 1130   2.214   2.976   0.391  2.5079 -0.2610 -0.9160
  377SOL    HW2 1131   2.345   2.876   0.351 -0.0627  0.5555 -0.9756
  378SOL     OW 1132   1.889   1.877   2.654 -0.2919  0.4458 -0.0719
  378SOL    HW1 1133   1.935   1.786   2.678 -2.8905 -1.8881 -3.5114
  378SOL    HW2 1134   1.862   1.874   2.554  1.8132  0.4498  0.7271
  379SOL     OW 1135   0.875   0.102   2.701  0.1519  0.2073  0.0262
  379SOL    HW1 1136   0.818   0.010   2.697 -0.7525 -1.5927  1.2580
  379SOL    HW2 1137   0.825   0.188   2.674 -0.5198  1.1419  0.6471
  380SOL     OW 1138   1.541   1.165   0.569  0.1923 -0.3597  0.4916
  380SOL    HW1 1139   1.481   1.123   0.495 -0.0591 -1.0079 -0.5705
  380SOL    HW2 1140   1.521   1.120   0.663 -1.9972 -2.7246 -1.8469
  381SOL     OW 1141   1.273   1.204   1.498  0.3382  0.3098 -0.0352
  381SOL    HW1 1142   1.303   1.255   1.413  0.0684 -0.7973  1.9413
  381SOL    HW2 1143   1.323   1.237   1.579 -0.2669 -0.1928 -0.3953
  382SOL     OW 1144   1.740   0.817   0.292 -0.4084  0.3184 -0.1576
  382SOL    HW1 1145   1.769   0.821   0.192 -1.6364  0.7032 -0.4974
  382SOL    HW2 1146   1.817   0.777   0.354 -0.6691  2.3837  0.7786
  383SOL     OW 1147   2.626   1.011   1.515 -0.1423  0.5921 -0.0042
  383SOL    HW1 1148   2.550   0.946   1.500  1.6227 -1.2737  2.4345
  383SOL    HW2 1149   2.715   0.981   1.461  0.5225 -0.5222  0.9733
  384SOL     OW 1150   0.995   2.268   0.160 -0.6625  0.3252  0.1209
  384SOL    HW1 1151   0.926   2.343   0.188 -0.9215 -2.7329  2.3323
  384SOL    HW2 1152   0.957   2.173   0.182 -3.0986 -4.4126 -3.2888
  385SOL     OW 1153   3.027   2.033   1.698  0.0639 -1.0019  0.0570
  385SOL    HW1 1154   3.084   2.113   1.729 -3.6241  3.2548  0.5643
  385SOL    HW2 1155   3.079   1.955   1.672  0.0320 -1.3958  4.4668
  386SOL     OW 1156   0.446   1.104   0.436 -0.0173  0.6918  0.5194
  386SOL    HW1 1157   0.425   1.000   0.430 -3.6520 -1.3867 -0.5725
  386SOL    HW2 1158   0.388   1.160   0.373  1.0344  1.6612  1.1395
  387SOL     OW 1159   0.961   0.351   1.686  0.0970 -0.1183  0.2460
  387SOL    HW1 1160   1.025   0.424   1.661 -0.6256 -1.5198  2.2480
  387SOL    HW2 1161   0.978   0.266   1.621  0.4694  0.4087  0.5286
  388SOL     OW 1162   1.222   2.580   1.765 -0.4089  0.4154  0.2916
  388SOL    HW1 1163   1.214   2.569   1.664  1.7685  0.1802 -0.9455
  388SOL    HW2 1164   1.276   2.504   1.811 -0.3464 -1.7318  0.2089
  389SOL     OW 1165   0.240   3.096   1.125 -0.3634 -0.4142  0.0933
  389SOL    HW1 1166   0.208   3.089   1.222  2.9859 -0.9729  0.1661
  389SOL    HW2 1167   0.322   3.030   1.103  2.8847 -2.1747  0.2722
  390SOL     OW 1168   1.006   0.828   1.267 -0.5754  0.1096  0.3907
  390SOL    HW1 1169   1.105   0.810   1.249 -0.9138 -0.1105 -0.2998
  390SOL    HW2 1170   0.992   0.816   1.372  0.1285 -0.0020  1.3895
  391SOL     OW 1171   2.145   1.170   1.013 -0.0201 -0.5600 -0.0046
  391SOL    HW1 1172   2.069   1.106   1.044  1.6379  1.2404 -1.0759
  391SOL    HW2 1173   2.188   1.139   0.922 -1.9694  1.3114 -1.0187
  392SOL     OW 1174   0.894   2.672   3.090 -0.4850  0.3534 -0.0857
  392SOL    HW1 1175   0.825   2.665   3.163  0.7550  1.6593 -0.2211
  392SOL    HW2 1176   0.981   2.715   3.121 -0.2786  0.0757 -0.2879
  393SOL     OW 1177   0.332   0.587   1.982 -0.2003  0.3533 -0.3959
  393SOL    HW1 1178   0.252   0.535   1.944  2.2229 -0.8863  0.9233
  393SOL    HW2 1179   0.419   0.568   1.928 -1.5773  0.4714 -1.0551
  394SOL     OW 1180   2.818   1.779   2.769 -0.2018  0.2412  0.3392
  394SOL    HW1 1181   2.880   1.808   2.687 -2.3441  1.2177  0.6496
  394SOL    HW2 1182   2.753   1.855   2.802  0.3948  1.0111  1.4008
  395SOL     OW 1183   1.607   1.943   0.660 -0.2690  0.0694 -0.0643
  395SOL    HW1 1184   1.675   1.866   0.647 -2.6702 -0.2470  2.0235
  395SOL    HW2 1185   1.630   1.992   0.751  3.7973 -1.0576 -2.4533
  396SOL     OW 1186   2.754   2.041   1.303 -0.6047  0.5067 -0.0153
  396SOL    HW1 1187   2.787   2.038   1.402 -0.0332  1.0734 -0.6928
  396SOL    HW2 1188   2.652   2.055   1.296 -2.8509 -1.8241  0.0701
  397SOL     OW 1189   1.001   2.129   0.656  0.2224 -0.1162 -0.1062
  397SOL    HW1 1190   0.941   2.094   0.581 -0.6469  0.5056  3.3841
  397SOL    HW2 1191   0.955   2.208   0.704  0.5277  3.0899  0.7405
  398SOL     OW 1192   2.169   0.023   1.103  0.1466  0.1682  0.3159
  398SOL    HW1 1193   2.170  -0.085   1.100 -0.2817 -3.2013 -0.8036
  398SOL    HW2 1194   2.077   0.060   1.079  2.6968  0.5855  2.4123
  399SOL     OW 1195   2.890   2.606   2.779  0.6827 -0.1350  0.2084
  399SOL    HW1 1196   2.852   2.548   2.697  0.7554 -1.1657  1.5421
  399SOL    HW2 1197   2.873   2.559   2.870 -1.5785  0.6566 -0.1943
  400SOL     OW 1198   0.808   1.590   1.271  0.2441  0.3956  0.2792
  400SOL    HW1 1199   0.770   1.647   1.350 -1.3254 -0.0098 -1.0265
  400SOL    HW2 1200   0.797   1.644   1.182 -0.7765 -0.3905 -0.6100
  401SOL     OW 1201   1.851   0.090   1.301  0.1451  0.0656 -0.3232
  401SOL    HW1 1202   1.897   0.132   1.386 -2.1235 -3.2264  1.2871
  401SOL    HW2 1203   1.754   0.069   1.329 -0.2151  2.5781 -2.9630
  402SOL     OW 1204   1.328   0.189   3.044 -0.6146  0.0660  0.2859
  402SOL    HW1 1205   1.419   0.189   3.086 -1.4877  0.2080  0.4319
  402SOL    HW2 1206   1.281   0.270   3.081  1.1615 -5.4186 -0.8572
  403SOL     OW 1207   2.249   1.784   1.004  0.1954 -0.1889 -0.2203
  403SOL    HW1 1208   2.348   1.767   1.019 -2.8191 -3.1999 -2.4363
  403SOL    HW2 1209   2.215   1.870   1.055  2.9299  1.5865 -0.3047
  404SOL     OW 1210   0.193   2.449   2.765 -0.0891  0.3735  0.4016
  404SOL    HW1 1211   0.273   2.443   2.704 -2.5115 -1.4515 -0.1037
  404SOL    HW2 1212   0.170   2.545   2.802  0.8840 -2.5396  3.1939
  405SOL     OW 1213   0.241   2.477   0.578  0.3152 -0.2163  0.4038
  405SOL    HW1 1214   0.217   2.440   0.483 -0.5544 -0.7794 -0.7250
  405SOL    HW2 1215   0.299   2.561   0.577  0.0803  2.1673 -0.1810
  406SOL     OW 1216   0.019   1.538   2.980  0.1567 -0.5523  0.1198
  406SOL    HW1 1217   0.089   1.485   2.921  2.0737 -1.2226  1.4036
  406SOL    HW2 1218   0.039   1.536   3.081 -0.0596  0.6611 -0.8816
  407SOL     OW 1219   1.550   0.952   0.962 -0.0363 -0.0407 -0.0339
  407SOL    HW1 1220   1.577   0.947   0.862 -0.9626  2.3063 -1.1700
  407SOL    HW2 1221   1.466   1.014   0.977 -2.7535 -0.9186  1.2404
  408SOL     OW 1222   1.465   2.356   0.923 -0.0407 -0.3050  0.1230
  408SOL    HW1 1223   1.523   2.356   0.835 -0.8509 -3.1014 -1.7779
  408SOL    HW2 1224   1.499   2.420   0.995  4.0601  0.4586  1.3376
  409SOL     OW 1225   0.609   0.873   0.690  0.0191  0.1732 -0.1139
  409SOL    HW1 1226   0.540   0.906   0.624 -0.1817 -0.7610  0.9794
  409SOL    HW2 1227   0.638   0.777   0.671  0.4230  1.7047 -1.0344
  410SOL     OW 1228   1.315   1.999   1.494 -0.8343 -0.2417 -0.0421
  410SOL    HW1 1229   1.298   2.081   1.561  0.7345  0.8995  0.8166
  410SOL    HW2 1230   1.227   1.955   1.461  4.1563  0.2230 -2.1014
  411SOL     OW 1231   2.352   1.856   0.041  0.6141 -0.1003 -0.3835
  411SOL    HW1 1232   2.266   1.860  -0.015 -2.8229  1.1020  2.1937
  411SOL    HW2 1233   2.438   1.884  -0.012 -0.2367  0.5699 -0.8071
  412SOL     OW 1234   1.524   2.421   2.283 -0.7694  0.4376 -0.2209
  412SOL    HW1 1235   1.484   2.517   2.274 -0.8128 -1.9744  0.6658
  412SOL    HW2 1236   1.479   2.355   2.352  2.7785 -2.4828 -1.0447
  413SOL     OW 1237   3.018   0.280   2.875 -0.0708 -0.0810 -0.2178
  413SOL    HW1 1238   2.966   0.198   2.903 -0.2139  1.8375 -1.3042
  413SOL    HW2 1239   3.121   0.274   2.897 -0.3484 -2.2272  0.0437
  414SOL     OW 1240   1.765   1.315   1.334  0.0061  0.7221  0.2310
  414SOL    HW1 1241   1.702   1.405   1.346 -0.3747  0.3096 -0.1802
  414SOL    HW2 1242   1.804   1.306   1.239  0.4836  1.0173  0.1723
  415SOL     OW 1243   0.329   2.260   0.700  0.7235 -0.5647 -0.7558
  415SOL    HW1 1244   0.305   2.357   0.659  3.9966  1.0315 -0.1408
  415SOL    HW2 1245   0.250   2.194   0.687  0.8951 -2.8637 -0.6747
  416SOL     OW 1246   0.330   1.032   1.049  0.7175  0.4633  0.0156
  416SOL    HW1 1247   0.306   0.993   0.957 -0.2629 -0.3289 -0.9543
  416SOL    HW2 1248   0.433   1.039   1.054 -1.4843 -0.4418 -1.2140
  417SOL     OW 1249   2.175   2.323   1.861 -0.1634  0.0495 -0.6000
  417SOL    HW1 1250   2.202   2.227   1.897 -2.3888 -0.0666  1.0667
  417SOL    HW2 1251   2.072   2.336   1.882 -0.2937  0.0708  2.8248
  418SOL     OW 1252   1.121   0.438   1.380 -0.2559 -0.6545 -0.0753
  418SOL    HW1 1253   1.022   0.412   1.358  2.1713 -0.1615  0.7094
  418SOL    HW2 1254   1.181   0.458   1.306 -0.6788 -1.0508  3.4012
  419SOL     OW 1255   0.983   0.358   2.998  0.2977 -0.0351  0.3425
  419SOL    HW1 1256   0.993   0.390   2.899 -0.5563  0.6083  0.2883
  419SOL    HW2 1257   0.943   0.262   3.004 -0.2631  0.8585  2.0705
  420SOL     OW 1258   0.198   2.293   0.361  0.3075  0.3948  0.1685
  420SOL    HW1 1259   0.176   2.236   0.271 -0.0264 -1.5258 -3.3620
  420SOL    HW2 1260   0.123   2.269   0.431 -0.1182 -1.3442 -0.6319
  421SOL     OW 1261   0.338   0.058   0.685  0.2772 -0.3808 -0.0727
  421SOL    HW1 1262   0.312   0.001   0.604 -0.1629  1.4352 -0.8343
  421SOL    HW2 1263   0.440   0.075   0.686 -0.1286 -1.0894 -1.7416
  422SOL     OW 1264   0.941   2.514   1.036 -0.0046  0.1394 -0.0714
  422SOL    HW1 1265   0.936   2.595   0.971  0.9796 -2.3667  0.0028
  422SOL    HW2 1266   0.960   2.536   1.138 -2.3114 -1.9814  2.1390
  423SOL     OW 1267   0.051   0.711   1.207 -0.4148 -0.5052  0.6346
  423SOL    HW1 1268   0.032   0.673   1.303  0.1342 -0.5028 -2.1676
  423SOL    HW2 1269  -0.025   0.697   1.144 -0.3336 -1.1764  0.3816
  424SOL     OW 1270   0.987   2.145   2.218 -0.0039  0.2129  0.2366
  424SOL    HW1 1271   0.937   2.182   2.136  1.3260  2.7185  1.3688
  424SOL    HW2 1272   0.940   2.167   2.310  1.3160  0.6353 -0.4902
  425SOL     OW 1273   2.023   1.440   1.077  0.4088 -0.1729 -0.0132
  425SOL    HW1 1274   2.075   1.354   1.072 -3.3889 -0.6183 -0.1558
  425SOL    HW2 1275   2.029   1.507   0.998  2.4641 -2.5265  0.8982
  426SOL     OW 1276   1.572   1.520   1.403  0.1977 -0.8444 -0.4244
  426SOL    HW1 1277   1.530   1.609   1.366 -0.9848  0.2232 -0.4100
  426SOL    HW2 1278   1.558   1.507   1.507 -0.9593 -1.8740 -0.5482
  427SOL     OW 1279   1.932   2.346   2.041  0.1941  0.0321  0.1428
  427SOL    HW1 1280   1.984   2.276   2.101  1.0529  1.2085 -3.3768
  427SOL    HW2 1281   1.975   2.437   2.053 -0.4664 -0.8228  2.2787
  428SOL     OW 1282   0.941   3.063   0.094  0.0081 -0.0234  0.0866
  428SOL    HW1 1283   0.979   3.142   0.150 -1.8357 -0.8185  2.7616
  428SOL    HW2 1284   1.006   2.976   0.090  0.0482  0.4987 -0.2055
  429SOL     OW 1285   1.309   0.028   0.216 -0.1715 -0.5750 -0.2046
  429SOL    HW1 1286   1.397   0.085   0.224  1.0992 -0.4845  0.6270
  429SOL    HW2 1287   1.321  -0.050   0.155  1.7565 -0.9873 -1.0558
  430SOL     OW 1288   2.803   1.483   0.359  0.5401 -0.0204  0.3373
  430SOL    HW1 1289   2.855   1.554   0.301 -1.3954 -1.5172  0.5979
  430SOL    HW2 1290   2.786   1.525   0.451  0.5765 -1.0057  0.6443
  431SOL     OW 1291   2.102   1.598   0.873  0.2011 -0.1337 -0.2551
  431SOL    HW1 1292   2.162   1.647   0.940 -0.6104  1.7956 -1.4836
  431SOL    HW2 1293   2.009   1.645   0.865 -0.3793 -1.7957  1.1070
  432SOL     OW 1294   2.888   2.334   1.238  0.1853 -0.1107  0.3132
  432SOL    HW1 1295   2.839   2.241   1.243  2.5663 -2.4977 -2.8004
  432SOL    HW2 1296   2.937   2.362   1.323  1.4298  0.1575  2.0997
  433SOL     OW 1297   1.852   0.278   0.806 -0.1803  0.0924 -0.2593
  433SOL    HW1 1298   1.767   0.289   0.865 -1.0015 -0.1758  1.1544
  433SOL    HW2 1299   1.928   0.251   0.866 -0.0172  1.8327  0.0629
  434SOL     OW 1300   1.539   0.247   0.720  0.3378  0.1737  0.5550
  434SOL    HW1 1301   1.518   0.338   0.663 -1.8198  1.6111 -2.8701
  434SOL    HW2 1302   1.575   0.268   0.813 -1.1869  0.2576 -1.2420
  435SOL     OW 1303   1.422   1.486   2.111 -0.4842  0.2608  0.3855
  435SOL    HW1 1304   1.390   1.490   2.209  1.7132  2.1999  3.5865
  435SOL    HW2 1305   1.407   1.574   2.058  0.3575  2.3477 -0.8791
  436SOL     OW 1306   1.639   2.695   2.377 -0.5757  0.2757  0.1661
  436SOL    HW1 1307   1.637   2.791   2.423 -0.4198  2.1211 -1.9112
  436SOL    HW2 1308   1.618   2.620   2.445  0.5243 -0.2784 -0.8372
  437SOL     OW 1309   1.009   2.981   0.831  0.4401 -0.1730 -0.4471
  437SOL    HW1 1310   0.983   3.079   0.823  3.0895  1.0855 -2.8950
  437SOL    HW2 1311   1.071   2.958   0.913  0.6896 -1.1611  0.8553
  438SOL     OW 1312   1.005   2.518   1.335 -0.0713  0.1335 -0.0153
  438SOL    HW1 1313   1.091   2.554   1.388  1.5800 -1.9879 -0.3325
  438SOL    HW2 1314   1.008   2.412   1.343 -0.3775  0.8911 -1.7124
  439SOL     OW 1315   0.702   1.710   1.041  0.0481 -0.1285 -0.5729
  439SOL    HW1 1316   0.744   1.796   1.008 -0.9172 -1.1118 -1.2822
  439SOL    HW2 1317   0.634   1.716   1.120  1.0772 -0.3070  0.8459
  440SOL     OW 1318   0.997   2.357   1.981  0.9801 -0.1536  0.1343
  440SOL    HW1 1319   0.941   2.418   1.918  0.8384 -0.0828 -0.1126
  440SOL    HW2 1320   1.100   2.383   1.974  3.3825  0.1521  0.1264
  441SOL     OW 1321   0.373   2.763   1.293 -0.4011  0.0348 -0.0812
  441SOL    HW1 1322   0.412   2.671   1.311  1.0775  1.3998  2.2994
  441SOL    HW2 1323   0.413   2.807   1.211  0.6336 -0.4601 -0.8636
  442SOL     OW 1324   2.244   0.659   2.563 -0.1670 -0.1089 -0.0324
  442SOL    HW1 1325   2.225   0.558   2.567  1.8220 -0.8914  2.5221
  442SOL    HW2 1326   2.162   0.710   2.517 -0.1326 -0.3340 -1.0917
  443SOL     OW 1327   1.244   2.533   2.201 -0.1218  0.7600 -0.2393
  443SOL    HW1 1328   1.231   2.438   2.246 -0.3079 -0.2640 -0.2057
  443SOL    HW2 1329   1.204   2.607   2.257  1.5452  0.3654  0.4830
  444SOL     OW 1330   0.996   1.193   1.479  0.1294  0.0102 -0.1747
  444SOL    HW1 1331   1.097   1.182   1.508 -2.4315 -1.3181  0.9102
  444SOL    HW2 1332   0.968   1.288   1.454  1.2257 -1.7658  0.4097
  445SOL     OW 1333   0.182   2.245   2.121  0.2491  0.3861  0.2566
  445SOL    HW1 1334   0.081   2.265   2.092  0.9757  0.1819 -0.1262
  445SOL    HW2 1335   0.192   2.207   2.214  0.3109 -2.3779 -3.5965
  446SOL     OW 1336   0.103   1.945   2.369  0.3903 -0.2702 -0.2496
  446SOL    HW1 1337   0.052   2.037   2.387 -0.1188  0.1194  1.3336
  446SOL    HW2 1338   0.128   1.926   2.269 -2.0113  3.4429  0.4381
  447SOL     OW 1339   1.297   1.720   1.902 -0.2741  0.4563  0.1691
  447SOL    HW1 1340   1.204   1.765   1.897 -1.0309 -1.4367  0.6653
  447SOL    HW2 1341   1.373   1.766   1.957 -1.2771  0.2425 -0.1985
  448SOL     OW 1342   0.174   1.469   2.031  0.2248  0.2223 -0.1400
  448SOL    HW1 1343   0.175   1.551   1.970 -0.3759 -4.2430 -0.0586
  448SOL    HW2 1344   0.097   1.466   2.101 -0.0279 -0.8255  1.6667
  449SOL     OW 1345   1.815   2.935   0.815 -0.1912 -0.2535 -0.6971
  449SOL    HW1 1346   1.818   2.970   0.917  0.8370 -1.4281 -0.6639
  449SOL    HW2 1347   1.868   2.850   0.811 -1.5990  1.3362  0.2973
  450SOL     OW 1348   2.242   1.457   0.666  0.3891  0.2575 -0.1476
  450SOL    HW1 1349   2.208   1.493   0.757  3.7949 -0.5744 -0.5359
  450SOL    HW2 1350   2.274   1.534   0.605  0.7921 -1.3607 -0.0347
  451SOL     OW 1351   1.406   2.992   1.478 -0.1340  0.2279 -0.2660
  451SOL    HW1 1352   1.340   3.070   1.508  2.2076  2.4050  0.7412
  451SOL    HW2 1353   1.457   2.948   1.557 -2.5147  4.6382 -1.7748
  452SOL     OW 1354   2.709   2.310   2.266 -0.0954  0.4680 -0.4329
  452SOL    HW1 1355   2.625   2.370   2.282 -0.5154 -0.6004 -0.2657
  452SOL    HW2 1356   2.744   2.268   2.358  0.3599 -0.2839  0.6789
  453SOL     OW 1357   2.453   2.668   3.079  0.4010  0.0645 -0.4117
  453SOL    HW1 1358   2.362   2.698   3.106 -0.9381  1.5062  1.8665
  453SOL    HW2 1359   2.451   2.578   3.031  0.4190  1.0403  1.2965
  454SOL     OW 1360   0.938   1.182   2.026 -0.1484 -0.6289  0.1268
  454SOL    HW1 1361   0.878   1.172   1.943  0.7991  1.5687  0.1191
  454SOL    HW2 1362   1.007   1.259   2.015 -1.0713 -0.1297 -0.4211
  455SOL     OW 1363   0.678   2.610   2.792 -1.2002  0.3338 -0.5903
  455SOL    HW1 1364   0.778   2.638   2.798  2.3874 -1.6933  1.8497
  455SOL    HW2 1365   0.665   2.519   2.845  1.7993 -0.9111 -0.7211
  456SOL     OW 1366   0.318   1.928   0.236  0.6510  0.0281  0.3506
  456SOL    HW1 1367   0.421   1.915   0.234  0.6055  0.4922  2.1380
  456SOL    HW2 1368   0.286   2.018   0.195 -0.0530 -1.1693 -1.9677
  457SOL     OW 1369   0.391   2.731   0.686  0.0646  0.7132  0.0932
  457SOL    HW1 1370   0.379   2.818   0.625  2.1337  1.7407 -3.3035
  457SOL    HW2 1371   0.488   2.699   0.697 -0.8992 -2.2408 -0.0576
  458SOL     OW 1372   2.943   0.040   1.260 -0.1563  0.0863  0.0477
  458SOL    HW1 1373   2.969   0.141   1.250  0.4433  0.7376  2.3755
  458SOL    HW2 1374   2.948  -0.015   1.170  1.9180 -1.4783 -1.5378
  459SOL     OW 1375   2.154   2.486   0.743  0.3511 -0.5264  0.4461
  459SOL    HW1 1376   2.191   2.498   0.841  3.8305 -0.1198 -0.4958
  459SOL    HW2 1377   2.231   2.508   0.678 -0.8822  1.6118  1.4832
  460SOL     OW 1378   1.151   2.045   2.767  0.2046  0.4935 -0.1206
  460SOL    HW1 1379   1.186   2.065   2.671 -0.9373 -2.1418 -0.1062
  460SOL    HW2 1380   1.184   1.954   2.805 -2.8413 -0.2421  2.1564
  461SOL     OW 1381   0.469   2.134   2.712  0.0342 -0.1850  0.0247
  461SOL    HW1 1382   0.429   2.074   2.643 -1.3755  0.3720  4.5346
  461SOL    HW2 1383   0.485   2.083   2.799  0.5117  1.2932 -3.2906
  462SOL     OW 1384   0.950   1.017   1.752  0.0341 -0.1367  0.0179
  462SOL    HW1 1385   0.941   0.940   1.685  1.3556  0.4927  0.4631
  462SOL    HW2 1386   0.889   1.096   1.735  1.2946 -1.0089  0.3008
  463SOL     OW 1387   0.446   0.806   0.460  0.3381  0.1447 -0.3131
  463SOL    HW1 1388   0.478   0.721   0.417 -0.4430 -0.8968  1.3039
  463SOL    HW2 1389   0.347   0.791   0.486 -0.2652 -1.6292  1.0371
  464SOL     OW 1390   0.597   2.348   2.253 -0.4239 -0.2950 -0.5373
  464SOL    HW1 1391   0.527   2.382   2.325  0.0370  0.6174 -1.3649
  464SOL    HW2 1392   0.581   2.391   2.159  0.2836 -1.6023 -0.4708
  465SOL     OW 1393   0.231   0.931   0.786 -0.0357 -0.7725 -0.0987
  465SOL    HW1 1394   0.139   0.955   0.748  1.2870 -0.7109  0.5836
  465SOL    HW2 1395   0.260   0.833   0.778  2.0789 -1.0919  3.2266
  466SOL     OW 1396   1.338   1.155   1.016  0.5490 -0.4170  0.1001
  466SOL    HW1 1397   1.340   1.257   0.999  0.5964  0.6123 -2.2407
  466SOL    HW2 1398   1.250   1.127   1.066 -0.0089  3.0427  0.7933
  467SOL     OW 1399   0.624   0.434   2.522 -0.0309 -1.0377 -0.3572
  467SOL    HW1 1400   0.547   0.500   2.544  0.2114 -0.2419  1.2105
  467SOL    HW2 1401   0.626   0.350   2.584  2.9701 -0.1544 -1.1179
  468SOL     OW 1402   0.452   2.260   1.593 -0.3928 -0.1988 -0.0786
  468SOL    HW1 1403   0.529   2.326   1.618 -0.1194 -0.9308 -0.1221
  468SOL    HW2 1404   0.464   2.223   1.496 -2.2093  1.9176 -0.3361
  469SOL     OW 1405   1.420   1.356   1.213 -0.4056  0.6122  0.3300
  469SOL    HW1 1406   1.478   1.317   1.132  2.1828 -1.2786 -1.2094
  469SOL    HW2 1407   1.467   1.429   1.270 -1.9143 -1.6237  0.7313
  470SOL     OW 1408   3.014   1.809   0.783  0.3081 -0.2559 -0.2616
  470SOL    HW1 1409   3.054   1.895   0.739  0.2323  1.1474 -1.8658
  470SOL    HW2 1410   3.046   1.778   0.875 -0.8204  2.6612 -1.1983
  471SOL     OW 1411   2.621   1.381   2.193 -0.5003 -0.1495  0.0797
  471SOL    HW1 1412   2.609   1.279   2.214 -0.0398 -0.2682  1.2715
  471SOL    HW2 1413   2.710   1.422   2.222  0.1420  0.6617 -0.7289
  472SOL     OW 1414   1.148   2.490   0.064 -0.1652  0.3419  0.5042
  472SOL    HW1 1415   1.219   2.521   0.133 -0.0169 -0.0997  1.6336
  472SOL    HW2 1416   1.091   2.409   0.097 -1.6581  2.7522  1.7730
  473SOL     OW 1417   1.082   1.534   1.008 -0.3750  0.1320  0.2752
  473SOL    HW1 1418   0.994   1.529   0.950  0.9185 -0.5515 -0.5804
  473SOL    HW2 1419   1.076   1.477   1.094 -0.3610  1.7777  1.3652
  474SOL     OW 1420   0.643   1.284   0.521  0.1720  0.3400  0.1961
  474SOL    HW1 1421   0.583   1.205   0.486 -0.7252 -1.1881  0.2596
  474SOL    HW2 1422   0.725   1.240   0.568 -0.4203 -1.7397 -1.4390
  475SOL     OW 1423   2.822   0.058   0.807  0.2397  0.2810  0.0190
  475SOL    HW1 1424   2.897   0.132   0.809  0.2870  1.3667 -2.5206
  475SOL    HW2 1425   2.723   0.088   0.791 -0.3242 -0.9384 -1.2692
  476SOL     OW 1426   0.965   3.076   1.807  0.1124  0.0382 -0.3073
  476SOL    HW1 1427   1.068   3.092   1.800 -0.7149  0.1894 -0.7626
  476SOL    HW2 1428   0.922   3.031   1.723  0.2073  0.0715  1.1968
  477SOL     OW 1429   1.427   0.330   2.421 -0.3385  0.1398 -0.1208
  477SOL    HW1 1430   1.426   0.352   2.524 -0.8666  1.4705 -0.4420
  477SOL    HW2 1431   1.508   0.269   2.399  0.1862  1.5507 -1.1132
  478SOL     OW 1432   2.220   1.896   0.278  0.2899  0.1450  0.0901
  478SOL    HW1 1433   2.205   1.817   0.336  3.0616  0.8079 -1.5626
  478SOL    HW2 1434   2.280   1.872   0.190 -1.6886 -1.5172 -0.6524
  479SOL     OW 1435   1.293   0.942   2.901 -0.6762  0.5585 -0.0018
  479SOL    HW1 1436   1.367   0.964   2.833 -2.0254  1.6058 -2.2808
  479SOL    HW2 1437   1.238   0.855   2.875 -0.7178 -0.3136 -0.8861
  480SOL     OW 1438   2.664   2.305   0.386 -0.6174  0.0450 -0.0319
  480SOL    HW1 1439   2.719   2.240   0.447  0.7915 -0.1240 -0.9396
  480SOL    HW2 1440   2.565   2.295   0.409 -0.0459  1.5919 -1.9774
  481SOL     OW 1441   1.008   1.152   0.874  0.4804  0.0373 -0.0366
  481SOL    HW1 1442   1.023   1.253   0.870 -1.0078 -0.8507  0.4245
  481SOL    HW2 1443   1.007   1.117   0.974  3.7431 -0.7566  2.1479
  482SOL     OW 1444   1.610   0.285   2.006 -0.8279 -0.0253 -0.5418
  482SOL    HW1 1445   1.629   0.385   1.994 -0.6942  0.6373 -0.7594
  482SOL    HW2 1446   1.695   0.230   2.037  1.4592  0.4579  0.4821
  483SOL     OW 1447   0.203   2.344   1.192  0.8116 -0.5704  0.3223
  483SOL    HW1 1448   0.166   2.406   1.266  0.0984 -1.3830 -2.3692
  483SOL    HW2 1449   0.226   2.391   1.099  0.1894  0.8894 -0.9304
  484SOL     OW 1450   1.709   1.052   1.402 -0.2856 -0.1621 -1.0803
  484SOL    HW1 1451   1.792   1.012   1.453 -2.5354 -0.3894  1.5902
  484SOL    HW2 1452   1.718   1.153   1.386  0.4363 -1.5499  1.0733
  485SOL     OW 1453   0.764   0.772   1.899 -0.1032 -0.2591 -0.8541
  485SOL    HW1 1454   0.735   0.789   1.804 -0.5898 -0.8928 -0.8323
  485SOL    HW2 1455   0.859   0.733   1.901 -3.6394 -1.2648 -1.6500
  486SOL     OW 1456   0.878   1.870   2.431 -0.2937 -0.2263 -0.5890
  486SOL    HW1 1457   0.867   1.880   2.537 -1.6713 -0.4735  2.2104
  486SOL    HW2 1458   0.862   1.962   2.389  0.5591 -1.4878 -0.0578
  487SOL     OW 1459   1.764   1.602   1.068  0.3085  0.3798 -0.4520
  487SOL    HW1 1460   1.802   1.506   1.080 -2.2382 -0.1576  0.4335
  487SOL    HW2 1461   1.822   1.654   0.999 -1.9803 -0.3199 -1.3352
  488SOL     OW 1462   2.924   0.801   2.267  0.4821  0.1822  0.3005
  488SOL    HW1 1463   2.997   0.729   2.256 -1.4192  0.8528 -2.5384
  488SOL    HW2 1464   2.868   0.787   2.356  0.0624 -0.9372  1.0877
  489SOL     OW 1465   2.779   0.345   1.289  0.1373 -0.1805 -0.1836
  489SOL    HW1 1466   2.782   0.327   1.390  1.4700  1.0213 -0.8393
  489SOL    HW2 1467   2.868   0.325   1.242 -0.3056 -1.2878  1.0640
  490SOL     OW 1468   1.456   2.944   2.803 -0.4013 -0.2194 -0.4863
  490SOL    HW1 1469   1.517   2.860   2.813 -0.6705 -0.4447  0.4218
  490SOL    HW2 1470   1.417   2.964   2.706 -0.7666 -1.3285 -0.7119
  491SOL     OW 1471   1.775   1.471   2.732 -0.4148  0.3205  0.1820
  491SOL    HW1 1472   1.737   1.423   2.816 -1.4862 -0.8162  0.5106
  491SOL    HW2 1473   1.853   1.540   2.756  0.5600  2.0067 -0.9548
  492SOL     OW 1474   0.562   2.102   0.614 -0.5272  0.1910  0.5926
  492SOL    HW1 1475   0.618   2.085   0.710  1.7889  0.6706  3.7205
  492SOL    HW2 1476   0.485   2.168   0.631  1.9052 -0.4025 -0.1034
  493SOL     OW 1477   0.423   1.333   2.086  0.2174  0.2408 -0.1128
  493SOL    HW1 1478   0.335   1.385   2.074  0.3320  0.9090  1.7989
  493SOL    HW2 1479   0.404   1.233   2.099  2.0949  1.1817 -3.4674
  494SOL     OW 1480   2.723   2.653   0.106 -0.1054  0.1449  0.0540
  494SOL    HW1 1481   2.734   2.621   0.204  2.3212 -0.0885  1.6048
  494SOL    HW2 1482   2.621   2.659   0.081 -1.3441 -0.2914  0.0269
  495SOL     OW 1483   2.544   2.822   2.646  0.0079 -0.2265  0.0015
  495SOL    HW1 1484   2.578   2.732   2.677 -0.5604  0.0855  0.3230
  495SOL    HW2 1485   2.610   2.861   2.575  2.4396  3.0582 -0.0057
  496SOL     OW 1486   1.936   2.279   0.843 -0.0047 -0.7254  0.3719
  496SOL    HW1 1487   2.013   2.336   0.880 -1.0347 -1.3388 -2.7591
  496SOL    HW2 1488   1.964   2.184   0.819 -0.2929 -2.8064  0.6007
  497SOL     OW 1489   0.218   3.015   2.348 -0.2193  0.2129  0.3303
  497SOL    HW1 1490   0.159   3.073   2.407 -1.4660  2.5732  1.1212
  497SOL    HW2 1491   0.251   3.054   2.258  0.3175  0.9888 -2.0772
  498SOL     OW 1492   1.140   1.357   1.207  0.1062  0.4404  0.3606
  498SOL    HW1 1493   1.243   1.362   1.193 -1.8260 -0.3364 -2.0132
  498SOL    HW2 1494   1.110   1.423   1.284 -0.7823  1.4044 -1.5160
  499SOL     OW 1495   0.594   1.841   0.340 -0.0533 -0.1032 -0.1454
  499SOL    HW1 1496   0.631   1.772   0.270  1.0326  0.7046 -0.0006
  499SOL    HW2 1497   0.662   1.901   0.390 -0.2175  0.4209  0.3785
  500SOL     OW 1498   1.542   2.842   1.659  0.0882  0.3819  0.8886
  500SOL    HW1 1499   1.550   2.827   1.757 -0.0995  2.0674  0.5782
  500SOL    HW2 1500   1.558   2.758   1.599  1.4097 -0.6442  0.4302
  501SOL     OW 1501   0.821   1.173   2.272  0.2158 -0.0359  0.4231
  501SOL    HW1 1502   0.747   1.105   2.296 -1.5803  2.0033 -1.0976
  501SOL    HW2 1503   0.863   1.175   2.176  1.7621  0.3983  4.8757
  502SOL     OW 1504   2.599   0.907   1.796  0.1636  0.2721 -0.7717
  502SOL    HW1 1505   2.609   0.942   1.696 -0.6248 -1.1816  1.7219
  502SOL    HW2 1506   2.577   0.802   1.801  1.5397 -2.5155  1.1106
  503SOL     OW 1507   1.300   0.108   0.690  0.3996  0.1232 -0.2361
  503SOL    HW1 1508   1.220   0.173   0.681  1.3372  0.5577  1.8717
  503SOL    HW2 1509   1.389   0.153   0.717  0.2367  1.0332  1.3748
  504SOL     OW 1510   3.006   2.331   1.469  0.1575 -0.3430 -0.2441
  504SOL    HW1 1511   2.989   2.408   1.530  2.4913 -1.3367  1.2474
  504SOL    HW2 1512   3.106   2.300   1.459 -0.8280 -0.0445 -1.2418
  505SOL     OW 1513   2.294   1.153   1.497 -0.4850  0.2886 -0.2731
  505SOL    HW1 1514   2.279   1.188   1.399  2.8285  3.5220 -2.3479
  505SOL    HW2 1515   2.376   1.197   1.538  0.3635  1.3975 -0.4010
  506SOL     OW 1516   1.939   0.170   1.843 -0.4731  0.7003 -0.8008
  506SOL    HW1 1517   2.041   0.144   1.840 -0.6605 -1.3297 -0.5471
  506SOL    HW2 1518   1.931   0.265   1.881  0.7847 -2.9059  0.2874
  507SOL     OW 1519   0.497   0.715   2.218 -0.1202 -0.3688 -0.0283
  507SOL    HW1 1520   0.418   0.708   2.148 -1.1793 -3.0343 -3.4648
  507SOL    HW2 1521   0.562   0.635   2.220  1.2255  1.3638  3.3243
  508SOL     OW 1522   0.274   1.680   0.811  0.1566  0.3980 -0.3148
  508SOL    HW1 1523   0.312   1.734   0.733  2.1934  1.8159  0.9320
  508SOL    HW2 1524   0.271   1.736   0.902 -0.4689  2.4901  2.8715
  509SOL     OW 1525   1.312   1.209   2.459  0.0667 -0.2495 -0.1995
  509SOL    HW1 1526   1.332   1.172   2.366  0.8477 -1.4371 -0.7416
  509SOL    HW2 1527   1.225   1.173   2.499 -2.2541  1.6509  1.6068
  510SOL     OW 1528   1.302   2.034   2.226  0.2420  0.1883  0.0245
  510SOL    HW1 1529   1.309   2.090   2.135  0.9031 -0.2711  0.2252
  510SOL    HW2 1530   1.230   1.962   2.225 -1.4581  1.5549  1.1434
  511SOL     OW 1531   2.992   2.728   1.294 -0.0685  0.8874 -0.6737
  511SOL    HW1 1532   3.041   2.742   1.201  2.6873  0.0636 -0.4190
  511SOL    HW2 1533   2.892   2.703   1.283  0.1828  1.0682 -0.0885
  512SOL     OW 1534   2.346   0.450   1.406 -0.0852 -0.1078 -0.3761
  512SOL    HW1 1535   2.245   0.437   1.383 -1.5206  0.2218  1.3900
  512SOL    HW2 1536   2.406   0.414   1.329  1.7080  0.2964  0.3499
  513SOL     OW 1537   2.559   2.086   0.838  0.4601  0.3530  0.1046
  513SOL    HW1 1538   2.540   2.178   0.795 -0.4182  0.3899  2.2001
  513SOL    HW2 1539   2.625   2.031   0.780  2.4044 -0.0569 -0.9937
  514SOL     OW 1540   0.626   2.712   0.443 -0.0431 -0.3524 -0.3083
  514SOL    HW1 1541   0.665   2.739   0.351  2.5327 -1.6407 -2.6539
  514SOL    HW2 1542   0.655   2.778   0.519  0.4643  1.3713 -1.2224
  515SOL     OW 1543   1.939   1.344   2.402  0.2387 -0.0393  0.2565
  515SOL    HW1 1544   1.959   1.299   2.310 -2.2270 -0.0758 -0.7332
  515SOL    HW2 1545   1.864   1.298   2.456 -1.1698 -1.5572 -0.7101
  516SOL     OW 1546   0.261   0.181   1.941 -0.5183  1.0407 -0.6940
  516SOL    HW1 1547   0.363   0.191   1.909  0.3787  1.4026 -1.4473
  516SOL    HW2 1548   0.199   0.136   1.871  0.5776  3.2452  0.7768
  517SOL     OW 1549   0.479   0.193   1.171 -0.0451 -0.1920  0.2718
  517SOL    HW1 1550   0.538   0.138   1.231 -0.6977 -0.7753  1.9077
  517SOL    HW2 1551   0.383   0.159   1.164 -1.1377 -0.0876 -2.0911
  518SOL     OW 1552   2.182   3.005   1.859 -0.0425  0.0811  0.2561
  518SOL    HW1 1553   2.202   3.108   1.866  2.2805  1.8739  1.3366
  518SOL    HW2 1554   2.202   2.970   1.765  2.7497  1.2328 -0.2058
  519SOL     OW 1555   2.361   2.226   2.551 -0.0416  0.6942  0.3695
  519SOL    HW1 1556   2.304   2.183   2.629 -0.4584 -0.9974 -1.2532
  519SOL    HW2 1557   2.338   2.325   2.522 -1.3545  0.7356  0.9053
  520SOL     OW 1558   1.836   2.720   1.654  0.4636  0.0771  0.4419
  520SOL    HW1 1559   1.766   2.679   1.722 -3.3526 -1.4624  1.5737
  520SOL    HW2 1560   1.928   2.671   1.662 -1.8641 -0.0664 -0.5763
  521SOL     OW 1561   0.625   0.071   2.153 -0.8369 -0.0140 -0.4263
  521SOL    HW1 1562   0.529   0.046   2.162 -0.2863 -1.1990  1.1474
  521SOL    HW2 1563   0.687   0.040   2.230 -1.9803  1.7798  0.3063
  522SOL     OW 1564   0.229   1.905   1.463  0.3166 -0.1806  0.0120
  522SOL    HW1 1565   0.262   1.964   1.541  0.3442 -0.5726 -1.2706
  522SOL    HW2 1566   0.198   1.968   1.384  1.3659 -1.9062 -2.1605
  523SOL     OW 1567   2.176   2.929   1.568 -1.0421  0.3271 -0.0004
  523SOL    HW1 1568   2.264   2.867   1.550  2.1445 -1.6018 -2.5511
  523SOL    HW2 1569   2.100   2.890   1.512  2.5291  0.9228 -2.0812
  524SOL     OW 1570   0.193   2.760   2.800  0.0125  0.0894 -0.1507
  524SOL    HW1 1571   0.164   2.854   2.824 -1.2946 -1.2951 -1.1875
  524SOL    HW2 1572   0.284   2.764   2.743 -1.4283  0.1014  0.3743
  525SOL     OW 1573   2.182   2.055   0.494 -0.7295 -0.1272  0.1349
  525SOL    HW1 1574   2.173   2.007   0.586 -1.2182  0.1729 -1.5988
  525SOL    HW2 1575   2.189   1.993   0.410 -0.5789 -1.9916 -2.8280
  526SOL     OW 1576   0.434   1.540   1.734 -0.1089  0.3027 -0.3286
  526SOL    HW1 1577   0.535   1.566   1.750  1.5342  1.0468 -1.8467
  526SOL    HW2 1578   0.433   1.440   1.724  1.1030  1.0569 -0.2614
  527SOL     OW 1579   1.082   2.936   1.172 -0.2513  0.0054  0.4763
  527SOL    HW1 1580   1.140   2.864   1.221 -1.1724 -1.2812  2.7566
  527SOL    HW2 1581   1.129   3.022   1.161 -1.1212  1.4604 -0.7712
  528SOL     OW 1582   1.289   2.420   0.585  0.2134  0.4345 -0.6954
  528SOL    HW1 1583   1.347   2.331   0.593  2.8858 -1.1357 -1.7526
  528SOL    HW2 1584   1.336   2.503   0.621 -2.1982 -2.0010 -1.9274
  529SOL     OW 1585   1.894   1.763   0.865  0.2808  0.4707  0.2521
  529SOL    HW1 1586   1.858   1.762   0.766 -2.4042 -0.5895 -2.1377
  529SOL    HW2 1587   1.922   1.858   0.894 -1.1290  2.0247 -0.2874
  530SOL     OW 1588   0.410   2.477   0.183 -0.1179  0.8609 -0.2744
  530SOL    HW1 1589   0.426   2.445   0.278  0.9998  1.1460 -1.7294
  530SOL    HW2 1590   0.420   2.394   0.117 -1.6165  0.1036 -0.1745
  531SOL     OW 1591   1.829   0.991   1.038 -0.0322 -0.1752  0.1657
  531SOL    HW1 1592   1.835   1.008   0.937 -1.7100 -2.0699 -0.4201
  531SOL    HW2 1593   1.737   0.957   1.069 -0.6458 -1.0939  0.3241
  532SOL     OW 1594   0.401   1.175   0.708  0.1447 -0.2331 -0.1411
  532SOL    HW1 1595   0.427   1.161   0.607  0.3144 -0.6242 -2.8123
  532SOL    HW2 1596   0.335   1.108   0.751  0.6013  0.8963  0.9055
  533SOL     OW 1597   1.837   0.084   2.580  0.3054 -0.4563 -0.1604
  533SOL    HW1 1598   1.940   0.082   2.594 -0.9064 -0.1042  0.1467
  533SOL    HW2 1599   1.791   0.145   2.653  0.0786  2.5602  0.4100
  534SOL     OW 1600   0.196   0.198   1.569 -0.2728  0.4813 -0.0902
  534SOL    HW1 1601   0.280   0.243   1.529 -2.1111 -0.8573  0.3262
  534SOL    HW2 1602   0.117   0.263   1.569  2.4423 -1.5607 -0.1092
  535SOL     OW 1603   1.874   0.408   0.163  0.3232  0.1379  0.6997
  535SOL    HW1 1604   1.923   0.493   0.180 -4.5882  0.6191 -1.1944
  535SOL    HW2 1605   1.799   0.387   0.236  0.4409  4.3157  4.1414
  536SOL     OW 1606   1.223   2.524   1.014  0.1418  0.4624  0.3348
  536SOL    HW1 1607   1.256   2.516   0.919  2.2240 -1.2932  1.2431
  536SOL    HW2 1608   1.119   2.506   1.023 -0.4655  1.5066 -0.9687
  537SOL     OW 1609   0.879   0.225   2.320 -0.0786 -0.6491  0.7123
  537SOL    HW1 1610   0.882   0.219   2.215 -0.3974  0.8368  1.5398
  537SOL    HW2 1611   0.806   0.165   2.371 -1.1706 -2.7851 -1.0053
  538SOL     OW 1612   1.702   2.308   1.570  0.0680  0.2577 -0.2752
  538SOL    HW1 1613   1.665   2.231   1.516 -1.0425  2.3579 -0.8076
  538SOL    HW2 1614   1.777   2.354   1.513  1.3539 -2.0272 -3.0564
  539SOL     OW 1615   0.165   1.589   2.708 -0.2039  0.7215 -0.2251
  539SOL    HW1 1616   0.083   1.561   2.649  0.7447 -0.6261  0.6064
  539SOL    HW2 1617   0.174   1.692   2.735  3.5640  0.5758  1.4741
  540SOL     OW 1618   2.686   1.736   2.116  0.4153 -0.5206 -0.5073
  540SOL    HW1 1619   2.657   1.644   2.085 -2.3600  1.4883 -1.1544
  540SOL    HW2 1620   2.627   1.803   2.074  1.8832 -2.0917 -0.6526
  541SOL     OW 1621   0.439   2.257   0.001  0.3233 -0.3375 -0.1814
  541SOL    HW1 1622   0.486   2.177   0.054  1.4543 -0.3967 -0.3860
  541SOL    HW2 1623   0.358   2.216  -0.054  0.8041  1.6249  2.3132
  542SOL     OW 1624   2.197   2.620   0.440  0.3226  0.1840 -0.2679
  542SOL    HW1 1625   2.200   2.722   0.418 -0.1306  1.1854 -0.4686
  542SOL    HW2 1626   2.100   2.588   0.466  2.5608  2.5504  1.5768
  543SOL     OW 1627   1.048   1.803   1.748 -0.1632 -0.0207 -0.0526
  543SOL    HW1 1628   1.006   1.834   1.835 -1.8265 -0.3965  1.8842
  543SOL    HW2 1629   1.014   1.864   1.671  2.2866 -0.2389  1.2712
  544SOL     OW 1630   0.846   0.418   0.143 -0.3446  0.0701  0.3466
  544SOL    HW1 1631   0.884   0.353   0.216 -2.5771  0.5814  0.0641
  544SOL    HW2 1632   0.894   0.408   0.050 -0.5591  1.4738 -0.5619
  545SOL     OW 1633   1.156   1.757   0.624  0.2552 -0.5480 -0.5084
  545SOL    HW1 1634   1.254   1.753   0.661  0.4877 -0.1829  2.1010
  545SOL    HW2 1635   1.150   1.778   0.523  2.5792 -1.3874 -0.1058
  546SOL     OW 1636   2.677   1.586   0.044  0.5115 -0.2061 -0.3902
  546SOL    HW1 1637   2.722   1.552  -0.041 -1.5871 -1.3620  2.1460
  546SOL    HW2 1638   2.598   1.519   0.076 -1.7276  0.4993 -0.3756
  547SOL     OW 1639   0.507   0.009   2.745  0.5092 -0.0399  0.5382
  547SOL    HW1 1640   0.517  -0.094   2.731 -1.3458 -4.4250 -1.7376
  547SOL    HW2 1641   0.534   0.041   2.841  0.2242  2.1670  0.0536
  548SOL     OW 1642   2.073   0.813   3.079  0.5435  0.8810 -0.6353
  548SOL    HW1 1643   1.990   0.757   3.108 -1.8591 -1.4003 -0.0370
  548SOL    HW2 1644   2.053   0.915   3.088 -3.1845 -1.0523  0.3244
  549SOL     OW 1645   0.570   0.424   0.084  0.4599 -0.3458  0.6187
  549SOL    HW1 1646   0.551   0.487   0.003  1.7031 -0.9460  1.8212
  549SOL    HW2 1647   0.673   0.427   0.098 -0.3427  1.3294 -2.3166
  550SOL     OW 1648   2.545   2.849   2.908 -0.0960  0.2544  0.0299
  550SOL    HW1 1649   2.501   2.782   2.974 -2.5012  0.4682 -1.7498
  550SOL    HW2 1650   2.525   2.824   2.812  0.0288 -0.7331  3.5102
  551SOL     OW 1651   0.231   0.774   0.178  0.1920  0.1354 -0.7254
  551SOL    HW1 1652   0.336   0.773   0.174  0.7672 -0.5818  1.5189
  551SOL    HW2 1653   0.199   0.778   0.276  0.6655 -0.1476  1.1734
  552SOL     OW 1654   0.826   2.799   1.897 -0.0020  0.3662 -0.5942
  552SOL    HW1 1655   0.807   2.765   1.993 -0.4117 -4.7993  2.7763
  552SOL    HW2 1656   0.866   2.894   1.895 -0.2796  1.4359  1.9782
  553SOL     OW 1657   3.089   2.555   0.418  0.2688  0.2173  0.4564
  553SOL    HW1 1658   3.061   2.457   0.393 -0.6063 -0.2473  2.1689
  553SOL    HW2 1659   3.019   2.592   0.487 -0.5336  0.9803 -2.3138
  554SOL     OW 1660   2.144   0.296   0.532 -0.4742 -0.1640  1.0116
  554SOL    HW1 1661   2.216   0.263   0.459 -1.2731 -0.4782 -2.0925
  554SOL    HW2 1662   2.114   0.222   0.596  1.2356  1.7230  1.2870
  555SOL     OW 1663   0.470   2.933   2.463 -0.0125  0.5481 -0.3910
  555SOL    HW1 1664   0.377   2.971   2.438  1.9251  2.8461  0.4085
  555SOL    HW2 1665   0.509   2.876   2.384 -2.2833 -1.9030  0.0369
  556SOL     OW 1666   0.882   2.288   1.613  0.0053 -0.4991  0.1250
  556SOL    HW1 1667   0.925   2.382   1.638  1.1764  0.0196 -0.1538
  556SOL    HW2 1668   0.916   2.253   1.522  1.0862 -0.0987  0.2992
  557SOL     OW 1669   0.143   2.135   0.135 -0.0672  0.0783  0.3935
  557SOL    HW1 1670   0.084   2.049   0.143  1.0005 -1.0394  0.8158
  557SOL    HW2 1671   0.155   2.155   0.030  2.0826 -0.1712 -0.5898
  558SOL     OW 1672   2.931   2.340   0.282  0.5670  0.0023 -0.4548
  558SOL    HW1 1673   2.835   2.311   0.299 -0.3747 -0.8620  1.2504
  558SOL    HW2 1674   2.956   2.326   0.182  1.6954 -0.5748 -0.7946
  559SOL     OW 1675   0.427   2.257   1.301  0.3975 -0.4306  0.8542
  559SOL    HW1 1676   0.333   2.278   1.263 -0.2547  0.7131 -1.2227
  559SOL    HW2 1677   0.461   2.162   1.274  0.3812 -0.2103  1.2258
  560SOL     OW 1678   2.019   1.086   3.085  0.5252 -0.4756  0.1642
  560SOL    HW1 1679   2.025   1.147   3.003 -0.4504  1.3679  2.1207
  560SOL    HW2 1680   1.960   1.121   3.164  1.6664  0.1955  0.9619
  561SOL     OW 1681   3.049   1.932   0.103  0.0178 -0.6773 -0.2023
  561SOL    HW1 1682   3.004   1.837   0.113 -2.1492 -0.2047  0.5288
  561SOL    HW2 1683   2.996   1.986   0.034 -2.3523 -2.4078 -0.1066
  562SOL     OW 1684   0.835   2.184   2.470  0.1956 -0.0413  0.1849
  562SOL    HW1 1685   0.738   2.154   2.455 -0.4597 -0.9430 -1.8430
  562SOL    HW2 1686   0.837   2.240   2.554  1.8815 -1.3153 -3.2302
  563SOL     OW 1687   0.736   2.559   2.536 -0.2999 -0.6281  0.5935
  563SOL    HW1 1688   0.805   2.483   2.542 -1.6213 -1.2802  2.9729
  563SOL    HW2 1689   0.674   2.566   2.615  1.7407  0.7167 -0.8566
  564SOL     OW 1690   2.779   1.275   2.862 -0.0276 -0.0855 -0.5369
  564SOL    HW1 1691   2.683   1.252   2.894 -0.3995  0.1863  0.2851
  564SOL    HW2 1692   2.804   1.376   2.876  0.0569 -0.1937  2.3216
  565SOL     OW 1693   2.510   2.015   2.581 -0.0175 -0.4451  0.8011
  565SOL    HW1 1694   2.453   2.105   2.577  0.4037 -0.8538 -0.7536
  565SOL    HW2 1695   2.608   2.029   2.612  1.0304  0.7115 -0.2794
  566SOL     OW 1696   1.990   2.832   1.376 -0.3910  0.5523 -0.5111
  566SOL    HW1 1697   2.008   2.739   1.421  0.5270  0.0636 -0.0615
  566SOL    HW2 1698   2.023   2.836   1.278 -0.2050  0.3522  1.4760
  567SOL     OW 1699   2.466   0.146   2.251  0.0492  0.0063  0.4674
  567SOL    HW1 1700   2.497   0.130   2.155 -0.3525 -0.2719  0.5263
  567SOL    HW2 1701   2.384   0.211   2.258 -0.4240 -1.1500 -2.3517
  568SOL     OW 1702   1.423   1.806   0.422  0.5332  0.0973 -0.1546
  568SOL    HW1 1703   1.400   1.868   0.343  1.1659 -1.8149  2.5454
  568SOL    HW2 1704   1.475   1.858   0.501  1.1341  0.5395  3.5206
  569SOL     OW 1705   0.279   0.666   0.797  0.1618  0.4171 -0.1385
  569SOL    HW1 1706   0.331   0.597   0.745  4.7297 -2.6573  0.8890
  569SOL    HW2 1707   0.186   0.629   0.826 -2.3231 -2.5600  1.5842
  570SOL     OW 1708   0.614   0.777   2.845 -0.4935 -0.2908  0.0293
  570SOL    HW1 1709   0.650   0.751   2.755 -0.4514  0.7455  0.7988
  570SOL    HW2 1710   0.660   0.862   2.884  1.1870 -0.8999  4.1992
  571SOL     OW 1711   0.839   3.061   1.119 -0.1014 -0.0206 -0.3201
  571SOL    HW1 1712   0.847   3.116   1.031 -1.4531  0.7603  2.0737
  571SOL    HW2 1713   0.933   3.023   1.141 -1.4513 -1.2366 -0.8695
  572SOL     OW 1714   1.529   2.556   1.174  0.5374  0.3706 -0.5256
  572SOL    HW1 1715   1.458   2.505   1.230 -1.4041  3.1231  2.7332
  572SOL    HW2 1716   1.488   2.637   1.121 -0.9769  1.2074 -0.5322
  573SOL     OW 1717   2.943   0.414   2.109 -0.0718  0.0323 -0.2845
  573SOL    HW1 1718   2.919   0.312   2.098 -1.0691 -1.4161  1.3420
  573SOL    HW2 1719   2.876   0.484   2.082  0.4748 -1.9715 -2.0275
  574SOL     OW 1720   0.247   1.807   1.038  0.1532 -0.5659  0.2066
  574SOL    HW1 1721   0.232   1.910   1.016  0.4971  1.9942 -1.3365
  574SOL    HW2 1722   0.162   1.765   1.085 -0.3378 -0.8592  1.4617
  575SOL     OW 1723   0.895   2.141   1.013 -0.3866 -0.5012  0.3732
  575SOL    HW1 1724   0.862   2.172   1.109 -2.1042  1.6451  0.2704
  575SOL    HW2 1725   0.995   2.157   0.992 -1.3121  1.4314 -1.4856
  576SOL     OW 1726   2.936   2.902   1.698 -0.0821  0.2018 -0.1240
  576SOL    HW1 1727   2.858   2.848   1.659 -2.3058  2.2923  1.0328
  576SOL    HW2 1728   2.929   3.005   1.678 -1.5196  1.6035  1.9411
  577SOL     OW 1729   2.556   1.263   3.054 -0.0603  0.7317 -0.0014
  577SOL    HW1 1730   2.515   1.167   3.036  0.1935 -0.4105  1.7575
  577SOL    HW2 1731   2.597   1.269   3.152 -0.4326  1.2672  4.4615
  578SOL     OW 1732   1.345   2.723   2.572 -0.3947 -0.5904 -0.2290
  578SOL    HW1 1733   1.268   2.697   2.508  1.4620  0.5980  2.8735
  578SOL    HW2 1734   1.381   2.817   2.554  1.5597 -1.1756  0.0990
  579SOL     OW 1735   0.135   2.547   0.174  0.1322 -0.2867  0.6128
  579SOL    HW1 1736   0.090   2.545   0.266  1.6510  1.3541 -0.1401
  579SOL    HW2 1737   0.224   2.492   0.172 -0.8893 -3.0938 -0.9054
  580SOL     OW 1738   1.013   2.667   0.349  0.4290 -0.5069  0.1315
  580SOL    HW1 1739   1.097   2.693   0.294 -1.2101  0.9470 -1.3135
  580SOL    HW2 1740   0.952   2.594   0.302 -1.3857 -0.1618  1.1910
  581SOL     OW 1741   1.224   2.597   1.487 -0.7906  0.4815 -0.1979
  581SOL    HW1 1742   1.250   2.532   1.410 -2.6379  0.2902  0.5023
  581SOL    HW2 1743   1.240   2.695   1.447  0.2493 -0.6733 -3.3897
  582SOL     OW 1744   1.491   0.045   1.879 -0.3222  0.0706 -0.2095
  582SOL    HW1 1745   1.487   0.140   1.922 -1.8495 -3.8915 -2.2586
  582SOL    HW2 1746   1.568   0.035   1.809 -0.1432  1.5387  1.6076
  583SOL     OW 1747   2.434   2.996   0.601 -0.0005 -0.4323  0.3186
  583SOL    HW1 1748   2.518   2.957   0.554 -0.2270  1.9959 -2.0784
  583SOL    HW2 1749   2.383   2.924   0.654  0.0450  0.4985 -2.6680
  584SOL     OW 1750   1.532   0.959   2.107  0.1579  0.2729  0.1359
  584SOL    HW1 1751   1.584   1.018   2.036  2.0097  1.8088 -0.4344
  584SOL    HW2 1752   1.589   0.936   2.192  0.9220  0.1289  0.0541
  585SOL     OW 1753   2.140   2.639   2.922 -0.4638 -0.0680 -0.1102
  585SOL    HW1 1754   2.147   2.545   2.878 -1.1099  1.4711  1.8007
  585SOL    HW2 1755   2.050   2.689   2.893  0.3745 -0.0098 -0.4157
  586SOL     OW 1756   2.788   0.230   1.585 -0.5539 -0.1254  0.2791
  586SOL    HW1 1757   2.812   0.300   1.658 -3.0884 -3.5881 -0.6141
  586SOL    HW2 1758   2.693   0.195   1.585 -0.0758  0.4328  0.4415
  587SOL     OW 1759   2.004   1.614   2.731  0.1013  0.0046 -0.0492
  587SOL    HW1 1760   2.076   1.568   2.675  1.5124 -2.0644  2.8505
  587SOL    HW2 1761   2.040   1.621   2.830  0.7504  2.0000 -2.0663
  588SOL     OW 1762   0.495   2.717   2.219 -0.6421  0.4404  0.0499
  588SOL    HW1 1763   0.438   2.752   2.142 -0.5314 -0.3159 -2.2656
  588SOL    HW2 1764   0.455   2.630   2.263  1.9301 -0.8195  1.0122
  589SOL     OW 1765   2.148   1.470   2.536 -0.1345  0.5909 -0.0760
  589SOL    HW1 1766   2.079   1.421   2.476  1.9679  1.3304 -0.0060
  589SOL    HW2 1767   2.238   1.413   2.542 -0.7343  0.8153 -0.7560
  590SOL     OW 1768   2.345   1.714   1.985 -0.4456 -0.1360 -0.1565
  590SOL    HW1 1769   2.420   1.642   2.012 -2.8073  0.1634  0.7577
  590SOL    HW2 1770   2.350   1.799   2.047 -1.2023 -0.6383  2.1154
  591SOL     OW 1771   1.334   2.487   0.324 -0.3620 -0.4579  0.3759
  591SOL    HW1 1772   1.410   2.446   0.264  1.3060  2.9650 -0.9062
  591SOL    HW2 1773   1.318   2.441   0.418 -0.6408  1.0981  0.8305
  592SOL     OW 1774   1.685   2.329   0.780  0.2282  0.3610  0.4769
  592SOL    HW1 1775   1.686   2.400   0.697  1.9282  3.3803 -2.5997
  592SOL    HW2 1776   1.782   2.322   0.818  0.2931  0.8599 -2.6495
  593SOL     OW 1777   0.553   0.191   3.034  0.2477 -0.1207  0.4825
  593SOL    HW1 1778   0.658   0.189   3.018  0.7385  0.4500 -0.4151
  593SOL    HW2 1779   0.518   0.272   3.091  1.1829 -3.2249  0.2114
  594SOL     OW 1780   0.891   1.943   2.695  0.3293  0.5750 -0.2666
  594SOL    HW1 1781   0.984   1.986   2.712  0.6149  2.0399  1.7052
  594SOL    HW2 1782   0.815   2.010   2.712 -1.5216 -3.5832 -1.6746
  595SOL     OW 1783   1.554   0.039   1.068  0.0675  0.1565  0.2513
  595SOL    HW1 1784   1.648  -0.003   1.054  0.2635  0.1990  0.3114
  595SOL    HW2 1785   1.488   0.029   0.985  1.8978 -0.2393 -3.3440
  596SOL     OW 1786   3.085   1.462   2.212 -0.0034 -0.4521  0.1874
  596SOL    HW1 1787   2.992   1.498   2.230 -0.6299  0.6551  0.5884
  596SOL    HW2 1788   3.120   1.441   2.311 -1.2434 -2.9006  0.6115
  597SOL     OW 1789   2.109   2.620   1.621  0.2886 -0.4983 -0.0145
  597SOL    HW1 1790   2.119   2.525   1.589 -1.5583  3.4638 -0.5925
  597SOL    HW2 1791   2.166   2.649   1.704  0.0771  0.1031 -1.6857
  598SOL     OW 1792   2.551   2.900   1.199 -0.6598 -0.3992  0.0961
  598SOL    HW1 1793   2.608   2.958   1.263  0.4516  0.8800  0.6810
  598SOL    HW2 1794   2.585   2.887   1.100  0.0098  0.8598 -0.7459
  599SOL     OW 1795   2.930   0.344   2.406 -0.4203 -0.3097  0.4812
  599SOL    HW1 1796   3.012   0.334   2.343 -2.3599 -0.1480  1.1581
  599SOL    HW2 1797   2.858   0.406   2.362  0.7699  0.9494  1.6563
  600SOL     OW 1798   2.835   1.038   2.727  0.0880  0.1991 -0.6292
  600SOL    HW1 1799   2.798   0.958   2.779  0.1077 -1.7574 -0.1278
  600SOL    HW2 1800   2.813   1.129   2.765  1.6042 -1.2743 -0.9329
  601SOL     OW 1801   2.950   1.242   2.051  0.3558  0.3101 -0.2925
  601SOL    HW1 1802   2.903   1.297   1.976  2.2586 -0.1120 -2.8045
  601SOL    HW2 1803   3.006   1.307   2.117  1.1091  0.7239 -0.3201
  602SOL     OW 1804   1.542   1.690   2.366  0.1621  0.6523  0.2376
  602SOL    HW1 1805   1.477   1.610   2.371 -0.8048 -0.9253  0.6116
  602SOL    HW2 1806   1.639   1.664   2.384  4.2831  0.1197 -0.8204
  603SOL     OW 1807   0.670   1.264   2.624  0.2120 -0.3846  0.2510
  603SOL    HW1 1808   0.602   1.238   2.551 -0.1210  2.3130  0.8069
  603SOL    HW2 1809   0.734   1.191   2.638 -3.6212  0.5127  0.3394
  604SOL     OW 1810   2.401   0.959   0.189  0.3583 -0.0795  0.4757
  604SOL    HW1 1811   2.470   1.016   0.145 -0.9412 -1.3099 -0.0121
  604SOL    HW2 1812   2.369   0.881   0.127 -0.4339  0.5765 -1.0598
  605SOL     OW 1813   2.652   1.121   1.959  0.6983  0.3370 -0.4330
  605SOL    HW1 1814   2.647   1.038   1.894  0.0228  0.1408 -1.2548
  605SOL    HW2 1815   2.658   1.097   2.063  0.1286 -0.6122  1.1827
  606SOL     OW 1816   1.532   2.537   2.574  0.2982  0.2317  0.3332
  606SOL    HW1 1817   1.450   2.606   2.572 -0.6622 -2.2219 -2.9326
  606SOL    HW2 1818   1.497   2.443   2.551 -0.6949  0.5607 -2.5814
  607SOL     OW 1819   1.346   1.535   0.452 -0.1484 -0.0726 -0.2952
  607SOL    HW1 1820   1.303   1.505   0.543  1.7845  2.4686 -1.9270
  607SOL    HW2 1821   1.360   1.639   0.445 -0.7737 -0.4848  0.5455
  608SOL     OW 1822   1.415   2.917   0.428 -0.2729  0.2874  0.2512
  608SOL    HW1 1823   1.488   2.955   0.362 -1.3031 -1.5417  1.6521
  608SOL    HW2 1824   1.345   2.987   0.457  2.0092 -0.0479 -0.9430
  609SOL     OW 1825   1.329   1.348   0.266 -0.2975  0.4429  0.2056
  609SOL    HW1 1826   1.330   1.428   0.336 -1.7129 -1.3956  0.5233
  609SOL    HW2 1827   1.236   1.327   0.230 -0.8771  1.0994  0.6008
  610SOL     OW 1828   2.983   1.060   2.275 -0.8841 -0.8608  0.8780
  610SOL    HW1 1829   2.970   0.956   2.266 -1.7423 -0.1353 -1.2128
  610SOL    HW2 1830   2.970   1.108   2.181  1.8829  0.3468  0.1184
  611SOL     OW 1831   2.502   0.318   1.233 -0.1532 -0.4113 -0.4427
  611SOL    HW1 1832   2.468   0.220   1.219  1.4091  0.6365 -2.1893
  611SOL    HW2 1833   2.606   0.329   1.245  0.9792  0.1068 -0.6323
  612SOL     OW 1834   0.753   2.162   1.236 -0.0291  0.9516 -0.7167
  612SOL    HW1 1835   0.688   2.080   1.233  0.2225  0.3118 -1.3603
  612SOL    HW2 1836   0.711   2.246   1.195  0.5671 -0.0509  2.3540
  613SOL     OW 1837   0.883   1.428   2.400 -0.2369  0.0036 -0.1313
  613SOL    HW1 1838   0.966   1.464   2.358 -0.5340 -2.8914  0.8029
  613SOL    HW2 1839   0.838   1.350   2.347 -0.6242  2.9329 -1.9602
  614SOL     OW 1840   1.673   1.559   1.820  0.1192  0.6801  0.1394
  614SOL    HW1 1841   1.617   1.637   1.787 -0.2366  0.7304  2.1253
  614SOL    HW2 1842   1.732   1.582   1.904 -1.1703 -1.7191  2.9440
  615SOL     OW 1843   0.764   1.245   1.752 -0.2377 -0.4161 -0.4107
  615SOL    HW1 1844   0.718   1.214   1.673 -0.3234  0.3908  3.3137
  615SOL    HW2 1845   0.808   1.335   1.737 -1.1375 -0.4054 -0.8009
  616SOL     OW 1846   1.061   1.551   2.212  0.6123  0.3985 -0.0017
  616SOL    HW1 1847   0.990   1.556   2.140 -1.3453 -1.6263  1.5486
  616SOL    HW2 1848   1.094   1.642   2.240  0.1674  0.1953 -1.0776
  617SOL     OW 1849   2.960   1.521   1.625  0.4339  0.2171  0.1756
  617SOL    HW1 1850   2.940   1.420   1.630  1.3446 -0.6849  1.0152
  617SOL    HW2 1851   3.027   1.541   1.550 -0.5005 -1.4033 -1.4366
  618SOL     OW 1852   1.858   2.073   1.381 -0.0206  0.6493 -0.3277
  618SOL    HW1 1853   1.848   2.164   1.332  1.2639 -0.1165  2.7026
  618SOL    HW2 1854   1.837   1.989   1.322  0.5185 -0.9243 -1.3468
  619SOL     OW 1855   1.757   0.469   2.386 -0.1832 -0.1184 -0.3251
  619SOL    HW1 1856   1.684   0.539   2.343  1.6682  2.6297 -0.8057
  619SOL    HW2 1857   1.728   0.368   2.381 -0.8689 -0.8459  3.1851
  620SOL     OW 1858   2.263   2.835   0.777  0.2349  0.4945  0.3003
  620SOL    HW1 1859   2.168   2.805   0.758 -0.3439 -1.4571  0.0413
  620SOL    HW2 1860   2.311   2.772   0.847  1.0365  0.0386 -0.8539
  621SOL     OW 1861   2.168   1.896   1.368 -0.3454 -0.6410  0.3483
  621SOL    HW1 1862   2.164   1.922   1.469 -1.4296  1.0264  0.0492
  621SOL    HW2 1863   2.108   1.815   1.344 -0.4330  1.0475 -0.5658
  622SOL     OW 1864   2.325   0.959   1.884  0.1347 -0.4755 -0.0157
  622SOL    HW1 1865   2.424   0.942   1.872 -0.0090  0.2627  2.3488
  622SOL    HW2 1866   2.266   0.870   1.891 -2.3979 -1.2712  1.8587
  623SOL     OW 1867   1.274   0.828   2.515  0.8630  0.0396 -0.4723
  623SOL    HW1 1868   1.219   0.743   2.499  0.9409  0.2373 -1.1259
  623SOL    HW2 1869   1.269   0.880   2.424 -2.9627 -3.7796 -1.2922
  624SOL     OW 1870   0.478   0.655   3.054  0.0385  0.0765  0.0307
  624SOL    HW1 1871   0.551   0.677   2.980  1.4336 -0.3084  0.9838
  624SOL    HW2 1872   0.476   0.729   3.130 -1.6775  0.4082  0.7720
  625SOL     OW 1873   2.770   1.710   1.025  0.3474 -0.4555  0.4588
  625SOL    HW1 1874   2.681   1.766   1.023  0.6470  1.7433  0.4682
  625SOL    HW2 1875   2.852   1.770   1.046  0.8208  0.0270  2.4370
  626SOL     OW 1876   0.652   2.672   1.742  0.2319  0.0296  0.3865
  626SOL    HW1 1877   0.713   2.723   1.812  0.7186 -1.3957  0.8938
  626SOL    HW2 1878   0.549   2.700   1.744 -0.7155 -0.0436 -2.4439
  627SOL     OW 1879   0.668   0.835   1.634 -0.0852  0.2030 -0.5823
  627SOL    HW1 1880   0.584   0.782   1.599 -2.6127  1.0442 -0.4119
  627SOL    HW2 1881   0.701   0.909   1.575 -0.9916  0.7163 -0.5787
  628SOL     OW 1882   2.401   0.143   0.709  0.4032  0.4732 -0.1226
  628SOL    HW1 1883   2.432   0.054   0.670  0.5333 -0.3242  0.3836
  628SOL    HW2 1884   2.300   0.145   0.737 -1.1557 -0.6832 -0.3850
  629SOL     OW 1885   1.910   0.937   1.976 -0.0499 -0.0785 -0.2285
  629SOL    HW1 1886   1.909   1.023   1.917  0.0692  3.0301  0.9758
  629SOL    HW2 1887   1.939   0.964   2.073 -0.6137  1.0827  2.4196
  630SOL     OW 1888   2.898   2.239   0.801 -0.2655  0.5766 -0.5044
  630SOL    HW1 1889   2.847   2.329   0.817 -0.7578  1.7976 -0.3925
  630SOL    HW2 1890   2.840   2.154   0.791  3.6513 -0.2866 -0.8443
  631SOL     OW 1891   0.021   0.141   2.094  0.6414 -0.1019  0.5977
  631SOL    HW1 1892   0.088   0.202   2.149 -0.4095  1.5674  1.6583
  631SOL    HW2 1893   0.051   0.117   2.001 -0.3296  0.1647  0.4104
  632SOL     OW 1894   2.440   2.563   0.601  0.0876 -0.3377 -0.9636
  632SOL    HW1 1895   2.485   2.637   0.663  0.6198 -0.2723  1.0953
  632SOL    HW2 1896   2.422   2.604   0.512  0.9471 -1.4830 -0.3728
  633SOL     OW 1897   1.463   1.228   2.689 -0.5350 -0.7819  0.0302
  633SOL    HW1 1898   1.468   1.314   2.750  1.0832 -0.7705  0.6673
  633SOL    HW2 1899   1.403   1.232   2.607  1.4124 -3.6656 -0.8192
  634SOL     OW 1900   0.672   2.068   0.852 -0.1533 -0.1516 -0.0721
  634SOL    HW1 1901   0.585   2.083   0.904  1.4156  0.5485  1.4939
  634SOL    HW2 1902   0.755   2.097   0.905 -0.4921 -0.2265  0.9791
  635SOL     OW 1903   3.067   2.376   3.097 -0.1190  0.2933 -0.1860
  635SOL    HW1 1904   2.995   2.439   3.060  0.0611 -0.5413  1.6268
  635SOL    HW2 1905   3.125   2.417   3.172 -1.1705  0.3028 -0.7662
  636SOL     OW 1906   2.386   2.719   2.044  0.1271  0.9804  0.0869
  636SOL    HW1 1907   2.355   2.816   2.024 -0.0149  3.9707 -2.4816
  636SOL    HW2 1908   2.339   2.676   2.123  0.9906  1.0918  1.5046
  637SOL     OW 1909   2.727   0.629   2.003  0.5993  0.1778  0.3449
  637SOL    HW1 1910   2.645   0.651   1.941  0.6638  1.9180 -1.2940
  637SOL    HW2 1911   2.788   0.710   2.003  2.6540  1.9205 -1.0899
  638SOL     OW 1912   2.455   1.874   1.307 -0.3824  0.2812 -0.2985
  638SOL    HW1 1913   2.352   1.872   1.321 -0.4740 -0.9837 -0.3307
  638SOL    HW2 1914   2.501   1.808   1.373 -0.5349 -2.0858 -0.2817
  639SOL     OW 1915   1.297   2.218   1.652  0.4154 -0.1836  0.1424
  639SOL    HW1 1916   1.338   2.316   1.660  1.7213  1.8552  0.9964
  639SOL    HW2 1917   1.237   2.191   1.734  1.4398  0.1819  1.0125
  640SOL     OW 1918   0.197   1.206   1.558 -0.2190  0.2106 -0.1924
  640SOL    HW1 1919   0.182   1.207   1.660 -0.5628 -2.0315 -1.8734
  640SOL    HW2 1920   0.273   1.137   1.531  1.2878  0.4973  3.1256
  641SOL     OW 1921   1.962   0.220   1.513 -0.2948  0.0801 -0.2004
  641SOL    HW1 1922   1.902   0.270   1.586 -0.5451 -0.7298  2.3180
  641SOL    HW2 1923   2.045   0.175   1.552  1.0824 -0.5972 -3.3189
  642SOL     OW 1924   2.037   0.040   0.329 -0.2259  0.5498  0.6680
  642SOL    HW1 1925   2.140   0.056   0.345  1.2438 -1.5425 -1.4346
  642SOL    HW2 1926   1.997   0.012   0.423 -0.2830  0.2307  0.5448
  643SOL     OW 1927   2.898   1.939   2.157 -0.0368 -0.7604  0.6938
  643SOL    HW1 1928   2.862   1.844   2.143  0.7377 -0.7540  1.1726
  643SOL    HW2 1929   2.890   2.001   2.075  0.2015 -1.6215 -0.0083
  644SOL     OW 1930   2.281   2.424   1.234 -0.3286 -0.0201  0.3129
  644SOL    HW1 1931   2.338   2.351   1.180  0.9852 -2.5062 -1.8439
  644SOL    HW2 1932   2.245   2.402   1.329  3.3190 -2.1329  2.8313
  645SOL     OW 1933   0.670   0.838   1.259 -0.0839 -0.3160  0.2533
  645SOL    HW1 1934   0.567   0.832   1.285 -2.1260 -2.0020 -0.4228
  645SOL    HW2 1935   0.686   0.863   1.159 -1.5639  1.5513 -2.0013
  646SOL     OW 1936   1.505   1.824   2.044 -0.3605  0.3986 -0.0802
  646SOL    HW1 1937   1.577   1.822   1.970  0.4539 -1.1155  1.8356
  646SOL    HW2 1938   1.543   1.832   2.140  0.0401 -1.2029 -0.9708
  647SOL     OW 1939   0.812   1.124   0.670  0.3398  0.1740  0.7356
  647SOL    HW1 1940   0.894   1.140   0.734  0.4235 -0.0224 -0.1498
  647SOL    HW2 1941   0.752   1.045   0.702  2.3738  0.2090  1.2357
  648SOL     OW 1942   0.187   0.220   0.346  0.2383  0.3127 -0.3300
  648SOL    HW1 1943   0.165   0.145   0.281 -1.2834  1.4780 -1.9471
  648SOL    HW2 1944   0.191   0.309   0.296 -2.3151 -0.9938 -0.2228
  649SOL     OW 1945   2.996   0.268   0.826  0.2745  0.0447 -1.2580
  649SOL    HW1 1946   3.086   0.265   0.774 -0.2973 -0.5154 -0.2523
  649SOL    HW2 1947   2.963   0.361   0.851 -0.7094 -2.0435 -0.0103
  650SOL     OW 1948   2.797   0.680   1.506 -0.6230 -0.5473 -0.4359
  650SOL    HW1 1949   2.695   0.659   1.489 -5.0638 -2.9572  1.0048
  650SOL    HW2 1950   2.820   0.781   1.495  0.5793  0.5436  3.8946
  651SOL     OW 1951   0.868   1.535   1.676 -0.1376  0.1731 -0.2187
  651SOL    HW1 1952   0.912   1.568   1.767  0.9885  0.6772 -0.2491
  651SOL    HW2 1953   0.936   1.532   1.598 -1.0467  3.0521 -0.9721
  652SOL     OW 1954   2.372   2.479   2.472  0.3658 -0.3170  0.3657
  652SOL    HW1 1955   2.271   2.499   2.478  0.6594 -0.5274 -2.0166
  652SOL    HW2 1956   2.407   2.492   2.374 -1.5835 -1.0391 -0.8705
  653SOL     OW 1957   2.709   1.268   0.177  0.4782  0.0667 -0.2227
  653SOL    HW1 1958   2.752   1.348   0.228  0.4850  0.0915 -0.1002
  653SOL    HW2 1959   2.771   1.182   0.179  1.6431 -0.3386  0.8018
  654SOL     OW 1960   1.260   2.166   1.271  0.4026  0.0232  0.0506
  654SOL    HW1 1961   1.296   2.103   1.348 -2.5596 -2.1562 -2.2379
  654SOL    HW2 1962   1.287   2.129   1.172  1.4040 -3.0107 -0.7340
  655SOL     OW 1963   0.169   0.985   1.929  0.0057 -0.5353 -0.1901
  655SOL    HW1 1964   0.245   0.935   1.877  0.2729  0.9329  1.6862
  655SOL    HW2 1965   0.166   1.088   1.922  0.6282 -1.6740 -2.7813
  656SOL     OW 1966   2.594   2.555   2.637 -0.6484 -0.0163 -0.1375
  656SOL    HW1 1967   2.688   2.539   2.592 -0.8226  2.1927 -1.5232
  656SOL    HW2 1968   2.518   2.530   2.571  3.1602 -1.3269  0.7006
  657SOL     OW 1969   3.003   1.053   1.850 -0.2844  0.5004 -0.5234
  657SOL    HW1 1970   2.976   1.105   1.936 -0.0176 -0.3244 -1.0379
  657SOL    HW2 1971   3.102   1.016   1.857  2.7942 -0.9731 -2.7310
  658SOL     OW 1972   1.656   0.189   2.357  0.3729  0.0797 -0.4507
  658SOL    HW1 1973   1.708   0.145   2.436 -1.8843  0.7269 -1.4292
  658SOL    HW2 1974   1.679   0.156   2.263  2.6525  0.9928 -1.7626
  659SOL     OW 1975   1.411   0.630   2.794 -0.0661 -0.5466 -0.7235
  659SOL    HW1 1976   1.468   0.699   2.742 -0.6494  0.1586 -1.2911
  659SOL    HW2 1977   1.326   0.673   2.827  3.4223 -0.5063 -0.9891
  660SOL     OW 1978   1.468   0.313   1.415  0.0581  0.4000  0.4628
  660SOL    HW1 1979   1.476   0.348   1.513 -1.4539  1.0221 -0.5580
  660SOL    HW2 1980   1.533   0.236   1.406 -1.8771  2.1371 -0.7008
  661SOL     OW 1981   2.434   1.262   0.628  0.0602  0.0662  0.1732
  661SOL    HW1 1982   2.465   1.247   0.527 -0.1640  0.1515 -4.9434
  661SOL    HW2 1983   2.359   1.335   0.642 -0.1935 -1.8483 -1.3917
  662SOL     OW 1984   1.459   0.400   1.678  0.1338 -0.0546 -0.4690
  662SOL    HW1 1985   1.452   0.353   1.766 -0.6413  0.2804 -4.0132
  662SOL    HW2 1986   1.448   0.505   1.680 -0.9197  0.6612 -1.2062
  663SOL     OW 1987   0.883   1.593   1.965  0.7632  0.0449  0.9707
  663SOL    HW1 1988   0.876   1.685   2.010 -2.5639  0.3783  0.5459
  663SOL    HW2 1989   0.810   1.523   1.999  0.3527 -2.3698  3.0486
  664SOL     OW 1990   1.572   2.104   1.441 -0.0015  0.2118 -0.0177
  664SOL    HW1 1991   1.487   2.059   1.479 -1.0206  1.2715  0.2034
  664SOL    HW2 1992   1.649   2.036   1.424 -1.0072  1.2643  3.3139
  665SOL     OW 1993   2.249   0.696   1.967 -0.1279  0.3795 -0.3600
  665SOL    HW1 1994   2.211   0.605   1.995 -2.7662 -1.5199  0.5926
  665SOL    HW2 1995   2.332   0.726   2.025 -0.9557  1.5037 -1.0636
  666SOL     OW 1996   0.472   2.230   0.334  0.2894 -0.3457  0.0193
  666SOL    HW1 1997   0.552   2.273   0.387  1.3898  1.3621  0.3607
  666SOL    HW2 1998   0.376   2.262   0.355 -0.2660 -0.8169 -2.2594
  667SOL     OW 1999   1.952   0.204   1.060 -0.2876 -0.3479  0.1835
  667SOL    HW1 2000   1.992   0.298   1.063 -3.9288  0.1324  2.1825
  667SOL    HW2 2001   1.902   0.184   1.148 -0.3126 -1.4170  0.0741
  668SOL     OW 2002   1.975   0.507   1.091  0.1580 -0.2839  0.0656
  668SOL    HW1 2003   2.053   0.516   1.020  2.0090  0.0503  4.6306
  668SOL    HW2 2004   2.010   0.489   1.190  2.8919  1.6463  2.9586
  669SOL     OW 2005   3.029   2.160   1.047 -0.0377  0.2178  0.3664
  669SOL    HW1 2006   2.981   2.186   0.957 -1.5161  1.0181 -1.0931
  669SOL    HW2 2007   3.042   2.236   1.111  0.8841  0.2857  1.0521
  670SOL     OW 2008   2.917   2.307   2.087 -0.1392 -0.2997 -0.3527
  670SOL    HW1 2009   2.832   2.303   2.150  1.4692 -1.3161  0.7525
  670SOL    HW2 2010   2.952   2.400   2.054  0.1772 -2.8342  0.4509
  671SOL     OW 2011   1.808   1.746   1.503  0.3832  0.7073  0.3643
  671SOL    HW1 2012   1.750   1.797   1.432 -2.2085  1.2845  0.2636
  671SOL    HW2 2013   1.753   1.662   1.531  0.6707 -1.7922 -0.7552
  672SOL     OW 2014   0.457   0.646   2.578  0.3883  0.0905 -0.2066
  672SOL    HW1 2015   0.397   0.709   2.512  1.8726  0.9321  1.4940
  672SOL    HW2 2016   0.428   0.655   2.675  0.1185  0.2057 -0.0236
  673SOL     OW 2017   0.107   1.367   1.061 -0.4851 -0.6089  0.0005
  673SOL    HW1 2018   0.127   1.404   1.156  1.5024  1.7658  1.9402
  673SOL    HW2 2019   0.187   1.375   0.995 -0.5327 -0.0238  0.6039
  674SOL     OW 2020   1.627   2.971   0.274  0.4929 -0.2851  0.2066
  674SOL    HW1 2021   1.636   3.034   0.191 -1.5690  0.1915 -0.6067
  674SOL    HW2 2022   1.608   2.870   0.255  1.7981  1.0089  3.3029
  675SOL     OW 2023   1.694   0.848   2.344 -0.0358 -0.7967 -0.0040
  675SOL    HW1 2024   1.797   0.853   2.327  2.1323  0.9078  0.3042
  675SOL    HW2 2025   1.649   0.762   2.312  0.5816  0.3752  1.3580
  676SOL     OW 2026   2.557   1.532   1.985  0.0599 -0.5262 -0.9288
  676SOL    HW1 2027   2.528   1.475   1.907  3.2436 -0.7109  0.3618
  676SOL    HW2 2028   2.570   1.471   2.073 -0.9700  1.0560  3.4198
  677SOL     OW 2029   1.871   0.693   0.887 -0.0431 -0.1380  0.2063
  677SOL    HW1 2030   1.775   0.661   0.904 -1.4818  2.7296  2.4044
  677SOL    HW2 2031   1.928   0.680   0.973 -1.0628 -2.2356 -0.2756
  678SOL     OW 2032   0.084   0.758   1.632  0.6614 -0.0528 -0.0299
  678SOL    HW1 2033   0.167   0.808   1.668  1.1213 -2.1589  0.4522
  678SOL    HW2 2034   0.037   0.704   1.711 -1.6277  2.2558 -0.3063
  679SOL     OW 2035   2.590   1.133   1.176  0.5651  0.0426 -0.3918
  679SOL    HW1 2036   2.489   1.150   1.187 -0.4040  2.1417 -0.8750
  679SOL    HW2 2037   2.612   1.032   1.164 -0.9049  1.1567  0.9978
  680SOL     OW 2038   2.870   0.464   1.695  0.1389 -0.0769  0.1301
  680SOL    HW1 2039   2.833   0.533   1.624  1.0303  1.6632  0.8282
  680SOL    HW2 2040   2.934   0.504   1.764  0.2971 -2.0449  0.3333
  681SOL     OW 2041   3.000   0.054   1.597  0.0098  0.5009  0.2690
  681SOL    HW1 2042   3.065   0.057   1.520  0.7324  0.6810  1.8309
  681SOL    HW2 2043   2.905   0.090   1.581  2.8589  0.9958  2.1860
  682SOL     OW 2044   0.649   0.054   1.321  0.6047  0.3651  0.3515
  682SOL    HW1 2045   0.588  -0.005   1.384 -3.8201 -0.0704  0.9025
  682SOL    HW2 2046   0.707  -0.001   1.255  0.5268  0.9621  0.5793
  683SOL     OW 2047   1.387   0.213   2.132 -0.2973 -0.4701  0.4314
  683SOL    HW1 2048   1.342   0.269   2.208  3.1370 -0.4309  0.8105
  683SOL    HW2 2049   1.473   0.261   2.092  0.6300  0.8492 -1.4096
  684SOL     OW 2050   1.437   2.152   0.567  0.6915 -0.5744 -0.2962
  684SOL    HW1 2051   1.502   2.086   0.611 -1.7778  0.9639  0.1038
  684SOL    HW2 2052   1.349   2.102   0.542 -0.1879 -0.6212  0.2331
  685SOL     OW 2053   2.250   2.082   1.965 -0.3766 -0.4285 -0.0799
  685SOL    HW1 2054   2.304   2.051   1.880  1.1962  1.4261 -0.3727
  685SOL    HW2 2055   2.287   2.051   2.055  1.9367 -2.2059 -2.9245
  686SOL     OW 2056   1.510   1.871   2.919 -0.7023 -0.4391 -0.5394
  686SOL    HW1 2057   1.545   1.800   2.987 -0.9513 -0.0327  2.7513
  686SOL    HW2 2058   1.416   1.851   2.885 -1.2996 -0.3008 -1.4217
  687SOL     OW 2059   1.320   2.409   1.969 -0.6587  0.3029  0.3713
  687SOL    HW1 2060   1.379   2.326   1.962 -3.0378  1.4259  0.8506
  687SOL    HW2 2061   1.319   2.453   2.066  1.1882  0.3132  0.8968
  688SOL     OW 2062   2.078   1.506   1.735 -0.3275  0.2155  0.4748
  688SOL    HW1 2063   2.167   1.556   1.717  1.0707 -0.8430 -0.3935
  688SOL    HW2 2064   2.028   1.473   1.650 -0.9010 -1.3387  2.4625
  689SOL     OW 2065   2.403   1.143   2.750  0.0710 -0.0410  0.0282
  689SOL    HW1 2066   2.308   1.107   2.764  0.8444  0.4137 -3.8785
  689SOL    HW2 2067   2.472   1.102   2.815  0.4214 -1.2492 -1.4761
  690SOL     OW 2068   2.217   2.788   0.049  0.5594  0.8305 -0.0203
  690SOL    HW1 2069   2.188   2.729  -0.031 -0.1260  0.1214 -2.8514
  690SOL    HW2 2070   2.143   2.828   0.115  1.5911  1.9850  0.8859
  691SOL     OW 2071   2.575   0.442   2.107 -0.2228 -0.0542 -0.0930
  691SOL    HW1 2072   2.606   0.342   2.096 -0.3063 -1.7210 -1.3745
  691SOL    HW2 2073   2.636   0.512   2.056  0.7317  0.5894  0.3539
  692SOL     OW 2074   2.640   1.206   0.769 -0.3349 -0.4014  0.4098
  692SOL    HW1 2075   2.560   1.237   0.705 -0.2799  0.9613 -1.4594
  692SOL    HW2 2076   2.677   1.285   0.826  2.0210  0.0219  0.2275
  693SOL     OW 2077   2.831   2.950   0.640  0.1333  0.1031  0.1673
  693SOL    HW1 2078   2.811   3.018   0.720 -3.0711  0.5535 -2.6902
  693SOL    HW2 2079   2.837   3.004   0.551 -1.2359  0.4416  0.3237
  694SOL     OW 2080   2.413   2.200   0.164  0.4063 -0.1399  0.0965
  694SOL    HW1 2081   2.411   2.304   0.175  1.2783 -2.1646 -0.9648
  694SOL    HW2 2082   2.326   2.163   0.113  1.0118 -0.9423 -0.3616
  695SOL     OW 2083   0.485   2.971   1.442 -0.3566 -0.6852 -0.3622
  695SOL    HW1 2084   0.425   2.912   1.378 -2.2515 -1.5549 -1.4472
  695SOL    HW2 2085   0.436   2.990   1.533 -2.1713 -0.1366  0.3135
  696SOL     OW 2086   2.788   1.973   0.744  0.4020 -0.0094  0.6323
  696SOL    HW1 2087   2.850   1.902   0.787 -1.6718 -0.5200 -2.9923
  696SOL    HW2 2088   2.814   1.993   0.643  2.5771  1.6008  0.9879
  697SOL     OW 2089   1.670   1.862   1.826 -0.1124  0.2352  0.2505
  697SOL    HW1 2090   1.765   1.823   1.811  0.9724  0.6768  1.3284
  697SOL    HW2 2091   1.670   1.963   1.825  0.5058 -1.4397  0.6365
  698SOL     OW 2092   2.880   0.434   2.698 -0.3736 -0.2185  0.6907
  698SOL    HW1 2093   2.906   0.429   2.597  1.4593  1.0272  0.7828
  698SOL    HW2 2094   2.947   0.376   2.760 -0.4314  0.7922  3.3560
  699SOL     OW 2095   1.569   0.074   2.925  0.1409 -0.3677  0.2632
  699SOL    HW1 2096   1.504   0.010   2.872 -1.1199  1.6217  0.2056
  699SOL    HW2 2097   1.607   0.156   2.869  0.8048  0.3559  0.0397
  700SOL     OW 2098   0.991   2.252   1.372  0.0259 -0.2729 -0.0916
  700SOL    HW1 2099   1.075   2.195   1.371  1.1748  3.0904  2.3421
  700SOL    HW2 2100   0.911   2.208   1.319 -2.2970  0.7449  0.2501
  701SOL     OW 2101   1.902   2.859   0.049 -0.0589  0.7747 -0.0120
  701SOL    HW1 2102   1.878   2.819   0.142  0.8821  0.6125 -4.3907
  701SOL    HW2 2103   1.934   2.955   0.043  0.2237 -1.6998  3.7200
  702SOL     OW 2104   2.092   1.355   1.959 -0.3355  0.2919 -0.2348
  702SOL    HW1 2105   2.183   1.304   1.981  0.3877 -0.1986  1.9867
  702SOL    HW2 2106   2.090   1.406   1.864  0.7719 -0.1089 -1.2062
  703SOL     OW 2107   1.916   0.912   1.530 -0.0643  0.1638 -0.1602
  703SOL    HW1 2108   1.943   0.811   1.518 -1.6370 -1.5458  0.9008
  703SOL    HW2 2109   1.965   0.957   1.612 -1.0085 -1.6353 -0.3368
  704SOL     OW 2110   0.332   2.045   1.694  0.0666 -0.4603 -0.0498
  704SOL    HW1 2111   0.371   1.978   1.767  0.7004  1.0813  0.9397
  704SOL    HW2 2112   0.397   2.121   1.671  0.1698  0.4659 -0.1012
  705SOL     OW 2113   2.439   1.466   0.912  0.2959  0.4821 -0.4334
  705SOL    HW1 2114   2.411   1.447   0.817 -0.1142 -1.0739  0.4090
  705SOL    HW2 2115   2.539   1.449   0.935 -0.5133 -0.9599  0.5220
  706SOL     OW 2116   0.643   1.696   1.788  0.1691 -0.0096  0.3086
  706SOL    HW1 2117   0.718   1.706   1.720  2.4659  0.2594 -3.0741
  706SOL    HW2 2118   0.668   1.628   1.866  0.9363  0.1344  0.9696
  707SOL     OW 2119   2.325   1.212   1.979  0.1953  0.2804 -0.2029
  707SOL    HW1 2120   2.425   1.219   2.001  0.3471  0.0266 -3.5022
  707SOL    HW2 2121   2.300   1.116   1.940  0.1934 -1.2990  0.8243
  708SOL     OW 2122   3.027   0.475   3.077 -0.1404  0.4026  0.0012
  708SOL    HW1 2123   3.103   0.537   3.039  1.1111  0.9760  0.5908
  708SOL    HW2 2124   3.013   0.390   3.010 -2.4863  0.1167 -1.7167
  709SOL     OW 2125   1.902   1.867   0.374  0.6311 -0.4489 -0.3820
  709SOL    HW1 2126   1.913   1.967   0.385 -0.8568 -1.0881  2.0393
  709SOL    HW2 2127   1.859   1.843   0.282 -1.5187  0.4942  0.2984
  710SOL     OW 2128   1.819   1.596   2.466 -0.1607  0.5746  0.1742
  710SOL    HW1 2129   1.870   1.533   2.408 -1.9246  1.6775  2.4462
  710SOL    HW2 2130   1.786   1.544   2.551  0.6193  0.7156 -1.3204
  711SOL     OW 2131   2.665   2.922   0.917 -1.0473 -0.0189  0.1064
  711SOL    HW1 2132   2.621   3.018   0.923 -0.4535  1.4924  1.0132
  711SOL    HW2 2133   2.766   2.923   0.946  1.3814  2.0033  1.2467
  712SOL     OW 2134   1.403   2.126   1.991 -0.2762 -0.0071 -0.4076
  712SOL    HW1 2135   1.469   2.043   1.975 -1.7010 -0.5124 -1.6488
  712SOL    HW2 2136   1.319   2.126   1.933  1.1190  0.8559  4.4050
  713SOL     OW 2137   2.767   1.440   2.497  0.0015  0.4916  0.3053
  713SOL    HW1 2138   2.787   1.337   2.500  0.8953  2.7423  1.1771
  713SOL    HW2 2139   2.686   1.477   2.550  0.9813 -0.0773 -1.3652
  714SOL     OW 2140   2.691   0.489   2.363 -0.1352 -0.0527 -0.0628
  714SOL    HW1 2141   2.647   0.425   2.432 -0.6746  0.8132 -3.8117
  714SOL    HW2 2142   2.669   0.473   2.267  2.9989  0.6131  0.6592
  715SOL     OW 2143   1.609   2.189   1.153  0.3741  0.6987  0.2007
  715SOL    HW1 2144   1.522   2.226   1.102 -0.6212  0.6640  0.7000
  715SOL    HW2 2145   1.592   2.146   1.245  0.0947 -3.6193 -1.7592
  716SOL     OW 2146   1.249   0.108   1.502 -0.4923  0.5810 -0.5622
  716SOL    HW1 2147   1.154   0.151   1.497 -2.3501 -2.3624  2.1883
  716SOL    HW2 2148   1.317   0.172   1.452  2.1697 -0.4266 -1.1226
  717SOL     OW 2149   1.132   0.568   1.621 -0.2989 -0.1766  0.0374
  717SOL    HW1 2150   1.224   0.603   1.652 -1.1077 -0.6054 -1.5006
  717SOL    HW2 2151   1.133   0.527   1.526  1.6457 -1.0313  1.3859
  718SOL     OW 2152   0.685   0.892   0.943 -0.1730  0.2320  0.0735
  718SOL    HW1 2153   0.657   0.890   0.839 -0.3433  2.7762 -0.6436
  718SOL    HW2 2154   0.659   0.985   0.987 -1.1517 -1.1790 -2.6017
  719SOL     OW 2155   0.672   1.736   2.307 -0.4913 -0.1059 -0.2714
  719SOL    HW1 2156   0.743   1.751   2.377  2.0880  3.2404 -0.6339
  719SOL    HW2 2157   0.634   1.637   2.299 -0.4830  0.7120  1.0806
  720SOL     OW 2158   2.202   1.152   0.289  0.6324  0.0904 -0.0144
  720SOL    HW1 2159   2.237   1.063   0.243  0.5139 -1.4157 -1.1524
  720SOL    HW2 2160   2.183   1.142   0.389 -1.0248 -0.2432 -0.0207
  721SOL     OW 2161   2.252   3.014   2.107  0.9114 -0.4674 -0.2405
  721SOL    HW1 2162   2.205   3.014   2.017  0.0850 -0.6582 -0.1253
  721SOL    HW2 2163   2.198   3.079   2.174  0.3878 -2.3910  5.0739
  722SOL     OW 2164   2.350   1.665   0.517  0.2248 -0.2935 -0.4458
  722SOL    HW1 2165   2.420   1.707   0.453  0.1540 -2.5607  0.2885
  722SOL    HW2 2166   2.251   1.688   0.496  2.4728 -2.7873  0.0614
  723SOL     OW 2167   2.631   2.763   1.925  0.0718 -0.4071 -0.3804
  723SOL    HW1 2168   2.671   2.842   1.974 -1.5011 -2.2981 -1.7766
  723SOL    HW2 2169   2.534   2.748   1.955  1.6069  0.8913  0.1979
  724SOL     OW 2170   0.418   2.508   2.419  1.1308 -0.4235  0.6036
  724SOL    HW1 2171   0.313   2.513   2.407  0.1839  0.2815 -1.9744
  724SOL    HW2 2172   0.441   2.469   2.511 -2.1015  1.8202 -0.7395
  725SOL     OW 2173   2.429   2.818   1.521 -0.7567 -0.6942  0.2348
  725SOL    HW1 2174   2.432   2.822   1.421  1.9021  0.8233 -0.5588
  725SOL    HW2 2175   2.452   2.722   1.564  2.2602 -1.7632  2.1509
  726SOL     OW 2176   2.519   2.319   0.705 -0.2450 -0.2824 -0.2271
  726SOL    HW1 2177   2.495   2.415   0.657 -0.3261 -0.7543  1.1622
  726SOL    HW2 2178   2.484   2.243   0.646 -1.3112 -1.3423  1.9393
  727SOL     OW 2179   0.115   0.010   0.138  0.3058 -0.1841  0.6762
  727SOL    HW1 2180   0.210   0.029   0.090 -0.1701  0.9804  0.0939
  727SOL    HW2 2181   0.070  -0.065   0.085  0.5342  2.4713  1.0361
  728SOL     OW 2182   2.918   0.702   0.949 -0.2583  0.3048  0.3720
  728SOL    HW1 2183   2.844   0.705   0.871 -2.5731  1.7361 -0.2540
  728SOL    HW2 2184   2.873   0.662   1.035 -2.1837  1.6403  0.8645
  729SOL     OW 2185   0.031   2.517   0.780 -0.3650 -0.4656 -0.1942
  729SOL    HW1 2186   0.087   2.487   0.861  1.1289  1.0959 -5.0843
  729SOL    HW2 2187   0.075   2.483   0.696  0.7773  0.2841  1.1634
  730SOL     OW 2188   2.611   0.671   0.886 -0.0022 -0.1985 -0.0142
  730SOL    HW1 2189   2.584   0.770   0.880  1.8978 -1.9209  1.7181
  730SOL    HW2 2190   2.676   0.639   0.809 -1.0456  2.9555 -0.9184
  731SOL     OW 2191   3.070   2.188   2.355 -0.0913  0.0570  0.3460
  731SOL    HW1 2192   3.064   2.240   2.443 -0.4420  0.6520  0.1212
  731SOL    HW2 2193   3.001   2.222   2.283 -0.6821  1.1023 -1.2862
  732SOL     OW 2194   1.268   2.746   2.006 -0.3554 -0.1794  0.0237
  732SOL    HW1 2195   1.275   2.672   2.079 -0.8392  2.0846 -0.2699
  732SOL    HW2 2196   1.245   2.705   1.912 -0.6262 -1.6549  0.7191
  733SOL     OW 2197   0.017   0.599   2.277 -0.6050  0.2276  0.4123
  733SOL    HW1 2198   0.091   0.654   2.228  1.2044 -1.2914 -1.0607
  733SOL    HW2 2199  -0.032   0.535   2.215  0.6531 -0.6305  1.6838
  734SOL     OW 2200   1.461   0.374   2.683  0.0994 -0.0905 -0.6869
  734SOL    HW1 2201   1.444   0.476   2.697  0.1736  0.9961  2.7589
  734SOL    HW2 2202   1.374   0.322   2.712 -0.3352 -0.2637  2.0098
  735SOL     OW 2203   2.902   2.654   2.286 -0.7629 -0.0985  0.0251
  735SOL    HW1 2204   2.873   2.646   2.184 -3.1214  0.5615  1.2584
  735SOL    HW2 2205   3.000   2.671   2.303 -3.3648 -1.3243  0.1853
  736SOL     OW 2206   0.897   0.403   2.522 -0.3367  0.0891 -0.7040
  736SOL    HW1 2207   0.809   0.452   2.528  1.6077  0.8110  0.9989
  736SOL    HW2 2208   0.895   0.334   2.442  1.4508 -0.4645  0.3164
  737SOL     OW 2209   2.611   0.421   2.785  0.1566 -0.3595 -0.2151
  737SOL    HW1 2210   2.580   0.391   2.878 -1.3984 -0.4189 -2.3043
  737SOL    HW2 2211   2.714   0.396   2.772 -0.0691 -1.1731 -0.5373
  738SOL     OW 2212   1.749   1.249   2.940 -0.0851  0.5134 -0.3041
  738SOL    HW1 2213   1.847   1.276   2.906 -0.5837  1.6163 -0.8250
  738SOL    HW2 2214   1.727   1.158   2.894  0.8360  0.9196 -1.9403
  739SOL     OW 2215   1.862   0.685   0.627  0.2832 -0.0283 -0.2110
  739SOL    HW1 2216   1.877   0.702   0.734  3.0072  1.5739  2.5844
  739SOL    HW2 2217   1.883   0.587   0.602  0.6077  2.8266  0.8979
  740SOL     OW 2218   1.964   1.924   2.351 -0.1968 -0.1583  0.2979
  740SOL    HW1 2219   2.047   1.856   2.369  2.2763 -2.4379  2.7234
  740SOL    HW2 2220   1.898   1.896   2.277 -0.9760 -1.0852 -0.6884
  741SOL     OW 2221   2.549   3.086   2.481  0.7369 -0.2259 -0.1846
  741SOL    HW1 2222   2.648   3.091   2.450  0.8652  2.0039 -0.8004
  741SOL    HW2 2223   2.481   3.133   2.416  0.6554  2.0156  0.4624
  742SOL     OW 2224   2.186   1.436   0.155  0.2145 -0.0804 -0.0834
  742SOL    HW1 2225   2.084   1.452   0.127 -1.2627 -1.6782  0.7027
  742SOL    HW2 2226   2.193   1.350   0.215 -2.8681  0.2736 -0.6569
  743SOL     OW 2227   1.835   0.609   2.597  0.0273 -0.1842 -0.0518
  743SOL    HW1 2228   1.806   0.555   2.512 -1.6711  0.4936 -2.9826
  743SOL    HW2 2229   1.748   0.648   2.640  0.6509  2.9747 -0.1635
  744SOL     OW 2230   2.671   2.133   0.072  0.4935 -0.9955 -0.1726
  744SOL    HW1 2231   2.596   2.152   0.142 -2.4945  2.6383 -0.7553
  744SOL    HW2 2232   2.687   2.031   0.060 -1.2573  0.3646 -1.7358
  745SOL     OW 2233   2.191   2.573   2.223  0.6230  0.0682  0.1955
  745SOL    HW1 2234   2.124   2.587   2.145 -1.4025  0.3988  1.9831
  745SOL    HW2 2235   2.176   2.639   2.302  1.7443  3.3537  1.3230
  746SOL     OW 2236   0.024   2.617   1.745  0.1488  0.4745 -0.0734
  746SOL    HW1 2237   0.111   2.620   1.689 -0.6272  0.3277  0.3706
  746SOL    HW2 2238   0.031   2.680   1.828 -0.1182  0.0588  0.7136
  747SOL     OW 2239   0.073   1.797   1.647 -0.1250 -0.3520 -0.2246
  747SOL    HW1 2240  -0.010   1.743   1.626  2.4083  1.3746  1.6636
  747SOL    HW2 2241   0.140   1.820   1.567  0.2599 -1.3896  2.1290
  748SOL     OW 2242   1.850   2.740   2.911  0.2685 -0.2429 -0.3210
  748SOL    HW1 2243   1.867   2.789   2.999  0.0227 -0.4676  0.6181
  748SOL    HW2 2244   1.759   2.740   2.871  2.4964  2.2405 -0.9170
  749SOL     OW 2245   1.364   3.000   0.875  0.9352  0.6028  0.4994
  749SOL    HW1 2246   1.296   3.047   0.822  2.8122  0.5676 -0.8540
  749SOL    HW2 2247   1.456   2.981   0.819 -0.5105 -1.0928 -0.0439
  750SOL     OW 2248   2.235   0.176   1.845  0.2688 -0.0292  0.0466
  750SOL    HW1 2249   2.292   0.207   1.758  0.2097 -1.3282 -2.6305
  750SOL    HW2 2250   2.248   0.242   1.927 -0.0865 -3.2074  1.0658
  751SOL     OW 2251   0.764   2.119   2.872 -0.4663 -0.2680  0.2775
  751SOL    HW1 2252   0.843   2.109   2.941  0.0534 -3.8260 -1.4347
  751SOL    HW2 2253   0.672   2.094   2.909  1.0061  2.4137  1.2780
  752SOL     OW 2254   1.293   0.812   1.179  0.0954  0.4566  0.7402
  752SOL    HW1 2255   1.322   0.909   1.207  1.8830 -0.8215  2.1241
  752SOL    HW2 2256   1.358   0.741   1.214 -1.8242  0.0821  1.3418
  753SOL     OW 2257   0.965   2.566   1.805 -0.6734 -0.1795  0.0850
  753SOL    HW1 2258   1.073   2.577   1.798  1.1240 -0.9977  0.5624
  753SOL    HW2 2259   0.913   2.658   1.823 -1.8203  1.7398 -0.5588
  754SOL     OW 2260   1.161   1.172   3.004 -0.4795  0.3888  0.2809
  754SOL    HW1 2261   1.219   1.101   2.957  0.3219 -0.0421 -1.7880
  754SOL    HW2 2262   1.207   1.262   3.016 -0.3595 -0.1957  0.4890
  755SOL     OW 2263   1.988   0.453   2.223  0.3117 -0.4765  0.5795
  755SOL    HW1 2264   2.071   0.390   2.255  2.1362  0.4032  3.3068
  755SOL    HW2 2265   1.909   0.441   2.283  0.9937  0.9575 -1.3145
  756SOL     OW 2266   2.502   1.005   2.994 -0.4557 -0.0291 -0.3371
  756SOL    HW1 2267   2.604   0.974   2.998 -0.9145 -0.4497 -0.7990
  756SOL    HW2 2268   2.430   0.933   2.999  0.0109 -0.0675 -1.4339
  757SOL     OW 2269   0.093   0.397   1.960  0.3564 -0.1395 -0.0258
  757SOL    HW1 2270   0.164   0.326   1.955 -0.3050  0.3920 -2.4686
  757SOL    HW2 2271   0.009   0.365   2.021 -0.2884 -0.4641  1.2971
  758SOL     OW 2272   2.208   0.105   1.508 -0.4123  0.0243  0.0188
  758SOL    HW1 2273   2.200   0.010   1.550 -3.8793 -0.0351 -0.8597
  758SOL    HW2 2274   2.193   0.103   1.404 -2.0471  0.4727  1.4515
  759SOL     OW 2275   1.681   0.035   0.054  0.7901 -0.3917 -0.4334
  759SOL    HW1 2276   1.619   0.053  -0.027  1.1603  0.0628  0.1748
  759SOL    HW2 2277   1.776   0.008   0.025 -1.0666  0.5251  0.1875
  760SOL     OW 2278   2.669   1.999   2.814 -0.2483  0.1072 -0.4106
  760SOL    HW1 2279   2.569   2.031   2.811  0.2079  0.4095  1.1408
  760SOL    HW2 2280   2.728   2.079   2.834  0.6531 -1.1467 -0.8683
  761SOL     OW 2281   1.946   1.733   1.744  0.4946  0.2598  0.3185
  761SOL    HW1 2282   1.965   1.632   1.764 -1.2196 -0.1932 -0.6022
  761SOL    HW2 2283   1.891   1.738   1.654 -1.2742 -0.1141 -0.7224
  762SOL     OW 2284   0.477   2.392   0.948  0.2834  0.1475  0.6809
  762SOL    HW1 2285   0.514   2.404   0.850 -1.1307  0.6657 -0.7448
  762SOL    HW2 2286   0.557   2.382   1.015  1.7062  0.9897  2.2519
  763SOL     OW 2287   2.087   1.564   2.995 -0.5295 -0.2612 -0.0212
  763SOL    HW1 2288   2.186   1.530   2.993 -1.2141 -0.9636  0.4042
  763SOL    HW2 2289   2.028   1.499   3.046  2.6219  2.4705  0.0151
  764SOL     OW 2290   0.693   0.606   0.690 -0.3461  0.1388  0.0112
  764SOL    HW1 2291   0.609   0.553   0.682  1.2264 -0.5870  0.9843
  764SOL    HW2 2292   0.741   0.586   0.780  0.3988  2.1697 -2.4267
  765SOL     OW 2293   0.810   0.305   0.732  0.2032 -0.9441  0.6118
  765SOL    HW1 2294   0.848   0.333   0.647 -2.7622 -0.6782 -1.7799
  765SOL    HW2 2295   0.806   0.389   0.803 -0.2065  1.1160  0.3609
  766SOL     OW 2296   2.926   2.144   3.069 -0.2233 -0.2185 -0.0778
  766SOL    HW1 2297   2.826   2.165   3.103 -1.0209 -0.6423 -0.9673
  766SOL    HW2 2298   2.987   2.227   3.079 -0.0456 -1.0994 -1.0717
  767SOL     OW 2299   2.807   1.620   0.615 -0.4809  0.3048  0.0756
  767SOL    HW1 2300   2.711   1.613   0.654  0.7822  1.4048 -0.4905
  767SOL    HW2 2301   2.863   1.685   0.672 -0.6958 -0.0604  0.8722
  768SOL     OW 2302   1.076   0.201   0.205  0.1534 -0.0102  0.3026
  768SOL    HW1 2303   1.057   0.232   0.302 -0.4079 -1.6988  1.0088
  768SOL    HW2 2304   1.174   0.189   0.172 -2.1216 -1.0225  0.9317
  769SOL     OW 2305   1.099   1.818   2.312 -0.3492 -0.5526  0.2420
  769SOL    HW1 2306   1.007   1.838   2.360 -0.0588  0.9465 -1.9770
  769SOL    HW2 2307   1.172   1.803   2.388  0.3699 -1.0911  4.6551
  770SOL     OW 2308   0.142   1.128   2.322  0.6714 -0.3090 -0.3162
  770SOL    HW1 2309   0.141   1.212   2.385  1.0875  1.6605 -1.6172
  770SOL    HW2 2310   0.047   1.094   2.307  1.8492 -0.1655 -1.0428
  771SOL     OW 2311   3.054   2.817   1.943  0.4057 -0.2479 -0.0216
  771SOL    HW1 2312   3.008   2.856   1.859  1.8020 -1.2203  3.6853
  771SOL    HW2 2313   3.003   2.837   2.031 -0.3175  0.0326 -2.3495
  772SOL     OW 2314   2.355   0.260   2.806 -0.4243 -0.0595  0.0059
  772SOL    HW1 2315   2.421   0.180   2.784 -1.2115  2.5997 -0.5311
  772SOL    HW2 2316   2.342   0.275   2.904  0.3597  1.9166 -0.3135
  773SOL     OW 2317   0.586   2.084   2.402  0.2547  0.9095 -0.5258
  773SOL    HW1 2318   0.582   2.145   2.317  2.1862 -3.0472  0.0552
  773SOL    HW2 2319   0.533   1.997   2.398  0.3285  2.3305  0.1162
  774SOL     OW 2320   2.107   0.010   2.576 -0.1564 -0.5624  0.1525
  774SOL    HW1 2321   2.111   0.099   2.636  0.0188  1.6356  2.1094
  774SOL    HW2 2322   2.169  -0.058   2.624 -1.8181 -0.5761  4.0971
  775SOL     OW 2323   2.533   2.963   2.206 -0.7543  0.2586 -0.5227
  775SOL    HW1 2324   2.444   2.997   2.168 -0.8706  0.1726  0.2463
  775SOL    HW2 2325   2.558   3.001   2.301 -1.0328 -0.9552 -3.7586
  776SOL     OW 2326   3.093   1.274   0.166 -0.0356  0.3491 -0.3506
  776SOL    HW1 2327   3.033   1.269   0.082 -1.4582 -1.5009  3.1269
  776SOL    HW2 2328   3.042   1.249   0.250 -1.3770  1.0360 -0.5457
  777SOL     OW 2329   0.379   2.934   0.423  0.4649 -0.3469 -0.4198
  777SOL    HW1 2330   0.280   2.945   0.397  1.6168  0.7541  2.1987
  777SOL    HW2 2331   0.427   2.867   0.365 -3.9506 -0.9662 -0.0336
  778SOL     OW 2332   1.353   2.031   0.238 -0.5880  0.4482 -0.8745
  778SOL    HW1 2333   1.282   2.087   0.288  0.0484  0.8621  0.5476
  778SOL    HW2 2334   1.383   2.076   0.149  0.2435 -1.6953 -1.6649
  779SOL     OW 2335   0.155   0.803   0.480  0.2270  0.5026 -0.0011
  779SOL    HW1 2336   0.087   0.718   0.474 -1.0519 -0.7675  2.5715
  779SOL    HW2 2337   0.123   0.883   0.534  1.2677 -0.3719 -0.5132
  780SOL     OW 2338   0.130   0.277   2.315  0.3669 -0.2906 -0.0632
  780SOL    HW1 2339   0.112   0.306   2.411  3.0825  0.3430 -0.7219
  780SOL    HW2 2340   0.210   0.332   2.278 -0.4739  0.5521 -0.9753
  781SOL     OW 2341   0.724   1.710   1.516  0.3010  0.1437 -0.3341
  781SOL    HW1 2342   0.752   1.616   1.552 -0.5084  0.2768 -0.4885
  781SOL    HW2 2343   0.621   1.719   1.515 -0.2903  0.2767 -0.7730
  782SOL     OW 2344   2.561   0.063   0.949 -0.2608  0.5590  0.1479
  782SOL    HW1 2345   2.499   0.094   0.872 -0.0064  0.7414  0.4474
  782SOL    HW2 2346   2.532   0.088   1.045 -1.3167 -2.7224 -0.1399
  783SOL     OW 2347   2.787   0.739   2.491  0.6201 -0.3567  0.3813
  783SOL    HW1 2348   2.790   0.762   2.593 -1.5547 -1.1377  0.2485
  783SOL    HW2 2349   2.737   0.650   2.463 -0.5157 -2.2170  4.1709
  784SOL     OW 2350   1.413   2.163   0.006 -0.3940  0.3161 -0.3021
  784SOL    HW1 2351   1.459   2.245   0.058  1.3839  2.9696  1.4972
  784SOL    HW2 2352   1.397   2.184  -0.095  0.3580  2.1519  1.4894
  785SOL     OW 2353   2.070   0.301   0.012 -0.7875  0.1970  0.2163
  785SOL    HW1 2354   1.995   0.327   0.080  2.1622 -0.4815 -1.6909
  785SOL    HW2 2355   2.099   0.377  -0.055 -0.0843  0.8382  0.3307
  786SOL     OW 2356   2.042   2.181   2.225 -0.5198 -0.1370 -0.3421
  786SOL    HW1 2357   2.006   2.092   2.258 -0.2989  0.0862 -3.3555
  786SOL    HW2 2358   2.151   2.195   2.241  1.1878  0.4382 -0.9525
  787SOL     OW 2359   1.353   0.570   0.894  0.2170  0.1093  0.3961
  787SOL    HW1 2360   1.293   0.652   0.912  2.3149 -2.4354  0.5445
  787SOL    HW2 2361   1.381   0.567   0.790 -2.0075  1.5887  0.7844
  788SOL     OW 2362   1.212   0.420   0.020 -0.0628  0.4083  0.0913
  788SOL    HW1 2363   1.119   0.409  -0.028  2.1175 -1.1499 -1.0829
  788SOL    HW2 2364   1.216   0.493   0.095 -1.8341 -1.7935  0.0914
  789SOL     OW 2365   2.518   0.115   1.955 -0.1285 -0.3051  0.0419
  789SOL    HW1 2366   2.417   0.125   1.921  2.4258  2.7751 -0.8737
  789SOL    HW2 2367   2.563   0.036   1.912 -3.3045  1.3256  2.0323
  790SOL     OW 2368   2.619   2.763   0.706  0.6137 -0.0716  0.6557
  790SOL    HW1 2369   2.657   2.810   0.627 -0.0113  1.7484  0.3303
  790SOL    HW2 2370   2.631   2.826   0.791  0.9720  1.1317  0.4278
  791SOL     OW 2371   1.937   1.207   0.217 -0.4431  0.3754  1.0415
  791SOL    HW1 2372   1.856   1.191   0.277  2.0441 -0.5070  0.7305
  791SOL    HW2 2373   2.013   1.163   0.265 -1.6876 -0.6404 -1.3939
  792SOL     OW 2374   0.404   1.727   2.155 -0.1867 -0.2370 -0.6676
  792SOL    HW1 2375   0.472   1.716   2.229 -0.8258 -1.7087  1.4041
  792SOL    HW2 2376   0.307   1.715   2.185  0.3697  2.7488  0.0458
  793SOL     OW 2377   2.105   1.593   2.112 -0.2750 -0.2875 -0.1525
  793SOL    HW1 2378   2.177   1.651   2.071 -1.1391  0.9195  1.5590
  793SOL    HW2 2379   2.086   1.505   2.060  0.7913 -0.0551 -1.9348
  794SOL     OW 2380   0.539   1.499   2.276  0.6628  0.1044  0.1628
  794SOL    HW1 2381   0.494   1.455   2.193  0.5689  0.2152  1.1517
  794SOL    HW2 2382   0.484   1.482   2.365  0.5046 -0.3872  0.6762
  795SOL     OW 2383   2.511   2.298   1.822  0.3258  0.5689  0.1484
  795SOL    HW1 2384   2.503   2.310   1.926 -0.6090  1.7370  1.9592
  795SOL    HW2 2385   2.467   2.213   1.787 -0.0241 -1.5741 -0.1034
  796SOL     OW 2386   3.089   1.117   2.632  0.2058  0.1223  0.0853
  796SOL    HW1 2387   3.007   1.056   2.652 -1.6351 -1.4245  1.3883
  796SOL    HW2 2388   3.138   1.153   2.715  1.8944 -0.2263  0.0632
  797SOL     OW 2389   0.821   0.635   1.398 -0.2846  0.4802 -0.1030
  797SOL    HW1 2390   0.894   0.688   1.453  1.0379 -1.3066 -1.2861
  797SOL    HW2 2391   0.772   0.698   1.329  0.3792  0.5409  0.3127
  798SOL     OW 2392   1.318   0.425   1.188  0.2152 -0.4944 -0.3722
  798SOL    HW1 2393   1.381   0.413   1.270 -1.0153 -0.5415 -1.6887
  798SOL    HW2 2394   1.369   0.466   1.111  1.5107  1.0837  2.2923
  799SOL     OW 2395   1.986   2.656   1.023 -0.0580  0.0331 -0.3365
  799SOL    HW1 2396   1.895   2.635   1.073 -0.5674  1.5568  2.5023
  799SOL    HW2 2397   1.969   2.675   0.923  0.6559 -0.7313 -1.1745
  800SOL     OW 2398   3.065   0.602   1.817  0.2787 -0.6537 -0.4687
  800SOL    HW1 2399   3.013   0.660   1.887  2.2641  1.4119  1.1037
  800SOL    HW2 2400   3.131   0.530   1.860  0.4727 -0.7835  0.4619
  801SOL     OW 2401   1.918   2.224   0.126  0.0964  0.3616  0.0029
  801SOL    HW1 2402   1.840   2.177   0.077  2.9240  0.9873 -2.1955
  801SOL    HW2 2403   2.008   2.170   0.133 -2.1058 -2.6528  4.0738
  802SOL     OW 2404   0.710   0.760   2.580 -0.4163  0.0034  0.1213
  802SOL    HW1 2405   0.784   0.743   2.507  1.6759 -1.0877 -2.7974
  802SOL    HW2 2406   0.621   0.707   2.571  0.3160  2.1419  1.2631
  803SOL     OW 2407   0.906   0.126   0.913  0.1489 -0.1530 -0.5394
  803SOL    HW1 2408   0.984   0.196   0.938 -0.4580 -1.2914  0.7033
  803SOL    HW2 2409   0.841   0.166   0.841 -1.1448  2.1712  0.3620
  804SOL     OW 2410   0.351   3.089   2.116 -0.6762  0.2993  0.4345
  804SOL    HW1 2411   0.320   3.175   2.063  4.5293  1.9275  1.0473
  804SOL    HW2 2412   0.304   3.002   2.080 -0.2685  2.8863 -2.1851
  805SOL     OW 2413   2.429   0.242   0.260 -0.3535 -0.4272 -0.0828
  805SOL    HW1 2414   2.524   0.266   0.287 -2.2433 -0.3911  0.0362
  805SOL    HW2 2415   2.422   0.209   0.167  0.6480  0.2836 -0.7085
  806SOL     OW 2416   0.660   2.398   1.699 -0.3164  0.4328 -0.0520
  806SOL    HW1 2417   0.660   2.502   1.708 -1.8522 -0.2278  2.8763
  806SOL    HW2 2418   0.749   2.349   1.681 -0.9298 -0.4709 -0.9657
  807SOL     OW 2419   2.459   0.954   0.462  0.7822  0.3234  0.3079
  807SOL    HW1 2420   2.554   0.946   0.498  1.7520  0.4519 -1.1862
  807SOL    HW2 2421   2.466   0.940   0.360  0.2892  2.4581  0.1024
  808SOL     OW 2422   0.538   1.986   2.952 -0.2698 -0.0278 -0.4157
  808SOL    HW1 2423   0.523   1.983   3.052 -1.7692 -1.7545 -2.2772
  808SOL    HW2 2424   0.574   1.896   2.908  0.2039 -0.1552 -1.6567
  809SOL     OW 2425   2.574   1.963   1.951 -0.4142 -0.1294  0.1206
  809SOL    HW1 2426   2.674   1.986   1.976 -3.1826  0.0857  0.5975
  809SOL    HW2 2427   2.565   1.945   1.849 -1.2537  1.0428  0.3122
  810SOL     OW 2428   2.028   1.094   0.544 -0.2471 -0.5238  0.1302
  810SOL    HW1 2429   2.043   1.023   0.619 -2.3272 -0.7943  1.2748
  810SOL    HW2 2430   1.997   1.190   0.581  1.2017  2.8826  3.1691
  811SOL     OW 2431   1.310   2.438   1.272  0.4148  0.6870  0.0973
  811SOL    HW1 2432   1.294   2.341   1.306  0.3834 -0.2956  1.6778
  811SOL    HW2 2433   1.268   2.457   1.178  2.0966  2.3993  0.4222
  812SOL     OW 2434   1.413   0.786   1.942  0.5424 -0.1779 -0.1530
  812SOL    HW1 2435   1.451   0.855   2.011 -1.3881 -2.0162  1.9122
  812SOL    HW2 2436   1.314   0.809   1.915  1.7311 -0.9421 -2.2536
  813SOL     OW 2437   1.743   2.120   2.439 -0.2407  0.4629 -0.1419
  813SOL    HW1 2438   1.829   2.065   2.424  0.0717  2.2035 -0.4854
  813SOL    HW2 2439   1.674   2.102   2.361 -2.7321  0.2769 -3.3861
  814SOL     OW 2440   2.841   1.540   2.927 -0.2120  0.5050  0.3111
  814SOL    HW1 2441   2.941   1.528   2.956  1.6433  0.0280 -0.7131
  814SOL    HW2 2442   2.830   1.634   2.879  0.0468  3.7413 -0.7860
  815SOL     OW 2443   2.249   2.911   2.705  0.1813 -0.0455 -0.6922
  815SOL    HW1 2444   2.248   2.900   2.808 -4.0077  0.6001  0.6152
  815SOL    HW2 2445   2.342   2.887   2.669 -0.3311  0.5736  1.0890
  816SOL     OW 2446   1.764   0.335   1.676  0.0838 -0.7484 -0.3356
  816SOL    HW1 2447   1.755   0.245   1.727  0.7886 -0.8533 -0.6912
  816SOL    HW2 2448   1.675   0.378   1.662  0.2326 -1.9333 -0.4936
  817SOL     OW 2449   0.474   1.198   2.448 -0.0496  0.0689  0.2318
  817SOL    HW1 2450   0.423   1.285   2.473 -0.5442  0.2078  2.5229
  817SOL    HW2 2451   0.488   1.186   2.350 -1.3160 -2.3488  0.8046
  818SOL     OW 2452   2.007   0.825   0.460 -0.6591 -0.2398  0.8916
  818SOL    HW1 2453   1.997   0.930   0.477 -1.7325 -0.3508  0.4754
  818SOL    HW2 2454   1.942   0.778   0.528 -0.7309 -0.9316  0.8865
  819SOL     OW 2455   2.781   2.910   3.030  0.0441  0.2928 -0.2742
  819SOL    HW1 2456   2.872   2.871   3.000 -2.4349 -1.6081  1.3940
  819SOL    HW2 2457   2.700   2.868   2.980 -0.1696 -0.7027 -0.3351
  820SOL     OW 2458   1.244   1.121   0.497  0.3272  0.0855  0.1718
  820SOL    HW1 2459   1.248   1.229   0.513 -0.6899  3.8029  0.5460
  820SOL    HW2 2460   1.223   1.065   0.583 -0.0708  2.8169  1.8029
  821SOL     OW 2461   3.087   1.304   0.660  0.1251  0.1893 -0.4790
  821SOL    HW1 2462   3.033   1.302   0.754  0.4435 -0.5090  3.3004
  821SOL    HW2 2463   3.167   1.372   0.663  0.1455  0.4509  0.3847
  822SOL     OW 2464   2.523   1.791   2.441 -0.1096 -0.6447  0.0908
  822SOL    HW1 2465   2.505   1.881   2.497 -0.2103 -0.2478 -0.9517
  822SOL    HW2 2466   2.482   1.794   2.342 -1.5613 -2.2480 -2.2078
  823SOL     OW 2467   2.050   0.887   1.241  0.2053 -0.0683  0.1868
  823SOL    HW1 2468   2.006   0.896   1.335 -0.0424 -2.6820  1.4386
  823SOL    HW2 2469   1.980   0.893   1.166  0.0309  1.7179 -0.8232
  824SOL     OW 2470   0.132   2.009   2.734 -0.3489  0.0341  0.4304
  824SOL    HW1 2471   0.092   1.946   2.809  0.2016 -0.7803 -1.2042
  824SOL    HW2 2472   0.220   1.979   2.685 -0.2075  0.7413 -1.7729
  825SOL     OW 2473   1.244   1.044   0.228  0.3116  0.1571 -0.4789
  825SOL    HW1 2474   1.248   1.087   0.326  0.6571  1.6100 -1.6824
  825SOL    HW2 2475   1.194   1.095   0.149 -2.0267 -0.2437 -0.8106
  826SOL     OW 2476   1.949   0.639   1.519  0.3080 -0.2245  0.1916
  826SOL    HW1 2477   2.004   0.607   1.599 -1.3930 -1.1142  0.5803
  826SOL    HW2 2478   1.873   0.574   1.498 -0.5792  1.0660  0.8785
  827SOL     OW 2479   0.723   1.418   0.290 -0.5452  0.2021  0.4551
  827SOL    HW1 2480   0.754   1.363   0.208 -1.3458  1.1285  0.4370
  827SOL    HW2 2481   0.686   1.361   0.370 -1.8988 -1.7200  1.0685
  828SOL     OW 2482   2.555   0.077   1.567  0.0779  0.0030  0.2650
  828SOL    HW1 2483   2.456   0.108   1.554 -0.1399 -2.3975  1.1969
  828SOL    HW2 2484   2.547  -0.010   1.620 -0.6931  1.3478  0.0686
  829SOL     OW 2485   2.827   2.485   3.020 -0.0796 -0.0959 -0.9488
  829SOL    HW1 2486   2.748   2.452   2.962 -1.2949 -1.4062 -1.1560
  829SOL    HW2 2487   2.785   2.555   3.086 -1.3380 -1.2797 -0.7372
  830SOL     OW 2488   2.763   0.950   3.039  0.5396 -0.1426 -0.2424
  830SOL    HW1 2489   2.828   1.019   3.071 -1.0009 -0.4055  1.5638
  830SOL    HW2 2490   2.760   0.862   3.091  0.4987  1.5781 -0.4650
  831SOL     OW 2491   0.001   0.610   0.354 -0.4472  0.1569  0.5549
  831SOL    HW1 2492  -0.062   0.567   0.420  1.0058 -0.3619  2.1028
  831SOL    HW2 2493   0.061   0.542   0.299 -1.4767 -3.4351  0.4113
  832SOL     OW 2494   1.805   0.733   0.006  0.5816  0.1121  0.5836
  832SOL    HW1 2495   1.724   0.797  -0.013 -0.1178 -0.7947 -0.3484
  832SOL    HW2 2496   1.811   0.649  -0.053 -1.2315 -0.6478  0.8170
  833SOL     OW 2497   2.449   2.149   0.496 -0.5730 -0.0265  0.1864
  833SOL    HW1 2498   2.347   2.154   0.493  1.9396 -1.4721  3.7671
  833SOL    HW2 2499   2.485   2.065   0.449  0.2957  0.4999  0.2903
  834SOL     OW 2500   0.107   0.233   0.636  0.8802 -0.7766 -0.3157
  834SOL    HW1 2501   0.181   0.185   0.682 -3.7950  1.2515 -0.7579
  834SOL    HW2 2502   0.098   0.221   0.533 -0.0338  2.9681  1.1162
  835SOL     OW 2503   2.353   1.525   1.180 -0.0970  0.4637 -0.1285
  835SOL    HW1 2504   2.451   1.547   1.191 -1.9612 -0.0323 -3.2736
  835SOL    HW2 2505   2.331   1.528   1.079 -0.0387  1.8528 -1.5397
  836SOL     OW 2506   1.536   0.803   2.572  0.2008 -0.1725 -0.3378
  836SOL    HW1 2507   1.434   0.806   2.551  1.4507 -1.1457 -0.2087
  836SOL    HW2 2508   1.596   0.822   2.488 -0.2836  2.7208  1.7770
  837SOL     OW 2509   1.661   0.089   0.542  0.4464  0.5942 -0.4133
  837SOL    HW1 2510   1.624   0.175   0.592 -1.7353  0.9540 -1.0421
  837SOL    HW2 2511   1.644   0.095   0.440  1.5928  2.0490  1.6714
  838SOL     OW 2512   1.228   1.572   2.680 -0.6005  0.0615  0.4207
  838SOL    HW1 2513   1.308   1.528   2.735  1.9531 -0.9998 -0.5720
  838SOL    HW2 2514   1.152   1.500   2.675 -2.3061 -0.4858  0.3629
  839SOL     OW 2515   1.628   0.286   0.968 -0.4877  0.3736  0.0576
  839SOL    HW1 2516   1.648   0.368   1.030  0.9255 -0.9896  0.5810
  839SOL    HW2 2517   1.612   0.201   1.031  1.0115  0.4295  2.2891
  840SOL     OW 2518   2.555   2.945   1.735  0.2461  0.2732  0.1201
  840SOL    HW1 2519   2.516   2.897   1.651 -1.4800  1.2712 -1.2351
  840SOL    HW2 2520   2.600   2.877   1.806  1.9653 -0.6560  2.9676
  841SOL     OW 2521   1.575   0.881   3.053  0.3374 -0.5702  0.5747
  841SOL    HW1 2522   1.490   0.848   3.100  4.2523 -1.4273 -1.3439
  841SOL    HW2 2523   1.568   0.953   2.978  2.6876  0.1177 -2.5213
  842SOL     OW 2524   0.804   1.515   0.881  0.1041 -0.8121 -0.0656
  842SOL    HW1 2525   0.768   1.590   0.944  0.5331  0.9727  1.2514
  842SOL    HW2 2526   0.730   1.439   0.871 -1.9154 -2.8842 -0.7240
  843SOL     OW 2527   0.146   3.081   1.409 -0.6578  0.6944 -0.0076
  843SOL    HW1 2528   0.164   3.156   1.480 -1.1442 -0.3525  0.9039
  843SOL    HW2 2529   0.084   3.009   1.453  1.7162  1.0726  1.1423
  844SOL     OW 2530   0.795   2.444   0.257  0.0285 -0.3388 -0.1492
  844SOL    HW1 2531   0.738   2.422   0.340 -0.2993  1.7709  0.1094
  844SOL    HW2 2532   0.747   2.519   0.205  2.5688  2.4611  0.8246
  845SOL     OW 2533   1.680   2.852   1.230 -0.0140  0.4397  0.4193
  845SOL    HW1 2534   1.730   2.763   1.226 -0.8622 -1.6901 -0.7918
  845SOL    HW2 2535   1.688   2.899   1.327 -2.1707  0.1095  3.4856
  846SOL     OW 2536   1.564   2.962   0.705 -0.0432 -0.0895 -0.0608
  846SOL    HW1 2537   1.587   3.034   0.636 -1.2606 -1.7397 -2.8613
  846SOL    HW2 2538   1.652   2.934   0.754  3.0224  3.2831 -1.7597
  847SOL     OW 2539   2.107   1.697   0.425  0.1814  0.2981 -0.0740
  847SOL    HW1 2540   2.080   1.602   0.408 -0.8651 -0.5947  4.2446
  847SOL    HW2 2541   2.025   1.767   0.436  0.4006 -1.1551  1.6097
  848SOL     OW 2542   2.409   0.879   2.595  0.4231 -0.0728  0.0009
  848SOL    HW1 2543   2.389   0.971   2.637 -1.5816  0.8705 -1.0295
  848SOL    HW2 2544   2.327   0.823   2.568  1.5498 -1.5176  2.5349
  849SOL     OW 2545   2.564   0.886   2.369  0.1421 -0.1119 -0.2825
  849SOL    HW1 2546   2.645   0.826   2.390 -2.3911  0.3767 -1.9898
  849SOL    HW2 2547   2.497   0.887   2.454 -1.2812  0.4024  0.2247
  850SOL     OW 2548   1.581   0.090   1.330  0.4073  0.2403  0.7150
  850SOL    HW1 2549   1.557   0.083   1.227 -0.0138  0.0946 -0.7435
  850SOL    HW2 2550   1.540   0.002   1.377 -2.0314 -2.6876  1.4889
  851SOL     OW 2551   0.480   1.783   0.602 -0.5463  0.1658 -0.3678
  851SOL    HW1 2552   0.499   1.864   0.667 -0.7423  1.7471 -3.9139
  851SOL    HW2 2553   0.496   1.801   0.498 -0.9747 -0.1344 -0.7585
  852SOL     OW 2554   0.846   2.042   1.791  0.0761 -0.6024  0.4047
  852SOL    HW1 2555   0.845   2.134   1.746 -0.1224 -0.2429 -0.1630
  852SOL    HW2 2556   0.772   2.023   1.863 -2.4568 -2.1066 -0.3857
  853SOL     OW 2557   2.546   1.562   2.599 -0.3529  0.1005 -0.0189
  853SOL    HW1 2558   2.484   1.482   2.568 -0.4276 -2.2321 -2.0400
  853SOL    HW2 2559   2.529   1.648   2.542 -0.0160  1.7711  2.6399
  854SOL     OW 2560   2.448   1.393   1.782  0.2120 -0.0957  0.2338
  854SOL    HW1 2561   2.511   1.337   1.717 -1.1903 -2.5791 -2.7243
  854SOL    HW2 2562   2.386   1.334   1.840 -1.9921  0.7755  1.5692
  855SOL     OW 2563   2.064   2.410   1.074 -0.3496  0.2700  0.3643
  855SOL    HW1 2564   2.039   2.508   1.052 -0.7699  0.1433  0.7061
  855SOL    HW2 2565   2.151   2.407   1.134  1.0921 -0.4228 -1.4921
  856SOL     OW 2566   1.331   1.419   0.927 -0.0155  0.1471  0.4197
  856SOL    HW1 2567   1.402   1.484   0.955 -2.2982  0.1558  0.5297
  856SOL    HW2 2568   1.235   1.447   0.951 -1.0392 -0.1577 -2.2245
  857SOL     OW 2569   0.002   2.756   1.051 -0.2266  0.1150 -0.3303
  857SOL    HW1 2570  -0.071   2.739   0.983 -1.0312 -1.3746  0.4726
  857SOL    HW2 2571   0.102   2.733   1.015  1.5717  1.1263  0.8254
  858SOL     OW 2572   2.376   2.072   1.682 -0.0563  0.2470  0.6344
  858SOL    HW1 2573   2.286   2.012   1.672 -1.4096  0.5274 -0.3438
  858SOL    HW2 2574   2.461   2.015   1.660 -1.6131  2.4309  5.1010
  859SOL     OW 2575   2.387   0.525   1.026 -0.1751 -0.1049  0.0822
  859SOL    HW1 2576   2.466   0.570   0.978 -0.8205  0.6252  3.0212
  859SOL    HW2 2577   2.414   0.433   1.061 -1.2322  1.4784 -2.0714
  860SOL     OW 2578   1.855   2.824   0.535 -0.5996  0.0211  0.0272
  860SOL    HW1 2579   1.843   2.804   0.435 -3.7943  3.0931  0.8923
  860SOL    HW2 2580   1.878   2.925   0.552 -0.9617  2.1263  3.1014
  861SOL     OW 2581   0.948   2.497   2.895  0.0175 -0.4264 -0.0545
  861SOL    HW1 2582   1.034   2.544   2.855 -1.2770  2.3459  0.0761
  861SOL    HW2 2583   0.919   2.537   2.988 -0.1045  0.1515 -0.0134
  862SOL     OW 2584   2.887   2.547   1.649  0.3827  0.3736 -0.2296
  862SOL    HW1 2585   2.974   2.575   1.707  1.2209  1.7350 -0.5971
  862SOL    HW2 2586   2.843   2.636   1.623 -0.2264 -1.1480 -0.9290
  863SOL     OW 2587   1.814   2.734   0.295 -0.2096  0.3368  0.1271
  863SOL    HW1 2588   1.876   2.651   0.272  2.7292 -0.4481  2.3992
  863SOL    HW2 2589   1.713   2.715   0.265 -0.6015 -0.0562 -1.3896
  864SOL     OW 2590   2.001   1.265   2.839 -0.5187  0.0267 -0.2360
  864SOL    HW1 2591   1.990   1.196   2.763  1.8383  0.0986  1.0715
  864SOL    HW2 2592   2.051   1.343   2.802 -0.2888  0.0241  3.3795
  865SOL     OW 2593   2.165   1.945   0.740  0.3205  0.0141 -0.0547
  865SOL    HW1 2594   2.220   1.869   0.782 -1.7308  0.5662  1.1431
  865SOL    HW2 2595   2.086   1.975   0.796  0.9823  0.1916 -1.6943
  866SOL     OW 2596   2.926   2.999   1.025 -0.2593 -0.1738  0.0715
  866SOL    HW1 2597   2.932   3.071   0.948  0.1698  0.8690 -0.9129
  866SOL    HW2 2598   3.002   2.936   1.034 -0.5466  1.6545  2.2504
  867SOL     OW 2599   0.326   1.416   0.921 -0.1065  0.5049 -0.0190
  867SOL    HW1 2600   0.334   1.362   0.837 -1.5487 -1.8145  0.0139
  867SOL    HW2 2601   0.288   1.512   0.911  1.2288  1.8362 -1.2706
  868SOL     OW 2602   0.765   1.833   2.059 -0.3570 -0.1487  0.4556
  868SOL    HW1 2603   0.732   1.790   2.151 -0.7184 -0.2692  2.0172
  868SOL    HW2 2604   0.700   1.906   2.025 -1.7858  3.1225 -1.0965
  869SOL     OW 2605   2.609   1.909   1.684 -0.2897 -0.4400 -0.1179
  869SOL    HW1 2606   2.698   1.961   1.660  0.5120 -0.0525  2.1392
  869SOL    HW2 2607   2.628   1.812   1.674  0.9894  0.3443 -0.5238
  870SOL     OW 2608   2.345   2.704   1.242  0.1574  0.4072  0.3308
  870SOL    HW1 2609   2.362   2.602   1.249 -0.3435  2.5391  0.0689
  870SOL    HW2 2610   2.429   2.758   1.244 -0.9308  3.7895  0.5279
  871SOL     OW 2611   3.057   2.238   0.514  0.1423 -0.0533  0.8215
  871SOL    HW1 2612   2.983   2.220   0.584 -1.5641  0.0243  0.7054
  871SOL    HW2 2613   3.005   2.272   0.430  0.7267 -3.5049  0.2203
  872SOL     OW 2614   2.102   0.489   1.707  0.0412 -0.1285 -0.4039
  872SOL    HW1 2615   2.058   0.459   1.799 -2.6340 -1.4082  1.1646
  872SOL    HW2 2616   2.181   0.426   1.687 -0.5767  0.2066  1.2133
  873SOL     OW 2617   1.699   2.115   3.102  0.0751 -0.0224  0.2165
  873SOL    HW1 2618   1.599   2.100   3.121 -0.4736 -0.1291  0.5442
  873SOL    HW2 2619   1.719   2.176   3.017 -1.1492  1.6681 -1.0217
  874SOL     OW 2620   0.666   2.450   0.742 -0.0651 -0.6934  0.2275
  874SOL    HW1 2621   0.675   2.551   0.773 -0.5399  1.9403  1.4081
  874SOL    HW2 2622   0.758   2.409   0.734  0.1137  2.4366  0.2574
  875SOL     OW 2623   2.222   1.487   1.404  0.3456  0.1426 -0.3756
  875SOL    HW1 2624   2.268   1.556   1.467  1.7665 -0.1463  0.4781
  875SOL    HW2 2625   2.264   1.500   1.313 -1.2847  1.2349  1.5392
  876SOL     OW 2626   0.054   2.264   2.622  0.1028 -0.0660 -0.1061
  876SOL    HW1 2627   0.076   2.167   2.633 -1.1037 -1.1989 -1.0723
  876SOL    HW2 2628   0.114   2.333   2.680  1.5195  1.5656 -1.7182
  877SOL     OW 2629   2.941   2.679   0.613  0.3745  0.4689  0.4492
  877SOL    HW1 2630   2.903   2.775   0.619 -1.3675 -0.8493 -1.2568
  877SOL    HW2 2631   2.993   2.651   0.698 -0.3872  0.1030 -3.0449
  878SOL     OW 2632   2.825   1.559   2.272 -0.1976 -0.6030 -0.6848
  878SOL    HW1 2633   2.765   1.634   2.234  0.4214 -0.5586 -1.4987
  878SOL    HW2 2634   2.800   1.523   2.367 -0.0472 -1.4467  0.0981
  879SOL     OW 2635   2.418   0.070   1.205 -1.0355  0.1038  0.1037
  879SOL    HW1 2636   2.456  -0.028   1.198 -0.5231 -1.6230  0.8432
  879SOL    HW2 2637   2.322   0.076   1.160 -1.7547  2.7568  0.5104
  880SOL     OW 2638   0.718   0.558   2.268  0.4256  0.3492 -0.2158
  880SOL    HW1 2639   0.688   0.495   2.347 -1.7221 -1.1399 -1.3961
  880SOL    HW2 2640   0.789   0.516   2.202  1.1840  0.8550  0.8827
  881SOL     OW 2641   0.822   0.081   0.401 -0.2042 -0.1944  0.0481
  881SOL    HW1 2642   0.868  -0.009   0.418  1.2706  1.3226  1.2239
  881SOL    HW2 2643   0.718   0.071   0.388 -3.4855  1.5924  0.0490
  882SOL     OW 2644   2.726   1.647   1.681 -0.1563  0.6180 -0.3801
  882SOL    HW1 2645   2.820   1.609   1.663 -1.3244  3.5042 -1.0186
  882SOL    HW2 2646   2.704   1.654   1.785 -1.3433 -1.1923  2.7226
  883SOL     OW 2647   0.793   0.513   0.917  0.0995 -0.4688  0.0745
  883SOL    HW1 2648   0.848   0.599   0.943 -0.7938  1.8578 -0.5106
  883SOL    HW2 2649   0.735   0.478   0.995  2.6637  0.8812  0.8333
  884SOL     OW 2650   1.133   1.789   1.139 -0.7143 -0.0448 -0.0348
  884SOL    HW1 2651   1.124   1.684   1.128  0.3650  2.4892 -2.2773
  884SOL    HW2 2652   1.097   1.836   1.058 -0.1222 -1.2829 -1.1410
  885SOL     OW 2653   2.344   1.885   2.243 -0.2162 -0.9048  0.3127
  885SOL    HW1 2654   2.274   1.824   2.290 -3.5177 -1.5434 -1.2126
  885SOL    HW2 2655   2.331   1.987   2.267 -3.9160 -1.2088  1.4617
  886SOL     OW 2656   2.592   0.389   1.768  0.1367  0.1896  0.6440
  886SOL    HW1 2657   2.592   0.291   1.794  0.5836  0.9939  0.2285
  886SOL    HW2 2658   2.677   0.412   1.711  0.5484  1.3947  1.1667
  887SOL     OW 2659   0.145   2.072   1.267 -0.2292 -0.5381  0.1089
  887SOL    HW1 2660   0.174   2.000   1.201  0.8093  0.6005  1.0236
  887SOL    HW2 2661   0.171   2.163   1.232  0.7239 -3.4145  1.7504
  888SOL     OW 2662   0.614   1.217   1.499  0.6167 -0.2962 -0.0390
  888SOL    HW1 2663   0.619   1.277   1.413 -0.5320 -1.6225 -4.4129
  888SOL    HW2 2664   0.668   1.136   1.479  1.0103  2.1629  1.5317
  889SOL     OW 2665   0.861   2.453   2.233  0.2217  0.1673 -0.2557
  889SOL    HW1 2666   0.770   2.402   2.254  0.2692 -0.0993 -0.4475
  889SOL    HW2 2667   0.905   2.427   2.145 -0.8138  0.7742 -0.9036
  890SOL     OW 2668   2.326   2.509   0.224 -0.4986 -0.0310  0.2946
  890SOL    HW1 2669   2.349   2.586   0.158 -0.5867 -0.6125 -0.5267
  890SOL    HW2 2670   2.291   2.552   0.319  3.0928  1.9337  1.9403
  891SOL     OW 2671   2.556   1.673   0.709 -0.8187 -0.1448  0.0647
  891SOL    HW1 2672   2.516   1.690   0.804  0.4591  1.5280  1.4620
  891SOL    HW2 2673   2.480   1.662   0.640  0.5386 -1.8206 -1.3084
  892SOL     OW 2674   0.344   0.394   2.211 -0.3051 -0.2862  0.1998
  892SOL    HW1 2675   0.344   0.449   2.125  0.4738  0.3172  2.5422
  892SOL    HW2 2676   0.433   0.340   2.225  2.9514  0.5274  1.8361
  893SOL     OW 2677   1.703   0.248   2.737 -0.0019  0.1632 -0.4876
  893SOL    HW1 2678   1.775   0.307   2.793  3.0426 -0.0170 -1.0579
  893SOL    HW2 2679   1.609   0.292   2.715 -1.8996 -2.4752 -1.1261
  894SOL     OW 2680   2.148   2.103   0.102  0.2051  0.3042  0.0123
  894SOL    HW1 2681   2.144   2.047   0.016  0.0647  0.2125  0.5216
  894SOL    HW2 2682   2.175   2.044   0.182 -0.2434  1.3581 -1.6173
  895SOL     OW 2683   2.730   1.442   0.958  0.3160 -0.1506  0.1382
  895SOL    HW1 2684   2.802   1.373   0.976 -1.2960  2.1975  0.2280
  895SOL    HW2 2685   2.770   1.539   0.975  1.4762  1.4551  2.6329
  896SOL     OW 2686   1.790   1.851   1.226  0.2810  0.5197 -0.2392
  896SOL    HW1 2687   1.884   1.813   1.247 -1.5218 -0.0009  0.2286
  896SOL    HW2 2688   1.741   1.777   1.178 -0.9066  1.5378 -0.7052
  897SOL     OW 2689   0.252   0.533   3.004  0.4401  0.1967  0.1709
  897SOL    HW1 2690   0.212   0.606   2.941  1.6767  1.9146  2.4353
  897SOL    HW2 2691   0.333   0.573   3.056 -1.0338 -0.6054 -2.2964
  898SOL     OW 2692   0.694   2.821   1.078 -0.2741 -0.1237 -0.2686
  898SOL    HW1 2693   0.753   2.900   1.109 -2.1255 -0.1147  1.9663
  898SOL    HW2 2694   0.705   2.742   1.145  0.7908 -1.8162  0.6713
  899SOL     OW 2695   2.862   0.951   1.401 -0.3514 -0.1000  0.3951
  899SOL    HW1 2696   2.843   0.969   1.304  0.4856 -3.8322  2.1384
  899SOL    HW2 2697   2.962   0.965   1.422 -3.2706 -1.2776  0.0338
  900SOL     OW 2698   1.027   2.428   2.472  0.5003 -0.0644  0.0982
  900SOL    HW1 2699   0.964   2.437   2.390 -2.7164  0.3537  0.1773
  900SOL    HW2 2700   0.979   2.384   2.551 -2.0707  0.6967  2.3407
  901SOL     OW 2701   1.911   2.460   1.420  0.1610  0.1642 -0.7256
  901SOL    HW1 2702   1.892   2.382   1.349  1.2284 -0.5425  0.1470
  901SOL    HW2 2703   2.012   2.463   1.456 -2.3182 -1.7546  0.5376
  902SOL     OW 2704   2.537   1.657   1.477  0.4640 -0.2887  0.5511
  902SOL    HW1 2705   2.618   1.649   1.541  0.3431 -0.0489 -1.4333
  902SOL    HW2 2706   2.560   1.620   1.382  0.4900  0.0650 -1.2766
  903SOL     OW 2707   0.342   2.449   2.007 -0.0262  0.5243 -0.1399
  903SOL    HW1 2708   0.296   2.357   2.032  0.9857 -0.2898  0.7207
  903SOL    HW2 2709   0.321   2.488   1.915  0.8642  0.0138  0.0219
  904SOL     OW 2710   2.008   0.763   2.461 -0.4174 -0.3336  0.6486
  904SOL    HW1 2711   1.943   0.696   2.509 -0.2681 -3.3111  0.9773
  904SOL    HW2 2712   2.008   0.757   2.355  1.6274  1.4329 -0.1663
  905SOL     OW 2713   2.825   0.076   2.414 -0.2954  0.1737  0.0987
  905SOL    HW1 2714   2.889   0.002   2.456  2.5878 -0.1832  1.3662
  905SOL    HW2 2715   2.859   0.174   2.433  1.0336  1.8978 -2.3667
  906SOL     OW 2716   0.154   1.722   1.890 -0.0920 -0.4179  0.0319
  906SOL    HW1 2717   0.110   1.775   1.808 -0.5923  2.6829  0.4435
  906SOL    HW2 2718   0.260   1.736   1.899  2.6031 -1.3765 -1.5889
  907SOL     OW 2719   0.241   2.525   0.985  0.4036  0.4449 -0.5388
  907SOL    HW1 2720   0.334   2.479   0.976 -1.6255 -0.0360 -2.5473
  907SOL    HW2 2721   0.241   2.619   0.943  2.1206  1.2486  0.0492
  908SOL     OW 2722   2.825   3.029   0.322  0.3539 -0.0861 -0.6281
  908SOL    HW1 2723   2.732   3.014   0.274 -2.4680  1.4502 -1.5245
  908SOL    HW2 2724   2.884   2.942   0.321  1.1460  0.3702  1.8223
  909SOL     OW 2725   0.831   1.034   2.654  0.0974  0.4190 -0.3627
  909SOL    HW1 2726   0.825   0.934   2.674  0.2791  0.0434 -0.1074
  909SOL    HW2 2727   0.896   1.056   2.576 -3.4035 -0.5738  0.4754
  910SOL     OW 2728   1.783   1.879   2.140  0.0571 -0.0729 -0.3828
  910SOL    HW1 2729   1.856   1.896   2.064  1.3442  0.9243 -0.3168
  910SOL    HW2 2730   1.713   1.954   2.168  0.2471  0.2675  1.5631
  911SOL     OW 2731   1.771   2.962   1.486  0.2920  0.5682 -0.4517
  911SOL    HW1 2732   1.866   2.944   1.450 -0.1999  2.6763 -0.0359
  911SOL    HW2 2733   1.735   2.889   1.553  0.3018  2.5639  0.6422
  912SOL     OW 2734   2.857   1.036   0.705 -0.1239 -0.4886 -0.5484
  912SOL    HW1 2735   2.896   1.017   0.800 -1.7741 -0.6710  2.1763
  912SOL    HW2 2736   2.788   1.116   0.716 -0.3656 -0.1763 -2.2057
  913SOL     OW 2737   2.607   1.287   1.572 -0.4808 -0.0865  0.1981
  913SOL    HW1 2738   2.624   1.190   1.545 -0.3937  2.7993 -3.7110
  913SOL    HW2 2739   2.638   1.351   1.497 -0.5856 -0.1170  0.8619
  914SOL     OW 2740   2.785   0.593   1.152 -0.0564 -0.2389 -0.2207
  914SOL    HW1 2741   2.785   0.512   1.214  2.5755  0.0385 -2.0564
  914SOL    HW2 2742   2.726   0.665   1.185  1.3163 -2.7434 -0.8635
  915SOL     OW 2743   1.181   0.772   0.930  0.2331  0.3192 -0.0410
  915SOL    HW1 2744   1.227   0.789   1.020  1.6342  1.0218 -0.1511
  915SOL    HW2 2745   1.074   0.762   0.944 -0.4125 -2.5230  0.9844
  916SOL     OW 2746   0.611   0.139   0.623 -0.3425  0.2647  0.5796
  916SOL    HW1 2747   0.685   0.193   0.676 -0.3871  1.0050  1.8326
  916SOL    HW2 2748   0.565   0.202   0.545 -1.1915  0.2752 -1.5623
  917SOL     OW 2749   2.905   2.581   2.012 -0.2370  0.1931  0.0259
  917SOL    HW1 2750   2.813   2.575   1.968  0.3892 -1.7098 -0.1706
  917SOL    HW2 2751   2.964   2.652   1.975 -1.8171 -4.2686  0.1343
  918SOL     OW 2752   1.007   2.136   3.017 -0.2575 -0.0841 -0.3197
  918SOL    HW1 2753   1.023   2.208   3.086  0.9319  0.4624 -0.3525
  918SOL    HW2 2754   1.082   2.126   2.947 -1.2753 -0.0904 -0.3538
  919SOL     OW 2755   0.879   1.687   2.772  0.1517  0.6115 -0.4243
  919SOL    HW1 2756   0.879   1.786   2.743  1.7959  1.1591  0.1570
  919SOL    HW2 2757   0.839   1.632   2.695  0.2782  2.2174 -1.3494
  920SOL     OW 2758   1.294   1.781   2.498 -0.2526 -0.1733 -0.0576
  920SOL    HW1 2759   1.387   1.770   2.458 -0.9410 -1.8722 -0.6029
  920SOL    HW2 2760   1.263   1.691   2.547  1.0131 -1.5425 -2.8606
  921SOL     OW 2761   1.138   0.043   2.615 -0.7283 -0.0900  0.3466
  921SOL    HW1 2762   1.119   0.003   2.516 -0.8977  0.9124 -1.2459
  921SOL    HW2 2763   1.054   0.054   2.671  0.5679 -0.2598  0.8115
  922SOL     OW 2764   2.177   2.423   2.773 -0.1629 -0.7163 -0.0148
  922SOL    HW1 2765   2.194   2.321   2.763  4.3098  0.5001  0.9267
  922SOL    HW2 2766   2.150   2.468   2.676  2.0470  1.2640 -4.4114
  923SOL     OW 2767   1.286   2.735   0.267  0.2209 -0.0558 -0.1947
  923SOL    HW1 2768   1.319   2.807   0.336  0.6134  0.3331  1.0266
  923SOL    HW2 2769   1.299   2.636   0.302  2.0939 -0.7454  0.7527
  924SOL     OW 2770   2.937   1.697   0.133 -0.4906 -0.2148 -0.2777
  924SOL    HW1 2771   2.845   1.657   0.096 -0.3900  0.7058 -0.0618
  924SOL    HW2 2772   3.018   1.629   0.125  1.2411 -3.1581 -1.0793
  925SOL     OW 2773   0.010   2.866   1.502 -0.0992 -0.1108 -0.0677
  925SOL    HW1 2774  -0.045   2.873   1.593  1.4514  1.8937  1.0065
  925SOL    HW2 2775  -0.049   2.833   1.424  0.8925 -2.7737 -1.0361
  926SOL     OW 2776   1.278   2.811   1.304  0.4373 -0.1979  0.2279
  926SOL    HW1 2777   1.323   2.791   1.215 -3.7318 -1.3147  0.8827
  926SOL    HW2 2778   1.336   2.871   1.367 -0.1313 -0.1358 -0.5143
  927SOL     OW 2779   0.380   2.664   1.762 -0.0000 -0.1185 -0.2544
  927SOL    HW1 2780   0.365   2.602   1.679 -1.6482 -1.3793 -1.1419
  927SOL    HW2 2781   0.315   2.746   1.761 -1.2541 -0.4648 -1.4163
  928SOL     OW 2782   1.577   2.071   2.232 -0.1167  0.0041 -0.2193
  928SOL    HW1 2783   1.588   2.152   2.171  0.6678 -1.1858  0.9605
  928SOL    HW2 2784   1.476   2.045   2.247  0.5929 -0.2855  2.0209
  929SOL     OW 2785   2.452   2.479   2.863 -0.3769 -0.1167 -0.4216
  929SOL    HW1 2786   2.352   2.469   2.876  1.1514 -0.3067  0.7127
  929SOL    HW2 2787   2.486   2.509   2.767  0.3393  2.2639 -2.5929
  930SOL     OW 2788   2.186   2.044   1.096 -0.0540  0.1628 -0.1705
  930SOL    HW1 2789   2.172   1.993   1.188 -0.3386 -2.6623  0.9407
  930SOL    HW2 2790   2.261   2.114   1.092 -0.8952 -1.4882  1.1994
  931SOL     OW 2791   0.496   1.713   2.617  0.2437  0.3933  0.4346
  931SOL    HW1 2792   0.516   1.723   2.719 -1.3955 -0.5761 -1.4676
  931SOL    HW2 2793   0.578   1.687   2.561 -2.7268 -1.5192  1.5886
  932SOL     OW 2794   0.360   0.019   0.029 -1.0162  0.2758 -0.0922
  932SOL    HW1 2795   0.432   0.094   0.024  0.7223  0.8409 -1.8972
  932SOL    HW2 2796   0.391  -0.064  -0.019 -1.7778  0.5899 -0.5635
  933SOL     OW 2797   1.003   0.842   3.042 -0.3189  0.2441 -0.2743
  933SOL    HW1 2798   1.066   0.865   3.119 -0.3924 -0.8619 -0.5262
  933SOL    HW2 2799   0.902   0.870   3.058  0.4669 -0.5693  0.3719
  934SOL     OW 2800   0.768   2.932   2.643 -0.9281 -0.4287  0.6995
  934SOL    HW1 2801   0.760   2.881   2.550 -0.5857  0.4396  2.4382
  934SOL    HW2 2802   0.826   2.880   2.715  2.9426 -3.8417 -0.2347
  935SOL     OW 2803   0.038   0.543   0.819  0.1695 -0.7495 -0.4462
  935SOL    HW1 2804   0.013   0.514   0.726 -0.0569  0.5279  0.7986
  935SOL    HW2 2805  -0.037   0.600   0.867 -0.6441 -1.6876  0.3888
  936SOL     OW 2806   1.114   2.857   0.059 -0.0581  0.0205  0.0171
  936SOL    HW1 2807   1.167   2.931   0.004 -1.3682 -1.2046  1.0472
  936SOL    HW2 2808   1.162   2.819   0.142  0.2222 -1.7499 -1.4910
  937SOL     OW 2809   2.003   2.616   2.048 -0.3361  0.1143 -0.1754
  937SOL    HW1 2810   1.943   2.669   2.112 -0.4008 -0.6463 -1.1193
  937SOL    HW2 2811   2.001   2.657   1.950  0.8414 -0.0848 -1.0499
  938SOL     OW 2812   2.786   2.081   1.562  0.0334 -0.2208 -0.2378
  938SOL    HW1 2813   2.736   2.172   1.563 -0.3349 -0.0495 -1.6926
  938SOL    HW2 2814   2.885   2.084   1.591  0.8038  1.5201 -0.1061
  939SOL     OW 2815   2.824   1.158   2.484 -0.7688  0.5337 -0.4145
  939SOL    HW1 2816   2.891   1.124   2.413 -2.6531 -0.5284 -1.4375
  939SOL    HW2 2817   2.826   1.098   2.569  0.4642 -1.0589 -1.1310
  940SOL     OW 2818   1.090   0.454   2.732 -0.6034  0.3128 -0.4922
  940SOL    HW1 2819   1.151   0.370   2.754  1.2452 -0.8608 -1.9572
  940SOL    HW2 2820   1.033   0.443   2.648  1.2593 -1.7836  1.5750
  941SOL     OW 2821   0.060   2.801   2.283 -0.5422 -0.2479  0.3736
  941SOL    HW1 2822   0.103   2.726   2.227 -4.3857  2.3316 -0.1509
  941SOL    HW2 2823   0.125   2.856   2.340 -0.0662  0.3165  1.3487
  942SOL     OW 2824   0.083   0.067   2.515 -0.4339 -0.3260 -0.1882
  942SOL    HW1 2825   0.138   0.089   2.602 -1.6053 -1.0345  0.7085
  942SOL    HW2 2826   0.096   0.137   2.439  2.0002  1.8607  1.8290
  943SOL     OW 2827   2.144   1.709   2.348  0.8240  0.3340  0.4575
  943SOL    HW1 2828   2.105   1.663   2.263 -1.1705  0.1573 -0.5750
  943SOL    HW2 2829   2.148   1.638   2.417 -1.0555 -0.3204 -3.0322
  944SOL     OW 2830   2.153   2.374   1.514  0.0751  0.4220 -0.5846
  944SOL    HW1 2831   2.249   2.379   1.555 -0.9586 -1.1896 -0.6587
  944SOL    HW2 2832   2.102   2.283   1.544  0.9306 -1.3890  1.8190
  945SOL     OW 2833   0.723   1.596   0.073  0.3935  0.0472 -0.0983
  945SOL    HW1 2834   0.632   1.579   0.029 -0.4014  0.1040 -0.2302
  945SOL    HW2 2835   0.730   1.549   0.167  0.9418  0.6805 -1.1657
  946SOL     OW 2836   0.308   1.026   2.600  0.1625 -0.2364 -0.4761
  946SOL    HW1 2837   0.280   0.957   2.529  1.2071  1.6972 -3.1929
  946SOL    HW2 2838   0.358   1.110   2.563  0.7755  0.9731  0.4762
  947SOL     OW 2839   1.473   0.552   3.052 -0.4377  0.3121  0.2064
  947SOL    HW1 2840   1.479   0.580   2.954 -1.4969  1.8077  2.9157
  947SOL    HW2 2841   1.383   0.509   3.071  2.3694  1.1193  1.7907
  948SOL     OW 2842   1.916   2.956   2.185 -0.3685  0.4036 -0.3565
  948SOL    HW1 2843   1.907   2.915   2.091 -0.3054 -0.3138  0.6804
  948SOL    HW2 2844   1.897   2.884   2.260 -0.4487 -2.4571  3.1608
  949SOL     OW 2845   0.614   2.433   0.472  0.1157  0.4009  0.3112
  949SOL    HW1 2846   0.614   2.529   0.450  1.2425 -1.9711 -1.3451
  949SOL    HW2 2847   0.617   2.423   0.576  0.7739 -0.8788  0.6019
  950SOL     OW 2848   0.224   2.188   2.953  0.4227 -0.0470  0.1080
  950SOL    HW1 2849   0.204   2.291   2.924 -1.3928  2.0016 -1.0739
  950SOL    HW2 2850   0.186   2.126   2.877  0.0247  1.5099 -1.4229
  951SOL     OW 2851   1.181   2.668   2.797  0.0692 -0.3418 -0.1667
  951SOL    HW1 2852   1.240   2.602   2.846  1.8835 -0.0794 -1.8825
  951SOL    HW2 2853   1.222   2.695   2.702  1.3137  2.0812  0.4322
  952SOL     OW 2854   0.118   1.625   0.406  0.2529 -0.3995 -0.6829
  952SOL    HW1 2855   0.154   1.707   0.457  0.0987  0.0757 -2.5987
  952SOL    HW2 2856   0.126   1.531   0.457 -0.0446 -2.4304 -0.2444
  953SOL     OW 2857   2.537   1.721   0.306 -0.3157  0.0882  0.9343
  953SOL    HW1 2858   2.511   1.622   0.301 -1.6432  0.8600  0.4284
  953SOL    HW2 2859   2.493   1.771   0.221 -1.6661 -1.0660 -0.7479
  954SOL     OW 2860   2.156   0.570   0.905 -0.6518  0.1445 -0.0089
  954SOL    HW1 2861   2.168   0.552   0.799 -2.4485 -0.3862 -2.2436
  954SOL    HW2 2862   2.250   0.551   0.954 -1.6832  4.0929  1.7700
  955SOL     OW 2863   0.124   2.532   1.361  0.1413  0.5470 -0.2764
  955SOL    HW1 2864   0.034   2.582   1.359 -1.2667 -0.1300  2.2677
  955SOL    HW2 2865   0.203   2.595   1.330  1.4249 -2.1719  0.6956
  956SOL     OW 2866   2.835   2.495   2.511  0.0073 -0.0082  0.3355
  956SOL    HW1 2867   2.847   2.392   2.510 -0.7500 -1.2732 -2.2569
  956SOL    HW2 2868   2.856   2.547   2.420 -2.8815 -0.0883 -0.5278
  957SOL     OW 2869   1.628   2.052   2.758 -0.5502 -0.4317  0.0648
  957SOL    HW1 2870   1.586   1.973   2.813  1.4538 -1.8529 -2.1296
  957SOL    HW2 2871   1.710   2.017   2.705  1.1413 -0.7825 -1.6643
  958SOL     OW 2872   2.644   2.300   2.903 -0.1618  0.0340 -0.1337
  958SOL    HW1 2873   2.563   2.368   2.890 -0.0453  0.5316 -0.2444
  958SOL    HW2 2874   2.618   2.218   2.954 -2.0124  0.2997 -2.9837
  959SOL     OW 2875   0.349   2.759   0.121  0.7259  0.0910 -0.6397
  959SOL    HW1 2876   0.256   2.783   0.168 -2.4138 -1.1932  0.7606
  959SOL    HW2 2877   0.377   2.661   0.124  0.4950  0.6297 -2.8586
  960SOL     OW 2878   1.959   0.442   1.945  0.0488 -0.5329  0.0787
  960SOL    HW1 2879   1.904   0.530   1.921 -0.0331 -0.5810 -1.4369
  960SOL    HW2 2880   1.978   0.441   2.045 -1.3041 -1.0893 -2.4179
  961SOL     OW 2881   2.540   1.863   1.017 -0.1487 -0.1219 -0.4302
  961SOL    HW1 2882   2.516   1.933   0.946 -1.2468 -1.3437 -1.2008
  961SOL    HW2 2883   2.498   1.888   1.108 -0.7851  0.1488 -2.4904
  962SOL     OW 2884   1.281   0.833   0.057  0.2980 -0.3661  0.4186
  962SOL    HW1 2885   1.290   0.876  -0.033  1.3101  0.9660  2.3669
  962SOL    HW2 2886   1.270   0.903   0.132 -1.6698 -2.1272 -1.0641
  963SOL     OW 2887   2.296   2.571   1.833  0.4382 -0.3277  0.1305
  963SOL    HW1 2888   2.262   2.478   1.862 -0.9748  2.4100 -0.6632
  963SOL    HW2 2889   2.346   2.620   1.914 -1.0127 -0.1258 -0.0969
  964SOL     OW 2890   2.362   0.319   1.650 -0.3191  0.2204 -0.5930
  964SOL    HW1 2891   2.438   0.384   1.693 -0.9284 -0.3799 -1.5526
  964SOL    HW2 2892   2.354   0.335   1.547 -0.6715 -1.6853  0.3299
  965SOL     OW 2893   2.598   2.954   0.153 -0.0976 -0.1672  0.6633
  965SOL    HW1 2894   2.675   2.929   0.084  1.4280 -0.9362  0.9240
  965SOL    HW2 2895   2.514   2.994   0.102 -0.0938 -1.7422 -1.8879
  966SOL     OW 2896   2.488   2.505   2.214  0.2686  0.0701 -0.2875
  966SOL    HW1 2897   2.509   2.588   2.158 -0.3320 -1.4838 -1.7134
  966SOL    HW2 2898   2.390   2.467   2.202 -1.2004  1.3888 -0.3411
  967SOL     OW 2899   2.746   2.838   2.455 -0.1679 -0.3000 -0.5727
  967SOL    HW1 2900   2.752   2.764   2.381  0.1482  0.0550  0.4218
  967SOL    HW2 2901   2.828   2.902   2.448  0.6017  0.5054  1.2348
  968SOL     OW 2902   1.938   1.041   2.621  0.0655 -0.1372  0.2360
  968SOL    HW1 2903   1.861   1.097   2.587  1.1648 -0.0913  0.2480
  968SOL    HW2 2904   1.961   0.954   2.570 -1.2852  1.2760  0.0501
  969SOL     OW 2905   2.815   2.540   1.089 -0.3716 -0.7350 -0.8734
  969SOL    HW1 2906   2.798   2.527   0.987 -1.8557 -1.9136 -1.1654
  969SOL    HW2 2907   2.866   2.458   1.134  1.2216  0.6556 -0.0275
  970SOL     OW 2908   1.137   2.158   1.889  0.1492  1.0493  0.5226
  970SOL    HW1 2909   1.092   2.064   1.885 -0.6628 -0.2385 -2.3839
  970SOL    HW2 2910   1.092   2.223   1.952 -1.9808  0.5943  0.5211
  971SOL     OW 2911   2.846   2.082   1.929  0.0348 -0.2204 -0.2450
  971SOL    HW1 2912   2.878   2.183   1.935 -1.2313 -0.1774  2.3678
  971SOL    HW2 2913   2.892   2.031   1.848  0.1189  0.7943 -1.0005
  972SOL     OW 2914   1.923   2.490   0.242 -0.2031  0.0566  0.1864
  972SOL    HW1 2915   1.934   2.403   0.194  0.4369 -0.0748  5.8216
  972SOL    HW2 2916   1.920   2.478   0.346  0.2462 -0.8001  1.9473
  973SOL     OW 2917   1.159   0.875   1.878  0.2193 -0.1342 -0.0350
  973SOL    HW1 2918   1.111   0.789   1.921 -1.4027 -1.3377 -0.0371
  973SOL    HW2 2919   1.086   0.926   1.826 -0.0787  0.7222  1.4021
  974SOL     OW 2920   1.607   0.599   1.999  0.6393  0.0199 -0.1876
  974SOL    HW1 2921   1.699   0.614   1.957  1.4712 -0.8199 -1.3746
  974SOL    HW2 2922   1.534   0.669   1.973  0.2301  0.8626 -1.2739
  975SOL     OW 2923   2.350   3.006   3.076 -0.6620 -0.6017  0.0707
  975SOL    HW1 2924   2.294   2.922   3.109 -1.1743 -0.3554 -4.5497
  975SOL    HW2 2925   2.412   2.982   2.996  0.0696  0.2061  0.6154
  976SOL     OW 2926   1.902   2.748   2.340  0.3448  0.7403  0.4976
  976SOL    HW1 2927   1.812   2.699   2.327 -1.3428  1.7298  0.5982
  976SOL    HW2 2928   1.922   2.757   2.442  0.4446 -0.1304 -0.0360
  977SOL     OW 2929   0.467   0.690   1.032  0.2910 -0.3303  0.2523
  977SOL    HW1 2930   0.405   0.673   0.952 -2.0180 -0.1579 -1.6329
  977SOL    HW2 2931   0.535   0.761   1.013 -1.4993  0.6455 -0.9454
   3.10000   3.10000   3.10000
