1000 SPC/Fw water molecules t=   1.75000 step= 1750
 2931
    1SOL     OW    1   2.501   0.373   2.669  0.7382 -0.1779  0.0957
    1SOL    HW1    2   2.524   0.275   2.640 -0.4861 -1.9583  1.7165
    1SOL    HW2    3   2.582   0.421   2.707 -0.0827 -1.2007 -1.4969
    2SOL     OW    4   2.731   2.933   1.374  0.0425 -0.6955 -0.1001
    2SOL    HW1    5   2.830   2.915   1.344  1.5213 -1.4838 -1.0193
    2SOL    HW2    6   2.718   2.945   1.480 -0.3369 -2.7332  2.7637
    3SOL     OW    7   2.709   2.472   0.375  0.1344 -0.9051  0.5619
    3SOL    HW1    8   2.622   2.417   0.385  0.5367  0.7079  1.4081
    3SOL    HW2    9   2.734   2.537   0.454 -0.5038  0.8563 -1.4786
    4SOL     OW   10   1.306   1.546   2.450 -0.4636 -0.3553  0.1515
    4SOL    HW1   11   1.262   1.545   2.355  0.4835 -3.2108 -1.8515
    4SOL    HW2   12   1.232   1.534   2.520 -1.9409 -1.7600 -1.1906
    5SOL     OW   13   1.120   1.583   2.999  0.0225  0.4309 -0.7473
    5SOL    HW1   14   1.179   1.658   3.039 -1.7021 -2.3924  1.7971
    5SOL    HW2   15   1.029   1.614   2.959  1.8614  0.1317 -0.1452
    6SOL     OW   16   0.247   1.818   3.093 -0.2853  0.2142  0.3928
    6SOL    HW1   17   0.151   1.829   3.135 -1.8432  3.7006 -1.4808
    6SOL    HW2   18   0.310   1.751   3.146 -0.0473  0.2116 -2.7433
    7SOL     OW   19   2.503   0.912   1.080  0.1591  0.1984 -0.0736
    7SOL    HW1   20   2.411   0.861   1.100 -1.0672 -1.4265  0.7229
    7SOL    HW2   21   2.551   0.881   0.994 -1.3480  0.1487 -0.2250
    8SOL     OW   22   0.404   0.661   1.542 -0.1829  0.4085 -0.3283
    8SOL    HW1   23   0.490   0.622   1.585  0.3393  1.3529 -1.4687
    8SOL    HW2   24   0.418   0.721   1.459  0.0169 -0.0900 -0.4534
    9SOL     OW   25   1.131   0.894   2.348  0.2100 -0.1014 -0.1327
    9SOL    HW1   26   1.213   0.910   2.292 -2.5061 -2.4276  4.0339
    9SOL    HW2   27   1.104   0.797   2.359  0.2532  0.6239 -1.0184
   10SOL     OW   28   0.663   1.399   1.255 -0.4866 -0.4582  0.1801
   10SOL    HW1   29   0.582   1.399   1.189  1.1907  2.6644  0.7308
   10SOL    HW2   30   0.685   1.495   1.298  1.0299  2.6261  2.7406
   11SOL     OW   31   2.333   2.867   0.932 -0.0748 -0.0304 -0.4782
   11SOL    HW1   32   2.261   2.834   1.002 -2.5033 -1.7466 -1.9799
   11SOL    HW2   33   2.429   2.872   0.971 -4.9098 -0.4894 -0.8190
   12SOL     OW   34   1.493   0.848   0.475 -0.5600  0.0804  0.2872
   12SOL    HW1   35   1.402   0.830   0.430 -1.6675  1.2573 -0.4938
   12SOL    HW2   36   1.572   0.805   0.428  1.6666 -0.6437  3.8294
   13SOL     OW   37   2.465   0.741   1.789  0.0296  0.3656 -0.4285
   13SOL    HW1   38   2.397   0.680   1.841 -1.3751 -1.5618  0.0123
   13SOL    HW2   39   2.478   0.706   1.694 -0.9323  0.5253  0.9401
   14SOL     OW   40   1.968   3.080   0.590 -0.5940 -0.5812 -0.0939
   14SOL    HW1   41   1.876   3.120   0.564 -0.6027  0.5075  3.1763
   14SOL    HW2   42   1.979   3.068   0.697 -1.5739 -2.3796  2.6569
   15SOL     OW   43   1.928   2.133   2.673  0.2722  0.7325 -0.0511
   15SOL    HW1   44   1.870   2.150   2.757 -0.0082  1.5047  0.3728
   15SOL    HW2   45   1.906   2.038   2.625 -1.4915 -1.8001  0.4488
   16SOL     OW   46   1.572   1.765   3.063 -0.4639  0.4631  0.1191
   16SOL    HW1   47   1.560   1.667   3.104 -1.0165  0.9246  0.9516
   16SOL    HW2   48   1.672   1.793   3.057 -1.0596 -1.4794 -0.7768
   17SOL     OW   49   0.117   0.474   0.170 -0.0617  0.2468 -0.1396
   17SOL    HW1   50   0.208   0.478   0.120 -1.7230 -3.2093  0.5507
   17SOL    HW2   51   0.041   0.523   0.121 -0.3264 -0.7093  2.0337
   18SOL     OW   52   0.913   2.890   2.152 -0.2119 -0.6713  0.3084
   18SOL    HW1   53   0.836   2.826   2.149  1.2122  0.5970  0.4842
   18SOL    HW2   54   0.998   2.861   2.102 -1.1674 -1.2747 -0.6602
   19SOL     OW   55   0.547   0.924   1.907 -0.4729  1.0656 -0.2722
   19SOL    HW1   56   0.586   0.867   1.986  0.1807 -0.9185  0.0594
   19SOL    HW2   57   0.621   0.986   1.863  0.6740 -0.6101  0.2213
   20SOL     OW   58   0.231   2.803   0.780  0.2916 -0.1293 -0.9428
   20SOL    HW1   59   0.123   2.809   0.785 -1.5001 -0.5264  0.0451
   20SOL    HW2   60   0.258   2.715   0.741  1.7250  2.8591  1.1955
   21SOL     OW   61   2.754   0.284   2.012  0.8707 -0.2694  0.1976
   21SOL    HW1   62   2.693   0.214   1.962 -0.4524  2.3821 -0.7163
   21SOL    HW2   63   2.836   0.239   2.062  1.3736 -2.3248 -0.3375
   22SOL     OW   64   2.368   0.182   0.142  0.4593 -0.6365  0.0999
   22SOL    HW1   65   2.413   0.117   0.075 -1.4242  2.5498  0.9517
   22SOL    HW2   66   2.313   0.246   0.085  0.4989 -0.7221  0.4108
   23SOL     OW   67   2.818   0.529   0.687  0.1050 -0.2504 -0.0643
   23SOL    HW1   68   2.862   0.438   0.655 -0.5074 -0.1714 -0.6844
   23SOL    HW2   69   2.837   0.615   0.628 -0.2955  2.7688  1.2099
   24SOL     OW   70   0.311   1.880   0.474  0.3376 -0.1283 -0.5343
   24SOL    HW1   71   0.291   1.965   0.422  1.4361 -1.7853  3.2086
   24SOL    HW2   72   0.401   1.836   0.441 -0.5534 -1.4389 -0.4303
   25SOL     OW   73   2.294   0.610   0.221  0.4331 -0.1482  0.2244
   25SOL    HW1   74   2.282   0.582   0.122 -0.5793  0.8029 -0.9611
   25SOL    HW2   75   2.353   0.541   0.271  0.4699  0.2230 -1.3617
   26SOL     OW   76   2.462   2.154   2.107 -0.5621  0.1426 -0.7041
   26SOL    HW1   77   2.544   2.200   2.149 -2.1599 -0.2956  0.3396
   26SOL    HW2   78   2.491   2.071   2.048  0.0899 -0.2449  0.6797
   27SOL     OW   79   0.631   3.029   0.121  0.3879  0.1596  0.0037
   27SOL    HW1   80   0.728   3.065   0.131  2.5612  2.4910  0.6286
   27SOL    HW2   81   0.609   2.984   0.026  0.2648 -0.3094 -3.6994
   28SOL     OW   82   1.572   0.157   0.307  0.4954  0.3889 -0.0583
   28SOL    HW1   83   1.609   0.135   0.214  2.3779 -0.0022  0.2847
   28SOL    HW2   84   1.612   0.250   0.341  0.2145 -1.1652  1.3321
   29SOL     OW   85   2.017   0.555   0.309 -0.2817 -0.2464  0.5106
   29SOL    HW1   86   1.990   0.600   0.396 -0.0644 -1.2053 -1.2691
   29SOL    HW2   87   2.100   0.603   0.267 -0.4115  1.3789 -0.7621
   30SOL     OW   88   0.185   2.080   0.926  0.8309  0.5892  0.2404
   30SOL    HW1   89   0.201   1.986   0.878 -0.1132 -1.0986 -0.2324
   30SOL    HW2   90   0.082   2.105   0.933  0.9915  1.1651  1.4231
   31SOL     OW   91   2.104   0.088   2.419 -0.7521  0.0187 -0.0480
   31SOL    HW1   92   2.077   0.060   2.517  1.8514  0.2679  1.6950
   31SOL    HW2   93   2.034   0.050   2.351 -0.8296  0.9483  1.4752
   32SOL     OW   94   3.079   3.069   0.251  0.4984 -0.6615  0.1599
   32SOL    HW1   95   3.043   2.975   0.286  0.4512  0.8374  1.2559
   32SOL    HW2   96   3.176   3.066   0.211 -0.8412 -1.5692  1.1525
   33SOL     OW   97   0.903   0.227   0.646 -0.5325  1.0199 -0.0431
   33SOL    HW1   98   0.899   0.151   0.569  0.3590  1.6070 -0.8189
   33SOL    HW2   99   0.985   0.290   0.630  2.6996  0.2755 -0.9360
   34SOL     OW  100   0.339   2.685   1.007 -0.4889 -0.6680  0.6128
   34SOL    HW1  101   0.276   2.735   0.942  1.2250  0.2415 -1.1842
   34SOL    HW2  102   0.422   2.737   1.035  0.7812 -0.7032 -2.2420
   35SOL     OW  103   0.052   0.141   1.917  0.1925  0.3129  0.2076
   35SOL    HW1  104   0.095   0.054   1.953 -1.2979  1.6900  1.0888
   35SOL    HW2  105   0.031   0.125   1.816  1.4470  1.3810 -1.0107
   36SOL     OW  106   1.908   1.201   1.497 -0.6405  0.8368 -0.1041
   36SOL    HW1  107   2.003   1.164   1.526  1.9178  1.4725 -2.5618
   36SOL    HW2  108   1.914   1.290   1.446 -1.9820 -0.1708 -0.8442
   37SOL     OW  109   1.131   0.254   1.015  0.5172 -0.3585 -0.1090
   37SOL    HW1  110   1.125   0.356   0.978  0.7662  3.1226 -0.5427
   37SOL    HW2  111   1.204   0.193   0.969 -0.3870  0.4432  0.0113
   38SOL     OW  112   1.166   2.852   2.456 -0.0148  0.2216  0.2594
   38SOL    HW1  113   1.072   2.819   2.493  1.2252 -1.4920  0.2321
   38SOL    HW2  114   1.167   2.943   2.407  1.0140  2.7996  1.4168
   39SOL     OW  115   2.482   1.412   2.998 -0.2247  0.1843 -0.7131
   39SOL    HW1  116   2.566   1.349   3.015  0.5798  2.3172 -1.9768
   39SOL    HW2  117   2.399   1.380   3.052  3.2501 -1.5136  2.3188
   40SOL     OW  118   2.039   2.520   2.512 -0.5567 -0.1558 -0.1401
   40SOL    HW1  119   2.001   2.617   2.519  2.6106  1.4097  1.0260
   40SOL    HW2  120   1.965   2.448   2.480  1.7190  1.5927 -1.3144
   41SOL     OW  121   3.029   0.716   2.791 -0.0707  0.0481  0.7014
   41SOL    HW1  122   3.010   0.798   2.849 -1.3201 -2.5699 -0.0460
   41SOL    HW2  123   2.948   0.659   2.760 -0.5918 -0.6865 -1.2018
   42SOL     OW  124   1.734   1.739   0.505 -0.6313  0.4633 -0.2968
   42SOL    HW1  125   1.702   1.640   0.490 -0.1762  0.2715 -2.7580
   42SOL    HW2  126   1.758   1.781   0.415 -1.1129  1.7481 -0.5498
   43SOL     OW  127   0.464   1.681   1.131  0.3659  0.2583  0.0530
   43SOL    HW1  128   0.469   1.577   1.102  0.9168 -1.1732  0.5123
   43SOL    HW2  129   0.421   1.703   1.226  5.0644  2.1690  1.4617
   44SOL     OW  130   1.677   2.324   2.920  0.1022  0.1720  0.1657
   44SOL    HW1  131   1.577   2.331   2.898  0.1928 -0.9206  0.3439
   44SOL    HW2  132   1.738   2.396   2.875 -0.4732  0.8839 -1.2326
   45SOL     OW  133   0.363   1.904   2.642  0.0430 -0.3110 -0.0701
   45SOL    HW1  134   0.306   1.913   2.558 -1.3841  0.2917  2.0757
   45SOL    HW2  135   0.449   1.847   2.642 -0.7132  0.4964  0.7479
   46SOL     OW  136   1.333   0.726   0.247  0.1686 -0.0229  0.0119
   46SOL    HW1  137   1.318   0.820   0.199 -0.0820 -1.2861 -2.2590
   46SOL    HW2  138   1.294   0.647   0.187  0.6671  1.9669  0.5106
   47SOL     OW  139   0.117   2.380   1.604  0.2584 -0.4826  0.2089
   47SOL    HW1  140   0.071   2.299   1.647 -1.0743 -0.9301  1.2059
   47SOL    HW2  141   0.125   2.363   1.502 -1.7654 -0.2975 -0.8756
   48SOL     OW  142   2.636   0.727   0.124  0.0173  0.8993  0.0216
   48SOL    HW1  143   2.632   0.686   0.217 -0.6568  1.3081  0.7657
   48SOL    HW2  144   2.733   0.756   0.103  0.1854 -0.0129 -0.4291
   49SOL     OW  145   0.345   0.841   1.736  0.0591  0.1311 -0.1022
   49SOL    HW1  146   0.435   0.880   1.778 -1.1931  1.8173  3.5001
   49SOL    HW2  147   0.364   0.763   1.667  2.2186  1.2124  0.7388
   50SOL     OW  148   1.716   1.088   0.315 -0.5947  0.1040 -0.0992
   50SOL    HW1  149   1.748   0.991   0.299  2.1981  0.8635  1.7801
   50SOL    HW2  150   1.657   1.094   0.399  1.5965  0.1882 -0.1400
   51SOL     OW  151   2.966   1.744   0.313  0.5363 -0.2075 -0.6059
   51SOL    HW1  152   2.899   1.673   0.353 -1.5284  0.8756 -0.2269
   51SOL    HW2  153   3.066   1.718   0.328 -0.4232 -0.2431 -0.0864
   52SOL     OW  154   0.769   2.161   0.564 -0.0600 -0.2547  0.2504
   52SOL    HW1  155   0.671   2.154   0.535 -1.2324  1.1439  0.6335
   52SOL    HW2  156   0.788   2.098   0.645 -0.3252  1.3083  0.0320
   53SOL     OW  157   0.314   0.424   1.438  0.0850 -0.0318 -0.0123
   53SOL    HW1  158   0.335   0.520   1.474  0.6829 -0.1536  1.1803
   53SOL    HW2  159   0.279   0.422   1.340  0.4959 -1.4719 -0.2950
   54SOL     OW  160   1.745   0.441   0.005  0.3073 -0.0186 -0.1614
   54SOL    HW1  161   1.812   0.389   0.068  0.0891 -0.8593 -1.1270
   54SOL    HW2  162   1.650   0.430   0.043  0.0470 -0.5105  0.1411
   55SOL     OW  163   0.789   2.952   0.627  0.2102  0.1940 -0.1513
   55SOL    HW1  164   0.747   3.047   0.614  1.0134 -0.1280  0.4778
   55SOL    HW2  165   0.880   2.947   0.575  0.5616 -1.5025  1.0777
   56SOL     OW  166   0.557   1.540   3.058 -0.5726  0.0590  0.0368
   56SOL    HW1  167   0.482   1.566   3.122  1.5563 -0.0818 -2.0172
   56SOL    HW2  168   0.535   1.452   3.011 -2.3992 -0.4976  0.8254
   57SOL     OW  169   1.672   2.460   2.343 -0.3986  0.2672  0.5912
   57SOL    HW1  170   1.749   2.393   2.364  0.4866 -0.0819  1.4222
   57SOL    HW2  171   1.610   2.473   2.425 -1.8883  1.2343 -1.3623
   58SOL     OW  172   0.642   0.213   1.099  0.0619  0.0561  0.6645
   58SOL    HW1  173   0.549   0.190   1.142 -1.1565 -0.1312 -2.1478
   58SOL    HW2  174   0.712   0.139   1.099 -2.1156 -0.4443 -1.1992
   59SOL     OW  175   0.465   2.360   2.614  0.2691 -0.3215 -0.9469
   59SOL    HW1  176   0.499   2.264   2.633 -0.1412  2.1722 -1.9043
   59SOL    HW2  177   0.537   2.433   2.640  0.9047  1.8215 -0.8383
   60SOL     OW  178   2.305   2.024   2.286 -0.2310  0.4831 -0.0665
   60SOL    HW1  179   2.357   2.063   2.204 -1.4082  0.5535 -0.8785
   60SOL    HW2  180   2.322   2.076   2.373  0.2162  0.9662 -3.4126
   61SOL     OW  181   1.195   0.655   0.474 -0.1264  0.4124 -0.3332
   61SOL    HW1  182   1.105   0.671   0.517  1.1328 -1.7161 -1.0508
   61SOL    HW2  183   1.216   0.704   0.381 -0.5215 -0.6986 -1.8696
   62SOL     OW  184   2.801   1.702   2.689  0.0377 -0.3589  0.2277
   62SOL    HW1  185   2.753   1.606   2.683 -1.5186 -1.7158  2.2629
   62SOL    HW2  186   2.889   1.699   2.746  0.4362 -0.2503 -3.0934
   63SOL     OW  187   0.537   0.895   0.186 -0.1928 -0.5154 -0.5219
   63SOL    HW1  188   0.594   0.954   0.122  2.3180  0.4477  0.2249
   63SOL    HW2  189   0.567   0.900   0.287 -0.4029  0.0981 -1.0410
   64SOL     OW  190   2.999   0.555   2.340 -0.0750  0.4769  0.2891
   64SOL    HW1  191   2.947   0.614   2.407  0.2353 -1.2282 -1.5014
   64SOL    HW2  192   3.001   0.606   2.249 -1.6811 -2.3268  3.8248
   65SOL     OW  193   0.228   1.437   0.684 -0.2279 -0.2802 -0.0065
   65SOL    HW1  194   0.207   1.537   0.697  0.3484  0.4978 -1.4946
   65SOL    HW2  195   0.275   1.419   0.591  0.5457 -1.6895 -3.8865
   66SOL     OW  196   2.574   0.338   0.532  0.5010 -0.1943 -0.1260
   66SOL    HW1  197   2.682   0.335   0.525  0.8979 -0.3753 -0.9699
   66SOL    HW2  198   2.538   0.273   0.607 -1.7467 -2.6037 -0.4684
   67SOL     OW  199   0.592   2.523   1.451 -0.1440 -0.4328  1.1402
   67SOL    HW1  200   0.667   2.490   1.512 -0.7169 -0.4393 -2.4085
   67SOL    HW2  201   0.512   2.455   1.444 -1.6344 -1.3338  1.0730
   68SOL     OW  202   0.910   1.037   2.469 -0.0530  1.0865  1.3082
   68SOL    HW1  203   0.985   0.981   2.422  0.5198  1.6509  1.0528
   68SOL    HW2  204   0.860   1.098   2.399  1.2567 -1.8257 -1.1714
   69SOL     OW  205   0.800   2.611   2.360 -0.0120 -0.8139 -0.4140
   69SOL    HW1  206   0.835   2.575   2.269  0.3106  1.9612  1.4265
   69SOL    HW2  207   0.702   2.594   2.385  0.7049 -3.0723  0.3601
   70SOL     OW  208   0.476   0.161   2.571  0.2518 -0.2920  0.3382
   70SOL    HW1  209   0.405   0.122   2.634 -0.1103  3.2539 -1.0175
   70SOL    HW2  210   0.552   0.096   2.550  0.1001  1.4871  1.0861
   71SOL     OW  211   1.064   1.764   0.313  0.0471  0.0270 -0.2681
   71SOL    HW1  212   0.987   1.738   0.385 -0.9477  0.0586  1.7855
   71SOL    HW2  213   1.033   1.775   0.213 -0.8752  0.2617 -1.2736
   72SOL     OW  214   1.875   0.270   2.153  0.2005 -0.3582 -0.0991
   72SOL    HW1  215   1.910   0.308   2.068  0.0447  0.7630 -1.0598
   72SOL    HW2  216   1.927   0.188   2.180  2.0306  0.9118 -0.7573
   73SOL     OW  217   2.752   2.201   2.494 -0.0604  0.3700  0.3980
   73SOL    HW1  218   2.723   2.105   2.460 -0.9106  0.5998 -1.6596
   73SOL    HW2  219   2.830   2.203   2.562 -1.5012  1.6573  1.3793
   74SOL     OW  220   2.718   2.937   2.112  0.3744  0.3792  0.6430
   74SOL    HW1  221   2.641   2.918   2.181 -2.1732  1.2217  0.8740
   74SOL    HW2  222   2.803   2.980   2.159  0.2801  0.3330 -3.2154
   75SOL     OW  223   0.951   0.809   1.164 -0.2508 -0.2663  0.0753
   75SOL    HW1  224   0.850   0.818   1.144 -1.6162 -2.0283  3.2107
   75SOL    HW2  225   0.974   0.859   1.248 -1.7291  1.2989  0.1793
   76SOL     OW  226   1.872   1.272   2.631  0.1799 -0.8204  0.1778
   76SOL    HW1  227   1.776   1.287   2.658  0.5873 -0.0721 -2.9030
   76SOL    HW2  228   1.943   1.334   2.671 -0.1428 -1.0716  1.5412
   77SOL     OW  229   2.911   0.931   1.050  0.1475 -0.2778 -0.2627
   77SOL    HW1  230   2.897   0.830   1.037  1.4762 -0.3327 -1.7011
   77SOL    HW2  231   2.991   0.952   1.115  0.2371  1.6963  1.1792
   78SOL     OW  232   1.966   1.431   1.349 -0.4967 -0.4823 -0.4291
   78SOL    HW1  233   2.053   1.400   1.300 -2.0049  0.2745  1.9282
   78SOL    HW2  234   1.888   1.456   1.283 -0.7076  1.1945 -1.3926
   79SOL     OW  235   0.708   1.458   0.839 -0.0630  0.3268  0.4263
   79SOL    HW1  236   0.613   1.440   0.804  0.8266  2.7349  1.7896
   79SOL    HW2  237   0.759   1.371   0.841 -1.7006 -0.5035 -1.6965
   80SOL     OW  238   0.653   0.457   1.583  0.7201  0.3863  0.7456
   80SOL    HW1  239   0.665   0.490   1.484  1.2537 -1.2038  1.6866
   80SOL    HW2  240   0.646   0.356   1.588 -0.5936  1.7013 -3.3853
   81SOL     OW  241   1.084   1.264   2.507 -0.1386 -0.0343 -0.4996
   81SOL    HW1  242   1.033   1.175   2.497 -1.6246 -0.9321 -0.3079
   81SOL    HW2  243   1.021   1.340   2.537  0.8244  1.8067  2.1220
   82SOL     OW  244   0.919   2.952   1.575  0.1742  0.0054  0.8584
   82SOL    HW1  245   1.017   2.922   1.557  0.6730  1.4714  3.1826
   82SOL    HW2  246   0.855   2.941   1.494  3.6926  1.5402  1.3857
   83SOL     OW  247   2.649   2.374   0.867  0.2156 -0.6187  0.0454
   83SOL    HW1  248   2.547   2.349   0.844 -2.8895 -0.8544  3.3890
   83SOL    HW2  249   2.659   2.466   0.910  1.6095 -5.0868  2.5195
   84SOL     OW  250   0.776   3.094   2.284 -0.2137 -0.0364  0.0772
   84SOL    HW1  251   0.763   3.074   2.385 -1.3944  1.0277  0.5861
   84SOL    HW2  252   0.816   3.009   2.234  0.4700  1.4346  2.7141
   85SOL     OW  253   0.324   1.710   1.359 -0.1286 -0.0307 -0.7679
   85SOL    HW1  254   0.309   1.805   1.394  1.3480  1.0726  0.1323
   85SOL    HW2  255   0.349   1.642   1.437  0.1122 -1.5333  0.3306
   86SOL     OW  256   0.455   1.047   1.452 -0.5148 -0.0684 -1.0589
   86SOL    HW1  257   0.424   0.982   1.380  1.0333  0.3953  0.6257
   86SOL    HW2  258   0.559   1.031   1.474 -0.6966  0.3634 -3.7850
   87SOL     OW  259   1.627   0.632   0.288  0.9058 -0.1864  0.0438
   87SOL    HW1  260   1.677   0.719   0.255 -0.9087  2.7220 -2.1415
   87SOL    HW2  261   1.553   0.601   0.223  1.9748  1.5308 -1.6631
   88SOL     OW  262   1.564   1.326   0.250  0.5319  0.2478 -0.0179
   88SOL    HW1  263   1.614   1.234   0.244 -0.7376 -0.6252 -0.6786
   88SOL    HW2  264   1.454   1.320   0.238 -3.6544 -0.1663  2.7397
   89SOL     OW  265   0.005   0.391   0.683 -0.0888  0.1802  0.0553
   89SOL    HW1  266   0.110   0.388   0.685  0.3539 -3.4614  2.4972
   89SOL    HW2  267  -0.038   0.306   0.634 -0.0691 -2.4384  2.6597
   90SOL     OW  268   0.739   1.524   0.152  0.1488 -0.2245 -0.5439
   90SOL    HW1  269   0.829   1.473   0.136  0.6815  1.5185 -2.0903
   90SOL    HW2  270   0.673   1.523   0.069  0.6469  1.2459 -2.0464
   91SOL     OW  271   1.311   1.514   1.698 -0.1109  0.1451 -0.1853
   91SOL    HW1  272   1.232   1.556   1.746  2.6070  0.0524 -0.7671
   91SOL    HW2  273   1.343   1.434   1.751 -1.4601  0.7142 -3.2414
   92SOL     OW  274   0.019   1.006   1.216  0.4385  0.1097 -0.4397
   92SOL    HW1  275   0.084   1.059   1.161  0.1073 -0.3163  0.8200
   92SOL    HW2  276   0.028   1.021   1.313  0.8857 -0.5099 -0.9289
   93SOL     OW  277   3.047   2.641   0.068 -0.2399  0.1530 -0.1006
   93SOL    HW1  278   3.022   2.652  -0.032 -1.7559 -2.3910  3.8975
   93SOL    HW2  279   3.090   2.548   0.088 -1.9805  1.7363 -0.0242
   94SOL     OW  280   1.508   1.311   1.678  0.6837  0.2953  0.2638
   94SOL    HW1  281   1.584   1.240   1.695  1.4800 -0.5136 -1.9756
   94SOL    HW2  282   1.551   1.401   1.659  0.4809 -2.1330 -1.8157
   95SOL     OW  283   1.356   2.463   2.922 -0.1359 -0.3896  0.5371
   95SOL    HW1  284   1.281   2.473   2.990  2.0475 -1.1263 -0.8327
   95SOL    HW2  285   1.351   2.379   2.861  0.8245 -1.1910 -3.3234
   96SOL     OW  286   0.569   2.166   1.305 -0.0865  0.0115  0.0754
   96SOL    HW1  287   0.526   2.138   1.213  0.9019 -0.8267 -0.4496
   96SOL    HW2  288   0.597   2.089   1.369  2.8607 -0.4678 -2.3654
   97SOL     OW  289   0.244   1.609   2.386 -0.2985 -0.4806  0.0245
   97SOL    HW1  290   0.207   1.702   2.355  2.6529  1.3269  0.3249
   97SOL    HW2  291   0.241   1.586   2.485  3.8799 -1.5405 -1.8735
   98SOL     OW  292   2.186   1.673   1.192  1.0171  0.2504 -0.3683
   98SOL    HW1  293   2.153   1.574   1.179  0.9078 -1.5216 -1.9213
   98SOL    HW2  294   2.289   1.679   1.163  0.4819 -2.5772 -0.9520
   99SOL     OW  295   2.616   2.035   1.293  0.2882  0.5757  0.2269
   99SOL    HW1  296   2.667   2.083   1.365  0.9479 -2.6545 -2.6028
   99SOL    HW2  297   2.540   1.977   1.333 -0.4416 -0.6911 -0.5852
  100SOL     OW  298   2.337   0.358   2.122  0.0909 -0.2936  0.3637
  100SOL    HW1  299   2.281   0.320   2.201  0.5426  1.3407 -0.6869
  100SOL    HW2  300   2.435   0.387   2.151  0.7202 -0.7849  0.3477
  101SOL     OW  301   0.363   1.453   0.425 -0.2160 -0.0702 -0.5709
  101SOL    HW1  302   0.361   1.552   0.464  2.2943  1.4208  0.9951
  101SOL    HW2  303   0.460   1.427   0.392  1.0686  2.1090  2.4911
  102SOL     OW  304   2.249   1.069   0.849  0.3956  0.2998  0.9073
  102SOL    HW1  305   2.215   0.988   0.795 -0.8844 -1.9869 -1.2349
  102SOL    HW2  306   2.334   1.106   0.807 -1.8447 -1.0061  2.0219
  103SOL     OW  307   2.282   0.083   0.378  0.4561 -0.0011 -0.1710
  103SOL    HW1  308   2.301   0.104   0.276 -1.3775  2.0226 -0.0522
  103SOL    HW2  309   2.360   0.036   0.422 -2.1748  0.7991 -2.1247
  104SOL     OW  310   3.051   1.795   2.197  0.3829  0.3390  0.5700
  104SOL    HW1  311   3.096   1.799   2.104 -2.8002  2.3241  2.3749
  104SOL    HW2  312   2.949   1.818   2.183 -3.6333 -3.7469 -0.8716
  105SOL     OW  313   1.326   2.098   0.762 -0.5436 -0.0215 -0.3653
  105SOL    HW1  314   1.288   2.150   0.681 -0.0437 -0.8303 -1.0067
  105SOL    HW2  315   1.338   1.996   0.735 -1.4074  0.0800  0.2689
  106SOL     OW  316   2.138   0.410   1.425 -0.2146 -0.1304  0.2123
  106SOL    HW1  317   2.065   0.345   1.392  0.7929  0.9057  1.2854
  106SOL    HW2  318   2.140   0.437   1.527 -2.7130  0.8930  1.4627
  107SOL     OW  319   1.931   2.902   1.150 -0.3984 -0.2036  0.0843
  107SOL    HW1  320   1.870   2.978   1.185  2.1869 -0.6334  1.8051
  107SOL    HW2  321   1.876   2.836   1.084 -0.6908 -0.6482 -0.5256
  108SOL     OW  322   0.853   2.818   1.125  0.1192 -0.2474 -0.4425
  108SOL    HW1  323   0.855   2.720   1.096  2.9514 -0.7886 -0.8451
  108SOL    HW2  324   0.937   2.837   1.185  0.0971  1.8151  1.8209
  109SOL     OW  325   2.171   0.163   0.726  0.3153  0.1287  0.2265
  109SOL    HW1  326   2.112   0.114   0.657  0.0641  0.2060 -0.2172
  109SOL    HW2  327   2.117   0.179   0.815 -0.4261 -2.2952  2.4129
  110SOL     OW  328   0.504   2.833   2.754  0.1290  0.3806  0.2232
  110SOL    HW1  329   0.495   2.838   2.647  0.1720 -2.0153  0.3667
  110SOL    HW2  330   0.584   2.777   2.785 -0.8498 -0.3285 -1.5190
  111SOL     OW  331   1.331   0.579   2.276 -0.0374  0.4548  0.4493
  111SOL    HW1  332   1.247   0.620   2.323  0.1949 -2.3195 -0.9727
  111SOL    HW2  333   1.364   0.499   2.338 -1.5638 -2.4106  0.4423
  112SOL     OW  334   1.739   0.463   1.542  0.0286  0.6688 -0.3230
  112SOL    HW1  335   1.715   0.498   1.447  1.7197  0.5780  2.1732
  112SOL    HW2  336   1.656   0.456   1.610 -1.3462 -0.2091  3.4749
  113SOL     OW  337   2.322   1.670   1.794 -1.0151  0.2734 -0.0253
  113SOL    HW1  338   2.373   1.582   1.791 -2.3967  1.8797  1.0349
  113SOL    HW2  339   2.284   1.686   1.888 -0.4789 -1.3935  1.8169
  114SOL     OW  340   0.247   0.396   1.153 -1.2838  0.1472 -0.0571
  114SOL    HW1  341   0.145   0.390   1.145  2.5121 -2.1079  2.2290
  114SOL    HW2  342   0.287   0.445   1.067 -2.1434 -0.7546 -1.2462
  115SOL     OW  343   2.689   1.526   1.259 -0.2464  0.4586 -0.4088
  115SOL    HW1  344   2.654   1.428   1.243 -0.2535  2.0090  0.7741
  115SOL    HW2  345   2.793   1.533   1.261  0.0642  1.9220  2.8718
  116SOL     OW  346   1.938   0.919   0.738  0.2016 -0.4766 -0.4424
  116SOL    HW1  347   1.841   0.885   0.713 -0.7488  3.1599  0.4491
  116SOL    HW2  348   1.941   1.027   0.744  0.5860 -0.1408  0.0743
  117SOL     OW  349   1.133   0.357   0.546 -0.0744 -0.0224  0.5602
  117SOL    HW1  350   1.138   0.459   0.546 -0.0159 -3.9081 -0.2536
  117SOL    HW2  351   1.110   0.327   0.452  1.6328  2.7223  0.8109
  118SOL     OW  352   1.150   1.222   1.089 -0.0252  0.0684  0.3465
  118SOL    HW1  353   1.052   1.217   1.129 -0.1470 -0.4928 -1.8145
  118SOL    HW2  354   1.194   1.316   1.103 -0.3475  1.5653  0.8642
  119SOL     OW  355   1.872   1.584   2.203 -0.1080  0.4025  0.0033
  119SOL    HW1  356   1.843   1.655   2.130  0.9073 -0.9085 -1.3298
  119SOL    HW2  357   1.951   1.529   2.167  0.5555  1.5226 -0.9160
  120SOL     OW  358   2.977   2.802   0.274 -0.0978  0.2646 -0.1915
  120SOL    HW1  359   3.012   2.735   0.198 -2.0364  2.1161 -2.9784
  120SOL    HW2  360   2.876   2.810   0.270 -0.1536  0.9710 -1.8292
  121SOL     OW  361   2.012   0.781   2.321 -0.2613 -0.0528 -0.0396
  121SOL    HW1  362   2.022   0.862   2.259 -0.0409 -0.1283 -0.4937
  121SOL    HW2  363   2.029   0.690   2.275 -0.3731  2.0834  0.3287
  122SOL     OW  364   2.640   2.499   1.358  0.0709 -0.0109 -0.1481
  122SOL    HW1  365   2.679   2.434   1.284  1.9652  0.1195  1.9130
  122SOL    HW2  366   2.613   2.445   1.446 -0.2613 -2.6756  1.7830
  123SOL     OW  367   1.647   0.181   1.675  0.1615  0.3081 -0.6022
  123SOL    HW1  368   1.675   0.094   1.619 -1.5090 -0.4095  0.3201
  123SOL    HW2  369   1.734   0.229   1.709 -0.7422  0.0449 -1.3775
  124SOL     OW  370   3.061   0.416   1.165  1.2529 -0.4338  0.0467
  124SOL    HW1  371   2.995   0.460   1.237  1.2381 -0.1192  3.2681
  124SOL    HW2  372   3.055   0.464   1.073 -2.0701  2.2253 -0.4723
  125SOL     OW  373   0.890   1.990   0.749  0.3945  0.0471  0.5337
  125SOL    HW1  374   0.979   1.950   0.777 -2.0468 -2.4677 -1.3392
  125SOL    HW2  375   0.820   1.975   0.827  0.2608  0.7636  1.7111
  126SOL     OW  376   1.895   2.306   2.453  0.1002 -0.7865  0.0167
  126SOL    HW1  377   1.938   2.260   2.373  3.1925  2.0800  0.1623
  126SOL    HW2  378   1.883   2.239   2.535  1.2747  0.3125  2.5066
  127SOL     OW  379   0.895   0.970   0.168  0.2900 -0.1598 -0.1693
  127SOL    HW1  380   0.936   0.997   0.259 -0.4611 -0.4803  1.6500
  127SOL    HW2  381   0.901   0.865   0.154 -1.8308  0.5587  0.0658
  128SOL     OW  382   0.929   0.183   1.399 -0.2105 -0.2307 -0.6968
  128SOL    HW1  383   0.896   0.269   1.361  1.5341 -1.8998  1.4815
  128SOL    HW2  384   0.879   0.102   1.368  1.9840  1.7692 -0.1304
  129SOL     OW  385   1.885   0.727   1.850  0.0482 -0.1475 -0.1851
  129SOL    HW1  386   1.909   0.710   1.745  2.5501  1.2190 -1.2520
  129SOL    HW2  387   1.896   0.824   1.879  1.0154 -2.0943  3.9753
  130SOL     OW  388   1.386   2.174   1.023  0.5234 -0.5774  0.3075
  130SOL    HW1  389   1.344   2.126   0.942  1.4628 -0.9070  0.6525
  130SOL    HW2  390   1.427   2.267   0.995  1.8401 -1.0087  0.8638
  131SOL     OW  391   3.027   1.393   1.417 -0.2402 -0.2913  0.4862
  131SOL    HW1  392   2.989   1.295   1.407 -0.3499  0.6297 -0.7521
  131SOL    HW2  393   3.127   1.386   1.422 -4.8022 -0.3822 -1.5348
  132SOL     OW  394   2.050   2.423   0.552  0.2926 -0.1873 -0.2647
  132SOL    HW1  395   1.951   2.450   0.575 -0.9193  1.9598  0.4450
  132SOL    HW2  396   2.081   2.339   0.606 -0.9940  0.5374 -0.0616
  133SOL     OW  397   1.763   2.514   2.737  0.4945 -0.0638 -0.4318
  133SOL    HW1  398   1.713   2.486   2.650  0.9196 -0.7709 -0.5719
  133SOL    HW2  399   1.749   2.608   2.769 -0.8804 -2.5614 -2.6678
  134SOL     OW  400   2.620   2.409   1.616 -0.2248  0.4072  0.5709
  134SOL    HW1  401   2.576   2.345   1.690 -0.1367 -2.4287  0.9581
  134SOL    HW2  402   2.658   2.500   1.654  1.2580  1.2527  0.1444
  135SOL     OW  403   0.806   1.357   2.654 -0.2359 -0.8685 -0.0615
  135SOL    HW1  404   0.749   1.275   2.691 -1.0696  0.1273 -2.0538
  135SOL    HW2  405   0.772   1.381   2.557 -1.8976 -1.0903 -0.5736
  136SOL     OW  406   1.178   1.991   0.399  0.9158  0.1112  0.2220
  136SOL    HW1  407   1.113   2.066   0.427 -0.0883  1.0177  0.7011
  136SOL    HW2  408   1.131   1.902   0.373  0.6057  0.1248 -0.6405
  137SOL     OW  409   0.423   1.199   2.306  0.6884 -0.8329 -0.0543
  137SOL    HW1  410   0.329   1.154   2.310  2.3450  1.4739 -0.5544
  137SOL    HW2  411   0.501   1.130   2.300  0.7286 -1.6245  1.3579
  138SOL     OW  412   2.452   1.481   0.254 -0.1612 -0.1489  0.5365
  138SOL    HW1  413   2.386   1.440   0.180 -1.6934 -1.5298 -1.0434
  138SOL    HW2  414   2.484   1.403   0.316  1.5612  0.9649 -0.0521
  139SOL     OW  415   1.884   2.646   1.580  0.5745 -0.1444 -0.0793
  139SOL    HW1  416   1.788   2.676   1.558  1.7863  1.4763  2.1415
  139SOL    HW2  417   1.921   2.588   1.506  1.3846 -1.0076  0.2132
  140SOL     OW  418   2.996   2.966   2.582 -0.0559 -0.3014  0.6570
  140SOL    HW1  419   3.040   2.874   2.608  0.1606 -2.3228  0.9038
  140SOL    HW2  420   3.063   3.030   2.539 -0.7632  2.6142  1.0215
  141SOL     OW  421   1.320   1.650   1.473 -0.3087 -0.3798 -0.6127
  141SOL    HW1  422   1.226   1.692   1.451  0.2332 -0.2142  0.7470
  141SOL    HW2  423   1.321   1.574   1.543 -1.3614 -1.1038 -2.4211
  142SOL     OW  424   1.592   0.672   2.226  0.1949 -0.1589  0.3417
  142SOL    HW1  425   1.575   0.709   2.128  0.8080 -0.2068  0.6697
  142SOL    HW2  426   1.501   0.641   2.266  0.4660  2.4808 -2.3956
  143SOL     OW  427   2.743   0.797   0.534  0.0784 -0.4910 -0.0634
  143SOL    HW1  428   2.807   0.835   0.455  1.0563  0.4301 -1.8630
  143SOL    HW2  429   2.771   0.831   0.629 -2.1111  0.8091 -2.9483
  144SOL     OW  430   2.912   1.149   1.429  0.1756  0.2383  0.0731
  144SOL    HW1  431   2.891   1.172   1.527  2.1121 -2.3648 -0.9379
  144SOL    HW2  432   2.996   1.091   1.421 -0.7757 -0.8478  0.9682
  145SOL     OW  433   0.899   1.762   0.049  0.3993  0.1703 -0.3414
  145SOL    HW1  434   0.899   1.794  -0.051  1.0958 -0.7376 -0.8138
  145SOL    HW2  435   0.843   1.680   0.063  0.1125  2.5816  0.7065
  146SOL     OW  436   2.471   0.657   1.526 -0.1552  0.4277 -0.0980
  146SOL    HW1  437   2.474   0.561   1.498 -0.6072  1.4278  1.4936
  146SOL    HW2  438   2.412   0.716   1.459  0.0686  1.7720  1.2291
  147SOL     OW  439   1.093   2.500   0.565  0.7762  0.7441 -0.3074
  147SOL    HW1  440   1.033   2.565   0.507  0.3107 -0.8751 -2.2263
  147SOL    HW2  441   1.182   2.472   0.520  0.6018  1.1481 -0.6589
  148SOL     OW  442   1.601   1.436   3.091  0.5520 -0.3417  0.2071
  148SOL    HW1  443   1.623   1.340   3.050 -0.9311 -1.3285  1.1526
  148SOL    HW2  444   1.560   1.425   3.187 -0.0585 -2.5197 -0.4096
  149SOL     OW  445   0.666   1.499   2.004 -0.2859 -0.0227 -0.1622
  149SOL    HW1  446   0.583   1.451   2.043 -0.5183  2.2432 -3.1990
  149SOL    HW2  447   0.691   1.461   1.908  1.0871 -1.9432 -0.2044
  150SOL     OW  448   3.000   1.217   0.966 -0.8440  0.0201  0.5491
  150SOL    HW1  449   3.089   1.237   1.011 -1.3968  0.6115  2.8367
  150SOL    HW2  450   2.969   1.122   0.986  1.0477  2.7633  0.5697
  151SOL     OW  451   0.148   0.877   2.090  0.1316 -0.0910  0.2716
  151SOL    HW1  452   0.174   0.961   2.034  0.9737 -1.1220 -2.3441
  151SOL    HW2  453   0.194   0.793   2.054  0.7961  1.9727 -0.5094
  152SOL     OW  454   1.467   1.869   1.115 -0.2328  0.0662 -0.1587
  152SOL    HW1  455   1.517   1.961   1.099 -0.3528 -1.2185 -0.4743
  152SOL    HW2  456   1.363   1.882   1.097 -0.9821 -2.2156  0.6141
  153SOL     OW  457   0.099   1.484   0.263 -0.5401 -0.0512 -0.3080
  153SOL    HW1  458  -0.006   1.467   0.264 -2.1439 -0.0991 -1.1236
  153SOL    HW2  459   0.143   1.509   0.355 -0.2228 -0.4624 -0.5208
  154SOL     OW  460   2.300   1.846   2.770 -0.8079  0.4363 -0.1098
  154SOL    HW1  461   2.341   1.751   2.777  0.4820  0.1191 -0.9873
  154SOL    HW2  462   2.366   1.903   2.715 -1.6932 -2.3369  0.7467
  155SOL     OW  463   2.548   1.298   0.439  1.0383 -0.2234 -0.3240
  155SOL    HW1  464   2.596   1.335   0.525  1.1584 -0.1181  2.1019
  155SOL    HW2  465   2.575   1.201   0.414  3.5259  0.2551 -1.1490
  156SOL     OW  466   2.466   0.790   0.773  0.0903  0.0899  0.2503
  156SOL    HW1  467   2.370   0.753   0.775  0.2776  4.5431 -2.0032
  156SOL    HW2  468   2.485   0.828   0.675 -0.9348 -0.8722 -1.6232
  157SOL     OW  469   1.261   3.091   3.048 -0.1338  0.0893 -0.6544
  157SOL    HW1  470   1.317   3.027   2.987 -0.0277 -4.8794  0.7815
  157SOL    HW2  471   1.304   3.180   3.077 -2.1845  0.4790  1.4081
  158SOL     OW  472   1.078   1.886   1.848  0.6671 -0.7326  0.3053
  158SOL    HW1  473   1.113   1.978   1.817  1.5092  2.0839 -1.0578
  158SOL    HW2  474   1.004   1.902   1.923 -3.9249  0.4125 -3.0516
  159SOL     OW  475   0.792   0.393   1.241 -0.0634 -0.6354 -0.4140
  159SOL    HW1  476   0.745   0.484   1.246  1.1257  0.3879 -1.2378
  159SOL    HW2  477   0.745   0.332   1.173  3.4943  0.7527  0.7500
  160SOL     OW  478   1.396   2.471   1.411 -0.6034 -0.1807 -0.3743
  160SOL    HW1  479   1.326   2.400   1.446 -0.5513 -0.3035  1.6986
  160SOL    HW2  480   1.495   2.436   1.412 -0.8446 -2.0818 -1.2488
  161SOL     OW  481   0.050   2.646   0.428  0.2762 -0.2733  0.2185
  161SOL    HW1  482   0.003   2.555   0.426  2.6418  3.8373 -0.9054
  161SOL    HW2  483  -0.012   2.718   0.388  0.4832 -2.0020  0.0270
  162SOL     OW  484   2.521   1.923   0.458 -0.1924 -0.1546 -0.8374
  162SOL    HW1  485   2.572   1.921   0.371  1.7905  3.0227  0.9346
  162SOL    HW2  486   2.468   1.837   0.467 -0.9973  2.8661 -0.2262
  163SOL     OW  487   1.975   2.745   0.769 -0.3795  0.3581  0.2253
  163SOL    HW1  488   1.965   2.760   0.664 -2.1563  0.2270  0.8552
  163SOL    HW2  489   2.026   2.657   0.796  1.0547  0.4562  2.0771
  164SOL     OW  490   3.086   0.125   1.238 -0.3787  0.3826  0.1541
  164SOL    HW1  491   3.088   0.225   1.202 -2.9605 -1.0909 -1.0851
  164SOL    HW2  492   3.170   0.108   1.299 -1.3211 -0.2779 -0.5780
  165SOL     OW  493   1.108   1.418   0.630 -0.2779 -0.6786  0.5052
  165SOL    HW1  494   1.115   1.491   0.705 -1.7921  0.1911  2.4840
  165SOL    HW2  495   1.051   1.462   0.552  0.5047  2.3776  1.5275
  166SOL     OW  496   1.526   0.978   1.847  0.6513  0.2768 -0.5483
  166SOL    HW1  497   1.451   1.029   1.902 -1.0309 -1.3821 -1.7020
  166SOL    HW2  498   1.610   1.033   1.817  1.3188 -0.5127  0.1090
  167SOL     OW  499   0.669   2.008   1.520  0.0498  0.3487 -0.3166
  167SOL    HW1  500   0.685   2.078   1.592 -1.3357 -0.1541 -1.1641
  167SOL    HW2  501   0.607   1.933   1.554  0.6858  0.7889  1.2741
  168SOL     OW  502   1.623   2.293   0.131  0.3012  0.0617  0.1078
  168SOL    HW1  503   1.698   2.261   0.064  0.4855  0.8475  1.5332
  168SOL    HW2  504   1.646   2.263   0.231  3.4405  0.5527  0.6794
  169SOL     OW  505   3.067   2.610   2.184 -0.2030  0.1842  0.1250
  169SOL    HW1  506   3.089   2.552   2.102 -0.1376 -0.0719 -1.4013
  169SOL    HW2  507   3.085   2.562   2.276 -0.5153  2.1264  1.0240
  170SOL     OW  508   1.175   0.133   2.104  0.2847  0.2534  0.4222
  170SOL    HW1  509   1.267   0.166   2.134 -0.8971 -0.6632  1.2803
  170SOL    HW2  510   1.179   0.101   2.004  2.9985 -1.1292 -1.1559
  171SOL     OW  511   0.197   0.856   2.429  0.3630 -0.2270  0.0642
  171SOL    HW1  512   0.116   0.852   2.493 -1.7655  0.8221  0.5233
  171SOL    HW2  513   0.176   0.920   2.354 -1.8359 -1.1803  2.3071
  172SOL     OW  514   0.970   0.965   2.800 -0.6985 -0.3060 -0.7923
  172SOL    HW1  515   0.954   1.033   2.877 -2.3635 -2.2072  1.4966
  172SOL    HW2  516   0.924   0.996   2.714  0.7070 -2.9743 -0.2158
  173SOL     OW  517   0.350   2.572   0.011 -0.1394 -0.1293 -1.0042
  173SOL    HW1  518   0.429   2.537  -0.036 -0.7560  1.2978 -0.2219
  173SOL    HW2  519   0.337   2.520   0.096  2.8319  1.6892 -1.8109
  174SOL     OW  520   1.476   2.873   1.023  0.1647 -0.0386 -0.2422
  174SOL    HW1  521   1.522   2.949   0.970 -0.2909  0.4940 -1.9641
  174SOL    HW2  522   1.474   2.782   0.971  0.3714  0.1911  0.8968
  175SOL     OW  523   0.500   3.024   1.717  0.1649 -0.2267 -0.3529
  175SOL    HW1  524   0.560   3.017   1.803  1.2615 -1.0113  0.8704
  175SOL    HW2  525   0.469   3.119   1.693 -0.5213  1.0369 -0.7921
  176SOL     OW  526   2.601   0.465   3.071 -0.5705 -0.1393  0.1881
  176SOL    HW1  527   2.643   0.536   3.138 -0.3822  1.7174  0.4191
  176SOL    HW2  528   2.552   0.383   3.112 -4.2106  1.2480 -1.3307
  177SOL     OW  529   0.371   0.198   0.834  0.1867 -1.2303 -0.2551
  177SOL    HW1  530   0.321   0.106   0.846 -0.4373 -1.7548 -0.7321
  177SOL    HW2  531   0.471   0.209   0.836 -2.4213 -1.1756  2.9834
  178SOL     OW  532   0.007   2.722   2.667  0.0489  0.2016 -0.1744
  178SOL    HW1  533  -0.025   2.625   2.652  5.4163  1.1663 -1.5636
  178SOL    HW2  534   0.099   2.729   2.717  0.3323  1.4075 -1.3590
  179SOL     OW  535   2.961   1.580   1.240 -0.0465 -0.5717  0.3313
  179SOL    HW1  536   3.050   1.601   1.184 -0.4263  0.9904  1.3026
  179SOL    HW2  537   2.973   1.511   1.317 -0.6828  2.0952  1.6142
  180SOL     OW  538   0.292   1.406   1.744  0.3863 -0.2992 -0.2619
  180SOL    HW1  539   0.346   1.346   1.807 -1.9286 -1.5371 -1.0776
  180SOL    HW2  540   0.235   1.475   1.803  2.3308  0.8623 -0.1645
  181SOL     OW  541   3.004   1.755   2.479  0.0676 -0.2938 -0.1910
  181SOL    HW1  542   3.050   1.775   2.388  1.9447 -0.8756  3.1922
  181SOL    HW2  543   2.903   1.768   2.487  0.6640 -0.4988 -0.5938
  182SOL     OW  544   2.186   1.386   1.190 -0.9382  0.3611  0.0078
  182SOL    HW1  545   2.179   1.280   1.191 -1.4053  1.1644  1.2640
  182SOL    HW2  546   2.233   1.416   1.103 -1.6884  0.8909 -1.6163
  183SOL     OW  547   1.459   2.232   2.427 -0.2172  0.3425  0.3692
  183SOL    HW1  548   1.381   2.175   2.468 -0.9229  1.1475  2.4542
  183SOL    HW2  549   1.533   2.180   2.375  0.8712 -1.7403 -1.1102
  184SOL     OW  550   2.176   0.783   0.738  0.0509 -0.2208  0.2516
  184SOL    HW1  551   2.076   0.802   0.737 -0.1036  0.0833 -0.3691
  184SOL    HW2  552   2.193   0.686   0.717 -0.3439 -1.4306  1.3104
  185SOL     OW  553   1.592   2.770   2.010 -0.0020 -0.6127  0.2074
  185SOL    HW1  554   1.499   2.814   2.014  0.9689  1.3135 -1.6279
  185SOL    HW2  555   1.636   2.746   2.102 -0.7707 -1.6039  1.0735
  186SOL     OW  556   0.028   2.193   1.773 -0.7087 -0.1435 -0.3912
  186SOL    HW1  557   0.014   2.264   1.846  1.2208 -1.2204  1.0849
  186SOL    HW2  558   0.104   2.132   1.793 -2.0189 -0.4460  2.6562
  187SOL     OW  559   1.319   0.688   1.626 -0.1476 -0.8053 -0.1421
  187SOL    HW1  560   1.414   0.715   1.586 -1.2029 -1.5397 -2.9751
  187SOL    HW2  561   1.323   0.630   1.714  0.4033 -0.3771  4.1371
  188SOL     OW  562   2.694   2.690   1.590  0.1520  0.0987  0.2453
  188SOL    HW1  563   2.654   2.786   1.608  2.6373 -1.6789 -3.2728
  188SOL    HW2  564   2.656   2.645   1.504 -0.3352 -2.8505  0.9412
  189SOL     OW  565   0.907   1.204   1.357 -0.8564 -0.1237  0.6605
  189SOL    HW1  566   0.937   1.272   1.429 -2.3720  2.9965 -1.1923
  189SOL    HW2  567   0.880   1.246   1.266  0.5446 -1.1184 -0.6089
  190SOL     OW  568   1.444   1.871   1.526 -0.1723  0.1493  0.1576
  190SOL    HW1  569   1.401   1.773   1.515  1.4212 -1.4777  1.7077
  190SOL    HW2  570   1.461   1.892   1.629 -0.6154  0.4479 -1.6668
  191SOL     OW  571   0.850   0.778   1.500  0.0980  0.4368 -0.2694
  191SOL    HW1  572   0.920   0.723   1.550  0.1263  2.4274  2.9405
  191SOL    HW2  573   0.900   0.861   1.462  1.6170 -2.6675  2.1509
  192SOL     OW  574   1.828   2.447   1.129 -0.0877  0.2670  0.4350
  192SOL    HW1  575   1.736   2.406   1.164  0.1921 -1.8748 -0.1070
  192SOL    HW2  576   1.898   2.381   1.073  1.4102  1.9003 -0.3960
  193SOL     OW  577   0.513   0.524   0.399 -0.2120 -0.6888 -0.3268
  193SOL    HW1  578   0.444   0.442   0.384  0.1654 -0.8228 -0.2356
  193SOL    HW2  579   0.558   0.551   0.308 -1.0261 -2.2311  0.3214
  194SOL     OW  580   0.392   0.834   1.275  0.0480  0.0195 -0.0883
  194SOL    HW1  581   0.300   0.787   1.262  0.6732  0.1755 -2.2717
  194SOL    HW2  582   0.452   0.816   1.198  0.4061 -1.0143  1.8174
  195SOL     OW  583   1.053   2.942   0.532  0.4552 -0.2080 -0.1709
  195SOL    HW1  584   1.019   2.855   0.485 -1.4472 -0.0442  1.4438
  195SOL    HW2  585   1.142   2.978   0.494 -0.3686  0.1647 -0.7908
  196SOL     OW  586   0.230   1.404   1.296 -0.2385 -0.1315 -0.0605
  196SOL    HW1  587   0.272   1.496   1.308  1.2091 -0.8513  1.5047
  196SOL    HW2  588   0.246   1.340   1.375  0.7449 -2.8549 -2.9922
  197SOL     OW  589   0.797   1.936   0.256 -0.3117  0.1546 -0.3870
  197SOL    HW1  590   0.823   1.900   0.349  0.1779  0.6528 -2.1961
  197SOL    HW2  591   0.816   1.869   0.176 -2.5757 -1.7290 -1.4797
  198SOL     OW  592   0.269   1.212   0.346 -0.3049  0.2456  0.0080
  198SOL    HW1  593   0.167   1.203   0.318 -0.0138  0.8233  0.3729
  198SOL    HW2  594   0.291   1.311   0.381  1.0150 -0.6363  2.9244
  199SOL     OW  595   2.217   0.414   2.630 -0.5132 -0.2999  0.2042
  199SOL    HW1  596   2.149   0.351   2.683 -1.7256 -0.6645  2.6945
  199SOL    HW2  597   2.318   0.394   2.650  1.9603 -0.0042 -1.0339
  200SOL     OW  598   3.071   2.885   0.806  0.1611 -0.1932  0.3126
  200SOL    HW1  599   3.069   2.972   0.865  0.0559 -0.4896  0.0097
  200SOL    HW2  600   3.017   2.892   0.718  2.6542  1.4734 -1.9465
  201SOL     OW  601   0.923   0.689   0.544  0.3902 -0.0457  0.3403
  201SOL    HW1  602   0.934   0.772   0.601  0.3923 -1.2568 -1.3707
  201SOL    HW2  603   0.846   0.626   0.578  1.9734 -0.0545 -2.0751
  202SOL     OW  604   0.443   1.256   1.899 -0.2357  0.4135 -0.2037
  202SOL    HW1  605   0.516   1.183   1.900 -1.1408 -2.2281 -1.9088
  202SOL    HW2  606   0.440   1.314   1.988  1.1209  0.1445  1.2818
  203SOL     OW  607   0.670   0.172   1.554 -0.0380 -0.2108 -0.3229
  203SOL    HW1  608   0.692   0.114   1.468 -0.6328 -0.0266 -0.8912
  203SOL    HW2  609   0.752   0.182   1.617  0.4330 -1.5426  2.8774
  204SOL     OW  610   2.082   1.841   2.947 -0.2371  0.2633  0.3394
  204SOL    HW1  611   2.049   1.743   2.955  0.9401 -2.3200 -0.7440
  204SOL    HW2  612   2.170   1.857   2.893  1.7615  2.1795  0.4073
  205SOL     OW  613   1.826   1.891   3.039 -0.2732 -0.3773  0.0360
  205SOL    HW1  614   1.915   1.874   2.991 -0.4918  0.8553  1.3496
  205SOL    HW2  615   1.777   1.973   2.991  0.4213 -1.8006  1.4871
  206SOL     OW  616   2.365   2.710   0.268 -0.3993  0.3131 -0.0124
  206SOL    HW1  617   2.325   2.682   0.364  0.8293 -1.3919  1.0597
  206SOL    HW2  618   2.456   2.666   0.240  0.6181  1.9569  0.6325
  207SOL     OW  619   0.712   1.747   2.929  0.6197 -0.0501 -0.5470
  207SOL    HW1  620   0.791   1.706   2.872  0.6018 -2.8855  1.7856
  207SOL    HW2  621   0.643   1.675   2.958  0.9737 -1.2862 -2.5858
  208SOL     OW  622   0.994   1.560   1.234  0.1002  0.1418 -0.6187
  208SOL    HW1  623   0.935   1.593   1.155 -1.2623 -1.3700 -2.0667
  208SOL    HW2  624   0.954   1.589   1.327  0.2305 -1.8105 -0.3775
  209SOL     OW  625   0.221   0.985   3.058 -0.1959 -0.3042  0.2295
  209SOL    HW1  626   0.272   0.955   2.973  1.0511  1.9208 -3.1741
  209SOL    HW2  627   0.237   0.926   3.139  0.7869  2.9338  1.2541
  210SOL     OW  628   1.683   0.580   1.286  0.6263  0.2845 -0.2340
  210SOL    HW1  629   1.601   0.566   1.220  0.2209 -0.7769 -2.2006
  210SOL    HW2  630   1.742   0.659   1.266 -0.6141  1.3876  1.4357
  211SOL     OW  631   2.181   1.049   1.583 -0.4242  0.5888  0.0770
  211SOL    HW1  632   2.220   1.015   1.670 -1.5861 -0.5548  0.3797
  211SOL    HW2  633   2.255   1.103   1.531 -3.0614  1.4534 -0.7278
  212SOL     OW  634   0.037   1.022   1.493  0.0805 -0.6439 -0.0920
  212SOL    HW1  635   0.105   1.097   1.515  3.2368 -2.0479 -0.6980
  212SOL    HW2  636   0.062   0.934   1.542  0.4214 -2.0810  0.4708
  213SOL     OW  637   2.817   0.030   0.365 -0.6868 -0.2123 -0.3912
  213SOL    HW1  638   2.920   0.017   0.337  0.4792  1.3638 -2.1447
  213SOL    HW2  639   2.743  -0.002   0.295  0.3549 -1.3694  0.8382
  214SOL     OW  640   2.162   0.337   2.353  0.4113 -0.1726  0.0593
  214SOL    HW1  641   2.190   0.407   2.432  1.2334  0.4235  0.8159
  214SOL    HW2  642   2.144   0.242   2.387  3.0658  0.7086  2.9551
  215SOL     OW  643   1.680   2.271   2.083  0.3906  0.2277  0.0382
  215SOL    HW1  644   1.777   2.301   2.067 -1.1609 -0.9517 -2.2231
  215SOL    HW2  645   1.612   2.344   2.110  0.6969 -1.5799 -1.5732
  216SOL     OW  646   2.284   0.515   0.762  0.5156  0.0607 -0.3514
  216SOL    HW1  647   2.240   0.466   0.683  2.1034  2.1304 -0.8129
  216SOL    HW2  648   2.328   0.448   0.826 -0.6085 -2.6972  2.8447
  217SOL     OW  649   0.912   2.750   2.574 -0.3582 -0.1591  0.6024
  217SOL    HW1  650   0.957   2.687   2.646  0.3926 -0.7836 -4.1698
  217SOL    HW2  651   0.867   2.695   2.494 -1.9190 -0.5608 -3.1092
  218SOL     OW  652   1.882   1.407   0.024 -0.3816  0.1147  0.2593
  218SOL    HW1  653   1.781   1.427   0.010  0.4711  2.3963 -2.3121
  218SOL    HW2  654   1.902   1.321   0.082  0.4944 -1.5537  0.0116
  219SOL     OW  655   2.436   1.260   2.508 -0.2375 -0.1019  0.4894
  219SOL    HW1  656   2.476   1.229   2.416 -1.8031 -0.6223 -0.2119
  219SOL    HW2  657   2.421   1.183   2.575 -0.2490  1.2629  2.3012
  220SOL     OW  658   1.427   1.021   1.331  0.6713  0.1663  0.2036
  220SOL    HW1  659   1.522   1.002   1.364  1.0258  2.3356  0.7971
  220SOL    HW2  660   1.417   1.031   1.229  1.9813 -1.9390 -0.6471
  221SOL     OW  661   1.342   0.951   2.187 -0.3598  0.5815 -0.5717
  221SOL    HW1  662   1.307   1.004   2.105  0.7457  2.5160 -2.3025
  221SOL    HW2  663   1.436   0.992   2.221 -1.3289 -0.2302  2.1383
  222SOL     OW  664   1.154   0.054   1.202  0.0352  0.4125  0.1945
  222SOL    HW1  665   1.211   0.092   1.278 -0.7513  2.3006 -0.4170
  222SOL    HW2  666   1.092   0.124   1.156 -1.8182 -0.1749  0.8772
  223SOL     OW  667   2.726   0.972   2.126 -0.2182  0.4191 -0.4080
  223SOL    HW1  668   2.666   1.053   2.144 -2.6721 -0.2870  1.6531
  223SOL    HW2  669   2.805   0.968   2.192  0.8637  2.4504 -1.4850
  224SOL     OW  670   1.493   0.985   2.826 -0.2191 -0.3465  0.0241
  224SOL    HW1  671   1.516   0.977   2.728  0.6475  5.5036  0.3056
  224SOL    HW2  672   1.542   1.072   2.865 -2.2112 -0.9570  1.4706
  225SOL     OW  673   2.944   2.674   2.898 -0.0201  0.1666 -0.4062
  225SOL    HW1  674   2.859   2.701   2.843 -1.7641  0.9732 -1.5680
  225SOL    HW2  675   3.033   2.685   2.847 -0.8154 -1.5897  1.3564
  226SOL     OW  676   2.415   1.587   2.797  0.0052  0.3490  0.5241
  226SOL    HW1  677   2.485   1.568   2.721  1.7856 -0.8980  2.4535
  226SOL    HW2  678   2.427   1.519   2.877  1.3309 -0.3105 -0.1003
  227SOL     OW  679   0.908   0.232   3.040  0.1536 -0.7680 -0.4394
  227SOL    HW1  680   0.927   0.337   3.047 -2.0393  1.4788  0.6158
  227SOL    HW2  681   0.854   0.201   2.952  0.9775 -0.2681 -3.0923
  228SOL     OW  682   2.438   0.660   2.873  0.2695 -0.2164  0.2569
  228SOL    HW1  683   2.459   0.692   2.778 -1.8214 -0.1270  3.2721
  228SOL    HW2  684   2.511   0.592   2.901  0.0723 -0.0739 -1.0065
  229SOL     OW  685   0.593   0.622   1.837  1.1020  0.2348  0.1485
  229SOL    HW1  686   0.685   0.667   1.849 -1.3728 -0.3408 -3.4859
  229SOL    HW2  687   0.594   0.543   1.770  1.7376  0.0311 -1.8218
  230SOL     OW  688   1.874   1.214   1.921 -0.3315 -0.6547 -0.6054
  230SOL    HW1  689   1.956   1.268   1.875 -0.4565  2.3406 -0.0460
  230SOL    HW2  690   1.850   1.256   2.014 -2.0766  1.1414 -1.8696
  231SOL     OW  691   0.645   1.080   3.079  0.2789 -0.3967  0.1483
  231SOL    HW1  692   0.730   1.119   3.048  0.2919 -3.3544  2.5427
  231SOL    HW2  693   0.589   1.150   3.134 -0.9024  1.7181  1.2030
  232SOL     OW  694   2.412   2.987   2.798  0.1177 -0.3522 -0.1634
  232SOL    HW1  695   2.476   2.914   2.835 -1.3999  0.4550  1.3242
  232SOL    HW2  696   2.436   3.021   2.700  0.8449 -1.1022 -0.9174
  233SOL     OW  697   1.810   1.159   1.108 -0.0778 -0.4645  0.4747
  233SOL    HW1  698   1.866   1.239   1.074 -1.3067 -0.5625  0.7548
  233SOL    HW2  699   1.869   1.076   1.111  3.4769  1.7911 -1.5101
  234SOL     OW  700   1.663   2.510   1.826  0.5383  0.4000 -0.2065
  234SOL    HW1  701   1.644   2.570   1.909 -0.9561 -0.4617  3.1831
  234SOL    HW2  702   1.609   2.423   1.818 -0.7123  3.5439  2.0026
  235SOL     OW  703   0.050   3.014   2.849  1.2732  0.2754 -0.3147
  235SOL    HW1  704  -0.022   3.020   2.774  3.1845  0.9822 -1.9259
  235SOL    HW2  705   0.008   3.041   2.942 -0.0770  0.1524 -1.1713
  236SOL     OW  706   2.894   0.710   0.069  0.2070  0.3789 -0.1321
  236SOL    HW1  707   2.953   0.735   0.149 -1.9262 -1.0396 -0.7944
  236SOL    HW2  708   2.936   0.636   0.013 -0.6119  0.8061  0.3769
  237SOL     OW  709   1.540   1.702   0.890 -0.1627  0.2437  0.3484
  237SOL    HW1  710   1.601   1.616   0.908  0.5697 -0.5870  1.3376
  237SOL    HW2  711   1.510   1.753   0.973  0.8083 -0.3085 -0.6222
  238SOL     OW  712   1.905   1.182   0.759  0.1512  0.8680 -0.0427
  238SOL    HW1  713   1.950   1.224   0.838  1.4903 -0.6225 -0.5990
  238SOL    HW2  714   1.802   1.196   0.765  2.1041  1.1364  0.9622
  239SOL     OW  715   2.002   0.262   2.793  0.6958  0.6650  0.4187
  239SOL    HW1  716   2.014   0.226   2.887 -0.0497  2.9882  1.0493
  239SOL    HW2  717   1.939   0.350   2.793 -0.4881  0.3961  1.0359
  240SOL     OW  718   0.942   0.699   0.244  0.0275 -0.1771  0.3578
  240SOL    HW1  719   1.021   0.643   0.212  0.4412  2.2067 -1.2001
  240SOL    HW2  720   0.912   0.693   0.343  0.4428  0.8187 -0.4007
  241SOL     OW  721   0.591   0.101   0.330  0.0168  0.1362 -0.3016
  241SOL    HW1  722   0.623   0.192   0.296  2.4629 -0.7339  1.2239
  241SOL    HW2  723   0.604   0.024   0.260 -0.3092  1.2555  1.1906
  242SOL     OW  724   0.589   2.611   1.186 -0.0930 -0.1727  0.2989
  242SOL    HW1  725   0.570   2.606   1.289  0.2364  1.4223  2.8121
  242SOL    HW2  726   0.576   2.699   1.141  1.0670  1.3511 -2.2561
  243SOL     OW  727   1.079   0.634   2.416  0.2133 -0.1263 -0.0825
  243SOL    HW1  728   0.982   0.596   2.380 -3.2539 -0.7712 -0.1570
  243SOL    HW2  729   1.105   0.586   2.503 -0.5217  2.1999  0.5626
  244SOL     OW  730   2.710   1.957   2.376  0.5791 -0.6234 -0.0234
  244SOL    HW1  731   2.742   1.930   2.280 -1.0645  0.5145  1.6398
  244SOL    HW2  732   2.645   1.887   2.421 -0.1943  0.7566 -0.0053
  245SOL     OW  733   2.090   1.007   2.205 -0.0301 -0.1187 -0.4273
  245SOL    HW1  734   2.190   1.000   2.220 -1.6940  0.3288 -1.4363
  245SOL    HW2  735   2.049   1.088   2.255  0.2580 -0.2745 -0.9883
  246SOL     OW  736   0.285   2.855   1.809 -0.6335  0.6808  0.3491
  246SOL    HW1  737   0.240   2.843   1.716 -0.4234 -2.0942  2.6093
  246SOL    HW2  738   0.380   2.904   1.810  1.0594  1.3573 -0.0508
  247SOL     OW  739   2.244   0.573   3.042  0.0369  0.4923  0.7369
  247SOL    HW1  740   2.302   0.588   2.960  0.1780 -0.7868 -1.2883
  247SOL    HW2  741   2.158   0.632   3.046  1.2040  2.4137  0.1347
  248SOL     OW  742   2.186   1.837   1.625 -1.0267  0.4574  0.3645
  248SOL    HW1  743   2.269   1.794   1.674  1.4870 -0.8429  2.1827
  248SOL    HW2  744   2.097   1.798   1.653  0.7019  1.9868 -1.9783
  249SOL     OW  745   1.890   1.914   1.842 -0.1981 -0.4513  0.3015
  249SOL    HW1  746   1.879   1.849   1.763  0.3373  0.4628 -0.3467
  249SOL    HW2  747   1.989   1.920   1.874 -1.1790  0.0738 -1.1345
  250SOL     OW  748   0.965   0.687   1.874  0.8260 -0.5702 -0.1615
  250SOL    HW1  749   1.049   0.671   1.931  1.2228 -1.3555 -2.4706
  250SOL    HW2  750   0.969   0.654   1.781 -0.1032 -1.5094  0.0950
  251SOL     OW  751   3.045   1.518   2.613 -0.2017 -0.7487  0.3065
  251SOL    HW1  752   3.035   1.607   2.559 -0.9457 -1.3901 -2.2560
  251SOL    HW2  753   2.962   1.457   2.595 -2.5116  1.0374  0.4874
  252SOL     OW  754   1.545   0.831   1.604 -0.1661  0.1292  0.5577
  252SOL    HW1  755   1.605   0.880   1.535  0.2217 -0.1921 -0.9499
  252SOL    HW2  756   1.533   0.878   1.696 -0.9759 -0.4069  0.2970
  253SOL     OW  757   0.941   1.496   0.434 -0.3355 -0.0366  0.9665
  253SOL    HW1  758   0.943   1.450   0.342  1.5193 -2.8398 -1.2109
  253SOL    HW2  759   0.853   1.536   0.461 -1.2929  0.3126  1.3034
  254SOL     OW  760   2.032   2.177   1.654 -0.3751  0.0859  0.3124
  254SOL    HW1  761   1.972   2.119   1.593 -0.3635 -1.6895  3.0118
  254SOL    HW2  762   1.978   2.242   1.715 -2.1918  1.6832  0.4048
  255SOL     OW  763   0.093   1.190   2.911 -0.2958 -0.0314  0.2548
  255SOL    HW1  764   0.132   1.291   2.924 -2.2118  1.8356 -0.0579
  255SOL    HW2  765   0.142   1.116   2.960 -0.4979  0.3217 -1.4382
  256SOL     OW  766   2.777   1.412   1.753 -0.9367  0.0850 -0.4216
  256SOL    HW1  767   2.682   1.401   1.785 -1.6960 -0.0571 -0.2680
  256SOL    HW2  768   2.812   1.328   1.700 -1.8050  0.9269  2.0817
  257SOL     OW  769   0.832   0.247   1.869 -1.0363 -0.3453  0.2641
  257SOL    HW1  770   0.875   0.305   1.786  2.2793  0.7893 -2.0796
  257SOL    HW2  771   0.859   0.149   1.867 -0.2598  4.3141 -0.1742
  258SOL     OW  772   2.964   1.164   0.500  0.3001 -0.2146 -0.5356
  258SOL    HW1  773   2.866   1.207   0.500 -3.6728  0.6638  0.9987
  258SOL    HW2  774   3.011   1.186   0.592  1.0079  0.2265  0.9425
  259SOL     OW  775   0.492   2.949   2.996 -0.1263 -0.2087 -0.3229
  259SOL    HW1  776   0.414   2.905   3.039  1.3702 -1.2382  0.6542
  259SOL    HW2  777   0.505   2.912   2.899  0.6017  1.1690  0.8159
  260SOL     OW  778   2.748   0.750   2.786 -0.3360  0.0170  0.0137
  260SOL    HW1  779   2.650   0.763   2.754  0.4533  1.1564  0.2917
  260SOL    HW2  780   2.762   0.654   2.826 -1.5477  1.4877  0.9795
  261SOL     OW  781   2.659   1.256   1.308 -0.1680 -0.2955  0.1107
  261SOL    HW1  782   2.584   1.231   1.238  1.9140  0.3436 -0.4361
  261SOL    HW2  783   2.737   1.188   1.308 -1.4020 -2.2312 -1.3117
  262SOL     OW  784   1.392   2.980   2.069  0.2219 -0.0696  0.3441
  262SOL    HW1  785   1.430   3.039   1.996 -1.4375  0.1555  0.0107
  262SOL    HW2  786   1.291   2.957   2.055  0.0779 -0.0888 -0.5489
  263SOL     OW  787   0.814   0.622   2.309 -0.1163  0.0394  0.4548
  263SOL    HW1  788   0.729   0.564   2.288 -1.9858 -2.0930 -1.7560
  263SOL    HW2  789   0.811   0.710   2.258  0.6198 -1.7051 -0.3529
  264SOL     OW  790   2.276   0.797   0.413  0.3870 -0.1324 -0.2133
  264SOL    HW1  791   2.288   0.747   0.322 -1.8830 -0.7133  0.4492
  264SOL    HW2  792   2.363   0.846   0.440  0.8725 -0.6509  1.5163
  265SOL     OW  793   0.889   2.356   2.609 -0.3685 -0.3521  0.1762
  265SOL    HW1  794   0.928   2.411   2.692 -0.4620 -3.6287  0.5680
  265SOL    HW2  795   0.844   2.272   2.644  0.9866 -2.4953 -0.2569
  266SOL     OW  796   1.277   1.802   3.053  0.0214  0.1657 -0.2980
  266SOL    HW1  797   1.292   1.848   3.145  0.7975  2.4646  1.7390
  266SOL    HW2  798   1.369   1.784   3.008  0.6436 -0.3695 -0.8301
  267SOL     OW  799   1.082   3.087   2.327 -0.3042 -0.7321 -0.2071
  267SOL    HW1  800   1.001   3.075   2.270 -4.0930  0.7837  0.4070
  267SOL    HW2  801   1.154   3.127   2.269  0.3390 -0.5713  1.6636
  268SOL     OW  802   0.864   1.301   1.070 -0.0528  0.7043  0.4245
  268SOL    HW1  803   0.789   1.336   1.132 -1.3702  1.0957  1.3869
  268SOL    HW2  804   0.909   1.380   1.021 -0.5507 -0.5543  0.7731
  269SOL     OW  805   2.361   2.548   1.602 -0.8363  0.1132  0.4022
  269SOL    HW1  806   2.437   2.475   1.605 -0.1857 -1.3519 -0.3768
  269SOL    HW2  807   2.329   2.578   1.700  2.6364 -1.4483  3.9772
  270SOL     OW  808   0.141   2.997   1.989 -0.0297  0.3586 -0.2504
  270SOL    HW1  809   0.173   2.934   1.915 -0.7787  2.1776  1.0038
  270SOL    HW2  810   0.105   2.946   2.074 -3.4364  1.4851  0.9109
  271SOL     OW  811   0.454   1.389   1.101 -0.5243  0.3331 -0.4265
  271SOL    HW1  812   0.459   1.380   1.000 -0.4422  1.2290  1.5442
  271SOL    HW2  813   0.369   1.346   1.143 -1.0250  1.5178 -0.4539
  272SOL     OW  814   1.874   3.080   1.936 -0.0669  0.2174  0.0218
  272SOL    HW1  815   1.836   2.992   1.895  0.9605 -0.5884  1.5778
  272SOL    HW2  816   1.879   3.166   1.876 -0.5302 -0.3025 -0.8877
  273SOL     OW  817   1.459   1.469   2.857 -0.4646  0.1553  0.2417
  273SOL    HW1  818   1.357   1.464   2.866 -0.3311  1.5787  0.7255
  273SOL    HW2  819   1.508   1.455   2.948  1.1971  0.1571 -1.1144
  274SOL     OW  820   1.145   0.596   2.060  0.7682  0.7606 -0.0605
  274SOL    HW1  821   1.084   0.513   2.073  0.9412 -0.6696 -1.1133
  274SOL    HW2  822   1.222   0.608   2.135  2.6004  2.7074  1.9331
  275SOL     OW  823   0.664   2.095   1.939  0.0421  0.1445  0.3305
  275SOL    HW1  824   0.601   2.166   1.896 -1.1199 -1.4868 -2.1304
  275SOL    HW2  825   0.614   2.035   2.010  0.4805  1.2058  2.2790
  276SOL     OW  826   2.251   0.952   2.861  0.2169  0.3332 -0.1099
  276SOL    HW1  827   2.176   0.984   2.792 -1.4934  0.4961 -1.3137
  276SOL    HW2  828   2.240   0.852   2.888  0.8490 -0.5677 -1.7964
  277SOL     OW  829  -0.004   0.763   0.250  0.1550  0.7696 -0.3832
  277SOL    HW1  830   0.089   0.810   0.233  0.7951 -2.9633 -0.4914
  277SOL    HW2  831   0.006   0.679   0.311 -1.5218  1.0216  0.2066
  278SOL     OW  832   0.297   0.225   3.033  0.0203  0.5191  0.7837
  278SOL    HW1  833   0.388   0.197   2.987 -0.9143 -0.0785  2.0695
  278SOL    HW2  834   0.294   0.325   3.057  2.0302  0.1752 -0.4136
  279SOL     OW  835   0.267   3.062   0.894 -0.1747 -0.3804  0.0367
  279SOL    HW1  836   0.332   3.070   0.973  0.4704  0.6987 -1.3609
  279SOL    HW2  837   0.265   2.967   0.843  2.5266 -1.4106 -2.6150
  280SOL     OW  838   1.574   2.898   2.431 -0.2872 -0.1115  0.4059
  280SOL    HW1  839   1.649   2.946   2.489 -0.6229 -1.4504 -1.3907
  280SOL    HW2  840   1.503   2.964   2.399  2.4268  3.4347  1.2451
  281SOL     OW  841   0.567   0.928   2.348 -0.1882 -0.2468  0.4779
  281SOL    HW1  842   0.527   0.867   2.274 -0.5214 -0.5122 -3.0291
  281SOL    HW2  843   0.517   0.928   2.441 -0.6960 -1.7947  3.3768
  282SOL     OW  844   1.786   2.474   0.558 -0.1007  0.4097  0.1968
  282SOL    HW1  845   1.740   2.400   0.499  1.1933 -0.6534  3.0557
  282SOL    HW2  846   1.725   2.564   0.566  0.4399  2.0353  0.5894
  283SOL     OW  847   1.182   0.933   0.800  0.4555  0.4632  0.1939
  283SOL    HW1  848   1.194   0.876   0.889 -1.3911 -1.0483  1.4319
  283SOL    HW2  849   1.152   1.032   0.821 -0.7410  1.4047  0.8261
  284SOL     OW  850   2.238   2.815   2.454  0.1070 -0.1849 -0.3796
  284SOL    HW1  851   2.336   2.844   2.429 -0.1430  0.4903 -3.6684
  284SOL    HW2  852   2.213   2.823   2.558 -0.3101 -0.8536  1.6495
  285SOL     OW  853   1.305   3.045   2.618 -0.6156  0.5091 -0.1009
  285SOL    HW1  854   1.339   3.032   2.518  1.0449  0.1840 -0.7956
  285SOL    HW2  855   1.222   3.106   2.626  0.3117 -1.6484  0.6171
  286SOL     OW  856   0.280   0.384   0.651 -0.5923 -0.5096 -0.7474
  286SOL    HW1  857   0.321   0.323   0.723 -1.2514 -0.6426  2.8922
  286SOL    HW2  858   0.305   0.360   0.557 -3.0899  1.5036  1.7228
  287SOL     OW  859   0.076   1.275   2.549  0.0913  0.4042 -0.1465
  287SOL    HW1  860   0.023   1.209   2.610 -2.5349  0.6175  0.3180
  287SOL    HW2  861   0.037   1.371   2.563 -2.4433 -3.0506  0.5059
  288SOL     OW  862   1.522   2.701   1.667 -0.2927 -0.0659 -0.1382
  288SOL    HW1  863   1.558   2.617   1.719 -1.3341 -1.0608 -1.3313
  288SOL    HW2  864   1.586   2.723   1.587  0.4679 -1.3945 -3.0995
  289SOL     OW  865   0.645   2.787   0.799 -0.1526 -0.1545  0.1962
  289SOL    HW1  866   0.715   2.832   0.734  2.8140  0.0662  2.7522
  289SOL    HW2  867   0.617   2.865   0.866  1.9226  1.2929  0.7387
  290SOL     OW  868   2.843   1.145   1.695  0.7046 -0.2598 -0.4611
  290SOL    HW1  869   2.771   1.067   1.692 -1.5865 -2.0131  0.1072
  290SOL    HW2  870   2.920   1.130   1.761 -3.8107 -0.3244  3.3945
  291SOL     OW  871   1.925   3.095   0.081  0.4157  0.7543  0.7847
  291SOL    HW1  872   1.957   3.129   0.172 -0.7620  0.1604  1.0882
  291SOL    HW2  873   1.989   3.130   0.008 -0.7572 -1.5416 -1.3426
  292SOL     OW  874   2.978   1.232   3.092 -0.3454  1.0111  0.3162
  292SOL    HW1  875   2.926   1.315   3.070  0.9969 -1.4027  2.4501
  292SOL    HW2  876   3.055   1.214   3.028  1.3404  0.3225  1.6218
  293SOL     OW  877   0.572   2.079   0.296 -0.3725  0.0663 -0.2412
  293SOL    HW1  878   0.533   2.151   0.360 -2.9983  1.6266  1.4538
  293SOL    HW2  879   0.675   2.065   0.301  1.0915  0.3549  0.0378
  294SOL     OW  880   1.881   2.346   1.810  0.3278 -0.5129  0.5975
  294SOL    HW1  881   1.906   2.340   1.914  1.6131  1.9663 -0.6357
  294SOL    HW2  882   1.813   2.422   1.793  0.7287 -0.1543  1.4105
  295SOL     OW  883   0.940   1.056   0.457  0.1156 -0.0364 -0.3260
  295SOL    HW1  884   1.040   1.056   0.446  0.9817 -2.3450 -3.0687
  295SOL    HW2  885   0.916   1.011   0.548 -0.7240 -1.1360  0.1608
  296SOL     OW  886   1.122   2.160   2.749  0.6042 -0.4689  0.0596
  296SOL    HW1  887   1.025   2.182   2.780 -0.8663  1.0355  0.6514
  296SOL    HW2  888   1.136   2.141   2.646  0.4953  1.5466  0.2248
  297SOL     OW  889   1.267   0.570   1.166 -0.1641  0.9138  0.0798
  297SOL    HW1  890   1.297   0.541   1.265  2.4349 -1.4707  1.1630
  297SOL    HW2  891   1.352   0.602   1.112  0.3073  1.3536  0.1280
  298SOL     OW  892   0.470   1.296   2.924 -0.1716 -0.1841 -0.0324
  298SOL    HW1  893   0.442   1.211   2.980 -0.0726  0.2846  0.2411
  298SOL    HW2  894   0.520   1.265   2.838  1.8195 -1.5770 -0.9597
  299SOL     OW  895   0.417   0.204   1.273 -0.2701  0.3205  0.5111
  299SOL    HW1  896   0.352   0.271   1.222 -4.9396 -1.2751 -2.6527
  299SOL    HW2  897   0.416   0.219   1.376 -2.1286 -0.5844  0.9297
  300SOL     OW  898   1.364   1.816   2.577 -0.3836  0.2152 -0.0575
  300SOL    HW1  899   1.348   1.753   2.492  0.8347  0.0622 -3.5977
  300SOL    HW2  900   1.432   1.769   2.639  0.8640 -1.5465 -0.0309
  301SOL     OW  901   0.352   0.297   0.380 -0.9494 -0.1495 -0.1477
  301SOL    HW1  902   0.255   0.281   0.344  0.4024 -0.5968  1.8728
  301SOL    HW2  903   0.416   0.220   0.348 -1.9643 -1.4457  1.3794
  302SOL     OW  904   1.244   2.397   2.301  0.1116 -0.2759 -0.2276
  302SOL    HW1  905   1.144   2.390   2.326  2.3497  1.7788  0.6593
  302SOL    HW2  906   1.302   2.323   2.347 -0.3748 -1.4434 -1.0923
  303SOL     OW  907   0.908   2.438   0.797 -0.4756  0.2593 -0.1309
  303SOL    HW1  908   0.931   2.468   0.698  0.7076  1.2632  0.3243
  303SOL    HW2  909   0.951   2.491   0.874 -0.1193 -2.5920  1.3492
  304SOL     OW  910   0.147   1.902   0.703 -0.6317  0.2152  0.8137
  304SOL    HW1  911   0.225   1.909   0.635  0.8409  0.3657 -1.5989
  304SOL    HW2  912   0.052   1.925   0.664  0.9297 -0.4097  1.1490
  305SOL     OW  913   1.665   0.822   0.697  0.0409 -1.0804  0.1112
  305SOL    HW1  914   1.613   0.858   0.616 -0.7177 -0.2278 -0.8551
  305SOL    HW2  915   1.689   0.721   0.674 -1.5589 -1.1661 -1.0767
  306SOL     OW  916   0.387   1.846   1.968  0.5190  0.5930  0.4032
  306SOL    HW1  917   0.482   1.821   1.931  0.6259  1.6507  2.1732
  306SOL    HW2  918   0.391   1.877   2.067  0.0997  1.5258 -0.7121
  307SOL     OW  919   3.019   0.883   2.551  0.7634  0.4467  0.5720
  307SOL    HW1  920   3.036   0.976   2.599  0.4056  0.5817 -0.4147
  307SOL    HW2  921   3.023   0.802   2.615  0.4303  0.7040 -0.6372
  308SOL     OW  922   1.449   2.701   2.818  0.1876 -0.1527 -0.3165
  308SOL    HW1  923   1.422   2.700   2.721  0.9051  0.6009  0.2413
  308SOL    HW2  924   1.443   2.607   2.862  0.9226  0.5236 -1.5086
  309SOL     OW  925   1.208   0.173   1.812 -0.3682  0.0427  0.0586
  309SOL    HW1  926   1.297   0.129   1.779  0.2193 -0.2631 -0.6812
  309SOL    HW2  927   1.138   0.188   1.736 -1.6942 -0.4293  0.2330
  310SOL     OW  928   1.495   2.488   0.663 -0.2386  0.5211 -0.1408
  310SOL    HW1  929   1.436   2.523   0.743  0.0915  1.0803 -0.3840
  310SOL    HW2  930   1.566   2.552   0.634  0.3127 -1.1251 -1.4830
  311SOL     OW  931   1.095   0.961   1.782  0.5229  0.1416  0.2782
  311SOL    HW1  932   1.043   0.879   1.817  1.2203 -0.4286 -1.6246
  311SOL    HW2  933   1.152   0.949   1.692  2.5899  0.0305  0.2026
  312SOL     OW  934   1.507   0.632   1.025 -0.5035  0.3760 -0.0060
  312SOL    HW1  935   1.566   0.717   1.025  2.6338  0.3437 -1.3419
  312SOL    HW2  936   1.440   0.632   0.944  1.1191 -0.5698 -2.5753
  313SOL     OW  937   1.643   1.271   0.755  0.4913  0.0440 -0.9549
  313SOL    HW1  938   1.580   1.301   0.831  1.5939 -0.1377 -2.2088
  313SOL    HW2  939   1.600   1.237   0.667  1.0759 -2.6949  0.3623
  314SOL     OW  940   2.999   3.069   3.058 -0.3225  0.1863 -0.1034
  314SOL    HW1  941   3.005   3.059   3.162  0.8610  0.3237  0.5369
  314SOL    HW2  942   2.923   3.012   3.018  0.3137  2.5160  2.5688
  315SOL     OW  943   1.195   0.201   2.802  0.0770 -0.3549 -0.1588
  315SOL    HW1  944   1.118   0.199   2.732  2.5578  1.0278 -2.4301
  315SOL    HW2  945   1.185   0.135   2.883 -2.6973 -1.2131  2.0800
  316SOL     OW  946   1.790   2.085   0.874 -0.2199 -0.1766 -0.1481
  316SOL    HW1  947   1.728   2.096   0.958  2.3282 -2.0414 -2.0354
  316SOL    HW2  948   1.790   2.181   0.823 -1.3701  0.9081 -1.9887
  317SOL     OW  949   1.169   0.721   2.716  0.0715  0.4478 -0.2854
  317SOL    HW1  950   1.122   0.733   2.808 -2.6011  0.3021 -1.0057
  317SOL    HW2  951   1.135   0.641   2.658  2.6262 -0.2213 -0.1788
  318SOL     OW  952   1.372   3.061   2.331  0.0113 -0.3273 -0.5325
  318SOL    HW1  953   1.393   3.160   2.316 -3.6190  0.5758 -0.0180
  318SOL    HW2  954   1.375   3.019   2.236  0.8362  0.5524 -0.4845
  319SOL     OW  955   0.630   2.390   3.021 -0.3523 -0.1242  0.0845
  319SOL    HW1  956   0.575   2.305   3.047  1.1973  0.4722 -1.8732
  319SOL    HW2  957   0.722   2.366   2.976 -0.7673  0.5888 -1.5606
  320SOL     OW  958   1.685   2.264   0.414 -0.1728  0.1044 -0.5083
  320SOL    HW1  959   1.776   2.215   0.430 -1.1052  0.9260 -1.6111
  320SOL    HW2  960   1.604   2.205   0.448  1.1089  1.6009 -0.0422
  321SOL     OW  961   1.637   2.699   0.525 -0.6102 -0.0289 -0.2502
  321SOL    HW1  962   1.556   2.735   0.474 -0.4541 -1.6363 -0.7023
  321SOL    HW2  963   1.728   2.748   0.499  2.4574 -2.3930 -0.5646
  322SOL     OW  964   2.548   1.093   2.316  0.0529 -0.8081  0.2925
  322SOL    HW1  965   2.624   1.079   2.383  0.9673 -1.8613 -2.7790
  322SOL    HW2  966   2.492   1.002   2.303 -3.7002 -0.5016 -1.5350
  323SOL     OW  967   1.147   2.695   0.765 -0.2222 -0.0885 -0.4651
  323SOL    HW1  968   1.112   2.646   0.686 -2.8772  0.7524  1.3136
  323SOL    HW2  969   1.128   2.797   0.752 -0.3175  0.5930  2.0853
  324SOL     OW  970   0.064   2.566   2.436 -0.2970 -0.0840 -0.0392
  324SOL    HW1  971   0.055   2.502   2.517 -2.0471 -1.1855 -1.7605
  324SOL    HW2  972   0.057   2.666   2.462  1.8999  0.4949  2.9619
  325SOL     OW  973   1.315   3.041   0.461 -0.1792  0.0675  0.2488
  325SOL    HW1  974   1.315   3.109   0.382 -0.0543 -0.5570 -0.2802
  325SOL    HW2  975   1.331   3.098   0.544  1.7210 -0.8725 -1.3470
  326SOL     OW  976   2.446   0.893   0.025 -0.4274  0.5232  0.4438
  326SOL    HW1  977   2.357   0.846   0.010  1.3510  2.1494 -3.0117
  326SOL    HW2  978   2.526   0.830   0.059  0.4907  0.8054  2.1508
  327SOL     OW  979   2.848   0.253   0.532 -0.5420 -0.9248  0.3723
  327SOL    HW1  980   2.835   0.181   0.459  2.2672  0.1611  1.2027
  327SOL    HW2  981   2.866   0.212   0.628 -0.0479 -0.2823  0.6409
  328SOL     OW  982   2.628   0.591   0.368  0.4193  0.3017  0.2175
  328SOL    HW1  983   2.688   0.634   0.442  0.3532  1.9574 -1.6371
  328SOL    HW2  984   2.580   0.504   0.397  1.1693  0.1794  0.6823
  329SOL     OW  985   2.924   3.047   2.242  0.4992 -0.1150 -0.1839
  329SOL    HW1  986   3.000   2.984   2.268  0.0315  0.7724  0.3106
  329SOL    HW2  987   2.962   3.138   2.202  1.4643  0.8920  2.1506
  330SOL     OW  988   0.539   0.281   1.908  0.3232  0.5652  0.3354
  330SOL    HW1  989   0.631   0.300   1.857  1.2389  0.2230  2.1122
  330SOL    HW2  990   0.551   0.225   1.997 -0.4514 -1.8463  0.1868
  331SOL     OW  991   0.025   1.915   1.111  0.7271  0.3760 -0.0956
  331SOL    HW1  992  -0.008   1.998   1.055 -0.1385  2.5767  2.5778
  331SOL    HW2  993  -0.057   1.889   1.173  0.0568 -0.5946 -1.3669
  332SOL     OW  994   0.376   1.177   0.098  0.5914 -0.0897  0.2220
  332SOL    HW1  995   0.313   1.113   0.047  0.7329 -2.0360 -1.8434
  332SOL    HW2  996   0.337   1.205   0.189  1.5771 -1.7895 -0.7607
  333SOL     OW  997   2.914   0.928   0.376 -0.1400  0.2633  0.5917
  333SOL    HW1  998   2.942   1.019   0.427 -0.6546  1.7115  0.6954
  333SOL    HW2  999   2.989   0.890   0.313  1.5528 -3.0377 -2.6624
  334SOL     OW 1000   1.728   1.139   1.701 -0.1478  0.5323  0.1123
  334SOL    HW1 1001   1.784   1.147   1.613  1.1074  1.4473 -0.7090
  334SOL    HW2 1002   1.778   1.165   1.787 -1.1685  0.3611  2.7773
  335SOL     OW 1003   1.931   2.791   2.573 -0.0365 -0.7003 -0.4677
  335SOL    HW1 1004   1.846   2.804   2.624 -0.0757  1.2483 -0.8999
  335SOL    HW2 1005   2.017   2.810   2.630 -1.2053 -1.2771  1.2924
  336SOL     OW 1006   0.248   0.074   2.766 -0.1173 -0.0790 -0.3841
  336SOL    HW1 1007   0.328   0.079   2.832  0.7971  1.1941 -0.1004
  336SOL    HW2 1008   0.164   0.018   2.801 -2.0426 -0.9899  3.7091
  337SOL     OW 1009   0.835   2.853   3.031 -0.8270 -0.3248  0.4717
  337SOL    HW1 1010   0.857   2.778   3.098 -1.4183 -1.2325 -3.8940
  337SOL    HW2 1011   0.894   2.942   3.058 -2.3642  2.6001  0.0573
  338SOL     OW 1012   0.014   0.971   0.706 -0.2274  0.0988 -0.1010
  338SOL    HW1 1013  -0.086   0.962   0.719  0.9786  2.5677  0.6929
  338SOL    HW2 1014   0.044   1.070   0.703 -0.3258  0.4580 -0.0102
  339SOL     OW 1015   1.770   1.325   2.164  0.0644  0.3528 -0.2363
  339SOL    HW1 1016   1.675   1.336   2.119  1.0773 -0.1871 -0.9994
  339SOL    HW2 1017   1.806   1.414   2.212  1.3027 -0.6501  0.6281
  340SOL     OW 1018   2.266   0.801   1.090  0.4147 -0.2383  0.6190
  340SOL    HW1 1019   2.195   0.866   1.120 -1.1186  0.1926  1.8330
  340SOL    HW2 1020   2.230   0.713   1.046  1.0384 -0.4333  0.7707
  341SOL     OW 1021   1.896   2.058   0.350 -0.1472 -0.7503  0.1163
  341SOL    HW1 1022   1.922   2.092   0.254  0.3081  2.0555  2.0485
  341SOL    HW2 1023   1.980   2.020   0.402 -0.3352  0.0236 -0.6507
  342SOL     OW 1024   2.183   2.158   2.770 -0.6485  0.0916  0.3236
  342SOL    HW1 1025   2.197   2.066   2.813  0.5880  3.5111 -0.7517
  342SOL    HW2 1026   2.093   2.157   2.718  0.2995 -1.9505  0.0182
  343SOL     OW 1027   0.371   0.859   2.838 -0.4166  0.0403  0.5529
  343SOL    HW1 1028   0.368   0.903   2.744  1.0768 -0.9227  0.6176
  343SOL    HW2 1029   0.458   0.814   2.858 -2.2958 -1.3134 -1.9944
  344SOL     OW 1030   1.958   1.443   0.362  0.0658 -0.0937 -0.2772
  344SOL    HW1 1031   1.961   1.373   0.283  1.0311 -3.6179 -0.3544
  344SOL    HW2 1032   1.863   1.459   0.400  1.0624 -3.7528  1.5694
  345SOL     OW 1033   1.383   2.195   2.849  0.4846  0.4353 -0.0256
  345SOL    HW1 1034   1.282   2.164   2.820 -1.7203 -0.3890 -2.4821
  345SOL    HW2 1035   1.450   2.144   2.788  0.9139 -3.5674  1.1044
  346SOL     OW 1036   2.308   0.831   1.364  0.0269 -0.6465 -0.7559
  346SOL    HW1 1037   2.222   0.865   1.411  0.3173 -2.7462 -0.8784
  346SOL    HW2 1038   2.293   0.792   1.267  1.2973 -1.7767  1.3884
  347SOL     OW 1039   0.724   2.801   1.697 -0.6038  0.0096  0.3028
  347SOL    HW1 1040   0.806   2.856   1.662  0.4575  0.1628  0.8356
  347SOL    HW2 1041   0.640   2.802   1.631 -2.2786  0.4149  1.3377
  348SOL     OW 1042   0.214   0.641   2.847 -0.1445 -0.5313 -0.2730
  348SOL    HW1 1043   0.125   0.642   2.791 -1.1454 -0.3603  1.2430
  348SOL    HW2 1044   0.254   0.738   2.852  1.4797  0.4439 -1.7285
  349SOL     OW 1045   1.776   0.424   2.823 -0.4723  0.3320  0.4941
  349SOL    HW1 1046   1.764   0.507   2.763 -0.2508 -0.2671 -1.6569
  349SOL    HW2 1047   1.756   0.438   2.922 -0.3047  0.6833 -0.9698
  350SOL     OW 1048   1.691   0.380   0.394  0.5161 -0.2848  0.0411
  350SOL    HW1 1049   1.788   0.389   0.436  0.6269 -0.1109  1.0214
  350SOL    HW2 1050   1.694   0.454   0.315 -0.0021  1.9290  0.6944
  351SOL     OW 1051   0.845   0.813   2.095 -0.3284 -0.2533 -0.1084
  351SOL    HW1 1052   0.882   0.908   2.098  0.0132 -0.0210 -2.8425
  351SOL    HW2 1053   0.902   0.755   2.024  1.0144 -1.7583 -1.1393
  352SOL     OW 1054   2.063   1.358   0.598  0.0287  0.0930 -0.0088
  352SOL    HW1 1055   2.035   1.403   0.506 -2.0981 -0.3536  0.9901
  352SOL    HW2 1056   1.982   1.306   0.637 -2.8729  3.3074  0.9814
  353SOL     OW 1057   2.187   2.711   1.126 -0.0402 -0.4052  0.3892
  353SOL    HW1 1058   2.233   2.631   1.169 -0.5198  0.1988  2.5555
  353SOL    HW2 1059   2.107   2.738   1.184 -2.0758  0.2286 -0.6900
  354SOL     OW 1060   0.230   1.441   2.903  0.6931 -0.3360  0.0211
  354SOL    HW1 1061   0.233   1.491   2.813 -1.0253 -0.2242 -0.2098
  354SOL    HW2 1062   0.319   1.387   2.911  0.6919  0.7442 -0.9603
  355SOL     OW 1063   0.733   1.612   0.589  0.0299  0.6787 -0.6818
  355SOL    HW1 1064   0.732   1.565   0.685  1.9134  0.1410  1.0285
  355SOL    HW2 1065   0.673   1.556   0.522 -0.6003 -1.2969 -0.5429
  356SOL     OW 1066   0.982   0.333   2.106  0.3574  0.2085 -0.1817
  356SOL    HW1 1067   1.066   0.270   2.126  0.5370 -2.0607 -2.0083
  356SOL    HW2 1068   0.929   0.307   2.019 -1.9569 -1.1685 -0.6042
  357SOL     OW 1069   0.987   1.418   0.160  0.4093  0.5635 -0.4715
  357SOL    HW1 1070   1.015   1.350   0.085 -1.9265 -0.5197 -0.8069
  357SOL    HW2 1071   1.064   1.484   0.186  0.1330  1.4599  0.5944
  358SOL     OW 1072   1.679   1.464   0.472 -0.2167 -0.1599 -0.7339
  358SOL    HW1 1073   1.614   1.467   0.553 -0.7989  0.0259 -0.4512
  358SOL    HW2 1074   1.632   1.428   0.385  0.7174  1.0463  0.8467
  359SOL     OW 1075   1.600   2.566   0.211 -0.3941 -0.3399 -0.1508
  359SOL    HW1 1076   1.612   2.468   0.184  0.3548 -0.0372  0.2299
  359SOL    HW2 1077   1.506   2.603   0.188  0.6880  0.0083 -0.4188
  360SOL     OW 1078   0.719   0.504   0.597 -0.1699  0.5497 -0.3699
  360SOL    HW1 1079   0.637   0.521   0.535 -1.2727 -3.4661  1.2474
  360SOL    HW2 1080   0.756   0.404   0.587 -2.7225  0.2720 -2.1224
  361SOL     OW 1081   1.356   1.319   0.618  0.5575 -0.2299 -0.0169
  361SOL    HW1 1082   1.388   1.360   0.705  1.8897 -0.7592 -0.9789
  361SOL    HW2 1083   1.264   1.361   0.592  0.8079 -1.4982 -0.4343
  362SOL     OW 1084   1.370   1.818   0.691  0.0794 -0.4474  0.2973
  362SOL    HW1 1085   1.409   1.753   0.763  2.6261  1.1898  0.9054
  362SOL    HW2 1086   1.449   1.876   0.655  0.9857  0.2852  1.5646
  363SOL     OW 1087   1.277   1.343   1.959 -0.4516 -0.6323 -0.8374
  363SOL    HW1 1088   1.375   1.373   1.975  0.6068  1.1061 -1.6986
  363SOL    HW2 1089   1.211   1.387   2.026 -0.0145  0.2231  0.0676
  364SOL     OW 1090   0.555   2.379   1.956  0.1205  0.0513 -0.0826
  364SOL    HW1 1091   0.456   2.349   1.959 -0.2665  0.5080  0.9312
  364SOL    HW2 1092   0.560   2.476   1.920  1.6168  1.5501  0.3573
  365SOL     OW 1093   0.930   1.966   1.445  0.3216 -0.4935 -0.2391
  365SOL    HW1 1094   0.837   1.990   1.490  1.1493 -0.6273  1.4268
  365SOL    HW2 1095   0.942   1.991   1.345  0.9922 -0.3816  1.7308
  366SOL     OW 1096   2.746   1.915   0.250 -0.3041 -0.9063 -0.1703
  366SOL    HW1 1097   2.661   1.862   0.211  0.9086 -1.8264  0.5356
  366SOL    HW2 1098   2.825   1.846   0.274  0.5786 -1.6101  2.5060
  367SOL     OW 1099   0.954   1.103   3.032  0.5086 -0.1917 -0.2386
  367SOL    HW1 1100   0.919   1.070   3.127 -0.6099 -2.4079 -1.3725
  367SOL    HW2 1101   1.019   1.183   3.035  1.7374  1.3447  0.5020
  368SOL     OW 1102   1.446   0.537   0.499 -0.0341 -0.5134 -0.2221
  368SOL    HW1 1103   1.351   0.572   0.471 -4.1384 -1.7973  0.5567
  368SOL    HW2 1104   1.524   0.558   0.428  1.4425 -0.6306 -0.4800
  369SOL     OW 1105   0.383   1.638   0.138 -0.4283  1.0726  0.1754
  369SOL    HW1 1106   0.458   1.680   0.204  0.1901 -0.3123  2.5518
  369SOL    HW2 1107   0.305   1.596   0.186  0.8077  0.8819 -0.1596
  370SOL     OW 1108   0.429   2.167   1.051 -0.4717 -0.8789 -0.9306
  370SOL    HW1 1109   0.443   2.267   1.039  1.3291 -1.2641  0.8699
  370SOL    HW2 1110   0.334   2.133   1.022 -2.0780  0.2703 -1.5837
  371SOL     OW 1111   2.906   2.173   2.717  0.1843 -0.7245 -0.5631
  371SOL    HW1 1112   2.979   2.100   2.696  0.6970  1.4053  1.3583
  371SOL    HW2 1113   2.934   2.241   2.795 -1.0078  0.6809 -2.7647
  372SOL     OW 1114   0.980   2.050   1.161 -0.6753 -0.0424  0.1702
  372SOL    HW1 1115   0.910   2.105   1.108  1.3195 -2.0993 -0.6278
  372SOL    HW2 1116   1.053   2.111   1.206 -0.2708  1.6740  0.0284
  373SOL     OW 1117   1.941   1.908   1.048 -0.0535 -0.2712  0.0286
  373SOL    HW1 1118   2.035   1.946   1.064 -0.6620  1.2575 -2.5746
  373SOL    HW2 1119   1.894   1.970   0.978 -0.4693  1.8749 -0.6224
  374SOL     OW 1120   1.916   0.387   0.549  0.3770 -0.6051 -0.2851
  374SOL    HW1 1121   1.906   0.321   0.626 -2.8857 -0.3051  1.1881
  374SOL    HW2 1122   2.015   0.402   0.514 -0.5367  0.9707  0.0166
  375SOL     OW 1123   2.431   2.191   1.140  0.4066  0.0828 -0.3061
  375SOL    HW1 1124   2.454   2.183   1.043  0.9528 -0.2353  2.5024
  375SOL    HW2 1125   2.498   2.147   1.204 -0.3466 -0.5348  0.6756
  376SOL     OW 1126   3.082   0.627   1.440 -0.2993  0.0522 -0.3007
  376SOL    HW1 1127   3.104   0.698   1.508 -1.9419 -3.2016  1.4186
  376SOL    HW2 1128   3.004   0.568   1.471 -1.6140  2.9269  1.6971
  377SOL     OW 1129   2.238   2.929   0.187  0.5245 -0.0182 -0.2678
  377SOL    HW1 1130   2.147   2.942   0.229  2.0440 -0.2209 -1.5108
  377SOL    HW2 1131   2.292   2.851   0.230  1.9069 -0.0830 -2.2759
  378SOL     OW 1132   1.896   1.908   2.516  0.0924  0.4118  0.1013
  378SOL    HW1 1133   1.995   1.872   2.506  1.1088  0.4526  0.4254
  378SOL    HW2 1134   1.829   1.826   2.523  0.7686 -1.5115  2.7407
  379SOL     OW 1135   0.756   0.148   2.827  0.4138 -0.0070  0.3041
  379SOL    HW1 1136   0.738   0.066   2.772  0.5072  1.6120 -0.1131
  379SOL    HW2 1137   0.767   0.223   2.753 -0.3254 -0.0977 -0.7537
  380SOL     OW 1138   1.539   1.123   0.535 -0.0016  0.1512  0.5937
  380SOL    HW1 1139   1.463   1.192   0.531  2.2237 -0.5039 -0.4560
  380SOL    HW2 1140   1.512   1.023   0.518 -0.7756 -2.9988  1.1320
  381SOL     OW 1141   1.258   1.310   1.493  0.2080  0.2684 -0.6460
  381SOL    HW1 1142   1.302   1.222   1.463  0.8219 -1.2315  0.8415
  381SOL    HW2 1143   1.313   1.360   1.564 -0.4280 -3.1617 -1.5359
  382SOL     OW 1144   1.820   0.837   0.253 -0.5264  0.0608  0.5638
  382SOL    HW1 1145   1.841   0.791   0.162 -0.6570  1.2945 -0.8631
  382SOL    HW2 1146   1.888   0.826   0.329  0.4978 -2.3828 -1.8616
  383SOL     OW 1147   2.514   0.989   1.465  0.4984  0.7405  0.1243
  383SOL    HW1 1148   2.448   0.918   1.432  0.1606 -1.7888 -1.1912
  383SOL    HW2 1149   2.603   0.981   1.415 -1.1528  2.6138 -0.0113
  384SOL     OW 1150   0.941   2.307   0.235  0.0500  0.3074 -0.4003
  384SOL    HW1 1151   0.852   2.364   0.251  0.7497  3.6764 -0.3197
  384SOL    HW2 1152   0.979   2.257   0.320 -0.9117  0.5270 -1.6608
  385SOL     OW 1153   2.943   2.033   1.676 -0.3603  0.1079 -0.6819
  385SOL    HW1 1154   3.015   2.106   1.691 -0.5371 -0.7356 -1.9161
  385SOL    HW2 1155   2.977   1.936   1.692  1.5817 -1.2107  2.9101
  386SOL     OW 1156   0.473   1.069   0.463  0.1981  0.4259  0.3005
  386SOL    HW1 1157   0.453   0.972   0.502 -1.7747 -5.1837 -0.7916
  386SOL    HW2 1158   0.392   1.129   0.427  1.0166  0.4019 -0.9495
  387SOL     OW 1159   0.971   0.332   1.648 -0.6273 -0.7815 -0.4044
  387SOL    HW1 1160   1.018   0.426   1.637  1.6619 -0.1981 -1.0832
  387SOL    HW2 1161   0.976   0.279   1.558  2.0201 -0.8920  0.4463
  388SOL     OW 1162   1.197   2.710   1.748 -0.1666 -0.0383  0.0197
  388SOL    HW1 1163   1.221   2.727   1.646 -3.7150  3.1127  0.8262
  388SOL    HW2 1164   1.263   2.641   1.794  2.3592 -0.0383 -1.1703
  389SOL     OW 1165   0.137   2.903   1.326  0.6111  0.1732 -0.4453
  389SOL    HW1 1166   0.036   2.918   1.296  0.7999  0.8128  0.2502
  389SOL    HW2 1167   0.177   2.806   1.302  0.2953  0.2124 -1.6947
  390SOL     OW 1168   1.020   0.971   1.380 -0.0910  0.1612 -0.1676
  390SOL    HW1 1169   1.110   0.965   1.435 -0.2835  1.0807 -0.7213
  390SOL    HW2 1170   0.981   1.071   1.373  1.8675 -0.7285 -2.2546
  391SOL     OW 1171   2.177   1.113   1.129 -0.7362  0.3641 -0.3540
  391SOL    HW1 1172   2.118   1.037   1.174  0.2620 -0.7674 -0.6985
  391SOL    HW2 1173   2.235   1.080   1.044  2.9903 -1.1572  0.7197
  392SOL     OW 1174   0.879   2.630   0.076  0.0970 -0.2181 -0.0128
  392SOL    HW1 1175   0.977   2.592   0.065 -0.9435  0.1378 -1.5418
  392SOL    HW2 1176   0.819   2.569   0.131 -1.6565 -1.1665 -1.2891
  393SOL     OW 1177   0.285   0.671   1.980  0.3221 -0.3208 -0.6660
  393SOL    HW1 1178   0.252   0.575   1.961  0.1673 -1.8468 -0.5666
  393SOL    HW2 1179   0.322   0.716   1.891  0.7966  0.8518  0.3092
  394SOL     OW 1180   3.064   1.952   2.685  0.5924 -0.3160  0.5009
  394SOL    HW1 1181   3.122   1.906   2.757 -0.0966  2.2317 -1.1932
  394SOL    HW2 1182   3.032   1.887   2.607 -0.0930 -1.1420 -1.0674
  395SOL     OW 1183   1.616   1.968   0.634  0.0926  0.5325  0.2489
  395SOL    HW1 1184   1.658   1.889   0.579  1.2869  0.8879 -0.0183
  395SOL    HW2 1185   1.668   1.996   0.718  0.3823 -2.7266  1.7661
  396SOL     OW 1186   2.913   1.877   1.271 -0.1246  0.1819  0.4468
  396SOL    HW1 1187   2.915   1.772   1.256 -0.0464 -2.1168 -0.4505
  396SOL    HW2 1188   2.832   1.909   1.324  1.8204  1.8507 -0.4419
  397SOL     OW 1189   1.040   2.210   0.501 -0.1500 -0.2901  0.5979
  397SOL    HW1 1190   0.950   2.171   0.533  0.7059 -0.0988 -0.6225
  397SOL    HW2 1191   1.056   2.308   0.538  2.7647  1.5790 -1.2925
  398SOL     OW 1192   2.150   3.070   1.128 -0.1453  0.4171  0.0495
  398SOL    HW1 1193   2.061   3.022   1.147  1.2426  0.6738 -2.1378
  398SOL    HW2 1194   2.134   3.169   1.094  2.0147  2.0986  0.8548
  399SOL     OW 1195   3.049   2.453   2.653  0.3399 -0.4360  0.2809
  399SOL    HW1 1196   2.988   2.382   2.617 -0.7207 -1.6472  1.3466
  399SOL    HW2 1197   3.111   2.413   2.728 -1.1397  2.9343  1.1276
  400SOL     OW 1198   0.678   1.672   1.368 -0.1845  0.1487 -0.2831
  400SOL    HW1 1199   0.643   1.697   1.463  2.0388  1.5302  0.0020
  400SOL    HW2 1200   0.638   1.730   1.291 -0.0571  2.8517  2.8486
  401SOL     OW 1201   1.843   0.272   1.144  0.5990  0.1588 -0.5028
  401SOL    HW1 1202   1.833   0.287   1.247 -0.5344 -1.4508 -0.2227
  401SOL    HW2 1203   1.759   0.312   1.101 -1.7458 -2.1503  1.3007
  402SOL     OW 1204   1.341   0.265   3.083  0.3574  0.0015  0.4407
  402SOL    HW1 1205   1.412   0.215   3.026 -0.3245  1.8447 -1.7107
  402SOL    HW2 1206   1.283   0.330   3.025  0.7376  0.3751 -0.6886
  403SOL     OW 1207   2.220   1.851   0.844  0.2096  1.0746  0.1116
  403SOL    HW1 1208   2.313   1.855   0.812 -0.3280 -0.6117 -1.2631
  403SOL    HW2 1209   2.202   1.877   0.942 -0.1120 -2.0947 -0.1083
  404SOL     OW 1210   0.243   2.478   2.755  0.0415  0.1268  0.3481
  404SOL    HW1 1211   0.330   2.447   2.708  1.5321  0.9542 -0.7325
  404SOL    HW2 1212   0.242   2.579   2.772  0.4527  0.0542 -3.1806
  405SOL     OW 1213   0.107   2.379   0.748  0.7156 -0.1157 -0.0020
  405SOL    HW1 1214   0.066   2.320   0.674  1.8434 -0.8325 -3.1074
  405SOL    HW2 1215   0.185   2.443   0.725  2.9644  1.5375 -0.3847
  406SOL     OW 1216   0.051   1.538  -0.000 -0.5290  0.1882  0.1152
  406SOL    HW1 1217   0.131   1.528  -0.069  0.6724 -2.0189 -0.3433
  406SOL    HW2 1218   0.065   1.505   0.098 -2.1026 -0.0001  0.1878
  407SOL     OW 1219   1.594   0.890   0.974 -0.3668 -0.0514  0.0967
  407SOL    HW1 1220   1.630   0.889   0.874  2.1999 -1.1141 -0.4947
  407SOL    HW2 1221   1.505   0.942   0.990  0.7097 -1.9593  0.4284
  408SOL     OW 1222   1.533   2.397   0.961 -0.0929 -0.4159  0.1597
  408SOL    HW1 1223   1.622   2.369   0.906  1.0940 -2.5013 -0.9341
  408SOL    HW2 1224   1.486   2.480   0.922  0.8082 -1.4216  0.0537
  409SOL     OW 1225   0.623   0.837   0.756 -0.2519 -0.1744  0.2279
  409SOL    HW1 1226   0.549   0.838   0.680 -2.1174 -3.6381 -2.1357
  409SOL    HW2 1227   0.631   0.746   0.805  1.8762 -1.4749 -2.9413
  410SOL     OW 1228   1.256   2.007   1.383 -0.1637 -0.1296 -0.2302
  410SOL    HW1 1229   1.322   1.963   1.448 -0.1605 -1.5366  0.0592
  410SOL    HW2 1230   1.177   1.942   1.358 -0.5021 -2.6116  1.9087
  411SOL     OW 1231   2.530   1.839   3.017 -0.0337  0.5904 -0.1600
  411SOL    HW1 1232   2.608   1.909   3.024  1.0026  0.9969  0.8025
  411SOL    HW2 1233   2.436   1.881   2.999 -1.3197 -1.1475  1.6254
  412SOL     OW 1234   1.471   2.468   2.148 -0.1333  0.3131  0.1941
  412SOL    HW1 1235   1.553   2.479   2.211 -0.2874 -0.0613  1.7232
  412SOL    HW2 1236   1.389   2.425   2.197  0.4513 -2.2428  1.0714
  413SOL     OW 1237   3.094   0.226   2.992  0.2068  0.3639  0.5483
  413SOL    HW1 1238   3.039   0.141   3.003  0.6553  3.1129  2.4611
  413SOL    HW2 1239   3.195   0.207   2.975 -1.1705 -0.8625  0.8086
  414SOL     OW 1240   1.767   1.488   1.163  0.3206  0.4625 -0.3502
  414SOL    HW1 1241   1.756   1.595   1.173  1.2081  1.7305  1.4962
  414SOL    HW2 1242   1.770   1.462   1.064  2.4628 -1.5136  1.6113
  415SOL     OW 1243   0.322   2.174   0.684  0.7597 -0.8840 -0.2943
  415SOL    HW1 1244   0.278   2.184   0.782  0.4858  2.0741  1.3536
  415SOL    HW2 1245   0.263   2.204   0.603 -0.1924  2.5351 -2.7876
  416SOL     OW 1246   0.378   1.104   1.063  0.0479  0.3225  0.0915
  416SOL    HW1 1247   0.364   1.018   1.009 -2.5414  0.7480  0.2749
  416SOL    HW2 1248   0.477   1.132   1.053 -0.3180 -1.4903 -2.3880
  417SOL     OW 1249   2.347   2.434   2.105  0.0482 -0.5596  0.5872
  417SOL    HW1 1250   2.349   2.332   2.102  1.8999  0.8746 -1.5173
  417SOL    HW2 1251   2.330   2.479   2.195 -0.0435 -3.5296 -1.0106
  418SOL     OW 1252   1.018   0.488   1.342  0.0773  0.2763 -0.0120
  418SOL    HW1 1253   0.939   0.453   1.286 -0.3500 -1.7672 -0.2818
  418SOL    HW2 1254   1.096   0.496   1.275 -1.4162  1.6290 -0.0514
  419SOL     OW 1255   0.937   0.549   2.977 -0.4859 -0.1189  0.0203
  419SOL    HW1 1256   0.851   0.570   2.927  1.9382  1.1460  0.7884
  419SOL    HW2 1257   0.999   0.637   2.983 -1.7606  1.9596 -3.5709
  420SOL     OW 1258   0.126   2.214   0.504 -0.1218 -0.6815 -0.0700
  420SOL    HW1 1259   0.163   2.223   0.410 -2.2526  2.9940  0.8270
  420SOL    HW2 1260   0.046   2.155   0.515  0.3991  0.3293 -2.8227
  421SOL     OW 1261   0.334   2.986   0.548 -0.3174  0.3361 -0.3702
  421SOL    HW1 1262   0.317   2.929   0.632  0.6373  0.5168  0.5406
  421SOL    HW2 1263   0.418   3.050   0.557  1.3168  0.3342  0.3048
  422SOL     OW 1264   1.034   2.593   1.017  0.3258 -0.6589 -0.9550
  422SOL    HW1 1265   1.055   2.667   0.955  1.7220 -1.1231  0.8170
  422SOL    HW2 1266   1.125   2.546   1.042  2.3823  0.4514 -0.4621
  423SOL     OW 1267   0.139   0.734   1.242  0.3572 -0.2557  0.5376
  423SOL    HW1 1268   0.082   0.691   1.316  0.1321 -0.3542 -0.2911
  423SOL    HW2 1269   0.103   0.822   1.201 -0.6026  0.7504 -0.0390
  424SOL     OW 1270   1.179   2.225   2.043 -0.4538 -0.1797  0.1851
  424SOL    HW1 1271   1.148   2.324   2.048  2.3408 -0.5267  0.6072
  424SOL    HW2 1272   1.142   2.175   2.127  0.1358 -0.9665 -1.4549
  425SOL     OW 1273   1.997   1.306   0.976 -0.4526 -0.4778  0.4260
  425SOL    HW1 1274   2.071   1.262   1.035  0.0522  2.8327 -1.9963
  425SOL    HW2 1275   2.015   1.406   0.950  0.6726 -1.3682 -0.0090
  426SOL     OW 1276   1.431   1.604   1.201  0.4398  0.1487 -0.1982
  426SOL    HW1 1277   1.435   1.712   1.183 -1.3674 -0.1370 -1.6483
  426SOL    HW2 1278   1.403   1.591   1.298 -0.6749 -1.5420 -0.7041
  427SOL     OW 1279   1.942   2.355   2.063  0.0510  0.7567 -0.0647
  427SOL    HW1 1280   1.986   2.295   2.139 -0.2330  0.2606 -2.2347
  427SOL    HW2 1281   1.962   2.455   2.070  0.1269  1.5234  1.3311
  428SOL     OW 1282   0.879   0.035   0.113 -0.2888  0.6002 -0.1648
  428SOL    HW1 1283   0.884   0.112   0.041  0.0428  2.0989 -1.1884
  428SOL    HW2 1284   0.968  -0.023   0.130 -0.8991 -0.4080  1.7657
  429SOL     OW 1285   1.309   0.168   0.252 -0.2263 -0.0537 -0.1814
  429SOL    HW1 1286   1.404   0.169   0.298  2.1841  0.6388 -0.4603
  429SOL    HW2 1287   1.314   0.204   0.153  0.5097  1.3774  0.6164
  430SOL     OW 1288   2.903   1.421   0.310 -0.0023  0.0143  0.0499
  430SOL    HW1 1289   2.870   1.490   0.234 -0.2303  3.5977  2.9179
  430SOL    HW2 1290   2.880   1.462   0.402 -0.1283  0.5146 -4.6977
  431SOL     OW 1291   2.059   1.578   0.921  0.1180  0.2298 -0.6063
  431SOL    HW1 1292   2.113   1.661   0.950 -1.3937 -0.4795 -0.1363
  431SOL    HW2 1293   1.962   1.606   0.892 -1.6630  0.1771  3.1600
  432SOL     OW 1294   2.918   2.147   1.229 -0.1152  0.6674 -0.2271
  432SOL    HW1 1295   2.931   2.041   1.230  0.0582 -0.1758 -3.4634
  432SOL    HW2 1296   2.981   2.193   1.294 -1.3211 -0.5885  2.2014
  433SOL     OW 1297   1.861   0.195   0.823  0.1152  0.3596 -0.1836
  433SOL    HW1 1298   1.803   0.256   0.889 -0.6152  0.0274  1.7216
  433SOL    HW2 1299   1.860   0.102   0.854  0.2994  3.3527  2.2446
  434SOL     OW 1300   1.551   0.323   0.654 -0.0092 -0.4957  0.1472
  434SOL    HW1 1301   1.530   0.409   0.599  0.2325  1.3469 -1.4405
  434SOL    HW2 1302   1.557   0.343   0.751 -0.4240  2.4288  0.2750
  435SOL     OW 1303   1.524   1.420   2.072 -0.5332 -0.1489  0.1590
  435SOL    HW1 1304   1.533   1.441   2.173 -0.3028 -0.7709  0.0061
  435SOL    HW2 1305   1.529   1.503   2.008 -1.2317  2.3203 -0.6119
  436SOL     OW 1306   1.698   2.728   2.249  0.3438 -0.0266 -0.0914
  436SOL    HW1 1307   1.650   2.802   2.298 -0.3534 -0.7203 -0.0765
  436SOL    HW2 1308   1.688   2.638   2.303 -2.4114 -0.7306 -2.6963
  437SOL     OW 1309   1.096   2.962   0.920  0.2394 -0.0553  0.3645
  437SOL    HW1 1310   1.034   3.044   0.895  0.0200 -0.9837 -1.7130
  437SOL    HW2 1311   1.092   2.937   1.023  2.5286 -1.3551  1.6074
  438SOL     OW 1312   1.012   2.674   1.461  0.6351  0.2643  0.6889
  438SOL    HW1 1313   1.112   2.679   1.447 -1.7117 -1.4115 -1.1602
  438SOL    HW2 1314   0.958   2.589   1.435  0.0351  0.4106  1.1457
  439SOL     OW 1315   0.685   1.847   1.060  0.1762 -0.2047 -0.2632
  439SOL    HW1 1316   0.689   1.948   1.043  0.6015 -1.1727  0.4377
  439SOL    HW2 1317   0.589   1.810   1.076  0.0122 -0.2686  0.4772
  440SOL     OW 1318   1.085   2.479   1.987 -0.7610  0.0076 -0.0988
  440SOL    HW1 1319   1.029   2.530   1.915  0.4502  3.2187  3.4616
  440SOL    HW2 1320   1.185   2.478   1.966 -2.1641  0.0092  0.3279
  441SOL     OW 1321   0.378   2.660   1.554 -0.2251  0.1413 -0.5438
  441SOL    HW1 1322   0.471   2.614   1.552  0.2083 -1.5211 -0.0176
  441SOL    HW2 1323   0.331   2.661   1.458  0.3962 -3.7473  0.0647
  442SOL     OW 1324   2.264   0.688   2.554 -0.0169 -0.3694  0.1883
  442SOL    HW1 1325   2.242   0.592   2.585  2.4923  1.4003  0.2817
  442SOL    HW2 1326   2.191   0.753   2.585  0.1397 -0.2186 -1.5268
  443SOL     OW 1327   1.206   2.669   2.201  0.2214 -0.6279 -0.0044
  443SOL    HW1 1328   1.197   2.718   2.292 -0.9147 -0.4177 -0.5397
  443SOL    HW2 1329   1.223   2.567   2.210 -0.6553  1.4132 -0.0325
  444SOL     OW 1330   0.995   1.359   1.560 -0.1693  0.5241 -0.2512
  444SOL    HW1 1331   1.096   1.346   1.542 -1.0570 -0.3922 -0.4306
  444SOL    HW2 1332   0.965   1.459   1.544  0.8511  1.7773  0.8353
  445SOL     OW 1333   3.059   2.364   1.967 -0.0059 -0.1023  0.0008
  445SOL    HW1 1334   3.064   2.448   1.903  0.7307 -1.9347 -0.8704
  445SOL    HW2 1335   2.960   2.353   2.000  0.8813 -2.4740 -1.7884
  446SOL     OW 1336   0.199   1.890   2.349 -0.1466 -0.5463 -0.2107
  446SOL    HW1 1337   0.166   1.976   2.396  0.9364 -1.3899 -3.2252
  446SOL    HW2 1338   0.121   1.849   2.296 -2.0524  2.2486  0.1256
  447SOL     OW 1339   1.221   1.659   1.940  0.7821  0.0820 -0.2119
  447SOL    HW1 1340   1.184   1.742   1.888  0.8497  1.1907 -1.2210
  447SOL    HW2 1341   1.324   1.651   1.931 -0.1495  2.6319 -1.5128
  448SOL     OW 1342   0.112   1.515   1.956 -0.0176  0.4988 -0.0088
  448SOL    HW1 1343   0.095   1.619   1.977  0.5568  3.5968 -0.5080
  448SOL    HW2 1344   0.127   1.463   2.044 -1.0412  1.1494  0.7661
  449SOL     OW 1345   1.999   3.015   0.847  0.2230 -0.6807 -0.3737
  449SOL    HW1 1346   2.062   3.060   0.915 -1.7236  2.3101  1.1939
  449SOL    HW2 1347   1.998   2.911   0.838  0.7419  1.0372  0.5176
  450SOL     OW 1348   2.275   1.370   0.891 -0.2278 -0.0347  0.0229
  450SOL    HW1 1349   2.268   1.275   0.856  0.8047  2.4736  2.7253
  450SOL    HW2 1350   2.192   1.436   0.884 -0.0271 -2.2242  0.3030
  451SOL     OW 1351   1.418   0.033   1.437 -0.0709  0.3355 -0.2499
  451SOL    HW1 1352   1.338   0.096   1.465 -2.0242 -2.6922 -0.9104
  451SOL    HW2 1353   1.457  -0.017   1.519  0.2822  1.6133 -0.4747
  452SOL     OW 1354   2.643   2.306   2.250  0.6028  0.7195  0.2258
  452SOL    HW1 1355   2.595   2.395   2.282 -0.8372  1.0546  1.7663
  452SOL    HW2 1356   2.677   2.250   2.324  0.2670  0.3618 -2.7579
  453SOL     OW 1357   2.438   2.589   3.036  0.0184  0.0765 -0.1332
  453SOL    HW1 1358   2.363   2.659   3.032 -0.1328 -1.4802 -0.4869
  453SOL    HW2 1359   2.420   2.507   2.972 -1.9947  0.4611 -0.7882
  454SOL     OW 1360   0.966   1.085   2.078 -0.0078  0.3106  0.2328
  454SOL    HW1 1361   0.935   1.131   1.990 -2.8672 -0.7487 -0.7184
  454SOL    HW2 1362   1.059   1.110   2.120  1.5234 -1.1395  0.4710
  455SOL     OW 1363   0.691   2.646   2.916 -0.6972  0.8214  0.0538
  455SOL    HW1 1364   0.742   2.719   2.965 -0.2507  0.5006 -1.5707
  455SOL    HW2 1365   0.668   2.562   2.979  0.7864 -1.1418  0.4512
  456SOL     OW 1366   0.553   1.797   0.292 -0.8598  0.0417  0.1545
  456SOL    HW1 1367   0.637   1.753   0.333 -0.7273 -3.5058  0.2057
  456SOL    HW2 1368   0.559   1.903   0.290 -0.6079 -1.8263 -1.1799
  457SOL     OW 1369   0.335   2.542   0.671 -0.3886 -0.7849  0.0613
  457SOL    HW1 1370   0.320   2.577   0.571  0.9423  0.0770 -0.2061
  457SOL    HW2 1371   0.437   2.542   0.698  2.1763 -1.1473 -1.6265
  458SOL     OW 1372   2.974   2.942   1.276 -0.0643  0.3494  0.3744
  458SOL    HW1 1373   2.958   3.046   1.288  1.5076  0.6315  0.4364
  458SOL    HW2 1374   2.941   2.906   1.180  1.2510  0.8606 -2.6168
  459SOL     OW 1375   2.135   2.528   0.906  1.2256 -0.3114 -0.8414
  459SOL    HW1 1376   2.131   2.604   0.981  0.3701  1.4737  1.8830
  459SOL    HW2 1377   2.229   2.522   0.863  2.5066  2.9697  1.5268
  460SOL     OW 1378   1.070   1.913   2.924  0.0387  0.2199  0.1780
  460SOL    HW1 1379   1.100   1.997   2.866  1.1017 -2.1892 -0.9565
  460SOL    HW2 1380   1.146   1.871   2.983  0.0053 -1.3085  2.2655
  461SOL     OW 1381   0.537   2.114   2.712  0.4611  0.1290  0.0449
  461SOL    HW1 1382   0.483   2.039   2.667  0.1187  0.7375  0.2945
  461SOL    HW2 1383   0.572   2.087   2.807  1.0457 -1.3769  1.0642
  462SOL     OW 1384   0.960   1.198   1.807  0.1778 -0.6883 -0.3303
  462SOL    HW1 1385   1.033   1.129   1.792 -2.7662  2.7319  0.0764
  462SOL    HW2 1386   0.953   1.263   1.720 -0.8708 -1.8080 -2.2575
  463SOL     OW 1387   0.447   0.810   0.542 -0.2095 -0.3488 -0.3417
  463SOL    HW1 1388   0.470   0.716   0.497 -1.4701 -0.4280  0.0594
  463SOL    HW2 1389   0.347   0.821   0.563 -0.0742  3.3228  0.1904
  464SOL     OW 1390   0.491   2.247   2.224  0.1144 -0.3562  0.2617
  464SOL    HW1 1391   0.415   2.308   2.257  0.2685 -1.0089  0.4029
  464SOL    HW2 1392   0.546   2.285   2.144 -0.1786  0.8001 -0.6146
  465SOL     OW 1393   0.265   0.871   0.887  1.0446  0.3580  0.1537
  465SOL    HW1 1394   0.170   0.910   0.866 -0.9257 -1.4540  0.5582
  465SOL    HW2 1395   0.269   0.767   0.902 -1.3746 -0.2532  0.9790
  466SOL     OW 1396   1.387   1.059   1.046  0.1921 -0.3797  0.3601
  466SOL    HW1 1397   1.450   1.142   1.049 -0.3500 -0.6709  0.9964
  466SOL    HW2 1398   1.287   1.093   1.044 -0.6711  0.2968 -1.8252
  467SOL     OW 1399   0.445   0.393   2.423  0.2033 -0.0430  0.5273
  467SOL    HW1 1400   0.378   0.463   2.466  0.9780 -1.9674  1.0583
  467SOL    HW2 1401   0.467   0.307   2.483  1.5096 -0.1612  0.4101
  468SOL     OW 1402   0.503   2.238   1.700 -0.0442 -0.2772  0.0824
  468SOL    HW1 1403   0.534   2.324   1.751 -1.4283 -0.1937  2.5822
  468SOL    HW2 1404   0.460   2.264   1.607 -0.1028 -0.6849 -0.6854
  469SOL     OW 1405   1.554   1.261   1.096  0.3423  0.3937  0.0235
  469SOL    HW1 1406   1.641   1.203   1.111 -0.5222 -0.6484  0.1036
  469SOL    HW2 1407   1.548   1.346   1.151  3.0610 -2.2737 -0.4676
  470SOL     OW 1408   3.018   1.637   0.704  0.4648 -0.1688  0.3974
  470SOL    HW1 1409   3.101   1.660   0.764 -2.1772  1.6613 -0.2056
  470SOL    HW2 1410   2.931   1.685   0.745  1.2272  0.5625  3.3247
  471SOL     OW 1411   2.670   1.292   2.144 -0.5908 -0.2694  0.0575
  471SOL    HW1 1412   2.603   1.243   2.204  0.9314 -1.2806  0.8294
  471SOL    HW2 1413   2.713   1.376   2.187  1.2147  1.9072  0.5361
  472SOL     OW 1414   1.119   2.464   0.029  0.3149 -0.0005  0.2262
  472SOL    HW1 1415   1.217   2.442   0.056  0.0285  0.8136 -0.2412
  472SOL    HW2 1416   1.052   2.388   0.044  0.0055 -0.7171 -1.3499
  473SOL     OW 1417   1.054   1.592   0.841  0.0829 -0.2103  0.0076
  473SOL    HW1 1418   0.966   1.583   0.898 -0.6820  0.0904  0.3582
  473SOL    HW2 1419   1.139   1.549   0.884 -1.9765  1.2554 -0.0127
  474SOL     OW 1420   0.806   1.205   0.757  0.1843 -0.1298  0.4155
  474SOL    HW1 1421   0.768   1.217   0.663  1.7179 -0.2832  1.8075
  474SOL    HW2 1422   0.910   1.203   0.755 -0.7666  1.4428  1.4214
  475SOL     OW 1423   2.886   0.086   0.764  0.4187 -0.2871  0.3847
  475SOL    HW1 1424   2.966   0.060   0.828  2.4780 -0.8236  0.4354
  475SOL    HW2 1425   2.790   0.093   0.817 -1.7069  1.5499 -0.0919
  476SOL     OW 1426   0.872   3.048   1.838  0.1373 -0.3683  0.1768
  476SOL    HW1 1427   0.937   2.978   1.880 -0.8443 -1.1052  2.2236
  476SOL    HW2 1428   0.870   3.039   1.734  1.8548 -0.5578  0.0677
  477SOL     OW 1429   1.442   0.371   2.429  0.0847  0.7609  0.0713
  477SOL    HW1 1430   1.412   0.352   2.527 -1.0610  0.6511  0.9934
  477SOL    HW2 1431   1.538   0.328   2.411  0.2379 -0.8047  0.8935
  478SOL     OW 1432   2.269   1.810   0.272 -0.3590 -0.4116  0.7071
  478SOL    HW1 1433   2.210   1.735   0.228 -0.8954 -0.7601  1.6430
  478SOL    HW2 1434   2.372   1.795   0.259 -2.6346  1.1298 -2.9595
  479SOL     OW 1435   1.225   1.094   2.841 -0.3589  0.0203  0.0334
  479SOL    HW1 1436   1.312   1.112   2.799 -2.1953  1.1730 -0.9857
  479SOL    HW2 1437   1.171   1.024   2.790 -0.4080  1.3185  0.5334
  480SOL     OW 1438   2.467   2.343   0.366  0.2605  0.1377 -0.0865
  480SOL    HW1 1439   2.399   2.306   0.432  1.3073  0.7642 -2.2996
  480SOL    HW2 1440   2.416   2.375   0.281 -0.7954 -0.9653 -1.9334
  481SOL     OW 1441   1.090   1.201   0.809 -0.5463  0.4910 -0.2577
  481SOL    HW1 1442   1.104   1.275   0.738  0.1760 -0.5087  0.3609
  481SOL    HW2 1443   1.116   1.222   0.909 -0.0810  1.0553 -1.6370
  482SOL     OW 1444   1.618   0.297   2.030 -0.0857 -0.2328  0.0680
  482SOL    HW1 1445   1.608   0.384   1.979 -0.3964 -2.8594  1.7657
  482SOL    HW2 1446   1.715   0.281   2.064 -0.0776 -0.2992  0.6336
  483SOL     OW 1447   0.139   2.356   1.316 -0.2749 -0.2408  0.0470
  483SOL    HW1 1448   0.034   2.357   1.342 -0.9237 -0.1604 -0.2037
  483SOL    HW2 1449   0.150   2.385   1.215  2.5387 -0.3686  1.2800
  484SOL     OW 1450   1.725   0.967   1.383 -0.0899 -0.3820  0.2410
  484SOL    HW1 1451   1.812   0.917   1.405  1.2318 -1.6768  0.6770
  484SOL    HW2 1452   1.737   1.059   1.338  0.4621 -0.1149 -0.7138
  485SOL     OW 1453   0.694   1.112   1.774  0.1286 -0.0316  0.3132
  485SOL    HW1 1454   0.671   1.105   1.672  0.6964  0.9515 -0.5196
  485SOL    HW2 1455   0.789   1.140   1.791 -2.5363 -0.0524 -0.1172
  486SOL     OW 1456   0.882   1.910   2.431 -0.1628  0.0036 -0.4035
  486SOL    HW1 1457   0.922   1.860   2.511  0.0823  2.8866 -1.7061
  486SOL    HW2 1458   0.817   1.988   2.451 -1.2672 -2.6350 -2.1328
  487SOL     OW 1459   1.740   1.495   0.896 -0.1876  0.0523 -0.4714
  487SOL    HW1 1460   1.734   1.410   0.838 -0.0010 -0.1397  2.4160
  487SOL    HW2 1461   1.770   1.584   0.858  0.4818 -1.3496  0.7936
  488SOL     OW 1462   2.954   0.965   2.289  0.4077 -0.4889 -0.2309
  488SOL    HW1 1463   3.007   0.920   2.216 -1.2330  1.2761  1.3039
  488SOL    HW2 1464   2.965   0.912   2.382 -2.3085 -1.4111  1.8596
  489SOL     OW 1465   2.801   0.203   1.307 -0.6011 -0.1420 -0.1349
  489SOL    HW1 1466   2.779   0.206   1.407  1.9171 -2.8452  0.6253
  489SOL    HW2 1467   2.905   0.189   1.290  1.7521 -0.5320 -0.0397
  490SOL     OW 1468   1.428   2.978   2.852 -0.1548 -0.2022 -0.8231
  490SOL    HW1 1469   1.447   2.879   2.858 -0.7889  3.5888  2.5973
  490SOL    HW2 1470   1.389   3.003   2.760  1.0981 -0.5111  2.6173
  491SOL     OW 1471   1.913   1.551   2.660 -0.0078 -0.1340 -0.5375
  491SOL    HW1 1472   1.876   1.550   2.757  3.0615  2.0702  1.0850
  491SOL    HW2 1473   2.011   1.594   2.657  1.9568  3.3998  0.6421
  492SOL     OW 1474   0.472   1.939   0.730 -0.0488 -0.3836 -0.3317
  492SOL    HW1 1475   0.554   1.984   0.774 -2.1923 -1.6067 -2.4077
  492SOL    HW2 1476   0.404   2.008   0.693 -0.2379 -0.1190 -2.1090
  493SOL     OW 1477   0.448   1.397   2.122  0.5661  0.5192  0.2969
  493SOL    HW1 1478   0.358   1.447   2.127  0.8712  1.2227  1.8981
  493SOL    HW2 1479   0.447   1.318   2.191  1.7539 -0.0373 -1.1180
  494SOL     OW 1480   2.625   2.668   0.184 -0.4189  0.0817  0.0220
  494SOL    HW1 1481   2.672   2.584   0.217  0.3249 -0.1916  0.3393
  494SOL    HW2 1482   2.570   2.656   0.097  2.5417 -0.1243  0.0994
  495SOL     OW 1483   2.775   2.697   2.695 -0.0673 -0.2699 -0.0659
  495SOL    HW1 1484   2.785   2.607   2.649  0.0775  1.3977  0.4627
  495SOL    HW2 1485   2.783   2.782   2.629 -1.4626  1.1358  0.3649
  496SOL     OW 1486   2.048   2.187   0.715 -0.7399  0.4760 -0.3300
  496SOL    HW1 1487   2.040   2.170   0.821 -0.4092 -0.3617  1.7331
  496SOL    HW2 1488   2.041   2.104   0.657  0.9974 -5.0795 -1.3283
  497SOL     OW 1489   0.232   2.980   2.410 -0.4222  0.8236 -0.5239
  497SOL    HW1 1490   0.184   3.053   2.464  1.7968 -0.9716 -1.9102
  497SOL    HW2 1491   0.276   3.026   2.327 -0.0643 -3.3050 -0.3626
  498SOL     OW 1492   1.212   1.493   1.085 -0.1216  0.0201 -0.8203
  498SOL    HW1 1493   1.294   1.521   1.142  1.8965 -1.9173 -0.4291
  498SOL    HW2 1494   1.123   1.532   1.136  0.9259  0.6859  1.0836
  499SOL     OW 1495   0.848   1.835   0.504 -0.1163 -0.4810 -0.1911
  499SOL    HW1 1496   0.802   1.750   0.551 -0.3130 -1.4071  0.2252
  499SOL    HW2 1497   0.897   1.899   0.573 -0.7165  0.4222 -2.7891
  500SOL     OW 1498   1.450   2.982   1.664  0.5153 -0.5331 -0.2768
  500SOL    HW1 1499   1.469   3.038   1.753  0.4068  0.8852  0.7274
  500SOL    HW2 1500   1.465   2.881   1.673 -0.8890 -0.6509 -1.6075
  501SOL     OW 1501   0.743   1.131   2.276  0.6217 -0.0915 -0.5748
  501SOL    HW1 1502   0.679   1.050   2.311 -1.5507 -0.6146  0.6389
  501SOL    HW2 1503   0.794   1.106   2.189  0.9235 -1.0131 -2.1237
  502SOL     OW 1504   2.610   0.958   1.730  0.0044 -0.0588  0.2467
  502SOL    HW1 1505   2.574   0.969   1.633 -3.1071  0.2630  3.3561
  502SOL    HW2 1506   2.570   0.873   1.777  1.4193  1.1154 -2.2313
  503SOL     OW 1507   1.326   0.150   0.632 -0.6068 -0.3280  0.2741
  503SOL    HW1 1508   1.255   0.215   0.592 -2.0855 -1.0842  0.1512
  503SOL    HW2 1509   1.422   0.194   0.639  1.9237 -0.5732  0.9390
  504SOL     OW 1510   2.970   2.361   1.407  0.0643 -0.6495  0.2314
  504SOL    HW1 1511   2.971   2.452   1.453  1.8206 -3.8651 -0.5305
  504SOL    HW2 1512   2.898   2.290   1.445 -1.5649 -0.9491 -0.6864
  505SOL     OW 1513   2.315   1.248   1.422 -0.0639  0.2492 -0.1871
  505SOL    HW1 1514   2.277   1.348   1.427 -0.0071  0.4323  0.9540
  505SOL    HW2 1515   2.417   1.237   1.441  2.1692  0.3358  0.6627
  506SOL     OW 1516   1.910   0.233   1.768  0.1816 -0.1183 -0.5216
  506SOL    HW1 1517   1.984   0.199   1.702 -1.4109  0.4060 -1.2656
  506SOL    HW2 1518   1.942   0.315   1.828 -0.7967  2.6948  0.9873
  507SOL     OW 1519   0.471   0.729   2.171 -0.0822  0.7645  0.1895
  507SOL    HW1 1520   0.400   0.731   2.094  0.3654  1.1169 -0.2814
  507SOL    HW2 1521   0.535   0.648   2.160 -1.3746  1.3118  2.2354
  508SOL     OW 1522   0.179   1.674   0.817  0.2913 -0.4270 -0.3110
  508SOL    HW1 1523   0.166   1.768   0.771  1.4796 -1.3986 -1.9292
  508SOL    HW2 1524   0.156   1.678   0.918 -1.5372  1.2362  1.3747
  509SOL     OW 1525   1.354   1.187   2.584  0.1336  0.2746  0.1864
  509SOL    HW1 1526   1.286   1.246   2.536 -2.7578  1.2956 -1.0371
  509SOL    HW2 1527   1.319   1.085   2.578  1.2401 -1.1661  0.7254
  510SOL     OW 1528   1.325   1.995   2.027  0.0963  0.2152  0.3275
  510SOL    HW1 1529   1.294   2.094   2.034 -0.3692 -2.6548  0.6223
  510SOL    HW2 1530   1.257   1.925   2.066 -2.9758 -2.3929  0.1488
  511SOL     OW 1531   3.075   2.633   1.287 -0.4425 -0.1495 -0.3068
  511SOL    HW1 1532   3.003   2.589   1.222  0.5181 -0.1763  0.2362
  511SOL    HW2 1533   3.039   2.646   1.382 -1.4217  1.5939 -1.8270
  512SOL     OW 1534   2.411   0.412   1.379  0.3135 -0.5335  0.2639
  512SOL    HW1 1535   2.307   0.418   1.384 -1.8784 -1.4481  2.5935
  512SOL    HW2 1536   2.451   0.330   1.326  2.0692  0.0839  0.8492
  513SOL     OW 1537   2.512   1.977   0.815  0.1637 -0.3501 -0.3627
  513SOL    HW1 1538   2.461   2.067   0.827 -1.0937 -0.6009 -1.4977
  513SOL    HW2 1539   2.562   1.967   0.726 -0.4384 -0.4101 -0.7473
  514SOL     OW 1540   0.673   2.798   0.414  0.0333 -0.1980  0.2974
  514SOL    HW1 1541   0.632   2.850   0.333  0.2206 -1.6974 -0.5247
  514SOL    HW2 1542   0.704   2.860   0.496 -1.0552  0.3376 -0.2767
  515SOL     OW 1543   1.961   1.231   2.376 -0.5949  0.3299  0.6907
  515SOL    HW1 1544   1.892   1.269   2.311  1.2864 -1.0475 -1.7335
  515SOL    HW2 1545   1.928   1.246   2.470 -0.2525 -3.2287 -2.1830
  516SOL     OW 1546   0.273   0.339   1.968  0.1394  0.9433 -0.0887
  516SOL    HW1 1547   0.368   0.329   1.929 -0.7305  0.3036  0.4106
  516SOL    HW2 1548   0.201   0.279   1.924 -1.8224 -0.8927 -1.0547
  517SOL     OW 1549   0.361   3.031   1.198 -0.1058 -0.3591  0.6656
  517SOL    HW1 1550   0.392   3.124   1.239  1.0268 -1.3469 -0.4224
  517SOL    HW2 1551   0.273   2.993   1.233  0.9840 -0.2474 -0.0678
  518SOL     OW 1552   2.125   0.169   1.641 -0.4382  0.1771 -0.3127
  518SOL    HW1 1553   2.167   0.212   1.723 -0.0570  0.6663  0.2188
  518SOL    HW2 1554   2.182   0.092   1.595 -0.8777  1.0167 -2.1618
  519SOL     OW 1555   2.352   2.169   2.528 -0.0691  0.1844  0.0403
  519SOL    HW1 1556   2.277   2.162   2.598  3.3963 -0.0580  0.2772
  519SOL    HW2 1557   2.401   2.260   2.530 -1.5951 -0.6885  3.8965
  520SOL     OW 1558   1.768   2.856   1.826 -0.2068  0.2248  0.3899
  520SOL    HW1 1559   1.694   2.794   1.865  3.0769 -1.5177  0.7297
  520SOL    HW2 1560   1.864   2.812   1.819 -1.2035 -0.2263  0.0802
  521SOL     OW 1561   0.570   0.142   2.174 -0.0562 -0.1059  0.1161
  521SOL    HW1 1562   0.474   0.116   2.205 -0.4344  0.4023  1.4424
  521SOL    HW2 1563   0.646   0.085   2.219 -1.4957 -1.7362 -0.5841
  522SOL     OW 1564   0.237   1.911   1.558  0.1628  0.4851 -0.2153
  522SOL    HW1 1565   0.269   1.956   1.648  1.2142  0.1093 -0.3536
  522SOL    HW2 1566   0.210   1.981   1.487  1.1572 -0.1694 -0.4685
  523SOL     OW 1567   2.221   3.024   1.600  0.0040  0.2613 -0.2457
  523SOL    HW1 1568   2.215   2.954   1.521 -0.7799  0.6709 -2.8089
  523SOL    HW2 1569   2.148   3.007   1.669  3.0066  0.0419  0.5319
  524SOL     OW 1570   0.227   2.765   2.812 -0.0150  0.7582 -0.0646
  524SOL    HW1 1571   0.179   2.842   2.866 -2.4839 -1.0217 -1.4940
  524SOL    HW2 1572   0.330   2.780   2.788 -0.6470 -2.4311 -2.1173
  525SOL     OW 1573   2.135   1.954   0.448 -0.0118  1.0354 -0.6214
  525SOL    HW1 1574   2.117   1.879   0.514  0.0784 -0.2231 -0.5092
  525SOL    HW2 1575   2.191   1.911   0.370 -0.8112  0.6310 -0.1538
  526SOL     OW 1576   0.428   1.557   1.546  0.3366 -0.6758  0.6591
  526SOL    HW1 1577   0.372   1.501   1.616  1.4601  1.5148  1.2263
  526SOL    HW2 1578   0.506   1.503   1.504 -1.2554  0.4741 -1.9661
  527SOL     OW 1579   1.105   2.893   1.197 -0.0908 -0.4072 -0.0330
  527SOL    HW1 1580   1.184   2.827   1.223  0.3704 -2.0297 -2.2915
  527SOL    HW2 1581   1.130   2.993   1.199 -0.1216 -1.3395 -2.3547
  528SOL     OW 1582   1.339   2.393   0.442 -0.2158 -0.0410  0.2214
  528SOL    HW1 1583   1.357   2.291   0.439 -0.0644 -0.3091 -1.1529
  528SOL    HW2 1584   1.407   2.444   0.504 -0.8784 -0.4937 -1.3329
  529SOL     OW 1585   1.836   1.723   0.782  0.6262 -0.2826 -0.0052
  529SOL    HW1 1586   1.833   1.720   0.676  0.2500 -0.5369 -2.1773
  529SOL    HW2 1587   1.808   1.815   0.817 -0.8258 -2.4338 -0.4998
  530SOL     OW 1588   0.351   2.453   0.258  0.2327 -0.7284  0.1217
  530SOL    HW1 1589   0.339   2.527   0.331  0.8862 -0.8117 -3.1236
  530SOL    HW2 1590   0.438   2.392   0.284  1.8567  1.3214 -1.2530
  531SOL     OW 1591   1.848   0.835   0.992  0.5362  0.1271 -0.6031
  531SOL    HW1 1592   1.891   0.869   0.905 -3.0203  0.8755 -0.2533
  531SOL    HW2 1593   1.748   0.857   1.013 -2.0478 -0.3048  0.4120
  532SOL     OW 1594   0.477   1.099   0.767 -0.6317  0.5939  0.3695
  532SOL    HW1 1595   0.489   1.077   0.667 -0.0816  0.5755 -1.0630
  532SOL    HW2 1596   0.414   1.033   0.810 -0.3006 -0.1605 -0.7159
  533SOL     OW 1597   1.747   0.016   2.560 -0.5543 -0.6491 -0.0493
  533SOL    HW1 1598   1.845   0.004   2.580 -1.3838  1.7449  0.4061
  533SOL    HW2 1599   1.697   0.082   2.623 -0.2572 -2.8462 -1.0036
  534SOL     OW 1600   0.400   0.207   1.556 -0.2369  0.3855 -0.1103
  534SOL    HW1 1601   0.500   0.186   1.556 -0.4959  0.2796 -1.0442
  534SOL    HW2 1602   0.372   0.303   1.531  2.3295  0.4363 -0.4402
  535SOL     OW 1603   1.941   0.340   0.157 -0.0968 -0.0226 -0.3051
  535SOL    HW1 1604   1.972   0.416   0.223  0.2576 -1.7618  1.9215
  535SOL    HW2 1605   1.940   0.251   0.215 -1.0427 -2.8025  1.6265
  536SOL     OW 1606   1.357   2.606   0.896 -0.1437 -0.0839  0.2095
  536SOL    HW1 1607   1.338   2.591   0.996  1.5712 -0.3938 -3.4867
  536SOL    HW2 1608   1.281   2.652   0.842  0.4078 -2.4585 -0.4067
  537SOL     OW 1609   0.844   0.243   2.360  0.3365  0.0193 -0.2120
  537SOL    HW1 1610   0.890   0.291   2.285 -2.4403 -1.3465  1.4559
  537SOL    HW2 1611   0.797   0.158   2.334 -1.4649 -0.0096  0.8791
  538SOL     OW 1612   1.663   2.380   1.394  0.2236  0.6183  0.3905
  538SOL    HW1 1613   1.684   2.283   1.413  0.0829  0.8693 -1.2739
  538SOL    HW2 1614   1.745   2.442   1.394 -0.0558 -0.2514  0.2255
  539SOL     OW 1615   0.183   1.618   2.674  0.5163  0.4127 -0.3757
  539SOL    HW1 1616   0.085   1.583   2.659  1.7262 -0.3243 -1.3313
  539SOL    HW2 1617   0.190   1.707   2.726  1.4320  1.5880 -1.5166
  540SOL     OW 1618   2.675   1.718   1.923  0.5071  0.1984  0.3363
  540SOL    HW1 1619   2.610   1.653   1.972 -1.6303  1.7169  1.5064
  540SOL    HW2 1620   2.619   1.805   1.898 -0.4531  2.9877  0.3366
  541SOL     OW 1621   0.537   2.135   0.034 -0.0800 -0.2593  0.0949
  541SOL    HW1 1622   0.544   2.120   0.138 -2.4020 -2.5749  1.8663
  541SOL    HW2 1623   0.441   2.120  -0.005  0.0588  0.4543 -0.7330
  542SOL     OW 1624   2.259   2.663   0.562  0.4409  0.0531  0.3171
  542SOL    HW1 1625   2.240   2.754   0.609 -1.7725 -1.0115  1.9348
  542SOL    HW2 1626   2.186   2.592   0.569  3.0451 -2.6693 -0.4462
  543SOL     OW 1627   1.089   1.783   1.607 -0.3245  0.1552  0.1157
  543SOL    HW1 1628   1.079   1.818   1.704 -1.1152 -3.9429 -0.3013
  543SOL    HW2 1629   1.036   1.847   1.540 -2.4650  0.6074 -2.0283
  544SOL     OW 1630   1.181   0.517   0.158 -0.2361 -0.2460 -0.0197
  544SOL    HW1 1631   1.139   0.436   0.211  0.3215 -2.7532 -2.1819
  544SOL    HW2 1632   1.160   0.515   0.057 -0.5947  0.7907  2.8097
  545SOL     OW 1633   1.110   1.846   0.789  0.1386 -0.0900  0.5604
  545SOL    HW1 1634   1.200   1.846   0.740 -0.4819 -0.3787  1.3470
  545SOL    HW2 1635   1.072   1.748   0.801  1.1198 -1.1555 -0.2358
  546SOL     OW 1636   2.669   1.612   2.991 -0.0492 -0.1075  0.0256
  546SOL    HW1 1637   2.629   1.710   2.994 -0.5111 -2.4692 -0.1072
  546SOL    HW2 1638   2.604   1.537   3.007  0.8724 -0.7160 -0.8821
  547SOL     OW 1639   0.668   3.043   2.549  0.0120  0.0319  0.8885
  547SOL    HW1 1640   0.738   3.007   2.624  3.8891 -1.6126  3.4746
  547SOL    HW2 1641   0.598   2.973   2.518  2.7279 -0.3237  1.1365
  548SOL     OW 1642   2.042   0.762   3.032 -0.0990 -0.0576 -0.3278
  548SOL    HW1 1643   1.945   0.731   3.055  0.3434  0.0937  1.2751
  548SOL    HW2 1644   2.060   0.855   3.070 -1.9370  0.9526 -1.1907
  549SOL     OW 1645   0.703   0.584   0.184  0.2282  0.3340  0.1083
  549SOL    HW1 1646   0.638   0.631   0.117  1.6537 -0.8512 -2.9000
  549SOL    HW2 1647   0.801   0.620   0.184 -1.9646  0.0547  0.4956
  550SOL     OW 1648   2.578   2.771   2.874  0.1773 -0.8023  0.5049
  550SOL    HW1 1649   2.532   2.699   2.930  0.8641 -0.2491 -2.2953
  550SOL    HW2 1650   2.625   2.733   2.791  0.8069 -0.9274  1.7810
  551SOL     OW 1651   0.261   0.874   0.240  0.4987 -0.0799 -0.7752
  551SOL    HW1 1652   0.361   0.846   0.228 -0.4946  2.9339  0.7915
  551SOL    HW2 1653   0.249   0.917   0.334 -2.0718 -0.0158 -0.4543
  552SOL     OW 1654   0.631   3.040   1.961  0.7668 -0.0215 -0.3803
  552SOL    HW1 1655   0.625   3.107   2.040  0.8702  1.1068  0.6403
  552SOL    HW2 1656   0.725   3.037   1.920 -1.2841  1.0809  0.2729
  553SOL     OW 1657   2.997   2.402   0.375 -0.0606  0.4905 -0.3888
  553SOL    HW1 1658   2.999   2.297   0.392 -0.2371 -1.0414  1.6911
  553SOL    HW2 1659   2.901   2.428   0.361  2.8563 -0.3822 -1.5299
  554SOL     OW 1660   2.197   0.365   0.537 -0.4635 -0.1057  0.2876
  554SOL    HW1 1661   2.263   0.363   0.459  0.9725 -0.0517 -0.8793
  554SOL    HW2 1662   2.200   0.283   0.600 -0.5256  0.5934  1.5561
  555SOL     OW 1663   0.472   2.855   2.477  0.1602 -0.2361  0.1855
  555SOL    HW1 1664   0.374   2.892   2.451 -2.9723  2.0700 -0.6749
  555SOL    HW2 1665   0.516   2.783   2.413 -0.2438  0.2873  1.0472
  556SOL     OW 1666   0.819   2.433   1.613 -0.0863 -0.5391  0.0010
  556SOL    HW1 1667   0.857   2.520   1.665 -0.5571  0.8001  2.6286
  556SOL    HW2 1668   0.885   2.393   1.543 -0.4556  1.7244  0.5925
  557SOL     OW 1669   0.269   2.095   0.264 -0.2483 -0.0031 -0.4639
  557SOL    HW1 1670   0.169   2.071   0.238 -2.9841 -0.4736  0.5574
  557SOL    HW2 1671   0.346   2.080   0.198  2.9006 -3.7279  0.0254
  558SOL     OW 1672   2.839   2.137   0.399  0.4567  1.0097  0.2029
  558SOL    HW1 1673   2.768   2.209   0.398 -2.2047 -3.6599 -3.2107
  558SOL    HW2 1674   2.817   2.068   0.322 -3.5814  1.3018 -0.7947
  559SOL     OW 1675   0.393   2.316   1.455 -0.0241 -0.3962 -0.1086
  559SOL    HW1 1676   0.303   2.318   1.408  2.7007  3.5669  0.8132
  559SOL    HW2 1677   0.464   2.252   1.405  0.1150 -1.2111  0.8628
  560SOL     OW 1678   2.142   1.008   0.007  0.2238 -0.1534  0.6249
  560SOL    HW1 1679   2.193   1.041   0.087  1.8571 -3.8849 -0.0840
  560SOL    HW2 1680   2.199   1.004  -0.077  1.2613  0.9134 -0.4995
  561SOL     OW 1681   0.017   1.959   0.200 -0.1757  0.6904 -0.0004
  561SOL    HW1 1682  -0.050   1.891   0.244 -1.6191  3.3577 -1.2485
  561SOL    HW2 1683  -0.017   1.999   0.110 -1.2466 -1.9031  0.7304
  562SOL     OW 1684   1.062   2.088   2.246 -0.6832 -0.1220 -0.3533
  562SOL    HW1 1685   1.015   2.173   2.294 -1.0304  1.0989  0.7386
  562SOL    HW2 1686   1.017   1.998   2.252 -0.1658  0.9146 -0.9866
  563SOL     OW 1687   0.665   2.545   2.668  0.0968  0.2514 -0.1714
  563SOL    HW1 1688   0.744   2.495   2.624 -1.3929 -1.4526  1.2779
  563SOL    HW2 1689   0.688   2.580   2.765  2.5932 -1.5381  0.7534
  564SOL     OW 1690   2.850   1.415   2.869  0.0123  0.3096 -0.3314
  564SOL    HW1 1691   2.789   1.488   2.906 -0.1843 -1.4901  0.0153
  564SOL    HW2 1692   2.948   1.449   2.840  0.4055  2.2755 -2.0561
  565SOL     OW 1693   2.517   1.969   2.637 -0.6422 -0.1477  0.0208
  565SOL    HW1 1694   2.485   2.061   2.593 -2.2630  1.0985 -0.7430
  565SOL    HW2 1695   2.595   1.981   2.708  1.0683 -1.0985  0.9928
  566SOL     OW 1696   1.936   2.902   1.439 -0.8730  0.3007  0.0097
  566SOL    HW1 1697   1.927   2.828   1.509 -0.9083 -1.1283 -0.7226
  566SOL    HW2 1698   1.964   2.872   1.342  1.6463  0.2879  0.9120
  567SOL     OW 1699   2.354   0.031   2.317 -0.7297  0.3524 -0.4539
  567SOL    HW1 1700   2.266   0.023   2.371  0.2834 -0.8863 -0.9556
  567SOL    HW2 1701   2.334   0.039   2.215  2.4431 -2.0758  0.6907
  568SOL     OW 1702   1.508   1.732   0.235  0.0856  0.4883 -0.6084
  568SOL    HW1 1703   1.435   1.803   0.203 -0.0877  1.2523  2.3481
  568SOL    HW2 1704   1.603   1.776   0.251  0.9861  0.0141 -0.6413
  569SOL     OW 1705   0.249   0.585   0.896  0.1819 -0.2944 -0.0805
  569SOL    HW1 1706   0.289   0.528   0.820  0.4563  0.1878 -2.6374
  569SOL    HW2 1707   0.142   0.582   0.904  0.2182  2.9110 -0.0523
  570SOL     OW 1708   0.645   0.858   2.900  0.4268  0.1235 -0.1432
  570SOL    HW1 1709   0.690   0.880   2.807 -0.0167  1.0573 -0.7242
  570SOL    HW2 1710   0.645   0.938   2.963  2.8424 -2.1283 -2.1137
  571SOL     OW 1711   0.775   3.069   1.069  0.4147  0.2990  0.1654
  571SOL    HW1 1712   0.836   3.115   0.994  2.6303  0.0167 -0.4203
  571SOL    HW2 1713   0.809   2.970   1.090  1.0283 -0.9898 -0.3965
  572SOL     OW 1714   1.649   2.722   1.421 -0.2530  0.5024  0.0769
  572SOL    HW1 1715   1.563   2.678   1.393  0.5647  0.9580 -0.4302
  572SOL    HW2 1716   1.651   2.821   1.379  1.5998  1.7501 -0.6324
  573SOL     OW 1717   3.040   0.490   1.924 -0.7022 -0.0965  0.7024
  573SOL    HW1 1718   2.979   0.415   1.951 -0.4819  0.2432 -1.2184
  573SOL    HW2 1719   3.092   0.476   1.834 -0.5612  0.8532 -2.8318
  574SOL     OW 1720   0.125   1.659   1.103 -0.4921 -0.0611  0.1490
  574SOL    HW1 1721   0.197   1.653   1.179  1.4788  1.7654 -1.5813
  574SOL    HW2 1722   0.102   1.760   1.083  0.4011 -0.3574 -2.1368
  575SOL     OW 1723   0.876   2.246   0.994 -0.2784  0.3942  0.1358
  575SOL    HW1 1724   0.839   2.310   1.072 -1.3734  0.8496  0.4565
  575SOL    HW2 1725   0.902   2.300   0.910 -1.0107 -1.0718 -1.4895
  576SOL     OW 1726   2.935   2.996   1.706 -0.2655 -0.4064 -0.1775
  576SOL    HW1 1727   2.833   2.987   1.685 -0.0756 -0.0387  1.1506
  576SOL    HW2 1728   2.978   3.083   1.668  0.8448  3.1843 -2.9134
  577SOL     OW 1729   2.666   1.231   3.051  0.0468 -0.5022 -0.3059
  577SOL    HW1 1730   2.632   1.146   2.998  0.5738 -1.8197 -1.6216
  577SOL    HW2 1731   2.748   1.222   3.113 -2.1644  0.3967 -0.4721
  578SOL     OW 1732   1.399   2.712   2.539  0.1584 -0.6929  0.1996
  578SOL    HW1 1733   1.306   2.753   2.521 -1.1026 -1.5547 -0.5769
  578SOL    HW2 1734   1.475   2.761   2.487 -0.9156 -1.9987  1.0126
  579SOL     OW 1735   0.100   2.398   0.161 -0.0708 -0.2476  0.0285
  579SOL    HW1 1736   0.028   2.374   0.229  0.4995 -1.1355  0.7772
  579SOL    HW2 1737   0.190   2.435   0.206  1.9297 -0.2230  1.4530
  580SOL     OW 1738   0.937   2.671   0.411 -0.0517 -0.2748 -0.0117
  580SOL    HW1 1739   0.990   2.696   0.325  0.0844 -0.1338  0.3842
  580SOL    HW2 1740   0.837   2.671   0.390  2.0245  1.3432  0.6528
  581SOL     OW 1741   1.277   2.740   1.473 -0.2526  0.4375  0.4160
  581SOL    HW1 1742   1.345   2.661   1.480 -0.2766  1.8139 -1.1810
  581SOL    HW2 1743   1.319   2.826   1.424 -0.0093  0.9024 -0.7974
  582SOL     OW 1744   1.509   0.053   1.879  0.0379 -0.0710 -0.8088
  582SOL    HW1 1745   1.500   0.110   1.965 -0.7026 -0.4604  0.5376
  582SOL    HW2 1746   1.581   0.096   1.811 -0.8693  1.5122 -0.5920
  583SOL     OW 1747   2.434   2.996   0.493 -0.3108 -0.5604 -0.2160
  583SOL    HW1 1748   2.506   2.933   0.452  0.6196 -0.7887 -1.0602
  583SOL    HW2 1749   2.363   2.957   0.555 -1.3806 -1.0886  0.3206
  584SOL     OW 1750   1.556   1.086   2.248 -0.5834 -0.3019 -0.2360
  584SOL    HW1 1751   1.607   1.166   2.206 -0.0957  0.0346 -1.4106
  584SOL    HW2 1752   1.628   1.023   2.299  0.6972 -2.9125  4.0005
  585SOL     OW 1753   2.030   2.665   2.888  0.3630 -0.0833 -0.1419
  585SOL    HW1 1754   2.053   2.568   2.845  1.2695 -3.5702  0.7344
  585SOL    HW2 1755   1.929   2.690   2.878 -0.7265  1.5611  2.2232
  586SOL     OW 1756   2.927   0.395   1.597 -0.4255  0.2765 -0.0305
  586SOL    HW1 1757   2.926   0.485   1.649 -1.9222 -3.8301 -2.6160
  586SOL    HW2 1758   2.834   0.349   1.593 -1.4215 -0.8109 -2.7412
  587SOL     OW 1759   2.178   1.470   2.768  0.0245  0.2839  0.1795
  587SOL    HW1 1760   2.184   1.402   2.687  1.5285 -1.6874 -0.8933
  587SOL    HW2 1761   2.271   1.518   2.788 -0.0186  1.8425  0.9604
  588SOL     OW 1762   0.490   2.626   2.283 -0.3168  0.5365 -0.4820
  588SOL    HW1 1763   0.450   2.685   2.208  3.3811 -1.6217 -0.4810
  588SOL    HW2 1764   0.429   2.549   2.312 -2.5318 -2.8944 -2.3506
  589SOL     OW 1765   2.175   1.364   2.514  0.1326  0.2983  0.4872
  589SOL    HW1 1766   2.105   1.343   2.436 -2.3301  1.3853 -2.0456
  589SOL    HW2 1767   2.267   1.316   2.497 -0.4672  1.8681 -0.6771
  590SOL     OW 1768   2.297   1.700   2.078  0.2984  0.0500 -0.3726
  590SOL    HW1 1769   2.369   1.628   2.049 -1.0822 -0.8767 -1.5867
  590SOL    HW2 1770   2.309   1.734   2.176 -1.3329  0.9772  1.7835
  591SOL     OW 1771   1.342   2.453   0.176 -0.0794 -0.1124  0.3903
  591SOL    HW1 1772   1.369   2.364   0.124  3.6075 -1.3822 -0.4777
  591SOL    HW2 1773   1.332   2.440   0.275  2.7477 -0.1361 -2.4653
  592SOL     OW 1774   1.785   2.349   0.809  0.2245  0.0930  0.0523
  592SOL    HW1 1775   1.793   2.389   0.713 -0.1033 -1.0495 -2.2007
  592SOL    HW2 1776   1.877   2.356   0.858  2.8507  1.7904 -0.7617
  593SOL     OW 1777   0.745   0.290   0.201 -0.1204 -0.0834 -0.5897
  593SOL    HW1 1778   0.783   0.267   0.109  1.9090  0.1256  1.3760
  593SOL    HW2 1779   0.691   0.381   0.198 -0.7247  0.4095 -1.3254
  594SOL     OW 1780   1.092   1.786   2.660 -0.1869 -0.1860 -0.1230
  594SOL    HW1 1781   1.182   1.794   2.620 -0.8789 -0.1191 -0.6801
  594SOL    HW2 1782   1.090   1.817   2.757 -1.1215  1.5114  0.7358
  595SOL     OW 1783   1.533   0.155   0.996 -0.1391  0.0874 -0.0916
  595SOL    HW1 1784   1.598   0.082   0.967 -0.6223 -2.0972 -0.9929
  595SOL    HW2 1785   1.437   0.116   0.983 -0.3629 -1.9185  0.5275
  596SOL     OW 1786   0.171   1.406   2.197  0.0918  0.4441 -0.5275
  596SOL    HW1 1787   0.085   1.342   2.212 -1.2414  2.6319 -1.3115
  596SOL    HW2 1788   0.199   1.458   2.282  2.2482  0.2908 -0.9892
  597SOL     OW 1789   1.994   2.695   1.822 -0.2533 -0.0261 -0.2152
  597SOL    HW1 1790   1.943   2.660   1.737 -1.8598 -1.3279 -0.6819
  597SOL    HW2 1791   2.089   2.669   1.819 -2.3904 -0.2838 -0.8710
  598SOL     OW 1792   2.482   2.823   1.294  0.0583 -0.5530 -0.0737
  598SOL    HW1 1793   2.578   2.868   1.288  0.3654  1.7412 -1.1339
  598SOL    HW2 1794   2.460   2.760   1.213 -1.0150 -0.6455 -1.7094
  599SOL     OW 1795   2.902   0.270   2.517  0.5884 -0.1627 -0.3346
  599SOL    HW1 1796   2.981   0.259   2.449 -0.7735  0.2901 -0.5889
  599SOL    HW2 1797   2.830   0.332   2.469  2.1549 -1.9436 -1.5833
  600SOL     OW 1798   2.770   1.157   2.762  0.1194  0.2015 -0.3379
  600SOL    HW1 1799   2.732   1.087   2.828  0.9957 -0.3353 -0.1561
  600SOL    HW2 1800   2.790   1.252   2.807 -2.3320 -0.5045  1.2426
  601SOL     OW 1801   2.974   1.362   1.942  0.2867  0.3152 -0.5394
  601SOL    HW1 1802   2.889   1.388   1.894  4.2757 -0.2215 -1.8515
  601SOL    HW2 1803   3.042   1.443   1.942  2.5205  0.2272  1.3351
  602SOL     OW 1804   1.549   1.550   2.321 -0.4376  0.2619  0.6726
  602SOL    HW1 1805   1.467   1.543   2.387 -2.2740 -1.1960  0.3942
  602SOL    HW2 1806   1.637   1.587   2.366 -0.9740  0.0219 -0.2766
  603SOL     OW 1807   0.597   1.178   2.698 -0.0549 -0.7046  0.1936
  603SOL    HW1 1808   0.537   1.229   2.630  1.3090  0.6512 -0.4917
  603SOL    HW2 1809   0.637   1.084   2.666 -2.2354 -2.3154  0.8922
  604SOL     OW 1810   2.535   1.065   0.233 -0.3043 -0.0393 -0.2823
  604SOL    HW1 1811   2.637   1.094   0.240  0.2451 -1.8221 -1.4081
  604SOL    HW2 1812   2.518   1.010   0.146  2.5096 -2.4622  1.5162
  605SOL     OW 1813   2.592   1.198   1.905  0.2633  0.0587  0.1039
  605SOL    HW1 1814   2.609   1.102   1.864  0.5737 -1.3813 -1.2321
  605SOL    HW2 1815   2.659   1.229   1.979  2.3495  0.3377  1.0571
  606SOL     OW 1816   1.540   2.476   2.582 -0.0813 -0.1192 -0.4840
  606SOL    HW1 1817   1.480   2.564   2.589  0.2578  1.6292  0.6409
  606SOL    HW2 1818   1.481   2.394   2.567 -3.4871  2.6298 -0.9139
  607SOL     OW 1819   1.275   1.569   0.274  0.3754 -0.4593  0.1714
  607SOL    HW1 1820   1.205   1.634   0.314  0.0821 -0.4620  1.0644
  607SOL    HW2 1821   1.375   1.605   0.265  3.9500 -2.9228  1.7921
  608SOL     OW 1822   1.390   2.785   0.330  0.6093 -0.3670 -0.1686
  608SOL    HW1 1823   1.468   2.814   0.267  2.3012 -0.8389 -0.8416
  608SOL    HW2 1824   1.350   2.872   0.373  0.5144  0.6595  0.0908
  609SOL     OW 1825   1.300   1.325   0.189 -0.1103  0.0819  0.0537
  609SOL    HW1 1826   1.289   1.421   0.238 -0.0789 -0.6472 -0.8442
  609SOL    HW2 1827   1.233   1.308   0.116  0.2192  2.4907  2.3314
  610SOL     OW 1828   3.041   1.230   2.183  0.4655  0.4423 -0.6259
  610SOL    HW1 1829   2.977   1.170   2.231  1.3442  2.8933 -0.7277
  610SOL    HW2 1830   2.989   1.288   2.115  0.6929 -3.0602  0.4836
  611SOL     OW 1831   2.560   0.186   1.149 -0.1693 -0.0731  0.4299
  611SOL    HW1 1832   2.498   0.105   1.177 -1.3262 -1.1894  3.4572
  611SOL    HW2 1833   2.648   0.191   1.206  1.2417 -0.6407  0.5748
  612SOL     OW 1834   0.767   2.360   1.256 -0.2598 -0.0746 -0.3096
  612SOL    HW1 1835   0.694   2.290   1.250  0.7902  0.5726  1.2504
  612SOL    HW2 1836   0.732   2.456   1.245  2.9013 -0.0338  1.5520
  613SOL     OW 1837   0.777   1.373   2.397  0.0984 -0.3696  0.5646
  613SOL    HW1 1838   0.814   1.446   2.331 -1.9197  0.1231  0.9185
  613SOL    HW2 1839   0.757   1.283   2.346  0.9779  2.2321 -1.3026
  614SOL     OW 1840   1.500   1.658   1.929 -0.1462 -0.2826  0.7766
  614SOL    HW1 1841   1.464   1.720   1.851 -4.0539 -0.6726  3.2222
  614SOL    HW2 1842   1.591   1.696   1.966 -3.4515 -1.9666  0.0228
  615SOL     OW 1843   0.708   1.474   1.705 -0.6466 -0.2732 -0.2228
  615SOL    HW1 1844   0.646   1.399   1.661  0.5882  2.1807 -1.1081
  615SOL    HW2 1845   0.785   1.506   1.644  1.5919  1.6080  0.5818
  616SOL     OW 1846   1.143   1.590   2.202 -0.0428  0.5795  0.3914
  616SOL    HW1 1847   1.040   1.600   2.204  0.1066 -0.1690 -0.0828
  616SOL    HW2 1848   1.178   1.618   2.106  0.5786  3.1595 -0.5655
  617SOL     OW 1849   2.968   1.587   1.639 -0.7464 -0.1446 -0.2579
  617SOL    HW1 1850   2.892   1.542   1.694 -1.8409 -0.7763  0.7553
  617SOL    HW2 1851   2.997   1.522   1.563 -2.7911  0.8010 -1.9030
  618SOL     OW 1852   1.922   2.000   1.457  0.2175  0.1994 -0.2153
  618SOL    HW1 1853   2.010   1.996   1.399  0.3793 -0.0176  0.5494
  618SOL    HW2 1854   1.905   1.908   1.500 -0.9277 -1.9035  1.5648
  619SOL     OW 1855   1.781   0.542   2.364 -0.0307 -0.2392  0.3247
  619SOL    HW1 1856   1.705   0.579   2.299  2.0504  1.4998  0.8084
  619SOL    HW2 1857   1.777   0.440   2.387  2.4049 -1.9189 -0.8696
  620SOL     OW 1858   2.222   2.901   0.673  0.3031  0.3112  0.0534
  620SOL    HW1 1859   2.125   2.945   0.665 -1.1254  0.0612  1.1709
  620SOL    HW2 1860   2.253   2.892   0.773 -0.5812 -1.6522  0.9037
  621SOL     OW 1861   2.144   1.886   1.356 -0.4320 -0.2501  0.2140
  621SOL    HW1 1862   2.154   1.856   1.451 -1.1645 -1.1456  0.1643
  621SOL    HW2 1863   2.134   1.803   1.297 -0.4443  0.6260 -0.9312
  622SOL     OW 1864   2.238   0.986   1.848  0.3412 -0.5029 -0.1634
  622SOL    HW1 1865   2.273   0.889   1.854 -0.9675  0.0100  1.4960
  622SOL    HW2 1866   2.139   0.987   1.894  0.4117 -0.2937  1.2319
  623SOL     OW 1867   1.269   0.927   2.572 -0.6915 -0.0012  0.2448
  623SOL    HW1 1868   1.235   0.843   2.630  1.6859 -3.6454 -1.5637
  623SOL    HW2 1869   1.233   0.938   2.476 -2.4496 -0.1983  0.7973
  624SOL     OW 1870   0.542   0.689   3.091 -0.1930 -0.1752 -0.6119
  624SOL    HW1 1871   0.588   0.747   3.013 -1.8240  1.9194  2.4903
  624SOL    HW2 1872   0.473   0.756   3.144 -0.8154  0.7284 -3.0903
  625SOL     OW 1873   2.786   1.742   0.807  0.1328  0.3808  0.5814
  625SOL    HW1 1874   2.734   1.740   0.897 -1.2020 -0.3380 -1.4929
  625SOL    HW2 1875   2.720   1.706   0.735  1.8585  0.6685 -1.7332
  626SOL     OW 1876   0.388   2.796   2.068 -0.3917  0.3102  0.4141
  626SOL    HW1 1877   0.439   2.885   2.058  1.1449 -1.9030  0.3964
  626SOL    HW2 1878   0.310   2.790   2.002  1.7311  0.8332  1.1536
  627SOL     OW 1879   0.710   1.027   1.499  0.7202 -0.1000  0.2985
  627SOL    HW1 1880   0.734   0.924   1.511 -0.4833 -2.2016  0.4443
  627SOL    HW2 1881   0.780   1.080   1.442 -3.7624 -1.2911  0.2668
  628SOL     OW 1882   2.451   0.132   0.677  0.3249 -0.2399 -0.4582
  628SOL    HW1 1883   2.481   0.044   0.629 -0.8597  0.7518  1.6645
  628SOL    HW2 1884   2.352   0.131   0.710  0.0993 -2.4580 -2.5940
  629SOL     OW 1885   1.978   0.971   1.953  0.2227  0.6730 -0.0151
  629SOL    HW1 1886   2.009   0.963   2.052 -0.5389 -0.7850  1.9815
  629SOL    HW2 1887   1.933   1.062   1.938  0.8252 -0.3535 -0.9998
  630SOL     OW 1888   2.840   2.202   0.770  0.0561  0.4100  0.5425
  630SOL    HW1 1889   2.765   2.268   0.804  1.4382  0.0378  0.0886
  630SOL    HW2 1890   2.803   2.122   0.709 -1.7632 -2.4076 -2.3638
  631SOL     OW 1891   3.001   0.168   2.132  0.0888 -0.4194 -0.3396
  631SOL    HW1 1892   3.013   0.241   2.199 -0.5093 -1.2938 -2.4032
  631SOL    HW2 1893   3.070   0.170   2.056 -0.3447 -1.5508 -0.7681
  632SOL     OW 1894   2.380   2.524   0.767  0.0555  0.4319  0.0803
  632SOL    HW1 1895   2.468   2.569   0.803  1.7806  1.2855  1.0603
  632SOL    HW2 1896   2.324   2.594   0.718 -3.3699 -4.5146  1.5030
  633SOL     OW 1897   1.589   1.266   2.699  0.2005 -0.4624  0.1508
  633SOL    HW1 1898   1.568   1.352   2.751 -2.3028 -1.8554  0.6402
  633SOL    HW2 1899   1.506   1.243   2.640 -0.3719 -0.4008 -0.4335
  634SOL     OW 1900   0.646   2.073   0.898  0.6118  0.1074 -0.1596
  634SOL    HW1 1901   0.559   2.097   0.952 -3.0226 -1.4151 -1.1500
  634SOL    HW2 1902   0.709   2.151   0.902 -1.7342 -2.7841  3.1319
  635SOL     OW 1903   0.064   2.246   3.049 -0.6486 -0.0623  0.3476
  635SOL    HW1 1904   0.019   2.286   2.964  2.2630  0.5951 -2.7511
  635SOL    HW2 1905   0.087   2.317   3.123 -0.1625  3.0665  1.3732
  636SOL     OW 1906   2.336   2.861   2.018  0.0592 -0.1571 -0.1486
  636SOL    HW1 1907   2.300   2.954   1.984 -1.0321 -0.2831  1.5088
  636SOL    HW2 1908   2.285   2.819   2.097 -2.5630 -3.5213  0.3149
  637SOL     OW 1909   2.582   0.720   2.073 -0.3857  0.0647  0.1206
  637SOL    HW1 1910   2.586   0.681   1.977  0.0957  1.4859  1.7457
  637SOL    HW2 1911   2.631   0.814   2.086 -0.3030 -1.7201  0.4460
  638SOL     OW 1912   2.406   1.894   1.432 -0.1697  0.3817 -0.1909
  638SOL    HW1 1913   2.304   1.871   1.419 -3.7086 -3.6929  0.5983
  638SOL    HW2 1914   2.467   1.812   1.445 -1.9829 -0.3973 -0.5186
  639SOL     OW 1915   1.289   2.236   1.565  0.0720 -0.0054  0.5505
  639SOL    HW1 1916   1.283   2.151   1.503 -1.2843  0.0412  0.0334
  639SOL    HW2 1917   1.215   2.239   1.636 -1.3983 -0.2143 -1.6749
  640SOL     OW 1918   0.254   1.203   1.541  0.7690 -0.1297  0.8299
  640SOL    HW1 1919   0.272   1.262   1.627  1.1219 -1.0668  3.7756
  640SOL    HW2 1920   0.342   1.161   1.508  0.9010 -2.0068  0.3210
  641SOL     OW 1921   1.878   0.261   1.430 -0.0756  0.0386  0.5007
  641SOL    HW1 1922   1.802   0.325   1.460  0.3799  2.1436  0.1136
  641SOL    HW2 1923   1.923   0.214   1.505 -2.7650  0.0928 -4.1211
  642SOL     OW 1924   1.999   0.108   0.324 -0.3355  0.2902 -0.4386
  642SOL    HW1 1925   2.102   0.128   0.325 -0.8087 -0.9002  1.1468
  642SOL    HW2 1926   1.974   0.075   0.416  0.6382 -0.5822 -0.7461
  643SOL     OW 1927   2.801   1.885   2.125 -0.2542 -0.1465 -0.6965
  643SOL    HW1 1928   2.754   1.814   2.062 -0.9918 -1.2490  1.4110
  643SOL    HW2 1929   2.826   1.975   2.074 -0.8154  1.4438 -0.8022
  644SOL     OW 1930   2.197   2.275   1.233  0.2560  0.2346  0.1480
  644SOL    HW1 1931   2.281   2.224   1.197 -0.4834  0.7027  0.8061
  644SOL    HW2 1932   2.200   2.294   1.341 -0.9005  0.9882  0.5895
  645SOL     OW 1933   0.679   0.830   1.095 -0.5791 -0.1619 -0.6092
  645SOL    HW1 1934   0.626   0.762   1.036  2.8734 -1.7591 -2.7093
  645SOL    HW2 1935   0.652   0.924   1.059 -0.0005  0.8191  0.4056
  646SOL     OW 1936   1.450   1.891   1.800  0.1436  0.2276  0.3703
  646SOL    HW1 1937   1.541   1.941   1.776  0.9900 -1.8803 -2.7658
  646SOL    HW2 1938   1.396   1.931   1.880  0.9036 -2.3129 -0.2003
  647SOL     OW 1939   0.899   0.929   0.691 -0.2228 -0.1631  0.0251
  647SOL    HW1 1940   0.972   0.925   0.764  2.4684  0.0724 -0.6509
  647SOL    HW2 1941   0.796   0.922   0.721 -1.0228 -1.2726 -1.4776
  648SOL     OW 1942   0.086   0.248   0.329 -0.9500  0.0035  0.0108
  648SOL    HW1 1943   0.038   0.158   0.308  0.3627 -1.5887 -1.7298
  648SOL    HW2 1944   0.083   0.319   0.255  0.9187 -3.1008  4.5856
  649SOL     OW 1945   0.004   0.015   0.948 -0.3341  0.2756 -0.0799
  649SOL    HW1 1946   0.098   0.005   0.906  1.4650  0.5854 -1.4767
  649SOL    HW2 1947   0.012   0.057   1.043  3.9762 -1.2818 -0.4997
  650SOL     OW 1948   2.735   0.716   1.452  0.4406 -0.1115  0.3270
  650SOL    HW1 1949   2.637   0.685   1.467 -0.0181 -1.8046  1.5785
  650SOL    HW2 1950   2.732   0.798   1.387  0.6741  0.3643 -1.6757
  651SOL     OW 1951   0.900   1.612   1.510 -0.7762  0.4759 -0.5977
  651SOL    HW1 1952   0.964   1.678   1.556 -0.8698 -1.4635 -0.7714
  651SOL    HW2 1953   0.808   1.657   1.471  0.4185  2.8107  1.0708
  652SOL     OW 1954   2.314   2.502   2.380  0.0132  0.0413 -0.4723
  652SOL    HW1 1955   2.220   2.487   2.427  2.1017 -1.6839  0.4771
  652SOL    HW2 1956   2.313   2.596   2.333  0.5922  3.7762 -2.2939
  653SOL     OW 1957   2.796   1.162   0.249 -0.0126 -0.3852 -0.7548
  653SOL    HW1 1958   2.853   1.245   0.246 -1.8303  0.3481  1.0615
  653SOL    HW2 1959   2.850   1.081   0.292  3.1804 -0.7982  0.9490
  654SOL     OW 1960   1.184   2.223   1.229  0.0886  0.2801  0.1543
  654SOL    HW1 1961   1.227   2.149   1.287 -2.1469 -0.2737  0.9450
  654SOL    HW2 1962   1.221   2.227   1.133 -1.1278  2.2674  0.6524
  655SOL     OW 1963   0.225   1.068   1.908 -0.1557 -0.4486  0.4138
  655SOL    HW1 1964   0.258   0.995   1.852 -0.2022  0.3647  2.5172
  655SOL    HW2 1965   0.288   1.150   1.902 -0.6879  2.7106  0.0995
  656SOL     OW 1966   2.461   2.412   2.563  0.0096 -0.4767  0.1160
  656SOL    HW1 1967   2.553   2.468   2.569  0.9062 -1.7226 -0.9686
  656SOL    HW2 1968   2.397   2.448   2.485  1.8432 -0.5043  0.1089
  657SOL     OW 1969   3.067   1.103   1.882  0.0726  0.0905  0.1826
  657SOL    HW1 1970   3.028   1.191   1.922 -0.7973  1.2703 -1.6696
  657SOL    HW2 1971   3.172   1.105   1.881 -0.7735  0.4281 -1.8385
  658SOL     OW 1972   1.692   0.236   2.371  0.1491  0.1150  0.1309
  658SOL    HW1 1973   1.707   0.159   2.434 -1.9253  1.5876  1.4764
  658SOL    HW2 1974   1.764   0.249   2.290  0.7125  2.5179 -2.5082
  659SOL     OW 1975   1.409   0.627   2.833  0.2221 -0.0173 -0.2814
  659SOL    HW1 1976   1.493   0.671   2.874 -0.9552 -0.8064  0.0281
  659SOL    HW2 1977   1.350   0.690   2.775 -0.3372 -1.0165 -1.2516
  660SOL     OW 1978   1.384   0.435   1.388 -0.2823 -0.1890  0.6692
  660SOL    HW1 1979   1.399   0.448   1.492  1.3081  0.9528  3.3076
  660SOL    HW2 1980   1.441   0.357   1.351 -0.7363  0.0103  2.4737
  661SOL     OW 1981   2.465   1.128   0.671 -0.1668 -0.2811  0.2823
  661SOL    HW1 1982   2.495   1.059   0.597 -1.3059 -0.3796  0.7677
  661SOL    HW2 1983   2.382   1.184   0.639 -0.1238  1.1853 -0.4522
  662SOL     OW 1984   1.269   0.449   1.834 -0.0383 -0.0805  0.3428
  662SOL    HW1 1985   1.230   0.354   1.835 -3.6522  0.1744  0.8503
  662SOL    HW2 1986   1.244   0.518   1.908 -1.2782  3.7655  0.4677
  663SOL     OW 1987   0.845   1.577   2.209  0.8374  0.2713  0.5692
  663SOL    HW1 1988   0.810   1.677   2.220 -1.9910  0.6889 -1.3049
  663SOL    HW2 1989   0.801   1.529   2.129 -2.2937 -0.6665 -1.9515
  664SOL     OW 1990   1.649   2.071   1.384  0.1001 -0.2601 -0.0721
  664SOL    HW1 1991   1.592   2.014   1.450 -1.7625  0.2792 -0.1700
  664SOL    HW2 1992   1.752   2.056   1.394 -1.1988 -2.1247  0.0480
  665SOL     OW 1993   2.314   0.617   1.996 -0.1428  0.2093 -0.0006
  665SOL    HW1 1994   2.327   0.518   2.038 -0.9826  1.1303 -1.1727
  665SOL    HW2 1995   2.237   0.678   2.036 -0.3832  0.9402 -1.1105
  666SOL     OW 1996   0.459   2.264   0.463 -0.0461  0.2315 -0.0310
  666SOL    HW1 1997   0.494   2.361   0.489 -1.2493  1.3041  2.5404
  666SOL    HW2 1998   0.403   2.220   0.539  1.2055 -1.2353 -2.5945
  667SOL     OW 1999   2.088   0.196   1.015  0.0736 -0.6163  0.4706
  667SOL    HW1 2000   2.165   0.265   1.002 -0.6537 -1.8727 -1.7816
  667SOL    HW2 2001   2.004   0.229   1.069 -1.0887 -0.0589  3.1671
  668SOL     OW 2002   2.027   0.646   1.271  0.2994  0.2888  0.0616
  668SOL    HW1 2003   2.065   0.574   1.204  0.2667  0.6013  0.0115
  668SOL    HW2 2004   2.048   0.623   1.368  2.2368  0.8303  1.8701
  669SOL     OW 2005   3.010   2.119   0.958 -0.4578  1.1206  0.1999
  669SOL    HW1 2006   2.962   2.147   0.866  1.6503 -0.2911 -0.7044
  669SOL    HW2 2007   2.962   2.163   1.041  1.3426 -1.7376 -1.5082
  670SOL     OW 2008   2.797   2.331   2.003  0.2848  0.1714 -0.0939
  670SOL    HW1 2009   2.753   2.312   2.096  0.6913  1.7335 -0.5295
  670SOL    HW2 2010   2.761   2.421   1.959  0.1042  2.1237 -1.1113
  671SOL     OW 2011   1.657   1.715   1.478  0.6263  0.1290 -0.0692
  671SOL    HW1 2012   1.688   1.712   1.381  0.3013  1.2515  0.2952
  671SOL    HW2 2013   1.579   1.776   1.494  0.2115  2.1969  3.2799
  672SOL     OW 2014   0.385   0.664   2.447  0.1484  0.1306  0.2260
  672SOL    HW1 2015   0.408   0.651   2.349 -0.2947  0.8134  1.6802
  672SOL    HW2 2016   0.313   0.742   2.462 -0.3931  3.9509 -0.6772
  673SOL     OW 2017   0.143   1.249   1.071  0.1219  0.1329 -0.1379
  673SOL    HW1 2018   0.147   1.311   1.155  0.9053  2.4292 -1.1072
  673SOL    HW2 2019   0.241   1.212   1.043  1.8568 -1.3691 -1.6489
  674SOL     OW 2020   1.572   2.903   0.148  0.7333  0.1790  0.0051
  674SOL    HW1 2021   1.577   2.993   0.098  0.0263 -0.3227 -1.7558
  674SOL    HW2 2022   1.619   2.824   0.097 -1.6117  1.1003  0.1095
  675SOL     OW 2023   1.717   0.896   2.348  0.1283  0.0012 -0.8068
  675SOL    HW1 2024   1.819   0.901   2.363  0.3709  0.2556 -0.5837
  675SOL    HW2 2025   1.683   0.817   2.295 -1.5984 -0.2502  1.9466
  676SOL     OW 2026   2.517   1.520   2.030  0.3804  0.3247 -0.0353
  676SOL    HW1 2027   2.491   1.492   1.931  2.1930  1.5251  0.2904
  676SOL    HW2 2028   2.588   1.457   2.072  0.7353 -3.2382 -1.8511
  677SOL     OW 2029   1.916   0.548   0.902  0.8491 -0.3758  0.0347
  677SOL    HW1 2030   1.890   0.640   0.938  0.0604  0.6298 -2.3659
  677SOL    HW2 2031   1.855   0.477   0.941  1.2725  3.7378  0.5147
  678SOL     OW 2032   0.085   0.793   1.648 -0.2086 -0.4902 -0.3607
  678SOL    HW1 2033   0.183   0.818   1.680 -0.3382 -0.5454 -1.3176
  678SOL    HW2 2034   0.020   0.775   1.730 -1.4555 -2.3649  0.1916
  679SOL     OW 2035   2.454   1.202   1.160 -0.6430 -0.5868 -0.0623
  679SOL    HW1 2036   2.355   1.210   1.185  0.7219  1.3420 -2.1865
  679SOL    HW2 2037   2.479   1.105   1.127 -0.2789  1.0927  0.4215
  680SOL     OW 2038   2.877   0.643   1.702  0.0033  0.0625  0.2442
  680SOL    HW1 2039   2.858   0.677   1.604 -0.6037  0.8802  0.1204
  680SOL    HW2 2040   2.926   0.715   1.756  0.8307 -2.2700 -2.4011
  681SOL     OW 2041   3.072   0.143   1.648 -0.2509  0.1792  0.4895
  681SOL    HW1 2042   3.135   0.109   1.571 -0.2690 -0.3362 -1.6952
  681SOL    HW2 2043   3.037   0.238   1.627 -0.6728 -1.8762 -0.4109
  682SOL     OW 2044   0.719   3.087   1.341 -0.2935 -0.1258 -0.6564
  682SOL    HW1 2045   0.660   3.010   1.381 -0.3211  3.1230 -2.5027
  682SOL    HW2 2046   0.736   3.086   1.240  1.0363 -1.5166  2.2954
  683SOL     OW 2047   1.404   0.232   2.179  0.6264  0.0125  0.3314
  683SOL    HW1 2048   1.403   0.290   2.267  0.5072 -0.2247 -0.4377
  683SOL    HW2 2049   1.490   0.254   2.119  1.7747 -0.6270 -1.2555
  684SOL     OW 2050   1.450   2.131   0.479 -0.2724  0.0141 -0.0578
  684SOL    HW1 2051   1.498   2.079   0.557 -0.9137  1.8965  1.4740
  684SOL    HW2 2052   1.375   2.076   0.435 -0.4614 -1.1974  2.0427
  685SOL     OW 2053   2.158   1.939   1.966  0.3291 -0.6390  0.5145
  685SOL    HW1 2054   2.211   2.016   1.921 -0.0550  0.9358  2.4508
  685SOL    HW2 2055   2.220   1.867   2.000 -0.5113  0.1095  2.0782
  686SOL     OW 2056   1.531   1.712   2.771  0.2842 -0.3436  0.3058
  686SOL    HW1 2057   1.515   1.614   2.776 -2.7195 -0.2707  0.9722
  686SOL    HW2 2058   1.570   1.748   2.861  2.3895 -0.9364 -0.3447
  687SOL     OW 2059   1.349   2.496   1.896  0.0745  0.0790  0.1343
  687SOL    HW1 2060   1.405   2.429   1.835  1.0200 -3.6644 -0.8047
  687SOL    HW2 2061   1.398   2.512   1.987  1.8999  0.5870 -0.5849
  688SOL     OW 2062   2.081   1.508   1.588  0.5716  0.1834 -0.4474
  688SOL    HW1 2063   2.173   1.553   1.563  1.3873  1.6213  0.4457
  688SOL    HW2 2064   2.042   1.460   1.508 -0.8172 -1.3260  1.7190
  689SOL     OW 2065   2.435   1.058   2.703  0.4057 -0.0561  0.2015
  689SOL    HW1 2066   2.379   1.003   2.769 -0.3391 -1.2973  0.8440
  689SOL    HW2 2067   2.528   1.095   2.735  0.8371  1.4104 -0.5693
  690SOL     OW 2068   2.226   2.771   3.054  0.3419  0.3042 -0.6014
  690SOL    HW1 2069   2.147   2.718   3.024  1.2842 -0.3771  1.8786
  690SOL    HW2 2070   2.206   2.818   3.145 -0.8867 -1.7175  1.8443
  691SOL     OW 2071   2.580   0.454   2.181  0.0570 -0.0764 -0.1482
  691SOL    HW1 2072   2.643   0.396   2.122  0.1427 -0.0083  1.6232
  691SOL    HW2 2073   2.587   0.558   2.164  2.2505 -0.5431  3.0816
  692SOL     OW 2074   2.725   1.255   0.665 -0.4968  0.3970 -0.4250
  692SOL    HW1 2075   2.633   1.235   0.705 -1.1760  1.3627 -1.0418
  692SOL    HW2 2076   2.788   1.313   0.724 -1.5034 -4.3509 -0.1396
  693SOL     OW 2077   2.831   2.936   0.616 -0.4878  0.7950  0.3536
  693SOL    HW1 2078   2.847   3.021   0.670 -0.9332 -1.8700 -0.3786
  693SOL    HW2 2079   2.779   2.952   0.528  0.9362 -0.6117  0.0805
  694SOL     OW 2080   2.389   2.140   0.074  0.6987  0.8604 -0.0267
  694SOL    HW1 2081   2.366   2.242   0.076  0.3624 -2.5785 -0.7531
  694SOL    HW2 2082   2.294   2.089   0.064 -2.8027 -0.8207 -2.0747
  695SOL     OW 2083   0.552   2.903   1.479  0.0490 -0.2470  0.3762
  695SOL    HW1 2084   0.487   2.827   1.473  0.6469  3.8420  0.4281
  695SOL    HW2 2085   0.538   2.962   1.565 -1.0824  0.7441 -0.7940
  696SOL     OW 2086   2.728   1.978   0.643  0.0697  0.3539  0.4783
  696SOL    HW1 2087   2.766   1.901   0.705 -1.1819 -0.0644 -0.3844
  696SOL    HW2 2088   2.664   1.946   0.563  1.0205  1.1850 -2.2547
  697SOL     OW 2089   1.669   2.047   1.717 -0.0025 -0.3163  0.1388
  697SOL    HW1 2090   1.756   2.012   1.762 -0.5795 -1.4889 -1.3948
  697SOL    HW2 2091   1.677   2.118   1.646 -0.4996 -1.1100  0.5402
  698SOL     OW 2092   2.922   0.319   2.802 -0.0960  0.5081  0.8676
  698SOL    HW1 2093   2.935   0.284   2.705  1.1086  0.9992 -3.4413
  698SOL    HW2 2094   3.004   0.296   2.859  0.0248 -1.2259 -0.7885
  699SOL     OW 2095   1.523   0.105   2.928  0.0225  0.2104 -0.0377
  699SOL    HW1 2096   1.480   0.014   2.899  0.7150  0.9538  0.4780
  699SOL    HW2 2097   1.583   0.143   2.854 -0.5165  1.2034  0.1529
  700SOL     OW 2098   0.992   2.398   1.392  0.3655  0.7815 -0.5886
  700SOL    HW1 2099   1.072   2.339   1.367  0.4900 -2.2631 -0.0826
  700SOL    HW2 2100   0.915   2.382   1.322  0.2513  1.1397  1.5813
  701SOL     OW 2101   1.859   2.807   0.027 -0.3331  0.3784  0.2450
  701SOL    HW1 2102   1.863   2.735   0.104 -1.3882 -1.8324 -0.3684
  701SOL    HW2 2103   1.885   2.900   0.060 -0.6127 -0.9530  0.8653
  702SOL     OW 2104   2.083   1.367   1.820  0.1307 -0.1953 -0.1643
  702SOL    HW1 2105   2.181   1.344   1.839  2.5736  0.2529 -4.1701
  702SOL    HW2 2106   2.077   1.427   1.736  0.9707 -1.8974  2.0767
  703SOL     OW 2107   1.990   0.873   1.474 -0.5048  0.4965  0.0576
  703SOL    HW1 2108   1.990   0.781   1.527  0.3442 -0.0241  3.9206
  703SOL    HW2 2109   2.048   0.944   1.522 -1.0850  0.2629 -0.1365
  704SOL     OW 2110   0.269   2.066   1.785 -0.3231  0.4521 -0.0041
  704SOL    HW1 2111   0.325   1.993   1.841  1.6518 -0.2815 -1.3470
  704SOL    HW2 2112   0.326   2.146   1.752  0.9673 -2.8214  2.0373
  705SOL     OW 2113   2.549   1.405   0.851  0.1521  0.0122  0.3100
  705SOL    HW1 2114   2.448   1.404   0.856  2.0991 -1.1843 -2.3219
  705SOL    HW2 2115   2.596   1.397   0.942  1.1278  0.7787  0.4364
  706SOL     OW 2116   0.630   1.752   1.882 -0.0464 -0.7222 -0.3587
  706SOL    HW1 2117   0.634   1.654   1.903  1.7526  4.2634  0.4865
  706SOL    HW2 2118   0.713   1.803   1.917  0.2220 -0.5841 -0.4612
  707SOL     OW 2119   2.323   1.250   1.923 -0.2364 -0.1894 -0.8752
  707SOL    HW1 2120   2.424   1.230   1.939  2.2094  0.0345 -1.3095
  707SOL    HW2 2121   2.275   1.165   1.891  0.4874  0.4980 -1.2541
  708SOL     OW 2122   3.059   0.528   3.029  0.0857 -0.0701 -0.4756
  708SOL    HW1 2123   3.088   0.580   2.947 -4.8230 -2.4080  0.9228
  708SOL    HW2 2124   3.058   0.429   3.012  1.3944  4.8532  1.2412
  709SOL     OW 2125   1.759   1.859   0.232 -0.1416 -0.4981 -0.9287
  709SOL    HW1 2126   1.780   1.954   0.280  0.3654  0.0486  0.5663
  709SOL    HW2 2127   1.802   1.850   0.141 -3.2237 -1.0982 -0.6707
  710SOL     OW 2128   1.769   1.662   2.435  0.0962 -0.2462 -0.0783
  710SOL    HW1 2129   1.811   1.616   2.356  0.8627 -0.4551 -1.1718
  710SOL    HW2 2130   1.775   1.620   2.528 -2.6367  1.0017  0.9574
  711SOL     OW 2131   2.612   2.910   0.967  0.4547 -0.5729  0.0699
  711SOL    HW1 2132   2.611   3.004   0.928 -1.7165 -0.8954 -1.2154
  711SOL    HW2 2133   2.707   2.880   0.983  1.0118  0.9059 -0.4176
  712SOL     OW 2134   1.496   2.295   1.772  0.0444 -0.3582 -0.5927
  712SOL    HW1 2135   1.543   2.205   1.786 -0.4693  0.5012  0.6723
  712SOL    HW2 2136   1.421   2.289   1.699 -0.9218  2.5411 -2.6310
  713SOL     OW 2137   2.854   1.345   2.484  0.2386 -0.2458  0.5528
  713SOL    HW1 2138   2.875   1.247   2.458  2.0372 -0.5073  0.9988
  713SOL    HW2 2139   2.758   1.356   2.514  4.2748 -2.0012  0.3616
  714SOL     OW 2140   2.683   0.435   2.430 -0.6091 -0.0306 -0.5397
  714SOL    HW1 2141   2.598   0.399   2.476  0.1236  1.3577 -0.2481
  714SOL    HW2 2142   2.677   0.434   2.327 -0.1270 -1.5792  1.1428
  715SOL     OW 2143   1.643   2.133   1.103  0.0140 -0.3473 -0.0204
  715SOL    HW1 2144   1.554   2.177   1.073  0.8958 -1.6851  0.0611
  715SOL    HW2 2145   1.654   2.109   1.205 -0.7504 -1.4333  0.7775
  716SOL     OW 2146   1.219   0.206   1.452 -0.3499 -0.0290 -0.2452
  716SOL    HW1 2147   1.120   0.225   1.421  0.0907  0.5412 -0.2615
  716SOL    HW2 2148   1.278   0.292   1.459 -1.6561 -0.8792  0.6513
  717SOL     OW 2149   1.054   0.612   1.589  0.3043 -0.1117  0.1614
  717SOL    HW1 2150   1.149   0.655   1.584  1.5497 -2.4940 -0.7524
  717SOL    HW2 2151   1.024   0.564   1.498 -0.9546 -0.1372 -1.3271
  718SOL     OW 2152   0.654   1.086   1.005  0.3844  0.0777  0.3752
  718SOL    HW1 2153   0.627   1.096   0.903 -2.8023  1.4185 -1.6444
  718SOL    HW2 2154   0.749   1.128   1.023  0.5275  5.1978 -1.4882
  719SOL     OW 2155   0.729   1.812   2.232 -0.5791  0.0622  0.1722
  719SOL    HW1 2156   0.794   1.863   2.305  2.7062  0.8845 -1.3889
  719SOL    HW2 2157   0.635   1.814   2.267 -1.1357 -0.3424 -0.5054
  720SOL     OW 2158   2.264   1.137   0.220  0.0442 -0.1039  0.3459
  720SOL    HW1 2159   2.366   1.122   0.226 -1.5385  1.0700 -0.6809
  720SOL    HW2 2160   2.219   1.163   0.310  2.5896  2.4029 -1.5376
  721SOL     OW 2161   2.238   0.020   2.005  0.0623 -0.1751 -0.3596
  721SOL    HW1 2162   2.234   0.102   1.942  0.4718 -0.1263  0.9857
  721SOL    HW2 2163   2.155   0.018   2.065  0.7427  0.4330  0.2036
  722SOL     OW 2164   2.385   1.647   0.501  0.6809 -0.0428 -0.0333
  722SOL    HW1 2165   2.381   1.575   0.424 -0.2020 -0.7003 -3.6166
  722SOL    HW2 2166   2.290   1.678   0.527 -0.1093 -0.5815  0.8780
  723SOL     OW 2167   2.573   2.854   1.903  0.5328 -0.0810  0.0428
  723SOL    HW1 2168   2.636   2.887   1.977  1.1006  1.4569 -1.0708
  723SOL    HW2 2169   2.475   2.856   1.944  2.3840  1.5748 -0.3712
  724SOL     OW 2170   0.316   2.424   2.358 -1.1017  0.0339 -0.1449
  724SOL    HW1 2171   0.226   2.470   2.368  0.0073 -0.3661 -1.0857
  724SOL    HW2 2172   0.363   2.385   2.443  1.9671 -1.2063 -0.0842
  725SOL     OW 2173   2.271   2.782   1.472  0.3029  0.5076  0.2369
  725SOL    HW1 2174   2.353   2.808   1.418  0.6706 -3.3505 -1.2571
  725SOL    HW2 2175   2.272   2.690   1.520  0.6685 -2.0161  2.3377
  726SOL     OW 2176   2.387   2.253   0.807  0.1470  0.0955 -0.1148
  726SOL    HW1 2177   2.359   2.350   0.822  1.0904 -0.3159  1.4807
  726SOL    HW2 2178   2.358   2.215   0.713 -0.4762 -0.6910  2.2422
  727SOL     OW 2179   0.231   3.056   0.166 -0.1807  0.1800  0.0629
  727SOL    HW1 2180   0.252   2.963   0.121  0.0211  1.4414  1.6501
  727SOL    HW2 2181   0.270   3.138   0.116  0.8501 -0.8713 -0.4367
  728SOL     OW 2182   2.862   0.652   1.006 -0.6104 -0.5965  0.1541
  728SOL    HW1 2183   2.776   0.651   0.950  0.0000  2.1564  0.5929
  728SOL    HW2 2184   2.845   0.601   1.095 -1.7909 -0.3123  0.7083
  729SOL     OW 2185   2.948   2.477   0.735  0.2319  0.3540 -0.4273
  729SOL    HW1 2186   2.908   2.384   0.741 -1.3597  1.0433  1.0321
  729SOL    HW2 2187   3.051   2.474   0.753  2.5937 -0.1756  1.4038
  730SOL     OW 2188   2.627   0.589   0.879  0.3120 -0.3161  0.3330
  730SOL    HW1 2189   2.561   0.652   0.838  2.5800 -0.9094 -3.2971
  730SOL    HW2 2190   2.700   0.581   0.803  0.7263 -3.4024 -0.5943
  731SOL     OW 2191   0.083   2.118   2.455  0.4371  0.3296  0.4531
  731SOL    HW1 2192   0.092   2.151   2.548  0.3771 -1.3795 -3.4116
  731SOL    HW2 2193  -0.016   2.131   2.424 -1.3098  2.0031 -0.3310
  732SOL     OW 2194   1.116   2.835   1.973  0.3689  0.2913  0.5183
  732SOL    HW1 2195   1.147   2.770   2.048 -1.5723 -0.4059 -0.3594
  732SOL    HW2 2196   1.148   2.800   1.878  0.8766  2.3394 -0.4747
  733SOL     OW 2197   3.029   0.683   2.110  0.0624 -0.5303 -0.3463
  733SOL    HW1 2198   3.116   0.744   2.118 -0.0278  1.1656  0.7092
  733SOL    HW2 2199   3.043   0.590   2.060  0.8057  0.0446 -0.4751
  734SOL     OW 2200   1.389   0.372   2.707  0.1748  0.6021 -0.3377
  734SOL    HW1 2201   1.390   0.468   2.746 -0.7873 -2.7582  0.5910
  734SOL    HW2 2202   1.313   0.314   2.753 -0.7612 -0.6641  2.1626
  735SOL     OW 2203   2.804   2.629   2.285 -0.1586  0.5560  0.4500
  735SOL    HW1 2204   2.737   2.643   2.205 -2.0915  1.3752 -1.9295
  735SOL    HW2 2205   2.902   2.643   2.257 -0.4542  1.1428  1.2763
  736SOL     OW 2206   0.793   0.399   2.627  0.2472  0.0232 -0.6355
  736SOL    HW1 2207   0.749   0.497   2.632 -0.1559  1.9053  1.1491
  736SOL    HW2 2208   0.774   0.358   2.536  0.7658 -1.2357 -2.1954
  737SOL     OW 2209   2.706   0.493   2.829 -0.1540 -0.1997  0.1626
  737SOL    HW1 2210   2.670   0.476   2.930 -0.5706  0.4056  1.0769
  737SOL    HW2 2211   2.790   0.432   2.801  1.3578 -2.8497  1.3389
  738SOL     OW 2212   1.653   1.173   3.001  0.1628 -0.1462  0.0151
  738SOL    HW1 2213   1.753   1.186   2.978 -2.1635  0.4502 -1.5726
  738SOL    HW2 2214   1.649   1.122   3.090  0.3479 -0.8758  0.0867
  739SOL     OW 2215   1.758   0.572   0.677  0.5429 -0.4225 -0.1231
  739SOL    HW1 2216   1.819   0.566   0.761 -0.4128 -1.1246 -1.2721
  739SOL    HW2 2217   1.790   0.500   0.612 -1.9036 -1.2066  0.3280
  740SOL     OW 2218   1.898   2.004   2.147 -0.0941 -0.0050 -0.2939
  740SOL    HW1 2219   1.957   1.947   2.087 -2.6660 -0.4004  0.2763
  740SOL    HW2 2220   1.804   2.024   2.102 -0.3974  1.9984 -0.1559
  741SOL     OW 2221   2.511   0.107   2.555  0.4128 -0.5410  0.4255
  741SOL    HW1 2222   2.608   0.068   2.568 -2.0526 -1.9907 -1.8161
  741SOL    HW2 2223   2.476   0.107   2.459 -1.5254  0.6971  1.2818
  742SOL     OW 2224   2.252   1.389   0.038 -0.4570  0.3297 -0.0875
  742SOL    HW1 2225   2.162   1.434   0.073  1.2322  0.2047 -0.3506
  742SOL    HW2 2226   2.264   1.284   0.058 -1.4078 -1.5725 -1.7431
  743SOL     OW 2227   1.746   0.643   2.648 -0.1684 -0.0218  0.3110
  743SOL    HW1 2228   1.752   0.600   2.550 -0.3107  1.2300 -2.3160
  743SOL    HW2 2229   1.657   0.691   2.672 -0.0909  1.1938  0.8201
  744SOL     OW 2230   2.654   2.046   0.022  0.3058  0.0969  0.3166
  744SOL    HW1 2231   2.557   2.082   0.052 -1.8697  1.7522  0.4312
  744SOL    HW2 2232   2.716   2.043   0.105 -0.0023 -0.3098  1.3681
  745SOL     OW 2233   2.201   2.710   2.198  0.1680  0.2572  0.3589
  745SOL    HW1 2234   2.119   2.655   2.166 -1.5633 -1.0623 -0.2747
  745SOL    HW2 2235   2.182   2.755   2.290 -1.3370  0.6009 -0.3372
  746SOL     OW 2236   3.096   2.603   1.842 -0.6627 -0.2342 -0.0265
  746SOL    HW1 2237   3.195   2.621   1.814 -0.2371 -0.3576  0.0022
  746SOL    HW2 2238   3.052   2.689   1.886  1.5399  1.4298 -2.2918
  747SOL     OW 2239   0.014   1.801   1.712  0.1646 -0.3917 -0.3098
  747SOL    HW1 2240  -0.040   1.714   1.685 -1.5175  0.7828 -1.5313
  747SOL    HW2 2241   0.092   1.822   1.648 -2.2851 -0.1028 -0.5459
  748SOL     OW 2242   1.752   2.753   2.875 -0.2031  0.1099 -0.3103
  748SOL    HW1 2243   1.782   2.779   2.973 -1.4328 -1.0785  2.1641
  748SOL    HW2 2244   1.645   2.737   2.871 -2.6582 -0.1077  0.7918
  749SOL     OW 2245   1.289   0.064   0.891  0.4949  0.3495  0.2683
  749SOL    HW1 2246   1.233  -0.025   0.887 -1.2970  2.7668  2.8782
  749SOL    HW2 2247   1.305   0.106   0.798 -0.5659  1.0959 -0.5595
  750SOL     OW 2248   2.286   0.258   1.867 -0.4633  0.6071 -0.7989
  750SOL    HW1 2249   2.345   0.305   1.803  0.6749 -0.8893  0.9617
  750SOL    HW2 2250   2.298   0.303   1.961  0.9520 -0.7802 -0.9164
  751SOL     OW 2251   0.834   2.250   2.877  0.4097  0.1795  0.7132
  751SOL    HW1 2252   0.889   2.237   2.964  0.6311 -0.8403 -1.9769
  751SOL    HW2 2253   0.765   2.171   2.862 -0.2768 -0.1828 -0.6771
  752SOL     OW 2254   1.239   0.943   1.545  0.0728  0.3196  0.0621
  752SOL    HW1 2255   1.303   0.985   1.477 -0.1317 -0.8311 -1.4580
  752SOL    HW2 2256   1.274   0.853   1.583 -1.0218 -0.8990 -0.8625
  753SOL     OW 2257   0.937   2.643   1.771  0.2156 -0.0862 -0.6687
  753SOL    HW1 2258   1.032   2.674   1.750 -2.2626 -1.0416 -0.0848
  753SOL    HW2 2259   0.859   2.708   1.747  2.3158  1.5729 -1.6788
  754SOL     OW 2260   1.151   1.305   3.049 -0.0847  0.6941 -0.4408
  754SOL    HW1 2261   1.186   1.242   2.971 -0.2923 -0.7907 -2.2542
  754SOL    HW2 2262   1.144   1.403   3.018 -2.7350 -1.0622 -1.4503
  755SOL     OW 2263   2.027   0.518   2.215  0.0796 -0.1727  0.0808
  755SOL    HW1 2264   2.076   0.434   2.256 -1.5967  0.3648 -1.1955
  755SOL    HW2 2265   1.928   0.530   2.248 -2.1765 -1.5006 -1.1167
  756SOL     OW 2266   2.637   0.986   2.936 -0.1821  0.2908  0.6156
  756SOL    HW1 2267   2.723   0.928   2.909  1.7342  0.2303 -3.5889
  756SOL    HW2 2268   2.554   0.926   2.951 -0.0169 -1.0182  0.3877
  757SOL     OW 2269   0.107   0.512   1.711  0.7359 -0.7005  0.0170
  757SOL    HW1 2270   0.113   0.607   1.671  0.9892  0.3946  0.2945
  757SOL    HW2 2271   0.140   0.440   1.647  2.2939  2.8995  2.2707
  758SOL     OW 2272   2.480   0.023   1.519  0.6527  0.3482  0.0415
  758SOL    HW1 2273   2.394  -0.007   1.568  2.4962  0.4647 -0.1480
  758SOL    HW2 2274   2.468   0.033   1.419  1.0149  3.3235 -0.1966
  759SOL     OW 2275   1.659   0.078   0.061 -0.5321  0.8141  0.7597
  759SOL    HW1 2276   1.623   0.077  -0.036  1.9109 -0.7134 -0.5655
  759SOL    HW2 2277   1.760   0.061   0.065  0.8148 -1.2637  0.5389
  760SOL     OW 2278   2.737   1.967   2.807  0.1543 -0.5684 -0.2349
  760SOL    HW1 2279   2.766   1.887   2.752 -0.4132 -1.2130  0.9846
  760SOL    HW2 2280   2.780   2.055   2.766  3.3339 -2.5583 -3.1687
  761SOL     OW 2281   1.903   1.739   1.606 -0.1973  0.8048  0.5910
  761SOL    HW1 2282   1.964   1.654   1.603 -1.7240  1.5841 -0.1517
  761SOL    HW2 2283   1.810   1.720   1.563 -0.0081  3.3105 -2.6767
  762SOL     OW 2284   0.533   2.429   1.003 -0.2024  0.0148  0.2521
  762SOL    HW1 2285   0.539   2.451   0.901  0.7996 -0.9648 -2.0409
  762SOL    HW2 2286   0.553   2.512   1.067 -0.4858 -0.0808 -0.7419
  763SOL     OW 2287   2.002   1.572   2.968  0.1340  0.1473  0.2178
  763SOL    HW1 2288   2.050   1.531   2.885 -0.8082  0.4271  3.1416
  763SOL    HW2 2289   1.946   1.504   3.025  2.4358  0.6495 -0.4631
  764SOL     OW 2290   0.679   0.567   0.853  0.3453  0.4848 -0.0492
  764SOL    HW1 2291   0.697   0.542   0.751 -1.3428  1.4562 -1.7375
  764SOL    HW2 2292   0.767   0.568   0.911 -0.5085  1.6783  0.8358
  765SOL     OW 2293   0.669   0.206   0.806 -0.0339  0.3138 -0.2904
  765SOL    HW1 2294   0.760   0.223   0.759 -0.8175 -0.9508  1.2883
  765SOL    HW2 2295   0.670   0.217   0.911 -0.5581  0.0561  0.0616
  766SOL     OW 2296   2.973   2.005   3.041  0.6888 -0.6159 -0.0682
  766SOL    HW1 2297   2.889   2.006   2.976  1.2400  1.3413 -1.0088
  766SOL    HW2 2298   3.036   2.084   3.022 -0.7214 -0.9264  1.7083
  767SOL     OW 2299   2.845   1.574   0.527 -1.0696 -0.5768 -0.8491
  767SOL    HW1 2300   2.754   1.559   0.575 -0.2296  2.4133 -0.7493
  767SOL    HW2 2301   2.925   1.587   0.598 -0.0990 -0.0143 -1.8733
  768SOL     OW 2302   1.048   0.310   0.297 -0.2230  0.8229 -0.6089
  768SOL    HW1 2303   0.948   0.281   0.286  1.4506  0.3168 -0.3588
  768SOL    HW2 2304   1.117   0.231   0.269  1.6684 -1.7071 -2.6496
  769SOL     OW 2305   1.245   1.824   2.290  0.2035 -0.2933 -0.9479
  769SOL    HW1 2306   1.350   1.841   2.278  1.8876  2.2013 -0.1348
  769SOL    HW2 2307   1.212   1.732   2.263 -0.4515  2.4622  0.3916
  770SOL     OW 2308   0.168   1.124   2.336  0.2252 -0.9430 -0.4747
  770SOL    HW1 2309   0.121   1.167   2.414 -0.2801  0.3981 -0.1624
  770SOL    HW2 2310   0.114   1.146   2.248 -0.3124 -1.6115 -2.3616
  771SOL     OW 2311   2.955   2.820   1.943  0.0314  0.3080 -0.2523
  771SOL    HW1 2312   2.946   2.887   1.861  0.2978 -1.8667  1.9695
  771SOL    HW2 2313   2.953   2.876   2.027  0.2392  2.5997 -0.9756
  772SOL     OW 2314   2.126   0.091   2.994  0.0660 -0.6169  0.0561
  772SOL    HW1 2315   2.203   0.021   2.979 -1.4266 -0.3738 -0.2620
  772SOL    HW2 2316   2.157   0.180   3.040  0.4694 -0.3505  0.4795
  773SOL     OW 2317   0.720   2.132   2.470  0.5947  0.4113 -0.3115
  773SOL    HW1 2318   0.663   2.158   2.388  1.9264 -0.6482  1.0067
  773SOL    HW2 2319   0.680   2.155   2.562  1.8621 -1.0061 -0.2720
  774SOL     OW 2320   2.017   0.028   2.671 -0.0486  0.0281 -0.4044
  774SOL    HW1 2321   1.996   0.128   2.707 -0.3603  3.8100 -1.5406
  774SOL    HW2 2322   2.081  -0.026   2.727 -2.0517 -0.4150 -0.8809
  775SOL     OW 2323   2.510   2.882   2.384  0.5177  0.0215  0.1643
  775SOL    HW1 2324   2.485   2.984   2.380 -0.2746  0.3910 -2.2153
  775SOL    HW2 2325   2.615   2.871   2.399  3.2654  0.3475 -0.2460
  776SOL     OW 2326   0.009   1.196   0.258  0.1350 -0.8521  0.0588
  776SOL    HW1 2327  -0.047   1.224   0.175 -1.5028  3.2769  4.1511
  776SOL    HW2 2328  -0.044   1.212   0.349  0.2882  1.4216  0.6485
  777SOL     OW 2329   0.315   2.675   0.409  0.7552  0.3154 -0.2493
  777SOL    HW1 2330   0.210   2.677   0.398  0.5484  0.3756 -1.1375
  777SOL    HW2 2331   0.361   2.768   0.424 -0.6719  1.4762 -1.9426
  778SOL     OW 2332   1.322   1.939   0.180  0.1527  0.2902 -0.5499
  778SOL    HW1 2333   1.283   1.956   0.275  0.0958  0.8344 -1.0758
  778SOL    HW2 2334   1.326   2.031   0.128 -0.0470 -0.4106  1.4287
  779SOL     OW 2335   0.169   0.832   0.533  0.2011 -0.0701 -0.3549
  779SOL    HW1 2336   0.107   0.759   0.497  0.5316 -0.8126 -1.8280
  779SOL    HW2 2337   0.113   0.886   0.603 -0.0268 -0.6359  0.3777
  780SOL     OW 2338   0.018   0.288   2.369  0.6868 -0.3527  0.1698
  780SOL    HW1 2339  -0.014   0.390   2.361  0.1632  0.3202  0.3712
  780SOL    HW2 2340   0.114   0.279   2.324  0.0286 -0.7650 -0.2869
  781SOL     OW 2341   0.574   1.778   1.625 -0.3137  0.2334 -0.0511
  781SOL    HW1 2342   0.585   1.777   1.728 -4.8062  1.4325  0.9510
  781SOL    HW2 2343   0.510   1.699   1.595  2.6941  0.3591  1.5178
  782SOL     OW 2344   2.638   0.135   0.892  0.1849 -0.3435 -0.0773
  782SOL    HW1 2345   2.580   0.180   0.822 -0.1877 -1.0305 -0.3419
  782SOL    HW2 2346   2.616   0.152   0.991  0.3490 -1.0607  0.0453
  783SOL     OW 2347   2.815   0.671   2.521  0.2136 -0.1066  0.5441
  783SOL    HW1 2348   2.781   0.697   2.618  0.1908 -1.0183 -1.1613
  783SOL    HW2 2349   2.755   0.592   2.492 -1.7470  0.6096 -0.6324
  784SOL     OW 2350   1.379   2.213   0.038 -0.1521  0.2266  0.1777
  784SOL    HW1 2351   1.474   2.232   0.069 -1.7421 -0.1987  1.4584
  784SOL    HW2 2352   1.375   2.210  -0.069 -0.4851 -0.2794  1.1993
  785SOL     OW 2353   2.171   0.326   0.021  0.3752 -0.5284  0.3419
  785SOL    HW1 2354   2.081   0.340   0.068  0.0705  0.2850 -0.5882
  785SOL    HW2 2355   2.205   0.420  -0.005  3.0174  0.5757 -1.0586
  786SOL     OW 2356   2.058   2.198   2.255  0.9553  0.1178 -0.4652
  786SOL    HW1 2357   1.993   2.130   2.219  0.5475  1.6656  1.6415
  786SOL    HW2 2358   2.146   2.157   2.282 -3.1111  0.3540  1.4688
  787SOL     OW 2359   1.416   0.623   0.775 -0.1842  0.2062 -0.6082
  787SOL    HW1 2360   1.450   0.719   0.756  0.4483  4.2244  2.1588
  787SOL    HW2 2361   1.393   0.575   0.687 -1.0999 -1.2210  1.7828
  788SOL     OW 2362   1.207   0.469   2.977 -0.1720  0.1034 -0.2033
  788SOL    HW1 2363   1.131   0.455   2.908  2.1847 -1.1454 -1.2182
  788SOL    HW2 2364   1.275   0.552   2.956  1.1738  4.1514 -1.2843
  789SOL     OW 2365   2.651   0.067   1.865 -0.6761 -0.5378 -0.4495
  789SOL    HW1 2366   2.561   0.029   1.837  1.7984 -1.0627 -0.0836
  789SOL    HW2 2367   2.715   0.002   1.921  1.3890 -0.4387  1.3477
  790SOL     OW 2368   2.610   2.665   0.827 -0.1995  0.4348 -0.1224
  790SOL    HW1 2369   2.647   2.671   0.733 -0.8218  1.3170  3.1386
  790SOL    HW2 2370   2.627   2.746   0.891  1.9596 -0.2153  1.3142
  791SOL     OW 2371   1.947   1.212   0.186 -0.4147  0.0477  0.0484
  791SOL    HW1 2372   1.871   1.183   0.252  2.1387 -0.4473  0.7128
  791SOL    HW2 2373   2.023   1.147   0.175 -0.0781 -1.4701 -1.3375
  792SOL     OW 2374   0.453   1.979   2.208  0.1471  0.0542  0.1546
  792SOL    HW1 2375   0.467   2.081   2.215 -0.6429 -0.7177 -0.5147
  792SOL    HW2 2376   0.372   1.946   2.268  2.6661  0.1735  0.5228
  793SOL     OW 2377   2.102   1.498   2.079  0.1216  0.0661 -0.1844
  793SOL    HW1 2378   2.148   1.591   2.083 -0.2824  0.8754 -3.4607
  793SOL    HW2 2379   2.097   1.463   1.976  1.7815 -1.3553 -6.6918
  794SOL     OW 2380   0.547   1.534   2.463  0.1719  0.3120  0.5143
  794SOL    HW1 2381   0.630   1.487   2.431  0.1090  2.1278  0.8741
  794SOL    HW2 2382   0.462   1.531   2.405  0.5705 -0.1808 -2.2476
  795SOL     OW 2383   2.476   2.308   1.818 -0.1736  0.5272  0.6581
  795SOL    HW1 2384   2.497   2.335   1.918  0.9761  0.9978  0.6960
  795SOL    HW2 2385   2.405   2.237   1.810 -1.2314  1.9116 -0.9162
  796SOL     OW 2386   3.049   1.102   2.706 -0.6772  0.0951  0.3672
  796SOL    HW1 2387   2.954   1.123   2.734  0.8359 -1.3860  0.0278
  796SOL    HW2 2388   3.116   1.125   2.782 -0.9319 -0.5235 -2.4061
  797SOL     OW 2389   0.666   0.638   1.367 -0.0438 -0.2004 -0.3667
  797SOL    HW1 2390   0.735   0.689   1.431 -1.0600 -3.6426  2.8512
  797SOL    HW2 2391   0.631   0.695   1.288 -0.2251 -1.5423 -2.2214
  798SOL     OW 2392   1.180   0.521   0.925 -0.6167 -0.0520  0.0219
  798SOL    HW1 2393   1.218   0.511   1.024  0.2653  0.2548 -1.0892
  798SOL    HW2 2394   1.245   0.570   0.861  2.5034 -1.5937 -1.9825
  799SOL     OW 2395   1.819   2.706   0.998 -0.2424  0.1055  0.6668
  799SOL    HW1 2396   1.814   2.621   1.060  0.4251  1.2763  1.2802
  799SOL    HW2 2397   1.836   2.674   0.901 -1.2992  1.2457 -1.2547
  800SOL     OW 2398   3.013   0.826   1.860 -0.2559 -0.4465  0.0309
  800SOL    HW1 2399   3.030   0.931   1.870  0.7425 -0.2964  2.2726
  800SOL    HW2 2400   3.012   0.778   1.954 -1.6198  0.9787  1.0782
  801SOL     OW 2401   1.954   2.167   0.104 -0.0209  0.5373 -0.4150
  801SOL    HW1 2402   1.952   2.215   0.013  0.5980  1.1488  1.1386
  801SOL    HW2 2403   2.029   2.092   0.108  1.1476 -0.1011  0.2081
  802SOL     OW 2404   0.657   0.642   2.577 -0.6278 -0.0221 -0.2363
  802SOL    HW1 2405   0.718   0.647   2.492 -0.2505  1.5588  0.6439
  802SOL    HW2 2406   0.555   0.631   2.551 -0.0971  0.0344 -1.9780
  803SOL     OW 2407   0.942   0.099   0.893  0.2372  0.4411  0.1373
  803SOL    HW1 2408   1.000   0.153   0.956  0.0919  0.7170 -0.6526
  803SOL    HW2 2409   0.920   0.143   0.803  0.6256  1.3159  1.1069
  804SOL     OW 2410   0.292   0.041   2.197  0.6746 -0.5874  0.7822
  804SOL    HW1 2411   0.264   0.143   2.211 -0.9707  1.2695 -0.6030
  804SOL    HW2 2412   0.265   0.002   2.102 -0.4037 -1.0068 -0.2791
  805SOL     OW 2413   2.417   0.375   0.327 -0.3011 -0.5286 -0.2433
  805SOL    HW1 2414   2.484   0.354   0.409  0.2026  1.7903 -2.7504
  805SOL    HW2 2415   2.411   0.301   0.255 -0.9555  2.8093 -0.2141
  806SOL     OW 2416   0.585   2.636   1.884  0.4758  0.2116  0.6522
  806SOL    HW1 2417   0.522   2.690   1.945  0.5219  0.8775  0.6709
  806SOL    HW2 2418   0.650   2.695   1.824 -0.3888 -0.8087  1.1445
  807SOL     OW 2419   2.523   0.930   0.477  0.1311 -0.7291  0.3302
  807SOL    HW1 2420   2.609   0.868   0.480  1.4231 -0.0209 -0.3590
  807SOL    HW2 2421   2.516   0.968   0.384 -0.5837 -1.1754  1.3442
  808SOL     OW 2422   0.679   2.021   2.931  0.1001  0.1998  0.4767
  808SOL    HW1 2423   0.624   2.061   3.010  0.6518 -2.4255  1.0697
  808SOL    HW2 2424   0.693   1.921   2.932 -0.2713  2.0735 -0.6532
  809SOL     OW 2425   2.582   1.980   1.922  0.0480  0.2523 -0.2804
  809SOL    HW1 2426   2.686   2.004   1.912  0.5451  0.3339  2.2240
  809SOL    HW2 2427   2.537   1.999   1.828  1.2819  1.0373  1.5323
  810SOL     OW 2428   2.189   1.119   0.489 -0.0740  0.3537 -0.5143
  810SOL    HW1 2429   2.149   1.037   0.536  0.0885  1.3985 -0.4868
  810SOL    HW2 2430   2.150   1.209   0.534  0.5840  1.0883  1.0425
  811SOL     OW 2431   1.277   2.486   1.152 -0.5674  0.2761  0.1767
  811SOL    HW1 2432   1.195   2.420   1.173 -0.4513  0.5514 -2.2743
  811SOL    HW2 2433   1.368   2.464   1.205  1.3937 -0.1956 -2.7329
  812SOL     OW 2434   1.499   0.751   1.968 -0.5160 -0.3513  0.0743
  812SOL    HW1 2435   1.411   0.779   2.021  0.5359  1.7262  3.9131
  812SOL    HW2 2436   1.535   0.842   1.922 -0.0509 -0.7997  1.8696
  813SOL     OW 2437   1.691   2.049   2.391  0.1069 -0.1303  0.0345
  813SOL    HW1 2438   1.774   2.009   2.436 -0.7850  1.4403 -0.3600
  813SOL    HW2 2439   1.678   2.024   2.291 -0.3833 -1.1633  1.3962
  814SOL     OW 2440   3.009   1.681   2.905  0.6732  0.3278  0.4656
  814SOL    HW1 2441   3.045   1.608   2.969  2.1263  0.6665  0.1658
  814SOL    HW2 2442   3.039   1.776   2.942  0.4055  1.9150 -0.8444
  815SOL     OW 2443   2.167   2.842   2.731  0.0430 -0.2078  0.1100
  815SOL    HW1 2444   2.110   2.776   2.789 -0.8743  2.2775  0.7591
  815SOL    HW2 2445   2.250   2.875   2.784  1.1933  0.1785  0.6550
  816SOL     OW 2446   1.486   0.398   1.653 -0.1240  0.0634  0.2120
  816SOL    HW1 2447   1.548   0.315   1.672 -2.5642  1.3433  0.2338
  816SOL    HW2 2448   1.412   0.402   1.728 -0.5171  0.6404  0.9954
  817SOL     OW 2449   0.361   1.302   2.589  0.1888 -0.4663 -0.3438
  817SOL    HW1 2450   0.261   1.288   2.604  0.3001  0.3621 -0.9216
  817SOL    HW2 2451   0.389   1.335   2.498 -1.1360  0.4156 -1.2145
  818SOL     OW 2452   2.017   0.845   0.460 -0.1040 -0.5832 -0.1440
  818SOL    HW1 2453   2.111   0.816   0.430  0.9438 -0.4595  2.0562
  818SOL    HW2 2454   2.014   0.856   0.560 -2.0783  3.9348  0.3643
  819SOL     OW 2455   2.790   2.913   2.962  0.0035 -0.3058 -0.1826
  819SOL    HW1 2456   2.860   2.839   2.970  0.5152  2.5617 -0.5551
  819SOL    HW2 2457   2.695   2.887   2.921 -1.9312  2.3282 -0.5576
  820SOL     OW 2458   1.226   1.037   0.550 -0.2455  0.4978  0.2679
  820SOL    HW1 2459   1.283   1.116   0.572  0.5318 -0.8034  0.7363
  820SOL    HW2 2460   1.208   0.973   0.625 -2.1049  0.9885  1.4113
  821SOL     OW 2461   0.046   1.245   0.718 -0.2350  0.0795  0.4572
  821SOL    HW1 2462  -0.019   1.248   0.795 -2.0119  0.2463 -0.0575
  821SOL    HW2 2463   0.131   1.309   0.731  0.0889 -1.7521 -2.7451
  822SOL     OW 2464   2.546   1.756   2.467  0.4351 -0.0956  0.2597
  822SOL    HW1 2465   2.532   1.822   2.548 -0.4605 -1.1789  0.1220
  822SOL    HW2 2466   2.452   1.727   2.431 -0.5650  1.4673 -0.4227
  823SOL     OW 2467   2.026   0.913   1.177 -0.2282  0.6875 -0.0890
  823SOL    HW1 2468   2.005   0.875   1.271  0.1127  0.0178 -0.7941
  823SOL    HW2 2469   1.959   0.876   1.106 -3.5925 -2.5192 -1.4758
  824SOL     OW 2470   0.179   1.838   2.834 -0.5795 -0.1494  0.1812
  824SOL    HW1 2471   0.210   1.808   2.930 -0.6172 -2.3781 -1.1293
  824SOL    HW2 2472   0.248   1.895   2.782 -0.9430 -2.7728  2.8206
  825SOL     OW 2473   1.294   1.065   0.275 -0.0151 -0.6201  0.3460
  825SOL    HW1 2474   1.293   1.162   0.242 -2.7931 -0.2174  0.9210
  825SOL    HW2 2475   1.253   1.048   0.373 -1.8822 -1.2414  1.2890
  826SOL     OW 2476   1.955   0.621   1.606  0.3269  0.6707  0.3553
  826SOL    HW1 2477   2.035   0.566   1.643  0.7632 -1.7204  0.7891
  826SOL    HW2 2478   1.878   0.555   1.582  0.1563 -0.8109  0.0456
  827SOL     OW 2479   0.710   1.196   0.488  0.4113 -0.7054  0.4913
  827SOL    HW1 2480   0.783   1.129   0.466  0.9568 -0.8454 -1.0393
  827SOL    HW2 2481   0.615   1.150   0.489  0.2882 -0.8633 -0.1705
  828SOL     OW 2482   2.694   0.211   1.572  0.9721  0.1091  0.4771
  828SOL    HW1 2483   2.614   0.150   1.534 -1.3548  2.1261  0.5466
  828SOL    HW2 2484   2.712   0.189   1.671 -1.4745  0.3842  1.1014
  829SOL     OW 2485   2.913   2.401   2.920 -0.1999 -0.0675 -0.5498
  829SOL    HW1 2486   2.822   2.388   2.965  2.0148 -2.2779 -0.5078
  829SOL    HW2 2487   2.939   2.503   2.917 -0.2003 -0.4943 -3.1017
  830SOL     OW 2488   2.932   0.912   2.991  0.2185 -0.0603 -0.0695
  830SOL    HW1 2489   2.924   1.007   3.029  0.3303  1.3900 -1.1669
  830SOL    HW2 2490   2.919   0.839   3.063 -0.6932 -0.7226 -1.6887
  831SOL     OW 2491   0.065   0.558   0.453 -0.7220 -0.4301  0.4361
  831SOL    HW1 2492   0.038   0.504   0.539  0.4115  0.7450  2.1074
  831SOL    HW2 2493   0.125   0.508   0.384  0.1075 -0.1148  0.4884
  832SOL     OW 2494   1.801   0.692   0.019 -0.1210  0.0125  0.6438
  832SOL    HW1 2495   1.705   0.734   0.006 -0.7754 -2.6598 -0.2263
  832SOL    HW2 2496   1.788   0.590   0.011  0.5910 -0.2395  0.2235
  833SOL     OW 2497   2.344   2.121   0.564 -0.2075 -0.2548  0.2982
  833SOL    HW1 2498   2.261   2.063   0.539 -0.3077  2.4391  0.0904
  833SOL    HW2 2499   2.432   2.077   0.526  0.4558  2.0408 -1.7756
  834SOL     OW 2500   0.107   0.056   0.562 -0.1940 -0.0347  0.1353
  834SOL    HW1 2501   0.183  -0.015   0.574 -0.6271  1.0788  1.0437
  834SOL    HW2 2502   0.126   0.122   0.482 -0.6559  0.8457 -2.6053
  835SOL     OW 2503   2.461   1.670   1.152  0.1625  0.8892 -0.3761
  835SOL    HW1 2504   2.525   1.592   1.183 -0.5009 -0.9042 -1.2824
  835SOL    HW2 2505   2.519   1.749   1.122 -2.1334 -1.6248 -1.2044
  836SOL     OW 2506   1.535   0.829   2.594 -0.2076  0.1560  0.8469
  836SOL    HW1 2507   1.443   0.867   2.568  1.2871 -0.0280  3.2357
  836SOL    HW2 2508   1.607   0.838   2.516 -1.6864  1.2862  1.5672
  837SOL     OW 2509   1.722   0.087   0.534  0.1549 -0.5308 -0.0896
  837SOL    HW1 2510   1.678   0.155   0.603 -0.2370  1.2115  1.2260
  837SOL    HW2 2511   1.655   0.054   0.460 -1.4975 -0.0152  2.2161
  838SOL     OW 2512   1.169   1.485   2.684 -0.5348 -0.2893  0.0866
  838SOL    HW1 2513   1.090   1.501   2.746  0.2599  1.2622  1.1013
  838SOL    HW2 2514   1.173   1.393   2.639  0.0639  2.1230 -3.6611
  839SOL     OW 2515   1.654   0.392   0.964 -0.3971  0.7712 -0.1011
  839SOL    HW1 2516   1.621   0.494   0.968  1.9562  2.3391 -0.5642
  839SOL    HW2 2517   1.586   0.318   0.991  0.1385 -3.5694 -0.4742
  840SOL     OW 2518   2.645   2.951   1.662 -0.0037  0.1282 -0.6248
  840SOL    HW1 2519   2.565   3.001   1.622  0.9418  1.8341  3.7271
  840SOL    HW2 2520   2.623   2.910   1.757  4.4104 -0.5369 -0.3120
  841SOL     OW 2521   1.542   0.839   3.065 -0.0430  0.1906  0.4964
  841SOL    HW1 2522   1.478   0.874   3.139 -2.5061 -1.6718  2.7267
  841SOL    HW2 2523   1.524   0.897   2.973 -0.5462  1.7348 -3.0671
  842SOL     OW 2524   0.834   1.613   1.019 -0.0997  0.5227  0.2658
  842SOL    HW1 2525   0.798   1.711   1.052 -3.0346  0.0576  1.0021
  842SOL    HW2 2526   0.764   1.573   0.954 -0.8648 -1.2093  1.8304
  843SOL     OW 2527   0.165   0.068   1.446  0.4895 -0.0522 -0.6993
  843SOL    HW1 2528   0.254   0.117   1.472 -2.3846  0.3350 -0.6660
  843SOL    HW2 2529   0.180  -0.032   1.428 -0.5463  0.1931  0.7425
  844SOL     OW 2530   0.711   2.449   0.197  0.3926 -0.6915  0.0348
  844SOL    HW1 2531   0.652   2.467   0.281  0.2440 -0.2356 -0.1321
  844SOL    HW2 2532   0.663   2.418   0.110 -0.4588  1.8482  0.1379
  845SOL     OW 2533   1.746   0.014   1.265  0.0819  0.0141  0.1978
  845SOL    HW1 2534   1.657   0.009   1.321  1.2968 -1.0347 -0.7251
  845SOL    HW2 2535   1.785   0.112   1.260 -0.8557  2.3959  0.7968
  846SOL     OW 2536   1.679   3.033   0.910 -0.0711 -0.3740  0.0220
  846SOL    HW1 2537   1.695   3.020   0.812 -1.2157  0.6860 -0.6392
  846SOL    HW2 2538   1.748   2.994   0.972 -2.6503 -1.6767 -1.3054
  847SOL     OW 2539   2.090   1.623   0.151 -0.8364 -0.5503 -0.3085
  847SOL    HW1 2540   2.045   1.561   0.222  1.9319  0.6462 -0.9626
  847SOL    HW2 2541   2.048   1.621   0.059  1.0406 -2.8191 -1.8271
  848SOL     OW 2542   2.510   0.800   2.643  0.2167 -0.3701  0.4312
  848SOL    HW1 2543   2.495   0.903   2.648 -1.4075 -1.9688 -2.4390
  848SOL    HW2 2544   2.438   0.743   2.588  0.8673  0.7658 -0.3560
  849SOL     OW 2545   2.378   0.837   2.299 -0.1001  0.4014  0.1114
  849SOL    HW1 2546   2.428   0.765   2.247  2.3462  0.0929 -1.5799
  849SOL    HW2 2547   2.325   0.795   2.378  1.7376  0.2298 -0.2676
  850SOL     OW 2548   1.512   0.216   1.265 -0.3980 -0.1420  0.3413
  850SOL    HW1 2549   1.528   0.187   1.165 -0.7046  1.7032 -1.6935
  850SOL    HW2 2550   1.484   0.140   1.329 -0.5359  0.1757 -1.1165
  851SOL     OW 2551   0.446   1.668   0.630 -0.0958  0.2916 -0.2730
  851SOL    HW1 2552   0.403   1.753   0.672 -0.6412  0.9578  0.8611
  851SOL    HW2 2553   0.545   1.656   0.664  2.2509 -1.7740  1.1872
  852SOL     OW 2554   0.843   2.198   1.740 -0.1122  0.4299  0.4494
  852SOL    HW1 2555   0.828   2.296   1.710  1.8229 -2.8160  1.6778
  852SOL    HW2 2556   0.788   2.168   1.826 -1.1918 -3.1647  2.8210
  853SOL     OW 2557   2.603   1.502   2.570 -1.0188  0.7427 -0.4625
  853SOL    HW1 2558   2.517   1.435   2.553 -1.9667 -1.9836 -0.6174
  853SOL    HW2 2559   2.591   1.600   2.531  1.2106  0.5566 -1.2950
  854SOL     OW 2560   2.461   1.447   1.775  0.2526  0.4380 -0.0275
  854SOL    HW1 2561   2.503   1.419   1.681 -0.1633 -0.3643  0.6358
  854SOL    HW2 2562   2.408   1.364   1.815 -1.1123 -1.3489 -2.8472
  855SOL     OW 2563   2.038   2.290   0.996  0.0374  0.3118 -0.5562
  855SOL    HW1 2564   2.101   2.369   0.955  1.6807  2.1244 -0.6831
  855SOL    HW2 2565   2.063   2.275   1.095 -0.4903 -0.2920  0.5436
  856SOL     OW 2566   1.427   1.436   0.884  0.2155  0.5501  0.0561
  856SOL    HW1 2567   1.463   1.535   0.868  1.3415  1.7037 -1.5823
  856SOL    HW2 2568   1.394   1.430   0.982 -3.0547 -0.2234 -0.9519
  857SOL     OW 2569   2.899   2.529   1.067  0.4721 -0.6992  0.5267
  857SOL    HW1 2570   2.831   2.463   1.110  0.4992  2.9436  0.3488
  857SOL    HW2 2571   2.901   2.515   0.964 -0.0368 -0.1299  1.0877
  858SOL     OW 2572   2.274   2.121   1.799 -0.5776  0.3666 -0.3198
  858SOL    HW1 2573   2.181   2.136   1.751  0.9281 -0.3325 -1.6092
  858SOL    HW2 2574   2.336   2.079   1.729 -4.4138  1.0226 -0.5222
  859SOL     OW 2575   2.439   0.370   0.974  0.6363  0.6977  0.1742
  859SOL    HW1 2576   2.504   0.449   0.962  0.9348 -1.5260  0.8095
  859SOL    HW2 2577   2.461   0.294   1.049  1.3497 -1.2488  2.3406
  860SOL     OW 2578   1.918   2.817   0.502 -0.7290 -0.3582 -0.2773
  860SOL    HW1 2579   1.908   2.780   0.405 -0.0150 -0.2634  1.2823
  860SOL    HW2 2580   1.948   2.917   0.510 -0.3667 -3.1003 -1.2353
  861SOL     OW 2581   1.005   2.556   2.810  0.2269  0.7605 -0.0605
  861SOL    HW1 2582   1.062   2.646   2.793  0.3299  0.3804  0.5418
  861SOL    HW2 2583   1.007   2.533   2.911 -0.7558 -0.4889 -0.5139
  862SOL     OW 2584   2.977   2.622   1.564 -0.2382  0.3039 -0.0533
  862SOL    HW1 2585   3.032   2.601   1.650 -3.2305 -3.2367  0.0152
  862SOL    HW2 2586   2.888   2.675   1.588 -0.7459 -0.4075 -0.4612
  863SOL     OW 2587   1.857   2.694   0.278  0.3350  0.4928 -0.1609
  863SOL    HW1 2588   1.939   2.631   0.285 -1.5665  2.5949 -1.4062
  863SOL    HW2 2589   1.772   2.636   0.303  1.2371 -1.2878  0.2617
  864SOL     OW 2590   1.912   1.137   2.940 -0.1119 -0.0812  0.5150
  864SOL    HW1 2591   1.927   1.109   2.838 -0.8344  1.2730 -2.5368
  864SOL    HW2 2592   1.992   1.100   2.997 -0.2506  0.2917 -0.0849
  865SOL     OW 2593   2.129   1.720   0.617  0.2407 -0.5887 -0.5233
  865SOL    HW1 2594   2.158   1.791   0.690 -0.9991 -2.4483  0.9919
  865SOL    HW2 2595   2.086   1.631   0.660 -0.0683  0.4302 -0.9278
  866SOL     OW 2596   2.884   2.807   1.011 -0.2369  0.4842 -0.4017
  866SOL    HW1 2597   2.957   2.827   0.944  0.6176 -0.7397 -2.0521
  866SOL    HW2 2598   2.879   2.708   1.041 -1.4658  2.1282  1.2805
  867SOL     OW 2599   0.440   1.362   0.842 -0.6949  0.0753 -0.4817
  867SOL    HW1 2600   0.462   1.267   0.803 -3.2810 -1.9230 -0.5359
  867SOL    HW2 2601   0.354   1.401   0.795  0.3713 -1.0185  2.3872
  868SOL     OW 2602   0.848   1.907   2.008 -0.1939 -0.5525  0.3258
  868SOL    HW1 2603   0.818   1.875   2.104  0.0777  0.3271  4.6679
  868SOL    HW2 2604   0.803   1.995   1.976 -0.6996  0.4515  3.0960
  869SOL     OW 2605   2.523   2.004   1.651 -0.0438 -0.0508 -0.0018
  869SOL    HW1 2606   2.621   2.025   1.626  2.8644 -3.2299  0.8017
  869SOL    HW2 2607   2.460   1.971   1.578  0.0392 -0.2175  0.3388
  870SOL     OW 2608   2.396   2.511   1.190  0.0657  0.0840  0.3701
  870SOL    HW1 2609   2.355   2.419   1.175 -2.2172 -0.3074 -1.5177
  870SOL    HW2 2610   2.468   2.510   1.263 -0.8650  0.6048  0.6441
  871SOL     OW 2611   3.043   1.993   0.519  0.0532 -0.1635  0.3133
  871SOL    HW1 2612   2.958   2.049   0.515 -0.0316 -0.5474  0.1455
  871SOL    HW2 2613   3.054   1.933   0.436  0.1564  2.9555  0.7440
  872SOL     OW 2614   2.170   0.474   1.713  0.0219  0.3193 -0.3901
  872SOL    HW1 2615   2.124   0.461   1.805 -0.8063 -0.0549  1.0339
  872SOL    HW2 2616   2.273   0.465   1.717  3.5485  0.7035 -0.3275
  873SOL     OW 2617   1.729   2.074   2.864  0.1961 -0.0500  0.0795
  873SOL    HW1 2618   1.711   2.177   2.887 -2.0293 -0.6577 -2.1178
  873SOL    HW2 2619   1.666   2.047   2.786  1.0430  3.0381 -0.9478
  874SOL     OW 2620   0.632   2.531   0.739 -0.7946 -0.2587 -0.1643
  874SOL    HW1 2621   0.644   2.633   0.768  0.0139  2.8394 -0.1513
  874SOL    HW2 2622   0.720   2.486   0.770  0.3785  5.0847 -0.0437
  875SOL     OW 2623   2.306   1.579   1.449 -0.3083 -0.1986  0.7662
  875SOL    HW1 2624   2.406   1.593   1.478 -0.2637 -1.4527  2.2107
  875SOL    HW2 2625   2.286   1.587   1.349  1.8428 -0.1919 -1.3622
  876SOL     OW 2626   0.131   2.232   2.722 -0.4295  0.4188  0.2309
  876SOL    HW1 2627   0.187   2.160   2.767 -3.1961  1.9435 -1.5795
  876SOL    HW2 2628   0.182   2.323   2.718  0.1021 -2.9404  0.9023
  877SOL     OW 2629   2.776   2.652   0.600 -0.1676 -0.3926  0.4012
  877SOL    HW1 2630   2.808   2.751   0.603 -0.0713 -2.5369  0.2339
  877SOL    HW2 2631   2.856   2.594   0.643  3.7362  0.6817 -0.7740
  878SOL     OW 2632   2.758   1.532   2.274 -0.2330  0.0035 -0.2553
  878SOL    HW1 2633   2.731   1.633   2.290 -0.2142  1.8283 -0.2245
  878SOL    HW2 2634   2.798   1.491   2.365  0.4139  0.5659  1.6487
  879SOL     OW 2635   2.380   3.082   1.246  0.3641 -0.5720  0.1002
  879SOL    HW1 2636   2.424   2.991   1.262  1.9664 -0.6802  0.3467
  879SOL    HW2 2637   2.287   3.075   1.195 -0.2900  0.8429  0.6525
  880SOL     OW 2638   0.594   0.468   2.209 -0.3397  0.5303  0.5401
  880SOL    HW1 2639   0.541   0.439   2.296  2.5629  0.2685 -2.0223
  880SOL    HW2 2640   0.627   0.393   2.149 -3.1475  3.3887  2.0548
  881SOL     OW 2641   0.865   0.084   0.409 -0.5836 -0.4018  0.3163
  881SOL    HW1 2642   0.924   0.006   0.375  0.4358  0.7554 -1.1964
  881SOL    HW2 2643   0.817   0.133   0.333  0.1530  1.7116  1.0342
  882SOL     OW 2644   2.762   1.772   1.662  0.4244  0.7944  0.7875
  882SOL    HW1 2645   2.844   1.709   1.630  2.8678 -3.0896  1.1853
  882SOL    HW2 2646   2.738   1.748   1.760 -0.3142  0.3520 -0.4691
  883SOL     OW 2647   0.928   0.601   0.956  0.5139 -0.3449  0.0427
  883SOL    HW1 2648   0.924   0.658   1.045 -0.8983  1.9909  0.0678
  883SOL    HW2 2649   1.023   0.568   0.929  1.1315 -1.4547  0.5154
  884SOL     OW 2650   1.166   1.859   1.079  0.0761  0.6873 -0.2121
  884SOL    HW1 2651   1.164   1.839   0.976  0.5667 -0.5609  1.0900
  884SOL    HW2 2652   1.090   1.922   1.113  0.3518 -1.2357 -2.2850
  885SOL     OW 2653   2.292   1.761   2.357  0.3469 -0.5967  0.0626
  885SOL    HW1 2654   2.199   1.725   2.377  1.0956 -1.1797 -0.2267
  885SOL    HW2 2655   2.291   1.860   2.329 -2.5083  1.6321 -1.5651
  886SOL     OW 2656   2.693   0.458   1.811  0.5362  0.2000 -0.2318
  886SOL    HW1 2657   2.723   0.402   1.891  2.2427  1.5681 -0.9717
  886SOL    HW2 2658   2.763   0.527   1.786 -5.1551 -0.7168  0.6950
  887SOL     OW 2659   0.180   2.027   1.301 -0.2109  0.7321 -0.0174
  887SOL    HW1 2660   0.119   1.972   1.238  0.5574 -1.4673  2.1054
  887SOL    HW2 2661   0.172   2.130   1.283  0.3256 -1.1111 -1.3822
  888SOL     OW 2662   0.593   1.298   1.510 -0.0385  0.3232  0.4492
  888SOL    HW1 2663   0.624   1.323   1.413 -0.1713 -3.4744  0.1975
  888SOL    HW2 2664   0.567   1.202   1.508 -0.3251  0.8220  1.2450
  889SOL     OW 2665   0.839   2.454   2.132 -0.2782 -0.4755  0.6469
  889SOL    HW1 2666   0.759   2.490   2.082  2.6028 -1.6106 -0.7641
  889SOL    HW2 2667   0.928   2.463   2.078 -1.7599  1.3178  0.2776
  890SOL     OW 2668   2.305   2.394   0.122  0.4983  0.3203  0.2484
  890SOL    HW1 2669   2.353   2.475   0.080 -0.1413  0.0820 -1.6529
  890SOL    HW2 2670   2.213   2.421   0.165  3.0810 -1.2260  2.2397
  891SOL     OW 2671   2.600   1.614   0.646 -0.7008  0.6588  0.7390
  891SOL    HW1 2672   2.575   1.559   0.728 -0.6714  1.0610  0.3717
  891SOL    HW2 2673   2.520   1.621   0.579 -2.1502  1.1027  1.8279
  892SOL     OW 2674   0.260   0.316   2.246 -0.1677 -0.0265  0.2449
  892SOL    HW1 2675   0.270   0.320   2.147  1.9397  0.1655  1.8112
  892SOL    HW2 2676   0.342   0.349   2.300  2.5578 -0.9218 -1.4019
  893SOL     OW 2677   1.631   0.215   2.698 -0.0785  0.4208 -0.1409
  893SOL    HW1 2678   1.705   0.276   2.740 -0.5239 -0.8272 -1.7038
  893SOL    HW2 2679   1.539   0.266   2.702 -2.8754 -2.5413  0.1721
  894SOL     OW 2680   2.151   1.989   0.081 -0.1005  0.3519 -0.1243
  894SOL    HW1 2681   2.135   1.921   0.006  2.2976 -1.8478  0.8556
  894SOL    HW2 2682   2.197   1.951   0.168  2.5051  1.7765  0.1704
  895SOL     OW 2683   2.877   1.404   0.827 -0.0801 -0.1233  0.1592
  895SOL    HW1 2684   2.912   1.347   0.910  0.3722 -2.2835 -0.2672
  895SOL    HW2 2685   2.943   1.478   0.798 -0.4101  1.3085  0.4967
  896SOL     OW 2686   1.752   1.765   1.188 -0.8584 -0.5822  0.0345
  896SOL    HW1 2687   1.824   1.818   1.132 -0.7420  1.1637 -0.7629
  896SOL    HW2 2688   1.664   1.819   1.197  0.3752 -1.0929  1.5130
  897SOL     OW 2689   0.321   0.517   3.075  0.5961  0.1968 -0.3019
  897SOL    HW1 2690   0.274   0.545   2.987  0.5276  0.3027  0.6500
  897SOL    HW2 2691   0.413   0.565   3.081 -0.1186  3.0162  0.6747
  898SOL     OW 2692   0.562   2.862   1.090 -0.2743  0.7392 -0.8321
  898SOL    HW1 2693   0.488   2.918   1.136 -1.4767 -2.4842  2.1654
  898SOL    HW2 2694   0.658   2.894   1.109 -0.2746  0.5486 -2.6513
  899SOL     OW 2695   2.699   0.947   1.273  0.2751  0.1482  1.1167
  899SOL    HW1 2696   2.622   0.926   1.204 -0.8760  1.6197 -0.4911
  899SOL    HW2 2697   2.778   0.984   1.218 -1.7800 -1.8860  0.5008
  900SOL     OW 2698   0.981   2.315   2.347 -0.4493 -0.0770  0.4220
  900SOL    HW1 2699   0.914   2.362   2.285  1.0658 -1.2574  1.4903
  900SOL    HW2 2700   0.948   2.310   2.443 -2.3259 -0.8331 -2.3251
  901SOL     OW 2701   1.943   2.478   1.377  0.8612  0.4175 -0.2383
  901SOL    HW1 2702   1.907   2.468   1.283  0.9226 -0.0403  0.5694
  901SOL    HW2 2703   2.020   2.411   1.395 -0.4502 -1.0970 -1.6588
  902SOL     OW 2704   2.574   1.692   1.459 -0.1548  0.2063 -0.1324
  902SOL    HW1 2705   2.627   1.723   1.543  1.7294  0.5280 -2.4866
  902SOL    HW2 2706   2.617   1.621   1.398 -0.3056 -0.5766  0.6107
  903SOL     OW 2707   0.290   2.381   1.992 -0.0612  0.6635  0.1408
  903SOL    HW1 2708   0.197   2.356   2.029  3.7667  1.6035 -0.3057
  903SOL    HW2 2709   0.283   2.454   1.919 -1.9872  0.2042  0.3473
  904SOL     OW 2710   2.006   0.780   2.596  0.6340  0.1136  0.3900
  904SOL    HW1 2711   1.948   0.710   2.643 -1.5522 -1.4571  2.7690
  904SOL    HW2 2712   1.992   0.772   2.489  1.5316  0.6432 -1.5729
  905SOL     OW 2713   2.765   0.038   2.584  0.3208 -0.2130 -0.7021
  905SOL    HW1 2714   2.837  -0.038   2.578  2.4624 -3.2217 -1.5220
  905SOL    HW2 2715   2.805   0.131   2.547  1.1025 -0.9695 -0.0352
  906SOL     OW 2716   0.113   1.792   1.978  0.2331  0.0614 -0.6286
  906SOL    HW1 2717   0.064   1.798   1.888  3.4478  0.2104  1.5591
  906SOL    HW2 2718   0.213   1.820   1.970 -1.2256  0.7225 -0.8143
  907SOL     OW 2719   0.201   2.430   1.045  0.1406 -0.3546  0.0151
  907SOL    HW1 2720   0.268   2.511   1.041  1.1125  0.0249 -1.3803
  907SOL    HW2 2721   0.146   2.416   0.956 -0.1041 -0.2849  1.3893
  908SOL     OW 2722   2.648   2.856   0.380  0.7783  0.1814 -0.2094
  908SOL    HW1 2723   2.645   2.861   0.276  0.7368 -0.6024  0.2290
  908SOL    HW2 2724   2.658   2.763   0.425  0.0814 -0.2996 -1.0975
  909SOL     OW 2725   0.686   0.931   2.617  0.3442  0.6646  0.4579
  909SOL    HW1 2726   0.663   0.829   2.603 -0.3797  1.6202  1.4875
  909SOL    HW2 2727   0.749   0.956   2.541 -1.9802  1.4105  1.5892
  910SOL     OW 2728   1.714   1.792   2.002  0.0554  0.4285  0.0505
  910SOL    HW1 2729   1.786   1.831   1.938  0.3003 -1.1542  0.3621
  910SOL    HW2 2730   1.665   1.872   2.050 -0.5684  0.4443 -0.5607
  911SOL     OW 2731   1.738   3.023   1.573  0.0481  0.3244 -0.0950
  911SOL    HW1 2732   1.806   2.990   1.499 -0.3720 -1.5648  0.7517
  911SOL    HW2 2733   1.742   2.961   1.660  1.5165 -2.0793  0.0561
  912SOL     OW 2734   2.834   0.937   0.756  0.8296 -0.0273 -0.2428
  912SOL    HW1 2735   2.868   0.919   0.853  0.3348 -0.9188  0.6879
  912SOL    HW2 2736   2.800   1.034   0.743 -1.3010 -1.0187  0.7337
  913SOL     OW 2737   2.574   1.278   1.553  0.4723 -0.6349  0.0690
  913SOL    HW1 2738   2.572   1.188   1.602  1.9708  2.2080  0.9757
  913SOL    HW2 2739   2.618   1.277   1.456  0.1638 -0.5178 -2.0163
  914SOL     OW 2740   2.835   0.509   1.283  0.0204 -0.5066  0.2302
  914SOL    HW1 2741   2.786   0.422   1.303  2.3024  2.5106  1.9216
  914SOL    HW2 2742   2.804   0.595   1.337  2.3463  0.5501 -2.9679
  915SOL     OW 2743   1.192   0.830   1.047  0.1130 -0.7823  0.3868
  915SOL    HW1 2744   1.257   0.886   1.107  1.8053 -0.8044  1.0133
  915SOL    HW2 2745   1.099   0.818   1.092  3.0649 -0.8912 -0.0692
  916SOL     OW 2746   0.533   0.052   0.579  0.1479 -0.3917  0.2919
  916SOL    HW1 2747   0.545   0.130   0.648  0.0466  0.7741 -1.1450
  916SOL    HW2 2748   0.563   0.077   0.479  0.7966 -0.2447 -0.0103
  917SOL     OW 2749   2.753   2.594   1.894 -0.5998 -0.2186 -0.0562
  917SOL    HW1 2750   2.681   2.664   1.869  2.1055 -1.8974  0.2408
  917SOL    HW2 2751   2.842   2.628   1.866 -0.1073 -1.3588  1.0683
  918SOL     OW 2752   1.013   2.195   3.090  0.5124 -0.3571 -0.5599
  918SOL    HW1 2753   1.000   2.210   3.194 -1.3122  0.3599 -0.6261
  918SOL    HW2 2754   1.002   2.093   3.069 -2.5194 -0.3907  0.6700
  919SOL     OW 2755   0.909   1.614   2.794 -0.2557 -0.1475 -0.1117
  919SOL    HW1 2756   0.960   1.655   2.716  2.7908  0.8687  2.2835
  919SOL    HW2 2757   0.851   1.535   2.764  1.1247 -0.8667 -0.5327
  920SOL     OW 2758   1.222   2.085   2.506 -0.0731  0.1051 -0.3996
  920SOL    HW1 2759   1.176   2.062   2.417  0.0278  2.0503  0.9609
  920SOL    HW2 2760   1.279   1.999   2.536  0.8873  0.7865 -0.4122
  921SOL     OW 2761   1.053   0.126   2.584  0.1397 -0.5749 -0.2400
  921SOL    HW1 2762   1.075   0.096   2.482 -0.9827 -3.0961 -0.5655
  921SOL    HW2 2763   0.958   0.106   2.613  1.3648  0.9962  0.1019
  922SOL     OW 2764   2.079   2.417   2.779 -0.2846  0.1107 -0.0900
  922SOL    HW1 2765   2.129   2.322   2.787  0.7762  0.1979  2.9168
  922SOL    HW2 2766   2.060   2.444   2.681  0.6105  1.9568  1.9120
  923SOL     OW 2767   1.169   2.698   0.197  0.2359  0.8705 -0.0611
  923SOL    HW1 2768   1.258   2.719   0.249 -1.3530  1.5542 -3.2406
  923SOL    HW2 2769   1.173   2.607   0.149 -0.3053 -0.3876  1.5619
  924SOL     OW 2770   2.852   1.573   0.082 -0.0964  0.0824 -0.0011
  924SOL    HW1 2771   2.788   1.576  -0.001 -0.3046 -1.3276  1.0988
  924SOL    HW2 2772   2.911   1.655   0.095 -0.0745 -0.1298 -1.8356
  925SOL     OW 2773   0.098   2.879   1.606 -0.0394  0.1418  0.0940
  925SOL    HW1 2774   0.010   2.930   1.625 -0.2832  1.7424 -0.8072
  925SOL    HW2 2775   0.100   2.832   1.514 -0.7545  2.6042 -4.0924
  926SOL     OW 2776   1.461   2.891   1.309  0.0608  0.2171 -0.1242
  926SOL    HW1 2777   1.472   2.891   1.204  0.5637 -2.8323  0.3984
  926SOL    HW2 2778   1.458   2.988   1.344 -0.0136  0.9329 -1.0004
  927SOL     OW 2779   0.259   2.555   1.775  0.2813  0.0521  0.0766
  927SOL    HW1 2780   0.210   2.494   1.707  0.8015  0.4909  1.1258
  927SOL    HW2 2781   0.330   2.620   1.735  0.0693 -1.7749  0.9746
  928SOL     OW 2782   1.595   2.017   2.086 -0.2818  0.6454 -0.0757
  928SOL    HW1 2783   1.627   2.114   2.076  0.8961 -2.7016  2.4866
  928SOL    HW2 2784   1.489   2.016   2.079 -0.6244 -0.8197 -2.5241
  929SOL     OW 2785   2.347   2.440   2.825  0.3172 -0.1846  0.0655
  929SOL    HW1 2786   2.245   2.441   2.813  0.3099 -0.3942  1.6402
  929SOL    HW2 2787   2.396   2.423   2.737 -1.7181  1.8022  2.6967
  930SOL     OW 2788   2.203   1.984   1.087 -0.0746 -0.5049  0.2228
  930SOL    HW1 2789   2.223   1.945   1.184  0.4614 -2.4414  0.8888
  930SOL    HW2 2790   2.252   2.076   1.075  0.6038  0.9787 -0.2665
  931SOL     OW 2791   0.585   1.739   2.653 -0.0764  0.2430  0.5624
  931SOL    HW1 2792   0.653   1.726   2.733  1.3050 -1.7769 -2.1120
  931SOL    HW2 2793   0.582   1.669   2.569 -2.5289  0.9119 -0.3669
  932SOL     OW 2794   0.490   0.097   2.904  0.0654 -0.2098 -0.3005
  932SOL    HW1 2795   0.585   0.143   2.906  1.4192 -1.3283  1.3077
  932SOL    HW2 2796   0.490  -0.008   2.908  1.3656  0.0473 -1.0846
  933SOL     OW 2797   1.066   0.779   2.992  0.2641  0.6996 -0.6571
  933SOL    HW1 2798   1.136   0.812   3.058 -0.3425  0.6457 -1.9328
  933SOL    HW2 2799   1.022   0.854   2.939  1.8019  0.8882  0.7625
  934SOL     OW 2800   0.838   2.934   2.753  0.1407  0.5942 -0.3285
  934SOL    HW1 2801   0.851   2.848   2.695  1.6453  2.1665 -1.0242
  934SOL    HW2 2802   0.845   2.905   2.852  0.8577 -2.0264  1.8812
  935SOL     OW 2803   3.083   0.565   0.920  0.7931 -0.0745  0.0594
  935SOL    HW1 2804   3.062   0.503   0.836 -0.1412 -0.6051 -1.3034
  935SOL    HW2 2805   2.997   0.619   0.957 -3.9885 -0.3591  2.0175
  936SOL     OW 2806   1.101   2.977   0.139  0.6064 -0.6094  0.4634
  936SOL    HW1 2807   1.150   3.021   0.061 -2.2197  0.8000  0.0917
  936SOL    HW2 2808   1.121   2.874   0.156 -0.1341 -0.7571  0.0850
  937SOL     OW 2809   1.951   2.643   2.094 -0.0296  0.1200  0.1015
  937SOL    HW1 2810   1.871   2.678   2.154  1.6677  0.0457  1.1084
  937SOL    HW2 2811   1.954   2.680   1.998  0.3384 -0.9850  2.5913
  938SOL     OW 2812   2.767   2.175   1.523 -0.4775 -0.1258  0.2433
  938SOL    HW1 2813   2.725   2.266   1.549 -1.0735  0.2839 -0.6829
  938SOL    HW2 2814   2.834   2.141   1.594  3.0816  2.1155  0.1840
  939SOL     OW 2815   2.726   1.036   2.521 -0.1119 -0.6274 -0.2623
  939SOL    HW1 2816   2.757   0.936   2.522 -1.1284  0.9780  1.5488
  939SOL    HW2 2817   2.738   1.079   2.614  0.0505  1.5230 -0.6504
  940SOL     OW 2818   1.062   0.461   2.643 -0.4446 -0.2207  0.2616
  940SOL    HW1 2819   1.103   0.383   2.590  0.3928  4.5799  2.6710
  940SOL    HW2 2820   0.962   0.450   2.657  2.6177 -0.6371 -0.5345
  941SOL     OW 2821   0.069   2.874   2.215 -0.3890  0.3644  0.3935
  941SOL    HW1 2822   0.042   2.774   2.220  0.7166  0.5017  2.0592
  941SOL    HW2 2823   0.133   2.899   2.289 -1.7944  0.0648 -0.7238
  942SOL     OW 2824   0.083   0.066   2.538  0.7545  0.2030 -0.6625
  942SOL    HW1 2825   0.138   0.077   2.626 -0.9381 -1.2110  0.0123
  942SOL    HW2 2826   0.061   0.162   2.503  0.0410  2.1149 -0.5759
  943SOL     OW 2827   2.084   1.630   2.441  0.6937  0.8944  0.5870
  943SOL    HW1 2828   2.127   1.543   2.476 -2.7313  1.5455  0.6482
  943SOL    HW2 2829   1.978   1.637   2.440  1.8831 -0.5128 -2.8757
  944SOL     OW 2830   2.179   2.350   1.500  0.4313 -0.6064  0.4904
  944SOL    HW1 2831   2.231   2.439   1.535 -1.4750  2.0617 -1.6768
  944SOL    HW2 2832   2.123   2.300   1.570  3.7062  1.3928 -1.9541
  945SOL     OW 2833   0.628   1.465   0.374 -0.1331  1.0616  0.2205
  945SOL    HW1 2834   0.670   1.480   0.276 -0.1740  2.5882 -1.1221
  945SOL    HW2 2835   0.643   1.372   0.416 -0.9231  0.5229  0.0714
  946SOL     OW 2836   0.339   1.024   2.602 -0.1345 -0.0379  0.7213
  946SOL    HW1 2837   0.270   0.987   2.533 -1.1364  0.9840  0.6123
  946SOL    HW2 2838   0.351   1.123   2.602 -0.2790 -1.1838 -0.6838
  947SOL     OW 2839   1.471   0.458   0.143  0.0220 -0.1494  0.6082
  947SOL    HW1 2840   1.431   0.454   0.237  1.7001 -1.7735 -2.0289
  947SOL    HW2 2841   1.416   0.397   0.076 -0.5034 -0.5322 -1.6120
  948SOL     OW 2842   1.962   0.016   2.190  0.2189  0.2268  0.0043
  948SOL    HW1 2843   1.915   0.010   2.090 -0.6060 -1.8405 -2.0831
  948SOL    HW2 2844   1.959  -0.074   2.240  2.2994  0.1364 -0.6936
  949SOL     OW 2845   0.585   2.525   0.466 -0.4203  0.4324 -0.3484
  949SOL    HW1 2846   0.596   2.624   0.432  0.9366  0.1220  1.5444
  949SOL    HW2 2847   0.605   2.526   0.569 -1.5239  1.0780 -0.1026
  950SOL     OW 2848   0.297   2.098   3.008 -0.5319 -0.6623 -0.2635
  950SOL    HW1 2849   0.224   2.163   3.044  0.5067  0.4039  2.3395
  950SOL    HW2 2850   0.277   1.998   3.030 -0.2593  0.0370  2.8958
  951SOL     OW 2851   1.152   2.780   2.773  0.0948  0.1751  0.3581
  951SOL    HW1 2852   1.126   2.853   2.707 -2.4412 -2.0735 -0.0207
  951SOL    HW2 2853   1.253   2.780   2.804 -1.4903  0.4395 -1.8417
  952SOL     OW 2854   0.090   1.697   0.469  0.1613  0.7503 -0.3315
  952SOL    HW1 2855   0.185   1.737   0.493  3.7325 -0.1839  1.3958
  952SOL    HW2 2856   0.047   1.670   0.556  2.8683  2.6609 -0.2819
  953SOL     OW 2857   2.531   1.744   0.169 -0.3520  0.7361  0.9197
  953SOL    HW1 2858   2.499   1.647   0.182  0.0208 -1.3096 -1.6541
  953SOL    HW2 2859   2.525   1.772   0.066 -1.3843  0.0402 -0.5235
  954SOL     OW 2860   2.170   0.535   1.058 -0.3276 -0.9768  0.4265
  954SOL    HW1 2861   2.102   0.539   0.985  0.4460 -0.3492 -0.0727
  954SOL    HW2 2862   2.266   0.499   1.028  0.4882 -1.1834 -0.7601
  955SOL     OW 2863   0.246   2.657   1.304 -0.8303  0.0425 -0.1566
  955SOL    HW1 2864   0.144   2.631   1.305  0.7648 -3.1338 -1.5471
  955SOL    HW2 2865   0.286   2.637   1.211 -1.3819  2.0576  1.5459
  956SOL     OW 2866   2.771   2.478   2.521 -0.7988  0.0878  0.1079
  956SOL    HW1 2867   2.771   2.373   2.506  1.3065  0.6531 -2.3469
  956SOL    HW2 2868   2.801   2.526   2.437 -0.0198  2.5358  0.3480
  957SOL     OW 2869   1.542   2.060   2.659 -0.2065 -0.8861 -0.2810
  957SOL    HW1 2870   1.494   1.968   2.649 -0.9863 -0.6846 -3.2409
  957SOL    HW2 2871   1.587   2.095   2.579 -2.7195 -0.9029  2.0150
  958SOL     OW 2872   2.654   2.326   3.015 -0.0949 -0.4747  0.2577
  958SOL    HW1 2873   2.554   2.355   3.023 -1.9582  2.7299 -1.9853
  958SOL    HW2 2874   2.668   2.224   3.039  0.4978 -0.1140 -0.8237
  959SOL     OW 2875   0.239   2.829   0.022 -0.3065 -0.3355  0.1778
  959SOL    HW1 2876   0.138   2.825   0.043  0.3459  1.0855  0.4600
  959SOL    HW2 2877   0.284   2.735   0.026 -1.0456  1.2376 -0.6232
  960SOL     OW 2878   2.008   0.491   1.931 -0.6995 -0.6767  0.4153
  960SOL    HW1 2879   1.947   0.571   1.910  1.9382 -0.0908 -3.3843
  960SOL    HW2 2880   2.027   0.492   2.036 -0.0515  1.5195  2.9910
  961SOL     OW 2881   2.628   1.867   1.038  0.3039 -0.1951  0.1797
  961SOL    HW1 2882   2.574   1.904   0.959  1.3200  0.6335 -1.5676
  961SOL    HW2 2883   2.687   1.931   1.094  2.0527 -0.2489  0.6577
  962SOL     OW 2884   1.266   0.920   0.055  0.3937 -0.7001  0.0653
  962SOL    HW1 2885   1.248   0.975  -0.031  1.2726  1.0550 -0.2076
  962SOL    HW2 2886   1.279   0.990   0.136  0.0404  1.1359 -1.3782
  963SOL     OW 2887   2.310   2.640   1.854 -0.4687 -0.5476 -0.8566
  963SOL    HW1 2888   2.331   2.563   1.920 -0.1279 -2.0782 -1.8963
  963SOL    HW2 2889   2.319   2.728   1.907  1.4265 -1.7080  0.5712
  964SOL     OW 2890   2.454   0.385   1.693  0.0819 -0.2266  0.3991
  964SOL    HW1 2891   2.540   0.427   1.733 -0.5911 -0.0879  0.8599
  964SOL    HW2 2892   2.445   0.405   1.591 -3.1619  0.5261  2.2528
  965SOL     OW 2893   2.647   3.018   0.118  0.3873  0.2688  0.1623
  965SOL    HW1 2894   2.713   2.997   0.037 -3.5833 -1.6899  0.0831
  965SOL    HW2 2895   2.545   3.011   0.100 -0.5344 -1.4682 -1.1003
  966SOL     OW 2896   2.565   2.614   2.159  0.0368  0.5269  0.1376
  966SOL    HW1 2897   2.499   2.553   2.107  1.6265  0.6464 -1.3003
  966SOL    HW2 2898   2.546   2.713   2.145  2.0537  1.0006 -0.1725
  967SOL     OW 2899   2.777   2.839   2.454 -0.1419 -0.1840 -0.1766
  967SOL    HW1 2900   2.783   2.754   2.390  0.0377 -0.0998  1.6567
  967SOL    HW2 2901   2.866   2.883   2.479  0.4492 -0.3418  0.0814
  968SOL     OW 2902   2.000   1.051   2.706 -0.4480  0.1505 -0.1142
  968SOL    HW1 2903   1.942   1.126   2.660  3.8380  1.4674  1.4199
  968SOL    HW2 2904   1.980   0.955   2.667 -0.3746 -1.6590  0.7850
  969SOL     OW 2905   2.726   2.329   1.144 -0.3320 -0.1222  0.1454
  969SOL    HW1 2906   2.665   2.288   1.072 -0.0296  1.7547 -1.0496
  969SOL    HW2 2907   2.805   2.264   1.173 -1.3106 -1.7785  0.9587
  970SOL     OW 2908   1.104   2.217   1.771  0.0643 -0.4875  0.6786
  970SOL    HW1 2909   0.995   2.209   1.773 -0.2898 -1.4858 -2.7477
  970SOL    HW2 2910   1.147   2.244   1.863 -0.0564  2.0158 -0.1455
  971SOL     OW 2911   2.848   2.065   1.931 -0.4855  0.0772  0.5162
  971SOL    HW1 2912   2.838   2.172   1.943  0.4242  1.8348  1.1475
  971SOL    HW2 2913   2.917   2.033   1.857 -0.6446 -0.6319 -0.5955
  972SOL     OW 2914   2.065   2.425   0.252  0.0730  0.4302  0.5076
  972SOL    HW1 2915   2.015   2.337   0.225 -3.1492 -2.1355  0.3512
  972SOL    HW2 2916   2.056   2.438   0.355 -2.6039  2.5914  0.1064
  973SOL     OW 2917   1.278   1.067   1.943  0.3941  0.3891 -0.2066
  973SOL    HW1 2918   1.206   1.026   1.878  2.4431 -1.8794 -0.5564
  973SOL    HW2 2919   1.282   1.170   1.936 -1.9942 -4.3869  1.7606
  974SOL     OW 2920   1.652   0.533   1.896  0.0268 -0.1175 -0.1115
  974SOL    HW1 2921   1.734   0.576   1.846  2.8760  0.1438 -1.2099
  974SOL    HW2 2922   1.582   0.599   1.941  0.8276  2.8155 -1.6862
  975SOL     OW 2923   2.393   3.068   3.077  0.5939  0.3516  0.2620
  975SOL    HW1 2924   2.322   3.015   3.133  0.4456  1.5579  1.1092
  975SOL    HW2 2925   2.398   3.034   2.984 -2.0062 -2.2188  1.7964
  976SOL     OW 2926   1.918   2.887   2.324  0.1947  0.0305  0.1062
  976SOL    HW1 2927   1.861   2.825   2.270  1.0161  0.9520  0.3643
  976SOL    HW2 2928   1.929   2.858   2.426 -1.4911  2.2241 -1.7349
  977SOL     OW 2929   0.483   0.671   1.010 -0.6780 -0.4228  0.0486
  977SOL    HW1 2930   0.394   0.636   0.971 -0.2780  1.8183  1.0068
  977SOL    HW2 2931   0.558   0.626   0.951  0.5953 -2.1939 -3.3720
   3.10000   3.10000   3.10000
