1000 SPC/Fw water molecules t=   0.75000 step= 750
 2931
    1SOL     OW    1   2.488   0.405   2.606  0.0026 -0.0601 -0.2512
    1SOL    HW1    2   2.483   0.304   2.586  0.3650  0.4067  1.7717
    1SOL    HW2    3   2.546   0.422   2.689  1.1358 -2.4704 -2.6712
    2SOL     OW    4   2.758   3.045   1.409  0.2682  0.8108 -0.1395
    2SOL    HW1    5   2.812   3.080   1.329 -0.1612  0.7659  2.0543
    2SOL    HW2    6   2.707   3.124   1.456  0.9330  2.4237 -0.5853
    3SOL     OW    7   2.736   2.621   0.344  0.2882  0.2548 -0.5353
    3SOL    HW1    8   2.708   2.521   0.349 -0.7762  0.6953  0.2120
    3SOL    HW2    9   2.798   2.643   0.426  2.6626  0.4570  0.3347
    4SOL     OW   10   1.276   1.481   2.363 -0.2640  0.0411 -0.0051
    4SOL    HW1   11   1.192   1.534   2.337 -0.4482  0.2267 -1.0272
    4SOL    HW2   12   1.260   1.399   2.414  1.6023  1.2529 -2.1232
    5SOL     OW   13   1.158   1.521   3.089 -0.6777 -0.1553  0.0344
    5SOL    HW1   14   1.215   1.610   3.091 -1.9352 -1.5311  0.7716
    5SOL    HW2   15   1.060   1.536   3.120 -1.4049 -0.2669  2.2015
    6SOL     OW   16   0.085   1.887   2.949  0.1682 -0.1114 -0.0112
    6SOL    HW1   17   0.002   1.915   3.002 -1.3701  1.6732 -0.2088
    6SOL    HW2   18   0.152   1.821   2.998  2.1624 -1.5623 -0.0032
    7SOL     OW   19   2.556   0.964   1.153  0.3710 -0.1818  0.3319
    7SOL    HW1   20   2.500   0.892   1.200  1.8387  1.1888  0.1109
    7SOL    HW2   21   2.546   0.948   1.051  0.9840  1.1062 -0.9288
    8SOL     OW   22   0.376   0.585   1.512 -0.1391  0.4760 -0.7943
    8SOL    HW1   23   0.461   0.533   1.547 -0.8378 -1.4129 -1.6579
    8SOL    HW2   24   0.378   0.578   1.408 -1.6189  0.4707 -1.6093
    9SOL     OW   25   1.176   0.885   2.377 -0.0978 -0.2045  0.8836
    9SOL    HW1   26   1.257   0.922   2.322  1.7011 -1.6023  0.3016
    9SOL    HW2   27   1.119   0.831   2.308 -0.1740 -1.1335  1.0491
   10SOL     OW   28   0.632   1.330   1.305 -0.0215 -0.8457 -0.5313
   10SOL    HW1   29   0.542   1.339   1.256  1.0120 -1.3125  1.2429
   10SOL    HW2   30   0.699   1.412   1.289  3.9150  1.4527  2.5112
   11SOL     OW   31   2.381   2.731   0.869 -0.2759  0.0650 -0.0975
   11SOL    HW1   32   2.334   2.774   0.951  4.0784  1.8210 -1.7705
   11SOL    HW2   33   2.476   2.698   0.886 -3.0810 -0.7568  0.8537
   12SOL     OW   34   1.470   0.893   0.364 -0.0629  0.3186  0.1709
   12SOL    HW1   35   1.430   0.976   0.315  0.5433  2.3228 -2.1339
   12SOL    HW2   36   1.478   0.816   0.294  1.9721 -0.1427 -2.4973
   13SOL     OW   37   2.465   0.666   1.787 -0.5668 -0.3264 -0.2779
   13SOL    HW1   38   2.380   0.644   1.840  0.8262 -0.2562 -0.9721
   13SOL    HW2   39   2.455   0.652   1.685  1.7654 -0.4417 -2.1936
   14SOL     OW   40   1.905   0.069   0.733 -0.4135 -0.4252  0.1910
   14SOL    HW1   41   1.824   0.074   0.664 -0.8627 -0.8773 -1.2264
   14SOL    HW2   42   1.896   0.000   0.811  0.9140  0.9264  0.3561
   15SOL     OW   43   1.980   2.057   2.730  0.2850  0.4862 -0.0784
   15SOL    HW1   44   1.949   2.139   2.784  1.5957 -0.0522  0.4046
   15SOL    HW2   45   1.903   2.004   2.685 -1.6171  0.7979  0.3241
   16SOL     OW   46   1.599   1.704   2.956  0.1570  0.1385 -0.0940
   16SOL    HW1   47   1.613   1.604   2.967  1.2521  0.9373  1.6078
   16SOL    HW2   48   1.692   1.749   2.959  0.9829 -1.3791  0.3952
   17SOL     OW   49   0.146   0.532   0.175  0.0116 -0.2197  0.1558
   17SOL    HW1   50   0.242   0.551   0.133  2.8390 -1.4927 -0.7148
   17SOL    HW2   51   0.073   0.550   0.102  0.3237 -0.6405  2.3604
   18SOL     OW   52   0.926   2.967   2.094  0.3736 -0.3714 -0.1074
   18SOL    HW1   53   0.848   2.896   2.118  1.4268 -1.2485  3.3220
   18SOL    HW2   54   0.986   2.944   2.021 -0.5509  0.0177  1.4464
   19SOL     OW   55   0.515   0.825   1.889  0.4851 -0.0900 -0.1186
   19SOL    HW1   56   0.546   0.771   1.970  1.5752  1.6883 -2.0503
   19SOL    HW2   57   0.602   0.867   1.848 -2.2900  0.4973  3.4790
   20SOL     OW   58   0.220   2.724   0.815  0.0957 -0.8388  0.5332
   20SOL    HW1   59   0.160   2.808   0.798  2.0479  0.4552  2.4729
   20SOL    HW2   60   0.290   2.707   0.738  1.8233 -0.3244  1.5790
   21SOL     OW   61   2.761   0.215   2.091 -0.4500  0.1507 -0.0674
   21SOL    HW1   62   2.699   0.153   2.036  0.3486  0.8367  1.6249
   21SOL    HW2   63   2.858   0.178   2.096 -1.7416  1.2409  0.8609
   22SOL     OW   64   2.368   0.223   0.073 -0.2781  0.3126  0.6585
   22SOL    HW1   65   2.370   0.118   0.073  1.4471 -0.3499  2.6712
   22SOL    HW2   66   2.276   0.262   0.083  0.9447 -0.1848  1.0298
   23SOL     OW   67   2.764   0.650   0.631  0.2113 -0.3683  0.3925
   23SOL    HW1   68   2.821   0.560   0.643  0.0548  0.0359 -0.6369
   23SOL    HW2   69   2.767   0.686   0.531 -0.2358 -0.9473 -3.0455
   24SOL     OW   70   0.161   1.900   0.382  0.5281  0.7045  0.0704
   24SOL    HW1   71   0.087   1.933   0.316 -2.5079 -0.6917 -0.5528
   24SOL    HW2   72   0.253   1.925   0.345  0.3608  0.2443  2.4767
   25SOL     OW   73   2.211   0.543   0.320  0.2226  0.2716  0.5447
   25SOL    HW1   74   2.221   0.643   0.316 -1.5229 -0.7298 -1.6093
   25SOL    HW2   75   2.302   0.499   0.345 -1.8150 -1.4305 -0.4240
   26SOL     OW   76   2.534   2.103   2.104  0.0682 -0.1430 -0.3447
   26SOL    HW1   77   2.579   2.180   2.161  0.2916  1.4561  0.2511
   26SOL    HW2   78   2.601   2.058   2.045 -2.6215  1.7205 -0.5354
   27SOL     OW   79   0.601   2.977   0.208  0.0071 -0.0287  0.5684
   27SOL    HW1   80   0.702   2.946   0.192  1.1694 -1.0121 -0.8903
   27SOL    HW2   81   0.553   2.973   0.115 -0.5785 -1.4243  0.3895
   28SOL     OW   82   1.596   0.157   0.298 -0.1606  0.2434 -0.6363
   28SOL    HW1   83   1.640   0.138   0.203  0.1030 -1.3530 -1.9399
   28SOL    HW2   84   1.565   0.258   0.313  0.1966 -0.6975  0.0655
   29SOL     OW   85   1.948   0.587   0.416  0.0256  0.7744  0.4782
   29SOL    HW1   86   1.950   0.694   0.415 -0.5217 -0.2585  0.9732
   29SOL    HW2   87   2.037   0.553   0.376 -0.7791  1.1253 -2.6500
   30SOL     OW   88   0.205   1.996   0.903 -0.5333 -0.1083  0.1667
   30SOL    HW1   89   0.195   2.007   0.799  0.9977  0.2382  1.3011
   30SOL    HW2   90   0.146   2.064   0.961  0.8545 -1.7604 -1.7736
   31SOL     OW   91   2.113   3.067   2.322  0.0363  0.0923 -0.1128
   31SOL    HW1   92   2.103   3.062   2.426  3.9303 -2.5908 -0.0982
   31SOL    HW2   93   2.036   3.026   2.267 -1.3328 -1.0167 -0.1508
   32SOL     OW   94   2.963   0.112   0.222 -0.0825 -0.2344 -0.8534
   32SOL    HW1   95   2.934   0.034   0.282  2.8715 -1.9486 -1.4526
   32SOL    HW2   96   3.040   0.168   0.268  0.1746 -3.7079 -1.6346
   33SOL     OW   97   0.943   0.303   0.615 -0.1786 -0.7401  0.1897
   33SOL    HW1   98   0.938   0.214   0.569  2.0419  0.0354  1.6022
   33SOL    HW2   99   1.042   0.338   0.609  1.5675 -0.4056  0.4523
   34SOL     OW  100   0.317   2.804   1.094  0.0015 -0.6997  0.0288
   34SOL    HW1  101   0.287   2.739   1.016  1.3086  0.3762 -1.1667
   34SOL    HW2  102   0.417   2.828   1.084 -2.2695 -0.5269 -1.8294
   35SOL     OW  103   0.024   0.175   1.856  0.4820 -0.0704  0.1754
   35SOL    HW1  104   0.068   0.083   1.875  0.4522 -0.8279  2.4736
   35SOL    HW2  105  -0.023   0.182   1.765 -1.4759 -1.4424 -0.0623
   36SOL     OW  106   1.963   1.155   1.767  0.3801  0.4895 -0.5745
   36SOL    HW1  107   2.021   1.125   1.687 -0.2080 -2.4245  0.4277
   36SOL    HW2  108   2.012   1.221   1.823  0.8818 -3.8370 -5.4144
   37SOL     OW  109   1.200   0.154   0.900  0.2400 -0.1562  0.4006
   37SOL    HW1  110   1.238   0.195   0.989  1.8256  1.4388 -0.4632
   37SOL    HW2  111   1.270   0.094   0.849 -1.4385 -0.6957  0.5934
   38SOL     OW  112   1.097   2.817   2.454 -0.8166  0.0889  0.3791
   38SOL    HW1  113   1.041   2.732   2.454 -1.6583 -1.4797  0.8423
   38SOL    HW2  114   1.042   2.905   2.433  0.7833 -0.4207  2.4073
   39SOL     OW  115   2.311   1.407   3.028 -0.0913 -0.6139 -0.1720
   39SOL    HW1  116   2.386   1.341   2.992  3.9254  2.7623 -0.0879
   39SOL    HW2  117   2.287   1.387   3.127 -2.9255 -1.0636 -1.1602
   40SOL     OW  118   2.087   2.488   2.563  0.2833 -0.2529  0.1844
   40SOL    HW1  119   2.085   2.593   2.563 -0.0452  2.0072 -2.3599
   40SOL    HW2  120   2.020   2.445   2.496  1.4711  1.1415 -1.2128
   41SOL     OW  121   2.996   0.693   2.811  0.1639  0.3961  0.3502
   41SOL    HW1  122   2.912   0.733   2.762 -1.0286  1.3449 -0.5704
   41SOL    HW2  123   3.001   0.585   2.818 -2.3834 -2.2502 -0.0370
   42SOL     OW  124   1.753   1.753   0.526 -0.3192  0.1067 -0.1044
   42SOL    HW1  125   1.714   1.664   0.501 -0.5608  0.9755 -0.3034
   42SOL    HW2  126   1.782   1.804   0.440  0.9358 -0.1101 -1.3422
   43SOL     OW  127   0.472   1.691   1.086 -0.5473 -0.0512 -0.0201
   43SOL    HW1  128   0.473   1.641   1.171 -1.0664 -0.0508 -0.7782
   43SOL    HW2  129   0.378   1.688   1.041 -0.2334  0.5427  2.5620
   44SOL     OW  130   1.840   2.493   3.064  0.2547  0.3363  0.1240
   44SOL    HW1  131   1.846   2.584   3.020 -2.4148 -1.6804 -0.1761
   44SOL    HW2  132   1.926   2.443   3.073 -1.3223 -2.0760 -2.6644
   45SOL     OW  133   0.397   1.950   2.587  0.6683 -0.3614  0.0769
   45SOL    HW1  134   0.331   1.922   2.512 -1.0565  0.9627  0.3596
   45SOL    HW2  135   0.458   1.867   2.616  2.5263  0.0251  2.7520
   46SOL     OW  136   1.255   0.691   0.214 -0.0782  0.3162 -0.4246
   46SOL    HW1  137   1.250   0.756   0.132  2.0954  0.4081  1.6025
   46SOL    HW2  138   1.171   0.704   0.278 -2.5366  0.1254 -1.6587
   47SOL     OW  139   0.225   2.481   1.595  0.1709  0.5368 -0.2370
   47SOL    HW1  140   0.176   2.389   1.621  0.8450 -2.7862  1.5910
   47SOL    HW2  141   0.208   2.506   1.496 -1.3427 -2.6190 -1.2936
   48SOL     OW  142   2.623   0.630   0.126  0.8566  0.2778  0.2833
   48SOL    HW1  143   2.602   0.617   0.225 -0.8601 -1.7025 -4.0538
   48SOL    HW2  144   2.698   0.701   0.104  1.1765  1.5182  2.2997
   49SOL     OW  145   0.324   0.780   1.700 -0.3927  0.1371  0.0496
   49SOL    HW1  146   0.395   0.800   1.773 -1.8157  3.4983 -0.1724
   49SOL    HW2  147   0.352   0.703   1.638  1.1595  1.5008 -0.1906
   50SOL     OW  148   1.682   1.103   0.276  0.0451  0.3759  0.0255
   50SOL    HW1  149   1.713   1.016   0.234 -1.1154  2.9983  1.7466
   50SOL    HW2  150   1.628   1.086   0.361  1.8447  0.4615 -2.6809
   51SOL     OW  151   2.901   1.881   0.329  0.0331  0.3786 -0.6760
   51SOL    HW1  152   2.855   1.815   0.260 -0.6593  1.0166  0.1212
   51SOL    HW2  153   2.980   1.839   0.385  1.9535 -1.2769  1.3728
   52SOL     OW  154   0.789   2.012   0.483 -0.2721 -0.1886  0.3661
   52SOL    HW1  155   0.695   2.053   0.502  2.8350 -0.1525 -1.5624
   52SOL    HW2  156   0.816   1.935   0.546 -0.0109  0.1301 -0.6240
   53SOL     OW  157   0.187   0.423   1.598  0.1363  0.1058  0.0105
   53SOL    HW1  158   0.260   0.491   1.578 -1.1857 -0.8951  4.9264
   53SOL    HW2  159   0.093   0.459   1.584  0.4779 -0.8299  1.9091
   54SOL     OW  160   1.779   0.476   3.059 -0.0655  0.4183 -0.3253
   54SOL    HW1  161   1.825   0.453   3.149 -1.8724  0.7819  0.9900
   54SOL    HW2  162   1.676   0.472   3.066  1.1860  0.0490  1.1972
   55SOL     OW  163   0.778   2.901   0.685  0.7446 -0.0215 -0.2950
   55SOL    HW1  164   0.743   2.998   0.681 -3.8009 -2.9552  0.1420
   55SOL    HW2  165   0.876   2.891   0.654  0.3313 -0.9391  1.4086
   56SOL     OW  166   0.468   1.606   0.035  0.7991  0.0345  0.1653
   56SOL    HW1  167   0.375   1.655   0.033 -1.9578  2.5036 -0.2581
   56SOL    HW2  168   0.471   1.527  -0.038  0.9445  1.6459  0.8385
   57SOL     OW  169   1.745   2.524   2.552 -0.9627 -0.0621 -0.4413
   57SOL    HW1  170   1.795   2.440   2.514  0.6533 -0.8553 -0.3826
   57SOL    HW2  171   1.645   2.516   2.589  2.7449 -0.3609  1.5495
   58SOL     OW  172   0.637   0.308   1.036 -0.3414 -0.1518  0.1671
   58SOL    HW1  173   0.539   0.330   1.021  2.5646 -3.7248 -0.1729
   58SOL    HW2  174   0.664   0.210   1.054  3.1173  0.7502  1.2903
   59SOL     OW  175   0.453   2.424   2.752  0.1089  0.6403 -0.1923
   59SOL    HW1  176   0.493   2.347   2.695  1.1035 -1.0272 -3.2997
   59SOL    HW2  177   0.512   2.429   2.839  0.7572  0.5295 -0.6806
   60SOL     OW  178   2.291   2.054   2.195  0.1316  0.3742  0.1650
   60SOL    HW1  179   2.379   2.074   2.148 -1.1564 -0.7151  0.8629
   60SOL    HW2  180   2.302   2.076   2.291 -0.2135 -3.4492 -1.5823
   61SOL     OW  181   1.329   0.635   0.492 -0.1637  0.1315  0.9689
   61SOL    HW1  182   1.252   0.679   0.545 -0.9983  0.8571  0.7350
   61SOL    HW2  183   1.326   0.657   0.393  0.5998  0.4802 -0.7072
   62SOL     OW  184   2.774   1.807   2.909  0.0109  0.1519  0.0757
   62SOL    HW1  185   2.769   1.707   2.941  0.3381  0.9489 -2.0811
   62SOL    HW2  186   2.868   1.833   2.880 -0.0916  2.5423 -0.8086
   63SOL     OW  187   0.623   0.916   0.171 -0.0840  0.3341 -0.0633
   63SOL    HW1  188   0.625   0.975   0.088 -3.4575 -1.2250 -3.1257
   63SOL    HW2  189   0.691   0.938   0.245  1.0288  1.7797  1.1953
   64SOL     OW  190   0.132   0.512   2.472 -0.6943 -0.6979 -0.2345
   64SOL    HW1  191   0.191   0.491   2.557  1.2992 -1.0918 -2.7162
   64SOL    HW2  192   0.156   0.606   2.437  1.2578 -0.7139  1.1643
   65SOL     OW  193   0.194   1.489   0.557 -0.4017 -0.2705  0.0076
   65SOL    HW1  194   0.217   1.528   0.648 -2.7537  0.6492 -1.0619
   65SOL    HW2  195   0.256   1.506   0.478 -1.5442  1.8829 -0.0384
   66SOL     OW  196   2.544   0.387   0.587  0.1885 -0.0222  0.4693
   66SOL    HW1  197   2.645   0.401   0.598 -1.1320 -2.5422  0.6152
   66SOL    HW2  198   2.509   0.306   0.634 -0.7035  1.1621  1.3038
   67SOL     OW  199   0.528   2.539   1.367 -0.1309 -0.1453 -0.0975
   67SOL    HW1  200   0.610   2.528   1.430  1.8244 -1.3918 -1.1370
   67SOL    HW2  201   0.479   2.444   1.362  1.3289 -1.6605  1.6897
   68SOL     OW  202   1.004   1.098   2.448  0.3463 -0.3846  0.2668
   68SOL    HW1  203   1.053   1.010   2.417 -1.1558 -1.8669 -1.6882
   68SOL    HW2  204   0.927   1.125   2.382  0.4282 -1.4990 -1.2807
   69SOL     OW  205   0.749   2.784   2.168  0.1325 -0.3599 -0.6018
   69SOL    HW1  206   0.791   2.692   2.164  2.0103  2.6509 -2.1919
   69SOL    HW2  207   0.644   2.787   2.182 -1.6518 -2.6808  0.6318
   70SOL     OW  208   0.552   0.331   2.687 -0.3624  0.0064  0.2785
   70SOL    HW1  209   0.480   0.367   2.746 -1.3801  1.0329 -2.5037
   70SOL    HW2  210   0.562   0.231   2.707 -1.9143  0.3650  1.5135
   71SOL     OW  211   1.071   1.726   0.376  0.2779  0.5216  0.4563
   71SOL    HW1  212   0.987   1.673   0.393 -1.9503  0.0666  0.3081
   71SOL    HW2  213   1.068   1.767   0.279 -0.6431 -0.0691  0.9003
   72SOL     OW  214   1.822   0.172   2.122  0.8500 -0.1824  0.1983
   72SOL    HW1  215   1.905   0.202   2.174 -2.3272  0.2764 -1.5088
   72SOL    HW2  216   1.813   0.067   2.113 -0.7858 -0.4915  0.1994
   73SOL     OW  217   2.825   2.168   2.421 -0.3957 -0.0480  0.1393
   73SOL    HW1  218   2.814   2.064   2.397  2.0264 -1.1661 -4.0446
   73SOL    HW2  219   2.864   2.171   2.511  1.3685  0.0408 -1.0827
   74SOL     OW  220   2.724   2.898   2.100  0.0107  0.1749  0.4416
   74SOL    HW1  221   2.666   2.907   2.185  2.1656  0.5333 -1.6292
   74SOL    HW2  222   2.825   2.935   2.116 -1.0042  2.5798 -0.8025
   75SOL     OW  223   0.903   0.752   1.093 -0.0588  0.1240  0.1544
   75SOL    HW1  224   0.818   0.798   1.047  1.1882 -1.0984 -3.2759
   75SOL    HW2  225   0.938   0.811   1.174  0.4560 -0.4592  1.6398
   76SOL     OW  226   1.692   1.243   2.501  0.4908 -0.7485 -0.7408
   76SOL    HW1  227   1.609   1.184   2.502  1.1586  0.2220  1.8197
   76SOL    HW2  228   1.694   1.332   2.562  0.7019  1.8423  1.8895
   77SOL     OW  229   2.994   0.914   0.978  0.3271 -0.0320  0.0587
   77SOL    HW1  230   2.986   0.810   0.980 -2.0142  1.1894  3.0479
   77SOL    HW2  231   3.057   0.944   1.051 -0.7978  0.8462 -2.9109
   78SOL     OW  232   2.097   1.427   1.538 -0.0003  0.4723 -0.3585
   78SOL    HW1  233   2.195   1.426   1.506  1.0608  2.6094  1.1114
   78SOL    HW2  234   2.033   1.451   1.459  2.1100 -0.0316 -2.7838
   79SOL     OW  235   0.619   1.324   0.873 -0.4713  0.6140 -0.2842
   79SOL    HW1  236   0.535   1.379   0.897 -0.7086  2.8919  0.3817
   79SOL    HW2  237   0.612   1.284   0.778 -2.4592  1.4462  1.6729
   80SOL     OW  238   0.623   0.483   1.570 -0.0513 -0.3320  0.1952
   80SOL    HW1  239   0.677   0.560   1.525 -0.9962  0.5437  0.5686
   80SOL    HW2  240   0.670   0.393   1.561 -1.6183 -1.9377 -2.0041
   81SOL     OW  241   1.040   1.380   2.619  0.1830  0.0043  0.4267
   81SOL    HW1  242   1.051   1.288   2.573 -0.1322  1.8947 -1.5064
   81SOL    HW2  243   0.965   1.428   2.571 -0.5999  2.7619 -0.1829
   82SOL     OW  244   1.002   2.941   1.495  0.4380 -0.0312  0.2518
   82SOL    HW1  245   1.030   3.004   1.419  0.3223 -1.2583  1.1301
   82SOL    HW2  246   0.945   2.858   1.469  0.7237  0.5597  0.6392
   83SOL     OW  247   2.745   2.497   0.842 -0.2037 -0.5246 -0.2453
   83SOL    HW1  248   2.670   2.431   0.817 -0.5836  1.2253 -0.0779
   83SOL    HW2  249   2.711   2.599   0.837 -0.6610  2.6176  0.1526
   84SOL     OW  250   0.663   3.054   2.348 -0.5902  0.3110  0.2613
   84SOL    HW1  251   0.587   3.052   2.418  0.3058  0.9926  0.0740
   84SOL    HW2  252   0.731   2.979   2.359  0.4096 -2.7839  0.6964
   85SOL     OW  253   0.312   1.585   1.508 -0.0515 -0.1884  0.4086
   85SOL    HW1  254   0.254   1.668   1.538 -1.0669  1.0025 -2.4995
   85SOL    HW2  255   0.368   1.533   1.577 -0.0457 -0.0173 -1.4350
   86SOL     OW  256   0.384   0.980   1.513 -0.2933  0.3829  0.4886
   86SOL    HW1  257   0.380   0.958   1.410  0.6984 -0.5779 -1.3329
   86SOL    HW2  258   0.382   0.898   1.574  1.0891  0.4273  0.9608
   87SOL     OW  259   1.612   0.663   0.213  0.3044 -0.3240  0.4528
   87SOL    HW1  260   1.670   0.745   0.198 -0.2999  0.3871 -1.6369
   87SOL    HW2  261   1.563   0.623   0.128  0.9445 -0.5217  0.3564
   88SOL     OW  262   1.605   1.362   0.199 -0.1650 -0.4565  0.3838
   88SOL    HW1  263   1.636   1.263   0.202  2.5153  0.4429  1.5195
   88SOL    HW2  264   1.503   1.371   0.205 -0.4556  2.0881 -1.1143
   89SOL     OW  265   0.035   0.423   0.587 -0.0128  0.1882 -0.4006
   89SOL    HW1  266   0.105   0.354   0.558 -0.6143 -0.3841  1.2495
   89SOL    HW2  267  -0.061   0.393   0.557 -0.2233  0.4363 -0.9429
   90SOL     OW  268   0.898   1.624   0.029  0.3636  0.0976  0.6135
   90SOL    HW1  269   0.825   1.564   0.078 -0.1535 -0.3915  0.2172
   90SOL    HW2  270   0.869   1.639  -0.069 -0.2450 -0.6514  1.3898
   91SOL     OW  271   1.223   1.447   1.759 -0.2521 -0.2534 -0.0779
   91SOL    HW1  272   1.201   1.537   1.811 -0.7968 -2.1049  0.7188
   91SOL    HW2  273   1.328   1.443   1.740  0.7989  1.4470 -0.2712
   92SOL     OW  274   0.041   0.975   1.200 -0.1416  0.3550  0.4266
   92SOL    HW1  275   0.085   1.065   1.173 -0.8176  0.6037  0.1411
   92SOL    HW2  276   0.041   0.958   1.305 -0.1746  0.2015  0.7154
   93SOL     OW  277   0.021   2.743   3.095 -0.3992 -0.2316  0.0503
   93SOL    HW1  278  -0.047   2.744   3.020  0.1076 -1.3826  1.4097
   93SOL    HW2  279   0.057   2.649   3.117 -1.9840 -1.1417 -2.5060
   94SOL     OW  280   1.518   1.447   1.758 -0.4271  0.7117  0.3180
   94SOL    HW1  281   1.579   1.364   1.757  2.3122  0.9816  1.3548
   94SOL    HW2  282   1.548   1.514   1.828  1.7337  0.6016 -2.9626
   95SOL     OW  283   1.389   2.528   3.028 -0.0119  0.7821 -0.3465
   95SOL    HW1  284   1.305   2.513   3.086 -1.6323  0.2606  0.6859
   95SOL    HW2  285   1.402   2.452   2.959  0.5384  2.5836 -0.8061
   96SOL     OW  286   0.530   2.086   1.299 -0.4359 -0.0537 -0.9874
   96SOL    HW1  287   0.488   2.047   1.213  1.9060  2.2979 -1.3193
   96SOL    HW2  288   0.599   2.018   1.343 -1.8599 -0.8668 -1.4412
   97SOL     OW  289   0.383   1.654   2.450 -0.1622 -0.0745 -0.2434
   97SOL    HW1  290   0.305   1.709   2.410  0.8564 -0.9511  0.4445
   97SOL    HW2  291   0.390   1.660   2.550  0.0397  0.5864 -0.4845
   98SOL     OW  292   1.978   1.600   1.238  0.3215  0.1816  0.2146
   98SOL    HW1  293   1.903   1.580   1.303  1.8615  0.2688  0.9160
   98SOL    HW2  294   1.977   1.537   1.155 -1.0288  0.4292 -0.0964
   99SOL     OW  295   2.447   2.094   1.397 -0.1751 -0.6245 -0.1609
   99SOL    HW1  296   2.444   2.098   1.499 -2.5835 -0.9771 -1.5296
   99SOL    HW2  297   2.467   2.002   1.356  0.8563 -0.0565  0.1651
  100SOL     OW  298   2.330   0.313   2.091  0.2461 -0.1573  0.0706
  100SOL    HW1  299   2.265   0.295   2.169 -2.6476 -1.2815  1.4072
  100SOL    HW2  300   2.428   0.320   2.126  1.1347 -1.7225 -0.5588
  101SOL     OW  301   0.349   1.506   0.292  0.1679 -0.0742  0.7690
  101SOL    HW1  302   0.419   1.506   0.367 -0.4551  1.4307  1.3624
  101SOL    HW2  303   0.353   1.588   0.232  0.0070 -0.1567 -1.1139
  102SOL     OW  304   2.275   1.008   0.857 -0.7115  0.7071 -0.7449
  102SOL    HW1  305   2.198   0.945   0.840  2.8550  0.7112  0.8965
  102SOL    HW2  306   2.312   1.058   0.770  0.4869 -1.7330 -1.3166
  103SOL     OW  307   2.285   0.032   0.395 -0.0844  0.0934 -0.0042
  103SOL    HW1  308   2.308   0.136   0.397 -1.3463 -0.0530 -0.9873
  103SOL    HW2  309   2.359  -0.015   0.445 -0.9607  2.2616  0.4648
  104SOL     OW  310   0.129   1.779   2.179  0.5536 -0.2728  0.2197
  104SOL    HW1  311   0.180   1.748   2.097 -2.2443  0.3327  0.5549
  104SOL    HW2  312   0.024   1.775   2.175 -1.1780  0.3605 -2.1173
  105SOL     OW  313   1.255   2.126   0.795 -0.5890  0.1059  0.2401
  105SOL    HW1  314   1.169   2.125   0.739 -0.0657 -0.2318  0.4258
  105SOL    HW2  315   1.291   2.031   0.813  0.3965  0.6381 -1.9261
  106SOL     OW  316   2.157   0.441   1.430 -0.0996 -0.5135  0.0682
  106SOL    HW1  317   2.087   0.369   1.407  0.4196 -1.4188  0.0560
  106SOL    HW2  318   2.141   0.479   1.524  0.2251  0.0422  1.3602
  107SOL     OW  319   1.744   3.053   1.156  0.3762 -0.0480  0.3666
  107SOL    HW1  320   1.797   3.128   1.207 -0.5935  1.8839  3.0128
  107SOL    HW2  321   1.694   2.986   1.220  2.1457 -1.8299 -0.6692
  108SOL     OW  322   0.800   2.779   1.196 -0.3963 -0.1434  0.1841
  108SOL    HW1  323   0.780   2.766   1.297  2.7504 -0.3699 -0.8119
  108SOL    HW2  324   0.901   2.798   1.180 -0.3309  0.6743 -0.9117
  109SOL     OW  325   2.199   0.123   0.723 -0.9344  0.2853 -0.4443
  109SOL    HW1  326   2.098   0.103   0.709 -0.6269  0.2621 -1.8027
  109SOL    HW2  327   2.228   0.133   0.822 -3.1418  0.6117 -0.4509
  110SOL     OW  328   0.469   2.860   2.773  0.4790 -0.1274  0.0747
  110SOL    HW1  329   0.463   2.886   2.669  0.0174  1.2342  1.0955
  110SOL    HW2  330   0.541   2.786   2.786  0.6585  1.3912 -2.2374
  111SOL     OW  331   1.302   0.537   2.315 -0.3213  0.8575  0.3148
  111SOL    HW1  332   1.220   0.554   2.372 -0.9891 -1.0213  0.8231
  111SOL    HW2  333   1.361   0.460   2.353  1.0748  1.0668  1.5525
  112SOL     OW  334   1.714   0.561   1.489  0.1860 -0.4285 -0.5375
  112SOL    HW1  335   1.762   0.546   1.398  0.5487  2.3408  2.0730
  112SOL    HW2  336   1.680   0.474   1.534 -0.1853  0.4553  0.5434
  113SOL     OW  337   2.251   1.673   1.770  0.2811 -0.1105  0.2462
  113SOL    HW1  338   2.303   1.595   1.721 -0.5075 -1.2134  0.4590
  113SOL    HW2  339   2.277   1.676   1.870  1.6628 -1.1369 -0.9515
  114SOL     OW  340   0.363   0.534   1.261 -0.0627  0.3753  0.4482
  114SOL    HW1  341   0.433   0.568   1.190 -1.9237 -1.3223 -0.3149
  114SOL    HW2  342   0.267   0.546   1.225  1.2254  1.2146  1.1370
  115SOL     OW  343   2.789   1.588   1.291 -1.0021 -0.4197  0.3811
  115SOL    HW1  344   2.790   1.484   1.307  2.6196 -0.4485 -1.4332
  115SOL    HW2  345   2.812   1.611   1.190 -1.5301  1.5992 -3.0767
  116SOL     OW  346   1.853   1.053   0.721  0.3615 -0.2337  0.4723
  116SOL    HW1  347   1.772   1.016   0.671  2.1806 -1.8478  0.3829
  116SOL    HW2  348   1.825   1.130   0.782  0.0661 -1.4828  0.5426
  117SOL     OW  349   1.187   0.421   0.633  0.3215  0.0877 -1.2361
  117SOL    HW1  350   1.230   0.432   0.721 -0.9888 -2.1876 -0.4407
  117SOL    HW2  351   1.216   0.492   0.562 -2.6084 -0.9559 -1.2071
  118SOL     OW  352   1.124   1.120   1.072 -0.4878 -0.8766 -0.1556
  118SOL    HW1  353   1.091   1.052   1.144  1.3148  0.0572 -3.5109
  118SOL    HW2  354   1.155   1.204   1.120  2.1466  1.2388 -0.2441
  119SOL     OW  355   1.811   1.619   2.160 -0.4820  0.1711  0.1465
  119SOL    HW1  356   1.799   1.724   2.164 -0.0296 -1.8957 -0.4753
  119SOL    HW2  357   1.909   1.591   2.125  2.0835 -3.8230 -0.5902
  120SOL     OW  358   2.937   2.839   0.158  0.3333  0.9873 -0.4194
  120SOL    HW1  359   3.016   2.815   0.090  1.0748  0.5302  1.2188
  120SOL    HW2  360   2.849   2.802   0.129 -0.5346  0.1405  1.3293
  121SOL     OW  361   2.006   0.760   2.299 -0.2618 -0.1993 -0.2140
  121SOL    HW1  362   2.018   0.817   2.212 -0.3164  0.8752 -2.3089
  121SOL    HW2  363   2.043   0.665   2.285  0.7102  2.0120 -0.7836
  122SOL     OW  364   2.635   2.686   1.219  0.3919 -0.7871  0.1444
  122SOL    HW1  365   2.684   2.604   1.175  0.4113 -0.4722 -0.2989
  122SOL    HW2  366   2.568   2.737   1.151 -0.9878  0.8564 -1.4826
  123SOL     OW  367   1.767   0.092   1.701 -0.3747  0.4573  0.3204
  123SOL    HW1  368   1.791  -0.001   1.659  0.4045 -1.9500  0.3566
  123SOL    HW2  369   1.848   0.134   1.755 -0.2562 -1.3814  0.3806
  124SOL     OW  370   0.122   0.446   1.081  0.1514  0.3330  0.0773
  124SOL    HW1  371   0.099   0.539   1.138 -0.6765 -1.3159  3.2274
  124SOL    HW2  372   0.091   0.451   0.980 -0.8058  0.7935 -2.3145
  125SOL     OW  373   0.846   1.855   0.700  0.3379  0.0481  0.1443
  125SOL    HW1  374   0.937   1.812   0.722 -1.7466  1.6714 -1.7691
  125SOL    HW2  375   0.792   1.885   0.781  1.9863 -0.8434  0.6159
  126SOL     OW  376   1.878   2.291   2.471 -0.2402 -0.0086 -0.2692
  126SOL    HW1  377   1.944   2.266   2.393 -1.0005  0.1155 -0.5963
  126SOL    HW2  378   1.820   2.210   2.495 -0.9056  0.6301 -1.5877
  127SOL     OW  379   0.905   0.893   0.283  0.9723  0.5969  0.1608
  127SOL    HW1  380   0.912   0.937   0.379 -1.5098 -1.0140  0.3062
  127SOL    HW2  381   0.927   0.791   0.293  2.9091 -0.9127  1.3965
  128SOL     OW  382   0.915   0.258   1.398 -0.7107 -0.3088 -0.0363
  128SOL    HW1  383   0.884   0.332   1.331  0.1913  2.1551 -2.6940
  128SOL    HW2  384   0.897   0.166   1.367 -0.0440 -0.1201 -0.0810
  129SOL     OW  385   1.813   0.721   1.894  0.5523  0.4415 -0.0809
  129SOL    HW1  386   1.829   0.726   1.791 -0.3136 -0.6866 -1.9270
  129SOL    HW2  387   1.874   0.787   1.950 -1.0149 -3.5748  0.4230
  130SOL     OW  388   1.363   2.207   1.024 -0.3192  0.5268 -0.4069
  130SOL    HW1  389   1.309   2.192   0.937  1.0571 -1.1184  1.5567
  130SOL    HW2  390   1.455   2.254   1.014 -0.3993  1.1535 -0.5953
  131SOL     OW  391   3.028   1.420   1.350  0.0106  0.5204  0.0059
  131SOL    HW1  392   2.955   1.358   1.383  1.3731  0.5508  0.1098
  131SOL    HW2  393   3.119   1.390   1.384 -2.5524 -0.9184 -0.3676
  132SOL     OW  394   2.051   2.444   0.523 -0.1518  0.1484 -0.2435
  132SOL    HW1  395   1.950   2.474   0.534 -2.6886 -0.7361 -0.7278
  132SOL    HW2  396   2.071   2.360   0.582 -0.9034  1.5214 -3.0036
  133SOL     OW  397   1.893   2.327   2.814 -0.0468  0.4422  0.9141
  133SOL    HW1  398   1.824   2.372   2.872 -2.7035  0.3636 -1.3286
  133SOL    HW2  399   1.897   2.378   2.725  0.9200 -0.9303  0.2907
  134SOL     OW  400   2.689   2.331   1.679 -0.1764  0.2938 -0.1467
  134SOL    HW1  401   2.624   2.333   1.759 -0.9156  1.1774 -2.9632
  134SOL    HW2  402   2.731   2.421   1.651 -0.4709  0.3201  0.3590
  135SOL     OW  403   0.701   1.472   2.658 -0.2361  0.2631  0.2651
  135SOL    HW1  404   0.667   1.375   2.668 -1.3086 -3.1849 -0.5209
  135SOL    HW2  405   0.746   1.485   2.557 -0.0075  0.1341 -0.8335
  136SOL     OW  406   1.215   1.969   0.423  0.4313  0.1315 -0.3695
  136SOL    HW1  407   1.187   2.028   0.503  1.2550  0.5166 -1.4156
  136SOL    HW2  408   1.158   1.887   0.402  2.6657  1.7991 -0.5823
  137SOL     OW  409   0.431   1.137   2.147 -0.1017  0.3238  0.3276
  137SOL    HW1  410   0.347   1.134   2.203  0.3108 -1.3915  0.7418
  137SOL    HW2  411   0.507   1.073   2.178  2.3826 -1.0677 -0.9039
  138SOL     OW  412   2.416   1.526   0.263 -0.0039  0.9004 -0.2526
  138SOL    HW1  413   2.327   1.478   0.233 -1.6482  4.0217 -1.7010
  138SOL    HW2  414   2.494   1.461   0.294  1.8583  0.1062 -0.8210
  139SOL     OW  415   1.864   2.627   1.290 -0.2862 -0.0410 -0.4083
  139SOL    HW1  416   1.767   2.621   1.266  3.6128 -1.3055  0.2194
  139SOL    HW2  417   1.896   2.539   1.332 -0.7303 -1.0861 -1.5067
  140SOL     OW  418   3.010   2.954   2.559 -0.0909  0.4989 -0.6114
  140SOL    HW1  419   3.026   2.851   2.561 -0.2072 -1.9943 -0.5895
  140SOL    HW2  420   3.095   3.012   2.569  0.3983  2.1236  0.9373
  141SOL     OW  421   1.323   1.689   1.639  0.0156 -0.3162 -0.0336
  141SOL    HW1  422   1.219   1.699   1.635 -0.6202 -1.5262  1.9836
  141SOL    HW2  423   1.352   1.612   1.698  0.0756 -0.6737  0.2215
  142SOL     OW  424   1.576   0.581   2.238  0.1163  0.1741  0.6554
  142SOL    HW1  425   1.584   0.560   2.134 -1.4461 -0.7051 -0.1472
  142SOL    HW2  426   1.480   0.581   2.275  2.7957  1.3007 -0.0835
  143SOL     OW  427   2.751   0.906   0.482  0.1514  0.1026  0.1131
  143SOL    HW1  428   2.799   0.960   0.409  2.0698 -0.1272 -0.9859
  143SOL    HW2  429   2.786   0.913   0.579 -0.5669 -0.0942  0.9401
  144SOL     OW  430   2.913   1.188   1.474  0.3535 -0.2167  0.2127
  144SOL    HW1  431   2.879   1.173   1.571  1.0015 -0.1409 -1.4464
  144SOL    HW2  432   2.983   1.114   1.451 -2.9972  0.1207 -3.0417
  145SOL     OW  433   1.033   1.859   0.130 -0.1610 -0.7209  0.9206
  145SOL    HW1  434   1.065   1.926   0.059 -0.3813 -1.5449  0.9293
  145SOL    HW2  435   0.979   1.779   0.093  0.7509  0.9586  0.6829
  146SOL     OW  436   2.497   0.678   1.506  0.5354  0.3927  0.2399
  146SOL    HW1  437   2.484   0.582   1.467  0.8084  0.7511 -2.2151
  146SOL    HW2  438   2.439   0.753   1.464  1.9494 -3.4320 -0.1879
  147SOL     OW  439   1.127   2.472   0.621 -0.8003 -0.1974  0.0198
  147SOL    HW1  440   1.076   2.534   0.553  1.7901  0.2731 -2.3586
  147SOL    HW2  441   1.212   2.416   0.588  0.3293 -3.3799 -1.5526
  148SOL     OW  442   1.684   1.460   3.043  0.2601 -0.1346 -0.4408
  148SOL    HW1  443   1.686   1.388   2.969 -0.2856  1.8277 -0.0133
  148SOL    HW2  444   1.656   1.431   3.138 -0.3213 -0.7446 -1.5881
  149SOL     OW  445   0.698   1.424   1.964  0.5375 -0.2466 -0.3192
  149SOL    HW1  446   0.602   1.390   1.987  2.0739  0.3429  0.3599
  149SOL    HW2  447   0.749   1.356   1.905 -0.9492 -0.4310 -0.0038
  150SOL     OW  448   3.040   1.260   0.952 -0.0497 -0.3731 -0.6965
  150SOL    HW1  449   3.126   1.256   1.008 -0.4562  0.4322  0.6108
  150SOL    HW2  450   2.982   1.179   0.976 -0.2513  1.0083  0.7967
  151SOL     OW  451   0.232   0.726   2.137 -0.4032 -0.0622  0.3433
  151SOL    HW1  452   0.229   0.806   2.069  0.6175  0.6100  0.0957
  151SOL    HW2  453   0.253   0.636   2.086  0.3671 -1.3355  0.5107
  152SOL     OW  454   1.406   1.760   1.284 -0.0206  0.1725  0.0461
  152SOL    HW1  455   1.417   1.857   1.322  2.9361  1.7320 -0.3994
  152SOL    HW2  456   1.309   1.745   1.242  0.6199  1.6857  1.1295
  153SOL     OW  457   3.088   1.514   0.162  0.3307 -0.2279 -0.3104
  153SOL    HW1  458   3.097   1.412   0.174  1.2916 -0.4030 -0.0254
  153SOL    HW2  459   3.118   1.561   0.251 -0.6316 -1.7651 -0.3864
  154SOL     OW  460   2.368   1.866   2.752  0.1843 -0.2670  0.7168
  154SOL    HW1  461   2.372   1.764   2.770 -0.7310  0.5851 -0.8479
  154SOL    HW2  462   2.444   1.893   2.686 -2.9018 -1.8267 -0.3048
  155SOL     OW  463   2.435   1.216   0.397  0.2036 -0.1042  0.4439
  155SOL    HW1  464   2.519   1.191   0.340  3.3248 -1.7701  0.6342
  155SOL    HW2  465   2.348   1.188   0.350  0.3310 -0.0906 -1.8125
  156SOL     OW  466   2.544   0.967   0.869 -0.7342  0.0650  0.0861
  156SOL    HW1  467   2.444   0.978   0.872 -0.3424  2.0693 -0.8774
  156SOL    HW2  468   2.591   1.038   0.811  1.6684 -1.8122 -1.2471
  157SOL     OW  469   1.294   2.947   3.051 -0.1715 -0.7590 -0.4674
  157SOL    HW1  470   1.331   2.949   2.954  1.1861  0.2411 -1.2136
  157SOL    HW2  471   1.310   3.036   3.105  4.4515  2.2899  0.0915
  158SOL     OW  472   1.039   1.837   1.917 -0.3228 -0.5152 -0.2477
  158SOL    HW1  473   1.061   1.924   1.871  1.3644  0.6167  0.4109
  158SOL    HW2  474   0.955   1.847   1.976  1.5566 -0.9111  0.5854
  159SOL     OW  475   0.823   0.439   1.212 -0.0450  0.1116 -0.5945
  159SOL    HW1  476   0.788   0.516   1.272  0.0786 -1.9583  2.7575
  159SOL    HW2  477   0.748   0.395   1.156  1.3779  3.6115  0.3898
  160SOL     OW  478   1.398   2.323   1.597  0.0410 -0.2777 -0.5748
  160SOL    HW1  479   1.370   2.350   1.694  0.8710  1.8831 -0.3779
  160SOL    HW2  480   1.498   2.306   1.584  0.4261 -3.5860  0.9958
  161SOL     OW  481   0.076   2.931   0.301  0.2849 -0.0719  0.4404
  161SOL    HW1  482  -0.023   2.910   0.297  0.8486  0.2476 -1.7110
  161SOL    HW2  483   0.113   2.986   0.215 -0.6521  0.3994 -2.8441
  162SOL     OW  484   2.492   1.907   0.470 -0.2852 -0.1062 -0.1168
  162SOL    HW1  485   2.500   1.872   0.375  0.3631 -2.8046  3.9577
  162SOL    HW2  486   2.507   1.836   0.539 -0.6007  0.3729 -0.6624
  163SOL     OW  487   1.884   2.802   0.726 -0.1342  0.9001 -0.5276
  163SOL    HW1  488   1.893   2.800   0.621 -0.2363 -0.2269 -0.6362
  163SOL    HW2  489   1.968   2.768   0.777 -1.2538 -0.2755 -0.1403
  164SOL     OW  490   3.083   0.225   1.177 -0.1956 -0.0158  0.2872
  164SOL    HW1  491   3.146   0.302   1.135  0.4782  4.4227  0.3756
  164SOL    HW2  492   3.122   0.182   1.265 -2.2118 -2.2216  1.0906
  165SOL     OW  493   0.936   1.424   0.724  0.1504  0.6412  0.9123
  165SOL    HW1  494   0.906   1.479   0.809 -1.8150  0.2785 -0.4514
  165SOL    HW2  495   0.912   1.454   0.631  0.7701 -1.5625 -0.4151
  166SOL     OW  496   1.494   1.096   1.730  0.1145  0.2314 -0.3126
  166SOL    HW1  497   1.418   1.094   1.804  0.2720 -3.7599 -0.9256
  166SOL    HW2  498   1.578   1.152   1.755 -1.6911  1.2607 -2.9487
  167SOL     OW  499   0.727   1.932   1.440  0.2741  0.2364  0.0976
  167SOL    HW1  500   0.748   2.005   1.515 -0.1956 -0.6133  0.7311
  167SOL    HW2  501   0.676   1.851   1.477  0.1574 -1.5592  0.2983
  168SOL     OW  502   1.631   2.377   0.156  0.5502 -0.0197  0.4199
  168SOL    HW1  503   1.708   2.405   0.100 -3.5176  0.6245 -1.0366
  168SOL    HW2  504   1.654   2.334   0.247 -2.3375 -0.3485  1.1017
  169SOL     OW  505   0.157   2.557   2.228  0.4530 -0.4945 -0.2508
  169SOL    HW1  506   0.170   2.533   2.128  0.4667  1.0054  0.2896
  169SOL    HW2  507   0.206   2.495   2.297 -1.1828  0.8808  2.3800
  170SOL     OW  508   1.149   0.228   1.993 -0.6387  0.0059 -0.2286
  170SOL    HW1  509   1.224   0.212   2.064 -2.1247  1.6126 -1.0524
  170SOL    HW2  510   1.152   0.162   1.912  2.6143 -0.1034 -0.0808
  171SOL     OW  511   0.203   0.788   2.428  0.1722 -0.4377  0.3806
  171SOL    HW1  512   0.115   0.844   2.450 -2.2320  0.2623 -2.4546
  171SOL    HW2  513   0.232   0.787   2.328  2.0176  0.0357 -1.3857
  172SOL     OW  514   0.918   1.049   2.908  0.8056  0.3791 -0.3120
  172SOL    HW1  515   1.002   1.108   2.932  1.1113  0.6765 -1.5753
  172SOL    HW2  516   0.891   1.054   2.808 -0.1099  0.2775  2.4719
  173SOL     OW  517   0.650   2.672   0.090 -0.0718  0.2415  0.3787
  173SOL    HW1  518   0.613   2.733   0.016  2.0724  0.7780  0.5675
  173SOL    HW2  519   0.576   2.630   0.143  2.5634  3.4651 -2.8341
  174SOL     OW  520   1.437   2.835   1.099  0.6429 -0.0881 -0.0230
  174SOL    HW1  521   1.433   2.912   1.027 -1.7939  1.0955  0.3140
  174SOL    HW2  522   1.436   2.744   1.060 -0.1603  1.5283  1.6264
  175SOL     OW  523   0.384   0.057   1.689 -0.0091 -0.8619 -0.2517
  175SOL    HW1  524   0.454   0.075   1.766 -1.9036 -0.4048  0.8818
  175SOL    HW2  525   0.351   0.145   1.644  2.3567 -0.4994 -0.4683
  176SOL     OW  526   2.578   0.381  -0.001  0.6834  0.3818  0.3927
  176SOL    HW1  527   2.585   0.456   0.069 -3.2328 -2.6984  1.8479
  176SOL    HW2  528   2.501   0.318   0.027 -1.5010 -2.5965  0.1279
  177SOL     OW  529   0.358   0.317   0.994  0.1074 -0.1707  0.1601
  177SOL    HW1  530   0.356   0.224   1.042 -3.3435  1.7478  0.0710
  177SOL    HW2  531   0.288   0.382   1.041  3.0702  1.4857  1.2032
  178SOL     OW  532   3.080   2.654   2.642 -0.3685  0.2737 -0.2321
  178SOL    HW1  533   2.999   2.615   2.693  2.0419 -1.3105  0.4171
  178SOL    HW2  534   3.166   2.669   2.703  1.3786  0.1426 -0.7323
  179SOL     OW  535   0.015   1.681   1.191 -0.0025 -0.7411 -0.0776
  179SOL    HW1  536  -0.029   1.771   1.183  0.1493 -4.4889  0.2832
  179SOL    HW2  537  -0.032   1.626   1.262 -4.0062 -0.7350 -0.3910
  180SOL     OW  538   0.240   1.194   1.841 -0.3526  0.4329  0.2243
  180SOL    HW1  539   0.338   1.210   1.830 -0.8815  0.1071  0.9779
  180SOL    HW2  540   0.191   1.275   1.891  0.3308 -0.1645 -1.5573
  181SOL     OW  541   3.015   1.852   2.495  0.0481 -0.4612  0.1780
  181SOL    HW1  542   3.082   1.919   2.457 -2.9331  2.4975 -1.7374
  181SOL    HW2  543   2.924   1.854   2.444 -2.4156 -0.6829 -1.1531
  182SOL     OW  544   2.242   1.312   1.158  0.4447  0.2459  0.4334
  182SOL    HW1  545   2.194   1.263   1.079 -2.3415 -0.5300  0.2093
  182SOL    HW2  546   2.268   1.410   1.131 -1.0589  0.9780  1.3761
  183SOL     OW  547   1.520   2.232   2.548 -0.1962  0.4404  0.2634
  183SOL    HW1  548   1.420   2.206   2.529  0.9310  0.5981 -2.2002
  183SOL    HW2  549   1.590   2.156   2.527  2.2836 -2.7748 -0.4295
  184SOL     OW  550   2.038   0.857   0.777 -0.2132 -0.0994  0.4930
  184SOL    HW1  551   1.972   0.931   0.751  1.1970 -0.3921  0.4663
  184SOL    HW2  552   1.999   0.799   0.855 -1.5798 -0.5156  0.2799
  185SOL     OW  553   1.587   2.759   2.101  0.7071  0.0326 -0.4819
  185SOL    HW1  554   1.542   2.852   2.085 -0.5396 -0.1442  2.2672
  185SOL    HW2  555   1.605   2.750   2.206  0.8795 -0.9676  1.2428
  186SOL     OW  556   0.104   2.219   1.665 -0.1122  0.0007 -0.0104
  186SOL    HW1  557   0.059   2.262   1.746  2.4022 -0.0514  2.5671
  186SOL    HW2  558   0.195   2.181   1.686 -1.9903  1.6000 -0.7344
  187SOL     OW  559   1.344   0.755   1.653 -0.8602  0.2938  0.0550
  187SOL    HW1  560   1.432   0.784   1.606  1.4772 -0.4370  1.5384
  187SOL    HW2  561   1.364   0.740   1.752 -0.8760 -2.3999  0.8510
  188SOL     OW  562   2.757   2.774   1.437 -0.4359 -0.0901 -0.4711
  188SOL    HW1  563   2.766   2.878   1.441 -0.2976  1.2606 -0.7149
  188SOL    HW2  564   2.692   2.748   1.360 -2.7890  0.0208  1.1196
  189SOL     OW  565   0.887   1.187   1.396  0.6998  1.2963 -0.0134
  189SOL    HW1  566   0.978   1.234   1.429  2.1806  0.3031  1.4430
  189SOL    HW2  567   0.804   1.253   1.379 -0.8823  1.7783  0.6674
  190SOL     OW  568   1.483   1.899   1.564 -0.2537  0.5686  0.2480
  190SOL    HW1  569   1.422   1.815   1.576 -1.0049 -0.4920 -2.4142
  190SOL    HW2  570   1.487   1.961   1.646 -0.0317 -0.5270 -0.1202
  191SOL     OW  571   0.979   0.763   1.532  0.1810 -0.1072  0.2479
  191SOL    HW1  572   1.042   0.682   1.545  1.6137 -0.7805  0.1914
  191SOL    HW2  573   1.023   0.849   1.566  1.2652 -0.9053  2.0727
  192SOL     OW  574   1.857   2.240   1.122 -0.2378  0.5289 -0.4025
  192SOL    HW1  575   1.756   2.249   1.098 -1.3645  0.7598  0.0014
  192SOL    HW2  576   1.913   2.320   1.081  0.5186  0.6190 -0.2571
  193SOL     OW  577   0.547   0.575   0.462  0.7133  0.2058 -0.2616
  193SOL    HW1  578   0.546   0.480   0.499 -0.0699 -2.3884 -0.7010
  193SOL    HW2  579   0.595   0.585   0.369 -0.0726  3.1784  1.4368
  194SOL     OW  580   0.328   0.867   1.275  0.5638 -0.3470  0.3721
  194SOL    HW1  581   0.268   0.793   1.316  3.6134 -1.2441  0.0705
  194SOL    HW2  582   0.304   0.898   1.180  0.0811 -0.4394 -0.2065
  195SOL     OW  583   1.021   2.887   0.560  0.0264 -0.1909 -0.5916
  195SOL    HW1  584   1.023   2.793   0.516 -0.8434 -0.1024  1.0320
  195SOL    HW2  585   1.106   2.941   0.551 -3.1390 -2.1682  2.0374
  196SOL     OW  586   0.197   1.359   1.375  0.4754 -0.5767  0.1159
  196SOL    HW1  587   0.235   1.452   1.401 -0.3649 -0.5621 -1.1621
  196SOL    HW2  588   0.213   1.287   1.452  0.8014 -0.4980  1.4471
  197SOL     OW  589   0.826   2.055   0.217  0.1856 -0.1150  0.4060
  197SOL    HW1  590   0.809   2.053   0.321 -1.5213 -0.4444  0.4807
  197SOL    HW2  591   0.893   1.982   0.190 -0.4766 -0.6737 -1.4812
  198SOL     OW  592   0.322   1.257   0.234  0.0663  0.1183  0.1300
  198SOL    HW1  593   0.224   1.234   0.214 -2.1654  0.3788 -0.3073
  198SOL    HW2  594   0.338   1.357   0.244 -0.5194 -2.7384  0.0973
  199SOL     OW  595   2.184   0.365   2.555  0.5288  0.5641 -0.2225
  199SOL    HW1  596   2.119   0.321   2.622 -0.2658 -0.9701 -0.3693
  199SOL    HW2  597   2.275   0.393   2.600 -0.3653 -0.3357 -0.4118
  200SOL     OW  598   0.048   2.923   0.741 -0.4271  0.3178  0.1920
  200SOL    HW1  599  -0.044   2.887   0.703 -2.6699  2.3585 -1.0171
  200SOL    HW2  600   0.055   3.029   0.738  1.8969  0.3390 -1.1039
  201SOL     OW  601   1.127   0.744   0.623  0.6255  0.2432 -0.1313
  201SOL    HW1  602   1.126   0.815   0.701 -1.2855 -0.0495 -1.5285
  201SOL    HW2  603   1.039   0.687   0.632  1.9317  0.6331  0.2615
  202SOL     OW  604   0.511   1.195   1.799 -0.1707 -0.1087  0.0417
  202SOL    HW1  605   0.542   1.182   1.699  0.9801 -2.5008 -2.3035
  202SOL    HW2  606   0.527   1.116   1.861 -0.3509 -0.5419 -2.8162
  203SOL     OW  607   0.701   0.207   1.559 -0.3869  0.2630 -0.0447
  203SOL    HW1  608   0.754   0.170   1.476  0.8861 -0.3917 -1.6886
  203SOL    HW2  609   0.745   0.184   1.648  0.7406 -0.1022 -0.1912
  204SOL     OW  610   2.058   1.870   2.930 -0.0168 -0.3505 -0.2275
  204SOL    HW1  611   2.105   1.778   2.921  0.3371  0.9749 -2.8305
  204SOL    HW2  612   2.036   1.925   2.848 -0.4609 -1.6161 -0.4902
  205SOL     OW  613   1.814   1.872   3.096  0.2187 -0.0568 -0.1664
  205SOL    HW1  614   1.908   1.865   3.053  0.4710  0.1887 -1.2772
  205SOL    HW2  615   1.769   1.963   3.095  0.9982 -2.6128  0.0755
  206SOL     OW  616   2.518   2.801   0.312 -0.2064  0.0153 -0.4211
  206SOL    HW1  617   2.593   2.732   0.338 -0.9310 -1.7977  1.6391
  206SOL    HW2  618   2.551   2.872   0.236  0.2882  3.0243 -0.0262
  207SOL     OW  619   0.613   1.793   2.960  0.4710  0.1892 -0.0202
  207SOL    HW1  620   0.679   1.732   2.906  1.4207  0.5622  0.1031
  207SOL    HW2  621   0.559   1.738   3.033  0.5615 -2.4310  0.1182
  208SOL     OW  622   1.151   1.581   1.413 -0.7374  0.0284  0.1981
  208SOL    HW1  623   1.157   1.632   1.319 -0.0242  2.8220 -0.7900
  208SOL    HW2  624   1.222   1.611   1.479 -0.4766  0.5271 -0.1352
  209SOL     OW  625   0.262   0.949   3.018 -0.2469  0.2074  0.7286
  209SOL    HW1  626   0.298   0.910   2.926 -4.7396 -1.2532  0.1683
  209SOL    HW2  627   0.258   0.885   3.100  2.6198  1.1167  1.0241
  210SOL     OW  628   1.778   0.515   1.205  0.3371  0.5389 -0.5159
  210SOL    HW1  629   1.719   0.573   1.138 -0.5046  0.9083 -1.3701
  210SOL    HW2  630   1.876   0.500   1.178  0.2232  0.7859  1.2300
  211SOL     OW  631   2.132   1.061   1.580  0.2785  0.2013 -0.5926
  211SOL    HW1  632   2.173   0.994   1.651 -3.4958 -1.1764  0.5405
  211SOL    HW2  633   2.203   1.113   1.524 -1.0450 -1.2269  0.4438
  212SOL     OW  634   0.027   0.975   1.475  0.0922 -0.3531 -0.3538
  212SOL    HW1  635   0.074   1.056   1.528  0.8196 -0.1095  0.3450
  212SOL    HW2  636   0.045   0.888   1.529 -1.0536  0.7713  1.6210
  213SOL     OW  637   2.787   0.358   0.355  0.5880 -0.6126  0.3004
  213SOL    HW1  638   2.820   0.286   0.281  2.0305 -5.0804 -1.5687
  213SOL    HW2  639   2.735   0.437   0.313 -1.5398  1.6524  3.3138
  214SOL     OW  640   2.165   0.261   2.309  0.2009 -0.0867  0.7179
  214SOL    HW1  641   2.174   0.313   2.398 -0.7381  1.4227 -1.3508
  214SOL    HW2  642   2.134   0.164   2.320  1.4769 -0.3107 -1.2398
  215SOL     OW  643   1.632   2.298   2.090  0.5103 -0.1356  0.2564
  215SOL    HW1  644   1.726   2.326   2.060  0.6398 -1.4684  0.9596
  215SOL    HW2  645   1.588   2.363   2.163  0.2697 -1.4887  3.6058
  216SOL     OW  646   2.211   0.622   0.635 -0.1919 -0.0280  0.0403
  216SOL    HW1  647   2.214   0.526   0.599  1.1250 -0.2204  0.0435
  216SOL    HW2  648   2.110   0.656   0.641 -1.4958  0.2582  1.3751
  217SOL     OW  649   0.743   2.772   2.472  0.3523  0.3765  0.0525
  217SOL    HW1  650   0.704   2.680   2.499 -0.5134 -0.7988 -3.1286
  217SOL    HW2  651   0.775   2.767   2.376  1.1337  0.3870  0.4106
  218SOL     OW  652   1.930   1.460   0.069  0.0057 -0.0035 -0.2208
  218SOL    HW1  653   1.848   1.469   0.001 -2.5102 -1.1075 -0.7130
  218SOL    HW2  654   1.938   1.369   0.115 -2.2371 -2.5479  0.8255
  219SOL     OW  655   2.364   1.262   2.555 -0.0628 -0.6139  0.1803
  219SOL    HW1  656   2.449   1.237   2.494  1.8344  2.3033  1.6499
  219SOL    HW2  657   2.354   1.196   2.633  1.4628  0.1419 -1.9318
  220SOL     OW  658   1.522   1.031   1.274  0.1596  0.0204 -0.5647
  220SOL    HW1  659   1.611   1.078   1.282 -1.0990  2.6717 -4.1690
  220SOL    HW2  660   1.477   1.060   1.186  0.2365  1.1268 -1.2731
  221SOL     OW  661   1.360   0.996   2.198  0.2851 -0.9008  0.1405
  221SOL    HW1  662   1.308   1.012   2.111  2.2820  3.7011  1.8415
  221SOL    HW2  663   1.460   0.991   2.176  1.1996 -1.2772  2.0850
  222SOL     OW  664   1.193   0.030   1.218 -0.2763 -0.3587  0.3933
  222SOL    HW1  665   1.226   0.013   1.317  1.0802  1.8113  0.5022
  222SOL    HW2  666   1.220   0.122   1.181  0.5331 -0.2147  0.2455
  223SOL     OW  667   2.735   0.884   2.018 -0.3108  0.2249 -0.0629
  223SOL    HW1  668   2.729   0.907   2.117 -1.7574  1.1947 -1.6823
  223SOL    HW2  669   2.819   0.929   1.974 -0.7812  1.1688  0.4181
  224SOL     OW  670   1.581   1.014   2.763  0.3391 -0.2361  0.4118
  224SOL    HW1  671   1.596   0.944   2.689  0.8365  2.0897 -0.3213
  224SOL    HW2  672   1.499   1.076   2.741 -2.8761  0.5916 -1.5688
  225SOL     OW  673   2.929   2.800   2.905 -0.2443 -0.0036  0.0087
  225SOL    HW1  674   2.894   2.715   2.854 -2.0707  1.4510 -1.5370
  225SOL    HW2  675   2.954   2.877   2.842  1.4255 -2.9875 -3.0543
  226SOL     OW  676   2.386   1.583   2.808  0.6085  0.4042 -0.9203
  226SOL    HW1  677   2.433   1.533   2.734 -2.7993 -0.4634  0.9870
  226SOL    HW2  678   2.314   1.529   2.862 -0.3924  1.8253  2.4794
  227SOL     OW  679   0.829   0.160   3.028 -0.8867 -0.1021  0.3496
  227SOL    HW1  680   0.828   0.067   3.079  3.4008 -0.7746  0.2840
  227SOL    HW2  681   0.842   0.149   2.920  3.0385 -1.4032  0.5775
  228SOL     OW  682   2.379   0.587   2.878  0.2001 -0.1065  0.5869
  228SOL    HW1  683   2.341   0.617   2.788  0.2504 -1.9494  1.6041
  228SOL    HW2  684   2.468   0.531   2.868  2.3683 -1.5067 -1.3785
  229SOL     OW  685   0.636   0.457   1.895  0.3193 -0.3448 -0.0952
  229SOL    HW1  686   0.634   0.375   1.830 -0.6104 -2.6732 -0.5754
  229SOL    HW2  687   0.671   0.531   1.831  0.3893 -1.0439 -1.5798
  230SOL     OW  688   1.926   1.154   2.151  0.0450 -0.6340 -0.4267
  230SOL    HW1  689   2.007   1.186   2.095  2.0785 -1.0069  3.3092
  230SOL    HW2  690   1.844   1.207   2.118 -1.9753  1.6174  3.2083
  231SOL     OW  691   0.655   1.002   2.984 -0.2562 -0.1307  0.7810
  231SOL    HW1  692   0.752   1.029   2.955  1.6096 -0.6107  0.2289
  231SOL    HW2  693   0.598   1.083   3.015  0.6190  1.5711  1.8316
  232SOL     OW  694   2.425   0.010   2.800 -0.1439 -1.1804  0.5365
  232SOL    HW1  695   2.473  -0.079   2.829  2.4962 -1.1721 -0.1216
  232SOL    HW2  696   2.462   0.044   2.709  0.0425 -0.6417  1.2374
  233SOL     OW  697   1.729   1.288   1.149  0.4751  0.0888  0.4234
  233SOL    HW1  698   1.758   1.269   1.048 -1.8423 -1.1405  1.7912
  233SOL    HW2  699   1.776   1.227   1.223  0.5024 -0.3806  2.0123
  234SOL     OW  700   1.601   2.595   1.884  0.2318  0.3534  0.3011
  234SOL    HW1  701   1.595   2.667   1.960 -0.8766  1.6277  0.3543
  234SOL    HW2  702   1.517   2.531   1.872 -0.0738 -0.6131  0.0302
  235SOL     OW  703   0.051   3.001   2.857 -0.3363 -0.5084  0.2959
  235SOL    HW1  704   0.099   3.069   2.796 -1.3187  3.1940  2.3856
  235SOL    HW2  705  -0.023   3.052   2.909  0.7265  0.9625  1.1685
  236SOL     OW  706   2.888   0.755   0.110 -0.3095 -0.2743  0.3314
  236SOL    HW1  707   2.958   0.810   0.165  0.2064  1.1525 -0.4588
  236SOL    HW2  708   2.918   0.659   0.080  2.5494 -1.1132  0.1880
  237SOL     OW  709   1.488   1.709   0.980 -0.1421  0.0689  0.4020
  237SOL    HW1  710   1.584   1.712   0.935  0.5036  1.3322  0.6782
  237SOL    HW2  711   1.491   1.729   1.078  0.6082  0.6699 -1.9860
  238SOL     OW  712   1.770   1.258   0.869 -0.3375  0.0894  0.0015
  238SOL    HW1  713   1.832   1.344   0.866 -0.6151  1.5679  0.1932
  238SOL    HW2  714   1.677   1.285   0.826  1.6903  0.2089  0.0433
  239SOL     OW  715   2.048   0.232   2.743 -0.0038 -0.1462 -0.4004
  239SOL    HW1  716   2.102   0.210   2.832 -3.2082  1.3854 -0.9350
  239SOL    HW2  717   1.961   0.288   2.762  1.3450 -1.0251 -1.3749
  240SOL     OW  718   0.974   0.619   0.330 -0.5083  0.1313  0.3993
  240SOL    HW1  719   0.992   0.536   0.267  1.1359  0.1611  0.7286
  240SOL    HW2  720   0.945   0.605   0.430 -2.0771 -1.4103  1.6969
  241SOL     OW  721   0.630   0.111   0.379 -0.5160 -0.2883 -0.0431
  241SOL    HW1  722   0.674   0.184   0.320  0.8831  0.1002 -1.6752
  241SOL    HW2  723   0.600   0.026   0.326  1.6935  3.5470 -1.1804
  242SOL     OW  724   0.676   2.479   1.117 -0.1956  0.5633  0.2533
  242SOL    HW1  725   0.614   2.513   1.195 -1.1057  2.3783  1.6679
  242SOL    HW2  726   0.749   2.547   1.096  0.9185  0.1635 -2.2400
  243SOL     OW  727   1.083   0.573   2.494 -0.1125  0.0033  0.0321
  243SOL    HW1  728   1.009   0.619   2.431 -1.3475 -0.3152 -1.3727
  243SOL    HW2  729   1.064   0.568   2.594 -3.2233 -1.1018 -1.5952
  244SOL     OW  730   2.770   1.887   2.340  0.4093  0.0919 -0.3782
  244SOL    HW1  731   2.812   1.850   2.258 -0.8048  0.8783  2.2688
  244SOL    HW2  732   2.686   1.839   2.374 -1.1200  1.6435 -0.5893
  245SOL     OW  733   2.422   0.643   2.183 -0.6398  0.1928  0.3433
  245SOL    HW1  734   2.477   0.712   2.239  2.1261 -1.7602 -3.2314
  245SOL    HW2  735   2.473   0.557   2.164  0.3694 -0.5403  1.5881
  246SOL     OW  736   0.223   2.901   1.666  0.0173 -0.0092  0.0070
  246SOL    HW1  737   0.159   2.895   1.585 -0.3930 -0.2582 -0.8832
  246SOL    HW2  738   0.284   2.982   1.656  0.3797 -0.8172  0.4230
  247SOL     OW  739   2.165   0.573   3.019 -0.0013 -0.0789 -0.0264
  247SOL    HW1  740   2.251   0.589   2.960  0.4073  2.5425 -2.8173
  247SOL    HW2  741   2.138   0.651   3.075  0.8362  1.0643  2.0309
  248SOL     OW  742   2.118   1.814   1.578  0.1198  0.4715 -0.2219
  248SOL    HW1  743   2.191   1.770   1.633  2.6422  1.4050 -1.2156
  248SOL    HW2  744   2.027   1.820   1.628  0.7524  1.7588  1.2602
  249SOL     OW  745   1.929   1.894   1.941 -1.1149 -0.3127 -0.1210
  249SOL    HW1  746   1.901   1.831   1.865 -0.0152 -1.4882 -0.1451
  249SOL    HW2  747   1.996   1.964   1.911 -1.1978 -1.6577  0.1919
  250SOL     OW  748   1.117   0.724   1.901  0.2257 -0.6036 -0.0231
  250SOL    HW1  749   1.160   0.634   1.926 -2.4261  0.1291  1.2431
  250SOL    HW2  750   1.063   0.724   1.814 -0.0078  1.5984  1.2758
  251SOL     OW  751   3.082   1.578   2.538  0.2981 -0.0732 -0.2144
  251SOL    HW1  752   3.059   1.678   2.516 -2.1427  2.0391  2.5638
  251SOL    HW2  753   2.988   1.528   2.545 -0.9702 -3.7594 -1.9354
  252SOL     OW  754   1.568   0.885   1.563 -0.4315 -0.4419  0.1714
  252SOL    HW1  755   1.574   0.904   1.460  0.1372  1.3418 -1.1285
  252SOL    HW2  756   1.568   0.964   1.625 -0.8833  0.5903  0.0536
  253SOL     OW  757   0.851   1.528   0.455 -0.0108  0.7830  0.6653
  253SOL    HW1  758   0.910   1.450   0.439 -1.2636  0.4348  0.1431
  253SOL    HW2  759   0.752   1.507   0.414 -2.4905  0.0538 -0.4828
  254SOL     OW  760   2.049   2.123   1.578 -0.4954  0.3975  0.2495
  254SOL    HW1  761   1.994   2.068   1.509 -0.1047 -1.9891  0.6488
  254SOL    HW2  762   2.003   2.131   1.668 -0.9563 -3.7321 -0.2007
  255SOL     OW  763   0.116   1.173   2.918  0.3984 -0.1600 -0.2754
  255SOL    HW1  764   0.181   1.249   2.880  1.3003  0.8130 -1.5848
  255SOL    HW2  765   0.167   1.097   2.963 -2.5025 -0.0765  1.6502
  256SOL     OW  766   2.770   1.377   1.727  0.5218  0.2151 -0.2536
  256SOL    HW1  767   2.695   1.427   1.781  0.1415  0.3070  0.7060
  256SOL    HW2  768   2.731   1.291   1.684  0.7249 -0.8359 -2.2784
  257SOL     OW  769   0.841   0.169   1.784 -0.0260  0.4540  0.6045
  257SOL    HW1  770   0.902   0.251   1.750  0.7872  1.7129 -1.1782
  257SOL    HW2  771   0.893   0.073   1.781  0.6479 -0.5314  2.2637
  258SOL     OW  772   2.900   1.300   0.440 -0.1427  0.2209  0.4215
  258SOL    HW1  773   2.844   1.384   0.426 -0.5120  0.7037 -1.7859
  258SOL    HW2  774   2.955   1.290   0.533  2.3158 -1.0838  0.9010
  259SOL     OW  775   0.473   2.964   3.030 -0.3887  0.0041  0.0539
  259SOL    HW1  776   0.396   2.903   3.057  1.2788 -0.9120  1.0328
  259SOL    HW2  777   0.496   2.949   2.925  1.1150 -1.4554 -1.0523
  260SOL     OW  778   2.753   0.828   2.750  0.8106  0.1036  0.4219
  260SOL    HW1  779   2.655   0.793   2.757 -1.8749 -1.8938  0.6138
  260SOL    HW2  780   2.808   0.855   2.834  2.3518  0.1999  1.0311
  261SOL     OW  781   2.752   1.322   1.303 -0.0412 -0.2247 -0.3519
  261SOL    HW1  782   2.669   1.272   1.265  0.8890 -0.1773  2.6837
  261SOL    HW2  783   2.799   1.266   1.382  0.2596 -1.8942 -0.5182
  262SOL     OW  784   1.431   3.001   2.025 -0.0488 -0.0661  0.8831
  262SOL    HW1  785   1.479   3.057   1.952  1.0277 -0.2023 -1.0021
  262SOL    HW2  786   1.349   2.948   1.995  1.4839  0.7650  0.7967
  263SOL     OW  787   0.865   0.709   2.344  0.3551 -0.2316  0.1989
  263SOL    HW1  788   0.817   0.624   2.307  3.8803 -0.4780 -1.4746
  263SOL    HW2  789   0.912   0.774   2.279 -0.3289 -2.0104 -0.0885
  264SOL     OW  790   2.202   0.813   0.292 -0.1039  0.4316  0.3216
  264SOL    HW1  791   2.105   0.836   0.321  0.9074 -3.0129 -0.6746
  264SOL    HW2  792   2.281   0.838   0.359 -3.1441 -1.3705 -1.5386
  265SOL     OW  793   0.901   2.288   2.672 -0.0739  0.4595  0.1144
  265SOL    HW1  794   0.918   2.349   2.754  0.7931  1.1684 -0.2057
  265SOL    HW2  795   0.876   2.196   2.698  1.8323  3.0443  0.6645
  266SOL     OW  796   1.323   1.735   0.022  0.1451 -0.0085  0.4146
  266SOL    HW1  797   1.310   1.815   0.085 -0.5520 -0.8704 -1.2508
  266SOL    HW2  798   1.418   1.715  -0.011 -0.1554  0.1707 -0.7060
  267SOL     OW  799   0.963   3.043   2.360  0.0769 -0.6391 -0.2272
  267SOL    HW1  800   0.960   2.994   2.266 -1.5675  0.2794  0.1818
  267SOL    HW2  801   0.949   3.146   2.348 -0.3797  0.7859  0.0902
  268SOL     OW  802   0.692   1.146   1.100 -0.0623  0.1875  0.5970
  268SOL    HW1  803   0.675   1.202   1.191 -1.1645  0.7217 -0.7281
  268SOL    HW2  804   0.686   1.200   1.014 -0.5549 -2.0680 -0.0706
  269SOL     OW  805   2.385   2.490   1.546 -0.1255  0.4059  0.4737
  269SOL    HW1  806   2.483   2.456   1.550  0.9776  1.8944 -1.2931
  269SOL    HW2  807   2.357   2.519   1.641  0.9620  0.1044 -1.0620
  270SOL     OW  808   0.132   3.049   1.913  0.2477 -0.6165  0.2944
  270SOL    HW1  809   0.161   3.004   1.826 -1.3763  0.3061  0.3092
  270SOL    HW2  810   0.077   2.988   1.976  2.1722 -0.7189  2.3571
  271SOL     OW  811   0.404   1.387   1.153 -0.3681 -0.4250  0.1400
  271SOL    HW1  812   0.387   1.415   1.058 -0.7403 -1.2947  2.5636
  271SOL    HW2  813   0.315   1.391   1.205  1.3354  0.3429 -0.4811
  272SOL     OW  814   1.957   2.877   1.916 -0.7524 -0.3141  0.3902
  272SOL    HW1  815   1.933   2.804   1.842 -0.3581  0.4793  4.1648
  272SOL    HW2  816   2.007   2.957   1.886  0.8546 -3.8396  1.5989
  273SOL     OW  817   1.447   1.471   2.784 -0.2623 -0.2811 -0.3510
  273SOL    HW1  818   1.354   1.524   2.784  1.5919  0.8198  0.1024
  273SOL    HW2  819   1.468   1.431   2.880 -0.9395  1.5649  1.6260
  274SOL     OW  820   1.272   0.505   1.998  0.1710 -0.4339  0.2199
  274SOL    HW1  821   1.245   0.409   2.008  0.2840  2.2909 -0.5108
  274SOL    HW2  822   1.293   0.539   2.097  0.6318  0.7776  1.0363
  275SOL     OW  823   0.623   2.079   1.865 -0.4435  0.2451 -0.1823
  275SOL    HW1  824   0.590   2.163   1.911 -1.7453 -0.1186 -0.5775
  275SOL    HW2  825   0.545   2.008   1.876 -0.1969  1.9667 -0.7055
  276SOL     OW  826   2.150   0.921   2.802  0.1311 -0.0109  0.3722
  276SOL    HW1  827   2.092   0.878   2.725  2.6956 -0.1896 -0.5741
  276SOL    HW2  828   2.131   0.879   2.891  0.2505 -3.4448 -1.7085
  277SOL     OW  829   3.085   0.850   0.260 -0.3760 -0.1583 -0.5020
  277SOL    HW1  830   3.177   0.878   0.223  1.4601 -2.3990  0.4600
  277SOL    HW2  831   3.097   0.768   0.322  0.4328  1.1725  0.6304
  278SOL     OW  832   0.245   0.277   3.087 -0.2183 -0.0859  0.5813
  278SOL    HW1  833   0.319   0.205   3.079 -0.8099 -0.5010 -1.7736
  278SOL    HW2  834   0.276   0.373   3.100  0.6225 -4.2115  0.2814
  279SOL     OW  835   0.149   0.112   0.910  0.2468  0.2378 -0.1571
  279SOL    HW1  836   0.181   0.078   1.004 -0.7889 -2.7901 -0.4097
  279SOL    HW2  837   0.224   0.100   0.842 -2.9861 -1.3538 -1.1966
  280SOL     OW  838   1.558   2.910   2.519 -0.2847  0.3488 -0.5501
  280SOL    HW1  839   1.625   2.976   2.562 -1.0932 -0.4478  1.0600
  280SOL    HW2  840   1.461   2.948   2.517 -1.8845  0.9418  1.4410
  281SOL     OW  841   0.601   0.932   2.258 -0.8679 -0.0385 -0.3351
  281SOL    HW1  842   0.630   0.842   2.207  1.6924  0.0828  0.3692
  281SOL    HW2  843   0.534   0.918   2.338 -0.1224 -0.4013 -0.0036
  282SOL     OW  844   1.775   2.466   0.520  0.6935  0.7880 -0.1289
  282SOL    HW1  845   1.765   2.383   0.457 -2.0294 -0.2837 -0.8950
  282SOL    HW2  846   1.745   2.561   0.487 -1.0988  1.7178  1.7222
  283SOL     OW  847   1.131   0.908   0.857 -0.0342  0.0500  0.1161
  283SOL    HW1  848   1.166   0.839   0.927 -0.6767 -2.0369  2.5619
  283SOL    HW2  849   1.075   0.978   0.905 -2.1707  0.1130  0.2586
  284SOL     OW  850   2.348   2.715   2.379 -0.2005 -0.8217  0.8149
  284SOL    HW1  851   2.409   2.798   2.358  0.9160 -0.9715 -0.2968
  284SOL    HW2  852   2.335   2.708   2.475  2.3812 -0.9939  0.5465
  285SOL     OW  853   1.309   3.054   2.543 -0.4334 -0.2250 -0.0062
  285SOL    HW1  854   1.310   3.055   2.436 -2.1521 -1.5540 -0.7712
  285SOL    HW2  855   1.219   3.079   2.574  1.8555  0.1911  2.1291
  286SOL     OW  856   0.460   0.418   0.766 -0.1396  0.2695  0.5513
  286SOL    HW1  857   0.404   0.362   0.836 -0.6801  2.3090 -0.7759
  286SOL    HW2  858   0.458   0.374   0.670 -0.1723  3.3561  0.0111
  287SOL     OW  859   0.121   1.303   2.543  0.1434 -0.3479  0.0236
  287SOL    HW1  860   0.053   1.252   2.605 -1.4760  1.5299 -0.3876
  287SOL    HW2  861   0.102   1.399   2.535 -0.2632 -3.3445  1.8053
  288SOL     OW  862   1.572   2.684   1.571  0.3936  0.3253 -0.5777
  288SOL    HW1  863   1.583   2.604   1.631  0.1809 -1.7264  3.0237
  288SOL    HW2  864   1.645   2.693   1.498 -1.4141  0.5739  1.0363
  289SOL     OW  865   0.572   2.733   0.819  0.5500 -0.0893  0.6484
  289SOL    HW1  866   0.647   2.792   0.780 -2.2427  1.6434  1.8908
  289SOL    HW2  867   0.540   2.771   0.913 -1.4846 -1.0419  1.3929
  290SOL     OW  868   2.819   1.098   1.707 -0.2967 -0.0529 -0.1956
  290SOL    HW1  869   2.746   1.027   1.714 -2.8078  3.0367  3.4778
  290SOL    HW2  870   2.897   1.086   1.773  0.3109  0.3233  1.7294
  291SOL     OW  871   1.966   0.085   0.089  0.2759 -0.1602  0.1376
  291SOL    HW1  872   1.985   0.049   0.187 -0.1736 -0.6394  0.2928
  291SOL    HW2  873   2.042   0.157   0.075  2.5101  0.6377  0.0639
  292SOL     OW  874   2.974   1.181   3.080  0.4032  0.2874 -0.0326
  292SOL    HW1  875   2.924   1.268   3.049  0.0541 -1.7978  0.9328
  292SOL    HW2  876   3.072   1.173   3.043 -0.0475 -0.3993  0.3501
  293SOL     OW  877   0.578   2.136   0.133 -0.2617  0.3352 -0.2406
  293SOL    HW1  878   0.536   2.210   0.192 -0.0728 -1.5825 -0.0065
  293SOL    HW2  879   0.677   2.117   0.156  3.8020  1.4411  0.0448
  294SOL     OW  880   1.768   2.234   1.763  0.3361 -0.2230 -0.0432
  294SOL    HW1  881   1.839   2.304   1.792  0.7807 -1.1960  2.6107
  294SOL    HW2  882   1.732   2.258   1.669  1.3270 -1.7210  2.7738
  295SOL     OW  883   0.995   1.022   0.513 -0.1328 -0.3169 -0.6955
  295SOL    HW1  884   1.091   1.024   0.533  0.6553 -0.0324 -0.9211
  295SOL    HW2  885   0.937   1.024   0.600 -1.3325  1.4271 -1.2856
  296SOL     OW  886   1.245   2.108   2.526 -0.3242 -0.3010  0.0236
  296SOL    HW1  887   1.264   2.138   2.426 -1.1872  1.7572 -1.7250
  296SOL    HW2  888   1.236   2.008   2.531  3.4245  0.6173  1.5835
  297SOL     OW  889   1.441   0.622   1.364  0.0060  0.2635 -0.2028
  297SOL    HW1  890   1.438   0.525   1.392 -0.0420  0.5456 -0.8567
  297SOL    HW2  891   1.527   0.664   1.407 -1.4806 -0.1569 -1.1728
  298SOL     OW  892   0.491   1.393   2.979  0.6137 -0.1567  0.7001
  298SOL    HW1  893   0.492   1.304   3.028 -1.2031 -0.0392 -0.8204
  298SOL    HW2  894   0.577   1.393   2.916  2.7163  0.9292 -1.5276
  299SOL     OW  895   0.509   0.247   1.357 -0.0534  0.3987 -0.8103
  299SOL    HW1  896   0.525   0.338   1.318  2.3047 -1.0209  1.6271
  299SOL    HW2  897   0.582   0.212   1.421  1.1851 -0.0486 -1.1576
  300SOL     OW  898   1.211   1.842   2.829  0.6835  0.1940 -0.6405
  300SOL    HW1  899   1.190   1.742   2.826  0.9334 -2.2630  2.5460
  300SOL    HW2  900   1.311   1.860   2.829 -0.2726 -0.9014  0.4659
  301SOL     OW  901   0.477   0.301   0.522 -0.1163  0.3887 -0.2622
  301SOL    HW1  902   0.381   0.259   0.541 -2.7303  2.1274 -0.8718
  301SOL    HW2  903   0.550   0.238   0.479  1.1358  0.8334 -0.2680
  302SOL     OW  904   1.212   2.384   2.324  0.2440  0.5260  0.4184
  302SOL    HW1  905   1.124   2.419   2.364  2.7123  0.9187 -0.8233
  302SOL    HW2  906   1.213   2.293   2.273 -0.3334 -1.8198 -1.4473
  303SOL     OW  907   0.972   2.339   0.825 -0.0394  0.0985 -0.0276
  303SOL    HW1  908   1.022   2.395   0.753  1.3070  1.8869 -0.7500
  303SOL    HW2  909   0.956   2.389   0.914  0.7379  3.3532 -0.9175
  304SOL     OW  910   0.138   2.031   0.619 -0.1260  0.1039 -0.3582
  304SOL    HW1  911   0.156   1.975   0.535 -1.9445 -1.2752  0.4042
  304SOL    HW2  912   0.054   2.089   0.597 -0.7581 -3.7613 -0.9286
  305SOL     OW  913   1.643   0.924   0.573 -0.1918 -0.0648  0.0814
  305SOL    HW1  914   1.581   0.916   0.492  0.7279 -0.1619 -0.1967
  305SOL    HW2  915   1.678   0.833   0.611  1.2555 -2.0888 -1.9693
  306SOL     OW  916   0.450   1.878   1.911  0.0456 -0.0358 -0.8383
  306SOL    HW1  917   0.511   1.795   1.889  1.7224 -2.6656 -2.5502
  306SOL    HW2  918   0.445   1.895   2.016  1.3106  1.4402  1.1416
  307SOL     OW  919   3.081   0.921   2.513 -0.3005  0.1839  0.0028
  307SOL    HW1  920   3.091   1.007   2.570  0.5584 -2.3212 -0.5908
  307SOL    HW2  921   3.008   0.852   2.540  0.3383  2.1935 -1.6633
  308SOL     OW  922   1.558   2.676   2.843 -0.0830 -0.4141  0.0473
  308SOL    HW1  923   1.533   2.612   2.762 -0.9141  1.3733 -0.2869
  308SOL    HW2  924   1.518   2.644   2.929  0.4253  0.2286 -1.8210
  309SOL     OW  925   1.214   0.075   1.764  0.0985  0.4476  0.1125
  309SOL    HW1  926   1.318   0.074   1.778 -0.2182  1.8657 -1.6524
  309SOL    HW2  927   1.194   0.124   1.677  1.4453 -1.0068  0.1737
  310SOL     OW  928   1.494   2.529   0.651 -0.0249  0.0176 -0.0805
  310SOL    HW1  929   1.478   2.563   0.745  0.1692 -0.7406 -0.0608
  310SOL    HW2  930   1.544   2.592   0.591 -0.4166  0.1324  0.6393
  311SOL     OW  931   1.159   0.954   1.592 -0.0411  0.6671  0.4640
  311SOL    HW1  932   1.219   0.876   1.628  1.3935 -1.2349  1.1169
  311SOL    HW2  933   1.210   1.042   1.580  2.1629 -0.5222 -1.9388
  312SOL     OW  934   1.611   0.686   0.996 -0.8587  0.2536  0.8631
  312SOL    HW1  935   1.592   0.781   0.960  2.0811 -1.4388  2.6931
  312SOL    HW2  936   1.528   0.632   1.012 -0.6325  1.1963 -1.5472
  313SOL     OW  937   1.581   1.401   0.708 -0.1470 -0.4086  0.2513
  313SOL    HW1  938   1.503   1.464   0.739 -1.6935  2.0919 -0.1863
  313SOL    HW2  939   1.559   1.322   0.645 -2.3012  1.7769 -0.8559
  314SOL     OW  940   2.970   0.047   3.037 -0.0525  0.5026  0.4869
  314SOL    HW1  941   2.972   0.094   3.132  0.5398  0.1720 -0.0546
  314SOL    HW2  942   2.877   0.012   3.013  1.7568 -0.5264  0.1549
  315SOL     OW  943   1.232   0.216   2.811  0.4070  0.2027 -0.1585
  315SOL    HW1  944   1.237   0.136   2.742  1.1725 -0.5313 -0.2307
  315SOL    HW2  945   1.252   0.184   2.904  3.0908  2.3348 -0.2108
  316SOL     OW  946   1.717   2.052   0.858  0.2503 -0.2285  0.3468
  316SOL    HW1  947   1.664   2.058   0.951  1.0099  0.7775  1.9267
  316SOL    HW2  948   1.714   2.142   0.804 -2.9118 -0.2051  1.1655
  317SOL     OW  949   1.128   0.668   2.881 -0.1077 -0.3686 -0.0510
  317SOL    HW1  950   1.080   0.702   2.969  0.7493  0.4835 -1.8282
  317SOL    HW2  951   1.089   0.572   2.855 -2.9013 -1.8343 -0.0762
  318SOL     OW  952   1.339   3.070   2.283  0.3986 -0.0597  0.3952
  318SOL    HW1  953   1.328   3.174   2.274  0.9599  3.1083  1.4095
  318SOL    HW2  954   1.379   3.020   2.201 -0.0818  1.8453 -1.7434
  319SOL     OW  955   0.710   2.442   2.941  1.0210 -0.7875 -0.0036
  319SOL    HW1  956   0.649   2.394   3.008 -0.0348 -0.7199  0.0634
  319SOL    HW2  957   0.799   2.478   2.986  1.4836  0.3270  1.6260
  320SOL     OW  958   1.705   2.229   0.382  0.4741  0.9193 -0.1055
  320SOL    HW1  959   1.784   2.171   0.355 -2.5077  1.8733 -0.5192
  320SOL    HW2  960   1.626   2.174   0.421 -1.8508  1.1299  3.4952
  321SOL     OW  961   1.678   2.732   0.471  0.2589  0.5975 -0.2189
  321SOL    HW1  962   1.600   2.776   0.423  1.3402  1.3985  2.7159
  321SOL    HW2  963   1.765   2.782   0.456 -2.9413  1.9432 -1.7488
  322SOL     OW  964   2.570   1.156   2.426  0.6132  0.3558  0.2238
  322SOL    HW1  965   2.668   1.186   2.437  2.0420 -0.4834 -0.9991
  322SOL    HW2  966   2.569   1.071   2.370  0.4621 -0.8303  1.4962
  323SOL     OW  967   1.135   2.632   0.837  0.2389  0.1827  0.2506
  323SOL    HW1  968   1.138   2.574   0.751 -1.0252  1.6824 -0.0189
  323SOL    HW2  969   1.140   2.735   0.820 -0.1515 -0.1057  0.7588
  324SOL     OW  970   0.248   2.520   2.539 -0.0682 -0.2546  0.2606
  324SOL    HW1  971   0.286   2.542   2.634  0.2548 -0.5506 -1.1102
  324SOL    HW2  972   0.152   2.555   2.519  2.4850 -0.1572 -0.2769
  325SOL     OW  973   1.266   3.021   0.482 -0.1624 -0.5143  0.2975
  325SOL    HW1  974   1.264   3.054   0.382 -2.4022 -1.2226  1.5594
  325SOL    HW2  975   1.309   3.089   0.549 -1.3505  0.6137 -0.7344
  326SOL     OW  976   2.426   0.782   3.086 -0.3133  0.0995 -0.1355
  326SOL    HW1  977   2.357   0.739   3.022  0.3639  0.8164  0.2408
  326SOL    HW2  978   2.468   0.714   3.152  1.5120  0.4642 -0.3617
  327SOL     OW  979   2.832   0.382   0.630 -0.2535  0.5179  0.3422
  327SOL    HW1  980   2.808   0.348   0.534 -1.6261 -0.5719  0.3731
  327SOL    HW2  981   2.860   0.304   0.692  3.4795 -0.9081  0.3509
  328SOL     OW  982   2.544   0.584   0.380  0.0923  0.1321 -0.4745
  328SOL    HW1  983   2.518   0.690   0.381  0.1871  1.1909  2.1479
  328SOL    HW2  984   2.515   0.541   0.474  1.0517  0.7529  2.1492
  329SOL     OW  985   2.968   2.979   2.156 -0.4587  0.2903 -0.1156
  329SOL    HW1  986   3.030   2.895   2.182  1.2441 -0.0438  1.4425
  329SOL    HW2  987   2.988   3.062   2.216 -0.8969 -0.3376  0.3404
  330SOL     OW  988   0.572   0.157   1.867  0.1110 -0.0860  0.5922
  330SOL    HW1  989   0.667   0.157   1.823  0.9705  2.0862 -2.0373
  330SOL    HW2  990   0.569   0.100   1.953 -1.6569  1.0585  1.5477
  331SOL     OW  991   2.979   1.915   1.157  0.1891 -0.0679 -0.2434
  331SOL    HW1  992   3.010   1.988   1.090 -2.6265  0.9229 -1.3036
  331SOL    HW2  993   2.892   1.938   1.209  1.3237 -1.7648 -1.9494
  332SOL     OW  994   0.451   1.141   0.018  0.1474  0.1645 -0.3703
  332SOL    HW1  995   0.388   1.070  -0.028 -2.3675 -0.7840  1.6661
  332SOL    HW2  996   0.408   1.184   0.100  0.5857  0.1061 -1.3326
  333SOL     OW  997   2.899   1.052   0.311 -0.2212 -0.4411  0.7634
  333SOL    HW1  998   2.917   1.143   0.350 -2.1225 -0.3135 -0.5753
  333SOL    HW2  999   2.985   0.991   0.304  1.3083  0.9215 -0.1528
  334SOL     OW 1000   1.713   1.232   1.830 -0.9552 -0.0925  0.2442
  334SOL    HW1 1001   1.809   1.211   1.793  0.4375  0.4410  0.2391
  334SOL    HW2 1002   1.713   1.287   1.922  0.8339  0.4282  0.3141
  335SOL     OW 1003   1.968   2.778   2.596  0.4370 -0.1021  0.1101
  335SOL    HW1 1004   1.882   2.767   2.645  2.0056  1.5196 -0.3203
  335SOL    HW2 1005   2.038   2.829   2.648  1.3229 -0.1623 -2.4165
  336SOL     OW 1006   0.276   0.126   2.799 -0.1269  0.7506 -0.6115
  336SOL    HW1 1007   0.360   0.131   2.855  2.5057  0.2027 -2.0646
  336SOL    HW2 1008   0.201   0.181   2.841  1.3606 -0.1512  1.9205
  337SOL     OW 1009   0.931   2.762   2.828  0.0941 -0.4563  0.3761
  337SOL    HW1 1010   0.897   2.732   2.922  1.1416 -0.9303  1.4677
  337SOL    HW2 1011   1.035   2.758   2.818 -0.6354  1.8419  0.2649
  338SOL     OW 1012   0.016   1.049   0.642  0.0857 -0.2690 -0.2239
  338SOL    HW1 1013  -0.075   1.007   0.665 -0.7652  4.3684 -0.9947
  338SOL    HW2 1014   0.008   1.152   0.663 -1.8871  0.3439 -1.0279
  339SOL     OW 1015   1.713   1.348   2.084  0.0757 -0.1320 -0.0028
  339SOL    HW1 1016   1.614   1.350   2.112  0.0350 -0.6147  1.2135
  339SOL    HW2 1017   1.761   1.431   2.130  1.7533  0.2820 -1.2233
  340SOL     OW 1018   2.332   0.755   1.175  0.3680  0.8967 -0.4207
  340SOL    HW1 1019   2.231   0.783   1.180 -2.2520  0.1210  0.7275
  340SOL    HW2 1020   2.352   0.692   1.098 -2.7432  0.7515  0.9759
  341SOL     OW 1021   1.957   2.085   0.334  0.4879  0.1669 -0.3792
  341SOL    HW1 1022   1.972   2.149   0.253 -0.2934  0.8922  0.9491
  341SOL    HW2 1023   2.050   2.049   0.366  3.3347  1.4560 -0.8843
  342SOL     OW 1024   2.242   2.105   2.718  0.5170  0.4678 -0.1283
  342SOL    HW1 1025   2.291   2.016   2.734 -0.2494  0.7796  1.1559
  342SOL    HW2 1026   2.140   2.086   2.715  1.0867  2.1829 -0.9510
  343SOL     OW 1027   0.390   0.880   2.777  0.0022  0.0969 -0.6185
  343SOL    HW1 1028   0.407   0.964   2.725  0.5321 -2.3741  3.2342
  343SOL    HW2 1029   0.466   0.813   2.778 -2.0290 -2.0997 -2.7314
  344SOL     OW 1030   1.937   1.399   0.388 -0.4206  0.0914 -0.0151
  344SOL    HW1 1031   1.928   1.330   0.310 -0.4706  2.9268 -1.1366
  344SOL    HW2 1032   1.840   1.422   0.420 -1.2559 -0.9745 -0.0294
  345SOL     OW 1033   1.423   2.265   2.892  0.3655 -0.6162  0.4172
  345SOL    HW1 1034   1.331   2.216   2.872 -0.2985  0.8479  0.3103
  345SOL    HW2 1035   1.497   2.233   2.825 -0.2397  0.2866 -0.5895
  346SOL     OW 1036   2.393   0.915   1.395  0.2899 -0.2858  0.1810
  346SOL    HW1 1037   2.347   1.010   1.396  2.5733  0.3680  0.2862
  346SOL    HW2 1038   2.348   0.857   1.320  0.8613 -0.5561 -0.7113
  347SOL     OW 1039   0.752   2.792   1.481  0.0740  0.5681  0.7249
  347SOL    HW1 1040   0.717   2.718   1.544  1.4082  0.8207 -0.9187
  347SOL    HW2 1041   0.690   2.872   1.485  1.6629  0.3065  1.2250
  348SOL     OW 1042   0.187   0.664   2.843  0.4277  0.1646 -0.2214
  348SOL    HW1 1043   0.083   0.693   2.837  2.4211  0.4115  0.1293
  348SOL    HW2 1044   0.241   0.725   2.785  1.0381  0.4584  2.9438
  349SOL     OW 1045   1.853   0.438   2.778 -0.0294  0.1414  0.0480
  349SOL    HW1 1046   1.841   0.521   2.717  4.1169  0.0313  2.4364
  349SOL    HW2 1047   1.851   0.454   2.882  3.5359 -0.8217 -0.4850
  350SOL     OW 1048   1.620   0.419   0.354  0.8252  0.1195 -0.6954
  350SOL    HW1 1049   1.678   0.430   0.442  0.5550 -1.9912 -0.5568
  350SOL    HW2 1050   1.619   0.513   0.303 -0.8213  1.1351 -1.0199
  351SOL     OW 1051   0.989   0.870   2.157  0.1914  0.0589  0.4493
  351SOL    HW1 1052   0.974   0.971   2.152  2.3503  2.9915 -0.7457
  351SOL    HW2 1053   1.026   0.831   2.069 -0.6507  2.3155 -0.5160
  352SOL     OW 1054   2.044   1.327   0.615 -0.2751  0.4521  0.2077
  352SOL    HW1 1055   2.026   1.365   0.517 -2.9300  3.1768 -3.2495
  352SOL    HW2 1056   2.141   1.334   0.651 -0.3279  1.0138 -3.2187
  353SOL     OW 1057   2.191   2.864   1.053  0.5764 -1.1006 -0.0105
  353SOL    HW1 1058   2.231   2.834   1.143 -1.3530  0.0813  1.1544
  353SOL    HW2 1059   2.110   2.805   1.022 -1.5112  0.8679 -1.2304
  354SOL     OW 1060   0.254   1.406   2.829 -0.1763  0.0081 -0.3041
  354SOL    HW1 1061   0.251   1.496   2.769  1.5111  4.0289 -0.1638
  354SOL    HW2 1062   0.351   1.395   2.868 -0.9595  0.1219 -0.0926
  355SOL     OW 1063   0.493   1.505   0.511  0.6574  0.1110  0.6838
  355SOL    HW1 1064   0.468   1.573   0.585 -1.0334  1.8970 -0.5549
  355SOL    HW2 1065   0.575   1.445   0.534 -0.4232 -0.8728  2.1315
  356SOL     OW 1066   0.848   0.246   2.055 -0.2334 -0.0220 -0.2814
  356SOL    HW1 1067   0.949   0.235   2.065  1.0585  0.0360  1.0256
  356SOL    HW2 1068   0.828   0.231   1.956 -0.8287  0.0647  2.5141
  357SOL     OW 1069   0.977   1.281   0.382  0.2855 -0.6575 -0.4382
  357SOL    HW1 1070   0.934   1.256   0.293  0.6650  0.3223 -0.9645
  357SOL    HW2 1071   0.984   1.200   0.444  0.6591  0.9866  0.6539
  358SOL     OW 1072   1.706   1.478   0.463 -0.5131 -0.5612  0.0191
  358SOL    HW1 1073   1.664   1.441   0.548 -1.7526 -0.9008 -1.1344
  358SOL    HW2 1074   1.656   1.449   0.378  3.1056 -2.3201 -0.1739
  359SOL     OW 1075   1.583   2.708   0.120 -0.1975 -0.7689  0.3976
  359SOL    HW1 1076   1.572   2.608   0.083 -1.1073 -1.6266  0.3223
  359SOL    HW2 1077   1.503   2.767   0.115  1.5516 -0.9189  0.5469
  360SOL     OW 1078   0.875   0.568   0.581 -0.2507 -0.3248  0.2663
  360SOL    HW1 1079   0.818   0.603   0.659  0.0556 -1.5764 -2.0140
  360SOL    HW2 1080   0.911   0.472   0.603 -2.9470 -0.3380  0.3608
  361SOL     OW 1081   1.208   1.348   0.760  0.0675 -0.3705  0.6055
  361SOL    HW1 1082   1.254   1.431   0.800  0.7364  1.1720  0.9120
  361SOL    HW2 1083   1.112   1.370   0.733  2.9022  0.1809  0.5970
  362SOL     OW 1084   1.347   1.863   0.808  0.0436 -0.1972  0.0988
  362SOL    HW1 1085   1.394   1.814   0.887 -1.0082 -1.0642 -1.2339
  362SOL    HW2 1086   1.415   1.894   0.733  0.6617  0.1894 -1.9372
  363SOL     OW 1087   1.206   1.292   2.017  0.1144  0.0645  0.1250
  363SOL    HW1 1088   1.295   1.322   2.062  0.7150  1.7157  0.3404
  363SOL    HW2 1089   1.175   1.360   1.941 -0.0991 -2.0722 -2.1382
  364SOL     OW 1090   0.490   2.313   1.955 -0.0431  0.1246 -0.1602
  364SOL    HW1 1091   0.386   2.324   1.980 -0.4376  1.1235  3.3255
  364SOL    HW2 1092   0.519   2.384   1.884 -0.3804  1.2173  2.1041
  365SOL     OW 1093   0.995   1.864   1.438 -0.1236  0.0444 -0.1321
  365SOL    HW1 1094   0.912   1.925   1.441  1.5149 -0.8359 -1.1728
  365SOL    HW2 1095   0.995   1.802   1.354  1.1129  3.4242 -4.0294
  366SOL     OW 1096   2.744   2.082   0.442  0.1920  0.0916 -0.3959
  366SOL    HW1 1097   2.645   2.047   0.434 -1.7964  0.0753  0.6971
  366SOL    HW2 1098   2.809   2.013   0.402 -0.4887  2.4338 -0.3847
  367SOL     OW 1099   0.915   1.123   0.139  0.0142 -0.0865 -0.7295
  367SOL    HW1 1100   0.913   1.027   0.185 -1.2906 -1.1708 -1.3039
  367SOL    HW2 1101   0.976   1.134   0.055 -0.7611  0.9389 -1.4010
  368SOL     OW 1102   1.454   0.539   0.709  0.1683 -0.7256  1.1804
  368SOL    HW1 1103   1.401   0.562   0.620 -0.0835  1.2726  0.3362
  368SOL    HW2 1104   1.537   0.595   0.719  0.1201 -0.3100 -2.5743
  369SOL     OW 1105   0.214   1.724   0.050  0.1203  0.5399  0.1078
  369SOL    HW1 1106   0.265   1.779   0.120  1.1279 -3.2763  0.1340
  369SOL    HW2 1107   0.123   1.691   0.084 -0.6529 -0.0258  0.7409
  370SOL     OW 1108   0.467   2.080   1.027  0.4307  0.2064 -0.2126
  370SOL    HW1 1109   0.468   2.182   1.006 -1.5531 -0.4404 -0.2634
  370SOL    HW2 1110   0.387   2.032   0.978 -1.0229 -2.1202 -1.5358
  371SOL     OW 1111   2.901   2.175   2.672  0.2292 -0.1818  0.1141
  371SOL    HW1 1112   2.850   2.136   2.754 -1.1228  0.7689 -0.5838
  371SOL    HW2 1113   2.992   2.209   2.697 -1.5474 -1.0827 -1.9669
  372SOL     OW 1114   1.125   1.981   1.143  0.1764  0.1357  0.1399
  372SOL    HW1 1115   1.062   2.029   1.068 -2.2571  2.9075 -1.3171
  372SOL    HW2 1116   1.207   2.041   1.165  2.3786  0.7193  1.0723
  373SOL     OW 1117   1.980   2.008   0.866 -0.0350 -0.7244  0.4767
  373SOL    HW1 1118   2.040   2.008   0.949  0.0545  3.2414  0.2037
  373SOL    HW2 1119   1.883   2.036   0.887 -0.2817 -0.1841 -2.3289
  374SOL     OW 1120   1.768   0.471   0.572  0.3487 -0.4111  0.0040
  374SOL    HW1 1121   1.804   0.440   0.670  4.2964  0.7711 -1.3256
  374SOL    HW2 1122   1.846   0.507   0.520 -0.7908 -2.8266  0.7971
  375SOL     OW 1123   2.417   2.200   1.133  0.1879  0.3037  0.6320
  375SOL    HW1 1124   2.493   2.164   1.073 -0.4751  1.8761  1.1149
  375SOL    HW2 1125   2.430   2.193   1.236  0.2138  0.7408  1.5204
  376SOL     OW 1126   3.032   0.573   1.472  0.3354 -0.5467 -0.0666
  376SOL    HW1 1127   3.075   0.654   1.524  1.5227 -0.0471 -0.4231
  376SOL    HW2 1128   2.929   0.569   1.474  0.5525  1.1746  0.0220
  377SOL     OW 1129   2.235   2.845   0.364 -0.1675  0.2926 -0.2279
  377SOL    HW1 1130   2.217   2.948   0.351  0.7607 -1.2347  2.7030
  377SOL    HW2 1131   2.334   2.819   0.358 -0.8201  2.1616  1.6270
  378SOL     OW 1132   1.844   1.804   2.650  0.2339  0.0731 -0.3475
  378SOL    HW1 1133   1.761   1.746   2.658  1.9773  0.3330  0.9676
  378SOL    HW2 1134   1.930   1.749   2.655 -2.2369  4.0558 -1.3691
  379SOL     OW 1135   0.851   0.134   2.751 -0.4663  0.8527  0.3542
  379SOL    HW1 1136   0.846   0.035   2.715  0.1534 -3.6238 -0.9872
  379SOL    HW2 1137   0.816   0.203   2.683 -0.4674 -1.0507 -1.6409
  380SOL     OW 1138   1.513   1.156   0.566 -0.2250 -0.6737  0.2144
  380SOL    HW1 1139   1.421   1.145   0.610  1.3971  0.8115  1.5629
  380SOL    HW2 1140   1.576   1.071   0.580 -1.7291  2.0080  0.4582
  381SOL     OW 1141   1.338   1.172   1.481  0.5558  0.0804  0.7130
  381SOL    HW1 1142   1.406   1.162   1.401 -0.2127 -1.2987  1.1173
  381SOL    HW2 1143   1.386   1.190   1.571  1.3482 -1.5282 -0.5744
  382SOL     OW 1144   1.785   0.878   0.212  0.0376 -0.4229 -0.2490
  382SOL    HW1 1145   1.833   0.844   0.122  0.3171 -1.0389 -3.1223
  382SOL    HW2 1146   1.836   0.857   0.301 -0.3400  0.6053  2.0884
  383SOL     OW 1147   2.625   1.032   1.456 -0.7539 -0.1482 -0.4593
  383SOL    HW1 1148   2.549   0.994   1.402  0.2532 -1.9884  0.2914
  383SOL    HW2 1149   2.717   0.982   1.432  0.7889 -1.5448 -0.5935
  384SOL     OW 1150   0.938   2.284   0.134  0.0157 -0.0187 -0.1281
  384SOL    HW1 1151   0.919   2.370   0.192 -3.3908  0.6102  1.8687
  384SOL    HW2 1152   0.876   2.207   0.162 -0.2941  1.8025 -2.8487
  385SOL     OW 1153   3.001   2.025   1.738  0.0910 -0.5684 -0.3564
  385SOL    HW1 1154   3.071   2.068   1.672 -0.9587  3.8094 -1.4967
  385SOL    HW2 1155   3.019   1.927   1.760 -1.2505 -1.7627  1.0351
  386SOL     OW 1156   0.449   1.124   0.437 -0.5012 -0.3983 -0.4099
  386SOL    HW1 1157   0.436   1.025   0.450  2.2456  0.4727 -0.5118
  386SOL    HW2 1158   0.376   1.174   0.377 -0.6617 -2.2289  0.4083
  387SOL     OW 1159   1.001   0.373   1.629 -0.3888  0.4958 -0.2421
  387SOL    HW1 1160   1.077   0.445   1.617 -1.6937 -2.1822  1.0006
  387SOL    HW2 1161   0.966   0.339   1.539  0.7629  1.2384 -0.3982
  388SOL     OW 1162   1.199   2.652   1.767 -0.3903 -0.1552 -0.0592
  388SOL    HW1 1163   1.231   2.653   1.669  0.9164 -2.7081  2.3870
  388SOL    HW2 1164   1.248   2.584   1.825  0.5116 -0.2183 -0.5468
  389SOL     OW 1165   0.208   3.071   1.158  0.2295  0.5988  0.8954
  389SOL    HW1 1166   0.144   3.092   1.239 -1.8274  0.2088  0.6164
  389SOL    HW2 1167   0.209   2.970   1.141  1.4091 -0.0364  1.4652
  390SOL     OW 1168   1.050   0.951   1.289 -0.2279 -0.0635  0.5770
  390SOL    HW1 1169   1.120   0.893   1.337 -0.9657  0.7467  0.4454
  390SOL    HW2 1170   0.988   1.010   1.347 -0.8658  1.9744  0.8095
  391SOL     OW 1171   2.086   1.182   0.974  0.4378 -0.2041 -0.5747
  391SOL    HW1 1172   1.992   1.136   0.997  0.5627  1.7930 -1.2372
  391SOL    HW2 1173   2.161   1.124   0.934  1.1179 -0.5282 -0.5595
  392SOL     OW 1174   0.885   2.654   3.069 -0.3618  0.1072 -0.2856
  392SOL    HW1 1175   0.797   2.659   3.118  0.9129  1.7145 -1.6451
  392SOL    HW2 1176   0.961   2.696   3.121 -2.0690 -0.3814 -0.9266
  393SOL     OW 1177   0.401   0.459   2.066 -0.1725 -0.3971 -0.2195
  393SOL    HW1 1178   0.318   0.423   2.019  1.6868 -2.7325 -0.2684
  393SOL    HW2 1179   0.487   0.438   2.016 -1.5449 -1.1669 -1.8259
  394SOL     OW 1180   3.011   1.773   2.750  0.5916  0.0112 -0.5168
  394SOL    HW1 1181   3.085   1.817   2.813 -0.6053  0.4016  1.6583
  394SOL    HW2 1182   3.002   1.820   2.661  1.3902 -1.4975  1.0479
  395SOL     OW 1183   1.579   1.922   0.654  0.4439 -0.5085 -0.9749
  395SOL    HW1 1184   1.625   1.842   0.603 -2.6261 -2.7585 -2.8121
  395SOL    HW2 1185   1.633   1.965   0.735  0.9952  1.6275  0.8926
  396SOL     OW 1186   2.754   1.973   1.333 -0.4287 -0.0504 -0.4880
  396SOL    HW1 1187   2.762   2.016   1.429 -2.0377 -0.9890 -0.1181
  396SOL    HW2 1188   2.712   1.880   1.336  2.6124 -0.6948  1.7289
  397SOL     OW 1189   1.038   2.120   0.618  0.0920  0.7137 -0.2935
  397SOL    HW1 1190   0.966   2.083   0.550 -0.5510  0.6689  0.0686
  397SOL    HW2 1191   0.997   2.190   0.675  2.9026 -1.3816  2.3145
  398SOL     OW 1192   2.247   0.034   0.988  0.0372 -0.0710 -0.1101
  398SOL    HW1 1193   2.218  -0.064   0.998  2.2691  3.8654  0.2233
  398SOL    HW2 1194   2.183   0.102   1.041 -0.0763  0.8076  2.7884
  399SOL     OW 1195   2.862   2.551   2.775  0.3909 -0.0217 -0.0213
  399SOL    HW1 1196   2.856   2.480   2.703  0.7910 -2.4901 -1.7295
  399SOL    HW2 1197   2.810   2.530   2.863  1.0953  0.4554 -1.2878
  400SOL     OW 1198   0.759   1.571   1.267  0.4799  0.1230 -0.1202
  400SOL    HW1 1199   0.703   1.612   1.349 -0.5990  1.3911 -0.9109
  400SOL    HW2 1200   0.798   1.640   1.203 -2.9869 -1.1969 -0.8561
  401SOL     OW 1201   1.835   0.161   1.309 -0.1126 -0.0695  0.6401
  401SOL    HW1 1202   1.885   0.193   1.396 -0.9997 -0.0098  1.5131
  401SOL    HW2 1203   1.731   0.172   1.311  2.4443 -2.7643 -0.0833
  402SOL     OW 1204   1.329   0.148   3.078 -0.2095 -0.0150 -0.0170
  402SOL    HW1 1205   1.418   0.118   3.036  0.8687 -0.3550 -2.1463
  402SOL    HW2 1206   1.326   0.245   3.113 -0.3971 -0.8484 -0.4526
  403SOL     OW 1207   2.307   1.849   0.903  0.1557 -0.3604 -0.4455
  403SOL    HW1 1208   2.408   1.834   0.932  0.8123  2.1329 -2.3778
  403SOL    HW2 1209   2.259   1.911   0.973  0.1869 -0.6347  1.7836
  404SOL     OW 1210   0.196   2.474   2.886 -0.2262 -0.1368  0.0234
  404SOL    HW1 1211   0.283   2.457   2.826  1.2017  0.0352  0.2016
  404SOL    HW2 1212   0.177   2.578   2.895 -1.4033  2.1253  1.6169
  405SOL     OW 1213   0.195   2.519   0.596 -0.1107 -0.5950 -0.5867
  405SOL    HW1 1214   0.134   2.522   0.512  0.2191 -0.2757 -1.3922
  405SOL    HW2 1215   0.258   2.600   0.618  2.4946  0.5141  0.9923
  406SOL     OW 1216   0.048   1.474   2.981 -0.2538 -0.3397 -1.0967
  406SOL    HW1 1217   0.139   1.459   2.945 -1.6562  2.8623 -1.0698
  406SOL    HW2 1218   0.050   1.492   3.082 -0.6493 -0.2316  1.9112
  407SOL     OW 1219   1.563   0.929   0.890  0.0236  0.1396 -0.3644
  407SOL    HW1 1220   1.543   0.924   0.789  3.1119 -0.7303  0.4689
  407SOL    HW2 1221   1.507   1.003   0.939 -1.0096 -0.9766  1.8868
  408SOL     OW 1222   1.596   2.344   1.016  0.2844 -0.6992  0.1306
  408SOL    HW1 1223   1.635   2.337   0.916  2.5245 -2.2681 -0.3645
  408SOL    HW2 1224   1.609   2.434   1.053 -0.0876 -4.7438 -0.4554
  409SOL     OW 1225   0.536   0.869   0.775  0.4153  0.4136  0.3077
  409SOL    HW1 1226   0.504   0.888   0.676 -1.1831 -0.4990 -0.2265
  409SOL    HW2 1227   0.588   0.782   0.781  1.4176  3.1696 -0.4464
  410SOL     OW 1228   1.244   2.007   1.401 -0.2071 -0.3814 -0.0201
  410SOL    HW1 1229   1.292   1.983   1.484  3.7737 -0.0391  0.4214
  410SOL    HW2 1230   1.155   1.955   1.401 -0.0406  0.0125 -0.2529
  411SOL     OW 1231   2.446   1.853   3.061  0.1076  0.7549 -0.4049
  411SOL    HW1 1232   2.369   1.895   3.006  1.1178  1.4788  0.7417
  411SOL    HW2 1233   2.528   1.830   3.001 -1.4232  3.3953 -0.3275
  412SOL     OW 1234   1.484   2.499   2.237  0.0577  0.2146  0.0087
  412SOL    HW1 1235   1.527   2.586   2.278 -2.1442 -0.7868  0.9332
  412SOL    HW2 1236   1.422   2.449   2.304 -0.5444  1.6285  2.4423
  413SOL     OW 1237   0.017   0.250   2.952  0.1503 -0.4125 -0.6209
  413SOL    HW1 1238  -0.041   0.171   2.979  0.1596  1.4629 -2.2689
  413SOL    HW2 1239   0.097   0.266   3.017 -1.6013 -1.8525  4.4100
  414SOL     OW 1240   1.767   1.457   1.379 -0.0725 -0.2086 -0.4645
  414SOL    HW1 1241   1.683   1.510   1.410  0.1905  0.1320  0.6097
  414SOL    HW2 1242   1.744   1.409   1.285 -0.8986  0.9711 -1.2301
  415SOL     OW 1243   0.345   2.246   0.659 -0.0262 -1.1274  0.6093
  415SOL    HW1 1244   0.301   2.338   0.642 -1.8707  0.5586  1.1310
  415SOL    HW2 1245   0.282   2.168   0.636 -1.2494  2.1160  0.7620
  416SOL     OW 1246   0.331   1.028   1.055 -0.1680  0.2538 -0.1355
  416SOL    HW1 1247   0.295   0.977   0.973  0.7333  2.7511 -0.5663
  416SOL    HW2 1248   0.419   1.085   1.039 -1.6074 -0.8073 -1.9145
  417SOL     OW 1249   2.115   2.338   1.873 -0.2796 -0.5717 -0.0346
  417SOL    HW1 1250   2.139   2.235   1.885  0.6190  0.3329 -1.1198
  417SOL    HW2 1251   2.038   2.372   1.934  1.8344 -0.9720  1.2092
  418SOL     OW 1252   1.085   0.501   1.268  0.0820 -0.1591 -0.1086
  418SOL    HW1 1253   0.981   0.514   1.254 -1.3401 -0.3646  1.7603
  418SOL    HW2 1254   1.125   0.451   1.188  0.7692  3.2657  0.9880
  419SOL     OW 1255   1.049   0.330   3.049  0.1777  0.3609  0.3727
  419SOL    HW1 1256   1.041   0.387   2.966 -2.7025  0.4318 -0.8335
  419SOL    HW2 1257   0.983   0.250   3.045 -2.3476 -1.4146 -0.2770
  420SOL     OW 1258   0.194   2.245   0.373 -0.2734 -0.4671  0.3876
  420SOL    HW1 1259   0.143   2.173   0.320 -3.2309  2.0231 -0.8259
  420SOL    HW2 1260   0.149   2.279   0.460  1.3009 -0.4615  0.0366
  421SOL     OW 1261   0.313   3.101   0.668  0.1549 -0.1315 -0.1984
  421SOL    HW1 1262   0.268   3.010   0.656 -0.8772  0.7632  0.6938
  421SOL    HW2 1263   0.413   3.103   0.662  0.7322  2.2171 -0.7529
  422SOL     OW 1264   0.986   2.546   1.050 -0.1518  0.1560  0.5315
  422SOL    HW1 1265   1.052   2.595   0.988 -1.1618  0.9873  1.2731
  422SOL    HW2 1266   1.001   2.581   1.145 -1.2691 -0.5163 -0.4770
  423SOL     OW 1267   0.084   0.662   1.236  0.3644  0.3976  0.1364
  423SOL    HW1 1268   0.020   0.636   1.317  1.4856 -1.7226  3.5940
  423SOL    HW2 1269   0.054   0.746   1.193 -1.5818 -1.1959 -0.7187
  424SOL     OW 1270   1.002   2.205   2.053  0.3158  0.1965 -0.1120
  424SOL    HW1 1271   1.020   2.302   2.015  0.9117 -0.6881  0.9636
  424SOL    HW2 1272   0.971   2.206   2.152 -1.9637 -1.2642 -0.5095
  425SOL     OW 1273   1.967   1.440   0.998  0.1454 -0.1921 -0.6072
  425SOL    HW1 1274   2.013   1.343   0.994 -1.4381 -2.3201  0.2158
  425SOL    HW2 1275   2.022   1.522   0.953  2.2766  2.0122  0.3415
  426SOL     OW 1276   1.526   1.569   1.440  0.2741 -0.6728 -0.0489
  426SOL    HW1 1277   1.481   1.645   1.384 -2.7410 -1.2157 -0.8347
  426SOL    HW2 1278   1.494   1.565   1.538 -2.3566  2.2074 -1.8195
  427SOL     OW 1279   1.907   2.379   2.083 -1.0052 -0.4545 -0.4965
  427SOL    HW1 1280   1.971   2.316   2.138  2.6228  0.4990 -0.2794
  427SOL    HW2 1281   1.894   2.477   2.121  0.2613  2.3696 -0.8656
  428SOL     OW 1282   0.868   2.925   0.150 -0.2517 -0.2753  0.1972
  428SOL    HW1 1283   0.884   3.025   0.186 -1.1589 -1.1578 -2.8886
  428SOL    HW2 1284   0.961   2.875   0.143  1.8298  2.2459  2.0841
  429SOL     OW 1285   1.294   0.071   0.248  0.0821  0.3755  0.1337
  429SOL    HW1 1286   1.364   0.104   0.320  0.9834  1.7543  1.2152
  429SOL    HW2 1287   1.320   0.100   0.154  0.1673 -1.7107  1.0920
  430SOL     OW 1288   2.718   1.498   0.378 -0.6249 -0.5600  0.5436
  430SOL    HW1 1289   2.717   1.553   0.287  0.4251 -1.9706 -1.4139
  430SOL    HW2 1290   2.730   1.561   0.458  0.4683 -1.0551 -0.6929
  431SOL     OW 1291   2.108   1.641   0.879 -0.2753 -0.0100 -0.2905
  431SOL    HW1 1292   2.199   1.687   0.859  0.8170  1.0902  1.7019
  431SOL    HW2 1293   2.023   1.688   0.840 -0.0430 -0.5467 -0.7641
  432SOL     OW 1294   2.902   2.262   1.244  0.2000 -0.4689  0.6721
  432SOL    HW1 1295   2.830   2.189   1.247  0.4457 -1.9403  0.1764
  432SOL    HW2 1296   2.924   2.285   1.341 -3.9688 -3.0738 -2.7078
  433SOL     OW 1297   1.853   0.396   0.826  0.0677  0.0249  0.7757
  433SOL    HW1 1298   1.779   0.372   0.895 -0.2147  0.2596  0.9635
  433SOL    HW2 1299   1.924   0.323   0.813 -0.6471  1.5479 -3.8498
  434SOL     OW 1300   1.568   0.285   0.724  0.5297  0.3455  0.1727
  434SOL    HW1 1301   1.552   0.383   0.706 -1.6975  0.6381  0.2900
  434SOL    HW2 1302   1.627   0.269   0.808 -1.9259  2.1619 -1.8113
  435SOL     OW 1303   1.438   1.439   2.132 -0.5064  0.5138 -0.2607
  435SOL    HW1 1304   1.392   1.468   2.223  2.2746  2.5127 -2.3097
  435SOL    HW2 1305   1.488   1.518   2.085  0.8437  2.5637  0.1241
  436SOL     OW 1306   1.628   2.696   2.359  0.4356  0.0410 -0.9603
  436SOL    HW1 1307   1.611   2.775   2.425  0.7653  1.9802  2.2356
  436SOL    HW2 1308   1.682   2.618   2.405 -2.1235 -1.7539 -1.9530
  437SOL     OW 1309   1.104   2.912   0.857  0.2281 -0.3383  0.0126
  437SOL    HW1 1310   1.043   2.994   0.836 -1.0348  0.4195  1.6794
  437SOL    HW2 1311   1.089   2.886   0.959 -0.8450 -1.1717  1.3862
  438SOL     OW 1312   1.043   2.599   1.339  0.3405  0.2925 -0.0733
  438SOL    HW1 1313   1.083   2.651   1.419  1.1713 -0.4415  0.4058
  438SOL    HW2 1314   1.029   2.492   1.349 -2.2713 -3.2805  1.1801
  439SOL     OW 1315   0.724   1.795   1.096 -0.0548  0.4398  0.3218
  439SOL    HW1 1316   0.740   1.893   1.120  0.9294 -0.4993 -0.3825
  439SOL    HW2 1317   0.627   1.767   1.083  0.3654  1.6353  0.5039
  440SOL     OW 1318   1.009   2.474   1.961 -0.5406  0.3469  0.1209
  440SOL    HW1 1319   0.962   2.535   1.892 -1.2507 -1.5447  0.6410
  440SOL    HW2 1320   1.098   2.514   1.999  1.4374  0.8190 -0.8133
  441SOL     OW 1321   0.413   2.785   1.340 -0.4416 -0.0646 -0.5161
  441SOL    HW1 1322   0.438   2.686   1.339  0.3752  4.0434  0.3919
  441SOL    HW2 1323   0.362   2.807   1.253 -3.6188 -1.3458 -0.2072
  442SOL     OW 1324   2.278   0.662   2.615 -0.1634 -0.1643 -0.2538
  442SOL    HW1 1325   2.288   0.569   2.571 -1.4578 -1.3732 -1.3388
  442SOL    HW2 1326   2.176   0.691   2.627 -1.6238  0.2604 -0.7330
  443SOL     OW 1327   1.221   2.701   2.205 -0.1449  0.4347 -0.3068
  443SOL    HW1 1328   1.257   2.601   2.212  1.0522 -2.3103  1.3167
  443SOL    HW2 1329   1.159   2.723   2.287  2.3654  1.2252 -0.7570
  444SOL     OW 1330   1.104   1.287   1.514  0.2954  0.9937  0.5824
  444SOL    HW1 1331   1.190   1.237   1.491  1.3822  1.2254  2.7694
  444SOL    HW2 1332   1.126   1.343   1.598  1.2934  2.4875 -2.0487
  445SOL     OW 1333   3.092   2.400   1.855  0.3700 -0.5703 -0.7542
  445SOL    HW1 1334   3.062   2.492   1.814 -0.5911  0.4090  0.0584
  445SOL    HW2 1335   3.038   2.367   1.934  2.5926 -0.6779 -0.6600
  446SOL     OW 1336   0.198   1.897   2.411  0.1027 -0.3648 -0.2955
  446SOL    HW1 1337   0.144   1.973   2.441  1.0842 -2.1554  2.2556
  446SOL    HW2 1338   0.166   1.857   2.320  1.3497  1.7492 -0.2347
  447SOL     OW 1339   1.233   1.659   1.967 -0.0736  0.3397  0.4937
  447SOL    HW1 1340   1.144   1.710   1.952 -0.6581 -2.1877  0.7770
  447SOL    HW2 1341   1.306   1.716   2.017  0.5525 -1.5165  0.9928
  448SOL     OW 1342   0.089   1.431   1.987 -0.3286  0.6079 -0.5144
  448SOL    HW1 1343   0.143   1.519   1.972  1.4093  1.6241 -1.0322
  448SOL    HW2 1344   0.052   1.428   2.082  1.9878  2.4200 -1.8383
  449SOL     OW 1345   1.732   2.935   0.898 -0.2240 -0.2860 -0.0064
  449SOL    HW1 1346   1.768   2.947   0.993  1.4376  2.0175  1.1012
  449SOL    HW2 1347   1.796   2.883   0.831 -2.1241 -1.5295  0.5010
  450SOL     OW 1348   2.303   1.456   0.757  0.2428 -0.2649 -0.2173
  450SOL    HW1 1349   2.226   1.482   0.827 -1.5228 -2.0346 -1.7786
  450SOL    HW2 1350   2.303   1.525   0.683  0.4503 -2.8122  1.0267
  451SOL     OW 1351   1.327   3.063   1.440 -0.8054 -0.5392 -0.4187
  451SOL    HW1 1352   1.260   3.134   1.465  0.3657 -3.3602 -0.4784
  451SOL    HW2 1353   1.350   2.995   1.520 -1.6574 -2.1972  0.4297
  452SOL     OW 1354   2.661   2.282   2.256 -0.2932  0.1560 -0.5595
  452SOL    HW1 1355   2.633   2.382   2.261 -1.8579 -1.5292 -1.1570
  452SOL    HW2 1356   2.728   2.246   2.326  0.7303 -0.7784  0.4607
  453SOL     OW 1357   2.457   2.681   3.089  0.2750  0.1444 -0.1699
  453SOL    HW1 1358   2.366   2.710   3.128  2.8528 -0.3438  0.2533
  453SOL    HW2 1359   2.443   2.598   3.022 -1.0576 -0.8691 -0.1107
  454SOL     OW 1360   0.977   1.165   2.048  0.5837  0.3808 -0.3411
  454SOL    HW1 1361   0.955   1.105   1.967 -0.8517 -0.4535  2.4322
  454SOL    HW2 1362   1.058   1.230   2.038 -0.3893  0.0204  0.8666
  455SOL     OW 1363   0.670   2.684   2.798  0.4729  0.3627 -0.0653
  455SOL    HW1 1364   0.757   2.733   2.817  0.7139  2.4664  2.2671
  455SOL    HW2 1365   0.662   2.611   2.866 -0.9712  2.5117 -3.1064
  456SOL     OW 1366   0.412   1.861   0.189  0.4810 -0.5149 -0.1568
  456SOL    HW1 1367   0.486   1.822   0.251  0.8992  2.6424 -1.2110
  456SOL    HW2 1368   0.445   1.947   0.140  1.5464  0.1139  1.1886
  457SOL     OW 1369   0.392   2.707   0.615 -0.0600 -0.5011 -0.2417
  457SOL    HW1 1370   0.414   2.755   0.527 -1.5578 -1.4389 -3.3337
  457SOL    HW2 1371   0.481   2.691   0.669  2.0867  0.8055 -1.0515
  458SOL     OW 1372   2.886   0.031   1.187  0.8714 -0.2249  0.8497
  458SOL    HW1 1373   2.963   0.098   1.167  1.1017 -3.7158  0.7018
  458SOL    HW2 1374   2.907  -0.063   1.149 -0.1508 -1.1508  1.1636
  459SOL     OW 1375   2.109   2.615   0.790 -0.5793  0.2008 -0.2999
  459SOL    HW1 1376   2.189   2.669   0.821 -3.7167 -1.9394 -0.0811
  459SOL    HW2 1377   2.135   2.540   0.724 -0.1613 -1.1449  1.8913
  460SOL     OW 1378   1.195   2.128   2.819 -0.2404 -0.1315 -0.1698
  460SOL    HW1 1379   1.163   2.191   2.744 -0.1952  0.6230  1.5720
  460SOL    HW2 1380   1.185   2.026   2.795  2.6896 -1.6020  2.9781
  461SOL     OW 1381   0.546   2.189   2.662  0.8238  0.0820 -0.3985
  461SOL    HW1 1382   0.498   2.121   2.596  0.8933 -1.2396 -2.7964
  461SOL    HW2 1383   0.552   2.153   2.759  0.3339  0.4333 -0.2842
  462SOL     OW 1384   0.942   1.086   1.773 -0.4761 -0.3784 -0.9226
  462SOL    HW1 1385   1.000   1.058   1.690  0.6045 -0.5235 -0.1896
  462SOL    HW2 1386   0.902   1.183   1.773  0.8425 -0.3369  1.4911
  463SOL     OW 1387   0.464   0.850   0.508  0.2160 -0.3795 -0.1045
  463SOL    HW1 1388   0.508   0.754   0.496 -1.1947 -0.7488  0.6251
  463SOL    HW2 1389   0.364   0.841   0.508  1.7361 -0.5148  0.0204
  464SOL     OW 1390   0.595   2.270   2.219  0.3617 -0.0419  0.0500
  464SOL    HW1 1391   0.544   2.346   2.267  2.3914  0.4903 -4.1782
  464SOL    HW2 1392   0.568   2.268   2.118 -0.0428 -0.6113  0.6413
  465SOL     OW 1393   0.217   0.938   0.840 -0.4429  0.1849  0.1343
  465SOL    HW1 1394   0.139   0.966   0.783  3.3614  0.0950  3.1433
  465SOL    HW2 1395   0.246   0.839   0.831  0.2273  0.8826 -0.1291
  466SOL     OW 1396   1.398   1.115   0.996  0.0836 -0.2475  0.0259
  466SOL    HW1 1397   1.401   1.217   0.982  0.9351 -0.8101 -1.7429
  466SOL    HW2 1398   1.305   1.077   1.024  1.1416 -1.6674 -3.3455
  467SOL     OW 1399   0.620   0.429   2.460 -0.2101  0.0471 -0.2804
  467SOL    HW1 1400   0.558   0.501   2.423  4.5413  1.4936  1.8618
  467SOL    HW2 1401   0.589   0.391   2.550 -1.9467 -1.0623 -2.5111
  468SOL     OW 1402   0.437   2.269   1.614 -0.2759 -0.3534 -0.3187
  468SOL    HW1 1403   0.499   2.345   1.645 -1.0336  0.5981 -0.2460
  468SOL    HW2 1404   0.397   2.294   1.521  2.6890 -0.1932  0.6765
  469SOL     OW 1405   1.482   1.349   1.259 -0.1858  0.1167 -0.2922
  469SOL    HW1 1406   1.563   1.329   1.199  0.8987  0.0124  0.2605
  469SOL    HW2 1407   1.502   1.436   1.319 -0.1312  0.1563 -2.1390
  470SOL     OW 1408   3.036   1.856   0.764 -0.0303 -0.5068  0.4714
  470SOL    HW1 1409   3.115   1.920   0.742  2.6010  1.6573 -0.6327
  470SOL    HW2 1410   3.060   1.789   0.839  1.3801 -0.4498 -0.7478
  471SOL     OW 1411   2.578   1.325   2.151  0.1901 -0.3102 -0.1598
  471SOL    HW1 1412   2.533   1.283   2.237 -1.0127  1.1490 -0.0035
  471SOL    HW2 1413   2.664   1.380   2.174  1.0346 -2.5573  0.6308
  472SOL     OW 1414   1.163   2.392   0.039 -0.0791  0.4505  0.3457
  472SOL    HW1 1415   1.213   2.428   0.123 -0.6314 -0.5518  0.4903
  472SOL    HW2 1416   1.068   2.354   0.068 -0.7072  2.0970  0.3971
  473SOL     OW 1417   1.068   1.509   1.045 -0.0984  0.0690 -0.4430
  473SOL    HW1 1418   0.971   1.518   1.013  0.8772  1.6920 -1.2101
  473SOL    HW2 1419   1.083   1.438   1.118 -0.6683 -0.1976 -3.5045
  474SOL     OW 1420   0.664   1.253   0.563  0.4142 -0.5386 -0.5600
  474SOL    HW1 1421   0.615   1.203   0.486  1.7972  1.2395 -1.2701
  474SOL    HW2 1422   0.736   1.192   0.612 -0.3429  0.5967 -0.8255
  475SOL     OW 1423   2.834   0.030   0.818  0.3232  0.3521  0.3551
  475SOL    HW1 1424   2.919   0.093   0.834  1.4436  0.2744 -2.8913
  475SOL    HW2 1425   2.753   0.043   0.886 -0.7791  0.5106 -2.3707
  476SOL     OW 1426   0.970   3.033   1.753 -0.1407  0.5289 -0.1996
  476SOL    HW1 1427   1.061   3.060   1.789 -0.7723  1.4166 -1.9627
  476SOL    HW2 1428   0.972   3.014   1.650 -2.4803  2.4630 -1.8170
  477SOL     OW 1429   1.453   0.333   2.434 -0.5245 -0.0094 -0.2412
  477SOL    HW1 1430   1.442   0.346   2.535 -1.3667 -0.2896 -1.0307
  477SOL    HW2 1431   1.533   0.270   2.410 -2.5000  0.6346 -0.2842
  478SOL     OW 1432   2.244   1.810   0.177  0.1455  0.0161  0.0411
  478SOL    HW1 1433   2.181   1.748   0.230  0.6521  0.4881 -1.7655
  478SOL    HW2 1434   2.314   1.766   0.111 -0.3213 -3.1568 -2.8228
  479SOL     OW 1435   1.227   0.982   2.810 -0.7055  0.3053  0.0486
  479SOL    HW1 1436   1.261   0.957   2.713  1.2788 -1.4955 -1.6520
  479SOL    HW2 1437   1.159   0.914   2.846 -2.2236  0.1078 -0.1723
  480SOL     OW 1438   2.663   2.361   0.366  0.2142 -0.1787  0.0476
  480SOL    HW1 1439   2.657   2.277   0.429  2.9479 -3.8101 -2.0653
  480SOL    HW2 1440   2.572   2.378   0.317 -0.2605  0.0381 -2.1667
  481SOL     OW 1441   0.944   1.181   0.860  0.4253 -0.2031 -0.1622
  481SOL    HW1 1442   0.937   1.279   0.816  1.6156  1.1615 -0.2075
  481SOL    HW2 1443   1.005   1.183   0.946  2.3037 -0.7218  1.0685
  482SOL     OW 1444   1.604   0.287   2.004 -0.0988  0.1211  0.0692
  482SOL    HW1 1445   1.612   0.393   1.991  0.5983 -2.4690  0.4413
  482SOL    HW2 1446   1.692   0.251   2.045  0.7534  0.7849 -0.2163
  483SOL     OW 1447   0.127   2.268   1.200 -0.2545  0.2289 -0.1781
  483SOL    HW1 1448   0.057   2.329   1.246 -1.7908 -1.0317  0.1861
  483SOL    HW2 1449   0.176   2.308   1.121  1.4383 -0.8984 -0.2052
  484SOL     OW 1450   1.774   1.120   1.371  0.2572  0.0787  0.0314
  484SOL    HW1 1451   1.827   1.033   1.403 -1.8888 -3.2647  0.8351
  484SOL    HW2 1452   1.777   1.199   1.437  0.6548 -0.3182 -1.8291
  485SOL     OW 1453   0.749   0.869   1.760 -0.0559  0.6072  0.2389
  485SOL    HW1 1454   0.738   0.875   1.660  0.1338 -0.7299  2.2449
  485SOL    HW2 1455   0.807   0.948   1.799 -0.4463  1.5364 -1.7723
  486SOL     OW 1456   0.802   1.865   2.478 -0.3254  0.6379 -0.3814
  486SOL    HW1 1457   0.870   1.860   2.555 -0.5754 -0.0844  0.1896
  486SOL    HW2 1458   0.768   1.963   2.459 -0.1803 -2.4656 -2.0016
  487SOL     OW 1459   1.767   1.666   0.935  0.5555 -0.1815 -0.3665
  487SOL    HW1 1460   1.799   1.573   0.946  2.0351  1.9615  0.3653
  487SOL    HW2 1461   1.824   1.718   0.862 -0.6099  3.3261 -0.6572
  488SOL     OW 1462   2.951   0.874   2.252  0.5051 -0.2248  0.4348
  488SOL    HW1 1463   2.936   0.772   2.247 -0.0656 -0.0507  0.5480
  488SOL    HW2 1464   2.983   0.910   2.345 -1.6550  1.7869  0.7575
  489SOL     OW 1465   2.824   0.333   1.301 -0.4861  0.0509  0.3247
  489SOL    HW1 1466   2.797   0.299   1.399  0.4333  1.5971  0.2165
  489SOL    HW2 1467   2.899   0.275   1.254 -0.8103  0.2876 -2.1700
  490SOL     OW 1468   1.423   2.924   2.802  0.1433 -0.2383 -0.2343
  490SOL    HW1 1469   1.472   2.838   2.774  3.7895  0.3298  1.8682
  490SOL    HW2 1470   1.387   2.975   2.717 -0.2677  2.6692 -0.1203
  491SOL     OW 1471   1.673   1.499   2.634  0.4305 -0.4050 -0.2271
  491SOL    HW1 1472   1.578   1.511   2.679  1.9483  1.1012 -0.8422
  491SOL    HW2 1473   1.757   1.513   2.702  1.3201 -2.0536 -0.5906
  492SOL     OW 1474   0.558   2.076   0.618  0.0712  0.5333  0.2241
  492SOL    HW1 1475   0.591   2.069   0.712  1.3833  1.8763 -2.5374
  492SOL    HW2 1476   0.474   2.143   0.610 -0.9166  2.8538  1.7270
  493SOL     OW 1477   0.428   1.405   2.044 -0.4779 -0.0974 -0.1534
  493SOL    HW1 1478   0.343   1.454   2.070  2.3157 -1.3598 -1.5975
  493SOL    HW2 1479   0.434   1.306   2.079 -2.9876 -1.3972 -0.8859
  494SOL     OW 1480   2.708   2.700   0.088 -0.4579  0.4726  0.6399
  494SOL    HW1 1481   2.732   2.663   0.181 -0.0630 -0.7936 -1.7425
  494SOL    HW2 1482   2.607   2.710   0.066  1.8868 -1.6932  0.4206
  495SOL     OW 1483   2.586   2.708   2.641 -0.7560  0.0865  0.7640
  495SOL    HW1 1484   2.574   2.603   2.619 -0.0755 -4.9062 -1.6608
  495SOL    HW2 1485   2.668   2.750   2.595  1.1436 -1.4499 -0.8660
  496SOL     OW 1486   2.079   2.273   0.752  0.3878 -0.1509 -0.6984
  496SOL    HW1 1487   2.105   2.316   0.844  1.3959  0.2032 -1.4510
  496SOL    HW2 1488   2.043   2.176   0.759  0.4004 -1.6154 -0.3557
  497SOL     OW 1489   0.204   2.990   2.341  0.3086 -0.0245  0.4638
  497SOL    HW1 1490   0.170   3.055   2.420  0.0483  1.4649  0.4883
  497SOL    HW2 1491   0.219   3.037   2.251  0.3927 -1.8283 -0.3880
  498SOL     OW 1492   1.204   1.336   1.233 -0.3447  0.1238 -0.2152
  498SOL    HW1 1493   1.308   1.345   1.225  1.7059  0.0042  2.6778
  498SOL    HW2 1494   1.170   1.354   1.330 -1.5649  5.3357  0.3938
  499SOL     OW 1495   0.619   1.752   0.355 -0.1138 -0.2738  0.2428
  499SOL    HW1 1496   0.646   1.655   0.326  2.0549 -1.6365  2.4535
  499SOL    HW2 1497   0.697   1.812   0.348  0.6185 -1.0082  2.0340
  500SOL     OW 1498   1.377   2.901   1.637  0.2336  0.4924 -0.9466
  500SOL    HW1 1499   1.353   2.918   1.734  0.3869 -2.6280  0.7976
  500SOL    HW2 1500   1.417   2.804   1.627  0.6459 -0.6579  3.3303
  501SOL     OW 1501   0.797   1.123   2.266  0.0053 -0.0427  0.1829
  501SOL    HW1 1502   0.724   1.054   2.245  3.5869  3.2244  0.4700
  501SOL    HW2 1503   0.862   1.142   2.182  0.7560 -0.2156 -1.7892
  502SOL     OW 1504   2.576   0.930   1.725 -0.2071 -0.2535 -0.3424
  502SOL    HW1 1505   2.598   0.943   1.625 -1.0591  0.2324 -2.7003
  502SOL    HW2 1506   2.563   0.828   1.751 -0.5100 -1.6496  1.1971
  503SOL     OW 1507   1.341   0.140   0.625 -0.2365  0.1956  0.6275
  503SOL    HW1 1508   1.269   0.205   0.660 -0.6006  1.1450  1.8276
  503SOL    HW2 1509   1.431   0.158   0.673  1.9085 -0.7570  0.9968
  504SOL     OW 1510   3.006   2.332   1.500  0.4131 -0.0697  0.0988
  504SOL    HW1 1511   2.959   2.404   1.559 -0.8920 -0.5235 -0.9062
  504SOL    HW2 1512   3.102   2.300   1.533  0.3244  1.1807 -0.1739
  505SOL     OW 1513   2.298   1.175   1.408  0.2961 -0.3944  0.2758
  505SOL    HW1 1514   2.259   1.202   1.313 -2.4911 -0.8851 -4.1700
  505SOL    HW2 1515   2.374   1.243   1.441  2.0642  0.9560 -0.5315
  506SOL     OW 1516   1.970   0.209   1.845  0.5629  0.3637  0.1295
  506SOL    HW1 1517   2.026   0.149   1.905 -0.7774  1.8039  1.4526
  506SOL    HW2 1518   1.937   0.303   1.878  1.9420  0.4298  0.4601
  507SOL     OW 1519   0.599   0.675   2.140 -0.2012 -0.6528 -0.0651
  507SOL    HW1 1520   0.525   0.608   2.108 -3.3498  0.0218 -0.3085
  507SOL    HW2 1521   0.696   0.627   2.140 -0.6080  0.7985  0.6641
  508SOL     OW 1522   0.295   1.654   0.739 -0.4370  0.1274  0.4319
  508SOL    HW1 1523   0.347   1.731   0.696 -0.8974 -2.3951 -1.4173
  508SOL    HW2 1524   0.276   1.658   0.840  0.3388  0.5023  0.8550
  509SOL     OW 1525   1.289   1.179   2.407 -0.7072  0.2472  0.0791
  509SOL    HW1 1526   1.322   1.133   2.317 -0.0056 -0.9622 -3.2472
  509SOL    HW2 1527   1.202   1.139   2.431  2.5260  1.5605  0.0089
  510SOL     OW 1528   1.292   2.125   2.231  0.3382 -0.1083  0.0224
  510SOL    HW1 1529   1.318   2.148   2.129  0.8605  3.5045 -0.3278
  510SOL    HW2 1530   1.211   2.058   2.237  2.8932  0.4579  2.0584
  511SOL     OW 1531   3.004   2.662   1.293  0.1623 -0.3985 -0.1545
  511SOL    HW1 1532   3.015   2.674   1.193 -3.6667  1.5750  0.1702
  511SOL    HW2 1533   2.906   2.654   1.333  1.8854  1.5413  0.6504
  512SOL     OW 1534   2.418   0.436   1.373 -0.3426  0.4104 -0.0366
  512SOL    HW1 1535   2.315   0.435   1.383 -3.4309 -3.4466 -2.0812
  512SOL    HW2 1536   2.455   0.406   1.283  0.4513 -0.9545  1.4382
  513SOL     OW 1537   2.576   2.112   0.901  0.0003  0.0860 -0.5670
  513SOL    HW1 1538   2.546   2.201   0.848 -0.5879 -1.1114 -2.0779
  513SOL    HW2 1539   2.651   2.063   0.851 -3.0967 -0.0490  1.1045
  514SOL     OW 1540   0.674   2.761   0.469 -0.0188 -0.3119  0.2829
  514SOL    HW1 1541   0.698   2.804   0.380 -0.3527 -1.7440 -0.0569
  514SOL    HW2 1542   0.724   2.799   0.553 -1.2571 -0.4308  0.7067
  515SOL     OW 1543   1.924   1.307   2.385  0.0946 -0.2243 -0.2477
  515SOL    HW1 1544   1.931   1.250   2.296 -2.4129 -1.3321 -1.3119
  515SOL    HW2 1545   1.837   1.276   2.433  1.3756  1.1432  2.8184
  516SOL     OW 1546   0.270   0.284   1.901 -0.5113 -0.3030  0.3779
  516SOL    HW1 1547   0.359   0.258   1.863  1.7876  0.8416 -0.6809
  516SOL    HW2 1548   0.189   0.224   1.873 -0.3611 -0.5046  1.0718
  517SOL     OW 1549   0.462   0.066   1.147 -0.5897 -0.6846  0.1930
  517SOL    HW1 1550   0.486   0.134   1.224 -1.9769 -1.4840  1.1145
  517SOL    HW2 1551   0.382  -0.002   1.161 -1.2585 -3.8262  2.0572
  518SOL     OW 1552   2.164   3.079   1.829  0.0987 -0.3191  0.0000
  518SOL    HW1 1553   2.237   3.153   1.846  0.6074  0.9985 -0.0473
  518SOL    HW2 1554   2.179   3.041   1.737  2.2838  2.2821  0.1979
  519SOL     OW 1555   2.337   2.129   2.455 -0.0321  0.1155 -0.3148
  519SOL    HW1 1556   2.291   2.104   2.541  0.6575 -0.3970 -0.3407
  519SOL    HW2 1557   2.358   2.232   2.440  0.6980  2.6025 -0.9267
  520SOL     OW 1558   1.844   2.695   1.741  0.0221 -0.2385  0.4316
  520SOL    HW1 1559   1.773   2.637   1.784  1.2915 -0.4013 -3.2207
  520SOL    HW2 1560   1.916   2.640   1.684  1.9620 -2.3176  1.7298
  521SOL     OW 1561   0.552   3.062   2.085 -0.1818 -0.1403  0.4096
  521SOL    HW1 1562   0.451   3.082   2.095  0.2416 -2.3136  0.2260
  521SOL    HW2 1563   0.607   3.074   2.174  3.1100  2.2324  0.3114
  522SOL     OW 1564   0.180   1.820   1.573  0.8921  0.0273  0.1259
  522SOL    HW1 1565   0.249   1.883   1.624 -1.2116  0.7823 -1.5158
  522SOL    HW2 1566   0.157   1.862   1.479 -2.1517 -0.7552  1.0634
  523SOL     OW 1567   2.182   2.983   1.580 -0.2907 -0.3578 -0.2986
  523SOL    HW1 1568   2.256   2.911   1.546  3.9907  1.6918  0.9238
  523SOL    HW2 1569   2.081   2.953   1.559  1.1885  0.2510 -1.3754
  524SOL     OW 1570   0.176   2.743   2.808 -0.4149 -0.5704 -0.6925
  524SOL    HW1 1571   0.119   2.826   2.845 -1.6749 -2.6474  0.2174
  524SOL    HW2 1572   0.276   2.769   2.795  1.5935  0.1670  1.5086
  525SOL     OW 1573   2.224   1.998   0.405 -0.8052 -0.5602 -0.4988
  525SOL    HW1 1574   2.198   1.954   0.498  0.5205 -0.1766  2.6010
  525SOL    HW2 1575   2.269   1.931   0.338  0.9440  2.4166  0.6584
  526SOL     OW 1576   0.479   1.482   1.716 -0.0735  0.2733 -0.8863
  526SOL    HW1 1577   0.517   1.533   1.797  0.7046 -2.2858 -1.5893
  526SOL    HW2 1578   0.487   1.383   1.720  1.0734  3.6556 -2.0687
  527SOL     OW 1579   1.069   2.877   1.130 -0.4820  0.0762 -0.0573
  527SOL    HW1 1580   1.108   2.808   1.198  1.6327  0.0429  0.4524
  527SOL    HW2 1581   1.121   2.963   1.147  0.0209 -1.9463  1.8580
  528SOL     OW 1582   1.370   2.334   0.529  0.0902 -0.3490 -0.0917
  528SOL    HW1 1583   1.428   2.251   0.525 -0.5253 -0.3497 -1.1782
  528SOL    HW2 1584   1.421   2.419   0.572  1.9147 -1.3124  0.4111
  529SOL     OW 1585   1.923   1.778   0.742  0.1813 -0.0396 -0.1128
  529SOL    HW1 1586   1.855   1.776   0.664  1.0210  0.2670  0.1332
  529SOL    HW2 1587   1.960   1.874   0.771 -0.5658  1.0014  0.4573
  530SOL     OW 1588   0.412   2.590   0.212 -0.3678  0.1062  1.1740
  530SOL    HW1 1589   0.378   2.663   0.281  1.5871 -1.0612  0.0079
  530SOL    HW2 1590   0.430   2.492   0.250 -0.6919 -2.0983  1.1936
  531SOL     OW 1591   1.871   0.993   1.048  0.3570  0.3031 -0.7199
  531SOL    HW1 1592   1.798   0.961   0.977 -2.8205  2.1336 -3.4258
  531SOL    HW2 1593   1.827   1.009   1.141  0.9536 -1.1668  0.5391
  532SOL     OW 1594   0.376   1.182   0.724  0.0950  0.2522  0.0227
  532SOL    HW1 1595   0.423   1.164   0.631  1.5954 -1.5674  2.2226
  532SOL    HW2 1596   0.333   1.092   0.759 -1.3671  0.6718  0.4007
  533SOL     OW 1597   1.748   0.020   2.583  0.4646 -0.1830 -0.1206
  533SOL    HW1 1598   1.849   0.002   2.594  1.2179 -0.6835  0.0054
  533SOL    HW2 1599   1.723   0.099   2.638  1.3877 -1.2878 -1.6674
  534SOL     OW 1600   0.259   0.215   1.445  0.3087 -0.2410 -0.2970
  534SOL    HW1 1601   0.328   0.265   1.383  0.0045  3.0565  0.7272
  534SOL    HW2 1602   0.214   0.283   1.517  0.2773  1.1030 -0.1449
  535SOL     OW 1603   1.900   0.375   0.227 -0.4563  0.2424 -0.2605
  535SOL    HW1 1604   1.897   0.455   0.285  2.1127 -3.5561  0.6283
  535SOL    HW2 1605   1.813   0.322   0.219  2.0569 -0.6811 -0.6585
  536SOL     OW 1606   1.427   2.578   0.926  0.8600 -0.3148  0.2107
  536SOL    HW1 1607   1.419   2.523   1.010 -1.6145  1.9770 -0.8875
  536SOL    HW2 1608   1.339   2.561   0.869  1.6400  1.0469 -0.0609
  537SOL     OW 1609   0.830   0.183   2.348 -0.6723 -0.8148 -0.1449
  537SOL    HW1 1610   0.831   0.231   2.256 -0.1078 -0.4064 -0.5671
  537SOL    HW2 1611   0.766   0.100   2.347 -1.2391 -2.2776  2.3565
  538SOL     OW 1612   1.661   2.303   1.506 -0.2669 -0.1943 -0.3783
  538SOL    HW1 1613   1.635   2.216   1.459  3.9543  0.0524 -1.0548
  538SOL    HW2 1614   1.747   2.342   1.469 -0.3061 -2.5665  2.0665
  539SOL     OW 1615   0.215   1.656   2.713 -0.3884  0.1774  0.5006
  539SOL    HW1 1616   0.127   1.635   2.656 -0.6120 -2.9516 -0.2686
  539SOL    HW2 1617   0.219   1.754   2.751  0.0551  2.4964  2.2508
  540SOL     OW 1618   2.728   1.703   1.977 -0.5476  0.1006  0.1134
  540SOL    HW1 1619   2.648   1.633   1.971  0.6303 -0.6483  0.2022
  540SOL    HW2 1620   2.706   1.802   1.948  3.1419 -1.3919 -2.0518
  541SOL     OW 1621   0.480   2.330   3.065  0.1355 -0.0065 -0.4162
  541SOL    HW1 1622   0.504   2.268   3.141  0.5690 -2.7387 -1.0714
  541SOL    HW2 1623   0.379   2.324   3.028 -0.4450 -2.4848  2.0615
  542SOL     OW 1624   2.247   2.576   0.412 -0.0336 -0.5180 -0.3026
  542SOL    HW1 1625   2.223   2.671   0.379  1.7882 -0.0930  0.0859
  542SOL    HW2 1626   2.167   2.523   0.458 -1.8109 -2.1707 -0.7547
  543SOL     OW 1627   1.009   1.713   1.668  0.1882 -0.5163 -0.3809
  543SOL    HW1 1628   0.990   1.772   1.749  2.8851 -0.6072 -0.6482
  543SOL    HW2 1629   0.978   1.754   1.574  1.6617 -0.2439  0.1863
  544SOL     OW 1630   0.987   0.393   0.204  0.2554  0.0438 -0.1786
  544SOL    HW1 1631   0.895   0.361   0.230 -0.2428  0.8937 -3.5151
  544SOL    HW2 1632   1.010   0.361   0.112  0.7763  1.3414  0.3684
  545SOL     OW 1633   1.091   1.726   0.728 -0.3827  0.5143  0.7154
  545SOL    HW1 1634   1.178   1.783   0.750 -1.0701  2.5078 -0.1602
  545SOL    HW2 1635   1.098   1.685   0.632  0.4075 -1.2241  0.6007
  546SOL     OW 1636   2.613   1.543   3.050  0.4421  0.2052  0.1896
  546SOL    HW1 1637   2.576   1.554   2.956  0.8610  1.2165  2.2887
  546SOL    HW2 1638   2.538   1.562   3.121 -5.2040 -0.7912  1.2186
  547SOL     OW 1639   0.573   0.056   2.695 -0.2136  0.3346 -0.7365
  547SOL    HW1 1640   0.636  -0.030   2.710  0.8985 -4.5747 -0.7459
  547SOL    HW2 1641   0.476   0.025   2.667 -0.0633 -0.2963 -0.2644
  548SOL     OW 1642   2.024   0.841   3.048  0.0113 -0.3623 -0.5440
  548SOL    HW1 1643   1.932   0.801   3.028 -0.2940  1.7154  0.4469
  548SOL    HW2 1644   2.021   0.944   3.063 -0.7172  1.8769 -0.0891
  549SOL     OW 1645   0.678   0.586   0.200 -0.6589 -0.5426  0.1512
  549SOL    HW1 1646   0.633   0.602   0.106  0.1149 -0.3061  0.9863
  549SOL    HW2 1647   0.756   0.648   0.225  1.8698  0.1547 -1.6846
  550SOL     OW 1648   2.494   2.859   2.863  0.2057  0.6049 -0.3274
  550SOL    HW1 1649   2.492   2.793   2.943 -2.3544 -1.4270 -3.1802
  550SOL    HW2 1650   2.485   2.800   2.775  0.9957  2.8005 -0.1060
  551SOL     OW 1651   0.292   0.866   0.214 -0.3738 -0.0594  0.2149
  551SOL    HW1 1652   0.394   0.869   0.200  1.2163 -4.1341  0.1995
  551SOL    HW2 1653   0.263   0.852   0.312  3.1815 -2.0572 -0.2262
  552SOL     OW 1654   0.714   2.923   1.871 -0.4715  0.6193  0.1793
  552SOL    HW1 1655   0.648   2.963   1.938  3.6869  1.3536  2.2793
  552SOL    HW2 1656   0.811   2.968   1.868 -0.3772  2.0625  0.9912
  553SOL     OW 1657   3.101   2.533   0.384 -0.5436  0.7188 -0.3992
  553SOL    HW1 1658   3.046   2.464   0.331 -0.6157  0.1156  0.4290
  553SOL    HW2 1659   3.040   2.603   0.435 -3.5773  0.5782  0.2160
  554SOL     OW 1660   2.176   0.365   0.575 -0.2146  0.1233 -0.1539
  554SOL    HW1 1661   2.220   0.379   0.484  1.0979  0.7193  0.1951
  554SOL    HW2 1662   2.200   0.278   0.623 -2.3189  1.7556 -0.1949
  555SOL     OW 1663   0.432   2.913   2.495  0.0852  0.4902 -0.2067
  555SOL    HW1 1664   0.333   2.916   2.472 -0.9398 -0.3202  0.2664
  555SOL    HW2 1665   0.496   2.886   2.419 -0.1701  1.7965  1.4259
  556SOL     OW 1666   0.851   2.394   1.561 -0.2286 -0.3225 -0.5170
  556SOL    HW1 1667   0.878   2.483   1.607 -0.0031  2.5543 -3.4035
  556SOL    HW2 1668   0.915   2.370   1.481 -1.4418  0.0707 -1.1871
  557SOL     OW 1669   0.101   2.077   0.154  0.0180 -0.2976  0.1852
  557SOL    HW1 1670   0.035   2.017   0.104  1.0258  0.8538 -0.7145
  557SOL    HW2 1671   0.112   2.171   0.114 -1.9929  1.3548 -0.2900
  558SOL     OW 1672   2.920   2.344   0.294 -0.3333 -0.0308 -0.2538
  558SOL    HW1 1673   2.820   2.336   0.321 -0.9232  0.9638 -0.4178
  558SOL    HW2 1674   2.930   2.336   0.190 -1.2422 -0.1281 -0.5083
  559SOL     OW 1675   0.374   2.308   1.348 -0.3631  0.5191  0.1255
  559SOL    HW1 1676   0.282   2.288   1.312  0.9091  0.4326  0.9223
  559SOL    HW2 1677   0.438   2.221   1.347 -1.3201 -2.5982 -0.5011
  560SOL     OW 1678   2.075   1.110   3.079 -0.1598  0.4104 -0.0981
  560SOL    HW1 1679   2.024   1.166   3.149  0.6456  1.4055 -1.9620
  560SOL    HW2 1680   2.148   1.166   3.031  0.3208  1.2615 -0.5277
  561SOL     OW 1681   2.997   1.894   0.046  0.2503 -0.3632  0.1962
  561SOL    HW1 1682   2.951   1.806   0.069 -0.6966  0.1227  1.5960
  561SOL    HW2 1683   2.935   1.966   0.011  0.8555 -3.9320 -1.3521
  562SOL     OW 1684   0.949   2.224   2.337 -0.2027  0.1486  0.3252
  562SOL    HW1 1685   0.861   2.191   2.373  2.3188  1.9110  0.6092
  562SOL    HW2 1686   1.005   2.281   2.408  2.9918  0.9012 -0.2726
  563SOL     OW 1687   0.722   2.504   2.582 -0.3001  0.7275 -0.0005
  563SOL    HW1 1688   0.755   2.403   2.602  4.6440 -0.7116  3.2374
  563SOL    HW2 1689   0.709   2.560   2.669 -1.1209  0.5213 -1.1765
  564SOL     OW 1690   2.765   1.304   2.915  0.5948  0.7667  0.0734
  564SOL    HW1 1691   2.689   1.336   2.979  1.1704  0.1562  2.7143
  564SOL    HW2 1692   2.822   1.383   2.886 -0.0822  0.4922  0.0853
  565SOL     OW 1693   2.567   1.976   2.563  0.6715 -0.5270 -0.0922
  565SOL    HW1 1694   2.503   2.035   2.509  1.4575 -0.0508 -1.5263
  565SOL    HW2 1695   2.600   2.020   2.652  0.9454  0.4064 -1.0267
  566SOL     OW 1696   2.006   2.851   1.411 -0.0990 -0.1536 -0.0783
  566SOL    HW1 1697   1.987   2.755   1.383  1.6478  2.4852  2.8572
  566SOL    HW2 1698   2.029   2.917   1.332 -0.5195  1.5497  0.3923
  567SOL     OW 1699   2.478   0.083   2.224  0.0954 -0.4805 -0.3845
  567SOL    HW1 1700   2.542   0.163   2.230  0.5720  1.7483 -2.9328
  567SOL    HW2 1701   2.440   0.069   2.126  1.2894 -0.2065  0.4251
  568SOL     OW 1702   1.551   1.762   0.236  0.1822  0.1862  0.3336
  568SOL    HW1 1703   1.487   1.835   0.195 -0.1527 -0.9095 -0.2260
  568SOL    HW2 1704   1.643   1.751   0.187  1.7449 -3.0212  0.9871
  569SOL     OW 1705   0.303   0.652   0.861  0.3084  0.6022 -0.5389
  569SOL    HW1 1706   0.371   0.586   0.820 -1.4583 -2.4146 -3.6241
  569SOL    HW2 1707   0.207   0.621   0.854 -2.0280  0.7661  1.3947
  570SOL     OW 1708   0.654   0.758   2.833 -0.2238  0.5063 -0.6878
  570SOL    HW1 1709   0.689   0.762   2.735  1.3496  0.2822  0.5982
  570SOL    HW2 1710   0.667   0.845   2.891  0.0905  3.2723 -1.1486
  571SOL     OW 1711   0.788   3.064   1.050 -0.6097 -0.1842 -0.6590
  571SOL    HW1 1712   0.833   3.077   0.960 -0.5041 -0.3897  0.6530
  571SOL    HW2 1713   0.800   2.968   1.089 -2.1036  1.3526  2.3657
  572SOL     OW 1714   1.595   2.617   1.219 -0.2104  0.1503  0.2883
  572SOL    HW1 1715   1.500   2.579   1.235  0.2052  0.5826 -1.1254
  572SOL    HW2 1716   1.595   2.713   1.191 -0.0334 -0.8643  2.2031
  573SOL     OW 1717   2.930   0.428   2.016 -0.5013 -0.0294 -0.1961
  573SOL    HW1 1718   2.892   0.335   2.035 -0.0840 -0.4627 -0.5133
  573SOL    HW2 1719   2.858   0.500   2.004  1.3195 -1.2012  1.3046
  574SOL     OW 1720   0.205   1.726   0.998  0.5701 -0.5242 -0.2808
  574SOL    HW1 1721   0.176   1.822   0.973  1.2409 -0.0198  1.9838
  574SOL    HW2 1722   0.138   1.685   1.067 -0.1497  0.5022 -0.6934
  575SOL     OW 1723   0.920   2.113   0.997  1.2131 -0.2522 -0.2961
  575SOL    HW1 1724   0.873   2.149   1.082  0.1311 -1.3411 -1.8502
  575SOL    HW2 1725   0.937   2.189   0.930  1.5543  0.0001  1.5085
  576SOL     OW 1726   2.897   2.970   1.650 -0.5814 -0.2888  0.2925
  576SOL    HW1 1727   2.820   2.962   1.582  0.0194  2.6819 -0.9764
  576SOL    HW2 1728   2.927   3.066   1.666 -2.1055  1.4790 -1.1733
  577SOL     OW 1729   2.532   1.232   0.001 -0.3248  0.0988  0.1606
  577SOL    HW1 1730   2.548   1.148  -0.057 -1.2760 -2.3140  0.1670
  577SOL    HW2 1731   2.603   1.229   0.082 -0.3111 -1.9350  0.8869
  578SOL     OW 1732   1.345   2.722   2.550  0.4181  0.5443 -0.3346
  578SOL    HW1 1733   1.260   2.777   2.524  2.2644  2.0303 -2.5425
  578SOL    HW2 1734   1.427   2.777   2.525 -0.3418 -1.6640 -2.0318
  579SOL     OW 1735   0.096   2.494   0.109  0.0711  0.2904  0.3619
  579SOL    HW1 1736   0.080   2.523   0.210 -2.2107 -2.3956 -0.3749
  579SOL    HW2 1737   0.182   2.439   0.092 -1.1396 -1.9404 -0.2308
  580SOL     OW 1738   1.023   2.650   0.423  0.1724  0.5625  0.7333
  580SOL    HW1 1739   1.105   2.677   0.369  2.3483 -0.4429  1.7725
  580SOL    HW2 1740   0.941   2.611   0.367  0.9115  0.3344  0.2647
  581SOL     OW 1741   1.277   2.578   1.517  0.1045  0.1830 -0.0687
  581SOL    HW1 1742   1.312   2.483   1.486  1.2681 -1.4704  1.6471
  581SOL    HW2 1743   1.301   2.661   1.456 -0.9090 -0.5220 -0.5718
  582SOL     OW 1744   1.503   0.086   1.818 -0.1567 -0.0909  0.0367
  582SOL    HW1 1745   1.539   0.172   1.864 -0.3582  1.9601 -0.2104
  582SOL    HW2 1746   1.580   0.053   1.753  0.5023 -0.0536  0.0365
  583SOL     OW 1747   2.529   3.018   0.490 -0.2582  0.1502  0.0100
  583SOL    HW1 1748   2.550   2.938   0.430  0.7252 -0.1341  1.2032
  583SOL    HW2 1749   2.463   2.978   0.566  0.7062  0.8388  0.5018
  584SOL     OW 1750   1.609   0.950   2.097  0.2076 -0.4970  0.2333
  584SOL    HW1 1751   1.676   0.992   2.031  2.0069  1.7641  2.3875
  584SOL    HW2 1752   1.657   0.911   2.182 -0.5199 -0.9529 -2.2488
  585SOL     OW 1753   2.095   2.680   2.964  0.1641 -0.4213  0.2141
  585SOL    HW1 1754   2.147   2.598   2.931 -1.4931  2.5900  0.2634
  585SOL    HW2 1755   2.012   2.695   2.904  0.3378 -1.0250 -2.5451
  586SOL     OW 1756   2.753   0.266   1.543 -0.0865  0.6545 -0.3781
  586SOL    HW1 1757   2.769   0.356   1.597  1.7346  0.3875  0.7620
  586SOL    HW2 1758   2.674   0.209   1.578  2.4766  0.1253 -3.6423
  587SOL     OW 1759   1.913   1.533   2.753 -0.0521 -0.0271 -0.3374
  587SOL    HW1 1760   1.970   1.466   2.694  0.0158 -2.2717  0.8302
  587SOL    HW2 1761   1.962   1.552   2.846 -0.0443 -0.6600  0.9072
  588SOL     OW 1762   0.479   2.750   2.268 -0.4432 -0.5166 -0.2161
  588SOL    HW1 1763   0.388   2.743   2.226  0.2871 -1.5968  1.5061
  588SOL    HW2 1764   0.508   2.664   2.322 -0.7113  2.2002  1.1504
  589SOL     OW 1765   2.101   1.416   2.551 -0.1934 -0.1262 -0.2702
  589SOL    HW1 1766   2.034   1.347   2.506  1.3918 -1.0227 -0.9419
  589SOL    HW2 1767   2.197   1.376   2.564  0.9271 -1.8604  0.5219
  590SOL     OW 1768   2.348   1.643   2.040 -0.1570  0.2450  0.3543
  590SOL    HW1 1769   2.431   1.589   2.006 -0.0576  0.8179  0.2835
  590SOL    HW2 1770   2.353   1.680   2.138 -1.0302 -0.8622  1.1011
  591SOL     OW 1771   1.324   2.396   0.259 -0.0170  0.1170 -0.2876
  591SOL    HW1 1772   1.343   2.320   0.190  0.6125 -1.2743  0.6621
  591SOL    HW2 1773   1.344   2.364   0.357 -0.0355  0.1013 -0.2674
  592SOL     OW 1774   1.762   2.314   0.759  0.1426 -0.1927  0.4843
  592SOL    HW1 1775   1.752   2.367   0.673  0.7869  0.2406  1.9365
  592SOL    HW2 1776   1.857   2.333   0.802  0.0387 -1.2011 -0.7220
  593SOL     OW 1777   0.684   0.303   0.122  0.2159  0.3174  0.3332
  593SOL    HW1 1778   0.744   0.292   0.040  2.1030  0.0075  3.0626
  593SOL    HW2 1779   0.646   0.401   0.128  0.6164 -1.7445 -3.1396
  594SOL     OW 1780   0.961   1.828   2.714 -0.5066  0.1786  0.1775
  594SOL    HW1 1781   1.049   1.838   2.764 -3.6547  1.8444 -0.3336
  594SOL    HW2 1782   0.898   1.911   2.732 -0.8909 -0.5101 -1.3056
  595SOL     OW 1783   1.553   0.084   1.038  0.1052 -0.1785  0.0132
  595SOL    HW1 1784   1.638   0.032   1.078  0.4412 -0.1131 -0.8040
  595SOL    HW2 1785   1.497   0.021   0.981 -2.2772  0.7637  2.0954
  596SOL     OW 1786   3.074   1.472   2.260  0.3775 -0.4953  0.0883
  596SOL    HW1 1787   2.977   1.493   2.238  2.2039 -0.5285  2.0974
  596SOL    HW2 1788   3.102   1.489   2.360  1.0387  2.2769 -0.9981
  597SOL     OW 1789   2.042   2.553   1.598 -0.3890 -0.0709  0.1188
  597SOL    HW1 1790   2.054   2.480   1.527 -2.2166 -1.3335  0.5595
  597SOL    HW2 1791   2.128   2.573   1.656  4.0263 -1.3644  1.9850
  598SOL     OW 1792   2.508   2.973   1.323  0.3525  0.1002 -0.1712
  598SOL    HW1 1793   2.608   2.977   1.348  1.8692  0.4045  0.5231
  598SOL    HW2 1794   2.492   2.922   1.233 -0.2734 -0.5362 -0.1646
  599SOL     OW 1795   2.943   0.402   2.497  0.5168 -0.3610 -0.1009
  599SOL    HW1 1796   3.000   0.479   2.461 -2.9186 -0.6479  0.8942
  599SOL    HW2 1797   2.845   0.417   2.466 -0.0542 -0.0366  1.1142
  600SOL     OW 1798   2.764   1.132   2.683 -0.6028 -0.1254 -0.0863
  600SOL    HW1 1799   2.739   1.037   2.706  1.7684  0.6942  0.0446
  600SOL    HW2 1800   2.724   1.202   2.745 -1.6278 -1.5897 -1.6428
  601SOL     OW 1801   2.972   1.272   1.918 -0.1410  0.2757  0.0297
  601SOL    HW1 1802   2.911   1.325   1.851 -1.6532  0.5104  0.6754
  601SOL    HW2 1803   3.056   1.323   1.946  2.2366 -0.3847  1.8931
  602SOL     OW 1804   1.420   1.700   2.328  0.0523  0.6738 -0.3965
  602SOL    HW1 1805   1.366   1.614   2.359 -0.9717 -0.6317  3.5246
  602SOL    HW2 1806   1.525   1.687   2.346 -0.2674 -1.0480 -2.0435
  603SOL     OW 1807   0.627   1.225   2.726 -0.6220 -0.1753  0.3996
  603SOL    HW1 1808   0.541   1.215   2.668 -1.1517 -3.4312 -1.3898
  603SOL    HW2 1809   0.708   1.174   2.687  0.8309  3.1345  1.7836
  604SOL     OW 1810   2.400   1.004   0.151 -0.6233  0.1381 -0.0939
  604SOL    HW1 1811   2.414   1.092   0.100  0.9001 -2.0635  1.8332
  604SOL    HW2 1812   2.406   0.926   0.080 -2.2457 -1.8601 -0.6645
  605SOL     OW 1813   2.546   1.166   1.880  0.2180  0.3944 -0.2618
  605SOL    HW1 1814   2.576   1.080   1.829 -2.1470 -1.7047  3.3718
  605SOL    HW2 1815   2.597   1.180   1.974  2.1737 -0.1083  0.1094
  606SOL     OW 1816   1.484   2.492   2.634 -0.1213  0.4552 -1.0599
  606SOL    HW1 1817   1.401   2.514   2.578 -3.1688 -0.5212 -1.0573
  606SOL    HW2 1818   1.510   2.392   2.617 -1.9988  1.0607  0.6875
  607SOL     OW 1819   1.387   1.643   0.444  0.0715 -0.1650 -0.3680
  607SOL    HW1 1820   1.293   1.692   0.437 -0.3910 -2.0473 -0.6376
  607SOL    HW2 1821   1.451   1.680   0.371 -0.1202  1.3104  0.1582
  608SOL     OW 1822   1.465   2.877   0.384  0.0395 -0.0561 -0.3089
  608SOL    HW1 1823   1.552   2.923   0.348 -1.0207 -0.4517 -2.0655
  608SOL    HW2 1824   1.404   2.937   0.442  2.2827  1.3095 -0.3023
  609SOL     OW 1825   1.327   1.402   0.260  0.5295 -0.2444 -0.2978
  609SOL    HW1 1826   1.349   1.469   0.342 -0.4569  3.7051  3.0447
  609SOL    HW2 1827   1.244   1.436   0.209  0.3296 -1.6941 -0.3467
  610SOL     OW 1828   3.013   1.140   2.199  0.2495 -0.0145 -0.7523
  610SOL    HW1 1829   2.980   1.039   2.183  0.9922 -2.5489 -0.6283
  610SOL    HW2 1830   2.977   1.206   2.128 -2.8757  0.7650  0.1885
  611SOL     OW 1831   2.609   0.296   1.119 -0.1431 -0.1602 -0.3442
  611SOL    HW1 1832   2.531   0.240   1.158  0.0470  0.0811  0.5294
  611SOL    HW2 1833   2.689   0.308   1.183 -1.7574  0.8818  0.0236
  612SOL     OW 1834   0.769   2.249   1.189 -0.2790  0.1847 -0.3480
  612SOL    HW1 1835   0.698   2.183   1.224  1.9570  2.2705 -1.2168
  612SOL    HW2 1836   0.730   2.340   1.155 -0.2029 -0.0463  0.9478
  613SOL     OW 1837   0.793   1.424   2.427 -0.2111 -0.5710  0.2388
  613SOL    HW1 1838   0.821   1.467   2.335  0.0062 -1.2215 -0.9360
  613SOL    HW2 1839   0.712   1.360   2.417 -0.7676 -1.2313  1.0364
  614SOL     OW 1840   1.581   1.654   1.957 -0.6821 -0.1842  0.4105
  614SOL    HW1 1841   1.523   1.731   1.997  0.5133  1.5266  2.1750
  614SOL    HW2 1842   1.674   1.648   2.003 -0.0861 -0.3523 -0.9151
  615SOL     OW 1843   0.790   1.309   1.713 -0.5109  0.2936  0.0182
  615SOL    HW1 1844   0.715   1.269   1.652 -0.2617  2.4171 -0.2008
  615SOL    HW2 1845   0.819   1.396   1.671 -2.0347 -2.0903 -1.4211
  616SOL     OW 1846   1.073   1.634   2.311  0.3504  0.6074 -1.0378
  616SOL    HW1 1847   0.986   1.587   2.285  1.0920  0.9714  3.3945
  616SOL    HW2 1848   1.078   1.720   2.260 -2.3022 -2.0356 -0.4605
  617SOL     OW 1849   2.943   1.554   1.598 -0.3418 -0.0715  0.2006
  617SOL    HW1 1850   2.911   1.470   1.645  2.4200  0.1786  3.1972
  617SOL    HW2 1851   2.986   1.535   1.503 -0.7376  0.7432 -1.9630
  618SOL     OW 1852   1.921   1.997   1.380 -0.4808 -0.2207  0.3915
  618SOL    HW1 1853   1.919   2.047   1.287  0.1002 -0.2473  0.4472
  618SOL    HW2 1854   1.977   1.911   1.380 -1.9468  0.8343  0.8606
  619SOL     OW 1855   1.776   0.442   2.372  0.2724  0.3502  0.5352
  619SOL    HW1 1856   1.696   0.486   2.320  0.5774  1.0942 -0.2498
  619SOL    HW2 1857   1.736   0.356   2.414  0.0975  0.7759  2.4222
  620SOL     OW 1858   2.320   2.936   0.669  0.0884 -0.2076 -0.6506
  620SOL    HW1 1859   2.236   2.987   0.669 -0.0320 -2.4447 -2.9933
  620SOL    HW2 1860   2.330   2.868   0.749 -0.6441 -0.2996 -2.9128
  621SOL     OW 1861   2.166   1.786   1.300  0.5269  0.5736 -0.4651
  621SOL    HW1 1862   2.144   1.785   1.401  1.2307 -2.6989  2.6895
  621SOL    HW2 1863   2.104   1.718   1.246 -0.7022  2.2325 -0.3016
  622SOL     OW 1864   2.275   0.904   1.783  0.5422  0.4480  0.2064
  622SOL    HW1 1865   2.367   0.907   1.739 -0.7158 -2.2550  1.5196
  622SOL    HW2 1866   2.260   0.818   1.839  0.1237 -0.8915  0.5348
  623SOL     OW 1867   1.323   0.824   2.593  0.3099  0.2893 -0.0407
  623SOL    HW1 1868   1.292   0.738   2.640 -3.6374  1.0132 -1.6685
  623SOL    HW2 1869   1.263   0.850   2.511 -0.2493 -0.6705  0.1781
  624SOL     OW 1870   0.523   0.709   3.069  0.0359 -0.4209  0.6535
  624SOL    HW1 1871   0.583   0.726   2.983 -0.8277  1.0190  0.4223
  624SOL    HW2 1872   0.551   0.768   3.144  0.4953  0.9730 -2.6681
  625SOL     OW 1873   2.796   1.692   1.039 -0.0594 -0.0683  0.1868
  625SOL    HW1 1874   2.704   1.744   1.025 -1.6809  1.2388 -1.6269
  625SOL    HW2 1875   2.873   1.754   1.070 -1.8872 -0.0741 -0.2341
  626SOL     OW 1876   0.579   2.711   1.724 -0.4684 -0.3008 -0.5638
  626SOL    HW1 1877   0.624   2.790   1.774  0.0123 -1.2982 -0.9817
  626SOL    HW2 1878   0.479   2.702   1.747  2.0049 -3.9028  0.3002
  627SOL     OW 1879   0.722   0.979   1.509  0.7131 -0.5148 -0.1784
  627SOL    HW1 1880   0.686   0.942   1.420 -2.3854  0.8528 -1.4296
  627SOL    HW2 1881   0.762   1.073   1.499 -0.3117 -3.1831 -0.1587
  628SOL     OW 1882   2.489   0.131   0.691  0.0508  0.6400  0.0707
  628SOL    HW1 1883   2.525   0.070   0.614 -2.1931 -1.0284 -0.8293
  628SOL    HW2 1884   2.390   0.123   0.696  0.8172 -0.6203 -1.8392
  629SOL     OW 1885   1.999   0.929   1.991 -0.0952  0.1704 -0.1872
  629SOL    HW1 1886   2.015   0.969   1.896 -1.7788  0.9953  0.2359
  629SOL    HW2 1887   1.995   1.005   2.062 -0.3847  0.6216 -1.3389
  630SOL     OW 1888   2.920   2.302   0.819  0.3384 -0.4705  0.4607
  630SOL    HW1 1889   2.854   2.383   0.828  1.3914 -0.0106 -0.9549
  630SOL    HW2 1890   2.876   2.206   0.808  3.0054 -2.0377  0.1851
  631SOL     OW 1891   3.034   0.150   2.124 -0.6009 -1.1883 -0.5211
  631SOL    HW1 1892   3.086   0.185   2.209  0.5980  0.3682 -0.2514
  631SOL    HW2 1893   3.088   0.158   2.040 -0.4449  1.3653  1.7702
  632SOL     OW 1894   2.410   2.567   0.647  0.0987 -0.6243 -0.0510
  632SOL    HW1 1895   2.412   2.653   0.709  1.4843  1.1167  2.5701
  632SOL    HW2 1896   2.337   2.575   0.568 -2.3366  0.4262 -0.2961
  633SOL     OW 1897   1.395   1.210   2.659 -0.0733 -0.0618  0.1477
  633SOL    HW1 1898   1.410   1.311   2.674 -1.1696 -1.0688  0.9693
  633SOL    HW2 1899   1.359   1.196   2.559  0.2679  0.8283 -0.1485
  634SOL     OW 1900   0.686   2.052   0.873 -0.0982 -0.0055  0.3879
  634SOL    HW1 1901   0.599   2.040   0.928 -0.3828 -0.5241  0.0965
  634SOL    HW2 1902   0.764   2.093   0.928 -0.6545  0.3513 -0.5358
  635SOL     OW 1903   2.969   2.337   0.019 -0.1314  0.0671 -0.3047
  635SOL    HW1 1904   2.897   2.390  -0.033  1.4456 -0.4903  1.3042
  635SOL    HW2 1905   3.053   2.398   0.038  0.8345 -0.9287 -1.9546
  636SOL     OW 1906   2.330   2.747   1.990  0.5142 -0.1179  0.2291
  636SOL    HW1 1907   2.355   2.843   2.014 -1.5514  1.0482  0.0410
  636SOL    HW2 1908   2.252   2.705   2.050  1.4045 -0.5421 -0.2790
  637SOL     OW 1909   2.678   0.595   1.970 -0.3001  0.3323 -0.3112
  637SOL    HW1 1910   2.610   0.605   1.891 -3.0405  1.5574 -0.5191
  637SOL    HW2 1911   2.711   0.688   2.002 -0.4983 -3.9015 -0.2429
  638SOL     OW 1912   2.422   1.823   1.269  0.0773  0.2763 -0.0587
  638SOL    HW1 1913   2.315   1.816   1.285 -1.9695 -0.0722 -0.0603
  638SOL    HW2 1914   2.471   1.746   1.321  0.0202 -0.0753 -2.4086
  639SOL     OW 1915   1.281   2.068   1.714 -0.6955 -0.4150 -0.1883
  639SOL    HW1 1916   1.312   2.153   1.665  0.1773  0.1614 -1.5622
  639SOL    HW2 1917   1.181   2.076   1.755 -1.2589  1.0366  0.5140
  640SOL     OW 1918   0.194   1.168   1.571 -0.5211 -0.1847 -0.0464
  640SOL    HW1 1919   0.195   1.176   1.677  0.4298 -1.5861  1.9037
  640SOL    HW2 1920   0.260   1.093   1.529 -0.0624 -1.9538 -3.6966
  641SOL     OW 1921   2.011   0.228   1.544 -0.0180 -0.4498  0.4723
  641SOL    HW1 1922   1.997   0.262   1.643  0.6852 -3.5828  1.6775
  641SOL    HW2 1923   2.104   0.184   1.532 -1.9748  1.5051 -1.4492
  642SOL     OW 1924   2.014   3.074   0.323  0.1278  0.1530  0.1626
  642SOL    HW1 1925   2.105   3.099   0.368 -0.1026 -2.3193  0.8553
  642SOL    HW2 1926   1.930   3.089   0.382 -1.0489 -2.1343 -0.2305
  643SOL     OW 1927   2.927   1.800   2.144  0.0322  0.3393 -0.1878
  643SOL    HW1 1928   2.858   1.746   2.089 -1.3234  0.7635 -1.1010
  643SOL    HW2 1929   2.939   1.900   2.118 -0.7473  0.6236  0.7341
  644SOL     OW 1930   2.191   2.367   1.176  0.4031 -0.4371 -0.3802
  644SOL    HW1 1931   2.281   2.327   1.143 -0.1913  0.3640  1.1724
  644SOL    HW2 1932   2.179   2.356   1.280 -2.1805 -4.5929 -1.1091
  645SOL     OW 1933   0.613   0.828   1.281 -0.0534  0.0067 -0.0232
  645SOL    HW1 1934   0.510   0.828   1.271 -0.8786 -2.5550 -0.5606
  645SOL    HW2 1935   0.665   0.834   1.195 -1.6078  1.0044 -2.2566
  646SOL     OW 1936   1.431   1.822   2.103  0.3478 -0.2369  0.0050
  646SOL    HW1 1937   1.466   1.918   2.114  3.6040 -1.2727  1.8948
  646SOL    HW2 1938   1.414   1.775   2.196 -0.9860 -1.3765 -0.1184
  647SOL     OW 1939   0.790   1.048   0.692 -0.2519  0.3010  0.8555
  647SOL    HW1 1940   0.852   1.102   0.763 -0.4261 -2.5216  1.6071
  647SOL    HW2 1941   0.708   1.001   0.741 -1.8478  0.3721  0.7439
  648SOL     OW 1942   0.101   0.254   0.271 -0.4157 -0.3701 -0.0982
  648SOL    HW1 1943   0.147   0.186   0.211 -3.0528  1.6189 -0.3788
  648SOL    HW2 1944   0.136   0.355   0.251 -1.5413  1.4205  0.1706
  649SOL     OW 1945   3.015   0.237   0.836 -0.3150 -0.2246 -0.4269
  649SOL    HW1 1946   3.097   0.183   0.865 -2.2081 -0.5118  1.0142
  649SOL    HW2 1947   3.036   0.336   0.846 -1.2510 -1.0803 -0.6330
  650SOL     OW 1948   2.770   0.716   1.515 -0.1657  0.5053  0.2919
  650SOL    HW1 1949   2.671   0.693   1.505  0.7179 -0.4479  1.4875
  650SOL    HW2 1950   2.800   0.778   1.437 -0.6723  1.4214  0.4459
  651SOL     OW 1951   0.903   1.491   1.538 -0.2835  0.1141  0.2599
  651SOL    HW1 1952   0.936   1.562   1.606 -0.8348  1.2646  1.8182
  651SOL    HW2 1953   0.967   1.479   1.456 -4.0193 -0.3889 -0.8062
  652SOL     OW 1954   2.350   2.385   2.420 -0.4118  0.5610  0.6091
  652SOL    HW1 1955   2.273   2.431   2.469 -1.4087 -0.8897 -1.2638
  652SOL    HW2 1956   2.423   2.448   2.385 -1.1593 -0.4382  1.3444
  653SOL     OW 1957   2.680   1.228   0.240  0.2963  0.4379  0.2327
  653SOL    HW1 1958   2.715   1.303   0.302  3.2906  0.4396  1.6709
  653SOL    HW2 1959   2.745   1.149   0.233  1.1359 -1.0925 -1.4382
  654SOL     OW 1960   1.233   2.231   1.248 -0.4186  0.1701 -0.5819
  654SOL    HW1 1961   1.237   2.151   1.315  0.2969 -1.2116  0.3635
  654SOL    HW2 1962   1.282   2.217   1.157  0.6170  0.6185  1.5127
  655SOL     OW 1963   0.159   0.929   1.878  0.4707 -0.0812  0.7358
  655SOL    HW1 1964   0.217   0.866   1.819  1.0627  0.6121 -2.0838
  655SOL    HW2 1965   0.194   1.026   1.876  0.6658 -1.5859 -0.6195
  656SOL     OW 1966   2.574   2.450   2.606 -0.1612  0.2913  0.2699
  656SOL    HW1 1967   2.660   2.429   2.557  0.5149 -2.0702  0.8257
  656SOL    HW2 1968   2.495   2.395   2.567  1.9926 -0.5177  1.1328
  657SOL     OW 1969   2.981   0.990   1.909  0.2608  0.0064 -0.4346
  657SOL    HW1 1970   2.985   1.096   1.928 -3.0813  2.0922  1.0774
  657SOL    HW2 1971   3.077   0.954   1.899 -1.0921  1.0490  0.2663
  658SOL     OW 1972   1.675   0.174   2.370 -0.7490 -0.3733  0.1105
  658SOL    HW1 1973   1.705   0.102   2.444  0.6900  0.0011  1.2356
  658SOL    HW2 1974   1.723   0.167   2.280 -0.5934 -1.3334  1.7973
  659SOL     OW 1975   1.385   0.625   2.839 -0.1218 -0.1583 -0.2133
  659SOL    HW1 1976   1.452   0.700   2.866  0.9888 -0.2579  0.0669
  659SOL    HW2 1977   1.286   0.644   2.861  1.8863 -0.6996 -2.6016
  660SOL     OW 1978   1.398   0.325   1.436 -0.6373 -0.6967 -0.4770
  660SOL    HW1 1979   1.416   0.339   1.535 -0.9071  0.2440 -3.3672
  660SOL    HW2 1980   1.473   0.262   1.400  0.2412  0.5748  0.9763
  661SOL     OW 1981   2.340   1.199   0.660  0.5725 -0.3308  0.1094
  661SOL    HW1 1982   2.386   1.194   0.568 -0.4936 -0.7095 -0.3039
  661SOL    HW2 1983   2.337   1.298   0.696 -0.6812  2.1352  1.6391
  662SOL     OW 1984   1.382   0.370   1.720  0.2982 -0.1190  0.0610
  662SOL    HW1 1985   1.314   0.319   1.778  1.4216 -1.4877 -1.6496
  662SOL    HW2 1986   1.413   0.461   1.755  0.3713 -0.4368  1.3580
  663SOL     OW 1987   0.832   1.550   2.188 -1.2040  0.4203  0.7539
  663SOL    HW1 1988   0.752   1.610   2.225  1.3020 -4.1889 -0.9166
  663SOL    HW2 1989   0.811   1.501   2.095 -1.1535 -0.3708 -0.4038
  664SOL     OW 1990   1.611   2.048   1.379  0.1440 -0.3473  0.4913
  664SOL    HW1 1991   1.546   2.011   1.450 -0.0449 -1.2739  1.5197
  664SOL    HW2 1992   1.691   1.979   1.361  0.0253  0.1180 -0.2898
  665SOL     OW 1993   2.243   0.690   1.997 -0.0129 -0.1624 -0.3459
  665SOL    HW1 1994   2.156   0.718   2.037  1.9066  0.4824 -2.3746
  665SOL    HW2 1995   2.320   0.668   2.067 -1.1110  0.0238 -1.0426
  666SOL     OW 1996   0.441   2.337   0.303 -0.3718  0.2866 -0.0839
  666SOL    HW1 1997   0.498   2.369   0.382 -0.0654 -4.2400 -0.6304
  666SOL    HW2 1998   0.349   2.297   0.335 -1.2058  2.8385 -2.3863
  667SOL     OW 1999   2.066   0.194   1.138  0.4168 -0.0396  0.6656
  667SOL    HW1 2000   2.067   0.296   1.118  1.5732  0.2071 -0.1972
  667SOL    HW2 2001   1.988   0.160   1.197 -0.9658 -0.2938 -1.9667
  668SOL     OW 2002   2.063   0.463   1.117 -0.1695  0.0999 -0.1038
  668SOL    HW1 2003   2.105   0.485   1.024 -0.6305  1.0109 -2.0162
  668SOL    HW2 2004   2.102   0.517   1.190  0.0140 -0.2926 -0.2751
  669SOL     OW 2005   3.068   2.136   1.016  0.2342 -0.2001  0.2427
  669SOL    HW1 2006   3.016   2.208   0.956 -3.1005  1.5037 -1.8818
  669SOL    HW2 2007   3.114   2.177   1.102 -0.5132  3.3555 -0.0448
  670SOL     OW 2008   2.875   2.332   2.063 -0.5135 -0.1038  0.0005
  670SOL    HW1 2009   2.797   2.290   2.120  0.2276  0.5447 -0.3800
  670SOL    HW2 2010   2.861   2.437   2.042  0.4442  3.9453 -3.6903
  671SOL     OW 2011   1.722   1.777   1.460 -0.2705 -0.1427  0.5029
  671SOL    HW1 2012   1.730   1.798   1.356 -1.9656  1.9687  1.7564
  671SOL    HW2 2013   1.636   1.814   1.505  1.1788  1.9327  2.2313
  672SOL     OW 2014   0.436   0.604   2.362 -0.0065  0.2041 -0.4488
  672SOL    HW1 2015   0.474   0.660   2.281 -0.6065  0.8028 -0.0975
  672SOL    HW2 2016   0.344   0.636   2.387  0.7937 -1.0170  0.0689
  673SOL     OW 2017   0.137   1.217   1.147  0.0027  0.1760 -0.3939
  673SOL    HW1 2018   0.156   1.267   1.237 -1.0544 -0.1871  1.2563
  673SOL    HW2 2019   0.226   1.173   1.108  0.0541  1.1339 -0.5147
  674SOL     OW 2020   1.680   2.992   0.300  0.6351 -0.7533 -0.5382
  674SOL    HW1 2021   1.637   3.084   0.317  0.4948 -1.1826 -0.3275
  674SOL    HW2 2022   1.759   2.998   0.236 -1.9500  0.8295  1.1685
  675SOL     OW 2023   1.727   0.810   2.301 -0.4407  0.1275  0.6075
  675SOL    HW1 2024   1.823   0.795   2.329 -1.9083 -2.0947  1.9332
  675SOL    HW2 2025   1.674   0.721   2.281  0.1702 -0.3686 -0.6802
  676SOL     OW 2026   2.554   1.493   1.929  0.2832 -0.4110 -0.0108
  676SOL    HW1 2027   2.479   1.470   1.853 -1.9578  3.5500  0.4616
  676SOL    HW2 2028   2.556   1.423   2.003  2.4549 -1.3772 -0.3357
  677SOL     OW 2029   1.895   0.658   0.918  0.1474 -0.5005 -0.2773
  677SOL    HW1 2030   1.813   0.672   0.972  0.6266  1.4311  1.1976
  677SOL    HW2 2031   1.921   0.558   0.915  1.3384 -0.7922  0.8700
  678SOL     OW 2032   0.068   0.739   1.635 -0.0601  0.3621  0.0077
  678SOL    HW1 2033   0.170   0.732   1.660 -0.8028  2.3973 -0.3321
  678SOL    HW2 2034   0.005   0.735   1.718 -0.1779  2.2973  2.0498
  679SOL     OW 2035   2.507   1.218   1.201 -0.3052 -0.0516 -0.8499
  679SOL    HW1 2036   2.425   1.242   1.146  0.6628  2.0354  1.2852
  679SOL    HW2 2037   2.545   1.119   1.188  1.3797 -1.1094  1.0434
  680SOL     OW 2038   2.800   0.507   1.697 -0.0912  0.0641  0.0652
  680SOL    HW1 2039   2.772   0.591   1.640  0.8633  2.7983 -2.1198
  680SOL    HW2 2040   2.876   0.539   1.755 -0.7704  0.3370 -0.6985
  681SOL     OW 2041   2.988   0.124   1.595  0.6352  0.4340  0.3788
  681SOL    HW1 2042   3.032   0.101   1.509 -1.0525 -0.9497  0.0049
  681SOL    HW2 2043   2.918   0.196   1.568  1.2973  1.2017 -0.3945
  682SOL     OW 2044   0.774   0.038   1.330  0.1533 -0.4628  0.5928
  682SOL    HW1 2045   0.708  -0.029   1.366  1.0027 -1.4701 -2.3406
  682SOL    HW2 2046   0.780   0.025   1.230 -0.4826 -0.9736  1.6741
  683SOL     OW 2047   1.356   0.227   2.178  0.1104  0.1516 -0.1663
  683SOL    HW1 2048   1.369   0.296   2.254 -2.1469  0.1510 -0.0294
  683SOL    HW2 2049   1.436   0.192   2.123  0.8129 -2.4602  1.4325
  684SOL     OW 2050   1.473   2.087   0.461 -0.8522  0.1841 -0.2140
  684SOL    HW1 2051   1.514   2.031   0.540 -1.1528  2.3635  0.9857
  684SOL    HW2 2052   1.381   2.058   0.433  0.9520 -0.6537  1.9960
  685SOL     OW 2053   2.170   2.071   1.919  0.1043  0.1715  0.0689
  685SOL    HW1 2054   2.252   2.035   1.864  3.1366 -2.2960 -0.0667
  685SOL    HW2 2055   2.189   2.084   2.024  0.3355 -0.9046 -0.5636
  686SOL     OW 2056   1.493   1.838   2.748 -0.5406 -0.3059 -0.7846
  686SOL    HW1 2057   1.547   1.784   2.820 -1.2211  0.1800  1.0645
  686SOL    HW2 2058   1.449   1.784   2.670 -0.5030 -0.7249 -0.0418
  687SOL     OW 2059   1.331   2.470   1.943 -0.2833 -0.2036 -0.1199
  687SOL    HW1 2060   1.353   2.371   1.939 -1.9191  1.5913  2.0676
  687SOL    HW2 2061   1.373   2.514   2.028 -0.5563  2.0874 -1.0227
  688SOL     OW 2062   2.014   1.497   1.780  0.5125 -0.2535  0.7905
  688SOL    HW1 2063   2.100   1.553   1.785 -2.7741  2.8895 -0.8007
  688SOL    HW2 2064   1.997   1.454   1.684 -0.8247  3.3650 -1.5027
  689SOL     OW 2065   2.367   1.079   2.757 -0.5724  0.1135 -0.5633
  689SOL    HW1 2066   2.296   1.004   2.778  0.6820 -0.5195 -2.5522
  689SOL    HW2 2067   2.455   1.062   2.812  0.3553  1.7495 -2.0988
  690SOL     OW 2068   2.227   2.786   0.076 -0.3217 -0.3095  0.4394
  690SOL    HW1 2069   2.167   2.757  -0.000 -0.8454  0.0138 -2.1480
  690SOL    HW2 2070   2.184   2.764   0.166 -1.6636 -2.6504 -2.0151
  691SOL     OW 2071   2.583   0.425   2.149 -0.3566  0.2624  0.4080
  691SOL    HW1 2072   2.642   0.339   2.156  1.7895  1.4497  0.5223
  691SOL    HW2 2073   2.619   0.477   2.067 -0.7803 -4.2606  3.2369
  692SOL     OW 2074   2.708   1.273   0.747  0.2086 -0.2376 -0.2399
  692SOL    HW1 2075   2.745   1.279   0.653 -0.8522 -2.0568 -1.4262
  692SOL    HW2 2076   2.720   1.363   0.803  0.1090 -0.9790 -0.5297
  693SOL     OW 2077   2.842   2.930   0.641  0.3181  0.2729 -0.1413
  693SOL    HW1 2078   2.842   3.012   0.704 -0.6879  1.7608 -2.7616
  693SOL    HW2 2079   2.813   2.957   0.546 -0.1584  2.0413  0.7543
  694SOL     OW 2080   2.405   2.200   0.086 -0.8109  0.0239  0.2165
  694SOL    HW1 2081   2.403   2.272   0.162 -1.1249 -1.5326 -0.8925
  694SOL    HW2 2082   2.317   2.144   0.080 -1.2389  2.7750 -2.2100
  695SOL     OW 2083   0.555   3.013   1.467  0.2437  0.2518 -0.5515
  695SOL    HW1 2084   0.487   2.943   1.426  1.0994  1.2394 -0.1976
  695SOL    HW2 2085   0.505   3.085   1.522  0.8917 -0.5844 -0.3910
  696SOL     OW 2086   2.823   2.069   0.716 -0.4613 -0.5199 -0.2569
  696SOL    HW1 2087   2.895   1.996   0.734 -0.4666 -0.8171 -1.4092
  696SOL    HW2 2088   2.794   2.072   0.617  0.7667 -1.1571  0.7460
  697SOL     OW 2089   1.595   1.999   1.855  0.4099  0.1507 -0.1156
  697SOL    HW1 2090   1.639   1.911   1.858  1.1827  0.4453  0.2903
  697SOL    HW2 2091   1.658   2.074   1.822 -3.0566  1.2690 -1.7510
  698SOL     OW 2092   2.922   0.412   2.781 -0.4106  0.3765  0.1513
  698SOL    HW1 2093   2.928   0.389   2.680  0.2043  3.1634 -0.4022
  698SOL    HW2 2094   2.975   0.347   2.847  1.3382  1.9449  3.9564
  699SOL     OW 2095   1.548   0.088   2.911 -0.5110  0.0488  0.3296
  699SOL    HW1 2096   1.511   0.004   2.862  1.6667  1.6135 -0.0226
  699SOL    HW2 2097   1.592   0.155   2.841  1.0508  1.1066 -1.0220
  700SOL     OW 2098   1.005   2.339   1.344  0.2011  0.1875  0.3712
  700SOL    HW1 2099   1.094   2.288   1.324 -1.2564 -0.4839 -2.1321
  700SOL    HW2 2100   0.929   2.300   1.286 -1.5245  0.0033  0.2012
  701SOL     OW 2101   1.867   2.923   3.062  0.0701  0.5621  0.2900
  701SOL    HW1 2102   1.905   2.879   3.148 -0.7663  2.0864 -0.6747
  701SOL    HW2 2103   1.860   3.027   3.070 -2.7144 -0.3215 -1.6310
  702SOL     OW 2104   2.099   1.303   1.969 -0.1433 -0.2288  0.0494
  702SOL    HW1 2105   2.174   1.239   1.932 -0.5274 -0.7574  3.3042
  702SOL    HW2 2106   2.067   1.381   1.903 -1.0705  0.6000 -1.8031
  703SOL     OW 2107   1.922   0.912   1.436  0.1862 -0.1026  0.2949
  703SOL    HW1 2108   1.884   0.829   1.492 -1.9962  0.4708  0.6309
  703SOL    HW2 2109   1.999   0.965   1.486 -1.2480  1.4401  0.2923
  704SOL     OW 2110   0.311   2.032   1.724  0.4129  0.2316  0.4090
  704SOL    HW1 2111   0.359   1.988   1.806  2.1452 -3.9106  0.8560
  704SOL    HW2 2112   0.376   2.106   1.681  1.2473 -1.0706 -1.1877
  705SOL     OW 2113   2.549   1.551   0.903  0.6589 -0.4251 -0.0571
  705SOL    HW1 2114   2.490   1.490   0.844  2.7120  0.6783  1.8516
  705SOL    HW2 2115   2.646   1.516   0.919  1.2488 -1.5321 -0.1178
  706SOL     OW 2116   0.609   1.667   1.890 -0.6411 -0.3828 -0.3358
  706SOL    HW1 2117   0.627   1.569   1.922 -0.4868  2.4045  1.6071
  706SOL    HW2 2118   0.698   1.719   1.872 -0.3391  0.2109 -0.0489
  707SOL     OW 2119   2.280   1.155   1.857 -0.9922 -0.1312 -0.2956
  707SOL    HW1 2120   2.382   1.174   1.851 -1.2759 -0.2163  0.1985
  707SOL    HW2 2121   2.262   1.053   1.833 -3.4291  0.5127 -2.1379
  708SOL     OW 2122   3.054   0.555   3.078  0.4861 -0.2269  0.0043
  708SOL    HW1 2123   3.061   0.626   3.005  0.0737 -1.7724  1.9309
  708SOL    HW2 2124   3.099   0.465   3.056  1.3557  1.0858  1.1925
  709SOL     OW 2125   1.851   1.838   0.262  0.0262 -0.3100 -0.4585
  709SOL    HW1 2126   1.874   1.934   0.298  1.6137 -0.5251  0.3472
  709SOL    HW2 2127   1.838   1.835   0.156 -0.4866  1.3600 -3.2008
  710SOL     OW 2128   1.667   1.621   2.399  0.1497  0.3139  0.4832
  710SOL    HW1 2129   1.748   1.590   2.346 -0.8793  0.9865 -1.3075
  710SOL    HW2 2130   1.669   1.576   2.495 -1.0336 -2.3367  0.6709
  711SOL     OW 2131   2.558   2.900   1.059  0.0756 -0.2183 -0.0065
  711SOL    HW1 2132   2.511   2.983   1.015  1.0850 -1.0207  0.6694
  711SOL    HW2 2133   2.654   2.921   1.089 -1.2189  0.9799 -0.9282
  712SOL     OW 2134   1.388   2.205   1.952  0.0555  0.1865 -0.1496
  712SOL    HW1 2135   1.476   2.221   2.002 -0.4781 -1.8201  4.2467
  712SOL    HW2 2136   1.393   2.125   1.889  1.3906  0.2618 -0.8607
  713SOL     OW 2137   2.833   1.455   2.524 -0.1820  0.5091 -0.1028
  713SOL    HW1 2138   2.849   1.360   2.487  0.7502  0.7987 -0.5090
  713SOL    HW2 2139   2.751   1.462   2.584  2.7522  0.9912  1.9546
  714SOL     OW 2140   2.678   0.487   2.430  0.0856  0.3185  0.9358
  714SOL    HW1 2141   2.602   0.471   2.495 -1.6579  0.1977 -0.4878
  714SOL    HW2 2142   2.647   0.475   2.333  2.1219  2.3997  0.8718
  715SOL     OW 2143   1.578   2.046   1.098  0.7507  0.4472 -0.2857
  715SOL    HW1 2144   1.485   2.071   1.058 -1.6032  0.1842  0.0841
  715SOL    HW2 2145   1.585   2.078   1.196  0.9017  2.8079 -2.8357
  716SOL     OW 2146   1.173   0.193   1.488  0.6782  0.1909 -0.0313
  716SOL    HW1 2147   1.070   0.219   1.484 -0.8807  2.5048  0.7013
  716SOL    HW2 2148   1.245   0.264   1.467  0.1857  3.6559 -0.6337
  717SOL     OW 2149   1.161   0.567   1.530 -0.1909 -0.0020 -0.0287
  717SOL    HW1 2150   1.244   0.630   1.564  0.8268  2.6611 -1.5646
  717SOL    HW2 2151   1.142   0.562   1.426 -2.7887  0.9068 -0.1407
  718SOL     OW 2152   0.679   0.884   0.999 -0.4444  0.0134  0.3419
  718SOL    HW1 2153   0.623   0.890   0.913  1.3775  0.5110 -1.7053
  718SOL    HW2 2154   0.700   0.983   1.035  1.5171  2.3458 -0.7883
  719SOL     OW 2155   0.633   1.693   2.329  0.3282  0.2271 -0.2727
  719SOL    HW1 2156   0.707   1.728   2.389 -3.1373 -0.8382 -2.5432
  719SOL    HW2 2157   0.542   1.672   2.373 -0.6361  1.3044 -0.5568
  720SOL     OW 2158   2.181   1.127   0.285  0.4181 -0.0288  0.1563
  720SOL    HW1 2159   2.238   1.065   0.223  0.6574 -2.0186 -2.4983
  720SOL    HW2 2160   2.158   1.083   0.374 -1.4214 -2.9434  0.7100
  721SOL     OW 2161   2.291   3.011   2.073 -0.5096  0.2301  0.3250
  721SOL    HW1 2162   2.209   2.995   2.017  2.3498  0.0020  0.1077
  721SOL    HW2 2163   2.283   3.027   2.177  1.4381 -1.6434  1.8492
  722SOL     OW 2164   2.306   1.591   0.503  0.8326 -0.0120  0.5364
  722SOL    HW1 2165   2.368   1.537   0.441 -0.1847  1.6378  0.2876
  722SOL    HW2 2166   2.234   1.639   0.449  2.6971 -0.6589 -0.0523
  723SOL     OW 2167   2.600   2.740   1.937 -0.1604 -0.0364  0.6925
  723SOL    HW1 2168   2.652   2.805   2.001 -1.1997 -1.0916  1.2992
  723SOL    HW2 2169   2.501   2.728   1.966  1.2010 -0.4958 -0.0555
  724SOL     OW 2170   0.493   2.500   2.385 -0.0521  0.2862 -0.2636
  724SOL    HW1 2171   0.398   2.503   2.427 -0.7889 -3.2136 -1.9345
  724SOL    HW2 2172   0.570   2.479   2.453 -1.9756  0.4148  1.3977
  725SOL     OW 2173   2.349   2.787   1.505  0.6843  0.4021  0.4530
  725SOL    HW1 2174   2.422   2.851   1.482 -0.0891 -0.4472  0.3117
  725SOL    HW2 2175   2.381   2.693   1.527 -2.5756  2.5668 -0.7998
  726SOL     OW 2176   2.559   2.339   0.750  0.1939 -0.0954 -0.0681
  726SOL    HW1 2177   2.499   2.420   0.744 -2.1426  0.0973 -0.4901
  726SOL    HW2 2178   2.540   2.268   0.672  1.6974 -1.0411  2.1633
  727SOL     OW 2179   0.127   3.069   0.034 -0.7679  0.3937 -0.1471
  727SOL    HW1 2180   0.204   3.028  -0.022  1.6409 -0.9645 -0.8698
  727SOL    HW2 2181   0.034   3.043   0.007  0.7616 -1.6755  1.8336
  728SOL     OW 2182   2.912   0.644   0.953 -0.1148 -0.4144  0.1243
  728SOL    HW1 2183   2.834   0.670   0.885 -0.4900 -0.7597 -1.8527
  728SOL    HW2 2184   2.875   0.621   1.050  2.3776  2.7061 -0.5226
  729SOL     OW 2185   3.052   2.515   0.732 -0.7376 -0.5586  0.8933
  729SOL    HW1 2186   3.021   2.427   0.786 -3.1323 -1.3942 -0.5552
  729SOL    HW2 2187   3.149   2.506   0.702 -4.7451 -0.9847  3.9911
  730SOL     OW 2188   2.633   0.697   0.870  0.2094  0.1137  0.0937
  730SOL    HW1 2189   2.586   0.791   0.880  0.1186 -1.9272  0.8736
  730SOL    HW2 2190   2.660   0.684   0.767  2.1675  0.2721 -0.8454
  731SOL     OW 2191   0.026   2.097   2.432  0.3750  0.3347  0.6115
  731SOL    HW1 2192   0.039   2.159   2.514  2.3256 -0.4730  0.4111
  731SOL    HW2 2193  -0.036   2.139   2.361  1.7810 -0.4746  0.1954
  732SOL     OW 2194   1.221   2.842   1.960 -0.6611  0.0642  0.0400
  732SOL    HW1 2195   1.216   2.803   2.056 -1.9315  0.7914 -1.2570
  732SOL    HW2 2196   1.197   2.771   1.890  1.8472  1.8919  0.0294
  733SOL     OW 2197   3.036   0.593   2.229  0.6285 -0.3646 -0.2154
  733SOL    HW1 2198   3.128   0.612   2.197  0.4576 -0.8071  0.2376
  733SOL    HW2 2199   2.989   0.523   2.164  2.0771  1.4290 -1.4240
  734SOL     OW 2200   1.417   0.391   2.690  0.1641  0.1557  0.1186
  734SOL    HW1 2201   1.425   0.478   2.749  2.0267  0.0786  1.2300
  734SOL    HW2 2202   1.351   0.322   2.732 -0.4454 -2.3253 -0.9389
  735SOL     OW 2203   2.891   2.641   2.298 -0.0406  0.5274  0.2962
  735SOL    HW1 2204   2.842   2.599   2.213  2.4641 -4.3612 -0.6486
  735SOL    HW2 2205   2.982   2.683   2.269 -1.3824 -1.0689 -1.5115
  736SOL     OW 2206   0.859   0.348   2.579 -0.2272 -0.4898  0.5974
  736SOL    HW1 2207   0.787   0.417   2.578  0.6234 -1.4265  0.4534
  736SOL    HW2 2208   0.862   0.284   2.497 -1.1278  1.1376 -1.8946
  737SOL     OW 2209   2.628   0.444   2.832 -0.0970  0.3147 -0.3877
  737SOL    HW1 2210   2.601   0.416   2.929  0.0966 -0.2089 -1.2139
  737SOL    HW2 2211   2.732   0.459   2.826  1.3056  2.0161  3.5780
  738SOL     OW 2212   1.658   1.231   2.892 -0.3000  0.0269 -0.2357
  738SOL    HW1 2213   1.757   1.239   2.871 -1.2607 -1.9133  2.2522
  738SOL    HW2 2214   1.614   1.155   2.843  0.9185  0.0698 -0.4282
  739SOL     OW 2215   1.744   0.709   0.693 -0.6256  0.3547 -0.2895
  739SOL    HW1 2216   1.796   0.711   0.785  2.4546  0.2544 -2.4174
  739SOL    HW2 2217   1.741   0.608   0.653 -0.8087 -0.4205  0.0529
  740SOL     OW 2218   1.977   1.932   2.382 -0.2967 -0.0493 -0.3834
  740SOL    HW1 2219   1.998   1.838   2.426  0.2803 -1.7899  3.1547
  740SOL    HW2 2220   1.912   1.923   2.306 -0.8800  2.5001  0.7224
  741SOL     OW 2221   2.554   0.095   2.580  0.3127 -0.2062 -0.0010
  741SOL    HW1 2222   2.659   0.093   2.592  0.5446  0.9491  0.8507
  741SOL    HW2 2223   2.518   0.095   2.483 -0.5683  1.4378 -2.1370
  742SOL     OW 2224   2.209   1.386   0.214  0.1321  0.1416  0.1178
  742SOL    HW1 2225   2.124   1.449   0.233 -3.7671 -1.3686  2.6188
  742SOL    HW2 2226   2.188   1.287   0.246 -1.9611 -1.6299  1.8244
  743SOL     OW 2227   1.789   0.627   2.570  0.1253 -0.2175 -0.3577
  743SOL    HW1 2228   1.775   0.575   2.484  2.5645  0.3650 -1.0380
  743SOL    HW2 2229   1.709   0.692   2.597 -3.2693  4.4194  0.2935
  744SOL     OW 2230   2.635   2.057   0.108  0.5044 -0.1618  0.3374
  744SOL    HW1 2231   2.558   2.127   0.129  0.2377  3.0592  0.3716
  744SOL    HW2 2232   2.606   1.952   0.114 -1.5080  1.0126  1.8167
  745SOL     OW 2233   2.161   2.658   2.195 -0.7456  0.2131  0.8812
  745SOL    HW1 2234   2.067   2.691   2.179 -1.5672 -0.2337 -1.6442
  745SOL    HW2 2235   2.206   2.685   2.283 -1.7425 -4.6989  3.5798
  746SOL     OW 2236   3.093   2.631   1.713  0.2018 -0.1688  0.1658
  746SOL    HW1 2237   3.186   2.616   1.665  2.0684  2.2783  1.3701
  746SOL    HW2 2238   3.077   2.720   1.765 -0.4927  0.0062  2.2106
  747SOL     OW 2239   3.092   1.747   1.761  0.0346  0.0517  0.2056
  747SOL    HW1 2240   3.030   1.675   1.730  2.4948  2.4039 -0.1354
  747SOL    HW2 2241   3.157   1.781   1.686  0.4953  1.2640 -1.2878
  748SOL     OW 2242   1.825   2.716   2.883  0.0295 -0.2789 -0.5575
  748SOL    HW1 2243   1.833   2.797   2.951 -1.1499  0.1938  0.2124
  748SOL    HW2 2244   1.723   2.707   2.851 -0.2556  1.0724  0.9685
  749SOL     OW 2245   1.368   3.002   0.854  0.0236  0.5444  0.7675
  749SOL    HW1 2246   1.273   2.971   0.836  1.6118  3.9757 -2.3903
  749SOL    HW2 2247   1.435   2.959   0.784  3.5499 -3.0089 -0.3429
  750SOL     OW 2248   2.306   0.200   1.840 -0.4230  0.6630 -0.2895
  750SOL    HW1 2249   2.291   0.248   1.750  0.5854 -0.6246  1.5817
  750SOL    HW2 2250   2.292   0.255   1.930  1.2790 -1.1654  2.2380
  751SOL     OW 2251   0.848   2.060   2.807  0.1417  0.0123  0.1662
  751SOL    HW1 2252   0.919   2.059   2.882 -0.6377  2.5941  2.6211
  751SOL    HW2 2253   0.749   2.068   2.840 -1.0095  2.9506 -1.8473
  752SOL     OW 2254   1.322   0.826   1.246 -0.1517  0.9403 -0.1441
  752SOL    HW1 2255   1.395   0.895   1.269  0.4736  0.1590 -0.6403
  752SOL    HW2 2256   1.351   0.737   1.296  0.1290  1.7793 -0.6783
  753SOL     OW 2257   0.936   2.632   1.693 -0.1122  0.0536 -0.6107
  753SOL    HW1 2258   1.037   2.653   1.692  0.8396  1.7724 -1.7027
  753SOL    HW2 2259   0.884   2.700   1.745 -0.1677 -2.2728 -1.3382
  754SOL     OW 2260   1.133   1.196   2.984 -0.7739  0.0896 -0.2041
  754SOL    HW1 2261   1.208   1.154   2.920  0.4921 -1.6921  0.2241
  754SOL    HW2 2262   1.163   1.281   3.042  1.3106  2.8305  0.1127
  755SOL     OW 2263   2.012   0.470   2.225  0.1294  0.0053 -0.2811
  755SOL    HW1 2264   2.091   0.401   2.235  0.1248 -3.4837 -2.6099
  755SOL    HW2 2265   1.928   0.447   2.283  1.6505 -2.2442 -0.0198
  756SOL     OW 2266   2.574   0.978   2.975 -0.4417  0.3935  0.0088
  756SOL    HW1 2267   2.673   0.962   2.980 -1.9721  0.3414  0.6113
  756SOL    HW2 2268   2.512   0.906   3.019  1.8855  2.5727  0.9951
  757SOL     OW 2269   0.112   0.491   1.974  0.0195  0.7234 -0.3922
  757SOL    HW1 2270   0.172   0.435   1.905 -0.3099 -2.1267 -0.3671
  757SOL    HW2 2271   0.028   0.439   2.007 -0.6598 -2.1514  3.3923
  758SOL     OW 2272   2.264   0.113   1.481  0.7162 -0.0980  0.3425
  758SOL    HW1 2273   2.240   0.014   1.511  0.8442 -1.6623 -1.1900
  758SOL    HW2 2274   2.303   0.122   1.383  1.8884  0.2553  0.2746
  759SOL     OW 2275   1.699   0.116   0.062  0.2463 -0.1621 -0.0756
  759SOL    HW1 2276   1.659   0.104  -0.030  0.2872  1.9688 -0.9342
  759SOL    HW2 2277   1.805   0.110   0.063  0.5206  3.8162  1.2269
  760SOL     OW 2278   2.650   2.054   2.820  0.8141 -0.0667  0.2422
  760SOL    HW1 2279   2.685   1.971   2.873 -0.0378 -1.3294 -1.3155
  760SOL    HW2 2280   2.651   2.137   2.877  2.3040 -1.4498  1.1762
  761SOL     OW 2281   1.859   1.761   1.688 -0.6102 -0.3739 -0.3511
  761SOL    HW1 2282   1.873   1.668   1.731  1.6882  0.6532  0.6012
  761SOL    HW2 2283   1.810   1.765   1.597  0.8631  1.7298  2.4967
  762SOL     OW 2284   0.511   2.335   0.951  0.1166 -0.3469 -0.0655
  762SOL    HW1 2285   0.528   2.371   0.851 -0.5950  0.9287 -1.4718
  762SOL    HW2 2286   0.573   2.377   1.021 -0.4338 -1.2088 -1.0215
  763SOL     OW 2287   2.079   1.581   2.981 -0.1926  0.3075  0.3296
  763SOL    HW1 2288   2.176   1.561   2.997 -1.4634 -0.4616  0.5781
  763SOL    HW2 2289   2.026   1.539   3.058  1.7587  0.3058 -1.9017
  764SOL     OW 2290   0.652   0.602   0.804 -0.1032  0.4270  0.2748
  764SOL    HW1 2291   0.589   0.524   0.775  0.2562  2.7182 -1.2039
  764SOL    HW2 2292   0.732   0.572   0.868  0.7016 -0.7272  1.7341
  765SOL     OW 2293   0.735   0.222   0.777  0.1167 -0.4357 -0.7434
  765SOL    HW1 2294   0.788   0.278   0.712 -0.9043 -2.9524 -1.0567
  765SOL    HW2 2295   0.711   0.284   0.860  0.1462  1.8770  2.0113
  766SOL     OW 2296   2.850   2.100   3.072 -0.3465  0.4115  0.5238
  766SOL    HW1 2297   2.762   2.094   3.129 -0.2181 -1.3848  0.3303
  766SOL    HW2 2298   2.904   2.188   3.099 -1.5020 -1.2788 -0.1276
  767SOL     OW 2299   2.786   1.657   0.602 -0.0351 -0.0742 -0.0424
  767SOL    HW1 2300   2.692   1.683   0.636 -2.3745 -3.1000  2.7841
  767SOL    HW2 2301   2.859   1.720   0.619 -1.0142 -2.2657 -1.4905
  768SOL     OW 2302   0.951   0.060   0.234  0.7249 -0.3710  0.5987
  768SOL    HW1 2303   0.936   0.089   0.329 -1.8865 -0.2057  0.1872
  768SOL    HW2 2304   1.044   0.094   0.193  0.0662  1.7095 -1.7227
  769SOL     OW 2305   1.106   1.930   2.310 -0.5813  0.5839  0.1353
  769SOL    HW1 2306   1.017   1.979   2.337 -0.3298 -0.7911 -1.3344
  769SOL    HW2 2307   1.143   1.872   2.386  0.4931 -1.0743 -0.6903
  770SOL     OW 2308   0.181   1.200   2.278 -0.0590 -0.4146 -0.1013
  770SOL    HW1 2309   0.169   1.252   2.370  0.9407  0.4387  1.2021
  770SOL    HW2 2310   0.092   1.168   2.240 -0.1018  2.2279 -2.2277
  771SOL     OW 2311   3.011   2.852   1.869 -0.3587 -0.1429 -0.0800
  771SOL    HW1 2312   2.973   2.882   1.774 -0.4086 -0.0017 -0.9049
  771SOL    HW2 2313   2.995   2.918   1.947  0.0530 -1.1913 -0.5668
  772SOL     OW 2314   2.231   0.136   2.936 -0.6142  0.3523  0.6240
  772SOL    HW1 2315   2.308   0.099   2.874  1.0269  1.2547 -0.8927
  772SOL    HW2 2316   2.269   0.194   3.016  2.3836  0.7669 -2.3096
  773SOL     OW 2317   0.710   2.135   2.445  0.0373 -0.0112  0.6611
  773SOL    HW1 2318   0.643   2.160   2.366  1.5084 -3.9746 -1.4785
  773SOL    HW2 2319   0.681   2.178   2.533  2.3007  0.9843  1.9652
  774SOL     OW 2320   2.050   0.004   2.593 -0.6547  0.3665 -0.1725
  774SOL    HW1 2321   2.063   0.098   2.635 -1.2884  3.0361  3.1578
  774SOL    HW2 2322   2.066  -0.074   2.659 -0.9642  1.4486 -0.4035
  775SOL     OW 2323   2.540   2.922   2.332  0.0501 -0.1583  0.6054
  775SOL    HW1 2324   2.505   3.013   2.291  0.7917  1.2733  0.9527
  775SOL    HW2 2325   2.620   2.929   2.402  0.7103 -1.6590  1.9676
  776SOL     OW 2326   0.047   1.239   0.229 -0.0456  0.0537 -0.2976
  776SOL    HW1 2327  -0.015   1.167   0.183  0.1487 -0.7438  0.6936
  776SOL    HW2 2328   0.024   1.262   0.325 -0.3407 -3.0497 -1.1586
  777SOL     OW 2329   0.355   2.797   0.356 -0.8458 -0.1609 -0.1868
  777SOL    HW1 2330   0.261   2.835   0.357  2.3536  1.6652 -0.9479
  777SOL    HW2 2331   0.412   2.856   0.300 -0.1222 -0.9408  0.6348
  778SOL     OW 2332   1.352   1.962   0.160  0.2147 -0.3150  0.1491
  778SOL    HW1 2333   1.277   1.988   0.229 -1.9475  3.0227  1.3480
  778SOL    HW2 2334   1.384   2.038   0.097  0.2040 -1.6279  0.2445
  779SOL     OW 2335   0.187   0.854   0.494 -0.4456  0.0842 -0.5911
  779SOL    HW1 2336   0.132   0.770   0.469  0.8973 -1.5823  1.3724
  779SOL    HW2 2337   0.124   0.939   0.511  0.0056 -1.2715  0.1894
  780SOL     OW 2338   0.063   0.232   2.389  0.3335 -0.1741 -0.3059
  780SOL    HW1 2339   0.028   0.329   2.407 -0.6746 -2.4955  0.9683
  780SOL    HW2 2340   0.160   0.230   2.354  0.8373  0.9592  0.9299
  781SOL     OW 2341   0.654   1.665   1.520  0.0766 -0.0629  0.5425
  781SOL    HW1 2342   0.743   1.612   1.538  0.6588  0.5504 -0.5689
  781SOL    HW2 2343   0.574   1.618   1.558  0.5672  1.2264 -0.4109
  782SOL     OW 2344   2.576   0.067   0.940  0.4484  0.2397 -0.0555
  782SOL    HW1 2345   2.547   0.077   0.839 -0.0733 -1.8587 -1.3839
  782SOL    HW2 2346   2.594   0.158   0.983  0.5922 -4.7180 -0.1840
  783SOL     OW 2347   2.823   0.709   2.516  0.7900  0.3097  0.1536
  783SOL    HW1 2348   2.785   0.763   2.602  0.1849  1.5474  2.3902
  783SOL    HW2 2349   2.764   0.625   2.486 -1.3576  0.8354  1.9224
  784SOL     OW 2350   1.447   2.211   0.055 -0.5754 -0.3656  0.4206
  784SOL    HW1 2351   1.508   2.287   0.086  1.2473  0.0777  0.6820
  784SOL    HW2 2352   1.421   2.220  -0.046  0.3248 -1.2364  2.7146
  785SOL     OW 2353   2.136   0.334   0.090  0.2082  0.0658 -0.1164
  785SOL    HW1 2354   2.053   0.362   0.157  1.2996 -1.0937  1.8924
  785SOL    HW2 2355   2.151   0.410   0.019 -1.0422  1.0786 -0.0356
  786SOL     OW 2356   2.051   2.204   2.244 -0.5672 -0.0486 -0.2526
  786SOL    HW1 2357   2.027   2.107   2.262  2.5146 -1.7991 -1.7116
  786SOL    HW2 2358   2.149   2.215   2.208  4.2457 -1.4058 -0.8566
  787SOL     OW 2359   1.355   0.499   0.972  0.5105  0.1786  0.0336
  787SOL    HW1 2360   1.275   0.562   0.996  1.2789  1.8089 -0.8103
  787SOL    HW2 2361   1.387   0.507   0.873 -0.6292 -1.1285 -4.3166
  788SOL     OW 2362   1.282   0.426   0.069  0.6485  0.1075 -0.3128
  788SOL    HW1 2363   1.192   0.398   0.022  2.1825 -1.3607 -4.5232
  788SOL    HW2 2364   1.272   0.485   0.154  2.4394 -4.4979  0.4919
  789SOL     OW 2365   2.553   0.086   1.950  0.7733 -0.0070 -0.0743
  789SOL    HW1 2366   2.452   0.104   1.926 -0.3292 -2.6544 -0.4520
  789SOL    HW2 2367   2.583   0.002   1.910 -2.2186  2.3289 -0.4519
  790SOL     OW 2368   2.669   2.740   0.829  0.2600 -0.1343 -0.0200
  790SOL    HW1 2369   2.715   2.781   0.749  0.0669  1.3066 -1.3090
  790SOL    HW2 2370   2.673   2.812   0.907  1.1066 -0.0149  0.2653
  791SOL     OW 2371   1.924   1.200   0.202 -0.2915  0.0284  0.3267
  791SOL    HW1 2372   1.827   1.158   0.209 -0.0124 -0.5228  1.9944
  791SOL    HW2 2373   1.992   1.145   0.253 -2.9991  1.0420 -1.1644
  792SOL     OW 2374   0.434   1.849   2.188 -0.6243  0.8620  0.3881
  792SOL    HW1 2375   0.522   1.806   2.218  0.2943  3.9212 -1.2510
  792SOL    HW2 2376   0.362   1.838   2.261  1.5455  1.1853  0.1564
  793SOL     OW 2377   2.081   1.543   2.116 -0.0152  0.2081 -0.1480
  793SOL    HW1 2378   2.175   1.594   2.098 -0.2265  2.2917 -1.1409
  793SOL    HW2 2379   2.090   1.441   2.096  1.7269 -0.0355  2.3035
  794SOL     OW 2380   0.512   1.376   2.369 -0.0178 -0.5390  0.3182
  794SOL    HW1 2381   0.484   1.333   2.276 -1.5596  0.7049 -2.4820
  794SOL    HW2 2382   0.474   1.473   2.389  0.2222  1.1134  1.6246
  795SOL     OW 2383   2.503   2.251   1.863  0.1226  0.0769  0.6198
  795SOL    HW1 2384   2.505   2.198   1.953  0.0651 -0.0774  1.4247
  795SOL    HW2 2385   2.442   2.203   1.793  0.9917 -0.8582 -0.7906
  796SOL     OW 2386   3.054   1.133   2.700 -0.4961  0.1263 -0.3445
  796SOL    HW1 2387   2.950   1.148   2.703  1.7585 -0.1402  0.0843
  796SOL    HW2 2388   3.104   1.141   2.796  0.6745 -1.6102 -0.9690
  797SOL     OW 2389   0.763   0.639   1.390  0.2075  0.0932 -0.4806
  797SOL    HW1 2390   0.848   0.668   1.443 -0.5033  0.5106 -2.1408
  797SOL    HW2 2391   0.708   0.723   1.356  1.2748  0.7905  0.4806
  798SOL     OW 2392   1.303   0.294   1.165  0.2773 -0.0810 -0.3827
  798SOL    HW1 2393   1.354   0.317   1.257  1.0241  0.1803  3.6170
  798SOL    HW2 2394   1.331   0.360   1.085  1.2402 -0.1531  1.4612
  799SOL     OW 2395   1.940   2.739   1.032 -1.0900  0.1292 -0.0349
  799SOL    HW1 2396   1.949   2.689   1.125  0.5986 -3.6242  1.6250
  799SOL    HW2 2397   1.876   2.694   0.964  2.1208  0.2427 -1.0056
  800SOL     OW 2398   3.006   0.672   1.847 -0.7796  0.4757  0.0635
  800SOL    HW1 2399   2.957   0.748   1.896  1.2900  1.6713  1.2151
  800SOL    HW2 2400   3.072   0.610   1.903  1.0508  0.2238  0.7317
  801SOL     OW 2401   1.963   2.240   0.100 -0.3388  0.0275  0.4417
  801SOL    HW1 2402   1.879   2.218   0.044  0.8021 -3.0663  0.2485
  801SOL    HW2 2403   2.054   2.218   0.052 -2.7696 -1.1659  0.6145
  802SOL     OW 2404   0.699   0.831   2.566 -0.3661 -0.2430  0.4761
  802SOL    HW1 2405   0.755   0.792   2.491 -0.3188 -1.2969  2.1479
  802SOL    HW2 2406   0.600   0.854   2.532 -2.2700 -1.6768  0.4766
  803SOL     OW 2407   0.941   0.038   0.841 -0.2709 -0.0771 -0.6941
  803SOL    HW1 2408   1.031   0.093   0.858 -0.3264  4.2553 -0.9906
  803SOL    HW2 2409   0.868   0.098   0.796 -0.0703  1.1828  0.3996
  804SOL     OW 2410   0.302   0.046   2.131  0.4815  0.0067 -0.3008
  804SOL    HW1 2411   0.322   0.138   2.173  0.8685 -0.9318  1.6055
  804SOL    HW2 2412   0.249   0.043   2.043  1.5547 -0.3829 -0.7283
  805SOL     OW 2413   2.385   0.314   0.361 -0.1794  0.7427 -0.0431
  805SOL    HW1 2414   2.474   0.330   0.411  1.6419  0.3630 -0.4413
  805SOL    HW2 2415   2.392   0.292   0.259 -1.1009  0.5614 -1.0296
  806SOL     OW 2416   0.612   2.453   1.761 -0.0669  0.3310  0.8218
  806SOL    HW1 2417   0.596   2.558   1.767  1.6797  0.6052  1.4689
  806SOL    HW2 2418   0.689   2.433   1.695 -2.0687 -0.4796 -0.3499
  807SOL     OW 2419   2.481   0.854   0.382  0.2341 -0.6926 -0.2920
  807SOL    HW1 2420   2.562   0.857   0.444 -1.9366  1.3474  0.2238
  807SOL    HW2 2421   2.477   0.926   0.305  1.7235  0.9212 -0.9787
  808SOL     OW 2422   0.554   2.065   2.914  0.5054  0.2580 -0.1013
  808SOL    HW1 2423   0.538   2.139   2.988  0.0636  0.4429 -0.9265
  808SOL    HW2 2424   0.564   1.967   2.953 -1.7259  1.1044  0.2292
  809SOL     OW 2425   2.690   1.972   1.914 -0.1215  0.6112 -0.2342
  809SOL    HW1 2426   2.784   2.006   1.945  0.0877 -0.8873  0.9471
  809SOL    HW2 2427   2.656   2.025   1.833 -0.7887 -0.3916 -0.7033
  810SOL     OW 2428   2.081   1.039   0.532  0.0195 -0.4472 -0.3582
  810SOL    HW1 2429   2.125   0.972   0.595 -2.0116 -1.1389 -1.2189
  810SOL    HW2 2430   2.033   1.112   0.591  0.9414  0.8683  1.4041
  811SOL     OW 2431   1.344   2.510   1.222 -0.1199  0.0097 -0.3218
  811SOL    HW1 2432   1.312   2.413   1.213  1.1572 -0.7297 -4.1357
  811SOL    HW2 2433   1.262   2.573   1.240 -0.0782 -1.3468 -1.4608
  812SOL     OW 2434   1.427   0.791   1.969  0.0900 -1.1599  0.1339
  812SOL    HW1 2435   1.490   0.857   2.026  0.6783  1.3487 -0.4847
  812SOL    HW2 2436   1.330   0.839   1.960 -0.8394  0.3018 -0.0234
  813SOL     OW 2437   1.722   2.040   2.503 -0.0165 -0.4396 -0.0173
  813SOL    HW1 2438   1.780   1.959   2.516 -2.9218 -0.2610 -2.3550
  813SOL    HW2 2439   1.697   2.054   2.406  0.7247  0.6201 -0.7987
  814SOL     OW 2440   2.920   1.530   2.853 -0.1735 -0.6647  0.4390
  814SOL    HW1 2441   3.009   1.505   2.905  0.4712 -1.1308 -0.4823
  814SOL    HW2 2442   2.934   1.618   2.796  1.9753 -0.2063 -0.4745
  815SOL     OW 2443   2.143   2.920   2.781 -0.3029 -0.4433 -0.2030
  815SOL    HW1 2444   2.095   2.894   2.870  2.2194  0.1505  3.8492
  815SOL    HW2 2445   2.218   2.992   2.788 -2.5715 -0.2224 -0.6023
  816SOL     OW 2446   1.654   0.321   1.621  0.0756  0.0547 -0.4187
  816SOL    HW1 2447   1.704   0.234   1.636  1.4971  2.0558  0.7824
  816SOL    HW2 2448   1.562   0.323   1.672  0.5534  2.1496  1.0425
  817SOL     OW 2449   0.402   1.216   2.558 -0.2146 -0.7932 -0.0795
  817SOL    HW1 2450   0.300   1.241   2.577 -0.3248  2.8127  0.7489
  817SOL    HW2 2451   0.451   1.282   2.491 -0.6861  0.2334  1.4318
  818SOL     OW 2452   1.911   0.850   0.449 -0.1240  0.4616 -0.0955
  818SOL    HW1 2453   1.978   0.924   0.477  0.9702  0.9461  2.2405
  818SOL    HW2 2454   1.834   0.831   0.517 -0.1952  2.1537 -1.2999
  819SOL     OW 2455   2.730   2.980   3.001 -0.4260 -0.1684 -0.0307
  819SOL    HW1 2456   2.801   2.908   2.973  2.0922 -0.1292 -0.5588
  819SOL    HW2 2457   2.642   2.961   2.945 -1.8410  1.6750 -4.6081
  820SOL     OW 2458   1.266   1.093   0.691  0.4779 -0.3572 -0.4476
  820SOL    HW1 2459   1.229   1.185   0.716 -1.9892  0.8820 -0.4690
  820SOL    HW2 2460   1.232   1.022   0.764 -0.6418 -1.4945  0.3477
  821SOL     OW 2461   3.077   1.318   0.677  0.3515 -0.3078  0.1205
  821SOL    HW1 2462   3.063   1.308   0.780 -5.1458  0.1656  1.7052
  821SOL    HW2 2463   3.162   1.378   0.649  1.1119  3.6569  0.1375
  822SOL     OW 2464   2.577   1.728   2.448  0.0445 -0.1335 -0.4093
  822SOL    HW1 2465   2.587   1.813   2.508 -0.6407 -2.0039  2.2789
  822SOL    HW2 2466   2.488   1.727   2.400  0.5312 -1.1875 -1.5635
  823SOL     OW 2467   2.109   0.895   1.221  0.1257 -0.1503 -0.1074
  823SOL    HW1 2468   2.030   0.896   1.295  0.8823  3.5797  2.6774
  823SOL    HW2 2469   2.079   0.948   1.138 -0.5528  2.2660  0.6944
  824SOL     OW 2470   0.221   2.069   2.784  0.4531 -0.5007 -0.1308
  824SOL    HW1 2471   0.180   1.991   2.838 -0.3883 -1.7234  0.0271
  824SOL    HW2 2472   0.314   2.051   2.747  2.4127  1.3162 -0.0981
  825SOL     OW 2473   1.296   1.093   0.259  0.1083  0.6525  0.2233
  825SOL    HW1 2474   1.355   1.178   0.276 -1.1514 -0.3470  0.6103
  825SOL    HW2 2475   1.194   1.111   0.288 -0.1108 -0.0508  1.9028
  826SOL     OW 2476   1.890   0.705   1.626  0.0742 -0.0180  0.2223
  826SOL    HW1 2477   1.977   0.648   1.633  1.3020  2.5869 -0.3932
  826SOL    HW2 2478   1.810   0.652   1.587  1.0521  1.5897  1.7292
  827SOL     OW 2479   0.678   1.231   0.246  0.4384 -1.2106 -0.3939
  827SOL    HW1 2480   0.775   1.214   0.211  0.7678 -3.5930 -2.8237
  827SOL    HW2 2481   0.615   1.152   0.243 -0.6895 -2.5624 -2.4460
  828SOL     OW 2482   2.533   0.088   1.595  0.6270  0.0647 -0.1927
  828SOL    HW1 2483   2.443   0.117   1.552 -0.4803 -0.3747 -0.6673
  828SOL    HW2 2484   2.528   0.017   1.671  1.5172  2.6019  0.9166
  829SOL     OW 2485   2.768   2.477   3.017 -0.4459  0.4574  0.6162
  829SOL    HW1 2486   2.695   2.401   3.008  0.0433  1.1705 -0.1461
  829SOL    HW2 2487   2.733   2.567   3.057  0.6989  1.1964  2.0168
  830SOL     OW 2488   2.860   0.965   2.983 -0.3881 -0.2948 -0.4314
  830SOL    HW1 2489   2.894   1.057   3.016  1.5706  0.5729 -0.4804
  830SOL    HW2 2490   2.885   0.891   3.049 -0.1348 -2.0023  1.9792
  831SOL     OW 2491   0.052   0.624   0.411 -1.0099  0.1279 -0.0713
  831SOL    HW1 2492   0.043   0.543   0.473 -0.7935  0.5597  0.2879
  831SOL    HW2 2493   0.099   0.601   0.321  2.1213  2.5510 -0.6797
  832SOL     OW 2494   1.783   0.744   2.997  0.2256 -0.0620 -0.1364
  832SOL    HW1 2495   1.686   0.777   2.968 -1.0436  0.3520 -1.2057
  832SOL    HW2 2496   1.781   0.639   3.014  0.7330 -0.3095 -1.5758
  833SOL     OW 2497   2.457   2.167   0.542  0.8594 -0.1154  0.2852
  833SOL    HW1 2498   2.356   2.191   0.531 -1.2634  0.0262 -0.0182
  833SOL    HW2 2499   2.472   2.067   0.548 -0.2613 -0.5156 -1.1336
  834SOL     OW 2500   0.202   0.217   0.550  0.3328 -0.3981 -0.1275
  834SOL    HW1 2501   0.218   0.138   0.619 -1.8910 -0.5902 -4.3998
  834SOL    HW2 2502   0.180   0.185   0.458 -2.8810  2.4751  1.3460
  835SOL     OW 2503   2.372   1.543   1.113 -1.0300  0.0070 -0.1385
  835SOL    HW1 2504   2.373   1.627   1.176  0.6286 -2.1712 -0.2710
  835SOL    HW2 2505   2.453   1.552   1.046  1.2583  2.5490  0.6227
  836SOL     OW 2506   1.594   0.826   2.557 -0.0216  0.1392  0.3013
  836SOL    HW1 2507   1.493   0.838   2.569  1.9030  0.9353  1.2139
  836SOL    HW2 2508   1.618   0.824   2.460 -1.0181  1.4142  1.8240
  837SOL     OW 2509   1.707   0.116   0.552  0.1735 -0.0013  0.1061
  837SOL    HW1 2510   1.653   0.168   0.620 -0.1948  0.6542  0.5199
  837SOL    HW2 2511   1.674   0.134   0.454  0.0858 -0.1770 -1.0252
  838SOL     OW 2512   1.198   1.552   2.805  0.3377 -0.0800 -0.2541
  838SOL    HW1 2513   1.171   1.533   2.904  0.0851 -0.0794  0.3201
  838SOL    HW2 2514   1.140   1.499   2.737 -1.5049 -0.3431  1.7854
  839SOL     OW 2515   1.673   0.313   1.012  0.1876  0.0315  0.3510
  839SOL    HW1 2516   1.689   0.356   1.105  2.9557  0.2946  1.8400
  839SOL    HW2 2517   1.625   0.221   1.019  0.8920 -0.5402 -0.9720
  840SOL     OW 2518   2.507   2.967   1.746 -0.4065  0.5789 -0.2215
  840SOL    HW1 2519   2.413   2.943   1.716  2.6153  0.0032 -2.2154
  840SOL    HW2 2520   2.562   2.892   1.791  0.9380 -0.0193  0.0561
  841SOL     OW 2521   1.529   0.833   2.957  0.6078  0.1869 -0.0689
  841SOL    HW1 2522   1.452   0.849   3.022  1.1394 -1.2912 -3.3110
  841SOL    HW2 2523   1.558   0.919   2.917  1.0528 -2.1922  0.7587
  842SOL     OW 2524   0.817   1.556   0.946 -0.1399 -0.4060 -0.0230
  842SOL    HW1 2525   0.802   1.657   0.976 -0.1613 -0.4940 -1.9267
  842SOL    HW2 2526   0.731   1.508   0.915 -0.6386  0.4751  2.6757
  843SOL     OW 2527   0.067   0.043   1.397 -0.2048 -0.1240 -0.8334
  843SOL    HW1 2528   0.146   0.108   1.426 -0.1453 -1.9392  0.7915
  843SOL    HW2 2529   0.087  -0.057   1.427  1.0457 -2.9445  0.7421
  844SOL     OW 2530   0.824   2.508   0.267  0.3395  0.3860  0.0722
  844SOL    HW1 2531   0.769   2.495   0.354 -0.9746  1.4882  0.2390
  844SOL    HW2 2532   0.788   2.576   0.200 -2.5231  1.4178  3.2169
  845SOL     OW 2533   1.619   2.894   1.375  0.3755 -0.2133 -0.2011
  845SOL    HW1 2534   1.667   2.933   1.458 -1.3551  1.3536  0.6690
  845SOL    HW2 2535   1.573   2.803   1.398 -1.5461 -1.5275  2.3982
  846SOL     OW 2536   1.562   2.903   0.688  0.3229  0.0175 -0.4710
  846SOL    HW1 2537   1.601   2.862   0.602  1.5221 -1.3311  2.0224
  846SOL    HW2 2538   1.631   2.891   0.768 -1.2176 -1.3800 -1.5747
  847SOL     OW 2539   2.068   1.631   0.323  0.1920  0.2690 -0.2166
  847SOL    HW1 2540   2.039   1.553   0.381  0.3435  2.6720 -0.9274
  847SOL    HW2 2541   1.984   1.688   0.280 -1.9082 -1.4761 -2.4080
  848SOL     OW 2542   2.437   0.876   2.580 -0.2989  0.0201  0.3486
  848SOL    HW1 2543   2.389   0.969   2.590 -0.1523  2.5757 -1.0409
  848SOL    HW2 2544   2.379   0.788   2.577  0.1059 -1.6237 -0.1493
  849SOL     OW 2545   2.596   0.830   2.362 -0.3172 -0.2984 -0.1975
  849SOL    HW1 2546   2.685   0.778   2.385  0.4088 -1.4118  0.3064
  849SOL    HW2 2547   2.542   0.852   2.448  1.2739 -2.3717  0.0925
  850SOL     OW 2548   1.552   0.106   1.326  0.4038 -0.5987  0.3947
  850SOL    HW1 2549   1.553   0.119   1.221  0.3203  2.0158 -1.6402
  850SOL    HW2 2550   1.506   0.023   1.373 -1.2058 -0.4782  2.1874
  851SOL     OW 2551   0.477   1.820   0.589 -0.0670 -0.1742  0.0283
  851SOL    HW1 2552   0.528   1.906   0.618 -0.8246 -0.7672  1.5482
  851SOL    HW2 2553   0.511   1.792   0.496  0.4319  2.9903 -0.6506
  852SOL     OW 2554   0.802   2.112   1.643 -0.3386  0.0109  0.5129
  852SOL    HW1 2555   0.815   2.214   1.621 -0.2543 -2.6846 -1.9425
  852SOL    HW2 2556   0.728   2.100   1.712  3.1040 -1.5415  0.0876
  853SOL     OW 2557   2.529   1.482   2.606  0.6240 -0.0831  0.3466
  853SOL    HW1 2558   2.484   1.402   2.561  0.6481 -1.0414 -2.8800
  853SOL    HW2 2559   2.567   1.559   2.548  1.5625 -0.3287 -0.0588
  854SOL     OW 2560   2.376   1.419   1.732  0.0438  0.1989  0.1471
  854SOL    HW1 2561   2.402   1.375   1.643 -1.2698  0.4415 -1.8221
  854SOL    HW2 2562   2.312   1.360   1.791  1.9333  0.6523  2.1626
  855SOL     OW 2563   2.020   2.431   0.981 -0.0576  0.3587  0.0076
  855SOL    HW1 2564   2.061   2.504   0.924  0.3602  0.1659  3.2012
  855SOL    HW2 2565   2.096   2.407   1.047  0.1638  1.5075  0.2762
  856SOL     OW 2566   1.323   1.488   0.944  0.4142 -0.0212 -0.4562
  856SOL    HW1 2567   1.376   1.571   0.961  0.1487 -1.0724 -0.7071
  856SOL    HW2 2568   1.226   1.489   0.986 -0.1857  0.6067 -1.1130
  857SOL     OW 2569   3.088   2.691   0.954 -0.0878 -0.2305  0.7785
  857SOL    HW1 2570   3.043   2.620   0.901  1.1101  0.6902  2.5060
  857SOL    HW2 2571   3.179   2.719   0.908  0.7713  0.9033 -3.1661
  858SOL     OW 2572   2.346   2.089   1.691 -0.0070 -0.3549  0.2682
  858SOL    HW1 2573   2.259   2.094   1.638 -1.3389 -2.2699 -1.3688
  858SOL    HW2 2574   2.401   2.000   1.672 -0.2903 -0.3725 -0.4636
  859SOL     OW 2575   2.475   0.533   1.014  0.0786  0.3420 -0.2213
  859SOL    HW1 2576   2.533   0.602   0.964 -1.4837 -0.2169  0.6659
  859SOL    HW2 2577   2.526   0.449   1.046  0.5365  2.3983 -1.6782
  860SOL     OW 2578   1.951   2.796   0.431 -0.9552  0.0866  0.4993
  860SOL    HW1 2579   1.919   2.774   0.331  0.2274 -1.8255 -0.6208
  860SOL    HW2 2580   2.036   2.845   0.442  1.2625 -0.0643 -0.2478
  861SOL     OW 2581   1.016   2.429   2.886  0.5140  0.2272  0.0615
  861SOL    HW1 2582   1.089   2.491   2.843  0.3023 -0.9993 -0.6192
  861SOL    HW2 2583   1.054   2.383   2.973  0.8337 -1.0881 -0.7186
  862SOL     OW 2584   2.828   2.563   1.610 -0.5223  0.2493 -0.2333
  862SOL    HW1 2585   2.914   2.604   1.654 -0.6551  1.2001  0.4593
  862SOL    HW2 2586   2.782   2.633   1.546 -2.6131 -2.0192 -0.7074
  863SOL     OW 2587   1.856   2.742   0.180 -0.2363  0.3053  0.1964
  863SOL    HW1 2588   1.895   2.644   0.196  0.3305 -0.2726 -0.5821
  863SOL    HW2 2589   1.754   2.739   0.159  0.4383  1.3187  0.2288
  864SOL     OW 2590   1.918   1.194   2.848 -0.3268 -0.0647  0.5416
  864SOL    HW1 2591   1.927   1.135   2.760 -0.4484  0.1181 -1.2234
  864SOL    HW2 2592   1.991   1.172   2.915  0.1547 -1.2078  1.1095
  865SOL     OW 2593   2.200   1.858   0.635  0.3472 -0.5137 -0.1947
  865SOL    HW1 2594   2.260   1.849   0.718 -0.3229  0.0762  0.7725
  865SOL    HW2 2595   2.107   1.813   0.645  1.5872 -1.0118  0.1567
  866SOL     OW 2596   2.875   2.908   1.014  0.3207  0.2136  0.5891
  866SOL    HW1 2597   2.890   2.974   0.940 -0.7597  0.2861  0.4154
  866SOL    HW2 2598   2.938   2.827   1.010 -1.8035 -1.4880 -0.2715
  867SOL     OW 2599   0.348   1.414   0.870 -0.5813 -1.4702 -0.3284
  867SOL    HW1 2600   0.353   1.321   0.823  1.4655  2.8096  0.2160
  867SOL    HW2 2601   0.347   1.490   0.801  1.3699  2.3479  0.5602
  868SOL     OW 2602   0.786   1.903   2.017 -0.2811 -0.1510 -0.6785
  868SOL    HW1 2603   0.766   1.897   2.118  2.3834 -0.9308  2.7747
  868SOL    HW2 2604   0.739   1.986   1.976  1.7956 -0.2016 -0.1290
  869SOL     OW 2605   2.553   1.914   1.659  0.5756 -0.3052 -0.2172
  869SOL    HW1 2606   2.631   1.980   1.641 -0.6564 -0.3720 -1.7770
  869SOL    HW2 2607   2.580   1.818   1.661  1.2441  3.6991 -0.4571
  870SOL     OW 2608   2.237   2.670   1.240 -0.6426 -0.4259 -0.1007
  870SOL    HW1 2609   2.219   2.573   1.209  1.9671  3.2215  0.0735
  870SOL    HW2 2610   2.235   2.680   1.337  0.3596  0.0636 -2.9082
  871SOL     OW 2611   3.054   2.212   0.533 -0.3498 -0.1441 -0.6280
  871SOL    HW1 2612   2.981   2.213   0.604  2.9863 -0.0292  0.4799
  871SOL    HW2 2613   3.020   2.221   0.437  0.0137 -2.5775 -0.3493
  872SOL     OW 2614   2.120   0.537   1.705 -0.0746 -0.0462 -0.1659
  872SOL    HW1 2615   2.083   0.512   1.798  1.0930  0.1628 -0.1585
  872SOL    HW2 2616   2.211   0.484   1.687  2.0349 -0.7765  1.0441
  873SOL     OW 2617   1.689   2.128   3.060  0.0821  0.2088  0.2614
  873SOL    HW1 2618   1.591   2.154   3.092 -0.7762  0.5399  0.8682
  873SOL    HW2 2619   1.691   2.111   2.955 -0.9624  0.7500 -1.8847
  874SOL     OW 2620   0.675   2.462   0.757  0.0216  0.4053  0.2194
  874SOL    HW1 2621   0.676   2.554   0.798  1.3277 -0.2392  0.9542
  874SOL    HW2 2622   0.768   2.411   0.749  0.0431 -1.0751 -1.4947
  875SOL     OW 2623   2.344   1.479   1.402  0.1567 -0.1655 -0.1674
  875SOL    HW1 2624   2.412   1.552   1.418  2.5552  1.3324  0.3365
  875SOL    HW2 2625   2.330   1.457   1.303 -2.0555  2.1537  1.5228
  876SOL     OW 2626   0.044   2.266   2.733  0.4080 -0.2900  0.7364
  876SOL    HW1 2627   0.113   2.190   2.748 -2.4694  2.0252 -0.8857
  876SOL    HW2 2628   0.085   2.354   2.765  0.5906 -0.1758 -0.9645
  877SOL     OW 2629   2.909   2.688   0.553 -0.5740 -0.2516  0.1419
  877SOL    HW1 2630   2.878   2.779   0.590 -0.3721  0.7000  0.5943
  877SOL    HW2 2631   2.968   2.630   0.618  1.4536 -1.8037  1.2618
  878SOL     OW 2632   2.798   1.490   2.249 -0.1535 -0.2635  0.5470
  878SOL    HW1 2633   2.756   1.574   2.198 -1.6752 -0.6427  1.1646
  878SOL    HW2 2634   2.807   1.501   2.353  0.2799  0.3236  0.5233
  879SOL     OW 2635   2.417   0.127   1.247 -0.5449  0.0734  0.2161
  879SOL    HW1 2636   2.450   0.031   1.273  2.4834 -0.5858  1.2231
  879SOL    HW2 2637   2.367   0.128   1.155 -1.8860 -2.4692  0.4633
  880SOL     OW 2638   0.770   0.474   2.224 -0.2648  0.0731  0.1373
  880SOL    HW1 2639   0.705   0.447   2.302 -2.3576  2.3413  1.4808
  880SOL    HW2 2640   0.805   0.390   2.170 -0.8090 -1.5690  0.2464
  881SOL     OW 2641   0.895   0.038   0.504  0.4440 -0.1457  0.8192
  881SOL    HW1 2642   0.944  -0.047   0.536 -2.7564  0.4743 -2.1230
  881SOL    HW2 2643   0.792   0.040   0.509 -0.2247 -0.4832  0.1978
  882SOL     OW 2644   2.707   1.674   1.679  0.2981 -0.0792  0.1559
  882SOL    HW1 2645   2.799   1.643   1.637 -1.7252  0.9049 -0.2653
  882SOL    HW2 2646   2.707   1.671   1.783 -3.0203  0.4365  2.0289
  883SOL     OW 2647   0.896   0.505   0.920  0.1634  0.0069  0.2965
  883SOL    HW1 2648   0.938   0.594   0.944 -0.1000  0.1544  0.2883
  883SOL    HW2 2649   0.916   0.433   0.992  0.7275  0.2815 -0.3405
  884SOL     OW 2650   1.151   1.730   1.187  0.3744  0.4643  0.4186
  884SOL    HW1 2651   1.132   1.650   1.119 -0.7117 -3.9942 -1.3331
  884SOL    HW2 2652   1.148   1.828   1.150  2.0400 -0.4038  0.0870
  885SOL     OW 2653   2.328   1.777   2.304 -0.1673 -0.3608 -0.3928
  885SOL    HW1 2654   2.253   1.738   2.366  0.1357  5.3333 -0.7174
  885SOL    HW2 2655   2.305   1.865   2.258  0.3452  0.2203  2.2151
  886SOL     OW 2656   2.594   0.337   1.792  0.3966  0.4113  0.0672
  886SOL    HW1 2657   2.579   0.284   1.877 -0.3150  0.1580  0.5941
  886SOL    HW2 2658   2.679   0.400   1.784  0.5548 -1.7314 -1.3284
  887SOL     OW 2659   0.107   1.944   1.344  0.1571  0.2217  0.3210
  887SOL    HW1 2660   0.008   1.931   1.318  0.6238 -1.2380 -1.2526
  887SOL    HW2 2661   0.139   2.037   1.315 -1.1768  1.1388 -1.8037
  888SOL     OW 2662   0.550   1.213   1.541  0.0029 -0.1252  0.7596
  888SOL    HW1 2663   0.569   1.273   1.461  0.3526 -1.5055  0.1979
  888SOL    HW2 2664   0.522   1.120   1.508  3.0753  1.7953  2.6087
  889SOL     OW 2665   0.812   2.494   2.180  0.2567 -0.1930  0.5092
  889SOL    HW1 2666   0.755   2.411   2.186  1.0304 -1.3491  2.1735
  889SOL    HW2 2667   0.875   2.493   2.102 -3.6497 -1.3167 -0.6512
  890SOL     OW 2668   2.414   2.454   0.249  0.2489 -0.7996 -0.3356
  890SOL    HW1 2669   2.389   2.475   0.151 -1.5507  0.7852  0.7082
  890SOL    HW2 2670   2.362   2.505   0.324  0.5916 -1.8519  0.8320
  891SOL     OW 2671   2.520   1.718   0.678  0.0489 -0.0335  0.1601
  891SOL    HW1 2672   2.534   1.701   0.784  1.2543  3.6532  3.3368
  891SOL    HW2 2673   2.437   1.669   0.633 -2.3392  0.1877 -1.3655
  892SOL     OW 2674   0.369   0.277   2.282 -0.0206  0.5150 -0.9244
  892SOL    HW1 2675   0.356   0.362   2.225 -2.0984 -0.3352  1.1465
  892SOL    HW2 2676   0.448   0.286   2.346  0.4734  1.8530 -1.0990
  893SOL     OW 2677   1.665   0.246   2.705  0.2705  0.3943  0.2703
  893SOL    HW1 2678   1.735   0.323   2.708  2.0620  0.8961 -0.7538
  893SOL    HW2 2679   1.575   0.293   2.682  0.8190  0.0825  0.1248
  894SOL     OW 2680   2.175   2.040   0.034 -0.1504 -0.2044  0.0770
  894SOL    HW1 2681   2.143   1.996  -0.054  1.0574  1.9042  1.1658
  894SOL    HW2 2682   2.191   1.972   0.108  1.3247  1.0728 -1.4663
  895SOL     OW 2683   2.811   1.451   0.921 -0.4321  0.3538  0.6342
  895SOL    HW1 2684   2.900   1.402   0.950  1.0034 -0.9059  1.7011
  895SOL    HW2 2685   2.795   1.539   0.967  1.7558 -0.7999 -0.9070
  896SOL     OW 2686   1.700   1.808   1.194  0.0867 -0.0692  0.3482
  896SOL    HW1 2687   1.741   1.761   1.107  2.5701 -0.6698  0.3254
  896SOL    HW2 2688   1.658   1.900   1.171 -0.9556  0.2685 -0.6830
  897SOL     OW 2689   0.314   0.546   3.060  0.2550  0.6005 -0.1189
  897SOL    HW1 2690   0.262   0.577   2.977  2.6126  1.1921  1.5982
  897SOL    HW2 2691   0.401   0.604   3.078  1.1098  0.2128 -0.4834
  898SOL     OW 2692   0.573   2.871   1.071  0.0317  0.2110  0.0137
  898SOL    HW1 2693   0.571   2.972   1.078 -0.5594  0.6199 -0.4734
  898SOL    HW2 2694   0.653   2.827   1.114 -0.6501 -1.0097 -0.0678
  899SOL     OW 2695   2.825   0.891   1.323  0.1887  0.0189 -0.4928
  899SOL    HW1 2696   2.800   0.878   1.223 -2.1717  1.3224 -2.7566
  899SOL    HW2 2697   2.925   0.921   1.329  2.4195 -0.6921 -1.9426
  900SOL     OW 2698   0.972   2.524   2.445 -0.1621  0.0882 -0.2269
  900SOL    HW1 2699   0.926   2.501   2.353 -1.0235 -0.2370 -5.7420
  900SOL    HW2 2700   0.907   2.503   2.519 -0.1543  0.4210 -2.9339
  901SOL     OW 2701   1.904   2.355   1.360 -0.1451 -0.5828  0.0700
  901SOL    HW1 2702   1.895   2.305   1.268 -1.1132 -0.0291  1.1546
  901SOL    HW2 2703   2.005   2.358   1.392  1.0666 -0.4344  0.4379
  902SOL     OW 2704   2.551   1.633   1.429  0.5870 -0.3515 -0.5949
  902SOL    HW1 2705   2.587   1.651   1.525 -0.2322  2.4901  0.1842
  902SOL    HW2 2706   2.630   1.603   1.368  0.7933  1.2827  0.9681
  903SOL     OW 2707   0.233   2.472   1.955  0.0808  0.3384  0.3428
  903SOL    HW1 2708   0.150   2.430   1.906 -1.2854 -1.1358 -1.4756
  903SOL    HW2 2709   0.266   2.553   1.898  0.1808  0.5592 -2.5219
  904SOL     OW 2710   2.015   0.791   2.588  0.3251 -0.1024 -0.4599
  904SOL    HW1 2711   1.933   0.733   2.594  1.8733  0.9148  2.0218
  904SOL    HW2 2712   2.045   0.801   2.489  2.7024 -0.4812 -0.8144
  905SOL     OW 2713   2.853   0.139   2.559 -0.3880  0.0697  0.1637
  905SOL    HW1 2714   2.913   0.056   2.574  3.4693 -1.2312  0.6796
  905SOL    HW2 2715   2.901   0.226   2.530 -0.3220  0.9727 -1.1955
  906SOL     OW 2716   0.218   1.705   1.931  0.4447 -0.6067  0.4510
  906SOL    HW1 2717   0.130   1.721   1.874  1.7514  1.5920 -2.0298
  906SOL    HW2 2718   0.303   1.764   1.906 -0.9156  2.5467 -0.3922
  907SOL     OW 2719   0.254   2.442   1.021  0.2583  0.0275  0.2849
  907SOL    HW1 2720   0.352   2.414   0.999  0.7230 -0.1920  1.6190
  907SOL    HW2 2721   0.218   2.516   0.961 -0.7846 -1.8914 -0.3667
  908SOL     OW 2722   2.820   3.002   0.379 -0.0873 -0.5246 -0.1683
  908SOL    HW1 2723   2.728   3.034   0.340  0.8966 -0.7332 -2.3234
  908SOL    HW2 2724   2.859   2.923   0.318  3.4916 -2.9026  0.1698
  909SOL     OW 2725   0.827   1.043   2.644 -0.0199 -0.2828 -0.0598
  909SOL    HW1 2726   0.779   0.954   2.617  2.0008  0.7402 -1.7536
  909SOL    HW2 2727   0.881   1.082   2.562  1.1918 -1.4815  1.7218
  910SOL     OW 2728   1.801   1.901   2.171 -0.0296  0.3735 -0.1925
  910SOL    HW1 2729   1.842   1.919   2.081 -1.7247  1.4409  0.4082
  910SOL    HW2 2730   1.719   1.956   2.196 -1.2137 -0.3076  3.0186
  911SOL     OW 2731   1.810   2.931   1.607 -0.0309  0.2924 -0.3409
  911SOL    HW1 2732   1.867   2.916   1.522  0.1226  0.3956  0.8206
  911SOL    HW2 2733   1.814   2.843   1.670 -2.1430 -2.5794  0.7204
  912SOL     OW 2734   2.859   1.017   0.739 -0.2117  0.3428  0.3624
  912SOL    HW1 2735   2.897   0.954   0.811  2.3376 -2.1863 -3.5214
  912SOL    HW2 2736   2.838   1.112   0.780  1.1746  0.7141  0.2936
  913SOL     OW 2737   2.534   1.286   1.548  0.2293 -0.0728 -0.0590
  913SOL    HW1 2738   2.562   1.185   1.523  0.0131 -0.3227 -1.7174
  913SOL    HW2 2739   2.588   1.363   1.502  0.9155  1.3608 -1.6076
  914SOL     OW 2740   2.783   0.592   1.181  0.0601 -0.3554  0.2704
  914SOL    HW1 2741   2.799   0.516   1.247 -2.4477  1.9071  0.1947
  914SOL    HW2 2742   2.688   0.604   1.157  3.0012 -0.0064  2.3124
  915SOL     OW 2743   1.179   0.725   1.042 -0.0950  0.0989  0.3144
  915SOL    HW1 2744   1.245   0.760   1.114  0.4270  0.8310  0.1625
  915SOL    HW2 2745   1.072   0.728   1.063 -5.2117  0.4960  0.9976
  916SOL     OW 2746   0.599   0.022   0.646 -0.2055 -0.0231  0.6697
  916SOL    HW1 2747   0.623   0.099   0.713 -0.1134  1.5245 -2.1531
  916SOL    HW2 2748   0.611   0.059   0.545  0.7602  2.3051 -1.2749
  917SOL     OW 2749   2.829   2.610   2.025  0.0077  0.3653 -0.5594
  917SOL    HW1 2750   2.737   2.639   1.986 -1.1886  0.5202 -0.1849
  917SOL    HW2 2751   2.904   2.674   1.996 -2.0530  1.9131  1.1842
  918SOL     OW 2752   1.020   2.096   3.026  0.0744  0.0516 -0.0108
  918SOL    HW1 2753   0.971   2.165   3.082  0.6375  0.3090 -2.3422
  918SOL    HW2 2754   1.082   2.134   2.954 -1.0887  2.4550  1.2422
  919SOL     OW 2755   0.827   1.616   2.860  0.2845 -0.1787 -0.5392
  919SOL    HW1 2756   0.877   1.694   2.814  1.7267  1.0465 -0.1714
  919SOL    HW2 2757   0.803   1.539   2.794 -0.2675 -1.7971 -1.5089
  920SOL     OW 2758   1.246   1.829   2.516 -0.2362  0.4272 -0.6344
  920SOL    HW1 2759   1.317   1.800   2.443  0.7034  2.4444  1.1249
  920SOL    HW2 2760   1.209   1.760   2.585  0.7426  0.2521 -1.5888
  921SOL     OW 2761   1.070   0.023   2.628 -0.9183  0.1856  0.0157
  921SOL    HW1 2762   1.026  -0.021   2.549  0.1135  0.3030 -0.3562
  921SOL    HW2 2763   1.009   0.093   2.680  0.6617  1.3139 -2.5031
  922SOL     OW 2764   2.224   2.363   2.796 -0.3304 -0.2067  0.0587
  922SOL    HW1 2765   2.223   2.255   2.788 -0.2163 -1.9968 -0.0641
  922SOL    HW2 2766   2.162   2.417   2.728 -2.3135  0.9401 -2.7160
  923SOL     OW 2767   1.284   2.669   0.283 -0.0292  0.1581  0.1586
  923SOL    HW1 2768   1.360   2.732   0.324  1.7640  0.1618  2.9583
  923SOL    HW2 2769   1.314   2.564   0.279 -0.4528 -3.3134 -1.0258
  924SOL     OW 2770   2.828   1.659   0.130  0.1042 -0.8159  0.8245
  924SOL    HW1 2771   2.766   1.631   0.050 -0.1261 -0.2570 -0.5619
  924SOL    HW2 2772   2.920   1.610   0.134  0.9293  0.3386 -0.1256
  925SOL     OW 2773   0.010   2.886   1.465 -0.0218 -0.2933  0.4218
  925SOL    HW1 2774  -0.075   2.919   1.513 -0.4824  0.6075 -0.1118
  925SOL    HW2 2775  -0.016   2.813   1.401  2.5850  1.8875 -2.7798
  926SOL     OW 2776   1.281   2.790   1.329 -0.1335 -0.1394 -0.3358
  926SOL    HW1 2777   1.340   2.811   1.244  0.6197 -0.9927 -1.0318
  926SOL    HW2 2778   1.275   2.881   1.383 -3.4897  0.8803 -0.6461
  927SOL     OW 2779   0.312   2.669   1.789 -0.0218 -0.2595  0.4387
  927SOL    HW1 2780   0.310   2.606   1.705  1.8270  0.2882 -0.5438
  927SOL    HW2 2781   0.269   2.761   1.764  0.3926  2.0084 -0.1540
  928SOL     OW 2782   1.572   2.071   2.236 -0.1777 -0.3538  0.4424
  928SOL    HW1 2783   1.619   2.133   2.169 -0.1209 -1.7606 -0.0737
  928SOL    HW2 2784   1.466   2.078   2.251 -0.7652 -0.0458  1.8641
  929SOL     OW 2785   2.431   2.518   2.854 -0.8513  0.1193 -0.1196
  929SOL    HW1 2786   2.352   2.460   2.824  0.8671 -1.1081 -0.7418
  929SOL    HW2 2787   2.508   2.512   2.790 -0.1505  1.2644  1.5497
  930SOL     OW 2788   2.179   2.029   1.074 -0.0980  0.0703 -0.2706
  930SOL    HW1 2789   2.160   1.976   1.159 -0.1938  0.4159 -1.8493
  930SOL    HW2 2790   2.238   2.118   1.092 -0.2406 -1.7645  3.1848
  931SOL     OW 2791   0.529   1.698   2.692 -0.2844  0.1004  0.2205
  931SOL    HW1 2792   0.530   1.746   2.784  1.7636  0.9323  3.3039
  931SOL    HW2 2793   0.581   1.607   2.699  2.0491  0.6103  2.6911
  932SOL     OW 2794   0.467   0.134   3.054  0.3811  0.1535 -0.2587
  932SOL    HW1 2795   0.528   0.169   3.127  0.5743  0.8186  1.0298
  932SOL    HW2 2796   0.473   0.032   3.035 -2.8172  3.8221 -1.2846
  933SOL     OW 2797   0.970   0.803   3.081  0.3288 -0.3276  0.7007
  933SOL    HW1 2798   0.958   0.820   3.181 -0.7954  0.5581  0.9023
  933SOL    HW2 2799   0.910   0.867   3.020  1.1030  2.0053  1.0740
  934SOL     OW 2800   0.789   2.956   2.686  0.0365 -0.6543  0.1828
  934SOL    HW1 2801   0.756   2.892   2.607 -0.9463 -1.9651 -0.7559
  934SOL    HW2 2802   0.860   2.915   2.749  1.4867  1.2676 -1.8049
  935SOL     OW 2803   0.041   0.525   0.828 -0.2804  0.3816  0.0923
  935SOL    HW1 2804   0.041   0.489   0.729  0.0950  0.3450  0.5148
  935SOL    HW2 2805  -0.036   0.582   0.854 -0.2273  1.2670  0.4042
  936SOL     OW 2806   1.119   2.770   0.073  0.6190 -0.0694 -0.1403
  936SOL    HW1 2807   1.171   2.849   0.033 -1.0418  1.8759 -2.0842
  936SOL    HW2 2808   1.174   2.718   0.146 -0.0398  0.0601 -0.9565
  937SOL     OW 2809   1.828   2.659   2.094  0.4811  0.2336  0.0065
  937SOL    HW1 2810   1.732   2.693   2.094 -1.6032 -1.2615  2.1010
  937SOL    HW2 2811   1.879   2.679   2.006  1.6999  0.4377 -0.0077
  938SOL     OW 2812   2.754   2.079   1.595  0.2904  0.2158  0.3871
  938SOL    HW1 2813   2.717   2.175   1.613  0.1781 -0.2049  1.2913
  938SOL    HW2 2814   2.830   2.059   1.661 -1.4696 -0.6337 -0.3365
  939SOL     OW 2815   2.848   1.187   2.426  0.0329  0.2523  0.0459
  939SOL    HW1 2816   2.928   1.166   2.357  3.2117 -2.7339  2.7982
  939SOL    HW2 2817   2.864   1.152   2.526 -0.2672 -0.6703  1.2741
  940SOL     OW 2818   1.058   0.423   2.752 -0.5198 -0.1744 -0.4845
  940SOL    HW1 2819   1.125   0.344   2.772  0.2141  0.0861  2.4506
  940SOL    HW2 2820   0.981   0.405   2.680  1.2274  1.2032 -2.7239
  941SOL     OW 2821   0.025   2.792   2.254 -0.0052  0.0162  0.0105
  941SOL    HW1 2822   0.076   2.699   2.240  0.1847 -3.6022 -1.2080
  941SOL    HW2 2823   0.089   2.868   2.287 -0.2064 -0.7011 -2.0376
  942SOL     OW 2824   0.106   0.046   2.575  0.4406  0.2999  0.1530
  942SOL    HW1 2825   0.171   0.063   2.650 -0.5855 -0.3900 -1.5562
  942SOL    HW2 2826   0.075   0.127   2.522  0.3997 -1.4969 -0.6234
  943SOL     OW 2827   2.095   1.650   2.385  0.0025 -0.5365  0.0901
  943SOL    HW1 2828   2.065   1.600   2.301  0.7770  0.0113  2.2562
  943SOL    HW2 2829   2.093   1.588   2.463 -0.1007  4.7494 -0.8166
  944SOL     OW 2830   2.161   2.345   1.455  0.2244 -0.2011 -0.3314
  944SOL    HW1 2831   2.248   2.391   1.493  1.5641  0.8808  0.6900
  944SOL    HW2 2832   2.119   2.263   1.499 -1.6664 -0.5960  0.8546
  945SOL     OW 2833   0.680   1.503   0.179 -0.3021 -0.0275  0.2198
  945SOL    HW1 2834   0.599   1.535   0.127  1.7106  0.0037  0.5288
  945SOL    HW2 2835   0.677   1.402   0.207 -2.6555  0.9061  0.7051
  946SOL     OW 2836   0.442   0.945   2.484 -0.0692  0.1283  0.0263
  946SOL    HW1 2837   0.358   0.888   2.483 -0.2660 -0.8330 -1.4716
  946SOL    HW2 2838   0.428   1.049   2.488 -2.2674  1.2603 -3.0666
  947SOL     OW 2839   1.513   0.497   3.057 -0.2725 -0.0905  0.8255
  947SOL    HW1 2840   1.486   0.550   2.971  1.5525  1.8657 -1.2869
  947SOL    HW2 2841   1.432   0.457   3.112  2.6813  0.7599 -0.5086
  948SOL     OW 2842   1.829   3.013   2.120 -0.1799  0.1385 -0.1834
  948SOL    HW1 2843   1.872   2.956   2.039  2.6815  1.7112 -1.6707
  948SOL    HW2 2844   1.826   2.963   2.211  2.7623  2.1329 -1.3654
  949SOL     OW 2845   0.634   2.491   0.484 -0.2540  0.5279  0.6455
  949SOL    HW1 2846   0.647   2.594   0.472 -0.7275 -2.6615 -2.4830
  949SOL    HW2 2847   0.652   2.466   0.583 -2.2503  1.2712 -0.0751
  950SOL     OW 2848   0.220   2.238   3.012 -0.2987  0.3049 -0.0506
  950SOL    HW1 2849   0.157   2.311   2.966  0.8746  1.9405  0.7089
  950SOL    HW2 2850   0.231   2.157   2.951 -1.9942  0.5324  0.9895
  951SOL     OW 2851   1.228   2.679   2.797  0.0626  0.5477 -0.1894
  951SOL    HW1 2852   1.302   2.703   2.861 -2.0333 -1.8995 -0.2895
  951SOL    HW2 2853   1.258   2.674   2.698  1.2280  0.4712  1.0250
  952SOL     OW 2854   0.049   1.656   0.383 -0.1705 -0.0266  0.3242
  952SOL    HW1 2855   0.095   1.746   0.415 -1.3065 -4.3955  1.7038
  952SOL    HW2 2856   0.080   1.589   0.454 -1.3327  1.2455  1.5517
  953SOL     OW 2857   2.532   1.778   0.218 -0.4783  0.1778  0.6427
  953SOL    HW1 2858   2.496   1.689   0.259  0.8354 -0.1692 -0.7676
  953SOL    HW2 2859   2.487   1.814   0.127 -0.5228 -1.3314 -2.2364
  954SOL     OW 2860   2.217   0.532   0.903  0.1651  0.1161 -0.7198
  954SOL    HW1 2861   2.208   0.587   0.817  0.0875  0.6136 -1.3138
  954SOL    HW2 2862   2.316   0.523   0.933  1.0665 -0.5285  1.9579
  955SOL     OW 2863   0.159   2.592   1.365  0.4960  0.3677 -0.3205
  955SOL    HW1 2864   0.060   2.608   1.343 -0.5045  0.2250 -1.9156
  955SOL    HW2 2865   0.230   2.647   1.310  0.3531 -0.6051 -0.8211
  956SOL     OW 2866   2.830   2.443   2.477  0.5519  0.5564  0.0636
  956SOL    HW1 2867   2.840   2.343   2.442  0.4215 -1.4986 -1.3193
  956SOL    HW2 2868   2.879   2.517   2.420  2.6569 -1.7760  0.4460
  957SOL     OW 2869   1.675   2.059   2.802  0.7765 -0.0726 -0.4598
  957SOL    HW1 2870   1.618   1.970   2.805  0.5381 -0.7891  0.0929
  957SOL    HW2 2871   1.679   2.106   2.715 -0.5903 -1.5238 -0.0089
  958SOL     OW 2872   2.568   2.301   2.984 -0.4600 -0.4085  0.6105
  958SOL    HW1 2873   2.501   2.322   2.908 -0.4152  1.0768 -0.8449
  958SOL    HW2 2874   2.524   2.248   3.063  2.7680 -0.7505  0.6681
  959SOL     OW 2875   0.280   2.797   0.029 -0.4007  0.6111 -0.0979
  959SOL    HW1 2876   0.177   2.801   0.022  1.3609  0.2636 -1.2900
  959SOL    HW2 2877   0.318   2.720   0.090 -0.5217  0.9262  0.2575
  960SOL     OW 2878   1.941   0.472   1.930 -0.0396 -0.1035 -0.2528
  960SOL    HW1 2879   1.900   0.565   1.921  1.5296 -0.5198 -1.0760
  960SOL    HW2 2880   1.981   0.459   2.027  0.9038 -1.0703  1.8888
  961SOL     OW 2881   2.567   1.852   1.035  0.5800 -0.0411 -0.8205
  961SOL    HW1 2882   2.554   1.947   0.997 -0.5938  1.8131  1.7523
  961SOL    HW2 2883   2.515   1.844   1.128  0.8572  0.1594  0.7679
  962SOL     OW 2884   1.312   0.923   0.037 -0.0629 -0.2520 -0.0092
  962SOL    HW1 2885   1.275   0.962  -0.050  0.7014  0.9329  0.8668
  962SOL    HW2 2886   1.296   0.989   0.112  0.4176  0.9836 -0.8785
  963SOL     OW 2887   2.285   2.567   1.781 -0.6230  0.3563 -0.2205
  963SOL    HW1 2888   2.241   2.480   1.823  0.9557  2.7450  0.0784
  963SOL    HW2 2889   2.296   2.644   1.855  0.1698  0.4310  1.1935
  964SOL     OW 2890   2.365   0.420   1.665 -0.3290  0.0885  0.1723
  964SOL    HW1 2891   2.445   0.364   1.707 -0.1641 -1.4326  4.3464
  964SOL    HW2 2892   2.388   0.452   1.567  0.9658 -0.1338  0.8692
  965SOL     OW 2893   2.596   2.975   0.153  0.3515  0.3538 -0.1627
  965SOL    HW1 2894   2.667   2.964   0.075  1.0475 -0.1985 -1.7104
  965SOL    HW2 2895   2.509   3.026   0.124  1.1043  0.1341 -2.2306
  966SOL     OW 2896   2.580   2.554   2.283  0.5653  0.2941 -1.0449
  966SOL    HW1 2897   2.647   2.621   2.323 -0.5133  1.5223 -1.8609
  966SOL    HW2 2898   2.496   2.595   2.239 -0.3911 -0.0405 -0.3792
  967SOL     OW 2899   2.786   2.829   2.499  0.2458  0.1983  0.0670
  967SOL    HW1 2900   2.811   2.775   2.412  0.9176  0.8840 -1.6515
  967SOL    HW2 2901   2.864   2.891   2.529 -0.2081  1.2662 -0.4232
  968SOL     OW 2902   1.926   1.071   2.616 -0.3253 -0.2070 -0.0379
  968SOL    HW1 2903   1.845   1.101   2.565  1.3694 -1.4958  1.3382
  968SOL    HW2 2904   1.957   0.975   2.588 -1.9639  3.1440 -1.0118
  969SOL     OW 2905   2.795   2.501   1.120  0.2056  1.0795 -0.0203
  969SOL    HW1 2906   2.775   2.493   1.018 -1.1440  1.4933 -1.6724
  969SOL    HW2 2907   2.824   2.413   1.169 -2.7616  0.4885 -1.5600
  970SOL     OW 2908   1.028   2.091   1.810  0.3446  0.1578 -0.8536
  970SOL    HW1 2909   0.942   2.105   1.755 -0.2973  2.1261  0.2944
  970SOL    HW2 2910   1.018   2.120   1.911 -1.4890 -2.8018  0.1791
  971SOL     OW 2911   2.964   2.056   2.021 -0.6196 -0.0920 -0.6608
  971SOL    HW1 2912   2.984   2.154   2.062  0.2165  3.4735  0.4704
  971SOL    HW2 2913   2.990   2.044   1.918  1.4295  1.6163 -2.2132
  972SOL     OW 2914   1.965   2.495   0.230  0.1088 -0.5564  0.1645
  972SOL    HW1 2915   1.943   2.403   0.182 -1.4344 -0.9531 -3.5149
  972SOL    HW2 2916   1.990   2.490   0.329 -1.4189  0.7451 -1.8193
  973SOL     OW 2917   1.270   1.054   1.917 -0.3583  0.3088 -0.3790
  973SOL    HW1 2918   1.194   1.000   1.871 -1.5612  0.6755 -0.9910
  973SOL    HW2 2919   1.242   1.148   1.951  0.7123 -1.0491  0.3042
  974SOL     OW 2920   1.606   0.573   1.974  0.0803 -0.3093 -0.0169
  974SOL    HW1 2921   1.687   0.632   1.950 -1.2866  1.4834 -0.1324
  974SOL    HW2 2922   1.527   0.639   1.976 -2.2736  0.5823  2.2113
  975SOL     OW 2923   2.375   3.055   0.016 -0.0344  0.4326  0.4625
  975SOL    HW1 2924   2.294   2.998   0.046 -1.3283 -0.2156 -1.8718
  975SOL    HW2 2925   2.383   3.051  -0.087 -0.9451 -0.4230  0.9078
  976SOL     OW 2926   1.901   2.856   2.340  0.1217  0.3627  0.2890
  976SOL    HW1 2927   1.856   2.783   2.288  0.8068  0.8015 -1.4443
  976SOL    HW2 2928   1.903   2.837   2.445 -0.7253 -3.2342  0.7892
  977SOL     OW 2929   0.477   0.684   1.064 -0.1742 -0.4901  0.1700
  977SOL    HW1 2930   0.417   0.665   0.983 -0.4151 -2.0235 -3.3104
  977SOL    HW2 2931   0.548   0.748   1.031  0.2129  2.4452  0.7760
   3.10000   3.10000   3.10000
