1000 SPC/Fw water molecules t=   0.31000 step= 310
 2931
    1SOL     OW    1   2.544   0.306   2.542 -0.1828 -0.0399 -0.0818
    1SOL    HW1    2   2.565   0.207   2.523 -0.2690  2.4713 -0.0917
    1SOL    HW2    3   2.580   0.336   2.636 -4.4524 -1.1567  1.6861
    2SOL     OW    4   2.728   3.021   1.384 -0.1450  0.1601 -0.1248
    2SOL    HW1    5   2.802   3.076   1.343  0.6256  0.8769  1.1622
    2SOL    HW2    6   2.668   3.073   1.447  1.3958  1.0159 -2.3355
    3SOL     OW    7   2.697   2.586   0.430  0.0330 -0.0778 -0.2308
    3SOL    HW1    8   2.650   2.494   0.412 -0.6744 -0.0498  0.7791
    3SOL    HW2    9   2.772   2.588   0.500 -1.3236 -2.4534 -0.6182
    4SOL     OW   10   1.337   1.494   2.390  0.1222 -0.1356 -0.1955
    4SOL    HW1   11   1.249   1.550   2.374  0.3683  0.1573 -1.3481
    4SOL    HW2   12   1.318   1.396   2.410  0.9489  2.0549  1.5026
    5SOL     OW   13   1.223   1.492   3.019 -0.2291  0.1419 -0.0290
    5SOL    HW1   14   1.258   1.557   3.093  0.5508 -0.7451  0.9834
    5SOL    HW2   15   1.120   1.510   3.000 -1.0392 -1.4126 -0.1250
    6SOL     OW   16   0.019   1.814   2.919 -0.3754 -0.2596 -0.7227
    6SOL    HW1   17   0.004   1.860   3.011 -0.0356  0.6065  0.8137
    6SOL    HW2   18  -0.018   1.721   2.901 -0.3378 -2.0726  0.5993
    7SOL     OW   19   2.576   0.864   1.153 -0.3242  1.1698 -0.1524
    7SOL    HW1   20   2.481   0.842   1.178 -3.4235  0.8521 -1.5555
    7SOL    HW2   21   2.588   0.890   1.053  1.2125  1.9845  0.3753
    8SOL     OW   22   0.453   0.654   1.570 -0.3238 -0.4891 -0.1357
    8SOL    HW1   23   0.532   0.586   1.586 -0.9728 -1.8398  1.1489
    8SOL    HW2   24   0.373   0.606   1.521 -1.5291 -2.1445 -2.0077
    9SOL     OW   25   1.189   0.972   2.278 -0.5479 -0.2941  0.1690
    9SOL    HW1   26   1.216   1.053   2.217  1.9763 -0.2269 -1.9594
    9SOL    HW2   27   1.156   0.895   2.226  2.5143  3.2107  0.3501
   10SOL     OW   28   0.717   1.312   1.237  0.6932 -0.3466 -0.3831
   10SOL    HW1   29   0.630   1.362   1.221  1.1633  1.3810 -0.4396
   10SOL    HW2   30   0.804   1.370   1.262  2.9965 -0.5526  0.1618
   11SOL     OW   31   2.351   2.605   0.942 -0.0530  0.3693  0.1545
   11SOL    HW1   32   2.322   2.612   1.043 -0.7513  0.3441 -1.8227
   11SOL    HW2   33   2.441   2.570   0.919  0.2545  1.5308  0.4160
   12SOL     OW   34   1.451   0.889   0.429 -0.2796  0.1310 -0.0753
   12SOL    HW1   35   1.415   0.918   0.339  1.6390 -1.1180 -0.4589
   12SOL    HW2   36   1.422   0.791   0.452  1.0242 -1.0980 -3.4545
   13SOL     OW   37   2.523   0.641   1.831 -0.0930  0.0152  0.2076
   13SOL    HW1   38   2.426   0.667   1.847  0.8347  0.8095 -1.2796
   13SOL    HW2   39   2.532   0.545   1.791 -2.4544  1.1177 -1.1209
   14SOL     OW   40   1.930   3.096   0.613  0.5209  0.4247  0.8155
   14SOL    HW1   41   1.841   3.148   0.590 -2.1104  0.9405  0.4998
   14SOL    HW2   42   1.907   3.034   0.694  0.8513 -2.4248 -0.1027
   15SOL     OW   43   1.964   2.022   2.864  0.1269 -0.5086 -0.1822
   15SOL    HW1   44   1.912   2.110   2.873 -1.3367 -0.1147 -0.4027
   15SOL    HW2   45   1.926   1.969   2.782 -0.3800 -1.2379  0.6980
   16SOL     OW   46   1.636   1.703   0.027  0.2606  0.7373 -0.3402
   16SOL    HW1   47   1.661   1.605   0.005 -0.9908  0.6080  0.0343
   16SOL    HW2   48   1.705   1.750   0.088  0.2516 -0.4616 -1.1025
   17SOL     OW   49   0.134   0.423   0.163 -0.2597  0.3591  0.0365
   17SOL    HW1   50   0.213   0.481   0.130 -0.2520  0.4580  1.8144
   17SOL    HW2   51   0.058   0.429   0.092  1.9323 -0.4147 -2.7230
   18SOL     OW   52   1.008   2.914   2.211 -1.1374 -0.2697  0.1701
   18SOL    HW1   53   0.920   2.879   2.169  0.9131  0.3938  0.8355
   18SOL    HW2   54   1.090   2.889   2.153  0.8541  1.2131 -3.1551
   19SOL     OW   55   0.477   0.934   1.956  0.1114 -0.7171  0.4292
   19SOL    HW1   56   0.446   0.961   2.053  0.6260  2.7810 -0.5160
   19SOL    HW2   57   0.565   0.877   1.952 -0.3348  0.6830 -0.4154
   20SOL     OW   58   0.221   2.780   0.881 -0.2195  0.0149 -0.4063
   20SOL    HW1   59   0.138   2.837   0.851 -0.5836  2.2109 -1.6140
   20SOL    HW2   60   0.297   2.777   0.806  0.4194 -0.3080  0.2393
   21SOL     OW   61   2.775   0.177   2.140 -0.4112  0.3623 -0.0525
   21SOL    HW1   62   2.784   0.107   2.063  1.2200  1.0223  1.8409
   21SOL    HW2   63   2.770   0.134   2.237 -2.5898  0.1513 -0.9421
   22SOL     OW   64   2.325   0.187   3.076 -0.0343 -0.1816  0.0134
   22SOL    HW1   65   2.336   0.087   3.074 -0.5173  3.6779 -0.9272
   22SOL    HW2   66   2.225   0.218   3.084 -0.5914 -1.8011 -0.1897
   23SOL     OW   67   2.782   0.666   0.662  0.5955  0.1368 -0.5333
   23SOL    HW1   68   2.766   0.568   0.632  0.7515  1.7804  0.1168
   23SOL    HW2   69   2.757   0.745   0.597 -3.4867  1.9482  0.0187
   24SOL     OW   70   0.194   1.905   0.455 -0.2223 -0.3078 -0.6045
   24SOL    HW1   71   0.099   1.907   0.417 -2.7044  1.9872  1.8210
   24SOL    HW2   72   0.270   1.929   0.391  2.9162  0.6151  1.3514
   25SOL     OW   73   2.257   0.485   0.185 -0.1528 -0.1376  0.0233
   25SOL    HW1   74   2.299   0.391   0.207  0.8377 -2.6185 -2.5280
   25SOL    HW2   75   2.233   0.511   0.084 -0.8726 -1.4997  1.1324
   26SOL     OW   76   2.510   2.188   2.108 -0.5630  0.4653  0.1293
   26SOL    HW1   77   2.595   2.232   2.149 -1.2221 -0.8261 -1.8496
   26SOL    HW2   78   2.531   2.097   2.063  0.4299 -1.2741  2.3127
   27SOL     OW   79   0.687   2.956   0.092  0.0170 -0.4407  0.0763
   27SOL    HW1   80   0.775   3.012   0.089 -0.0312 -2.6778  1.8102
   27SOL    HW2   81   0.617   2.967   0.017  0.0436 -0.8067 -0.9201
   28SOL     OW   82   1.572   0.167   0.273  0.3980 -0.6966  0.6554
   28SOL    HW1   83   1.617   0.109   0.199 -0.7229  0.2267  1.2233
   28SOL    HW2   84   1.617   0.258   0.290  0.2037  2.5120 -0.1342
   29SOL     OW   85   2.026   0.602   0.276  0.1950 -0.1407  0.8069
   29SOL    HW1   86   2.023   0.682   0.334  0.0206 -1.8080 -1.3599
   29SOL    HW2   87   2.125   0.567   0.260  1.0782 -1.2470  0.7158
   30SOL     OW   88   0.142   2.048   0.950 -0.5174 -0.6172  0.0534
   30SOL    HW1   89   0.157   2.068   0.845 -2.7024  2.3406  0.2054
   30SOL    HW2   90   0.056   2.094   0.992 -1.1502 -0.7303 -1.8457
   31SOL     OW   91   2.113   0.021   2.289  0.2692 -0.5344 -0.1530
   31SOL    HW1   92   2.121   0.010   2.392  1.2425 -1.5903 -1.0580
   31SOL    HW2   93   2.022  -0.009   2.249 -1.2363  0.8034  2.0643
   32SOL     OW   94   2.903   0.140   0.129 -0.0571  0.2595  0.0138
   32SOL    HW1   95   2.872   0.055   0.184 -0.5110  0.9307  1.8261
   32SOL    HW2   96   2.994   0.172   0.163 -2.4642 -0.2784 -2.0566
   33SOL     OW   97   0.965   0.329   0.454  0.1929 -0.7249  0.6719
   33SOL    HW1   98   0.911   0.248   0.435 -1.3152  0.5618 -1.0915
   33SOL    HW2   99   1.032   0.316   0.536 -0.4739  0.2171 -0.9413
   34SOL     OW  100   0.422   2.883   1.060  0.0562 -0.3103 -0.0702
   34SOL    HW1  101   0.387   2.865   0.965  1.0593  0.1023 -0.3234
   34SOL    HW2  102   0.520   2.849   1.066  0.1931  0.2762  2.2263
   35SOL     OW  103   0.041   0.038   1.844  0.2919  0.3654  0.5578
   35SOL    HW1  104   0.039  -0.060   1.871 -0.9232  1.3058 -1.1388
   35SOL    HW2  105  -0.009   0.055   1.758  3.1793  0.1615  1.8791
   36SOL     OW  106   1.941   1.160   1.814  0.1917 -0.1861 -0.3095
   36SOL    HW1  107   1.994   1.117   1.736  0.7149  1.8690  1.7813
   36SOL    HW2  108   1.995   1.238   1.845 -1.6067 -1.5585 -2.9424
   37SOL     OW  109   1.165   0.258   0.937  0.5812 -0.4318 -0.4857
   37SOL    HW1  110   1.203   0.347   0.978  0.1243  0.2166 -0.4518
   37SOL    HW2  111   1.172   0.180   1.005 -1.1827  0.7930  2.7748
   38SOL     OW  112   1.114   2.671   2.397 -0.2737  0.1157  0.1586
   38SOL    HW1  113   1.076   2.579   2.433 -3.0433 -2.1174  0.3741
   38SOL    HW2  114   1.046   2.747   2.387  1.4440 -1.8285  3.2378
   39SOL     OW  115   2.328   1.422   3.012 -0.4308 -0.4724 -0.2684
   39SOL    HW1  116   2.426   1.376   3.009 -0.4221  0.8839  1.4693
   39SOL    HW2  117   2.285   1.407   3.107 -0.7442  0.7599 -1.3438
   40SOL     OW  118   2.107   2.551   2.522  0.8104 -0.3492 -0.6524
   40SOL    HW1  119   2.051   2.638   2.544  0.6324 -1.8477 -3.1196
   40SOL    HW2  120   2.051   2.496   2.451 -0.6010  3.2905  0.9095
   41SOL     OW  121   2.924   0.719   2.734  0.1274  0.1750 -0.0583
   41SOL    HW1  122   2.834   0.763   2.770 -1.9929  0.5858  1.1426
   41SOL    HW2  123   2.915   0.612   2.744  0.5043 -1.7060  3.5349
   42SOL     OW  124   1.790   1.740   0.611 -0.2578  0.0326  0.2104
   42SOL    HW1  125   1.745   1.654   0.577 -0.4483  0.5390  0.4258
   42SOL    HW2  126   1.857   1.784   0.537  1.1010 -2.9110 -1.1463
   43SOL     OW  127   0.459   1.719   1.252 -0.8608  0.4930  0.5719
   43SOL    HW1  128   0.433   1.707   1.350  1.5010  0.0467  2.1596
   43SOL    HW2  129   0.388   1.686   1.184 -1.1040  0.9746  1.6448
   44SOL     OW  130   1.753   2.544   0.018  0.0743  0.7387 -0.4104
   44SOL    HW1  131   1.783   2.570  -0.078  2.4732  1.9249  0.8959
   44SOL    HW2  132   1.837   2.540   0.084  2.1813  1.6913  1.0923
   45SOL     OW  133   0.325   1.950   2.569 -1.0211 -0.2006  0.2947
   45SOL    HW1  134   0.262   1.938   2.488 -0.6131  0.2535  0.3334
   45SOL    HW2  135   0.381   1.867   2.593 -2.9892 -0.8038  0.1444
   46SOL     OW  136   1.151   0.634   0.202 -0.3398 -0.0725  0.7529
   46SOL    HW1  137   1.217   0.695   0.149  0.4050  0.5091  1.6143
   46SOL    HW2  138   1.088   0.698   0.254 -1.1340  0.4977  1.0355
   47SOL     OW  139   0.253   2.443   1.609  0.0484  0.2435  0.2980
   47SOL    HW1  140   0.328   2.368   1.604 -1.7545  1.2830 -0.6890
   47SOL    HW2  141   0.223   2.476   1.517 -0.0086  3.7251 -1.7876
   48SOL     OW  142   2.566   0.580   0.168  0.0874  0.1436 -0.1009
   48SOL    HW1  143   2.548   0.576   0.264  1.8885  0.5023 -1.0278
   48SOL    HW2  144   2.646   0.641   0.145 -3.1280  1.3548  2.7292
   49SOL     OW  145   0.342   0.836   1.743 -0.1184 -0.6084  0.4888
   49SOL    HW1  146   0.410   0.890   1.797 -1.4480 -0.5852 -1.3439
   49SOL    HW2  147   0.387   0.753   1.695 -0.4983 -1.2035 -1.5489
   50SOL     OW  148   1.712   1.085   0.368 -0.1269 -0.3306  0.8572
   50SOL    HW1  149   1.691   0.988   0.331 -0.3207 -0.3101 -1.9179
   50SOL    HW2  150   1.674   1.105   0.467 -0.1193 -1.9451  0.1425
   51SOL     OW  151   3.025   1.896   0.366 -0.2096 -0.1300 -0.2954
   51SOL    HW1  152   3.018   1.915   0.265  1.1638 -1.6245  0.8010
   51SOL    HW2  153   3.016   1.796   0.394 -2.5264  0.8316  2.0751
   52SOL     OW  154   0.764   2.003   0.519 -0.8781 -0.1748  1.0678
   52SOL    HW1  155   0.689   2.056   0.564 -0.2512  1.1244  0.8239
   52SOL    HW2  156   0.797   1.917   0.571 -0.5739 -0.1376  0.0328
   53SOL     OW  157   0.012   0.370   1.540  0.2634  0.0687  0.2463
   53SOL    HW1  158  -0.068   0.344   1.604  3.3005 -2.0401 -0.0404
   53SOL    HW2  159  -0.011   0.452   1.476 -1.1527  0.7128 -1.6401
   54SOL     OW  160   1.743   0.447   3.043  0.3675 -0.0279  0.4407
   54SOL    HW1  161   1.774   0.414   3.133 -1.3417  3.6080 -1.7256
   54SOL    HW2  162   1.643   0.473   3.042  1.3076 -1.0540  0.1944
   55SOL     OW  163   0.708   2.953   0.613 -0.2072  0.2886 -0.3048
   55SOL    HW1  164   0.681   3.047   0.640  1.0148  0.1477 -1.9043
   55SOL    HW2  165   0.801   2.935   0.565 -0.5507  0.7199 -1.3920
   56SOL     OW  166   0.462   1.549   3.033 -0.0473 -0.0577 -0.6230
   56SOL    HW1  167   0.386   1.591   3.098 -3.1948  0.2791  0.1001
   56SOL    HW2  168   0.430   1.472   2.976  0.1681  3.2790 -1.1971
   57SOL     OW  169   1.794   2.399   2.668 -0.0916  0.1409  0.1744
   57SOL    HW1  170   1.861   2.373   2.594  0.5932  3.6346 -0.5999
   57SOL    HW2  171   1.712   2.456   2.634  0.1977  1.1704 -0.2981
   58SOL     OW  172   0.619   0.453   1.119  0.7094 -0.5543  0.1859
   58SOL    HW1  173   0.570   0.540   1.106 -1.9941  1.2072  2.3330
   58SOL    HW2  174   0.558   0.378   1.160 -4.5981  0.3971  1.4625
   59SOL     OW  175   0.465   2.402   2.683 -0.4125  0.0720  0.3728
   59SOL    HW1  176   0.481   2.298   2.686 -3.2366 -0.0078  2.0978
   59SOL    HW2  177   0.535   2.461   2.734 -1.6110 -0.6521 -1.4003
   60SOL     OW  178   2.310   2.142   2.283 -0.2038 -0.3507 -0.1697
   60SOL    HW1  179   2.378   2.183   2.215 -0.4198  0.7985  1.5493
   60SOL    HW2  180   2.328   2.185   2.378 -0.3460  0.3575  0.6879
   61SOL     OW  181   1.410   0.624   0.475  0.0252  0.5801 -0.2252
   61SOL    HW1  182   1.309   0.649   0.476  1.1432  0.5937  1.1314
   61SOL    HW2  183   1.453   0.607   0.383  1.7351  3.6786  2.7793
   62SOL     OW  184   2.639   1.864   3.085 -0.4139 -1.0487 -0.5015
   62SOL    HW1  185   2.649   1.765   3.112 -0.3234  0.3315  1.7226
   62SOL    HW2  186   2.669   1.892   2.988  3.0890  1.1139 -1.8880
   63SOL     OW  187   0.508   0.836   0.162 -0.3616  0.2207 -0.1248
   63SOL    HW1  188   0.466   0.926   0.128  0.9916  1.4728  0.0246
   63SOL    HW2  189   0.601   0.851   0.204 -0.4965  1.4910 -1.0231
   64SOL     OW  190   0.101   0.466   2.511 -0.0684 -0.4163 -0.6456
   64SOL    HW1  191   0.192   0.499   2.558  2.3018  2.1745  1.4194
   64SOL    HW2  192   0.039   0.545   2.484 -0.1331  2.9472  2.2502
   65SOL     OW  193   0.210   1.459   0.662  0.3972  0.5080 -0.3236
   65SOL    HW1  194   0.176   1.548   0.698  1.4887  1.8344  0.4128
   65SOL    HW2  195   0.308   1.458   0.622  0.3373 -1.1070  0.7367
   66SOL     OW  196   2.517   0.418   0.669  0.1539  0.4000 -0.6647
   66SOL    HW1  197   2.458   0.482   0.726  1.6123 -1.4149 -0.0946
   66SOL    HW2  198   2.496   0.317   0.691  0.8025 -3.4400 -0.7031
   67SOL     OW  199   0.510   2.503   1.350 -0.0630  0.0697  0.1705
   67SOL    HW1  200   0.562   2.507   1.437 -0.7415  2.6280  2.6395
   67SOL    HW2  201   0.490   2.405   1.323  0.3823 -0.0193  1.0476
   68SOL     OW  202   1.005   1.101   2.469  0.6433  0.0515  0.5661
   68SOL    HW1  203   1.066   1.046   2.409  1.0220  0.1648 -0.4767
   68SOL    HW2  204   0.928   1.133   2.408  1.6459  0.6888 -0.8558
   69SOL     OW  205   0.767   2.698   2.132 -0.1093  0.4910 -0.5654
   69SOL    HW1  206   0.792   2.607   2.169  1.2571 -0.6365 -2.9656
   69SOL    HW2  207   0.666   2.724   2.142  2.9917 -1.0440 -0.5743
   70SOL     OW  208   0.632   0.268   2.729  0.3512  0.0646  0.3721
   70SOL    HW1  209   0.612   0.293   2.827  2.9603  0.9355 -0.6665
   70SOL    HW2  210   0.602   0.170   2.715  0.5806  1.0186  2.7687
   71SOL     OW  211   1.111   1.788   0.340  0.6409  0.3251  0.0626
   71SOL    HW1  212   1.060   1.696   0.349 -0.3902 -2.3473 -0.9749
   71SOL    HW2  213   1.131   1.801   0.240  0.7039  1.5093  1.4227
   72SOL     OW  214   1.807   0.130   2.116  0.1638  0.2149  0.3523
   72SOL    HW1  215   1.860   0.150   2.028 -1.3589  0.2746 -0.0975
   72SOL    HW2  216   1.817   0.027   2.149  2.5699 -0.2899  0.1256
   73SOL     OW  217   2.780   2.192   2.505 -0.5053  0.2242 -0.2505
   73SOL    HW1  218   2.799   2.094   2.485 -2.0434  3.4981  0.8628
   73SOL    HW2  219   2.826   2.209   2.595 -2.3306 -0.4832  2.3792
   74SOL     OW  220   2.741   2.986   2.046  0.3877 -0.3502 -0.2863
   74SOL    HW1  221   2.661   2.980   2.115 -0.3615 -2.5782  1.8063
   74SOL    HW2  222   2.835   2.989   2.093 -0.1281 -1.2112 -0.7498
   75SOL     OW  223   0.907   0.754   1.020  0.1365 -0.5836  0.2511
   75SOL    HW1  224   0.823   0.809   0.998 -2.7107  1.0675  0.3009
   75SOL    HW2  225   0.934   0.764   1.121 -1.5021 -2.1998  0.7056
   76SOL     OW  226   1.737   1.244   2.579  0.0157  0.1863  0.3350
   76SOL    HW1  227   1.639   1.211   2.583 -0.1838  1.4472  0.3215
   76SOL    HW2  228   1.744   1.342   2.625  0.6461 -1.6354  0.8368
   77SOL     OW  229   2.938   0.991   0.962 -0.7174 -0.1137 -0.4502
   77SOL    HW1  230   2.892   0.898   0.949  2.3751  1.1559 -1.4080
   77SOL    HW2  231   2.992   0.984   1.050 -1.9342  2.4136 -0.2194
   78SOL     OW  232   1.961   1.407   1.515 -0.6056  0.0308  0.1853
   78SOL    HW1  233   2.044   1.413   1.457 -0.7262 -1.1509  1.1524
   78SOL    HW2  234   1.880   1.372   1.468  1.3900 -1.7720  0.5422
   79SOL     OW  235   0.604   1.343   0.822 -0.2436  0.3363 -0.6136
   79SOL    HW1  236   0.510   1.357   0.867 -1.3984 -0.7916  1.1800
   79SOL    HW2  237   0.594   1.291   0.732 -0.9746  1.6059  0.3063
   80SOL     OW  238   0.670   0.497   1.586 -0.1897 -0.2403 -0.1661
   80SOL    HW1  239   0.710   0.555   1.506  3.2114 -0.7719  0.6685
   80SOL    HW2  240   0.675   0.392   1.564 -1.5354 -1.7876 -0.8685
   81SOL     OW  241   1.018   1.379   2.633 -1.0155 -0.7752 -0.2501
   81SOL    HW1  242   0.996   1.282   2.650 -0.2920  2.6068 -0.8898
   81SOL    HW2  243   0.953   1.421   2.564  0.8288  0.4109 -0.9972
   82SOL     OW  244   0.954   2.988   1.538  0.2549 -0.5994  0.1096
   82SOL    HW1  245   1.027   2.918   1.523 -1.3624  1.6379 -1.2730
   82SOL    HW2  246   0.860   2.956   1.507  2.3196 -0.2093  1.8474
   83SOL     OW  247   2.745   2.492   0.793 -0.0952  0.2159 -0.0215
   83SOL    HW1  248   2.656   2.469   0.747 -2.3657 -1.6579  0.7317
   83SOL    HW2  249   2.779   2.585   0.764 -1.0406 -0.5551  3.1496
   84SOL     OW  250   0.718   0.023   2.416 -0.7436 -0.2575 -0.0010
   84SOL    HW1  251   0.635  -0.034   2.447 -0.4992 -1.3842 -0.9134
   84SOL    HW2  252   0.805  -0.031   2.408  1.7659 -0.3206 -1.9573
   85SOL     OW  253   0.397   1.693   1.506  0.5590 -0.1188 -0.3570
   85SOL    HW1  254   0.332   1.773   1.508  1.1420  1.5641 -0.1554
   85SOL    HW2  255   0.404   1.632   1.589  1.8084  1.4129 -0.1755
   86SOL     OW  256   0.356   0.988   1.477  0.3045  0.1016  0.1519
   86SOL    HW1  257   0.333   0.931   1.393 -0.1968 -1.9742  1.6968
   86SOL    HW2  258   0.367   0.933   1.562  0.4015  0.2603  0.6394
   87SOL     OW  259   1.541   0.610   0.239 -0.8590  0.0781  0.3684
   87SOL    HW1  260   1.620   0.676   0.244  0.1197  1.9895  2.1257
   87SOL    HW2  261   1.524   0.581   0.140  0.0798 -0.8673  1.4841
   88SOL     OW  262   1.571   1.259   0.205 -0.6458  0.5511 -0.0733
   88SOL    HW1  263   1.610   1.196   0.281  1.0704 -0.7951  1.5162
   88SOL    HW2  264   1.469   1.281   0.208 -1.0169  3.9739 -0.3487
   89SOL     OW  265   3.036   0.446   0.574  0.5895  0.0247  0.0743
   89SOL    HW1  266   3.089   0.356   0.578  2.1595 -2.4234 -1.0953
   89SOL    HW2  267   2.936   0.437   0.555  2.5668  0.1626 -2.9979
   90SOL     OW  268   0.961   1.661   3.023 -0.3504 -0.0823 -0.3349
   90SOL    HW1  269   0.883   1.643   3.093 -0.0157 -2.2360 -2.0823
   90SOL    HW2  270   0.935   1.653   2.923 -0.1334 -0.6437  0.3723
   91SOL     OW  271   1.298   1.483   1.774  0.1615 -0.4722  0.1484
   91SOL    HW1  272   1.308   1.576   1.824 -2.1467  0.5868  2.2973
   91SOL    HW2  273   1.388   1.432   1.763 -1.2098 -0.0156  1.1951
   92SOL     OW  274   0.027   1.053   1.194 -1.1413  0.2083  0.3184
   92SOL    HW1  275   0.102   1.113   1.163 -1.0288  1.6273  3.7105
   92SOL    HW2  276   0.045   1.019   1.290 -0.0884 -1.5165 -1.0725
   93SOL     OW  277   0.009   2.798   0.068 -0.4348 -0.7464  0.1775
   93SOL    HW1  278  -0.025   2.819  -0.030 -0.4137 -5.4275  0.0129
   93SOL    HW2  279   0.049   2.700   0.074 -0.5142 -1.1865  0.1319
   94SOL     OW  280   1.507   1.352   1.678  0.1457  0.3795  0.1243
   94SOL    HW1  281   1.539   1.254   1.697 -0.4162  0.1877 -0.5203
   94SOL    HW2  282   1.561   1.422   1.729 -1.1398  0.7612 -1.1879
   95SOL     OW  283   1.322   2.471   2.920 -0.4974 -0.2588  0.3262
   95SOL    HW1  284   1.264   2.470   3.006  1.4454 -0.5572 -0.3908
   95SOL    HW2  285   1.345   2.375   2.890 -0.0054  2.9917  3.4807
   96SOL     OW  286   0.521   2.014   1.205  0.5641 -0.5060  0.0045
   96SOL    HW1  287   0.486   2.038   1.110  0.3360  0.1112  1.1111
   96SOL    HW2  288   0.508   1.916   1.239  3.0110  1.6096  2.1157
   97SOL     OW  289   0.385   1.460   2.522 -0.0590  0.8892  0.4482
   97SOL    HW1  290   0.294   1.431   2.484  2.7021 -1.4306 -0.7604
   97SOL    HW2  291   0.394   1.550   2.569  0.4014  0.6710  0.2583
   98SOL     OW  292   2.006   1.667   1.313 -0.5370 -0.0816 -0.0581
   98SOL    HW1  293   2.016   1.612   1.226 -0.6737  0.9096 -3.3208
   98SOL    HW2  294   1.969   1.609   1.394  2.6953 -0.6218  0.1653
   99SOL     OW  295   2.491   2.143   1.342  0.1417  0.1518  0.6922
   99SOL    HW1  296   2.525   2.161   1.436  3.3967 -1.9066 -0.1573
   99SOL    HW2  297   2.436   2.056   1.340 -0.4816  1.6692 -0.4020
  100SOL     OW  298   2.318   0.367   2.026  0.8405  0.2446 -0.2083
  100SOL    HW1  299   2.264   0.365   2.114  0.2929  0.7237  1.0630
  100SOL    HW2  300   2.412   0.399   2.034 -1.3573 -0.8605 -0.9446
  101SOL     OW  301   0.391   1.487   0.292 -0.6572  0.7190 -0.4306
  101SOL    HW1  302   0.399   1.489   0.397 -4.0471  0.4029 -1.1413
  101SOL    HW2  303   0.373   1.575   0.243  1.1272  0.0927  0.4155
  102SOL     OW  304   2.309   1.087   0.805  0.1615  0.2741  0.0629
  102SOL    HW1  305   2.231   1.020   0.796 -2.2389 -0.2103  0.6554
  102SOL    HW2  306   2.337   1.127   0.714 -0.6955 -1.4971  1.9540
  103SOL     OW  307   2.303   0.047   0.414  0.5416 -0.2687 -0.3646
  103SOL    HW1  308   2.357   0.112   0.359 -3.2571 -1.8170 -0.5638
  103SOL    HW2  309   2.356   0.007   0.494  0.4932 -1.2491  0.5783
  104SOL     OW  310   0.070   1.872   2.103 -0.5129  0.0709 -0.0309
  104SOL    HW1  311   0.107   1.812   2.028  0.6758 -2.4865 -2.3770
  104SOL    HW2  312  -0.032   1.875   2.091  0.2105 -2.4093 -1.7290
  105SOL     OW  313   1.163   1.963   0.830  0.9884  0.5905 -0.3056
  105SOL    HW1  314   1.112   2.003   0.749  1.6479 -0.4130 -1.6358
  105SOL    HW2  315   1.234   1.889   0.807  1.9570  0.8486  0.0401
  106SOL     OW  316   2.081   0.431   1.366 -0.2194  0.7118 -0.0538
  106SOL    HW1  317   2.007   0.359   1.394  1.7436 -2.5860 -0.1493
  106SOL    HW2  318   2.074   0.522   1.419  1.3091  1.3425  0.3461
  107SOL     OW  319   1.814   3.038   1.072 -0.3176 -0.2996  0.0557
  107SOL    HW1  320   1.859   3.097   1.147 -0.1529  2.3101 -0.2385
  107SOL    HW2  321   1.772   2.956   1.116 -1.6113  1.0057 -0.2340
  108SOL     OW  322   0.763   2.645   1.302  0.4514  0.2625 -0.7401
  108SOL    HW1  323   0.742   2.706   1.380  1.2439 -2.1670  0.0568
  108SOL    HW2  324   0.860   2.608   1.301 -2.4107 -3.5241 -0.5253
  109SOL     OW  325   2.142   0.107   0.769  0.6007  0.1993  0.3771
  109SOL    HW1  326   2.083   0.064   0.697  1.9913 -0.9348  0.3083
  109SOL    HW2  327   2.119   0.066   0.861 -0.1687  1.4178  1.0362
  110SOL     OW  328   0.469   2.816   2.741 -0.3590  0.2845  0.2650
  110SOL    HW1  329   0.457   2.848   2.645 -2.4896 -0.5987  0.4636
  110SOL    HW2  330   0.545   2.745   2.745  0.1019 -2.8797 -0.8676
  111SOL     OW  331   1.315   0.521   2.275  0.6353  0.4673 -0.2032
  111SOL    HW1  332   1.234   0.567   2.331 -1.1368  1.6987  0.9454
  111SOL    HW2  333   1.357   0.440   2.332  1.5781 -0.6705 -2.3297
  112SOL     OW  334   1.742   0.510   1.395  0.2479  0.5850 -0.1678
  112SOL    HW1  335   1.737   0.488   1.296  0.1700 -2.8616  1.2489
  112SOL    HW2  336   1.730   0.426   1.454  2.1640  1.0739  0.4747
  113SOL     OW  337   2.329   1.628   1.704  0.1408 -0.7265 -0.0905
  113SOL    HW1  338   2.415   1.569   1.711  0.4231  1.1078  1.7908
  113SOL    HW2  339   2.322   1.684   1.790  0.2575  1.9749  0.7292
  114SOL     OW  340   0.308   0.557   1.308 -0.0934 -0.3101  0.4397
  114SOL    HW1  341   0.336   0.655   1.291 -2.0421 -0.8705 -0.5152
  114SOL    HW2  342   0.237   0.524   1.239 -0.4269  0.7337 -0.9100
  115SOL     OW  343   2.612   1.580   1.205  0.2975  0.5677  0.2795
  115SOL    HW1  344   2.639   1.481   1.219 -1.5175  0.0484 -2.5607
  115SOL    HW2  345   2.679   1.636   1.150 -0.4938  0.5672  2.2015
  116SOL     OW  346   1.811   1.069   0.762 -0.4443 -0.5988  0.7660
  116SOL    HW1  347   1.747   1.027   0.695  0.2357 -0.7962  2.1394
  116SOL    HW2  348   1.794   1.168   0.774  4.6865 -0.9358 -0.8885
  117SOL     OW  349   1.124   0.359   0.673 -0.1731 -0.2502  0.4336
  117SOL    HW1  350   1.113   0.345   0.775 -0.2070 -0.7171  1.5239
  117SOL    HW2  351   1.168   0.451   0.654 -1.8522 -0.1817  0.6846
  118SOL     OW  352   1.101   1.092   1.147  0.4893 -0.1066  0.2255
  118SOL    HW1  353   1.069   1.016   1.209 -1.0318  1.0522  0.8297
  118SOL    HW2  354   1.079   1.194   1.177 -0.5058 -0.6359  0.1450
  119SOL     OW  355   1.833   1.618   2.062 -0.1614 -0.0856  0.4927
  119SOL    HW1  356   1.803   1.712   2.083 -1.6229 -3.1610 -1.0951
  119SOL    HW2  357   1.941   1.605   2.070  1.4540 -2.2502  1.2809
  120SOL     OW  358   2.995   2.812   0.305 -0.0620  0.3772 -0.8382
  120SOL    HW1  359   3.024   2.807   0.202  1.5491  0.7778  0.2357
  120SOL    HW2  360   3.002   2.723   0.356  0.7848 -0.2411  2.4690
  121SOL     OW  361   2.010   0.708   2.179 -0.0502 -0.0849  0.2164
  121SOL    HW1  362   1.985   0.745   2.083 -1.4041 -1.0668 -0.5319
  121SOL    HW2  363   2.019   0.607   2.182  2.0633  1.6093  0.6447
  122SOL     OW  364   2.737   2.582   1.367 -0.5565  0.6399 -0.6514
  122SOL    HW1  365   2.732   2.574   1.269 -0.4218 -0.8559 -0.3018
  122SOL    HW2  366   2.770   2.491   1.413  1.1330  0.5737  1.4327
  123SOL     OW  367   1.721   0.050   1.708  0.0584  0.5029  0.8568
  123SOL    HW1  368   1.756   0.017   1.613  0.0501 -1.0325 -0.7537
  123SOL    HW2  369   1.793   0.051   1.780 -0.5232 -0.3607  2.1237
  124SOL     OW  370   0.129   0.489   1.089 -0.4489 -0.4987  0.2238
  124SOL    HW1  371   0.088   0.577   1.131 -0.3100 -1.4155 -2.1217
  124SOL    HW2  372   0.107   0.493   0.983 -1.8737  3.3482 -0.9714
  125SOL     OW  373   0.873   1.777   0.669 -0.2146  0.5119 -0.5733
  125SOL    HW1  374   0.970   1.770   0.637 -0.8867  0.4091 -0.5887
  125SOL    HW2  375   0.859   1.753   0.771  0.6321  1.0079  1.3327
  126SOL     OW  376   1.907   2.389   2.400 -0.0060  0.0899  0.1994
  126SOL    HW1  377   1.961   2.333   2.330  0.3413  0.9687 -0.5136
  126SOL    HW2  378   1.804   2.368   2.393  0.6457 -0.2175 -2.1574
  127SOL     OW  379   0.796   0.969   0.190 -0.6517 -0.1353  0.3292
  127SOL    HW1  380   0.833   1.023   0.273  0.9581 -1.2591  1.3027
  127SOL    HW2  381   0.831   0.873   0.188 -2.5545 -0.6389  1.4646
  128SOL     OW  382   0.963   0.171   1.466 -0.4903  0.0451 -0.6867
  128SOL    HW1  383   0.895   0.235   1.422  2.1142 -0.4099 -1.2470
  128SOL    HW2  384   0.920   0.082   1.490 -1.9265  2.3713  2.6271
  129SOL     OW  385   1.858   0.677   1.871  0.4226 -0.0062 -0.1153
  129SOL    HW1  386   1.897   0.667   1.771  1.6344 -1.0755 -3.7346
  129SOL    HW2  387   1.860   0.771   1.914 -0.8021  1.2858 -0.1037
  130SOL     OW  388   1.335   2.098   1.024 -0.1880  0.6747 -0.2054
  130SOL    HW1  389   1.270   2.053   0.960  0.9769  1.7593 -0.6791
  130SOL    HW2  390   1.372   2.187   0.980  0.9038 -1.0245 -2.7132
  131SOL     OW  391   0.004   1.510   1.387  0.0303 -0.3158 -0.4629
  131SOL    HW1  392  -0.047   1.422   1.364  1.3112 -0.0131 -1.3958
  131SOL    HW2  393   0.100   1.489   1.411  0.1030  1.3372  0.9122
  132SOL     OW  394   1.947   2.449   0.515  0.8837 -0.3567  0.1654
  132SOL    HW1  395   1.841   2.454   0.529  0.2992  0.3263 -0.2859
  132SOL    HW2  396   1.985   2.377   0.583 -2.9113 -2.7549  1.9499
  133SOL     OW  397   1.833   2.267   2.927  0.5619  0.2510 -0.1096
  133SOL    HW1  398   1.880   2.348   2.967  0.0044  0.8305  1.3810
  133SOL    HW2  399   1.777   2.297   2.843  0.0846 -1.6944  2.3569
  134SOL     OW  400   2.701   2.361   1.599  0.3698 -0.1340  0.0156
  134SOL    HW1  401   2.641   2.329   1.679  1.6769  0.6774  3.2525
  134SOL    HW2  402   2.786   2.409   1.638 -1.6725  3.0023 -0.0183
  135SOL     OW  403   0.731   1.546   2.591  0.3925 -0.3941  0.2744
  135SOL    HW1  404   0.707   1.449   2.638 -2.3772 -2.9024  3.6662
  135SOL    HW2  405   0.773   1.531   2.499 -2.5178  3.4461 -0.2446
  136SOL     OW  406   1.199   2.022   0.479  0.2751 -0.1714 -0.2680
  136SOL    HW1  407   1.133   2.074   0.545 -0.7592 -1.2641 -0.4046
  136SOL    HW2  408   1.153   1.947   0.423 -0.5666 -0.6665  1.1512
  137SOL     OW  409   0.396   1.060   2.188  0.3456 -0.3598 -0.1265
  137SOL    HW1  410   0.296   1.069   2.225 -0.8346 -0.5129  0.7141
  137SOL    HW2  411   0.448   0.981   2.237  0.2794 -0.4459 -2.3218
  138SOL     OW  412   2.453   1.487   0.218  0.2964  0.2295 -0.8124
  138SOL    HW1  413   2.350   1.496   0.192  0.5585  1.3107 -1.0707
  138SOL    HW2  414   2.468   1.394   0.267 -0.1838  0.1603 -0.8179
  139SOL     OW  415   1.795   2.610   1.202  0.5612  0.6305 -0.7506
  139SOL    HW1  416   1.704   2.577   1.174  1.5778  0.0998 -0.4790
  139SOL    HW2  417   1.849   2.545   1.263 -2.4368  2.0962  1.0780
  140SOL     OW  418   2.984   2.968   2.488  0.2129 -0.6206 -0.4733
  140SOL    HW1  419   3.028   2.884   2.458  0.2044  0.2233  0.5792
  140SOL    HW2  420   3.054   3.046   2.491  2.6134 -2.3924 -1.0298
  141SOL     OW  421   1.214   1.640   1.542  0.3901  0.5841 -0.1156
  141SOL    HW1  422   1.146   1.708   1.590 -2.9478  0.2349 -0.3983
  141SOL    HW2  423   1.233   1.553   1.602 -1.1295 -1.7378 -0.7149
  142SOL     OW  424   1.569   0.625   2.268 -0.2501 -0.5045 -0.3613
  142SOL    HW1  425   1.583   0.599   2.168  1.5885  0.0919 -0.5401
  142SOL    HW2  426   1.473   0.600   2.300 -2.7215  0.5725  2.2477
  143SOL     OW  427   2.725   0.892   0.508 -0.7783 -0.0403  0.3553
  143SOL    HW1  428   2.782   0.921   0.425  1.9565  3.7923  1.0641
  143SOL    HW2  429   2.758   0.943   0.591 -0.5401  1.5854 -0.1958
  144SOL     OW  430   2.993   1.277   1.358  0.6338  0.4644 -0.6859
  144SOL    HW1  431   2.971   1.262   1.459  2.3150 -0.2049 -1.0419
  144SOL    HW2  432   3.039   1.201   1.307  0.5439  0.0532 -0.4846
  145SOL     OW  433   1.073   1.875   0.059 -0.0730 -0.4922 -0.2822
  145SOL    HW1  434   1.076   1.958  -0.002 -1.7905 -0.1267  0.6082
  145SOL    HW2  435   1.040   1.793   0.007 -2.5713 -1.0397 -0.1905
  146SOL     OW  436   2.525   0.636   1.495 -0.9411 -0.1917  0.4045
  146SOL    HW1  437   2.489   0.547   1.452 -2.7691  2.2695  1.3135
  146SOL    HW2  438   2.459   0.716   1.481 -1.6825 -1.5010 -0.8462
  147SOL     OW  439   1.036   2.526   0.596  0.1554 -0.1895  0.1508
  147SOL    HW1  440   1.020   2.576   0.504 -0.6186  1.7918 -2.6755
  147SOL    HW2  441   1.112   2.455   0.586  0.5734  0.9509 -0.5816
  148SOL     OW  442   1.657   1.428   3.096  0.4266  0.5514 -0.3679
  148SOL    HW1  443   1.688   1.359   3.027  1.0600 -0.9328  2.7613
  148SOL    HW2  444   1.632   1.380   3.185  2.1522 -1.0969  2.2094
  149SOL     OW  445   0.670   1.407   1.968  0.5624  0.1867 -0.4929
  149SOL    HW1  446   0.575   1.390   2.011  1.2746  0.1141 -1.6119
  149SOL    HW2  447   0.697   1.328   1.907  1.4973  1.8675 -0.6148
  150SOL     OW  448   2.970   1.266   0.949 -0.4397  0.0979 -0.1503
  150SOL    HW1  449   3.050   1.301   1.007  0.2324 -1.8108  2.2514
  150SOL    HW2  450   2.949   1.166   0.962 -3.9367  2.4599 -0.4714
  151SOL     OW  451   0.199   0.768   2.145 -0.0647  0.2565  0.7118
  151SOL    HW1  452   0.172   0.857   2.104  2.3237  0.0540 -0.8103
  151SOL    HW2  453   0.260   0.715   2.082  3.7034 -1.4629  1.2868
  152SOL     OW  454   1.408   1.746   1.263 -0.2412 -0.2049 -0.1926
  152SOL    HW1  455   1.413   1.780   1.364 -0.2438  1.2165  0.9843
  152SOL    HW2  456   1.346   1.803   1.200 -1.2434 -1.3367  0.9699
  153SOL     OW  457   0.038   1.540   0.155 -0.2202  0.3103 -0.7172
  153SOL    HW1  458   0.010   1.437   0.155 -0.7415 -0.1991  1.6799
  153SOL    HW2  459   0.082   1.566   0.242 -0.6383 -1.5285 -3.2444
  154SOL     OW  460   2.407   1.880   2.823 -0.6741  0.1527 -0.4778
  154SOL    HW1  461   2.421   1.775   2.846  0.6229  0.8149 -0.4462
  154SOL    HW2  462   2.443   1.908   2.728 -0.4933 -0.7658  0.7168
  155SOL     OW  463   2.494   1.263   0.355 -0.1847  0.0779 -0.5954
  155SOL    HW1  464   2.567   1.242   0.286  0.2568 -0.9979 -2.3585
  155SOL    HW2  465   2.430   1.187   0.362  0.1109  0.3978  0.2241
  156SOL     OW  466   2.546   0.929   0.871  0.2196 -0.0894  0.2184
  156SOL    HW1  467   2.456   0.966   0.848  1.9851 -0.4489 -1.2651
  156SOL    HW2  468   2.616   1.007   0.866 -2.0683  1.2155  0.3924
  157SOL     OW  469   1.249   3.009   3.000 -0.5496 -0.1619 -0.5650
  157SOL    HW1  470   1.303   2.992   2.910 -0.7860  1.9797 -2.1759
  157SOL    HW2  471   1.252   3.108   3.035 -0.4992 -1.1915 -3.7698
  158SOL     OW  472   1.049   1.875   2.029 -0.1968 -0.3600 -0.1902
  158SOL    HW1  473   1.068   1.842   2.122 -1.6064  0.0907  0.6573
  158SOL    HW2  474   0.964   1.930   2.032  1.3273 -1.3068  0.1886
  159SOL     OW  475   0.852   0.387   1.293  0.0905  0.2535 -0.2776
  159SOL    HW1  476   0.850   0.489   1.319  0.5865 -1.4248 -0.7007
  159SOL    HW2  477   0.781   0.367   1.222  1.0008  3.0395 -0.1327
  160SOL     OW  478   1.464   2.467   1.647  0.5628  0.2512 -0.3816
  160SOL    HW1  479   1.470   2.544   1.576  1.0051  2.1291 -1.9174
  160SOL    HW2  480   1.549   2.414   1.639 -0.0371  0.5591  4.3109
  161SOL     OW  481   0.135   2.914   0.331  0.4668 -0.1891  0.6375
  161SOL    HW1  482   0.036   2.883   0.350 -1.5612 -4.4270 -0.4541
  161SOL    HW2  483   0.129   3.002   0.265  2.1877  0.6693  0.0713
  162SOL     OW  484   2.595   1.910   0.499  0.5235  0.3944 -0.1910
  162SOL    HW1  485   2.564   1.849   0.423 -0.3847 -0.3716  1.7097
  162SOL    HW2  486   2.590   1.853   0.584 -0.8154 -1.2653  0.5918
  163SOL     OW  487   1.964   2.683   0.734  0.0884 -0.5272 -0.1807
  163SOL    HW1  488   1.922   2.716   0.645 -1.8400 -0.7717 -0.9384
  163SOL    HW2  489   2.023   2.596   0.722  1.6914 -2.4650 -1.0750
  164SOL     OW  490   3.036   0.302   1.209  0.0813  0.2873 -0.2524
  164SOL    HW1  491   3.065   0.391   1.160 -0.5456  1.9083 -2.5562
  164SOL    HW2  492   3.118   0.259   1.258  1.1859 -0.1345 -0.7305
  165SOL     OW  493   0.984   1.479   0.672  0.1853 -0.1251  0.1890
  165SOL    HW1  494   0.912   1.523   0.738  0.3314 -0.2025  0.2872
  165SOL    HW2  495   0.958   1.496   0.573 -0.6291  3.4884  0.6809
  166SOL     OW  496   1.421   1.066   1.753  0.3283  0.2509 -0.3732
  166SOL    HW1  497   1.330   1.033   1.803 -1.7623 -0.2735  1.1785
  166SOL    HW2  498   1.500   1.068   1.822  1.0331  1.1007  2.1728
  167SOL     OW  499   0.873   1.939   1.539 -0.3483  0.4021  0.0725
  167SOL    HW1  500   0.836   1.975   1.629 -1.2400 -1.0883 -0.8790
  167SOL    HW2  501   0.819   1.854   1.505 -0.5375 -0.6934 -0.8788
  168SOL     OW  502   1.544   2.380   0.143  0.5633 -0.3220  0.3611
  168SOL    HW1  503   1.622   2.442   0.112  0.2041 -0.1194  2.9916
  168SOL    HW2  504   1.569   2.312   0.217 -1.8506 -0.0563 -2.5058
  169SOL     OW  505   0.179   2.576   2.205 -0.0341  0.4211  0.4102
  169SOL    HW1  506   0.227   2.521   2.129 -0.1262  0.8189 -1.6067
  169SOL    HW2  507   0.143   2.520   2.288  0.4931 -0.4081 -0.9059
  170SOL     OW  508   1.269   0.274   1.901 -0.1655  0.0998  0.0641
  170SOL    HW1  509   1.297   0.246   1.996  1.6197 -0.8097  0.7998
  170SOL    HW2  510   1.229   0.189   1.855  1.8300  0.8019  0.2095
  171SOL     OW  511   0.264   0.785   2.425  0.0310 -0.3658  0.1918
  171SOL    HW1  512   0.168   0.792   2.470 -1.2585 -0.7004  1.7092
  171SOL    HW2  513   0.258   0.796   2.321 -2.5891  1.2124 -4.4127
  172SOL     OW  514   0.892   1.151   2.938  0.0277  0.5848 -0.2106
  172SOL    HW1  515   0.994   1.154   2.966  0.2165  0.4769  0.4619
  172SOL    HW2  516   0.876   1.107   2.842 -1.8574 -0.1391  1.7645
  173SOL     OW  517   0.666   2.691   0.170 -0.3347  0.1324 -0.3239
  173SOL    HW1  518   0.656   2.795   0.161  0.9980 -1.9162  1.8845
  173SOL    HW2  519   0.582   2.638   0.141  1.2010  0.0892 -1.0487
  174SOL     OW  520   1.388   2.765   1.056  0.4725  0.6795  0.0033
  174SOL    HW1  521   1.393   2.841   0.988  1.3189 -2.4892  0.7807
  174SOL    HW2  522   1.319   2.691   1.035  1.3464 -0.5681  0.3620
  175SOL     OW  523   0.390   0.013   1.669 -0.2856  0.2970 -0.5589
  175SOL    HW1  524   0.458   0.052   1.736  0.9133 -0.3965  0.2251
  175SOL    HW2  525   0.323   0.087   1.628 -0.0148  3.5796  1.8629
  176SOL     OW  526   2.514   0.385   3.067 -0.5626  0.3627  0.0323
  176SOL    HW1  527   2.525   0.452   3.148  1.0547  0.1067  2.9925
  176SOL    HW2  528   2.443   0.309   3.099 -1.3431 -1.5006  3.5857
  177SOL     OW  529   0.390   0.391   0.922  0.0685 -0.3663  0.1921
  177SOL    HW1  530   0.464   0.400   0.995 -1.2945 -2.0827  0.0607
  177SOL    HW2  531   0.300   0.370   0.973  3.0454 -1.5312  2.4410
  178SOL     OW  532   0.025   2.724   2.591  0.0928 -0.7558 -0.1263
  178SOL    HW1  533  -0.068   2.697   2.620 -0.0761  0.7259  0.6088
  178SOL    HW2  534   0.098   2.728   2.668 -1.3276  1.3914 -0.0095
  179SOL     OW  535   0.027   1.701   1.148 -0.1395  0.1948  0.3206
  179SOL    HW1  536  -0.034   1.782   1.139  2.7380 -1.6604 -1.4038
  179SOL    HW2  537   0.019   1.649   1.240  2.4037 -2.2869  1.3724
  180SOL     OW  538   0.211   1.278   1.832  0.0998  0.3751  0.4067
  180SOL    HW1  539   0.305   1.285   1.781  2.1987 -0.2687  0.1788
  180SOL    HW2  540   0.209   1.342   1.912  4.1537 -1.0147 -4.3214
  181SOL     OW  541   3.015   1.832   2.543  0.3748  0.0284  0.1007
  181SOL    HW1  542   3.087   1.868   2.488 -2.0024  0.8614  3.8519
  181SOL    HW2  543   2.925   1.875   2.497 -0.4163 -1.1085 -2.0534
  182SOL     OW  544   2.336   1.203   1.203  0.0715  0.4224 -0.0564
  182SOL    HW1  545   2.264   1.164   1.143  0.2024 -0.1681  1.9215
  182SOL    HW2  546   2.334   1.304   1.213 -1.0698 -2.6105  1.8265
  183SOL     OW  547   1.485   2.278   2.552  0.1307 -0.3241  0.1608
  183SOL    HW1  548   1.391   2.244   2.545 -1.8844  2.1495 -0.5405
  183SOL    HW2  549   1.547   2.201   2.583  1.4722 -0.1232  0.0336
  184SOL     OW  550   2.055   0.929   0.763  0.0623 -0.2070  1.0125
  184SOL    HW1  551   1.971   0.987   0.769 -2.3461 -0.6576  0.1806
  184SOL    HW2  552   2.037   0.842   0.818 -2.2348 -0.3128 -1.0134
  185SOL     OW  553   1.648   2.705   2.101  0.1057 -0.8005 -0.2690
  185SOL    HW1  554   1.621   2.801   2.083 -1.3508 -1.9284  0.7775
  185SOL    HW2  555   1.610   2.667   2.191  0.1298 -2.1327  2.1205
  186SOL     OW  556   0.131   2.225   1.752  0.3175 -0.5126 -0.0045
  186SOL    HW1  557   0.190   2.309   1.725  1.1487 -0.0302 -2.1451
  186SOL    HW2  558   0.186   2.138   1.751 -0.1482  1.2878 -0.1154
  187SOL     OW  559   1.427   0.680   1.682 -0.3211  0.1627 -0.4362
  187SOL    HW1  560   1.457   0.750   1.611 -0.3715  0.7456 -0.2787
  187SOL    HW2  561   1.437   0.715   1.777 -1.0114 -0.1841  0.9968
  188SOL     OW  562   2.750   2.771   1.550  0.5304  0.2237  0.2096
  188SOL    HW1  563   2.769   2.860   1.498 -0.3145 -0.9276 -1.7978
  188SOL    HW2  564   2.738   2.684   1.487 -0.7715 -1.4046  1.7837
  189SOL     OW  565   0.806   1.013   1.436  0.4946 -0.7434 -0.3957
  189SOL    HW1  566   0.881   1.088   1.429 -1.0566  0.9531  1.5215
  189SOL    HW2  567   0.796   0.964   1.341  0.3181  0.9582 -2.7664
  190SOL     OW  568   1.496   1.685   1.596  0.3165  0.1945 -0.2236
  190SOL    HW1  569   1.395   1.698   1.570  0.3492  0.8055  0.4350
  190SOL    HW2  570   1.525   1.752   1.667 -0.7689 -1.2962 -2.7104
  191SOL     OW  571   0.996   0.798   1.547  0.3299  0.1282  0.3087
  191SOL    HW1  572   1.013   0.707   1.589 -0.2650 -1.2968 -1.0753
  191SOL    HW2  573   1.082   0.855   1.540  0.0396 -0.6592 -4.4727
  192SOL     OW  574   1.845   2.312   1.206 -0.0147  0.0556 -0.0676
  192SOL    HW1  575   1.752   2.272   1.186  2.0404 -0.4107 -0.8961
  192SOL    HW2  576   1.910   2.320   1.122 -1.3821  2.2770  1.2115
  193SOL     OW  577   0.524   0.566   0.366  0.0369 -0.3058  0.4873
  193SOL    HW1  578   0.491   0.487   0.418 -2.4078  0.4520 -1.6621
  193SOL    HW2  579   0.576   0.541   0.279  1.1073 -0.2233  1.4622
  194SOL     OW  580   0.297   0.837   1.251  0.1941 -0.6402 -0.2420
  194SOL    HW1  581   0.201   0.799   1.235 -0.6174  2.4232 -0.7709
  194SOL    HW2  582   0.338   0.891   1.168  1.9301 -1.4014 -2.1142
  195SOL     OW  583   0.947   2.919   0.458  0.4523 -0.5935 -0.2734
  195SOL    HW1  584   0.980   2.828   0.420 -1.9462  1.8256  1.5849
  195SOL    HW2  585   1.024   2.977   0.492 -1.2643 -0.5647 -2.6281
  196SOL     OW  586   0.263   1.428   1.411 -0.1065  0.5725  0.1478
  196SOL    HW1  587   0.299   1.482   1.489 -0.5144 -1.9445  1.0915
  196SOL    HW2  588   0.240   1.329   1.433  0.6833 -1.2684 -1.1481
  197SOL     OW  589   0.864   2.016   0.257 -0.0873  0.3960 -0.0105
  197SOL    HW1  590   0.858   2.039   0.356  0.7329 -0.2093 -0.5136
  197SOL    HW2  591   0.932   1.940   0.234 -0.1092  1.7846 -0.9232
  198SOL     OW  592   0.285   1.252   0.258 -0.2902  0.4531  0.1016
  198SOL    HW1  593   0.181   1.256   0.253 -0.0466  0.7107  0.7776
  198SOL    HW2  594   0.325   1.344   0.246 -1.3181  0.7286  1.9600
  199SOL     OW  595   2.254   0.370   2.544  0.7186 -0.1303  0.8266
  199SOL    HW1  596   2.184   0.326   2.613 -1.3047  0.5672  2.9071
  199SOL    HW2  597   2.354   0.373   2.578 -1.2379 -1.8363 -0.4865
  200SOL     OW  598   3.092   2.913   0.751 -0.2060  0.1611 -0.3223
  200SOL    HW1  599   2.997   2.923   0.708  0.8428  3.0379 -1.0624
  200SOL    HW2  600   3.126   3.005   0.793 -1.7201  3.5672 -2.3030
  201SOL     OW  601   1.164   0.703   0.541 -0.4216  0.0965  0.2721
  201SOL    HW1  602   1.178   0.803   0.572  1.6473  0.4219  1.6405
  201SOL    HW2  603   1.065   0.679   0.520 -3.4805  0.6015 -0.8744
  202SOL     OW  604   0.460   1.265   1.718  0.1021  0.1959  0.5422
  202SOL    HW1  605   0.470   1.250   1.614 -0.3657 -2.9485 -2.4882
  202SOL    HW2  606   0.525   1.207   1.772 -1.3407 -0.6545 -1.7468
  203SOL     OW  607   0.683   0.237   1.534  0.2519  0.1729  0.9193
  203SOL    HW1  608   0.660   0.168   1.462  0.3816  2.0300 -0.2705
  203SOL    HW2  609   0.720   0.193   1.616  1.4725  2.5172  1.8228
  204SOL     OW  610   2.094   1.828   3.025 -0.2839 -0.2587  0.1670
  204SOL    HW1  611   2.098   1.729   3.000 -1.0953 -0.0660 -4.4786
  204SOL    HW2  612   2.066   1.887   2.949  1.4290 -0.4370 -1.5367
  205SOL     OW  613   1.852   1.885   0.091 -0.2880  0.3746 -0.3039
  205SOL    HW1  614   1.933   1.856   0.026  2.4438 -0.6522 -1.3930
  205SOL    HW2  615   1.787   1.951   0.043 -0.3473  1.1566 -1.7551
  206SOL     OW  616   2.576   2.821   0.384  0.0912  0.4618  0.0188
  206SOL    HW1  617   2.624   2.727   0.394  1.2851 -1.3879  0.8292
  206SOL    HW2  618   2.597   2.868   0.290 -1.0258  1.0058 -0.6420
  207SOL     OW  619   0.629   1.736   2.875  0.5861  0.0393  0.3995
  207SOL    HW1  620   0.725   1.719   2.834  0.0919  0.5352  1.7492
  207SOL    HW2  621   0.613   1.678   2.964 -0.8603 -2.0940  0.3514
  208SOL     OW  622   1.015   1.493   1.439  0.6359  0.1012  0.3936
  208SOL    HW1  623   0.953   1.544   1.373  1.9850  0.4888 -2.0696
  208SOL    HW2  624   1.096   1.547   1.472  2.3863 -0.3310 -0.4728
  209SOL     OW  625   0.211   0.941   3.050  0.4569 -0.0752 -0.3590
  209SOL    HW1  626   0.244   0.895   2.963 -0.7411 -0.5126  2.1898
  209SOL    HW2  627   0.220   0.878   3.133 -2.0278 -0.3714  0.5185
  210SOL     OW  628   1.707   0.499   1.127  0.0577 -0.0900 -0.3623
  210SOL    HW1  629   1.663   0.570   1.063  1.1921 -2.9466  0.3911
  210SOL    HW2  630   1.812   0.502   1.120  1.7406  2.0145 -0.3985
  211SOL     OW  631   2.147   1.045   1.684  0.4554  0.0890 -0.1220
  211SOL    HW1  632   2.203   0.999   1.763  1.5026  2.4842  1.6883
  211SOL    HW2  633   2.201   1.097   1.616  3.2106 -2.1861  2.4976
  212SOL     OW  634   0.036   0.973   1.469  0.5676 -0.3722  0.1914
  212SOL    HW1  635   0.084   1.060   1.504 -3.2071  1.1378  1.4888
  212SOL    HW2  636   0.067   0.881   1.517  0.5874 -2.8467  1.3411
  213SOL     OW  637   2.730   0.358   0.267  0.0474  0.3632 -0.2835
  213SOL    HW1  638   2.791   0.281   0.224  1.2005 -0.8087  2.1163
  213SOL    HW2  639   2.688   0.423   0.203 -0.6653 -0.7464  2.9784
  214SOL     OW  640   2.200   0.288   2.284  0.4158 -0.3356 -0.3633
  214SOL    HW1  641   2.219   0.303   2.387 -0.4271 -0.3059 -0.4737
  214SOL    HW2  642   2.173   0.190   2.258  1.3301 -2.8859 -2.9034
  215SOL     OW  643   1.662   2.278   2.065  0.1719 -0.2675  0.3575
  215SOL    HW1  644   1.762   2.313   2.047  2.2735  0.8115 -0.8305
  215SOL    HW2  645   1.603   2.328   2.139 -0.0805  0.5921  0.5031
  216SOL     OW  646   2.227   0.521   0.656 -0.0714  0.0561  0.2964
  216SOL    HW1  647   2.205   0.439   0.599 -1.0774 -0.9092 -1.7977
  216SOL    HW2  648   2.218   0.612   0.601  0.0954 -0.8346 -0.1571
  217SOL     OW  649   0.779   2.807   2.386  0.0380  0.3208 -0.0491
  217SOL    HW1  650   0.764   2.708   2.427  1.2120 -1.9641  1.1206
  217SOL    HW2  651   0.780   2.806   2.279  2.8483  0.3570 -3.3790
  218SOL     OW  652   1.906   1.436   0.089 -0.7173 -0.5630  0.2019
  218SOL    HW1  653   1.823   1.478   0.043  0.5276  2.5379 -0.2606
  218SOL    HW2  654   1.903   1.338   0.119  0.6841 -1.4108 -1.5480
  219SOL     OW  655   2.387   1.332   2.546  0.0243 -0.2673 -0.3548
  219SOL    HW1  656   2.443   1.316   2.455  2.9876  2.2344  0.1113
  219SOL    HW2  657   2.398   1.261   2.618 -0.6663 -1.8988 -2.3182
  220SOL     OW  658   1.464   1.025   1.269 -0.0532 -0.4311 -0.1432
  220SOL    HW1  659   1.559   1.052   1.299 -0.8091 -0.1931  1.6995
  220SOL    HW2  660   1.425   1.100   1.214  3.0946  1.4199  0.4248
  221SOL     OW  661   1.295   1.211   2.167  0.2122  0.2542  0.3939
  221SOL    HW1  662   1.250   1.283   2.110  1.3363  0.3519  1.6372
  221SOL    HW2  663   1.391   1.194   2.135 -0.0017  0.2710  0.6885
  222SOL     OW  664   1.239   0.069   1.137 -0.8499 -0.0514  0.1806
  222SOL    HW1  665   1.331   0.024   1.113 -2.7836 -1.8899  1.2602
  222SOL    HW2  666   1.241   0.118   1.228  1.3787 -2.1580 -1.3104
  223SOL     OW  667   2.902   0.835   1.999  0.6123  0.1178  0.7517
  223SOL    HW1  668   2.908   0.839   2.104  0.4213 -0.7537  0.2066
  223SOL    HW2  669   2.924   0.926   1.955  1.1998 -0.3061  0.9183
  224SOL     OW  670   1.547   0.987   2.788 -0.0681  0.0014  0.3859
  224SOL    HW1  671   1.551   0.911   2.715  0.0983 -3.8723 -0.2794
  224SOL    HW2  672   1.516   1.073   2.745 -2.6825 -3.6277  1.2464
  225SOL     OW  673   3.030   2.809   2.918  0.9836 -0.1431 -0.2667
  225SOL    HW1  674   2.989   2.738   2.859  2.6944  0.3336 -0.5791
  225SOL    HW2  675   3.088   2.883   2.875  1.8350 -0.0453 -2.1221
  226SOL     OW  676   2.462   1.619   2.866  0.2854 -0.5446 -0.3952
  226SOL    HW1  677   2.500   1.601   2.769  1.5175  1.0383 -1.6523
  226SOL    HW2  678   2.397   1.545   2.905  0.6638 -0.1340  1.4730
  227SOL     OW  679   0.849   0.104   2.982  0.5911 -0.2463  0.1205
  227SOL    HW1  680   0.904   0.060   3.056  1.4950 -0.3775  0.3861
  227SOL    HW2  681   0.870   0.076   2.884 -1.0038  0.3033 -0.5013
  228SOL     OW  682   2.364   0.584   2.807  0.0313  0.3417  0.4861
  228SOL    HW1  683   2.307   0.607   2.726 -2.6153 -2.3151  0.8319
  228SOL    HW2  684   2.431   0.504   2.788 -1.7671 -2.5229 -0.3596
  229SOL     OW  685   0.572   0.505   1.865  0.1717  0.2400 -0.0777
  229SOL    HW1  686   0.622   0.494   1.771 -2.7990 -1.5075 -1.6664
  229SOL    HW2  687   0.634   0.547   1.943 -1.5364 -0.2229  0.6358
  230SOL     OW  688   1.903   1.243   2.134 -0.3664 -0.1032  0.5517
  230SOL    HW1  689   1.971   1.274   2.069 -1.7858  1.1547  2.2136
  230SOL    HW2  690   1.807   1.280   2.118  0.7520 -0.2228 -3.3808
  231SOL     OW  691   0.640   1.018   2.999 -0.7190 -0.7087  0.5491
  231SOL    HW1  692   0.727   1.078   3.004  2.4634 -0.9313 -0.3452
  231SOL    HW2  693   0.573   1.023   3.077 -0.9583  0.8966  0.9688
  232SOL     OW  694   2.517   0.034   2.748 -0.2190 -0.1874 -0.1732
  232SOL    HW1  695   2.541  -0.041   2.815 -2.7034  0.4588  1.1509
  232SOL    HW2  696   2.542   0.009   2.651 -0.1275 -0.2440  0.3139
  233SOL     OW  697   1.701   1.271   1.045 -0.2628 -0.0049 -0.0810
  233SOL    HW1  698   1.714   1.325   0.959 -1.9757  0.9692  1.4656
  233SOL    HW2  699   1.759   1.183   1.044 -0.3756 -2.0813  0.2873
  234SOL     OW  700   1.649   2.619   1.834  0.5723 -0.3436 -0.1189
  234SOL    HW1  701   1.660   2.658   1.932 -0.3664  0.3516 -0.0023
  234SOL    HW2  702   1.559   2.566   1.822  0.4321  1.2619  0.3103
  235SOL     OW  703   0.102   3.005   2.883  0.6251 -0.1381  0.6664
  235SOL    HW1  704   0.161   3.073   2.827 -0.1196  0.5574 -0.3194
  235SOL    HW2  705   0.015   3.057   2.911  2.4777 -0.7274 -1.2479
  236SOL     OW  706   2.812   0.680   0.088  0.7641 -0.2979  0.4664
  236SOL    HW1  707   2.872   0.737   0.144 -0.9714  0.3752  3.1946
  236SOL    HW2  708   2.864   0.602   0.049  0.2043  0.5299  1.4326
  237SOL     OW  709   1.497   1.605   1.038  0.1699  0.0964  0.1372
  237SOL    HW1  710   1.602   1.584   1.030 -0.1774  0.5587  0.4582
  237SOL    HW2  711   1.468   1.627   1.134  1.3993 -0.2104  0.5454
  238SOL     OW  712   1.768   1.345   0.790  0.6272 -0.1919  0.8122
  238SOL    HW1  713   1.857   1.342   0.731  3.4241 -1.6215  2.0066
  238SOL    HW2  714   1.690   1.402   0.747 -1.0344  1.0472  2.3503
  239SOL     OW  715   2.097   0.237   2.722 -0.3971 -0.0395 -0.1967
  239SOL    HW1  716   2.195   0.243   2.767  0.6708  1.1365  0.3281
  239SOL    HW2  717   2.027   0.299   2.770  0.4386 -0.0624  1.7295
  240SOL     OW  718   0.862   0.690   0.246  0.0907  0.0055 -0.2356
  240SOL    HW1  719   0.864   0.608   0.184  1.2121  1.0955  0.0684
  240SOL    HW2  720   0.863   0.672   0.355  1.3665  1.1677  2.0356
  241SOL     OW  721   0.548   0.037   0.335 -0.2413 -0.0754  0.1982
  241SOL    HW1  722   0.583   0.027   0.235  0.3253  0.9508 -2.3639
  241SOL    HW2  723   0.501  -0.046   0.364  0.1661  4.7074 -0.7560
  242SOL     OW  724   0.691   2.421   1.140  0.0521  1.2129  0.3419
  242SOL    HW1  725   0.666   2.504   1.203 -0.3183  0.7218  0.1073
  242SOL    HW2  726   0.772   2.449   1.082 -0.2778  1.6548 -2.2372
  243SOL     OW  727   1.092   0.610   2.415  0.1582 -0.3778  0.1067
  243SOL    HW1  728   1.052   0.693   2.369 -0.6018  1.3540 -0.0303
  243SOL    HW2  729   1.019   0.552   2.458 -1.3456 -0.5501  2.6322
  244SOL     OW  730   2.780   1.932   2.452  0.4767 -0.6273  0.1078
  244SOL    HW1  731   2.827   1.949   2.360  3.1321 -0.0503 -0.3638
  244SOL    HW2  732   2.692   1.871   2.446 -0.4031  0.6014 -2.0979
  245SOL     OW  733   2.466   0.749   2.125  0.1961  0.2140  0.3909
  245SOL    HW1  734   2.483   0.803   2.210 -0.6005 -3.3580 -0.3128
  245SOL    HW2  735   2.539   0.680   2.105  0.5687 -0.2805 -2.7245
  246SOL     OW  736   0.215   2.879   1.707  0.0764  0.3255 -0.3425
  246SOL    HW1  737   0.133   2.872   1.640 -1.7453  2.2141  0.1226
  246SOL    HW2  738   0.269   2.965   1.698 -1.5008 -0.5270 -0.6750
  247SOL     OW  739   2.171   0.552   3.013 -0.0070  0.1921  0.1916
  247SOL    HW1  740   2.240   0.547   2.936 -1.3864 -1.9774  0.9697
  247SOL    HW2  741   2.147   0.648   3.039  0.8763  1.1170  1.5814
  248SOL     OW  742   2.176   1.855   1.651 -0.2927 -0.3761 -0.2002
  248SOL    HW1  743   2.235   1.772   1.657 -1.0052 -0.1165  1.1387
  248SOL    HW2  744   2.090   1.849   1.706  1.2466  0.8998 -0.3954
  249SOL     OW  745   1.960   1.942   1.954 -0.0663  0.3293 -0.1788
  249SOL    HW1  746   1.959   1.864   1.888  0.6609  2.0779  0.5659
  249SOL    HW2  747   2.044   1.999   1.941  0.6947  0.1404  1.6414
  250SOL     OW  748   1.014   0.652   1.857  0.0413 -0.1701 -0.5546
  250SOL    HW1  749   1.069   0.605   1.934 -0.9796  0.1611  0.7833
  250SOL    HW2  750   1.039   0.620   1.760  0.3613  1.2835  0.3074
  251SOL     OW  751   3.018   1.557   2.579 -0.3511  0.1516 -0.0529
  251SOL    HW1  752   3.018   1.657   2.550  3.2226 -0.9247  1.2655
  251SOL    HW2  753   2.927   1.510   2.558  1.1366  0.2311 -2.5532
  252SOL     OW  754   1.525   0.901   1.536 -0.7220  0.6249 -0.3583
  252SOL    HW1  755   1.540   0.952   1.446 -0.8390 -0.3496 -0.7633
  252SOL    HW2  756   1.500   0.958   1.617  0.2117  0.8858  2.7042
  253SOL     OW  757   0.983   1.530   0.391 -0.2761  0.8003  0.0418
  253SOL    HW1  758   1.015   1.446   0.350 -3.1920  1.4312  0.6980
  253SOL    HW2  759   0.878   1.545   0.397 -3.7359 -0.4387 -1.2553
  254SOL     OW  760   1.998   2.160   1.606  0.0177  0.4664  0.0152
  254SOL    HW1  761   1.940   2.124   1.526 -0.3483  2.0539 -0.3314
  254SOL    HW2  762   1.947   2.156   1.693  1.8587 -0.8188 -1.9480
  255SOL     OW  763   0.107   1.150   2.908  0.5862  0.3157  0.1862
  255SOL    HW1  764   0.147   1.244   2.929 -1.3808 -3.1431 -0.6543
  255SOL    HW2  765   0.153   1.068   2.956  1.0971  1.3138  4.0718
  256SOL     OW  766   2.807   1.352   1.847 -0.4072 -0.1925 -0.1670
  256SOL    HW1  767   2.738   1.423   1.818 -0.1497  1.2297  1.1108
  256SOL    HW2  768   2.757   1.261   1.874  0.7121 -0.0058 -0.6123
  257SOL     OW  769   0.888   0.224   1.915  0.2868 -0.9742  0.3977
  257SOL    HW1  770   0.933   0.294   1.852  0.7138  1.4085  0.4287
  257SOL    HW2  771   0.906   0.127   1.882 -0.0607 -1.4561 -1.5145
  258SOL     OW  772   2.954   1.264   0.414  0.4574 -0.5865 -0.2303
  258SOL    HW1  773   2.879   1.339   0.399 -1.6175  1.3831 -0.8908
  258SOL    HW2  774   2.998   1.266   0.512 -0.3965 -1.3407 -0.4165
  259SOL     OW  775   0.433   2.892   2.989 -0.6858  0.1869  0.0052
  259SOL    HW1  776   0.429   2.821   3.066  0.6246 -0.7296  2.0472
  259SOL    HW2  777   0.437   2.858   2.890 -0.2699 -0.3617 -0.5440
  260SOL     OW  778   2.649   0.749   2.773  0.2536  0.7046  0.2257
  260SOL    HW1  779   2.577   0.801   2.719  0.6189  3.0303  1.9583
  260SOL    HW2  780   2.622   0.649   2.784 -1.9433  0.5688 -0.3008
  261SOL     OW  781   2.708   1.345   1.313  0.0597 -0.3231  0.5629
  261SOL    HW1  782   2.664   1.272   1.250 -0.7115  2.2413 -1.5144
  261SOL    HW2  783   2.809   1.321   1.334 -1.7289 -2.1109 -1.4366
  262SOL     OW  784   1.478   2.924   2.042 -0.3450 -0.3305 -0.3488
  262SOL    HW1  785   1.472   2.993   1.960  0.2366  1.0173 -1.9116
  262SOL    HW2  786   1.399   2.859   2.053 -1.2047  0.9389  0.2840
  263SOL     OW  787   0.887   0.784   2.309 -0.4728 -0.4743 -0.5715
  263SOL    HW1  788   0.836   0.697   2.280 -0.6936 -1.1140 -1.4776
  263SOL    HW2  789   0.894   0.848   2.225 -0.1170  1.4843 -0.9964
  264SOL     OW  790   2.266   0.756   0.505 -0.3769 -0.3210 -0.2713
  264SOL    HW1  791   2.167   0.789   0.481  1.3674  0.3457 -0.1525
  264SOL    HW2  792   2.320   0.837   0.545 -1.0537  0.7117  0.5814
  265SOL     OW  793   0.869   2.329   2.689  0.1513 -0.2754  0.0841
  265SOL    HW1  794   0.881   2.399   2.768 -0.3349 -2.2515 -0.3688
  265SOL    HW2  795   0.838   2.239   2.723 -0.0345 -0.0023  1.6425
  266SOL     OW  796   1.336   1.716   0.042 -0.1318 -0.2361  0.0338
  266SOL    HW1  797   1.308   1.804   0.090 -0.4236 -0.0650  0.7274
  266SOL    HW2  798   1.434   1.701   0.067  1.4321 -0.2222 -0.1130
  267SOL     OW  799   1.069   0.027   2.371  0.3300 -0.1613  0.2705
  267SOL    HW1  800   1.050  -0.049   2.305  0.8508 -1.1619  3.7319
  267SOL    HW2  801   1.019   0.114   2.348  1.7567  0.6828 -0.2082
  268SOL     OW  802   0.639   1.154   1.034  0.5658  0.3750  0.2905
  268SOL    HW1  803   0.663   1.205   1.123 -0.1825 -2.3414  0.6136
  268SOL    HW2  804   0.650   1.219   0.950 -1.6191  4.1719 -0.0743
  269SOL     OW  805   2.446   2.537   1.602 -0.1370 -1.1235  0.4651
  269SOL    HW1  806   2.546   2.512   1.583 -0.5908  0.0443  2.6148
  269SOL    HW2  807   2.427   2.556   1.702 -1.6670  0.2359 -1.9507
  270SOL     OW  808   0.226   2.905   2.003 -0.3248  0.9443 -1.0399
  270SOL    HW1  809   0.248   2.882   1.904 -1.1964 -0.6388 -0.0763
  270SOL    HW2  810   0.141   2.852   2.029 -0.1447  0.2476 -0.6556
  271SOL     OW  811   0.450   1.397   1.190 -0.3022  0.0549  0.3067
  271SOL    HW1  812   0.424   1.423   1.092 -0.8844  2.6391 -0.9805
  271SOL    HW2  813   0.378   1.407   1.267  0.4490 -1.1567 -0.2736
  272SOL     OW  814   1.916   2.883   1.902 -0.5620  0.3889 -0.3183
  272SOL    HW1  815   1.879   2.823   1.824  0.0273  1.3120  1.7668
  272SOL    HW2  816   2.005   2.932   1.874  0.5579  0.6727 -1.0152
  273SOL     OW  817   1.455   1.446   2.859  0.5403 -0.4873 -0.3528
  273SOL    HW1  818   1.537   1.466   2.919 -0.2171  1.2017  0.3381
  273SOL    HW2  819   1.364   1.451   2.911 -0.6180  2.8441 -0.5209
  274SOL     OW  820   1.176   0.520   2.036  0.0611 -0.1478 -0.0368
  274SOL    HW1  821   1.209   0.436   1.986  1.3444 -1.5501 -0.7519
  274SOL    HW2  822   1.234   0.546   2.115 -3.6917  0.0329 -2.3647
  275SOL     OW  823   0.623   2.066   1.980 -0.0233 -0.0447  0.7585
  275SOL    HW1  824   0.597   2.170   1.990 -1.0299  2.8353  1.4317
  275SOL    HW2  825   0.546   2.003   1.954  1.3908 -1.0170  1.8845
  276SOL     OW  826   2.162   0.997   2.810 -0.0346  0.1120 -0.1655
  276SOL    HW1  827   2.089   0.988   2.730  0.2538 -1.1706  0.5025
  276SOL    HW2  828   2.155   0.921   2.876  1.2970  0.3890 -1.2440
  277SOL     OW  829   3.035   0.838   0.189 -0.3307  0.3301 -0.4065
  277SOL    HW1  830   3.121   0.847   0.126  4.5544 -1.3614  0.2756
  277SOL    HW2  831   3.053   0.769   0.267  1.2362  0.9175  2.9634
  278SOL     OW  832   0.187   0.261   2.976 -0.1494 -0.6731  0.5426
  278SOL    HW1  833   0.221   0.201   3.048 -1.2462 -1.2053 -1.4269
  278SOL    HW2  834   0.212   0.358   3.004  2.3498  2.0783  1.5100
  279SOL     OW  835   0.152   3.094   0.861  0.2534  0.6229 -0.1734
  279SOL    HW1  836   0.169   3.114   0.962 -0.6934  2.4206  1.1082
  279SOL    HW2  837   0.236   3.103   0.801 -2.4862 -0.5773 -1.8991
  280SOL     OW  838   1.683   2.946   2.522  0.2058 -0.3337  0.1110
  280SOL    HW1  839   1.749   3.030   2.531  3.4074  3.2919 -2.0086
  280SOL    HW2  840   1.585   2.981   2.511 -1.6455  2.2420 -1.5500
  281SOL     OW  841   0.608   0.957   2.354 -0.9240  0.4744 -0.5574
  281SOL    HW1  842   0.584   0.862   2.319 -1.9289  0.5063 -0.3001
  281SOL    HW2  843   0.618   0.960   2.460  1.1413  2.8552  0.1052
  282SOL     OW  844   1.680   2.439   0.528  0.6239  0.1066 -0.6444
  282SOL    HW1  845   1.663   2.372   0.450 -2.5180 -0.7826 -1.6886
  282SOL    HW2  846   1.617   2.522   0.525 -1.8114 -2.9441 -0.0833
  283SOL     OW  847   1.168   0.974   0.725  0.1860 -0.0871  0.6589
  283SOL    HW1  848   1.166   0.886   0.784 -0.8578  2.2723  1.8809
  283SOL    HW2  849   1.114   1.051   0.765  0.9162  1.3056  0.4361
  284SOL     OW  850   2.300   2.791   2.392  0.3519 -0.1436 -0.5441
  284SOL    HW1  851   2.404   2.783   2.365  0.6100 -0.9311 -0.4185
  284SOL    HW2  852   2.281   2.852   2.473  2.5496 -2.5549  3.6596
  285SOL     OW  853   1.380   3.006   2.544 -0.4493 -0.7706 -1.0017
  285SOL    HW1  854   1.395   3.040   2.447  0.9191 -0.2512  1.2777
  285SOL    HW2  855   1.288   3.034   2.580 -2.6710 -2.0710 -1.1985
  286SOL     OW  856   0.467   0.463   0.670  0.5558 -0.6332  0.5456
  286SOL    HW1  857   0.435   0.418   0.758 -0.5128  1.6454  0.1119
  286SOL    HW2  858   0.440   0.406   0.589  1.7688 -0.6567  1.0597
  287SOL     OW  859   0.086   1.340   2.486  0.2673  0.0889 -0.5732
  287SOL    HW1  860   0.065   1.252   2.538  2.3593  0.7640 -0.1762
  287SOL    HW2  861   0.053   1.420   2.539  0.4723 -0.0844  0.1718
  288SOL     OW  862   1.589   2.638   1.469  0.3196  0.3570 -0.4573
  288SOL    HW1  863   1.677   2.619   1.506  0.6050  0.5206  2.4609
  288SOL    HW2  864   1.572   2.617   1.369 -0.8005  1.0701  0.9256
  289SOL     OW  865   0.685   2.738   0.776 -0.2180  0.2798 -0.2310
  289SOL    HW1  866   0.687   2.815   0.704 -0.6688  0.6310 -2.5115
  289SOL    HW2  867   0.740   2.755   0.860 -1.5530 -0.2715 -0.6965
  290SOL     OW  868   2.923   1.229   1.618 -0.8952 -0.4365  0.0292
  290SOL    HW1  869   2.847   1.284   1.659  2.5740 -1.4402 -0.9804
  290SOL    HW2  870   2.972   1.175   1.693 -1.8858 -2.9643 -1.0988
  291SOL     OW  871   1.962   0.028   0.055  0.1671  0.4011  0.4002
  291SOL    HW1  872   2.010   0.023   0.147  1.2909  0.2487 -0.2539
  291SOL    HW2  873   1.992   0.105  -0.008 -0.1930  0.0974 -1.5011
  292SOL     OW  874   2.948   1.192   3.045  0.0696 -0.4808 -0.0294
  292SOL    HW1  875   2.876   1.244   2.991  0.0685  0.1145  1.2007
  292SOL    HW2  876   3.043   1.185   2.999  1.9344  0.0646  1.2499
  293SOL     OW  877   0.598   2.077   0.128  1.1853 -0.2676 -0.0137
  293SOL    HW1  878   0.570   2.135   0.207  0.6405 -0.9572 -0.4454
  293SOL    HW2  879   0.695   2.040   0.131  0.6990 -1.6909 -0.7628
  294SOL     OW  880   1.682   2.148   1.792 -0.2421 -0.3306 -0.8223
  294SOL    HW1  881   1.680   2.190   1.888  1.4634 -1.1643  0.2069
  294SOL    HW2  882   1.684   2.215   1.712  1.7243  0.5546 -3.5527
  295SOL     OW  883   0.957   1.057   0.401  0.3827 -0.9057 -0.2606
  295SOL    HW1  884   1.056   1.033   0.417  1.4596 -0.2940 -0.7702
  295SOL    HW2  885   0.904   1.071   0.494  1.0640 -3.3731 -1.4244
  296SOL     OW  886   1.292   2.048   2.505  0.2240 -0.4036  0.2684
  296SOL    HW1  887   1.294   2.083   2.400  2.1102 -0.1438 -2.8732
  296SOL    HW2  888   1.298   1.941   2.502 -2.1062 -1.1393 -1.5106
  297SOL     OW  889   1.495   0.679   1.353 -0.5882 -0.6423 -0.2198
  297SOL    HW1  890   1.565   0.606   1.336 -1.2334 -0.6629 -2.4990
  297SOL    HW2  891   1.518   0.748   1.428  0.6164 -0.5972 -0.0316
  298SOL     OW  892   0.489   1.233   2.856 -0.1963 -0.5568  0.2090
  298SOL    HW1  893   0.500   1.139   2.896 -2.4398 -1.7156  0.1604
  298SOL    HW2  894   0.562   1.259   2.783  1.0396  0.9407  1.0675
  299SOL     OW  895   0.392   0.328   1.433  0.3245  0.0799  0.2861
  299SOL    HW1  896   0.389   0.416   1.378 -0.8031 -1.4196 -0.6840
  299SOL    HW2  897   0.492   0.299   1.445 -0.9609 -1.1367  2.0319
  300SOL     OW  898   1.233   1.798   2.874  0.3308  0.1123  0.2415
  300SOL    HW1  899   1.217   1.727   2.797  0.9746 -1.2495  1.8496
  300SOL    HW2  900   1.250   1.749   2.961 -2.4299  1.0903 -0.7478
  301SOL     OW  901   0.435   0.280   0.439 -0.2868 -0.0423 -0.5482
  301SOL    HW1  902   0.335   0.278   0.407  1.8712  0.4422 -4.4569
  301SOL    HW2  903   0.495   0.206   0.393 -0.0959  0.6708  4.1994
  302SOL     OW  904   1.231   2.284   2.320  0.0846  1.0036  0.3730
  302SOL    HW1  905   1.172   2.329   2.391 -0.3807 -1.4636 -1.5186
  302SOL    HW2  906   1.202   2.184   2.293 -2.0069 -2.4135 -0.8942
  303SOL     OW  907   0.922   2.344   0.793  0.1968  0.0319  0.0536
  303SOL    HW1  908   0.942   2.420   0.721 -2.8841  1.2857 -1.0462
  303SOL    HW2  909   0.913   2.382   0.889  0.1120  2.2389  0.1358
  304SOL     OW  910   0.138   2.086   0.658  0.4654  0.7544  0.5519
  304SOL    HW1  911   0.163   2.014   0.583 -0.6307  1.4488  0.1120
  304SOL    HW2  912   0.070   2.149   0.615  0.5985 -1.8960  1.4490
  305SOL     OW  913   1.624   0.893   0.666 -0.0713  0.4547 -0.4522
  305SOL    HW1  914   1.589   0.902   0.572  0.3965 -3.3947 -0.9492
  305SOL    HW2  915   1.702   0.826   0.673 -1.1037 -0.1837 -3.7952
  306SOL     OW  916   0.433   1.867   1.894 -0.0295 -0.1550 -0.0169
  306SOL    HW1  917   0.508   1.820   1.838 -0.0414 -2.0679 -3.5102
  306SOL    HW2  918   0.407   1.821   1.983 -2.8894  1.4904 -1.3165
  307SOL     OW  919   0.021   0.823   2.567  0.0285 -0.1471  0.3896
  307SOL    HW1  920   0.016   0.928   2.567 -1.0648  1.1365  1.8589
  307SOL    HW2  921  -0.070   0.794   2.612 -0.9090 -0.4577 -0.9749
  308SOL     OW  922   1.576   2.631   2.855 -0.0082 -0.3925  0.1707
  308SOL    HW1  923   1.602   2.613   2.755  2.1872 -1.2492  3.2632
  308SOL    HW2  924   1.517   2.560   2.896 -2.4826  0.8763  0.0115
  309SOL     OW  925   1.231   0.032   1.768 -0.3795  0.1501 -0.0865
  309SOL    HW1  926   1.328   0.017   1.820  3.7604  2.1245 -1.3969
  309SOL    HW2  927   1.242   0.044   1.665 -0.0562  1.7116 -0.6235
  310SOL     OW  928   1.341   2.646   0.715  0.4746 -0.1045 -0.0368
  310SOL    HW1  929   1.292   2.736   0.704  0.9471 -0.1246  1.6921
  310SOL    HW2  930   1.439   2.638   0.681 -0.2004 -5.3612 -2.0826
  311SOL     OW  931   1.220   0.927   1.492  0.4200 -0.2227  0.8176
  311SOL    HW1  932   1.269   0.879   1.412 -1.8932 -0.8319  0.2450
  311SOL    HW2  933   1.239   1.024   1.505 -0.4481 -2.5800  2.5653
  312SOL     OW  934   1.606   0.685   0.955  0.0387 -0.0939 -0.5531
  312SOL    HW1  935   1.564   0.783   0.949  0.0110  1.1481 -0.4445
  312SOL    HW2  936   1.531   0.611   0.940 -0.9219  0.1051  0.9627
  313SOL     OW  937   1.573   1.442   0.616 -0.3408 -0.2181  0.1197
  313SOL    HW1  938   1.476   1.479   0.599 -1.2422 -1.5653 -0.1898
  313SOL    HW2  939   1.584   1.341   0.595  1.5841  1.6757  0.9774
  314SOL     OW  940   2.953   0.005   2.986 -0.0805 -0.3170  0.4541
  314SOL    HW1  941   2.929   0.081   3.058 -1.9272  4.1443 -2.7289
  314SOL    HW2  942   2.887  -0.075   2.990 -1.4381 -0.5727  0.9370
  315SOL     OW  943   1.253   0.230   2.781  0.0298  0.1050 -0.1766
  315SOL    HW1  944   1.190   0.159   2.735  2.2609 -2.7801  2.2734
  315SOL    HW2  945   1.268   0.211   2.882 -1.0813  1.1963  0.8984
  316SOL     OW  946   1.686   2.075   0.892  0.2921 -0.3346  0.2413
  316SOL    HW1  947   1.644   2.072   0.986  1.6043  0.0948 -1.5870
  316SOL    HW2  948   1.691   2.177   0.860  1.5374  3.0428  0.0101
  317SOL     OW  949   1.139   0.693   2.859 -0.4298 -0.4620  0.1130
  317SOL    HW1  950   1.069   0.746   2.917 -2.5638  1.5001 -0.0104
  317SOL    HW2  951   1.088   0.616   2.809 -1.9380  1.2467  0.1121
  318SOL     OW  952   1.439   3.075   2.283  0.4946 -0.0001  0.9059
  318SOL    HW1  953   1.407   3.163   2.232 -3.1166  3.7996 -0.6777
  318SOL    HW2  954   1.468   2.995   2.224 -1.1798 -2.4442 -0.2774
  319SOL     OW  955   0.639   2.395   2.942  0.1695  0.2534  0.0092
  319SOL    HW1  956   0.560   2.351   2.998 -2.7688 -0.6036 -0.0886
  319SOL    HW2  957   0.702   2.327   2.890  0.5464 -1.4337 -0.0440
  320SOL     OW  958   1.627   2.227   0.376  0.0018 -0.6547 -0.2256
  320SOL    HW1  959   1.714   2.176   0.380 -0.9593  0.1576 -1.2961
  320SOL    HW2  960   1.555   2.179   0.434  1.3777 -1.4004  2.5837
  321SOL     OW  961   1.581   2.704   0.529  0.2923 -0.2125  0.0946
  321SOL    HW1  962   1.529   2.774   0.475 -1.4685 -2.5484 -0.6334
  321SOL    HW2  963   1.665   2.748   0.573 -2.3060  1.9471  0.4329
  322SOL     OW  964   2.629   1.135   2.282 -0.2959  0.1879  0.6130
  322SOL    HW1  965   2.697   1.156   2.358  2.1246 -1.6628 -2.6672
  322SOL    HW2  966   2.576   1.042   2.292 -1.8766  1.6225 -1.6164
  323SOL     OW  967   0.985   2.701   0.823 -0.5335 -0.3258 -0.3900
  323SOL    HW1  968   0.985   2.649   0.730 -1.3150 -2.7074 -1.7417
  323SOL    HW2  969   0.994   2.806   0.806  0.8966 -1.9292 -0.7388
  324SOL     OW  970   0.119   2.475   2.453  0.2417  0.0851  0.3876
  324SOL    HW1  971   0.105   2.381   2.496  1.5458  1.6441 -0.4019
  324SOL    HW2  972   0.062   2.553   2.492 -0.9785 -1.0617 -0.1746
  325SOL     OW  973   1.196   3.094   0.463 -0.0012  0.1867 -0.1224
  325SOL    HW1  974   1.230   3.122   0.372  0.8939  0.7976 -1.7662
  325SOL    HW2  975   1.239   3.150   0.539 -1.0239  0.0631  1.8779
  326SOL     OW  976   2.401   0.752   3.098  0.6529  0.0424 -0.1397
  326SOL    HW1  977   2.354   0.695   3.027 -0.9596  0.1279 -1.3914
  326SOL    HW2  978   2.467   0.698   3.155 -2.0103  0.3903  1.5074
  327SOL     OW  979   2.742   0.401   0.541  0.7056 -0.1784 -0.0470
  327SOL    HW1  980   2.729   0.392   0.437  2.3034 -2.6286  0.6371
  327SOL    HW2  981   2.658   0.377   0.598  0.0752 -1.8550  1.4867
  328SOL     OW  982   2.478   0.560   0.442 -0.0017 -0.4491  0.1670
  328SOL    HW1  983   2.412   0.635   0.460 -0.8838 -3.5927 -0.1319
  328SOL    HW2  984   2.501   0.515   0.532  0.8988  0.2976 -1.2957
  329SOL     OW  985   2.991   3.021   2.153 -0.3699 -0.1097 -0.1586
  329SOL    HW1  986   3.029   2.968   2.233  0.0162  2.0807 -1.3388
  329SOL    HW2  987   3.042   3.111   2.142 -0.9260  1.2129  1.1914
  330SOL     OW  988   0.518   0.159   1.897 -0.1395 -0.1827  0.1902
  330SOL    HW1  989   0.556   0.255   1.881  0.3948 -0.5240  1.5117
  330SOL    HW2  990   0.558   0.112   1.980 -3.1725  2.8175  2.0265
  331SOL     OW  991   2.947   1.904   1.133 -0.0644  0.1162  0.2618
  331SOL    HW1  992   2.996   1.975   1.074 -0.9636 -0.0944  0.5556
  331SOL    HW2  993   2.871   1.953   1.186 -1.7520  0.8149  2.3347
  332SOL     OW  994   0.428   1.064   0.052  0.7260  0.4461  0.0387
  332SOL    HW1  995   0.342   1.032   0.008  0.8313 -0.5834 -0.6098
  332SOL    HW2  996   0.417   1.161   0.094 -0.0045  1.8006  1.4018
  333SOL     OW  997   2.836   1.013   0.288  0.4317 -0.1188  0.4318
  333SOL    HW1  998   2.852   1.098   0.346  1.9835  0.2254 -1.6999
  333SOL    HW2  999   2.924   0.963   0.262 -0.9999 -0.6801 -0.3869
  334SOL     OW 1000   1.657   1.157   1.912 -0.1319 -0.0173  0.2204
  334SOL    HW1 1001   1.724   1.129   1.836 -0.0713  0.0325  0.2883
  334SOL    HW2 1002   1.674   1.246   1.956 -1.5841 -1.9834  1.3983
  335SOL     OW 1003   1.982   2.781   2.615  0.2734  0.0005  0.8423
  335SOL    HW1 1004   1.911   2.772   2.690 -1.1461  0.8400 -2.7089
  335SOL    HW2 1005   2.057   2.852   2.638  1.2966 -1.5587 -3.1901
  336SOL     OW 1006   0.248   0.101   2.740  0.1836  0.2696  0.0487
  336SOL    HW1 1007   0.343   0.053   2.733  1.2750 -1.5873  1.7067
  336SOL    HW2 1008   0.237   0.184   2.801 -1.9665  0.5997 -1.6764
  337SOL     OW 1009   0.912   2.792   2.836 -0.2350 -0.8322  0.3192
  337SOL    HW1 1010   0.897   2.770   2.936  1.4953  0.1164  0.5324
  337SOL    HW2 1011   1.012   2.791   2.819 -0.1832 -2.4531 -0.5612
  338SOL     OW 1012   0.006   1.017   0.609  0.1677 -0.1044 -0.1626
  338SOL    HW1 1013  -0.093   1.001   0.633  2.3550 -2.3345  1.0844
  338SOL    HW2 1014   0.036   1.118   0.620  1.9774 -1.7213  0.1945
  339SOL     OW 1015   1.675   1.392   2.069  0.0668  0.4940 -0.0124
  339SOL    HW1 1016   1.575   1.413   2.100 -0.6928 -0.5498 -0.0228
  339SOL    HW2 1017   1.738   1.479   2.066  0.9346 -0.9604  2.0927
  340SOL     OW 1018   2.299   0.793   1.175 -0.5578  0.5971  0.1106
  340SOL    HW1 1019   2.202   0.830   1.192 -0.0696 -0.9564 -1.3008
  340SOL    HW2 1020   2.303   0.697   1.137  0.2825  1.5768  0.3682
  341SOL     OW 1021   1.893   2.154   0.375  0.4161 -0.4647 -0.6464
  341SOL    HW1 1022   1.902   2.190   0.278  2.2879 -0.3216 -1.6313
  341SOL    HW2 1023   1.993   2.153   0.418  1.8800 -2.3252  0.6170
  342SOL     OW 1024   2.208   2.096   2.743  0.0018 -0.3965  0.3107
  342SOL    HW1 1025   2.266   2.008   2.738 -0.4631 -4.0056 -2.5993
  342SOL    HW2 1026   2.130   2.093   2.808  2.5019 -2.2614 -0.5436
  343SOL     OW 1027   0.349   0.856   2.806 -0.1340 -0.2978 -1.2696
  343SOL    HW1 1028   0.347   0.933   2.739 -1.6027 -1.6277  2.8233
  343SOL    HW2 1029   0.450   0.831   2.828  0.0149  1.8047  0.3644
  344SOL     OW 1030   1.913   1.478   0.366 -0.9406 -0.1720  0.4833
  344SOL    HW1 1031   1.906   1.417   0.285  2.3892 -1.9198  3.1354
  344SOL    HW2 1032   1.833   1.546   0.369 -0.2049  2.2729 -4.8643
  345SOL     OW 1033   1.382   2.209   2.839 -0.2187  0.1720  0.1956
  345SOL    HW1 1034   1.295   2.155   2.816 -1.4865  0.2504  0.3221
  345SOL    HW2 1035   1.469   2.167   2.800 -0.4489  0.7583 -1.1971
  346SOL     OW 1036   2.368   0.865   1.437 -0.6486 -0.4881 -0.0146
  346SOL    HW1 1037   2.304   0.946   1.453 -2.2292 -0.8125  0.3254
  346SOL    HW2 1038   2.365   0.832   1.337 -0.5348 -1.8107  0.7501
  347SOL     OW 1039   0.713   2.825   1.484  0.7411  0.0699  0.2948
  347SOL    HW1 1040   0.718   2.770   1.571 -0.9352  2.8735  0.6088
  347SOL    HW2 1041   0.623   2.871   1.471  1.5678  0.6539 -0.1125
  348SOL     OW 1042   0.108   0.713   2.868  0.2058 -0.1670  0.0478
  348SOL    HW1 1043   0.030   0.703   2.797 -1.3363 -2.0797  1.2149
  348SOL    HW2 1044   0.198   0.750   2.828  2.3946 -0.8711 -0.7026
  349SOL     OW 1045   1.900   0.423   2.809 -0.2832  0.3943 -0.3471
  349SOL    HW1 1046   1.909   0.510   2.756  0.7741  1.5563  2.0267
  349SOL    HW2 1047   1.859   0.432   2.905  2.1014  2.0020  0.5650
  350SOL     OW 1048   1.700   0.409   0.362  0.0217  0.1176  0.3628
  350SOL    HW1 1049   1.753   0.436   0.445  2.5280 -1.1751 -1.7299
  350SOL    HW2 1050   1.623   0.470   0.335  1.6171 -3.1559 -0.4723
  351SOL     OW 1051   0.902   0.922   2.081  0.4064  0.0211 -0.2768
  351SOL    HW1 1052   0.907   1.026   2.064 -0.3483  1.7129  1.0763
  351SOL    HW2 1053   0.870   0.875   1.997  2.2720 -1.3293  2.3853
  352SOL     OW 1054   1.991   1.352   0.603 -0.2210 -0.6523 -0.1468
  352SOL    HW1 1055   1.962   1.382   0.509  0.0231  0.8300  0.7541
  352SOL    HW2 1056   2.067   1.404   0.642  0.8915 -0.4840  1.2710
  353SOL     OW 1057   2.135   2.865   1.128 -0.1159  0.1027  0.1068
  353SOL    HW1 1058   2.236   2.846   1.154 -0.0609 -0.0846  0.2872
  353SOL    HW2 1059   2.096   2.791   1.067  0.9500  0.7599  0.8349
  354SOL     OW 1060   0.273   1.386   2.858 -0.7032  0.2149 -0.2923
  354SOL    HW1 1061   0.260   1.459   2.779 -0.8181  0.3510 -1.3114
  354SOL    HW2 1062   0.355   1.324   2.842 -1.6937 -0.1117  1.1508
  355SOL     OW 1063   0.457   1.497   0.560  0.5412  0.0273  0.1422
  355SOL    HW1 1064   0.464   1.598   0.571 -0.4792  1.1958  0.2025
  355SOL    HW2 1065   0.544   1.448   0.567  0.9163  2.4084 -1.5210
  356SOL     OW 1066   0.887   0.417   2.114  0.1745 -0.6039  0.6134
  356SOL    HW1 1067   0.981   0.458   2.084  0.5244  2.8332 -1.6089
  356SOL    HW2 1068   0.861   0.328   2.066  0.8846  0.0101 -1.2751
  357SOL     OW 1069   1.058   1.293   0.230  0.3742 -0.3444  0.7326
  357SOL    HW1 1070   0.989   1.287   0.147 -2.1287 -0.9248 -2.1692
  357SOL    HW2 1071   1.023   1.222   0.300  0.2511 -2.2332  0.9083
  358SOL     OW 1072   1.660   1.602   0.387  0.2565 -0.7561  0.8411
  358SOL    HW1 1073   1.613   1.537   0.451 -0.3217 -1.7882  0.9031
  358SOL    HW2 1074   1.597   1.671   0.349  0.7530  0.4016 -0.6712
  359SOL     OW 1075   1.561   2.705   0.182  0.3557 -0.0668 -0.1239
  359SOL    HW1 1076   1.556   2.629   0.107 -1.0493 -1.6605 -0.4738
  359SOL    HW2 1077   1.474   2.743   0.210  2.8514  0.1813 -1.7707
  360SOL     OW 1078   0.885   0.593   0.484  0.4170  0.5448  0.4612
  360SOL    HW1 1079   0.802   0.594   0.545 -1.4784  0.1778  1.6570
  360SOL    HW2 1080   0.934   0.500   0.480 -1.1424 -0.1830  0.1416
  361SOL     OW 1081   1.250   1.394   0.670 -0.0721 -0.1541 -0.4717
  361SOL    HW1 1082   1.289   1.385   0.768  1.7883  1.3274  1.9286
  361SOL    HW2 1083   1.150   1.415   0.668 -1.0046 -2.7567 -1.1936
  362SOL     OW 1084   1.402   1.767   0.788  0.1275  0.0748 -0.4427
  362SOL    HW1 1085   1.422   1.701   0.866  0.0399  0.0760 -1.0019
  362SOL    HW2 1086   1.481   1.838   0.777  0.0423 -1.8391  0.8118
  363SOL     OW 1087   1.147   1.367   1.999  0.3101 -0.0177 -0.0551
  363SOL    HW1 1088   1.135   1.445   2.063 -1.1144 -0.2817 -0.6112
  363SOL    HW2 1089   1.197   1.395   1.913  1.0372 -1.3584  2.3630
  364SOL     OW 1090   0.582   2.340   1.970  0.0586 -0.7199  0.7833
  364SOL    HW1 1091   0.494   2.396   1.978 -0.3481 -2.3240 -1.2700
  364SOL    HW2 1092   0.638   2.367   1.888 -0.7481  0.5954 -1.0442
  365SOL     OW 1093   1.097   1.913   1.368 -0.1480  0.5274 -0.0792
  365SOL    HW1 1094   1.012   1.915   1.429 -2.0888  1.4692  0.6261
  365SOL    HW2 1095   1.095   1.844   1.288  0.5688 -0.8675 -0.1921
  366SOL     OW 1096   2.814   2.060   0.481  0.0677 -0.0333 -0.3805
  366SOL    HW1 1097   2.737   1.987   0.479  1.1294 -0.1531 -0.4459
  366SOL    HW2 1098   2.902   2.022   0.451  1.0397 -0.5189  1.4438
  367SOL     OW 1099   0.796   1.238   0.086  0.3361 -0.4605 -0.3403
  367SOL    HW1 1100   0.800   1.132   0.101  1.3697  0.2035 -1.9635
  367SOL    HW2 1101   0.805   1.252  -0.020 -1.2585 -2.3923 -1.2365
  368SOL     OW 1102   1.568   0.521   0.678  0.1127  0.3042  0.1718
  368SOL    HW1 1103   1.523   0.568   0.599 -2.1645 -0.2575  1.9563
  368SOL    HW2 1104   1.644   0.576   0.721  0.1665  1.4527  1.7276
  369SOL     OW 1105   0.288   1.697   0.100  0.0031  0.1965  0.5645
  369SOL    HW1 1106   0.334   1.775   0.147  0.2205 -4.1451 -1.4819
  369SOL    HW2 1107   0.184   1.701   0.111 -1.7286 -0.8215 -3.8928
  370SOL     OW 1108   0.420   2.125   0.966 -0.6802 -0.2170 -0.1748
  370SOL    HW1 1109   0.426   2.228   0.969 -1.8696  0.4189  0.6932
  370SOL    HW2 1110   0.320   2.096   0.967 -0.4084 -0.4703  2.6638
  371SOL     OW 1111   2.902   2.206   2.754  0.0295 -0.1300  0.0178
  371SOL    HW1 1112   2.889   2.211   2.856  0.4903 -2.3471 -3.3739
  371SOL    HW2 1113   2.999   2.223   2.723  2.0994 -1.6496  1.5012
  372SOL     OW 1114   0.910   1.873   0.957 -0.0931 -0.1478 -0.2781
  372SOL    HW1 1115   0.888   1.967   0.998 -1.0408  1.7616 -2.6295
  372SOL    HW2 1116   0.998   1.868   0.906  0.9363 -1.2731  0.9466
  373SOL     OW 1117   1.975   2.022   0.919 -0.0206 -0.5715  0.1497
  373SOL    HW1 1118   2.049   2.005   0.992  0.2867  1.0387 -1.0473
  373SOL    HW2 1119   1.878   2.027   0.959  0.7137 -2.9718 -0.1617
  374SOL     OW 1120   1.898   0.422   0.553  0.3677  0.1679 -0.5824
  374SOL    HW1 1121   1.890   0.364   0.644  2.3221  1.5686 -1.9909
  374SOL    HW2 1122   1.991   0.394   0.516  3.3005  1.5508  0.3745
  375SOL     OW 1123   2.430   2.233   1.092 -0.5670 -0.8390 -0.0673
  375SOL    HW1 1124   2.461   2.182   1.009 -0.6359 -0.7763  0.5678
  375SOL    HW2 1125   2.470   2.202   1.187 -1.0484 -0.3978 -0.6880
  376SOL     OW 1126   3.046   0.607   1.444 -0.1513  0.0649  0.0533
  376SOL    HW1 1127   3.104   0.665   1.506 -2.5062  0.3526 -1.1765
  376SOL    HW2 1128   2.945   0.615   1.471 -1.3653 -1.9166  1.9604
  377SOL     OW 1129   2.240   2.887   0.365 -0.0092  0.1542 -0.0602
  377SOL    HW1 1130   2.255   2.990   0.392  2.5601 -0.2525  0.1142
  377SOL    HW2 1131   2.332   2.844   0.341  2.0819  0.0167  0.8285
  378SOL     OW 1132   1.879   1.884   2.648 -0.4965  0.6071 -0.2343
  378SOL    HW1 1133   1.885   1.780   2.648  1.3352 -0.1710 -1.4483
  378SOL    HW2 1134   1.917   1.927   2.561  2.2770 -2.6970 -0.3081
  379SOL     OW 1135   0.875   0.099   2.709 -0.1552 -0.2856  0.2315
  379SOL    HW1 1136   0.838   0.010   2.664 -0.7665 -2.0783 -2.0497
  379SOL    HW2 1137   0.810   0.178   2.707 -0.1717  0.4632  2.3023
  380SOL     OW 1138   1.539   1.151   0.575  0.0712 -0.2353  0.0671
  380SOL    HW1 1139   1.451   1.147   0.519 -4.3137  0.5124  2.4573
  380SOL    HW2 1140   1.538   1.083   0.658  0.1289 -1.9498  0.0844
  381SOL     OW 1141   1.284   1.214   1.501  0.5688  0.1193  0.0499
  381SOL    HW1 1142   1.342   1.220   1.413  0.2811 -0.6925  1.8500
  381SOL    HW2 1143   1.343   1.218   1.584 -0.3116  0.0537 -0.8063
  382SOL     OW 1144   1.731   0.826   0.285  0.0009  0.0209 -0.3897
  382SOL    HW1 1145   1.759   0.802   0.188  0.3444  0.8265 -1.4759
  382SOL    HW2 1146   1.817   0.830   0.348  0.5730  0.7838  1.3763
  383SOL     OW 1147   2.617   1.021   1.523 -0.6486  0.3210  0.3758
  383SOL    HW1 1148   2.554   0.998   1.448  0.7237  2.2083 -0.5728
  383SOL    HW2 1149   2.721   1.015   1.492  1.6953 -1.3599 -0.4203
  384SOL     OW 1150   0.969   2.268   0.161 -0.5846  0.0722 -0.3118
  384SOL    HW1 1151   0.897   2.329   0.209 -0.2313  0.7839 -3.0704
  384SOL    HW2 1152   0.949   2.168   0.173 -2.1057 -2.3851  5.5652
  385SOL     OW 1153   3.024   2.019   1.710  0.3189 -0.2447  0.4251
  385SOL    HW1 1154   3.096   2.090   1.703 -0.4512 -0.5609  1.2631
  385SOL    HW2 1155   3.055   1.926   1.698 -7.2404  1.3327 -1.0294
  386SOL     OW 1156   0.440   1.117   0.449 -0.2842  0.4170  0.0324
  386SOL    HW1 1157   0.469   1.017   0.441  2.4212 -1.3584 -0.7305
  386SOL    HW2 1158   0.377   1.150   0.375 -1.2594 -2.5342  2.1783
  387SOL     OW 1159   0.965   0.346   1.687  0.3083  0.1331 -0.0925
  387SOL    HW1 1160   1.028   0.426   1.680 -0.8730 -1.5429 -0.6387
  387SOL    HW2 1161   0.958   0.296   1.590 -0.3911 -1.3454 -1.6216
  388SOL     OW 1162   1.213   2.591   1.775 -0.3261  0.5846  0.4390
  388SOL    HW1 1163   1.250   2.617   1.687 -0.4579 -0.7979  1.3448
  388SOL    HW2 1164   1.271   2.523   1.824 -0.0506 -0.1084 -1.2614
  389SOL     OW 1165   0.244   3.080   1.136 -0.0857 -0.3032  0.4145
  389SOL    HW1 1166   0.192   3.091   1.223  1.3842 -0.1945 -0.8610
  389SOL    HW2 1167   0.309   2.999   1.135  1.4237 -2.7934  3.3337
  390SOL     OW 1168   0.999   0.840   1.269  0.1812  0.6075 -0.3536
  390SOL    HW1 1169   1.096   0.811   1.256 -0.4455  0.7950  1.2746
  390SOL    HW2 1170   0.981   0.830   1.374  0.6210  0.6115  1.2908
  391SOL     OW 1171   2.136   1.158   1.011 -0.5339 -0.5224 -0.0442
  391SOL    HW1 1172   2.070   1.074   1.010  0.9268 -0.3102 -1.7933
  391SOL    HW2 1173   2.223   1.140   0.953  1.4060  0.2391  1.4846
  392SOL     OW 1174   0.881   2.690   3.088 -0.4180  0.9447 -0.0401
  392SOL    HW1 1175   0.803   2.703   3.152  1.2413 -1.1716 -1.2768
  392SOL    HW2 1176   0.968   2.733   3.123 -1.7693 -0.5775  1.7222
  393SOL     OW 1177   0.329   0.588   1.970 -0.1421 -0.2328 -0.2208
  393SOL    HW1 1178   0.251   0.518   1.965  0.3941  1.0184 -1.4467
  393SOL    HW2 1179   0.411   0.558   1.911 -1.0203 -1.8282 -0.8012
  394SOL     OW 1180   2.813   1.780   2.780  0.0045 -0.3655  0.2376
  394SOL    HW1 1181   2.910   1.781   2.734  1.7167  0.2680  1.9444
  394SOL    HW2 1182   2.765   1.875   2.780  0.4565  2.2974 -0.3929
  395SOL     OW 1183   1.597   1.937   0.664 -0.5471 -0.3403  0.0644
  395SOL    HW1 1184   1.664   1.862   0.630  2.9579  1.3303  1.6148
  395SOL    HW2 1185   1.638   1.988   0.750 -0.7478 -2.0382  2.0698
  396SOL     OW 1186   2.744   2.050   1.289  0.0453  0.2312 -0.7109
  396SOL    HW1 1187   2.767   2.049   1.391  0.4961 -1.8876 -1.9774
  396SOL    HW2 1188   2.650   2.085   1.271 -0.1320  2.0557 -0.3851
  397SOL     OW 1189   1.003   2.123   0.657  0.0327 -0.6138 -0.0810
  397SOL    HW1 1190   0.909   2.090   0.629  2.7415 -0.1653  0.0690
  397SOL    HW2 1191   0.993   2.205   0.717 -2.2531  0.4670  0.9469
  398SOL     OW 1192   2.166   0.030   1.106 -0.8307  0.9216 -0.2080
  398SOL    HW1 1193   2.127  -0.067   1.114 -1.3747 -2.5874  0.3901
  398SOL    HW2 1194   2.093   0.099   1.083  0.5982 -1.6010 -0.8034
  399SOL     OW 1195   2.914   2.602   2.776  1.0175  0.1380 -0.5021
  399SOL    HW1 1196   2.895   2.552   2.681 -0.6794 -1.1186 -1.6608
  399SOL    HW2 1197   2.877   2.548   2.857  1.6588 -1.5398 -0.8129
  400SOL     OW 1198   0.814   1.600   1.274  0.2825  0.0804 -0.0130
  400SOL    HW1 1199   0.765   1.661   1.343  0.8070  0.1938  0.3684
  400SOL    HW2 1200   0.773   1.616   1.179 -1.4343  1.1050 -0.0917
  401SOL     OW 1201   1.853   0.096   1.286  0.0004  0.3273 -0.3903
  401SOL    HW1 1202   1.913   0.130   1.368  0.3606  1.5550 -1.1426
  401SOL    HW2 1203   1.755   0.093   1.320  2.3585 -1.4555  2.9820
  402SOL     OW 1204   1.311   0.178   3.052 -0.5417 -0.2112  0.3736
  402SOL    HW1 1205   1.411   0.167   3.029 -2.5189 -0.5488 -4.0433
  402SOL    HW2 1206   1.291   0.278   3.084  3.3940 -4.9227  0.0821
  403SOL     OW 1207   2.256   1.780   0.989  0.5661 -0.1153 -0.7721
  403SOL    HW1 1208   2.341   1.738   1.029 -2.3495  1.2376  0.4803
  403SOL    HW2 1209   2.251   1.883   1.016 -1.9473  0.7722  1.0429
  404SOL     OW 1210   0.193   2.453   2.778  0.3109  0.0215  0.6611
  404SOL    HW1 1211   0.293   2.432   2.762 -0.7858 -2.0467  1.0134
  404SOL    HW2 1212   0.175   2.544   2.830 -2.0580  1.1954 -2.4102
  405SOL     OW 1213   0.252   2.481   0.586  0.2014  0.2403  0.2790
  405SOL    HW1 1214   0.233   2.443   0.493  1.9179  0.3625 -0.5014
  405SOL    HW2 1215   0.258   2.581   0.590  0.4342  0.4322  0.5822
  406SOL     OW 1216   0.026   1.520   2.984  0.0327 -0.5614  0.0916
  406SOL    HW1 1217   0.112   1.481   2.938  1.8233  0.0143 -0.4298
  406SOL    HW2 1218   0.035   1.537   3.087  0.6035 -0.3684 -0.8513
  407SOL     OW 1219   1.542   0.955   0.957 -0.2410 -0.0602 -0.2513
  407SOL    HW1 1220   1.553   0.954   0.856 -1.0989 -1.5018 -0.1894
  407SOL    HW2 1221   1.477   1.029   0.991  0.8140  3.0666 -1.0740
  408SOL     OW 1222   1.458   2.345   0.940 -0.3445 -0.4234  0.8510
  408SOL    HW1 1223   1.520   2.308   0.865 -0.7934  0.2041 -0.1127
  408SOL    HW2 1224   1.496   2.427   0.983 -3.5099  2.4231  0.6189
  409SOL     OW 1225   0.614   0.880   0.681  0.2394  0.0474 -0.5369
  409SOL    HW1 1226   0.541   0.879   0.609  2.4390 -0.9993  0.3851
  409SOL    HW2 1227   0.662   0.788   0.689 -0.7133  1.7937  0.5380
  410SOL     OW 1228   1.309   1.994   1.494 -0.0075 -0.1579  0.1213
  410SOL    HW1 1229   1.296   2.070   1.568  2.1934  2.2361  2.4668
  410SOL    HW2 1230   1.216   1.951   1.464  2.6190 -0.5095 -1.7629
  411SOL     OW 1231   2.358   1.854   0.035 -0.0067 -0.2355 -0.2348
  411SOL    HW1 1232   2.282   1.818  -0.019  0.5067  0.3437 -0.7291
  411SOL    HW2 1233   2.450   1.847  -0.015  1.4478 -0.7327  2.2474
  412SOL     OW 1234   1.508   2.423   2.270 -0.5883 -0.1816 -0.4563
  412SOL    HW1 1235   1.435   2.496   2.291  0.6564  0.8507 -2.5035
  412SOL    HW2 1236   1.509   2.345   2.342  1.8059 -1.1449  1.3331
  413SOL     OW 1237   3.018   0.275   2.875 -0.0020 -0.4905  0.2833
  413SOL    HW1 1238   2.984   0.180   2.888  2.0161  0.8121  0.6525
  413SOL    HW2 1239   3.120   0.284   2.900  0.1713  1.5635  0.7839
  414SOL     OW 1240   1.770   1.337   1.338  0.3581  0.3628 -0.0633
  414SOL    HW1 1241   1.686   1.394   1.381 -1.6502  2.2435  1.0775
  414SOL    HW2 1242   1.759   1.327   1.237 -1.2592 -0.9520 -0.5689
  415SOL     OW 1243   0.355   2.238   0.678  0.2854 -0.4683 -0.6385
  415SOL    HW1 1244   0.316   2.334   0.656  2.0056  2.3631 -0.5162
  415SOL    HW2 1245   0.277   2.172   0.682  0.4871 -1.6267  0.5554
  416SOL     OW 1246   0.344   1.039   1.045  0.4636  0.1961 -0.1364
  416SOL    HW1 1247   0.306   1.012   0.954  1.1319  0.7713 -0.6349
  416SOL    HW2 1248   0.417   1.113   1.030 -3.0999  0.4444 -0.4979
  417SOL     OW 1249   2.160   2.327   1.855 -0.3772  0.4615 -0.0890
  417SOL    HW1 1250   2.187   2.230   1.887 -1.3954 -1.6481  0.8803
  417SOL    HW2 1251   2.069   2.354   1.904 -3.4213 -1.3636  1.1893
  418SOL     OW 1252   1.116   0.420   1.385 -0.0541 -0.7106 -0.2093
  418SOL    HW1 1253   1.013   0.401   1.352  0.2059  0.8031  1.4249
  418SOL    HW2 1254   1.187   0.414   1.312 -1.1789  0.9071  3.1249
  419SOL     OW 1255   0.982   0.358   3.005 -0.2757 -0.1028  0.0523
  419SOL    HW1 1256   1.002   0.397   2.911  1.2270  1.4355  0.1932
  419SOL    HW2 1257   0.924   0.272   2.996 -0.3213 -0.2074 -0.6887
  420SOL     OW 1258   0.202   2.295   0.360  0.1829  0.0299  0.2654
  420SOL    HW1 1259   0.170   2.251   0.269 -2.3974 -1.8488 -2.7168
  420SOL    HW2 1260   0.128   2.277   0.428 -0.8885  1.1492 -0.6074
  421SOL     OW 1261   0.346   0.047   0.675  0.1739 -0.4358 -0.4489
  421SOL    HW1 1262   0.342  -0.015   0.592  3.3317 -1.6390  1.0002
  421SOL    HW2 1263   0.441   0.084   0.687 -0.7540 -0.2941 -0.2204
  422SOL     OW 1264   0.938   2.514   1.037 -0.1930  0.1586 -0.1839
  422SOL    HW1 1265   0.935   2.595   0.970 -2.5881 -1.5013 -1.2034
  422SOL    HW2 1266   0.972   2.536   1.135  4.2597 -1.2119  1.3554
  423SOL     OW 1267   0.034   0.700   1.217 -0.7563  0.0422  0.0685
  423SOL    HW1 1268  -0.007   0.661   1.310 -0.9431 -0.3641 -1.7753
  423SOL    HW2 1269  -0.023   0.770   1.172  1.2259  2.6503  2.5070
  424SOL     OW 1270   0.985   2.151   2.227  0.0453  0.0442  0.2948
  424SOL    HW1 1271   1.014   2.236   2.177  1.9850  0.5005  2.1857
  424SOL    HW2 1272   0.922   2.168   2.313 -2.2648  0.0919 -0.6792
  425SOL     OW 1273   2.032   1.424   1.081  0.2881 -0.6560  0.1784
  425SOL    HW1 1274   2.044   1.323   1.069  1.1575  1.6733  0.0968
  425SOL    HW2 1275   2.082   1.490   1.014 -2.4696 -0.9274  1.2465
  426SOL     OW 1276   1.572   1.493   1.386 -0.2342 -0.8066 -0.1748
  426SOL    HW1 1277   1.557   1.589   1.349  0.8212  1.1432 -2.6517
  426SOL    HW2 1278   1.549   1.484   1.489 -0.5160  0.3858  1.3484
  427SOL     OW 1279   1.935   2.348   2.035 -0.1796  0.0663 -0.3795
  427SOL    HW1 1280   1.966   2.294   2.123 -0.2281  2.3286  0.3026
  427SOL    HW2 1281   1.944   2.450   2.050  2.3067 -0.5771 -0.9656
  428SOL     OW 1282   0.936   3.066   0.095 -0.2079  0.3154 -0.0079
  428SOL    HW1 1283   0.962   3.139   0.163  0.9114  1.8316 -0.6978
  428SOL    HW2 1284   1.002   2.979   0.097  0.0942 -2.7697  1.5982
  429SOL     OW 1285   1.315   0.016   0.215  0.2394 -0.2329  0.1404
  429SOL    HW1 1286   1.405   0.063   0.231  0.5325 -0.5445 -1.9544
  429SOL    HW2 1287   1.313  -0.030   0.127 -0.1992  1.3411  0.3627
  430SOL     OW 1288   2.816   1.491   0.367  0.1552  0.7521  0.1716
  430SOL    HW1 1289   2.781   1.566   0.299 -1.5406 -1.0514  0.4413
  430SOL    HW2 1290   2.810   1.531   0.461  0.8718  0.7271 -0.2461
  431SOL     OW 1291   2.114   1.592   0.864  0.5640 -0.2292 -0.5340
  431SOL    HW1 1292   2.170   1.660   0.922 -0.1183 -2.0032  1.3629
  431SOL    HW2 1293   2.020   1.631   0.842  0.8497  0.5806  0.6445
  432SOL     OW 1294   2.894   2.317   1.236  0.0083 -0.9734 -0.3168
  432SOL    HW1 1295   2.841   2.233   1.208 -3.0561  0.9164  1.1514
  432SOL    HW2 1296   2.933   2.322   1.330  1.2777  2.8773 -1.7968
  433SOL     OW 1297   1.845   0.285   0.801 -0.0120  0.2294 -0.3395
  433SOL    HW1 1298   1.756   0.275   0.850  0.0177  1.4219  0.7137
  433SOL    HW2 1299   1.918   0.246   0.857 -3.0480 -0.3028 -0.4382
  434SOL     OW 1300   1.535   0.257   0.725 -0.0853 -0.0047  0.3100
  434SOL    HW1 1301   1.565   0.358   0.704  0.6238  4.0681 -0.2639
  434SOL    HW2 1302   1.542   0.238   0.825 -2.4468 -0.7335 -1.9694
  435SOL     OW 1303   1.413   1.503   2.125 -0.0128  0.6746  0.3875
  435SOL    HW1 1304   1.380   1.510   2.220 -2.1954 -1.6167  0.2942
  435SOL    HW2 1305   1.385   1.578   2.063 -1.9122  0.4360 -0.5783
  436SOL     OW 1306   1.626   2.714   2.379 -0.3771  0.8065  0.3710
  436SOL    HW1 1307   1.653   2.801   2.430  0.3706  2.0682  0.9008
  436SOL    HW2 1308   1.594   2.641   2.443 -1.0720 -0.2180 -2.3334
  437SOL     OW 1309   1.034   2.975   0.820  0.6818 -0.0986 -0.1428
  437SOL    HW1 1310   0.961   3.044   0.804 -0.9213 -2.1418 -1.4705
  437SOL    HW2 1311   1.052   2.949   0.919  1.9072 -1.1348  0.4019
  438SOL     OW 1312   0.998   2.521   1.326 -0.5128  0.1299 -0.6082
  438SOL    HW1 1313   1.066   2.569   1.396  1.7614  0.8444  1.4805
  438SOL    HW2 1314   0.991   2.420   1.360 -0.2016 -0.6623  1.1349
  439SOL     OW 1315   0.698   1.699   1.031 -0.0255 -0.2951 -0.2250
  439SOL    HW1 1316   0.780   1.759   1.017 -0.4570 -3.6643  0.1277
  439SOL    HW2 1317   0.613   1.745   1.065 -0.1169  0.0696 -2.6671
  440SOL     OW 1318   1.020   2.376   1.998  0.3820  1.2170  0.7960
  440SOL    HW1 1319   0.989   2.452   1.934  0.3204  1.8390  1.8270
  440SOL    HW2 1320   1.116   2.393   2.034  2.2958  0.5800  1.6884
  441SOL     OW 1321   0.362   2.753   1.298 -0.4785 -0.9211  0.1851
  441SOL    HW1 1322   0.435   2.682   1.298 -2.8258 -0.2655 -1.5310
  441SOL    HW2 1323   0.352   2.798   1.208  0.0095  0.6005  2.1293
  442SOL     OW 1324   2.241   0.650   2.566  0.0389 -0.3847  0.1071
  442SOL    HW1 1325   2.241   0.571   2.501 -0.1757  0.4947 -1.1411
  442SOL    HW2 1326   2.157   0.712   2.549  0.4024  2.0551  2.5805
  443SOL     OW 1327   1.247   2.552   2.204  0.1668  0.4319  0.3735
  443SOL    HW1 1328   1.250   2.450   2.223  0.5481 -0.1444  0.9995
  443SOL    HW2 1329   1.189   2.603   2.270  0.2648 -0.0508 -3.0388
  444SOL     OW 1330   1.002   1.197   1.472  0.4766  0.5791 -0.2507
  444SOL    HW1 1331   1.104   1.175   1.500  1.0701  0.2966 -1.3275
  444SOL    HW2 1332   0.982   1.300   1.463 -1.0269 -0.6332  0.0297
  445SOL     OW 1333   0.190   2.257   2.122  0.1944  0.2829 -0.0908
  445SOL    HW1 1334   0.093   2.270   2.075 -1.0205  0.7824 -0.9801
  445SOL    HW2 1335   0.208   2.160   2.149  1.8531  1.5376 -1.9735
  446SOL     OW 1336   0.117   1.947   2.372  0.3446 -0.0913  0.2461
  446SOL    HW1 1337   0.083   2.047   2.357  2.0963  1.3782 -3.1140
  446SOL    HW2 1338   0.108   1.885   2.288  1.7628  1.2205  1.0738
  447SOL     OW 1339   1.290   1.731   1.909 -0.3087  0.2467  0.1603
  447SOL    HW1 1340   1.193   1.768   1.899  0.0460  1.0824  0.0263
  447SOL    HW2 1341   1.358   1.781   1.973  1.2948 -2.0517 -0.3879
  448SOL     OW 1342   0.181   1.467   2.026  0.0798  0.2449 -0.1318
  448SOL    HW1 1343   0.172   1.563   1.985  1.3642 -2.2077  1.9560
  448SOL    HW2 1344   0.120   1.450   2.111 -0.5657 -3.5888 -0.0870
  449SOL     OW 1345   1.818   2.935   0.802  0.5230  0.1485 -0.3172
  449SOL    HW1 1346   1.827   2.965   0.906 -0.4658 -0.9904  1.3465
  449SOL    HW2 1347   1.846   2.838   0.790 -0.7460  1.8702  2.2088
  450SOL     OW 1348   2.256   1.462   0.666  0.0760  0.3919  0.2257
  450SOL    HW1 1349   2.195   1.513   0.736  0.3732 -0.7352 -0.3188
  450SOL    HW2 1350   2.309   1.529   0.604  0.1390 -0.9252 -0.3779
  451SOL     OW 1351   1.408   3.005   1.464  0.3846  0.1501 -0.6125
  451SOL    HW1 1352   1.332   3.077   1.480 -1.6388  0.6402  2.1304
  451SOL    HW2 1353   1.445   2.957   1.551 -2.1184  2.5425 -0.8387
  452SOL     OW 1354   2.708   2.318   2.259 -0.0378  0.2652 -0.3566
  452SOL    HW1 1355   2.647   2.402   2.247  0.1431  1.0773  0.1919
  452SOL    HW2 1356   2.695   2.276   2.355 -2.0636 -1.4270  1.3258
  453SOL     OW 1357   2.460   2.664   3.081 -0.0447 -0.4163 -0.0374
  453SOL    HW1 1358   2.381   2.722   3.093  1.6784 -1.6963 -0.5098
  453SOL    HW2 1359   2.446   2.599   3.003  1.1901  1.5588  3.2664
  454SOL     OW 1360   0.937   1.176   2.023  0.0263  0.1693 -0.1071
  454SOL    HW1 1361   0.893   1.165   1.930  1.9501  0.0278 -0.7742
  454SOL    HW2 1362   1.027   1.230   2.019  0.2763  0.2192 -1.5623
  455SOL     OW 1363   0.650   2.623   2.792 -1.1277  0.8497  0.1645
  455SOL    HW1 1364   0.733   2.682   2.792  1.4814  1.0047  2.7869
  455SOL    HW2 1365   0.652   2.556   2.871  1.7271  0.7156  0.7346
  456SOL     OW 1366   0.345   1.933   0.236  1.2342  0.2925 -0.1279
  456SOL    HW1 1367   0.440   1.942   0.279  2.0186 -0.5535 -2.3768
  456SOL    HW2 1368   0.311   2.020   0.191 -0.1417  0.4555  1.1797
  457SOL     OW 1369   0.401   2.751   0.674  0.4851  0.3782 -0.4530
  457SOL    HW1 1370   0.430   2.809   0.590  0.3192  2.8451 -2.5238
  457SOL    HW2 1371   0.477   2.707   0.725  0.0961  2.6085  1.0503
  458SOL     OW 1372   2.935   0.039   1.265 -0.4227  0.0465  0.0683
  458SOL    HW1 1373   2.965   0.127   1.221  1.4196  0.2726  0.0211
  458SOL    HW2 1374   2.908  -0.035   1.197 -1.1439 -2.2917  0.1974
  459SOL     OW 1375   2.170   2.480   0.756  0.2451 -0.0108  0.1391
  459SOL    HW1 1376   2.235   2.505   0.836  2.4116  1.7037  0.0455
  459SOL    HW2 1377   2.220   2.483   0.665  3.2699 -2.4241  1.6115
  460SOL     OW 1378   1.154   2.054   2.766  0.2232  0.1033 -0.0922
  460SOL    HW1 1379   1.195   2.060   2.669  0.7632  3.3634  0.3495
  460SOL    HW2 1380   1.187   1.970   2.816  1.2130  0.6349 -0.0096
  461SOL     OW 1381   0.470   2.136   2.718  0.1349  0.0506  0.2346
  461SOL    HW1 1382   0.414   2.077   2.653  1.2228  1.9743  2.7602
  461SOL    HW2 1383   0.488   2.084   2.811 -2.8345 -0.9028 -2.3201
  462SOL     OW 1384   0.955   1.012   1.752 -0.0820 -0.0278 -0.1909
  462SOL    HW1 1385   0.931   0.930   1.692  0.5569  0.2406  1.5148
  462SOL    HW2 1386   0.899   1.096   1.732  1.4765 -1.2917  0.5974
  463SOL     OW 1387   0.444   0.814   0.462 -0.1502  0.5063  0.2731
  463SOL    HW1 1388   0.479   0.735   0.410 -3.0953  2.3232  1.0030
  463SOL    HW2 1389   0.341   0.815   0.456  0.0804  1.0281 -1.6642
  464SOL     OW 1390   0.592   2.340   2.236  0.0831 -0.3186 -0.4559
  464SOL    HW1 1391   0.532   2.413   2.285 -1.2635  0.6237 -0.4251
  464SOL    HW2 1392   0.559   2.320   2.137  0.3246 -0.6933 -1.3444
  465SOL     OW 1393   0.235   0.925   0.793  0.0518  0.0997  0.1399
  465SOL    HW1 1394   0.166   0.953   0.721  1.9222  2.9628  1.5706
  465SOL    HW2 1395   0.260   0.824   0.795  1.0215  1.4471  1.2494
  466SOL     OW 1396   1.355   1.140   1.019  0.6369 -0.7411  0.1435
  466SOL    HW1 1397   1.366   1.224   0.962 -1.5020  1.2626  1.7846
  466SOL    HW2 1398   1.259   1.135   1.060  0.3186 -1.1482 -0.2421
  467SOL     OW 1399   0.622   0.415   2.502 -0.2042 -0.1995 -0.6598
  467SOL    HW1 1400   0.571   0.504   2.507  0.5819  0.0543 -2.5315
  467SOL    HW2 1401   0.611   0.358   2.591 -1.6391 -0.8323 -2.4630
  468SOL     OW 1402   0.444   2.254   1.587 -0.2028 -0.2005  0.0430
  468SOL    HW1 1403   0.528   2.295   1.636 -0.6810  1.8303  0.0618
  468SOL    HW2 1404   0.456   2.254   1.481  1.3907 -3.6215  0.3901
  469SOL     OW 1405   1.412   1.368   1.226 -0.2190  0.1416  0.8978
  469SOL    HW1 1406   1.466   1.335   1.141 -0.6253 -0.5872 -4.4575
  469SOL    HW2 1407   1.469   1.423   1.296 -0.4468  1.6316 -1.2242
  470SOL     OW 1408   3.020   1.807   0.770  0.2565 -0.2097 -0.2750
  470SOL    HW1 1409   3.094   1.842   0.706  1.9506 -1.9196 -2.1330
  470SOL    HW2 1410   3.043   1.791   0.870 -0.9201 -1.2327 -2.1612
  471SOL     OW 1411   2.605   1.382   2.194 -0.4381  0.1669 -0.1116
  471SOL    HW1 1412   2.609   1.279   2.216 -1.3285  0.5081  0.4459
  471SOL    HW2 1413   2.689   1.434   2.214 -1.7574  0.2822  0.4206
  472SOL     OW 1414   1.148   2.499   0.086  0.0561  0.1159  0.8252
  472SOL    HW1 1415   1.220   2.478   0.158  0.6487 -1.9180  0.8532
  472SOL    HW2 1416   1.071   2.429   0.082  0.6887  0.1722 -0.8764
  473SOL     OW 1417   1.070   1.539   1.010 -0.4630 -0.0005 -0.2693
  473SOL    HW1 1418   0.974   1.529   0.967 -1.3397 -0.0611  1.5755
  473SOL    HW2 1419   1.089   1.463   1.079  1.2999  1.2400  1.1719
  474SOL     OW 1420   0.643   1.283   0.526  0.1209  0.1278  0.4010
  474SOL    HW1 1421   0.567   1.218   0.496 -0.4783 -1.4344  1.3833
  474SOL    HW2 1422   0.709   1.230   0.587 -1.1150 -1.6955 -0.6849
  475SOL     OW 1423   2.825   0.070   0.804 -0.1592  0.1363  0.2096
  475SOL    HW1 1424   2.899   0.143   0.788 -0.1225  0.5982 -1.9836
  475SOL    HW2 1425   2.757   0.083   0.883  1.6049  0.3173  2.7044
  476SOL     OW 1426   0.962   3.076   1.805 -0.2339  0.1261  0.0284
  476SOL    HW1 1427   1.064   3.089   1.825  0.1672 -1.0566  1.7009
  476SOL    HW2 1428   0.944   3.073   1.700  1.5363 -0.9255 -0.4772
  477SOL     OW 1429   1.424   0.326   2.409  0.4017 -0.6747 -0.3671
  477SOL    HW1 1430   1.424   0.349   2.513 -1.2999  0.0966  0.3984
  477SOL    HW2 1431   1.508   0.268   2.389  0.7866 -0.4156 -0.0077
  478SOL     OW 1432   2.234   1.900   0.273  0.3431  0.1583 -0.0758
  478SOL    HW1 1433   2.188   1.817   0.304  3.5904  0.5125 -2.5305
  478SOL    HW2 1434   2.315   1.876   0.204  2.4205 -1.0259  0.2513
  479SOL     OW 1435   1.269   0.956   2.898 -0.8771  0.5689 -0.0307
  479SOL    HW1 1436   1.359   0.968   2.849  1.0908 -1.3203  3.0555
  479SOL    HW2 1437   1.209   0.882   2.857  0.2206 -0.5672 -1.6318
  480SOL     OW 1438   2.657   2.309   0.388 -0.1950 -0.0430 -0.0449
  480SOL    HW1 1439   2.709   2.219   0.406  1.9081  0.6946 -0.0650
  480SOL    HW2 1440   2.563   2.284   0.360  1.4159  0.5242 -0.1033
  481SOL     OW 1441   1.026   1.152   0.874  0.7185  0.2756 -0.1253
  481SOL    HW1 1442   1.002   1.250   0.866  0.2659 -1.4257  0.2018
  481SOL    HW2 1443   1.053   1.125   0.972 -2.3942 -0.9804  2.7930
  482SOL     OW 1444   1.588   0.292   1.990 -0.7887  0.2822 -0.4417
  482SOL    HW1 1445   1.599   0.392   1.980 -0.6905 -0.5167 -1.0187
  482SOL    HW2 1446   1.674   0.246   2.023  0.9473  0.5039 -0.8317
  483SOL     OW 1447   0.217   2.330   1.190  0.0878 -0.2978  0.0312
  483SOL    HW1 1448   0.177   2.392   1.262  2.7727 -0.5158 -1.8390
  483SOL    HW2 1449   0.231   2.369   1.093  0.9306 -0.2631 -1.3273
  484SOL     OW 1450   1.708   1.048   1.375  0.3716  0.1886 -0.9472
  484SOL    HW1 1451   1.778   0.979   1.416  0.2678 -0.7054 -0.8729
  484SOL    HW2 1452   1.744   1.144   1.368  1.0608 -1.3525 -0.7007
  485SOL     OW 1453   0.750   0.760   1.866 -0.4538 -0.4128 -1.2087
  485SOL    HW1 1454   0.723   0.808   1.779  0.3652 -1.3500 -0.4685
  485SOL    HW2 1455   0.845   0.714   1.859 -1.9540  2.6043  0.4229
  486SOL     OW 1456   0.857   1.872   2.424 -0.6893  0.3797 -0.4072
  486SOL    HW1 1457   0.890   1.890   2.522  0.3442  2.1195  2.0045
  486SOL    HW2 1458   0.829   1.962   2.385 -2.1977 -1.9682  1.0142
  487SOL     OW 1459   1.765   1.614   1.051  0.3483  0.2956 -0.7164
  487SOL    HW1 1460   1.830   1.540   1.083  1.3118  1.3903  0.2307
  487SOL    HW2 1461   1.818   1.684   0.992 -2.6276  2.3913  0.2431
  488SOL     OW 1462   2.931   0.795   2.270  0.2137 -0.4898  0.2030
  488SOL    HW1 1463   3.010   0.727   2.281 -1.7882 -0.4682  0.5388
  488SOL    HW2 1464   2.862   0.787   2.350 -3.2357 -1.0318 -1.1198
  489SOL     OW 1465   2.780   0.340   1.287 -0.2225 -0.2452  0.0180
  489SOL    HW1 1466   2.767   0.316   1.388  0.1418 -1.1490 -1.1382
  489SOL    HW2 1467   2.878   0.328   1.254  0.0194  2.1907  2.5422
  490SOL     OW 1468   1.445   2.934   2.806 -0.2814 -0.3456  0.5202
  490SOL    HW1 1469   1.474   2.834   2.815 -1.5725 -1.6478  0.5285
  490SOL    HW2 1470   1.440   2.976   2.710  0.0805  0.4339 -0.0830
  491SOL     OW 1471   1.760   1.482   2.732 -0.3262  0.5935 -0.2106
  491SOL    HW1 1472   1.738   1.436   2.821 -1.7084 -3.1336 -0.8302
  491SOL    HW2 1473   1.860   1.510   2.731  1.4900 -0.0521 -0.2980
  492SOL     OW 1474   0.555   2.102   0.629 -0.2925 -0.2753 -0.0344
  492SOL    HW1 1475   0.606   2.080   0.721  2.5889 -2.1217  4.1939
  492SOL    HW2 1476   0.470   2.161   0.651  1.6435 -0.5426  0.6252
  493SOL     OW 1477   0.424   1.343   2.082 -0.0772  0.1430 -0.0103
  493SOL    HW1 1478   0.337   1.386   2.048  1.5195  0.3173 -1.4886
  493SOL    HW2 1479   0.406   1.244   2.107 -0.1198  2.5013  1.2711
  494SOL     OW 1480   2.718   2.650   0.111 -0.1770 -0.2283  0.1032
  494SOL    HW1 1481   2.724   2.652   0.213 -1.0560  0.4646  1.4750
  494SOL    HW2 1482   2.619   2.661   0.083 -0.3681 -1.1435 -1.4583
  495SOL     OW 1483   2.544   2.821   2.645 -0.4344  0.2835 -0.1545
  495SOL    HW1 1484   2.522   2.727   2.616  1.7555  0.8958  2.4419
  495SOL    HW2 1485   2.585   2.875   2.568  0.3139 -0.6681 -1.4557
  496SOL     OW 1486   1.943   2.267   0.841  0.6054  0.5673 -0.2235
  496SOL    HW1 1487   2.006   2.346   0.867 -0.5587 -1.5072 -0.4537
  496SOL    HW2 1488   1.966   2.179   0.889  0.5324 -1.0756 -0.9069
  497SOL     OW 1489   0.219   3.015   2.355 -0.0247 -0.1180  0.1306
  497SOL    HW1 1490   0.164   3.072   2.415  2.3376 -1.4085  0.7006
  497SOL    HW2 1491   0.269   3.062   2.280  1.1280  0.0321  1.5989
  498SOL     OW 1492   1.140   1.371   1.219  0.0353  0.2570  0.5313
  498SOL    HW1 1493   1.244   1.378   1.229 -0.5407  1.6820  0.3579
  498SOL    HW2 1494   1.096   1.387   1.315 -1.9666 -0.3493  0.7587
  499SOL     OW 1495   0.592   1.838   0.336  0.0300 -0.1778 -0.0216
  499SOL    HW1 1496   0.638   1.789   0.255 -1.4134  0.3967 -1.3116
  499SOL    HW2 1497   0.647   1.905   0.391 -0.5029  0.8476 -0.2348
  500SOL     OW 1498   1.543   2.856   1.681 -0.0809  0.3092  0.6939
  500SOL    HW1 1499   1.577   2.829   1.770  0.7262  1.1401 -1.6365
  500SOL    HW2 1500   1.558   2.787   1.606 -0.5749  2.7019 -1.2345
  501SOL     OW 1501   0.815   1.178   2.283 -0.5077  0.0687  0.0160
  501SOL    HW1 1502   0.738   1.109   2.294  0.2928 -0.5853  2.5675
  501SOL    HW2 1503   0.859   1.190   2.184 -2.1589  2.4707  1.1000
  502SOL     OW 1504   2.603   0.914   1.781  0.0946  0.5112 -0.4321
  502SOL    HW1 1505   2.615   0.956   1.682 -0.0287  1.3885 -0.1503
  502SOL    HW2 1506   2.577   0.812   1.775 -2.3145 -2.7658 -1.3128
  503SOL     OW 1507   1.309   0.119   0.687  0.2162  0.4491 -0.0950
  503SOL    HW1 1508   1.238   0.192   0.709  0.7237 -0.7768  0.0419
  503SOL    HW2 1509   1.405   0.155   0.677 -0.7347  1.8132 -0.3594
  504SOL     OW 1510   3.019   2.324   1.478  0.5303 -0.4234  0.7764
  504SOL    HW1 1511   3.005   2.376   1.561  0.4373  0.1622 -1.7846
  504SOL    HW2 1512   3.106   2.264   1.474 -0.1638 -0.3170  2.4211
  505SOL     OW 1513   2.291   1.168   1.479 -0.0185  0.2473 -0.4471
  505SOL    HW1 1514   2.301   1.170   1.376  0.9681  0.3504 -1.8053
  505SOL    HW2 1515   2.366   1.214   1.527  0.8197  1.9405 -3.7748
  506SOL     OW 1516   1.933   0.179   1.827 -0.0473  0.0734 -0.2110
  506SOL    HW1 1517   2.032   0.147   1.808  1.7437  0.6668 -0.2743
  506SOL    HW2 1518   1.934   0.283   1.847 -0.5665 -1.6585 -0.2371
  507SOL     OW 1519   0.494   0.705   2.214  0.4163 -0.3124  0.0382
  507SOL    HW1 1520   0.465   0.665   2.122 -2.6486  1.2324 -3.2841
  507SOL    HW2 1521   0.592   0.684   2.238 -0.4920 -1.1680 -1.3867
  508SOL     OW 1522   0.284   1.690   0.799  0.5946  0.2110 -0.6660
  508SOL    HW1 1523   0.360   1.728   0.747 -0.9562  0.5463  0.2754
  508SOL    HW2 1524   0.278   1.721   0.895  1.5598  0.3066  0.8334
  509SOL     OW 1525   1.309   1.204   2.455 -0.3911 -0.0214 -0.2332
  509SOL    HW1 1526   1.320   1.173   2.358  1.1191  1.3111  0.2242
  509SOL    HW2 1527   1.212   1.221   2.478 -0.2804  0.3781  0.5235
  510SOL     OW 1528   1.301   2.029   2.230 -0.2416 -0.5677 -0.0819
  510SOL    HW1 1529   1.359   2.034   2.141  0.1267  0.1219 -0.9982
  510SOL    HW2 1530   1.206   2.002   2.212 -0.0780 -0.3423 -0.2324
  511SOL     OW 1531   2.998   2.749   1.285  0.1753  0.5917 -0.0470
  511SOL    HW1 1532   3.029   2.762   1.187  0.0980  0.6163 -0.8616
  511SOL    HW2 1533   2.898   2.723   1.289  0.8310 -0.3403  2.7982
  512SOL     OW 1534   2.349   0.448   1.395  0.1977 -0.3245 -0.6282
  512SOL    HW1 1535   2.248   0.444   1.375 -0.4272  0.1700  0.4099
  512SOL    HW2 1536   2.399   0.393   1.324  1.8401  0.8827 -0.1372
  513SOL     OW 1537   2.570   2.094   0.852  0.4431  0.4322  0.8389
  513SOL    HW1 1538   2.549   2.168   0.783 -1.5176 -2.1623  0.5925
  513SOL    HW2 1539   2.661   2.050   0.831  0.1505 -1.8272 -0.2719
  514SOL     OW 1540   0.629   2.706   0.437 -0.0968  0.0279 -0.0600
  514SOL    HW1 1541   0.639   2.694   0.336  0.4056  0.6481 -1.0211
  514SOL    HW2 1542   0.659   2.800   0.469  1.1550 -0.3318  0.0706
  515SOL     OW 1543   1.941   1.339   2.403 -0.0184  0.0804  0.0633
  515SOL    HW1 1544   1.937   1.298   2.306  1.4630 -1.7162  0.9159
  515SOL    HW2 1545   1.875   1.298   2.469  0.0982 -2.8979 -1.0273
  516SOL     OW 1546   0.252   0.209   1.909 -0.3788  0.2870 -1.1865
  516SOL    HW1 1547   0.359   0.195   1.902  2.5905  1.1429 -2.4201
  516SOL    HW2 1548   0.195   0.139   1.854  1.3312  0.8918 -0.7601
  517SOL     OW 1549   0.472   0.198   1.172 -0.0057  0.1903 -0.1988
  517SOL    HW1 1550   0.543   0.153   1.223 -1.6596  2.3417 -1.4701
  517SOL    HW2 1551   0.407   0.136   1.127  0.5467  0.9521  0.8638
  518SOL     OW 1552   2.178   3.011   1.852 -0.2887 -0.0926 -0.4890
  518SOL    HW1 1553   2.204   3.109   1.836 -1.0704  0.1587 -0.8754
  518SOL    HW2 1554   2.163   2.962   1.766 -2.8261  1.7487  0.8030
  519SOL     OW 1555   2.356   2.230   2.559  0.0810 -0.2888 -0.0831
  519SOL    HW1 1556   2.268   2.207   2.610  0.3281 -0.6225  1.8417
  519SOL    HW2 1557   2.375   2.331   2.530 -1.1064  0.5988 -2.5042
  520SOL     OW 1558   1.839   2.723   1.673  0.3303  0.2092  0.4718
  520SOL    HW1 1559   1.783   2.664   1.737 -1.8050 -2.1443  1.9176
  520SOL    HW2 1560   1.928   2.674   1.647 -0.0850  1.6058  1.7470
  521SOL     OW 1561   0.600   0.067   2.145 -0.6735 -0.3257 -0.1113
  521SOL    HW1 1562   0.513   0.021   2.128 -0.0506  1.8279  1.0778
  521SOL    HW2 1563   0.630   0.069   2.245 -1.5674 -0.1640 -1.0615
  522SOL     OW 1564   0.246   1.901   1.465  0.2724  0.1240  0.4984
  522SOL    HW1 1565   0.286   1.956   1.543  1.3651 -1.1280 -0.7824
  522SOL    HW2 1566   0.201   1.968   1.396  2.5276  1.0146 -1.3619
  523SOL     OW 1567   2.160   2.940   1.563 -0.6028  0.5641 -0.1699
  523SOL    HW1 1568   2.246   2.877   1.562  1.5858 -3.9148  0.0627
  523SOL    HW2 1569   2.085   2.893   1.511  0.6101 -0.3356  2.7437
  524SOL     OW 1570   0.201   2.764   2.794  0.5500  0.0494  0.0702
  524SOL    HW1 1571   0.159   2.836   2.853  1.4670 -0.2252 -0.6367
  524SOL    HW2 1572   0.309   2.780   2.791  1.5059 -0.1086 -0.6235
  525SOL     OW 1573   2.154   2.056   0.490 -0.8966  0.2546  0.0648
  525SOL    HW1 1574   2.159   2.009   0.585 -1.8636  0.5219 -1.0355
  525SOL    HW2 1575   2.196   2.005   0.413 -0.6240 -1.3532 -1.5181
  526SOL     OW 1576   0.428   1.545   1.726 -0.2739 -0.0107 -0.1275
  526SOL    HW1 1577   0.486   1.607   1.790 -0.7176 -0.1039  1.9994
  526SOL    HW2 1578   0.458   1.451   1.746 -1.3524  2.8227  1.1997
  527SOL     OW 1579   1.072   2.945   1.180 -0.0892  0.5039  0.1521
  527SOL    HW1 1580   1.106   2.885   1.257 -1.3026 -0.9215 -0.3194
  527SOL    HW2 1581   1.139   3.012   1.151 -2.9140  0.6284 -0.2907
  528SOL     OW 1582   1.299   2.416   0.570  0.2179 -0.1227  0.0530
  528SOL    HW1 1583   1.364   2.335   0.593  2.1387 -2.9257  1.4169
  528SOL    HW2 1584   1.307   2.496   0.638  0.1922 -2.0637 -2.2283
  529SOL     OW 1585   1.887   1.772   0.865 -0.4055  0.1410 -0.0365
  529SOL    HW1 1586   1.856   1.763   0.768 -0.9108  0.3514 -1.3421
  529SOL    HW2 1587   1.937   1.859   0.876  0.8417 -1.3961 -0.7367
  530SOL     OW 1588   0.412   2.497   0.166  0.4054  0.6157 -0.6173
  530SOL    HW1 1589   0.463   2.477   0.252 -1.0478 -0.5331 -2.0754
  530SOL    HW2 1590   0.425   2.414   0.099  0.5035 -1.0102 -0.6082
  531SOL     OW 1591   1.828   0.987   1.042  0.0831  0.1072  0.1084
  531SOL    HW1 1592   1.826   1.000   0.940  0.0130 -0.2815  1.2502
  531SOL    HW2 1593   1.744   0.948   1.083  0.2124  0.3668 -0.2022
  532SOL     OW 1594   0.401   1.166   0.703 -0.2603 -0.5124  0.2570
  532SOL    HW1 1595   0.412   1.161   0.599  0.4786  2.2561 -1.7010
  532SOL    HW2 1596   0.358   1.087   0.753  1.0946 -0.4310 -0.4245
  533SOL     OW 1597   1.834   0.066   2.567 -0.2806 -0.9573 -0.8176
  533SOL    HW1 1598   1.932   0.034   2.585 -0.5518  0.7253 -0.9052
  533SOL    HW2 1599   1.801   0.130   2.640 -0.3947 -0.4123  1.6046
  534SOL     OW 1600   0.205   0.198   1.572  0.7714 -0.3273  0.1137
  534SOL    HW1 1601   0.282   0.248   1.518  0.6992 -0.7602  1.6132
  534SOL    HW2 1602   0.119   0.262   1.576  2.9019  0.0132  0.2003
  535SOL     OW 1603   1.876   0.416   0.182  0.6483 -0.0654 -0.1142
  535SOL    HW1 1604   1.942   0.480   0.224 -3.7859 -2.9838  3.6111
  535SOL    HW2 1605   1.792   0.396   0.246 -1.6760  2.9659  1.3292
  536SOL     OW 1606   1.232   2.534   1.021  0.6115  0.1270  0.2145
  536SOL    HW1 1607   1.287   2.456   0.992 -0.1323  0.4598  2.4574
  536SOL    HW2 1608   1.134   2.532   0.980  0.3774  0.0851 -1.0270
  537SOL     OW 1609   0.871   0.211   2.331  0.1372  0.2138 -0.1554
  537SOL    HW1 1610   0.835   0.299   2.287 -1.5911  0.6940  2.4121
  537SOL    HW2 1611   0.801   0.139   2.364 -1.1630  0.2695  3.1203
  538SOL     OW 1612   1.699   2.320   1.561 -0.6203  0.3952 -0.1799
  538SOL    HW1 1613   1.664   2.253   1.492  4.7421  2.0407 -0.7820
  538SOL    HW2 1614   1.786   2.363   1.523  0.5840  0.8544 -0.3660
  539SOL     OW 1615   0.171   1.604   2.703  0.2686  0.4748 -0.0980
  539SOL    HW1 1616   0.067   1.599   2.686 -1.1781 -2.1471 -1.8712
  539SOL    HW2 1617   0.206   1.693   2.751  3.3354  1.7065  2.3677
  540SOL     OW 1618   2.693   1.728   2.096  0.2995  0.1328 -0.7010
  540SOL    HW1 1619   2.645   1.656   2.039 -0.4443  2.7184  0.8158
  540SOL    HW2 1620   2.650   1.819   2.080 -1.9281 -4.0822 -1.3761
  541SOL     OW 1621   0.445   2.272   3.094  0.2148  0.9634 -0.5030
  541SOL    HW1 1622   0.498   2.192   3.139 -1.0998 -0.2600  3.2442
  541SOL    HW2 1623   0.377   2.229   3.024  0.0710  1.5503  0.1053
  542SOL     OW 1624   2.204   2.634   0.438 -0.0292  0.2505  0.1553
  542SOL    HW1 1625   2.206   2.736   0.423 -1.0876  2.2494  1.9727
  542SOL    HW2 1626   2.108   2.598   0.469 -0.2505  0.5653 -1.4152
  543SOL     OW 1627   1.046   1.801   1.747 -0.1223 -0.0289 -0.2968
  543SOL    HW1 1628   1.027   1.824   1.843  2.3258  0.1919  0.8344
  543SOL    HW2 1629   0.982   1.857   1.686 -1.3594 -1.6164  2.7288
  544SOL     OW 1630   0.837   0.424   0.146  0.1271  0.1018  0.1569
  544SOL    HW1 1631   0.870   0.370   0.230 -0.1611  1.9349  1.2689
  544SOL    HW2 1632   0.906   0.417   0.066  0.0339  0.2210 -2.1912
  545SOL     OW 1633   1.171   1.737   0.618  0.4836 -0.7367  0.0070
  545SOL    HW1 1634   1.256   1.714   0.674  1.7517 -0.7188 -0.2237
  545SOL    HW2 1635   1.191   1.756   0.519 -0.7861  0.8134  0.9469
  546SOL     OW 1636   2.686   1.585   0.046  0.2263  0.2416  0.2114
  546SOL    HW1 1637   2.726   1.562  -0.048 -0.3098  1.8323  1.2153
  546SOL    HW2 1638   2.582   1.551   0.056 -3.1746 -2.8845 -1.4031
  547SOL     OW 1639   0.518   0.007   2.758  0.2509  0.0366  0.6533
  547SOL    HW1 1640   0.523  -0.086   2.719  2.4280 -1.4874 -3.9934
  547SOL    HW2 1641   0.545   0.005   2.857  0.0157  0.5234  0.9205
  548SOL     OW 1642   2.076   0.828   3.059  0.2518  0.1059 -0.8881
  548SOL    HW1 1643   1.980   0.802   3.084 -2.2955  1.5993 -1.2735
  548SOL    HW2 1644   2.090   0.931   3.067 -0.5228 -1.3632  0.3753
  549SOL     OW 1645   0.581   0.416   0.101 -0.0279 -0.3412  0.6949
  549SOL    HW1 1646   0.548   0.512   0.066  2.0512  0.2884 -1.0320
  549SOL    HW2 1647   0.687   0.425   0.118  0.8790  2.6702 -0.5251
  550SOL     OW 1648   2.535   2.868   2.913 -0.2483  1.0933 -0.1530
  550SOL    HW1 1649   2.539   2.776   2.965  1.2763  0.9826 -0.9153
  550SOL    HW2 1650   2.555   2.853   2.811 -1.3040 -2.3696  3.0416
  551SOL     OW 1651   0.242   0.779   0.167  0.2862  0.0864 -0.3532
  551SOL    HW1 1652   0.344   0.785   0.190  0.2309  1.1755  0.7477
  551SOL    HW2 1653   0.182   0.790   0.247  1.1259  1.4432  1.0325
  552SOL     OW 1654   0.830   2.809   1.897  0.2209  0.5003  0.0838
  552SOL    HW1 1655   0.819   2.775   1.989  0.5933  2.5386  1.8036
  552SOL    HW2 1656   0.870   2.902   1.893  0.9528 -1.1244 -3.2256
  553SOL     OW 1657   3.091   2.559   0.427  0.1787  0.1242  0.1155
  553SOL    HW1 1658   3.030   2.478   0.400 -1.3934  0.5860 -0.8689
  553SOL    HW2 1659   3.057   2.598   0.519 -1.9803 -1.0257 -0.1347
  554SOL     OW 1660   2.130   0.291   0.557 -0.2968 -0.5180  0.7558
  554SOL    HW1 1661   2.103   0.221   0.481 -3.2419 -2.5166  0.1555
  554SOL    HW2 1662   2.154   0.247   0.647 -0.4424  1.8764  0.1557
  555SOL     OW 1663   0.471   2.945   2.451 -0.0152  0.4108 -0.2850
  555SOL    HW1 1664   0.383   2.995   2.428 -0.2560 -1.5802  0.0965
  555SOL    HW2 1665   0.477   2.856   2.394  1.9404 -0.0624 -1.4294
  556SOL     OW 1666   0.889   2.279   1.626  0.2525 -0.3110  0.6129
  556SOL    HW1 1667   0.950   2.341   1.685  1.1227 -0.0855  1.7296
  556SOL    HW2 1668   0.922   2.265   1.530  0.5434  0.6957  1.4165
  557SOL     OW 1669   0.149   2.132   0.140  0.2920 -0.0968  0.0163
  557SOL    HW1 1670   0.068   2.072   0.122  0.2132 -0.4539 -0.3476
  557SOL    HW2 1671   0.171   2.185   0.050  0.2597  1.7633 -1.2454
  558SOL     OW 1672   2.948   2.332   0.274  0.4094 -0.3033 -0.2311
  558SOL    HW1 1673   2.851   2.355   0.270  1.2355  1.1486 -0.3122
  558SOL    HW2 1674   2.991   2.339   0.180  2.6731  1.5574  0.9138
  559SOL     OW 1675   0.439   2.240   1.330  0.4426 -0.6048  0.5005
  559SOL    HW1 1676   0.354   2.263   1.279 -1.4795 -1.6905  3.1361
  559SOL    HW2 1677   0.470   2.142   1.307  0.2858 -0.2335  2.2846
  560SOL     OW 1678   2.032   1.083   3.091  0.5552  0.4374  0.2290
  560SOL    HW1 1679   2.027   1.138   3.005 -1.2185 -1.6856  0.5492
  560SOL    HW2 1680   1.987   1.122   3.176 -1.7460  1.1722 -1.2629
  561SOL     OW 1681   3.045   1.921   0.090 -0.2027  0.1215 -0.5977
  561SOL    HW1 1682   2.999   1.830   0.069 -0.3770  0.2225 -0.8397
  561SOL    HW2 1683   2.999   1.993   0.036  0.8094 -2.5621 -2.7678
  562SOL     OW 1684   0.844   2.174   2.457  0.4567 -0.1562 -0.3621
  562SOL    HW1 1685   0.745   2.152   2.440  1.0274 -1.7886 -2.2400
  562SOL    HW2 1686   0.854   2.235   2.539  0.9781 -1.8470 -4.5750
  563SOL     OW 1687   0.736   2.541   2.541  0.0164 -0.3557 -0.0612
  563SOL    HW1 1688   0.738   2.439   2.565 -0.5760 -0.6057 -0.8888
  563SOL    HW2 1689   0.703   2.602   2.616  1.6089 -3.0977 -0.7057
  564SOL     OW 1690   2.766   1.279   2.850 -0.5949  0.3342 -0.3411
  564SOL    HW1 1691   2.671   1.282   2.893 -0.6573  1.4608 -0.1185
  564SOL    HW2 1692   2.807   1.372   2.827 -0.8847 -0.1474 -2.8396
  565SOL     OW 1693   2.507   2.000   2.597 -0.3050 -0.5908  0.1235
  565SOL    HW1 1694   2.448   2.088   2.584 -1.9085 -0.1417  2.4560
  565SOL    HW2 1695   2.601   2.019   2.635  0.5016 -1.0970  1.6095
  566SOL     OW 1696   1.988   2.848   1.366  0.1780  0.6039 -0.4755
  566SOL    HW1 1697   1.976   2.747   1.392 -2.1526 -1.4727 -1.6073
  566SOL    HW2 1698   2.041   2.858   1.275  0.3374 -0.0383  0.5748
  567SOL     OW 1699   2.462   0.147   2.263 -0.1511 -0.0483  0.5246
  567SOL    HW1 1700   2.502   0.119   2.173 -1.3361  1.0957 -0.5717
  567SOL    HW2 1701   2.366   0.190   2.257  0.0501  0.6301  0.3793
  568SOL     OW 1702   1.445   1.811   0.425  0.4758  0.2586 -0.2615
  568SOL    HW1 1703   1.395   1.875   0.360  1.1638 -1.6119  0.7844
  568SOL    HW2 1704   1.468   1.858   0.518  1.5923  1.5524  4.3819
  569SOL     OW 1705   0.291   0.660   0.799  0.5626 -0.3804  0.0471
  569SOL    HW1 1706   0.363   0.643   0.739 -0.7355  0.1582 -0.1671
  569SOL    HW2 1707   0.205   0.617   0.774  0.5618  0.1026  0.5922
  570SOL     OW 1708   0.606   0.773   2.851 -0.1413  0.3515  0.0905
  570SOL    HW1 1709   0.669   0.771   2.772 -1.6403 -3.5942  2.2999
  570SOL    HW2 1710   0.615   0.863   2.902  0.9258  1.4929 -1.2207
  571SOL     OW 1711   0.826   3.055   1.119 -0.3699 -0.2727 -0.0083
  571SOL    HW1 1712   0.853   3.119   1.040 -1.4091 -1.3359  0.1283
  571SOL    HW2 1713   0.915   3.006   1.151 -0.7985  2.5804  2.2686
  572SOL     OW 1714   1.532   2.570   1.161  0.2034  0.2368 -0.3633
  572SOL    HW1 1715   1.461   2.511   1.202  0.1265  0.7257 -1.3921
  572SOL    HW2 1716   1.494   2.655   1.116 -1.0839  0.3552  1.2210
  573SOL     OW 1717   2.941   0.410   2.100 -0.1169  0.0972 -0.2741
  573SOL    HW1 1718   2.886   0.326   2.132 -0.7683 -1.1573 -1.9132
  573SOL    HW2 1719   2.899   0.481   2.042  2.8469 -0.8247  1.8860
  574SOL     OW 1720   0.252   1.802   1.052  0.1478 -0.1367  0.3759
  574SOL    HW1 1721   0.217   1.892   1.017 -0.1552  2.3954  1.6718
  574SOL    HW2 1722   0.174   1.751   1.095  0.9472 -0.2077  0.6048
  575SOL     OW 1723   0.888   2.127   1.012 -0.0938 -0.0288 -0.0068
  575SOL    HW1 1724   0.833   2.123   1.102 -0.5249 -2.3590  1.1468
  575SOL    HW2 1725   0.936   2.216   0.995 -1.0287  0.2499 -0.9663
  576SOL     OW 1726   2.927   2.912   1.710 -0.2375  0.3045  0.7221
  576SOL    HW1 1727   2.850   2.855   1.678  0.3892  0.5904  1.6477
  576SOL    HW2 1728   2.933   3.009   1.669 -2.0276  0.5554 -1.8938
  577SOL     OW 1729   2.553   1.280   3.057 -0.0467  0.4837 -0.3603
  577SOL    HW1 1730   2.524   1.183   3.038 -1.0928 -0.0538  0.7480
  577SOL    HW2 1731   2.629   1.283   3.127  2.6114 -1.7171  2.2811
  578SOL     OW 1732   1.331   2.718   2.560 -0.6558  0.2496 -0.6392
  578SOL    HW1 1733   1.242   2.700   2.502  1.2946 -2.4175 -0.1378
  578SOL    HW2 1734   1.364   2.815   2.550 -1.4754  0.9192 -0.3043
  579SOL     OW 1735   0.130   2.540   0.185 -0.3979 -0.0459  0.1870
  579SOL    HW1 1736   0.077   2.552   0.273 -1.4514 -1.8060 -1.7689
  579SOL    HW2 1737   0.230   2.516   0.205  0.8343  2.3984  1.8293
  580SOL     OW 1738   1.015   2.656   0.355  0.0290 -0.3758  0.2004
  580SOL    HW1 1739   1.104   2.683   0.310  0.5904  0.8673  1.2008
  580SOL    HW2 1740   0.975   2.567   0.313 -0.2888 -1.1320 -1.3464
  581SOL     OW 1741   1.204   2.612   1.477 -0.5807  0.4756  0.1336
  581SOL    HW1 1742   1.273   2.535   1.465 -0.1059  0.8897 -1.0465
  581SOL    HW2 1743   1.237   2.690   1.409  1.4762  0.6136 -1.7351
  582SOL     OW 1744   1.485   0.040   1.869  0.0712 -0.1338 -0.2568
  582SOL    HW1 1745   1.493   0.139   1.910  1.1720 -0.9524 -2.7060
  582SOL    HW2 1746   1.559   0.024   1.794 -1.2931 -1.2701 -2.6491
  583SOL     OW 1747   2.437   2.989   0.601 -0.1729 -0.3975  0.0176
  583SOL    HW1 1748   2.459   2.912   0.534  0.4759 -1.6229  0.9276
  583SOL    HW2 1749   2.385   2.952   0.683  2.6293  3.5003  0.7381
  584SOL     OW 1750   1.546   0.975   2.112  0.4343  0.3637  0.1990
  584SOL    HW1 1751   1.610   1.035   2.056  1.6244  2.9440  0.0383
  584SOL    HW2 1752   1.584   0.943   2.203  0.9623  1.4553  1.0056
  585SOL     OW 1753   2.120   2.648   2.925 -0.7108  0.2779  0.1682
  585SOL    HW1 1754   2.150   2.568   2.866  0.2335  1.5719  0.0074
  585SOL    HW2 1755   2.011   2.662   2.927 -2.6475 -0.2631 -0.8838
  586SOL     OW 1756   2.773   0.218   1.583 -0.2362 -0.1408 -0.2610
  586SOL    HW1 1757   2.762   0.315   1.626 -2.3323 -1.9359 -3.6502
  586SOL    HW2 1758   2.688   0.160   1.583  0.4964  0.2774  0.5732
  587SOL     OW 1759   2.007   1.618   2.730 -0.2703  0.2121 -0.2020
  587SOL    HW1 1760   2.060   1.588   2.647  2.1629  1.0025  0.4813
  587SOL    HW2 1761   2.059   1.589   2.820  0.1503 -3.1856 -1.5825
  588SOL     OW 1762   0.479   2.726   2.219 -0.5217  0.1152  0.2142
  588SOL    HW1 1763   0.387   2.721   2.179 -1.6922  0.1682  1.1292
  588SOL    HW2 1764   0.481   2.668   2.307  1.5241  0.3137  0.7042
  589SOL     OW 1765   2.144   1.492   2.532 -0.1829  0.7239 -0.1983
  589SOL    HW1 1766   2.076   1.421   2.494  0.6144  1.5346 -0.3610
  589SOL    HW2 1767   2.240   1.445   2.544  0.1592 -1.2139  0.5365
  590SOL     OW 1768   2.327   1.709   1.990 -0.5227 -0.3443  0.0477
  590SOL    HW1 1769   2.413   1.650   1.965  0.5592  0.4309  0.5205
  590SOL    HW2 1770   2.347   1.781   2.064 -0.7852  0.4754  2.1093
  591SOL     OW 1771   1.328   2.477   0.315 -0.1560 -0.3218 -0.7014
  591SOL    HW1 1772   1.410   2.424   0.281 -0.5265 -1.2172 -3.3922
  591SOL    HW2 1773   1.306   2.463   0.418 -1.6538  0.8327  0.0335
  592SOL     OW 1774   1.695   2.343   0.784  0.0718  0.1387  0.4178
  592SOL    HW1 1775   1.685   2.374   0.685  2.5681  1.4707 -4.1235
  592SOL    HW2 1776   1.795   2.323   0.802 -1.2842 -0.7811 -0.3928
  593SOL     OW 1777   0.567   0.183   3.044  0.6228 -0.4060  0.3359
  593SOL    HW1 1778   0.657   0.131   3.020  3.3342 -0.7288 -0.1124
  593SOL    HW2 1779   0.584   0.279   3.093 -0.4719  0.9255 -2.0339
  594SOL     OW 1780   0.903   1.960   2.686  0.2327  0.7091 -0.2976
  594SOL    HW1 1781   0.978   2.027   2.711  2.9585 -0.1893 -1.8567
  594SOL    HW2 1782   0.813   1.987   2.728  2.3477  0.4178  0.2474
  595SOL     OW 1783   1.558   0.042   1.063 -0.0240 -0.0093  0.1708
  595SOL    HW1 1784   1.652   0.002   1.081  1.2608  0.6506 -4.3576
  595SOL    HW2 1785   1.493  -0.018   1.007 -0.1480 -2.0173 -1.2294
  596SOL     OW 1786   3.078   1.442   2.225 -0.1043 -0.8389  0.3902
  596SOL    HW1 1787   2.991   1.490   2.242  0.0742 -3.5262  0.7512
  596SOL    HW2 1788   3.090   1.383   2.314 -1.0308  0.6262  1.7029
  597SOL     OW 1789   2.108   2.616   1.624 -0.0321 -0.1002 -0.1574
  597SOL    HW1 1790   2.113   2.550   1.544 -1.6452  2.1897  1.6727
  597SOL    HW2 1791   2.198   2.624   1.684 -0.9663 -0.5530  2.2192
  598SOL     OW 1792   2.538   2.896   1.202 -0.0694 -0.1247  0.0540
  598SOL    HW1 1793   2.613   2.910   1.269 -0.5535  0.9528 -0.2308
  598SOL    HW2 1794   2.563   2.898   1.101 -0.5360  1.6126  0.2231
  599SOL     OW 1795   2.916   0.333   2.425 -0.3208 -0.2170  0.8104
  599SOL    HW1 1796   2.991   0.346   2.352 -1.1556  0.7403  1.0418
  599SOL    HW2 1797   2.831   0.392   2.402 -2.1438 -2.5627 -1.5796
  600SOL     OW 1798   2.839   1.040   2.713 -0.1449  0.5352 -0.0598
  600SOL    HW1 1799   2.807   0.955   2.761  0.5009 -1.1511 -1.4563
  600SOL    HW2 1800   2.811   1.127   2.760 -0.2380 -1.7887 -2.5079
  601SOL     OW 1801   2.975   1.252   2.045  0.9471  0.3304 -0.2581
  601SOL    HW1 1802   2.892   1.288   1.998 -1.3413  0.3112  2.0494
  601SOL    HW2 1803   3.014   1.319   2.119  2.6239  0.1486  2.2934
  602SOL     OW 1804   1.548   1.703   2.374  0.0353  0.3069  0.4240
  602SOL    HW1 1805   1.504   1.615   2.399  1.3330 -0.0594 -1.4075
  602SOL    HW2 1806   1.642   1.706   2.400  0.1289  1.1407  0.3202
  603SOL     OW 1807   0.670   1.259   2.636  0.1277 -0.3082  0.4905
  603SOL    HW1 1808   0.607   1.234   2.555 -0.1217 -0.3775  2.6766
  603SOL    HW2 1809   0.737   1.185   2.653 -1.8979  4.3745  0.0381
  604SOL     OW 1810   2.410   0.958   0.198  0.2175  0.2444  0.1682
  604SOL    HW1 1811   2.464   1.010   0.132 -1.3877 -2.4621  0.8082
  604SOL    HW2 1812   2.383   0.863   0.166  1.1772 -0.3453  1.6376
  605SOL     OW 1813   2.670   1.135   1.948  0.5525  0.6701 -0.4682
  605SOL    HW1 1814   2.648   1.048   1.894  0.9723 -0.8389 -1.1699
  605SOL    HW2 1815   2.671   1.124   2.052  0.6612  0.5790  1.9659
  606SOL     OW 1816   1.545   2.539   2.582  0.8310  0.1542  0.4986
  606SOL    HW1 1817   1.455   2.599   2.589 -1.1502 -0.6709  1.2371
  606SOL    HW2 1818   1.523   2.441   2.594 -2.8606  0.6276 -0.9545
  607SOL     OW 1819   1.344   1.544   0.449  0.1536  0.3440  0.0222
  607SOL    HW1 1820   1.272   1.516   0.521 -0.5754  2.5411 -1.1990
  607SOL    HW2 1821   1.359   1.649   0.439 -0.0501  2.4394  1.5530
  608SOL     OW 1822   1.410   2.919   0.440  0.0969  0.0435  0.4555
  608SOL    HW1 1823   1.482   2.972   0.379 -2.2175  0.5507 -1.8159
  608SOL    HW2 1824   1.319   2.970   0.450 -0.4734 -2.9155 -0.4664
  609SOL     OW 1825   1.315   1.347   0.267 -0.2519 -0.3841 -0.2908
  609SOL    HW1 1826   1.349   1.431   0.325 -1.1803  0.7623  0.0623
  609SOL    HW2 1827   1.216   1.353   0.240 -1.2125 -0.6956  2.0002
  610SOL     OW 1828   2.963   1.057   2.294 -0.4240  0.5546  0.6442
  610SOL    HW1 1829   2.952   0.953   2.289  1.4823  0.0239 -0.3806
  610SOL    HW2 1830   2.944   1.100   2.199 -1.8709  0.3677 -1.4660
  611SOL     OW 1831   2.506   0.317   1.214  0.0725  0.0885 -0.6424
  611SOL    HW1 1832   2.465   0.221   1.219  0.1892  0.9993 -1.4446
  611SOL    HW2 1833   2.610   0.321   1.230  1.4934 -1.1024 -0.5559
  612SOL     OW 1834   0.750   2.179   1.234 -0.3166  0.3020  0.2861
  612SOL    HW1 1835   0.663   2.120   1.244 -1.0170  0.7364  2.3518
  612SOL    HW2 1836   0.726   2.275   1.203  1.5163 -2.2882 -0.9126
  613SOL     OW 1837   0.885   1.431   2.390  0.1621  0.3846 -0.4738
  613SOL    HW1 1838   0.945   1.464   2.315 -2.8663 -0.3278  0.3343
  613SOL    HW2 1839   0.831   1.342   2.367  3.6556 -1.3890  0.4181
  614SOL     OW 1840   1.673   1.574   1.827 -0.0839  0.5547  0.1407
  614SOL    HW1 1841   1.644   1.665   1.792  0.7471 -0.5112 -0.6504
  614SOL    HW2 1842   1.761   1.575   1.883  1.9236 -1.0401 -1.2794
  615SOL     OW 1843   0.761   1.240   1.746 -0.1737 -0.0278 -0.5571
  615SOL    HW1 1844   0.707   1.212   1.666  4.0730  1.2723  3.0375
  615SOL    HW2 1845   0.814   1.327   1.728 -0.1278 -1.6424  1.5130
  616SOL     OW 1846   1.076   1.558   2.213  0.1786  0.2024 -0.2278
  616SOL    HW1 1847   1.027   1.574   2.124  2.7544  2.0955  0.6005
  616SOL    HW2 1848   1.091   1.646   2.261  1.3563 -3.8194  0.9464
  617SOL     OW 1849   2.972   1.531   1.628  0.3946  0.6728  0.1272
  617SOL    HW1 1850   3.006   1.464   1.697  1.2453  1.9884  0.3352
  617SOL    HW2 1851   3.009   1.515   1.533  0.2063 -1.0673  1.6903
  618SOL     OW 1852   1.859   2.085   1.370  0.0806  0.5488 -0.5099
  618SOL    HW1 1853   1.866   2.170   1.309  0.7725 -0.3950  0.4543
  618SOL    HW2 1854   1.839   1.996   1.320 -0.2825 -2.6359  1.5889
  619SOL     OW 1855   1.752   0.461   2.374 -0.1449 -0.4912 -0.1994
  619SOL    HW1 1856   1.675   0.522   2.327 -2.1644  3.1280 -0.8960
  619SOL    HW2 1857   1.722   0.363   2.389  2.5535 -3.5186 -2.7229
  620SOL     OW 1858   2.270   2.843   0.782  0.3134  0.1923  0.0385
  620SOL    HW1 1859   2.174   2.815   0.773 -0.5530  1.1548  0.7851
  620SOL    HW2 1860   2.326   2.775   0.840 -0.3372 -0.5734  0.1226
  621SOL     OW 1861   2.162   1.883   1.367 -0.0762 -0.4693 -0.1546
  621SOL    HW1 1862   2.164   1.890   1.472  1.3742 -0.5690 -0.2494
  621SOL    HW2 1863   2.119   1.794   1.335 -0.0031  0.9773 -0.7925
  622SOL     OW 1864   2.323   0.943   1.884  0.2228 -0.3723 -0.0786
  622SOL    HW1 1865   2.414   0.936   1.844 -2.3285  1.6714 -2.9754
  622SOL    HW2 1866   2.284   0.851   1.918 -1.4377 -1.7679  0.4029
  623SOL     OW 1867   1.292   0.820   2.490  0.8083 -0.3353 -0.5589
  623SOL    HW1 1868   1.218   0.760   2.528 -3.6221  1.9533 -3.9818
  623SOL    HW2 1869   1.250   0.886   2.417 -0.6004 -0.8811 -0.9798
  624SOL     OW 1870   0.493   0.656   3.063  0.6465 -0.1174  0.4083
  624SOL    HW1 1871   0.528   0.696   2.971  2.2960 -1.4894 -1.3944
  624SOL    HW2 1872   0.518   0.720   3.144  1.2272  1.7043  1.9630
  625SOL     OW 1873   2.777   1.704   1.040  0.1629 -0.1464  0.3271
  625SOL    HW1 1874   2.698   1.754   0.994 -0.0343 -0.3067 -0.3725
  625SOL    HW2 1875   2.847   1.767   1.081 -0.7445  2.0195  0.0815
  626SOL     OW 1876   0.654   2.670   1.738  0.0191  0.1644 -0.3555
  626SOL    HW1 1877   0.707   2.748   1.783  1.4595  0.1204 -0.9997
  626SOL    HW2 1878   0.554   2.662   1.773 -2.5247 -1.6989 -0.7466
  627SOL     OW 1879   0.665   0.848   1.622  0.1025  0.6728 -0.4225
  627SOL    HW1 1880   0.586   0.791   1.582  0.1545 -0.5667 -0.5315
  627SOL    HW2 1881   0.719   0.898   1.556 -0.9623 -1.0330  0.8709
  628SOL     OW 1882   2.412   0.155   0.711  0.4707  0.3520  0.1485
  628SOL    HW1 1883   2.449   0.064   0.685  0.7022  2.2037 -0.1585
  628SOL    HW2 1884   2.311   0.156   0.733  0.5380 -1.0650  2.4478
  629SOL     OW 1885   1.909   0.935   1.975 -0.0828 -0.5136  0.0278
  629SOL    HW1 1886   1.931   1.016   1.916  0.3236  0.1328 -0.2005
  629SOL    HW2 1887   1.896   0.970   2.072 -1.2481  3.8009  0.7395
  630SOL     OW 1888   2.897   2.252   0.789 -0.1179  0.2313 -0.3519
  630SOL    HW1 1889   2.843   2.341   0.776  1.1772  3.1931  0.4436
  630SOL    HW2 1890   2.840   2.166   0.785  1.6450 -0.1658 -0.2726
  631SOL     OW 1891   0.029   0.137   2.117  0.4028 -0.1286  0.7812
  631SOL    HW1 1892   0.076   0.174   2.204 -1.6756  0.2791  2.0908
  631SOL    HW2 1893   0.087   0.143   2.036 -0.4534  1.5110  2.3817
  632SOL     OW 1894   2.447   2.554   0.590  0.2080 -0.1990 -0.1934
  632SOL    HW1 1895   2.517   2.633   0.594  1.3673  0.8399 -2.8059
  632SOL    HW2 1896   2.391   2.565   0.507 -1.7842 -1.3247  2.8459
  633SOL     OW 1897   1.454   1.207   2.690 -0.5627 -0.1745 -0.4151
  633SOL    HW1 1898   1.435   1.294   2.748  2.4888 -0.2921  2.7319
  633SOL    HW2 1899   1.398   1.195   2.605  0.9709 -2.1099  1.2251
  634SOL     OW 1900   0.676   2.064   0.861  0.1023 -0.1547  0.3517
  634SOL    HW1 1901   0.588   2.074   0.912  2.1231  0.5816  0.5101
  634SOL    HW2 1902   0.759   2.093   0.913 -1.3011 -1.9232  1.7445
  635SOL     OW 1903   3.060   2.386   3.099 -0.5585  0.4024  0.1536
  635SOL    HW1 1904   2.984   2.430   3.043  2.4304  1.3632 -0.3323
  635SOL    HW2 1905   3.131   2.452   3.137 -0.5680 -0.8626 -0.4987
  636SOL     OW 1906   2.383   2.752   2.047 -0.3522  0.8139  0.2096
  636SOL    HW1 1907   2.380   2.853   2.041  2.2501  2.7569  1.1292
  636SOL    HW2 1908   2.328   2.714   2.121 -0.3183 -1.0081 -2.3869
  637SOL     OW 1909   2.746   0.631   2.008  0.2074 -0.6110  0.0607
  637SOL    HW1 1910   2.670   0.649   1.940  1.1771  0.7232  0.1332
  637SOL    HW2 1911   2.802   0.713   2.010 -1.2726 -0.8902 -0.2171
  638SOL     OW 1912   2.437   1.873   1.302 -0.8122 -0.1121 -0.2228
  638SOL    HW1 1913   2.335   1.872   1.321 -0.5889 -0.6071  0.2069
  638SOL    HW2 1914   2.486   1.798   1.352 -0.5631 -0.4590  0.9192
  639SOL     OW 1915   1.306   2.217   1.663  0.2347 -0.1402  0.4350
  639SOL    HW1 1916   1.371   2.294   1.641  0.5048  2.2833 -0.5196
  639SOL    HW2 1917   1.260   2.225   1.755  0.4015  0.2479  0.0596
  640SOL     OW 1918   0.189   1.204   1.553 -0.3960  0.0794 -0.3360
  640SOL    HW1 1919   0.192   1.244   1.649  2.0655 -3.4976  0.2892
  640SOL    HW2 1920   0.257   1.124   1.539 -0.7961 -1.9363  1.4733
  641SOL     OW 1921   1.954   0.220   1.506 -0.1677  0.0336 -0.4423
  641SOL    HW1 1922   1.893   0.272   1.575 -2.6456  1.6765 -0.9518
  641SOL    HW2 1923   2.049   0.203   1.539 -1.4949 -1.1012  1.4852
  642SOL     OW 1924   2.026   0.053   0.345 -0.2824  0.4008  0.3749
  642SOL    HW1 1925   2.128   0.061   0.366 -0.0819  0.9618  1.6157
  642SOL    HW2 1926   1.979   0.028   0.435 -1.7994 -0.2085  0.4895
  643SOL     OW 1927   2.896   1.911   2.175 -0.3209 -0.9915  0.4425
  643SOL    HW1 1928   2.843   1.823   2.168 -0.0269 -0.1468  0.1384
  643SOL    HW2 1929   2.883   1.973   2.094  0.2401 -1.3408  0.8499
  644SOL     OW 1930   2.285   2.416   1.242  0.3319 -0.0091  0.3332
  644SOL    HW1 1931   2.350   2.358   1.186  0.3782 -3.2059 -0.6304
  644SOL    HW2 1932   2.255   2.384   1.334 -2.8042 -0.9589 -0.7858
  645SOL     OW 1933   0.662   0.829   1.259 -0.1421 -0.3405  0.0525
  645SOL    HW1 1934   0.568   0.788   1.275 -2.5071 -0.6617 -0.7708
  645SOL    HW2 1935   0.674   0.874   1.168 -0.2351  1.2404 -1.7360
  646SOL     OW 1936   1.493   1.834   2.045 -0.4706  0.5507  0.2355
  646SOL    HW1 1937   1.570   1.855   1.978 -0.6267 -0.2393  0.9266
  646SOL    HW2 1938   1.524   1.805   2.141  1.0547 -1.3610 -1.0992
  647SOL     OW 1939   0.825   1.128   0.688  0.1971  0.0278  0.2858
  647SOL    HW1 1940   0.886   1.127   0.774  0.5131 -2.1239  1.4302
  647SOL    HW2 1941   0.774   1.036   0.671 -0.1911  0.0986 -0.5428
  648SOL     OW 1942   0.182   0.226   0.338 -0.3574  0.1009 -0.0698
  648SOL    HW1 1943   0.176   0.132   0.301  0.5825  1.0924 -0.1020
  648SOL    HW2 1944   0.178   0.296   0.261  0.0598 -2.8948  0.0790
  649SOL     OW 1945   2.999   0.264   0.791  0.3220 -0.0074 -0.8153
  649SOL    HW1 1946   3.088   0.228   0.746 -1.6981 -2.6155 -3.0514
  649SOL    HW2 1947   3.015   0.351   0.845  2.0408 -1.2074 -1.3714
  650SOL     OW 1948   2.792   0.665   1.504  0.2563 -0.2747  0.2326
  650SOL    HW1 1949   2.697   0.635   1.488 -1.4333 -1.9525  0.6668
  650SOL    HW2 1950   2.802   0.766   1.509  3.2663 -0.7307 -1.6098
  651SOL     OW 1951   0.865   1.540   1.673  0.0384  0.0489 -0.2209
  651SOL    HW1 1952   0.919   1.562   1.760  0.8151  0.0616  0.3857
  651SOL    HW2 1953   0.920   1.485   1.606 -1.1033 -2.3219  1.7320
  652SOL     OW 1954   2.377   2.485   2.475  0.4049  0.5889  0.2126
  652SOL    HW1 1955   2.292   2.544   2.484 -0.5273 -0.3261 -1.6440
  652SOL    HW2 1956   2.419   2.490   2.379 -3.1078  0.7444 -2.6117
  653SOL     OW 1957   2.725   1.269   0.181  0.3174  0.0929  0.2438
  653SOL    HW1 1958   2.758   1.357   0.224  1.7699 -0.3927  0.7139
  653SOL    HW2 1959   2.782   1.186   0.210  1.4106 -1.1579  0.5344
  654SOL     OW 1960   1.270   2.164   1.273 -0.0008  0.4440  0.3380
  654SOL    HW1 1961   1.279   2.094   1.351  1.8393 -0.3728 -0.3203
  654SOL    HW2 1962   1.297   2.127   1.177  1.5425 -2.7653 -1.7314
  655SOL     OW 1963   0.165   0.978   1.919 -0.2618 -0.0957 -0.2903
  655SOL    HW1 1964   0.229   0.899   1.889 -1.8117  0.4324 -2.2961
  655SOL    HW2 1965   0.191   1.074   1.892  0.8789 -1.3245  0.1205
  656SOL     OW 1966   2.577   2.552   2.629 -0.6517 -0.1827 -0.1690
  656SOL    HW1 1967   2.676   2.526   2.601 -0.3644 -3.1414 -0.7978
  656SOL    HW2 1968   2.502   2.506   2.569  1.0617  0.4585 -0.1444
  657SOL     OW 1969   3.002   1.067   1.831  0.0912  0.7043 -0.3615
  657SOL    HW1 1970   3.001   1.142   1.901 -0.3560 -0.2480 -1.1170
  657SOL    HW2 1971   3.085   1.007   1.845  1.4607 -2.4536 -0.8968
  658SOL     OW 1972   1.671   0.199   2.344  0.5288  0.2758 -0.1659
  658SOL    HW1 1973   1.692   0.122   2.413 -0.2179  1.4863 -1.5638
  658SOL    HW2 1974   1.733   0.201   2.262  0.5948  1.3148 -0.8806
  659SOL     OW 1975   1.420   0.622   2.772  0.0689 -0.1015 -0.5292
  659SOL    HW1 1976   1.461   0.673   2.689 -0.1220  0.1372 -1.2775
  659SOL    HW2 1977   1.317   0.626   2.772  3.3401  0.9907 -2.5410
  660SOL     OW 1978   1.458   0.330   1.416 -0.3022  0.0595 -0.4329
  660SOL    HW1 1979   1.478   0.363   1.515  0.2138  2.7936 -2.1540
  660SOL    HW2 1980   1.515   0.245   1.404 -2.5428  2.5196 -0.8150
  661SOL     OW 1981   2.423   1.268   0.620 -0.6235  0.1630  0.0897
  661SOL    HW1 1982   2.479   1.278   0.537  1.2052 -0.4186 -2.0123
  661SOL    HW2 1983   2.351   1.342   0.641  1.7136  2.0094 -0.9057
  662SOL     OW 1984   1.466   0.400   1.667 -0.0504  0.0326  0.2901
  662SOL    HW1 1985   1.389   0.362   1.722  2.1108  1.1874 -2.5841
  662SOL    HW2 1986   1.476   0.506   1.669  2.7777  0.6088 -0.0450
  663SOL     OW 1987   0.894   1.590   2.004  0.3133 -0.0864  1.2377
  663SOL    HW1 1988   0.850   1.677   2.033  2.0696 -1.5499  4.5908
  663SOL    HW2 1989   0.824   1.515   1.979 -4.0385  0.8160  0.1164
  664SOL     OW 1990   1.566   2.111   1.439 -0.2503  0.1708 -0.0330
  664SOL    HW1 1991   1.476   2.060   1.450 -0.1153 -0.9446 -0.9596
  664SOL    HW2 1992   1.637   2.076   1.510 -2.2798  1.2727  0.2634
  665SOL     OW 1993   2.243   0.703   1.961  0.0158 -0.0063 -0.0274
  665SOL    HW1 1994   2.206   0.613   1.936 -1.0984 -0.8675 -2.9131
  665SOL    HW2 1995   2.307   0.700   2.042 -1.6225  0.2098 -0.0167
  666SOL     OW 1996   0.480   2.225   0.334  0.0801 -0.0910  0.1801
  666SOL    HW1 1997   0.529   2.285   0.403  1.9742 -0.0286  0.0819
  666SOL    HW2 1998   0.379   2.213   0.348  0.7027 -0.0453 -1.1858
  667SOL     OW 1999   1.948   0.204   1.074  0.2585  0.3622  0.3609
  667SOL    HW1 2000   1.935   0.306   1.072  0.5693 -0.6671  0.0428
  667SOL    HW2 2001   1.916   0.164   1.167 -1.2204  2.3568  0.9033
  668SOL     OW 2002   1.984   0.492   1.111 -0.2256 -0.6013  0.5270
  668SOL    HW1 2003   2.040   0.513   1.025  0.8030 -0.4818  1.9130
  668SOL    HW2 2004   2.040   0.485   1.199  4.7304 -2.9331  1.5293
  669SOL     OW 2005   3.026   2.173   1.048 -0.2002  0.6855 -0.1191
  669SOL    HW1 2006   2.994   2.216   0.959  1.3480  0.4471 -2.0677
  669SOL    HW2 2007   3.017   2.233   1.128 -0.8910 -0.7258 -0.9599
  670SOL     OW 2008   2.917   2.295   2.082 -0.0582 -0.2345 -0.0675
  670SOL    HW1 2009   2.835   2.288   2.151 -1.3464 -1.5190  0.9146
  670SOL    HW2 2010   2.930   2.389   2.031  0.4625 -1.7355 -1.7297
  671SOL     OW 2011   1.812   1.756   1.516  0.1241  0.1714  0.7367
  671SOL    HW1 2012   1.793   1.824   1.440  2.3809  0.1347 -1.9158
  671SOL    HW2 2013   1.751   1.676   1.503 -3.2656  2.0863 -1.4421
  672SOL     OW 2014   0.464   0.653   2.575  0.0665  0.0468 -0.2984
  672SOL    HW1 2015   0.385   0.687   2.506 -1.7580  0.4843 -0.4028
  672SOL    HW2 2016   0.433   0.646   2.671  0.3672  0.2020  0.1492
  673SOL     OW 2017   0.096   1.354   1.071 -0.1409 -0.4360  0.2175
  673SOL    HW1 2018   0.083   1.379   1.169 -2.2776 -0.1952  2.0801
  673SOL    HW2 2019   0.180   1.390   1.026 -1.1145  1.3689  3.4177
  674SOL     OW 2020   1.635   2.968   0.280  0.1720 -0.1545  0.1072
  674SOL    HW1 2021   1.680   3.037   0.214  1.4278  2.6998  0.8823
  674SOL    HW2 2022   1.657   2.867   0.258  0.1826  0.4779  0.6518
  675SOL     OW 2023   1.703   0.844   2.348  0.3506 -0.0754  0.1263
  675SOL    HW1 2024   1.803   0.821   2.334  2.1737 -0.1267  0.3936
  675SOL    HW2 2025   1.641   0.767   2.316  0.3884  3.7602 -0.8369
  676SOL     OW 2026   2.562   1.524   1.971 -0.0007 -0.1380 -0.8695
  676SOL    HW1 2027   2.503   1.478   1.903 -0.0646  2.2762  3.0411
  676SOL    HW2 2028   2.585   1.456   2.048  1.2313  0.3978  1.7502
  677SOL     OW 2029   1.868   0.696   0.904  0.2568  0.2383  0.5343
  677SOL    HW1 2030   1.782   0.709   0.957 -0.4137 -2.1908  0.1609
  677SOL    HW2 2031   1.902   0.599   0.912 -2.1296  0.2008 -1.1742
  678SOL     OW 2032   0.103   0.762   1.632  0.5599 -0.0613 -0.1946
  678SOL    HW1 2033   0.196   0.791   1.672 -0.3450  3.5554  0.5047
  678SOL    HW2 2034   0.053   0.698   1.700  2.1515 -1.9850  0.8705
  679SOL     OW 2035   2.608   1.132   1.169  0.5839 -0.1300 -0.0753
  679SOL    HW1 2036   2.512   1.169   1.161 -0.4107 -1.0529 -0.3089
  679SOL    HW2 2037   2.611   1.027   1.163  2.5422  0.8501 -0.1121
  680SOL     OW 2038   2.862   0.466   1.697 -0.2955  0.1635 -0.0167
  680SOL    HW1 2039   2.824   0.525   1.618 -2.7444 -1.1173 -0.3019
  680SOL    HW2 2040   2.943   0.507   1.747 -2.5935  2.5034 -0.1798
  681SOL     OW 2041   3.001   0.070   1.608 -0.0614  0.7322  0.0355
  681SOL    HW1 2042   3.037   0.038   1.516 -1.5280 -2.0468  0.9491
  681SOL    HW2 2043   2.921   0.142   1.601 -1.3452 -3.3546  2.0798
  682SOL     OW 2044   0.661   0.047   1.327  0.5050 -0.4564 -0.1237
  682SOL    HW1 2045   0.615  -0.043   1.343  0.6050 -2.3805  1.4774
  682SOL    HW2 2046   0.737   0.040   1.256 -0.6433  0.8655  0.3468
  683SOL     OW 2047   1.380   0.206   2.150 -0.2724 -0.3414  0.8119
  683SOL    HW1 2048   1.384   0.242   2.248 -0.8626  1.6478 -0.2498
  683SOL    HW2 2049   1.459   0.243   2.095  0.2555  3.6272  0.9767
  684SOL     OW 2050   1.447   2.139   0.555  0.0820 -0.4696 -0.3738
  684SOL    HW1 2051   1.506   2.061   0.593 -0.5689  1.1409 -1.9599
  684SOL    HW2 2052   1.357   2.101   0.519 -0.2260 -1.7543 -0.2899
  685SOL     OW 2053   2.244   2.064   1.954 -0.2341 -0.5595 -0.5207
  685SOL    HW1 2054   2.271   2.067   1.853  0.5861 -2.1711 -1.6646
  685SOL    HW2 2055   2.309   2.020   2.018 -1.1500  0.1797 -1.7110
  686SOL     OW 2056   1.491   1.852   2.904 -0.5626 -0.5167 -0.4472
  686SOL    HW1 2057   1.524   1.819   2.997  1.4556 -2.3789 -0.3426
  686SOL    HW2 2058   1.391   1.834   2.890 -0.0917 -0.7924  0.3007
  687SOL     OW 2059   1.300   2.413   1.975 -0.5667 -0.1893  0.0122
  687SOL    HW1 2060   1.357   2.330   2.000  0.1806  2.2558  0.4682
  687SOL    HW2 2061   1.301   2.490   2.048  0.3857  1.7754  0.0151
  688SOL     OW 2062   2.077   1.503   1.746 -0.0291  0.0511 -0.2459
  688SOL    HW1 2063   2.162   1.552   1.716  1.6884 -1.6008  1.5820
  688SOL    HW2 2064   2.026   1.453   1.670  0.5357  0.8652  1.6535
  689SOL     OW 2065   2.399   1.136   2.748 -0.4922 -0.3798  0.2560
  689SOL    HW1 2066   2.301   1.119   2.778  0.7147  0.2215 -1.5095
  689SOL    HW2 2067   2.468   1.110   2.822  1.0308  0.7461 -1.5131
  690SOL     OW 2068   2.220   2.790   0.045 -0.3305 -0.4059  0.2989
  690SOL    HW1 2069   2.159   2.742  -0.021  1.0136 -1.1360 -2.8446
  690SOL    HW2 2070   2.185   2.814   0.143  1.1650 -0.8887  1.4424
  691SOL     OW 2071   2.571   0.433   2.101  0.0283 -0.2638 -0.3831
  691SOL    HW1 2072   2.602   0.334   2.108  0.7037 -1.3400  3.3330
  691SOL    HW2 2073   2.639   0.499   2.060  0.3643 -1.3428 -0.4994
  692SOL     OW 2074   2.649   1.195   0.784  0.6194 -0.3815  0.5646
  692SOL    HW1 2075   2.559   1.208   0.736 -0.8827 -1.2569 -0.1036
  692SOL    HW2 2076   2.675   1.271   0.848 -0.7350  0.0288  1.8221
  693SOL     OW 2077   2.836   2.950   0.630  0.3334 -0.1516 -0.4347
  693SOL    HW1 2078   2.845   3.038   0.692  1.3995  2.1111 -2.1845
  693SOL    HW2 2079   2.823   2.978   0.529 -0.3949  0.6229 -1.5964
  694SOL     OW 2080   2.427   2.203   0.159  0.5067  0.5043 -0.0858
  694SOL    HW1 2081   2.406   2.288   0.218 -0.4085  0.2381  0.3484
  694SOL    HW2 2082   2.344   2.134   0.158 -0.2108 -2.2929 -0.8106
  695SOL     OW 2083   0.463   2.960   1.433 -0.4052 -0.0902 -0.2114
  695SOL    HW1 2084   0.398   2.886   1.405 -1.2696 -0.2375  0.1802
  695SOL    HW2 2085   0.422   3.026   1.499 -1.2783 -0.2277  0.1319
  696SOL     OW 2086   2.802   1.981   0.757  0.3178  0.4519  0.4946
  696SOL    HW1 2087   2.863   1.895   0.765  2.6411  3.7235 -0.5533
  696SOL    HW2 2088   2.791   2.011   0.657 -0.2269 -1.1267 -1.5550
  697SOL     OW 2089   1.671   1.870   1.832  0.0460  0.5275  0.1036
  697SOL    HW1 2090   1.763   1.823   1.838  0.3891  0.6392 -0.4333
  697SOL    HW2 2091   1.678   1.968   1.803  0.3710 -2.4024 -0.1065
  698SOL     OW 2092   2.876   0.432   2.712 -0.0467  0.0765  0.1400
  698SOL    HW1 2093   2.891   0.383   2.621 -2.7770 -0.3112 -2.1048
  698SOL    HW2 2094   2.917   0.373   2.792  1.2188 -1.1934  2.2488
  699SOL     OW 2095   1.568   0.071   2.917 -0.0140 -0.2204 -0.4151
  699SOL    HW1 2096   1.542  -0.027   2.892  1.0118 -0.9664 -0.1140
  699SOL    HW2 2097   1.633   0.120   2.849 -0.7405  1.3964 -3.3274
  700SOL     OW 2098   0.990   2.242   1.366  0.2612 -0.5301 -0.5623
  700SOL    HW1 2099   1.074   2.220   1.315 -0.3368  1.4358  0.4830
  700SOL    HW2 2100   0.910   2.188   1.326 -2.8510  0.7567  1.0149
  701SOL     OW 2101   1.902   2.869   0.047 -0.0229 -0.1215 -0.0583
  701SOL    HW1 2102   1.859   2.843   0.142  0.8261  2.9170 -1.5788
  701SOL    HW2 2103   1.916   2.971   0.026 -2.1778 -2.8543 -1.5430
  702SOL     OW 2104   2.089   1.356   1.960  0.0379 -0.3945  0.2766
  702SOL    HW1 2105   2.182   1.309   1.952  1.3732 -1.0293 -0.3628
  702SOL    HW2 2106   2.068   1.427   1.884 -1.3248  0.3427  0.1707
  703SOL     OW 2107   1.911   0.911   1.523 -0.0883  0.0438 -0.3329
  703SOL    HW1 2108   1.910   0.807   1.539  1.4112 -1.3849  0.4440
  703SOL    HW2 2109   2.003   0.956   1.550  0.5488  0.1840 -2.3091
  704SOL     OW 2110   0.329   2.029   1.694 -0.4100 -0.5084 -0.1099
  704SOL    HW1 2111   0.373   1.973   1.774  0.0895 -1.9363 -0.6085
  704SOL    HW2 2112   0.391   2.102   1.657  0.8071 -1.4801  0.9842
  705SOL     OW 2113   2.448   1.480   0.901  0.4032  0.2382 -0.2185
  705SOL    HW1 2114   2.424   1.412   0.829 -0.1131  1.0060  0.8186
  705SOL    HW2 2115   2.543   1.471   0.943  0.3763  2.1333 -0.8742
  706SOL     OW 2116   0.653   1.701   1.800  0.0765  0.4006  0.6855
  706SOL    HW1 2117   0.726   1.715   1.737  1.7397  0.3815 -0.0448
  706SOL    HW2 2118   0.688   1.660   1.889 -0.5610  0.4203  0.9262
  707SOL     OW 2119   2.335   1.220   1.966  0.3570  0.3236 -0.5562
  707SOL    HW1 2120   2.428   1.234   2.004 -1.4678 -0.8003  2.1954
  707SOL    HW2 2121   2.312   1.118   1.951  1.2053 -0.8355 -0.9568
  708SOL     OW 2122   3.020   0.492   3.076 -0.3266  0.7618  0.0885
  708SOL    HW1 2123   3.095   0.552   3.037  0.2231  3.0115 -1.5313
  708SOL    HW2 2124   3.003   0.409   3.009  0.7081 -3.6681  0.1512
  709SOL     OW 2125   1.908   1.864   0.373 -0.0159  0.4351 -0.1198
  709SOL    HW1 2126   1.902   1.962   0.398  0.6291 -0.8695  0.0716
  709SOL    HW2 2127   1.915   1.852   0.270  0.4914 -0.3898  0.0785
  710SOL     OW 2128   1.806   1.613   2.470 -0.4103  0.6007  0.0380
  710SOL    HW1 2129   1.866   1.536   2.440 -2.9679  1.6894  2.5880
  710SOL    HW2 2130   1.773   1.602   2.571 -0.8470 -0.6646 -0.5572
  711SOL     OW 2131   2.645   2.926   0.939 -0.6863 -0.0400  1.1712
  711SOL    HW1 2132   2.599   3.015   0.914  0.6027  1.1725 -0.6896
  711SOL    HW2 2133   2.741   2.936   0.972  1.0887  0.9738  1.0746
  712SOL     OW 2134   1.388   2.126   1.979 -0.7358 -0.0380 -0.2638
  712SOL    HW1 2135   1.435   2.047   1.922  1.1146  0.0723 -2.9495
  712SOL    HW2 2136   1.288   2.145   1.948  1.5902  0.2180 -0.9330
  713SOL     OW 2137   2.774   1.453   2.514  0.1919  0.3661  0.7867
  713SOL    HW1 2138   2.769   1.346   2.496 -0.4199  1.1873 -2.2600
  713SOL    HW2 2139   2.688   1.498   2.555  0.9126  0.1232  0.6858
  714SOL     OW 2140   2.690   0.487   2.364 -0.2347 -0.2526  0.1952
  714SOL    HW1 2141   2.622   0.432   2.426  1.9732  1.0432 -0.0426
  714SOL    HW2 2142   2.657   0.505   2.271 -0.8906  0.2198  2.8660
  715SOL     OW 2143   1.601   2.197   1.151 -0.3820 -0.0266  0.0982
  715SOL    HW1 2144   1.514   2.259   1.146 -1.4414  1.3802 -0.1832
  715SOL    HW2 2145   1.612   2.141   1.237  0.4718  1.3587  1.2763
  716SOL     OW 2146   1.239   0.130   1.488 -0.4826  0.9962 -0.4136
  716SOL    HW1 2147   1.138   0.142   1.493  0.1563 -2.2872 -2.2897
  716SOL    HW2 2148   1.277   0.226   1.488  1.3618  1.7000  2.1906
  717SOL     OW 2149   1.130   0.560   1.622  0.0808 -0.3374  0.1005
  717SOL    HW1 2150   1.225   0.602   1.635 -1.1622 -0.6043 -1.4626
  717SOL    HW2 2151   1.115   0.520   1.526  0.3850  2.5764 -0.2089
  718SOL     OW 2152   0.672   0.898   0.948 -0.3442 -0.0969  0.5939
  718SOL    HW1 2153   0.631   0.892   0.850 -1.7475  3.2082 -1.5282
  718SOL    HW2 2154   0.669   0.997   0.986 -2.1219  0.1267  0.0811
  719SOL     OW 2155   0.659   1.744   2.297 -0.3166  0.4570 -0.1946
  719SOL    HW1 2156   0.728   1.781   2.359 -2.2341  0.4117  1.3206
  719SOL    HW2 2157   0.642   1.640   2.309 -2.0997  0.8216 -2.0723
  720SOL     OW 2158   2.214   1.151   0.292  0.0637 -0.0891  0.2362
  720SOL    HW1 2159   2.292   1.095   0.251  1.7775  0.4407 -0.7208
  720SOL    HW2 2160   2.173   1.108   0.373  0.6359 -0.3137 -0.5554
  721SOL     OW 2161   2.284   2.995   2.116  0.0158 -0.5628 -0.1087
  721SOL    HW1 2162   2.248   3.009   2.025  4.4970 -1.0785  0.4839
  721SOL    HW2 2163   2.222   3.049   2.181  1.0762  2.1402  0.7442
  722SOL     OW 2164   2.363   1.647   0.511  0.1008 -0.7160 -0.1956
  722SOL    HW1 2165   2.436   1.672   0.438  1.1051 -0.1316  1.3152
  722SOL    HW2 2166   2.265   1.686   0.489  0.7184 -0.5239  2.3434
  723SOL     OW 2167   2.639   2.752   1.916  0.5000 -0.3519 -0.0823
  723SOL    HW1 2168   2.700   2.822   1.961 -2.6106 -1.5602 -0.0757
  723SOL    HW2 2169   2.548   2.743   1.969  1.3874  2.3162 -1.4722
  724SOL     OW 2170   0.442   2.501   2.423  0.7753 -0.1538 -0.0515
  724SOL    HW1 2171   0.340   2.474   2.425 -1.0827 -1.7876  1.4464
  724SOL    HW2 2172   0.489   2.456   2.505  1.7469 -0.0715 -2.8289
  725SOL     OW 2173   2.411   2.809   1.530 -0.8448 -0.0063  0.1727
  725SOL    HW1 2174   2.436   2.827   1.436 -0.5699  0.6761  1.5601
  725SOL    HW2 2175   2.395   2.710   1.558  0.3693 -0.8232  2.2891
  726SOL     OW 2176   2.509   2.316   0.699 -0.2630  0.0159 -0.3556
  726SOL    HW1 2177   2.469   2.416   0.675 -0.5176  2.8279  1.0168
  726SOL    HW2 2178   2.507   2.260   0.614  0.2091 -0.2722 -0.2514
  727SOL     OW 2179   0.115   0.017   0.153 -0.4505  0.2698  0.5229
  727SOL    HW1 2180   0.212   0.024   0.104  0.9287  2.5977 -1.6460
  727SOL    HW2 2181   0.048  -0.020   0.084 -0.0716  1.8789  0.9309
  728SOL     OW 2182   2.908   0.713   0.951  0.0138  0.4176 -0.2748
  728SOL    HW1 2183   2.873   0.697   0.854 -1.7123 -2.6589 -1.7853
  728SOL    HW2 2184   2.857   0.657   1.022  0.0259  1.0138 -0.0146
  729SOL     OW 2185   0.026   2.510   0.769  0.0025  0.2152 -0.4722
  729SOL    HW1 2186   0.082   2.514   0.860 -0.5231 -2.0566 -1.8336
  729SOL    HW2 2187   0.087   2.469   0.695  1.8941 -3.2006  3.5210
  730SOL     OW 2188   2.601   0.668   0.890 -0.8993 -0.2644  0.2060
  730SOL    HW1 2189   2.564   0.766   0.874  3.1624 -0.2997 -1.2407
  730SOL    HW2 2190   2.670   0.636   0.815  2.1112  1.0248  1.4421
  731SOL     OW 2191   3.066   2.186   2.359 -0.1005 -0.3571  0.0934
  731SOL    HW1 2192   3.077   2.234   2.449  2.1080 -0.9712 -0.6083
  731SOL    HW2 2193   3.025   2.246   2.285  0.5595  2.4444 -0.1929
  732SOL     OW 2194   1.258   2.742   2.006 -0.2059 -0.0428  0.1665
  732SOL    HW1 2195   1.244   2.669   2.082 -1.0653  0.0768 -0.7959
  732SOL    HW2 2196   1.236   2.706   1.909 -1.3773  0.4282 -0.8761
  733SOL     OW 2197   0.007   0.597   2.281 -0.1965 -0.3975 -0.0881
  733SOL    HW1 2198   0.081   0.651   2.233 -0.2177  0.5030  0.1219
  733SOL    HW2 2199  -0.038   0.527   2.220  0.0327  2.8433 -1.0250
  734SOL     OW 2200   1.461   0.376   2.678  0.1640 -0.1270  0.0773
  734SOL    HW1 2201   1.448   0.470   2.719 -1.2332  1.3354 -2.1192
  734SOL    HW2 2202   1.384   0.313   2.709 -1.4692  0.0879 -1.1560
  735SOL     OW 2203   2.871   2.648   2.290 -0.5651 -0.0798  0.1153
  735SOL    HW1 2204   2.880   2.600   2.193 -1.2587 -2.8082 -0.6093
  735SOL    HW2 2205   2.944   2.719   2.307 -3.6630  0.8974  0.2509
  736SOL     OW 2206   0.904   0.414   2.507  0.1823  0.3840 -0.3489
  736SOL    HW1 2207   0.802   0.421   2.516  2.0182  1.1723 -0.2743
  736SOL    HW2 2208   0.926   0.326   2.453  2.9800  0.3465  0.1335
  737SOL     OW 2209   2.614   0.415   2.783  0.2596  0.1835  0.2544
  737SOL    HW1 2210   2.613   0.385   2.881 -0.9007  0.1767 -0.8216
  737SOL    HW2 2211   2.715   0.445   2.758  1.8546  0.1106  0.3547
  738SOL     OW 2212   1.748   1.259   2.917 -0.4972  0.1790 -0.8485
  738SOL    HW1 2213   1.845   1.231   2.879 -0.6751 -1.7861 -3.2101
  738SOL    HW2 2214   1.690   1.171   2.923 -0.5556 -0.8995  1.5064
  739SOL     OW 2215   1.858   0.679   0.636 -0.6407 -0.6412  0.2733
  739SOL    HW1 2216   1.855   0.675   0.742 -2.1267 -0.7131  4.1861
  739SOL    HW2 2217   1.865   0.585   0.590  0.5752  1.0038  1.9731
  740SOL     OW 2218   1.955   1.919   2.360 -0.6233 -0.0747  0.3958
  740SOL    HW1 2219   2.034   1.850   2.379  3.8242 -1.3547 -1.1913
  740SOL    HW2 2220   1.890   1.891   2.289 -1.0972  2.1390 -0.2541
  741SOL     OW 2221   2.571   3.097   2.465  0.6898  0.7325 -0.5576
  741SOL    HW1 2222   2.673   3.107   2.464  0.3966 -0.5588 -1.4239
  741SOL    HW2 2223   2.524   3.141   2.382  0.1852 -0.3770 -1.8124
  742SOL     OW 2224   2.192   1.423   0.157  0.5469 -0.5605 -0.0417
  742SOL    HW1 2225   2.104   1.481   0.171 -2.6187 -0.8125  4.1721
  742SOL    HW2 2226   2.186   1.330   0.205 -0.2800 -0.7077  1.2278
  743SOL     OW 2227   1.826   0.599   2.603 -0.3197 -0.1780  0.5298
  743SOL    HW1 2228   1.786   0.539   2.534  0.3106 -1.1491 -0.2653
  743SOL    HW2 2229   1.778   0.691   2.600 -1.5880 -1.3505 -0.4911
  744SOL     OW 2230   2.676   2.119   0.070 -0.1658 -0.3025 -0.0647
  744SOL    HW1 2231   2.589   2.160   0.106 -0.7617  0.6839  2.8603
  744SOL    HW2 2232   2.666   2.016   0.056  3.9540  0.9695 -0.7593
  745SOL     OW 2233   2.221   2.584   2.234  1.2139  0.4167  0.2291
  745SOL    HW1 2234   2.128   2.583   2.196  2.5052  0.6325  0.5307
  745SOL    HW2 2235   2.235   2.653   2.309 -0.3130  1.5884  1.4623
  746SOL     OW 2236   0.034   2.629   1.748  0.4818  0.2578  0.0785
  746SOL    HW1 2237   0.128   2.612   1.706  0.4162 -0.6774  0.3903
  746SOL    HW2 2238   0.038   2.711   1.813  0.9263  2.0126 -0.0386
  747SOL     OW 2239   0.063   1.785   1.649 -0.6824 -0.7975 -0.1466
  747SOL    HW1 2240   0.012   1.701   1.614  1.1942  0.2652  0.9397
  747SOL    HW2 2241   0.112   1.846   1.572  0.1621  1.8383  0.5984
  748SOL     OW 2242   1.866   2.734   2.900  0.1653 -0.1635 -0.2862
  748SOL    HW1 2243   1.882   2.797   2.980  1.1508 -0.5142 -2.4807
  748SOL    HW2 2244   1.771   2.705   2.882  4.5576 -2.1242  2.0801
  749SOL     OW 2245   1.391   3.015   0.889  0.7088  0.5413  0.6084
  749SOL    HW1 2246   1.339   3.089   0.851  1.8047 -0.9985  2.3661
  749SOL    HW2 2247   1.470   2.977   0.823  1.7468  2.4216 -1.1415
  750SOL     OW 2248   2.246   0.170   1.845  0.2218  0.0411  0.0869
  750SOL    HW1 2249   2.255   0.208   1.746  2.8202 -0.5475 -4.1767
  750SOL    HW2 2250   2.255   0.250   1.914  1.2949 -0.4647  1.5172
  751SOL     OW 2251   0.755   2.124   2.878 -0.1638  0.2995  0.0507
  751SOL    HW1 2252   0.837   2.122   2.946 -2.2619  3.1543  3.1935
  751SOL    HW2 2253   0.680   2.056   2.904  1.7791  0.1244 -1.3776
  752SOL     OW 2254   1.297   0.825   1.209  0.0840  0.2991  1.2006
  752SOL    HW1 2255   1.376   0.896   1.210  0.5262 -0.6042 -1.1787
  752SOL    HW2 2256   1.330   0.731   1.234  0.2843  1.2984 -0.0965
  753SOL     OW 2257   0.938   2.559   1.806 -0.8852 -0.5081 -0.0775
  753SOL    HW1 2258   1.037   2.575   1.773  1.6288  0.9009 -0.9947
  753SOL    HW2 2259   0.886   2.648   1.826 -3.3183  0.9238  2.3096
  754SOL     OW 2260   1.147   1.184   3.013 -0.3932  0.4781  0.4108
  754SOL    HW1 2261   1.202   1.104   2.984 -0.2244  0.6434  1.2445
  754SOL    HW2 2262   1.199   1.271   3.017 -1.0833 -0.9212 -0.6074
  755SOL     OW 2263   1.988   0.443   2.233 -0.6311 -0.1436  0.1438
  755SOL    HW1 2264   2.070   0.373   2.251  1.2649 -2.7985 -0.9889
  755SOL    HW2 2265   1.916   0.433   2.304  1.8630 -0.1416 -0.8934
  756SOL     OW 2266   2.493   1.002   2.982  0.0086 -0.1250 -0.2721
  756SOL    HW1 2267   2.598   0.985   2.987  0.1887 -0.2426 -1.0061
  756SOL    HW2 2268   2.431   0.926   3.013  0.3951  1.3624  0.8293
  757SOL     OW 2269   0.099   0.411   1.960  0.0654  0.9854  0.2283
  757SOL    HW1 2270   0.164   0.332   1.950  0.3077  2.7991 -0.7410
  757SOL    HW2 2271   0.011   0.384   2.019 -2.5946 -0.6689  0.8764
  758SOL     OW 2272   2.191   0.097   1.508 -0.4377 -0.2398 -0.1391
  758SOL    HW1 2273   2.185  -0.006   1.528  1.1566 -0.7598  0.0176
  758SOL    HW2 2274   2.222   0.122   1.410  2.6213 -1.1211  0.6338
  759SOL     OW 2275   1.702   0.022   0.055  0.6880 -0.3442  0.4531
  759SOL    HW1 2276   1.657   0.035  -0.039 -1.2432  0.1312  2.0503
  759SOL    HW2 2277   1.805   0.043   0.059 -1.3231  0.0074 -0.0433
  760SOL     OW 2278   2.680   2.011   2.816  0.6999  0.6390  0.3337
  760SOL    HW1 2279   2.576   2.004   2.827  0.7669 -0.4465  0.1965
  760SOL    HW2 2280   2.706   2.106   2.789 -1.8640  0.3894  1.1492
  761SOL     OW 2281   1.947   1.757   1.751 -0.0913  1.1035  0.4921
  761SOL    HW1 2282   1.995   1.665   1.756 -1.4620  1.1565 -0.4198
  761SOL    HW2 2283   1.898   1.763   1.660  0.4572 -0.7134 -0.6822
  762SOL     OW 2284   0.491   2.399   0.964  0.4357  0.3093  0.2060
  762SOL    HW1 2285   0.551   2.398   0.879  0.9482  0.0650  0.1604
  762SOL    HW2 2286   0.552   2.417   1.046  0.0661 -1.9078  2.5797
  763SOL     OW 2287   2.078   1.562   2.990 -0.3293 -0.0664 -0.0535
  763SOL    HW1 2288   2.163   1.499   3.004  0.0957 -0.9517  2.0588
  763SOL    HW2 2289   2.001   1.539   3.057  1.7397 -1.5051 -2.3882
  764SOL     OW 2290   0.687   0.614   0.681 -0.1667  0.1175 -0.2358
  764SOL    HW1 2291   0.596   0.579   0.650  1.9675  1.2232 -0.3082
  764SOL    HW2 2292   0.715   0.568   0.771 -0.9782  1.2913 -2.3984
  765SOL     OW 2293   0.804   0.293   0.739 -0.4773  0.0391 -0.2948
  765SOL    HW1 2294   0.829   0.319   0.651  1.2928  0.3878  2.2775
  765SOL    HW2 2295   0.816   0.373   0.810  0.1277  0.6842  1.3633
  766SOL     OW 2296   2.923   2.135   3.060  0.2053 -0.1782 -0.2594
  766SOL    HW1 2297   2.829   2.127   3.114 -2.2442 -1.2264 -0.3673
  766SOL    HW2 2298   2.972   2.223   3.084  0.2265 -0.8650  0.6946
  767SOL     OW 2299   2.796   1.630   0.614 -0.2689  0.3661 -0.2295
  767SOL    HW1 2300   2.706   1.651   0.663  0.6186 -1.3917  0.1752
  767SOL    HW2 2301   2.877   1.628   0.678 -1.0704 -1.5905  0.9977
  768SOL     OW 2302   1.072   0.195   0.215 -0.1415 -0.5323  0.4575
  768SOL    HW1 2303   1.068   0.258   0.298  0.6151  3.2043 -1.5100
  768SOL    HW2 2304   1.150   0.122   0.209 -1.0054 -0.1225  0.3314
  769SOL     OW 2305   1.103   1.799   2.308 -0.0774 -0.4161 -0.4945
  769SOL    HW1 2306   1.015   1.810   2.362  2.2588 -1.0544  0.5130
  769SOL    HW2 2307   1.184   1.795   2.373  2.6983 -1.6192 -0.3185
  770SOL     OW 2308   0.165   1.125   2.308  0.5744 -0.2621 -0.3327
  770SOL    HW1 2309   0.163   1.199   2.381  0.8437  0.1070 -0.2869
  770SOL    HW2 2310   0.082   1.066   2.313  1.6894  1.1234 -1.2033
  771SOL     OW 2311   3.062   2.810   1.942  0.1536  0.0317 -0.2287
  771SOL    HW1 2312   2.997   2.820   1.856 -0.9717  0.4899  2.5657
  771SOL    HW2 2313   3.048   2.889   2.012 -0.9702  0.5123 -0.8982
  772SOL     OW 2314   2.346   0.259   2.807 -0.0205 -0.4495  0.2665
  772SOL    HW1 2315   2.410   0.188   2.757 -0.4332  1.6612 -1.4508
  772SOL    HW2 2316   2.337   0.240   2.906 -0.2070 -0.9081 -0.7158
  773SOL     OW 2317   0.600   2.105   2.385  0.2769  0.6136 -0.7744
  773SOL    HW1 2318   0.588   2.193   2.322  0.1288  2.8194  3.7067
  773SOL    HW2 2319   0.511   2.063   2.419  0.2220  2.8169  1.3799
  774SOL     OW 2320   2.102   0.003   2.591 -0.2235 -0.3365  0.1283
  774SOL    HW1 2321   2.119   0.096   2.638 -0.6921  2.4459  1.2177
  774SOL    HW2 2322   2.184  -0.055   2.604  1.1255  2.6451  0.0930
  775SOL     OW 2323   2.510   2.966   2.194  0.2854 -0.0394  0.2279
  775SOL    HW1 2324   2.411   2.979   2.161  0.5999 -0.6966 -0.6396
  775SOL    HW2 2325   2.524   2.981   2.300 -1.9355 -0.7752 -0.4564
  776SOL     OW 2326   3.089   1.276   0.168  0.1775 -0.1625  0.3381
  776SOL    HW1 2327   3.041   1.231   0.086 -1.6350  1.8209  2.1207
  776SOL    HW2 2328   3.035   1.267   0.254 -2.6984 -0.5944 -1.5534
  777SOL     OW 2329   0.394   2.922   0.419  0.4880 -0.6300 -0.1975
  777SOL    HW1 2330   0.292   2.926   0.391  1.7378 -3.1546 -0.6177
  777SOL    HW2 2331   0.445   2.844   0.376  1.0661  1.3885  2.4177
  778SOL     OW 2332   1.338   2.031   0.216 -0.5195 -0.2429 -0.6568
  778SOL    HW1 2333   1.290   2.080   0.293 -0.9378 -2.5002  1.1833
  778SOL    HW2 2334   1.359   2.094   0.136  1.4048  0.5100  0.7774
  779SOL     OW 2335   0.164   0.818   0.483  0.3502  0.7477 -0.0762
  779SOL    HW1 2336   0.112   0.738   0.435 -0.6911 -1.2946 -1.3938
  779SOL    HW2 2337   0.113   0.904   0.503 -0.2045 -1.5652  1.1413
  780SOL     OW 2338   0.138   0.274   2.327  0.0650 -0.1312  0.6750
  780SOL    HW1 2339   0.116   0.359   2.381 -0.4225 -1.1055 -1.1899
  780SOL    HW2 2340   0.231   0.284   2.283  0.2782  1.5196  2.9838
  781SOL     OW 2341   0.717   1.712   1.501 -0.4706  0.1041 -0.3975
  781SOL    HW1 2342   0.764   1.642   1.565 -0.3648 -0.2628 -0.7494
  781SOL    HW2 2343   0.616   1.697   1.501 -0.5132 -1.5642 -0.2187
  782SOL     OW 2344   2.544   0.083   0.950 -0.7883  0.7455  0.0657
  782SOL    HW1 2345   2.501   0.141   0.875  0.8852  0.4456 -0.9989
  782SOL    HW2 2346   2.490   0.075   1.040 -0.6625  1.8663 -0.0744
  783SOL     OW 2347   2.787   0.723   2.495 -0.2973 -0.2214 -0.3838
  783SOL    HW1 2348   2.831   0.742   2.587  2.4955 -4.4584 -0.5861
  783SOL    HW2 2349   2.768   0.626   2.463  0.0384 -0.7099 -1.1841
  784SOL     OW 2350   1.409   2.183   0.005 -0.2321  0.4949 -0.1974
  784SOL    HW1 2351   1.440   2.273   0.049  2.4759  3.4141  0.2926
  784SOL    HW2 2352   1.402   2.188  -0.098 -0.0371  1.1744  1.3905
  785SOL     OW 2353   2.058   0.304   0.009 -0.1745  0.0278  0.0073
  785SOL    HW1 2354   1.982   0.319   0.085 -0.5951 -0.4409 -2.0161
  785SOL    HW2 2355   2.084   0.392  -0.044 -1.0706  0.6359 -2.5924
  786SOL     OW 2356   2.034   2.173   2.220 -0.4448 -0.4379  0.0916
  786SOL    HW1 2357   1.992   2.082   2.227 -0.9875  0.9011  0.0783
  786SOL    HW2 2358   2.143   2.174   2.235  4.1186 -0.0303  0.3502
  787SOL     OW 2359   1.364   0.568   0.906  0.3095 -0.2767  0.5252
  787SOL    HW1 2360   1.292   0.645   0.894  3.1025  1.0491 -2.0694
  787SOL    HW2 2361   1.409   0.540   0.809  1.9969 -1.0913 -1.2035
  788SOL     OW 2362   1.220   0.433   0.024  0.2763  0.4536  0.1585
  788SOL    HW1 2363   1.132   0.396  -0.025 -0.9094  0.8865  1.3046
  788SOL    HW2 2364   1.200   0.506   0.101  3.8333  0.8070  0.6090
  789SOL     OW 2365   2.516   0.113   1.957 -0.0544 -0.1111 -0.0680
  789SOL    HW1 2366   2.423   0.151   1.911 -2.0006 -0.7703  1.1450
  789SOL    HW2 2367   2.519   0.011   1.951  0.3969  2.5068  1.9701
  790SOL     OW 2368   2.631   2.755   0.718  0.2413 -0.5849  0.1639
  790SOL    HW1 2369   2.671   2.822   0.658  0.8617  0.2269  2.8273
  790SOL    HW2 2370   2.626   2.799   0.814 -0.5704  0.5029 -0.3152
  791SOL     OW 2371   1.930   1.214   0.242  0.0855 -0.0370  0.6459
  791SOL    HW1 2372   1.860   1.150   0.287  2.2426  0.9409 -0.3789
  791SOL    HW2 2373   2.020   1.201   0.288 -4.2213  0.8819  2.5457
  792SOL     OW 2374   0.395   1.729   2.131 -0.4329  0.2364 -1.0394
  792SOL    HW1 2375   0.455   1.664   2.180 -0.6842 -0.0194 -1.5503
  792SOL    HW2 2376   0.317   1.765   2.186  2.3704  0.0725  0.3738
  793SOL     OW 2377   2.098   1.587   2.099  0.0630  0.0963 -0.5163
  793SOL    HW1 2378   2.167   1.640   2.046 -0.3564 -2.7995 -0.6517
  793SOL    HW2 2379   2.095   1.485   2.078 -1.8950 -0.5029  2.5268
  794SOL     OW 2380   0.555   1.495   2.292  0.4879 -0.4202  0.6044
  794SOL    HW1 2381   0.536   1.434   2.209 -0.3019 -1.4303  0.9867
  794SOL    HW2 2382   0.490   1.478   2.375 -0.9718  0.5687  2.1941
  795SOL     OW 2383   2.521   2.310   1.822  0.2778  0.3072 -0.2986
  795SOL    HW1 2384   2.494   2.327   1.920  0.8601 -0.0793  0.5770
  795SOL    HW2 2385   2.450   2.266   1.769 -0.1627  1.3669 -0.5156
  796SOL     OW 2386   3.094   1.113   2.642  0.3941 -0.1335  0.3779
  796SOL    HW1 2387   2.993   1.113   2.660 -0.9311 -0.6297 -1.0399
  796SOL    HW2 2388   3.157   1.104   2.722  0.0694 -0.1485  0.0209
  797SOL     OW 2389   0.807   0.644   1.393 -0.7284  0.1336 -0.0695
  797SOL    HW1 2390   0.861   0.693   1.471 -1.0569  1.8863  0.4391
  797SOL    HW2 2391   0.761   0.718   1.330 -0.7711  0.6761 -1.7869
  798SOL     OW 2392   1.327   0.410   1.178  0.2281 -0.6866 -0.1615
  798SOL    HW1 2393   1.394   0.377   1.256  1.7072  2.1857 -1.0979
  798SOL    HW2 2394   1.369   0.485   1.122 -0.3431 -0.8243  0.1980
  799SOL     OW 2395   1.975   2.666   1.013 -0.4722  0.5643 -0.4265
  799SOL    HW1 2396   1.894   2.653   1.077 -0.6909 -1.0099  0.0920
  799SOL    HW2 2397   1.943   2.665   0.917  0.6620  1.1430 -0.1925
  800SOL     OW 2398   3.077   0.590   1.820  0.3934 -0.1329  0.1226
  800SOL    HW1 2399   3.060   0.675   1.875 -0.6900  0.4958  1.0413
  800SOL    HW2 2400   3.132   0.514   1.869  2.3125 -0.0682  0.8478
  801SOL     OW 2401   1.919   2.240   0.136  0.0522  1.1675  0.0460
  801SOL    HW1 2402   1.833   2.209   0.087  1.5390 -3.2074  3.2079
  801SOL    HW2 2403   2.008   2.215   0.086 -1.7469 -0.2290 -2.4677
  802SOL     OW 2404   0.708   0.765   2.585 -0.0071  0.4719  0.2209
  802SOL    HW1 2405   0.769   0.773   2.501  2.4051  0.8534 -2.1065
  802SOL    HW2 2406   0.621   0.707   2.575  1.4868  0.5303  1.6478
  803SOL     OW 2407   0.915   0.122   0.907  0.6266 -0.4584  0.2992
  803SOL    HW1 2408   1.012   0.161   0.935  2.2337  0.7310 -1.2878
  803SOL    HW2 2409   0.875   0.175   0.825 -1.4519 -1.2700 -1.7312
  804SOL     OW 2410   0.341   0.015   2.136 -0.3331  0.9787  0.6055
  804SOL    HW1 2411   0.333   0.092   2.063 -2.6280  1.6510  0.5602
  804SOL    HW2 2412   0.300  -0.076   2.099  0.4302  0.1483  1.6195
  805SOL     OW 2413   2.418   0.232   0.256 -0.1322 -0.1655 -0.3790
  805SOL    HW1 2414   2.510   0.277   0.272 -3.2594 -0.4401 -1.3199
  805SOL    HW2 2415   2.398   0.211   0.161  0.0177  0.2239  2.2725
  806SOL     OW 2416   0.645   2.410   1.696 -0.1700  0.3177 -0.3906
  806SOL    HW1 2417   0.648   2.515   1.699 -2.3938 -0.4995 -0.9997
  806SOL    HW2 2418   0.725   2.359   1.653 -0.2338 -1.4198  2.7468
  807SOL     OW 2419   2.481   0.969   0.465  0.1932  0.4498  0.0064
  807SOL    HW1 2420   2.568   0.915   0.482  0.3362  1.9228 -0.9104
  807SOL    HW2 2421   2.447   0.939   0.370  1.9969 -1.9678  1.0059
  808SOL     OW 2422   0.528   1.983   2.937 -0.4207 -0.1341 -0.2665
  808SOL    HW1 2423   0.501   1.996   3.034  0.8064  1.6774 -2.2242
  808SOL    HW2 2424   0.547   1.881   2.909 -0.5070 -2.3149  0.8248
  809SOL     OW 2425   2.572   1.961   1.954  0.5067 -0.0499  0.1199
  809SOL    HW1 2426   2.662   2.012   1.924 -1.0970  1.1433 -2.3264
  809SOL    HW2 2427   2.543   1.893   1.880 -2.0078 -1.4027  1.7935
  810SOL     OW 2428   2.028   1.092   0.536  0.3916 -0.1842 -0.8045
  810SOL    HW1 2429   2.066   1.043   0.614  0.7895  2.2601 -1.0258
  810SOL    HW2 2430   1.996   1.190   0.554 -2.0254  1.6390  0.5759
  811SOL     OW 2431   1.320   2.451   1.278  0.3737  0.1211 -0.3319
  811SOL    HW1 2432   1.302   2.350   1.274 -0.3887 -0.8939  2.8940
  811SOL    HW2 2433   1.256   2.505   1.215 -2.6606  0.7468  4.6049
  812SOL     OW 2434   1.423   0.778   1.935  0.1569 -0.1020 -0.0251
  812SOL    HW1 2435   1.477   0.841   1.999  2.0970  0.8176 -3.1092
  812SOL    HW2 2436   1.322   0.810   1.929 -0.0245 -1.0871  1.4502
  813SOL     OW 2437   1.737   2.136   2.435  0.1710  0.6212  0.1029
  813SOL    HW1 2438   1.829   2.101   2.409 -1.4256  0.5028  0.2503
  813SOL    HW2 2439   1.669   2.103   2.366 -1.5656 -0.4393 -0.7718
  814SOL     OW 2440   2.846   1.555   2.924  0.3301  0.1024 -0.4819
  814SOL    HW1 2441   2.946   1.556   2.946  0.1085  0.7273  1.8259
  814SOL    HW2 2442   2.821   1.639   2.870  0.6199  2.7512 -0.1245
  815SOL     OW 2443   2.248   2.908   2.691  0.2374 -0.5251 -0.3480
  815SOL    HW1 2444   2.222   2.877   2.786 -0.2624 -1.0397  0.0765
  815SOL    HW2 2445   2.346   2.882   2.677 -1.5286  1.5969 -0.5488
  816SOL     OW 2446   1.755   0.320   1.665 -0.9125 -0.0893 -0.3971
  816SOL    HW1 2447   1.762   0.223   1.707 -1.0211 -0.2578 -0.9712
  816SOL    HW2 2448   1.664   0.358   1.685  1.6427 -0.4550  1.2163
  817SOL     OW 2449   0.469   1.205   2.458 -0.3466  0.4307  0.0122
  817SOL    HW1 2450   0.438   1.303   2.477  1.0148  0.0766  2.6534
  817SOL    HW2 2451   0.444   1.172   2.366  0.1584  0.1440  1.8207
  818SOL     OW 2452   1.995   0.827   0.463 -0.0808  0.3200 -0.6185
  818SOL    HW1 2453   1.999   0.929   0.494  1.2910  0.9701  0.4292
  818SOL    HW2 2454   1.946   0.774   0.539 -1.0859  0.4614 -0.6848
  819SOL     OW 2455   2.769   2.919   3.029 -0.3968  0.0495  0.1552
  819SOL    HW1 2456   2.825   2.834   3.012 -3.0839  1.1030  0.4008
  819SOL    HW2 2457   2.677   2.921   2.981 -0.0134  0.7956 -0.9470
  820SOL     OW 2458   1.249   1.140   0.502  0.0258  0.4034  0.0676
  820SOL    HW1 2459   1.256   1.239   0.540  1.1693  3.9024  3.5956
  820SOL    HW2 2460   1.233   1.067   0.571  1.5784  0.4266 -0.4093
  821SOL     OW 2461   3.076   1.297   0.655 -0.2727 -0.5199 -0.3234
  821SOL    HW1 2462   3.026   1.294   0.749 -3.2512  0.6515  2.9173
  821SOL    HW2 2463   3.165   1.348   0.659 -0.2721  0.1706  1.4432
  822SOL     OW 2464   2.519   1.772   2.439  0.0158 -0.4864  0.0967
  822SOL    HW1 2465   2.505   1.849   2.510  0.0761 -0.5229  1.7417
  822SOL    HW2 2466   2.454   1.777   2.357 -1.5977  0.7855 -2.4509
  823SOL     OW 2467   2.052   0.882   1.242 -0.0229 -0.0392  0.0523
  823SOL    HW1 2468   2.035   0.864   1.343  0.8410 -0.4685  0.5860
  823SOL    HW2 2469   1.985   0.947   1.204 -0.1743 -0.2963  0.4679
  824SOL     OW 2470   0.126   2.016   2.746 -0.3573  0.4347  0.3803
  824SOL    HW1 2471   0.068   1.944   2.798  0.3487  1.6270  1.7153
  824SOL    HW2 2472   0.197   1.982   2.676  1.3211 -0.3743  0.3075
  825SOL     OW 2473   1.247   1.049   0.215  0.1868  0.2461 -0.2390
  825SOL    HW1 2474   1.284   1.088   0.306 -0.4453 -0.2666  0.8912
  825SOL    HW2 2475   1.202   1.114   0.143  0.0448  2.2612 -1.6684
  826SOL     OW 2476   1.954   0.630   1.529  0.0026 -0.3092  0.2147
  826SOL    HW1 2477   2.005   0.563   1.589 -2.5729  1.4774  1.2399
  826SOL    HW2 2478   1.874   0.587   1.480  2.0383 -1.6642  1.7474
  827SOL     OW 2479   0.714   1.430   0.304 -0.1427  0.4763  0.2566
  827SOL    HW1 2480   0.716   1.351   0.239  0.9714  1.0915  0.7500
  827SOL    HW2 2481   0.689   1.404   0.401  0.3808  0.3070  1.7674
  828SOL     OW 2482   2.553   0.073   1.579  0.0127 -0.1945  0.3694
  828SOL    HW1 2483   2.452   0.097   1.557 -0.7907 -1.1386  2.6833
  828SOL    HW2 2484   2.550   0.003   1.658 -2.7397 -0.2603 -1.4208
  829SOL     OW 2485   2.818   2.480   2.994 -0.2355 -0.3162 -0.3738
  829SOL    HW1 2486   2.756   2.398   2.987 -2.8631  1.7749 -1.4667
  829SOL    HW2 2487   2.772   2.542   3.064  0.2792 -0.5736 -1.3426
  830SOL     OW 2488   2.775   0.946   3.032  0.2599 -0.1777 -0.1454
  830SOL    HW1 2489   2.837   1.017   3.072  0.2910 -1.5424 -2.1003
  830SOL    HW2 2490   2.782   0.851   3.071  0.7798  2.1259 -1.3746
  831SOL     OW 2491   3.089   0.602   0.369 -0.1863 -0.0701  0.4618
  831SOL    HW1 2492   3.058   0.548   0.447  0.2625 -1.1562 -2.8855
  831SOL    HW2 2493   3.144   0.549   0.299 -0.3222 -0.7515 -0.4709
  832SOL     OW 2494   1.816   0.731   0.021  0.3712 -0.1370  0.8134
  832SOL    HW1 2495   1.745   0.796  -0.020 -0.1406 -1.8118 -0.8957
  832SOL    HW2 2496   1.793   0.632   0.026  1.1561  0.6000  0.3659
  833SOL     OW 2497   2.430   2.147   0.506 -0.7506 -0.4370  0.3515
  833SOL    HW1 2498   2.329   2.120   0.502  1.5287  2.1708 -1.8606
  833SOL    HW2 2499   2.494   2.066   0.523 -1.5348 -0.1304  2.5263
  834SOL     OW 2500   0.125   0.224   0.621  0.8977 -0.5068 -0.5810
  834SOL    HW1 2501   0.172   0.154   0.681 -2.3324  2.8693 -0.3680
  834SOL    HW2 2502   0.152   0.219   0.517 -1.6216  1.1647 -1.5617
  835SOL     OW 2503   2.340   1.535   1.161 -0.4231  0.1352 -0.5786
  835SOL    HW1 2504   2.438   1.561   1.182 -3.5615  0.8851 -2.4581
  835SOL    HW2 2505   2.332   1.509   1.060  3.6594 -0.6232 -2.1221
  836SOL     OW 2506   1.546   0.801   2.571  0.3816  0.0959  0.0184
  836SOL    HW1 2507   1.447   0.816   2.537  0.8048  1.2022  0.2304
  836SOL    HW2 2508   1.616   0.815   2.493  0.4621 -2.1563  0.6767
  837SOL     OW 2509   1.677   0.105   0.523  0.7260  0.3590 -0.7745
  837SOL    HW1 2510   1.633   0.135   0.613  0.0535  1.8581  0.8607
  837SOL    HW2 2511   1.622   0.137   0.439 -1.3804 -0.2033  1.5343
  838SOL     OW 2512   1.218   1.579   2.696 -0.2864  0.4411  0.4488
  838SOL    HW1 2513   1.303   1.525   2.722  0.7066  0.1123  2.1172
  838SOL    HW2 2514   1.145   1.509   2.681  0.3412 -0.0802  0.1663
  839SOL     OW 2515   1.620   0.299   0.980 -0.1978  0.2882  0.2020
  839SOL    HW1 2516   1.631   0.371   1.056 -1.4009 -0.2514  1.8493
  839SOL    HW2 2517   1.582   0.208   1.021 -2.2355 -0.9704  2.1947
  840SOL     OW 2518   2.559   2.956   1.734 -0.2513  0.3709 -0.1200
  840SOL    HW1 2519   2.498   2.910   1.666  0.7842  0.7016 -2.0498
  840SOL    HW2 2520   2.606   2.887   1.800  2.5986 -0.6155  2.5141
  841SOL     OW 2521   1.595   0.865   3.062  0.2653 -0.7394  0.1270
  841SOL    HW1 2522   1.506   0.828   3.104  3.4472  1.0163  2.2774
  841SOL    HW2 2523   1.594   0.884   2.960  1.5464  1.2304 -2.4463
  842SOL     OW 2524   0.810   1.494   0.883  0.4465 -0.2768  0.2851
  842SOL    HW1 2525   0.762   1.565   0.937  0.6893  0.2072  0.1683
  842SOL    HW2 2526   0.738   1.425   0.854 -0.5742 -2.0417 -0.2417
  843SOL     OW 2527   0.131   0.003   1.402 -0.4111  0.4761 -0.6405
  843SOL    HW1 2528   0.149   0.072   1.481 -0.1117  0.7789  0.1779
  843SOL    HW2 2529   0.090  -0.086   1.445 -0.8393  1.8013  1.4760
  844SOL     OW 2530   0.798   2.446   0.259  0.0360  0.3195  0.4030
  844SOL    HW1 2531   0.729   2.419   0.331 -0.2142  0.6120 -0.7126
  844SOL    HW2 2532   0.762   2.527   0.207 -1.3409 -0.9131 -0.4463
  845SOL     OW 2533   1.679   2.865   1.243 -0.0737  0.2563  0.1592
  845SOL    HW1 2534   1.717   2.773   1.235  1.1144  1.5585  0.6743
  845SOL    HW2 2535   1.689   2.906   1.340  0.3383  3.3251  1.4658
  846SOL     OW 2536   1.570   2.962   0.697 -0.1324 -0.0070 -0.3159
  846SOL    HW1 2537   1.550   2.976   0.599  2.3766 -1.8791 -0.7642
  846SOL    HW2 2538   1.671   2.960   0.718 -0.2128 -1.4446 -1.0815
  847SOL     OW 2539   2.108   1.694   0.431 -0.1083 -0.3437 -0.0251
  847SOL    HW1 2540   2.063   1.605   0.428  0.5903  0.5114 -1.3077
  847SOL    HW2 2541   2.046   1.779   0.402 -2.3120 -0.0162  3.5347
  848SOL     OW 2542   2.424   0.876   2.598  0.5827 -0.3473  0.2523
  848SOL    HW1 2543   2.378   0.959   2.637  1.2840  0.1114  1.2891
  848SOL    HW2 2544   2.368   0.789   2.601 -0.7131  1.5762 -3.0250
  849SOL     OW 2545   2.564   0.876   2.357  0.2820 -0.5456 -0.4820
  849SOL    HW1 2546   2.649   0.823   2.389 -0.4235  0.5620 -0.2909
  849SOL    HW2 2547   2.497   0.883   2.442 -2.6885 -0.3364  1.7007
  850SOL     OW 2548   1.582   0.085   1.348  0.0061  0.1598  0.4081
  850SOL    HW1 2549   1.551   0.052   1.255 -2.5111 -1.8182  0.2281
  850SOL    HW2 2550   1.561   0.009   1.418  0.1560 -2.8468  2.5773
  851SOL     OW 2551   0.464   1.796   0.590 -0.5953  0.3949 -0.3127
  851SOL    HW1 2552   0.479   1.900   0.605 -0.7930  0.5565  0.3286
  851SOL    HW2 2553   0.487   1.757   0.495  1.6606  1.1843 -1.7903
  852SOL     OW 2554   0.845   2.031   1.795 -0.1321  0.0656 -0.0086
  852SOL    HW1 2555   0.882   2.118   1.762  1.5810 -2.1595 -0.5803
  852SOL    HW2 2556   0.767   2.034   1.864  1.2202  0.0691  2.9421
  853SOL     OW 2557   2.533   1.561   2.604 -0.3640  0.0483  0.2130
  853SOL    HW1 2558   2.464   1.484   2.586 -1.7286 -2.2510  3.2494
  853SOL    HW2 2559   2.534   1.630   2.528  0.1023 -2.5732 -0.7564
  854SOL     OW 2560   2.450   1.380   1.778 -0.1629 -0.4097 -0.4357
  854SOL    HW1 2561   2.516   1.341   1.706  3.8198  0.5386  0.1541
  854SOL    HW2 2562   2.390   1.309   1.818  1.6983 -2.2767 -0.5363
  855SOL     OW 2563   2.058   2.411   1.080 -0.0389  0.0102  0.0351
  855SOL    HW1 2564   2.033   2.506   1.048  1.4169 -0.1417 -1.4169
  855SOL    HW2 2565   2.129   2.415   1.158 -0.2570 -0.2576  1.2404
  856SOL     OW 2566   1.320   1.422   0.936 -0.4628  0.1368  0.4392
  856SOL    HW1 2567   1.406   1.457   0.978 -1.9963 -1.5614 -3.3158
  856SOL    HW2 2568   1.236   1.477   0.960  1.1898 -0.0725  0.7508
  857SOL     OW 2569   3.094   2.761   1.039 -0.3250  0.1754 -0.7327
  857SOL    HW1 2570   3.063   2.676   0.996  0.3348 -1.7145  2.7334
  857SOL    HW2 2571   3.194   2.789   1.007  2.1267  1.4038 -0.1979
  858SOL     OW 2572   2.373   2.080   1.711  0.1092  0.1289  1.0475
  858SOL    HW1 2573   2.287   2.044   1.658 -3.0833  0.6324 -0.6390
  858SOL    HW2 2574   2.453   2.011   1.698 -0.2822  1.5879  0.5874
  859SOL     OW 2575   2.388   0.532   1.032  0.2197  0.2982  0.3788
  859SOL    HW1 2576   2.475   0.567   0.983 -1.1846 -0.9133 -1.7691
  859SOL    HW2 2577   2.410   0.451   1.093  0.8235  3.0401  0.6305
  860SOL     OW 2578   1.833   2.832   0.541 -0.7032  0.1112 -0.1775
  860SOL    HW1 2579   1.839   2.803   0.444  0.0327 -1.1631  3.1984
  860SOL    HW2 2580   1.866   2.929   0.554  0.0872  1.7568 -1.3297
  861SOL     OW 2581   0.957   2.492   2.884  0.3557 -0.1449 -0.5055
  861SOL    HW1 2582   1.038   2.551   2.849  1.6284  0.0264 -0.9272
  861SOL    HW2 2583   0.918   2.520   2.977  0.6428  0.8004  0.3235
  862SOL     OW 2584   2.895   2.554   1.641  0.1962  0.0329 -0.3372
  862SOL    HW1 2585   2.986   2.596   1.677  1.3961  0.7884  1.4958
  862SOL    HW2 2586   2.835   2.635   1.616  0.2493 -0.5679  1.5278
  863SOL     OW 2587   1.807   2.738   0.281 -0.2290 -0.0028 -0.6399
  863SOL    HW1 2588   1.865   2.653   0.278  1.0174 -1.2784 -2.7705
  863SOL    HW2 2589   1.709   2.714   0.243 -2.6048  1.5125 -2.0642
  864SOL     OW 2590   1.994   1.267   2.837  0.5024  0.0673 -0.0675
  864SOL    HW1 2591   2.029   1.209   2.758 -0.3736  1.3213  1.3690
  864SOL    HW2 2592   2.062   1.339   2.857 -0.9429 -1.9458 -0.0519
  865SOL     OW 2593   2.173   1.940   0.740  0.2763 -0.1889  0.0471
  865SOL    HW1 2594   2.222   1.867   0.795  0.1716  0.8045 -0.6098
  865SOL    HW2 2595   2.107   2.000   0.793  1.1612 -1.2180 -0.3379
  866SOL     OW 2596   2.918   2.994   1.026 -0.0911 -0.3126 -0.1095
  866SOL    HW1 2597   2.904   3.055   0.942 -1.8511  0.4155 -0.0843
  866SOL    HW2 2598   2.992   2.928   1.019 -4.6547 -0.8251 -0.5973
  867SOL     OW 2599   0.332   1.427   0.914  0.5205  0.2035 -0.4043
  867SOL    HW1 2600   0.278   1.372   0.853 -0.1253  1.5440  1.8995
  867SOL    HW2 2601   0.356   1.519   0.877 -1.0496  0.0119  1.7450
  868SOL     OW 2602   0.751   1.834   2.071 -0.4725  0.0873  0.0455
  868SOL    HW1 2603   0.702   1.795   2.154  0.2968 -1.0405  0.3660
  868SOL    HW2 2604   0.724   1.929   2.054 -0.3746  1.8863  1.9383
  869SOL     OW 2605   2.599   1.905   1.684 -0.6017  0.1233 -0.1573
  869SOL    HW1 2606   2.647   1.968   1.614 -0.3408 -1.1990 -1.0868
  869SOL    HW2 2607   2.638   1.814   1.673  0.8972  2.9273  1.6145
  870SOL     OW 2608   2.343   2.727   1.247  0.0208  0.5420 -0.0445
  870SOL    HW1 2609   2.363   2.638   1.296 -2.6184  3.3601 -0.0780
  870SOL    HW2 2610   2.427   2.773   1.217 -1.2117  1.0111  3.1569
  871SOL     OW 2611   3.060   2.234   0.536  0.1658  0.0014  0.5338
  871SOL    HW1 2612   3.007   2.284   0.611  1.1513  1.8040  0.9598
  871SOL    HW2 2613   2.994   2.222   0.456 -1.7016  1.8589  3.6888
  872SOL     OW 2614   2.097   0.480   1.699 -0.0124 -0.5203 -0.3906
  872SOL    HW1 2615   2.059   0.449   1.790  0.6719 -0.3790  2.1541
  872SOL    HW2 2616   2.197   0.455   1.695 -0.8358  1.5983 -0.0116
  873SOL     OW 2617   1.695   2.108   0.009 -0.2860 -0.5490  0.2356
  873SOL    HW1 2618   1.593   2.112   0.011  0.0586  2.4616  0.3232
  873SOL    HW2 2619   1.743   2.154  -0.071  1.1593 -1.1433 -0.8005
  874SOL     OW 2620   0.661   2.443   0.752 -0.1814 -0.2478  0.4957
  874SOL    HW1 2621   0.692   2.540   0.734  2.7625  0.2514 -0.7534
  874SOL    HW2 2622   0.740   2.386   0.778 -2.0184  0.6543 -1.3343
  875SOL     OW 2623   2.231   1.491   1.408  0.3071  0.0032  0.2112
  875SOL    HW1 2624   2.295   1.542   1.474  1.3934  0.6751  0.0604
  875SOL    HW2 2625   2.261   1.516   1.311 -0.8152  0.7558  3.2968
  876SOL     OW 2626   0.054   2.260   2.623 -0.2227 -0.2966  0.5351
  876SOL    HW1 2627   0.082   2.172   2.659  2.0146  0.7601 -1.8914
  876SOL    HW2 2628   0.085   2.344   2.684  0.9607  2.3714 -0.5570
  877SOL     OW 2629   2.939   2.686   0.620 -0.0071  0.0741  0.5261
  877SOL    HW1 2630   2.908   2.785   0.630 -1.6843  0.2478 -2.0730
  877SOL    HW2 2631   3.011   2.658   0.693 -2.8330 -0.7249  0.6602
  878SOL     OW 2632   2.829   1.538   2.248  0.1013 -0.5722 -0.7132
  878SOL    HW1 2633   2.772   1.612   2.202  0.7077 -2.6414 -1.7978
  878SOL    HW2 2634   2.811   1.524   2.349  0.6615 -0.2870 -0.6598
  879SOL     OW 2635   2.399   0.062   1.206 -0.0759 -0.3967  0.2529
  879SOL    HW1 2636   2.442  -0.018   1.253  2.7404 -0.2135  1.9485
  879SOL    HW2 2637   2.313   0.033   1.154  0.5545 -1.0645 -1.6775
  880SOL     OW 2638   0.727   0.568   2.272  0.0408  0.3833  0.2345
  880SOL    HW1 2639   0.697   0.507   2.352  2.6954  0.2467  2.9057
  880SOL    HW2 2640   0.786   0.518   2.200  1.5683  0.7881  0.5903
  881SOL     OW 2641   0.819   0.086   0.405  0.1941  0.0188  0.2073
  881SOL    HW1 2642   0.865  -0.005   0.411  0.7768  2.5959 -1.3379
  881SOL    HW2 2643   0.719   0.076   0.384 -1.9094  1.9417  1.0733
  882SOL     OW 2644   2.722   1.663   1.680  0.2545  0.1436 -0.1220
  882SOL    HW1 2645   2.815   1.628   1.653 -2.1624  0.0559  0.7462
  882SOL    HW2 2646   2.697   1.634   1.779 -0.9626  0.4288  3.4569
  883SOL     OW 2647   0.806   0.510   0.923  0.3558 -0.1408  0.1383
  883SOL    HW1 2648   0.871   0.578   0.969  1.3222  0.3469  1.9841
  883SOL    HW2 2649   0.729   0.480   0.985  1.0516  0.8679 -0.9121
  884SOL     OW 2650   1.120   1.783   1.122 -0.2247 -0.2229 -0.6617
  884SOL    HW1 2651   1.106   1.685   1.075 -1.8320  0.1336 -0.5892
  884SOL    HW2 2652   1.045   1.846   1.102 -2.6428 -2.3283  0.3890
  885SOL     OW 2653   2.326   1.856   2.245 -0.1090 -0.7578 -0.4110
  885SOL    HW1 2654   2.261   1.804   2.305 -1.7151  2.4119  1.2156
  885SOL    HW2 2655   2.326   1.959   2.258 -0.0757 -0.8871 -0.9334
  886SOL     OW 2656   2.604   0.393   1.784  0.6147 -0.2140  0.5963
  886SOL    HW1 2657   2.601   0.316   1.850  0.1327  1.9791  1.4586
  886SOL    HW2 2658   2.701   0.434   1.784  0.9548 -0.6219  0.8352
  887SOL     OW 2659   0.145   2.055   1.266  0.0061 -0.3069 -0.1796
  887SOL    HW1 2660   0.137   2.011   1.171 -1.6273  1.4711 -0.2886
  887SOL    HW2 2661   0.158   2.158   1.257  0.0231 -2.5856 -0.6087
  888SOL     OW 2662   0.633   1.214   1.495  0.7837 -0.2526  0.1369
  888SOL    HW1 2663   0.612   1.255   1.401  0.4297  1.2825 -0.9265
  888SOL    HW2 2664   0.697   1.138   1.479 -3.8569  2.0768 -2.5874
  889SOL     OW 2665   0.867   2.454   2.226  0.1361 -0.1852 -0.1452
  889SOL    HW1 2666   0.776   2.402   2.245 -0.2952 -0.4998 -1.2889
  889SOL    HW2 2667   0.917   2.424   2.143 -0.1581  0.9866  0.4906
  890SOL     OW 2668   2.324   2.503   0.231  0.3212 -0.5329  0.0615
  890SOL    HW1 2669   2.320   2.563   0.145 -0.5779 -0.5410 -2.0879
  890SOL    HW2 2670   2.238   2.523   0.293 -4.3977 -0.4552  0.3118
  891SOL     OW 2671   2.538   1.676   0.710 -0.3906  0.4873  0.1825
  891SOL    HW1 2672   2.505   1.650   0.805 -0.6272 -3.9486 -0.4680
  891SOL    HW2 2673   2.457   1.672   0.648  1.5144  1.8164 -1.3656
  892SOL     OW 2674   0.352   0.388   2.211  0.5900  0.1343 -0.2714
  892SOL    HW1 2675   0.337   0.483   2.173 -0.5900 -1.4486  1.4059
  892SOL    HW2 2676   0.430   0.383   2.278  0.9264  0.6328  2.3995
  893SOL     OW 2677   1.697   0.249   2.726 -0.1567  0.0307 -0.4381
  893SOL    HW1 2678   1.779   0.312   2.751  2.4904  0.9391  2.8709
  893SOL    HW2 2679   1.611   0.301   2.698 -3.1862 -0.7608 -0.0746
  894SOL     OW 2680   2.162   2.101   0.100  0.5397 -0.2896 -0.0567
  894SOL    HW1 2681   2.143   2.051   0.012  0.9723 -0.5709  0.1738
  894SOL    HW2 2682   2.169   2.033   0.180 -1.4192 -0.2478 -1.4003
  895SOL     OW 2683   2.740   1.435   0.959  0.3366 -0.6930 -0.2085
  895SOL    HW1 2684   2.829   1.383   0.959 -1.5749  1.6495 -0.8471
  895SOL    HW2 2685   2.758   1.538   0.969  2.1720  1.5273 -0.1328
  896SOL     OW 2686   1.801   1.863   1.222  0.4803  0.2743 -0.1202
  896SOL    HW1 2687   1.869   1.784   1.231 -1.8020  0.7037 -0.3786
  896SOL    HW2 2688   1.738   1.841   1.147  1.5619  1.0712  0.1432
  897SOL     OW 2689   0.251   0.533   3.009 -0.3570 -0.4197  0.1230
  897SOL    HW1 2690   0.182   0.596   2.959  1.7357  2.7576 -1.0088
  897SOL    HW2 2691   0.345   0.582   3.018 -2.1271  0.6660  2.5777
  898SOL     OW 2692   0.687   2.809   1.073 -0.2363 -0.3871 -0.2650
  898SOL    HW1 2693   0.724   2.905   1.067  0.7660 -1.7962 -0.2872
  898SOL    HW2 2694   0.728   2.762   1.156  0.2844  1.5461  1.8333
  899SOL     OW 2695   2.851   0.940   1.413 -0.1327 -0.4879  0.2337
  899SOL    HW1 2696   2.840   0.884   1.328  0.7214 -0.7541  2.7508
  899SOL    HW2 2697   2.953   0.973   1.426 -1.1985 -0.7761  0.4916
  900SOL     OW 2698   1.032   2.427   2.471  0.2927 -0.1027 -0.1164
  900SOL    HW1 2699   0.959   2.426   2.400 -0.5052 -0.2761  0.5467
  900SOL    HW2 2700   0.995   2.400   2.560 -1.7153  0.3962 -0.6991
  901SOL     OW 2701   1.911   2.457   1.400  0.1020 -0.0742 -0.1892
  901SOL    HW1 2702   1.877   2.399   1.315 -1.3056 -2.8994 -0.6906
  901SOL    HW2 2703   2.002   2.424   1.446  1.6119 -0.3675 -1.4944
  902SOL     OW 2704   2.548   1.647   1.473  0.1603 -0.3574 -0.4258
  902SOL    HW1 2705   2.611   1.648   1.555 -0.4772  0.3026 -1.5488
  902SOL    HW2 2706   2.595   1.604   1.390  2.2528 -0.5194 -0.7445
  903SOL     OW 2707   0.339   2.461   2.006 -0.3261  0.5157 -0.0437
  903SOL    HW1 2708   0.283   2.377   2.039  1.4345 -2.3298 -0.8737
  903SOL    HW2 2709   0.298   2.519   1.933 -0.4600  1.1905  1.8406
  904SOL     OW 2710   2.001   0.762   2.470 -0.0868  0.0958  0.0145
  904SOL    HW1 2711   1.946   0.698   2.527 -0.4843  0.3493  1.9184
  904SOL    HW2 2712   2.017   0.729   2.372  0.3931  0.2523 -1.1156
  905SOL     OW 2713   2.811   0.091   2.413 -0.6713  0.4824 -0.2819
  905SOL    HW1 2714   2.872   0.009   2.403  0.3494 -1.0263 -0.0176
  905SOL    HW2 2715   2.863   0.175   2.445 -0.2568  0.5032  2.5104
  906SOL     OW 2716   0.162   1.712   1.893  0.2136 -0.6831  0.3520
  906SOL    HW1 2717   0.115   1.722   1.799  0.7534  1.0171 -3.0206
  906SOL    HW2 2718   0.262   1.684   1.888  3.3900  0.6692 -0.5612
  907SOL     OW 2719   0.250   2.531   0.966  0.1993 -0.3981 -0.5206
  907SOL    HW1 2720   0.346   2.488   0.956  0.4432  2.0790  1.5975
  907SOL    HW2 2721   0.251   2.634   0.956 -0.9813  0.1552 -1.9455
  908SOL     OW 2722   2.829   3.030   0.303  0.2045 -0.0433 -0.6179
  908SOL    HW1 2723   2.734   3.008   0.271 -2.7080  0.8792  0.0685
  908SOL    HW2 2724   2.892   2.948   0.303  1.9664  1.0214 -2.0147
  909SOL     OW 2725   0.827   1.042   2.657 -0.1382  0.2266  0.2626
  909SOL    HW1 2726   0.790   0.948   2.635 -1.3644  0.1600 -0.6131
  909SOL    HW2 2727   0.920   1.061   2.608 -0.3794 -1.8528  4.3637
  910SOL     OW 2728   1.782   1.883   2.142 -0.2793  0.1670  0.3467
  910SOL    HW1 2729   1.855   1.913   2.069  1.7852 -0.0251  1.3155
  910SOL    HW2 2730   1.701   1.945   2.170 -1.1335  0.1023  0.8163
  911SOL     OW 2731   1.773   2.977   1.481  0.0100  0.1891  0.0342
  911SOL    HW1 2732   1.839   2.937   1.412  0.9518  1.4437  0.0397
  911SOL    HW2 2733   1.766   2.922   1.571 -0.3271  1.8713  1.5348
  912SOL     OW 2734   2.842   1.019   0.701 -0.6807 -0.4351  0.0589
  912SOL    HW1 2735   2.896   1.022   0.788  3.1786  0.2166 -1.3077
  912SOL    HW2 2736   2.772   1.099   0.706 -1.0394 -0.6015  2.9260
  913SOL     OW 2737   2.589   1.286   1.573 -0.8280  0.0230  0.0204
  913SOL    HW1 2738   2.611   1.185   1.577  0.5976  2.2236  2.2066
  913SOL    HW2 2739   2.624   1.330   1.484  0.6726 -4.9721 -1.9490
  914SOL     OW 2740   2.788   0.585   1.155 -0.4026 -0.4778  0.3474
  914SOL    HW1 2741   2.780   0.486   1.189 -0.1065  2.0928  1.4191
  914SOL    HW2 2742   2.698   0.630   1.155  3.7379 -1.0850 -2.0066
  915SOL     OW 2743   1.186   0.782   0.935  0.0593  0.3780  0.1879
  915SOL    HW1 2744   1.232   0.827   1.013  0.6831 -0.5638  0.1384
  915SOL    HW2 2745   1.081   0.772   0.951 -2.0237  1.6865  0.5679
  916SOL     OW 2746   0.596   0.141   0.645 -0.5731 -0.2872  0.9590
  916SOL    HW1 2747   0.669   0.199   0.690  1.3372 -0.1244  1.8855
  916SOL    HW2 2748   0.556   0.192   0.558 -1.9483  2.3008 -2.3013
  917SOL     OW 2749   2.890   2.577   2.012 -0.3415 -0.1229 -0.2698
  917SOL    HW1 2750   2.814   2.588   1.942 -0.2952  1.7483  0.6289
  917SOL    HW2 2751   2.971   2.640   1.993 -2.8984 -1.5914  4.6769
  918SOL     OW 2752   1.007   2.126   3.005  0.1558 -0.3181 -0.6074
  918SOL    HW1 2753   1.001   2.203   3.069 -1.5651 -1.8299 -0.8515
  918SOL    HW2 2754   1.053   2.146   2.914  0.0087  0.1263  1.0232
  919SOL     OW 2755   0.881   1.704   2.763  0.0996  0.2708 -0.2223
  919SOL    HW1 2756   0.906   1.792   2.717 -2.0210 -1.0399 -0.9843
  919SOL    HW2 2757   0.837   1.642   2.693 -0.4465  1.2468  1.0182
  920SOL     OW 2758   1.295   1.767   2.498  0.2302 -0.2412  0.0149
  920SOL    HW1 2759   1.382   1.745   2.448  0.7067 -2.0335  2.6622
  920SOL    HW2 2760   1.290   1.718   2.592  1.9103 -0.4047  0.6951
  921SOL     OW 2761   1.124   0.041   2.629 -0.4135  0.2381  0.7230
  921SOL    HW1 2762   1.133   0.033   2.521  1.0886 -4.7328 -1.1244
  921SOL    HW2 2763   1.026   0.049   2.657  0.7567 -0.6387  0.7173
  922SOL     OW 2764   2.183   2.403   2.767  0.5358 -0.7788 -0.1743
  922SOL    HW1 2765   2.180   2.300   2.765 -2.8130 -0.5324  1.3510
  922SOL    HW2 2766   2.125   2.445   2.687 -4.4633  1.5494 -2.2142
  923SOL     OW 2767   1.287   2.739   0.263 -0.0398  0.2389 -0.1755
  923SOL    HW1 2768   1.316   2.811   0.331 -1.3390  0.2383  0.8386
  923SOL    HW2 2769   1.291   2.640   0.294  1.0904  0.0743 -1.1788
  924SOL     OW 2770   2.913   1.683   0.128 -1.1624 -0.2000 -0.1040
  924SOL    HW1 2771   2.832   1.635   0.078 -1.1792 -3.0964  0.0954
  924SOL    HW2 2772   2.993   1.621   0.145  1.6602 -0.3908  1.5864
  925SOL     OW 2773   0.019   2.858   1.503  0.4823 -0.2197 -0.0997
  925SOL    HW1 2774  -0.067   2.881   1.559  1.0300 -1.5475  2.8315
  925SOL    HW2 2775  -0.005   2.823   1.411  1.2489  0.9893 -0.7641
  926SOL     OW 2776   1.288   2.801   1.317  0.5485 -0.0423  0.1107
  926SOL    HW1 2777   1.336   2.788   1.227  0.2471 -0.5849  2.5935
  926SOL    HW2 2778   1.336   2.877   1.376 -1.0439 -1.4656  3.9572
  927SOL     OW 2779   0.374   2.652   1.748 -0.2987 -0.5669 -0.2636
  927SOL    HW1 2780   0.331   2.570   1.702 -0.8929 -0.4495 -2.6431
  927SOL    HW2 2781   0.331   2.741   1.717  0.7209 -0.5282 -2.0083
  928SOL     OW 2782   1.582   2.068   2.226  0.2157 -0.0996 -0.5209
  928SOL    HW1 2783   1.601   2.126   2.142  0.9319 -0.8012  0.9628
  928SOL    HW2 2784   1.479   2.054   2.245  0.7495  0.1369  1.6208
  929SOL     OW 2785   2.436   2.484   2.852 -0.8163  0.4593 -0.4856
  929SOL    HW1 2786   2.349   2.459   2.804  0.9678 -1.5122  1.1582
  929SOL    HW2 2787   2.516   2.517   2.793  2.1770  0.5302 -0.7873
  930SOL     OW 2788   2.188   2.039   1.108  0.2212 -0.0957  0.4932
  930SOL    HW1 2789   2.161   2.011   1.205 -0.1610 -0.4960  3.1353
  930SOL    HW2 2790   2.235   2.131   1.096 -2.0508 -0.8590 -0.5135
  931SOL     OW 2791   0.498   1.720   2.622  0.2170  0.0939  0.2202
  931SOL    HW1 2792   0.517   1.748   2.725 -0.3388  0.0681  0.3084
  931SOL    HW2 2793   0.577   1.660   2.584 -0.7401  1.2186 -0.8772
  932SOL     OW 2794   0.341   0.034   0.014 -0.3832  0.3620 -0.8640
  932SOL    HW1 2795   0.420   0.095  -0.015  0.1763  1.2889  0.5317
  932SOL    HW2 2796   0.350  -0.060  -0.019  1.6313  2.6511 -0.4330
  933SOL     OW 2797   0.990   0.843   3.035 -0.3973 -0.0141 -0.0720
  933SOL    HW1 2798   1.076   0.846   3.092  0.1281 -0.9802 -0.8573
  933SOL    HW2 2799   0.918   0.917   3.059  0.7104  1.8926 -1.6748
  934SOL     OW 2800   0.746   2.921   2.663 -0.8715 -0.1203  0.3544
  934SOL    HW1 2801   0.766   2.882   2.566  2.3549  0.0393  0.9239
  934SOL    HW2 2802   0.806   2.888   2.738  0.5978 -1.0854  1.8746
  935SOL     OW 2803   0.032   0.528   0.815 -0.3516 -0.4081 -0.1120
  935SOL    HW1 2804   0.004   0.500   0.722 -0.8657 -0.1574  3.3221
  935SOL    HW2 2805  -0.026   0.604   0.860  1.1790  1.5821 -0.4781
  936SOL     OW 2806   1.110   2.844   0.068 -0.2513 -0.8218  0.0702
  936SOL    HW1 2807   1.155   2.901  -0.013  1.2477  0.9652  1.4372
  936SOL    HW2 2808   1.177   2.784   0.120 -0.7137  0.5257  2.7285
  937SOL     OW 2809   1.987   2.621   2.043 -0.8425  0.2148  0.1098
  937SOL    HW1 2810   1.901   2.655   2.089 -0.6326 -0.3653 -0.5228
  937SOL    HW2 2811   2.012   2.680   1.958  1.0823  2.0034 -0.1215
  938SOL     OW 2812   2.789   2.086   1.562  0.1363  0.3577  0.1610
  938SOL    HW1 2813   2.792   2.187   1.579  2.5213 -0.6687  1.4578
  938SOL    HW2 2814   2.859   2.030   1.611 -3.1213 -1.9470 -0.1155
  939SOL     OW 2815   2.798   1.176   2.468 -0.8041  0.7980 -0.2045
  939SOL    HW1 2816   2.874   1.139   2.407  0.2499  1.3516  1.5891
  939SOL    HW2 2817   2.795   1.125   2.560 -0.9634  0.2448 -0.3111
  940SOL     OW 2818   1.073   0.454   2.724 -0.8537  0.0124 -0.0477
  940SOL    HW1 2819   1.159   0.394   2.720  0.1335 -1.1697 -1.7593
  940SOL    HW2 2820   1.007   0.443   2.646  3.1556  1.5126  0.5511
  941SOL     OW 2821   0.034   2.798   2.291 -0.6734 -0.0820  0.1233
  941SOL    HW1 2822   0.085   2.706   2.280 -3.1651  0.9662  0.9261
  941SOL    HW2 2823   0.098   2.879   2.301 -2.5265  1.7282  0.0017
  942SOL     OW 2824   0.070   0.076   2.520 -0.5373  0.4793  0.2876
  942SOL    HW1 2825   0.130   0.076   2.605  0.6213  2.5377 -0.6572
  942SOL    HW2 2826   0.074   0.166   2.466 -1.5368  0.7483  0.6830
  943SOL     OW 2827   2.157   1.709   2.360  0.0233 -0.4705  0.8096
  943SOL    HW1 2828   2.131   1.649   2.281  0.7354 -2.5829  2.9681
  943SOL    HW2 2829   2.165   1.651   2.441 -0.7049  0.2187 -3.4102
  944SOL     OW 2830   2.162   2.368   1.506  0.4492 -0.1786 -0.2876
  944SOL    HW1 2831   2.242   2.402   1.567 -0.2632 -0.4963  2.4566
  944SOL    HW2 2832   2.109   2.284   1.546  0.0247 -3.6339  1.7899
  945SOL     OW 2833   0.730   1.599   0.070  0.0867 -0.0145 -0.0435
  945SOL    HW1 2834   0.651   1.566   0.015 -0.4211 -0.2904 -0.1760
  945SOL    HW2 2835   0.744   1.539   0.157  0.5142  0.8629  0.3406
  946SOL     OW 2836   0.317   1.014   2.587  0.4487 -0.5624 -0.2707
  946SOL    HW1 2837   0.280   0.954   2.512 -0.0870 -1.5954  1.6637
  946SOL    HW2 2838   0.382   1.090   2.560 -0.6769 -0.0957 -2.1882
  947SOL     OW 2839   1.460   0.561   3.067 -0.6977  0.1146  0.4629
  947SOL    HW1 2840   1.446   0.598   2.970  2.4598 -0.9887  1.7373
  947SOL    HW2 2841   1.378   0.503   3.096  1.0830  1.3885 -0.2101
  948SOL     OW 2842   1.906   2.973   2.170 -0.3009  0.7181 -0.9031
  948SOL    HW1 2843   1.897   2.944   2.072  0.4826  1.0433  0.8793
  948SOL    HW2 2844   1.908   2.893   2.232 -1.2932 -0.7604  0.2142
  949SOL     OW 2845   0.618   2.442   0.476  0.0235  0.4553  0.1757
  949SOL    HW1 2846   0.607   2.541   0.486  0.7242 -3.4556 -1.1166
  949SOL    HW2 2847   0.633   2.399   0.570 -0.5678 -1.6724 -0.8490
  950SOL     OW 2848   0.225   2.194   2.951  0.0707  0.0899  0.1957
  950SOL    HW1 2849   0.181   2.279   2.905 -2.4089  1.8019 -3.8554
  950SOL    HW2 2850   0.214   2.110   2.891 -0.8406 -1.3826 -0.4153
  951SOL     OW 2851   1.180   2.660   2.791 -0.2518 -0.2164  0.1225
  951SOL    HW1 2852   1.228   2.581   2.834 -1.1128  0.9422 -0.7840
  951SOL    HW2 2853   1.242   2.711   2.722  0.5861 -2.1709 -2.0825
  952SOL     OW 2854   0.126   1.614   0.400  0.5164  0.0544  0.1503
  952SOL    HW1 2855   0.185   1.696   0.393 -0.1937 -0.9349 -1.6925
  952SOL    HW2 2856   0.143   1.556   0.488 -0.2606 -2.0838  2.1908
  953SOL     OW 2857   2.519   1.729   0.322 -0.2487  0.3608  0.0860
  953SOL    HW1 2858   2.509   1.641   0.269 -2.5431  2.2653 -2.1359
  953SOL    HW2 2859   2.542   1.810   0.256  1.0685  0.8680 -2.5466
  954SOL     OW 2860   2.136   0.581   0.905 -0.3410  0.2470  0.1843
  954SOL    HW1 2861   2.147   0.554   0.804 -2.2872  1.7171 -4.2157
  954SOL    HW2 2862   2.226   0.554   0.954 -0.4678 -0.3798  2.0474
  955SOL     OW 2863   0.130   2.548   1.363  0.3815  0.7581  0.0291
  955SOL    HW1 2864   0.035   2.585   1.347 -1.8621 -2.2369 -0.8877
  955SOL    HW2 2865   0.199   2.621   1.331  0.7555  0.5142  1.1311
  956SOL     OW 2866   2.831   2.492   2.520 -0.1433 -0.0610  0.4440
  956SOL    HW1 2867   2.809   2.394   2.500 -0.9682 -0.6023  0.3611
  956SOL    HW2 2868   2.868   2.551   2.440  0.8526 -0.5797 -0.6069
  957SOL     OW 2869   1.615   2.044   2.752 -0.5599  0.1143 -0.2011
  957SOL    HW1 2870   1.580   1.966   2.813 -1.1756  0.2683 -1.7161
  957SOL    HW2 2871   1.679   2.003   2.682 -0.4694 -3.4476 -0.5912
  958SOL     OW 2872   2.639   2.297   2.902 -0.2058 -0.4609  0.2357
  958SOL    HW1 2873   2.570   2.370   2.868 -1.5001 -0.4729  0.6490
  958SOL    HW2 2874   2.601   2.242   2.977  2.0006  2.3822  0.4332
  959SOL     OW 2875   0.362   2.756   0.103  0.3085 -0.5875 -0.4955
  959SOL    HW1 2876   0.287   2.815   0.148 -0.0943  3.9155 -0.0662
  959SOL    HW2 2877   0.364   2.657   0.126 -0.2816  1.6759  2.2199
  960SOL     OW 2878   1.959   0.423   1.944  0.0756 -0.6266  0.1833
  960SOL    HW1 2879   1.911   0.517   1.931 -2.0651  0.2237  0.3798
  960SOL    HW2 2880   1.968   0.405   2.045  0.4474 -1.1747 -2.1970
  961SOL     OW 2881   2.532   1.857   1.000 -0.0312 -0.2661 -0.4872
  961SOL    HW1 2882   2.555   1.949   0.959 -1.2940  0.3778  1.9049
  961SOL    HW2 2883   2.524   1.862   1.104  0.9380 -0.4572 -1.6706
  962SOL     OW 2884   1.293   0.833   0.064  0.4979  0.2378 -0.1690
  962SOL    HW1 2885   1.289   0.855  -0.035  0.1235 -1.0882  2.1105
  962SOL    HW2 2886   1.302   0.921   0.124  0.3476 -0.0146 -2.3549
  963SOL     OW 2887   2.308   2.564   1.832  0.2433 -0.2958 -0.0672
  963SOL    HW1 2888   2.255   2.474   1.840  1.3452 -0.1209  0.2105
  963SOL    HW2 2889   2.304   2.619   1.924  0.1556  0.7788  0.5003
  964SOL     OW 2890   2.346   0.325   1.638 -0.6013  0.4145 -0.3060
  964SOL    HW1 2891   2.448   0.333   1.679  1.4227 -1.7598  1.3161
  964SOL    HW2 2892   2.340   0.386   1.551  0.9476  2.7450  0.1035
  965SOL     OW 2893   2.602   2.947   0.162  0.3620 -0.3103 -0.0419
  965SOL    HW1 2894   2.669   2.930   0.084 -0.5158  1.8969 -3.2468
  965SOL    HW2 2895   2.505   2.965   0.125 -1.1017  2.0174  0.8726
  966SOL     OW 2896   2.488   2.502   2.207  0.1560 -0.1832 -0.1359
  966SOL    HW1 2897   2.549   2.551   2.141 -0.4795 -0.6051  0.1353
  966SOL    HW2 2898   2.384   2.519   2.195 -1.0490  2.3613  0.2790
  967SOL     OW 2899   2.744   2.834   2.437 -0.0368 -0.0867 -0.5050
  967SOL    HW1 2900   2.793   2.768   2.371 -0.9863  0.0624 -1.3287
  967SOL    HW2 2901   2.813   2.890   2.490  0.1279  0.3438  0.0627
  968SOL     OW 2902   1.946   1.039   2.632  0.4126 -0.0161  0.2981
  968SOL    HW1 2903   1.878   1.114   2.617  0.4762 -1.4537  2.0933
  968SOL    HW2 2904   1.946   0.959   2.565  0.2340  1.4974  0.8672
  969SOL     OW 2905   2.801   2.525   1.063 -0.6455 -0.3863 -0.6232
  969SOL    HW1 2906   2.781   2.500   0.963  1.2122  0.5218 -2.2123
  969SOL    HW2 2907   2.826   2.442   1.120 -0.4857 -1.1181 -0.8693
  970SOL     OW 2908   1.151   2.158   1.891  0.3535 -0.4081 -0.4997
  970SOL    HW1 2909   1.099   2.073   1.863 -0.4887 -1.3983  1.3108
  970SOL    HW2 2910   1.094   2.237   1.917  2.8987 -1.4387  1.9886
  971SOL     OW 2911   2.844   2.071   1.926 -0.2047 -0.3233  0.3771
  971SOL    HW1 2912   2.873   2.149   1.994  0.7303  2.0215  0.1299
  971SOL    HW2 2913   2.904   2.072   1.839  0.4572 -3.4020 -1.1832
  972SOL     OW 2914   1.921   2.485   0.255  0.1850 -0.2582  0.0075
  972SOL    HW1 2915   1.911   2.401   0.199 -1.9097  2.1863  3.3316
  972SOL    HW2 2916   1.933   2.459   0.355 -1.6949 -4.1823  0.3982
  973SOL     OW 2917   1.170   0.879   1.878  0.7937  0.5667 -0.0666
  973SOL    HW1 2918   1.107   0.800   1.844 -1.2436 -1.2657 -0.6653
  973SOL    HW2 2919   1.115   0.965   1.870 -0.7274 -0.5585  0.7791
  974SOL     OW 2920   1.631   0.598   1.990  0.6889 -0.2292 -0.2364
  974SOL    HW1 2921   1.712   0.633   1.942  0.0919 -0.4283  0.8812
  974SOL    HW2 2922   1.541   0.642   1.965  0.7212 -0.4178 -0.0469
  975SOL     OW 2923   2.350   3.012   3.064  0.5422  0.8788 -0.5345
  975SOL    HW1 2924   2.292   2.938   3.113  0.3323  1.1655 -0.1291
  975SOL    HW2 2925   2.418   2.970   2.995 -0.7430 -1.4836 -1.2290
  976SOL     OW 2926   1.910   2.763   2.357  0.2649  0.5984  0.4371
  976SOL    HW1 2927   1.813   2.735   2.366  0.9517 -1.1578 -0.0876
  976SOL    HW2 2928   1.951   2.780   2.452 -0.9993 -0.4758  0.2104
  977SOL     OW 2929   0.472   0.682   1.030  0.3570 -0.1874 -0.0998
  977SOL    HW1 2930   0.381   0.682   0.987  0.5628  0.1261 -0.2680
  977SOL    HW2 2931   0.531   0.755   0.999 -1.7117 -2.4388  0.2618
   3.10000   3.10000   3.10000
