1000 SPC/Fw water molecules t=   0.17000 step= 170
 2931
    1SOL     OW    1   2.530   0.330   2.559 -0.1687  0.1394 -0.3717
    1SOL    HW1    2   2.565   0.235   2.538  0.8830  1.1066 -0.8860
    1SOL    HW2    3   2.589   0.373   2.630 -0.9087 -0.9985 -3.7507
    2SOL     OW    4   2.715   3.016   1.420 -0.0285  0.1152 -0.3545
    2SOL    HW1    5   2.773   3.077   1.361 -2.2961  0.4138  0.4665
    2SOL    HW2    6   2.654   3.061   1.490 -0.6754  1.8448  1.0650
    3SOL     OW    7   2.735   2.574   0.412  0.3816  0.4364 -0.4984
    3SOL    HW1    8   2.703   2.475   0.432 -0.5305  0.5210 -2.9452
    3SOL    HW2    9   2.807   2.615   0.477  3.4480 -0.7371 -2.4526
    4SOL     OW   10   1.333   1.461   2.332  0.3624  0.3581  0.3835
    4SOL    HW1   11   1.257   1.523   2.365 -0.3602 -0.2384  0.2329
    4SOL    HW2   12   1.336   1.369   2.388  0.1965 -0.9089  0.6789
    5SOL     OW   13   1.187   1.495   3.065 -0.1630  0.1299 -0.0566
    5SOL    HW1   14   1.238   1.580   3.108  2.5521 -0.5545 -0.2372
    5SOL    HW2   15   1.085   1.501   3.086  0.5922  1.8657  1.5257
    6SOL     OW   16   0.111   1.867   2.939 -0.5306 -0.1540 -0.3002
    6SOL    HW1   17   0.104   1.922   3.027 -0.9062 -1.1380  3.7182
    6SOL    HW2   18   0.080   1.766   2.947 -1.4567 -1.9663 -1.3063
    7SOL     OW   19   2.600   0.810   1.162 -0.1598  0.2119  0.0371
    7SOL    HW1   20   2.523   0.753   1.198  0.4400 -0.7387 -0.8490
    7SOL    HW2   21   2.613   0.807   1.061 -1.9120 -1.8845 -3.0334
    8SOL     OW   22   0.464   0.680   1.537 -0.2017  0.0760 -0.2470
    8SOL    HW1   23   0.503   0.584   1.572  0.2527 -2.1428 -1.0437
    8SOL    HW2   24   0.411   0.668   1.448  0.0469 -2.2392 -0.0677
    9SOL     OW   25   1.187   0.921   2.270  0.3387  0.2368 -0.0235
    9SOL    HW1   26   1.248   0.993   2.230 -1.9828  2.2273  0.6840
    9SOL    HW2   27   1.087   0.920   2.230 -2.1509  0.1836  0.9687
   10SOL     OW   28   0.645   1.345   1.267 -0.2884 -0.0298 -0.7476
   10SOL    HW1   29   0.554   1.348   1.209 -0.6318 -1.3932  0.1098
   10SOL    HW2   30   0.704   1.430   1.259  1.9301  2.7840 -0.5580
   11SOL     OW   31   2.306   2.576   0.931  0.5187  0.2876  0.2839
   11SOL    HW1   32   2.316   2.632   1.018  1.2570  0.1363  1.5895
   11SOL    HW2   33   2.359   2.484   0.931 -1.0910  0.6490  1.2084
   12SOL     OW   34   1.458   0.904   0.481  0.7935  0.2367  0.1070
   12SOL    HW1   35   1.367   0.950   0.468 -0.1177 -1.6327 -0.7233
   12SOL    HW2   36   1.461   0.816   0.433 -0.4849  0.7877  2.0655
   13SOL     OW   37   2.474   0.655   1.803  0.1757 -0.1334  0.1516
   13SOL    HW1   38   2.384   0.671   1.854 -0.0152  0.3296 -1.1075
   13SOL    HW2   39   2.463   0.606   1.715 -0.8846 -1.7752  1.7229
   14SOL     OW   40   1.857   3.073   0.562  0.7479  0.0325  0.4108
   14SOL    HW1   41   1.770   3.118   0.523 -1.6771  1.6994  2.7979
   14SOL    HW2   42   1.847   3.062   0.668  0.9840 -3.2484  1.5357
   15SOL     OW   43   1.959   2.058   2.838 -0.1478 -0.4410  0.4598
   15SOL    HW1   44   1.902   2.142   2.853 -1.6578 -3.3194  0.4612
   15SOL    HW2   45   1.927   2.002   2.756 -0.1333  0.6211 -1.7768
   16SOL     OW   46   1.576   1.713   0.067  0.4428 -0.2739  0.3379
   16SOL    HW1   47   1.585   1.617   0.029  0.4164  0.2100  1.2379
   16SOL    HW2   48   1.645   1.730   0.145  1.7545 -0.1133 -0.0664
   17SOL     OW   49   0.133   0.413   0.172  0.3003  0.3601 -0.0334
   17SOL    HW1   50   0.187   0.478   0.114 -2.2679 -0.8078 -3.5743
   17SOL    HW2   51   0.043   0.396   0.126 -1.2611  2.0223  0.6002
   18SOL     OW   52   1.107   2.869   2.143  0.3012 -0.4977 -0.0882
   18SOL    HW1   53   1.056   2.941   2.091 -1.4128  1.3633 -1.0486
   18SOL    HW2   54   1.178   2.826   2.084 -0.1963  1.7647  0.6134
   19SOL     OW   55   0.522   1.008   1.932 -0.6523 -0.0375 -0.2040
   19SOL    HW1   56   0.464   1.036   2.015  0.5007  0.5938 -1.8272
   19SOL    HW2   57   0.620   0.985   1.951 -1.0863  0.6622 -2.2749
   20SOL     OW   58   0.265   2.757   0.866 -0.5633 -0.2132  0.3676
   20SOL    HW1   59   0.167   2.793   0.850  2.1859  1.4198  0.0455
   20SOL    HW2   60   0.307   2.708   0.781  1.4778  0.2880 -0.2826
   21SOL     OW   61   2.790   0.232   2.153  0.4243 -0.4167  0.1091
   21SOL    HW1   62   2.852   0.160   2.103 -1.5654 -1.3938 -1.0031
   21SOL    HW2   63   2.748   0.195   2.243 -2.3715 -1.4589 -2.7208
   22SOL     OW   64   2.380   0.207   0.017 -0.0670 -0.0606 -0.7131
   22SOL    HW1   65   2.407   0.108   0.003  0.2297  0.3407  0.8470
   22SOL    HW2   66   2.284   0.225  -0.001  0.6674 -3.0764  1.6293
   23SOL     OW   67   2.779   0.663   0.711  0.1143  0.0187 -0.1676
   23SOL    HW1   68   2.754   0.566   0.677  1.4784 -2.4145 -1.2810
   23SOL    HW2   69   2.792   0.736   0.638  2.2274  1.8256  1.4580
   24SOL     OW   70   0.170   1.894   0.471  0.3361 -0.0213  0.4719
   24SOL    HW1   71   0.072   1.893   0.431 -1.1650  0.2063  2.5639
   24SOL    HW2   72   0.238   1.901   0.392  2.7046  0.6461  1.8180
   25SOL     OW   73   2.255   0.518   0.188 -0.1391  0.3329  0.5979
   25SOL    HW1   74   2.357   0.484   0.196 -0.5079 -0.7535 -0.0193
   25SOL    HW2   75   2.206   0.501   0.091 -0.1792  0.4490 -3.0242
   26SOL     OW   76   2.552   2.186   2.085 -0.3719 -0.3149 -0.0135
   26SOL    HW1   77   2.613   2.235   2.154  0.2139  0.3442 -0.8369
   26SOL    HW2   78   2.601   2.121   2.020 -1.3819  4.2422 -1.5435
   27SOL     OW   79   0.675   2.976   0.096  0.2534  0.2329  0.2243
   27SOL    HW1   80   0.771   3.016   0.080  1.2917  0.1277  2.0904
   27SOL    HW2   81   0.618   2.962   0.013 -1.2527  0.7471  1.9498
   28SOL     OW   82   1.491   0.226   0.200  0.3635  0.0280  0.7830
   28SOL    HW1   83   1.574   0.190   0.141  1.1787  0.5113 -4.6457
   28SOL    HW2   84   1.525   0.292   0.270  1.1648  1.9814 -1.8455
   29SOL     OW   85   2.005   0.615   0.246  0.1299  0.2087 -0.6235
   29SOL    HW1   86   2.024   0.705   0.294  0.1438 -0.5236 -0.9236
   29SOL    HW2   87   2.091   0.561   0.241  0.4193  1.7881 -3.0639
   30SOL     OW   88   0.200   2.038   0.942 -0.7246 -0.0267  0.3177
   30SOL    HW1   89   0.179   2.026   0.835  1.9346  2.9659 -1.7236
   30SOL    HW2   90   0.119   2.086   0.994  0.8694  3.1757 -0.6284
   31SOL     OW   91   2.026   0.046   2.329 -0.2350  0.1230 -0.2024
   31SOL    HW1   92   2.077   0.026   2.420  2.4524  1.0989  0.1295
   31SOL    HW2   93   1.982  -0.037   2.281 -1.0183  0.5968 -2.1193
   32SOL     OW   94   2.971   0.106   0.219 -0.4527  0.0445 -0.8715
   32SOL    HW1   95   2.909   0.041   0.271  1.5777  0.1207 -2.2538
   32SOL    HW2   96   3.058   0.052   0.190  2.3189  1.5202  3.7874
   33SOL     OW   97   0.975   0.323   0.423 -0.0957 -0.4695 -0.3198
   33SOL    HW1   98   0.946   0.223   0.431 -0.0695  1.4120 -0.0575
   33SOL    HW2   99   1.035   0.344   0.508  2.1909  1.2323  2.4740
   34SOL     OW  100   0.411   2.917   1.064 -0.1796  0.6709  0.0200
   34SOL    HW1  101   0.367   2.864   0.983  0.0333 -1.9994 -0.3208
   34SOL    HW2  102   0.504   2.874   1.087  1.6323 -0.1007  0.2789
   35SOL     OW  103   0.063   3.098   1.801  0.5408  0.2150 -0.0759
   35SOL    HW1  104   0.098   3.005   1.803 -1.2703  0.9349 -0.0031
   35SOL    HW2  105   0.020   3.127   1.715 -0.1519 -0.7315  3.1156
   36SOL     OW  106   1.900   1.162   1.828  0.1260  0.2948  0.4455
   36SOL    HW1  107   1.959   1.123   1.760 -0.8632  1.9109  0.8231
   36SOL    HW2  108   1.911   1.264   1.825  1.2807  0.6648 -0.2399
   37SOL     OW  109   1.130   0.320   0.990 -0.0889 -0.3453 -0.6671
   37SOL    HW1  110   1.184   0.407   1.006  0.9780 -0.7314  1.9158
   37SOL    HW2  111   1.181   0.239   1.035 -1.5101  0.4619 -0.4502
   38SOL     OW  112   1.143   2.691   2.400 -0.0030 -0.5271  0.1338
   38SOL    HW1  113   1.091   2.607   2.429 -1.7044  2.4248 -0.8590
   38SOL    HW2  114   1.086   2.760   2.338 -2.5003  2.1685  0.4788
   39SOL     OW  115   2.356   1.465   3.053 -0.1336 -0.6210 -0.1410
   39SOL    HW1  116   2.412   1.377   3.051 -1.4003  0.7257  0.1949
   39SOL    HW2  117   2.298   1.469   3.141  0.0815 -1.8522 -3.9171
   40SOL     OW  118   2.077   2.533   2.550 -0.2935 -0.2672 -0.2965
   40SOL    HW1  119   2.046   2.616   2.600 -0.2900 -3.9637 -1.2980
   40SOL    HW2  120   1.998   2.492   2.502  1.1982  1.9148  1.0012
   41SOL     OW  121   2.909   0.673   2.760  0.2687 -0.3525  0.0117
   41SOL    HW1  122   2.809   0.710   2.746  1.8331  3.1413 -2.0404
   41SOL    HW2  123   2.921   0.573   2.723 -0.0337 -1.0568  2.6140
   42SOL     OW  124   1.750   1.749   0.583  1.2872  0.1158  0.0161
   42SOL    HW1  125   1.702   1.658   0.554  1.2138 -0.7257  1.2908
   42SOL    HW2  126   1.789   1.799   0.500 -2.7955  0.0881 -1.5184
   43SOL     OW  127   0.446   1.739   1.206 -0.3755  0.0598 -0.3293
   43SOL    HW1  128   0.448   1.665   1.277  0.4176  0.2982 -0.9047
   43SOL    HW2  129   0.363   1.735   1.142 -1.4353  1.2569 -2.5911
   44SOL     OW  130   1.719   2.517   0.011 -0.5583 -0.0383  0.4708
   44SOL    HW1  131   1.761   2.581  -0.060  4.6266 -2.3588 -0.2602
   44SOL    HW2  132   1.793   2.483   0.071  0.1951  1.4778 -0.9582
   45SOL     OW  133   0.378   1.905   2.495 -0.5971  0.3367 -0.1607
   45SOL    HW1  134   0.302   1.904   2.429 -0.7596  0.3339 -1.0540
   45SOL    HW2  135   0.410   1.813   2.522 -0.6327  2.0922 -1.2664
   46SOL     OW  136   1.148   0.650   0.178  0.1053 -0.3631 -0.1719
   46SOL    HW1  137   1.224   0.713   0.152 -0.2870  2.2945  0.9998
   46SOL    HW2  138   1.056   0.687   0.150  0.3564  1.6263 -1.3061
   47SOL     OW  139   0.246   2.457   1.617 -0.6962  0.4537  0.1533
   47SOL    HW1  140   0.329   2.391   1.596  3.2633 -0.6016 -0.5629
   47SOL    HW2  141   0.217   2.506   1.531  1.1519  1.5937  3.9506
   48SOL     OW  142   2.607   0.565   0.128 -0.7528 -0.5172  0.2828
   48SOL    HW1  143   2.563   0.612   0.210  0.2231  0.2744 -1.5373
   48SOL    HW2  144   2.684   0.611   0.076  2.4766  2.1118  0.6664
   49SOL     OW  145   0.356   0.844   1.759 -0.5005  0.6885 -0.2975
   49SOL    HW1  146   0.443   0.881   1.803 -0.2848 -0.8166 -0.6135
   49SOL    HW2  147   0.376   0.766   1.698 -0.3909  0.3651  1.8883
   50SOL     OW  148   1.754   1.061   0.347 -0.1839 -0.2470  0.4452
   50SOL    HW1  149   1.779   0.961   0.320 -0.7898  3.9126  0.2171
   50SOL    HW2  150   1.749   1.080   0.450 -0.7523  0.5954  0.5121
   51SOL     OW  151   3.010   1.896   0.383 -0.3859  0.3934  0.4214
   51SOL    HW1  152   2.995   1.937   0.289 -0.3136  0.5628 -0.0366
   51SOL    HW2  153   2.965   1.805   0.392  0.3712  0.0045 -1.0381
   52SOL     OW  154   0.827   1.960   0.474 -0.6771  0.4787  0.8201
   52SOL    HW1  155   0.740   2.006   0.509  1.1072 -0.2683 -0.3864
   52SOL    HW2  156   0.860   1.886   0.538  0.5841  0.2914  1.5164
   53SOL     OW  157   3.086   0.355   1.509 -0.1910 -0.2446 -0.2134
   53SOL    HW1  158   2.991   0.363   1.554 -3.4493 -0.0697 -3.2612
   53SOL    HW2  159   3.129   0.448   1.487  0.9505 -3.1267  1.3208
   54SOL     OW  160   1.747   0.486   3.010 -0.4908 -0.0887  0.0729
   54SOL    HW1  161   1.800   0.437   3.083 -1.5475  2.1654  1.3551
   54SOL    HW2  162   1.648   0.478   3.014 -0.0151  0.5463  0.3118
   55SOL     OW  163   0.715   2.931   0.638 -0.0456 -0.1008 -0.4787
   55SOL    HW1  164   0.681   3.029   0.673 -1.4700  0.2416  2.6273
   55SOL    HW2  165   0.804   2.932   0.582  1.3905 -0.0543 -1.2623
   56SOL     OW  166   0.493   1.534   3.067 -0.1339  0.4535 -0.3654
   56SOL    HW1  167   0.414   1.593   3.093  1.8268  1.3017  0.0012
   56SOL    HW2  168   0.474   1.454   2.996 -1.3092 -0.3935 -1.8947
   57SOL     OW  169   1.764   2.377   2.629  0.2242 -0.0567 -0.5936
   57SOL    HW1  170   1.813   2.345   2.540  0.7557  0.4757 -0.7941
   57SOL    HW2  171   1.708   2.463   2.626  0.1001  0.8275  2.2519
   58SOL     OW  172   0.605   0.473   1.109 -0.2932 -0.4509 -0.0286
   58SOL    HW1  173   0.555   0.567   1.080 -0.0107 -2.4408 -0.3997
   58SOL    HW2  174   0.548   0.379   1.108 -2.1449  0.0215  0.9083
   59SOL     OW  175   0.476   2.407   2.643 -0.0191  0.4176  0.4085
   59SOL    HW1  176   0.479   2.315   2.682 -2.1587  4.1775 -1.0940
   59SOL    HW2  177   0.556   2.467   2.657  0.9496 -0.4124 -1.7514
   60SOL     OW  178   2.332   2.194   2.249 -0.1253  0.1647  0.1831
   60SOL    HW1  179   2.412   2.213   2.185 -0.3505 -1.4903  2.4460
   60SOL    HW2  180   2.360   2.202   2.348  2.2326  0.5730 -2.1341
   61SOL     OW  181   1.372   0.586   0.429 -0.1320 -0.2826 -0.1186
   61SOL    HW1  182   1.281   0.621   0.457  0.8389 -1.7945 -0.7259
   61SOL    HW2  183   1.385   0.562   0.329  1.3605 -0.1431  0.1178
   62SOL     OW  184   2.657   1.884   0.005  0.0658 -0.4408 -0.6688
   62SOL    HW1  185   2.691   1.794   0.045 -1.7680 -0.1518  2.7678
   62SOL    HW2  186   2.692   1.901  -0.089 -1.7798 -0.5531  0.0325
   63SOL     OW  187   0.520   0.799   0.150 -0.0308  0.0042  0.5623
   63SOL    HW1  188   0.508   0.902   0.137  0.7849 -0.6700  1.2783
   63SOL    HW2  189   0.598   0.773   0.215  0.8010  1.0506 -0.3097
   64SOL     OW  190   0.082   0.530   2.520  0.5181 -1.2065  0.2852
   64SOL    HW1  191   0.105   0.584   2.602 -1.8102  2.2573 -2.0556
   64SOL    HW2  192   0.063   0.595   2.439 -1.1529  0.8075  0.9642
   65SOL     OW  193   0.182   1.442   0.636 -0.0628  0.0643  0.1614
   65SOL    HW1  194   0.180   1.506   0.719 -1.6354  0.5780 -0.1251
   65SOL    HW2  195   0.277   1.443   0.592  2.0773  1.1616 -1.2810
   66SOL     OW  196   2.478   0.364   0.685  0.4121  0.5546  0.2858
   66SOL    HW1  197   2.392   0.429   0.665 -2.8243  0.1420 -1.3628
   66SOL    HW2  198   2.447   0.277   0.731  0.5433  1.2846  0.1958
   67SOL     OW  199   0.485   2.549   1.333  0.2326 -0.6768  0.2887
   67SOL    HW1  200   0.587   2.572   1.340  0.7582  0.6318 -0.8567
   67SOL    HW2  201   0.471   2.448   1.302 -0.3043 -3.6845 -1.8894
   68SOL     OW  202   1.014   1.099   2.451 -0.3208 -0.1165  0.4777
   68SOL    HW1  203   1.056   1.032   2.387  0.8894 -2.2407  0.7143
   68SOL    HW2  204   0.952   1.165   2.405  1.2265  2.3036 -0.4638
   69SOL     OW  205   0.784   2.697   2.161  0.2880 -0.0081  0.1889
   69SOL    HW1  206   0.817   2.604   2.185  1.1060  2.9224 -1.9686
   69SOL    HW2  207   0.682   2.707   2.177 -2.8657 -1.0851 -1.3257
   70SOL     OW  208   0.608   0.245   2.712 -0.0092  0.3488  0.1173
   70SOL    HW1  209   0.583   0.249   2.813 -2.1912  1.9671 -0.4958
   70SOL    HW2  210   0.561   0.163   2.670  1.5335  1.1840  0.0343
   71SOL     OW  211   1.085   1.802   0.378 -0.3836 -0.6251  0.2663
   71SOL    HW1  212   1.035   1.714   0.405  0.2689 -0.9646 -0.3439
   71SOL    HW2  213   1.087   1.809   0.272  0.3129 -1.3801 -2.3842
   72SOL     OW  214   1.789   0.067   2.088  0.6285  0.0171 -0.3362
   72SOL    HW1  215   1.822   0.093   1.990  0.7307 -0.8841  2.1800
   72SOL    HW2  216   1.834  -0.019   2.126  1.0444 -0.5499 -0.0188
   73SOL     OW  217   2.832   2.216   2.519 -0.3247  0.3257  0.2006
   73SOL    HW1  218   2.849   2.126   2.467  0.5075 -2.3920 -0.3865
   73SOL    HW2  219   2.861   2.205   2.615  0.7436 -0.6496 -1.0412
   74SOL     OW  220   2.716   3.021   2.057  0.6371 -0.0369 -0.2884
   74SOL    HW1  221   2.649   2.980   2.123  3.2036 -1.6774 -1.6714
   74SOL    HW2  222   2.811   2.986   2.072  1.4730 -0.0055  0.7518
   75SOL     OW  223   0.912   0.744   0.985 -0.1224  0.1811  0.0884
   75SOL    HW1  224   0.827   0.806   0.984  0.5389 -2.6691  1.1531
   75SOL    HW2  225   0.980   0.771   1.064  0.6215  2.5397  3.8806
   76SOL     OW  226   1.758   1.218   2.561 -0.0134 -0.0877 -0.3607
   76SOL    HW1  227   1.654   1.210   2.547  1.8831  1.4848 -0.9549
   76SOL    HW2  228   1.777   1.290   2.637  0.6240  1.5140 -0.3754
   77SOL     OW  229   2.995   0.981   0.976 -0.3078 -0.1260 -0.3438
   77SOL    HW1  230   2.954   0.882   0.977  1.4838 -2.2055  0.1106
   77SOL    HW2  231   3.071   0.988   1.044 -0.7085 -1.9614 -0.7104
   78SOL     OW  232   1.970   1.398   1.476 -0.0109  0.0009  0.1854
   78SOL    HW1  233   2.067   1.406   1.452 -0.7796 -0.7018 -2.4298
   78SOL    HW2  234   1.908   1.349   1.409 -0.7689 -0.8747 -0.0316
   79SOL     OW  235   0.639   1.329   0.860 -0.7674  0.2651 -0.0244
   79SOL    HW1  236   0.547   1.380   0.851 -0.2696 -0.9607  0.0069
   79SOL    HW2  237   0.642   1.240   0.800 -0.8379 -2.7150 -0.3598
   80SOL     OW  238   0.647   0.491   1.602  0.0586 -0.1058  0.0621
   80SOL    HW1  239   0.719   0.546   1.547  1.8865 -0.4142  1.1068
   80SOL    HW2  240   0.654   0.390   1.581  1.7247  1.7393 -0.6224
   81SOL     OW  241   1.086   1.409   2.619 -0.5011 -0.7293  0.1442
   81SOL    HW1  242   1.040   1.370   2.704  0.3499  0.9524  2.4783
   81SOL    HW2  243   1.032   1.379   2.536 -1.4048  0.9398  3.0627
   82SOL     OW  244   0.903   3.026   1.514 -0.2713 -0.5700  0.1327
   82SOL    HW1  245   0.996   2.982   1.497 -1.4008  3.0808 -1.9383
   82SOL    HW2  246   0.826   2.958   1.513  3.2046 -0.6098 -4.1837
   83SOL     OW  247   2.764   2.428   0.804 -0.1456  0.3046 -0.4449
   83SOL    HW1  248   2.675   2.391   0.767  2.6965 -1.6262  2.1521
   83SOL    HW2  249   2.794   2.511   0.746 -0.7133  2.5608  0.6256
   84SOL     OW  250   0.670   0.011   2.411  0.2771  0.1291 -0.1836
   84SOL    HW1  251   0.621  -0.065   2.464  1.5439 -3.7774  0.5982
   84SOL    HW2  252   0.770   0.019   2.438 -0.0952  0.0072 -2.0271
   85SOL     OW  253   0.411   1.646   1.479 -0.0332  0.1654  0.0118
   85SOL    HW1  254   0.376   1.740   1.458 -1.1721 -0.5990 -1.7573
   85SOL    HW2  255   0.379   1.609   1.573  0.6334 -2.4667  3.1558
   86SOL     OW  256   0.356   1.030   1.480 -0.2529 -0.4048  0.0658
   86SOL    HW1  257   0.310   0.984   1.399  0.0524 -1.1066  0.2520
   86SOL    HW2  258   0.414   0.965   1.533  0.5249 -0.9524 -2.7576
   87SOL     OW  259   1.583   0.579   0.207  0.3835  0.1896  0.2534
   87SOL    HW1  260   1.633   0.670   0.209  0.4420  0.3822 -0.6681
   87SOL    HW2  261   1.534   0.567   0.116  0.0966 -3.0688 -0.2478
   88SOL     OW  262   1.586   1.258   0.182 -0.0336 -0.6019  0.3721
   88SOL    HW1  263   1.652   1.203   0.240  0.8009  0.5646  0.8551
   88SOL    HW2  264   1.488   1.266   0.224 -1.5818 -2.5423 -2.3617
   89SOL     OW  265   2.998   0.451   0.573  0.9165  0.7045  0.0024
   89SOL    HW1  266   3.046   0.375   0.622 -0.7396 -0.3510  0.0464
   89SOL    HW2  267   2.903   0.429   0.533 -2.7458 -0.7249 -1.6813
   90SOL     OW  268   0.953   1.655   3.063  0.1664  0.1232  0.3511
   90SOL    HW1  269   0.872   1.641   3.128 -0.4530  0.2470  0.9658
   90SOL    HW2  270   0.931   1.648   2.962  2.1705  0.4326  0.7447
   91SOL     OW  271   1.278   1.430   1.778  0.2841  0.2827  0.0079
   91SOL    HW1  272   1.292   1.501   1.851  0.5167 -0.0924 -1.9955
   91SOL    HW2  273   1.367   1.375   1.765  0.7717 -0.5945  0.6905
   92SOL     OW  274   0.078   1.058   1.176  0.5470 -0.1958 -0.2614
   92SOL    HW1  275   0.175   1.057   1.149  1.3187  1.6325  1.7598
   92SOL    HW2  276   0.067   1.043   1.276  0.7255  1.3163  1.9415
   93SOL     OW  277   0.069   2.832   0.027 -0.7443  0.2011  0.3032
   93SOL    HW1  278  -0.005   2.810  -0.044  1.3881  1.2851  0.1171
   93SOL    HW2  279   0.129   2.749   0.044 -2.4990  1.9747 -1.2932
   94SOL     OW  280   1.495   1.316   1.671  0.3719  0.5878  0.5187
   94SOL    HW1  281   1.504   1.221   1.707 -2.7099  0.9542 -0.1921
   94SOL    HW2  282   1.573   1.376   1.704 -1.7462 -0.0969 -0.1212
   95SOL     OW  283   1.386   2.489   2.898 -0.5453 -0.4545  0.6042
   95SOL    HW1  284   1.314   2.476   2.966  1.1188 -0.9764 -1.3330
   95SOL    HW2  285   1.405   2.400   2.851 -0.6170  0.5576  0.3433
   96SOL     OW  286   0.512   2.027   1.226  0.1954 -0.0377 -0.0216
   96SOL    HW1  287   0.499   2.060   1.130  2.9553 -0.3234  1.2784
   96SOL    HW2  288   0.468   1.936   1.241  1.1909  0.5975  1.4460
   97SOL     OW  289   0.306   1.457   2.477  0.2991 -0.0148  0.2640
   97SOL    HW1  290   0.215   1.415   2.493 -0.9271 -1.4592  0.3386
   97SOL    HW2  291   0.340   1.532   2.539  0.0257  1.0548 -0.0969
   98SOL     OW  292   2.065   1.694   1.288 -0.4733  0.5922  0.3613
   98SOL    HW1  293   2.037   1.619   1.218 -2.1398  3.4686  0.8395
   98SOL    HW2  294   2.141   1.662   1.350 -0.4823 -0.7442  2.9782
   99SOL     OW  295   2.471   2.163   1.324 -0.0033 -0.1895 -0.2162
   99SOL    HW1  296   2.431   2.181   1.418 -0.0104 -0.1432 -0.5592
   99SOL    HW2  297   2.493   2.063   1.323 -2.0770 -1.7601 -1.2740
  100SOL     OW  298   2.298   0.409   2.040 -0.5221 -0.2702 -0.4522
  100SOL    HW1  299   2.247   0.416   2.125  0.3596  1.4314 -0.2874
  100SOL    HW2  300   2.398   0.377   2.049  1.4766 -1.1722 -1.7534
  101SOL     OW  301   0.427   1.429   0.281 -0.3525  0.0818  0.1648
  101SOL    HW1  302   0.435   1.485   0.367  1.9300  2.6531 -1.3103
  101SOL    HW2  303   0.473   1.473   0.197  0.5437 -1.8111 -0.5213
  102SOL     OW  304   2.271   1.072   0.813 -0.0824 -0.2200 -0.2699
  102SOL    HW1  305   2.207   1.013   0.762  1.8166 -0.5228 -0.0700
  102SOL    HW2  306   2.320   1.142   0.751  2.3857  0.2108 -2.2032
  103SOL     OW  307   2.286   0.072   0.403  0.2395  0.4425  0.0426
  103SOL    HW1  308   2.349   0.147   0.369  0.0289  2.1139 -0.7118
  103SOL    HW2  309   2.322   0.035   0.490 -0.6044 -0.6494  0.1740
  104SOL     OW  310   0.069   1.878   2.159  0.1512  0.3212  0.0030
  104SOL    HW1  311   0.102   1.798   2.105 -2.4755  2.4196 -2.8864
  104SOL    HW2  312  -0.036   1.895   2.152 -1.4768 -1.9364 -1.5402
  105SOL     OW  313   1.115   1.971   0.842  0.1045  0.0162  0.2072
  105SOL    HW1  314   1.039   2.019   0.789 -0.8540  0.1900  0.8386
  105SOL    HW2  315   1.174   1.910   0.782  0.6140  0.4942 -1.2879
  106SOL     OW  316   2.047   0.466   1.348 -0.0336 -0.3148 -0.0154
  106SOL    HW1  317   2.037   0.373   1.395  1.8228 -0.8557 -0.6062
  106SOL    HW2  318   2.020   0.547   1.407 -0.3059  0.6562 -2.9244
  107SOL     OW  319   1.805   3.024   1.104  0.2208  0.1438 -0.3554
  107SOL    HW1  320   1.847   3.090   1.173  0.2775  0.6062 -0.4886
  107SOL    HW2  321   1.754   2.948   1.161  1.9755 -1.7119  0.3653
  108SOL     OW  322   0.748   2.639   1.306  0.2652  0.2166  0.1966
  108SOL    HW1  323   0.735   2.715   1.372 -1.3842  0.5409 -2.0215
  108SOL    HW2  324   0.843   2.595   1.315  1.7173 -0.1943  1.1422
  109SOL     OW  325   2.089   0.107   0.691  0.3305 -0.1711  0.3894
  109SOL    HW1  326   2.038   0.025   0.648  0.8219 -0.6855 -1.2369
  109SOL    HW2  327   2.077   0.105   0.792  1.3986 -1.6845  0.9273
  110SOL     OW  328   0.492   2.750   2.747  0.3038  0.4132  0.0483
  110SOL    HW1  329   0.499   2.786   2.645  0.7671  0.4160 -1.7983
  110SOL    HW2  330   0.580   2.700   2.773  1.9382  1.0276  0.7261
  111SOL     OW  331   1.286   0.527   2.313  0.2382 -0.4285 -0.3538
  111SOL    HW1  332   1.202   0.564   2.365  0.6296 -0.9142 -1.0802
  111SOL    HW2  333   1.334   0.454   2.373 -0.0975  2.8003 -1.7682
  112SOL     OW  334   1.706   0.496   1.459  0.5462 -0.0470 -0.1343
  112SOL    HW1  335   1.727   0.471   1.362 -0.9184 -0.9532  0.2213
  112SOL    HW2  336   1.702   0.419   1.527 -0.0933 -2.6349 -2.9616
  113SOL     OW  337   2.306   1.668   1.747  0.0744  0.0463  0.2820
  113SOL    HW1  338   2.389   1.608   1.740  2.7939 -1.7517  1.5242
  113SOL    HW2  339   2.302   1.720   1.839  0.7190 -1.5348 -0.2184
  114SOL     OW  340   0.386   0.569   1.282 -0.1560  0.2418 -0.1405
  114SOL    HW1  341   0.362   0.665   1.249 -2.1242 -0.7296 -0.5069
  114SOL    HW2  342   0.393   0.503   1.205 -2.2422  1.8498  0.9084
  115SOL     OW  343   2.669   1.586   1.244 -0.1608  0.0639 -0.1789
  115SOL    HW1  344   2.682   1.485   1.250 -3.1347  0.7247 -1.8560
  115SOL    HW2  345   2.712   1.626   1.160 -1.8587  1.3697 -1.4201
  116SOL     OW  346   1.822   1.064   0.759  0.2072 -0.5166 -0.0772
  116SOL    HW1  347   1.741   1.007   0.731 -1.1180 -1.9893  1.9686
  116SOL    HW2  348   1.787   1.162   0.774  0.1604  0.8054 -0.2349
  117SOL     OW  349   1.134   0.382   0.650  0.3650 -0.3906  0.0229
  117SOL    HW1  350   1.091   0.386   0.744  1.0310 -1.3440 -1.0867
  117SOL    HW2  351   1.207   0.455   0.639  1.2674  0.5991  0.3262
  118SOL     OW  352   1.051   1.091   1.057 -0.1522 -0.5198  1.2128
  118SOL    HW1  353   1.058   0.995   1.104  1.7218  2.0671  1.2226
  118SOL    HW2  354   1.079   1.173   1.120  2.5441  0.4541 -0.0202
  119SOL     OW  355   1.828   1.600   2.011  0.0688  0.0179  0.1252
  119SOL    HW1  356   1.769   1.675   2.062 -1.7164  0.4441 -1.0321
  119SOL    HW2  357   1.926   1.622   2.024 -2.3246 -0.0461  1.7937
  120SOL     OW  358   2.943   2.779   0.301  0.2100 -0.0756  0.7529
  120SOL    HW1  359   2.891   2.726   0.229 -0.5056  0.9137 -0.2316
  120SOL    HW2  360   2.995   2.715   0.364 -0.5725  4.0749  1.2533
  121SOL     OW  361   2.036   0.752   2.189 -0.5671  0.3854 -0.6464
  121SOL    HW1  362   2.120   0.746   2.133 -1.4654  1.9964 -0.0251
  121SOL    HW2  363   1.994   0.654   2.206  0.7546 -0.5870 -1.9796
  122SOL     OW  364   2.718   2.540   1.355  0.2575  0.1623  0.2881
  122SOL    HW1  365   2.742   2.561   1.253 -0.3622  0.1972  0.2636
  122SOL    HW2  366   2.690   2.447   1.371  2.2801 -0.7341  1.5439
  123SOL     OW  367   1.736   0.028   1.677 -0.3068  0.1657  0.2741
  123SOL    HW1  368   1.753  -0.046   1.609 -1.7441 -0.0472 -0.3493
  123SOL    HW2  369   1.816   0.096   1.687  0.5997 -0.6105  0.5744
  124SOL     OW  370   0.174   0.509   1.031 -0.1392 -0.3475  0.4350
  124SOL    HW1  371   0.140   0.581   1.094  1.1701  0.6138 -3.9217
  124SOL    HW2  372   0.129   0.517   0.944  1.9675  1.6494  3.9729
  125SOL     OW  373   0.876   1.754   0.679 -0.4401  0.1938  0.2668
  125SOL    HW1  374   0.983   1.767   0.673 -0.4137  0.8408 -0.8565
  125SOL    HW2  375   0.848   1.670   0.732  0.9626 -0.7634  0.3224
  126SOL     OW  376   1.881   2.374   2.383  0.8033 -0.2892  0.3946
  126SOL    HW1  377   1.948   2.309   2.336 -0.1841  0.3774  1.0490
  126SOL    HW2  378   1.791   2.387   2.333  2.0156  0.6467 -1.2562
  127SOL     OW  379   0.913   0.975   0.185 -0.7842  0.3195 -0.0668
  127SOL    HW1  380   0.981   1.012   0.251 -1.2821  0.8169  0.0675
  127SOL    HW2  381   0.882   0.874   0.197 -0.6492  0.5407  0.9976
  128SOL     OW  382   0.997   0.173   1.475 -0.1162 -0.6358 -0.0422
  128SOL    HW1  383   0.963   0.236   1.402 -2.2412  0.4283  0.9705
  128SOL    HW2  384   0.933   0.093   1.478 -0.2436  1.1637  0.6579
  129SOL     OW  385   1.794   0.721   1.841  0.2789 -0.4471  0.2553
  129SOL    HW1  386   1.753   0.759   1.756 -0.3421 -1.0736 -1.1706
  129SOL    HW2  387   1.835   0.799   1.906 -0.1150  0.1127  6.8066
  130SOL     OW  388   1.301   2.092   0.995  0.6240 -0.2091 -0.0112
  130SOL    HW1  389   1.222   2.056   0.935 -1.0312  2.0029  2.9084
  130SOL    HW2  390   1.338   2.180   0.962 -1.0240 -0.5676 -1.5891
  131SOL     OW  391   3.083   1.512   1.336  0.7268 -0.1564  0.5021
  131SOL    HW1  392   3.045   1.415   1.324  0.3757 -2.5602  0.5534
  131SOL    HW2  393   3.182   1.507   1.366  1.1752 -0.2309  0.7990
  132SOL     OW  394   1.917   2.503   0.531  0.0889  0.2884  0.0736
  132SOL    HW1  395   1.815   2.478   0.544  0.6780  0.3511 -0.2707
  132SOL    HW2  396   1.971   2.503   0.619 -2.5946 -2.7577 -0.2202
  133SOL     OW  397   1.818   2.290   2.912  0.2401  0.0746  0.1091
  133SOL    HW1  398   1.784   2.375   2.961  0.9794 -3.0484  1.6284
  133SOL    HW2  399   1.786   2.296   2.812 -3.1705  1.3890 -0.0403
  134SOL     OW  400   2.637   2.366   1.615  0.1720 -0.5045 -0.1877
  134SOL    HW1  401   2.572   2.332   1.689  1.2318 -0.8657  0.0568
  134SOL    HW2  402   2.710   2.440   1.645  0.3354  1.3788 -0.6236
  135SOL     OW  403   0.735   1.520   2.553 -0.3555  0.1324 -0.0371
  135SOL    HW1  404   0.728   1.423   2.572 -2.4770  2.3374  2.1722
  135SOL    HW2  405   0.813   1.541   2.479  0.0235  0.2767 -0.0837
  136SOL     OW  406   1.167   2.070   0.459  0.4314 -0.3281  0.2690
  136SOL    HW1  407   1.120   2.120   0.539  2.1613  1.0699  1.1315
  136SOL    HW2  408   1.128   1.974   0.437 -2.4365  0.2365 -0.1383
  137SOL     OW  409   0.387   1.034   2.193 -0.0489  0.6263  0.9384
  137SOL    HW1  410   0.315   1.074   2.258 -0.0198 -1.0908 -0.9280
  137SOL    HW2  411   0.393   0.929   2.203  0.4204 -1.7472  0.2064
  138SOL     OW  412   2.459   1.489   0.290  0.0476 -0.1403 -0.5187
  138SOL    HW1  413   2.361   1.479   0.250  0.6480 -0.6988 -0.0193
  138SOL    HW2  414   2.472   1.406   0.353 -1.5233 -0.1005 -2.2791
  139SOL     OW  415   1.772   2.559   1.233 -0.2082  0.4459 -0.1945
  139SOL    HW1  416   1.679   2.524   1.210  0.8545  1.6022  4.0667
  139SOL    HW2  417   1.818   2.515   1.316  1.7021  1.2518  0.6656
  140SOL     OW  418   2.999   2.994   2.540 -0.0227 -0.5783  0.4316
  140SOL    HW1  419   3.035   2.919   2.604  2.8856  0.1917 -1.1347
  140SOL    HW2  420   3.068   3.066   2.510  0.3358 -1.5978 -1.3120
  141SOL     OW  421   1.139   1.594   1.592 -0.0992  0.5546 -0.6205
  141SOL    HW1  422   1.136   1.690   1.643  0.0485  0.4681  0.7421
  141SOL    HW2  423   1.203   1.523   1.644  3.6459  0.7017 -2.1865
  142SOL     OW  424   1.557   0.611   2.257 -0.1302  0.2099  0.6929
  142SOL    HW1  425   1.566   0.617   2.150  1.4592  1.3816  0.2582
  142SOL    HW2  426   1.456   0.592   2.278  2.4533  1.1423  0.5662
  143SOL     OW  427   2.794   0.881   0.530 -0.0918 -0.2147 -0.1219
  143SOL    HW1  428   2.833   0.932   0.451  0.5491  0.5584  3.0130
  143SOL    HW2  429   2.818   0.929   0.622  2.3298  0.7151  0.1474
  144SOL     OW  430   3.002   1.268   1.369  0.2596  0.3428 -0.0444
  144SOL    HW1  431   2.989   1.219   1.461  1.3824 -1.4473  0.3159
  144SOL    HW2  432   3.044   1.214   1.288 -2.3951 -1.6055 -0.7655
  145SOL     OW  433   1.061   1.868   0.083  0.3407  0.1681 -0.3552
  145SOL    HW1  434   1.071   1.948   0.017  2.1737  2.7960  0.3128
  145SOL    HW2  435   1.020   1.786   0.034  1.1968  0.2943 -0.9014
  146SOL     OW  436   2.547   0.662   1.467 -0.0190  0.3315 -0.1464
  146SOL    HW1  437   2.498   0.576   1.429  1.0654 -0.2095 -1.5509
  146SOL    HW2  438   2.494   0.754   1.459  2.3036 -0.7692 -2.1575
  147SOL     OW  439   1.054   2.590   0.609 -0.0761 -0.2854 -0.2838
  147SOL    HW1  440   1.014   2.615   0.516  1.7327 -1.1702 -0.4180
  147SOL    HW2  441   1.136   2.521   0.597  1.6931 -0.6743 -0.0604
  148SOL     OW  442   1.633   1.435   3.041 -0.1758  0.3325  0.1394
  148SOL    HW1  443   1.685   1.355   2.988  0.6844 -0.9382 -0.4577
  148SOL    HW2  444   1.597   1.405   3.132 -0.5123  0.2193  0.2856
  149SOL     OW  445   0.644   1.399   1.963  0.4179  0.2372  0.2210
  149SOL    HW1  446   0.553   1.375   2.010 -0.0211 -1.2634  0.5839
  149SOL    HW2  447   0.667   1.326   1.894 -0.2627  0.7094  0.1299
  150SOL     OW  448   2.963   1.289   0.943  0.3708  0.0926 -0.2058
  150SOL    HW1  449   3.032   1.358   0.973 -0.7922 -0.6630  0.8321
  150SOL    HW2  450   2.984   1.193   0.981 -1.3045 -1.5655  0.5361
  151SOL     OW  451   0.175   0.754   2.081 -0.2435  0.1079  0.2740
  151SOL    HW1  452   0.166   0.853   2.044  0.6148  2.8505 -2.2866
  151SOL    HW2  453   0.245   0.698   2.033 -0.0343  0.0480  0.3531
  152SOL     OW  454   1.410   1.756   1.282 -0.2770 -0.0552 -0.0622
  152SOL    HW1  455   1.420   1.837   1.344  0.4997 -0.8644  0.1674
  152SOL    HW2  456   1.322   1.752   1.222  1.1808 -0.1799 -1.4106
  153SOL     OW  457   0.059   1.506   0.171  0.7024  0.4315  0.7167
  153SOL    HW1  458   0.079   1.407   0.165 -0.8960  0.3161 -0.1032
  153SOL    HW2  459   0.035   1.542   0.270 -2.0129  0.9007  1.5833
  154SOL     OW  460   2.398   1.960   2.826  0.3714 -0.2378 -0.2758
  154SOL    HW1  461   2.408   1.864   2.864 -1.2817  1.3530  0.4175
  154SOL    HW2  462   2.444   1.979   2.736 -2.6609  0.2142  0.2277
  155SOL     OW  463   2.515   1.227   0.411 -0.0480 -0.2609  0.0572
  155SOL    HW1  464   2.583   1.262   0.344  1.5762 -1.2396 -0.4009
  155SOL    HW2  465   2.515   1.123   0.418 -0.3668 -2.6549 -2.3427
  156SOL     OW  466   2.539   0.988   0.883  0.0657 -0.6078  0.1556
  156SOL    HW1  467   2.442   0.984   0.846  2.8366 -2.2893 -1.6108
  156SOL    HW2  468   2.592   1.059   0.837 -0.8199 -2.5393 -0.4688
  157SOL     OW  469   1.348   2.999   3.088 -0.5485  0.2213 -0.4938
  157SOL    HW1  470   1.416   2.936   3.044 -1.6286  0.5638 -1.6277
  157SOL    HW2  471   1.355   3.103   3.074 -3.3657  0.5826  1.0780
  158SOL     OW  472   1.063   1.862   2.015 -0.0153  0.8389 -0.5042
  158SOL    HW1  473   1.084   1.857   2.116 -1.2663  0.0103 -0.0515
  158SOL    HW2  474   0.962   1.860   1.998 -1.8241 -0.0135 -0.1737
  159SOL     OW  475   0.880   0.361   1.327 -0.0850 -0.3382 -0.0402
  159SOL    HW1  476   0.838   0.427   1.393  0.3177 -0.5369 -2.2813
  159SOL    HW2  477   0.835   0.361   1.234  1.1914 -1.1379  1.3165
  160SOL     OW  478   1.453   2.385   1.651  0.0669  0.1298  0.7514
  160SOL    HW1  479   1.461   2.470   1.595 -1.5656 -0.2793 -0.4688
  160SOL    HW2  480   1.549   2.343   1.669  1.6567 -1.0113  0.3853
  161SOL     OW  481   0.111   2.949   0.348 -0.1693 -0.3527  0.1349
  161SOL    HW1  482   0.018   2.898   0.359  1.9309  0.8376  0.7326
  161SOL    HW2  483   0.122   2.985   0.247  0.0753  0.0455 -2.1557
  162SOL     OW  484   2.596   1.886   0.504  0.4105  0.4810  0.1573
  162SOL    HW1  485   2.565   1.857   0.409 -0.3745 -0.9540 -0.6959
  162SOL    HW2  486   2.609   1.807   0.568 -0.7564  1.4128  1.6418
  163SOL     OW  487   1.982   2.748   0.765  0.0975 -0.4292  0.0576
  163SOL    HW1  488   1.936   2.770   0.672  0.0415  0.1056 -1.1127
  163SOL    HW2  489   2.044   2.664   0.756  0.4414 -2.0106 -1.6671
  164SOL     OW  490   3.089   0.250   1.256 -0.0464  0.8176  0.5232
  164SOL    HW1  491   3.161   0.288   1.190 -1.9344  1.4897 -1.7292
  164SOL    HW2  492   3.113   0.269   1.358  1.7211  0.9009  1.5516
  165SOL     OW  493   0.990   1.398   0.644 -0.0794  0.8229  0.4023
  165SOL    HW1  494   0.935   1.467   0.697  1.2604  2.0195  0.0361
  165SOL    HW2  495   0.978   1.419   0.541 -2.0597  2.4376  3.1251
  166SOL     OW  496   1.404   1.046   1.776  0.6887 -0.0823 -0.6116
  166SOL    HW1  497   1.310   1.015   1.806 -1.7356  1.8218  3.7154
  166SOL    HW2  498   1.463   1.081   1.859  0.0031  1.4647  0.3525
  167SOL     OW  499   0.889   1.865   1.558 -0.1484  0.5157 -0.1060
  167SOL    HW1  500   0.862   1.962   1.593 -0.5867  0.6865 -0.8050
  167SOL    HW2  501   0.810   1.808   1.523  1.5003  1.0160 -1.1654
  168SOL     OW  502   1.511   2.370   0.145 -0.2481 -0.1848 -0.4856
  168SOL    HW1  503   1.567   2.409   0.067 -1.9972  0.3984  0.3094
  168SOL    HW2  504   1.567   2.322   0.217  0.1112 -0.7670 -1.1525
  169SOL     OW  505   0.172   2.560   2.164  0.0842  0.1964 -0.0909
  169SOL    HW1  506   0.217   2.482   2.115  0.7531  1.9998  1.3024
  169SOL    HW2  507   0.131   2.536   2.258  0.8820  1.6310  0.7621
  170SOL     OW  508   1.271   0.280   1.893 -0.2262  0.3775 -0.7314
  170SOL    HW1  509   1.336   0.276   1.974 -0.7165 -0.0639 -0.6608
  170SOL    HW2  510   1.238   0.183   1.869  1.2470 -2.3912 -2.6126
  171SOL     OW  511   0.261   0.829   2.418  0.3359 -0.0103  0.1364
  171SOL    HW1  512   0.154   0.813   2.433 -2.6602 -2.4304 -0.6103
  171SOL    HW2  513   0.289   0.811   2.320 -1.2388 -2.1269  2.4431
  172SOL     OW  514   0.905   1.119   2.921  0.2070 -0.1182 -0.2544
  172SOL    HW1  515   1.005   1.134   2.951 -2.7796  0.1121  0.0874
  172SOL    HW2  516   0.906   1.080   2.822  2.0157 -0.0174  0.0630
  173SOL     OW  517   0.662   2.708   0.161 -0.1076  0.0333 -0.2496
  173SOL    HW1  518   0.669   2.810   0.146  1.3353 -1.3986 -2.7843
  173SOL    HW2  519   0.575   2.671   0.122  0.7846  0.2199  0.5475
  174SOL     OW  520   1.321   2.745   1.048  0.3469 -0.0729  0.0551
  174SOL    HW1  521   1.341   2.805   0.967  0.1975  0.5884 -0.2237
  174SOL    HW2  522   1.260   2.668   1.025  0.2857  1.3753 -0.1356
  175SOL     OW  523   0.383   0.010   1.709 -0.2687 -0.1076  0.2825
  175SOL    HW1  524   0.433   0.078   1.774 -2.7562  0.3356 -0.1232
  175SOL    HW2  525   0.314   0.056   1.648 -1.0412  0.3761  0.9851
  176SOL     OW  526   2.602   0.360   3.033 -0.3903  0.1014  0.5072
  176SOL    HW1  527   2.618   0.441   3.097 -1.5921 -2.7116  2.3728
  176SOL    HW2  528   2.536   0.292   3.077 -2.5982  2.3069  1.7149
  177SOL     OW  529   0.382   0.360   0.869 -0.0855  0.6802  0.3045
  177SOL    HW1  530   0.438   0.287   0.917  1.7287  1.1440 -1.0518
  177SOL    HW2  531   0.329   0.422   0.934  0.7929 -0.6598  0.9394
  178SOL     OW  532   3.097   2.695   2.621 -0.7568 -0.0512  0.1994
  178SOL    HW1  533   3.021   2.686   2.690 -0.9990 -0.0140 -1.4391
  178SOL    HW2  534   3.188   2.722   2.657  0.1602  3.0635 -4.1187
  179SOL     OW  535   0.018   1.725   1.171  0.1782 -0.3057 -0.2630
  179SOL    HW1  536  -0.072   1.781   1.162  0.7337 -1.5547 -1.8605
  179SOL    HW2  537   0.012   1.662   1.249  1.7640  1.3478 -1.7583
  180SOL     OW  538   0.184   1.253   1.838  0.3413 -0.1079 -0.0158
  180SOL    HW1  539   0.281   1.237   1.838 -2.8917  0.1027  2.2837
  180SOL    HW2  540   0.155   1.331   1.903  2.4396 -0.1215 -0.7211
  181SOL     OW  541   2.991   1.817   2.520 -0.2765  0.1082  0.0535
  181SOL    HW1  542   3.061   1.882   2.470 -2.1322  3.2763 -1.2157
  181SOL    HW2  543   2.903   1.849   2.495 -0.3102 -1.8039  0.0095
  182SOL     OW  544   2.293   1.216   1.248  0.3549  0.1128  0.2432
  182SOL    HW1  545   2.257   1.194   1.154  0.9416  0.2868  1.6566
  182SOL    HW2  546   2.341   1.305   1.250  1.1592  0.4721  1.5090
  183SOL     OW  547   1.533   2.245   2.505 -0.3107 -0.2050 -0.3364
  183SOL    HW1  548   1.452   2.180   2.519 -0.2566  0.8915 -1.6653
  183SOL    HW2  549   1.621   2.199   2.532  1.3730  1.8453  0.8543
  184SOL     OW  550   2.047   0.906   0.744  0.1324  0.2213  0.1634
  184SOL    HW1  551   1.969   0.971   0.763 -1.4060  0.7676  1.6545
  184SOL    HW2  552   2.036   0.821   0.801  0.0680 -1.2479  3.5243
  185SOL     OW  553   1.671   2.742   2.122  0.2894 -0.4093 -0.6007
  185SOL    HW1  554   1.633   2.839   2.102  2.1752  1.0470 -0.4719
  185SOL    HW2  555   1.663   2.713   2.220 -0.6962 -0.7091 -0.6873
  186SOL     OW  556   0.114   2.248   1.725  0.4808  0.4755  0.2034
  186SOL    HW1  557   0.165   2.333   1.696  1.8310  0.6906  4.1405
  186SOL    HW2  558   0.181   2.166   1.746  0.1751 -1.4435  0.2372
  187SOL     OW  559   1.414   0.658   1.713 -0.4423  0.0775 -0.2060
  187SOL    HW1  560   1.471   0.714   1.646 -0.1330  1.5304 -2.8822
  187SOL    HW2  561   1.390   0.709   1.800  0.7801 -0.0410  0.6844
  188SOL     OW  562   2.761   2.753   1.527  0.1937  0.1914  0.3343
  188SOL    HW1  563   2.760   2.849   1.482  0.7273  0.2603  1.8268
  188SOL    HW2  564   2.715   2.681   1.466  1.7019  0.0365 -1.0161
  189SOL     OW  565   0.748   1.010   1.477  0.6147  0.0602  0.0077
  189SOL    HW1  566   0.830   1.079   1.479 -0.7742  0.9103 -1.1361
  189SOL    HW2  567   0.751   0.948   1.394  3.1060 -1.2607 -0.4669
  190SOL     OW  568   1.474   1.749   1.661 -0.6604 -0.6664 -0.5198
  190SOL    HW1  569   1.417   1.812   1.604  0.6520 -2.3851  1.1803
  190SOL    HW2  570   1.540   1.805   1.721 -0.5124 -0.7585 -2.2759
  191SOL     OW  571   1.023   0.796   1.544 -0.1765  0.1199  0.1722
  191SOL    HW1  572   1.079   0.717   1.578 -0.8377 -0.4545  0.4482
  191SOL    HW2  573   1.090   0.867   1.505 -0.1730  1.8500 -0.7801
  192SOL     OW  574   1.896   2.245   1.216 -0.2935  0.6227  0.1648
  192SOL    HW1  575   1.809   2.226   1.162  1.8113  0.6743  1.9922
  192SOL    HW2  576   1.973   2.287   1.162 -2.6083 -0.6615  0.2544
  193SOL     OW  577   0.511   0.546   0.335  0.4071  0.4706 -0.6289
  193SOL    HW1  578   0.518   0.452   0.382  0.3796  1.1017 -1.5773
  193SOL    HW2  579   0.541   0.537   0.241 -0.3692  0.6003 -1.0178
  194SOL     OW  580   0.305   0.845   1.256 -0.1173  0.0126  0.5183
  194SOL    HW1  581   0.208   0.807   1.235 -0.7316  0.1416  0.9510
  194SOL    HW2  582   0.351   0.895   1.176  0.1318  0.4154  0.6445
  195SOL     OW  583   0.943   2.938   0.489  0.2847 -0.3115 -0.3564
  195SOL    HW1  584   0.931   2.842   0.452 -0.7757  2.0886 -0.0515
  195SOL    HW2  585   1.040   2.970   0.479 -2.1577 -1.5617  0.6839
  196SOL     OW  586   0.246   1.440   1.362 -0.1792 -0.3544  0.7519
  196SOL    HW1  587   0.323   1.506   1.396  1.7838 -0.0612  0.5287
  196SOL    HW2  588   0.237   1.350   1.412 -0.4411  0.4848  2.1310
  197SOL     OW  589   0.822   2.003   0.207  0.1729  0.1990 -0.5102
  197SOL    HW1  590   0.831   1.982   0.310  0.0197  1.2658 -0.7267
  197SOL    HW2  591   0.892   1.954   0.148  1.6692 -0.3305 -1.4483
  198SOL     OW  592   0.299   1.190   0.251 -0.4728  0.8634  0.3028
  198SOL    HW1  593   0.198   1.185   0.234 -1.2338 -0.2256 -1.9951
  198SOL    HW2  594   0.334   1.288   0.260 -2.3926  0.7479 -1.5473
  199SOL     OW  595   2.280   0.395   2.504  0.1602 -0.7062  0.5473
  199SOL    HW1  596   2.205   0.360   2.566  1.7445  3.3908  0.0669
  199SOL    HW2  597   2.380   0.373   2.533  0.9810  0.3899 -0.7561
  200SOL     OW  598   3.097   2.884   0.799 -0.2904  0.0667 -0.1397
  200SOL    HW1  599   3.027   2.870   0.720 -0.7038 -0.8702 -0.4400
  200SOL    HW2  600   3.139   2.978   0.817 -1.8841 -2.2479  0.4954
  201SOL     OW  601   1.145   0.685   0.542  0.1031 -0.0639 -0.3707
  201SOL    HW1  602   1.144   0.775   0.596  0.3717  2.2221  3.1283
  201SOL    HW2  603   1.048   0.655   0.514 -0.0006 -0.7159 -0.7979
  202SOL     OW  604   0.449   1.202   1.774 -0.1295  0.2224  0.2304
  202SOL    HW1  605   0.505   1.226   1.691 -0.1343 -1.4599 -1.6316
  202SOL    HW2  606   0.469   1.102   1.814 -0.3360 -2.7946 -1.1573
  203SOL     OW  607   0.607   0.215   1.514  0.3956  0.2416 -0.2335
  203SOL    HW1  608   0.646   0.159   1.434  1.7902  0.7601 -0.6987
  203SOL    HW2  609   0.596   0.149   1.596 -0.6960  1.7502 -0.1979
  204SOL     OW  610   2.071   1.865   3.024  0.1417 -0.2855  0.1922
  204SOL    HW1  611   2.095   1.764   3.009 -0.9556  0.1920 -2.8849
  204SOL    HW2  612   2.023   1.918   2.945  0.4171 -0.0937 -1.2097
  205SOL     OW  613   1.865   1.866   0.113 -0.5612 -0.0830 -0.2396
  205SOL    HW1  614   1.950   1.869   0.051  1.6885  0.8573 -0.7805
  205SOL    HW2  615   1.789   1.936   0.076 -3.4169 -1.4302 -2.7887
  206SOL     OW  616   2.500   2.814   0.389  0.0573  0.3713 -0.1465
  206SOL    HW1  617   2.569   2.735   0.393  0.4341  1.7602 -1.2779
  206SOL    HW2  618   2.539   2.890   0.325  0.5271  0.8167 -0.9793
  207SOL     OW  619   0.557   1.731   2.849  0.1997 -0.3613  0.4483
  207SOL    HW1  620   0.661   1.742   2.830  0.5043  0.3915 -0.4107
  207SOL    HW2  621   0.543   1.655   2.919  0.5446  1.3957 -0.6510
  208SOL     OW  622   1.030   1.464   1.381 -0.2243  0.3428  0.8132
  208SOL    HW1  623   0.943   1.504   1.342 -0.3063  0.1452 -1.3111
  208SOL    HW2  624   1.073   1.529   1.452  0.7312  1.4194  0.2808
  209SOL     OW  625   0.142   0.935   3.083 -0.1448  0.1361  0.1692
  209SOL    HW1  626   0.216   0.912   3.013  2.2699 -1.7874  0.5709
  209SOL    HW2  627   0.162   0.893   3.175 -2.5279 -1.5349 -1.7304
  210SOL     OW  628   1.711   0.464   1.154  0.1191  0.3665 -0.2381
  210SOL    HW1  629   1.645   0.544   1.132  0.1356  0.2673 -1.8008
  210SOL    HW2  630   1.804   0.482   1.121 -2.7233 -0.6991  0.5756
  211SOL     OW  631   2.115   1.044   1.675  0.0163 -0.4940  0.3179
  211SOL    HW1  632   2.150   0.989   1.755  0.7265  0.9162 -0.2681
  211SOL    HW2  633   2.193   1.102   1.626  0.5989 -0.9942  2.7461
  212SOL     OW  634   0.032   1.004   1.444  0.0579  0.0952  0.4909
  212SOL    HW1  635   0.080   1.091   1.479 -0.5971  0.0920 -2.7627
  212SOL    HW2  636   0.026   0.934   1.519 -0.5659  0.6747 -0.2900
  213SOL     OW  637   2.718   0.298   0.262 -0.4018  0.2744 -0.5810
  213SOL    HW1  638   2.786   0.229   0.239 -1.1428  2.0556  0.5378
  213SOL    HW2  639   2.738   0.393   0.224 -1.6836  0.8462  2.3172
  214SOL     OW  640   2.177   0.289   2.280  0.3729 -0.6729  0.3959
  214SOL    HW1  641   2.218   0.317   2.376 -0.8050  1.7295  1.9907
  214SOL    HW2  642   2.121   0.201   2.285  0.2481  0.4515  0.8959
  215SOL     OW  643   1.674   2.300   2.052 -0.1547  0.0997 -0.3674
  215SOL    HW1  644   1.775   2.314   2.057 -1.5767 -3.1896 -1.8758
  215SOL    HW2  645   1.615   2.357   2.117 -3.1349 -4.7180  0.5076
  216SOL     OW  646   2.243   0.525   0.651 -0.2552 -0.4471 -0.3005
  216SOL    HW1  647   2.178   0.459   0.606  2.6508  2.7109  0.9858
  216SOL    HW2  648   2.244   0.619   0.603  0.0016 -0.1015 -0.3860
  217SOL     OW  649   0.763   2.793   2.418 -0.1780  0.5534 -0.5315
  217SOL    HW1  650   0.747   2.694   2.460 -1.6591  1.1928  0.1099
  217SOL    HW2  651   0.806   2.793   2.323  0.3788  1.8582  1.2516
  218SOL     OW  652   1.924   1.446   0.027 -0.3470 -0.0788  0.8499
  218SOL    HW1  653   1.840   1.481  -0.016  1.3149  2.1966 -1.8322
  218SOL    HW2  654   1.917   1.349   0.051  0.7826 -0.4803  0.1279
  219SOL     OW  655   2.389   1.313   2.573 -0.0851  0.1878 -0.1930
  219SOL    HW1  656   2.369   1.257   2.493  2.6553  0.3784 -2.7153
  219SOL    HW2  657   2.410   1.255   2.662  1.0931  0.0474  0.0681
  220SOL     OW  658   1.419   1.044   1.247 -0.5241 -0.5344  0.2933
  220SOL    HW1  659   1.483   1.023   1.320  1.3904  1.3280 -2.0687
  220SOL    HW2  660   1.386   1.139   1.259  0.5830 -0.4377  0.4330
  221SOL     OW  661   1.306   1.128   2.143  0.1466  0.6312 -0.3407
  221SOL    HW1  662   1.250   1.206   2.103 -0.0253  1.7222  1.0424
  221SOL    HW2  663   1.403   1.123   2.107  1.7447  2.6310 -0.1225
  222SOL     OW  664   1.290   0.129   1.144 -0.5681 -0.8678  0.1672
  222SOL    HW1  665   1.360   0.108   1.071 -2.5075 -0.9469  0.1717
  222SOL    HW2  666   1.318   0.113   1.243  0.1061 -1.0697 -0.2571
  223SOL     OW  667   2.889   0.820   1.973  0.2901 -0.0058  0.0750
  223SOL    HW1  668   2.892   0.829   2.078  1.7619 -1.3531  0.7376
  223SOL    HW2  669   2.919   0.908   1.924 -0.2262  2.2156  2.2718
  224SOL     OW  670   1.570   1.028   2.784  0.0257 -0.5683 -0.0190
  224SOL    HW1  671   1.585   0.958   2.716  3.5249  0.7566  0.6013
  224SOL    HW2  672   1.574   1.127   2.742 -0.7505  2.6381 -1.5574
  225SOL     OW  673   2.978   2.795   2.931  0.6712  0.0485  0.2162
  225SOL    HW1  674   2.941   2.709   2.880  1.4723 -1.7809 -0.4493
  225SOL    HW2  675   3.030   2.866   2.877  1.8923  1.5957  0.4746
  226SOL     OW  676   2.454   1.688   2.847  0.0368 -0.9260  0.2454
  226SOL    HW1  677   2.496   1.637   2.768 -0.1359  2.2375  0.9549
  226SOL    HW2  678   2.400   1.634   2.915 -0.5875  0.5900 -0.9571
  227SOL     OW  679   0.787   0.134   2.978  0.5577 -0.2856 -0.0722
  227SOL    HW1  680   0.832   0.074   3.051  0.0627  2.0022  0.5219
  227SOL    HW2  681   0.816   0.111   2.881  2.3200  0.3073 -1.4431
  228SOL     OW  682   2.360   0.562   2.786 -0.3538 -0.0136  0.1886
  228SOL    HW1  683   2.312   0.586   2.696  0.7773  2.3945 -0.1895
  228SOL    HW2  684   2.448   0.511   2.773  3.0699  3.0213 -0.8888
  229SOL     OW  685   0.598   0.503   1.886  0.2113 -0.3342 -0.3474
  229SOL    HW1  686   0.619   0.481   1.788 -3.5188  0.2354  2.6727
  229SOL    HW2  687   0.668   0.549   1.942 -2.5135  2.6880  0.5732
  230SOL     OW  688   1.932   1.227   2.140  0.0052  0.3563 -0.2812
  230SOL    HW1  689   2.000   1.263   2.067 -0.7361 -1.2792 -0.0075
  230SOL    HW2  690   1.840   1.274   2.147 -0.2276  0.9545  0.3804
  231SOL     OW  691   0.628   1.056   2.949 -0.1534 -0.5428  0.2717
  231SOL    HW1  692   0.717   1.110   2.949  0.6221  2.1226 -0.3754
  231SOL    HW2  693   0.578   1.046   3.043 -3.2534  1.9356  2.1579
  232SOL     OW  694   2.549   0.035   2.739  0.1009  0.1428  0.1679
  232SOL    HW1  695   2.563  -0.059   2.783  0.1224  0.5640  0.4882
  232SOL    HW2  696   2.534   0.026   2.636  0.6584  0.2380  1.0488
  233SOL     OW  697   1.739   1.278   1.044  0.0038 -0.3327 -0.1506
  233SOL    HW1  698   1.755   1.317   0.947  1.3025  1.0744  0.9329
  233SOL    HW2  699   1.778   1.185   1.052  0.5507  1.5320  3.4566
  234SOL     OW  700   1.630   2.625   1.880  0.0606  0.6417 -0.8892
  234SOL    HW1  701   1.657   2.670   1.972 -0.3666  1.9144 -2.0956
  234SOL    HW2  702   1.561   2.547   1.890  0.4997 -0.2200 -0.1593
  235SOL     OW  703   0.025   3.004   2.814  0.4082 -0.0914 -0.2007
  235SOL    HW1  704   0.118   3.043   2.800 -1.3467  0.1559  0.6125
  235SOL    HW2  705  -0.038   3.073   2.862  0.9834 -0.4331  1.4777
  236SOL     OW  706   2.823   0.682   0.032 -0.2241  0.1235 -0.1446
  236SOL    HW1  707   2.870   0.716   0.117 -1.9387  0.6703  0.5619
  236SOL    HW2  708   2.884   0.610  -0.012  1.1929  0.2956 -1.4447
  237SOL     OW  709   1.501   1.659   1.022  0.0517 -0.0740  0.3392
  237SOL    HW1  710   1.600   1.633   1.040  1.6226  3.3768  0.2808
  237SOL    HW2  711   1.454   1.702   1.103  1.0656 -1.4800 -1.5380
  238SOL     OW  712   1.771   1.343   0.774 -0.2344  0.7157 -0.1710
  238SOL    HW1  713   1.863   1.370   0.736  0.4445 -2.1909  0.6436
  238SOL    HW2  714   1.694   1.376   0.709  0.0463 -2.6962  0.4653
  239SOL     OW  715   2.128   0.280   2.708 -0.3417 -0.3294  0.4998
  239SOL    HW1  716   2.216   0.292   2.763 -1.5749  0.8898  0.7083
  239SOL    HW2  717   2.048   0.339   2.744  1.4014 -0.5942 -0.6879
  240SOL     OW  718   0.867   0.700   0.217 -0.1372 -0.5922 -0.5178
  240SOL    HW1  719   0.852   0.616   0.156  0.0696  0.5332 -1.1638
  240SOL    HW2  720   0.890   0.681   0.313 -0.9467  4.2368  0.6555
  241SOL     OW  721   0.553   0.044   0.332  0.6261  0.1016 -0.3584
  241SOL    HW1  722   0.595   0.004   0.252 -3.2000 -0.6687 -0.6135
  241SOL    HW2  723   0.493  -0.032   0.383 -1.4100 -0.0155 -2.1142
  242SOL     OW  724   0.701   2.394   1.113 -0.1383  0.0734 -0.6307
  242SOL    HW1  725   0.681   2.473   1.177 -1.0260  1.2115  0.6928
  242SOL    HW2  726   0.797   2.405   1.068 -0.3065 -1.6026 -0.0749
  243SOL     OW  727   1.084   0.613   2.476  0.1304 -0.3852 -0.2575
  243SOL    HW1  728   1.016   0.678   2.427 -1.0331  1.5877 -0.3820
  243SOL    HW2  729   1.032   0.541   2.529 -0.6860 -0.2892  0.3207
  244SOL     OW  730   2.811   1.981   2.385  0.0032 -0.8826 -0.1229
  244SOL    HW1  731   2.855   1.980   2.289 -0.4458 -1.4343  0.9508
  244SOL    HW2  732   2.705   1.977   2.384 -2.9026 -1.7291  0.7402
  245SOL     OW  733   2.457   0.718   2.163 -0.0969  0.3194  0.0408
  245SOL    HW1  734   2.492   0.764   2.249 -1.1415 -0.5747  0.3155
  245SOL    HW2  735   2.520   0.648   2.124 -1.2807  2.8052 -0.7161
  246SOL     OW  736   0.213   2.869   1.741 -0.4037  0.2627 -0.4274
  246SOL    HW1  737   0.143   2.839   1.672 -1.1728 -1.0381 -0.1253
  246SOL    HW2  738   0.286   2.940   1.713  0.8743 -0.1077  0.4922
  247SOL     OW  739   2.197   0.527   3.007 -0.1850  0.0945 -0.2022
  247SOL    HW1  740   2.267   0.538   2.929  1.7194  2.0720 -0.1843
  247SOL    HW2  741   2.136   0.611   3.008 -0.4640 -2.6494 -0.4746
  248SOL     OW  742   2.173   1.889   1.613 -0.0742  0.6320 -0.1080
  248SOL    HW1  743   2.215   1.810   1.666  0.9336  2.3414  0.2934
  248SOL    HW2  744   2.074   1.904   1.637 -0.5314 -1.3137 -0.4520
  249SOL     OW  745   2.007   1.924   1.948 -0.0302 -0.2277  0.0456
  249SOL    HW1  746   1.975   1.882   1.859 -0.6766 -0.2905 -1.4733
  249SOL    HW2  747   2.087   1.985   1.931 -0.4749 -0.5824  1.2518
  250SOL     OW  748   1.006   0.655   1.871  0.0112 -0.3632 -0.0571
  250SOL    HW1  749   1.081   0.626   1.935 -1.1685  2.7863 -1.9654
  250SOL    HW2  750   1.033   0.632   1.772 -2.4464 -2.0557 -1.5566
  251SOL     OW  751   3.027   1.543   2.574 -0.6489 -0.1549 -0.3170
  251SOL    HW1  752   3.037   1.640   2.544 -0.7595 -0.0709  1.5541
  251SOL    HW2  753   2.928   1.515   2.571  0.4515  0.2836 -0.5225
  252SOL     OW  754   1.546   0.858   1.590  0.0852  0.2667 -0.0342
  252SOL    HW1  755   1.618   0.917   1.542  0.8965  0.4772 -0.8211
  252SOL    HW2  756   1.500   0.916   1.665  0.5067 -2.4025  1.6167
  253SOL     OW  757   1.001   1.530   0.387 -0.3469  0.0841  0.2443
  253SOL    HW1  758   1.105   1.512   0.351  2.0707 -0.5118 -2.9735
  253SOL    HW2  759   0.928   1.474   0.342  2.0324 -0.2259 -0.6488
  254SOL     OW  760   1.983   2.145   1.599 -0.0762 -0.0122 -0.3264
  254SOL    HW1  761   1.941   2.087   1.528 -0.1565  1.2818  1.0025
  254SOL    HW2  762   1.910   2.200   1.651 -0.5252 -0.6978  1.3214
  255SOL     OW  763   0.126   1.139   2.917  0.0403  0.4093 -0.6915
  255SOL    HW1  764   0.198   1.219   2.926 -0.5503  3.0352  1.0000
  255SOL    HW2  765   0.135   1.056   2.978 -1.8201  2.1383 -3.2312
  256SOL     OW  766   2.737   1.323   1.840 -0.1098  0.0745  0.4972
  256SOL    HW1  767   2.675   1.372   1.773  1.8639 -0.6379  1.9403
  256SOL    HW2  768   2.679   1.259   1.899 -1.8807  0.5556 -1.5760
  257SOL     OW  769   0.845   0.245   1.867 -0.2726 -0.0202  0.4106
  257SOL    HW1  770   0.904   0.295   1.796  0.4009  1.8149  1.5374
  257SOL    HW2  771   0.886   0.153   1.894 -0.7701 -1.2731 -1.2365
  258SOL     OW  772   2.942   1.269   0.421  0.1029 -0.4909  0.2909
  258SOL    HW1  773   2.875   1.348   0.417  1.5337 -2.2064 -0.2608
  258SOL    HW2  774   2.997   1.267   0.515  0.8305  0.4640  0.8903
  259SOL     OW  775   0.520   2.874   2.995 -0.1756 -0.0669 -0.4359
  259SOL    HW1  776   0.475   2.832   3.080  1.6812  0.4752  2.7367
  259SOL    HW2  777   0.497   2.827   2.904 -2.3209  2.3090 -3.8076
  260SOL     OW  778   2.645   0.741   2.691 -0.1139 -0.6733  0.9852
  260SOL    HW1  779   2.560   0.802   2.678  1.8310  0.4049 -1.7601
  260SOL    HW2  780   2.626   0.662   2.753 -0.0433 -0.7346 -0.5672
  261SOL     OW  781   2.708   1.312   1.307 -0.0802  0.1843 -0.2420
  261SOL    HW1  782   2.660   1.232   1.261  0.4565  1.5378  0.2962
  261SOL    HW2  783   2.812   1.307   1.306 -0.3487  1.0596  0.1708
  262SOL     OW  784   1.495   2.943   2.039 -0.4556 -0.1047 -0.1657
  262SOL    HW1  785   1.518   3.018   1.973 -2.7546 -0.1711  0.3990
  262SOL    HW2  786   1.428   2.869   2.003  0.8833 -2.0123  0.5974
  263SOL     OW  787   0.878   0.751   2.348 -0.5496 -0.0768  0.0498
  263SOL    HW1  788   0.798   0.700   2.298 -2.1574 -1.7449 -0.4026
  263SOL    HW2  789   0.905   0.837   2.292 -1.2561  1.6665  0.2590
  264SOL     OW  790   2.276   0.773   0.512  0.1233  0.2230  0.2762
  264SOL    HW1  791   2.183   0.808   0.475  1.3351 -0.0964 -1.6430
  264SOL    HW2  792   2.349   0.841   0.491 -4.4780 -0.7457  0.6903
  265SOL     OW  793   0.880   2.324   2.689 -0.6957  0.0288 -0.0500
  265SOL    HW1  794   0.917   2.404   2.747  0.7002  0.6596  1.8640
  265SOL    HW2  795   0.835   2.252   2.744 -0.1079  2.5287 -2.2582
  266SOL     OW  796   1.299   1.744   0.020  0.5373 -0.3525 -0.1842
  266SOL    HW1  797   1.233   1.820   0.053 -2.8453  1.0778 -0.1945
  266SOL    HW2  798   1.399   1.769   0.043  1.8247  0.6310  1.8023
  267SOL     OW  799   1.097   0.027   2.319 -0.1663  0.3019  0.2481
  267SOL    HW1  800   1.138  -0.058   2.274 -0.2736  0.2298  0.9177
  267SOL    HW2  801   1.056   0.091   2.249 -2.1574 -0.2798  2.0033
  268SOL     OW  802   0.592   1.127   1.085 -0.5969 -0.2409 -0.4270
  268SOL    HW1  803   0.603   1.180   1.178  1.5329  0.1286  0.1655
  268SOL    HW2  804   0.627   1.192   1.013 -2.0343 -1.0668  2.1392
  269SOL     OW  805   2.455   2.583   1.564  0.2622 -0.6807  0.6157
  269SOL    HW1  806   2.527   2.510   1.560 -0.6597  0.1699 -0.9956
  269SOL    HW2  807   2.399   2.588   1.653  0.4717 -0.6694 -1.1206
  270SOL     OW  808   0.313   2.772   2.025 -0.4075  0.1563 -0.2270
  270SOL    HW1  809   0.253   2.817   1.953 -2.6197  0.8944  1.7104
  270SOL    HW2  810   0.294   2.671   2.031 -1.6286  1.3341  0.0594
  271SOL     OW  811   0.404   1.371   1.138  0.7079  0.1946  0.4577
  271SOL    HW1  812   0.379   1.396   1.042  0.4287 -4.0965  0.5735
  271SOL    HW2  813   0.339   1.410   1.214  1.8624  0.3115  4.5920
  272SOL     OW  814   1.985   2.836   1.904  0.2632  0.4928  0.5722
  272SOL    HW1  815   1.919   2.847   1.820 -0.8699  0.0287 -0.8829
  272SOL    HW2  816   2.065   2.902   1.893 -1.1996 -0.8807 -1.3338
  273SOL     OW  817   1.402   1.443   2.893  0.0496  0.4727 -0.1958
  273SOL    HW1  818   1.494   1.441   2.944  1.7422 -2.1280 -1.4444
  273SOL    HW2  819   1.319   1.448   2.959 -0.8518 -2.1049 -1.7176
  274SOL     OW  820   1.136   0.490   2.064  0.4816 -0.0627 -0.4901
  274SOL    HW1  821   1.184   0.423   2.009 -1.5601 -0.6654  1.2802
  274SOL    HW2  822   1.185   0.505   2.156  0.1409  0.2869  0.1609
  275SOL     OW  823   0.649   2.060   1.925 -0.1274  0.2939 -0.0110
  275SOL    HW1  824   0.630   2.156   1.962  0.2007  1.1175  2.9010
  275SOL    HW2  825   0.565   2.010   1.883 -0.7914 -1.5542 -2.7862
  276SOL     OW  826   2.145   0.961   2.781 -0.2544  1.0583  0.2547
  276SOL    HW1  827   2.088   0.978   2.699 -0.8309 -1.0222  0.5014
  276SOL    HW2  828   2.092   0.972   2.872  2.3061 -0.4105  0.0007
  277SOL     OW  829   2.999   0.816   0.215 -0.4860  0.3793 -0.2707
  277SOL    HW1  830   3.088   0.829   0.171 -1.3949 -2.3228  2.3127
  277SOL    HW2  831   3.008   0.744   0.289  5.2821  1.5976 -1.7780
  278SOL     OW  832   0.208   0.290   2.928 -0.2814  0.0964 -0.0192
  278SOL    HW1  833   0.272   0.222   2.980  0.3078 -4.3667  0.0317
  278SOL    HW2  834   0.221   0.384   2.968 -0.6016  0.2892 -0.0485
  279SOL     OW  835   0.133   0.007   0.878 -0.0546 -0.6064  0.1268
  279SOL    HW1  836   0.163   0.015   0.975 -0.1375  1.6206 -1.1245
  279SOL    HW2  837   0.217   0.013   0.814 -0.0873  0.6818 -0.9014
  280SOL     OW  838   1.659   2.935   2.500 -0.1245 -0.6422 -0.0602
  280SOL    HW1  839   1.717   3.009   2.550 -0.6573  1.6642 -0.6235
  280SOL    HW2  840   1.555   2.961   2.506 -2.8138  2.8945  2.4382
  281SOL     OW  841   0.639   0.985   2.319 -0.2547 -0.6446 -0.0383
  281SOL    HW1  842   0.587   0.901   2.282 -0.2584  0.0163  1.5576
  281SOL    HW2  843   0.656   0.981   2.421  1.9831  1.9762 -0.1415
  282SOL     OW  844   1.642   2.493   0.557 -0.4196 -0.2508 -0.1935
  282SOL    HW1  845   1.619   2.439   0.471  2.8310 -0.5342 -0.5990
  282SOL    HW2  846   1.642   2.599   0.541  2.4971  0.3292 -3.5051
  283SOL     OW  847   1.097   0.935   0.692  0.4646  0.3022  0.0036
  283SOL    HW1  848   1.154   0.900   0.773  0.3594 -0.2689  1.4179
  283SOL    HW2  849   1.023   1.005   0.721  3.4135 -1.7928 -1.0169
  284SOL     OW  850   2.246   2.833   2.407  0.4788 -0.4766  0.0785
  284SOL    HW1  851   2.265   2.860   2.504  1.4392  1.7553  1.3351
  284SOL    HW2  852   2.237   2.918   2.340  2.0482 -0.3880 -1.1961
  285SOL     OW  853   1.397   3.050   2.546  0.0945  0.0229  0.3431
  285SOL    HW1  854   1.394   3.065   2.440  0.0768 -0.8388 -0.8331
  285SOL    HW2  855   1.316   3.089   2.592  2.0799 -1.2650 -2.2100
  286SOL     OW  856   0.416   0.492   0.632  0.2236  0.5476  0.0042
  286SOL    HW1  857   0.393   0.439   0.718  0.6065 -1.1007  3.0169
  286SOL    HW2  858   0.409   0.428   0.552 -0.1089 -2.2468  0.0164
  287SOL     OW  859   0.056   1.318   2.531  0.6462  0.7961 -0.6583
  287SOL    HW1  860   0.010   1.243   2.590 -1.6921 -1.0361  1.6825
  287SOL    HW2  861  -0.001   1.406   2.527 -0.1485  0.4084 -1.7449
  288SOL     OW  862   1.588   2.584   1.469  0.3532  0.4969 -0.4673
  288SOL    HW1  863   1.682   2.568   1.507 -0.6024  0.3950 -2.1385
  288SOL    HW2  864   1.577   2.581   1.369 -1.2151  1.8343 -4.3338
  289SOL     OW  865   0.639   2.722   0.819  0.4134  0.3151  0.0958
  289SOL    HW1  866   0.647   2.805   0.759 -0.0799  0.2438  0.2516
  289SOL    HW2  867   0.675   2.742   0.917  1.7145 -2.6855  1.4800
  290SOL     OW  868   2.953   1.239   1.689  0.5112 -0.4017 -0.1832
  290SOL    HW1  869   2.882   1.263   1.763 -0.0635 -1.9628 -0.3887
  290SOL    HW2  870   3.022   1.176   1.728 -1.7941  1.0831 -0.9962
  291SOL     OW  871   1.977   0.038   0.070 -0.6260  0.5017 -0.6515
  291SOL    HW1  872   2.001   0.035   0.170  0.4174 -0.2766  0.2665
  291SOL    HW2  873   2.004   0.123   0.019  1.9489 -1.3270 -0.5773
  292SOL     OW  874   2.974   1.164   3.068 -0.2638 -0.2012  0.0413
  292SOL    HW1  875   2.909   1.238   3.035 -1.9491 -0.8527 -0.8160
  292SOL    HW2  876   3.052   1.145   3.004 -0.0692  0.6148  2.2050
  293SOL     OW  877   0.558   2.061   0.166  0.7462 -0.0131  0.1642
  293SOL    HW1  878   0.529   2.119   0.247  0.7615 -0.9846  1.1263
  293SOL    HW2  879   0.660   2.042   0.167  1.5886 -2.4721 -2.4320
  294SOL     OW  880   1.666   2.122   1.848  0.5737  0.7551  0.0896
  294SOL    HW1  881   1.650   2.191   1.928 -0.2393  0.0920  2.1752
  294SOL    HW2  882   1.698   2.169   1.764 -0.0469 -0.4535 -0.8174
  295SOL     OW  883   0.960   1.193   0.423 -0.0984 -0.2890 -0.0652
  295SOL    HW1  884   1.051   1.164   0.468 -3.3497  1.8493  0.0321
  295SOL    HW2  885   0.884   1.182   0.495  1.1249  1.4889  1.3336
  296SOL     OW  886   1.277   2.083   2.531 -0.1073 -0.0814  0.1636
  296SOL    HW1  887   1.247   2.159   2.471  0.7453 -3.5346 -1.8764
  296SOL    HW2  888   1.308   2.006   2.466  0.1477  2.2544 -0.9656
  297SOL     OW  889   1.527   0.710   1.349 -0.1971 -0.0658 -0.6942
  297SOL    HW1  890   1.601   0.637   1.349  0.5277 -0.2937  3.0655
  297SOL    HW2  891   1.528   0.770   1.433 -1.6010  3.2368 -2.7430
  298SOL     OW  892   0.530   1.295   2.836 -0.7253 -0.1411  0.2012
  298SOL    HW1  893   0.527   1.194   2.860  1.4434 -1.2230  1.1376
  298SOL    HW2  894   0.585   1.311   2.752 -0.6930  0.6731  1.9802
  299SOL     OW  895   0.374   0.365   1.474  0.3464 -0.4466 -0.3863
  299SOL    HW1  896   0.378   0.440   1.401  1.0233 -0.9259  0.1526
  299SOL    HW2  897   0.468   0.320   1.483  0.0022 -1.5753  0.9411
  300SOL     OW  898   1.236   1.789   2.865 -0.4120 -0.2680  0.1904
  300SOL    HW1  899   1.251   1.723   2.789 -0.4901 -0.8301  0.8150
  300SOL    HW2  900   1.256   1.750   2.962 -0.3990 -0.9791 -0.9540
  301SOL     OW  901   0.456   0.275   0.416  0.0672 -0.6578  0.2888
  301SOL    HW1  902   0.357   0.261   0.388  2.5746 -0.3541  1.7041
  301SOL    HW2  903   0.519   0.195   0.392  1.7811  1.1315 -2.1690
  302SOL     OW  904   1.186   2.290   2.352  0.6563 -0.1525 -0.2399
  302SOL    HW1  905   1.141   2.364   2.420 -1.2064  2.9119  0.0617
  302SOL    HW2  906   1.116   2.236   2.300  0.8196  0.6949  1.3336
  303SOL     OW  907   0.932   2.395   0.789 -0.5396 -0.4579  0.5289
  303SOL    HW1  908   0.990   2.460   0.731 -0.6711 -0.6912 -1.6855
  303SOL    HW2  909   0.923   2.421   0.891  2.1197  0.8805 -0.1276
  304SOL     OW  910   0.070   2.035   0.680  0.2502  0.2692  0.1255
  304SOL    HW1  911   0.112   1.977   0.610 -2.7760 -0.0900 -1.0361
  304SOL    HW2  912   0.010   2.109   0.637  4.9634  0.0426 -0.8214
  305SOL     OW  913   1.632   0.882   0.700 -0.0897  0.1714  0.1700
  305SOL    HW1  914   1.557   0.901   0.629  0.9810 -0.0524  0.3396
  305SOL    HW2  915   1.707   0.813   0.672  0.2012  0.3679 -1.8046
  306SOL     OW  916   0.421   1.888   1.927 -0.2193 -0.9491  0.1262
  306SOL    HW1  917   0.485   1.826   1.876  0.0292  1.1444 -1.7098
  306SOL    HW2  918   0.399   1.849   2.025  0.4742 -0.2481  1.6197
  307SOL     OW  919   3.103   0.858   2.529  0.6705  0.0303 -0.0154
  307SOL    HW1  920   3.100   0.954   2.564 -0.5666  0.6261 -0.2338
  307SOL    HW2  921   3.006   0.823   2.533 -1.0566  1.9375  2.8292
  308SOL     OW  922   1.571   2.682   2.822 -0.1732  0.5520 -0.0682
  308SOL    HW1  923   1.593   2.627   2.740  0.8974 -0.5880 -0.1539
  308SOL    HW2  924   1.502   2.633   2.883 -0.3365  3.5474 -2.0153
  309SOL     OW  925   1.248   0.031   1.806 -0.0831  0.0384 -0.1939
  309SOL    HW1  926   1.341   0.045   1.854 -0.9596  0.3736  0.8738
  309SOL    HW2  927   1.243   0.056   1.700  0.6774 -1.5611  1.1477
  310SOL     OW  928   1.329   2.682   0.730 -0.5378  0.7419  0.4539
  310SOL    HW1  929   1.271   2.757   0.766 -2.6324 -0.3176 -0.1079
  310SOL    HW2  930   1.377   2.700   0.645 -3.1618 -2.2547 -0.0948
  311SOL     OW  931   1.226   0.965   1.439  0.0320 -0.3090 -0.2643
  311SOL    HW1  932   1.282   0.952   1.359  0.4192 -0.9565  0.0094
  311SOL    HW2  933   1.250   1.056   1.483 -3.2248 -2.7852  0.5887
  312SOL     OW  934   1.566   0.684   1.031 -0.6227  0.4160 -0.1552
  312SOL    HW1  935   1.536   0.779   1.060 -0.9197 -0.7481 -1.1825
  312SOL    HW2  936   1.499   0.640   0.964  0.8268  0.6419  1.0623
  313SOL     OW  937   1.600   1.458   0.522 -0.6266  0.1392  0.8326
  313SOL    HW1  938   1.514   1.499   0.486  2.3081 -0.3751  0.4632
  313SOL    HW2  939   1.605   1.353   0.520  0.3943  0.2630  3.1656
  314SOL     OW  940   2.926   0.079   3.007 -0.2890 -0.6623 -0.1750
  314SOL    HW1  941   2.931   0.107   3.104  0.7290 -1.6909  0.0901
  314SOL    HW2  942   2.849   0.013   2.990  1.4081 -3.1965  1.2651
  315SOL     OW  943   1.246   0.240   2.773  0.1005 -0.4668  0.1159
  315SOL    HW1  944   1.210   0.172   2.699 -1.7013  0.1351 -1.1209
  315SOL    HW2  945   1.246   0.202   2.869 -1.0277 -0.6647 -0.8815
  316SOL     OW  946   1.688   2.063   0.917 -0.3138 -0.1870 -0.1924
  316SOL    HW1  947   1.646   2.073   1.016 -2.5500  2.5825 -0.5796
  316SOL    HW2  948   1.682   2.152   0.871  1.7092 -1.8471  2.6964
  317SOL     OW  949   1.155   0.720   2.820 -0.2741 -0.1499  0.2254
  317SOL    HW1  950   1.087   0.748   2.893  0.6806 -0.7035  0.5150
  317SOL    HW2  951   1.137   0.624   2.780 -2.9963 -0.6240  0.6889
  318SOL     OW  952   1.400   3.077   2.262  0.0887  0.2273 -0.1576
  318SOL    HW1  953   1.338   3.151   2.231 -3.6744 -2.2759  1.7559
  318SOL    HW2  954   1.443   3.019   2.182  3.2840 -2.1212 -0.1431
  319SOL     OW  955   0.639   2.388   2.930 -0.1917 -0.1592  0.0777
  319SOL    HW1  956   0.548   2.367   2.983 -0.8311 -0.6773 -1.7666
  319SOL    HW2  957   0.708   2.307   2.922  0.7983 -0.5905  0.6340
  320SOL     OW  958   1.597   2.266   0.395 -0.4169  0.0877 -0.2417
  320SOL    HW1  959   1.690   2.225   0.417  0.1442 -0.3122  3.5196
  320SOL    HW2  960   1.522   2.220   0.443  0.1310  0.9669  0.9206
  321SOL     OW  961   1.604   2.764   0.535 -0.3054 -0.1300 -0.0961
  321SOL    HW1  962   1.532   2.828   0.498  0.8185 -3.1314  0.7794
  321SOL    HW2  963   1.688   2.771   0.480 -0.3475  1.1882  0.9793
  322SOL     OW  964   2.687   1.076   2.244  0.2642  0.2803  0.6806
  322SOL    HW1  965   2.749   1.125   2.311 -0.0506 -1.5589 -1.6514
  322SOL    HW2  966   2.622   1.008   2.286 -0.1190 -0.0432 -2.2633
  323SOL     OW  967   1.027   2.701   0.860  0.3755 -0.2586  0.0250
  323SOL    HW1  968   1.029   2.679   0.759  0.1625  1.6248  1.8493
  323SOL    HW2  969   1.003   2.805   0.872 -1.2758  0.1336 -1.3295
  324SOL     OW  970   0.088   2.512   2.451 -0.1023  0.0880  0.3363
  324SOL    HW1  971   0.074   2.430   2.514  0.8674 -0.8462 -0.2091
  324SOL    HW2  972   0.048   2.601   2.481  0.6890 -0.8890 -0.8610
  325SOL     OW  973   1.184   3.072   0.482  0.5526  0.1843 -0.4417
  325SOL    HW1  974   1.209   3.120   0.392  1.1005  0.2616 -1.1859
  325SOL    HW2  975   1.197   3.142   0.564  0.7389 -0.3207  4.1726
  326SOL     OW  976   2.340   0.774   0.041  0.6042 -0.4648 -0.3786
  326SOL    HW1  977   2.249   0.788  -0.005  0.3751 -0.9757 -0.8029
  326SOL    HW2  978   2.347   0.679   0.079  1.8483 -1.9191 -0.6464
  327SOL     OW  979   2.687   0.401   0.534 -0.3612 -0.3428  0.1949
  327SOL    HW1  980   2.688   0.332   0.457 -0.0163  0.3029 -0.8036
  327SOL    HW2  981   2.608   0.389   0.600  0.9286  0.7415  0.5495
  328SOL     OW  982   2.504   0.639   0.370 -0.5526 -0.1622  0.6410
  328SOL    HW1  983   2.430   0.692   0.416 -2.4599  1.4134  0.6063
  328SOL    HW2  984   2.515   0.552   0.423  0.6565 -1.5038  1.7414
  329SOL     OW  985   2.968   2.952   2.156  0.0081  0.4677  0.0017
  329SOL    HW1  986   3.046   2.899   2.198  2.3194  1.1268  1.6335
  329SOL    HW2  987   2.989   3.049   2.137  0.8156 -0.6266  1.4115
  330SOL     OW  988   0.547   0.200   1.840  0.5375 -0.3795  0.3020
  330SOL    HW1  989   0.523   0.300   1.855  0.6859 -1.1725  2.6400
  330SOL    HW2  990   0.642   0.175   1.880  0.6669 -0.3951  0.0484
  331SOL     OW  991   2.922   1.905   1.096  0.2079 -0.5112  0.4251
  331SOL    HW1  992   2.982   1.985   1.058  1.6610  2.4366 -0.7341
  331SOL    HW2  993   2.868   1.937   1.178  0.6611  0.2141  0.0909
  332SOL     OW  994   0.443   1.043   0.052  0.1812 -0.1896 -0.3016
  332SOL    HW1  995   0.362   1.036  -0.016  0.7297 -0.7936 -1.2839
  332SOL    HW2  996   0.418   1.102   0.134  1.7010  2.1358  1.7871
  333SOL     OW  997   2.855   1.054   0.257  0.2906  0.2641 -0.0276
  333SOL    HW1  998   2.903   1.125   0.317 -0.3011 -1.9579 -0.6761
  333SOL    HW2  999   2.902   0.963   0.247 -2.4465 -0.0308 -0.4515
  334SOL     OW 1000   1.639   1.160   1.911 -0.3376 -0.3459  0.0745
  334SOL    HW1 1001   1.727   1.141   1.869 -1.3957 -3.0392 -2.1848
  334SOL    HW2 1002   1.638   1.242   1.976  0.0729 -0.0718 -0.8933
  335SOL     OW 1003   1.993   2.794   2.612 -0.5532  0.6854  0.2871
  335SOL    HW1 1004   1.943   2.779   2.701  1.1328  0.0147 -1.6803
  335SOL    HW2 1005   2.023   2.889   2.592  2.6260 -2.9446  0.3984
  336SOL     OW 1006   0.226   0.074   2.719  0.3501  0.2621  0.2992
  336SOL    HW1 1007   0.318   0.029   2.722 -0.4447 -0.9702 -1.3830
  336SOL    HW2 1008   0.222   0.169   2.766 -3.1521 -0.1537  2.1713
  337SOL     OW 1009   0.959   2.809   2.857 -0.5010  0.5714 -0.5080
  337SOL    HW1 1010   0.930   2.785   2.953 -1.6301 -1.1470  1.2805
  337SOL    HW2 1011   1.057   2.781   2.840  0.8008 -0.2917 -1.4896
  338SOL     OW 1012   0.018   1.005   0.604  0.6069 -0.0330 -0.1131
  338SOL    HW1 1013  -0.076   0.985   0.647  2.9164 -1.4555 -0.6812
  338SOL    HW2 1014   0.047   1.103   0.605  2.1657 -1.2772  2.1185
  339SOL     OW 1015   1.680   1.375   2.074  0.0121 -0.2645  0.2056
  339SOL    HW1 1016   1.579   1.402   2.083  0.0486 -1.3976 -0.4984
  339SOL    HW2 1017   1.740   1.455   2.038  0.4241 -2.5574  0.8804
  340SOL     OW 1018   2.317   0.730   1.221  0.7645 -0.4284 -0.5176
  340SOL    HW1 1019   2.218   0.761   1.216  0.4069  1.1256 -1.5497
  340SOL    HW2 1020   2.341   0.648   1.164  2.6739  0.5477 -0.9069
  341SOL     OW 1021   1.884   2.194   0.437 -0.1165 -0.5526  0.4421
  341SOL    HW1 1022   1.888   2.182   0.329  1.0779 -0.1982 -1.5379
  341SOL    HW2 1023   1.977   2.176   0.478  2.2794 -0.2306  1.7173
  342SOL     OW 1024   2.211   2.146   2.813  0.0730  0.0388 -0.5839
  342SOL    HW1 1025   2.289   2.081   2.819 -1.7854  2.4375 -0.7852
  342SOL    HW2 1026   2.113   2.102   2.824 -2.0933 -0.3319  0.5490
  343SOL     OW 1027   0.332   0.891   2.869  0.3817 -0.0569 -0.3639
  343SOL    HW1 1028   0.316   0.949   2.784  0.6090 -2.4465 -0.4934
  343SOL    HW2 1029   0.418   0.843   2.857  0.2176  1.9073  0.2732
  344SOL     OW 1030   1.850   1.492   0.350  0.6628  0.5644  0.0831
  344SOL    HW1 1031   1.834   1.415   0.282 -0.1996 -1.5703  1.4370
  344SOL    HW2 1032   1.800   1.577   0.320  2.0124  0.5032 -0.9013
  345SOL     OW 1033   1.404   2.199   2.862 -0.2197 -0.1793 -0.0574
  345SOL    HW1 1034   1.316   2.167   2.818  0.4654  1.5153 -1.4763
  345SOL    HW2 1035   1.487   2.154   2.818 -0.1542 -1.2851  0.0567
  346SOL     OW 1036   2.437   0.907   1.409 -0.2811 -0.4053 -0.4421
  346SOL    HW1 1037   2.378   0.978   1.453  0.3254 -0.0792 -0.6556
  346SOL    HW2 1038   2.387   0.856   1.332 -0.9067  0.6309 -0.7382
  347SOL     OW 1039   0.680   2.814   1.502  0.6056  0.1049 -0.0415
  347SOL    HW1 1040   0.663   2.750   1.583  0.3289 -0.2863  2.5517
  347SOL    HW2 1041   0.621   2.901   1.499  1.4356  1.0006 -0.2091
  348SOL     OW 1042   0.074   0.693   2.821 -0.1567  0.1249  0.4378
  348SOL    HW1 1043  -0.031   0.686   2.806  0.3400  0.0139  0.8766
  348SOL    HW2 1044   0.116   0.782   2.792  1.7541 -1.1138  1.7923
  349SOL     OW 1045   1.921   0.446   2.790  0.0768 -0.6164  0.2886
  349SOL    HW1 1046   1.907   0.531   2.730  0.2104 -0.0280  1.0517
  349SOL    HW2 1047   1.866   0.444   2.878 -0.4727 -0.3414  0.6396
  350SOL     OW 1048   1.643   0.386   0.372 -0.0102  0.2224  0.1723
  350SOL    HW1 1049   1.724   0.390   0.432 -2.0845 -1.4594 -0.2497
  350SOL    HW2 1050   1.639   0.472   0.311 -0.8477  1.4438  0.3089
  351SOL     OW 1051   0.915   0.936   2.147 -0.4537  0.3116 -0.1205
  351SOL    HW1 1052   0.914   1.032   2.107  1.1614  0.3065  0.9262
  351SOL    HW2 1053   0.866   0.872   2.078 -1.3724 -1.2698  0.1653
  352SOL     OW 1054   1.984   1.386   0.572 -0.0033 -0.4855  0.5096
  352SOL    HW1 1055   1.927   1.436   0.495 -1.6683  2.8358 -3.8673
  352SOL    HW2 1056   2.072   1.432   0.602  1.4683 -2.7670 -0.6113
  353SOL     OW 1057   2.125   2.829   1.174  0.1673  0.1541  0.1197
  353SOL    HW1 1058   2.217   2.788   1.188 -0.4799  1.5689 -2.9638
  353SOL    HW2 1059   2.066   2.772   1.106 -0.4125  2.0037 -0.9748
  354SOL     OW 1060   0.286   1.358   2.914  0.0770 -0.2149 -0.4433
  354SOL    HW1 1061   0.233   1.421   2.852  3.4704  0.7723 -0.4032
  354SOL    HW2 1062   0.379   1.332   2.875 -2.8923 -1.8177  1.3390
  355SOL     OW 1063   0.459   1.486   0.572  0.3599  0.1243  0.1094
  355SOL    HW1 1064   0.513   1.569   0.601  1.0899 -0.3953  0.6867
  355SOL    HW2 1065   0.513   1.403   0.546  1.1464 -0.3614  0.5781
  356SOL     OW 1066   0.869   0.440   2.083  0.6054  0.3856  0.0605
  356SOL    HW1 1067   0.965   0.481   2.072  1.2625 -0.3136  0.0392
  356SOL    HW2 1068   0.842   0.379   1.999 -1.0039 -0.6470  0.4045
  357SOL     OW 1069   1.062   1.280   0.167  0.4407  0.3218  0.6213
  357SOL    HW1 1070   1.020   1.266   0.076  0.8848 -2.3766  0.6563
  357SOL    HW2 1071   1.007   1.227   0.242 -1.6625 -2.2467  0.6296
  358SOL     OW 1072   1.629   1.658   0.321  0.2522 -0.4495  0.0724
  358SOL    HW1 1073   1.625   1.572   0.374  0.1308 -1.1701  0.0250
  358SOL    HW2 1074   1.561   1.727   0.356  1.3006  1.3986 -0.4795
  359SOL     OW 1075   1.564   2.707   0.153  0.1717  0.0743  0.4939
  359SOL    HW1 1076   1.624   2.678   0.076 -0.9646  0.6045  0.9322
  359SOL    HW2 1077   1.468   2.658   0.159 -1.1389  0.7147 -0.2602
  360SOL     OW 1078   0.885   0.592   0.464  0.1747  0.7303  0.5932
  360SOL    HW1 1079   0.794   0.584   0.514  1.1295 -0.4038 -1.1871
  360SOL    HW2 1080   0.930   0.497   0.437  2.3230 -3.6181  1.8253
  361SOL     OW 1081   1.254   1.365   0.643 -0.4646  0.4366  0.1866
  361SOL    HW1 1082   1.314   1.388   0.722  2.1638  0.7554 -1.0618
  361SOL    HW2 1083   1.154   1.401   0.654 -1.3279  1.5155 -0.6873
  362SOL     OW 1084   1.391   1.754   0.769  0.3038  0.7286  0.0870
  362SOL    HW1 1085   1.415   1.700   0.854 -1.8307  1.3658 -1.5097
  362SOL    HW2 1086   1.470   1.817   0.744  2.0931 -3.8974  0.4470
  363SOL     OW 1087   1.136   1.345   2.028  0.2352  0.6130 -0.4014
  363SOL    HW1 1088   1.112   1.429   2.080  0.8292 -0.4657 -0.7857
  363SOL    HW2 1089   1.174   1.371   1.935 -0.1981  1.2259 -1.1010
  364SOL     OW 1090   0.586   2.333   1.995  0.3437  0.0317 -0.4518
  364SOL    HW1 1091   0.486   2.367   2.007 -1.6932 -1.9075 -1.0473
  364SOL    HW2 1092   0.634   2.360   1.906 -0.1702  1.1858 -0.4205
  365SOL     OW 1093   1.134   1.862   1.434 -0.4210  0.7394 -0.6046
  365SOL    HW1 1094   1.036   1.887   1.451  1.5654  1.0983  0.4484
  365SOL    HW2 1095   1.147   1.760   1.429  0.0684  0.3202 -0.6170
  366SOL     OW 1096   2.797   2.058   0.459 -0.3304 -0.5176 -0.0507
  366SOL    HW1 1097   2.721   1.984   0.463 -2.2767 -2.4242 -0.0132
  366SOL    HW2 1098   2.890   2.020   0.436 -1.2734  0.9208  1.4806
  367SOL     OW 1099   0.786   1.208   0.053 -0.2250  0.3464  0.0606
  367SOL    HW1 1100   0.777   1.121   0.103 -0.2845 -1.2705 -2.1192
  367SOL    HW2 1101   0.850   1.190  -0.024 -0.4540 -2.6616  2.6984
  368SOL     OW 1102   1.532   0.523   0.644  0.6560  0.0267  0.9553
  368SOL    HW1 1103   1.466   0.545   0.565 -1.0343  1.4587  1.9589
  368SOL    HW2 1104   1.628   0.515   0.610  1.6813  0.5254  0.8153
  369SOL     OW 1105   0.305   1.685   0.090 -0.0596 -0.3144  0.0691
  369SOL    HW1 1106   0.320   1.769   0.154 -1.7628  0.1068 -0.1696
  369SOL    HW2 1107   0.229   1.634   0.129  1.3808  3.3221 -1.4669
  370SOL     OW 1108   0.470   2.135   0.978 -0.2453 -0.2465 -0.2257
  370SOL    HW1 1109   0.476   2.234   0.951 -0.3599 -0.1328 -0.6973
  370SOL    HW2 1110   0.371   2.099   0.977 -0.7688  2.1140  1.3437
  371SOL     OW 1111   2.924   2.224   2.784 -0.0102  0.2486  0.0506
  371SOL    HW1 1112   2.900   2.216   2.889 -0.2133 -0.5636  3.2572
  371SOL    HW2 1113   3.024   2.237   2.765 -2.0620 -0.5240  0.2078
  372SOL     OW 1114   0.897   1.890   1.000  0.2163  0.0066 -0.2826
  372SOL    HW1 1115   0.835   1.964   1.027  0.1902  0.0101 -0.9019
  372SOL    HW2 1116   0.969   1.917   0.929  0.4130  1.5745 -0.7358
  373SOL     OW 1117   1.939   1.962   0.935  0.2046  0.5853  0.0308
  373SOL    HW1 1118   1.984   2.002   1.021 -1.2733  0.4348  0.1866
  373SOL    HW2 1119   1.846   2.008   0.920  0.2458  0.6558  0.7792
  374SOL     OW 1120   1.833   0.404   0.579 -0.5769 -0.1471 -0.1688
  374SOL    HW1 1121   1.841   0.360   0.670  2.2445  0.1129 -0.4161
  374SOL    HW2 1122   1.923   0.397   0.530 -3.4016  0.1296  3.6247
  375SOL     OW 1123   2.471   2.282   1.079 -0.0912 -0.0397 -0.2422
  375SOL    HW1 1124   2.495   2.213   1.001 -0.2968  0.4087 -0.0045
  375SOL    HW2 1125   2.480   2.247   1.178 -2.7800  0.8843  0.5004
  376SOL     OW 1126   3.077   0.636   1.437  0.1421 -0.0894 -0.5736
  376SOL    HW1 1127   3.142   0.691   1.498  0.4452  0.4121 -0.5636
  376SOL    HW2 1128   2.981   0.661   1.450  1.2423 -1.4342  0.3459
  377SOL     OW 1129   2.228   2.833   0.340  0.4812 -0.1855  0.3601
  377SOL    HW1 1130   2.190   2.928   0.352  2.3681  2.2729 -4.7064
  377SOL    HW2 1131   2.333   2.833   0.341 -0.9681 -0.0965  1.8226
  378SOL     OW 1132   1.887   1.856   2.659  0.3845  0.1969  0.4827
  378SOL    HW1 1133   1.945   1.778   2.693 -2.8130  1.4519 -0.3156
  378SOL    HW2 1134   1.831   1.829   2.575  3.1725 -1.6316 -1.1172
  379SOL     OW 1135   0.883   0.126   2.717 -0.1161  0.0233  0.5373
  379SOL    HW1 1136   0.882   0.032   2.672 -0.5598 -2.7147  3.3114
  379SOL    HW2 1137   0.796   0.183   2.699 -0.5385  0.5007  0.5099
  380SOL     OW 1138   1.556   1.165   0.542 -0.1724 -0.0405 -0.0561
  380SOL    HW1 1139   1.545   1.079   0.481 -2.2083  1.1899 -0.0363
  380SOL    HW2 1140   1.487   1.165   0.618 -1.2457 -2.0409 -0.8266
  381SOL     OW 1141   1.286   1.221   1.497  0.1878 -0.3863 -0.1728
  381SOL    HW1 1142   1.321   1.285   1.427 -2.1259  0.6345 -0.1405
  381SOL    HW2 1143   1.306   1.261   1.591 -2.6048  0.6286 -1.8445
  382SOL     OW 1144   1.776   0.807   0.256  0.5499 -0.1384  0.3467
  382SOL    HW1 1145   1.803   0.834   0.156  0.5191  2.3406  0.8327
  382SOL    HW2 1146   1.819   0.718   0.284  1.6454 -0.3914  2.1936
  383SOL     OW 1147   2.689   0.997   1.564 -0.3628 -0.0071  0.0494
  383SOL    HW1 1148   2.602   0.969   1.510  1.7854  0.2920 -1.0022
  383SOL    HW2 1149   2.770   0.988   1.507 -2.1383 -0.4730  1.4069
  384SOL     OW 1150   1.026   2.295   0.158  0.1574 -0.5036  0.2657
  384SOL    HW1 1151   0.978   2.385   0.164 -3.1444  1.7300 -1.5311
  384SOL    HW2 1152   0.996   2.228   0.231 -0.0690  2.5674 -0.1946
  385SOL     OW 1153   3.018   2.059   1.710 -0.1160 -0.2479  0.0319
  385SOL    HW1 1154   3.101   2.113   1.721 -3.4336  1.9929  0.0794
  385SOL    HW2 1155   3.044   1.961   1.738  2.2966 -0.6519 -0.4371
  386SOL     OW 1156   0.445   1.081   0.431  0.4582  0.1270 -0.2168
  386SOL    HW1 1157   0.454   0.979   0.447  2.4234 -2.0693 -0.9016
  386SOL    HW2 1158   0.384   1.109   0.346  0.2184  0.6544 -3.0213
  387SOL     OW 1159   0.985   0.376   1.675 -0.4824 -0.0091  0.0435
  387SOL    HW1 1160   1.065   0.448   1.674 -0.8803 -1.9423 -0.1876
  387SOL    HW2 1161   0.994   0.313   1.597  0.3992  1.9895 -2.0859
  388SOL     OW 1162   1.255   2.581   1.763  0.1284  0.7100  0.7060
  388SOL    HW1 1163   1.287   2.596   1.666  0.8639 -0.5464  1.4858
  388SOL    HW2 1164   1.309   2.519   1.824 -0.3365 -0.1575  0.8201
  389SOL     OW 1165   0.263   0.035   1.134  0.5725  0.3680  0.1956
  389SOL    HW1 1166   0.233   0.020   1.236  0.5980  0.9967  2.9303
  389SOL    HW2 1167   0.323  -0.042   1.095  0.3570 -1.1370  0.2314
  390SOL     OW 1168   1.075   0.838   1.191 -0.2566 -0.0957  0.4210
  390SOL    HW1 1169   1.177   0.808   1.174 -0.8474 -4.0966  1.6580
  390SOL    HW2 1170   1.048   0.805   1.281 -1.9762  1.6299  0.3218
  391SOL     OW 1171   2.127   1.167   1.032  0.4889  0.3590 -0.7426
  391SOL    HW1 1172   2.057   1.091   1.047 -0.4423 -0.4296 -0.1427
  391SOL    HW2 1173   2.191   1.145   0.949  0.7716 -1.5239  0.4372
  392SOL     OW 1174   0.919   2.696   0.013 -0.0724 -0.3379  0.6353
  392SOL    HW1 1175   0.828   2.709   0.057  0.8101  1.4913 -0.6634
  392SOL    HW2 1176   0.987   2.769   0.030 -1.2988  0.0294 -3.2627
  393SOL     OW 1177   0.345   0.574   1.979 -0.2229 -0.1979  0.2402
  393SOL    HW1 1178   0.254   0.530   1.947  0.9251 -1.2720 -2.9129
  393SOL    HW2 1179   0.428   0.545   1.923 -0.6436  1.5705  2.0439
  394SOL     OW 1180   2.832   1.777   2.747  0.0701 -0.6457  0.0001
  394SOL    HW1 1181   2.912   1.789   2.674  3.3833 -1.2063 -0.9268
  394SOL    HW2 1182   2.785   1.868   2.781  1.8875 -0.2996  1.0543
  395SOL     OW 1183   1.564   1.943   0.693 -0.1335 -0.3699 -0.1448
  395SOL    HW1 1184   1.654   1.899   0.664 -3.8684  0.0039  0.8129
  395SOL    HW2 1185   1.575   1.999   0.779  2.9762  0.0509 -3.3017
  396SOL     OW 1186   2.768   2.017   1.309  0.1555  0.6840 -0.0644
  396SOL    HW1 1187   2.789   2.032   1.410  1.2876 -1.0606  2.1246
  396SOL    HW2 1188   2.673   1.980   1.295  1.0414 -0.8261  0.4256
  397SOL     OW 1189   0.983   2.143   0.676  0.2735 -0.4005  0.3806
  397SOL    HW1 1190   0.893   2.105   0.645 -1.5279  1.3086 -1.3853
  397SOL    HW2 1191   0.970   2.237   0.713  0.7233 -2.6000 -3.1229
  398SOL     OW 1192   2.211   3.094   1.076  0.2740  0.1304  0.0754
  398SOL    HW1 1193   2.162   3.006   1.069 -0.3814  3.0857  0.5436
  398SOL    HW2 1194   2.143   3.174   1.098 -0.2081  2.3956  2.4128
  399SOL     OW 1195   2.869   2.597   2.769  0.1702  0.2748 -1.0598
  399SOL    HW1 1196   2.824   2.556   2.683 -3.0827 -0.4828  0.3741
  399SOL    HW2 1197   2.862   2.533   2.854  1.4024 -1.5626 -1.8212
  400SOL     OW 1198   0.814   1.581   1.290  0.0714 -0.0863 -0.1142
  400SOL    HW1 1199   0.748   1.626   1.362  0.2929  1.1591  0.6402
  400SOL    HW2 1200   0.811   1.635   1.200 -0.9912  1.4761  1.4775
  401SOL     OW 1201   1.861   0.118   1.302  0.2661 -0.5504 -0.3810
  401SOL    HW1 1202   1.909   0.165   1.380  0.0307 -1.3768 -0.4786
  401SOL    HW2 1203   1.760   0.102   1.328  2.0155 -0.5634  2.7668
  402SOL     OW 1204   1.341   0.178   3.034  0.4741  0.6298  0.0102
  402SOL    HW1 1205   1.430   0.195   2.991 -1.1663 -1.0036  2.5716
  402SOL    HW2 1206   1.335   0.254   3.099  0.4053  2.3837 -1.3968
  403SOL     OW 1207   2.264   1.819   0.996  0.1489 -0.9282  0.4852
  403SOL    HW1 1208   2.366   1.846   0.989  0.4107  1.2126  1.3465
  403SOL    HW2 1209   2.209   1.893   1.041 -1.4311 -2.8601 -2.0842
  404SOL     OW 1210   0.214   2.458   2.759  0.4399 -0.4695 -0.1294
  404SOL    HW1 1211   0.311   2.425   2.736 -2.7085 -1.5614 -1.1100
  404SOL    HW2 1212   0.209   2.562   2.747 -0.3993 -0.8625 -2.2729
  405SOL     OW 1213   0.193   2.528   0.563  0.2389 -0.2712  0.2150
  405SOL    HW1 1214   0.208   2.428   0.555  1.6431 -0.5421 -0.0087
  405SOL    HW2 1215   0.282   2.578   0.574 -0.6125  1.1324  0.4170
  406SOL     OW 1216   0.019   1.589   3.003 -0.0802 -0.2597 -0.3324
  406SOL    HW1 1217   0.088   1.585   2.927 -0.4818 -0.5052 -0.0890
  406SOL    HW2 1218   0.052   1.556   3.101 -0.0068 -1.6146  0.8411
  407SOL     OW 1219   1.560   0.975   0.959  0.0212 -0.0040 -0.3555
  407SOL    HW1 1220   1.559   0.942   0.861 -3.3141  1.6103 -1.9588
  407SOL    HW2 1221   1.485   1.044   0.978 -0.9139 -0.2991  1.4856
  408SOL     OW 1222   1.456   2.300   0.944 -0.5769  0.4746  0.2522
  408SOL    HW1 1223   1.537   2.312   0.881  0.4988  0.2269 -1.3657
  408SOL    HW2 1224   1.422   2.389   0.983 -1.4596 -0.4039  0.5038
  409SOL     OW 1225   0.621   0.866   0.673  0.3636  0.3341 -0.1885
  409SOL    HW1 1226   0.542   0.856   0.610  0.8613 -0.4706  2.6891
  409SOL    HW2 1227   0.667   0.778   0.691 -0.5708  2.8522  2.1047
  410SOL     OW 1228   1.371   1.990   1.502 -0.0846  0.4211  0.0756
  410SOL    HW1 1229   1.349   2.070   1.563 -0.4889 -1.2385 -0.9236
  410SOL    HW2 1230   1.278   1.936   1.490 -0.4418  2.7873  2.1395
  411SOL     OW 1231   2.400   1.844   0.063 -0.3213  0.1624 -0.2217
  411SOL    HW1 1232   2.346   1.849  -0.026 -1.0921  1.6406  0.9965
  411SOL    HW2 1233   2.503   1.848   0.044  1.3700 -3.9395 -0.4402
  412SOL     OW 1234   1.598   2.416   2.295 -1.3410 -0.2772  0.8785
  412SOL    HW1 1235   1.590   2.519   2.311  1.8838  0.2118 -1.8154
  412SOL    HW2 1236   1.545   2.350   2.354  0.2568 -0.1465 -0.5338
  413SOL     OW 1237   3.031   0.287   2.856  0.1552  0.5237 -0.1970
  413SOL    HW1 1238   2.984   0.208   2.911 -1.5091  1.1899 -1.8967
  413SOL    HW2 1239   3.136   0.288   2.860 -1.2683 -1.4450 -1.8367
  414SOL     OW 1240   1.745   1.322   1.325  0.6854 -0.4074 -0.3441
  414SOL    HW1 1241   1.673   1.384   1.360 -1.8196  0.7323 -1.4440
  414SOL    HW2 1242   1.761   1.331   1.217  2.1526 -3.2537 -0.0285
  415SOL     OW 1243   0.264   2.257   0.705  0.6297 -0.2048  0.3594
  415SOL    HW1 1244   0.244   2.310   0.796 -0.9874  5.9652  0.4608
  415SOL    HW2 1245   0.190   2.179   0.692 -0.6562  0.7036 -1.8251
  416SOL     OW 1246   0.342   1.021   1.056  0.0844 -0.1085 -0.8131
  416SOL    HW1 1247   0.317   1.031   0.958  0.5593  0.2891  0.5754
  416SOL    HW2 1248   0.421   1.082   1.084 -0.3546  4.3937 -0.6750
  417SOL     OW 1249   2.170   2.345   1.883 -0.1237  0.0994  0.1480
  417SOL    HW1 1250   2.218   2.255   1.907 -2.6111  0.7271  1.7167
  417SOL    HW2 1251   2.081   2.355   1.933  1.0016 -2.2873 -0.5415
  418SOL     OW 1252   1.124   0.510   1.374 -0.2980 -0.6980  0.0379
  418SOL    HW1 1253   1.038   0.475   1.343  1.0932 -0.2493  1.3124
  418SOL    HW2 1254   1.202   0.487   1.310 -2.2428  2.1915  2.2526
  419SOL     OW 1255   0.954   0.371   2.985 -0.1845  0.0696  0.1732
  419SOL    HW1 1256   0.976   0.396   2.887  2.7514 -2.0421  0.4809
  419SOL    HW2 1257   0.882   0.295   2.989  1.0121 -2.0914  0.1303
  420SOL     OW 1258   0.180   2.275   0.364  0.5479 -0.0528 -0.2103
  420SOL    HW1 1259   0.164   2.232   0.271 -2.7470  0.6614 -0.6916
  420SOL    HW2 1260   0.091   2.279   0.423 -3.2873  1.4912  0.0776
  421SOL     OW 1261   0.332   0.063   0.691  0.0213  0.3153 -0.2717
  421SOL    HW1 1262   0.349  -0.009   0.621  0.6368 -0.5679  3.3889
  421SOL    HW2 1263   0.408   0.132   0.693  0.7144 -2.0909 -1.4987
  422SOL     OW 1264   0.941   2.522   1.042  0.1087  0.4538  0.6995
  422SOL    HW1 1265   0.949   2.610   0.984 -2.0097 -0.1619  0.0827
  422SOL    HW2 1266   0.960   2.536   1.141  1.7280 -2.6383 -2.0989
  423SOL     OW 1267   0.050   0.706   1.156 -0.2240  0.2591  0.1274
  423SOL    HW1 1268   0.018   0.709   1.251 -1.0865 -2.1112 -1.1790
  423SOL    HW2 1269  -0.028   0.699   1.087  2.7821  3.7415  0.4393
  424SOL     OW 1270   0.976   2.135   2.236 -0.4185 -0.2932 -0.1532
  424SOL    HW1 1271   0.967   2.180   2.141  0.1259  0.8666  0.2862
  424SOL    HW2 1272   0.911   2.176   2.308  0.6109 -0.1956  0.9956
  425SOL     OW 1273   2.007   1.439   1.103 -0.5989 -0.1429 -0.1720
  425SOL    HW1 1274   2.042   1.340   1.088  0.4499  0.1427 -1.5930
  425SOL    HW2 1275   2.035   1.514   1.039 -1.9074  2.3627  0.7923
  426SOL     OW 1276   1.535   1.542   1.384  0.4949  0.0080 -0.1272
  426SOL    HW1 1277   1.472   1.612   1.332 -0.1003 -0.4946 -0.0589
  426SOL    HW2 1278   1.544   1.564   1.486  0.6897 -0.0145  1.0076
  427SOL     OW 1279   1.955   2.343   2.041 -0.3969  0.8274 -0.3688
  427SOL    HW1 1280   2.006   2.300   2.119 -0.6594  0.7397 -0.3416
  427SOL    HW2 1281   1.947   2.445   2.049  3.4572 -2.7761 -0.9720
  428SOL     OW 1282   0.925   3.087   0.056 -0.6283  0.2207  0.0771
  428SOL    HW1 1283   0.952   3.176   0.112  0.2072 -1.2840  1.6842
  428SOL    HW2 1284   1.009   3.027   0.037  0.2134 -1.1205  0.8991
  429SOL     OW 1285   1.269   0.054   0.224 -0.0462 -0.0738  0.3325
  429SOL    HW1 1286   1.333   0.133   0.239  2.2507 -0.3430  0.0993
  429SOL    HW2 1287   1.309  -0.021   0.162  0.9216  0.8384  1.8527
  430SOL     OW 1288   2.778   1.486   0.329  0.3134  0.0317  0.2497
  430SOL    HW1 1289   2.711   1.547   0.285 -1.2230  1.6398  1.0607
  430SOL    HW2 1290   2.803   1.532   0.422 -1.7856 -0.2253 -0.8114
  431SOL     OW 1291   2.093   1.616   0.919  0.9342 -0.0594 -0.6609
  431SOL    HW1 1292   2.171   1.684   0.936  0.4156 -1.2917 -0.9236
  431SOL    HW2 1293   2.004   1.657   0.888  0.0804  1.0992  0.8638
  432SOL     OW 1294   2.904   2.255   1.230 -0.4558  0.5148 -0.5396
  432SOL    HW1 1295   2.824   2.201   1.258 -0.4652 -1.8462 -1.1056
  432SOL    HW2 1296   2.945   2.304   1.309  0.5886  0.5866 -2.2200
  433SOL     OW 1297   1.846   0.260   0.809  0.3263 -0.2760 -0.1334
  433SOL    HW1 1298   1.755   0.256   0.850  2.0198 -0.2779  1.3990
  433SOL    HW2 1299   1.920   0.257   0.880 -0.4042  1.5945 -0.6317
  434SOL     OW 1300   1.494   0.234   0.727  0.1537  0.4361 -0.4317
  434SOL    HW1 1301   1.502   0.329   0.695  0.0671 -0.8651  0.1489
  434SOL    HW2 1302   1.540   0.222   0.826 -0.4520 -2.0111  2.1966
  435SOL     OW 1303   1.426   1.461   2.084 -0.1727  0.3129  0.5212
  435SOL    HW1 1304   1.392   1.457   2.181 -0.4693 -0.9546  0.7435
  435SOL    HW2 1305   1.376   1.528   2.028 -2.3264 -0.7284 -0.8890
  436SOL     OW 1306   1.653   2.683   2.397 -0.2891  0.4721 -0.3283
  436SOL    HW1 1307   1.656   2.784   2.435 -1.6288  1.2744  0.8661
  436SOL    HW2 1308   1.619   2.621   2.475  1.3652  1.1546  0.4902
  437SOL     OW 1309   0.985   2.961   0.891  0.0137 -0.2570  0.2526
  437SOL    HW1 1310   0.914   3.032   0.865  0.6890  0.3718 -0.5868
  437SOL    HW2 1311   1.057   2.992   0.956 -0.5307  1.4210  0.1944
  438SOL     OW 1312   0.991   2.519   1.317 -0.1144  0.3373 -0.1699
  438SOL    HW1 1313   1.069   2.542   1.380  0.1108 -1.8834 -0.6085
  438SOL    HW2 1314   0.982   2.413   1.317  1.6960 -1.0885  1.3350
  439SOL     OW 1315   0.703   1.679   1.048  0.0042  0.1495 -0.1927
  439SOL    HW1 1316   0.762   1.760   1.020  0.8053 -0.4494  0.4505
  439SOL    HW2 1317   0.609   1.703   1.080  0.5791 -0.6525 -1.0113
  440SOL     OW 1318   0.954   2.368   1.986 -0.0784  0.1528  0.5487
  440SOL    HW1 1319   0.966   2.464   1.944 -3.1221  2.3716 -1.5900
  440SOL    HW2 1320   1.007   2.298   1.935  0.2869  2.0586 -0.1738
  441SOL     OW 1321   0.342   2.795   1.326  0.4040  0.1128 -0.2960
  441SOL    HW1 1322   0.397   2.710   1.339  0.5096 -0.6157  0.5020
  441SOL    HW2 1323   0.351   2.835   1.231  1.1916 -3.2100  0.2878
  442SOL     OW 1324   2.239   0.692   2.557  0.0477  0.0093 -0.1599
  442SOL    HW1 1325   2.229   0.595   2.518  1.1232 -0.6049  2.4079
  442SOL    HW2 1326   2.145   0.736   2.565 -2.0761 -1.6057  0.2242
  443SOL     OW 1327   1.271   2.562   2.200 -0.6344  0.3581 -0.3162
  443SOL    HW1 1328   1.246   2.469   2.228 -0.0661  1.1117 -0.8751
  443SOL    HW2 1329   1.242   2.629   2.275  1.5206 -0.3762  0.0396
  444SOL     OW 1330   0.948   1.185   1.481  0.1293  0.0023  0.5774
  444SOL    HW1 1331   1.041   1.141   1.497 -0.7726  0.0495 -1.9213
  444SOL    HW2 1332   0.950   1.284   1.450 -2.2515 -2.6199 -0.0815
  445SOL     OW 1333   0.148   2.211   2.095 -0.1164  0.6419  0.4905
  445SOL    HW1 1334   0.156   2.108   2.092  2.2001  1.4466 -0.0247
  445SOL    HW2 1335   0.060   2.248   2.146 -0.8560  1.4363  2.2842
  446SOL     OW 1336   0.108   1.948   2.411  0.3497 -0.2753  0.0060
  446SOL    HW1 1337   0.087   2.050   2.405  1.7210  0.0174 -0.0327
  446SOL    HW2 1338   0.102   1.899   2.314  0.2922 -2.7206 -1.6855
  447SOL     OW 1339   1.300   1.653   1.920  0.0382  0.9913 -0.5244
  447SOL    HW1 1340   1.256   1.692   1.835 -1.3367 -0.7995 -0.6981
  447SOL    HW2 1341   1.372   1.716   1.964  1.9663 -0.0586 -0.7675
  448SOL     OW 1342   0.160   1.478   1.995 -0.0138 -0.2626  0.1995
  448SOL    HW1 1343   0.173   1.577   1.959  0.5559  0.0076 -1.0901
  448SOL    HW2 1344   0.092   1.472   2.067  3.0890 -0.8828 -1.3984
  449SOL     OW 1345   1.858   2.983   0.838 -0.5824 -0.6731 -0.3999
  449SOL    HW1 1346   1.832   2.998   0.933  0.5530 -1.3684 -2.6182
  449SOL    HW2 1347   1.910   2.890   0.823 -1.0261  1.8156  2.5706
  450SOL     OW 1348   2.231   1.490   0.684  0.8715  0.2685  0.0677
  450SOL    HW1 1349   2.185   1.519   0.772 -1.4508  0.0272 -2.5791
  450SOL    HW2 1350   2.284   1.568   0.642 -2.6126  0.0424  1.7527
  451SOL     OW 1351   1.407   2.975   1.485  0.3415  0.0069 -0.0447
  451SOL    HW1 1352   1.370   3.071   1.506  0.9391 -0.7856 -2.2756
  451SOL    HW2 1353   1.442   2.915   1.567  1.5294 -1.4826 -0.0850
  452SOL     OW 1354   2.709   2.306   2.281 -0.0042  0.2235 -0.6078
  452SOL    HW1 1355   2.628   2.373   2.301 -1.5999 -0.7629 -0.7454
  452SOL    HW2 1356   2.752   2.269   2.369 -3.5115 -0.1405  1.8065
  453SOL     OW 1357   2.454   2.658   0.009 -0.2439 -0.0359  0.2617
  453SOL    HW1 1358   2.357   2.685   0.024  0.2278 -0.3367 -0.8334
  453SOL    HW2 1359   2.456   2.580  -0.058  0.5617 -3.6445  1.5110
  454SOL     OW 1360   0.905   1.179   2.011  0.2771  0.4059 -0.5296
  454SOL    HW1 1361   0.861   1.169   1.918  2.0830 -0.3808 -1.7974
  454SOL    HW2 1362   0.999   1.227   2.011 -0.3363  0.0314 -0.2977
  455SOL     OW 1363   0.706   2.615   2.818 -0.4284  0.4819 -0.1385
  455SOL    HW1 1364   0.781   2.661   2.874 -1.9104 -2.7047  0.0353
  455SOL    HW2 1365   0.660   2.529   2.863 -0.1078  1.4903  1.0151
  456SOL     OW 1366   0.308   1.930   0.219 -0.3126 -0.1852 -0.2443
  456SOL    HW1 1367   0.406   1.961   0.223 -0.4001 -1.2867 -0.5271
  456SOL    HW2 1368   0.242   2.005   0.188 -0.2207 -0.0732  2.7065
  457SOL     OW 1369   0.427   2.654   0.655 -0.4728  0.6414  0.0569
  457SOL    HW1 1370   0.474   2.677   0.568  0.8527  2.9928  1.3311
  457SOL    HW2 1371   0.480   2.685   0.741  0.4125 -1.1390  1.2386
  458SOL     OW 1372   2.936   0.022   1.269 -0.3411 -0.4073  0.3127
  458SOL    HW1 1373   2.988   0.114   1.265 -0.2618  1.8830  1.8429
  458SOL    HW2 1374   2.933  -0.026   1.177 -1.0810 -1.8754  0.4622
  459SOL     OW 1375   2.135   2.522   0.727  0.4050  0.3482 -0.1310
  459SOL    HW1 1376   2.184   2.548   0.814  2.4079 -1.3943 -3.1357
  459SOL    HW2 1377   2.208   2.518   0.650  0.0962  4.8737 -0.5140
  460SOL     OW 1378   1.161   2.045   2.793 -0.5187 -0.3344 -0.2781
  460SOL    HW1 1379   1.204   2.059   2.697 -0.7646  0.6198 -0.8770
  460SOL    HW2 1380   1.199   1.957   2.833 -1.0260  0.0848 -2.1543
  461SOL     OW 1381   0.465   2.140   2.741 -0.0298 -0.3779 -0.3593
  461SOL    HW1 1382   0.433   2.066   2.675  0.8960  2.1483  0.9209
  461SOL    HW2 1383   0.517   2.106   2.822  0.8059 -0.5980 -4.2238
  462SOL     OW 1384   0.938   1.029   1.727 -0.1048 -0.0312  0.0247
  462SOL    HW1 1385   0.933   0.952   1.662 -1.1264  0.8456  1.2061
  462SOL    HW2 1386   0.882   1.111   1.701  0.5714 -0.9439  2.7747
  463SOL     OW 1387   0.428   0.794   0.479 -0.2150  0.3672 -0.1426
  463SOL    HW1 1388   0.471   0.713   0.432 -2.1208  0.5986 -0.2232
  463SOL    HW2 1389   0.326   0.793   0.483 -0.3738 -0.7298 -0.0747
  464SOL     OW 1390   0.561   2.358   2.285  0.8649  0.4290  0.0043
  464SOL    HW1 1391   0.480   2.395   2.342  1.2225 -0.7177  1.2470
  464SOL    HW2 1392   0.536   2.350   2.182 -2.2172  2.9814 -0.2505
  465SOL     OW 1393   0.242   0.982   0.789 -0.2320 -0.8920 -0.0578
  465SOL    HW1 1394   0.162   1.001   0.726  1.3667  1.3566 -2.2229
  465SOL    HW2 1395   0.255   0.879   0.791 -1.5641 -0.6172  0.6026
  466SOL     OW 1396   1.327   1.136   0.934  0.2166 -0.0062  0.8074
  466SOL    HW1 1397   1.331   1.239   0.930 -1.5395 -0.7374  3.2751
  466SOL    HW2 1398   1.241   1.099   0.977  0.0179 -1.2772  1.5013
  467SOL     OW 1399   0.644   0.482   2.558 -0.1818  0.2104 -0.1661
  467SOL    HW1 1400   0.589   0.562   2.588 -1.0986 -3.1279 -1.1958
  467SOL    HW2 1401   0.624   0.402   2.620  0.8315 -2.0056 -2.6753
  468SOL     OW 1402   0.437   2.278   1.564  0.0742 -0.4897  0.0232
  468SOL    HW1 1403   0.529   2.297   1.607 -0.8519  0.2200 -0.7683
  468SOL    HW2 1404   0.442   2.280   1.460  0.7432 -0.6861  0.1366
  469SOL     OW 1405   1.440   1.331   1.257  0.6320  0.7461 -0.3513
  469SOL    HW1 1406   1.512   1.276   1.209 -3.2923 -1.2529  0.5434
  469SOL    HW2 1407   1.475   1.423   1.297  1.7574  2.3688  0.9695
  470SOL     OW 1408   2.991   1.817   0.817  0.1602 -0.3306 -0.1388
  470SOL    HW1 1409   3.042   1.856   0.737 -1.4635 -0.6869  0.1421
  470SOL    HW2 1410   3.041   1.818   0.907  1.6310  1.0503  1.7933
  471SOL     OW 1411   2.675   1.378   2.197 -0.3866 -0.0132 -0.0944
  471SOL    HW1 1412   2.678   1.280   2.219 -1.5169 -0.5556  0.0471
  471SOL    HW2 1413   2.751   1.438   2.237  1.3284 -0.8624  0.4993
  472SOL     OW 1414   1.231   2.430   0.042 -0.6663  0.5445 -0.2730
  472SOL    HW1 1415   1.300   2.428   0.119 -1.5190  1.2425 -0.0752
  472SOL    HW2 1416   1.140   2.386   0.069 -1.4323 -0.8956  1.2467
  473SOL     OW 1417   1.072   1.513   1.002  0.3137  0.1031 -0.0674
  473SOL    HW1 1418   0.976   1.521   0.962 -0.3110  1.2586 -1.7932
  473SOL    HW2 1419   1.081   1.434   1.071 -1.6294  1.1072  0.6464
  474SOL     OW 1420   0.634   1.270   0.488 -0.0659  0.2880  0.1614
  474SOL    HW1 1421   0.556   1.235   0.430 -0.9913 -0.0917  2.5047
  474SOL    HW2 1422   0.675   1.192   0.545 -0.9529 -2.8298 -1.8053
  475SOL     OW 1423   2.844   0.048   0.820 -0.7792  0.7206  0.3151
  475SOL    HW1 1424   2.899   0.136   0.834  1.2352  0.5970 -4.1710
  475SOL    HW2 1425   2.743   0.058   0.842 -1.7533 -0.0261  1.3033
  476SOL     OW 1426   0.951   3.043   1.818 -0.1267  0.3070  0.1088
  476SOL    HW1 1427   1.055   3.050   1.835 -1.8899 -1.0992  2.3842
  476SOL    HW2 1428   0.923   3.042   1.718  0.3559  0.2744  0.6020
  477SOL     OW 1429   1.434   0.325   2.449  0.1810  0.0660 -0.4389
  477SOL    HW1 1430   1.461   0.364   2.540 -0.8925 -1.0137  0.8936
  477SOL    HW2 1431   1.510   0.262   2.415  0.3373  0.4903  1.1118
  478SOL     OW 1432   2.244   1.922   0.301 -0.4295 -0.5655 -0.1657
  478SOL    HW1 1433   2.198   1.833   0.339 -2.9693  1.2243  0.2990
  478SOL    HW2 1434   2.303   1.911   0.219 -2.2249 -1.1189 -1.3371
  479SOL     OW 1435   1.295   0.948   2.864  0.2497  0.0498  0.6857
  479SOL    HW1 1436   1.367   0.982   2.795  2.2080 -0.2967  0.0301
  479SOL    HW2 1437   1.233   0.871   2.831 -0.3704 -1.5299 -1.5290
  480SOL     OW 1438   2.700   2.316   0.421  0.5076 -0.0528 -0.1766
  480SOL    HW1 1439   2.750   2.237   0.470 -0.0506 -2.6909 -0.5201
  480SOL    HW2 1440   2.601   2.282   0.406 -1.1281 -0.6105 -0.3611
  481SOL     OW 1441   0.955   1.142   0.800  0.1802  0.0613  0.7222
  481SOL    HW1 1442   0.996   1.234   0.772 -0.6732  2.3382  1.8655
  481SOL    HW2 1443   0.974   1.117   0.896 -1.2135  1.7701 -0.7665
  482SOL     OW 1444   1.612   0.294   2.039  0.1148  0.2209  0.0445
  482SOL    HW1 1445   1.616   0.396   2.023  1.6732  0.6844 -1.1777
  482SOL    HW2 1446   1.703   0.244   2.044 -0.7030  1.0413  1.1790
  483SOL     OW 1447   0.108   2.376   1.210  0.3315 -0.2739 -0.3658
  483SOL    HW1 1448   0.105   2.452   1.282 -1.5706 -1.3987  1.9305
  483SOL    HW2 1449   0.132   2.405   1.118 -0.7586 -1.1505 -0.0656
  484SOL     OW 1450   1.712   1.068   1.483 -0.0974 -0.0665 -0.2844
  484SOL    HW1 1451   1.785   0.997   1.482 -1.0112  1.9735  2.5622
  484SOL    HW2 1452   1.736   1.155   1.426  0.0688 -1.5401 -0.1680
  485SOL     OW 1453   0.747   0.742   1.960 -0.1613  0.3147 -0.7412
  485SOL    HW1 1454   0.710   0.766   1.869  3.1531 -0.3309  0.1504
  485SOL    HW2 1455   0.837   0.694   1.952 -0.0340  0.6986  1.5405
  486SOL     OW 1456   0.890   1.883   2.442 -0.1360  0.1079  0.2046
  486SOL    HW1 1457   0.859   1.889   2.537 -0.6735  0.1722 -0.5414
  486SOL    HW2 1458   0.884   1.979   2.398 -1.4984  2.5899 -0.3151
  487SOL     OW 1459   1.759   1.588   1.059  0.2160 -0.0254 -0.2321
  487SOL    HW1 1460   1.802   1.492   1.058  1.6878  0.7157 -0.1470
  487SOL    HW2 1461   1.787   1.635   0.969  2.4484 -1.1713 -1.3248
  488SOL     OW 1462   2.934   0.791   2.261  0.4039 -0.1786 -0.8704
  488SOL    HW1 1463   3.001   0.710   2.251  1.0032 -0.0794 -1.8330
  488SOL    HW2 1464   2.868   0.780   2.340  0.5727  0.0079 -2.0313
  489SOL     OW 1465   2.803   0.355   1.301 -0.8464  0.1687  0.2112
  489SOL    HW1 1466   2.779   0.317   1.393 -0.7918 -0.2487  0.0504
  489SOL    HW2 1467   2.902   0.335   1.271 -0.5301 -0.0832  0.5613
  490SOL     OW 1468   1.481   2.966   2.820  0.2337 -0.8307  0.1300
  490SOL    HW1 1469   1.499   2.863   2.824  0.3588 -1.5827 -0.7776
  490SOL    HW2 1470   1.454   3.000   2.725 -0.6914  0.3195 -0.2759
  491SOL     OW 1471   1.808   1.441   2.723  0.2124  0.1278  0.2390
  491SOL    HW1 1472   1.739   1.465   2.799 -1.4658 -1.4184  1.1715
  491SOL    HW2 1473   1.891   1.505   2.735  2.0581  0.0039  0.3999
  492SOL     OW 1474   0.621   2.090   0.592  0.0793 -0.2823 -0.5604
  492SOL    HW1 1475   0.642   2.087   0.694  0.1173  0.6062 -0.1591
  492SOL    HW2 1476   0.517   2.118   0.571 -5.3384  0.4527  0.6297
  493SOL     OW 1477   0.412   1.331   2.074 -0.0556 -0.0858 -0.0000
  493SOL    HW1 1478   0.323   1.379   2.062  2.3891  0.3202 -1.9152
  493SOL    HW2 1479   0.395   1.231   2.100 -2.3027  0.6089  1.8373
  494SOL     OW 1480   2.701   2.642   0.144 -0.1502  0.1754  0.3597
  494SOL    HW1 1481   2.708   2.605   0.244  0.1908  0.3681  1.8429
  494SOL    HW2 1482   2.602   2.643   0.110 -3.1358 -2.5675  0.7567
  495SOL     OW 1483   2.518   2.802   2.641  0.1234  0.0084 -0.4233
  495SOL    HW1 1484   2.524   2.701   2.629 -0.2577 -0.1551  1.5571
  495SOL    HW2 1485   2.571   2.848   2.572 -0.4103 -0.6487  0.9970
  496SOL     OW 1486   1.950   2.311   0.800 -0.1382  0.2610  0.2052
  496SOL    HW1 1487   1.996   2.309   0.893  1.5213  1.2412 -0.1559
  496SOL    HW2 1488   2.012   2.358   0.733 -3.4285 -1.9609  1.2700
  497SOL     OW 1489   0.275   2.997   2.362 -0.3275 -0.1474 -0.1077
  497SOL    HW1 1490   0.200   3.056   2.395 -0.3470  0.0019  1.2507
  497SOL    HW2 1491   0.319   3.026   2.277  0.6928  1.1731 -0.5552
  498SOL     OW 1492   1.168   1.326   1.200 -0.3867  0.5197  0.5785
  498SOL    HW1 1493   1.276   1.333   1.207 -0.7694  3.4100  1.9048
  498SOL    HW2 1494   1.130   1.377   1.283  0.1703 -1.0875  2.0678
  499SOL     OW 1495   0.598   1.792   0.392 -0.3004  0.5244 -0.6594
  499SOL    HW1 1496   0.577   1.799   0.292  1.5588  2.9503 -2.0067
  499SOL    HW2 1497   0.692   1.830   0.423 -0.4364  0.5326  2.0393
  500SOL     OW 1498   1.503   2.796   1.656  0.5689  0.5520  0.3068
  500SOL    HW1 1499   1.520   2.783   1.757  0.0574  0.5746 -0.8721
  500SOL    HW2 1500   1.538   2.724   1.601 -0.3731  2.6208 -0.4011
  501SOL     OW 1501   0.782   1.211   2.275  0.0546 -1.2915  0.0906
  501SOL    HW1 1502   0.724   1.125   2.279 -2.1133  2.2721 -0.0602
  501SOL    HW2 1503   0.838   1.225   2.190  0.5424  0.4749 -0.0258
  502SOL     OW 1504   2.563   0.918   1.803  0.1105 -0.0094 -0.0112
  502SOL    HW1 1505   2.610   0.954   1.712  3.3979 -0.0171 -2.1176
  502SOL    HW2 1506   2.559   0.813   1.805  0.7299  3.1078  1.5631
  503SOL     OW 1507   1.247   0.123   0.690  0.2198 -0.4376 -0.0657
  503SOL    HW1 1508   1.177   0.200   0.685  0.9307  1.7910 -4.1865
  503SOL    HW2 1509   1.346   0.155   0.708 -0.8897 -0.8942 -2.0130
  504SOL     OW 1510   2.979   2.363   1.486  0.3244  0.2152  0.2076
  504SOL    HW1 1511   2.932   2.428   1.553 -0.1175  0.3820 -0.5585
  504SOL    HW2 1512   3.067   2.325   1.514 -0.1996 -1.3084  1.2861
  505SOL     OW 1513   2.321   1.140   1.509 -0.0693 -0.1305 -0.7053
  505SOL    HW1 1514   2.276   1.157   1.417  0.1456  3.3652  0.6426
  505SOL    HW2 1515   2.393   1.210   1.536 -3.7395  1.9425 -1.1988
  506SOL     OW 1516   1.948   0.202   1.870  0.1650 -1.0147  0.1568
  506SOL    HW1 1517   2.038   0.155   1.861 -1.9192  1.5486  3.1424
  506SOL    HW2 1518   1.964   0.303   1.893 -0.0105 -1.2551 -2.5111
  507SOL     OW 1519   0.497   0.749   2.182  0.0187 -0.1951  0.4143
  507SOL    HW1 1520   0.452   0.731   2.094  1.2089  2.9590  2.0580
  507SOL    HW2 1521   0.563   0.673   2.211  1.5824 -1.9537 -0.6468
  508SOL     OW 1522   0.297   1.666   0.811 -0.7142  0.0941  0.3305
  508SOL    HW1 1523   0.385   1.711   0.769  1.0715  2.6418  1.3702
  508SOL    HW2 1524   0.264   1.707   0.899  0.3632 -0.1973  1.9710
  509SOL     OW 1525   1.289   1.214   2.474 -0.0362  0.1305 -0.3841
  509SOL    HW1 1526   1.278   1.115   2.458  3.2171  0.1335  0.6538
  509SOL    HW2 1527   1.206   1.260   2.442 -0.1828 -0.3974  1.1217
  510SOL     OW 1528   1.346   2.045   2.233 -0.9536 -0.2890  0.2917
  510SOL    HW1 1529   1.354   2.069   2.134 -0.2509 -1.4354  0.2088
  510SOL    HW2 1530   1.264   1.980   2.248 -0.0597  0.6376  1.9995
  511SOL     OW 1531   3.005   2.650   1.355 -0.5469  0.3718 -0.5850
  511SOL    HW1 1532   2.996   2.675   1.254 -1.1991  0.4170  0.2389
  511SOL    HW2 1533   2.931   2.587   1.389  0.2941  0.9273  3.1459
  512SOL     OW 1534   2.322   0.440   1.405 -0.4374  0.2500  0.1522
  512SOL    HW1 1535   2.233   0.466   1.360  0.5689  0.6052  0.9446
  512SOL    HW2 1536   2.386   0.401   1.334  0.5103  0.1140  1.0119
  513SOL     OW 1537   2.524   2.101   0.882 -0.1886 -0.5370 -0.1879
  513SOL    HW1 1538   2.481   2.153   0.803  0.2296 -1.2987 -2.8450
  513SOL    HW2 1539   2.613   2.063   0.851 -0.3123 -0.1457  1.0931
  514SOL     OW 1540   0.596   2.755   0.449  0.2585 -0.4390  0.0737
  514SOL    HW1 1541   0.614   2.790   0.355  2.6525  1.2963  2.4732
  514SOL    HW2 1542   0.655   2.797   0.521  1.0734  0.2193  2.3906
  515SOL     OW 1543   1.946   1.333   2.402 -0.1797  0.1205  0.5731
  515SOL    HW1 1544   1.970   1.275   2.323  0.2292 -0.5034 -0.3635
  515SOL    HW2 1545   1.880   1.290   2.470 -1.9548  0.9817 -0.9743
  516SOL     OW 1546   0.267   0.165   1.953  0.2990 -0.2959 -0.7546
  516SOL    HW1 1547   0.368   0.177   1.944 -0.9513 -1.1391  1.9946
  516SOL    HW2 1548   0.219   0.103   1.882 -0.7026 -3.2517  0.6216
  517SOL     OW 1549   0.472   0.235   1.110 -0.5299 -0.9217  0.7152
  517SOL    HW1 1550   0.524   0.199   1.188 -1.4464  0.8758 -0.0514
  517SOL    HW2 1551   0.388   0.181   1.096  0.2195 -0.1768 -0.2899
  518SOL     OW 1552   2.173   3.029   1.833 -0.3106 -0.0449  0.2294
  518SOL    HW1 1553   2.210   3.122   1.858 -1.6641  1.2063 -2.0596
  518SOL    HW2 1554   2.204   2.993   1.740 -1.1395 -1.0303 -1.5933
  519SOL     OW 1555   2.321   2.249   2.542 -0.0951  0.0584 -0.0370
  519SOL    HW1 1556   2.270   2.224   2.630 -0.3867 -0.3386  0.5632
  519SOL    HW2 1557   2.323   2.352   2.524  1.1826 -0.2995 -0.4576
  520SOL     OW 1558   1.784   2.661   1.655  0.3083  0.4896  0.2066
  520SOL    HW1 1559   1.735   2.652   1.746  0.6293 -1.0004 -1.2509
  520SOL    HW2 1560   1.880   2.618   1.661  3.2492 -1.0555 -0.1621
  521SOL     OW 1561   0.649   0.070   2.128 -0.2983 -0.0572  0.1060
  521SOL    HW1 1562   0.578   0.019   2.073  1.4872 -0.2246  1.6402
  521SOL    HW2 1563   0.662   0.042   2.225  3.0680 -0.4098  1.1081
  522SOL     OW 1564   0.234   1.925   1.488 -0.1786  0.4603 -0.3701
  522SOL    HW1 1565   0.251   1.974   1.579 -0.7901  2.0634  0.0155
  522SOL    HW2 1566   0.221   1.993   1.413  1.0170  1.0328  1.0031
  523SOL     OW 1567   2.232   2.913   1.560 -0.6746  0.0266  0.2199
  523SOL    HW1 1568   2.316   2.876   1.518 -1.5496 -0.3221 -0.0893
  523SOL    HW2 1569   2.141   2.889   1.506  0.6172 -2.5381 -4.0900
  524SOL     OW 1570   0.215   2.749   2.760 -0.2697  0.1234  0.6042
  524SOL    HW1 1571   0.179   2.833   2.815  2.8216  0.3160 -1.4237
  524SOL    HW2 1572   0.318   2.750   2.758  0.1940  0.7673  1.0057
  525SOL     OW 1573   2.193   2.098   0.516  0.6597 -0.0609 -0.5427
  525SOL    HW1 1574   2.174   2.047   0.607 -1.1488 -1.2758  2.0193
  525SOL    HW2 1575   2.200   2.037   0.435  2.1482  0.6424  0.9474
  526SOL     OW 1576   0.385   1.536   1.717  0.2358  0.1703  0.1359
  526SOL    HW1 1577   0.428   1.599   1.777 -1.0923 -1.1231  0.8069
  526SOL    HW2 1578   0.406   1.439   1.751  0.3045  0.2181  2.2154
  527SOL     OW 1579   1.147   2.993   1.113 -0.2757 -0.1689  0.1984
  527SOL    HW1 1580   1.218   2.924   1.117 -2.3495 -1.6160 -0.5956
  527SOL    HW2 1581   1.185   3.084   1.139 -1.0542 -0.5578  0.8976
  528SOL     OW 1582   1.282   2.426   0.630 -0.0320 -0.8080 -0.0664
  528SOL    HW1 1583   1.356   2.358   0.634 -2.4685  2.5859 -0.0323
  528SOL    HW2 1584   1.311   2.523   0.668  0.1098  0.9095  2.4764
  529SOL     OW 1585   1.844   1.722   0.842 -0.2107 -0.0490  0.6041
  529SOL    HW1 1586   1.829   1.743   0.743 -2.4053 -1.9080  0.5054
  529SOL    HW2 1587   1.876   1.807   0.894 -0.4300  2.0297  0.3904
  530SOL     OW 1588   0.388   2.500   0.184 -0.0512 -0.6818  0.2858
  530SOL    HW1 1589   0.425   2.463   0.276 -0.7077 -1.0537  1.3311
  530SOL    HW2 1590   0.400   2.432   0.109  0.7901 -0.7312  2.0314
  531SOL     OW 1591   1.852   1.025   1.056  0.1931  0.0027 -0.0426
  531SOL    HW1 1592   1.880   1.021   0.956 -2.3399  1.5749 -1.1771
  531SOL    HW2 1593   1.752   1.004   1.068  0.3612  0.3419 -0.4574
  532SOL     OW 1594   0.396   1.194   0.692 -0.1478  0.0449  0.4331
  532SOL    HW1 1595   0.413   1.191   0.594  0.4004  0.4346  1.8760
  532SOL    HW2 1596   0.329   1.121   0.724 -0.4552  0.0664  3.5758
  533SOL     OW 1597   1.820   0.032   2.592 -0.2316  0.5630 -0.7887
  533SOL    HW1 1598   1.922   0.013   2.605  1.8482  2.5891  0.0619
  533SOL    HW2 1599   1.786   0.107   2.655  1.1515 -1.4668 -0.3804
  534SOL     OW 1600   0.195   0.181   1.557  0.3798  0.2144  0.3188
  534SOL    HW1 1601   0.276   0.239   1.534 -3.5097 -1.8213  0.2119
  534SOL    HW2 1602   0.109   0.237   1.539  1.5496 -0.7081  0.8113
  535SOL     OW 1603   1.871   0.407   0.138 -0.1127 -0.0297  0.0050
  535SOL    HW1 1604   1.917   0.504   0.165  0.1882  1.2711  2.7383
  535SOL    HW2 1605   1.813   0.361   0.207  0.1346  1.5149 -3.4554
  536SOL     OW 1606   1.211   2.497   0.983 -0.2012  0.3631  0.2120
  536SOL    HW1 1607   1.258   2.459   0.896  0.8389 -0.8064  0.7203
  536SOL    HW2 1608   1.117   2.534   0.966 -1.8391 -2.3268  0.5583
  537SOL     OW 1609   0.875   0.259   2.286  0.1375 -0.0163 -0.1624
  537SOL    HW1 1610   0.875   0.315   2.194  0.4491  2.9064 -2.0254
  537SOL    HW2 1611   0.805   0.181   2.293 -3.5759  1.8613  0.4759
  538SOL     OW 1612   1.723   2.245   1.618 -0.0272  0.3460 -0.2450
  538SOL    HW1 1613   1.672   2.186   1.550  0.3538  2.6759 -1.1878
  538SOL    HW2 1614   1.767   2.324   1.575 -1.2857 -2.6638 -0.1322
  539SOL     OW 1615   0.159   1.552   2.757  0.1829  0.2993 -0.8461
  539SOL    HW1 1616   0.076   1.531   2.698  0.6070 -1.7577  2.0023
  539SOL    HW2 1617   0.221   1.627   2.728  0.9527 -1.7903  1.7880
  540SOL     OW 1618   2.654   1.788   2.147  0.2856 -0.0316  0.0782
  540SOL    HW1 1619   2.634   1.701   2.103 -0.5103  1.5565  2.5553
  540SOL    HW2 1620   2.610   1.872   2.107  0.9779 -2.5166  0.8080
  541SOL     OW 1621   0.409   2.289   3.071 -0.1587 -0.1170  0.1845
  541SOL    HW1 1622   0.432   2.198   3.115 -0.9097  0.0436  0.7479
  541SOL    HW2 1623   0.322   2.269   3.011  0.7349 -4.0585 -0.6108
  542SOL     OW 1624   2.195   2.589   0.455  0.0988  0.5926 -0.3399
  542SOL    HW1 1625   2.221   2.684   0.420  0.3970 -2.6733  1.4366
  542SOL    HW2 1626   2.093   2.578   0.473 -0.4022  2.2900  1.3475
  543SOL     OW 1627   1.096   1.813   1.748 -0.4088  0.0390  0.1659
  543SOL    HW1 1628   1.090   1.861   1.839 -0.0531 -0.5484 -2.5783
  543SOL    HW2 1629   1.011   1.834   1.691 -0.4829  3.6034 -2.1727
  544SOL     OW 1630   0.835   0.442   0.108 -0.2410 -0.6542 -0.4095
  544SOL    HW1 1631   0.873   0.389   0.188  1.6643 -0.3178 -0.0189
  544SOL    HW2 1632   0.886   0.421   0.019 -2.2742  2.7067 -0.7531
  545SOL     OW 1633   1.150   1.757   0.641  0.5947  0.1106 -0.4229
  545SOL    HW1 1634   1.243   1.736   0.678 -0.7843  2.4053 -1.8470
  545SOL    HW2 1635   1.151   1.794   0.543 -0.7415 -0.3364 -1.7213
  546SOL     OW 1636   2.720   1.588   0.031 -0.6707  0.4497  0.4629
  546SOL    HW1 1637   2.765   1.562  -0.066 -1.6352 -0.2986 -1.1810
  546SOL    HW2 1638   2.628   1.545   0.033  1.2319 -0.1212 -1.7070
  547SOL     OW 1639   0.480   3.058   2.732 -0.0085  0.0868  0.1770
  547SOL    HW1 1640   0.495   2.996   2.651 -0.5529  2.9186  1.0018
  547SOL    HW2 1641   0.531   3.028   2.817  0.4338  3.6731  3.7357
  548SOL     OW 1642   2.069   0.775   3.060  0.2793 -0.0596  0.9779
  548SOL    HW1 1643   1.983   0.727   3.093 -0.3481  2.4232 -0.2657
  548SOL    HW2 1644   2.056   0.880   3.038 -2.5468  2.8258 -2.0477
  549SOL     OW 1645   0.576   0.452   0.067  0.5668 -0.1731  0.1998
  549SOL    HW1 1646   0.553   0.529   0.004  2.3719 -3.3665  0.2392
  549SOL    HW2 1647   0.678   0.435   0.075 -2.6628  0.6078 -1.9740
  550SOL     OW 1648   2.521   2.866   2.900 -0.0389  0.0890  0.1545
  550SOL    HW1 1649   2.506   2.793   2.969 -0.1821  0.5259 -1.9041
  550SOL    HW2 1650   2.534   2.835   2.801 -1.0482 -0.5510  0.5152
  551SOL     OW 1651   0.247   0.816   0.198 -0.2553 -0.4013 -0.1766
  551SOL    HW1 1652   0.346   0.789   0.194  0.9697 -1.3971  3.1103
  551SOL    HW2 1653   0.202   0.797   0.291 -1.2978 -1.2292 -1.3046
  552SOL     OW 1654   0.846   2.798   1.903 -0.2331 -0.0894  0.0078
  552SOL    HW1 1655   0.836   2.774   2.001 -2.2274 -1.1147  0.2336
  552SOL    HW2 1656   0.861   2.901   1.890  0.2713  3.0178 -0.1414
  553SOL     OW 1657   3.091   2.547   0.367  0.0268 -0.3953 -0.4884
  553SOL    HW1 1658   3.029   2.464   0.360 -2.6122  1.5230  1.5378
  553SOL    HW2 1659   3.132   2.562   0.463 -1.7263  0.9795  1.2952
  554SOL     OW 1660   2.109   0.318   0.501  1.1412  0.0194  0.0187
  554SOL    HW1 1661   2.190   0.324   0.442  0.2108  0.9022 -0.3159
  554SOL    HW2 1662   2.104   0.231   0.562 -1.3227 -3.3778 -0.2458
  555SOL     OW 1663   0.498   2.876   2.486 -0.3627  0.6396 -0.7199
  555SOL    HW1 1664   0.423   2.922   2.424 -0.4991  1.4687 -2.8021
  555SOL    HW2 1665   0.580   2.848   2.429 -1.6839 -1.0969 -0.9759
  556SOL     OW 1666   0.975   2.351   1.631 -0.4920 -0.7406 -0.3150
  556SOL    HW1 1667   0.959   2.431   1.696 -1.4526  0.3787 -0.2387
  556SOL    HW2 1668   1.070   2.346   1.588  0.6430  0.9582 -0.7058
  557SOL     OW 1669   0.167   2.145   0.103  0.7461  0.5115  0.0670
  557SOL    HW1 1670   0.085   2.079   0.113 -0.5628 -0.9602  0.4597
  557SOL    HW2 1671   0.148   2.210   0.023 -3.7142  0.9304 -1.7465
  558SOL     OW 1672   2.923   2.334   0.253 -0.7027  0.3902  0.4141
  558SOL    HW1 1673   2.823   2.312   0.238 -1.3515  2.2198  0.4985
  558SOL    HW2 1674   2.972   2.351   0.167 -0.1639 -1.3356 -1.0428
  559SOL     OW 1675   0.428   2.282   1.291  0.5132 -0.1039 -0.3469
  559SOL    HW1 1676   0.331   2.297   1.257  0.4232  0.9530  1.4853
  559SOL    HW2 1677   0.456   2.183   1.282 -2.1830 -1.3424 -0.6651
  560SOL     OW 1678   2.032   1.047   3.012 -0.1624  0.5691  0.0316
  560SOL    HW1 1679   2.036   1.135   2.959 -1.1513  0.7030  0.0210
  560SOL    HW2 1680   2.004   1.055   3.109 -0.1978 -2.1579  0.4306
  561SOL     OW 1681   3.032   1.957   0.116  0.0846 -0.2566 -0.0539
  561SOL    HW1 1682   2.994   1.861   0.110  0.0259 -0.9181  2.1435
  561SOL    HW2 1683   2.984   2.028   0.057 -0.9751 -3.1065  0.0506
  562SOL     OW 1684   0.821   2.180   2.455 -0.2108  0.0080 -0.5514
  562SOL    HW1 1685   0.726   2.146   2.462 -0.0815  1.0751 -0.3395
  562SOL    HW2 1686   0.833   2.239   2.540 -1.1948 -0.2469  3.8499
  563SOL     OW 1687   0.709   2.547   2.535  1.0806 -0.7662 -0.1718
  563SOL    HW1 1688   0.690   2.459   2.485  0.9157  0.7512  1.2716
  563SOL    HW2 1689   0.740   2.546   2.637 -0.8937 -0.2478 -0.2112
  564SOL     OW 1690   2.754   1.295   2.883 -0.0136 -0.1417 -0.4211
  564SOL    HW1 1691   2.666   1.280   2.938 -0.4788 -1.5749 -0.4097
  564SOL    HW2 1692   2.789   1.395   2.881  0.1073  1.3165  0.3482
  565SOL     OW 1693   2.533   2.021   2.600 -0.1331 -0.1219  0.2735
  565SOL    HW1 1694   2.494   2.110   2.564  0.3021  0.3242  0.6350
  565SOL    HW2 1695   2.611   2.032   2.668 -1.6838  0.7646 -0.6011
  566SOL     OW 1696   2.014   2.820   1.434  0.2546 -0.1978 -0.2932
  566SOL    HW1 1697   2.013   2.733   1.486  1.9353  2.4722  0.2385
  566SOL    HW2 1698   2.043   2.811   1.333 -0.1633 -1.2525  0.3847
  567SOL     OW 1699   2.431   0.131   2.214  0.6272  0.3262 -0.0881
  567SOL    HW1 1700   2.473   0.126   2.119 -0.7415  0.8252  1.1642
  567SOL    HW2 1701   2.379   0.216   2.238  1.9726 -0.0019  0.7477
  568SOL     OW 1702   1.435   1.802   0.469 -0.6075 -0.2834 -0.0085
  568SOL    HW1 1703   1.415   1.894   0.414 -0.5721  1.2696 -1.2996
  568SOL    HW2 1704   1.468   1.816   0.562  0.4062 -2.3100 -3.7352
  569SOL     OW 1705   0.284   0.718   0.783 -0.0892  0.6131  0.3687
  569SOL    HW1 1706   0.347   0.721   0.703  0.6218  0.8625 -1.9107
  569SOL    HW2 1707   0.211   0.655   0.765 -1.5849 -2.1173  2.9785
  570SOL     OW 1708   0.616   0.809   2.833  0.3951 -0.7981 -0.3523
  570SOL    HW1 1709   0.684   0.807   2.754 -1.4659  1.4376 -2.6786
  570SOL    HW2 1710   0.608   0.903   2.871  1.0259 -2.2244 -0.5043
  571SOL     OW 1711   0.858   3.046   1.139  0.2026 -0.5392 -0.1880
  571SOL    HW1 1712   0.853   3.133   1.079  0.6057  0.0062 -1.0468
  571SOL    HW2 1713   0.949   3.001   1.120 -0.1831  0.9183 -0.7764
  572SOL     OW 1714   1.498   2.572   1.192  1.0494 -0.2952  0.0257
  572SOL    HW1 1715   1.425   2.499   1.222 -2.1286 -0.0962  1.5249
  572SOL    HW2 1716   1.463   2.650   1.132 -1.5957  2.8768  0.1202
  573SOL     OW 1717   2.943   0.448   2.092  0.0394 -0.7671  0.4603
  573SOL    HW1 1718   2.899   0.363   2.124  0.7254 -0.5979 -0.4592
  573SOL    HW2 1719   2.881   0.513   2.037  0.0506  0.9132 -2.3064
  574SOL     OW 1720   0.229   1.798   1.036  0.6055  0.2165  0.3954
  574SOL    HW1 1721   0.230   1.904   1.018  1.7457  1.8712  1.5291
  574SOL    HW2 1722   0.144   1.768   1.096 -2.0052  0.0478  1.5258
  575SOL     OW 1723   0.907   2.197   1.023 -0.0605 -0.8023 -0.1840
  575SOL    HW1 1724   0.892   2.164   1.119  0.5689 -1.9652 -0.8505
  575SOL    HW2 1725   1.005   2.180   0.989  1.2495 -0.0045 -1.4961
  576SOL     OW 1726   2.889   2.904   1.711  0.0689 -0.4407 -0.7199
  576SOL    HW1 1727   2.820   2.830   1.689 -0.9483  1.2958 -0.9340
  576SOL    HW2 1728   2.913   2.960   1.631  0.4452 -1.9011  0.4810
  577SOL     OW 1729   2.532   1.240   3.073  0.3518  0.8292 -0.3377
  577SOL    HW1 1730   2.529   1.136   3.048  0.8795 -1.5761 -1.6480
  577SOL    HW2 1731   2.595   1.268   3.151 -0.0401 -2.5426 -0.3733
  578SOL     OW 1732   1.333   2.792   2.586  0.3027  0.2619 -0.1743
  578SOL    HW1 1733   1.269   2.748   2.513 -0.3894  0.7513  0.0713
  578SOL    HW2 1734   1.346   2.893   2.572  1.6508 -4.0159  0.1509
  579SOL     OW 1735   0.148   2.589   0.140 -0.2889 -0.5057  0.6142
  579SOL    HW1 1736   0.090   2.588   0.228  0.5287 -0.9778  0.7033
  579SOL    HW2 1737   0.240   2.551   0.157 -1.7576 -1.7430 -0.3961
  580SOL     OW 1738   0.955   2.686   0.372  0.4461  0.3955 -0.1017
  580SOL    HW1 1739   1.048   2.710   0.323  2.2305 -0.7399 -0.7923
  580SOL    HW2 1740   0.892   2.629   0.313 -1.8731  1.7031  1.2706
  581SOL     OW 1741   1.291   2.563   1.478 -0.0190  0.5884  0.2057
  581SOL    HW1 1742   1.300   2.480   1.416 -0.0880  2.6156 -3.9998
  581SOL    HW2 1743   1.312   2.647   1.425 -0.0209 -0.9323  0.7225
  582SOL     OW 1744   1.519   0.070   1.876  0.3057 -0.3231 -0.3894
  582SOL    HW1 1745   1.551   0.154   1.935 -1.6619  0.5317  0.7563
  582SOL    HW2 1746   1.576   0.054   1.788 -1.1617  2.0102  3.3189
  583SOL     OW 1747   2.384   2.995   0.592  0.2926 -0.0036  0.3771
  583SOL    HW1 1748   2.453   2.942   0.535 -1.2107  0.1713 -0.1491
  583SOL    HW2 1749   2.325   2.924   0.645  1.3111 -1.1002  0.1897
  584SOL     OW 1750   1.536   0.984   2.086  0.1817  0.0350 -0.1014
  584SOL    HW1 1751   1.599   1.036   2.021  1.4341  2.4313 -0.0949
  584SOL    HW2 1752   1.579   0.959   2.179  0.1917  1.5578  3.0598
  585SOL     OW 1753   2.095   2.685   2.891  0.1508 -0.2442  0.5714
  585SOL    HW1 1754   2.128   2.581   2.883  0.0397 -1.7723 -0.0353
  585SOL    HW2 1755   1.997   2.692   2.925 -0.7670  0.1251  0.6059
  586SOL     OW 1756   2.780   0.227   1.553 -0.0343 -0.4406 -0.5273
  586SOL    HW1 1757   2.778   0.316   1.604  0.8284 -1.2219  1.5138
  586SOL    HW2 1758   2.694   0.170   1.560  3.5330  0.2370  2.3033
  587SOL     OW 1759   2.016   1.613   2.742 -0.2998 -0.0757 -0.5867
  587SOL    HW1 1760   2.071   1.597   2.658  0.4167 -1.8095  3.8217
  587SOL    HW2 1761   2.072   1.608   2.825  0.7212 -1.0565 -2.2561
  588SOL     OW 1762   0.482   2.697   2.228 -0.4872  0.0833 -0.2134
  588SOL    HW1 1763   0.403   2.726   2.166 -1.6303  0.2253  1.4059
  588SOL    HW2 1764   0.448   2.641   2.307  1.3017 -2.3868  0.4748
  589SOL     OW 1765   2.142   1.468   2.540 -0.8200  0.1771  0.3162
  589SOL    HW1 1766   2.064   1.419   2.490  1.3020 -0.6882 -0.4286
  589SOL    HW2 1767   2.227   1.410   2.544 -2.9942 -0.4332  0.2481
  590SOL     OW 1768   2.357   1.755   1.993 -0.4045  0.0611  0.1622
  590SOL    HW1 1769   2.428   1.674   1.999  0.9146 -1.9516 -1.6289
  590SOL    HW2 1770   2.353   1.812   2.081 -0.3433 -2.8981  0.5761
  591SOL     OW 1771   1.317   2.479   0.315  0.1308  0.5688 -0.2574
  591SOL    HW1 1772   1.395   2.427   0.267 -0.8381  1.9706 -1.2950
  591SOL    HW2 1773   1.306   2.442   0.412 -0.4897  0.7347  0.3664
  592SOL     OW 1774   1.669   2.319   0.784 -0.0356  0.0028 -0.1518
  592SOL    HW1 1775   1.656   2.383   0.704  0.4885  0.2160 -0.0496
  592SOL    HW2 1776   1.773   2.288   0.800  3.1442 -1.1211 -0.7051
  593SOL     OW 1777   0.524   0.236   3.005  0.4008 -0.2173 -0.0044
  593SOL    HW1 1778   0.619   0.199   2.984 -1.4099 -1.0706 -1.2114
  593SOL    HW2 1779   0.520   0.314   3.078 -3.0884 -1.6775  2.8651
  594SOL     OW 1780   0.912   1.891   2.757  0.0242  0.4645 -0.1931
  594SOL    HW1 1781   1.009   1.896   2.723 -1.0207 -0.2368 -0.6217
  594SOL    HW2 1782   0.895   1.968   2.828 -2.1422  2.3525  0.3146
  595SOL     OW 1783   1.563   3.077   1.005 -0.2741  0.3258 -0.4441
  595SOL    HW1 1784   1.660   3.045   1.039 -0.1801 -2.0459  1.3253
  595SOL    HW2 1785   1.548   3.060   0.903  0.6343 -2.8562 -0.7634
  596SOL     OW 1786   3.075   1.455   2.208 -0.3364 -0.3209 -0.4057
  596SOL    HW1 1787   3.004   1.526   2.236  1.2654  3.4152  0.0695
  596SOL    HW2 1788   3.132   1.434   2.285 -0.8979  0.8739  2.7985
  597SOL     OW 1789   2.068   2.602   1.609  0.5377  0.7629  0.4468
  597SOL    HW1 1790   2.095   2.501   1.609 -2.2336  2.4663  1.2730
  597SOL    HW2 1791   2.127   2.665   1.660 -4.1525  0.5777 -1.1643
  598SOL     OW 1792   2.596   2.887   1.209 -0.0499  0.3705 -0.3966
  598SOL    HW1 1793   2.662   2.931   1.277  0.9481  1.9635 -0.3162
  598SOL    HW2 1794   2.633   2.870   1.112 -0.7698 -1.3146 -2.8034
  599SOL     OW 1795   2.919   0.325   2.404 -0.3463 -0.2032  0.0967
  599SOL    HW1 1796   3.006   0.335   2.349  0.5542  2.5464  1.2118
  599SOL    HW2 1797   2.852   0.403   2.384  1.5976  0.0081  1.1933
  600SOL     OW 1798   2.821   1.054   2.766 -0.1973 -0.5091  0.5659
  600SOL    HW1 1799   2.803   0.979   2.830  1.8354 -0.0185 -2.5686
  600SOL    HW2 1800   2.807   1.147   2.810  1.1119  0.4507  1.6396
  601SOL     OW 1801   2.932   1.293   2.048 -0.1418  0.0257  0.2960
  601SOL    HW1 1802   2.865   1.348   1.985 -0.6687  0.1914  1.7331
  601SOL    HW2 1803   2.998   1.359   2.100  1.6889  1.8214  0.8885
  602SOL     OW 1804   1.545   1.675   2.354  0.3159 -0.2574  0.6536
  602SOL    HW1 1805   1.490   1.594   2.332 -1.4806 -2.4566  0.1984
  602SOL    HW2 1806   1.638   1.645   2.380  0.5916  1.1001  0.8977
  603SOL     OW 1807   0.714   1.251   2.606 -0.2545  0.0455 -0.4663
  603SOL    HW1 1808   0.647   1.228   2.537  2.5275  2.9731 -0.7016
  603SOL    HW2 1809   0.774   1.168   2.632 -1.1809 -0.2304 -1.5468
  604SOL     OW 1810   2.374   1.005   0.165 -0.3934 -0.0656  0.7692
  604SOL    HW1 1811   2.459   1.060   0.133 -0.4677  0.9583 -1.3941
  604SOL    HW2 1812   2.353   0.919   0.110 -1.2844  0.8369 -0.9016
  605SOL     OW 1813   2.589   1.116   1.987  0.3276  0.2559 -0.1379
  605SOL    HW1 1814   2.579   1.033   1.919 -0.3097  0.5082 -1.7117
  605SOL    HW2 1815   2.604   1.088   2.084 -1.0077  2.1201 -0.6845
  606SOL     OW 1816   1.514   2.509   2.586  0.4774  0.0097  0.1305
  606SOL    HW1 1817   1.419   2.545   2.597 -0.4995 -2.3568  0.2287
  606SOL    HW2 1818   1.522   2.404   2.567  0.4753  2.6503 -1.0408
  607SOL     OW 1819   1.336   1.539   0.408  0.4311  0.0976 -0.0643
  607SOL    HW1 1820   1.312   1.477   0.490  1.5441 -0.0318 -0.8226
  607SOL    HW2 1821   1.344   1.642   0.424 -3.0147 -2.2645 -0.8620
  608SOL     OW 1822   1.393   2.894   0.419 -0.1875  0.3168  0.1363
  608SOL    HW1 1823   1.449   2.944   0.346  0.5915 -0.0654  3.2523
  608SOL    HW2 1824   1.323   2.961   0.464  1.7060  1.6230 -0.1510
  609SOL     OW 1825   1.319   1.329   0.244 -0.8630  0.3353  0.6644
  609SOL    HW1 1826   1.327   1.417   0.298 -1.6409 -0.5237  0.5877
  609SOL    HW2 1827   1.234   1.321   0.182  1.6117  0.8285  0.3474
  610SOL     OW 1828   3.004   1.066   2.273 -0.5929 -0.4540 -0.3282
  610SOL    HW1 1829   2.979   0.965   2.252 -0.3102  0.0969 -1.9326
  610SOL    HW2 1830   2.968   1.131   2.202 -0.4352 -1.7791 -1.3905
  611SOL     OW 1831   2.525   0.319   1.241  0.1143  0.5505  0.1623
  611SOL    HW1 1832   2.495   0.221   1.215 -1.1869  0.5610 -3.2868
  611SOL    HW2 1833   2.625   0.331   1.256 -1.5749  1.6750  0.9745
  612SOL     OW 1834   0.763   2.145   1.250 -0.6199 -0.8413  0.2816
  612SOL    HW1 1835   0.675   2.113   1.285  1.0125  1.2025  0.9147
  612SOL    HW2 1836   0.756   2.238   1.198  1.4473 -1.3963 -1.3183
  613SOL     OW 1837   0.946   1.398   2.365 -0.7349 -0.1882  0.6325
  613SOL    HW1 1838   0.991   1.447   2.285 -0.3442 -0.1433  0.8200
  613SOL    HW2 1839   0.861   1.344   2.349 -0.4548 -0.2760  0.3815
  614SOL     OW 1840   1.664   1.546   1.764  0.2044  0.0599  0.4466
  614SOL    HW1 1841   1.585   1.611   1.743 -0.3487 -0.8140 -1.4604
  614SOL    HW2 1842   1.711   1.567   1.852 -1.3963  0.0443  1.3489
  615SOL     OW 1843   0.780   1.261   1.732  0.3096  0.2791  0.4884
  615SOL    HW1 1844   0.713   1.255   1.653  3.0296 -2.1849  0.7626
  615SOL    HW2 1845   0.832   1.344   1.729 -3.8527 -1.7710  0.1888
  616SOL     OW 1846   1.013   1.584   2.153 -0.5784  0.0749 -0.1608
  616SOL    HW1 1847   0.971   1.621   2.070  1.5317  0.6742  1.7236
  616SOL    HW2 1848   1.061   1.659   2.205 -0.1428 -1.6252  1.6849
  617SOL     OW 1849   2.963   1.520   1.591 -0.0031 -0.3590  0.1197
  617SOL    HW1 1850   2.989   1.442   1.649 -0.5990  0.5187 -1.9167
  617SOL    HW2 1851   2.986   1.510   1.492 -0.1265 -0.7954  0.7333
  618SOL     OW 1852   1.876   2.014   1.387 -0.4573  0.2972  0.0498
  618SOL    HW1 1853   1.907   2.098   1.332  2.7869  1.7612  0.8224
  618SOL    HW2 1854   1.846   1.937   1.327  1.5097  1.1108  0.8055
  619SOL     OW 1855   1.732   0.442   2.381 -0.2193 -0.5178 -0.2396
  619SOL    HW1 1856   1.661   0.503   2.332  1.6836  1.5491 -1.1215
  619SOL    HW2 1857   1.700   0.340   2.383  2.0238  0.6201  1.5402
  620SOL     OW 1858   2.259   2.813   0.750  0.1536  0.1205 -0.2035
  620SOL    HW1 1859   2.153   2.815   0.749  0.0517 -0.6403  0.2601
  620SOL    HW2 1860   2.298   2.737   0.805  0.2571 -0.7510 -0.7848
  621SOL     OW 1861   2.186   1.932   1.350  0.1393 -0.2712  0.1461
  621SOL    HW1 1862   2.175   1.936   1.453  1.2755  0.1378 -0.4784
  621SOL    HW2 1863   2.119   1.863   1.309  0.4352 -0.3983  0.1650
  622SOL     OW 1864   2.289   0.942   1.860  0.8746  0.4342 -0.2387
  622SOL    HW1 1865   2.385   0.945   1.812  0.4415  1.4959 -1.0668
  622SOL    HW2 1866   2.283   0.864   1.922 -1.4875  0.6722 -2.8045
  623SOL     OW 1867   1.251   0.833   2.525 -0.1600 -0.1443  0.3784
  623SOL    HW1 1868   1.208   0.747   2.562  0.2299  1.5160 -2.4435
  623SOL    HW2 1869   1.221   0.848   2.431 -0.0693 -1.6642  3.2432
  624SOL     OW 1870   0.498   0.650   3.016 -0.1167  0.2963  0.1987
  624SOL    HW1 1871   0.552   0.703   2.942  2.6503 -0.0153  0.3076
  624SOL    HW2 1872   0.487   0.705   3.105 -0.8954 -0.6499  0.0797
  625SOL     OW 1873   2.723   1.707   0.999  0.2913 -0.0788 -0.1031
  625SOL    HW1 1874   2.640   1.772   1.011 -0.3480  1.3868 -1.4089
  625SOL    HW2 1875   2.815   1.758   0.999  1.8886  1.6954  0.5084
  626SOL     OW 1876   0.637   2.690   1.773  0.3640 -0.2334 -0.4032
  626SOL    HW1 1877   0.702   2.722   1.853  2.2401 -0.8504  1.4214
  626SOL    HW2 1878   0.535   2.688   1.802 -1.0683  1.8603 -1.4684
  627SOL     OW 1879   0.656   0.820   1.683  0.6096  0.1612 -0.2419
  627SOL    HW1 1880   0.578   0.770   1.645  0.9421 -0.9872 -0.2485
  627SOL    HW2 1881   0.713   0.871   1.613  1.0576  0.6608 -0.8044
  628SOL     OW 1882   2.354   0.107   0.756  0.2460  0.2678  0.0105
  628SOL    HW1 1883   2.386   0.025   0.698  0.9635  1.8582 -1.4704
  628SOL    HW2 1884   2.254   0.116   0.760 -1.3894  0.2582 -1.0392
  629SOL     OW 1885   1.902   0.932   1.984  0.3760 -0.3091  0.2191
  629SOL    HW1 1886   1.906   1.019   1.930 -0.3000  0.8131  0.9123
  629SOL    HW2 1887   1.937   0.941   2.080  3.0660  3.0561 -1.1761
  630SOL     OW 1888   2.916   2.205   0.786 -0.8200  0.0986  0.3071
  630SOL    HW1 1889   2.852   2.286   0.792 -0.1885 -1.6267  2.0397
  630SOL    HW2 1890   2.862   2.114   0.797  0.6748 -1.1472  1.2289
  631SOL     OW 1891   3.042   0.111   2.066  0.1585 -0.0132  0.6714
  631SOL    HW1 1892   3.110   0.157   2.124  0.4994 -0.0475 -0.0593
  631SOL    HW2 1893   3.076   0.089   1.971 -0.2951 -1.9819 -0.1497
  632SOL     OW 1894   2.426   2.581   0.633 -1.1310 -0.3094  0.7785
  632SOL    HW1 1895   2.501   2.650   0.650 -3.8295  2.5191  0.7474
  632SOL    HW2 1896   2.387   2.601   0.535 -1.4412  1.3894 -0.0349
  633SOL     OW 1897   1.490   1.255   2.654  0.3893 -0.0324  0.3546
  633SOL    HW1 1898   1.470   1.319   2.728  2.8392 -1.5666  0.2564
  633SOL    HW2 1899   1.405   1.237   2.597  2.1979  2.4989 -1.2229
  634SOL     OW 1900   0.712   2.101   0.849 -0.1625 -0.6186 -0.1355
  634SOL    HW1 1901   0.626   2.090   0.907  1.1773 -1.6471  0.5249
  634SOL    HW2 1902   0.781   2.173   0.881 -1.4751 -0.9614  0.3759
  635SOL     OW 1903   3.069   2.387   0.019  0.4988 -0.1426  0.1708
  635SOL    HW1 1904   2.981   2.431  -0.013  0.3113 -0.6708  1.2623
  635SOL    HW2 1905   3.137   2.456   0.055  0.6368 -1.6292  0.2475
  636SOL     OW 1906   2.370   2.711   2.067 -0.1319 -0.3139  0.0971
  636SOL    HW1 1907   2.372   2.806   2.103  0.4151 -0.4962 -2.0215
  636SOL    HW2 1908   2.289   2.663   2.105 -0.5120 -2.0211  0.3726
  637SOL     OW 1909   2.688   0.579   1.971  0.5895  0.1967  0.7252
  637SOL    HW1 1910   2.613   0.579   1.901  0.1368  0.7833 -1.6934
  637SOL    HW2 1911   2.760   0.651   1.954  1.4527 -1.4998 -2.4477
  638SOL     OW 1912   2.466   1.866   1.330 -0.1668 -0.0277 -0.5807
  638SOL    HW1 1913   2.362   1.861   1.316 -0.5793  0.2052  0.3853
  638SOL    HW2 1914   2.504   1.797   1.397 -2.3783 -1.3286 -0.3895
  639SOL     OW 1915   1.253   2.204   1.622 -0.1580 -0.2190  0.5279
  639SOL    HW1 1916   1.311   2.293   1.630 -2.3901  1.9791 -2.5370
  639SOL    HW2 1917   1.191   2.184   1.705  0.3545 -2.7236  5.2711
  640SOL     OW 1918   0.178   1.245   1.550  0.0446  0.0218 -0.4112
  640SOL    HW1 1919   0.151   1.274   1.646  0.0273 -0.5887 -0.6724
  640SOL    HW2 1920   0.258   1.181   1.552 -1.3433  0.2580  0.9592
  641SOL     OW 1921   1.980   0.249   1.518 -0.1717 -0.0780  0.3516
  641SOL    HW1 1922   1.911   0.303   1.568 -0.2257 -0.4174 -0.4906
  641SOL    HW2 1923   2.062   0.227   1.582  0.1281 -2.1437  0.8917
  642SOL     OW 1924   2.049   3.083   0.345  0.2070  0.3571 -0.1653
  642SOL    HW1 1925   2.143   3.128   0.370  1.9394 -1.0127  3.6882
  642SOL    HW2 1926   1.976   3.112   0.416 -0.6140  0.9040  1.9381
  643SOL     OW 1927   2.916   1.936   2.108 -0.0733 -0.1441  0.9227
  643SOL    HW1 1928   2.840   1.872   2.087 -1.1601  2.2742  2.1210
  643SOL    HW2 1929   2.930   2.008   2.036  1.6018 -0.4441  1.9269
  644SOL     OW 1930   2.293   2.400   1.256  0.0397  0.2962 -0.7512
  644SOL    HW1 1931   2.375   2.378   1.196  3.0792  0.0441  0.8078
  644SOL    HW2 1932   2.303   2.380   1.359 -0.6953 -1.2433  1.8941
  645SOL     OW 1933   0.692   0.841   1.263  0.2023  0.3947 -0.1387
  645SOL    HW1 1934   0.606   0.792   1.285 -0.9287  1.2777 -2.0461
  645SOL    HW2 1935   0.699   0.865   1.161 -2.5220  0.0287 -0.5349
  646SOL     OW 1936   1.524   1.781   2.029  0.1011  0.4856  0.2435
  646SOL    HW1 1937   1.591   1.809   1.952 -1.1797  3.2196  0.0452
  646SOL    HW2 1938   1.552   1.799   2.128  0.8842  0.0225  1.4428
  647SOL     OW 1939   0.767   1.098   0.620 -0.0274 -0.4174  0.5685
  647SOL    HW1 1940   0.840   1.100   0.698 -0.0212 -2.0312 -0.2609
  647SOL    HW2 1941   0.710   1.011   0.619  0.2302  0.9690 -0.5513
  648SOL     OW 1942   0.178   0.230   0.384 -0.1955 -0.5186  0.1309
  648SOL    HW1 1943   0.175   0.136   0.349  0.3849  2.6431 -1.2750
  648SOL    HW2 1944   0.156   0.300   0.314  2.1678 -1.1208  0.5490
  649SOL     OW 1945   3.001   0.275   0.914 -0.0547 -0.0750 -0.3392
  649SOL    HW1 1946   3.081   0.300   0.854 -1.9466 -2.0414 -0.6106
  649SOL    HW2 1947   3.001   0.321   1.006  0.4669  0.4798 -1.1744
  650SOL     OW 1948   2.803   0.719   1.475 -0.0037  0.0956  0.6828
  650SOL    HW1 1949   2.702   0.691   1.484 -0.1485 -1.1622  2.5669
  650SOL    HW2 1950   2.803   0.814   1.430  0.5067  2.3292 -1.1820
  651SOL     OW 1951   0.888   1.532   1.672 -0.1964 -0.5002 -0.2512
  651SOL    HW1 1952   0.879   1.591   1.758  1.1307  1.8012 -0.9777
  651SOL    HW2 1953   0.988   1.531   1.636  1.1059 -1.8062 -0.6038
  652SOL     OW 1954   2.334   2.532   2.504  0.4636 -0.2540  0.0350
  652SOL    HW1 1955   2.230   2.548   2.509  2.7460  1.0086 -1.3313
  652SOL    HW2 1956   2.381   2.583   2.428 -0.4899 -2.8487 -0.1256
  653SOL     OW 1957   2.696   1.269   0.182 -0.3252  0.2318  0.2679
  653SOL    HW1 1958   2.731   1.360   0.229  0.6288  2.9048 -1.9514
  653SOL    HW2 1959   2.770   1.194   0.182  1.6794  1.3711 -1.8492
  654SOL     OW 1960   1.220   2.099   1.238  0.2745  0.2260  0.0114
  654SOL    HW1 1961   1.271   2.038   1.309  3.2106  0.5701  2.6611
  654SOL    HW2 1962   1.248   2.081   1.137  0.8685  0.3730  0.2922
  655SOL     OW 1963   0.198   0.990   1.931 -0.0419  0.0136  0.0655
  655SOL    HW1 1964   0.252   0.929   1.864 -0.9049 -1.9954 -0.8300
  655SOL    HW2 1965   0.191   1.093   1.904  0.6999  1.7214  3.5990
  656SOL     OW 1966   2.584   2.528   2.633 -0.2335 -0.0131  0.1501
  656SOL    HW1 1967   2.673   2.511   2.582 -1.8952  0.2743  0.3724
  656SOL    HW2 1968   2.496   2.498   2.582  0.1180  0.1400 -0.7212
  657SOL     OW 1969   3.017   1.054   1.920  0.2534 -0.2362 -1.2054
  657SOL    HW1 1970   2.995   1.138   1.982 -0.3402  0.0606  3.3608
  657SOL    HW2 1971   3.118   1.038   1.914  0.1419  0.3296  0.4285
  658SOL     OW 1972   1.651   0.172   2.355 -0.0994  0.3032  0.3535
  658SOL    HW1 1973   1.699   0.122   2.429 -1.9552  1.7256  1.9898
  658SOL    HW2 1974   1.674   0.144   2.259  0.5914  2.3812  3.4539
  659SOL     OW 1975   1.447   0.672   2.810  0.3303 -0.4646 -0.3779
  659SOL    HW1 1976   1.492   0.711   2.732 -1.0080 -3.2776  1.9251
  659SOL    HW2 1977   1.354   0.716   2.824  0.5302  0.1279 -1.3837
  660SOL     OW 1978   1.429   0.305   1.412 -0.0243  0.2431  0.0397
  660SOL    HW1 1979   1.459   0.327   1.508 -0.2872 -2.8781  0.6660
  660SOL    HW2 1980   1.506   0.246   1.370  2.1314  0.0761 -1.4411
  661SOL     OW 1981   2.397   1.264   0.652  0.1199 -0.0493 -0.5437
  661SOL    HW1 1982   2.408   1.248   0.550  0.9748  0.3787 -0.5002
  661SOL    HW2 1983   2.331   1.347   0.679 -0.8699  3.6269  1.1025
  662SOL     OW 1984   1.465   0.371   1.696 -0.2119 -0.1872  0.5445
  662SOL    HW1 1985   1.396   0.321   1.761  0.0280 -0.6143 -0.5473
  662SOL    HW2 1986   1.454   0.471   1.702  3.1525 -2.0593  1.4131
  663SOL     OW 1987   0.837   1.606   1.948  0.7733 -0.2752  0.2581
  663SOL    HW1 1988   0.796   1.681   2.016 -0.3920  1.0005  3.7824
  663SOL    HW2 1989   0.800   1.511   1.962 -0.1149 -1.0512 -0.0704
  664SOL     OW 1990   1.608   2.113   1.422 -0.2926  0.0603 -0.4062
  664SOL    HW1 1991   1.542   2.044   1.460  1.4985  2.0995  1.7115
  664SOL    HW2 1992   1.693   2.069   1.386 -0.8561 -2.2927 -2.5922
  665SOL     OW 1993   2.258   0.678   1.998  0.0793 -0.2605 -0.1227
  665SOL    HW1 1994   2.257   0.575   1.983 -0.6837  0.9072  0.1491
  665SOL    HW2 1995   2.336   0.703   2.065  2.0343  2.0123  0.3432
  666SOL     OW 1996   0.459   2.222   0.358 -0.1892  0.2876 -0.0261
  666SOL    HW1 1997   0.525   2.294   0.385 -0.7574 -0.7810 -0.0743
  666SOL    HW2 1998   0.361   2.258   0.345 -2.5775 -1.5786 -1.9331
  667SOL     OW 1999   2.015   0.222   1.092 -0.7436  0.0317 -0.2270
  667SOL    HW1 2000   2.010   0.326   1.091  1.3350 -1.3643  1.9323
  667SOL    HW2 2001   1.946   0.179   1.154 -0.8492  2.7962 -2.6579
  668SOL     OW 2002   1.988   0.498   1.072  0.0775  0.0630  0.7420
  668SOL    HW1 2003   2.073   0.522   1.005  2.5178 -0.9802 -0.9581
  668SOL    HW2 2004   2.011   0.494   1.173 -1.7039 -0.8357 -1.0781
  669SOL     OW 2005   3.056   2.147   1.029  0.3744  0.1020  0.1712
  669SOL    HW1 2006   3.035   2.190   0.940 -0.9292 -1.6386 -0.2284
  669SOL    HW2 2007   2.994   2.186   1.105  2.6862  1.5226  1.4966
  670SOL     OW 2008   2.921   2.332   2.127 -0.4655 -0.3308 -0.4789
  670SOL    HW1 2009   2.846   2.318   2.195  0.9913 -1.8701 -0.7203
  670SOL    HW2 2010   2.917   2.417   2.070  2.5270 -2.5994 -1.6865
  671SOL     OW 2011   1.759   1.676   1.509  0.2269  0.8333 -0.0934
  671SOL    HW1 2012   1.704   1.665   1.425 -0.9236  0.8868 -0.7046
  671SOL    HW2 2013   1.807   1.587   1.529 -0.2931 -1.0632 -3.5032
  672SOL     OW 2014   0.445   0.673   2.598 -0.4914 -0.4617  0.0906
  672SOL    HW1 2015   0.394   0.712   2.515 -0.4337  0.2555 -2.0502
  672SOL    HW2 2016   0.390   0.683   2.690 -0.5874  0.6104 -2.1423
  673SOL     OW 2017   0.082   1.391   1.073 -0.0018 -0.0835  0.3516
  673SOL    HW1 2018   0.102   1.423   1.167  2.5619 -1.3751 -0.0027
  673SOL    HW2 2019   0.168   1.375   1.016  1.4106 -0.4444 -2.9662
  674SOL     OW 2020   1.581   3.002   0.241  0.7233 -0.3392  0.4131
  674SOL    HW1 2021   1.634   3.074   0.192 -1.3186 -1.8053  1.2256
  674SOL    HW2 2022   1.580   2.912   0.189 -3.5526 -0.9690  1.2191
  675SOL     OW 2023   1.643   0.851   2.332  0.5410 -0.0577 -0.0840
  675SOL    HW1 2024   1.742   0.867   2.328 -2.2617 -0.2197  2.2181
  675SOL    HW2 2025   1.615   0.752   2.316 -0.2981  0.1079 -0.3815
  676SOL     OW 2026   2.557   1.560   2.001  0.2991 -0.0540  0.1500
  676SOL    HW1 2027   2.527   1.501   1.915 -2.9641 -1.6479 -1.1338
  676SOL    HW2 2028   2.563   1.495   2.078 -3.3260  0.3327 -0.1106
  677SOL     OW 2029   1.856   0.729   0.883  0.1346  0.0092 -0.0150
  677SOL    HW1 2030   1.754   0.735   0.905  1.8590  1.8024  2.8089
  677SOL    HW2 2031   1.903   0.661   0.945 -1.7221 -1.8869 -0.9390
  678SOL     OW 2032   0.074   0.837   1.645  0.2451 -0.1089 -0.2044
  678SOL    HW1 2033   0.175   0.834   1.672 -1.2873  0.7064  2.3939
  678SOL    HW2 2034   0.013   0.786   1.713  1.0936 -1.8200 -0.3255
  679SOL     OW 2035   2.554   1.073   1.212 -0.0176  0.2460 -0.2240
  679SOL    HW1 2036   2.455   1.101   1.217  1.4385 -1.0306  0.4321
  679SOL    HW2 2037   2.565   0.974   1.180  0.5071 -2.7737 -0.4523
  680SOL     OW 2038   2.822   0.543   1.689  0.4075 -0.2672 -0.2085
  680SOL    HW1 2039   2.795   0.624   1.632 -0.2370 -0.0767  0.4380
  680SOL    HW2 2040   2.898   0.563   1.760 -0.4860 -1.9990  0.6339
  681SOL     OW 2041   2.992   0.020   1.552 -0.3552  0.2296 -0.4402
  681SOL    HW1 2042   3.043   0.045   1.465  1.2847 -1.3135  2.5136
  681SOL    HW2 2043   2.900   0.061   1.560  0.5696 -2.1543 -0.9618
  682SOL     OW 2044   0.623   0.078   1.282  0.2039 -0.2809 -0.0920
  682SOL    HW1 2045   0.565   0.018   1.343 -1.1455  0.2431 -1.0934
  682SOL    HW2 2046   0.705   0.023   1.244  2.7794 -0.8805 -0.3022
  683SOL     OW 2047   1.368   0.264   2.150  0.4947 -0.6303 -0.4665
  683SOL    HW1 2048   1.365   0.271   2.257  2.7502  0.1232  3.3713
  683SOL    HW2 2049   1.467   0.280   2.113  1.2581 -0.8698 -0.4544
  684SOL     OW 2050   1.423   2.169   0.578  0.4851  0.4421 -0.1725
  684SOL    HW1 2051   1.473   2.108   0.646 -0.7618 -0.8009  0.7644
  684SOL    HW2 2052   1.343   2.119   0.538  1.4779  0.7853 -0.4831
  685SOL     OW 2053   2.255   2.071   1.982  0.2799  0.0454 -0.0125
  685SOL    HW1 2054   2.289   1.974   1.977  2.5807  1.3133  0.8509
  685SOL    HW2 2055   2.276   2.115   2.073 -0.8286 -1.9883  0.2874
  686SOL     OW 2056   1.561   1.881   2.945 -0.0729  0.0088  0.4478
  686SOL    HW1 2057   1.576   1.841   3.037 -0.6016  1.1805  1.0547
  686SOL    HW2 2058   1.481   1.835   2.896 -0.8323  0.6521 -0.2221
  687SOL     OW 2059   1.375   2.408   1.959 -0.2658 -0.5240 -0.2194
  687SOL    HW1 2060   1.400   2.305   1.941 -1.8831 -1.1520 -0.2049
  687SOL    HW2 2061   1.340   2.431   2.052  1.6008 -0.3896 -0.7419
  688SOL     OW 2062   2.070   1.484   1.717  0.5060  0.1410  0.2214
  688SOL    HW1 2063   2.161   1.535   1.706 -0.3702 -0.1318  0.8586
  688SOL    HW2 2064   2.035   1.450   1.625 -0.0861 -1.5327  0.5935
  689SOL     OW 2065   2.370   1.124   2.782  0.1105 -0.1844 -0.0729
  689SOL    HW1 2066   2.277   1.081   2.774  1.2534  2.5258 -0.0754
  689SOL    HW2 2067   2.412   1.104   2.871  0.2375  2.0936 -1.1756
  690SOL     OW 2068   2.208   2.743   0.064 -0.1919  0.1720  0.6555
  690SOL    HW1 2069   2.156   2.751  -0.025  2.0244 -0.4740 -1.4162
  690SOL    HW2 2070   2.156   2.709   0.140 -0.7593 -1.4954  2.7814
  691SOL     OW 2071   2.566   0.396   2.126 -0.1336  0.0955  0.5100
  691SOL    HW1 2072   2.636   0.322   2.143  0.0512  0.4614  1.0553
  691SOL    HW2 2073   2.600   0.466   2.056 -0.0342  2.7270 -1.3179
  692SOL     OW 2074   2.666   1.203   0.758  0.0396  0.6447  0.4427
  692SOL    HW1 2075   2.572   1.236   0.723 -1.7044  1.2132 -0.7783
  692SOL    HW2 2076   2.717   1.278   0.812  0.4261  0.9413 -0.0514
  693SOL     OW 2077   2.879   2.929   0.617 -0.4633 -0.0599 -0.7582
  693SOL    HW1 2078   2.903   3.000   0.690  1.0560 -0.8185 -0.7919
  693SOL    HW2 2079   2.862   2.971   0.522  2.0725  0.4720  0.3806
  694SOL     OW 2080   2.377   2.219   0.135  0.5441  0.0024  0.3138
  694SOL    HW1 2081   2.370   2.316   0.185  1.1539  0.6146 -0.1475
  694SOL    HW2 2082   2.285   2.192   0.096  1.5066  0.7530  2.0024
  695SOL     OW 2083   0.497   2.997   1.476 -0.3863 -0.1598 -0.3131
  695SOL    HW1 2084   0.445   2.936   1.410 -1.8943 -2.8633  0.4888
  695SOL    HW2 2085   0.438   3.039   1.551 -1.1939  2.9071  1.7354
  696SOL     OW 2086   2.753   1.974   0.767  0.3111  0.0838 -0.4159
  696SOL    HW1 2087   2.824   1.899   0.798  1.2800 -1.1204 -1.4983
  696SOL    HW2 2088   2.758   2.002   0.666  0.4151  0.2735  1.0156
  697SOL     OW 2089   1.674   1.858   1.808  0.3132  0.2281  0.2242
  697SOL    HW1 2090   1.755   1.821   1.763 -1.1104  0.3184  0.5406
  697SOL    HW2 2091   1.679   1.962   1.825 -0.0721  0.1235 -1.1464
  698SOL     OW 2092   2.914   0.425   2.667  0.3099  0.1179 -0.4938
  698SOL    HW1 2093   2.958   0.408   2.571  1.1431  1.3476 -1.0777
  698SOL    HW2 2094   2.964   0.367   2.741 -0.1919 -0.2134 -0.7487
  699SOL     OW 2095   1.611   0.080   2.921 -0.9486 -0.1737  0.2902
  699SOL    HW1 2096   1.553   0.004   2.873 -0.8209 -1.1391 -0.1861
  699SOL    HW2 2097   1.655   0.151   2.859 -0.9517  0.2667 -0.0314
  700SOL     OW 2098   0.997   2.243   1.344 -0.4900 -0.2373  0.2870
  700SOL    HW1 2099   1.071   2.174   1.303  0.0989 -1.0459 -0.4530
  700SOL    HW2 2100   0.908   2.191   1.334  1.1905 -0.4901  1.0372
  701SOL     OW 2101   1.911   2.871   0.037  0.2331 -0.2809  0.6930
  701SOL    HW1 2102   1.915   2.824   0.129 -1.3891 -3.8570  1.2201
  701SOL    HW2 2103   1.938   2.973   0.027 -0.9469  0.1463 -1.9795
  702SOL     OW 2104   2.096   1.349   1.963 -0.1474 -0.2355  0.2989
  702SOL    HW1 2105   2.185   1.292   1.972  0.5329 -0.8667  2.4540
  702SOL    HW2 2106   2.087   1.398   1.868  0.8139  0.7459 -1.8058
  703SOL     OW 2107   1.954   0.885   1.477 -0.5991 -0.2572  0.6638
  703SOL    HW1 2108   1.936   0.783   1.494  1.6100 -0.0971 -0.4684
  703SOL    HW2 2109   2.003   0.933   1.558 -0.7514  1.0461  1.4676
  704SOL     OW 2110   0.326   2.071   1.735 -0.1857  0.0459 -0.6378
  704SOL    HW1 2111   0.368   2.020   1.814 -0.3311 -0.1483  0.9028
  704SOL    HW2 2112   0.394   2.108   1.665 -0.2672 -2.3668 -0.4443
  705SOL     OW 2113   2.455   1.424   0.901 -0.6243  0.4049  0.3416
  705SOL    HW1 2114   2.428   1.379   0.812 -0.8935  0.7734  0.1277
  705SOL    HW2 2115   2.553   1.406   0.928 -0.8223 -0.1873  1.1736
  706SOL     OW 2116   0.604   1.711   1.807  0.6072 -0.2472  0.1681
  706SOL    HW1 2117   0.637   1.675   1.713  0.8809 -0.5375  0.1399
  706SOL    HW2 2118   0.671   1.689   1.880  2.0914 -1.8217  2.4758
  707SOL     OW 2119   2.341   1.215   1.973 -0.2616  0.1600  0.4770
  707SOL    HW1 2120   2.445   1.196   1.989  1.5127  1.9778 -0.1378
  707SOL    HW2 2121   2.281   1.136   1.997  1.9251 -1.2316  1.8402
  708SOL     OW 2122   3.008   0.509   3.065 -0.2313 -0.4618  0.7116
  708SOL    HW1 2123   3.107   0.548   3.046  2.2792 -1.1122  0.1748
  708SOL    HW2 2124   2.970   0.457   2.983 -0.7479 -1.0253 -2.3820
  709SOL     OW 2125   1.869   1.898   0.383  0.2754  0.2023 -0.0762
  709SOL    HW1 2126   1.836   1.995   0.397  0.4961 -1.2314 -1.1922
  709SOL    HW2 2127   1.853   1.865   0.286 -0.5555 -0.7025  1.8182
  710SOL     OW 2128   1.757   1.563   2.453  0.1255  0.5720 -0.3842
  710SOL    HW1 2129   1.831   1.508   2.401 -0.5130  0.6367  0.7219
  710SOL    HW2 2130   1.755   1.530   2.549  0.2279 -1.0486 -2.1161
  711SOL     OW 2131   2.698   2.865   0.962 -0.1675  0.0543 -0.2005
  711SOL    HW1 2132   2.634   2.943   0.929 -1.3661  1.6978 -2.6041
  711SOL    HW2 2133   2.800   2.895   0.975  1.1913  2.0008 -2.0045
  712SOL     OW 2134   1.383   2.114   1.955  0.3336 -0.0070  0.1547
  712SOL    HW1 2135   1.468   2.056   1.946 -1.3924  0.2187  0.9967
  712SOL    HW2 2136   1.305   2.093   1.882  0.5453  1.9814 -0.4922
  713SOL     OW 2137   2.790   1.418   2.514  0.0434 -0.4055  0.0457
  713SOL    HW1 2138   2.804   1.316   2.500  1.7982  0.7165 -1.0121
  713SOL    HW2 2139   2.716   1.447   2.583  0.4082  1.3936 -1.4680
  714SOL     OW 2140   2.677   0.473   2.359 -0.0940  0.7626  0.1363
  714SOL    HW1 2141   2.625   0.434   2.437  5.4528 -4.0782 -0.0389
  714SOL    HW2 2142   2.636   0.458   2.263  2.0666  0.4026  1.3538
  715SOL     OW 2143   1.583   2.160   1.150 -0.4921 -0.0657  0.4863
  715SOL    HW1 2144   1.496   2.170   1.101  1.7592  1.0547 -1.8758
  715SOL    HW2 2145   1.579   2.171   1.255  0.0913 -0.2660  0.8998
  716SOL     OW 2146   1.268   0.115   1.531  0.3624  0.4820 -0.3194
  716SOL    HW1 2147   1.160   0.124   1.523 -0.6232 -1.9054  0.2954
  716SOL    HW2 2148   1.308   0.199   1.476  1.5586  0.2497 -1.2224
  717SOL     OW 2149   1.168   0.573   1.634  0.3203  0.2282  0.0681
  717SOL    HW1 2150   1.265   0.608   1.656  1.0308  1.2668 -1.0297
  717SOL    HW2 2151   1.148   0.544   1.539 -0.9551 -0.5848  2.0520
  718SOL     OW 2152   0.655   0.888   0.955  0.2046 -0.7806 -0.0009
  718SOL    HW1 2153   0.632   0.896   0.853  0.7327  0.0597  0.6379
  718SOL    HW2 2154   0.637   0.976   1.016  0.6858  0.1909  1.5270
  719SOL     OW 2155   0.702   1.719   2.262 -0.3399  0.2752 -0.2077
  719SOL    HW1 2156   0.769   1.764   2.330 -3.2174  2.0859 -1.1691
  719SOL    HW2 2157   0.651   1.639   2.298 -2.2347  0.5260  0.9002
  720SOL     OW 2158   2.182   1.153   0.265  1.0123  0.0918 -0.3023
  720SOL    HW1 2159   2.257   1.097   0.223  0.2758 -0.3371 -1.2951
  720SOL    HW2 2160   2.177   1.132   0.369  0.3049 -1.1232  1.0056
  721SOL     OW 2161   2.255   2.992   2.142 -0.2352  0.9040 -0.2701
  721SOL    HW1 2162   2.262   3.020   2.040  1.6328  0.9833 -3.2772
  721SOL    HW2 2163   2.165   3.021   2.178 -0.9089  1.9729  0.8885
  722SOL     OW 2164   2.360   1.692   0.539  0.0409 -0.4771  0.1720
  722SOL    HW1 2165   2.419   1.685   0.455 -2.5221  0.2163  1.8700
  722SOL    HW2 2166   2.261   1.720   0.519  0.8847 -0.2936  3.1990
  723SOL     OW 2167   2.649   2.772   1.946 -0.1396  0.2337  0.1016
  723SOL    HW1 2168   2.684   2.865   1.978  0.5655 -1.6157  0.2083
  723SOL    HW2 2169   2.565   2.742   1.994  1.9500  2.2780  0.7742
  724SOL     OW 2170   0.379   2.509   2.418  0.1652  0.1591 -0.1698
  724SOL    HW1 2171   0.277   2.514   2.418  1.8013 -1.0243 -3.5398
  724SOL    HW2 2172   0.413   2.469   2.513 -3.4468 -0.5703  2.4651
  725SOL     OW 2173   2.472   2.837   1.436  0.0220  0.4231  0.2511
  725SOL    HW1 2174   2.493   2.856   1.333 -1.3724  4.8137 -1.6536
  725SOL    HW2 2175   2.499   2.745   1.464  0.8492  0.3200 -2.2770
  726SOL     OW 2176   2.522   2.334   0.695  0.4627 -0.3222 -0.5067
  726SOL    HW1 2177   2.482   2.430   0.672 -0.5139  2.1885 -1.2371
  726SOL    HW2 2178   2.490   2.264   0.622  0.5273  1.1046  1.4436
  727SOL     OW 2179   0.112   3.095   0.108 -0.3029  0.3795 -0.6444
  727SOL    HW1 2180   0.208   3.121   0.089 -0.7366 -1.6077  0.1573
  727SOL    HW2 2181   0.089   3.001   0.064  1.5879  1.7982  0.4079
  728SOL     OW 2182   2.894   0.734   0.957  0.0618 -0.4473 -0.3040
  728SOL    HW1 2183   2.846   0.713   0.867 -2.7566 -0.5020 -0.7458
  728SOL    HW2 2184   2.863   0.674   1.038 -2.3143 -0.4789 -0.6350
  729SOL     OW 2185   0.025   2.569   0.775  0.4779 -0.4013 -0.2084
  729SOL    HW1 2186   0.056   2.523   0.861  0.3347  2.2648 -0.9175
  729SOL    HW2 2187   0.098   2.569   0.703 -0.3794  0.6424  4.5429
  730SOL     OW 2188   2.570   0.707   0.881  0.0568 -0.1193  0.0959
  730SOL    HW1 2189   2.574   0.811   0.897  0.3744 -0.9213  0.3835
  730SOL    HW2 2190   2.628   0.673   0.801 -0.8830 -1.3676  0.9447
  731SOL     OW 2191   3.088   2.211   2.326  0.1265 -0.4135 -0.1814
  731SOL    HW1 2192   3.053   2.220   2.424  0.2628  0.0247  1.2309
  731SOL    HW2 2193   3.036   2.269   2.262  0.2405 -2.1008 -0.2064
  732SOL     OW 2194   1.282   2.751   1.976 -0.5303 -0.0948  0.1582
  732SOL    HW1 2195   1.290   2.681   2.055 -1.5576 -1.0205  0.1536
  732SOL    HW2 2196   1.262   2.705   1.885 -0.5729 -1.0536  0.7630
  733SOL     OW 2197   0.026   0.609   2.253  0.0212 -0.1056 -0.1044
  733SOL    HW1 2198   0.084   0.668   2.190 -1.6251  2.2179  0.3758
  733SOL    HW2 2199  -0.035   0.545   2.201 -1.2223  1.4140  0.9683
  734SOL     OW 2200   1.472   0.404   2.716 -0.3617  0.1912  0.1331
  734SOL    HW1 2201   1.485   0.489   2.772  0.8251 -0.9192  0.8779
  734SOL    HW2 2202   1.375   0.369   2.721 -1.5525  4.1577  1.7379
  735SOL     OW 2203   2.958   2.631   2.300  0.2035  0.1243 -0.2018
  735SOL    HW1 2204   2.940   2.592   2.208  1.4729 -1.2088  2.6865
  735SOL    HW2 2205   3.008   2.725   2.304  0.8733 -0.3649  1.8036
  736SOL     OW 2206   0.911   0.403   2.554  0.4630  0.3667  0.0810
  736SOL    HW1 2207   0.807   0.423   2.564  0.9627 -1.6891  1.0646
  736SOL    HW2 2208   0.924   0.370   2.457  1.2791 -0.1722  0.6688
  737SOL     OW 2209   2.657   0.457   2.776 -0.6661 -0.4061 -0.3649
  737SOL    HW1 2210   2.654   0.423   2.879  0.3417  1.1906  0.8713
  737SOL    HW2 2211   2.753   0.456   2.746 -0.0212 -1.1181  2.6265
  738SOL     OW 2212   1.748   1.222   2.933 -0.2877  0.3353  0.3681
  738SOL    HW1 2213   1.846   1.208   2.907 -0.4335 -2.6456 -0.2865
  738SOL    HW2 2214   1.700   1.129   2.944  0.3701 -0.5121  2.2095
  739SOL     OW 2215   1.837   0.716   0.599 -0.0696 -0.3303 -0.1220
  739SOL    HW1 2216   1.844   0.712   0.700  0.9084  1.8208 -1.2094
  739SOL    HW2 2217   1.828   0.618   0.555  0.8884 -2.9178  0.3366
  740SOL     OW 2218   1.969   1.939   2.346  0.3689 -0.0139 -0.0482
  740SOL    HW1 2219   2.039   1.871   2.371  1.3771 -0.1189  1.8060
  740SOL    HW2 2220   1.903   1.904   2.267 -1.9306 -0.3834 -1.9876
  741SOL     OW 2221   2.545   0.069   2.464 -0.2414 -1.2666 -0.1781
  741SOL    HW1 2222   2.647   0.092   2.453  0.2098 -0.6322  3.8758
  741SOL    HW2 2223   2.487   0.089   2.380  0.2169  1.1488  0.0229
  742SOL     OW 2224   2.197   1.428   0.189 -0.4786 -0.7399  0.2090
  742SOL    HW1 2225   2.107   1.462   0.154 -1.2125 -3.6711  1.7177
  742SOL    HW2 2226   2.196   1.324   0.220  1.1957 -0.1255 -0.7877
  743SOL     OW 2227   1.832   0.623   2.597  0.3067 -0.2460  0.9198
  743SOL    HW1 2228   1.818   0.543   2.531 -1.1187 -0.6023  0.2753
  743SOL    HW2 2229   1.751   0.632   2.657 -0.9019  0.7350  1.4852
  744SOL     OW 2230   2.636   2.156   0.129 -0.5982  0.8313 -0.6287
  744SOL    HW1 2231   2.545   2.173   0.173  2.0772 -2.1447  1.6160
  744SOL    HW2 2232   2.634   2.057   0.104  0.4756 -1.0876  1.0550
  745SOL     OW 2233   2.178   2.520   2.221  0.4544  0.4641  0.1647
  745SOL    HW1 2234   2.110   2.555   2.148 -2.6471  1.9324  0.6817
  745SOL    HW2 2235   2.135   2.504   2.310  1.9258  0.9204 -1.1579
  746SOL     OW 2236   0.002   2.573   1.763  0.4916  0.1964 -0.3211
  746SOL    HW1 2237   0.099   2.538   1.739  2.2650  2.1439 -0.6860
  746SOL    HW2 2238   0.002   2.646   1.837  0.1104 -1.5824  1.4990
  747SOL     OW 2239   0.008   1.790   1.654  0.3652  0.3248 -0.7557
  747SOL    HW1 2240  -0.055   1.707   1.642  0.9554 -0.5461  4.0210
  747SOL    HW2 2241   0.064   1.825   1.576  1.2185 -2.0004  2.2212
  748SOL     OW 2242   1.831   2.704   2.926  0.5528  0.4112 -0.5579
  748SOL    HW1 2243   1.869   2.772   2.987  1.4991 -1.4778 -1.9354
  748SOL    HW2 2244   1.733   2.710   2.904 -1.0165 -0.2479  1.3100
  749SOL     OW 2245   1.298   2.929   0.827  0.5321  0.4373  0.2921
  749SOL    HW1 2246   1.223   3.006   0.815 -1.3787 -1.6114  0.4173
  749SOL    HW2 2247   1.393   2.953   0.799  1.0652  2.6336 -0.5396
  750SOL     OW 2248   2.248   0.190   1.858 -0.4198 -0.2622 -0.5312
  750SOL    HW1 2249   2.300   0.239   1.779 -0.5951 -2.2655 -0.2710
  750SOL    HW2 2250   2.263   0.242   1.952 -0.4345 -1.8372  2.8778
  751SOL     OW 2251   0.787   2.151   2.902 -0.5076 -0.2319 -0.1698
  751SOL    HW1 2252   0.869   2.148   2.963 -0.6523 -4.2640 -0.8031
  751SOL    HW2 2253   0.707   2.094   2.944 -0.3294 -0.8455 -1.7623
  752SOL     OW 2254   1.347   0.801   1.162 -0.3947  0.2579  0.4126
  752SOL    HW1 2255   1.385   0.895   1.176 -0.7425  0.2103  1.0216
  752SOL    HW2 2256   1.394   0.727   1.220 -0.3824  1.2691  1.3349
  753SOL     OW 2257   0.982   2.568   1.782 -0.6575 -0.6500 -0.1633
  753SOL    HW1 2258   1.091   2.581   1.778  2.9492 -0.7013 -1.5904
  753SOL    HW2 2259   0.931   2.660   1.805 -2.0807  2.0066  1.3092
  754SOL     OW 2260   1.169   1.157   2.994  0.5543 -0.5061 -0.2585
  754SOL    HW1 2261   1.219   1.082   2.945  0.5013 -0.0674 -0.5438
  754SOL    HW2 2262   1.222   1.244   2.997 -0.0986 -0.0877 -1.3992
  755SOL     OW 2263   1.969   0.473   2.211 -0.1014 -0.2315  0.2157
  755SOL    HW1 2264   2.041   0.410   2.229 -1.9402  0.7458 -2.0489
  755SOL    HW2 2265   1.885   0.445   2.269  0.8252 -0.6049  0.7528
  756SOL     OW 2266   2.502   0.973   2.997 -0.2943 -0.5416  0.2281
  756SOL    HW1 2267   2.600   0.950   3.008  0.0397  1.3402  1.1524
  756SOL    HW2 2268   2.432   0.898   3.017 -2.2550  0.4941 -1.2331
  757SOL     OW 2269   0.100   0.429   1.967 -0.3260  0.1786 -0.1369
  757SOL    HW1 2270   0.175   0.360   2.008  0.8891 -0.0481 -0.1662
  757SOL    HW2 2271   0.009   0.405   2.008 -0.0304 -2.1628  2.6358
  758SOL     OW 2272   2.297   0.069   1.481 -0.9014  0.1206  0.5870
  758SOL    HW1 2273   2.283  -0.036   1.496 -1.3323  0.0912  0.4225
  758SOL    HW2 2274   2.278   0.105   1.386  0.2494 -0.7883 -1.0617
  759SOL     OW 2275   1.701   0.100   0.079  0.0452 -0.6738 -0.7956
  759SOL    HW1 2276   1.652   0.107  -0.012  0.4515 -0.0120  2.5551
  759SOL    HW2 2277   1.803   0.082   0.071 -0.6548 -0.8987 -1.5840
  760SOL     OW 2278   2.705   2.011   2.846 -0.3057 -0.2259  0.3457
  760SOL    HW1 2279   2.634   2.063   2.895 -0.0486  0.4942 -1.4198
  760SOL    HW2 2280   2.794   2.065   2.857 -1.0831  2.5096 -1.2035
  761SOL     OW 2281   1.921   1.772   1.706 -0.1530 -0.2561 -0.0487
  761SOL    HW1 2282   1.944   1.679   1.748 -2.9441 -1.3797  1.0558
  761SOL    HW2 2283   1.857   1.762   1.625 -0.2443 -3.7161 -1.1430
  762SOL     OW 2284   0.492   2.417   0.933 -0.3390  0.3953 -0.0538
  762SOL    HW1 2285   0.545   2.432   0.843  1.2695  0.0022 -1.6485
  762SOL    HW2 2286   0.562   2.416   1.013 -0.6084 -0.1086  1.3018
  763SOL     OW 2287   2.132   1.606   2.992  0.0621 -0.0427 -0.4096
  763SOL    HW1 2288   2.222   1.559   3.006 -2.8220  2.6712  1.0012
  763SOL    HW2 2289   2.055   1.554   3.042  0.6611 -0.4777  1.0509
  764SOL     OW 2290   0.669   0.598   0.668 -0.2584  0.0919  0.1762
  764SOL    HW1 2291   0.576   0.558   0.645  0.7369  0.8511  0.5460
  764SOL    HW2 2292   0.698   0.567   0.758 -1.7338  0.5415 -0.9746
  765SOL     OW 2293   0.817   0.314   0.723  0.0748  0.5708 -0.3631
  765SOL    HW1 2294   0.827   0.362   0.627  0.7033  0.8257  0.2676
  765SOL    HW2 2295   0.791   0.379   0.795  1.5555  0.7823  1.1082
  766SOL     OW 2296   2.914   2.170   3.050  0.2303 -0.1659  0.0529
  766SOL    HW1 2297   2.826   2.185   3.100 -1.9327  1.3146 -1.6888
  766SOL    HW2 2298   2.983   2.245   3.078 -2.0780 -0.3377  1.9112
  767SOL     OW 2299   2.834   1.604   0.566  0.1049 -0.2701  0.3148
  767SOL    HW1 2300   2.758   1.622   0.636  0.5902  0.2067  0.0575
  767SOL    HW2 2301   2.927   1.628   0.599 -1.6444  0.9922 -0.3247
  768SOL     OW 2302   1.033   0.200   0.177  0.7359 -0.2317  0.0764
  768SOL    HW1 2303   1.014   0.267   0.254 -1.5644  0.6142 -2.4719
  768SOL    HW2 2304   1.121   0.146   0.187  1.5034 -1.3973  1.2918
  769SOL     OW 2305   1.129   1.811   2.286  0.3814 -0.0634 -0.2572
  769SOL    HW1 2306   1.053   1.864   2.337 -1.6040  3.4425  1.1451
  769SOL    HW2 2307   1.211   1.800   2.344 -0.4078  1.0930  1.1005
  770SOL     OW 2308   0.178   1.156   2.328  0.1295  0.0710  0.4709
  770SOL    HW1 2309   0.149   1.210   2.408  3.3580 -0.3204  0.2897
  770SOL    HW2 2310   0.094   1.110   2.285 -1.3805  1.3931  1.1384
  771SOL     OW 2311   3.059   2.807   1.910 -0.4638  0.6050  0.3436
  771SOL    HW1 2312   3.009   2.840   1.822 -0.9240 -2.9188  0.9941
  771SOL    HW2 2313   3.021   2.842   1.999  3.1289  0.1000 -0.1437
  772SOL     OW 2314   2.353   0.222   2.855 -0.1659  0.6324  0.2763
  772SOL    HW1 2315   2.420   0.180   2.789 -1.6319 -0.5459 -0.0958
  772SOL    HW2 2316   2.407   0.257   2.938 -0.4654 -0.5571 -2.6017
  773SOL     OW 2317   0.577   2.071   2.416  0.4932 -0.5779  0.2295
  773SOL    HW1 2318   0.560   2.144   2.343 -2.6711  0.0300 -0.1645
  773SOL    HW2 2319   0.494   2.003   2.435  0.1022  0.0478  3.0119
  774SOL     OW 2320   2.122   0.013   2.591  0.3764  0.0029 -0.3100
  774SOL    HW1 2321   2.131   0.109   2.624  2.4034 -1.2312 -0.1173
  774SOL    HW2 2322   2.170  -0.058   2.652 -0.9136  1.6827  3.2730
  775SOL     OW 2323   2.568   2.904   2.234 -0.4320  0.6148 -0.0473
  775SOL    HW1 2324   2.469   2.944   2.251  0.8481 -0.0143 -1.5286
  775SOL    HW2 2325   2.631   2.906   2.317 -0.8738 -0.5817  1.5732
  776SOL     OW 2326   0.018   1.238   0.202  0.2310  0.3611  0.0544
  776SOL    HW1 2327  -0.025   1.196   0.115  0.4295 -2.5960  0.9711
  776SOL    HW2 2328  -0.046   1.260   0.283  1.7602 -0.4458 -1.7223
  777SOL     OW 2329   0.395   2.981   0.496  0.1079 -0.5614 -0.2828
  777SOL    HW1 2330   0.311   2.951   0.446  2.5435 -0.2542  2.3772
  777SOL    HW2 2331   0.438   2.914   0.558  1.6313  1.2123 -2.4927
  778SOL     OW 2332   1.392   2.002   0.273 -0.2430  0.5397 -0.7582
  778SOL    HW1 2333   1.308   2.050   0.310  2.3855 -0.3102  0.1709
  778SOL    HW2 2334   1.409   2.036   0.176  2.3136  2.9077  1.1239
  779SOL     OW 2335   0.145   0.805   0.463  0.0856 -0.0183  0.3885
  779SOL    HW1 2336   0.084   0.740   0.411  0.8869 -1.1041 -1.4921
  779SOL    HW2 2337   0.090   0.883   0.518 -0.8047  1.8835 -0.1717
  780SOL     OW 2338   0.120   0.325   2.335  0.2677 -0.0559 -0.1192
  780SOL    HW1 2339   0.098   0.386   2.417  1.5947  0.2084 -0.6922
  780SOL    HW2 2340   0.214   0.341   2.297 -1.6440  0.0973 -0.9247
  781SOL     OW 2341   0.677   1.653   1.532  0.3907  0.4085 -0.5858
  781SOL    HW1 2342   0.727   1.571   1.573 -0.3581  0.7392  1.4301
  781SOL    HW2 2343   0.576   1.634   1.515  0.6885 -0.2495  1.4443
  782SOL     OW 2344   2.581   0.037   0.915 -0.2937  0.2642  0.2282
  782SOL    HW1 2345   2.492   0.042   0.859  0.3314  0.6837 -0.2894
  782SOL    HW2 2346   2.566   0.067   1.016  0.8052  5.3947  0.0245
  783SOL     OW 2347   2.752   0.738   2.447  0.2740 -0.2949  0.5953
  783SOL    HW1 2348   2.718   0.757   2.547 -1.8978  1.0536  1.5427
  783SOL    HW2 2349   2.727   0.643   2.405 -0.6588  0.1632 -0.7619
  784SOL     OW 2350   1.425   2.110   0.022  0.1569  0.3620  0.5329
  784SOL    HW1 2351   1.412   2.189   0.084 -1.8037  0.3188 -1.9938
  784SOL    HW2 2352   1.424   2.137  -0.083 -0.1987 -0.2094 -3.3858
  785SOL     OW 2353   2.087   0.283   3.090  0.0043  0.4709 -0.2546
  785SOL    HW1 2354   2.002   0.328   3.141 -1.9940  1.4517 -0.0727
  785SOL    HW2 2355   2.129   0.347   3.020 -0.0967 -0.1349  0.9870
  786SOL     OW 2356   2.059   2.197   2.270  0.2713 -0.3368  0.2539
  786SOL    HW1 2357   2.029   2.094   2.293 -1.1235 -0.8264 -1.9440
  786SOL    HW2 2358   2.159   2.211   2.274 -0.2472  1.7483  0.5794
  787SOL     OW 2359   1.385   0.540   0.871 -0.1997  0.2181 -0.2611
  787SOL    HW1 2360   1.311   0.618   0.868  0.3103 -0.5896 -2.8019
  787SOL    HW2 2361   1.445   0.538   0.787 -1.3731  0.0890  1.9216
  788SOL     OW 2362   1.209   0.430   0.015  0.3504 -0.4058  0.0684
  788SOL    HW1 2363   1.122   0.389  -0.026  4.0433 -1.0531 -3.5934
  788SOL    HW2 2364   1.194   0.501   0.088 -1.8056 -0.5392 -0.9050
  789SOL     OW 2365   2.552   0.118   1.967 -0.8281  0.1446 -0.1466
  789SOL    HW1 2366   2.501   0.083   1.885  1.1664  1.0349  0.6303
  789SOL    HW2 2367   2.624   0.045   2.004 -1.3056  1.5499 -0.8450
  790SOL     OW 2368   2.630   2.766   0.705 -0.1253 -0.1304 -0.2067
  790SOL    HW1 2369   2.687   2.838   0.654 -0.6481 -0.0365  1.3750
  790SOL    HW2 2370   2.629   2.782   0.803  1.1135 -0.1555 -0.3607
  791SOL     OW 2371   1.921   1.193   0.161 -0.0277  0.2481  0.3711
  791SOL    HW1 2372   1.852   1.157   0.224  2.1509 -0.7622 -0.4008
  791SOL    HW2 2373   2.010   1.177   0.204 -1.0885  0.6909  3.1344
  792SOL     OW 2374   0.431   1.789   2.194 -0.0328 -0.5970 -0.3823
  792SOL    HW1 2375   0.510   1.843   2.231 -1.9093 -1.2863 -1.7850
  792SOL    HW2 2376   0.425   1.692   2.228  2.7834  0.2087  0.7754
  793SOL     OW 2377   2.115   1.613   2.068  0.7604 -0.1065 -0.0912
  793SOL    HW1 2378   2.197   1.669   2.034 -0.0528 -0.4106 -0.2316
  793SOL    HW2 2379   2.107   1.517   2.034 -0.9352 -0.1247 -0.2539
  794SOL     OW 2380   0.489   1.514   2.282  0.2966 -0.7810  0.2773
  794SOL    HW1 2381   0.492   1.429   2.219 -0.3833 -1.5927 -0.4586
  794SOL    HW2 2382   0.431   1.494   2.369 -0.8982 -3.6546 -0.7612
  795SOL     OW 2383   2.490   2.237   1.807  0.3386  0.2394  0.2730
  795SOL    HW1 2384   2.488   2.226   1.906 -1.9030 -0.1318  0.6197
  795SOL    HW2 2385   2.423   2.175   1.757  1.2431 -0.8425 -1.3009
  796SOL     OW 2386   3.073   1.103   2.686 -0.1653 -0.3001 -0.8274
  796SOL    HW1 2387   2.980   1.105   2.727  0.1374  1.7045  0.1817
  796SOL    HW2 2388   3.150   1.106   2.756  1.9160 -3.2629 -1.1080
  797SOL     OW 2389   0.808   0.642   1.436  0.2881 -0.0741 -0.3441
  797SOL    HW1 2390   0.890   0.694   1.479  1.7237  0.5097 -2.5443
  797SOL    HW2 2391   0.777   0.692   1.347 -2.2547 -0.4475 -0.8956
  798SOL     OW 2392   1.319   0.437   1.185  0.0163 -0.0411  0.0556
  798SOL    HW1 2393   1.359   0.398   1.270  0.3770 -0.6036 -1.9446
  798SOL    HW2 2394   1.380   0.427   1.104 -1.7195 -0.7933  1.4310
  799SOL     OW 2395   1.962   2.650   1.048  0.0962 -0.1953 -0.2939
  799SOL    HW1 2396   1.869   2.625   1.086  0.8898  0.4330  2.3816
  799SOL    HW2 2397   1.953   2.694   0.952 -0.5936 -0.8376 -2.4023
  800SOL     OW 2398   3.053   0.622   1.815 -0.4725  0.0688  0.5988
  800SOL    HW1 2399   3.029   0.704   1.878 -1.8594 -1.6174  1.7755
  800SOL    HW2 2400   3.118   0.552   1.856 -0.8366 -0.3923  3.2169
  801SOL     OW 2401   1.902   2.176   0.177  0.2714  0.6496 -0.7502
  801SOL    HW1 2402   1.825   2.135   0.117 -0.6467  1.5985 -1.0690
  801SOL    HW2 2403   1.999   2.163   0.145 -1.5835 -0.7547  0.1776
  802SOL     OW 2404   0.750   0.793   2.590  0.1326 -0.4756  0.0976
  802SOL    HW1 2405   0.818   0.767   2.520 -1.1139  0.2357  1.1152
  802SOL    HW2 2406   0.656   0.753   2.569 -3.4309 -0.3823  1.2890
  803SOL     OW 2407   0.889   0.170   0.936  0.1807 -0.1489 -0.4849
  803SOL    HW1 2408   0.969   0.235   0.965 -0.4314  2.6748  1.0859
  803SOL    HW2 2409   0.855   0.199   0.840 -1.3358  1.3969  1.0135
  804SOL     OW 2410   0.421   3.007   2.100 -0.1449  0.5718  0.4984
  804SOL    HW1 2411   0.345   3.075   2.071 -1.7830 -0.5387  0.6155
  804SOL    HW2 2412   0.402   2.909   2.066  1.2521 -0.9860  0.7832
  805SOL     OW 2413   2.437   0.283   0.285 -0.3909 -0.9403 -0.3823
  805SOL    HW1 2414   2.535   0.302   0.298  0.8391  0.6417 -0.6871
  805SOL    HW2 2415   2.410   0.263   0.190  1.8234  0.7611  0.2380
  806SOL     OW 2416   0.680   2.399   1.675 -0.1326  0.6676  0.1254
  806SOL    HW1 2417   0.670   2.487   1.726 -0.4509 -0.9853  0.1768
  806SOL    HW2 2418   0.774   2.389   1.634 -1.3897 -1.2868  1.2096
  807SOL     OW 2419   2.491   0.922   0.429 -0.9572  0.4372 -0.1159
  807SOL    HW1 2420   2.588   0.897   0.449 -0.2795  1.4451  0.8356
  807SOL    HW2 2421   2.473   0.910   0.330 -1.3608 -1.4268 -1.2567
  808SOL     OW 2422   0.570   2.005   2.990  0.1284  0.2670 -0.2720
  808SOL    HW1 2423   0.579   2.007   3.094  3.5613  1.2779 -0.0503
  808SOL    HW2 2424   0.529   1.921   2.952  0.0199  1.9498  1.2642
  809SOL     OW 2425   2.669   1.985   1.931 -0.8583 -0.0068  0.7552
  809SOL    HW1 2426   2.747   2.055   1.912  0.8896 -0.7703  1.8241
  809SOL    HW2 2427   2.658   1.921   1.849 -0.7911  0.2603  1.8535
  810SOL     OW 2428   2.080   1.133   0.531 -0.4848  0.1363 -0.4918
  810SOL    HW1 2429   2.058   1.064   0.610  0.5749 -1.8910  2.1953
  810SOL    HW2 2430   2.040   1.227   0.546 -2.1259  1.4177  0.3675
  811SOL     OW 2431   1.273   2.402   1.222 -0.1922  0.4385  0.2950
  811SOL    HW1 2432   1.256   2.298   1.224 -0.0403  0.7693  1.2007
  811SOL    HW2 2433   1.227   2.441   1.135 -1.0886  0.4166  0.3042
  812SOL     OW 2434   1.372   0.780   1.966  0.3173  0.0616 -0.4020
  812SOL    HW1 2435   1.436   0.840   2.027 -0.6080 -1.1565  2.7886
  812SOL    HW2 2436   1.276   0.821   1.953 -0.0940  0.1550 -1.5614
  813SOL     OW 2437   1.737   2.053   2.485 -0.1392  0.8755 -0.2065
  813SOL    HW1 2438   1.834   2.013   2.465  4.0386 -2.5566 -1.3277
  813SOL    HW2 2439   1.686   2.081   2.400  0.7528  2.1261  0.4583
  814SOL     OW 2440   2.858   1.544   2.907 -0.5307 -0.5806 -0.1317
  814SOL    HW1 2441   2.957   1.557   2.938  0.4725  2.1668 -1.0883
  814SOL    HW2 2442   2.824   1.623   2.851  0.1342 -1.5808 -1.0095
  815SOL     OW 2443   2.238   2.895   2.728  0.0420  0.4049  0.2483
  815SOL    HW1 2444   2.188   2.809   2.763 -0.5957 -0.3983 -4.3846
  815SOL    HW2 2445   2.339   2.874   2.720  1.5376  0.8869 -0.6431
  816SOL     OW 2446   1.751   0.357   1.693 -0.2557  0.0459  0.1368
  816SOL    HW1 2447   1.653   0.361   1.721  0.9599  1.3596  1.2945
  816SOL    HW2 2448   1.814   0.356   1.778  0.9549  0.8162 -0.8194
  817SOL     OW 2449   0.464   1.215   2.467  0.0573 -0.0759 -0.1500
  817SOL    HW1 2450   0.415   1.300   2.442 -1.4601 -1.7794  0.5131
  817SOL    HW2 2451   0.506   1.168   2.382  1.5297 -2.3621  0.3893
  818SOL     OW 2452   2.021   0.865   0.419  0.1936 -0.1182 -0.0516
  818SOL    HW1 2453   2.009   0.965   0.438 -1.1026  1.4021 -1.8469
  818SOL    HW2 2454   1.948   0.812   0.472  0.9564  3.0411  2.7123
  819SOL     OW 2455   2.764   2.943   3.040 -0.0079  0.4180  0.2195
  819SOL    HW1 2456   2.832   2.865   3.016  2.5133 -0.4214 -1.7318
  819SOL    HW2 2457   2.671   2.938   2.999  1.6693  1.0440  0.0949
  820SOL     OW 2458   1.200   1.125   0.531  0.2604 -0.0146 -0.4543
  820SOL    HW1 2459   1.231   1.214   0.574 -1.4004 -0.3382  2.2873
  820SOL    HW2 2460   1.184   1.039   0.595  1.8644 -2.2349  0.1160
  821SOL     OW 2461   3.073   1.282   0.657 -0.4106 -0.1374 -0.2477
  821SOL    HW1 2462   3.036   1.274   0.753 -1.7622  1.7475 -0.0492
  821SOL    HW2 2463   3.154   1.355   0.645 -0.2728  1.9108  1.5266
  822SOL     OW 2464   2.534   1.763   2.428 -0.1829  0.2189 -0.5837
  822SOL    HW1 2465   2.515   1.853   2.483 -1.5296  0.8832  1.8147
  822SOL    HW2 2466   2.532   1.773   2.325 -1.6654 -0.5185  0.3836
  823SOL     OW 2467   2.037   0.896   1.196 -0.3448 -0.0416  0.2601
  823SOL    HW1 2468   2.040   0.913   1.296  0.4749  2.2148  0.1485
  823SOL    HW2 2469   1.957   0.948   1.154 -0.1242  0.7330 -1.1743
  824SOL     OW 2470   0.173   2.013   2.725 -0.2486 -0.3499  0.2424
  824SOL    HW1 2471   0.142   1.942   2.796  0.4933  0.3252  2.2409
  824SOL    HW2 2472   0.212   1.976   2.638 -1.6194  3.3378 -0.5111
  825SOL     OW 2473   1.241   1.052   0.259 -0.0809  0.1369 -0.5255
  825SOL    HW1 2474   1.220   1.070   0.362 -0.5355 -1.9413  2.3401
  825SOL    HW2 2475   1.224   1.132   0.197 -0.1123 -2.0034 -2.3681
  826SOL     OW 2476   1.929   0.624   1.536  0.0917 -0.4154 -0.4412
  826SOL    HW1 2477   1.992   0.585   1.607  0.6479  2.2378  0.2214
  826SOL    HW2 2478   1.839   0.577   1.536  1.5859 -2.4339  1.2758
  827SOL     OW 2479   0.752   1.406   0.280 -0.0269  0.4621  0.8436
  827SOL    HW1 2480   0.757   1.335   0.202 -0.8151  0.5525 -1.0278
  827SOL    HW2 2481   0.707   1.369   0.365 -0.3804  1.4349  0.8485
  828SOL     OW 2482   2.547   0.093   1.579  0.3229  0.1165 -0.1771
  828SOL    HW1 2483   2.460   0.094   1.528  0.8458 -2.4233  2.4388
  828SOL    HW2 2484   2.547   0.016   1.646  0.9569 -0.4874 -2.3644
  829SOL     OW 2485   2.817   2.489   3.025  0.6405 -0.5182  0.0630
  829SOL    HW1 2486   2.755   2.417   2.988 -0.3939  2.8500 -0.1911
  829SOL    HW2 2487   2.775   2.539   3.103 -2.1418 -0.7615  0.4416
  830SOL     OW 2488   2.777   0.960   3.030  0.4535  0.6318  0.2457
  830SOL    HW1 2489   2.866   1.012   3.037 -0.4861 -0.2342 -1.9161
  830SOL    HW2 2490   2.774   0.870   3.078 -0.4623  0.8818  0.8124
  831SOL     OW 2491   3.094   0.597   0.367  0.2668 -0.6204  0.0614
  831SOL    HW1 2492   3.043   0.549   0.450 -0.0261 -1.6456  0.5905
  831SOL    HW2 2493   3.142   0.532   0.304  0.1374 -1.0384  0.3572
  832SOL     OW 2494   1.793   0.745   3.098 -0.6199 -0.5022 -0.0688
  832SOL    HW1 2495   1.716   0.815   3.090 -0.9956  2.1197 -0.5978
  832SOL    HW2 2496   1.768   0.647   3.073 -1.2376 -1.1760  0.0862
  833SOL     OW 2497   2.463   2.148   0.501 -0.0556  0.1111 -0.1493
  833SOL    HW1 2498   2.359   2.134   0.504  0.6481  0.4707 -0.9434
  833SOL    HW2 2499   2.513   2.061   0.517  0.3512  3.8066  0.5250
  834SOL     OW 2500   0.077   0.246   0.634  0.1862  0.1875 -0.3540
  834SOL    HW1 2501   0.113   0.202   0.723 -2.0202  1.4822  1.3501
  834SOL    HW2 2502   0.127   0.230   0.547 -1.9492 -0.2239  2.1041
  835SOL     OW 2503   2.392   1.507   1.179 -0.8685 -0.3501 -0.4368
  835SOL    HW1 2504   2.480   1.562   1.189 -1.0407 -0.2910 -1.7216
  835SOL    HW2 2505   2.370   1.479   1.086  0.5573  1.4874  0.6222
  836SOL     OW 2506   1.514   0.825   2.566 -0.2498 -0.5772  0.0289
  836SOL    HW1 2507   1.411   0.836   2.545 -0.1570 -0.6170 -0.6501
  836SOL    HW2 2508   1.573   0.847   2.482  1.3549  1.5035  0.9947
  837SOL     OW 2509   1.556   0.034   0.508  0.9375  0.1912  0.0385
  837SOL    HW1 2510   1.548   0.134   0.540  0.4788 -1.0384 -0.3101
  837SOL    HW2 2511   1.556   0.027   0.402 -1.5457  2.9110 -1.6647
  838SOL     OW 2512   1.295   1.591   2.664 -0.0204  0.4394 -0.0845
  838SOL    HW1 2513   1.360   1.550   2.732  1.0721 -2.6171  1.3568
  838SOL    HW2 2514   1.210   1.530   2.657 -0.8161 -0.9537  1.9178
  839SOL     OW 2515   1.628   0.253   0.978  0.4727  0.6621  0.1371
  839SOL    HW1 2516   1.648   0.331   1.047 -1.7714 -0.1810  0.6132
  839SOL    HW2 2517   1.614   0.162   1.025  0.1161  2.8887  2.2619
  840SOL     OW 2518   2.542   2.963   1.724 -0.1328  0.0316 -0.1118
  840SOL    HW1 2519   2.486   2.898   1.661 -2.2993  0.3354 -2.1405
  840SOL    HW2 2520   2.602   2.908   1.786  2.5193  2.5165  1.2170
  841SOL     OW 2521   1.570   0.917   3.056 -0.2871 -0.1886 -0.3374
  841SOL    HW1 2522   1.477   0.902   3.100 -0.7845 -1.4030  1.6169
  841SOL    HW2 2523   1.565   0.929   2.955  2.1790 -1.4634  3.6585
  842SOL     OW 2524   0.820   1.530   0.842  0.6113  0.4367 -0.3339
  842SOL    HW1 2525   0.774   1.588   0.917 -1.3644  0.7280  2.0206
  842SOL    HW2 2526   0.773   1.436   0.839 -1.1410 -0.6693 -0.7107
  843SOL     OW 2527   0.197   3.051   1.402  0.1251  0.0441 -0.2939
  843SOL    HW1 2528   0.191   3.134   1.459  0.2317 -3.2278 -0.8049
  843SOL    HW2 2529   0.155   2.965   1.443 -0.2053  1.4119  0.7776
  844SOL     OW 2530   0.828   2.478   0.259 -0.0145 -0.4107  0.0526
  844SOL    HW1 2531   0.776   2.435   0.336 -0.6174 -0.2260 -0.4989
  844SOL    HW2 2532   0.763   2.531   0.200  0.5903 -2.6303 -1.8087
  845SOL     OW 2533   1.647   2.828   1.244 -0.0218  0.1019  0.1642
  845SOL    HW1 2534   1.663   2.722   1.241  2.4599 -0.7600 -1.9645
  845SOL    HW2 2535   1.660   2.859   1.340  0.1572  2.4311  1.3852
  846SOL     OW 2536   1.567   2.989   0.766  0.4074 -0.2725  0.2955
  846SOL    HW1 2537   1.571   3.037   0.674  1.1653 -3.9190  0.0422
  846SOL    HW2 2538   1.637   2.918   0.778 -1.3638 -0.2620 -0.6974
  847SOL     OW 2539   2.089   1.732   0.461  0.0736 -0.3109 -0.3092
  847SOL    HW1 2540   2.039   1.641   0.474  3.0129 -1.7802 -1.3785
  847SOL    HW2 2541   2.034   1.809   0.438  0.3268 -0.6282 -1.2541
  848SOL     OW 2542   2.413   0.882   2.634 -0.4375  0.2492 -0.5708
  848SOL    HW1 2543   2.391   0.950   2.707 -0.7442  0.1333 -2.1834
  848SOL    HW2 2544   2.335   0.814   2.608 -0.2995 -0.4757  0.3099
  849SOL     OW 2545   2.523   0.905   2.386 -0.0246 -0.2795 -0.2447
  849SOL    HW1 2546   2.613   0.847   2.406 -0.3256 -1.0539  0.9218
  849SOL    HW2 2547   2.467   0.911   2.472  0.2978  0.5357 -1.5016
  850SOL     OW 2548   1.580   0.046   1.283 -0.1743  0.1972  0.8751
  850SOL    HW1 2549   1.558   0.001   1.192 -1.1368 -3.4968 -0.4663
  850SOL    HW2 2550   1.578  -0.023   1.359 -4.1996 -1.4496 -0.6582
  851SOL     OW 2551   0.538   1.739   0.659 -0.5181  0.2305 -0.7312
  851SOL    HW1 2552   0.586   1.787   0.741 -0.6051  1.3912  1.7677
  851SOL    HW2 2553   0.552   1.787   0.562 -0.4102  2.7535 -1.8020
  852SOL     OW 2554   0.852   2.108   1.718 -0.1900 -0.0647  0.8228
  852SOL    HW1 2555   0.869   2.198   1.670  1.5978 -0.8313 -0.1304
  852SOL    HW2 2556   0.781   2.107   1.790 -1.4421 -1.4463 -0.6359
  853SOL     OW 2557   2.540   1.551   2.609  0.1072  0.2765 -0.0330
  853SOL    HW1 2558   2.490   1.463   2.590  2.6551 -1.3157  0.2616
  853SOL    HW2 2559   2.518   1.625   2.538 -1.6724  1.0650 -0.6394
  854SOL     OW 2560   2.471   1.407   1.769  0.2335 -0.4831 -0.0288
  854SOL    HW1 2561   2.516   1.368   1.685  1.1502  1.8363 -2.7245
  854SOL    HW2 2562   2.401   1.341   1.809  0.4657 -2.2106 -1.2211
  855SOL     OW 2563   2.084   2.397   1.081  0.0514  0.0846 -0.7041
  855SOL    HW1 2564   2.055   2.499   1.070 -0.4817 -0.2515  0.5989
  855SOL    HW2 2565   2.168   2.391   1.145 -0.0868  0.1835  0.3941
  856SOL     OW 2566   1.341   1.437   0.912 -0.3752 -0.2489  0.3894
  856SOL    HW1 2567   1.410   1.499   0.961  0.9678  0.2070 -2.0016
  856SOL    HW2 2568   1.246   1.464   0.928  1.6929  1.6938 -2.0629
  857SOL     OW 2569   3.097   2.745   1.086 -0.1218  0.1549 -0.4101
  857SOL    HW1 2570   3.040   2.716   1.002 -0.5360 -0.7217 -0.4701
  857SOL    HW2 2571   3.195   2.728   1.079  0.1420  3.6650  0.4922
  858SOL     OW 2572   2.403   2.070   1.597 -0.0632  0.5625  0.6864
  858SOL    HW1 2573   2.322   2.008   1.569  1.1210 -0.0873  1.6256
  858SOL    HW2 2574   2.492   2.007   1.610  0.8796 -3.6488  2.6020
  859SOL     OW 2575   2.431   0.538   1.082 -0.1305  0.0484 -0.4049
  859SOL    HW1 2576   2.498   0.583   1.019 -0.8678 -2.5728  2.7440
  859SOL    HW2 2577   2.464   0.443   1.109 -0.1695  2.0216  0.7902
  860SOL     OW 2578   1.900   2.807   0.511 -0.0112 -0.3087  0.3151
  860SOL    HW1 2579   1.872   2.777   0.412 -0.9941 -2.8066  0.7958
  860SOL    HW2 2580   1.888   2.907   0.523 -0.9363 -2.1643  0.2714
  861SOL     OW 2581   0.995   2.504   2.868 -0.4424 -0.0101  0.2322
  861SOL    HW1 2582   1.075   2.559   2.826  1.5927 -0.8701  0.2954
  861SOL    HW2 2583   0.969   2.537   2.964  0.6245  2.4240 -0.2061
  862SOL     OW 2584   2.845   2.531   1.694  0.3525 -0.4674 -0.3626
  862SOL    HW1 2585   2.940   2.553   1.719 -1.1517  3.2734 -2.3912
  862SOL    HW2 2586   2.797   2.616   1.658  0.3699  0.7354  0.3994
  863SOL     OW 2587   1.824   2.712   0.272  0.2042 -0.0385  0.2700
  863SOL    HW1 2588   1.867   2.615   0.273 -0.0453 -0.6328 -0.0652
  863SOL    HW2 2589   1.735   2.712   0.219 -1.7840 -0.7628 -1.8867
  864SOL     OW 2590   2.029   1.251   2.804  0.0983 -0.1275  0.2349
  864SOL    HW1 2591   2.001   1.194   2.723 -1.7302  2.1703 -0.1912
  864SOL    HW2 2592   2.081   1.334   2.764  0.9719  0.9197  1.9536
  865SOL     OW 2593   2.141   1.944   0.738  0.1395 -0.0928  0.2389
  865SOL    HW1 2594   2.217   1.893   0.785 -0.1979 -0.4880 -0.6280
  865SOL    HW2 2595   2.060   1.974   0.794  0.7876 -1.3152 -1.5481
  866SOL     OW 2596   2.945   2.987   1.043  0.3985  0.0692 -0.3654
  866SOL    HW1 2597   2.945   3.057   0.970 -2.1373 -1.6110 -0.1108
  866SOL    HW2 2598   3.032   2.925   1.049  2.6206  0.6453 -0.8269
  867SOL     OW 2599   0.321   1.399   0.881  0.4182  0.0685 -0.2828
  867SOL    HW1 2600   0.339   1.321   0.815 -2.1265 -0.9209  0.4208
  867SOL    HW2 2601   0.306   1.488   0.836 -0.9348 -0.0816 -1.5279
  868SOL     OW 2602   0.773   1.860   2.044  0.1675 -0.5312  0.2055
  868SOL    HW1 2603   0.714   1.820   2.121 -3.4406 -3.8195  0.3510
  868SOL    HW2 2604   0.741   1.957   2.022  0.1996 -0.6135  0.8078
  869SOL     OW 2605   2.620   1.897   1.661 -0.0155 -0.1429  0.0378
  869SOL    HW1 2606   2.669   1.969   1.615  0.9132 -1.4617  0.8273
  869SOL    HW2 2607   2.661   1.801   1.645 -0.4565  0.5150 -2.6256
  870SOL     OW 2608   2.381   2.683   1.163 -0.3132 -0.4133  0.5996
  870SOL    HW1 2609   2.376   2.614   1.239 -1.2095 -0.6340  0.8269
  870SOL    HW2 2610   2.475   2.734   1.174 -3.0245  0.1545  0.0942
  871SOL     OW 2611   3.038   2.241   0.541  0.4435 -0.2432 -0.6512
  871SOL    HW1 2612   2.973   2.239   0.620  1.4052  0.1870 -1.9714
  871SOL    HW2 2613   2.985   2.258   0.456 -1.0639  0.1286 -0.8720
  872SOL     OW 2614   2.105   0.485   1.689 -0.1053  0.0756 -0.1493
  872SOL    HW1 2615   2.060   0.509   1.775  2.1573  1.1168 -0.6394
  872SOL    HW2 2616   2.208   0.464   1.701  1.5309  1.6178  2.4886
  873SOL     OW 2617   1.719   2.066   3.103 -0.0968  0.0700  0.0090
  873SOL    HW1 2618   1.619   2.035   3.097 -1.4431 -0.1424 -1.0497
  873SOL    HW2 2619   1.751   2.115   3.019  0.2913 -0.8547  0.0552
  874SOL     OW 2620   0.672   2.468   0.722 -0.0850 -0.5366 -0.0374
  874SOL    HW1 2621   0.676   2.565   0.750  1.3612 -1.5339  0.4060
  874SOL    HW2 2622   0.765   2.415   0.730  0.6929 -0.9441  1.9204
  875SOL     OW 2623   2.271   1.541   1.441 -0.6724 -1.0175  0.0674
  875SOL    HW1 2624   2.333   1.575   1.512  0.1627 -1.3269 -1.3815
  875SOL    HW2 2625   2.324   1.524   1.353 -0.0133 -0.0804 -0.3947
  876SOL     OW 2626   0.075   2.266   2.640 -0.2968 -0.3084  0.0938
  876SOL    HW1 2627   0.103   2.166   2.653 -1.5777 -0.5533 -1.5681
  876SOL    HW2 2628   0.138   2.335   2.677 -0.1573  0.9445  1.6483
  877SOL     OW 2629   2.885   2.624   0.656  0.3564  0.2154 -0.3307
  877SOL    HW1 2630   2.884   2.728   0.641 -0.9913 -2.3916 -2.4547
  877SOL    HW2 2631   2.982   2.597   0.687 -0.2773  2.0635 -0.4967
  878SOL     OW 2632   2.841   1.624   2.314 -0.0282 -0.3088 -0.1358
  878SOL    HW1 2633   2.789   1.704   2.281  1.2719  0.5073 -1.6874
  878SOL    HW2 2634   2.797   1.579   2.394  0.2818 -1.5422 -0.4252
  879SOL     OW 2635   2.456   0.051   1.169 -0.7159 -0.3332 -0.2366
  879SOL    HW1 2636   2.496  -0.045   1.187 -1.2893 -1.5151  2.0617
  879SOL    HW2 2637   2.360   0.037   1.123 -2.0293 -0.9467  0.7196
  880SOL     OW 2638   0.671   0.551   2.276  0.6979  0.2252  0.5269
  880SOL    HW1 2639   0.641   0.497   2.361  0.5659 -0.9714 -0.5136
  880SOL    HW2 2640   0.754   0.510   2.223  3.0138  2.8936  1.2433
  881SOL     OW 2641   0.841   0.076   0.382 -0.5595 -0.2351 -0.1515
  881SOL    HW1 2642   0.897  -0.003   0.423  1.5229 -1.4939  0.8004
  881SOL    HW2 2643   0.744   0.046   0.370 -2.3695  0.9342 -1.2090
  882SOL     OW 2644   2.692   1.604   1.716 -0.3546  0.5021 -0.2496
  882SOL    HW1 2645   2.782   1.560   1.681  1.9970 -0.6368  0.2935
  882SOL    HW2 2646   2.665   1.571   1.806 -0.0891  2.7766 -2.0233
  883SOL     OW 2647   0.787   0.513   0.899  0.0438  0.3750  0.9820
  883SOL    HW1 2648   0.859   0.576   0.941 -2.3324  1.3288  0.9847
  883SOL    HW2 2649   0.713   0.482   0.970  1.4553 -1.1386  1.8176
  884SOL     OW 2650   1.200   1.734   1.115 -0.1242  0.7813  0.2906
  884SOL    HW1 2651   1.152   1.654   1.073  0.3261  1.4271  1.5512
  884SOL    HW2 2652   1.170   1.829   1.074 -0.8822 -2.2190  0.1261
  885SOL     OW 2653   2.340   1.905   2.242  0.6931 -0.3859 -1.2475
  885SOL    HW1 2654   2.288   1.843   2.306  0.5205  2.1191  0.8588
  885SOL    HW2 2655   2.324   2.005   2.257 -0.1413  0.9771 -0.8119
  886SOL     OW 2656   2.616   0.351   1.783  0.2261  0.3721 -0.0762
  886SOL    HW1 2657   2.619   0.292   1.872  2.1452 -0.7202 -0.4251
  886SOL    HW2 2658   2.699   0.408   1.774 -1.8154  1.5894 -0.6615
  887SOL     OW 2659   0.158   2.076   1.260  0.0340  0.2767 -0.4301
  887SOL    HW1 2660   0.078   2.017   1.274  0.8829  2.8077  0.2335
  887SOL    HW2 2661   0.128   2.162   1.209 -0.3667 -2.5998 -1.3245
  888SOL     OW 2662   0.590   1.248   1.543  0.0614  0.4572 -0.8032
  888SOL    HW1 2663   0.604   1.289   1.455  1.1803 -2.7035  0.8433
  888SOL    HW2 2664   0.596   1.143   1.534 -1.2864 -0.1708 -1.0007
  889SOL     OW 2665   0.842   2.435   2.243  0.1013 -0.3704 -0.1751
  889SOL    HW1 2666   0.747   2.400   2.267  0.7123 -2.4078  1.2555
  889SOL    HW2 2667   0.882   2.396   2.151  0.9963  2.2478 -1.4044
  890SOL     OW 2668   2.371   2.509   0.242 -0.0640 -0.5866 -0.8193
  890SOL    HW1 2669   2.403   2.600   0.199 -0.5552  1.2975 -1.9789
  890SOL    HW2 2670   2.301   2.526   0.317 -1.8113  3.3135 -2.5376
  891SOL     OW 2671   2.594   1.685   0.704 -0.5744  0.2419  0.1414
  891SOL    HW1 2672   2.604   1.696   0.807 -0.1160 -0.9198  1.1357
  891SOL    HW2 2673   2.498   1.643   0.685 -1.5224 -2.3175 -2.3223
  892SOL     OW 2674   0.356   0.345   2.204 -0.1619  0.6728  0.1001
  892SOL    HW1 2675   0.375   0.421   2.137  0.5137 -0.1547 -2.5026
  892SOL    HW2 2676   0.438   0.301   2.242 -2.3857  1.6762  0.1228
  893SOL     OW 2677   1.714   0.257   2.728 -0.4547  0.5383  0.6442
  893SOL    HW1 2678   1.793   0.326   2.714  1.8615 -3.6224  0.7131
  893SOL    HW2 2679   1.618   0.302   2.716 -0.1401 -1.4123  0.4326
  894SOL     OW 2680   2.142   2.094   0.099  0.1071 -0.1089 -0.2363
  894SOL    HW1 2681   2.138   2.048   0.008  2.6046  0.1109  1.6357
  894SOL    HW2 2682   2.166   2.029   0.176  0.5281  1.8745 -0.4512
  895SOL     OW 2683   2.741   1.454   0.913 -0.4614 -0.3160  0.4096
  895SOL    HW1 2684   2.842   1.420   0.909  1.2385  0.7974 -1.1891
  895SOL    HW2 2685   2.732   1.550   0.946  1.5309 -2.2355  0.4223
  896SOL     OW 2686   1.790   1.800   1.241 -0.6018  0.8453  0.2625
  896SOL    HW1 2687   1.876   1.759   1.280  1.4428  2.4726  0.1891
  896SOL    HW2 2688   1.754   1.732   1.169  1.4723 -0.4413  1.0794
  897SOL     OW 2689   0.246   0.561   3.013 -0.2284  0.1066 -0.5679
  897SOL    HW1 2690   0.179   0.581   2.934  1.2550  1.0148  2.0510
  897SOL    HW2 2691   0.348   0.597   3.001  1.3140 -1.9777  0.3627
  898SOL     OW 2692   0.692   2.816   1.091  0.2267 -0.2907 -0.5176
  898SOL    HW1 2693   0.760   2.893   1.078  1.3504  0.5919 -0.5151
  898SOL    HW2 2694   0.723   2.752   1.164 -0.5801  4.1382  2.5451
  899SOL     OW 2695   2.862   0.947   1.345 -0.1475  0.0178  0.2312
  899SOL    HW1 2696   2.854   0.942   1.239  0.6860 -3.4212  1.3561
  899SOL    HW2 2697   2.962   0.948   1.373 -3.3838  2.2863  0.0673
  900SOL     OW 2698   1.009   2.460   2.467  0.1447 -0.2743  0.0204
  900SOL    HW1 2699   0.948   2.450   2.383 -0.6963 -2.6723 -1.2434
  900SOL    HW2 2700   0.971   2.425   2.555  0.1451 -0.2856  0.0874
  901SOL     OW 2701   1.872   2.397   1.452 -0.1651  0.5965 -0.1653
  901SOL    HW1 2702   1.894   2.339   1.364 -0.8439 -1.6891  1.2417
  901SOL    HW2 2703   1.959   2.438   1.498  2.3761  0.8267  2.0957
  902SOL     OW 2704   2.538   1.638   1.501 -0.2119  0.2975 -0.0369
  902SOL    HW1 2705   2.604   1.611   1.583  2.3478 -0.2049  0.1898
  902SOL    HW2 2706   2.579   1.615   1.409  1.5074  3.3300  0.1597
  903SOL     OW 2707   0.328   2.400   1.988 -0.0670  0.2400  0.3051
  903SOL    HW1 2708   0.270   2.317   1.991  0.5445  1.3967  1.7930
  903SOL    HW2 2709   0.302   2.475   1.921  0.8573  0.6840  0.5641
  904SOL     OW 2710   1.991   0.827   2.475  0.6012  0.3836  0.0305
  904SOL    HW1 2711   1.922   0.763   2.524 -0.6092  0.9252  0.5888
  904SOL    HW2 2712   1.998   0.806   2.371  1.9384  0.1061 -1.3033
  905SOL     OW 2713   2.799   0.086   2.415 -0.2326  0.2490 -0.0725
  905SOL    HW1 2714   2.860   0.004   2.423  3.3708  1.5898 -1.6716
  905SOL    HW2 2715   2.851   0.177   2.415  0.5508  1.0779 -0.9448
  906SOL     OW 2716   0.183   1.738   1.894  0.5198  0.0227  0.3856
  906SOL    HW1 2717   0.121   1.759   1.810 -1.1328 -1.2698 -2.3523
  906SOL    HW2 2718   0.277   1.782   1.890  1.8991  1.5970  0.9447
  907SOL     OW 2719   0.231   2.491   0.968  0.2401  0.4440  0.3788
  907SOL    HW1 2720   0.330   2.455   0.970  0.5795 -0.0175  0.7884
  907SOL    HW2 2721   0.223   2.591   0.948  1.2195 -2.1422  0.0124
  908SOL     OW 2722   2.823   3.017   0.358 -0.8804  0.0703 -0.4647
  908SOL    HW1 2723   2.724   3.016   0.328 -0.9023 -0.5526  1.1025
  908SOL    HW2 2724   2.867   2.921   0.334 -0.0817 -2.7347  1.3658
  909SOL     OW 2725   0.875   1.036   2.661 -0.0284 -0.0379  0.0108
  909SOL    HW1 2726   0.846   0.939   2.649 -1.3110  3.7707  0.3478
  909SOL    HW2 2727   0.957   1.065   2.600 -1.1162 -0.1283 -1.8373
  910SOL     OW 2728   1.799   1.896   2.119 -0.6463  0.5048  0.3308
  910SOL    HW1 2729   1.874   1.921   2.055  1.1547 -2.7746 -0.5084
  910SOL    HW2 2730   1.741   1.971   2.155 -2.6720 -1.5312  1.0837
  911SOL     OW 2731   1.767   2.917   1.500 -0.0167 -0.0423 -0.5105
  911SOL    HW1 2732   1.856   2.879   1.453 -1.6061  1.1508 -3.8985
  911SOL    HW2 2733   1.730   2.848   1.570 -2.1474 -0.5251 -2.1530
  912SOL     OW 2734   2.876   1.000   0.733  0.2882 -0.1114  0.1427
  912SOL    HW1 2735   2.924   0.983   0.824 -2.5546  1.4638  1.5471
  912SOL    HW2 2736   2.797   1.067   0.747 -1.7176  1.3120  0.2937
  913SOL     OW 2737   2.606   1.270   1.573  0.4069 -0.0483  0.0489
  913SOL    HW1 2738   2.650   1.178   1.592  1.8639  2.3224  2.3025
  913SOL    HW2 2739   2.631   1.309   1.480  1.7895 -2.1042  1.7217
  914SOL     OW 2740   2.844   0.605   1.195 -0.4171 -0.2352 -0.0995
  914SOL    HW1 2741   2.831   0.517   1.243  0.8893  2.3170 -1.0710
  914SOL    HW2 2742   2.764   0.665   1.221 -2.1236 -3.0521 -2.0779
  915SOL     OW 2743   1.212   0.744   0.896 -0.4128  0.6967 -0.4303
  915SOL    HW1 2744   1.274   0.773   0.977 -0.1593 -2.3932 -0.9019
  915SOL    HW2 2745   1.115   0.749   0.925  0.0198  0.5942  1.4434
  916SOL     OW 2746   0.631   0.098   0.663 -0.1691 -0.1418 -0.5358
  916SOL    HW1 2747   0.692   0.185   0.684  2.0218  1.1321  1.2498
  916SOL    HW2 2748   0.602   0.093   0.562 -0.8263  1.7154 -2.7255
  917SOL     OW 2749   2.886   2.606   2.026  0.3525 -0.0720 -0.6252
  917SOL    HW1 2750   2.800   2.633   1.980  3.9870 -1.1975  0.5737
  917SOL    HW2 2751   2.971   2.658   2.003 -1.0804 -0.8824  1.1708
  918SOL     OW 2752   1.032   2.097   3.030 -0.7003  0.4610  0.1395
  918SOL    HW1 2753   1.067   2.171   3.092  1.8496 -1.4903 -1.2878
  918SOL    HW2 2754   1.059   2.108   2.931 -1.2576  0.3130 -0.4019
  919SOL     OW 2755   0.821   1.641   2.811  0.7085  0.2795 -0.0696
  919SOL    HW1 2756   0.878   1.723   2.798  0.7036 -1.3744 -1.6607
  919SOL    HW2 2757   0.792   1.605   2.722  0.1264 -0.6509  1.0220
  920SOL     OW 2758   1.348   1.814   2.471 -0.2755 -0.1959  0.4458
  920SOL    HW1 2759   1.437   1.780   2.422 -0.5647 -1.2459  1.0348
  920SOL    HW2 2760   1.314   1.746   2.545  0.9234 -0.2939  1.8627
  921SOL     OW 2761   1.134   0.047   2.599  0.3755 -0.1475  0.1425
  921SOL    HW1 2762   1.113   0.033   2.499  1.3269 -3.6725 -0.1815
  921SOL    HW2 2763   1.044   0.065   2.657 -0.3508  0.7065  0.0070
  922SOL     OW 2764   2.206   2.440   2.792  0.2786 -0.2693 -0.2467
  922SOL    HW1 2765   2.211   2.338   2.826 -1.4401 -3.0894  3.7515
  922SOL    HW2 2766   2.146   2.449   2.711  1.3253 -1.1840 -0.1546
  923SOL     OW 2767   1.209   2.737   0.281  0.8457 -0.0646  0.0572
  923SOL    HW1 2768   1.283   2.791   0.330  1.8742 -1.5238  0.1364
  923SOL    HW2 2769   1.218   2.635   0.290 -0.8425 -1.2895 -2.1488
  924SOL     OW 2770   2.943   1.704   0.160  0.1703  0.2942 -0.3573
  924SOL    HW1 2771   2.856   1.650   0.128 -4.0019 -1.3346  1.4536
  924SOL    HW2 2772   3.027   1.640   0.160 -0.3534  0.3777  1.6647
  925SOL     OW 2773   0.045   2.833   1.529 -0.0166 -0.1613 -0.1868
  925SOL    HW1 2774  -0.022   2.910   1.536 -1.0006  0.6746  0.4412
  925SOL    HW2 2775  -0.004   2.750   1.479  0.7195  0.1945 -1.8612
  926SOL     OW 2776   1.271   2.780   1.314  0.1151  0.3369 -0.4555
  926SOL    HW1 2777   1.305   2.758   1.219 -1.0336  1.3990 -0.1202
  926SOL    HW2 2778   1.321   2.860   1.353  0.9120 -1.7684 -1.4060
  927SOL     OW 2779   0.368   2.623   1.796 -0.1961  0.1979 -0.4678
  927SOL    HW1 2780   0.339   2.567   1.713 -2.8826  1.9332 -0.7305
  927SOL    HW2 2781   0.309   2.707   1.815  0.4658  1.7111  0.1700
  928SOL     OW 2782   1.610   2.093   2.235 -0.6892 -0.3120 -0.2494
  928SOL    HW1 2783   1.637   2.178   2.179 -0.0268  0.6601  1.8397
  928SOL    HW2 2784   1.508   2.076   2.241  0.8019  0.9303  2.5133
  929SOL     OW 2785   2.467   2.486   2.888 -0.3479 -0.1122 -0.7122
  929SOL    HW1 2786   2.374   2.450   2.847 -1.9830 -1.7137 -2.3320
  929SOL    HW2 2787   2.521   2.528   2.812 -0.5869  2.8746  4.0859
  930SOL     OW 2788   2.170   2.073   1.106  0.3548 -0.1908  0.4573
  930SOL    HW1 2789   2.169   2.054   1.206  2.7383 -3.6388 -1.0097
  930SOL    HW2 2790   2.189   2.173   1.081  2.2854  2.6076  0.9608
  931SOL     OW 2791   0.469   1.646   2.597  0.5073  0.7511 -0.1563
  931SOL    HW1 2792   0.476   1.679   2.696 -0.2759  1.0391 -1.5874
  931SOL    HW2 2793   0.553   1.599   2.557 -1.8833  0.1099 -1.8759
  932SOL     OW 2794   0.368   0.048   0.032  0.2453 -0.3478  0.5533
  932SOL    HW1 2795   0.427   0.106  -0.025 -2.0286  0.2477  0.3677
  932SOL    HW2 2796   0.398  -0.050   0.046  1.3379 -0.5731 -1.1180
  933SOL     OW 2797   1.021   0.823   3.048 -0.0696 -0.0138  0.0050
  933SOL    HW1 2798   1.105   0.836   3.111  1.1889 -2.2292 -0.2940
  933SOL    HW2 2799   0.942   0.887   3.060 -0.0114  1.2879  1.4803
  934SOL     OW 2800   0.874   2.961   2.632 -0.5810 -0.4387  0.1774
  934SOL    HW1 2801   0.842   2.897   2.549 -3.7511 -1.0956 -1.2140
  934SOL    HW2 2802   0.908   2.911   2.717 -0.6350  0.2119 -1.4804
  935SOL     OW 2803   0.040   0.553   0.800 -0.2365 -0.3525  0.2158
  935SOL    HW1 2804   0.012   0.534   0.696  1.9357  0.9851 -1.9370
  935SOL    HW2 2805  -0.031   0.609   0.846 -0.6177  1.2199  0.1556
  936SOL     OW 2806   1.118   2.885   0.058  0.5100 -0.5380 -0.0441
  936SOL    HW1 2807   1.195   2.944   0.017 -1.4984  0.9244 -1.4109
  936SOL    HW2 2808   1.152   2.822   0.134  1.0415 -0.0320 -1.6200
  937SOL     OW 2809   1.944   2.607   2.072 -0.0337 -0.1005 -0.6395
  937SOL    HW1 2810   1.926   2.638   2.173  1.1868 -0.6369  0.4729
  937SOL    HW2 2811   1.929   2.684   2.007  0.4050  0.8890  0.6181
  938SOL     OW 2812   2.756   2.125   1.558  0.2778  0.1356  0.1232
  938SOL    HW1 2813   2.707   2.218   1.561 -1.1531  1.7512  0.1363
  938SOL    HW2 2814   2.848   2.126   1.600  0.8769 -1.8870  0.1931
  939SOL     OW 2815   2.817   1.131   2.469 -0.0867  0.1012 -0.3558
  939SOL    HW1 2816   2.903   1.114   2.412  0.4991 -1.0593  0.3813
  939SOL    HW2 2817   2.810   1.077   2.556  1.0140 -0.6436 -2.2918
  940SOL     OW 2818   1.092   0.455   2.764 -0.0016  0.2343  0.0610
  940SOL    HW1 2819   1.168   0.389   2.762 -0.7697  0.8018 -0.2663
  940SOL    HW2 2820   1.009   0.435   2.701 -1.4580  0.9262  0.8780
  941SOL     OW 2821   0.086   2.816   2.272 -0.0991 -0.1852 -0.4141
  941SOL    HW1 2822   0.136   2.744   2.216 -1.2132 -1.0094  0.8335
  941SOL    HW2 2823   0.152   2.859   2.333 -1.0585 -0.2737 -2.8594
  942SOL     OW 2824   0.099   0.077   2.461 -0.1763  0.0508  0.7328
  942SOL    HW1 2825   0.147   0.086   2.556 -0.5404  1.3268  2.4517
  942SOL    HW2 2826   0.116   0.159   2.398  2.3958  0.2761  1.0751
  943SOL     OW 2827   2.123   1.712   2.359 -0.3406  0.3486  0.0667
  943SOL    HW1 2828   2.111   1.705   2.261 -0.4501 -2.4896  4.1975
  943SOL    HW2 2829   2.119   1.619   2.406 -1.4437  0.5525  0.0913
  944SOL     OW 2830   2.171   2.352   1.564 -0.1355 -0.0803 -0.5474
  944SOL    HW1 2831   2.260   2.372   1.618  0.3840 -0.5769  2.3134
  944SOL    HW2 2832   2.117   2.270   1.604  2.3627 -0.0258 -0.7052
  945SOL     OW 2833   0.730   1.629   0.122  0.6703 -0.3720 -0.9740
  945SOL    HW1 2834   0.661   1.601   0.051  2.4458 -0.1547  0.5823
  945SOL    HW2 2835   0.735   1.558   0.199  0.3631  0.1512  0.4628
  946SOL     OW 2836   0.326   1.026   2.606 -0.3206  0.4724  0.2517
  946SOL    HW1 2837   0.297   0.957   2.533 -0.8987 -1.6972  0.7102
  946SOL    HW2 2838   0.383   1.107   2.575  0.4521 -1.3991 -3.2572
  947SOL     OW 2839   1.480   0.513   3.041 -0.0994 -0.2353  0.0100
  947SOL    HW1 2840   1.472   0.578   2.960 -0.0176  0.0949  2.6712
  947SOL    HW2 2841   1.385   0.483   3.065  0.5800  0.8652 -1.1491
  948SOL     OW 2842   1.935   2.912   2.169 -0.1627  0.3579  0.2215
  948SOL    HW1 2843   1.969   2.887   2.072 -1.0672  1.6711 -3.1211
  948SOL    HW2 2844   1.915   2.830   2.224  1.1264  0.0015 -3.0044
  949SOL     OW 2845   0.583   2.463   0.449  0.2203 -0.4488  0.5511
  949SOL    HW1 2846   0.596   2.568   0.465  1.1719  0.0567  1.1566
  949SOL    HW2 2847   0.610   2.418   0.536  1.7259 -2.4387 -1.1062
  950SOL     OW 2848   0.173   2.224   2.933  0.3124 -0.2534  0.3354
  950SOL    HW1 2849   0.130   2.304   2.887 -1.3366 -4.7387 -0.0315
  950SOL    HW2 2850   0.194   2.147   2.861 -0.5365 -0.3803 -2.1993
  951SOL     OW 2851   1.214   2.678   2.787 -0.9453  0.0831  0.1991
  951SOL    HW1 2852   1.283   2.610   2.833 -0.3123  1.0366  0.8248
  951SOL    HW2 2853   1.256   2.733   2.713 -0.7096 -0.7200 -1.2130
  952SOL     OW 2854   0.053   1.614   0.422  1.0071 -0.4578 -0.1008
  952SOL    HW1 2855   0.109   1.698   0.392 -0.8427  0.8744 -2.6468
  952SOL    HW2 2856   0.095   1.562   0.499 -1.3327 -1.2240  0.0628
  953SOL     OW 2857   2.533   1.737   0.288  0.5803  0.2554 -0.3099
  953SOL    HW1 2858   2.515   1.631   0.296  0.9049  0.7075 -2.0611
  953SOL    HW2 2859   2.474   1.780   0.220 -0.4758  0.0316  1.8100
  954SOL     OW 2860   2.214   0.542   0.926 -0.6804  0.3335 -0.1607
  954SOL    HW1 2861   2.224   0.534   0.823  0.7765 -0.2776  0.0094
  954SOL    HW2 2862   2.313   0.533   0.968  1.9130  0.6595 -2.2762
  955SOL     OW 2863   0.180   2.592   1.399 -0.6237 -0.6074  0.1088
  955SOL    HW1 2864   0.075   2.602   1.387  0.1497 -4.8171  0.6309
  955SOL    HW2 2865   0.227   2.685   1.387 -0.1945 -0.5895  1.7555
  956SOL     OW 2866   2.818   2.504   2.498  0.8582  0.2142 -0.1143
  956SOL    HW1 2867   2.829   2.399   2.498  0.8305 -0.6566  0.5487
  956SOL    HW2 2868   2.863   2.554   2.418 -0.2771  2.8883 -1.2016
  957SOL     OW 2869   1.638   2.085   2.744  0.3620  0.3654 -0.1859
  957SOL    HW1 2870   1.640   2.007   2.812 -1.3329 -1.6209  0.0014
  957SOL    HW2 2871   1.666   2.057   2.648  1.4153 -1.6285  2.8350
  958SOL     OW 2872   2.640   2.298   2.966  0.5725 -0.3386 -0.7334
  958SOL    HW1 2873   2.582   2.373   2.930 -0.1571  0.7848  0.7160
  958SOL    HW2 2874   2.603   2.255   3.055  0.9130  0.1129 -1.8471
  959SOL     OW 2875   0.382   2.791   0.156 -0.7812 -0.1316  0.0017
  959SOL    HW1 2876   0.302   2.848   0.172 -0.6643 -1.6597  1.8498
  959SOL    HW2 2877   0.362   2.687   0.157  0.8871 -3.0080  0.1379
  960SOL     OW 2878   1.935   0.484   1.922  0.6560 -0.2589  0.0803
  960SOL    HW1 2879   1.869   0.559   1.893  1.1253  0.5131  1.7323
  960SOL    HW2 2880   1.949   0.488   2.028  1.3376  0.9571 -0.6935
  961SOL     OW 2881   2.528   1.875   1.053 -0.1338  0.0138 -0.1255
  961SOL    HW1 2882   2.517   1.969   1.010  0.2590 -0.6209  2.1466
  961SOL    HW2 2883   2.484   1.870   1.145  0.5981 -0.2927  0.0814
  962SOL     OW 2884   1.290   0.858   0.043 -0.5266 -0.2057  0.0949
  962SOL    HW1 2885   1.277   0.889  -0.053  0.6603 -1.7995  3.7029
  962SOL    HW2 2886   1.280   0.930   0.114  0.5521 -0.4215 -1.0785
  963SOL     OW 2887   2.304   2.580   1.795 -0.5670  0.0656 -0.3462
  963SOL    HW1 2888   2.257   2.488   1.820  0.0407  1.7078 -1.1631
  963SOL    HW2 2889   2.346   2.625   1.876  0.7587 -1.9815 -0.1660
  964SOL     OW 2890   2.351   0.365   1.679 -0.7696 -0.9592  0.0009
  964SOL    HW1 2891   2.451   0.369   1.715 -0.7972 -0.0449  0.6429
  964SOL    HW2 2892   2.345   0.378   1.571 -0.4684 -1.2393  0.8645
  965SOL     OW 2893   2.592   2.996   0.204  0.0288 -0.7287  0.4154
  965SOL    HW1 2894   2.656   2.944   0.139  0.4227 -0.1965 -0.5545
  965SOL    HW2 2895   2.513   3.040   0.149 -0.0307 -0.4093 -1.1281
  966SOL     OW 2896   2.491   2.481   2.257  0.5709 -0.2964  0.0111
  966SOL    HW1 2897   2.522   2.565   2.200  0.1743  0.5863 -2.0248
  966SOL    HW2 2898   2.398   2.445   2.230  1.7276 -2.0256 -1.0238
  967SOL     OW 2899   2.757   2.878   2.457  0.3903  0.1204 -0.0430
  967SOL    HW1 2900   2.783   2.780   2.438  1.7932 -1.8435  1.2893
  967SOL    HW2 2901   2.835   2.926   2.508 -0.5704  0.5080  1.8896
  968SOL     OW 2902   1.957   1.053   2.608 -0.3104 -0.4224 -0.0202
  968SOL    HW1 2903   1.868   1.107   2.605  1.2086 -0.9208  1.3117
  968SOL    HW2 2904   1.965   0.968   2.551  2.2272 -3.2530  3.6909
  969SOL     OW 2905   2.812   2.570   1.102  0.4007  0.3885  0.2166
  969SOL    HW1 2906   2.794   2.654   1.044 -0.1267  0.0213 -0.3977
  969SOL    HW2 2907   2.841   2.486   1.050  2.2337 -1.7178  1.2343
  970SOL     OW 2908   1.137   2.090   1.848  0.3684 -0.0845  0.3653
  970SOL    HW1 2909   1.117   2.041   1.933  2.4856 -0.8184 -0.2459
  970SOL    HW2 2910   1.076   2.064   1.768  1.9404 -1.8367  0.7070
  971SOL     OW 2911   2.876   2.158   1.925 -0.2846 -0.4177 -0.4281
  971SOL    HW1 2912   2.896   2.225   2.006 -3.3547  2.1147 -0.6692
  971SOL    HW2 2913   2.947   2.163   1.849 -0.0647 -1.5382 -0.0488
  972SOL     OW 2914   1.936   2.454   0.233  0.1520  0.5306  0.0028
  972SOL    HW1 2915   1.954   2.358   0.186 -2.0167 -2.3040  0.6547
  972SOL    HW2 2916   1.949   2.463   0.333  2.2418  2.2387 -2.6584
  973SOL     OW 2917   1.125   0.894   1.882  0.1993  0.1283  0.1177
  973SOL    HW1 2918   1.073   0.805   1.878 -1.2090  0.6684 -3.1359
  973SOL    HW2 2919   1.069   0.969   1.834 -0.9791 -1.1434 -1.1777
  974SOL     OW 2920   1.596   0.568   1.985 -0.0743  0.4563 -0.3222
  974SOL    HW1 2921   1.673   0.624   1.945  0.9372  0.8318  1.3498
  974SOL    HW2 2922   1.503   0.608   1.972  0.1192 -1.4675 -1.0775
  975SOL     OW 2923   2.396   3.032   0.004  0.2390  0.1959 -0.6852
  975SOL    HW1 2924   2.307   2.990   0.041 -0.1613 -1.7927 -1.0478
  975SOL    HW2 2925   2.419   3.000  -0.092 -0.4290 -1.6687  1.6328
  976SOL     OW 2926   1.946   2.696   2.328 -0.1382 -0.0345 -0.2989
  976SOL    HW1 2927   1.858   2.674   2.378  1.8288 -2.4012  0.7345
  976SOL    HW2 2928   2.024   2.714   2.392  0.1426 -0.4318  0.8450
  977SOL     OW 2929   0.444   0.694   1.011  0.0654  0.5103  0.0435
  977SOL    HW1 2930   0.370   0.698   0.944  0.1227  0.9763  0.1855
  977SOL    HW2 2931   0.521   0.760   0.995  0.1968  0.2875 -0.5370
   3.10000   3.10000   3.10000
